{
	 "smiles": "CC(=O)NCCC1=C(F)C=CC(=C1)C(=O)CCl", 
	 "Tm": 371.15, 
	 "num_atms": 30, 
	 "gaussian": { 
		 "optdone": 1, 
		 "sigma_profile": "yes", 
		 "theory": "DFT", 
		 "functional": "B3LYP", 
		 "basiset": "6-31G**", 
		 "properties": { 
			 "R2extent": 5471.8419, 
			 "electric_dipole_moment_norm": 5.06548795182, 
			 "electric_quadrupole_moment_norm": 15.1491284885, 
			 "total_energy": -1230.35867434, 
			 "HOMO_LUMO_gap": 0.1681, 
			 "cosmo_polarized_energy": -19.09, 
			 "cosmo_cavitation_energy": 36.75, 
			 "cosmo_dispersion_energy": -24.36, 
			 "cosmo_repulsion_energy": 1.86, 
			 "cosmo_total_nonelectrostatic_energy": 14.25, 
			 "SMD_solvation_energy": 7.14 
		},
		"coords": [
			{
				"x": -3.6482703427,
				"y": 1.4848906398,
				"z": 0.8756241663,
				"element": "C" 
			},
			{
				"x": -3.0261700075,
				"y": 0.5322984871,
				"z": -0.1361330555,
				"element": "C" 
			},
			{
				"x": -3.6298940919,
				"y": -0.441978016,
				"z": -0.564289241,
				"element": "O" 
			},
			{
				"x": -1.7564092179,
				"y": 0.8247732679,
				"z": -0.5788990352,
				"element": "N" 
			},
			{
				"x": -0.8354327362,
				"y": 1.8281305265,
				"z": -0.0773512331,
				"element": "C" 
			},
			{
				"x": 0.1951256853,
				"y": 1.2831414581,
				"z": 0.9431221327,
				"element": "C" 
			},
			{
				"x": 1.110724625,
				"y": 0.2401038136,
				"z": 0.3477622906,
				"element": "C" 
			},
			{
				"x": 2.2550152338,
				"y": 0.6157097907,
				"z": -0.3631277287,
				"element": "C" 
			},
			{
				"x": 2.5356190394,
				"y": 1.9327046251,
				"z": -0.4708980898,
				"element": "F" 
			},
			{
				"x": 3.1145604932,
				"y": -0.2969402916,
				"z": -0.9659536605,
				"element": "C" 
			},
			{
				"x": 2.8167859558,
				"y": -1.6507617985,
				"z": -0.87448671,
				"element": "C" 
			},
			{
				"x": 1.6717213769,
				"y": -2.0815214676,
				"z": -0.1846259352,
				"element": "C" 
			},
			{
				"x": 0.8379332655,
				"y": -1.1288688966,
				"z": 0.4228099706,
				"element": "C" 
			},
			{
				"x": 1.4119962998,
				"y": -3.5488659558,
				"z": -0.1225743585,
				"element": "C" 
			},
			{
				"x": 2.204493159,
				"y": -4.3576292865,
				"z": -0.578464575,
				"element": "O" 
			},
			{
				"x": 0.1437494875,
				"y": -4.0778970583,
				"z": 0.5536393226,
				"element": "C" 
			},
			{
				"x": -1.3655028397,
				"y": -3.5801755661,
				"z": -0.318846604,
				"element": "Cl" 
			},
			{
				"x": -3.741206612,
				"y": 2.4970371937,
				"z": 0.4673730857,
				"element": "H" 
			},
			{
				"x": -4.6411317079,
				"y": 1.1062472516,
				"z": 1.1159335627,
				"element": "H" 
			},
			{
				"x": -3.0575890207,
				"y": 1.5494580779,
				"z": 1.7957030112,
				"element": "H" 
			},
			{
				"x": -1.3940314196,
				"y": 0.1258642285,
				"z": -1.2155570547,
				"element": "H" 
			},
			{
				"x": -0.2976530767,
				"y": 2.2725572232,
				"z": -0.9226949373,
				"element": "H" 
			},
			{
				"x": -1.4081577208,
				"y": 2.6336113684,
				"z": 0.3876550827,
				"element": "H" 
			},
			{
				"x": 0.7862733147,
				"y": 2.1265520098,
				"z": 1.315010785,
				"element": "H" 
			},
			{
				"x": -0.3417142698,
				"y": 0.8546019038,
				"z": 1.7960978231,
				"element": "H" 
			},
			{
				"x": 3.9894975339,
				"y": 0.0652610373,
				"z": -1.4946380268,
				"element": "H" 
			},
			{
				"x": 3.4568124288,
				"y": -2.3971730173,
				"z": -1.3317237147,
				"element": "H" 
			},
			{
				"x": -0.0536185355,
				"y": -1.4418912815,
				"z": 0.9551079056,
				"element": "H" 
			},
			{
				"x": 0.0531550168,
				"y": -3.7190537111,
				"z": 1.5815460066,
				"element": "H" 
			},
			{
				"x": 0.1894186835,
				"y": -5.1651865562,
				"z": 0.5398788146,
				"element": "H" 
			}
		],
		 "valence_orbital": [ 
			{
				"type": "occ",
				"energy": -0.27636,
				"method": "rhf"
			},
			{
				"type": "occ",
				"energy": -0.26722,
				"method": "rhf"
			},
			{
				"type": "occ",
				"energy": -0.2629,
				"method": "rhf"
			},
			{
				"type": "occ",
				"energy": -0.24805,
				"method": "rhf"
			},
			{
				"type": "occ",
				"energy": -0.24291,
				"method": "rhf"
			},
			{
				"type": "unocc",
				"energy": -0.07481,
				"method": "rhf"
			},
			{
				"type": "unocc",
				"energy": -0.02981,
				"method": "rhf"
			},
			{
				"type": "unocc",
				"energy": 0.00086,
				"method": "rhf"
			},
			{
				"type": "unocc",
				"energy": 0.02889,
				"method": "rhf"
			},
			{
				"type": "unocc",
				"energy": 0.04796,
				"method": "rhf"
			}
		],
		"cosmo_sigma_profile": { 
			"-0.025": 0.0,
			"-0.024": 0.0,
			"-0.023": 0.0,
			"-0.022": 0.0,
			"-0.021": 0.0,
			"-0.02": 0.0,
			"-0.019": 0.0,
			"-0.018": 0.0,
			"-0.017": 0.0,
			"-0.016": 0.0,
			"-0.015": 0.0,
			"-0.014": 0.0,
			"-0.013": 0.0,
			"-0.012": 0.235407185516,
			"-0.011": 0.972084539577,
			"-0.01": 1.35876620859,
			"-0.009": 4.66652956672,
			"-0.008": 6.05301795674,
			"-0.007": 8.71688345489,
			"-0.006": 17.5833336091,
			"-0.005": 26.2884499804,
			"-0.004": 20.234877012,
			"-0.003": 20.9849296334,
			"-0.002": 17.6666879218,
			"-0.001": 25.4193796402,
			"0.0": 21.0295476875,
			"0.001": 19.0308759939,
			"0.002": 21.4037506914,
			"0.003": 16.6721083958,
			"0.004": 14.5785582363,
			"0.005": 10.0065005495,
			"0.006": 6.90914931998,
			"0.007": 3.68836987353,
			"0.008": 4.91455847695,
			"0.009": 4.07208306344,
			"0.01": 4.29920539015,
			"0.011": 5.48893543515,
			"0.012": 2.27520126344,
			"0.013": 2.7793016083,
			"0.014": 4.28201936331,
			"0.015": 1.75320958382,
			"0.016": 0.186046798498,
			"0.017": 0.0,
			"0.018": 0.0,
			"0.019": 0.0,
			"0.02": 0.0,
			"0.021": 0.0,
			"0.022": 0.0,
			"0.023": 0.0,
			"0.024": 0.0,
			"0.025": 0.0
		}
	}
}
