{
	 "smiles": "CC1NC(=O)OC1C1=CC=CC=C1", 
	 "Tm": 393.15, 
	 "num_atms": 24, 
	 "gaussian": { 
		 "optdone": 1, 
		 "sigma_profile": "yes", 
		 "theory": "DFT", 
		 "functional": "B3LYP", 
		 "basiset": "6-31G**", 
		 "properties": { 
			 "R2extent": 3058.6343, 
			 "electric_dipole_moment_norm": 5.19667564314, 
			 "electric_quadrupole_moment_norm": 23.8562716045, 
			 "total_energy": -592.917274569, 
			 "HOMO_LUMO_gap": 0.23743, 
			 "cosmo_polarized_energy": -14.49, 
			 "cosmo_cavitation_energy": 27.56, 
			 "cosmo_dispersion_energy": -19.85, 
			 "cosmo_repulsion_energy": 1.58, 
			 "cosmo_total_nonelectrostatic_energy": 9.29, 
			 "SMD_solvation_energy": 5.05 
		},
		"coords": [
			{
				"x": -0.2951664114,
				"y": 2.1195789736,
				"z": -2.0515030471,
				"element": "C" 
			},
			{
				"x": -1.2408972306,
				"y": 1.2603714289,
				"z": -1.2216226871,
				"element": "C" 
			},
			{
				"x": -2.646074209,
				"y": 1.4149389058,
				"z": -1.5791460705,
				"element": "N" 
			},
			{
				"x": -3.3389661143,
				"y": 0.2349121258,
				"z": -1.3912135858,
				"element": "C" 
			},
			{
				"x": -4.5321562861,
				"y": 0.0678148099,
				"z": -1.3478054233,
				"element": "O" 
			},
			{
				"x": -2.4243521432,
				"y": -0.7827222737,
				"z": -1.2672466677,
				"element": "O" 
			},
			{
				"x": -1.0915299086,
				"y": -0.2671079309,
				"z": -1.4664585027,
				"element": "C" 
			},
			{
				"x": -0.0975605685,
				"y": -0.9589407837,
				"z": -0.5678070851,
				"element": "C" 
			},
			{
				"x": 1.2115276398,
				"y": -1.1735581674,
				"z": -1.0140825168,
				"element": "C" 
			},
			{
				"x": 2.160395144,
				"y": -1.7580087978,
				"z": -0.1732130081,
				"element": "C" 
			},
			{
				"x": 1.8030329819,
				"y": -2.1459422633,
				"z": 1.1186076977,
				"element": "C" 
			},
			{
				"x": 0.4938566926,
				"y": -1.9477311699,
				"z": 1.5644722631,
				"element": "C" 
			},
			{
				"x": -0.4515257443,
				"y": -1.3549963422,
				"z": 0.7282251035,
				"element": "C" 
			},
			{
				"x": -0.4426961174,
				"y": 1.9359677934,
				"z": -3.1200966423,
				"element": "H" 
			},
			{
				"x": -0.4632824455,
				"y": 3.184215138,
				"z": -1.860488393,
				"element": "H" 
			},
			{
				"x": 0.7448589162,
				"y": 1.8969058711,
				"z": -1.7924803701,
				"element": "H" 
			},
			{
				"x": -1.0806298094,
				"y": 1.4673639159,
				"z": -0.1518454524,
				"element": "H" 
			},
			{
				"x": -3.1520442103,
				"y": 2.2685977705,
				"z": -1.3905191228,
				"element": "H" 
			},
			{
				"x": -0.8232494465,
				"y": -0.4321125156,
				"z": -2.519083615,
				"element": "H" 
			},
			{
				"x": 1.4885605238,
				"y": -0.8902363971,
				"z": -2.026732868,
				"element": "H" 
			},
			{
				"x": 3.1729159133,
				"y": -1.9195214164,
				"z": -0.5316435386,
				"element": "H" 
			},
			{
				"x": 2.5373064283,
				"y": -2.6084942232,
				"z": 1.7717305561,
				"element": "H" 
			},
			{
				"x": 0.2070593593,
				"y": -2.2595295765,
				"z": 2.5646891771,
				"element": "H" 
			},
			{
				"x": -1.4734829542,
				"y": -1.2170648749,
				"z": 1.0663637991,
				"element": "H" 
			}
		],
		 "valence_orbital": [ 
			{
				"type": "occ",
				"energy": -0.29382,
				"method": "rhf"
			},
			{
				"type": "occ",
				"energy": -0.2749,
				"method": "rhf"
			},
			{
				"type": "occ",
				"energy": -0.26237,
				"method": "rhf"
			},
			{
				"type": "occ",
				"energy": -0.25866,
				"method": "rhf"
			},
			{
				"type": "occ",
				"energy": -0.25276,
				"method": "rhf"
			},
			{
				"type": "unocc",
				"energy": -0.01533,
				"method": "rhf"
			},
			{
				"type": "unocc",
				"energy": -0.01122,
				"method": "rhf"
			},
			{
				"type": "unocc",
				"energy": 0.04817,
				"method": "rhf"
			},
			{
				"type": "unocc",
				"energy": 0.0783,
				"method": "rhf"
			},
			{
				"type": "unocc",
				"energy": 0.08524,
				"method": "rhf"
			}
		],
		"cosmo_sigma_profile": { 
			"-0.025": 0.0,
			"-0.024": 0.0,
			"-0.023": 0.0,
			"-0.022": 0.0,
			"-0.021": 0.0,
			"-0.02": 0.0,
			"-0.019": 0.0,
			"-0.018": 0.0,
			"-0.017": 0.0,
			"-0.016": 0.0,
			"-0.015": 0.49278484457,
			"-0.014": 1.5074061509,
			"-0.013": 0.806517070565,
			"-0.012": 1.20502368623,
			"-0.011": 1.50587009474,
			"-0.01": 0.57715786204,
			"-0.009": 0.999792839318,
			"-0.008": 1.04924103866,
			"-0.007": 2.70698433544,
			"-0.006": 11.8195075803,
			"-0.005": 21.6040013387,
			"-0.004": 22.1926580578,
			"-0.003": 20.827472179,
			"-0.002": 16.2138709759,
			"-0.001": 14.9433111881,
			"0.0": 14.4494614221,
			"0.001": 9.43100954706,
			"0.002": 9.01111681456,
			"0.003": 10.3118003616,
			"0.004": 11.8629594976,
			"0.005": 12.8211565538,
			"0.006": 5.08238185394,
			"0.007": 2.62897120048,
			"0.008": 2.5993124089,
			"0.009": 2.97695181386,
			"0.01": 3.46006735667,
			"0.011": 2.77917129431,
			"0.012": 5.25143037705,
			"0.013": 6.00921799753,
			"0.014": 1.21553023018,
			"0.015": 0.0,
			"0.016": 0.0,
			"0.017": 0.0,
			"0.018": 0.0,
			"0.019": 0.0,
			"0.02": 0.0,
			"0.021": 0.0,
			"0.022": 0.0,
			"0.023": 0.0,
			"0.024": 0.0,
			"0.025": 0.0
		}
	}
}
