{
	 "smiles": "NS(=O)(=O)C1=CC2=C(S1)C(O)CCS2(=O)=O", 
	 "Tm": 437.15, 
	 "num_atms": 25, 
	 "gaussian": { 
		 "optdone": 1, 
		 "sigma_profile": "yes", 
		 "theory": "DFT", 
		 "functional": "B3LYP", 
		 "basiset": "6-31G**", 
		 "properties": { 
			 "R2extent": 5441.6321, 
			 "electric_dipole_moment_norm": 5.33500199531, 
			 "electric_quadrupole_moment_norm": 28.8416840448, 
			 "total_energy": -1897.43796643, 
			 "HOMO_LUMO_gap": 0.19814, 
			 "cosmo_polarized_energy": -29.1, 
			 "cosmo_cavitation_energy": 32.97, 
			 "cosmo_dispersion_energy": -25.38, 
			 "cosmo_repulsion_energy": 1.85, 
			 "cosmo_total_nonelectrostatic_energy": 9.44, 
			 "SMD_solvation_energy": 3.7 
		},
		"coords": [
			{
				"x": 0.3955843983,
				"y": -1.6583961404,
				"z": 4.4156064167,
				"element": "N" 
			},
			{
				"x": 1.0760189152,
				"y": -2.4197647897,
				"z": 3.0719040196,
				"element": "S" 
			},
			{
				"x": 2.5317108929,
				"y": -2.2843327433,
				"z": 3.1205877655,
				"element": "O" 
			},
			{
				"x": 0.4020416391,
				"y": -3.7130258156,
				"z": 2.9629468516,
				"element": "O" 
			},
			{
				"x": 0.5304298981,
				"y": -1.3991327947,
				"z": 1.7250007577,
				"element": "C" 
			},
			{
				"x": 1.3299537543,
				"y": -0.5376618753,
				"z": 1.026123723,
				"element": "C" 
			},
			{
				"x": 0.5974179973,
				"y": 0.1074655437,
				"z": -0.0116834893,
				"element": "C" 
			},
			{
				"x": -0.723691558,
				"y": -0.2673703949,
				"z": -0.0878431259,
				"element": "C" 
			},
			{
				"x": -1.1061383535,
				"y": -1.4505343082,
				"z": 1.1282772827,
				"element": "S" 
			},
			{
				"x": -1.7936437352,
				"y": 0.2438548322,
				"z": -1.0278543927,
				"element": "C" 
			},
			{
				"x": -2.7137498166,
				"y": -0.7736471903,
				"z": -1.3857964512,
				"element": "O" 
			},
			{
				"x": -1.1764684966,
				"y": 0.9363537946,
				"z": -2.2551085529,
				"element": "C" 
			},
			{
				"x": -0.1548733906,
				"y": 2.0103541049,
				"z": -1.8704199526,
				"element": "C" 
			},
			{
				"x": 1.3405057243,
				"y": 1.258055659,
				"z": -1.1634457743,
				"element": "S" 
			},
			{
				"x": 2.0883850512,
				"y": 2.2660011563,
				"z": -0.4000238292,
				"element": "O" 
			},
			{
				"x": 2.0058738874,
				"y": 0.4931768918,
				"z": -2.2293142869,
				"element": "O" 
			},
			{
				"x": -0.0276986967,
				"y": -2.3628246737,
				"z": 5.0144947878,
				"element": "H" 
			},
			{
				"x": 1.0947247397,
				"y": -1.1114922572,
				"z": 4.9115604712,
				"element": "H" 
			},
			{
				"x": 2.3799073153,
				"y": -0.3811616805,
				"z": 1.2388858512,
				"element": "H" 
			},
			{
				"x": -2.4023131596,
				"y": 0.9790520883,
				"z": -0.4843452501,
				"element": "H" 
			},
			{
				"x": -2.2283109886,
				"y": -1.4696239124,
				"z": -1.8524519175,
				"element": "H" 
			},
			{
				"x": -0.6919298913,
				"y": 0.1898138625,
				"z": -2.8959170578,
				"element": "H" 
			},
			{
				"x": -1.9856276181,
				"y": 1.3886519617,
				"z": -2.8364506722,
				"element": "H" 
			},
			{
				"x": 0.2045394697,
				"y": 2.5684723441,
				"z": -2.7391106724,
				"element": "H" 
			},
			{
				"x": -0.5403479779,
				"y": 2.7172163371,
				"z": -1.1297225021,
				"element": "H" 
			}
		],
		 "valence_orbital": [ 
			{
				"type": "occ",
				"energy": -0.31345,
				"method": "rhf"
			},
			{
				"type": "occ",
				"energy": -0.30684,
				"method": "rhf"
			},
			{
				"type": "occ",
				"energy": -0.29831,
				"method": "rhf"
			},
			{
				"type": "occ",
				"energy": -0.28459,
				"method": "rhf"
			},
			{
				"type": "occ",
				"energy": -0.26917,
				"method": "rhf"
			},
			{
				"type": "unocc",
				"energy": -0.07103,
				"method": "rhf"
			},
			{
				"type": "unocc",
				"energy": -0.00799,
				"method": "rhf"
			},
			{
				"type": "unocc",
				"energy": -0.00468,
				"method": "rhf"
			},
			{
				"type": "unocc",
				"energy": 0.02862,
				"method": "rhf"
			},
			{
				"type": "unocc",
				"energy": 0.04021,
				"method": "rhf"
			}
		],
		"cosmo_sigma_profile": { 
			"-0.025": 0.0,
			"-0.024": 0.0,
			"-0.023": 0.0,
			"-0.022": 0.0,
			"-0.021": 0.0,
			"-0.02": 0.0,
			"-0.019": 0.0,
			"-0.018": 0.0,
			"-0.017": 0.366716940771,
			"-0.016": 1.30270790131,
			"-0.015": 3.8670404204,
			"-0.014": 3.04674585155,
			"-0.013": 4.46249755913,
			"-0.012": 3.70282394167,
			"-0.011": 3.09681866321,
			"-0.01": 5.3751925284,
			"-0.009": 9.00011979543,
			"-0.008": 10.4853178287,
			"-0.007": 13.0513200675,
			"-0.006": 14.0956537051,
			"-0.005": 10.8314379923,
			"-0.004": 11.0106426809,
			"-0.003": 10.469008809,
			"-0.002": 11.7296427797,
			"-0.001": 14.5790515857,
			"0.0": 16.6775140572,
			"0.001": 11.9647129499,
			"0.002": 8.08472411668,
			"0.003": 8.5525628632,
			"0.004": 6.58150376215,
			"0.005": 5.97921417939,
			"0.006": 6.9172722761,
			"0.007": 6.46112028891,
			"0.008": 7.52958019476,
			"0.009": 9.13948129447,
			"0.01": 19.7898010722,
			"0.011": 19.2150002541,
			"0.012": 5.57381894881,
			"0.013": 0.574984709354,
			"0.014": 0.0,
			"0.015": 0.0,
			"0.016": 0.0,
			"0.017": 0.0,
			"0.018": 0.0,
			"0.019": 0.0,
			"0.02": 0.0,
			"0.021": 0.0,
			"0.022": 0.0,
			"0.023": 0.0,
			"0.024": 0.0,
			"0.025": 0.0
		}
	}
}
