{
	 "smiles": "OC(=O)C1=CNC=C1C1=CC2=C(OCCO2)C=C1", 
	 "Tm": 470.15, 
	 "num_atms": 29, 
	 "gaussian": { 
		 "optdone": 1, 
		 "sigma_profile": "yes", 
		 "theory": "DFT", 
		 "functional": "B3LYP", 
		 "basiset": "6-31G**", 
		 "properties": { 
			 "R2extent": 5779.621, 
			 "electric_dipole_moment_norm": 3.73754214157, 
			 "electric_quadrupole_moment_norm": 25.1507682839, 
			 "total_energy": -857.651732569, 
			 "HOMO_LUMO_gap": 0.17543, 
			 "cosmo_polarized_energy": -20.21, 
			 "cosmo_cavitation_energy": 33.09, 
			 "cosmo_dispersion_energy": -24.8, 
			 "cosmo_repulsion_energy": 1.91, 
			 "cosmo_total_nonelectrostatic_energy": 10.2, 
			 "SMD_solvation_energy": 7.08 
		},
		"coords": [
			{
				"x": -0.2181122186,
				"y": -2.8225444563,
				"z": -3.9955816385,
				"element": "O" 
			},
			{
				"x": -0.1618320632,
				"y": -2.076620317,
				"z": -2.8503223178,
				"element": "C" 
			},
			{
				"x": 0.3533203785,
				"y": -2.5220152659,
				"z": -1.8416019055,
				"element": "O" 
			},
			{
				"x": -0.7754842672,
				"y": -0.7596798241,
				"z": -3.0295721847,
				"element": "C" 
			},
			{
				"x": -1.3090869454,
				"y": -0.334983154,
				"z": -4.2386831599,
				"element": "C" 
			},
			{
				"x": -1.8404327036,
				"y": 0.9018719023,
				"z": -4.0518478503,
				"element": "N" 
			},
			{
				"x": -1.6662031463,
				"y": 1.2935856193,
				"z": -2.7418056131,
				"element": "C" 
			},
			{
				"x": -1.0073579434,
				"y": 0.2898010466,
				"z": -2.0586512813,
				"element": "C" 
			},
			{
				"x": -0.6701028354,
				"y": 0.3757810521,
				"z": -0.6224131457,
				"element": "C" 
			},
			{
				"x": -1.5779305518,
				"y": 0.9884301703,
				"z": 0.2557648779,
				"element": "C" 
			},
			{
				"x": -1.2751054943,
				"y": 1.1575996761,
				"z": 1.6048973024,
				"element": "C" 
			},
			{
				"x": -0.0499741899,
				"y": 0.6946412371,
				"z": 2.1096761437,
				"element": "C" 
			},
			{
				"x": 0.2832861546,
				"y": 0.8176651921,
				"z": 3.4387289022,
				"element": "O" 
			},
			{
				"x": -0.8306275954,
				"y": 1.1016391668,
				"z": 4.2828376545,
				"element": "C" 
			},
			{
				"x": -1.6898426877,
				"y": 2.1956358112,
				"z": 3.6678957454,
				"element": "C" 
			},
			{
				"x": -2.2109048529,
				"y": 1.7667135422,
				"z": 2.4117483884,
				"element": "O" 
			},
			{
				"x": 0.8600203735,
				"y": 0.0877840328,
				"z": 1.2433465603,
				"element": "C" 
			},
			{
				"x": 0.5604923169,
				"y": -0.0668659719,
				"z": -0.1059159396,
				"element": "C" 
			},
			{
				"x": 0.2160486167,
				"y": -3.6608457223,
				"z": -3.7693273385,
				"element": "H" 
			},
			{
				"x": -1.3430930859,
				"y": -0.8400902718,
				"z": -5.1909593146,
				"element": "H" 
			},
			{
				"x": -2.2797968566,
				"y": 1.4576622075,
				"z": -4.7683997183,
				"element": "H" 
			},
			{
				"x": -1.9928322813,
				"y": 2.2636027542,
				"z": -2.3994259709,
				"element": "H" 
			},
			{
				"x": -2.546954515,
				"y": 1.3302531608,
				"z": -0.0932191404,
				"element": "H" 
			},
			{
				"x": -0.4200441349,
				"y": 1.414088423,
				"z": 5.2466825481,
				"element": "H" 
			},
			{
				"x": -1.432632951,
				"y": 0.1937479333,
				"z": 4.4279095425,
				"element": "H" 
			},
			{
				"x": -1.0902633597,
				"y": 3.1072910706,
				"z": 3.5351427263,
				"element": "H" 
			},
			{
				"x": -2.5513269171,
				"y": 2.4261003617,
				"z": 4.3004324379,
				"element": "H" 
			},
			{
				"x": 1.8019211458,
				"y": -0.2636543689,
				"z": 1.6523807945,
				"element": "H" 
			},
			{
				"x": 1.2721526105,
				"y": -0.5540950078,
				"z": -0.7587171047,
				"element": "H" 
			}
		],
		 "valence_orbital": [ 
			{
				"type": "occ",
				"energy": -0.26113,
				"method": "rhf"
			},
			{
				"type": "occ",
				"energy": -0.2552,
				"method": "rhf"
			},
			{
				"type": "occ",
				"energy": -0.23203,
				"method": "rhf"
			},
			{
				"type": "occ",
				"energy": -0.21723,
				"method": "rhf"
			},
			{
				"type": "occ",
				"energy": -0.19113,
				"method": "rhf"
			},
			{
				"type": "unocc",
				"energy": -0.0157,
				"method": "rhf"
			},
			{
				"type": "unocc",
				"energy": 0.00631,
				"method": "rhf"
			},
			{
				"type": "unocc",
				"energy": 0.0202,
				"method": "rhf"
			},
			{
				"type": "unocc",
				"energy": 0.05631,
				"method": "rhf"
			},
			{
				"type": "unocc",
				"energy": 0.0676,
				"method": "rhf"
			}
		],
		"cosmo_sigma_profile": { 
			"-0.025": 0.0,
			"-0.024": 0.0,
			"-0.023": 0.0,
			"-0.022": 0.0,
			"-0.021": 0.0,
			"-0.02": 0.0,
			"-0.019": 0.0,
			"-0.018": 0.125688499799,
			"-0.017": 1.28818886644,
			"-0.016": 2.70285711368,
			"-0.015": 2.32987360801,
			"-0.014": 2.39209274746,
			"-0.013": 1.7875846616,
			"-0.012": 0.870686352653,
			"-0.011": 2.15163080376,
			"-0.01": 2.50132613187,
			"-0.009": 2.85583112358,
			"-0.008": 4.79087925121,
			"-0.007": 8.9487550452,
			"-0.006": 15.7598862593,
			"-0.005": 19.0945905535,
			"-0.004": 14.9563643258,
			"-0.003": 13.9517026661,
			"-0.002": 10.3802632228,
			"-0.001": 11.2033299932,
			"0.0": 12.833990156,
			"0.001": 14.1499272254,
			"0.002": 14.164587088,
			"0.003": 18.257767112,
			"0.004": 23.3886748492,
			"0.005": 19.7658422256,
			"0.006": 9.22466350912,
			"0.007": 7.51040739889,
			"0.008": 5.90029807169,
			"0.009": 5.47984739034,
			"0.01": 4.76258181588,
			"0.011": 3.90554881115,
			"0.012": 3.92068572479,
			"0.013": 2.63482532755,
			"0.014": 0.0138598292818,
			"0.015": 0.0,
			"0.016": 0.0,
			"0.017": 0.0,
			"0.018": 0.0,
			"0.019": 0.0,
			"0.02": 0.0,
			"0.021": 0.0,
			"0.022": 0.0,
			"0.023": 0.0,
			"0.024": 0.0,
			"0.025": 0.0
		}
	}
}
