{
	 "smiles": "CN1C2=C(C=CC=C2)N=C1S(O)(=O)=O", 
	 "Tm": 614.15, 
	 "num_atms": 22, 
	 "gaussian": { 
		 "optdone": 1, 
		 "sigma_profile": "yes", 
		 "theory": "DFT", 
		 "functional": "B3LYP", 
		 "basiset": "6-31G**", 
		 "properties": { 
			 "R2extent": 4201.7926, 
			 "electric_dipole_moment_norm": 6.0180213102, 
			 "electric_quadrupole_moment_norm": 14.6149461658, 
			 "total_energy": -1042.96628597, 
			 "HOMO_LUMO_gap": 0.19878, 
			 "cosmo_polarized_energy": -13.71, 
			 "cosmo_cavitation_energy": 27.41, 
			 "cosmo_dispersion_energy": -21.1, 
			 "cosmo_repulsion_energy": 1.59, 
			 "cosmo_total_nonelectrostatic_energy": 7.89, 
			 "SMD_solvation_energy": 2.24 
		},
		"coords": [
			{
				"x": -0.415313027,
				"y": -0.2270105706,
				"z": -1.3470614535,
				"element": "C" 
			},
			{
				"x": 0.2259809176,
				"y": 0.6580710203,
				"z": -0.3809957697,
				"element": "N" 
			},
			{
				"x": 1.0423441819,
				"y": 0.2833038979,
				"z": 0.6803385485,
				"element": "C" 
			},
			{
				"x": 1.4286680624,
				"y": 1.489391845,
				"z": 1.3135562006,
				"element": "C" 
			},
			{
				"x": 2.2575955132,
				"y": 1.4596701671,
				"z": 2.4428044363,
				"element": "C" 
			},
			{
				"x": 2.6772152026,
				"y": 0.2173727332,
				"z": 2.9011618845,
				"element": "C" 
			},
			{
				"x": 2.285560531,
				"y": -0.9769572576,
				"z": 2.2586611575,
				"element": "C" 
			},
			{
				"x": 1.4621185928,
				"y": -0.9692233707,
				"z": 1.1377150488,
				"element": "C" 
			},
			{
				"x": 0.8650968718,
				"y": 2.5656946007,
				"z": 0.6440869549,
				"element": "N" 
			},
			{
				"x": 0.1772267883,
				"y": 2.0202975624,
				"z": -0.3295636742,
				"element": "C" 
			},
			{
				"x": -0.6644224029,
				"y": 3.0767908061,
				"z": -1.5112078737,
				"element": "S" 
			},
			{
				"x": -0.5081278426,
				"y": 4.4547966232,
				"z": -0.6846397586,
				"element": "O" 
			},
			{
				"x": -2.0758314504,
				"y": 2.713086009,
				"z": -1.5692594254,
				"element": "O" 
			},
			{
				"x": 0.1231114767,
				"y": 3.1213303022,
				"z": -2.7368146613,
				"element": "O" 
			},
			{
				"x": 0.3031881255,
				"y": -0.5661975557,
				"z": -2.0988463403,
				"element": "H" 
			},
			{
				"x": -0.8275618832,
				"y": -1.0909611007,
				"z": -0.8209036152,
				"element": "H" 
			},
			{
				"x": -1.231565925,
				"y": 0.30655797,
				"z": -1.8338376126,
				"element": "H" 
			},
			{
				"x": 2.554903613,
				"y": 2.3813318695,
				"z": 2.9314462755,
				"element": "H" 
			},
			{
				"x": 3.3218608174,
				"y": 0.1589098572,
				"z": 3.7725782144,
				"element": "H" 
			},
			{
				"x": 2.6383379493,
				"y": -1.9266944156,
				"z": 2.6487361815,
				"element": "H" 
			},
			{
				"x": 1.1687088155,
				"y": -1.8907096405,
				"z": 0.6458304413,
				"element": "H" 
			},
			{
				"x": 0.1576050718,
				"y": 4.2789486476,
				"z": 0.0267148404,
				"element": "H" 
			}
		],
		 "valence_orbital": [ 
			{
				"type": "occ",
				"energy": -0.32679,
				"method": "rhf"
			},
			{
				"type": "occ",
				"energy": -0.31686,
				"method": "rhf"
			},
			{
				"type": "occ",
				"energy": -0.30252,
				"method": "rhf"
			},
			{
				"type": "occ",
				"energy": -0.25537,
				"method": "rhf"
			},
			{
				"type": "occ",
				"energy": -0.25193,
				"method": "rhf"
			},
			{
				"type": "unocc",
				"energy": -0.05315,
				"method": "rhf"
			},
			{
				"type": "unocc",
				"energy": -0.00608,
				"method": "rhf"
			},
			{
				"type": "unocc",
				"energy": 0.01243,
				"method": "rhf"
			},
			{
				"type": "unocc",
				"energy": 0.03868,
				"method": "rhf"
			},
			{
				"type": "unocc",
				"energy": 0.04721,
				"method": "rhf"
			}
		],
		"cosmo_sigma_profile": { 
			"-0.025": 0.0,
			"-0.024": 0.0,
			"-0.023": 0.0,
			"-0.022": 0.0,
			"-0.021": 0.0,
			"-0.02": 0.0,
			"-0.019": 0.0,
			"-0.018": 0.0,
			"-0.017": 0.0,
			"-0.016": 0.0,
			"-0.015": 0.0,
			"-0.014": 0.267772487733,
			"-0.013": 0.576701167306,
			"-0.012": 0.624780649681,
			"-0.011": 0.836031461897,
			"-0.01": 0.388683505992,
			"-0.009": 0.703923476928,
			"-0.008": 4.48634182173,
			"-0.007": 11.7071025501,
			"-0.006": 15.9427034694,
			"-0.005": 19.4245154472,
			"-0.004": 18.4403354915,
			"-0.003": 14.9171155653,
			"-0.002": 11.615450768,
			"-0.001": 9.73003641403,
			"0.0": 10.4156371278,
			"0.001": 12.4300632186,
			"0.002": 11.9096404615,
			"0.003": 14.3675446443,
			"0.004": 14.1408886274,
			"0.005": 7.45211191071,
			"0.006": 7.61327401885,
			"0.007": 6.17626909816,
			"0.008": 7.07739604843,
			"0.009": 11.8323376875,
			"0.01": 7.18602379362,
			"0.011": 0.0574274584516,
			"0.012": 0.0,
			"0.013": 0.0,
			"0.014": 0.0,
			"0.015": 0.0,
			"0.016": 0.0,
			"0.017": 0.0,
			"0.018": 0.0,
			"0.019": 0.0,
			"0.02": 0.0,
			"0.021": 0.0,
			"0.022": 0.0,
			"0.023": 0.0,
			"0.024": 0.0,
			"0.025": 0.0
		}
	}
}
