{
	 "smiles": "COC1=CC2=C(C=C1)C=C(CO2)C#N", 
	 "Tm": 367.15, 
	 "num_atms": 23, 
	 "gaussian": { 
		 "optdone": 1, 
		 "sigma_profile": "yes", 
		 "theory": "DFT", 
		 "functional": "B3LYP", 
		 "basiset": "6-31G**", 
		 "properties": { 
			 "R2extent": 3723.8941, 
			 "electric_dipole_moment_norm": 5.43478004891, 
			 "electric_quadrupole_moment_norm": 21.7391330303, 
			 "total_energy": -629.745804545, 
			 "HOMO_LUMO_gap": 0.14844, 
			 "cosmo_polarized_energy": -11.96, 
			 "cosmo_cavitation_energy": 28.12, 
			 "cosmo_dispersion_energy": -20.41, 
			 "cosmo_repulsion_energy": 1.59, 
			 "cosmo_total_nonelectrostatic_energy": 9.3, 
			 "SMD_solvation_energy": 7.08 
		},
		"coords": [
			{
				"x": -0.6296071296,
				"y": -0.3952585903,
				"z": 4.058411324,
				"element": "C" 
			},
			{
				"x": 0.4836303275,
				"y": 0.1542418416,
				"z": 3.3649797022,
				"element": "O" 
			},
			{
				"x": 0.3377487129,
				"y": 0.4833189745,
				"z": 2.0565042478,
				"element": "C" 
			},
			{
				"x": -0.8434889014,
				"y": 0.2961729221,
				"z": 1.32812036,
				"element": "C" 
			},
			{
				"x": -0.8730545041,
				"y": 0.6582148904,
				"z": -0.0180636379,
				"element": "C" 
			},
			{
				"x": 0.24938502,
				"y": 1.2294937215,
				"z": -0.6542345039,
				"element": "C" 
			},
			{
				"x": 1.4189739066,
				"y": 1.4100711419,
				"z": 0.1083627619,
				"element": "C" 
			},
			{
				"x": 1.4764947596,
				"y": 1.0370590734,
				"z": 1.439228323,
				"element": "C" 
			},
			{
				"x": 0.0993282268,
				"y": 1.6831344598,
				"z": -2.0184487388,
				"element": "C" 
			},
			{
				"x": -0.9974669291,
				"y": 1.3329913775,
				"z": -2.7313854267,
				"element": "C" 
			},
			{
				"x": -1.989007069,
				"y": 0.3693879243,
				"z": -2.1038502191,
				"element": "C" 
			},
			{
				"x": -2.0576295157,
				"y": 0.5147996491,
				"z": -0.6789493256,
				"element": "O" 
			},
			{
				"x": -1.2272202398,
				"y": 1.7741676075,
				"z": -4.0632469797,
				"element": "C" 
			},
			{
				"x": -1.4450537576,
				"y": 2.1080548015,
				"z": -5.1588407654,
				"element": "N" 
			},
			{
				"x": -0.2884366338,
				"y": -0.5716443433,
				"z": 5.0791386324,
				"element": "H" 
			},
			{
				"x": -1.4768893136,
				"y": 0.3010539873,
				"z": 4.074022682,
				"element": "H" 
			},
			{
				"x": -0.9504805979,
				"y": -1.3453846506,
				"z": 3.6140291718,
				"element": "H" 
			},
			{
				"x": -1.7388831602,
				"y": -0.1236738295,
				"z": 1.7674776638,
				"element": "H" 
			},
			{
				"x": 2.2901997277,
				"y": 1.8550925142,
				"z": -0.3648335994,
				"element": "H" 
			},
			{
				"x": 2.3754421085,
				"y": 1.1682700018,
				"z": 2.0305880464,
				"element": "H" 
			},
			{
				"x": 0.8570406901,
				"y": 2.3319271232,
				"z": -2.4483576403,
				"element": "H" 
			},
			{
				"x": -1.7135604766,
				"y": -0.6700478112,
				"z": -2.3455124706,
				"element": "H" 
			},
			{
				"x": -3.0033652513,
				"y": 0.5452572132,
				"z": -2.4667396078,
				"element": "H" 
			}
		],
		 "valence_orbital": [ 
			{
				"type": "occ",
				"energy": -0.32922,
				"method": "rhf"
			},
			{
				"type": "occ",
				"energy": -0.31478,
				"method": "rhf"
			},
			{
				"type": "occ",
				"energy": -0.28321,
				"method": "rhf"
			},
			{
				"type": "occ",
				"energy": -0.25025,
				"method": "rhf"
			},
			{
				"type": "occ",
				"energy": -0.21359,
				"method": "rhf"
			},
			{
				"type": "unocc",
				"energy": -0.06515,
				"method": "rhf"
			},
			{
				"type": "unocc",
				"energy": -0.01004,
				"method": "rhf"
			},
			{
				"type": "unocc",
				"energy": 0.02888,
				"method": "rhf"
			},
			{
				"type": "unocc",
				"energy": 0.03155,
				"method": "rhf"
			},
			{
				"type": "unocc",
				"energy": 0.08617,
				"method": "rhf"
			}
		],
		"cosmo_sigma_profile": { 
			"-0.025": 0.0,
			"-0.024": 0.0,
			"-0.023": 0.0,
			"-0.022": 0.0,
			"-0.021": 0.0,
			"-0.02": 0.0,
			"-0.019": 0.0,
			"-0.018": 0.0,
			"-0.017": 0.0,
			"-0.016": 0.0,
			"-0.015": 0.0,
			"-0.014": 0.0,
			"-0.013": 0.0,
			"-0.012": 0.0,
			"-0.011": 0.0,
			"-0.01": 0.0,
			"-0.009": 0.623565781813,
			"-0.008": 5.02978315835,
			"-0.007": 10.2026485857,
			"-0.006": 20.4688371071,
			"-0.005": 19.9442616536,
			"-0.004": 17.9077107282,
			"-0.003": 15.4927521993,
			"-0.002": 11.1483613702,
			"-0.001": 11.1162547211,
			"0.0": 12.8896535494,
			"0.001": 15.9104526234,
			"0.002": 15.9434952579,
			"0.003": 17.3473671425,
			"0.004": 10.7585060035,
			"0.005": 5.89615730168,
			"0.006": 4.75425515122,
			"0.007": 5.85736002654,
			"0.008": 5.72632233758,
			"0.009": 6.19629018907,
			"0.01": 4.65768978614,
			"0.011": 2.82032190871,
			"0.012": 2.65732018768,
			"0.013": 2.26094621674,
			"0.014": 0.370075139576,
			"0.015": 0.0,
			"0.016": 0.0,
			"0.017": 0.0,
			"0.018": 0.0,
			"0.019": 0.0,
			"0.02": 0.0,
			"0.021": 0.0,
			"0.022": 0.0,
			"0.023": 0.0,
			"0.024": 0.0,
			"0.025": 0.0
		}
	}
}
