{
	 "smiles": "CC(=C)C1=CC=C(C=C1)C(C)=C", 
	 "Tm": 337.95, 
	 "num_atms": 26, 
	 "gaussian": { 
		 "optdone": 1, 
		 "sigma_profile": "yes", 
		 "theory": "DFT", 
		 "functional": "B3LYP", 
		 "basiset": "6-31G**", 
		 "properties": { 
			 "R2extent": 3011.9425, 
			 "electric_dipole_moment_norm": 0.0, 
			 "electric_quadrupole_moment_norm": 7.19149561566, 
			 "total_energy": -465.691612773, 
			 "HOMO_LUMO_gap": 0.17364, 
			 "cosmo_polarized_energy": -4.55, 
			 "cosmo_cavitation_energy": 28.8, 
			 "cosmo_dispersion_energy": -20.53, 
			 "cosmo_repulsion_energy": 1.6, 
			 "cosmo_total_nonelectrostatic_energy": 9.87, 
			 "SMD_solvation_energy": 6.1 
		},
		"coords": [
			{
				"x": -1.4241515822,
				"y": -2.1861091062,
				"z": 3.6521737809,
				"element": "C" 
			},
			{
				"x": -1.2585861393,
				"y": -0.829285461,
				"z": 3.0038255139,
				"element": "C" 
			},
			{
				"x": -1.5067344874,
				"y": 0.2911393484,
				"z": 3.7008255919,
				"element": "C" 
			},
			{
				"x": -0.8036408712,
				"y": -0.7909826284,
				"z": 1.5886833562,
				"element": "C" 
			},
			{
				"x": -0.0385232114,
				"y": -1.8339441153,
				"z": 1.0356443646,
				"element": "C" 
			},
			{
				"x": 0.4043972234,
				"y": -1.7905016165,
				"z": -0.2819402858,
				"element": "C" 
			},
			{
				"x": 0.08870202,
				"y": -0.7136139558,
				"z": -1.1286979883,
				"element": "C" 
			},
			{
				"x": -0.6764168021,
				"y": 0.3293472313,
				"z": -0.5756591672,
				"element": "C" 
			},
			{
				"x": -1.1193375073,
				"y": 0.2859043889,
				"z": 0.7419256667,
				"element": "C" 
			},
			{
				"x": 0.5436461696,
				"y": -0.6753139828,
				"z": -2.5438407191,
				"element": "C" 
			},
			{
				"x": 0.7092006145,
				"y": 0.6815073925,
				"z": -3.1921973562,
				"element": "C" 
			},
			{
				"x": 0.7918129354,
				"y": -1.795740389,
				"z": -3.2408317362,
				"element": "C" 
			},
			{
				"x": -1.8740551371,
				"y": -2.0916330286,
				"z": 4.6434454745,
				"element": "H" 
			},
			{
				"x": -2.0549894943,
				"y": -2.8457824668,
				"z": 3.0455659218,
				"element": "H" 
			},
			{
				"x": -0.4597900664,
				"y": -2.6937279292,
				"z": 3.7763843135,
				"element": "H" 
			},
			{
				"x": -1.8602954746,
				"y": 0.2474305312,
				"z": 4.7264814089,
				"element": "H" 
			},
			{
				"x": -1.3487956178,
				"y": 1.2809035017,
				"z": 3.285306632,
				"element": "H" 
			},
			{
				"x": 0.241357527,
				"y": -2.6835920168,
				"z": 1.6500120527,
				"element": "H" 
			},
			{
				"x": 1.0293432479,
				"y": -2.5961809783,
				"z": -0.6542966817,
				"element": "H" 
			},
			{
				"x": -0.9562993838,
				"y": 1.1789945525,
				"z": -1.1900267644,
				"element": "H" 
			},
			{
				"x": -1.7442852111,
				"y": 1.0915824659,
				"z": 1.1142815818,
				"element": "H" 
			},
			{
				"x": -0.2551662542,
				"y": 1.1891134745,
				"z": -3.3164182973,
				"element": "H" 
			},
			{
				"x": 1.3400266514,
				"y": 1.3411931127,
				"z": -2.585590227,
				"element": "H" 
			},
			{
				"x": 1.1591119118,
				"y": 0.5870295989,
				"z": -4.183465358,
				"element": "H" 
			},
			{
				"x": 0.6338903636,
				"y": -2.7855039754,
				"z": -2.8253050793,
				"element": "H" 
			},
			{
				"x": 1.1453785753,
				"y": -1.7520339485,
				"z": -4.2664859989,
				"element": "H" 
			}
		],
		 "valence_orbital": [ 
			{
				"type": "occ",
				"energy": -0.32696,
				"method": "rhf"
			},
			{
				"type": "occ",
				"energy": -0.29092,
				"method": "rhf"
			},
			{
				"type": "occ",
				"energy": -0.25286,
				"method": "rhf"
			},
			{
				"type": "occ",
				"energy": -0.24837,
				"method": "rhf"
			},
			{
				"type": "occ",
				"energy": -0.21,
				"method": "rhf"
			},
			{
				"type": "unocc",
				"energy": -0.03636,
				"method": "rhf"
			},
			{
				"type": "unocc",
				"energy": 0.00105,
				"method": "rhf"
			},
			{
				"type": "unocc",
				"energy": 0.0223,
				"method": "rhf"
			},
			{
				"type": "unocc",
				"energy": 0.07182,
				"method": "rhf"
			},
			{
				"type": "unocc",
				"energy": 0.09295,
				"method": "rhf"
			}
		],
		"cosmo_sigma_profile": { 
			"-0.025": 0.0,
			"-0.024": 0.0,
			"-0.023": 0.0,
			"-0.022": 0.0,
			"-0.021": 0.0,
			"-0.02": 0.0,
			"-0.019": 0.0,
			"-0.018": 0.0,
			"-0.017": 0.0,
			"-0.016": 0.0,
			"-0.015": 0.0,
			"-0.014": 0.0,
			"-0.013": 0.0,
			"-0.012": 0.0,
			"-0.011": 0.0,
			"-0.01": 0.0,
			"-0.009": 0.0,
			"-0.008": 0.0,
			"-0.007": 0.0,
			"-0.006": 2.51505294287,
			"-0.005": 15.9215976968,
			"-0.004": 22.9000730358,
			"-0.003": 23.380037665,
			"-0.002": 21.9934382536,
			"-0.001": 22.4992888118,
			"0.0": 26.8226855621,
			"0.001": 16.7366626974,
			"0.002": 14.5776594189,
			"0.003": 14.833176975,
			"0.004": 16.6131255439,
			"0.005": 17.1598311383,
			"0.006": 10.8066517726,
			"0.007": 1.52457700386,
			"0.008": 0.0,
			"0.009": 0.0,
			"0.01": 0.0,
			"0.011": 0.0,
			"0.012": 0.0,
			"0.013": 0.0,
			"0.014": 0.0,
			"0.015": 0.0,
			"0.016": 0.0,
			"0.017": 0.0,
			"0.018": 0.0,
			"0.019": 0.0,
			"0.02": 0.0,
			"0.021": 0.0,
			"0.022": 0.0,
			"0.023": 0.0,
			"0.024": 0.0,
			"0.025": 0.0
		}
	}
}
