{
	 "smiles": "CC(=O)NC1=CC=CC(Cl)=C1C(O)=O", 
	 "Tm": 490.15, 
	 "num_atms": 22, 
	 "gaussian": { 
		 "optdone": 1, 
		 "sigma_profile": "yes", 
		 "theory": "DFT", 
		 "functional": "B3LYP", 
		 "basiset": "6-31G**", 
		 "properties": { 
			 "R2extent": 3427.3718, 
			 "electric_dipole_moment_norm": 7.01415462975, 
			 "electric_quadrupole_moment_norm": 13.5582023248, 
			 "total_energy": -1088.4181198, 
			 "HOMO_LUMO_gap": 0.21464, 
			 "cosmo_polarized_energy": -20.17, 
			 "cosmo_cavitation_energy": 28.34, 
			 "cosmo_dispersion_energy": -20.41, 
			 "cosmo_repulsion_energy": 1.62, 
			 "cosmo_total_nonelectrostatic_energy": 9.56, 
			 "SMD_solvation_energy": 6.45 
		},
		"coords": [
			{
				"x": -3.3328553124,
				"y": -0.3882851834,
				"z": -0.372073192,
				"element": "C" 
			},
			{
				"x": -1.9766498487,
				"y": -0.607335262,
				"z": 0.264807531,
				"element": "C" 
			},
			{
				"x": -1.8585658699,
				"y": -0.8509445949,
				"z": 1.4661788348,
				"element": "O" 
			},
			{
				"x": -0.894828416,
				"y": -0.4827101782,
				"z": -0.5669273727,
				"element": "N" 
			},
			{
				"x": 0.4413589933,
				"y": -0.8430704869,
				"z": -0.1931512024,
				"element": "C" 
			},
			{
				"x": 0.9967977095,
				"y": -1.9866397917,
				"z": -0.7732424395,
				"element": "C" 
			},
			{
				"x": 2.2925398749,
				"y": -2.3764851363,
				"z": -0.4478356201,
				"element": "C" 
			},
			{
				"x": 3.0319280966,
				"y": -1.6369946553,
				"z": 0.4725776881,
				"element": "C" 
			},
			{
				"x": 2.4762688269,
				"y": -0.4892981178,
				"z": 1.0358225303,
				"element": "C" 
			},
			{
				"x": 3.4404518453,
				"y": 0.404036175,
				"z": 2.194353463,
				"element": "Cl" 
			},
			{
				"x": 1.1811660687,
				"y": -0.05704161,
				"z": 0.7081985562,
				"element": "C" 
			},
			{
				"x": 0.6733500384,
				"y": 1.2854457082,
				"z": 1.2102359681,
				"element": "C" 
			},
			{
				"x": -0.3586137454,
				"y": 1.2628076487,
				"z": 2.058011872,
				"element": "O" 
			},
			{
				"x": 1.1981906237,
				"y": 2.3153020332,
				"z": 0.8599591938,
				"element": "O" 
			},
			{
				"x": -3.3076861482,
				"y": -0.3529204655,
				"z": -1.464085256,
				"element": "H" 
			},
			{
				"x": -3.745149168,
				"y": 0.5534545887,
				"z": 0.0027801676,
				"element": "H" 
			},
			{
				"x": -4.0005893073,
				"y": -1.1898085851,
				"z": -0.0485180019,
				"element": "H" 
			},
			{
				"x": -1.0733700947,
				"y": -0.3606358791,
				"z": -1.5539755309,
				"element": "H" 
			},
			{
				"x": 0.4005099077,
				"y": -2.5713650106,
				"z": -1.4669035118,
				"element": "H" 
			},
			{
				"x": 2.7226485268,
				"y": -3.2662846796,
				"z": -0.8963257532,
				"element": "H" 
			},
			{
				"x": 4.034298879,
				"y": -1.9382253393,
				"z": 0.7545903106,
				"element": "H" 
			},
			{
				"x": -0.7594014801,
				"y": 0.3631988217,
				"z": 2.1089217648,
				"element": "H" 
			}
		],
		 "valence_orbital": [ 
			{
				"type": "occ",
				"energy": -0.2982,
				"method": "rhf"
			},
			{
				"type": "occ",
				"energy": -0.28679,
				"method": "rhf"
			},
			{
				"type": "occ",
				"energy": -0.2768,
				"method": "rhf"
			},
			{
				"type": "occ",
				"energy": -0.26307,
				"method": "rhf"
			},
			{
				"type": "occ",
				"energy": -0.25521,
				"method": "rhf"
			},
			{
				"type": "unocc",
				"energy": -0.04057,
				"method": "rhf"
			},
			{
				"type": "unocc",
				"energy": -0.03635,
				"method": "rhf"
			},
			{
				"type": "unocc",
				"energy": -0.0058,
				"method": "rhf"
			},
			{
				"type": "unocc",
				"energy": 0.01882,
				"method": "rhf"
			},
			{
				"type": "unocc",
				"energy": 0.02574,
				"method": "rhf"
			}
		],
		"cosmo_sigma_profile": { 
			"-0.025": 0.0,
			"-0.024": 0.0,
			"-0.023": 0.0,
			"-0.022": 0.0,
			"-0.021": 0.0,
			"-0.02": 0.0,
			"-0.019": 0.0,
			"-0.018": 0.0,
			"-0.017": 0.0706078570834,
			"-0.016": 1.14602967985,
			"-0.015": 1.2586435197,
			"-0.014": 1.56528134193,
			"-0.013": 1.01846404513,
			"-0.012": 1.59926039755,
			"-0.011": 1.59833786566,
			"-0.01": 1.65700400173,
			"-0.009": 1.68464646497,
			"-0.008": 5.60530343928,
			"-0.007": 11.8171897946,
			"-0.006": 14.3751232369,
			"-0.005": 11.2027631393,
			"-0.004": 14.6753546457,
			"-0.003": 13.9783956984,
			"-0.002": 15.9593251,
			"-0.001": 12.9782735714,
			"0.0": 12.8716397433,
			"0.001": 17.7850057591,
			"0.002": 17.2422282699,
			"0.003": 12.4395358823,
			"0.004": 8.86329426768,
			"0.005": 5.21941701459,
			"0.006": 4.5208335046,
			"0.007": 4.64171128896,
			"0.008": 4.85551126155,
			"0.009": 4.43093574127,
			"0.01": 7.04177910261,
			"0.011": 8.37887067707,
			"0.012": 6.40162783684,
			"0.013": 1.74049346095,
			"0.014": 0.132944144128,
			"0.015": 0.0,
			"0.016": 0.0,
			"0.017": 0.0,
			"0.018": 0.0,
			"0.019": 0.0,
			"0.02": 0.0,
			"0.021": 0.0,
			"0.022": 0.0,
			"0.023": 0.0,
			"0.024": 0.0,
			"0.025": 0.0
		}
	}
}
