{
	 "smiles": "COC(=O)C1=C(N)C(=CS1)S(=O)(=O)CC1=CC=CO1", 
	 "Tm": 426.15, 
	 "num_atms": 30, 
	 "gaussian": { 
		 "optdone": 1, 
		 "sigma_profile": "yes", 
		 "theory": "DFT", 
		 "functional": "B3LYP", 
		 "basiset": "6-31G**", 
		 "properties": { 
			 "R2extent": 7020.5349, 
			 "electric_dipole_moment_norm": 3.96137974575, 
			 "electric_quadrupole_moment_norm": 28.3718389071, 
			 "total_energy": -1652.95686435, 
			 "HOMO_LUMO_gap": 0.16659, 
			 "cosmo_polarized_energy": -18.95, 
			 "cosmo_cavitation_energy": 37.89, 
			 "cosmo_dispersion_energy": -27.12, 
			 "cosmo_repulsion_energy": 2.01, 
			 "cosmo_total_nonelectrostatic_energy": 12.77, 
			 "SMD_solvation_energy": 7.83 
		},
		"coords": [
			{
				"x": 2.1410481817,
				"y": -1.5400016449,
				"z": -5.6249579342,
				"element": "C" 
			},
			{
				"x": 1.4596281728,
				"y": -0.9530404552,
				"z": -4.5024020684,
				"element": "O" 
			},
			{
				"x": 2.2080146674,
				"y": -0.073738977,
				"z": -3.7712446981,
				"element": "C" 
			},
			{
				"x": 3.3659864893,
				"y": 0.1899763185,
				"z": -4.0404733696,
				"element": "O" 
			},
			{
				"x": 1.4629780581,
				"y": 0.4949476907,
				"z": -2.6593137318,
				"element": "C" 
			},
			{
				"x": 0.1433786067,
				"y": 0.2943924888,
				"z": -2.2548832181,
				"element": "C" 
			},
			{
				"x": -0.7568907178,
				"y": -0.5828904995,
				"z": -2.7962786569,
				"element": "N" 
			},
			{
				"x": -0.158434155,
				"y": 1.1176211536,
				"z": -1.1081097644,
				"element": "C" 
			},
			{
				"x": 0.8891287858,
				"y": 1.8953452807,
				"z": -0.6895594565,
				"element": "C" 
			},
			{
				"x": 2.2897143693,
				"y": 1.6712667516,
				"z": -1.6506390735,
				"element": "S" 
			},
			{
				"x": -1.7239411633,
				"y": 1.1150984892,
				"z": -0.2666528127,
				"element": "S" 
			},
			{
				"x": -1.7723383455,
				"y": 2.2838672682,
				"z": 0.6194939783,
				"element": "O" 
			},
			{
				"x": -2.7749283693,
				"y": 0.8819396406,
				"z": -1.2820490215,
				"element": "O" 
			},
			{
				"x": -1.6794871185,
				"y": -0.4246310327,
				"z": 0.7605725631,
				"element": "C" 
			},
			{
				"x": -0.7090742759,
				"y": -0.3972724079,
				"z": 1.8719731564,
				"element": "C" 
			},
			{
				"x": 0.5958587422,
				"y": -0.790028831,
				"z": 1.9885777065,
				"element": "C" 
			},
			{
				"x": 0.998511394,
				"y": -0.468678505,
				"z": 3.3237091863,
				"element": "C" 
			},
			{
				"x": -0.0891110488,
				"y": 0.0971761562,
				"z": 3.9181643053,
				"element": "C" 
			},
			{
				"x": -1.13556337,
				"y": 0.1491654792,
				"z": 3.0514838446,
				"element": "O" 
			},
			{
				"x": 3.0224969538,
				"y": -2.0926145513,
				"z": -5.2919211582,
				"element": "H" 
			},
			{
				"x": 2.4541731136,
				"y": -0.7674968229,
				"z": -6.3311923413,
				"element": "H" 
			},
			{
				"x": 1.4189699896,
				"y": -2.2126355035,
				"z": -6.0878043461,
				"element": "H" 
			},
			{
				"x": -0.4872574398,
				"y": -0.9827804845,
				"z": -3.6841645053,
				"element": "H" 
			},
			{
				"x": -1.7319898866,
				"y": -0.330836044,
				"z": -2.6763222344,
				"element": "H" 
			},
			{
				"x": 0.87355986,
				"y": 2.5858912638,
				"z": 0.142286974,
				"element": "H" 
			},
			{
				"x": -2.7102376909,
				"y": -0.513462633,
				"z": 1.1159994978,
				"element": "H" 
			},
			{
				"x": -1.4738673298,
				"y": -1.2300720038,
				"z": 0.0512091556,
				"element": "H" 
			},
			{
				"x": 1.1935554222,
				"y": -1.2550067307,
				"z": 1.2175405203,
				"element": "H" 
			},
			{
				"x": 1.9641521691,
				"y": -0.6404289446,
				"z": 3.7764683977,
				"element": "H" 
			},
			{
				"x": -0.2773340644,
				"y": 0.4898280903,
				"z": 4.9052891051,
				"element": "H" 
			}
		],
		 "valence_orbital": [ 
			{
				"type": "occ",
				"energy": -0.28892,
				"method": "rhf"
			},
			{
				"type": "occ",
				"energy": -0.282,
				"method": "rhf"
			},
			{
				"type": "occ",
				"energy": -0.26912,
				"method": "rhf"
			},
			{
				"type": "occ",
				"energy": -0.23488,
				"method": "rhf"
			},
			{
				"type": "occ",
				"energy": -0.22594,
				"method": "rhf"
			},
			{
				"type": "unocc",
				"energy": -0.05935,
				"method": "rhf"
			},
			{
				"type": "unocc",
				"energy": -0.016,
				"method": "rhf"
			},
			{
				"type": "unocc",
				"energy": -0.00479,
				"method": "rhf"
			},
			{
				"type": "unocc",
				"energy": 0.01293,
				"method": "rhf"
			},
			{
				"type": "unocc",
				"energy": 0.0492,
				"method": "rhf"
			}
		],
		"cosmo_sigma_profile": { 
			"-0.025": 0.0,
			"-0.024": 0.0,
			"-0.023": 0.0,
			"-0.022": 0.0,
			"-0.021": 0.0,
			"-0.02": 0.0,
			"-0.019": 0.0,
			"-0.018": 0.0,
			"-0.017": 0.0,
			"-0.016": 0.0,
			"-0.015": 0.0,
			"-0.014": 0.0,
			"-0.013": 0.0,
			"-0.012": 0.0203606693223,
			"-0.011": 1.57893068289,
			"-0.01": 4.62203068113,
			"-0.009": 7.2100576385,
			"-0.008": 7.23981208921,
			"-0.007": 13.4330509043,
			"-0.006": 16.2586685729,
			"-0.005": 19.7938903493,
			"-0.004": 19.5080888534,
			"-0.003": 21.1922429265,
			"-0.002": 17.8674363476,
			"-0.001": 21.3928615321,
			"0.0": 22.8464793723,
			"0.001": 25.3120587948,
			"0.002": 20.640808366,
			"0.003": 15.60340059,
			"0.004": 10.9089463357,
			"0.005": 7.97806227997,
			"0.006": 7.06756068497,
			"0.007": 6.11999332315,
			"0.008": 7.05225267775,
			"0.009": 5.53852764162,
			"0.01": 8.88891689356,
			"0.011": 10.1277241873,
			"0.012": 6.91435059526,
			"0.013": 0.482990718504,
			"0.014": 0.0,
			"0.015": 0.0,
			"0.016": 0.0,
			"0.017": 0.0,
			"0.018": 0.0,
			"0.019": 0.0,
			"0.02": 0.0,
			"0.021": 0.0,
			"0.022": 0.0,
			"0.023": 0.0,
			"0.024": 0.0,
			"0.025": 0.0
		}
	}
}
