{
	 "smiles": "ClC1=CC=CC(Cl)=C1C1=C2C=CC(SC3=CC=CC=C3)=NN2C=NC1=O", 
	 "Tm": 537.15, 
	 "num_atms": 37, 
	 "gaussian": { 
		 "optdone": 1, 
		 "sigma_profile": "yes", 
		 "theory": "DFT", 
		 "functional": "B3LYP", 
		 "basiset": "6-31G**", 
		 "properties": { 
			 "R2extent": 13479.9285, 
			 "electric_dipole_moment_norm": 10.0285479916, 
			 "electric_quadrupole_moment_norm": 20.60006562, 
			 "total_energy": -2288.64769591, 
			 "HOMO_LUMO_gap": 0.12638, 
			 "cosmo_polarized_energy": -24.78, 
			 "cosmo_cavitation_energy": 48.11, 
			 "cosmo_dispersion_energy": -33.06, 
			 "cosmo_repulsion_energy": 2.47, 
			 "cosmo_total_nonelectrostatic_energy": 17.51, 
			 "SMD_solvation_energy": 5.64 
		},
		"coords": [
			{
				"x": 3.9928439592,
				"y": -1.4093513887,
				"z": -2.6779344358,
				"element": "Cl" 
			},
			{
				"x": 2.5599670763,
				"y": -0.609212589,
				"z": -3.2991456967,
				"element": "C" 
			},
			{
				"x": 2.7083547835,
				"y": 0.2450174228,
				"z": -4.3900150173,
				"element": "C" 
			},
			{
				"x": 1.5892312513,
				"y": 0.9013839009,
				"z": -4.8974364186,
				"element": "C" 
			},
			{
				"x": 0.337008391,
				"y": 0.7088235258,
				"z": -4.3190052726,
				"element": "C" 
			},
			{
				"x": 0.216557995,
				"y": -0.1526663376,
				"z": -3.2296229426,
				"element": "C" 
			},
			{
				"x": -1.3823414214,
				"y": -0.3750920122,
				"z": -2.5330923267,
				"element": "Cl" 
			},
			{
				"x": 1.3156497127,
				"y": -0.8401713615,
				"z": -2.6840096535,
				"element": "C" 
			},
			{
				"x": 1.1692429359,
				"y": -1.8019560522,
				"z": -1.5602835725,
				"element": "C" 
			},
			{
				"x": 1.151933613,
				"y": -1.3861319098,
				"z": -0.2527975598,
				"element": "C" 
			},
			{
				"x": 1.2819583642,
				"y": -0.0270775656,
				"z": 0.2127154934,
				"element": "C" 
			},
			{
				"x": 1.2487011481,
				"y": 0.2526818598,
				"z": 1.5350542689,
				"element": "C" 
			},
			{
				"x": 1.0774652167,
				"y": -0.8407009188,
				"z": 2.4688415159,
				"element": "C" 
			},
			{
				"x": 1.1324698149,
				"y": -0.608200564,
				"z": 4.2384596149,
				"element": "S" 
			},
			{
				"x": 0.543326411,
				"y": 1.0786297483,
				"z": 4.4235927387,
				"element": "C" 
			},
			{
				"x": 1.4203849688,
				"y": 2.0571185815,
				"z": 4.9082534607,
				"element": "C" 
			},
			{
				"x": 0.9586153202,
				"y": 3.3568941878,
				"z": 5.1268893485,
				"element": "C" 
			},
			{
				"x": -0.3697575657,
				"y": 3.6845373649,
				"z": 4.851338051,
				"element": "C" 
			},
			{
				"x": -1.2441250795,
				"y": 2.7081337019,
				"z": 4.366511484,
				"element": "C" 
			},
			{
				"x": -0.7957510455,
				"y": 1.4033635679,
				"z": 4.1632057902,
				"element": "C" 
			},
			{
				"x": 0.9495564088,
				"y": -2.0792878416,
				"z": 2.098915912,
				"element": "N" 
			},
			{
				"x": 1.0019654222,
				"y": -2.3431123363,
				"z": 0.7568775252,
				"element": "N" 
			},
			{
				"x": 0.8758029484,
				"y": -3.6760634672,
				"z": 0.399409307,
				"element": "C" 
			},
			{
				"x": 0.8891371433,
				"y": -4.1218588034,
				"z": -0.8019954988,
				"element": "N" 
			},
			{
				"x": 1.0406028348,
				"y": -3.2298656007,
				"z": -1.8961395969,
				"element": "C" 
			},
			{
				"x": 1.0582841143,
				"y": -3.6468971439,
				"z": -3.0440840757,
				"element": "O" 
			},
			{
				"x": 3.6881997179,
				"y": 0.3865148663,
				"z": -4.8309901337,
				"element": "H" 
			},
			{
				"x": 1.6934963542,
				"y": 1.5659238509,
				"z": -5.7494410684,
				"element": "H" 
			},
			{
				"x": -0.5419132656,
				"y": 1.2113743967,
				"z": -4.7056416233,
				"element": "H" 
			},
			{
				"x": 1.4170596133,
				"y": 0.7488920065,
				"z": -0.5314273543,
				"element": "H" 
			},
			{
				"x": 1.3544603495,
				"y": 1.263940188,
				"z": 1.906581369,
				"element": "H" 
			},
			{
				"x": 2.4547704564,
				"y": 1.7986417595,
				"z": 5.1112524827,
				"element": "H" 
			},
			{
				"x": 1.6401746429,
				"y": 4.1126477391,
				"z": 5.5057946725,
				"element": "H" 
			},
			{
				"x": -0.7252732009,
				"y": 4.6970748159,
				"z": 5.0173879834,
				"element": "H" 
			},
			{
				"x": -2.2800681617,
				"y": 2.9587779288,
				"z": 4.1583862902,
				"element": "H" 
			},
			{
				"x": -1.4780544923,
				"y": 0.637156936,
				"z": 3.8089849519,
				"element": "H" 
			},
			{
				"x": 0.7601632649,
				"y": -4.3341824564,
				"z": 1.258309987,
				"element": "H" 
			}
		],
		 "valence_orbital": [ 
			{
				"type": "occ",
				"energy": -0.25982,
				"method": "rhf"
			},
			{
				"type": "occ",
				"energy": -0.2588,
				"method": "rhf"
			},
			{
				"type": "occ",
				"energy": -0.25139,
				"method": "rhf"
			},
			{
				"type": "occ",
				"energy": -0.23471,
				"method": "rhf"
			},
			{
				"type": "occ",
				"energy": -0.21787,
				"method": "rhf"
			},
			{
				"type": "unocc",
				"energy": -0.09149,
				"method": "rhf"
			},
			{
				"type": "unocc",
				"energy": -0.04529,
				"method": "rhf"
			},
			{
				"type": "unocc",
				"energy": -0.03839,
				"method": "rhf"
			},
			{
				"type": "unocc",
				"energy": -0.03007,
				"method": "rhf"
			},
			{
				"type": "unocc",
				"energy": -0.02862,
				"method": "rhf"
			}
		],
		"cosmo_sigma_profile": { 
			"-0.025": 0.0,
			"-0.024": 0.0,
			"-0.023": 0.0,
			"-0.022": 0.0,
			"-0.021": 0.0,
			"-0.02": 0.0,
			"-0.019": 0.0,
			"-0.018": 0.0,
			"-0.017": 0.0,
			"-0.016": 0.0,
			"-0.015": 0.0,
			"-0.014": 0.0,
			"-0.013": 0.0,
			"-0.012": 0.0,
			"-0.011": 0.0298138929718,
			"-0.01": 1.51498728642,
			"-0.009": 3.82771521297,
			"-0.008": 7.63539533309,
			"-0.007": 16.0298203828,
			"-0.006": 25.4565312913,
			"-0.005": 27.3890988196,
			"-0.004": 26.5560147217,
			"-0.003": 25.4051793201,
			"-0.002": 27.5057538502,
			"-0.001": 26.8063649693,
			"0.0": 29.7427353341,
			"0.001": 32.8711555373,
			"0.002": 36.0285469341,
			"0.003": 33.426334432,
			"0.004": 26.0452841144,
			"0.005": 8.55383117822,
			"0.006": 7.23800306068,
			"0.007": 3.92237630826,
			"0.008": 2.98542484339,
			"0.009": 2.62510082247,
			"0.01": 2.91333642435,
			"0.011": 2.54006309068,
			"0.012": 2.70700105304,
			"0.013": 4.78409039336,
			"0.014": 5.59201016339,
			"0.015": 3.74520315994,
			"0.016": 1.32547402298,
			"0.017": 0.0,
			"0.018": 0.0,
			"0.019": 0.0,
			"0.02": 0.0,
			"0.021": 0.0,
			"0.022": 0.0,
			"0.023": 0.0,
			"0.024": 0.0,
			"0.025": 0.0
		}
	}
}
