{
	 "smiles": "CCCCS(=O)(=O)N1CCCCC1C(O)=O", 
	 "Tm": 352.15, 
	 "num_atms": 35, 
	 "gaussian": { 
		 "optdone": 1, 
		 "sigma_profile": "yes", 
		 "theory": "DFT", 
		 "functional": "B3LYP", 
		 "basiset": "6-31G**", 
		 "properties": { 
			 "R2extent": 5806.2265, 
			 "electric_dipole_moment_norm": 7.10208220454, 
			 "electric_quadrupole_moment_norm": 22.4364253688, 
			 "total_energy": -1146.31136803, 
			 "HOMO_LUMO_gap": 0.25105, 
			 "cosmo_polarized_energy": -18.35, 
			 "cosmo_cavitation_energy": 36.15, 
			 "cosmo_dispersion_energy": -25.78, 
			 "cosmo_repulsion_energy": 1.98, 
			 "cosmo_total_nonelectrostatic_energy": 12.35, 
			 "SMD_solvation_energy": 5.32 
		},
		"coords": [
			{
				"x": -2.113775268,
				"y": 3.6029402646,
				"z": 0.3075068183,
				"element": "C" 
			},
			{
				"x": -2.7960055735,
				"y": 2.305491577,
				"z": -0.1368979591,
				"element": "C" 
			},
			{
				"x": -1.8645655165,
				"y": 1.4006982491,
				"z": -0.9588538587,
				"element": "C" 
			},
			{
				"x": -2.5624973633,
				"y": 0.112472053,
				"z": -1.3913007161,
				"element": "C" 
			},
			{
				"x": -1.5709916678,
				"y": -0.9815318819,
				"z": -2.4534364802,
				"element": "S" 
			},
			{
				"x": -1.0183567539,
				"y": -0.1381672518,
				"z": -3.5401687422,
				"element": "O" 
			},
			{
				"x": -2.4144151948,
				"y": -2.1390955687,
				"z": -2.7535420312,
				"element": "O" 
			},
			{
				"x": -0.2498294834,
				"y": -1.5089387594,
				"z": -1.5963433874,
				"element": "N" 
			},
			{
				"x": -0.4129208145,
				"y": -2.624419291,
				"z": -0.6365509784,
				"element": "C" 
			},
			{
				"x": 0.9493924705,
				"y": -3.2655000837,
				"z": -0.3690218393,
				"element": "C" 
			},
			{
				"x": 1.9436430938,
				"y": -2.2641328442,
				"z": 0.2533298497,
				"element": "C" 
			},
			{
				"x": 1.6988159694,
				"y": -0.8198376497,
				"z": -0.2447613739,
				"element": "C" 
			},
			{
				"x": 1.0312445543,
				"y": -0.7549725338,
				"z": -1.6238869693,
				"element": "C" 
			},
			{
				"x": 1.9704891196,
				"y": -1.2669011689,
				"z": -2.7481053896,
				"element": "C" 
			},
			{
				"x": 1.4804521,
				"y": -1.2102263639,
				"z": -3.9908807788,
				"element": "O" 
			},
			{
				"x": 3.0914513432,
				"y": -1.6672941836,
				"z": -2.5234609,
				"element": "O" 
			},
			{
				"x": -2.7982357056,
				"y": 4.2298435667,
				"z": 0.8870104293,
				"element": "H" 
			},
			{
				"x": -1.7748066306,
				"y": 4.187616118,
				"z": -0.5545933009,
				"element": "H" 
			},
			{
				"x": -1.2389579628,
				"y": 3.3975602452,
				"z": 0.9345073485,
				"element": "H" 
			},
			{
				"x": -3.6862946973,
				"y": 2.5431137504,
				"z": -0.733536637,
				"element": "H" 
			},
			{
				"x": -3.1546494973,
				"y": 1.7567555114,
				"z": 0.7439935535,
				"element": "H" 
			},
			{
				"x": -0.9774004214,
				"y": 1.1581525016,
				"z": -0.3604924264,
				"element": "H" 
			},
			{
				"x": -1.5167441807,
				"y": 1.9360045423,
				"z": -1.8490850591,
				"element": "H" 
			},
			{
				"x": -3.4543720317,
				"y": 0.3154232072,
				"z": -1.993187254,
				"element": "H" 
			},
			{
				"x": -2.8685259218,
				"y": -0.5056308696,
				"z": -0.5411864569,
				"element": "H" 
			},
			{
				"x": -0.8490796994,
				"y": -2.2625809254,
				"z": 0.307939769,
				"element": "H" 
			},
			{
				"x": -1.1058078966,
				"y": -3.3435808052,
				"z": -1.0763081212,
				"element": "H" 
			},
			{
				"x": 0.8068271756,
				"y": -4.1304238098,
				"z": 0.2871415798,
				"element": "H" 
			},
			{
				"x": 1.3452401808,
				"y": -3.6476716414,
				"z": -1.3155497956,
				"element": "H" 
			},
			{
				"x": 2.9612057765,
				"y": -2.5703055844,
				"z": 0.0044383711,
				"element": "H" 
			},
			{
				"x": 1.8545242875,
				"y": -2.2789035069,
				"z": 1.3454996669,
				"element": "H" 
			},
			{
				"x": 1.0463830306,
				"y": -0.2858653359,
				"z": 0.456360023,
				"element": "H" 
			},
			{
				"x": 2.6402053717,
				"y": -0.2674977928,
				"z": -0.2920811514,
				"element": "H" 
			},
			{
				"x": 0.8050951799,
				"y": 0.2884344319,
				"z": -1.8660341714,
				"element": "H" 
			},
			{
				"x": 0.5763626275,
				"y": -0.8227281662,
				"z": -3.9993616309,
				"element": "H" 
			}
		],
		 "valence_orbital": [ 
			{
				"type": "occ",
				"energy": -0.31829,
				"method": "rhf"
			},
			{
				"type": "occ",
				"energy": -0.30962,
				"method": "rhf"
			},
			{
				"type": "occ",
				"energy": -0.30271,
				"method": "rhf"
			},
			{
				"type": "occ",
				"energy": -0.2877,
				"method": "rhf"
			},
			{
				"type": "occ",
				"energy": -0.24626,
				"method": "rhf"
			},
			{
				"type": "unocc",
				"energy": 0.00479,
				"method": "rhf"
			},
			{
				"type": "unocc",
				"energy": 0.04248,
				"method": "rhf"
			},
			{
				"type": "unocc",
				"energy": 0.05769,
				"method": "rhf"
			},
			{
				"type": "unocc",
				"energy": 0.06521,
				"method": "rhf"
			},
			{
				"type": "unocc",
				"energy": 0.07603,
				"method": "rhf"
			}
		],
		"cosmo_sigma_profile": { 
			"-0.025": 0.0,
			"-0.024": 0.0,
			"-0.023": 0.0,
			"-0.022": 0.0,
			"-0.021": 0.0,
			"-0.02": 0.0,
			"-0.019": 0.0,
			"-0.018": 0.0,
			"-0.017": 0.0,
			"-0.016": 0.0,
			"-0.015": 0.0,
			"-0.014": 0.0,
			"-0.013": 0.0,
			"-0.012": 0.0,
			"-0.011": 0.0,
			"-0.01": 0.00999320176591,
			"-0.009": 0.958414387714,
			"-0.008": 5.41748497053,
			"-0.007": 6.98092724949,
			"-0.006": 9.1652023052,
			"-0.005": 17.1279624976,
			"-0.004": 29.5375831353,
			"-0.003": 37.7820635672,
			"-0.002": 32.7101617945,
			"-0.001": 30.1820509041,
			"0.0": 23.8742045535,
			"0.001": 15.86525391,
			"0.002": 6.61022711738,
			"0.003": 5.31401843647,
			"0.004": 3.90299800016,
			"0.005": 4.19370567097,
			"0.006": 6.09226021801,
			"0.007": 4.80979956889,
			"0.008": 5.64280549422,
			"0.009": 6.21793515278,
			"0.01": 9.2074422844,
			"0.011": 11.9491051035,
			"0.012": 5.24904143013,
			"0.013": 1.91824287976,
			"0.014": 0.180335741292,
			"0.015": 0.0,
			"0.016": 0.0,
			"0.017": 0.0,
			"0.018": 0.0,
			"0.019": 0.0,
			"0.02": 0.0,
			"0.021": 0.0,
			"0.022": 0.0,
			"0.023": 0.0,
			"0.024": 0.0,
			"0.025": 0.0
		}
	}
}
