{
	 "smiles": "CC1=CC2=C(C(O)=C1)C(=O)C1=C(C=C(OC[C@H]3CO3)C=C1O)C2=O", 
	 "Tm": 473.5, 
	 "num_atms": 38, 
	 "gaussian": { 
		 "optdone": 1, 
		 "sigma_profile": "yes", 
		 "theory": "DFT", 
		 "functional": "B3LYP", 
		 "basiset": "6-31G**", 
		 "properties": { 
			 "R2extent": 9733.1434, 
			 "electric_dipole_moment_norm": 3.78645550614, 
			 "electric_quadrupole_moment_norm": 26.28316716, 
			 "total_energy": -1145.68429739, 
			 "HOMO_LUMO_gap": 0.12352, 
			 "cosmo_polarized_energy": -15.23, 
			 "cosmo_cavitation_energy": 41.68, 
			 "cosmo_dispersion_energy": -30.74, 
			 "cosmo_repulsion_energy": 2.26, 
			 "cosmo_total_nonelectrostatic_energy": 13.21, 
			 "SMD_solvation_energy": 8.31 
		},
		"coords": [
			{
				"x": 2.2662119563,
				"y": -2.1504454998,
				"z": -4.1754054045,
				"element": "C" 
			},
			{
				"x": 2.1432997687,
				"y": -1.3640261989,
				"z": -2.8937789133,
				"element": "C" 
			},
			{
				"x": 0.8752074496,
				"y": -0.9433656734,
				"z": -2.4432946007,
				"element": "C" 
			},
			{
				"x": 0.7453025862,
				"y": -0.2220098541,
				"z": -1.26637494,
				"element": "C" 
			},
			{
				"x": 1.8845150972,
				"y": 0.1102940759,
				"z": -0.4902019545,
				"element": "C" 
			},
			{
				"x": 3.1601263757,
				"y": -0.3101594477,
				"z": -0.9428144143,
				"element": "C" 
			},
			{
				"x": 4.2873304127,
				"y": -0.0391225058,
				"z": -0.273897674,
				"element": "O" 
			},
			{
				"x": 3.2662649895,
				"y": -1.0426239557,
				"z": -2.1402229828,
				"element": "C" 
			},
			{
				"x": 1.7523996428,
				"y": 0.8681286666,
				"z": 0.7501015932,
				"element": "C" 
			},
			{
				"x": 2.7835904321,
				"y": 1.1584593194,
				"z": 1.4310015934,
				"element": "O" 
			},
			{
				"x": 0.432903655,
				"y": 1.2828181482,
				"z": 1.198669461,
				"element": "C" 
			},
			{
				"x": -0.7280635541,
				"y": 0.9658008963,
				"z": 0.4516661898,
				"element": "C" 
			},
			{
				"x": -1.9941612364,
				"y": 1.3446880041,
				"z": 0.8775679829,
				"element": "C" 
			},
			{
				"x": -2.1208429199,
				"y": 2.0766852778,
				"z": 2.0736815519,
				"element": "C" 
			},
			{
				"x": -3.3018740492,
				"y": 2.5224444031,
				"z": 2.5817666054,
				"element": "O" 
			},
			{
				"x": -4.5021086145,
				"y": 2.4588577483,
				"z": 1.8056975081,
				"element": "C" 
			},
			{
				"x": -5.2280146838,
				"y": 1.1430748513,
				"z": 1.9438644796,
				"element": "C" 
			},
			{
				"x": -6.2218153338,
				"y": 0.7314948356,
				"z": 0.9404237916,
				"element": "C" 
			},
			{
				"x": -4.9312032442,
				"y": 0.1151448218,
				"z": 0.9918421006,
				"element": "O" 
			},
			{
				"x": -0.9960834884,
				"y": 2.4018051192,
				"z": 2.8321685686,
				"element": "C" 
			},
			{
				"x": 0.279154403,
				"y": 2.0095449715,
				"z": 2.4138977565,
				"element": "C" 
			},
			{
				"x": 1.3232002063,
				"y": 2.3473476285,
				"z": 3.1800767729,
				"element": "O" 
			},
			{
				"x": -0.6180189756,
				"y": 0.2041595519,
				"z": -0.8312747485,
				"element": "C" 
			},
			{
				"x": -1.6101868229,
				"y": -0.0541379675,
				"z": -1.5035049672,
				"element": "O" 
			},
			{
				"x": 1.8618879992,
				"y": -1.5840991664,
				"z": -5.021867028,
				"element": "H" 
			},
			{
				"x": 1.6978631287,
				"y": -3.0854599771,
				"z": -4.1158257013,
				"element": "H" 
			},
			{
				"x": 3.3066803778,
				"y": -2.3987899929,
				"z": -4.3982112536,
				"element": "H" 
			},
			{
				"x": -0.0232879761,
				"y": -1.1745462136,
				"z": -3.0059861295,
				"element": "H" 
			},
			{
				"x": 4.0204802743,
				"y": 0.4747953655,
				"z": 0.5301197244,
				"element": "H" 
			},
			{
				"x": 4.2591846855,
				"y": -1.348372824,
				"z": -2.4550009021,
				"element": "H" 
			},
			{
				"x": -2.8508359698,
				"y": 1.0263582441,
				"z": 0.2971374365,
				"element": "H" 
			},
			{
				"x": -4.3027950361,
				"y": 2.6763406914,
				"z": 0.7501193559,
				"element": "H" 
			},
			{
				"x": -5.128905721,
				"y": 3.2587283371,
				"z": 2.2137101841,
				"element": "H" 
			},
			{
				"x": -5.3409068306,
				"y": 0.7903967523,
				"z": 2.9703940662,
				"element": "H" 
			},
			{
				"x": -6.4043799163,
				"y": 1.3609851519,
				"z": 0.0691535301,
				"element": "H" 
			},
			{
				"x": -7.0580586327,
				"y": 0.1010920497,
				"z": 1.2402020462,
				"element": "H" 
			},
			{
				"x": -1.1047858402,
				"y": 2.9667072611,
				"z": 3.7504411149,
				"element": "H" 
			},
			{
				"x": 2.1308254049,
				"y": 1.9948071044,
				"z": 2.7277582003,
				"element": "H" 
			}
		],
		 "valence_orbital": [ 
			{
				"type": "occ",
				"energy": -0.26698,
				"method": "rhf"
			},
			{
				"type": "occ",
				"energy": -0.2567,
				"method": "rhf"
			},
			{
				"type": "occ",
				"energy": -0.24434,
				"method": "rhf"
			},
			{
				"type": "occ",
				"energy": -0.23734,
				"method": "rhf"
			},
			{
				"type": "occ",
				"energy": -0.22717,
				"method": "rhf"
			},
			{
				"type": "unocc",
				"energy": -0.10365,
				"method": "rhf"
			},
			{
				"type": "unocc",
				"energy": -0.0447,
				"method": "rhf"
			},
			{
				"type": "unocc",
				"energy": -0.01606,
				"method": "rhf"
			},
			{
				"type": "unocc",
				"energy": 0.00654,
				"method": "rhf"
			},
			{
				"type": "unocc",
				"energy": 0.05482,
				"method": "rhf"
			}
		],
		"cosmo_sigma_profile": { 
			"-0.025": 0.0,
			"-0.024": 0.0,
			"-0.023": 0.0,
			"-0.022": 0.0,
			"-0.021": 0.0,
			"-0.02": 0.0,
			"-0.019": 0.0,
			"-0.018": 0.0,
			"-0.017": 0.0,
			"-0.016": 0.0,
			"-0.015": 0.0,
			"-0.014": 0.0,
			"-0.013": 0.0,
			"-0.012": 0.0,
			"-0.011": 0.0,
			"-0.01": 0.0,
			"-0.009": 0.0,
			"-0.008": 1.24070951994,
			"-0.007": 15.6748140895,
			"-0.006": 18.3958706278,
			"-0.005": 24.8326030451,
			"-0.004": 26.6685503843,
			"-0.003": 28.0284248199,
			"-0.002": 26.1244014661,
			"-0.001": 27.776308901,
			"0.0": 26.9734555128,
			"0.001": 33.9473496146,
			"0.002": 25.2563840029,
			"0.003": 11.9962039248,
			"0.004": 9.47570540417,
			"0.005": 10.0871401859,
			"0.006": 7.61283940001,
			"0.007": 7.23881344766,
			"0.008": 7.1276722258,
			"0.009": 8.00204578407,
			"0.01": 7.76290729566,
			"0.011": 7.93148029595,
			"0.012": 1.78662981776,
			"0.013": 0.0343733811843,
			"0.014": 0.0,
			"0.015": 0.0,
			"0.016": 0.0,
			"0.017": 0.0,
			"0.018": 0.0,
			"0.019": 0.0,
			"0.02": 0.0,
			"0.021": 0.0,
			"0.022": 0.0,
			"0.023": 0.0,
			"0.024": 0.0,
			"0.025": 0.0
		}
	}
}
