{
	 "smiles": "COC1=CC=C(C=C1)C1=CC=C(C=C1)S(=O)(=O)NC(CCSC)C(O)=O", 
	 "Tm": 446.65, 
	 "num_atms": 47, 
	 "gaussian": { 
		 "optdone": 1, 
		 "sigma_profile": "yes", 
		 "theory": "DFT", 
		 "functional": "B3LYP", 
		 "basiset": "6-31G**", 
		 "properties": { 
			 "R2extent": 17300.6369, 
			 "electric_dipole_moment_norm": 6.36883670226, 
			 "electric_quadrupole_moment_norm": 21.6713382058, 
			 "total_energy": -1925.76029854, 
			 "HOMO_LUMO_gap": 0.16417, 
			 "cosmo_polarized_energy": -22.69, 
			 "cosmo_cavitation_energy": 53.1, 
			 "cosmo_dispersion_energy": -37.0, 
			 "cosmo_repulsion_energy": 2.72, 
			 "cosmo_total_nonelectrostatic_energy": 18.82, 
			 "SMD_solvation_energy": 9.24 
		},
		"coords": [
			{
				"x": 4.6632034762,
				"y": 0.8593042293,
				"z": 6.434904449,
				"element": "C" 
			},
			{
				"x": 5.0303960053,
				"y": 0.9805613471,
				"z": 5.0686553099,
				"element": "O" 
			},
			{
				"x": 4.1069664601,
				"y": 0.6629511182,
				"z": 4.1197520508,
				"element": "C" 
			},
			{
				"x": 2.8019910346,
				"y": 0.2311075824,
				"z": 4.3869455023,
				"element": "C" 
			},
			{
				"x": 1.9433907365,
				"y": -0.0680112465,
				"z": 3.3283962604,
				"element": "C" 
			},
			{
				"x": 2.347973126,
				"y": 0.0539751744,
				"z": 1.9917069045,
				"element": "C" 
			},
			{
				"x": 3.664772764,
				"y": 0.4916289367,
				"z": 1.7471936981,
				"element": "C" 
			},
			{
				"x": 4.5312974496,
				"y": 0.7898587243,
				"z": 2.7876698947,
				"element": "C" 
			},
			{
				"x": 1.4258696724,
				"y": -0.2643623769,
				"z": 0.8764228826,
				"element": "C" 
			},
			{
				"x": 0.5009373736,
				"y": -1.322275011,
				"z": 0.9806670702,
				"element": "C" 
			},
			{
				"x": -0.3692423007,
				"y": -1.6255354961,
				"z": -0.0595933054,
				"element": "C" 
			},
			{
				"x": -0.3273555553,
				"y": -0.8627780721,
				"z": -1.2299057215,
				"element": "C" 
			},
			{
				"x": 0.5835657066,
				"y": 0.1845329942,
				"z": -1.3684354974,
				"element": "C" 
			},
			{
				"x": 1.4480780838,
				"y": 0.4793227145,
				"z": -0.316386051,
				"element": "C" 
			},
			{
				"x": -1.379879798,
				"y": -1.2916505928,
				"z": -2.6126788808,
				"element": "S" 
			},
			{
				"x": -1.2774653042,
				"y": -0.2040372073,
				"z": -3.5971415302,
				"element": "O" 
			},
			{
				"x": -1.1175578841,
				"y": -2.6840707612,
				"z": -2.9914069489,
				"element": "O" 
			},
			{
				"x": -2.9377616593,
				"y": -1.3264820808,
				"z": -1.9339455232,
				"element": "N" 
			},
			{
				"x": -3.8340555005,
				"y": -0.1657871457,
				"z": -2.1565903665,
				"element": "C" 
			},
			{
				"x": -3.4466152944,
				"y": 1.0261193801,
				"z": -1.2732012468,
				"element": "C" 
			},
			{
				"x": -4.185572885,
				"y": 2.3393358141,
				"z": -1.5761518762,
				"element": "C" 
			},
			{
				"x": -4.143475024,
				"y": 2.9314567055,
				"z": -3.3137783536,
				"element": "S" 
			},
			{
				"x": -2.3523870109,
				"y": 3.2009041273,
				"z": -3.5663243454,
				"element": "C" 
			},
			{
				"x": -5.2617827416,
				"y": -0.6390650816,
				"z": -1.8931961428,
				"element": "C" 
			},
			{
				"x": -5.5055874809,
				"y": -1.8331881378,
				"z": -2.4870468887,
				"element": "O" 
			},
			{
				"x": -6.1049870785,
				"y": -0.0422107563,
				"z": -1.2649097247,
				"element": "O" 
			},
			{
				"x": 4.3912435245,
				"y": -0.172773602,
				"z": 6.6902389807,
				"element": "H" 
			},
			{
				"x": 3.8284846406,
				"y": 1.5245935306,
				"z": 6.6899851125,
				"element": "H" 
			},
			{
				"x": 5.5430367432,
				"y": 1.1514528763,
				"z": 7.0097816153,
				"element": "H" 
			},
			{
				"x": 2.4426954012,
				"y": 0.134300421,
				"z": 5.4044776678,
				"element": "H" 
			},
			{
				"x": 0.9266802455,
				"y": -0.3756898598,
				"z": 3.5545259081,
				"element": "H" 
			},
			{
				"x": 4.022625414,
				"y": 0.570455951,
				"z": 0.7250225246,
				"element": "H" 
			},
			{
				"x": 5.5490809827,
				"y": 1.1141024571,
				"z": 2.5973732988,
				"element": "H" 
			},
			{
				"x": 0.4853729814,
				"y": -1.930861646,
				"z": 1.8792038441,
				"element": "H" 
			},
			{
				"x": -1.0717746235,
				"y": -2.4467646195,
				"z": 0.0318434084,
				"element": "H" 
			},
			{
				"x": 0.6010924764,
				"y": 0.7624631333,
				"z": -2.2856558823,
				"element": "H" 
			},
			{
				"x": 2.1339865936,
				"y": 1.3148523367,
				"z": -0.41355902,
				"element": "H" 
			},
			{
				"x": -3.3578083826,
				"y": -2.1943190717,
				"z": -2.2624439245,
				"element": "H" 
			},
			{
				"x": -3.8067735062,
				"y": 0.1520127459,
				"z": -3.2094925999,
				"element": "H" 
			},
			{
				"x": -3.6207201516,
				"y": 0.7646729342,
				"z": -0.2232034732,
				"element": "H" 
			},
			{
				"x": -2.370610817,
				"y": 1.1856670433,
				"z": -1.3838535777,
				"element": "H" 
			},
			{
				"x": -3.7879505358,
				"y": 3.1281405799,
				"z": -0.92880816,
				"element": "H" 
			},
			{
				"x": -5.2484972843,
				"y": 2.2314416054,
				"z": -1.3527596346,
				"element": "H" 
			},
			{
				"x": -1.9471607651,
				"y": 3.8671002023,
				"z": -2.7989567778,
				"element": "H" 
			},
			{
				"x": -1.8029986368,
				"y": 2.2575864441,
				"z": -3.5860075259,
				"element": "H" 
			},
			{
				"x": -2.2498481288,
				"y": 3.6874104808,
				"z": -4.538975158,
				"element": "H" 
			},
			{
				"x": -6.4303725428,
				"y": -2.0594488247,
				"z": -2.2912582457,
				"element": "H" 
			}
		],
		 "valence_orbital": [ 
			{
				"type": "occ",
				"energy": -0.27234,
				"method": "rhf"
			},
			{
				"type": "occ",
				"energy": -0.26756,
				"method": "rhf"
			},
			{
				"type": "occ",
				"energy": -0.26294,
				"method": "rhf"
			},
			{
				"type": "occ",
				"energy": -0.22082,
				"method": "rhf"
			},
			{
				"type": "occ",
				"energy": -0.21461,
				"method": "rhf"
			},
			{
				"type": "unocc",
				"energy": -0.05044,
				"method": "rhf"
			},
			{
				"type": "unocc",
				"energy": -0.02291,
				"method": "rhf"
			},
			{
				"type": "unocc",
				"energy": -0.01411,
				"method": "rhf"
			},
			{
				"type": "unocc",
				"energy": -0.0131,
				"method": "rhf"
			},
			{
				"type": "unocc",
				"energy": 0.01373,
				"method": "rhf"
			}
		],
		"cosmo_sigma_profile": { 
			"-0.025": 0.0,
			"-0.024": 0.0,
			"-0.023": 0.0,
			"-0.022": 0.0,
			"-0.021": 0.0,
			"-0.02": 0.055556463483,
			"-0.019": 0.620129920043,
			"-0.018": 1.03838057916,
			"-0.017": 1.10214881407,
			"-0.016": 0.700260182498,
			"-0.015": 0.310015040116,
			"-0.014": 0.45269531452,
			"-0.013": 0.660559755463,
			"-0.012": 1.3731301026,
			"-0.011": 0.853158842978,
			"-0.01": 0.982262060199,
			"-0.009": 1.35771446779,
			"-0.008": 3.21919108787,
			"-0.007": 7.28445427301,
			"-0.006": 25.4308528769,
			"-0.005": 34.4841768689,
			"-0.004": 36.337459545,
			"-0.003": 38.0970762743,
			"-0.002": 31.3910730778,
			"-0.001": 29.903379957,
			"0.0": 24.8938284464,
			"0.001": 24.0808777824,
			"0.002": 29.4986550997,
			"0.003": 29.1371565565,
			"0.004": 20.4681463824,
			"0.005": 18.3400456002,
			"0.006": 10.5276824038,
			"0.007": 8.67813892319,
			"0.008": 9.13017781855,
			"0.009": 8.36391685687,
			"0.01": 11.9353972221,
			"0.011": 11.2917225084,
			"0.012": 1.51246742671,
			"0.013": 0.0,
			"0.014": 0.0,
			"0.015": 0.0,
			"0.016": 0.0,
			"0.017": 0.0,
			"0.018": 0.0,
			"0.019": 0.0,
			"0.02": 0.0,
			"0.021": 0.0,
			"0.022": 0.0,
			"0.023": 0.0,
			"0.024": 0.0,
			"0.025": 0.0
		}
	}
}
