{
	 "smiles": "OC(=O)C1CC2CCC(C1)N2C1CC1", 
	 "Tm": 430.15, 
	 "num_atms": 31, 
	 "gaussian": { 
		 "optdone": 1, 
		 "sigma_profile": "yes", 
		 "theory": "DFT", 
		 "functional": "B3LYP", 
		 "basiset": "6-31G**", 
		 "properties": { 
			 "R2extent": 3014.8088, 
			 "electric_dipole_moment_norm": 1.39852273489, 
			 "electric_quadrupole_moment_norm": 5.49698852464, 
			 "total_energy": -634.597618975, 
			 "HOMO_LUMO_gap": 0.2177, 
			 "cosmo_polarized_energy": -9.46, 
			 "cosmo_cavitation_energy": 30.9, 
			 "cosmo_dispersion_energy": -22.09, 
			 "cosmo_repulsion_energy": 1.75, 
			 "cosmo_total_nonelectrostatic_energy": 10.55, 
			 "SMD_solvation_energy": 3.73 
		},
		"coords": [
			{
				"x": -3.0733563767,
				"y": 0.1096811503,
				"z": -0.7305095127,
				"element": "O" 
			},
			{
				"x": -2.0735090137,
				"y": 0.8246012681,
				"z": -0.152899949,
				"element": "C" 
			},
			{
				"x": -2.2918442771,
				"y": 1.6831122552,
				"z": 0.6749704514,
				"element": "O" 
			},
			{
				"x": -0.7116949864,
				"y": 0.3785742205,
				"z": -0.647549966,
				"element": "C" 
			},
			{
				"x": 0.3657886012,
				"y": 1.451730034,
				"z": -0.3952008416,
				"element": "C" 
			},
			{
				"x": 1.7870068609,
				"y": 0.8762934323,
				"z": -0.5801389929,
				"element": "C" 
			},
			{
				"x": 1.9717393088,
				"y": 0.2024831854,
				"z": -1.9609836322,
				"element": "C" 
			},
			{
				"x": 1.5364378225,
				"y": -1.2752406669,
				"z": -1.7196519673,
				"element": "C" 
			},
			{
				"x": 1.1548947308,
				"y": -1.3126488482,
				"z": -0.2204345421,
				"element": "C" 
			},
			{
				"x": -0.3368281357,
				"y": -0.9813889332,
				"z": 0.0101757603,
				"element": "C" 
			},
			{
				"x": 2.0391983127,
				"y": -0.2650007689,
				"z": 0.319885516,
				"element": "N" 
			},
			{
				"x": 2.0205937545,
				"y": -0.0266092335,
				"z": 1.7332713459,
				"element": "C" 
			},
			{
				"x": 3.2926288724,
				"y": 0.4940132654,
				"z": 2.3570635201,
				"element": "C" 
			},
			{
				"x": 2.8668423585,
				"y": -0.9344069928,
				"z": 2.5927445481,
				"element": "C" 
			},
			{
				"x": -3.8984562541,
				"y": 0.4305271309,
				"z": -0.3288737589,
				"element": "H" 
			},
			{
				"x": -0.8141487874,
				"y": 0.2052269045,
				"z": -1.7251078132,
				"element": "H" 
			},
			{
				"x": 0.2495475921,
				"y": 1.8463051158,
				"z": 0.6190627891,
				"element": "H" 
			},
			{
				"x": 0.2100571435,
				"y": 2.2993138904,
				"z": -1.0735521653,
				"element": "H" 
			},
			{
				"x": 2.5269496414,
				"y": 1.6623505979,
				"z": -0.3960934574,
				"element": "H" 
			},
			{
				"x": 1.3839940756,
				"y": 0.6957203668,
				"z": -2.7415991282,
				"element": "H" 
			},
			{
				"x": 3.0213570866,
				"y": 0.2497303785,
				"z": -2.2622454005,
				"element": "H" 
			},
			{
				"x": 0.7065068028,
				"y": -1.5840878116,
				"z": -2.3631148957,
				"element": "H" 
			},
			{
				"x": 2.3683493654,
				"y": -1.9583173632,
				"z": -1.9092158362,
				"element": "H" 
			},
			{
				"x": 1.3890346595,
				"y": -2.2745779953,
				"z": 0.2483938619,
				"element": "H" 
			},
			{
				"x": -0.9762819137,
				"y": -1.7738002026,
				"z": -0.3936272523,
				"element": "H" 
			},
			{
				"x": -0.5304436673,
				"y": -0.936095695,
				"z": 1.0888461978,
				"element": "H" 
			},
			{
				"x": 1.0928015066,
				"y": 0.3279495404,
				"z": 2.1921503077,
				"element": "H" 
			},
			{
				"x": 3.2110718653,
				"y": 1.2039630174,
				"z": 3.1744229236,
				"element": "H" 
			},
			{
				"x": 4.1319284285,
				"y": 0.6573089331,
				"z": 1.6888290912,
				"element": "H" 
			},
			{
				"x": 3.4266878932,
				"y": -1.7096304082,
				"z": 2.0795728052,
				"element": "H" 
			},
			{
				"x": 2.4917467295,
				"y": -1.2116797678,
				"z": 3.5732099932,
				"element": "H" 
			}
		],
		 "valence_orbital": [ 
			{
				"type": "occ",
				"energy": -0.31148,
				"method": "rhf"
			},
			{
				"type": "occ",
				"energy": -0.29279,
				"method": "rhf"
			},
			{
				"type": "occ",
				"energy": -0.27525,
				"method": "rhf"
			},
			{
				"type": "occ",
				"energy": -0.27078,
				"method": "rhf"
			},
			{
				"type": "occ",
				"energy": -0.20616,
				"method": "rhf"
			},
			{
				"type": "unocc",
				"energy": 0.01154,
				"method": "rhf"
			},
			{
				"type": "unocc",
				"energy": 0.0731,
				"method": "rhf"
			},
			{
				"type": "unocc",
				"energy": 0.0863,
				"method": "rhf"
			},
			{
				"type": "unocc",
				"energy": 0.09206,
				"method": "rhf"
			},
			{
				"type": "unocc",
				"energy": 0.10334,
				"method": "rhf"
			}
		],
		"cosmo_sigma_profile": { 
			"-0.025": 0.0,
			"-0.024": 0.0,
			"-0.023": 0.0,
			"-0.022": 0.0,
			"-0.021": 0.0,
			"-0.02": 0.0,
			"-0.019": 0.0,
			"-0.018": 0.534791319057,
			"-0.017": 0.753478444152,
			"-0.016": 0.729659172009,
			"-0.015": 0.904348899022,
			"-0.014": 0.940900229284,
			"-0.013": 0.586768276961,
			"-0.012": 0.447331690499,
			"-0.011": 0.932948003332,
			"-0.01": 0.890670469429,
			"-0.009": 0.395671547157,
			"-0.008": 0.285319960992,
			"-0.007": 0.898798039233,
			"-0.006": 1.42563155459,
			"-0.005": 2.72927049893,
			"-0.004": 16.6842499255,
			"-0.003": 33.7252091999,
			"-0.002": 32.9492290831,
			"-0.001": 32.3977760625,
			"0.0": 26.9919610632,
			"0.001": 21.7948512819,
			"0.002": 12.9771584754,
			"0.003": 8.56167611294,
			"0.004": 6.29977864816,
			"0.005": 5.52068714662,
			"0.006": 4.89967932452,
			"0.007": 2.62913336941,
			"0.008": 3.65686511753,
			"0.009": 3.86665089504,
			"0.01": 3.67884180929,
			"0.011": 3.08580110305,
			"0.012": 5.65616579627,
			"0.013": 1.13837970467,
			"0.014": 0.191110836312,
			"0.015": 0.0,
			"0.016": 0.0,
			"0.017": 0.0,
			"0.018": 0.0,
			"0.019": 0.0,
			"0.02": 0.0,
			"0.021": 0.0,
			"0.022": 0.0,
			"0.023": 0.0,
			"0.024": 0.0,
			"0.025": 0.0
		}
	}
}
