{
	 "smiles": "CN(C)C(C)(C(O)=O)C1=CC=C(Cl)C=C1", 
	 "Tm": 513.15, 
	 "num_atms": 29, 
	 "gaussian": { 
		 "optdone": 1, 
		 "sigma_profile": "yes", 
		 "theory": "DFT", 
		 "functional": "B3LYP", 
		 "basiset": "6-31G**", 
		 "properties": { 
			 "R2extent": 5699.9142, 
			 "electric_dipole_moment_norm": 2.80049700946, 
			 "electric_quadrupole_moment_norm": 14.16892723, 
			 "total_energy": -1092.98988482, 
			 "HOMO_LUMO_gap": 0.18717, 
			 "cosmo_polarized_energy": -12.75, 
			 "cosmo_cavitation_energy": 32.13, 
			 "cosmo_dispersion_energy": -22.93, 
			 "cosmo_repulsion_energy": 1.78, 
			 "cosmo_total_nonelectrostatic_energy": 10.97, 
			 "SMD_solvation_energy": 5.64 
		},
		"coords": [
			{
				"x": 1.1176062141,
				"y": -1.1760180547,
				"z": -1.0504780383,
				"element": "C" 
			},
			{
				"x": 0.6151648058,
				"y": 0.007874811,
				"z": -0.3502179868,
				"element": "N" 
			},
			{
				"x": 1.6335502682,
				"y": 1.0641242592,
				"z": -0.3230843082,
				"element": "C" 
			},
			{
				"x": -0.7424423343,
				"y": 0.4461846414,
				"z": -0.7019436199,
				"element": "C" 
			},
			{
				"x": -1.7227263208,
				"y": -0.7604431127,
				"z": -0.5904605704,
				"element": "C" 
			},
			{
				"x": -0.8426506752,
				"y": 0.9713854663,
				"z": -2.1683921051,
				"element": "C" 
			},
			{
				"x": -2.0930331325,
				"y": 1.2782959227,
				"z": -2.6207776874,
				"element": "O" 
			},
			{
				"x": 0.0926598068,
				"y": 1.0726414845,
				"z": -2.9217713271,
				"element": "O" 
			},
			{
				"x": -1.1893263735,
				"y": 1.5176502046,
				"z": 0.3189145296,
				"element": "C" 
			},
			{
				"x": -1.1480339053,
				"y": 1.1831336972,
				"z": 1.6821257686,
				"element": "C" 
			},
			{
				"x": -1.5540855742,
				"y": 2.0825149626,
				"z": 2.663070514,
				"element": "C" 
			},
			{
				"x": -2.0058172602,
				"y": 3.3476493411,
				"z": 2.2827272921,
				"element": "C" 
			},
			{
				"x": -2.522744023,
				"y": 4.4896561589,
				"z": 3.5134598059,
				"element": "Cl" 
			},
			{
				"x": -2.0406051704,
				"y": 3.7158825347,
				"z": 0.9420887543,
				"element": "C" 
			},
			{
				"x": -1.6302096834,
				"y": 2.7998987432,
				"z": -0.0314950798,
				"element": "C" 
			},
			{
				"x": 1.2664496873,
				"y": -1.0190048437,
				"z": -2.1287435956,
				"element": "H" 
			},
			{
				"x": 0.4527236819,
				"y": -2.0303470726,
				"z": -0.9057604527,
				"element": "H" 
			},
			{
				"x": 2.0827700046,
				"y": -1.4441203036,
				"z": -0.6094732927,
				"element": "H" 
			},
			{
				"x": 1.2680532327,
				"y": 1.9265001307,
				"z": 0.2377656946,
				"element": "H" 
			},
			{
				"x": 2.5146557139,
				"y": 0.6779983865,
				"z": 0.2005731466,
				"element": "H" 
			},
			{
				"x": 1.9386842146,
				"y": 1.3991791201,
				"z": -1.3229254857,
				"element": "H" 
			},
			{
				"x": -1.6170075598,
				"y": -1.4559663862,
				"z": -1.4263699164,
				"element": "H" 
			},
			{
				"x": -2.7632573293,
				"y": -0.4248717613,
				"z": -0.5613626125,
				"element": "H" 
			},
			{
				"x": -1.5281327053,
				"y": -1.2994434164,
				"z": 0.3391617416,
				"element": "H" 
			},
			{
				"x": -2.7423283813,
				"y": 1.1854244593,
				"z": -1.9090509107,
				"element": "H" 
			},
			{
				"x": -0.7626164379,
				"y": 0.2125519957,
				"z": 1.9751589194,
				"element": "H" 
			},
			{
				"x": -1.5168298382,
				"y": 1.8112874743,
				"z": 3.7124655474,
				"element": "H" 
			},
			{
				"x": -2.3758440164,
				"y": 4.7067913254,
				"z": 0.6565623632,
				"element": "H" 
			},
			{
				"x": -1.6529269087,
				"y": 3.1160898319,
				"z": -1.069067088,
				"element": "H" 
			}
		],
		 "valence_orbital": [ 
			{
				"type": "occ",
				"energy": -0.31757,
				"method": "rhf"
			},
			{
				"type": "occ",
				"energy": -0.28184,
				"method": "rhf"
			},
			{
				"type": "occ",
				"energy": -0.27281,
				"method": "rhf"
			},
			{
				"type": "occ",
				"energy": -0.25277,
				"method": "rhf"
			},
			{
				"type": "occ",
				"energy": -0.21447,
				"method": "rhf"
			},
			{
				"type": "unocc",
				"energy": -0.0273,
				"method": "rhf"
			},
			{
				"type": "unocc",
				"energy": -0.0247,
				"method": "rhf"
			},
			{
				"type": "unocc",
				"energy": 0.00168,
				"method": "rhf"
			},
			{
				"type": "unocc",
				"energy": 0.02479,
				"method": "rhf"
			},
			{
				"type": "unocc",
				"energy": 0.05343,
				"method": "rhf"
			}
		],
		"cosmo_sigma_profile": { 
			"-0.025": 0.0,
			"-0.024": 0.0,
			"-0.023": 0.0,
			"-0.022": 0.0,
			"-0.021": 0.0,
			"-0.02": 0.0,
			"-0.019": 0.0172816908344,
			"-0.018": 0.459012406967,
			"-0.017": 0.364850838291,
			"-0.016": 0.803113195168,
			"-0.015": 0.906866446978,
			"-0.014": 0.93700621287,
			"-0.013": 0.728060845126,
			"-0.012": 0.78211754428,
			"-0.011": 0.925313987208,
			"-0.01": 1.29969607511,
			"-0.009": 1.15845332057,
			"-0.008": 1.61526925218,
			"-0.007": 4.66864971039,
			"-0.006": 9.38137908398,
			"-0.005": 14.892196091,
			"-0.004": 16.9577940934,
			"-0.003": 20.1623407383,
			"-0.002": 18.907090689,
			"-0.001": 26.7062164517,
			"0.0": 25.450732869,
			"0.001": 19.2890979949,
			"0.002": 19.4048207823,
			"0.003": 17.8784896144,
			"0.004": 14.830603372,
			"0.005": 9.34220159687,
			"0.006": 3.48547539943,
			"0.007": 3.64835375769,
			"0.008": 4.38506831635,
			"0.009": 3.03329969285,
			"0.01": 5.45500154065,
			"0.011": 4.29294628706,
			"0.012": 2.99222986959,
			"0.013": 0.642915259718,
			"0.014": 0.0,
			"0.015": 0.0,
			"0.016": 0.0,
			"0.017": 0.0,
			"0.018": 0.0,
			"0.019": 0.0,
			"0.02": 0.0,
			"0.021": 0.0,
			"0.022": 0.0,
			"0.023": 0.0,
			"0.024": 0.0,
			"0.025": 0.0
		}
	}
}
