{
	 "smiles": "CC1=C(C=C(O1)C1=CC=CC=C1)C(Cl)=O", 
	 "Tm": 359.65, 
	 "num_atms": 24, 
	 "gaussian": { 
		 "optdone": 1, 
		 "sigma_profile": "yes", 
		 "theory": "DFT", 
		 "functional": "B3LYP", 
		 "basiset": "6-31G**", 
		 "properties": { 
			 "R2extent": 5245.147, 
			 "electric_dipole_moment_norm": 4.03436012027, 
			 "electric_quadrupole_moment_norm": 20.0880116301, 
			 "total_energy": -1073.34633799, 
			 "HOMO_LUMO_gap": 0.1612, 
			 "cosmo_polarized_energy": -7.64, 
			 "cosmo_cavitation_energy": 30.95, 
			 "cosmo_dispersion_energy": -22.49, 
			 "cosmo_repulsion_energy": 1.75, 
			 "cosmo_total_nonelectrostatic_energy": 10.2, 
			 "SMD_solvation_energy": 6.15 
		},
		"coords": [
			{
				"x": -2.7032266932,
				"y": 1.5954557388,
				"z": -2.8766000605,
				"element": "C" 
			},
			{
				"x": -2.206447526,
				"y": 1.0066303941,
				"z": -1.6056437846,
				"element": "C" 
			},
			{
				"x": -2.8117915819,
				"y": 0.7043454288,
				"z": -0.3987806407,
				"element": "C" 
			},
			{
				"x": -1.7935026533,
				"y": 0.1488111337,
				"z": 0.4464078837,
				"element": "C" 
			},
			{
				"x": -0.6403860344,
				"y": 0.1435062398,
				"z": -0.2825767282,
				"element": "C" 
			},
			{
				"x": -0.9021871294,
				"y": 0.6706388133,
				"z": -1.5382681964,
				"element": "O" 
			},
			{
				"x": 0.7286866375,
				"y": -0.2816654221,
				"z": -0.0162831517,
				"element": "C" 
			},
			{
				"x": 1.069902736,
				"y": -0.8265703696,
				"z": 1.2349285,
				"element": "C" 
			},
			{
				"x": 2.374553474,
				"y": -1.2343282957,
				"z": 1.4955551453,
				"element": "C" 
			},
			{
				"x": 3.3630726369,
				"y": -1.1071698481,
				"z": 0.5158298578,
				"element": "C" 
			},
			{
				"x": 3.0330855783,
				"y": -0.5675018236,
				"z": -0.7284758408,
				"element": "C" 
			},
			{
				"x": 1.7286972634,
				"y": -0.1571534986,
				"z": -0.9963100467,
				"element": "C" 
			},
			{
				"x": -4.221171254,
				"y": 0.9487541939,
				"z": -0.1513486048,
				"element": "C" 
			},
			{
				"x": -4.7634577108,
				"y": 0.455825146,
				"z": 1.5302661221,
				"element": "Cl" 
			},
			{
				"x": -5.0177105442,
				"y": 1.4201466585,
				"z": -0.9126714893,
				"element": "O" 
			},
			{
				"x": -1.8862155721,
				"y": 1.6668743967,
				"z": -3.5969903898,
				"element": "H" 
			},
			{
				"x": -3.1241021896,
				"y": 2.5913182922,
				"z": -2.7059822402,
				"element": "H" 
			},
			{
				"x": -3.5075265315,
				"y": 0.9856505586,
				"z": -3.2999362116,
				"element": "H" 
			},
			{
				"x": -1.9281549043,
				"y": -0.194092116,
				"z": 1.4600148625,
				"element": "H" 
			},
			{
				"x": 0.3112208516,
				"y": -0.9307672475,
				"z": 2.004589199,
				"element": "H" 
			},
			{
				"x": 2.6209724898,
				"y": -1.6529731692,
				"z": 2.4669277667,
				"element": "H" 
			},
			{
				"x": 4.380414409,
				"y": -1.4261141309,
				"z": 0.7217214897,
				"element": "H" 
			},
			{
				"x": 3.7943499615,
				"y": -0.4646238629,
				"z": -1.4963537841,
				"element": "H" 
			},
			{
				"x": 1.4776242868,
				"y": 0.2614027896,
				"z": -1.9646196572,
				"element": "H" 
			}
		],
		 "valence_orbital": [ 
			{
				"type": "occ",
				"energy": -0.30523,
				"method": "rhf"
			},
			{
				"type": "occ",
				"energy": -0.29008,
				"method": "rhf"
			},
			{
				"type": "occ",
				"energy": -0.28832,
				"method": "rhf"
			},
			{
				"type": "occ",
				"energy": -0.26142,
				"method": "rhf"
			},
			{
				"type": "occ",
				"energy": -0.22066,
				"method": "rhf"
			},
			{
				"type": "unocc",
				"energy": -0.05946,
				"method": "rhf"
			},
			{
				"type": "unocc",
				"energy": -0.04355,
				"method": "rhf"
			},
			{
				"type": "unocc",
				"energy": -0.01053,
				"method": "rhf"
			},
			{
				"type": "unocc",
				"energy": 0.0237,
				"method": "rhf"
			},
			{
				"type": "unocc",
				"energy": 0.04724,
				"method": "rhf"
			}
		],
		"cosmo_sigma_profile": { 
			"-0.025": 0.0,
			"-0.024": 0.0,
			"-0.023": 0.0,
			"-0.022": 0.0,
			"-0.021": 0.0,
			"-0.02": 0.0,
			"-0.019": 0.0,
			"-0.018": 0.0,
			"-0.017": 0.0,
			"-0.016": 0.0,
			"-0.015": 0.0,
			"-0.014": 0.0,
			"-0.013": 0.0,
			"-0.012": 0.0,
			"-0.011": 0.0,
			"-0.01": 0.0,
			"-0.009": 0.494142848309,
			"-0.008": 2.11386719822,
			"-0.007": 3.21170378616,
			"-0.006": 12.5465630157,
			"-0.005": 16.1756371827,
			"-0.004": 20.0047053263,
			"-0.003": 21.522320478,
			"-0.002": 22.0129117698,
			"-0.001": 18.0506009837,
			"0.0": 20.2638301549,
			"0.001": 21.1679031935,
			"0.002": 22.1671070608,
			"0.003": 19.0917310344,
			"0.004": 18.7993349639,
			"0.005": 17.7770658887,
			"0.006": 5.12732694231,
			"0.007": 2.10664482757,
			"0.008": 2.83108908485,
			"0.009": 3.9673005894,
			"0.01": 1.51424625503,
			"0.011": 0.0199652347165,
			"0.012": 0.0,
			"0.013": 0.0,
			"0.014": 0.0,
			"0.015": 0.0,
			"0.016": 0.0,
			"0.017": 0.0,
			"0.018": 0.0,
			"0.019": 0.0,
			"0.02": 0.0,
			"0.021": 0.0,
			"0.022": 0.0,
			"0.023": 0.0,
			"0.024": 0.0,
			"0.025": 0.0
		}
	}
}
