{
	 "smiles": "COC1=CC(=CC(OC)=C1)N=C=O", 
	 "Tm": 307.95, 
	 "num_atms": 22, 
	 "gaussian": { 
		 "optdone": 1, 
		 "sigma_profile": "yes", 
		 "theory": "DFT", 
		 "functional": "B3LYP", 
		 "basiset": "6-31G**", 
		 "properties": { 
			 "R2extent": 3098.7178, 
			 "electric_dipole_moment_norm": 3.45760764691, 
			 "electric_quadrupole_moment_norm": 11.2385132313, 
			 "total_energy": -628.779540855, 
			 "HOMO_LUMO_gap": 0.20366, 
			 "cosmo_polarized_energy": -8.06, 
			 "cosmo_cavitation_energy": 27.62, 
			 "cosmo_dispersion_energy": -19.95, 
			 "cosmo_repulsion_energy": 1.59, 
			 "cosmo_total_nonelectrostatic_energy": 9.25, 
			 "SMD_solvation_energy": 8.69 
		},
		"coords": [
			{
				"x": -4.0891582766,
				"y": -0.36015135,
				"z": -0.2926146688,
				"element": "C" 
			},
			{
				"x": -3.0499622076,
				"y": 0.4005632482,
				"z": -0.8904300791,
				"element": "O" 
			},
			{
				"x": -1.7603905905,
				"y": 0.0988352794,
				"z": -0.5674712635,
				"element": "C" 
			},
			{
				"x": -1.3914033558,
				"y": -0.9143282315,
				"z": 0.3175090683,
				"element": "C" 
			},
			{
				"x": -0.025056656,
				"y": -1.1240998611,
				"z": 0.5656328615,
				"element": "C" 
			},
			{
				"x": 0.9535207321,
				"y": -0.3473279567,
				"z": -0.0492997232,
				"element": "C" 
			},
			{
				"x": 0.5585915686,
				"y": 0.6667733927,
				"z": -0.936359187,
				"element": "C" 
			},
			{
				"x": 1.5787296605,
				"y": 1.377918679,
				"z": -1.4931346263,
				"element": "O" 
			},
			{
				"x": 1.2555631528,
				"y": 2.4200404367,
				"z": -2.4015847697,
				"element": "C" 
			},
			{
				"x": -0.791291112,
				"y": 0.8953761061,
				"z": -1.1998119193,
				"element": "C" 
			},
			{
				"x": 0.3103365051,
				"y": -2.1489400418,
				"z": 1.458808861,
				"element": "N" 
			},
			{
				"x": 1.2875683431,
				"y": -2.665819151,
				"z": 1.9494520149,
				"element": "C" 
			},
			{
				"x": 2.1481394827,
				"y": -3.2565390449,
				"z": 2.4974111713,
				"element": "O" 
			},
			{
				"x": -4.0847740192,
				"y": -0.261504377,
				"z": 0.8002378861,
				"element": "H" 
			},
			{
				"x": -5.0224770911,
				"y": 0.0449651988,
				"z": -0.6863739947,
				"element": "H" 
			},
			{
				"x": -4.0158937179,
				"y": -1.4224975309,
				"z": -0.5574393096,
				"element": "H" 
			},
			{
				"x": -2.1150653696,
				"y": -1.5423590408,
				"z": 0.8181583679,
				"element": "H" 
			},
			{
				"x": 2.0086998023,
				"y": -0.5065356525,
				"z": 0.1399528607,
				"element": "H" 
			},
			{
				"x": 0.6508669622,
				"y": 3.2004245203,
				"z": -1.9225671755,
				"element": "H" 
			},
			{
				"x": 0.719040197,
				"y": 2.038614239,
				"z": -3.2795180634,
				"element": "H" 
			},
			{
				"x": 2.2078400108,
				"y": 2.8470862133,
				"z": -2.719352105,
				"element": "H" 
			},
			{
				"x": -1.1309240207,
				"y": 1.6675049248,
				"z": -1.8772062068,
				"element": "H" 
			}
		],
		 "valence_orbital": [ 
			{
				"type": "occ",
				"energy": -0.33945,
				"method": "rhf"
			},
			{
				"type": "occ",
				"energy": -0.30521,
				"method": "rhf"
			},
			{
				"type": "occ",
				"energy": -0.27854,
				"method": "rhf"
			},
			{
				"type": "occ",
				"energy": -0.22575,
				"method": "rhf"
			},
			{
				"type": "occ",
				"energy": -0.21963,
				"method": "rhf"
			},
			{
				"type": "unocc",
				"energy": -0.01597,
				"method": "rhf"
			},
			{
				"type": "unocc",
				"energy": 0.0125,
				"method": "rhf"
			},
			{
				"type": "unocc",
				"energy": 0.01533,
				"method": "rhf"
			},
			{
				"type": "unocc",
				"energy": 0.08789,
				"method": "rhf"
			},
			{
				"type": "unocc",
				"energy": 0.09504,
				"method": "rhf"
			}
		],
		"cosmo_sigma_profile": { 
			"-0.025": 0.0,
			"-0.024": 0.0,
			"-0.023": 0.0,
			"-0.022": 0.0,
			"-0.021": 0.0,
			"-0.02": 0.0,
			"-0.019": 0.0,
			"-0.018": 0.0,
			"-0.017": 0.0,
			"-0.016": 0.0,
			"-0.015": 0.0,
			"-0.014": 0.0,
			"-0.013": 0.0,
			"-0.012": 0.0,
			"-0.011": 0.0,
			"-0.01": 0.0,
			"-0.009": 0.0,
			"-0.008": 0.92375532658,
			"-0.007": 3.89339229766,
			"-0.006": 14.0211793146,
			"-0.005": 22.2953718208,
			"-0.004": 22.0263729148,
			"-0.003": 22.0623089872,
			"-0.002": 14.0198768328,
			"-0.001": 12.8545669188,
			"0.0": 10.9084619033,
			"0.001": 9.75974580373,
			"0.002": 13.2753046906,
			"0.003": 19.2996795681,
			"0.004": 20.8031186025,
			"0.005": 7.81812079652,
			"0.006": 6.3028109655,
			"0.007": 9.2302326754,
			"0.008": 6.51608450777,
			"0.009": 2.49952181769,
			"0.01": 2.71523702555,
			"0.011": 0.10240084235,
			"0.012": 0.0,
			"0.013": 0.0,
			"0.014": 0.0,
			"0.015": 0.0,
			"0.016": 0.0,
			"0.017": 0.0,
			"0.018": 0.0,
			"0.019": 0.0,
			"0.02": 0.0,
			"0.021": 0.0,
			"0.022": 0.0,
			"0.023": 0.0,
			"0.024": 0.0,
			"0.025": 0.0
		}
	}
}
