{
	 "smiles": "C=CC1=CC=C(C=C1)C1=CC=CC=C1", 
	 "Tm": 391.15, 
	 "num_atms": 26, 
	 "gaussian": { 
		 "optdone": 1, 
		 "sigma_profile": "yes", 
		 "theory": "DFT", 
		 "functional": "B3LYP", 
		 "basiset": "6-31G**", 
		 "properties": { 
			 "R2extent": 4150.1287, 
			 "electric_dipole_moment_norm": 0.235546110136, 
			 "electric_quadrupole_moment_norm": 8.02123463689, 
			 "total_energy": -540.713281352, 
			 "HOMO_LUMO_gap": 0.16838, 
			 "cosmo_polarized_energy": -5.9, 
			 "cosmo_cavitation_energy": 29.91, 
			 "cosmo_dispersion_energy": -21.67, 
			 "cosmo_repulsion_energy": 1.66, 
			 "cosmo_total_nonelectrostatic_energy": 9.9, 
			 "SMD_solvation_energy": 5.47 
		},
		"coords": [
			{
				"x": -2.2486176866,
				"y": 4.4523579485,
				"z": 1.7702880119,
				"element": "C" 
			},
			{
				"x": -2.114829547,
				"y": 3.4895264915,
				"z": 0.8490629387,
				"element": "C" 
			},
			{
				"x": -1.1728387627,
				"y": 2.3603609199,
				"z": 0.8617342754,
				"element": "C" 
			},
			{
				"x": -1.189419638,
				"y": 1.4430624432,
				"z": -0.2025669521,
				"element": "C" 
			},
			{
				"x": -0.3206139665,
				"y": 0.3566157678,
				"z": -0.2403170157,
				"element": "C" 
			},
			{
				"x": 0.609152704,
				"y": 0.1378487951,
				"z": 0.7887744708,
				"element": "C" 
			},
			{
				"x": 0.627820742,
				"y": 1.0564901208,
				"z": 1.8554675445,
				"element": "C" 
			},
			{
				"x": -0.2401897124,
				"y": 2.1399060902,
				"z": 1.892213693,
				"element": "C" 
			},
			{
				"x": 1.5386788607,
				"y": -1.0181209123,
				"z": 0.7545661155,
				"element": "C" 
			},
			{
				"x": 1.8827506758,
				"y": -1.7047635717,
				"z": 1.9321659377,
				"element": "C" 
			},
			{
				"x": 2.7559653679,
				"y": -2.7909678451,
				"z": 1.8999832294,
				"element": "C" 
			},
			{
				"x": 3.3048475223,
				"y": -3.2170943145,
				"z": 0.6889606107,
				"element": "C" 
			},
			{
				"x": 2.9724393476,
				"y": -2.5457799497,
				"z": -0.4893306758,
				"element": "C" 
			},
			{
				"x": 2.100374547,
				"y": -1.4587199419,
				"z": -0.4566215874,
				"element": "C" 
			},
			{
				"x": -2.9851907859,
				"y": 5.2397930169,
				"z": 1.6493306062,
				"element": "H" 
			},
			{
				"x": -1.6406190085,
				"y": 4.4967465209,
				"z": 2.669120285,
				"element": "H" 
			},
			{
				"x": -2.7679628623,
				"y": 3.5219141266,
				"z": -0.0227717772,
				"element": "H" 
			},
			{
				"x": -1.9050735741,
				"y": 1.5819893514,
				"z": -1.0093171321,
				"element": "H" 
			},
			{
				"x": -0.3813021819,
				"y": -0.3468626516,
				"z": -1.0653869401,
				"element": "H" 
			},
			{
				"x": 1.353900607,
				"y": 0.9304806391,
				"z": 2.6532319201,
				"element": "H" 
			},
			{
				"x": -0.1851861849,
				"y": 2.8299601679,
				"z": 2.7287011998,
				"element": "H" 
			},
			{
				"x": 1.4403117521,
				"y": -1.3997697901,
				"z": 2.875918651,
				"element": "H" 
			},
			{
				"x": 3.0007517994,
				"y": -3.3112023918,
				"z": 2.8218405067,
				"element": "H" 
			},
			{
				"x": 3.9848896447,
				"y": -4.0636133422,
				"z": 0.6637101918,
				"element": "H" 
			},
			{
				"x": 3.4005512212,
				"y": -2.8630355314,
				"z": -1.4361450629,
				"element": "H" 
			},
			{
				"x": 1.8710091193,
				"y": -0.9267221573,
				"z": -1.3752130447,
				"element": "H" 
			}
		],
		 "valence_orbital": [ 
			{
				"type": "occ",
				"energy": -0.30207,
				"method": "rhf"
			},
			{
				"type": "occ",
				"energy": -0.25461,
				"method": "rhf"
			},
			{
				"type": "occ",
				"energy": -0.25164,
				"method": "rhf"
			},
			{
				"type": "occ",
				"energy": -0.24992,
				"method": "rhf"
			},
			{
				"type": "occ",
				"energy": -0.21118,
				"method": "rhf"
			},
			{
				"type": "unocc",
				"energy": -0.0428,
				"method": "rhf"
			},
			{
				"type": "unocc",
				"energy": -0.00419,
				"method": "rhf"
			},
			{
				"type": "unocc",
				"energy": 0.0003,
				"method": "rhf"
			},
			{
				"type": "unocc",
				"energy": 0.00851,
				"method": "rhf"
			},
			{
				"type": "unocc",
				"energy": 0.06762,
				"method": "rhf"
			}
		],
		"cosmo_sigma_profile": { 
			"-0.025": 0.0,
			"-0.024": 0.0,
			"-0.023": 0.0,
			"-0.022": 0.0,
			"-0.021": 0.0,
			"-0.02": 0.0,
			"-0.019": 0.0,
			"-0.018": 0.0,
			"-0.017": 0.0,
			"-0.016": 0.0,
			"-0.015": 0.0,
			"-0.014": 0.0,
			"-0.013": 0.0,
			"-0.012": 0.0,
			"-0.011": 0.0,
			"-0.01": 0.0,
			"-0.009": 0.0,
			"-0.008": 0.0,
			"-0.007": 0.935811448537,
			"-0.006": 9.93429205276,
			"-0.005": 25.0066964095,
			"-0.004": 24.3231311883,
			"-0.003": 21.2720864552,
			"-0.002": 17.1578900145,
			"-0.001": 15.2522306602,
			"0.0": 13.6780765949,
			"0.001": 15.1292712756,
			"0.002": 16.915561481,
			"0.003": 21.0407504726,
			"0.004": 22.6186118344,
			"0.005": 24.2767883335,
			"0.006": 11.4719536432,
			"0.007": 0.862292811737,
			"0.008": 0.0,
			"0.009": 0.0,
			"0.01": 0.0,
			"0.011": 0.0,
			"0.012": 0.0,
			"0.013": 0.0,
			"0.014": 0.0,
			"0.015": 0.0,
			"0.016": 0.0,
			"0.017": 0.0,
			"0.018": 0.0,
			"0.019": 0.0,
			"0.02": 0.0,
			"0.021": 0.0,
			"0.022": 0.0,
			"0.023": 0.0,
			"0.024": 0.0,
			"0.025": 0.0
		}
	}
}
