{
	 "smiles": "CC#CCOS(=O)(=O)C1=CC=C(C)C=C1", 
	 "Tm": 320.65, 
	 "num_atms": 27, 
	 "gaussian": { 
		 "optdone": 1, 
		 "sigma_profile": "yes", 
		 "theory": "DFT", 
		 "functional": "B3LYP", 
		 "basiset": "6-31G**", 
		 "properties": { 
			 "R2extent": 5435.3834, 
			 "electric_dipole_moment_norm": 3.39434029526, 
			 "electric_quadrupole_moment_norm": 24.4742852797, 
			 "total_energy": -1050.12865224, 
			 "HOMO_LUMO_gap": 0.21416, 
			 "cosmo_polarized_energy": -13.73, 
			 "cosmo_cavitation_energy": 33.85, 
			 "cosmo_dispersion_energy": -24.28, 
			 "cosmo_repulsion_energy": 1.9, 
			 "cosmo_total_nonelectrostatic_energy": 11.47, 
			 "SMD_solvation_energy": 5.61 
		},
		"coords": [
			{
				"x": -5.4988397305,
				"y": -2.7897666997,
				"z": 0.4381654656,
				"element": "C" 
			},
			{
				"x": -4.2985303835,
				"y": -2.3032018092,
				"z": 1.1085709812,
				"element": "C" 
			},
			{
				"x": -3.2911402283,
				"y": -1.9065306183,
				"z": 1.6464165028,
				"element": "C" 
			},
			{
				"x": -2.0860658723,
				"y": -1.4359580787,
				"z": 2.3162055005,
				"element": "C" 
			},
			{
				"x": -1.1341474106,
				"y": -0.7916926799,
				"z": 1.4162354259,
				"element": "O" 
			},
			{
				"x": -0.1615906801,
				"y": -1.7898740174,
				"z": 0.5286643591,
				"element": "S" 
			},
			{
				"x": 0.2384722746,
				"y": -2.9063693235,
				"z": 1.3886849599,
				"element": "O" 
			},
			{
				"x": -0.7796338747,
				"y": -2.037109297,
				"z": -0.7703715254,
				"element": "O" 
			},
			{
				"x": 1.206632265,
				"y": -0.6673685883,
				"z": 0.3171815574,
				"element": "C" 
			},
			{
				"x": 1.2340854375,
				"y": 0.1715803311,
				"z": -0.7970691367,
				"element": "C" 
			},
			{
				"x": 2.3076258643,
				"y": 1.0456037658,
				"z": -0.9545866418,
				"element": "C" 
			},
			{
				"x": 3.3533950154,
				"y": 1.0866614459,
				"z": -0.0212295534,
				"element": "C" 
			},
			{
				"x": 4.5289370726,
				"y": 2.0127660639,
				"z": -0.2190973746,
				"element": "C" 
			},
			{
				"x": 3.2985623917,
				"y": 0.2259476981,
				"z": 1.0855573854,
				"element": "C" 
			},
			{
				"x": 2.2331917087,
				"y": -0.6529921916,
				"z": 1.2626923305,
				"element": "C" 
			},
			{
				"x": -6.340383918,
				"y": -2.1009316576,
				"z": 0.5708073042,
				"element": "H" 
			},
			{
				"x": -5.7994777503,
				"y": -3.7691918439,
				"z": 0.8262807501,
				"element": "H" 
			},
			{
				"x": -5.3199559249,
				"y": -2.8987406245,
				"z": -0.6371468154,
				"element": "H" 
			},
			{
				"x": -2.3166472169,
				"y": -0.6496329418,
				"z": 3.0408710057,
				"element": "H" 
			},
			{
				"x": -1.5762054945,
				"y": -2.2527677508,
				"z": 2.837924195,
				"element": "H" 
			},
			{
				"x": 0.4316364255,
				"y": 0.1298687156,
				"z": -1.5251461497,
				"element": "H" 
			},
			{
				"x": 2.3354853339,
				"y": 1.7044059314,
				"z": -1.8183183666,
				"element": "H" 
			},
			{
				"x": 5.3320731989,
				"y": 1.5111938694,
				"z": -0.7731914422,
				"element": "H" 
			},
			{
				"x": 4.246406509,
				"y": 2.9025289308,
				"z": -0.7888115186,
				"element": "H" 
			},
			{
				"x": 4.9481417799,
				"y": 2.3377392577,
				"z": 0.7375708129,
				"element": "H" 
			},
			{
				"x": 4.1025813514,
				"y": 0.2429086975,
				"z": 1.8164881773,
				"element": "H" 
			},
			{
				"x": 2.1970918562,
				"y": -1.3265765849,
				"z": 2.111851811,
				"element": "H" 
			}
		],
		 "valence_orbital": [ 
			{
				"type": "occ",
				"energy": -0.28908,
				"method": "rhf"
			},
			{
				"type": "occ",
				"energy": -0.2693,
				"method": "rhf"
			},
			{
				"type": "occ",
				"energy": -0.26486,
				"method": "rhf"
			},
			{
				"type": "occ",
				"energy": -0.25864,
				"method": "rhf"
			},
			{
				"type": "occ",
				"energy": -0.25308,
				"method": "rhf"
			},
			{
				"type": "unocc",
				"energy": -0.03892,
				"method": "rhf"
			},
			{
				"type": "unocc",
				"energy": -0.01972,
				"method": "rhf"
			},
			{
				"type": "unocc",
				"energy": 0.02448,
				"method": "rhf"
			},
			{
				"type": "unocc",
				"energy": 0.05374,
				"method": "rhf"
			},
			{
				"type": "unocc",
				"energy": 0.06395,
				"method": "rhf"
			}
		],
		"cosmo_sigma_profile": { 
			"-0.025": 0.0,
			"-0.024": 0.0,
			"-0.023": 0.0,
			"-0.022": 0.0,
			"-0.021": 0.0,
			"-0.02": 0.0,
			"-0.019": 0.0,
			"-0.018": 0.0,
			"-0.017": 0.0,
			"-0.016": 0.0,
			"-0.015": 0.0,
			"-0.014": 0.0,
			"-0.013": 0.0,
			"-0.012": 0.0,
			"-0.011": 0.0,
			"-0.01": 0.0,
			"-0.009": 1.24140542043,
			"-0.008": 2.71198751339,
			"-0.007": 8.95240887365,
			"-0.006": 18.4249613471,
			"-0.005": 22.5926560208,
			"-0.004": 21.1365302477,
			"-0.003": 21.3017494204,
			"-0.002": 23.2867148191,
			"-0.001": 21.8170732288,
			"0.0": 18.0822043874,
			"0.001": 15.6824949388,
			"0.002": 16.3293671933,
			"0.003": 18.342287485,
			"0.004": 8.07117461454,
			"0.005": 9.88884415979,
			"0.006": 9.5978288473,
			"0.007": 7.00066716932,
			"0.008": 6.61135319038,
			"0.009": 6.26313372717,
			"0.01": 9.77343237235,
			"0.011": 3.40916355626,
			"0.012": 0.0,
			"0.013": 0.0,
			"0.014": 0.0,
			"0.015": 0.0,
			"0.016": 0.0,
			"0.017": 0.0,
			"0.018": 0.0,
			"0.019": 0.0,
			"0.02": 0.0,
			"0.021": 0.0,
			"0.022": 0.0,
			"0.023": 0.0,
			"0.024": 0.0,
			"0.025": 0.0
		}
	}
}
