{
	 "smiles": "NC1=C(C=C(Cl)C=C1)N1C=CC=C1", 
	 "Tm": 366.15, 
	 "num_atms": 22, 
	 "gaussian": { 
		 "optdone": 1, 
		 "sigma_profile": "yes", 
		 "theory": "DFT", 
		 "functional": "B3LYP", 
		 "basiset": "6-31G**", 
		 "properties": { 
			 "R2extent": 3996.9213, 
			 "electric_dipole_moment_norm": 3.13080092628, 
			 "electric_quadrupole_moment_norm": 7.56162132085, 
			 "total_energy": -956.17148964, 
			 "HOMO_LUMO_gap": 0.18828, 
			 "cosmo_polarized_energy": -9.02, 
			 "cosmo_cavitation_energy": 27.66, 
			 "cosmo_dispersion_energy": -20.31, 
			 "cosmo_repulsion_energy": 1.6, 
			 "cosmo_total_nonelectrostatic_energy": 8.95, 
			 "SMD_solvation_energy": 5.15 
		},
		"coords": [
			{
				"x": -1.4399194654,
				"y": 0.3910338818,
				"z": -0.563406828,
				"element": "N" 
			},
			{
				"x": -0.1741427479,
				"y": 0.6485529295,
				"z": -1.0783025554,
				"element": "C" 
			},
			{
				"x": 0.9095533714,
				"y": 0.9868133738,
				"z": -0.2346736222,
				"element": "C" 
			},
			{
				"x": 2.1820508568,
				"y": 1.2106663775,
				"z": -0.7657114591,
				"element": "C" 
			},
			{
				"x": 2.3919098056,
				"y": 1.1108849957,
				"z": -2.1375637178,
				"element": "C" 
			},
			{
				"x": 3.9973263832,
				"y": 1.404072554,
				"z": -2.7950592296,
				"element": "Cl" 
			},
			{
				"x": 1.3425853308,
				"y": 0.7692836329,
				"z": -2.9890144692,
				"element": "C" 
			},
			{
				"x": 0.0783537129,
				"y": 0.5385084697,
				"z": -2.4563485383,
				"element": "C" 
			},
			{
				"x": 0.7058616099,
				"y": 1.1376385834,
				"z": 1.1667554205,
				"element": "N" 
			},
			{
				"x": 1.0738246108,
				"y": 2.246393701,
				"z": 1.9101882196,
				"element": "C" 
			},
			{
				"x": 0.7809138381,
				"y": 1.9985850603,
				"z": 3.2312078731,
				"element": "C" 
			},
			{
				"x": 0.2222312005,
				"y": 0.6891527384,
				"z": 3.3056112219,
				"element": "C" 
			},
			{
				"x": 0.1889984901,
				"y": 0.1797897429,
				"z": 2.0276484005,
				"element": "C" 
			},
			{
				"x": -2.201494151,
				"y": 0.5181451626,
				"z": -1.2149316334,
				"element": "H" 
			},
			{
				"x": -1.6268375424,
				"y": 0.7896461018,
				"z": 0.347376329,
				"element": "H" 
			},
			{
				"x": 2.9990946393,
				"y": 1.4546298707,
				"z": -0.0966272428,
				"element": "H" 
			},
			{
				"x": 1.5105944607,
				"y": 0.6867576262,
				"z": -4.0570089452,
				"element": "H" 
			},
			{
				"x": -0.7406576946,
				"y": 0.2758798741,
				"z": -3.1206597053,
				"element": "H" 
			},
			{
				"x": 1.4828474326,
				"y": 3.1173298124,
				"z": 1.420409052,
				"element": "H" 
			},
			{
				"x": 0.9401466646,
				"y": 2.6841810055,
				"z": 4.0516876183,
				"element": "H" 
			},
			{
				"x": -0.1117441713,
				"y": 0.1754128115,
				"z": 4.1963550569,
				"element": "H" 
			},
			{
				"x": -0.1244966345,
				"y": -0.7813583057,
				"z": 1.6495687546,
				"element": "H" 
			}
		],
		 "valence_orbital": [ 
			{
				"type": "occ",
				"energy": -0.29863,
				"method": "rhf"
			},
			{
				"type": "occ",
				"energy": -0.27432,
				"method": "rhf"
			},
			{
				"type": "occ",
				"energy": -0.23702,
				"method": "rhf"
			},
			{
				"type": "occ",
				"energy": -0.21344,
				"method": "rhf"
			},
			{
				"type": "occ",
				"energy": -0.20791,
				"method": "rhf"
			},
			{
				"type": "unocc",
				"energy": -0.01963,
				"method": "rhf"
			},
			{
				"type": "unocc",
				"energy": -0.00158,
				"method": "rhf"
			},
			{
				"type": "unocc",
				"energy": 0.02836,
				"method": "rhf"
			},
			{
				"type": "unocc",
				"energy": 0.04197,
				"method": "rhf"
			},
			{
				"type": "unocc",
				"energy": 0.07516,
				"method": "rhf"
			}
		],
		"cosmo_sigma_profile": { 
			"-0.025": 0.0,
			"-0.024": 0.0,
			"-0.023": 0.0,
			"-0.022": 0.0,
			"-0.021": 0.0,
			"-0.02": 0.0,
			"-0.019": 0.0,
			"-0.018": 0.0,
			"-0.017": 0.0,
			"-0.016": 0.0,
			"-0.015": 0.0,
			"-0.014": 0.0681744608509,
			"-0.013": 1.24587663986,
			"-0.012": 1.50819964111,
			"-0.011": 2.50820708761,
			"-0.01": 2.45562274584,
			"-0.009": 2.87029413887,
			"-0.008": 2.69226522159,
			"-0.007": 7.46086121803,
			"-0.006": 8.57970448885,
			"-0.005": 13.6601117806,
			"-0.004": 12.6956830739,
			"-0.003": 12.4258949323,
			"-0.002": 12.700323003,
			"-0.001": 15.2678892376,
			"0.0": 14.2824220407,
			"0.001": 15.1975654977,
			"0.002": 19.2105399667,
			"0.003": 21.3722002087,
			"0.004": 21.9206401593,
			"0.005": 15.7705553338,
			"0.006": 6.8991745687,
			"0.007": 5.54565042647,
			"0.008": 4.54975780624,
			"0.009": 1.38580846569,
			"0.01": 0.442873407756,
			"0.011": 0.403882326257,
			"0.012": 0.527006598353,
			"0.013": 0.152559789801,
			"0.014": 0.0,
			"0.015": 0.0,
			"0.016": 0.0,
			"0.017": 0.0,
			"0.018": 0.0,
			"0.019": 0.0,
			"0.02": 0.0,
			"0.021": 0.0,
			"0.022": 0.0,
			"0.023": 0.0,
			"0.024": 0.0,
			"0.025": 0.0
		}
	}
}
