{
	 "smiles": "NC(=S)NC1=C(OC2=CC=CC=C2)C=CC=C1", 
	 "Tm": 399.15, 
	 "num_atms": 29, 
	 "gaussian": { 
		 "optdone": 1, 
		 "sigma_profile": "yes", 
		 "theory": "DFT", 
		 "functional": "B3LYP", 
		 "basiset": "6-31G**", 
		 "properties": { 
			 "R2extent": 6226.656, 
			 "electric_dipole_moment_norm": 6.15173084668, 
			 "electric_quadrupole_moment_norm": 31.0338014745, 
			 "total_energy": -1085.53827966, 
			 "HOMO_LUMO_gap": 0.17066, 
			 "cosmo_polarized_energy": -17.68, 
			 "cosmo_cavitation_energy": 35.09, 
			 "cosmo_dispersion_energy": -25.53, 
			 "cosmo_repulsion_energy": 1.97, 
			 "cosmo_total_nonelectrostatic_energy": 11.53, 
			 "SMD_solvation_energy": 5.19 
		},
		"coords": [
			{
				"x": -0.6774380341,
				"y": 3.9743582786,
				"z": -1.8731203315,
				"element": "N" 
			},
			{
				"x": -0.4273635339,
				"y": 3.894408853,
				"z": -0.5351461408,
				"element": "C" 
			},
			{
				"x": 0.5442923855,
				"y": 5.0101441454,
				"z": 0.2599703658,
				"element": "S" 
			},
			{
				"x": -1.0142680638,
				"y": 2.8649430855,
				"z": 0.1513593097,
				"element": "N" 
			},
			{
				"x": -1.9089607192,
				"y": 1.8651502735,
				"z": -0.2760348329,
				"element": "C" 
			},
			{
				"x": -1.843909656,
				"y": 0.6169729886,
				"z": 0.3813009579,
				"element": "C" 
			},
			{
				"x": -0.9369644194,
				"y": 0.5373614008,
				"z": 1.4176205779,
				"element": "O" 
			},
			{
				"x": -0.2804502146,
				"y": -0.6503812699,
				"z": 1.7069306212,
				"element": "C" 
			},
			{
				"x": -0.1062215591,
				"y": -0.956246998,
				"z": 3.056659838,
				"element": "C" 
			},
			{
				"x": 0.6146095514,
				"y": -2.0968640461,
				"z": 3.4109451457,
				"element": "C" 
			},
			{
				"x": 1.1498232153,
				"y": -2.9290033964,
				"z": 2.4255252407,
				"element": "C" 
			},
			{
				"x": 0.9676897324,
				"y": -2.609203191,
				"z": 1.0782619801,
				"element": "C" 
			},
			{
				"x": 0.2567009454,
				"y": -1.4667795096,
				"z": 0.7087835308,
				"element": "C" 
			},
			{
				"x": -2.7191261514,
				"y": -0.4133979908,
				"z": 0.046899424,
				"element": "C" 
			},
			{
				"x": -3.6663972528,
				"y": -0.2208827856,
				"z": -0.9607405171,
				"element": "C" 
			},
			{
				"x": -3.7565208926,
				"y": 1.0128106859,
				"z": -1.6036036543,
				"element": "C" 
			},
			{
				"x": -2.8973923727,
				"y": 2.0556125039,
				"z": -1.253087513,
				"element": "C" 
			},
			{
				"x": -0.1124968964,
				"y": 4.6495543838,
				"z": -2.3653864121,
				"element": "H" 
			},
			{
				"x": -0.9545960904,
				"y": 3.1460998903,
				"z": -2.3831009674,
				"element": "H" 
			},
			{
				"x": -0.6568383834,
				"y": 2.7599596744,
				"z": 1.0915057221,
				"element": "H" 
			},
			{
				"x": -0.5307104263,
				"y": -0.2961508113,
				"z": 3.8057278959,
				"element": "H" 
			},
			{
				"x": 0.7534037791,
				"y": -2.3354706859,
				"z": 4.4612560233,
				"element": "H" 
			},
			{
				"x": 1.7071822721,
				"y": -3.8177504886,
				"z": 2.7046007693,
				"element": "H" 
			},
			{
				"x": 1.3884331382,
				"y": -3.246163661,
				"z": 0.305642332,
				"element": "H" 
			},
			{
				"x": 0.122766229,
				"y": -1.2081826314,
				"z": -0.3360431172,
				"element": "H" 
			},
			{
				"x": -2.6513315466,
				"y": -1.3590061526,
				"z": 0.5733842138,
				"element": "H" 
			},
			{
				"x": -4.3411375058,
				"y": -1.0292734705,
				"z": -1.2239457733,
				"element": "H" 
			},
			{
				"x": -4.5098528319,
				"y": 1.178526894,
				"z": -2.3673679287,
				"element": "H" 
			},
			{
				"x": -3.0096246981,
				"y": 3.029354031,
				"z": -1.7151967598,
				"element": "H" 
			}
		],
		 "valence_orbital": [ 
			{
				"type": "occ",
				"energy": -0.26175,
				"method": "rhf"
			},
			{
				"type": "occ",
				"energy": -0.24888,
				"method": "rhf"
			},
			{
				"type": "occ",
				"energy": -0.23162,
				"method": "rhf"
			},
			{
				"type": "occ",
				"energy": -0.20667,
				"method": "rhf"
			},
			{
				"type": "occ",
				"energy": -0.20276,
				"method": "rhf"
			},
			{
				"type": "unocc",
				"energy": -0.0321,
				"method": "rhf"
			},
			{
				"type": "unocc",
				"energy": -0.02086,
				"method": "rhf"
			},
			{
				"type": "unocc",
				"energy": -0.01234,
				"method": "rhf"
			},
			{
				"type": "unocc",
				"energy": -0.00204,
				"method": "rhf"
			},
			{
				"type": "unocc",
				"energy": 0.02095,
				"method": "rhf"
			}
		],
		"cosmo_sigma_profile": { 
			"-0.025": 0.0,
			"-0.024": 0.0,
			"-0.023": 0.0,
			"-0.022": 0.0,
			"-0.021": 0.0,
			"-0.02": 0.0,
			"-0.019": 0.0,
			"-0.018": 0.0,
			"-0.017": 0.0,
			"-0.016": 0.0,
			"-0.015": 0.0511171355173,
			"-0.014": 1.68577170313,
			"-0.013": 1.72335707574,
			"-0.012": 2.7752423374,
			"-0.011": 3.14842047194,
			"-0.01": 2.0935562743,
			"-0.009": 2.93117349856,
			"-0.008": 2.14420702747,
			"-0.007": 5.49799605259,
			"-0.006": 18.8420015785,
			"-0.005": 19.3775587671,
			"-0.004": 21.7407598084,
			"-0.003": 17.869897174,
			"-0.002": 17.7055938916,
			"-0.001": 17.3851213575,
			"0.0": 16.3124151077,
			"0.001": 19.5123477793,
			"0.002": 20.0963415673,
			"0.003": 21.2193953759,
			"0.004": 20.6363307239,
			"0.005": 15.6127746387,
			"0.006": 5.03065923743,
			"0.007": 3.53474854859,
			"0.008": 3.30214563781,
			"0.009": 4.63004186166,
			"0.01": 5.5883196043,
			"0.011": 7.48658399077,
			"0.012": 5.52645884091,
			"0.013": 0.493051529893,
			"0.014": 0.0,
			"0.015": 0.0,
			"0.016": 0.0,
			"0.017": 0.0,
			"0.018": 0.0,
			"0.019": 0.0,
			"0.02": 0.0,
			"0.021": 0.0,
			"0.022": 0.0,
			"0.023": 0.0,
			"0.024": 0.0,
			"0.025": 0.0
		}
	}
}
