{
	 "smiles": "CCCCCCCC1=CC=C(O)C=C1", 
	 "Tm": 299.65, 
	 "num_atms": 34, 
	 "gaussian": { 
		 "optdone": 1, 
		 "sigma_profile": "yes", 
		 "theory": "DFT", 
		 "functional": "B3LYP", 
		 "basiset": "6-31G**", 
		 "properties": { 
			 "R2extent": 5214.2165, 
			 "electric_dipole_moment_norm": 1.31699473423, 
			 "electric_quadrupole_moment_norm": 10.8476851669, 
			 "total_energy": -582.679942896, 
			 "HOMO_LUMO_gap": 0.21245, 
			 "cosmo_polarized_energy": -7.86, 
			 "cosmo_cavitation_energy": 35.52, 
			 "cosmo_dispersion_energy": -24.58, 
			 "cosmo_repulsion_energy": 1.97, 
			 "cosmo_total_nonelectrostatic_energy": 12.91, 
			 "SMD_solvation_energy": 5.52 
		},
		"coords": [
			{
				"x": -1.7536133813,
				"y": 3.370802656,
				"z": -0.8380634504,
				"element": "C" 
			},
			{
				"x": -1.1601269986,
				"y": 1.9953594976,
				"z": -1.1606245413,
				"element": "C" 
			},
			{
				"x": -2.235705247,
				"y": 0.9217576737,
				"z": -1.3897169293,
				"element": "C" 
			},
			{
				"x": -1.7147496123,
				"y": -0.4809565637,
				"z": -1.7719977691,
				"element": "C" 
			},
			{
				"x": -1.431645116,
				"y": -1.4451296844,
				"z": -0.6027999512,
				"element": "C" 
			},
			{
				"x": -0.2893982447,
				"y": -1.0844079725,
				"z": 0.3617736251,
				"element": "C" 
			},
			{
				"x": 1.1092695026,
				"y": -1.0546268715,
				"z": -0.2886448225,
				"element": "C" 
			},
			{
				"x": 2.2194679324,
				"y": -0.7798294151,
				"z": 0.7034918581,
				"element": "C" 
			},
			{
				"x": 2.7746831288,
				"y": -1.8129532617,
				"z": 1.4743930924,
				"element": "C" 
			},
			{
				"x": 3.7705260429,
				"y": -1.5698854749,
				"z": 2.4158178623,
				"element": "C" 
			},
			{
				"x": 4.2391037103,
				"y": -0.265747102,
				"z": 2.6087159999,
				"element": "C" 
			},
			{
				"x": 5.2208680147,
				"y": -0.0776797152,
				"z": 3.5434838673,
				"element": "O" 
			},
			{
				"x": 3.7031290954,
				"y": 0.7793455153,
				"z": 1.8511695717,
				"element": "C" 
			},
			{
				"x": 2.7052795284,
				"y": 0.5160708199,
				"z": 0.9113078463,
				"element": "C" 
			},
			{
				"x": -2.3543127406,
				"y": 3.3381024814,
				"z": 0.0781804113,
				"element": "H" 
			},
			{
				"x": -2.4062595558,
				"y": 3.7198977888,
				"z": -1.6466723071,
				"element": "H" 
			},
			{
				"x": -0.9707271872,
				"y": 4.1229364758,
				"z": -0.6947352442,
				"element": "H" 
			},
			{
				"x": -0.5359500109,
				"y": 2.069710616,
				"z": -2.0618772057,
				"element": "H" 
			},
			{
				"x": -0.4872068013,
				"y": 1.6938282012,
				"z": -0.3494465357,
				"element": "H" 
			},
			{
				"x": -2.8962745879,
				"y": 1.2809762752,
				"z": -2.1905311878,
				"element": "H" 
			},
			{
				"x": -2.8711529184,
				"y": 0.8441302613,
				"z": -0.4955289106,
				"element": "H" 
			},
			{
				"x": -0.8234902597,
				"y": -0.3789571216,
				"z": -2.4058888106,
				"element": "H" 
			},
			{
				"x": -2.4672656408,
				"y": -0.966677607,
				"z": -2.4059282297,
				"element": "H" 
			},
			{
				"x": -1.2252805211,
				"y": -2.4395565464,
				"z": -1.0233395051,
				"element": "H" 
			},
			{
				"x": -2.3555630753,
				"y": -1.5541304475,
				"z": -0.0182930744,
				"element": "H" 
			},
			{
				"x": -0.276047383,
				"y": -1.8228308252,
				"z": 1.1739287985,
				"element": "H" 
			},
			{
				"x": -0.4843907987,
				"y": -0.1196033115,
				"z": 0.8455142135,
				"element": "H" 
			},
			{
				"x": 1.2868321589,
				"y": -2.0190372789,
				"z": -0.7833178936,
				"element": "H" 
			},
			{
				"x": 1.1335202056,
				"y": -0.2951946287,
				"z": -1.0784954354,
				"element": "H" 
			},
			{
				"x": 2.4229144675,
				"y": -2.832176333,
				"z": 1.3308509203,
				"element": "H" 
			},
			{
				"x": 4.1996667105,
				"y": -2.3738953943,
				"z": 3.0049416663,
				"element": "H" 
			},
			{
				"x": 5.4508635715,
				"y": 0.859893983,
				"z": 3.5726890451,
				"element": "H" 
			},
			{
				"x": 4.0670620223,
				"y": 1.7956920444,
				"z": 1.9906484934,
				"element": "H" 
			},
			{
				"x": 2.3022739886,
				"y": 1.3389712655,
				"z": 0.3254945318,
				"element": "H" 
			}
		],
		 "valence_orbital": [ 
			{
				"type": "occ",
				"energy": -0.30853,
				"method": "rhf"
			},
			{
				"type": "occ",
				"energy": -0.30417,
				"method": "rhf"
			},
			{
				"type": "occ",
				"energy": -0.30309,
				"method": "rhf"
			},
			{
				"type": "occ",
				"energy": -0.24631,
				"method": "rhf"
			},
			{
				"type": "occ",
				"energy": -0.21056,
				"method": "rhf"
			},
			{
				"type": "unocc",
				"energy": 0.00189,
				"method": "rhf"
			},
			{
				"type": "unocc",
				"energy": 0.01868,
				"method": "rhf"
			},
			{
				"type": "unocc",
				"energy": 0.07381,
				"method": "rhf"
			},
			{
				"type": "unocc",
				"energy": 0.07874,
				"method": "rhf"
			},
			{
				"type": "unocc",
				"energy": 0.09616,
				"method": "rhf"
			}
		],
		"cosmo_sigma_profile": { 
			"-0.025": 0.0,
			"-0.024": 0.0,
			"-0.023": 0.0,
			"-0.022": 0.0,
			"-0.021": 0.0,
			"-0.02": 0.0,
			"-0.019": 0.0,
			"-0.018": 0.148677054772,
			"-0.017": 0.771482434809,
			"-0.016": 1.16754452983,
			"-0.015": 1.28330028921,
			"-0.014": 1.02420404076,
			"-0.013": 0.649158286499,
			"-0.012": 0.948483847376,
			"-0.011": 0.674336866071,
			"-0.01": 1.18777207633,
			"-0.009": 1.22362282249,
			"-0.008": 1.47000733542,
			"-0.007": 0.918994705115,
			"-0.006": 2.04420641454,
			"-0.005": 5.69735612756,
			"-0.004": 8.23442755529,
			"-0.003": 13.9121769313,
			"-0.002": 35.9202829546,
			"-0.001": 45.3610428715,
			"0.0": 44.2816502951,
			"0.001": 36.6690086403,
			"0.002": 21.4438579461,
			"0.003": 8.05252787706,
			"0.004": 10.0896887989,
			"0.005": 10.2457775839,
			"0.006": 10.3377991755,
			"0.007": 4.68411626527,
			"0.008": 1.4171842934,
			"0.009": 1.07143300928,
			"0.01": 1.63804494611,
			"0.011": 1.97685235471,
			"0.012": 1.44134491689,
			"0.013": 0.0,
			"0.014": 0.0,
			"0.015": 0.0,
			"0.016": 0.0,
			"0.017": 0.0,
			"0.018": 0.0,
			"0.019": 0.0,
			"0.02": 0.0,
			"0.021": 0.0,
			"0.022": 0.0,
			"0.023": 0.0,
			"0.024": 0.0,
			"0.025": 0.0
		}
	}
}
