{
	 "smiles": "CC1=C(CCN2CCC(CC2)C2=NOC3=CC(F)=CC=C23)C(=O)N2CCCCC2=N1", 
	 "Tm": 443.15, 
	 "num_atms": 57, 
	 "gaussian": { 
		 "optdone": 1, 
		 "sigma_profile": "yes", 
		 "theory": "DFT", 
		 "functional": "B3LYP", 
		 "basiset": "6-31G**", 
		 "properties": { 
			 "R2extent": 22364.6267, 
			 "electric_dipole_moment_norm": 4.92641400412, 
			 "electric_quadrupole_moment_norm": 13.2328390846, 
			 "total_energy": -1361.99550487, 
			 "HOMO_LUMO_gap": 0.15465, 
			 "cosmo_polarized_energy": -18.58, 
			 "cosmo_cavitation_energy": 56.96, 
			 "cosmo_dispersion_energy": -39.56, 
			 "cosmo_repulsion_energy": 2.91, 
			 "cosmo_total_nonelectrostatic_energy": 20.31, 
			 "SMD_solvation_energy": 6.6 
		},
		"coords": [
			{
				"x": -1.9486010745,
				"y": -3.0630520835,
				"z": 1.0736043941,
				"element": "C" 
			},
			{
				"x": -0.9908821492,
				"y": -2.8071870479,
				"z": 2.2103954912,
				"element": "C" 
			},
			{
				"x": -0.9037440695,
				"y": -1.5925156489,
				"z": 2.8493401796,
				"element": "C" 
			},
			{
				"x": -1.7372299322,
				"y": -0.3762650483,
				"z": 2.5320550664,
				"element": "C" 
			},
			{
				"x": -0.9928007198,
				"y": 0.6750422048,
				"z": 1.6779975233,
				"element": "C" 
			},
			{
				"x": -0.8018765626,
				"y": 0.2569701982,
				"z": 0.2884750372,
				"element": "N" 
			},
			{
				"x": 0.4515453566,
				"y": 0.7000450835,
				"z": -0.3446536471,
				"element": "C" 
			},
			{
				"x": 0.2623103611,
				"y": 1.8806560814,
				"z": -1.30832037,
				"element": "C" 
			},
			{
				"x": -0.6497893808,
				"y": 1.4532647303,
				"z": -2.4975535375,
				"element": "C" 
			},
			{
				"x": -1.673132893,
				"y": 0.3844855241,
				"z": -2.0267050477,
				"element": "C" 
			},
			{
				"x": -1.9907017309,
				"y": 0.5189880347,
				"z": -0.5367067373,
				"element": "C" 
			},
			{
				"x": -1.2832492046,
				"y": 2.6658983331,
				"z": -3.1305824022,
				"element": "C" 
			},
			{
				"x": -2.5611438098,
				"y": 2.9141320148,
				"z": -3.0064118475,
				"element": "N" 
			},
			{
				"x": -2.8282812365,
				"y": 4.1340501099,
				"z": -3.6786361958,
				"element": "O" 
			},
			{
				"x": -1.667567004,
				"y": 4.5872867602,
				"z": -4.1999282594,
				"element": "C" 
			},
			{
				"x": -1.4905746194,
				"y": 5.7533530829,
				"z": -4.9456219272,
				"element": "C" 
			},
			{
				"x": -0.1907008719,
				"y": 5.9813260591,
				"z": -5.370167922,
				"element": "C" 
			},
			{
				"x": 0.0618445822,
				"y": 7.0876427486,
				"z": -6.0961194138,
				"element": "F" 
			},
			{
				"x": 0.8872490065,
				"y": 5.1225734144,
				"z": -5.0894909237,
				"element": "C" 
			},
			{
				"x": 0.6741420448,
				"y": 3.9711179747,
				"z": -4.3441619336,
				"element": "C" 
			},
			{
				"x": -0.6268148776,
				"y": 3.702647162,
				"z": -3.8908579645,
				"element": "C" 
			},
			{
				"x": 0.0816737653,
				"y": -1.4228457287,
				"z": 3.8952056555,
				"element": "C" 
			},
			{
				"x": 0.3066046766,
				"y": -0.3747266198,
				"z": 4.5059288581,
				"element": "O" 
			},
			{
				"x": 0.8368675005,
				"y": -2.5874577152,
				"z": 4.2122359183,
				"element": "N" 
			},
			{
				"x": 1.8587342394,
				"y": -2.3976401298,
				"z": 5.2665359213,
				"element": "C" 
			},
			{
				"x": 2.3750674478,
				"y": -3.713809746,
				"z": 5.834905757,
				"element": "C" 
			},
			{
				"x": 2.7324836927,
				"y": -4.6791016883,
				"z": 4.7035810925,
				"element": "C" 
			},
			{
				"x": 1.4690071808,
				"y": -4.9795596044,
				"z": 3.8951950457,
				"element": "C" 
			},
			{
				"x": 0.663356612,
				"y": -3.7532196476,
				"z": 3.517058532,
				"element": "C" 
			},
			{
				"x": -0.2033471434,
				"y": -3.8817588918,
				"z": 2.5480544707,
				"element": "N" 
			},
			{
				"x": -1.8358159077,
				"y": -4.092211941,
				"z": 0.7299766977,
				"element": "H" 
			},
			{
				"x": -1.7421631106,
				"y": -2.3774914272,
				"z": 0.2465483406,
				"element": "H" 
			},
			{
				"x": -2.9892743019,
				"y": -2.9082129892,
				"z": 1.3805541372,
				"element": "H" 
			},
			{
				"x": -2.6700719406,
				"y": -0.6644980762,
				"z": 2.0387074137,
				"element": "H" 
			},
			{
				"x": -2.0051031456,
				"y": 0.1080553596,
				"z": 3.4778466342,
				"element": "H" 
			},
			{
				"x": -1.5483156747,
				"y": 1.630091224,
				"z": 1.7400007407,
				"element": "H" 
			},
			{
				"x": -0.018588503,
				"y": 0.8456279064,
				"z": 2.1434058996,
				"element": "H" 
			},
			{
				"x": 0.9037323118,
				"y": -0.1370740088,
				"z": -0.8984264041,
				"element": "H" 
			},
			{
				"x": 1.165067589,
				"y": 0.966917698,
				"z": 0.4402895819,
				"element": "H" 
			},
			{
				"x": 1.2317127616,
				"y": 2.2364899015,
				"z": -1.6749162323,
				"element": "H" 
			},
			{
				"x": -0.1983221038,
				"y": 2.716887812,
				"z": -0.7699773645,
				"element": "H" 
			},
			{
				"x": -0.0081745194,
				"y": 1.0003663409,
				"z": -3.2649785468,
				"element": "H" 
			},
			{
				"x": -2.5961075841,
				"y": 0.4625909044,
				"z": -2.605405702,
				"element": "H" 
			},
			{
				"x": -1.25713178,
				"y": -0.6124781385,
				"z": -2.2092178831,
				"element": "H" 
			},
			{
				"x": -2.4018403214,
				"y": 1.5284686584,
				"z": -0.3480985819,
				"element": "H" 
			},
			{
				"x": -2.7826709524,
				"y": -0.1894070231,
				"z": -0.2651780637,
				"element": "H" 
			},
			{
				"x": -2.2965489215,
				"y": 6.4359774846,
				"z": -5.1835896509,
				"element": "H" 
			},
			{
				"x": 1.8693110032,
				"y": 5.3841135181,
				"z": -5.4666536673,
				"element": "H" 
			},
			{
				"x": 1.498273855,
				"y": 3.3007448542,
				"z": -4.1224709884,
				"element": "H" 
			},
			{
				"x": 2.6802236075,
				"y": -1.8158233426,
				"z": 4.8309392049,
				"element": "H" 
			},
			{
				"x": 1.4061847281,
				"y": -1.7624817999,
				"z": 6.0295940069,
				"element": "H" 
			},
			{
				"x": 3.2413980766,
				"y": -3.4976955977,
				"z": 6.4689666974,
				"element": "H" 
			},
			{
				"x": 1.6124707998,
				"y": -4.1691073489,
				"z": 6.4800171229,
				"element": "H" 
			},
			{
				"x": 3.49763725,
				"y": -4.2262753593,
				"z": 4.0594387469,
				"element": "H" 
			},
			{
				"x": 3.1561455135,
				"y": -5.6096374347,
				"z": 5.0947165771,
				"element": "H" 
			},
			{
				"x": 1.6810817423,
				"y": -5.5206972585,
				"z": 2.9697000748,
				"element": "H" 
			},
			{
				"x": 0.8064403416,
				"y": -5.6305798329,
				"z": 4.4823603951,
				"element": "H" 
			}
		],
		 "valence_orbital": [ 
			{
				"type": "occ",
				"energy": -0.2531,
				"method": "rhf"
			},
			{
				"type": "occ",
				"energy": -0.24748,
				"method": "rhf"
			},
			{
				"type": "occ",
				"energy": -0.24593,
				"method": "rhf"
			},
			{
				"type": "occ",
				"energy": -0.21574,
				"method": "rhf"
			},
			{
				"type": "occ",
				"energy": -0.1981,
				"method": "rhf"
			},
			{
				"type": "unocc",
				"energy": -0.04345,
				"method": "rhf"
			},
			{
				"type": "unocc",
				"energy": -0.02756,
				"method": "rhf"
			},
			{
				"type": "unocc",
				"energy": -0.00355,
				"method": "rhf"
			},
			{
				"type": "unocc",
				"energy": 0.0121,
				"method": "rhf"
			},
			{
				"type": "unocc",
				"energy": 0.03992,
				"method": "rhf"
			}
		],
		"cosmo_sigma_profile": { 
			"-0.025": 0.0,
			"-0.024": 0.0,
			"-0.023": 0.0,
			"-0.022": 0.0,
			"-0.021": 0.0,
			"-0.02": 0.0,
			"-0.019": 0.0,
			"-0.018": 0.0,
			"-0.017": 0.0,
			"-0.016": 0.0,
			"-0.015": 0.0,
			"-0.014": 0.0,
			"-0.013": 0.0,
			"-0.012": 0.0,
			"-0.011": 0.0,
			"-0.01": 0.0,
			"-0.009": 0.884743034551,
			"-0.008": 2.67717368687,
			"-0.007": 5.65105915245,
			"-0.006": 8.13248940387,
			"-0.005": 24.140260679,
			"-0.004": 41.1306004709,
			"-0.003": 50.9715334189,
			"-0.002": 56.685018702,
			"-0.001": 56.6935266076,
			"0.0": 50.2150027316,
			"0.001": 35.3479137624,
			"0.002": 22.3988799848,
			"0.003": 17.9580138271,
			"0.004": 16.3070107429,
			"0.005": 6.79955656848,
			"0.006": 6.59393215424,
			"0.007": 7.66003562003,
			"0.008": 8.30292600239,
			"0.009": 7.02238163829,
			"0.01": 4.58694685779,
			"0.011": 3.84450467487,
			"0.012": 3.7809528747,
			"0.013": 3.39449294268,
			"0.014": 5.35747832045,
			"0.015": 1.12895126027,
			"0.016": 0.0954724438693,
			"0.017": 0.0,
			"0.018": 0.0,
			"0.019": 0.0,
			"0.02": 0.0,
			"0.021": 0.0,
			"0.022": 0.0,
			"0.023": 0.0,
			"0.024": 0.0,
			"0.025": 0.0
		}
	}
}
