{
	 "smiles": "COC(=O)C1=CC=C(C(C)=C1)[N+]([O-])=O", 
	 "Tm": 354.15, 
	 "num_atms": 23, 
	 "gaussian": { 
		 "optdone": 1, 
		 "sigma_profile": "yes", 
		 "theory": "DFT", 
		 "functional": "B3LYP", 
		 "basiset": "6-31G**", 
		 "properties": { 
			 "R2extent": 3622.2778, 
			 "electric_dipole_moment_norm": 4.39065660807, 
			 "electric_quadrupole_moment_norm": 8.70103174802, 
			 "total_energy": -703.942255732, 
			 "HOMO_LUMO_gap": 0.1749, 
			 "cosmo_polarized_energy": -10.11, 
			 "cosmo_cavitation_energy": 28.15, 
			 "cosmo_dispersion_energy": -20.55, 
			 "cosmo_repulsion_energy": 1.61, 
			 "cosmo_total_nonelectrostatic_energy": 9.21, 
			 "SMD_solvation_energy": 8.61 
		},
		"coords": [
			{
				"x": -3.9424853952,
				"y": 2.7013654828,
				"z": -1.1311229661,
				"element": "C" 
			},
			{
				"x": -2.7025541761,
				"y": 2.040943757,
				"z": -0.8246932663,
				"element": "O" 
			},
			{
				"x": -2.6231397501,
				"y": 0.7535697874,
				"z": -1.2207430191,
				"element": "C" 
			},
			{
				"x": -3.5209419146,
				"y": 0.1723302911,
				"z": -1.796558861,
				"element": "O" 
			},
			{
				"x": -1.3108138663,
				"y": 0.1271333218,
				"z": -0.8723012214,
				"element": "C" 
			},
			{
				"x": -1.111374159,
				"y": -1.2114244487,
				"z": -1.2300635524,
				"element": "C" 
			},
			{
				"x": 0.0913797516,
				"y": -1.8258389885,
				"z": -0.9176710591,
				"element": "C" 
			},
			{
				"x": 1.0938845476,
				"y": -1.1019928649,
				"z": -0.2649802479,
				"element": "C" 
			},
			{
				"x": 0.933563548,
				"y": 0.246771239,
				"z": 0.111350379,
				"element": "C" 
			},
			{
				"x": 1.9626206052,
				"y": 1.0844389701,
				"z": 0.8309983729,
				"element": "C" 
			},
			{
				"x": -0.3012187347,
				"y": 0.8295775943,
				"z": -0.2084712736,
				"element": "C" 
			},
			{
				"x": 2.3432834162,
				"y": -1.8388248076,
				"z": 0.0113742001,
				"element": "N" 
			},
			{
				"x": 3.350816963,
				"y": -1.191871103,
				"z": 0.2980099249,
				"element": "O" 
			},
			{
				"x": 2.3097410391,
				"y": -3.066213996,
				"z": -0.0704595404,
				"element": "O" 
			},
			{
				"x": -4.1135949177,
				"y": 2.7125360798,
				"z": -2.2102199656,
				"element": "H" 
			},
			{
				"x": -3.8368350473,
				"y": 3.7158245022,
				"z": -0.7478046914,
				"element": "H" 
			},
			{
				"x": -4.7780180021,
				"y": 2.1907935715,
				"z": -0.6462894252,
				"element": "H" 
			},
			{
				"x": -1.9022273632,
				"y": -1.7461269179,
				"z": -1.7433755738,
				"element": "H" 
			},
			{
				"x": 0.2798475976,
				"y": -2.8620846171,
				"z": -1.1667858449,
				"element": "H" 
			},
			{
				"x": 1.5167813443,
				"y": 2.0378940658,
				"z": 1.1251860778,
				"element": "H" 
			},
			{
				"x": 2.3459760222,
				"y": 0.5833006155,
				"z": 1.7229308933,
				"element": "H" 
			},
			{
				"x": 2.8297942101,
				"y": 1.2806837717,
				"z": 0.1954747663,
				"element": "H" 
			},
			{
				"x": -0.4770857186,
				"y": 1.8623146936,
				"z": 0.0696158937,
				"element": "H" 
			}
		],
		 "valence_orbital": [ 
			{
				"type": "occ",
				"energy": -0.30893,
				"method": "rhf"
			},
			{
				"type": "occ",
				"energy": -0.29593,
				"method": "rhf"
			},
			{
				"type": "occ",
				"energy": -0.28952,
				"method": "rhf"
			},
			{
				"type": "occ",
				"energy": -0.28225,
				"method": "rhf"
			},
			{
				"type": "occ",
				"energy": -0.27383,
				"method": "rhf"
			},
			{
				"type": "unocc",
				"energy": -0.09893,
				"method": "rhf"
			},
			{
				"type": "unocc",
				"energy": -0.0377,
				"method": "rhf"
			},
			{
				"type": "unocc",
				"energy": -0.02831,
				"method": "rhf"
			},
			{
				"type": "unocc",
				"energy": 0.0438,
				"method": "rhf"
			},
			{
				"type": "unocc",
				"energy": 0.0858,
				"method": "rhf"
			}
		],
		"cosmo_sigma_profile": { 
			"-0.025": 0.0,
			"-0.024": 0.0,
			"-0.023": 0.0,
			"-0.022": 0.0,
			"-0.021": 0.0,
			"-0.02": 0.0,
			"-0.019": 0.0,
			"-0.018": 0.0,
			"-0.017": 0.0,
			"-0.016": 0.0,
			"-0.015": 0.0,
			"-0.014": 0.0,
			"-0.013": 0.0,
			"-0.012": 0.0,
			"-0.011": 0.0,
			"-0.01": 0.0,
			"-0.009": 0.0,
			"-0.008": 0.807624859006,
			"-0.007": 7.12533081345,
			"-0.006": 13.6359670365,
			"-0.005": 15.6532705612,
			"-0.004": 20.6418903021,
			"-0.003": 21.6100061127,
			"-0.002": 18.9416904184,
			"-0.001": 22.441024733,
			"0.0": 23.1998898639,
			"0.001": 16.7896692477,
			"0.002": 6.61645019324,
			"0.003": 6.33614760874,
			"0.004": 7.33816668516,
			"0.005": 6.00713304331,
			"0.006": 5.09231601733,
			"0.007": 8.54265625386,
			"0.008": 7.59272517783,
			"0.009": 6.00335726408,
			"0.01": 4.29569854447,
			"0.011": 4.38092302875,
			"0.012": 1.69379061134,
			"0.013": 0.0,
			"0.014": 0.0,
			"0.015": 0.0,
			"0.016": 0.0,
			"0.017": 0.0,
			"0.018": 0.0,
			"0.019": 0.0,
			"0.02": 0.0,
			"0.021": 0.0,
			"0.022": 0.0,
			"0.023": 0.0,
			"0.024": 0.0,
			"0.025": 0.0
		}
	}
}
