{
	 "smiles": "CC1=CC(O[Si]23OCCN(CCO2)CCO3)=CC(C)=C1", 
	 "Tm": 492.65, 
	 "num_atms": 41, 
	 "gaussian": { 
		 "optdone": 1, 
		 "sigma_profile": "yes", 
		 "theory": "DFT", 
		 "functional": "B3LYP", 
		 "basiset": "6-31G**", 
		 "properties": { 
			 "R2extent": 7019.5161, 
			 "electric_dipole_moment_norm": 6.27696470836, 
			 "electric_quadrupole_moment_norm": 15.3942346978, 
			 "total_energy": -1191.45038061, 
			 "HOMO_LUMO_gap": 0.22116, 
			 "cosmo_polarized_energy": -17.86, 
			 "cosmo_cavitation_energy": 41.63, 
			 "cosmo_dispersion_energy": -28.69, 
			 "cosmo_repulsion_energy": 2.29, 
			 "cosmo_total_nonelectrostatic_energy": 15.23, 
			 "SMD_solvation_energy": 6.85 
		},
		"coords": [
			{
				"x": 0.6855369919,
				"y": -4.3479695988,
				"z": 0.1027842603,
				"element": "C" 
			},
			{
				"x": 0.4603857302,
				"y": -3.1875340247,
				"z": 1.0459011134,
				"element": "C" 
			},
			{
				"x": 0.1588041648,
				"y": -1.9183909022,
				"z": 0.5373692204,
				"element": "C" 
			},
			{
				"x": -0.0145541495,
				"y": -0.8382055014,
				"z": 1.4085127961,
				"element": "C" 
			},
			{
				"x": -0.3399694212,
				"y": 0.4159749947,
				"z": 0.9685987217,
				"element": "O" 
			},
			{
				"x": 0.2109997132,
				"y": 1.2658253958,
				"z": -0.3487165815,
				"element": "Si" 
			},
			{
				"x": -0.5768465266,
				"y": 2.7038125008,
				"z": -0.0727253893,
				"element": "O" 
			},
			{
				"x": -0.0755957844,
				"y": 3.9485058527,
				"z": -0.5135663109,
				"element": "C" 
			},
			{
				"x": 0.2458130205,
				"y": 3.8848783991,
				"z": -2.0141323069,
				"element": "C" 
			},
			{
				"x": 1.0029938737,
				"y": 2.6604548197,
				"z": -2.2682565011,
				"element": "N" 
			},
			{
				"x": 0.5652045365,
				"y": 1.8257622598,
				"z": -3.3853801786,
				"element": "C" 
			},
			{
				"x": -0.6240919242,
				"y": 0.9762412729,
				"z": -2.9145560241,
				"element": "C" 
			},
			{
				"x": -0.3332868484,
				"y": 0.387763842,
				"z": -1.6617800545,
				"element": "O" 
			},
			{
				"x": 2.4358331962,
				"y": 2.6888186869,
				"z": -1.9803738805,
				"element": "C" 
			},
			{
				"x": 2.7890513976,
				"y": 1.429608395,
				"z": -1.1755541838,
				"element": "C" 
			},
			{
				"x": 1.8623921517,
				"y": 1.2533309232,
				"z": -0.1235218419,
				"element": "O" 
			},
			{
				"x": 0.0939200483,
				"y": -1.0255942009,
				"z": 2.7902019635,
				"element": "C" 
			},
			{
				"x": 0.3835214012,
				"y": -2.2881711978,
				"z": 3.3131406859,
				"element": "C" 
			},
			{
				"x": 0.4643878369,
				"y": -2.4970601954,
				"z": 4.8082999054,
				"element": "C" 
			},
			{
				"x": 0.5690563596,
				"y": -3.3600266233,
				"z": 2.4299186803,
				"element": "C" 
			},
			{
				"x": -0.0155680057,
				"y": -4.322361994,
				"z": -0.7379187402,
				"element": "H" 
			},
			{
				"x": 1.6977869115,
				"y": -4.3264168188,
				"z": -0.3209430965,
				"element": "H" 
			},
			{
				"x": 0.5660847701,
				"y": -5.308003417,
				"z": 0.613731955,
				"element": "H" 
			},
			{
				"x": 0.0441835745,
				"y": -1.7632066231,
				"z": -0.5306651132,
				"element": "H" 
			},
			{
				"x": 0.8245862416,
				"y": 4.2199746534,
				"z": 0.0571151868,
				"element": "H" 
			},
			{
				"x": -0.8328058766,
				"y": 4.715337977,
				"z": -0.3170049019,
				"element": "H" 
			},
			{
				"x": -0.6916360244,
				"y": 3.8293318949,
				"z": -2.5756668809,
				"element": "H" 
			},
			{
				"x": 0.7775655023,
				"y": 4.7895844773,
				"z": -2.345490822,
				"element": "H" 
			},
			{
				"x": 0.303222065,
				"y": 2.4138263107,
				"z": -4.2779803604,
				"element": "H" 
			},
			{
				"x": 1.3901308982,
				"y": 1.1612692124,
				"z": -3.6595227678,
				"element": "H" 
			},
			{
				"x": -0.8319902337,
				"y": 0.1763375414,
				"z": -3.6335878859,
				"element": "H" 
			},
			{
				"x": -1.5290442951,
				"y": 1.59597259,
				"z": -2.8386582041,
				"element": "H" 
			},
			{
				"x": 2.6433608334,
				"y": 3.5712021018,
				"z": -1.3675808293,
				"element": "H" 
			},
			{
				"x": 3.0508250031,
				"y": 2.7644006421,
				"z": -2.8899741301,
				"element": "H" 
			},
			{
				"x": 3.7913861509,
				"y": 1.520270659,
				"z": -0.7429609376,
				"element": "H" 
			},
			{
				"x": 2.7912019682,
				"y": 0.5465189053,
				"z": -1.831028756,
				"element": "H" 
			},
			{
				"x": -0.0533962791,
				"y": -0.1693273626,
				"z": 3.4416456061,
				"element": "H" 
			},
			{
				"x": -0.5264928384,
				"y": -2.6978062441,
				"z": 5.2354358712,
				"element": "H" 
			},
			{
				"x": 1.1049300819,
				"y": -3.3480859449,
				"z": 5.0594203946,
				"element": "H" 
			},
			{
				"x": 0.8613987693,
				"y": -1.6122217876,
				"z": 5.3156009524,
				"element": "H" 
			},
			{
				"x": 0.7993150152,
				"y": -4.3458218714,
				"z": 2.8284693659,
				"element": "H" 
			}
		],
		 "valence_orbital": [ 
			{
				"type": "occ",
				"energy": -0.27917,
				"method": "rhf"
			},
			{
				"type": "occ",
				"energy": -0.27414,
				"method": "rhf"
			},
			{
				"type": "occ",
				"energy": -0.24835,
				"method": "rhf"
			},
			{
				"type": "occ",
				"energy": -0.21376,
				"method": "rhf"
			},
			{
				"type": "occ",
				"energy": -0.19949,
				"method": "rhf"
			},
			{
				"type": "unocc",
				"energy": 0.02167,
				"method": "rhf"
			},
			{
				"type": "unocc",
				"energy": 0.03398,
				"method": "rhf"
			},
			{
				"type": "unocc",
				"energy": 0.06967,
				"method": "rhf"
			},
			{
				"type": "unocc",
				"energy": 0.08564,
				"method": "rhf"
			},
			{
				"type": "unocc",
				"energy": 0.08625,
				"method": "rhf"
			}
		],
		"cosmo_sigma_profile": { 
			"-0.025": 0.0,
			"-0.024": 0.0,
			"-0.023": 0.0,
			"-0.022": 0.0,
			"-0.021": 0.0,
			"-0.02": 0.0,
			"-0.019": 0.0,
			"-0.018": 0.0,
			"-0.017": 0.0,
			"-0.016": 0.0,
			"-0.015": 0.0,
			"-0.014": 0.0,
			"-0.013": 0.0,
			"-0.012": 0.0,
			"-0.011": 0.0,
			"-0.01": 0.0,
			"-0.009": 0.0,
			"-0.008": 0.0,
			"-0.007": 0.365225452186,
			"-0.006": 8.1230115019,
			"-0.005": 29.9222128814,
			"-0.004": 48.2571986973,
			"-0.003": 41.6450537977,
			"-0.002": 34.5169481335,
			"-0.001": 22.5462050609,
			"0.0": 25.8632019109,
			"0.001": 16.4259379751,
			"0.002": 9.9050676043,
			"0.003": 10.0779095831,
			"0.004": 11.0520980037,
			"0.005": 13.3591866675,
			"0.006": 14.1297573314,
			"0.007": 11.1915483676,
			"0.008": 5.81109897067,
			"0.009": 3.90478610071,
			"0.01": 4.19127056779,
			"0.011": 3.73608355933,
			"0.012": 2.77319118063,
			"0.013": 2.9807625504,
			"0.014": 1.78839862367,
			"0.015": 0.491871976436,
			"0.016": 0.0,
			"0.017": 0.0,
			"0.018": 0.0,
			"0.019": 0.0,
			"0.02": 0.0,
			"0.021": 0.0,
			"0.022": 0.0,
			"0.023": 0.0,
			"0.024": 0.0,
			"0.025": 0.0
		}
	}
}
