{
	 "smiles": "CC1CC1C(=O)NC1=C(C=C(F)C=C1)C(O)=O", 
	 "Tm": 447.15, 
	 "num_atms": 29, 
	 "gaussian": { 
		 "optdone": 1, 
		 "sigma_profile": "yes", 
		 "theory": "DFT", 
		 "functional": "B3LYP", 
		 "basiset": "6-31G**", 
		 "properties": { 
			 "R2extent": 5775.4956, 
			 "electric_dipole_moment_norm": 3.8783452425, 
			 "electric_quadrupole_moment_norm": 12.7946982669, 
			 "total_energy": -844.784311182, 
			 "HOMO_LUMO_gap": 0.16422, 
			 "cosmo_polarized_energy": -13.54, 
			 "cosmo_cavitation_energy": 33.84, 
			 "cosmo_dispersion_energy": -24.35, 
			 "cosmo_repulsion_energy": 1.86, 
			 "cosmo_total_nonelectrostatic_energy": 11.36, 
			 "SMD_solvation_energy": 7.43 
		},
		"coords": [
			{
				"x": -1.4385422546,
				"y": -2.9070723054,
				"z": -3.1655453794,
				"element": "C" 
			},
			{
				"x": -1.5136806497,
				"y": -1.4734814919,
				"z": -2.6882873448,
				"element": "C" 
			},
			{
				"x": -0.9501183129,
				"y": -0.3530066597,
				"z": -3.4992007287,
				"element": "C" 
			},
			{
				"x": -0.2514855303,
				"y": -0.7648315994,
				"z": -2.2111243939,
				"element": "C" 
			},
			{
				"x": -0.3816534716,
				"y": 0.155647217,
				"z": -1.0394698952,
				"element": "C" 
			},
			{
				"x": -1.3900362699,
				"y": 0.8304993117,
				"z": -0.8558163079,
				"element": "O" 
			},
			{
				"x": 0.7265631009,
				"y": 0.153177997,
				"z": -0.2112187392,
				"element": "N" 
			},
			{
				"x": 0.9519560774,
				"y": 0.8796370176,
				"z": 0.9659854765,
				"element": "C" 
			},
			{
				"x": 2.1758867547,
				"y": 0.7439656314,
				"z": 1.682933644,
				"element": "C" 
			},
			{
				"x": 2.3748689966,
				"y": 1.4858051934,
				"z": 2.8620363145,
				"element": "C" 
			},
			{
				"x": 1.3937754288,
				"y": 2.3384263359,
				"z": 3.3220159385,
				"element": "C" 
			},
			{
				"x": 1.6005097551,
				"y": 3.042481036,
				"z": 4.4543842855,
				"element": "F" 
			},
			{
				"x": 0.1919015283,
				"y": 2.4845018222,
				"z": 2.6359229821,
				"element": "C" 
			},
			{
				"x": -0.0256480596,
				"y": 1.7620887484,
				"z": 1.4703362061,
				"element": "C" 
			},
			{
				"x": 3.3286168663,
				"y": -0.125022635,
				"z": 1.3271807197,
				"element": "C" 
			},
			{
				"x": 3.1719523383,
				"y": -0.8649257894,
				"z": 0.1853759169,
				"element": "O" 
			},
			{
				"x": 4.3567312259,
				"y": -0.2105151051,
				"z": 1.9667439491,
				"element": "O" 
			},
			{
				"x": -2.2824124834,
				"y": -3.1420097551,
				"z": -3.8238184517,
				"element": "H" 
			},
			{
				"x": -1.4636305842,
				"y": -3.6101935712,
				"z": -2.3257919469,
				"element": "H" 
			},
			{
				"x": -0.5180236345,
				"y": -3.0913093141,
				"z": -3.7304864008,
				"element": "H" 
			},
			{
				"x": -2.3943853332,
				"y": -1.2149575702,
				"z": -2.1050019075,
				"element": "H" 
			},
			{
				"x": -1.463307266,
				"y": 0.6025734307,
				"z": -3.4727336319,
				"element": "H" 
			},
			{
				"x": -0.4402151388,
				"y": -0.5881694988,
				"z": -4.4292233999,
				"element": "H" 
			},
			{
				"x": 0.683013652,
				"y": -1.3122243492,
				"z": -2.3100937037,
				"element": "H" 
			},
			{
				"x": 1.487232986,
				"y": -0.4522333072,
				"z": -0.4874707031,
				"element": "H" 
			},
			{
				"x": 3.3088970566,
				"y": 1.3749774282,
				"z": 3.3988763219,
				"element": "H" 
			},
			{
				"x": -0.5654886333,
				"y": 3.1614582125,
				"z": 3.0170425241,
				"element": "H" 
			},
			{
				"x": -0.9524004886,
				"y": 1.8633993697,
				"z": 0.9249889568,
				"element": "H" 
			},
			{
				"x": 3.9950223438,
				"y": -1.3720858,
				"z": 0.0879596987,
				"element": "H" 
			}
		],
		 "valence_orbital": [ 
			{
				"type": "occ",
				"energy": -0.29436,
				"method": "rhf"
			},
			{
				"type": "occ",
				"energy": -0.28875,
				"method": "rhf"
			},
			{
				"type": "occ",
				"energy": -0.27067,
				"method": "rhf"
			},
			{
				"type": "occ",
				"energy": -0.26012,
				"method": "rhf"
			},
			{
				"type": "occ",
				"energy": -0.22552,
				"method": "rhf"
			},
			{
				"type": "unocc",
				"energy": -0.0613,
				"method": "rhf"
			},
			{
				"type": "unocc",
				"energy": -0.01723,
				"method": "rhf"
			},
			{
				"type": "unocc",
				"energy": 0.03535,
				"method": "rhf"
			},
			{
				"type": "unocc",
				"energy": 0.05076,
				"method": "rhf"
			},
			{
				"type": "unocc",
				"energy": 0.05768,
				"method": "rhf"
			}
		],
		"cosmo_sigma_profile": { 
			"-0.025": 0.0,
			"-0.024": 0.0,
			"-0.023": 0.0,
			"-0.022": 0.0,
			"-0.021": 0.0,
			"-0.02": 0.0,
			"-0.019": 0.437020445971,
			"-0.018": 1.14632847633,
			"-0.017": 0.732574905982,
			"-0.016": 0.889207051013,
			"-0.015": 0.594648965879,
			"-0.014": 0.266033172828,
			"-0.013": 0.759018634856,
			"-0.012": 1.05363260336,
			"-0.011": 0.590130988899,
			"-0.01": 0.98143281768,
			"-0.009": 2.02622479526,
			"-0.008": 3.90323358523,
			"-0.007": 5.05403463992,
			"-0.006": 5.96690294555,
			"-0.005": 10.6077769431,
			"-0.004": 15.6143907168,
			"-0.003": 21.3140525654,
			"-0.002": 20.6269275063,
			"-0.001": 25.5165389993,
			"0.0": 34.3831409417,
			"0.001": 33.8986791037,
			"0.002": 21.8060554291,
			"0.003": 13.6327720773,
			"0.004": 14.3091842743,
			"0.005": 5.84425441825,
			"0.006": 3.22545946619,
			"0.007": 2.81230330814,
			"0.008": 2.72480273073,
			"0.009": 2.93238682467,
			"0.01": 4.32895292962,
			"0.011": 6.82950565695,
			"0.012": 2.78544111281,
			"0.013": 1.9611579313,
			"0.014": 0.181211823523,
			"0.015": 0.0,
			"0.016": 0.0,
			"0.017": 0.0,
			"0.018": 0.0,
			"0.019": 0.0,
			"0.02": 0.0,
			"0.021": 0.0,
			"0.022": 0.0,
			"0.023": 0.0,
			"0.024": 0.0,
			"0.025": 0.0
		}
	}
}
