{
	 "smiles": "CC1=CC=C(C(C)=N1)[N+]([O-])=O", 
	 "Tm": 308.15, 
	 "num_atms": 19, 
	 "gaussian": { 
		 "optdone": 1, 
		 "sigma_profile": "yes", 
		 "theory": "DFT", 
		 "functional": "B3LYP", 
		 "basiset": "6-31G**", 
		 "properties": { 
			 "R2extent": 2211.9369, 
			 "electric_dipole_moment_norm": 4.01612999043, 
			 "electric_quadrupole_moment_norm": 8.65170335252, 
			 "total_energy": -531.424040616, 
			 "HOMO_LUMO_gap": 0.17957, 
			 "cosmo_polarized_energy": -8.48, 
			 "cosmo_cavitation_energy": 23.33, 
			 "cosmo_dispersion_energy": -17.31, 
			 "cosmo_repulsion_energy": 1.39, 
			 "cosmo_total_nonelectrostatic_energy": 7.41, 
			 "SMD_solvation_energy": 5.11 
		},
		"coords": [
			{
				"x": 0.275809612,
				"y": -1.439866905,
				"z": -3.2920671164,
				"element": "C" 
			},
			{
				"x": -0.1878679244,
				"y": -0.566788989,
				"z": -2.1548834712,
				"element": "C" 
			},
			{
				"x": -1.3615354049,
				"y": -0.8633859815,
				"z": -1.4434181701,
				"element": "C" 
			},
			{
				"x": -1.7366665,
				"y": -0.025351491,
				"z": -0.4093201641,
				"element": "C" 
			},
			{
				"x": -0.9352973763,
				"y": 1.0801836469,
				"z": -0.1132662752,
				"element": "C" 
			},
			{
				"x": 0.2337356272,
				"y": 1.3322325383,
				"z": -0.8602365776,
				"element": "C" 
			},
			{
				"x": 1.1814377544,
				"y": 2.4829321931,
				"z": -0.6485384879,
				"element": "C" 
			},
			{
				"x": 0.570552009,
				"y": 0.4974675407,
				"z": -1.8606903211,
				"element": "N" 
			},
			{
				"x": -1.3766110265,
				"y": 1.9389922735,
				"z": 0.9944970255,
				"element": "N" 
			},
			{
				"x": -2.4220020808,
				"y": 1.6313124166,
				"z": 1.5699300112,
				"element": "O" 
			},
			{
				"x": -0.6875741355,
				"y": 2.914936474,
				"z": 1.2923089431,
				"element": "O" 
			},
			{
				"x": 1.2006578786,
				"y": -1.0419053421,
				"z": -3.7108188718,
				"element": "H" 
			},
			{
				"x": 0.4519342299,
				"y": -2.4664276861,
				"z": -2.9512476291,
				"element": "H" 
			},
			{
				"x": -0.481351759,
				"y": -1.4881616302,
				"z": -4.0828776002,
				"element": "H" 
			},
			{
				"x": -1.9602572239,
				"y": -1.7314407098,
				"z": -1.7003703908,
				"element": "H" 
			},
			{
				"x": -2.6295755958,
				"y": -0.1960426142,
				"z": 0.1789007227,
				"element": "H" 
			},
			{
				"x": 1.6050837882,
				"y": 2.471971933,
				"z": 0.359131343,
				"element": "H" 
			},
			{
				"x": 0.6729373751,
				"y": 3.4450483048,
				"z": -0.7522690841,
				"element": "H" 
			},
			{
				"x": 1.9776907528,
				"y": 2.3995940281,
				"z": -1.3890638859,
				"element": "H" 
			}
		],
		 "valence_orbital": [ 
			{
				"type": "occ",
				"energy": -0.31047,
				"method": "rhf"
			},
			{
				"type": "occ",
				"energy": -0.30565,
				"method": "rhf"
			},
			{
				"type": "occ",
				"energy": -0.2905,
				"method": "rhf"
			},
			{
				"type": "occ",
				"energy": -0.27398,
				"method": "rhf"
			},
			{
				"type": "occ",
				"energy": -0.27019,
				"method": "rhf"
			},
			{
				"type": "unocc",
				"energy": -0.09062,
				"method": "rhf"
			},
			{
				"type": "unocc",
				"energy": -0.03867,
				"method": "rhf"
			},
			{
				"type": "unocc",
				"energy": -0.00849,
				"method": "rhf"
			},
			{
				"type": "unocc",
				"energy": 0.08896,
				"method": "rhf"
			},
			{
				"type": "unocc",
				"energy": 0.11198,
				"method": "rhf"
			}
		],
		"cosmo_sigma_profile": { 
			"-0.025": 0.0,
			"-0.024": 0.0,
			"-0.023": 0.0,
			"-0.022": 0.0,
			"-0.021": 0.0,
			"-0.02": 0.0,
			"-0.019": 0.0,
			"-0.018": 0.0,
			"-0.017": 0.0,
			"-0.016": 0.0,
			"-0.015": 0.0,
			"-0.014": 0.0,
			"-0.013": 0.0,
			"-0.012": 0.0,
			"-0.011": 0.0,
			"-0.01": 0.0,
			"-0.009": 0.109646542786,
			"-0.008": 1.87389292616,
			"-0.007": 4.11579158389,
			"-0.006": 7.17336469268,
			"-0.005": 14.3040482746,
			"-0.004": 17.5476955106,
			"-0.003": 16.8919522422,
			"-0.002": 18.9815110715,
			"-0.001": 24.471030444,
			"0.0": 19.5713967224,
			"0.001": 9.05964595466,
			"0.002": 4.97827155802,
			"0.003": 4.58511884641,
			"0.004": 4.67075645905,
			"0.005": 5.21669560252,
			"0.006": 4.60729272769,
			"0.007": 7.64666551845,
			"0.008": 7.22364683539,
			"0.009": 5.98011310429,
			"0.01": 3.91665145161,
			"0.011": 1.24912249873,
			"0.012": 0.988598971601,
			"0.013": 0.570786136974,
			"0.014": 0.0957747857656,
			"0.015": 0.0,
			"0.016": 0.0,
			"0.017": 0.0,
			"0.018": 0.0,
			"0.019": 0.0,
			"0.02": 0.0,
			"0.021": 0.0,
			"0.022": 0.0,
			"0.023": 0.0,
			"0.024": 0.0,
			"0.025": 0.0
		}
	}
}
