{
	 "smiles": "NC(=O)C1=NC(CS)=CC=C1", 
	 "Tm": 335.15, 
	 "num_atms": 19, 
	 "gaussian": { 
		 "optdone": 1, 
		 "sigma_profile": "yes", 
		 "theory": "DFT", 
		 "functional": "B3LYP", 
		 "basiset": "6-31G**", 
		 "properties": { 
			 "R2extent": 2574.7326, 
			 "electric_dipole_moment_norm": 2.20646594127, 
			 "electric_quadrupole_moment_norm": 15.3421615257, 
			 "total_energy": -854.503657943, 
			 "HOMO_LUMO_gap": 0.1899, 
			 "cosmo_polarized_energy": -13.8, 
			 "cosmo_cavitation_energy": 25.36, 
			 "cosmo_dispersion_energy": -18.81, 
			 "cosmo_repulsion_energy": 1.5, 
			 "cosmo_total_nonelectrostatic_energy": 8.05, 
			 "SMD_solvation_energy": 3.75 
		},
		"coords": [
			{
				"x": 1.1554491502,
				"y": 3.0133536526,
				"z": -0.4395113403,
				"element": "N" 
			},
			{
				"x": 0.0858660436,
				"y": 2.3349558059,
				"z": -0.9256624458,
				"element": "C" 
			},
			{
				"x": -0.7392963607,
				"y": 2.8038752588,
				"z": -1.7023249252,
				"element": "O" 
			},
			{
				"x": -0.0200113625,
				"y": 0.9108212987,
				"z": -0.4259332742,
				"element": "C" 
			},
			{
				"x": 0.9248794395,
				"y": 0.4724797289,
				"z": 0.4207379863,
				"element": "N" 
			},
			{
				"x": 0.8435306857,
				"y": -0.7857042077,
				"z": 0.8750386695,
				"element": "C" 
			},
			{
				"x": 1.9416023762,
				"y": -1.2270975878,
				"z": 1.8071002069,
				"element": "C" 
			},
			{
				"x": 3.3725367979,
				"y": -2.0105035727,
				"z": 0.929380222,
				"element": "S" 
			},
			{
				"x": -0.1933453344,
				"y": -1.6484775462,
				"z": 0.4926290365,
				"element": "C" 
			},
			{
				"x": -1.1708192462,
				"y": -1.1841191325,
				"z": -0.3838333335,
				"element": "C" 
			},
			{
				"x": -1.0875409454,
				"y": 0.1237704462,
				"z": -0.8577619506,
				"element": "C" 
			},
			{
				"x": 1.7804088809,
				"y": 2.5531469751,
				"z": 0.2050048815,
				"element": "H" 
			},
			{
				"x": 1.2931127175,
				"y": 3.9714686545,
				"z": -0.717240422,
				"element": "H" 
			},
			{
				"x": 2.3019187343,
				"y": -0.3748494087,
				"z": 2.3851778832,
				"element": "H" 
			},
			{
				"x": 1.5921222964,
				"y": -1.9983818274,
				"z": 2.4975597629,
				"element": "H" 
			},
			{
				"x": 3.6388489953,
				"y": -0.9563911107,
				"z": 0.131988239,
				"element": "H" 
			},
			{
				"x": -0.2231227135,
				"y": -2.6635929547,
				"z": 0.8759416239,
				"element": "H" 
			},
			{
				"x": -1.9860847387,
				"y": -1.832559572,
				"z": -0.6911173719,
				"element": "H" 
			},
			{
				"x": -1.8116554158,
				"y": 0.5522050995,
				"z": -1.540373448,
				"element": "H" 
			}
		],
		 "valence_orbital": [ 
			{
				"type": "occ",
				"energy": -0.28803,
				"method": "rhf"
			},
			{
				"type": "occ",
				"energy": -0.26989,
				"method": "rhf"
			},
			{
				"type": "occ",
				"energy": -0.26343,
				"method": "rhf"
			},
			{
				"type": "occ",
				"energy": -0.2484,
				"method": "rhf"
			},
			{
				"type": "occ",
				"energy": -0.2432,
				"method": "rhf"
			},
			{
				"type": "unocc",
				"energy": -0.0533,
				"method": "rhf"
			},
			{
				"type": "unocc",
				"energy": -0.03833,
				"method": "rhf"
			},
			{
				"type": "unocc",
				"energy": 0.02411,
				"method": "rhf"
			},
			{
				"type": "unocc",
				"energy": 0.05275,
				"method": "rhf"
			},
			{
				"type": "unocc",
				"energy": 0.07694,
				"method": "rhf"
			}
		],
		"cosmo_sigma_profile": { 
			"-0.025": 0.0,
			"-0.024": 0.0,
			"-0.023": 0.0,
			"-0.022": 0.0,
			"-0.021": 0.0,
			"-0.02": 0.0,
			"-0.019": 0.0,
			"-0.018": 0.0,
			"-0.017": 0.0,
			"-0.016": 0.0,
			"-0.015": 0.0350985729718,
			"-0.014": 1.10782391107,
			"-0.013": 1.03331798446,
			"-0.012": 1.41302247401,
			"-0.011": 1.89284217164,
			"-0.01": 1.61450415445,
			"-0.009": 2.80666343401,
			"-0.008": 6.35590218086,
			"-0.007": 11.6161966573,
			"-0.006": 12.1020554281,
			"-0.005": 10.5975810922,
			"-0.004": 10.2494241793,
			"-0.003": 11.1520340782,
			"-0.002": 10.0780052012,
			"-0.001": 12.5012174278,
			"0.0": 14.6425724914,
			"0.001": 18.6202067773,
			"0.002": 17.9504392602,
			"0.003": 10.6070018184,
			"0.004": 8.36082258578,
			"0.005": 7.01359472004,
			"0.006": 5.66862996562,
			"0.007": 4.10110722313,
			"0.008": 3.2852634031,
			"0.009": 3.22398909636,
			"0.01": 3.45946459037,
			"0.011": 2.14008059682,
			"0.012": 2.04904171614,
			"0.013": 4.24641307879,
			"0.014": 3.8632175923,
			"0.015": 0.665598737751,
			"0.016": 0.0,
			"0.017": 0.0,
			"0.018": 0.0,
			"0.019": 0.0,
			"0.02": 0.0,
			"0.021": 0.0,
			"0.022": 0.0,
			"0.023": 0.0,
			"0.024": 0.0,
			"0.025": 0.0
		}
	}
}
