{
	 "smiles": "C1CCCCCCCCCCCCCCC1", 
	 "Tm": 334.15, 
	 "num_atms": 48, 
	 "gaussian": { 
		 "optdone": 1, 
		 "sigma_profile": "yes", 
		 "theory": "DFT", 
		 "functional": "B3LYP", 
		 "basiset": "6-31G**", 
		 "properties": { 
			 "R2extent": 5098.8679, 
			 "electric_dipole_moment_norm": 0.0785924932802, 
			 "electric_quadrupole_moment_norm": 0.383161323727, 
			 "total_energy": -629.022726381, 
			 "HOMO_LUMO_gap": 0.36449, 
			 "cosmo_polarized_energy": -0.98, 
			 "cosmo_cavitation_energy": 42.09, 
			 "cosmo_dispersion_energy": -28.37, 
			 "cosmo_repulsion_energy": 2.2, 
			 "cosmo_total_nonelectrostatic_energy": 15.92, 
			 "SMD_solvation_energy": 4.56 
		},
		"coords": [
			{
				"x": -1.5099867357,
				"y": 0.0186092413,
				"z": -2.749607867,
				"element": "C" 
			},
			{
				"x": -1.26430076,
				"y": 1.4667496183,
				"z": -3.21990381,
				"element": "C" 
			},
			{
				"x": -0.8996847338,
				"y": 2.4878031313,
				"z": -2.1178796584,
				"element": "C" 
			},
			{
				"x": 0.5965863959,
				"y": 2.6271009696,
				"z": -1.7718480177,
				"element": "C" 
			},
			{
				"x": 1.2936460139,
				"y": 1.358577891,
				"z": -1.2513132848,
				"element": "C" 
			},
			{
				"x": 2.6663672207,
				"y": 1.6196669066,
				"z": -0.5968350135,
				"element": "C" 
			},
			{
				"x": 2.6377493267,
				"y": 2.2361050705,
				"z": 0.8223685169,
				"element": "C" 
			},
			{
				"x": 2.6292409125,
				"y": 1.2289009136,
				"z": 1.9930387028,
				"element": "C" 
			},
			{
				"x": 1.3607900062,
				"y": 0.3715257503,
				"z": 2.1668013346,
				"element": "C" 
			},
			{
				"x": 0.1132745496,
				"y": 1.1703856363,
				"z": 2.6161336869,
				"element": "C" 
			},
			{
				"x": -1.1959414022,
				"y": 0.732578399,
				"z": 1.942019487,
				"element": "C" 
			},
			{
				"x": -1.6919096979,
				"y": -0.6880655703,
				"z": 2.262029093,
				"element": "C" 
			},
			{
				"x": -2.7284855971,
				"y": -1.1702533014,
				"z": 1.2268303745,
				"element": "C" 
			},
			{
				"x": -2.082139489,
				"y": -1.7449153164,
				"z": -0.0530577691,
				"element": "C" 
			},
			{
				"x": -2.9348641204,
				"y": -1.5848531367,
				"z": -1.3273013364,
				"element": "C" 
			},
			{
				"x": -2.8230722598,
				"y": -0.1889333436,
				"z": -1.9731470691,
				"element": "C" 
			},
			{
				"x": -1.5265379936,
				"y": -0.6396500163,
				"z": -3.6290848576,
				"element": "H" 
			},
			{
				"x": -0.6636621278,
				"y": -0.3196585925,
				"z": -2.142781442,
				"element": "H" 
			},
			{
				"x": -2.1698451854,
				"y": 1.8129911766,
				"z": -3.7365003928,
				"element": "H" 
			},
			{
				"x": -0.4719026961,
				"y": 1.4688568344,
				"z": -3.9809108992,
				"element": "H" 
			},
			{
				"x": -1.2537204369,
				"y": 3.4781262353,
				"z": -2.4314390544,
				"element": "H" 
			},
			{
				"x": -1.4578445062,
				"y": 2.2557664775,
				"z": -1.2009895724,
				"element": "H" 
			},
			{
				"x": 1.1398001034,
				"y": 2.9907505634,
				"z": -2.6560976496,
				"element": "H" 
			},
			{
				"x": 0.6883419795,
				"y": 3.4222933514,
				"z": -1.0196316974,
				"element": "H" 
			},
			{
				"x": 1.4289114042,
				"y": 0.6556367197,
				"z": -2.0826690352,
				"element": "H" 
			},
			{
				"x": 0.6375460969,
				"y": 0.8548290575,
				"z": -0.5348098131,
				"element": "H" 
			},
			{
				"x": 3.2326893665,
				"y": 0.6792812605,
				"z": -0.5593868291,
				"element": "H" 
			},
			{
				"x": 3.2383888693,
				"y": 2.281187651,
				"z": -1.2615129215,
				"element": "H" 
			},
			{
				"x": 1.7878519293,
				"y": 2.9256875633,
				"z": 0.9116984286,
				"element": "H" 
			},
			{
				"x": 3.5299714404,
				"y": 2.8623889407,
				"z": 0.9464684551,
				"element": "H" 
			},
			{
				"x": 3.4936521623,
				"y": 0.5611997219,
				"z": 1.8739567337,
				"element": "H" 
			},
			{
				"x": 2.8052309151,
				"y": 1.7826622282,
				"z": 2.9259817112,
				"element": "H" 
			},
			{
				"x": 1.5750976342,
				"y": -0.4187680112,
				"z": 2.8964558285,
				"element": "H" 
			},
			{
				"x": 1.1496429369,
				"y": -0.1539119122,
				"z": 1.2278212443,
				"element": "H" 
			},
			{
				"x": 0.2618970658,
				"y": 2.233890223,
				"z": 2.3910368478,
				"element": "H" 
			},
			{
				"x": 0.0112459784,
				"y": 1.1125352226,
				"z": 3.7080462568,
				"element": "H" 
			},
			{
				"x": -1.993845026,
				"y": 1.4420875995,
				"z": 2.2004026251,
				"element": "H" 
			},
			{
				"x": -1.0618930322,
				"y": 0.8234110318,
				"z": 0.8562112321,
				"element": "H" 
			},
			{
				"x": -0.8504237638,
				"y": -1.3935450988,
				"z": 2.2825762444,
				"element": "H" 
			},
			{
				"x": -2.1223691132,
				"y": -0.7002257983,
				"z": 3.2716243062,
				"element": "H" 
			},
			{
				"x": -3.3838662672,
				"y": -1.9321135799,
				"z": 1.666713721,
				"element": "H" 
			},
			{
				"x": -3.3838942516,
				"y": -0.3262726937,
				"z": 0.9702971635,
				"element": "H" 
			},
			{
				"x": -1.8590785825,
				"y": -2.8059883192,
				"z": 0.1148694139,
				"element": "H" 
			},
			{
				"x": -1.1080698797,
				"y": -1.26633911,
				"z": -0.2166640408,
				"element": "H" 
			},
			{
				"x": -2.6379841538,
				"y": -2.3394482896,
				"z": -2.0680394539,
				"element": "H" 
			},
			{
				"x": -3.984460542,
				"y": -1.798111002,
				"z": -1.0849138032,
				"element": "H" 
			},
			{
				"x": -3.6649515855,
				"y": -0.0317407325,
				"z": -2.6604680126,
				"element": "H" 
			},
			{
				"x": -2.9278883681,
				"y": 0.5777084386,
				"z": -1.1938881069,
				"element": "H" 
			}
		],
		 "valence_orbital": [ 
			{
				"type": "occ",
				"energy": -0.30109,
				"method": "rhf"
			},
			{
				"type": "occ",
				"energy": -0.29981,
				"method": "rhf"
			},
			{
				"type": "occ",
				"energy": -0.29482,
				"method": "rhf"
			},
			{
				"type": "occ",
				"energy": -0.29275,
				"method": "rhf"
			},
			{
				"type": "occ",
				"energy": -0.29071,
				"method": "rhf"
			},
			{
				"type": "unocc",
				"energy": 0.07378,
				"method": "rhf"
			},
			{
				"type": "unocc",
				"energy": 0.08587,
				"method": "rhf"
			},
			{
				"type": "unocc",
				"energy": 0.08944,
				"method": "rhf"
			},
			{
				"type": "unocc",
				"energy": 0.1002,
				"method": "rhf"
			},
			{
				"type": "unocc",
				"energy": 0.10564,
				"method": "rhf"
			}
		],
		"cosmo_sigma_profile": { 
			"-0.025": 0.0,
			"-0.024": 0.0,
			"-0.023": 0.0,
			"-0.022": 0.0,
			"-0.021": 0.0,
			"-0.02": 0.0,
			"-0.019": 0.0,
			"-0.018": 0.0,
			"-0.017": 0.0,
			"-0.016": 0.0,
			"-0.015": 0.0,
			"-0.014": 0.0,
			"-0.013": 0.0,
			"-0.012": 0.0,
			"-0.011": 0.0,
			"-0.01": 0.0,
			"-0.009": 0.0,
			"-0.008": 0.0,
			"-0.007": 0.0,
			"-0.006": 0.0,
			"-0.005": 0.0,
			"-0.004": 0.0239236384257,
			"-0.003": 2.56232099232,
			"-0.002": 31.9853170757,
			"-0.001": 77.6437794634,
			"0.0": 96.1997072196,
			"0.001": 76.2290220155,
			"0.002": 35.7285243699,
			"0.003": 0.238723325147,
			"0.004": 0.0,
			"0.005": 0.0,
			"0.006": 0.0,
			"0.007": 0.0,
			"0.008": 0.0,
			"0.009": 0.0,
			"0.01": 0.0,
			"0.011": 0.0,
			"0.012": 0.0,
			"0.013": 0.0,
			"0.014": 0.0,
			"0.015": 0.0,
			"0.016": 0.0,
			"0.017": 0.0,
			"0.018": 0.0,
			"0.019": 0.0,
			"0.02": 0.0,
			"0.021": 0.0,
			"0.022": 0.0,
			"0.023": 0.0,
			"0.024": 0.0,
			"0.025": 0.0
		}
	}
}
