{
	 "smiles": "COC1=CC2=C(C=C1)C=C(C=C2)C(C)C#N", 
	 "Tm": 344.15, 
	 "num_atms": 29, 
	 "gaussian": { 
		 "optdone": 1, 
		 "sigma_profile": "yes", 
		 "theory": "DFT", 
		 "functional": "B3LYP", 
		 "basiset": "6-31G**", 
		 "properties": { 
			 "R2extent": 5158.671, 
			 "electric_dipole_moment_norm": 5.4873077816, 
			 "electric_quadrupole_moment_norm": 25.5538396152, 
			 "total_energy": -671.286986539, 
			 "HOMO_LUMO_gap": 0.16382, 
			 "cosmo_polarized_energy": -13.03, 
			 "cosmo_cavitation_energy": 33.48, 
			 "cosmo_dispersion_energy": -23.58, 
			 "cosmo_repulsion_energy": 1.82, 
			 "cosmo_total_nonelectrostatic_energy": 11.72, 
			 "SMD_solvation_energy": 7.53 
		},
		"coords": [
			{
				"x": 4.4928241135,
				"y": -2.5307249489,
				"z": 1.3048660313,
				"element": "C" 
			},
			{
				"x": 3.1966614854,
				"y": -2.8309366698,
				"z": 0.8116813432,
				"element": "O" 
			},
			{
				"x": 2.3804645904,
				"y": -1.803130071,
				"z": 0.4367789831,
				"element": "C" 
			},
			{
				"x": 1.1312095918,
				"y": -2.1557671177,
				"z": -0.0445935043,
				"element": "C" 
			},
			{
				"x": 0.2092115729,
				"y": -1.1685052911,
				"z": -0.4586343093,
				"element": "C" 
			},
			{
				"x": 0.5758703475,
				"y": 0.2150026853,
				"z": -0.3781246558,
				"element": "C" 
			},
			{
				"x": 1.8620822743,
				"y": 0.5420089934,
				"z": 0.1178067831,
				"element": "C" 
			},
			{
				"x": 2.7491024483,
				"y": -0.4342534463,
				"z": 0.51826546,
				"element": "C" 
			},
			{
				"x": -0.3539994613,
				"y": 1.2040863221,
				"z": -0.7978258554,
				"element": "C" 
			},
			{
				"x": -1.5999975979,
				"y": 0.8619547808,
				"z": -1.2756515086,
				"element": "C" 
			},
			{
				"x": -1.9575855157,
				"y": -0.5133217294,
				"z": -1.358375317,
				"element": "C" 
			},
			{
				"x": -1.0820366373,
				"y": -1.4950450567,
				"z": -0.9635264958,
				"element": "C" 
			},
			{
				"x": -2.6022048622,
				"y": 1.9469911625,
				"z": -1.658935894,
				"element": "C" 
			},
			{
				"x": -3.7038271419,
				"y": 2.1330765294,
				"z": -0.5864358748,
				"element": "C" 
			},
			{
				"x": -3.2158910074,
				"y": 1.6788682877,
				"z": -2.9715981935,
				"element": "C" 
			},
			{
				"x": -3.7189045291,
				"y": 1.4640826548,
				"z": -3.9957737128,
				"element": "N" 
			},
			{
				"x": 4.955912924,
				"y": -3.4920164032,
				"z": 1.5327914974,
				"element": "H" 
			},
			{
				"x": 5.1030279782,
				"y": -2.0078811677,
				"z": 0.5572134588,
				"element": "H" 
			},
			{
				"x": 4.4516215388,
				"y": -1.9274348581,
				"z": 2.2209328894,
				"element": "H" 
			},
			{
				"x": 0.8700847395,
				"y": -3.2079703313,
				"z": -0.100309596,
				"element": "H" 
			},
			{
				"x": 2.1510013043,
				"y": 1.587965485,
				"z": 0.1818600401,
				"element": "H" 
			},
			{
				"x": 3.7246887864,
				"y": -0.1481975296,
				"z": 0.8927739325,
				"element": "H" 
			},
			{
				"x": -0.0620062601,
				"y": 2.2505185295,
				"z": -0.7341448005,
				"element": "H" 
			},
			{
				"x": -2.9318096182,
				"y": -0.7856421739,
				"z": -1.755257453,
				"element": "H" 
			},
			{
				"x": -1.3658476379,
				"y": -2.5413297704,
				"z": -1.0379926885,
				"element": "H" 
			},
			{
				"x": -2.0575359661,
				"y": 2.8940440113,
				"z": -1.7584016478,
				"element": "H" 
			},
			{
				"x": -3.2382110954,
				"y": 2.3898756133,
				"z": 0.3685413283,
				"element": "H" 
			},
			{
				"x": -4.3955739903,
				"y": 2.9309274782,
				"z": -0.870640569,
				"element": "H" 
			},
			{
				"x": -4.2746323743,
				"y": 1.2103540318,
				"z": -0.4540896712,
				"element": "H" 
			}
		],
		 "valence_orbital": [ 
			{
				"type": "occ",
				"energy": -0.31635,
				"method": "rhf"
			},
			{
				"type": "occ",
				"energy": -0.30572,
				"method": "rhf"
			},
			{
				"type": "occ",
				"energy": -0.28148,
				"method": "rhf"
			},
			{
				"type": "occ",
				"energy": -0.23893,
				"method": "rhf"
			},
			{
				"type": "occ",
				"energy": -0.20858,
				"method": "rhf"
			},
			{
				"type": "unocc",
				"energy": -0.04476,
				"method": "rhf"
			},
			{
				"type": "unocc",
				"energy": -0.01076,
				"method": "rhf"
			},
			{
				"type": "unocc",
				"energy": 0.0255,
				"method": "rhf"
			},
			{
				"type": "unocc",
				"energy": 0.03692,
				"method": "rhf"
			},
			{
				"type": "unocc",
				"energy": 0.04697,
				"method": "rhf"
			}
		],
		"cosmo_sigma_profile": { 
			"-0.025": 0.0,
			"-0.024": 0.0,
			"-0.023": 0.0,
			"-0.022": 0.0,
			"-0.021": 0.0,
			"-0.02": 0.0,
			"-0.019": 0.0,
			"-0.018": 0.0,
			"-0.017": 0.0,
			"-0.016": 0.0,
			"-0.015": 0.0,
			"-0.014": 0.0,
			"-0.013": 0.0,
			"-0.012": 0.0,
			"-0.011": 0.0,
			"-0.01": 0.0,
			"-0.009": 0.102113147959,
			"-0.008": 3.82234665173,
			"-0.007": 5.54812177415,
			"-0.006": 19.5161004924,
			"-0.005": 27.8370193857,
			"-0.004": 25.2920444419,
			"-0.003": 23.7397574033,
			"-0.002": 17.3420959305,
			"-0.001": 17.8038857839,
			"0.0": 13.0886767577,
			"0.001": 10.7651412777,
			"0.002": 13.1639867269,
			"0.003": 15.904856181,
			"0.004": 31.4464335886,
			"0.005": 10.9157420416,
			"0.006": 4.80008677412,
			"0.007": 3.25642119345,
			"0.008": 4.5935194369,
			"0.009": 4.91337819226,
			"0.01": 5.12466233304,
			"0.011": 3.26864696654,
			"0.012": 2.50216325363,
			"0.013": 2.12106095999,
			"0.014": 0.368142496969,
			"0.015": 0.0,
			"0.016": 0.0,
			"0.017": 0.0,
			"0.018": 0.0,
			"0.019": 0.0,
			"0.02": 0.0,
			"0.021": 0.0,
			"0.022": 0.0,
			"0.023": 0.0,
			"0.024": 0.0,
			"0.025": 0.0
		}
	}
}
