{
	 "smiles": "[O-][N+](=O)C1=CC2=C(NC(=O)CO2)C=C1", 
	 "Tm": 499.15, 
	 "num_atms": 20, 
	 "gaussian": { 
		 "optdone": 1, 
		 "sigma_profile": "yes", 
		 "theory": "DFT", 
		 "functional": "B3LYP", 
		 "basiset": "6-31G**", 
		 "properties": { 
			 "R2extent": 3632.7576, 
			 "electric_dipole_moment_norm": 3.49197686848, 
			 "electric_quadrupole_moment_norm": 20.2075953985, 
			 "total_energy": -718.769305216, 
			 "HOMO_LUMO_gap": 0.15354, 
			 "cosmo_polarized_energy": -16.71, 
			 "cosmo_cavitation_energy": 25.46, 
			 "cosmo_dispersion_energy": -19.2, 
			 "cosmo_repulsion_energy": 1.49, 
			 "cosmo_total_nonelectrostatic_energy": 7.75, 
			 "SMD_solvation_energy": 7.52 
		},
		"coords": [
			{
				"x": -2.8140533455,
				"y": 0.982885709,
				"z": 1.5967463295,
				"element": "O" 
			},
			{
				"x": -1.9723351313,
				"y": 1.0134898565,
				"z": 0.6981579809,
				"element": "N" 
			},
			{
				"x": -1.9388459392,
				"y": 1.8517361424,
				"z": -0.2030399207,
				"element": "O" 
			},
			{
				"x": -0.9355011045,
				"y": -0.0233901643,
				"z": 0.7023383567,
				"element": "C" 
			},
			{
				"x": 0.0311989327,
				"y": -0.0073570927,
				"z": -0.3039826392,
				"element": "C" 
			},
			{
				"x": 1.0091210449,
				"y": -0.9911642589,
				"z": -0.2995973317,
				"element": "C" 
			},
			{
				"x": 1.0205078381,
				"y": -1.9790189417,
				"z": 0.7063649088,
				"element": "C" 
			},
			{
				"x": 2.004245695,
				"y": -2.9681650054,
				"z": 0.6375802612,
				"element": "N" 
			},
			{
				"x": 3.115013327,
				"y": -2.8848820408,
				"z": -0.1736693352,
				"element": "C" 
			},
			{
				"x": 3.9820778121,
				"y": -3.737314505,
				"z": -0.202515598,
				"element": "O" 
			},
			{
				"x": 3.1955143482,
				"y": -1.5933268445,
				"z": -0.9813405077,
				"element": "C" 
			},
			{
				"x": 1.9235580138,
				"y": -1.0314727528,
				"z": -1.3144391657,
				"element": "O" 
			},
			{
				"x": 0.0462700918,
				"y": -1.9624509416,
				"z": 1.7100246677,
				"element": "C" 
			},
			{
				"x": -0.9423466641,
				"y": -0.9840261652,
				"z": 1.7118489148,
				"element": "C" 
			},
			{
				"x": 0.0121662803,
				"y": 0.7481630574,
				"z": -1.0783779584,
				"element": "H" 
			},
			{
				"x": 1.9565907501,
				"y": -3.774748974,
				"z": 1.247831467,
				"element": "H" 
			},
			{
				"x": 3.7037934415,
				"y": -1.8051298118,
				"z": -1.9216771816,
				"element": "H" 
			},
			{
				"x": 3.7968191887,
				"y": -0.8677975884,
				"z": -0.4125874475,
				"element": "H" 
			},
			{
				"x": 0.0626272513,
				"y": -2.7240328955,
				"z": 2.4841509268,
				"element": "H" 
			},
			{
				"x": -1.7096218309,
				"y": -0.9523967828,
				"z": 2.4740832724,
				"element": "H" 
			}
		],
		 "valence_orbital": [ 
			{
				"type": "occ",
				"energy": -0.30873,
				"method": "rhf"
			},
			{
				"type": "occ",
				"energy": -0.29173,
				"method": "rhf"
			},
			{
				"type": "occ",
				"energy": -0.28611,
				"method": "rhf"
			},
			{
				"type": "occ",
				"energy": -0.27186,
				"method": "rhf"
			},
			{
				"type": "occ",
				"energy": -0.24511,
				"method": "rhf"
			},
			{
				"type": "unocc",
				"energy": -0.09157,
				"method": "rhf"
			},
			{
				"type": "unocc",
				"energy": -0.03233,
				"method": "rhf"
			},
			{
				"type": "unocc",
				"energy": -0.02436,
				"method": "rhf"
			},
			{
				"type": "unocc",
				"energy": 0.01839,
				"method": "rhf"
			},
			{
				"type": "unocc",
				"energy": 0.05805,
				"method": "rhf"
			}
		],
		"cosmo_sigma_profile": { 
			"-0.025": 0.0,
			"-0.024": 0.0,
			"-0.023": 0.0,
			"-0.022": 0.0,
			"-0.021": 0.0,
			"-0.02": 0.0,
			"-0.019": 0.0,
			"-0.018": 0.0,
			"-0.017": 0.213049129629,
			"-0.016": 1.52756121306,
			"-0.015": 1.50115611801,
			"-0.014": 0.7909595449,
			"-0.013": 1.54730700276,
			"-0.012": 1.37243698963,
			"-0.011": 1.09305027523,
			"-0.01": 1.58396953476,
			"-0.009": 3.72977194103,
			"-0.008": 9.09779646941,
			"-0.007": 9.28797444828,
			"-0.006": 9.56064566716,
			"-0.005": 11.1038966963,
			"-0.004": 10.2654102989,
			"-0.003": 9.44532317226,
			"-0.002": 12.6435909223,
			"-0.001": 15.6069676038,
			"0.0": 18.865744119,
			"0.001": 12.5605999535,
			"0.002": 9.41575378937,
			"0.003": 4.06720252021,
			"0.004": 4.70714945132,
			"0.005": 6.00893135325,
			"0.006": 5.32965192616,
			"0.007": 8.29957344001,
			"0.008": 11.8900767548,
			"0.009": 6.94116983887,
			"0.01": 5.08782600675,
			"0.011": 4.33180448782,
			"0.012": 5.30660644627,
			"0.013": 1.1824523563,
			"0.014": 0.0,
			"0.015": 0.0,
			"0.016": 0.0,
			"0.017": 0.0,
			"0.018": 0.0,
			"0.019": 0.0,
			"0.02": 0.0,
			"0.021": 0.0,
			"0.022": 0.0,
			"0.023": 0.0,
			"0.024": 0.0,
			"0.025": 0.0
		}
	}
}
