{
	 "smiles": "CC(=O)OCCN(CCC#N)C1=CC=C(C=C1)N=NC1=NC2=C(S1)C=C(C=C2)[N+]([O-])=O", 
	 "Tm": 440.15, 
	 "num_atms": 49, 
	 "gaussian": { 
		 "optdone": 1, 
		 "sigma_profile": "yes", 
		 "theory": "DFT", 
		 "functional": "B3LYP", 
		 "basiset": "6-31G**", 
		 "properties": { 
			 "R2extent": 27370.0591, 
			 "electric_dipole_moment_norm": 12.9385333933, 
			 "electric_quadrupole_moment_norm": 41.694427585, 
			 "total_energy": -1800.42115362, 
			 "HOMO_LUMO_gap": 0.10669, 
			 "cosmo_polarized_energy": -31.68, 
			 "cosmo_cavitation_energy": 58.72, 
			 "cosmo_dispersion_energy": -39.32, 
			 "cosmo_repulsion_energy": 2.88, 
			 "cosmo_total_nonelectrostatic_energy": 22.27, 
			 "SMD_solvation_energy": 10.2 
		},
		"coords": [
			{
				"x": 2.664235728,
				"y": 1.7886256045,
				"z": -3.1994032071,
				"element": "C" 
			},
			{
				"x": 2.4045470354,
				"y": 0.5179369251,
				"z": -3.9651548987,
				"element": "C" 
			},
			{
				"x": 1.7559068779,
				"y": 0.4196345182,
				"z": -4.9853998178,
				"element": "O" 
			},
			{
				"x": 2.9797158687,
				"y": -0.5467742097,
				"z": -3.3466564215,
				"element": "O" 
			},
			{
				"x": 2.841053888,
				"y": -1.8166690019,
				"z": -4.0031657693,
				"element": "C" 
			},
			{
				"x": 1.4931306211,
				"y": -2.5000117506,
				"z": -3.7391177634,
				"element": "C" 
			},
			{
				"x": 1.2224804078,
				"y": -2.8247447694,
				"z": -2.3385178303,
				"element": "N" 
			},
			{
				"x": 1.3968963706,
				"y": -4.2198136504,
				"z": -1.9578214486,
				"element": "C" 
			},
			{
				"x": 2.8579358983,
				"y": -4.6857261216,
				"z": -1.732164975,
				"element": "C" 
			},
			{
				"x": 3.5367799338,
				"y": -4.0130940406,
				"z": -0.6228890391,
				"element": "C" 
			},
			{
				"x": 4.0654775862,
				"y": -3.4877291895,
				"z": 0.2667036224,
				"element": "N" 
			},
			{
				"x": 0.6305875392,
				"y": -1.9114600076,
				"z": -1.471063467,
				"element": "C" 
			},
			{
				"x": 0.0118031258,
				"y": -0.7234765468,
				"z": -1.9518787827,
				"element": "C" 
			},
			{
				"x": -0.6152562487,
				"y": 0.1561579855,
				"z": -1.0927434651,
				"element": "C" 
			},
			{
				"x": -0.6507965608,
				"y": -0.0939223672,
				"z": 0.2958677744,
				"element": "C" 
			},
			{
				"x": -0.0234055625,
				"y": -1.2539652349,
				"z": 0.7819934223,
				"element": "C" 
			},
			{
				"x": 0.6072910058,
				"y": -2.1402064711,
				"z": -0.0730791973,
				"element": "C" 
			},
			{
				"x": -1.2535990049,
				"y": 0.7262682593,
				"z": 1.2413344158,
				"element": "N" 
			},
			{
				"x": -1.7961014088,
				"y": 1.787431008,
				"z": 0.7964001128,
				"element": "N" 
			},
			{
				"x": -2.3798447922,
				"y": 2.5471442226,
				"z": 1.7955452166,
				"element": "C" 
			},
			{
				"x": -2.9844458104,
				"y": 3.6707478106,
				"z": 1.5390819014,
				"element": "N" 
			},
			{
				"x": -3.4774996912,
				"y": 4.2311943086,
				"z": 2.6933833144,
				"element": "C" 
			},
			{
				"x": -3.2340659262,
				"y": 3.4942506432,
				"z": 3.8866806804,
				"element": "C" 
			},
			{
				"x": -2.3428301486,
				"y": 2.0331903478,
				"z": 3.5180355053,
				"element": "S" 
			},
			{
				"x": -3.6811005157,
				"y": 3.9527575807,
				"z": 5.1223008247,
				"element": "C" 
			},
			{
				"x": -4.3743730018,
				"y": 5.1603311435,
				"z": 5.136251358,
				"element": "C" 
			},
			{
				"x": -4.6312252854,
				"y": 5.9118834992,
				"z": 3.9779353616,
				"element": "C" 
			},
			{
				"x": -4.1821831334,
				"y": 5.44715123,
				"z": 2.753116992,
				"element": "C" 
			},
			{
				"x": -4.8584954766,
				"y": 5.668245255,
				"z": 6.4265694253,
				"element": "N" 
			},
			{
				"x": -4.6252388812,
				"y": 4.9958003894,
				"z": 7.4320851711,
				"element": "O" 
			},
			{
				"x": -5.4698367745,
				"y": 6.7372890202,
				"z": 6.4280752173,
				"element": "O" 
			},
			{
				"x": 2.330984253,
				"y": 2.6421887071,
				"z": -3.7887735719,
				"element": "H" 
			},
			{
				"x": 2.1117578295,
				"y": 1.757063427,
				"z": -2.254832586,
				"element": "H" 
			},
			{
				"x": 3.7255093656,
				"y": 1.8806093378,
				"z": -2.9556985361,
				"element": "H" 
			},
			{
				"x": 2.9592187536,
				"y": -1.685336538,
				"z": -5.0831840452,
				"element": "H" 
			},
			{
				"x": 3.668220856,
				"y": -2.4144059555,
				"z": -3.6145735042,
				"element": "H" 
			},
			{
				"x": 1.4927077843,
				"y": -3.4374919493,
				"z": -4.3071448761,
				"element": "H" 
			},
			{
				"x": 0.6939287929,
				"y": -1.89082127,
				"z": -4.1645490092,
				"element": "H" 
			},
			{
				"x": 0.9872762615,
				"y": -4.8526521804,
				"z": -2.7559424118,
				"element": "H" 
			},
			{
				"x": 0.8065410963,
				"y": -4.426312968,
				"z": -1.0647205709,
				"element": "H" 
			},
			{
				"x": 2.851721081,
				"y": -5.7641652718,
				"z": -1.5316657045,
				"element": "H" 
			},
			{
				"x": 3.4493090176,
				"y": -4.5420892656,
				"z": -2.6428999452,
				"element": "H" 
			},
			{
				"x": 0.010140941,
				"y": -0.4902884258,
				"z": -3.0084604296,
				"element": "H" 
			},
			{
				"x": -1.09995001,
				"y": 1.0474543399,
				"z": -1.4755692501,
				"element": "H" 
			},
			{
				"x": -0.0269294727,
				"y": -1.4305096927,
				"z": 1.8527510504,
				"element": "H" 
			},
			{
				"x": 1.130537519,
				"y": -2.9850986605,
				"z": 0.3550598592,
				"element": "H" 
			},
			{
				"x": -3.5132844772,
				"y": 3.4178415224,
				"z": 6.0482694726,
				"element": "H" 
			},
			{
				"x": -5.1771307067,
				"y": 6.8417864715,
				"z": 4.069759118,
				"element": "H" 
			},
			{
				"x": -4.3621025484,
				"y": 6.0004819815,
				"z": 1.8380707076,
				"element": "H" 
			}
		],
		 "valence_orbital": [ 
			{
				"type": "occ",
				"energy": -0.27669,
				"method": "rhf"
			},
			{
				"type": "occ",
				"energy": -0.25953,
				"method": "rhf"
			},
			{
				"type": "occ",
				"energy": -0.2476,
				"method": "rhf"
			},
			{
				"type": "occ",
				"energy": -0.24714,
				"method": "rhf"
			},
			{
				"type": "occ",
				"energy": -0.21763,
				"method": "rhf"
			},
			{
				"type": "unocc",
				"energy": -0.11094,
				"method": "rhf"
			},
			{
				"type": "unocc",
				"energy": -0.07284,
				"method": "rhf"
			},
			{
				"type": "unocc",
				"energy": -0.02537,
				"method": "rhf"
			},
			{
				"type": "unocc",
				"energy": -0.02096,
				"method": "rhf"
			},
			{
				"type": "unocc",
				"energy": -0.00842,
				"method": "rhf"
			}
		],
		"cosmo_sigma_profile": { 
			"-0.025": 0.0,
			"-0.024": 0.0,
			"-0.023": 0.0,
			"-0.022": 0.0,
			"-0.021": 0.0,
			"-0.02": 0.0,
			"-0.019": 0.0,
			"-0.018": 0.0,
			"-0.017": 0.0,
			"-0.016": 0.0,
			"-0.015": 0.0,
			"-0.014": 0.0,
			"-0.013": 0.0,
			"-0.012": 0.000228908620997,
			"-0.011": 0.63184272674,
			"-0.01": 3.48163472254,
			"-0.009": 10.7584332325,
			"-0.008": 16.2835778432,
			"-0.007": 21.4165840335,
			"-0.006": 26.1461575991,
			"-0.005": 25.6591440323,
			"-0.004": 25.9331237253,
			"-0.003": 34.7189751028,
			"-0.002": 39.3201317947,
			"-0.001": 33.0116092995,
			"0.0": 35.4526033188,
			"0.001": 37.5554390431,
			"0.002": 31.4827905314,
			"0.003": 23.2653655093,
			"0.004": 15.843367893,
			"0.005": 12.2830772128,
			"0.006": 11.9461895621,
			"0.007": 15.1534305509,
			"0.008": 13.9598914782,
			"0.009": 11.0307607656,
			"0.01": 9.14709972074,
			"0.011": 8.22284639462,
			"0.012": 6.85847775286,
			"0.013": 3.1922730581,
			"0.014": 1.19513336735,
			"0.015": 0.109245750316,
			"0.016": 0.0,
			"0.017": 0.0,
			"0.018": 0.0,
			"0.019": 0.0,
			"0.02": 0.0,
			"0.021": 0.0,
			"0.022": 0.0,
			"0.023": 0.0,
			"0.024": 0.0,
			"0.025": 0.0
		}
	}
}
