{
	 "smiles": "COC1=C(C=CC=C1)N(CCC#N)C(=O)C(C)Cl", 
	 "Tm": 345.15, 
	 "num_atms": 33, 
	 "gaussian": { 
		 "optdone": 1, 
		 "sigma_profile": "yes", 
		 "theory": "DFT", 
		 "functional": "B3LYP", 
		 "basiset": "6-31G**", 
		 "properties": { 
			 "R2extent": 5112.0587, 
			 "electric_dipole_moment_norm": 7.34286275032, 
			 "electric_quadrupole_moment_norm": 31.3357919887, 
			 "total_energy": -1224.55405536, 
			 "HOMO_LUMO_gap": 0.21053, 
			 "cosmo_polarized_energy": -17.51, 
			 "cosmo_cavitation_energy": 38.91, 
			 "cosmo_dispersion_energy": -25.07, 
			 "cosmo_repulsion_energy": 1.98, 
			 "cosmo_total_nonelectrostatic_energy": 15.82, 
			 "SMD_solvation_energy": 9.02 
		},
		"coords": [
			{
				"x": 1.2782217544,
				"y": -2.9438866897,
				"z": 1.2758900155,
				"element": "C" 
			},
			{
				"x": 0.5322956691,
				"y": -1.8797450935,
				"z": 0.6945310472,
				"element": "O" 
			},
			{
				"x": 0.6692238152,
				"y": -1.6464342006,
				"z": -0.6435626661,
				"element": "C" 
			},
			{
				"x": -0.0809947278,
				"y": -0.5669417721,
				"z": -1.1628702969,
				"element": "C" 
			},
			{
				"x": 0.0108361678,
				"y": -0.254406433,
				"z": -2.5188289546,
				"element": "C" 
			},
			{
				"x": 0.8297143202,
				"y": -0.9973936798,
				"z": -3.371164688,
				"element": "C" 
			},
			{
				"x": 1.5677411306,
				"y": -2.0589747557,
				"z": -2.8531425539,
				"element": "C" 
			},
			{
				"x": 1.4958315804,
				"y": -2.3858406738,
				"z": -1.4963157005,
				"element": "C" 
			},
			{
				"x": -0.9702036365,
				"y": 0.1686747837,
				"z": -0.3122011598,
				"element": "N" 
			},
			{
				"x": -2.3945553549,
				"y": -0.1848133,
				"z": -0.3188361001,
				"element": "C" 
			},
			{
				"x": -2.7617080716,
				"y": -1.1500894953,
				"z": 0.8339783369,
				"element": "C" 
			},
			{
				"x": -4.1585287575,
				"y": -1.5788007595,
				"z": 0.757232692,
				"element": "C" 
			},
			{
				"x": -5.2667693605,
				"y": -1.9140190654,
				"z": 0.6722883386,
				"element": "N" 
			},
			{
				"x": -0.5657373523,
				"y": 1.1015454939,
				"z": 0.616164904,
				"element": "C" 
			},
			{
				"x": -1.3504636903,
				"y": 1.5836873121,
				"z": 1.4234426516,
				"element": "O" 
			},
			{
				"x": 0.9032382372,
				"y": 1.5487398177,
				"z": 0.5806012016,
				"element": "C" 
			},
			{
				"x": 1.3709511466,
				"y": 2.0453909137,
				"z": 1.936135572,
				"element": "C" 
			},
			{
				"x": 1.0282681195,
				"y": 2.894438769,
				"z": -0.6654058403,
				"element": "Cl" 
			},
			{
				"x": 2.357544649,
				"y": -2.7848593533,
				"z": 1.1643828552,
				"element": "H" 
			},
			{
				"x": 1.0074751909,
				"y": -3.9113821263,
				"z": 0.8362777889,
				"element": "H" 
			},
			{
				"x": 1.0205883824,
				"y": -2.9441968858,
				"z": 2.3355306088,
				"element": "H" 
			},
			{
				"x": -0.5643668144,
				"y": 0.5866906229,
				"z": -2.8925794256,
				"element": "H" 
			},
			{
				"x": 0.8935080155,
				"y": -0.7424712278,
				"z": -4.4237417029,
				"element": "H" 
			},
			{
				"x": 2.2113651635,
				"y": -2.6443528042,
				"z": -3.5030648281,
				"element": "H" 
			},
			{
				"x": 2.0787148227,
				"y": -3.2155174678,
				"z": -1.1149660429,
				"element": "H" 
			},
			{
				"x": -2.9779095848,
				"y": 0.7325178234,
				"z": -0.2158884477,
				"element": "H" 
			},
			{
				"x": -2.6221546138,
				"y": -0.6424504959,
				"z": -1.2832470821,
				"element": "H" 
			},
			{
				"x": -2.1132474936,
				"y": -2.03126645,
				"z": 0.8079221199,
				"element": "H" 
			},
			{
				"x": -2.5914517254,
				"y": -0.6376282964,
				"z": 1.7853793425,
				"element": "H" 
			},
			{
				"x": 1.551426424,
				"y": 0.7643822611,
				"z": 0.1940823947,
				"element": "H" 
			},
			{
				"x": 1.3577661214,
				"y": 1.2111911991,
				"z": 2.646332887,
				"element": "H" 
			},
			{
				"x": 0.6989431301,
				"y": 2.8193526216,
				"z": 2.3088333854,
				"element": "H" 
			},
			{
				"x": 2.3886373432,
				"y": 2.4360594078,
				"z": 1.8715093478,
				"element": "H" 
			}
		],
		 "valence_orbital": [ 
			{
				"type": "occ",
				"energy": -0.30055,
				"method": "rhf"
			},
			{
				"type": "occ",
				"energy": -0.28341,
				"method": "rhf"
			},
			{
				"type": "occ",
				"energy": -0.26248,
				"method": "rhf"
			},
			{
				"type": "occ",
				"energy": -0.26006,
				"method": "rhf"
			},
			{
				"type": "occ",
				"energy": -0.24357,
				"method": "rhf"
			},
			{
				"type": "unocc",
				"energy": -0.03304,
				"method": "rhf"
			},
			{
				"type": "unocc",
				"energy": -0.02286,
				"method": "rhf"
			},
			{
				"type": "unocc",
				"energy": -0.01359,
				"method": "rhf"
			},
			{
				"type": "unocc",
				"energy": 0.03689,
				"method": "rhf"
			},
			{
				"type": "unocc",
				"energy": 0.04487,
				"method": "rhf"
			}
		],
		"cosmo_sigma_profile": { 
			"-0.025": 0.0,
			"-0.024": 0.0,
			"-0.023": 0.0,
			"-0.022": 0.0,
			"-0.021": 0.0,
			"-0.02": 0.0,
			"-0.019": 0.0,
			"-0.018": 0.0,
			"-0.017": 0.0,
			"-0.016": 0.0,
			"-0.015": 0.0,
			"-0.014": 0.0,
			"-0.013": 0.0,
			"-0.012": 0.0,
			"-0.011": 0.0,
			"-0.01": 0.0,
			"-0.009": 0.0,
			"-0.008": 0.950282641862,
			"-0.007": 9.72295056879,
			"-0.006": 23.2552683829,
			"-0.005": 31.8008366488,
			"-0.004": 33.1446424258,
			"-0.003": 27.368896903,
			"-0.002": 19.1998071491,
			"-0.001": 21.0164677558,
			"0.0": 17.804178193,
			"0.001": 15.4707463505,
			"0.002": 15.8202024364,
			"0.003": 16.847019426,
			"0.004": 18.6136692887,
			"0.005": 16.4754677687,
			"0.006": 10.7082446256,
			"0.007": 4.38478312776,
			"0.008": 4.34801972716,
			"0.009": 5.34542661523,
			"0.01": 4.23196253783,
			"0.011": 5.23534234458,
			"0.012": 5.47962533902,
			"0.013": 3.83093794036,
			"0.014": 0.259473195,
			"0.015": 0.0,
			"0.016": 0.0,
			"0.017": 0.0,
			"0.018": 0.0,
			"0.019": 0.0,
			"0.02": 0.0,
			"0.021": 0.0,
			"0.022": 0.0,
			"0.023": 0.0,
			"0.024": 0.0,
			"0.025": 0.0
		}
	}
}
