{
	 "smiles": "[O-][N+](=O)C1=CC(=C(SC#N)C=C1)[N+]([O-])=O", 
	 "Tm": 412.15, 
	 "num_atms": 18, 
	 "gaussian": { 
		 "optdone": 1, 
		 "sigma_profile": "yes", 
		 "theory": "DFT", 
		 "functional": "B3LYP", 
		 "basiset": "6-31G**", 
		 "properties": { 
			 "R2extent": 4332.9139, 
			 "electric_dipole_moment_norm": 4.43278823541, 
			 "electric_quadrupole_moment_norm": 19.6993264504, 
			 "total_energy": -1131.62982547, 
			 "HOMO_LUMO_gap": 0.15281, 
			 "cosmo_polarized_energy": -17.14, 
			 "cosmo_cavitation_energy": 27.83, 
			 "cosmo_dispersion_energy": -19.76, 
			 "cosmo_repulsion_energy": 1.5, 
			 "cosmo_total_nonelectrostatic_energy": 9.57, 
			 "SMD_solvation_energy": 10.73 
		},
		"coords": [
			{
				"x": 0.6498989548,
				"y": 1.7162983945,
				"z": -3.0150367402,
				"element": "O" 
			},
			{
				"x": 1.2108829975,
				"y": 0.8426331862,
				"z": -2.3613313377,
				"element": "N" 
			},
			{
				"x": 2.0196083413,
				"y": 0.0285441587,
				"z": -2.7981949384,
				"element": "O" 
			},
			{
				"x": 0.887179926,
				"y": 0.7615283907,
				"z": -0.9208107593,
				"element": "C" 
			},
			{
				"x": -0.0067763833,
				"y": 1.6792575602,
				"z": -0.3862902783,
				"element": "C" 
			},
			{
				"x": -0.3207012116,
				"y": 1.5902688773,
				"z": 0.9661956357,
				"element": "C" 
			},
			{
				"x": 0.2586044831,
				"y": 0.6034695165,
				"z": 1.7860055224,
				"element": "C" 
			},
			{
				"x": 0.050274378,
				"y": 0.482816019,
				"z": 3.5781557799,
				"element": "S" 
			},
			{
				"x": -1.4546636918,
				"y": -0.3112554679,
				"z": 3.6804158366,
				"element": "C" 
			},
			{
				"x": -2.4575633447,
				"y": -0.8856245164,
				"z": 3.8279967134,
				"element": "N" 
			},
			{
				"x": 1.1769610421,
				"y": -0.2842877159,
				"z": 1.2103555959,
				"element": "C" 
			},
			{
				"x": 1.4923885689,
				"y": -0.2205056755,
				"z": -0.1450527568,
				"element": "C" 
			},
			{
				"x": -1.2827610634,
				"y": 2.5954757443,
				"z": 1.469946845,
				"element": "N" 
			},
			{
				"x": -1.3185585612,
				"y": 3.6669098829,
				"z": 0.8708183842,
				"element": "O" 
			},
			{
				"x": -1.9809473714,
				"y": 2.288944806,
				"z": 2.4293800089,
				"element": "O" 
			},
			{
				"x": -0.447699157,
				"y": 2.4512960645,
				"z": -1.0026784667,
				"element": "H" 
			},
			{
				"x": 1.6403723417,
				"y": -1.0368030652,
				"z": 1.8380995402,
				"element": "H" 
			},
			{
				"x": 2.189699751,
				"y": -0.9123661599,
				"z": -0.6006745849,
				"element": "H" 
			}
		],
		 "valence_orbital": [ 
			{
				"type": "occ",
				"energy": -0.33545,
				"method": "rhf"
			},
			{
				"type": "occ",
				"energy": -0.32933,
				"method": "rhf"
			},
			{
				"type": "occ",
				"energy": -0.32492,
				"method": "rhf"
			},
			{
				"type": "occ",
				"energy": -0.31616,
				"method": "rhf"
			},
			{
				"type": "occ",
				"energy": -0.28676,
				"method": "rhf"
			},
			{
				"type": "unocc",
				"energy": -0.13395,
				"method": "rhf"
			},
			{
				"type": "unocc",
				"energy": -0.11616,
				"method": "rhf"
			},
			{
				"type": "unocc",
				"energy": -0.06179,
				"method": "rhf"
			},
			{
				"type": "unocc",
				"energy": -0.05213,
				"method": "rhf"
			},
			{
				"type": "unocc",
				"energy": -0.04155,
				"method": "rhf"
			}
		],
		"cosmo_sigma_profile": { 
			"-0.025": 0.0,
			"-0.024": 0.0,
			"-0.023": 0.0,
			"-0.022": 0.0,
			"-0.021": 0.0,
			"-0.02": 0.0,
			"-0.019": 0.0,
			"-0.018": 0.0,
			"-0.017": 0.0,
			"-0.016": 0.0,
			"-0.015": 0.0,
			"-0.014": 0.0,
			"-0.013": 0.0,
			"-0.012": 0.0,
			"-0.011": 0.112429615365,
			"-0.01": 4.46090226919,
			"-0.009": 7.20079880199,
			"-0.008": 9.47802338778,
			"-0.007": 10.5805998312,
			"-0.006": 12.3690343849,
			"-0.005": 16.4060645651,
			"-0.004": 20.6620931088,
			"-0.003": 15.7048348979,
			"-0.002": 12.6967825785,
			"-0.001": 9.80357927454,
			"0.0": 7.95393739515,
			"0.001": 8.1044129734,
			"0.002": 6.35809072302,
			"0.003": 6.73001572858,
			"0.004": 10.0209902395,
			"0.005": 10.7529112703,
			"0.006": 18.9380420282,
			"0.007": 16.3131434546,
			"0.008": 11.1811133632,
			"0.009": 6.27942872383,
			"0.01": 2.66174040752,
			"0.011": 2.53188481694,
			"0.012": 1.19341859011,
			"0.013": 0.00145042443552,
			"0.014": 0.0,
			"0.015": 0.0,
			"0.016": 0.0,
			"0.017": 0.0,
			"0.018": 0.0,
			"0.019": 0.0,
			"0.02": 0.0,
			"0.021": 0.0,
			"0.022": 0.0,
			"0.023": 0.0,
			"0.024": 0.0,
			"0.025": 0.0
		}
	}
}
