{
	 "smiles": "CC(C)NS(=O)(=O)CC1=CC=C(C=C1)C#N", 
	 "Tm": 432.15, 
	 "num_atms": 30, 
	 "gaussian": { 
		 "optdone": 1, 
		 "sigma_profile": "yes", 
		 "theory": "DFT", 
		 "functional": "B3LYP", 
		 "basiset": "6-31G**", 
		 "properties": { 
			 "R2extent": 4834.1738, 
			 "electric_dipole_moment_norm": 3.08062989338, 
			 "electric_quadrupole_moment_norm": 31.0657036273, 
			 "total_energy": -1085.67947746, 
			 "HOMO_LUMO_gap": 0.20153, 
			 "cosmo_polarized_energy": -19.02, 
			 "cosmo_cavitation_energy": 36.0, 
			 "cosmo_dispersion_energy": -23.93, 
			 "cosmo_repulsion_energy": 1.83, 
			 "cosmo_total_nonelectrostatic_energy": 13.91, 
			 "SMD_solvation_energy": 6.47 
		},
		"coords": [
			{
				"x": -2.712322896,
				"y": -2.0890795857,
				"z": -0.9011411033,
				"element": "C" 
			},
			{
				"x": -2.2714565083,
				"y": -1.9685763532,
				"z": 0.5604627179,
				"element": "C" 
			},
			{
				"x": -3.3364501754,
				"y": -2.4819724088,
				"z": 1.5361397046,
				"element": "C" 
			},
			{
				"x": -0.9749637901,
				"y": -2.6802855601,
				"z": 0.7082191141,
				"element": "N" 
			},
			{
				"x": 0.0663728216,
				"y": -2.2937489362,
				"z": 1.9742422258,
				"element": "S" 
			},
			{
				"x": 0.578669527,
				"y": -3.5606992744,
				"z": 2.5082963958,
				"element": "O" 
			},
			{
				"x": -0.5529389751,
				"y": -1.2851581665,
				"z": 2.8431785516,
				"element": "O" 
			},
			{
				"x": 1.4724834963,
				"y": -1.4837860641,
				"z": 1.1244222669,
				"element": "C" 
			},
			{
				"x": 1.0983616958,
				"y": -0.2478826861,
				"z": 0.3566591222,
				"element": "C" 
			},
			{
				"x": 0.9929106933,
				"y": -0.2868680506,
				"z": -1.0408765735,
				"element": "C" 
			},
			{
				"x": 0.6495393477,
				"y": 0.8522104984,
				"z": -1.76241801,
				"element": "C" 
			},
			{
				"x": 0.3973314387,
				"y": 2.0565204203,
				"z": -1.0850232531,
				"element": "C" 
			},
			{
				"x": 0.4942446517,
				"y": 2.1029004921,
				"z": 0.3163817423,
				"element": "C" 
			},
			{
				"x": 0.8425206772,
				"y": 0.9588240955,
				"z": 1.0257330653,
				"element": "C" 
			},
			{
				"x": 0.0436909723,
				"y": 3.2347406107,
				"z": -1.8222474838,
				"element": "C" 
			},
			{
				"x": -0.2446610218,
				"y": 4.1891328274,
				"z": -2.4215621117,
				"element": "N" 
			},
			{
				"x": -1.9501845045,
				"y": -1.6861102369,
				"z": -1.5728312769,
				"element": "H" 
			},
			{
				"x": -3.6451423441,
				"y": -1.5397340494,
				"z": -1.0612974508,
				"element": "H" 
			},
			{
				"x": -2.8927329558,
				"y": -3.1358641681,
				"z": -1.173008804,
				"element": "H" 
			},
			{
				"x": -2.0641491411,
				"y": -0.9185973917,
				"z": 0.7841290726,
				"element": "H" 
			},
			{
				"x": -3.5421526352,
				"y": -3.5456542525,
				"z": 1.3639236051,
				"element": "H" 
			},
			{
				"x": -4.275524287,
				"y": -1.93542826,
				"z": 1.4004418323,
				"element": "H" 
			},
			{
				"x": -3.0088239751,
				"y": -2.3506005136,
				"z": 2.5698046607,
				"element": "H" 
			},
			{
				"x": -1.0604898925,
				"y": -3.6944130505,
				"z": 0.6828868696,
				"element": "H" 
			},
			{
				"x": 2.1681488128,
				"y": -1.2693306084,
				"z": 1.9411755219,
				"element": "H" 
			},
			{
				"x": 1.9083144806,
				"y": -2.2552296392,
				"z": 0.486874206,
				"element": "H" 
			},
			{
				"x": 1.1862016387,
				"y": -1.2167311285,
				"z": -1.5672598456,
				"element": "H" 
			},
			{
				"x": 0.5770563498,
				"y": 0.8187341595,
				"z": -2.8442123725,
				"element": "H" 
			},
			{
				"x": 0.2981077319,
				"y": 3.0339599244,
				"z": 0.837155306,
				"element": "H" 
			},
			{
				"x": 0.9032387666,
				"y": 0.9935273563,
				"z": 2.1084523047,
				"element": "H" 
			}
		],
		 "valence_orbital": [ 
			{
				"type": "occ",
				"energy": -0.3162,
				"method": "rhf"
			},
			{
				"type": "occ",
				"energy": -0.30837,
				"method": "rhf"
			},
			{
				"type": "occ",
				"energy": -0.28587,
				"method": "rhf"
			},
			{
				"type": "occ",
				"energy": -0.27749,
				"method": "rhf"
			},
			{
				"type": "occ",
				"energy": -0.26754,
				"method": "rhf"
			},
			{
				"type": "unocc",
				"energy": -0.06601,
				"method": "rhf"
			},
			{
				"type": "unocc",
				"energy": -0.03386,
				"method": "rhf"
			},
			{
				"type": "unocc",
				"energy": 0.03077,
				"method": "rhf"
			},
			{
				"type": "unocc",
				"energy": 0.04458,
				"method": "rhf"
			},
			{
				"type": "unocc",
				"energy": 0.05197,
				"method": "rhf"
			}
		],
		"cosmo_sigma_profile": { 
			"-0.025": 0.0,
			"-0.024": 0.0,
			"-0.023": 0.0,
			"-0.022": 0.0,
			"-0.021": 0.0,
			"-0.02": 0.0,
			"-0.019": 0.0,
			"-0.018": 0.0,
			"-0.017": 0.0,
			"-0.016": 0.0,
			"-0.015": 0.0,
			"-0.014": 0.434077158801,
			"-0.013": 0.831473671502,
			"-0.012": 0.60325459632,
			"-0.011": 1.16509944769,
			"-0.01": 1.45631593783,
			"-0.009": 5.59111633188,
			"-0.008": 10.5694866073,
			"-0.007": 13.1547848514,
			"-0.006": 13.7217940614,
			"-0.005": 11.8146242006,
			"-0.004": 18.3655381751,
			"-0.003": 20.6524149217,
			"-0.002": 23.4718445769,
			"-0.001": 25.6299347319,
			"0.0": 28.239386757,
			"0.001": 25.3724143046,
			"0.002": 13.3809871565,
			"0.003": 6.19479852625,
			"0.004": 5.68705477795,
			"0.005": 5.45143751108,
			"0.006": 6.05607311566,
			"0.007": 5.89124577127,
			"0.008": 6.78356693947,
			"0.009": 6.51584233671,
			"0.01": 9.030273678,
			"0.011": 11.7164009688,
			"0.012": 6.48347719817,
			"0.013": 1.37420969751,
			"0.014": 0.0354605055339,
			"0.015": 0.0,
			"0.016": 0.0,
			"0.017": 0.0,
			"0.018": 0.0,
			"0.019": 0.0,
			"0.02": 0.0,
			"0.021": 0.0,
			"0.022": 0.0,
			"0.023": 0.0,
			"0.024": 0.0,
			"0.025": 0.0
		}
	}
}
