{
	 "smiles": "ClCCCC1=CC=CC=C1", 
	 "Tm": 246.15, 
	 "num_atms": 21, 
	 "gaussian": { 
		 "optdone": 1, 
		 "sigma_profile": "yes", 
		 "theory": "DFT", 
		 "functional": "B3LYP", 
		 "basiset": "6-31G**", 
		 "properties": { 
			 "R2extent": 3297.6155, 
			 "electric_dipole_moment_norm": 2.27490441777, 
			 "electric_quadrupole_moment_norm": 14.7058216265, 
			 "total_energy": -809.79491133, 
			 "HOMO_LUMO_gap": 0.23986, 
			 "cosmo_polarized_energy": -6.35, 
			 "cosmo_cavitation_energy": 25.99, 
			 "cosmo_dispersion_energy": -18.93, 
			 "cosmo_repulsion_energy": 1.57, 
			 "cosmo_total_nonelectrostatic_energy": 8.63, 
			 "SMD_solvation_energy": 3.72 
		},
		"coords": [
			{
				"x": -2.2235032206,
				"y": 0.6142454189,
				"z": 4.8127318655,
				"element": "Cl" 
			},
			{
				"x": -1.8853713207,
				"y": -0.4873820804,
				"z": 3.40546555,
				"element": "C" 
			},
			{
				"x": -1.1895527697,
				"y": 0.2464130147,
				"z": 2.2671222457,
				"element": "C" 
			},
			{
				"x": -0.9068950151,
				"y": -0.6981508778,
				"z": 1.0782465808,
				"element": "C" 
			},
			{
				"x": -0.2145417329,
				"y": 0.0078384615,
				"z": -0.0686677495,
				"element": "C" 
			},
			{
				"x": 1.1837817256,
				"y": 0.0810256992,
				"z": -0.1265790811,
				"element": "C" 
			},
			{
				"x": 1.8235537476,
				"y": 0.7624059142,
				"z": -1.1627093868,
				"element": "C" 
			},
			{
				"x": 1.0718129318,
				"y": 1.3833873288,
				"z": -2.161894441,
				"element": "C" 
			},
			{
				"x": -0.3219734253,
				"y": 1.3168656324,
				"z": -2.1168411284,
				"element": "C" 
			},
			{
				"x": -0.9571603558,
				"y": 0.634328713,
				"z": -1.0786388179,
				"element": "C" 
			},
			{
				"x": -1.2729905706,
				"y": -1.301832869,
				"z": 3.7981064492,
				"element": "H" 
			},
			{
				"x": -2.8519873424,
				"y": -0.8914769098,
				"z": 3.097467254,
				"element": "H" 
			},
			{
				"x": -0.2496215896,
				"y": 0.677054265,
				"z": 2.6287291887,
				"element": "H" 
			},
			{
				"x": -1.8134088291,
				"y": 1.0829838228,
				"z": 1.9345016219,
				"element": "H" 
			},
			{
				"x": -1.8526869057,
				"y": -1.1300283046,
				"z": 0.7277816288,
				"element": "H" 
			},
			{
				"x": -0.2877365211,
				"y": -1.5360045535,
				"z": 1.4225195165,
				"element": "H" 
			},
			{
				"x": 1.7761091042,
				"y": -0.4046946193,
				"z": 0.645724623,
				"element": "H" 
			},
			{
				"x": 2.9088022453,
				"y": 0.804399965,
				"z": -1.1916844035,
				"element": "H" 
			},
			{
				"x": 1.5680499985,
				"y": 1.9116132576,
				"z": -2.9708461322,
				"element": "H" 
			},
			{
				"x": -0.9156060016,
				"y": 1.7927093298,
				"z": -2.8924309396,
				"element": "H" 
			},
			{
				"x": -2.0433741528,
				"y": 0.5823993915,
				"z": -1.0528044441,
				"element": "H" 
			}
		],
		 "valence_orbital": [ 
			{
				"type": "occ",
				"energy": -0.3373,
				"method": "rhf"
			},
			{
				"type": "occ",
				"energy": -0.29295,
				"method": "rhf"
			},
			{
				"type": "occ",
				"energy": -0.29173,
				"method": "rhf"
			},
			{
				"type": "occ",
				"energy": -0.25125,
				"method": "rhf"
			},
			{
				"type": "occ",
				"energy": -0.24357,
				"method": "rhf"
			},
			{
				"type": "unocc",
				"energy": -0.00371,
				"method": "rhf"
			},
			{
				"type": "unocc",
				"energy": -0.00293,
				"method": "rhf"
			},
			{
				"type": "unocc",
				"energy": 0.02721,
				"method": "rhf"
			},
			{
				"type": "unocc",
				"energy": 0.0822,
				"method": "rhf"
			},
			{
				"type": "unocc",
				"energy": 0.10227,
				"method": "rhf"
			}
		],
		"cosmo_sigma_profile": { 
			"-0.025": 0.0,
			"-0.024": 0.0,
			"-0.023": 0.0,
			"-0.022": 0.0,
			"-0.021": 0.0,
			"-0.02": 0.0,
			"-0.019": 0.0,
			"-0.018": 0.0,
			"-0.017": 0.0,
			"-0.016": 0.0,
			"-0.015": 0.0,
			"-0.014": 0.0,
			"-0.013": 0.0,
			"-0.012": 0.0,
			"-0.011": 0.0,
			"-0.01": 0.0,
			"-0.009": 0.0,
			"-0.008": 0.0,
			"-0.007": 1.3202402211,
			"-0.006": 6.84685503501,
			"-0.005": 17.0267164575,
			"-0.004": 25.2341343981,
			"-0.003": 27.1724737239,
			"-0.002": 15.4679572468,
			"-0.001": 14.1627276863,
			"0.0": 12.5804504728,
			"0.001": 12.0982448206,
			"0.002": 11.6118437335,
			"0.003": 10.6044168222,
			"0.004": 11.9425928145,
			"0.005": 12.9224562878,
			"0.006": 16.1405736145,
			"0.007": 12.0273151286,
			"0.008": 0.22954049076,
			"0.009": 0.0,
			"0.01": 0.0,
			"0.011": 0.0,
			"0.012": 0.0,
			"0.013": 0.0,
			"0.014": 0.0,
			"0.015": 0.0,
			"0.016": 0.0,
			"0.017": 0.0,
			"0.018": 0.0,
			"0.019": 0.0,
			"0.02": 0.0,
			"0.021": 0.0,
			"0.022": 0.0,
			"0.023": 0.0,
			"0.024": 0.0,
			"0.025": 0.0
		}
	}
}
