{
	 "smiles": "CCOP(=S)(OCC)OC1=CC=C(C=C1)[N+]([O-])=O", 
	 "Tm": 279.25, 
	 "num_atms": 32, 
	 "gaussian": { 
		 "optdone": 1, 
		 "sigma_profile": "yes", 
		 "theory": "DFT", 
		 "functional": "B3LYP", 
		 "basiset": "6-31G**", 
		 "properties": { 
			 "R2extent": 7520.093, 
			 "electric_dipole_moment_norm": 4.60923038478, 
			 "electric_quadrupole_moment_norm": 34.3690300471, 
			 "total_energy": -1559.88588751, 
			 "HOMO_LUMO_gap": 0.1636, 
			 "cosmo_polarized_energy": -14.04, 
			 "cosmo_cavitation_energy": 40.42, 
			 "cosmo_dispersion_energy": -27.74, 
			 "cosmo_repulsion_energy": 2.16, 
			 "cosmo_total_nonelectrostatic_energy": 14.84, 
			 "SMD_solvation_energy": 9.54 
		},
		"coords": [
			{
				"x": 1.6316415274,
				"y": -1.5760459299,
				"z": -3.4708641538,
				"element": "C" 
			},
			{
				"x": 0.2846366802,
				"y": -1.3905737842,
				"z": -2.8011763882,
				"element": "C" 
			},
			{
				"x": 0.3904913149,
				"y": -0.2471772544,
				"z": -1.9074443051,
				"element": "O" 
			},
			{
				"x": -0.9006885207,
				"y": 0.3163670745,
				"z": -1.1391723745,
				"element": "P" 
			},
			{
				"x": -2.46515658,
				"y": 0.8263257382,
				"z": -2.1455124069,
				"element": "S" 
			},
			{
				"x": -1.0970434263,
				"y": -0.8317927088,
				"z": -0.0139446989,
				"element": "O" 
			},
			{
				"x": -2.2717733012,
				"y": -0.8627093615,
				"z": 0.8441999745,
				"element": "C" 
			},
			{
				"x": -2.2428975204,
				"y": -2.1646129402,
				"z": 1.6206216236,
				"element": "C" 
			},
			{
				"x": -0.2413936674,
				"y": 1.591999788,
				"z": -0.3588747005,
				"element": "O" 
			},
			{
				"x": 0.9779604711,
				"y": 1.666957245,
				"z": 0.2901827115,
				"element": "C" 
			},
			{
				"x": 1.6048944769,
				"y": 0.5714565094,
				"z": 0.8946791499,
				"element": "C" 
			},
			{
				"x": 2.8127111549,
				"y": 0.7637671226,
				"z": 1.5575529395,
				"element": "C" 
			},
			{
				"x": 3.367969961,
				"y": 2.040901809,
				"z": 1.612579368,
				"element": "C" 
			},
			{
				"x": 2.7443364753,
				"y": 3.1383823781,
				"z": 1.0189606576,
				"element": "C" 
			},
			{
				"x": 1.5407710374,
				"y": 2.9463815926,
				"z": 0.3529901134,
				"element": "C" 
			},
			{
				"x": 4.6407416864,
				"y": 2.2359120283,
				"z": 2.3153589495,
				"element": "N" 
			},
			{
				"x": 5.1689641141,
				"y": 1.2479843658,
				"z": 2.8269601332,
				"element": "O" 
			},
			{
				"x": 5.1046337966,
				"y": 3.3758121836,
				"z": 2.3517544341,
				"element": "O" 
			},
			{
				"x": 1.9005820663,
				"y": -0.6891539921,
				"z": -4.0506559676,
				"element": "H" 
			},
			{
				"x": 2.4148610528,
				"y": -1.7591115465,
				"z": -2.7301849885,
				"element": "H" 
			},
			{
				"x": 1.588709793,
				"y": -2.4340824494,
				"z": -4.1490362935,
				"element": "H" 
			},
			{
				"x": 0.0032451581,
				"y": -2.2664162147,
				"z": -2.2071961076,
				"element": "H" 
			},
			{
				"x": -0.5059233593,
				"y": -1.1895308836,
				"z": -3.5310709427,
				"element": "H" 
			},
			{
				"x": -2.2358265408,
				"y": 0.004876488,
				"z": 1.512226611,
				"element": "H" 
			},
			{
				"x": -3.1641165147,
				"y": -0.7818539369,
				"z": 0.2166643488,
				"element": "H" 
			},
			{
				"x": -3.1160420584,
				"y": -2.2182082348,
				"z": 2.2783342504,
				"element": "H" 
			},
			{
				"x": -2.2694074541,
				"y": -3.0214969627,
				"z": 0.941762535,
				"element": "H" 
			},
			{
				"x": -1.3429030887,
				"y": -2.236382246,
				"z": 2.2378281191,
				"element": "H" 
			},
			{
				"x": 1.1539917414,
				"y": -0.4113079008,
				"z": 0.8499003273,
				"element": "H" 
			},
			{
				"x": 3.3284545292,
				"y": -0.0591995623,
				"z": 2.0362176063,
				"element": "H" 
			},
			{
				"x": 3.2070558721,
				"y": 4.1149843722,
				"z": 1.0839636106,
				"element": "H" 
			},
			{
				"x": 1.023319123,
				"y": 3.7703472136,
				"z": -0.1250041357,
				"element": "H" 
			}
		],
		 "valence_orbital": [ 
			{
				"type": "occ",
				"energy": -0.28979,
				"method": "rhf"
			},
			{
				"type": "occ",
				"energy": -0.28371,
				"method": "rhf"
			},
			{
				"type": "occ",
				"energy": -0.26994,
				"method": "rhf"
			},
			{
				"type": "occ",
				"energy": -0.25691,
				"method": "rhf"
			},
			{
				"type": "occ",
				"energy": -0.25148,
				"method": "rhf"
			},
			{
				"type": "unocc",
				"energy": -0.08788,
				"method": "rhf"
			},
			{
				"type": "unocc",
				"energy": -0.03255,
				"method": "rhf"
			},
			{
				"type": "unocc",
				"energy": -0.00014,
				"method": "rhf"
			},
			{
				"type": "unocc",
				"energy": 0.02731,
				"method": "rhf"
			},
			{
				"type": "unocc",
				"energy": 0.03771,
				"method": "rhf"
			}
		],
		"cosmo_sigma_profile": { 
			"-0.025": 0.0,
			"-0.024": 0.0,
			"-0.023": 0.0,
			"-0.022": 0.0,
			"-0.021": 0.0,
			"-0.02": 0.0,
			"-0.019": 0.0,
			"-0.018": 0.0,
			"-0.017": 0.0,
			"-0.016": 0.0,
			"-0.015": 0.0,
			"-0.014": 0.0,
			"-0.013": 0.0,
			"-0.012": 0.0,
			"-0.011": 0.0,
			"-0.01": 0.0,
			"-0.009": 0.174704125894,
			"-0.008": 3.76784140085,
			"-0.007": 6.28481291657,
			"-0.006": 11.9885841443,
			"-0.005": 24.0470828441,
			"-0.004": 33.2262902371,
			"-0.003": 28.3010135741,
			"-0.002": 28.3591218987,
			"-0.001": 31.5203645822,
			"0.0": 34.2994128119,
			"0.001": 22.8057390322,
			"0.002": 13.813068284,
			"0.003": 10.3197231137,
			"0.004": 8.57596701472,
			"0.005": 10.3833020105,
			"0.006": 12.6415427578,
			"0.007": 15.6119301887,
			"0.008": 14.443275734,
			"0.009": 8.70473019268,
			"0.01": 2.92286255466,
			"0.011": 0.232811830235,
			"0.012": 0.0,
			"0.013": 0.0,
			"0.014": 0.0,
			"0.015": 0.0,
			"0.016": 0.0,
			"0.017": 0.0,
			"0.018": 0.0,
			"0.019": 0.0,
			"0.02": 0.0,
			"0.021": 0.0,
			"0.022": 0.0,
			"0.023": 0.0,
			"0.024": 0.0,
			"0.025": 0.0
		}
	}
}
