{
	 "smiles": "CC1=NC(=NCC(O)=O)C2=C(N1)SC(=C2)C1=CC=CC=C1", 
	 "Tm": 531.15, 
	 "num_atms": 34, 
	 "gaussian": { 
		 "optdone": 1, 
		 "sigma_profile": "yes", 
		 "theory": "DFT", 
		 "functional": "B3LYP", 
		 "basiset": "6-31G**", 
		 "properties": { 
			 "R2extent": 9215.4927, 
			 "electric_dipole_moment_norm": 11.1491763054, 
			 "electric_quadrupole_moment_norm": 47.8156741867, 
			 "total_energy": -1292.33456556, 
			 "HOMO_LUMO_gap": 0.1518, 
			 "cosmo_polarized_energy": -25.26, 
			 "cosmo_cavitation_energy": 40.72, 
			 "cosmo_dispersion_energy": -29.9, 
			 "cosmo_repulsion_energy": 2.25, 
			 "cosmo_total_nonelectrostatic_energy": 13.08, 
			 "SMD_solvation_energy": 5.06 
		},
		"coords": [
			{
				"x": 4.2351730458,
				"y": -0.7287643826,
				"z": 0.2876969834,
				"element": "C" 
			},
			{
				"x": 2.7544585084,
				"y": -0.4673723241,
				"z": 0.3347156261,
				"element": "C" 
			},
			{
				"x": 2.013642755,
				"y": -1.0335609099,
				"z": 1.2324282866,
				"element": "N" 
			},
			{
				"x": 0.6285846204,
				"y": -0.7961332356,
				"z": 1.2886495867,
				"element": "C" 
			},
			{
				"x": -0.1242662066,
				"y": -1.3509461128,
				"z": 2.1745480729,
				"element": "N" 
			},
			{
				"x": 0.4620534957,
				"y": -2.2524309118,
				"z": 3.1518047463,
				"element": "C" 
			},
			{
				"x": -0.6272569271,
				"y": -2.7681759862,
				"z": 4.1000707812,
				"element": "C" 
			},
			{
				"x": -1.8531725745,
				"y": -2.2921525934,
				"z": 3.8275795431,
				"element": "O" 
			},
			{
				"x": -0.399108606,
				"y": -3.5332266631,
				"z": 5.0084503358,
				"element": "O" 
			},
			{
				"x": 0.0680740721,
				"y": 0.11633818,
				"z": 0.292559343,
				"element": "C" 
			},
			{
				"x": 0.9176453316,
				"y": 0.6797883179,
				"z": -0.6330623759,
				"element": "C" 
			},
			{
				"x": 2.2672187766,
				"y": 0.3970899674,
				"z": -0.6256222292,
				"element": "N" 
			},
			{
				"x": 0.105676108,
				"y": 1.7345407725,
				"z": -1.747071684,
				"element": "S" 
			},
			{
				"x": -1.4503030917,
				"y": 1.402058918,
				"z": -0.9529873092,
				"element": "C" 
			},
			{
				"x": -1.2826484399,
				"y": 0.5376289809,
				"z": 0.0961965663,
				"element": "C" 
			},
			{
				"x": -2.6776416393,
				"y": 2.0409711818,
				"z": -1.4404039038,
				"element": "C" 
			},
			{
				"x": -2.8270313473,
				"y": 2.4270903798,
				"z": -2.7844449963,
				"element": "C" 
			},
			{
				"x": -4.0052334655,
				"y": 3.0244459187,
				"z": -3.2277147845,
				"element": "C" 
			},
			{
				"x": -5.0622509235,
				"y": 3.2395274864,
				"z": -2.3416881313,
				"element": "C" 
			},
			{
				"x": -4.9272516414,
				"y": 2.8588778488,
				"z": -1.0043523588,
				"element": "C" 
			},
			{
				"x": -3.7464944226,
				"y": 2.2740094677,
				"z": -0.5544553053,
				"element": "C" 
			},
			{
				"x": 4.5275430477,
				"y": -1.1653187275,
				"z": -0.6741960907,
				"element": "H" 
			},
			{
				"x": 4.8029133357,
				"y": 0.1990588165,
				"z": 0.4223690046,
				"element": "H" 
			},
			{
				"x": 4.493990026,
				"y": -1.4225269702,
				"z": 1.086094209,
				"element": "H" 
			},
			{
				"x": 0.9448392784,
				"y": -3.1222062868,
				"z": 2.6874775889,
				"element": "H" 
			},
			{
				"x": 1.2390352916,
				"y": -1.7706833726,
				"z": 3.7593950424,
				"element": "H" 
			},
			{
				"x": -1.7186201194,
				"y": -1.7049577707,
				"z": 3.0464318784,
				"element": "H" 
			},
			{
				"x": 2.8928330954,
				"y": 0.8102650433,
				"z": -1.3015860009,
				"element": "H" 
			},
			{
				"x": -2.1000085352,
				"y": 0.1779105916,
				"z": 0.7075644782,
				"element": "H" 
			},
			{
				"x": -2.0246705705,
				"y": 2.2382051691,
				"z": -3.4924622396,
				"element": "H" 
			},
			{
				"x": -4.1004353097,
				"y": 3.3126687406,
				"z": -4.2705152263,
				"element": "H" 
			},
			{
				"x": -5.9814041731,
				"y": 3.7019051474,
				"z": -2.688597125,
				"element": "H" 
			},
			{
				"x": -5.7398727192,
				"y": 3.0300431148,
				"z": -0.3044163749,
				"element": "H" 
			},
			{
				"x": -3.6393100759,
				"y": 2.0123322044,
				"z": 0.4934440628,
				"element": "H" 
			}
		],
		 "valence_orbital": [ 
			{
				"type": "occ",
				"energy": -0.27153,
				"method": "rhf"
			},
			{
				"type": "occ",
				"energy": -0.26463,
				"method": "rhf"
			},
			{
				"type": "occ",
				"energy": -0.2513,
				"method": "rhf"
			},
			{
				"type": "occ",
				"energy": -0.23276,
				"method": "rhf"
			},
			{
				"type": "occ",
				"energy": -0.21185,
				"method": "rhf"
			},
			{
				"type": "unocc",
				"energy": -0.06005,
				"method": "rhf"
			},
			{
				"type": "unocc",
				"energy": -0.03325,
				"method": "rhf"
			},
			{
				"type": "unocc",
				"energy": -0.02235,
				"method": "rhf"
			},
			{
				"type": "unocc",
				"energy": -0.01528,
				"method": "rhf"
			},
			{
				"type": "unocc",
				"energy": -0.00523,
				"method": "rhf"
			}
		],
		"cosmo_sigma_profile": { 
			"-0.025": 0.0,
			"-0.024": 0.0,
			"-0.023": 0.0,
			"-0.022": 0.0,
			"-0.021": 0.0,
			"-0.02": 0.0,
			"-0.019": 0.0,
			"-0.018": 0.627779221948,
			"-0.017": 1.9666875945,
			"-0.016": 1.59949512024,
			"-0.015": 1.07459922541,
			"-0.014": 1.42779900675,
			"-0.013": 1.57044358554,
			"-0.012": 0.933018150383,
			"-0.011": 1.35657820453,
			"-0.01": 1.38602925439,
			"-0.009": 1.68871735796,
			"-0.008": 3.00078023259,
			"-0.007": 7.05523353683,
			"-0.006": 18.7372800357,
			"-0.005": 21.0505846023,
			"-0.004": 25.1566246487,
			"-0.003": 23.2543366109,
			"-0.002": 25.8400354985,
			"-0.001": 21.9268371022,
			"0.0": 20.3080795996,
			"0.001": 24.0787260899,
			"0.002": 24.9573950337,
			"0.003": 24.1285745398,
			"0.004": 16.4711266532,
			"0.005": 14.9293900411,
			"0.006": 6.97409711849,
			"0.007": 4.21522807036,
			"0.008": 4.27809569781,
			"0.009": 3.92599774282,
			"0.01": 4.71102079523,
			"0.011": 6.21168317521,
			"0.012": 5.82175141565,
			"0.013": 5.50614827653,
			"0.014": 1.95809445992,
			"0.015": 0.0621490832847,
			"0.016": 0.0,
			"0.017": 0.0,
			"0.018": 0.0,
			"0.019": 0.0,
			"0.02": 0.0,
			"0.021": 0.0,
			"0.022": 0.0,
			"0.023": 0.0,
			"0.024": 0.0,
			"0.025": 0.0
		}
	}
}
