{
	 "smiles": "OC(=O)C(NCC(F)(F)F)C1=CC(Br)=CS1", 
	 "Tm": 452.15, 
	 "num_atms": 23, 
	 "gaussian": { 
		 "optdone": 1, 
		 "sigma_profile": "yes", 
		 "theory": "DFT", 
		 "functional": "B3LYP", 
		 "basiset": "6-31G**", 
		 "properties": { 
			 "R2extent": 10458.1702, 
			 "electric_dipole_moment_norm": 3.74670655109, 
			 "electric_quadrupole_moment_norm": 13.2662839318, 
			 "total_energy": -3783.36255626, 
			 "HOMO_LUMO_gap": 0.19975, 
			 "cosmo_polarized_energy": -15.88, 
			 "cosmo_cavitation_energy": 32.95, 
			 "cosmo_dispersion_energy": -23.46, 
			 "cosmo_repulsion_energy": 1.76, 
			 "cosmo_total_nonelectrostatic_energy": 11.26, 
			 "SMD_solvation_energy": 4.73 
		},
		"coords": [
			{
				"x": 3.1385193092,
				"y": 0.8758672914,
				"z": 1.4179340202,
				"element": "O" 
			},
			{
				"x": 1.874313277,
				"y": 0.4613496766,
				"z": 1.1847826554,
				"element": "C" 
			},
			{
				"x": 1.5000887348,
				"y": -0.6303438039,
				"z": 1.5345944337,
				"element": "O" 
			},
			{
				"x": 0.9151796695,
				"y": 1.5021756394,
				"z": 0.5381105734,
				"element": "C" 
			},
			{
				"x": -0.3659423161,
				"y": 0.931831667,
				"z": 0.1382646357,
				"element": "N" 
			},
			{
				"x": -0.3375974926,
				"y": -0.0674696527,
				"z": -0.9237743018,
				"element": "C" 
			},
			{
				"x": -1.7552799837,
				"y": -0.497544448,
				"z": -1.2482714802,
				"element": "C" 
			},
			{
				"x": -2.4995485442,
				"y": 0.506061925,
				"z": -1.7447370553,
				"element": "F" 
			},
			{
				"x": -1.7431284819,
				"y": -1.4918617063,
				"z": -2.1610894376,
				"element": "F" 
			},
			{
				"x": -2.3861499304,
				"y": -0.9624000033,
				"z": -0.14300872,
				"element": "F" 
			},
			{
				"x": 1.5734385431,
				"y": 2.3654554541,
				"z": -0.5171888117,
				"element": "C" 
			},
			{
				"x": 1.5087864976,
				"y": 3.7334143615,
				"z": -0.5935575957,
				"element": "C" 
			},
			{
				"x": 2.2148722585,
				"y": 4.2597473261,
				"z": -1.7143280028,
				"element": "C" 
			},
			{
				"x": 2.3133298902,
				"y": 6.1163077422,
				"z": -2.0813258556,
				"element": "Br" 
			},
			{
				"x": 2.8169994322,
				"y": 3.3064721224,
				"z": -2.4843659802,
				"element": "C" 
			},
			{
				"x": 2.5252223221,
				"y": 1.7241537974,
				"z": -1.8455601622,
				"element": "S" 
			},
			{
				"x": 3.2736413525,
				"y": 1.7549785616,
				"z": 1.0291658367,
				"element": "H" 
			},
			{
				"x": 0.6856390336,
				"y": 2.1933936771,
				"z": 1.3622254267,
				"element": "H" 
			},
			{
				"x": -0.7764587171,
				"y": 0.4981203307,
				"z": 0.9619784335,
				"element": "H" 
			},
			{
				"x": 0.0773468512,
				"y": 0.3666060156,
				"z": -1.8365395638,
				"element": "H" 
			},
			{
				"x": 0.2323130295,
				"y": -0.9742851804,
				"z": -0.6773080507,
				"element": "H" 
			},
			{
				"x": 0.9695015904,
				"y": 4.3494499164,
				"z": 0.1159009037,
				"element": "H" 
			},
			{
				"x": 3.4116136746,
				"y": 3.4401192898,
				"z": -3.3760019015,
				"element": "H" 
			}
		],
		 "valence_orbital": [ 
			{
				"type": "occ",
				"energy": -0.30679,
				"method": "rhf"
			},
			{
				"type": "occ",
				"energy": -0.30027,
				"method": "rhf"
			},
			{
				"type": "occ",
				"energy": -0.27881,
				"method": "rhf"
			},
			{
				"type": "occ",
				"energy": -0.25806,
				"method": "rhf"
			},
			{
				"type": "occ",
				"energy": -0.254,
				"method": "rhf"
			},
			{
				"type": "unocc",
				"energy": -0.05425,
				"method": "rhf"
			},
			{
				"type": "unocc",
				"energy": -0.03008,
				"method": "rhf"
			},
			{
				"type": "unocc",
				"energy": -0.00383,
				"method": "rhf"
			},
			{
				"type": "unocc",
				"energy": 0.00989,
				"method": "rhf"
			},
			{
				"type": "unocc",
				"energy": 0.02313,
				"method": "rhf"
			}
		],
		"cosmo_sigma_profile": { 
			"-0.025": 0.0,
			"-0.024": 0.0,
			"-0.023": 0.0,
			"-0.022": 0.0,
			"-0.021": 0.0,
			"-0.02": 0.0,
			"-0.019": 0.0,
			"-0.018": 0.0,
			"-0.017": 0.170494087124,
			"-0.016": 0.783260613903,
			"-0.015": 0.956665750987,
			"-0.014": 0.370826358716,
			"-0.013": 1.45396554505,
			"-0.012": 1.69596520033,
			"-0.011": 2.41865933001,
			"-0.01": 6.56391083604,
			"-0.009": 7.80491449435,
			"-0.008": 7.72110823702,
			"-0.007": 6.60765445143,
			"-0.006": 8.46070335638,
			"-0.005": 12.0601233322,
			"-0.004": 11.6903494492,
			"-0.003": 11.0709931267,
			"-0.002": 11.3137881861,
			"-0.001": 14.6687720649,
			"0.0": 18.010252621,
			"0.001": 22.0330212972,
			"0.002": 30.0995931173,
			"0.003": 40.4205376554,
			"0.004": 17.9884107838,
			"0.005": 5.18122385132,
			"0.006": 2.62975926035,
			"0.007": 3.49214914025,
			"0.008": 3.8748956415,
			"0.009": 5.44467090671,
			"0.01": 5.00734857469,
			"0.011": 4.72057395738,
			"0.012": 2.82891849478,
			"0.013": 0.572699233206,
			"0.014": 0.28358178262,
			"0.015": 0.0,
			"0.016": 0.0,
			"0.017": 0.0,
			"0.018": 0.0,
			"0.019": 0.0,
			"0.02": 0.0,
			"0.021": 0.0,
			"0.022": 0.0,
			"0.023": 0.0,
			"0.024": 0.0,
			"0.025": 0.0
		}
	}
}
