{
	 "smiles": "FC1=CC2=C(OC=C(C=O)C2=O)C=C1", 
	 "Tm": 369.15, 
	 "num_atms": 19, 
	 "gaussian": { 
		 "optdone": 1, 
		 "sigma_profile": "yes", 
		 "theory": "DFT", 
		 "functional": "B3LYP", 
		 "basiset": "6-31G**", 
		 "properties": { 
			 "R2extent": 3042.5805, 
			 "electric_dipole_moment_norm": 6.40122142876, 
			 "electric_quadrupole_moment_norm": 11.9893006598, 
			 "total_energy": -709.551473886, 
			 "HOMO_LUMO_gap": 0.16727, 
			 "cosmo_polarized_energy": -18.25, 
			 "cosmo_cavitation_energy": 25.27, 
			 "cosmo_dispersion_energy": -18.47, 
			 "cosmo_repulsion_energy": 1.39, 
			 "cosmo_total_nonelectrostatic_energy": 8.19, 
			 "SMD_solvation_energy": 7.21 
		},
		"coords": [
			{
				"x": -0.2241215585,
				"y": 3.5788226185,
				"z": 0.2270462718,
				"element": "F" 
			},
			{
				"x": 0.3939993486,
				"y": 2.396470899,
				"z": 0.4023414462,
				"element": "C" 
			},
			{
				"x": -0.2276083281,
				"y": 1.2341830667,
				"z": -0.0135515002,
				"element": "C" 
			},
			{
				"x": 0.4261909281,
				"y": 0.0077333938,
				"z": 0.1743169786,
				"element": "C" 
			},
			{
				"x": 1.6889925647,
				"y": 0.0037906662,
				"z": 0.7782000785,
				"element": "C" 
			},
			{
				"x": 2.3814612774,
				"y": -1.1730302146,
				"z": 0.9895373905,
				"element": "O" 
			},
			{
				"x": 1.8192263515,
				"y": -2.3238242839,
				"z": 0.6031032905,
				"element": "C" 
			},
			{
				"x": 0.6046791027,
				"y": -2.4605174236,
				"z": 0.0079999672,
				"element": "C" 
			},
			{
				"x": 0.193521574,
				"y": -3.8426197027,
				"z": -0.3297683526,
				"element": "C" 
			},
			{
				"x": -0.8437576354,
				"y": -4.1731517989,
				"z": -0.8598577813,
				"element": "O" 
			},
			{
				"x": -0.219955844,
				"y": -1.2621463638,
				"z": -0.2642809575,
				"element": "C" 
			},
			{
				"x": -1.3214456325,
				"y": -1.2755943015,
				"z": -0.7929860305,
				"element": "O" 
			},
			{
				"x": 2.3123599637,
				"y": 1.1815715385,
				"z": 1.1965629501,
				"element": "C" 
			},
			{
				"x": 1.6566808963,
				"y": 2.3904922347,
				"z": 1.0059936435,
				"element": "C" 
			},
			{
				"x": -1.205860915,
				"y": 1.2443493151,
				"z": -0.4805989947,
				"element": "H" 
			},
			{
				"x": 2.4646400087,
				"y": -3.1691888375,
				"z": 0.8256669101,
				"element": "H" 
			},
			{
				"x": 0.9562417705,
				"y": -4.6062735448,
				"z": -0.0428270775,
				"element": "H" 
			},
			{
				"x": 3.2914439112,
				"y": 1.1335548504,
				"z": 1.6602061499,
				"element": "H" 
			},
			{
				"x": 2.1031122161,
				"y": 3.3289778884,
				"z": 1.3152956176,
				"element": "H" 
			}
		],
		 "valence_orbital": [ 
			{
				"type": "occ",
				"energy": -0.29365,
				"method": "rhf"
			},
			{
				"type": "occ",
				"energy": -0.28651,
				"method": "rhf"
			},
			{
				"type": "occ",
				"energy": -0.27489,
				"method": "rhf"
			},
			{
				"type": "occ",
				"energy": -0.25605,
				"method": "rhf"
			},
			{
				"type": "occ",
				"energy": -0.24293,
				"method": "rhf"
			},
			{
				"type": "unocc",
				"energy": -0.07566,
				"method": "rhf"
			},
			{
				"type": "unocc",
				"energy": -0.06636,
				"method": "rhf"
			},
			{
				"type": "unocc",
				"energy": -0.01895,
				"method": "rhf"
			},
			{
				"type": "unocc",
				"energy": 0.00303,
				"method": "rhf"
			},
			{
				"type": "unocc",
				"energy": 0.06876,
				"method": "rhf"
			}
		],
		"cosmo_sigma_profile": { 
			"-0.025": 0.0,
			"-0.024": 0.0,
			"-0.023": 0.0,
			"-0.022": 0.0,
			"-0.021": 0.0,
			"-0.02": 0.0,
			"-0.019": 0.0,
			"-0.018": 0.0,
			"-0.017": 0.0,
			"-0.016": 0.0,
			"-0.015": 0.0,
			"-0.014": 0.0,
			"-0.013": 0.0,
			"-0.012": 1.54700786884,
			"-0.011": 3.39084020353,
			"-0.01": 2.52511675034,
			"-0.009": 4.1043525141,
			"-0.008": 7.22048264771,
			"-0.007": 8.46761765104,
			"-0.006": 10.2088650941,
			"-0.005": 9.755283632,
			"-0.004": 13.2336743499,
			"-0.003": 13.2414269718,
			"-0.002": 13.4954094968,
			"-0.001": 19.0620396934,
			"0.0": 21.2816946948,
			"0.001": 12.3644089084,
			"0.002": 6.6160753393,
			"0.003": 9.59512846815,
			"0.004": 11.3678171778,
			"0.005": 2.69678491044,
			"0.006": 2.39663816021,
			"0.007": 2.35367233388,
			"0.008": 2.41565870843,
			"0.009": 3.43636481673,
			"0.01": 3.92000900636,
			"0.011": 6.36118199105,
			"0.012": 7.10167688693,
			"0.013": 2.70261461311,
			"0.014": 0.980393438467,
			"0.015": 1.79200357188,
			"0.016": 0.903453352128,
			"0.017": 0.321178594373,
			"0.018": 0.0,
			"0.019": 0.0,
			"0.02": 0.0,
			"0.021": 0.0,
			"0.022": 0.0,
			"0.023": 0.0,
			"0.024": 0.0,
			"0.025": 0.0
		}
	}
}
