{
	 "smiles": "CC(=O)C1=C(O)C(=CC(C)=C1)[N+]([O-])=O", 
	 "Tm": 408.15, 
	 "num_atms": 23, 
	 "gaussian": { 
		 "optdone": 1, 
		 "sigma_profile": "yes", 
		 "theory": "DFT", 
		 "functional": "B3LYP", 
		 "basiset": "6-31G**", 
		 "properties": { 
			 "R2extent": 3609.8346, 
			 "electric_dipole_moment_norm": 1.46445630184, 
			 "electric_quadrupole_moment_norm": 17.5636124004, 
			 "total_energy": -703.942499267, 
			 "HOMO_LUMO_gap": 0.14346, 
			 "cosmo_polarized_energy": -9.79, 
			 "cosmo_cavitation_energy": 27.45, 
			 "cosmo_dispersion_energy": -20.34, 
			 "cosmo_repulsion_energy": 1.58, 
			 "cosmo_total_nonelectrostatic_energy": 8.7, 
			 "SMD_solvation_energy": 7.87 
		},
		"coords": [
			{
				"x": -0.2052731674,
				"y": -0.1017073012,
				"z": -4.3205948879,
				"element": "C" 
			},
			{
				"x": -0.8005454877,
				"y": 0.2621573756,
				"z": -2.9789816756,
				"element": "C" 
			},
			{
				"x": -1.9107954866,
				"y": 0.7698421614,
				"z": -2.9162753014,
				"element": "O" 
			},
			{
				"x": -0.0455280002,
				"y": 0.0101020332,
				"z": -1.6917801917,
				"element": "C" 
			},
			{
				"x": 1.2463435157,
				"y": -0.5693966431,
				"z": -1.6052988959,
				"element": "C" 
			},
			{
				"x": 1.8940061526,
				"y": -0.9406814988,
				"z": -2.7108923346,
				"element": "O" 
			},
			{
				"x": 1.804875221,
				"y": -0.7315312135,
				"z": -0.3088311355,
				"element": "C" 
			},
			{
				"x": 1.1198221665,
				"y": -0.3398248027,
				"z": 0.8493363476,
				"element": "C" 
			},
			{
				"x": -0.1438263684,
				"y": 0.2269997087,
				"z": 0.7659121386,
				"element": "C" 
			},
			{
				"x": -0.9039838847,
				"y": 0.6580788716,
				"z": 1.9972739989,
				"element": "C" 
			},
			{
				"x": -0.6953214097,
				"y": 0.3871062127,
				"z": -0.5148794688,
				"element": "C" 
			},
			{
				"x": 3.1185014942,
				"y": -1.3151881539,
				"z": -0.1408891403,
				"element": "N" 
			},
			{
				"x": 3.7489989499,
				"y": -1.6731891804,
				"z": -1.1674244009,
				"element": "O" 
			},
			{
				"x": 3.5796364352,
				"y": -1.4449814695,
				"z": 0.9858959291,
				"element": "O" 
			},
			{
				"x": 0.0221443208,
				"y": -1.1704249105,
				"z": -4.371845176,
				"element": "H" 
			},
			{
				"x": 0.742965875,
				"y": 0.4188037283,
				"z": -4.4830844766,
				"element": "H" 
			},
			{
				"x": -0.9246435656,
				"y": 0.1704335343,
				"z": -5.0938216428,
				"element": "H" 
			},
			{
				"x": 2.7636047113,
				"y": -1.3135411389,
				"z": -2.4062730226,
				"element": "H" 
			},
			{
				"x": 1.6090381865,
				"y": -0.4946480104,
				"z": 1.8036506746,
				"element": "H" 
			},
			{
				"x": -1.1304598309,
				"y": 1.7295608256,
				"z": 1.9683436629,
				"element": "H" 
			},
			{
				"x": -1.8594171157,
				"y": 0.1283251696,
				"z": 2.0789513315,
				"element": "H" 
			},
			{
				"x": -0.3319138998,
				"y": 0.4605539001,
				"z": 2.9073243227,
				"element": "H" 
			},
			{
				"x": -1.681728812,
				"y": 0.8256508017,
				"z": -0.6363166553,
				"element": "H" 
			}
		],
		 "valence_orbital": [ 
			{
				"type": "occ",
				"energy": -0.32711,
				"method": "rhf"
			},
			{
				"type": "occ",
				"energy": -0.31281,
				"method": "rhf"
			},
			{
				"type": "occ",
				"energy": -0.2878,
				"method": "rhf"
			},
			{
				"type": "occ",
				"energy": -0.25845,
				"method": "rhf"
			},
			{
				"type": "occ",
				"energy": -0.25205,
				"method": "rhf"
			},
			{
				"type": "unocc",
				"energy": -0.10859,
				"method": "rhf"
			},
			{
				"type": "unocc",
				"energy": -0.06125,
				"method": "rhf"
			},
			{
				"type": "unocc",
				"energy": -0.01147,
				"method": "rhf"
			},
			{
				"type": "unocc",
				"energy": 0.02872,
				"method": "rhf"
			},
			{
				"type": "unocc",
				"energy": 0.07845,
				"method": "rhf"
			}
		],
		"cosmo_sigma_profile": { 
			"-0.025": 0.0,
			"-0.024": 0.0,
			"-0.023": 0.0,
			"-0.022": 0.0,
			"-0.021": 0.0,
			"-0.02": 0.0,
			"-0.019": 0.0,
			"-0.018": 0.0,
			"-0.017": 0.0,
			"-0.016": 0.0,
			"-0.015": 0.0,
			"-0.014": 0.0,
			"-0.013": 0.0,
			"-0.012": 0.0,
			"-0.011": 0.0,
			"-0.01": 0.271262792889,
			"-0.009": 0.625673493263,
			"-0.008": 2.49719732704,
			"-0.007": 5.2414701829,
			"-0.006": 7.7342701391,
			"-0.005": 16.260376407,
			"-0.004": 20.2259401102,
			"-0.003": 19.5704039347,
			"-0.002": 22.3626385493,
			"-0.001": 28.4592400513,
			"0.0": 20.9991220902,
			"0.001": 13.5405095456,
			"0.002": 7.02556753524,
			"0.003": 5.78631498443,
			"0.004": 6.57245737641,
			"0.005": 6.74443732653,
			"0.006": 5.60693956589,
			"0.007": 8.2885553454,
			"0.008": 5.53922470586,
			"0.009": 5.25744470417,
			"0.01": 3.16069459781,
			"0.011": 3.30413676576,
			"0.012": 2.91198756393,
			"0.013": 1.0199697438,
			"0.014": 0.0438394562305,
			"0.015": 0.0,
			"0.016": 0.0,
			"0.017": 0.0,
			"0.018": 0.0,
			"0.019": 0.0,
			"0.02": 0.0,
			"0.021": 0.0,
			"0.022": 0.0,
			"0.023": 0.0,
			"0.024": 0.0,
			"0.025": 0.0
		}
	}
}
