{
	 "smiles": "OC(=O)C1=C(C=CC=C1)C1C2=CC=C(O)C=C2OC2=C1C=CC(O)=C2", 
	 "Tm": 399.15, 
	 "num_atms": 39, 
	 "gaussian": { 
		 "optdone": 1, 
		 "sigma_profile": "yes", 
		 "theory": "DFT", 
		 "functional": "B3LYP", 
		 "basiset": "6-31G**", 
		 "properties": { 
			 "R2extent": 8215.0339, 
			 "electric_dipole_moment_norm": 5.51110407632, 
			 "electric_quadrupole_moment_norm": 27.7196798214, 
			 "total_energy": -1146.68595906, 
			 "HOMO_LUMO_gap": 0.17137, 
			 "cosmo_polarized_energy": -24.68, 
			 "cosmo_cavitation_energy": 42.27, 
			 "cosmo_dispersion_energy": -29.5, 
			 "cosmo_repulsion_energy": 2.2, 
			 "cosmo_total_nonelectrostatic_energy": 14.97, 
			 "SMD_solvation_energy": 8.72 
		},
		"coords": [
			{
				"x": -0.4161070374,
				"y": 2.5420512402,
				"z": -0.8472757176,
				"element": "O" 
			},
			{
				"x": -1.1415570411,
				"y": 1.9200300675,
				"z": -1.7992542574,
				"element": "C" 
			},
			{
				"x": -1.3530434077,
				"y": 2.4698290338,
				"z": -2.8564048859,
				"element": "O" 
			},
			{
				"x": -1.7364282971,
				"y": 0.5678542491,
				"z": -1.4755756164,
				"element": "C" 
			},
			{
				"x": -1.1022229636,
				"y": -0.484852752,
				"z": -0.7723267363,
				"element": "C" 
			},
			{
				"x": -1.8136836226,
				"y": -1.6821066232,
				"z": -0.6051669357,
				"element": "C" 
			},
			{
				"x": -3.1090931258,
				"y": -1.8515792183,
				"z": -1.0934513952,
				"element": "C" 
			},
			{
				"x": -3.7201400227,
				"y": -0.8154110483,
				"z": -1.796552119,
				"element": "C" 
			},
			{
				"x": -3.0253762953,
				"y": 0.3742310878,
				"z": -1.9948883561,
				"element": "C" 
			},
			{
				"x": 0.3238116477,
				"y": -0.4388003428,
				"z": -0.2090656242,
				"element": "C" 
			},
			{
				"x": 0.4551454596,
				"y": 0.4116336013,
				"z": 1.0551762193,
				"element": "C" 
			},
			{
				"x": -0.5420873284,
				"y": 0.4487778628,
				"z": 2.0409259059,
				"element": "C" 
			},
			{
				"x": -0.3727325841,
				"y": 1.1391139974,
				"z": 3.2377648322,
				"element": "C" 
			},
			{
				"x": 0.8319869707,
				"y": 1.8142206682,
				"z": 3.4779673689,
				"element": "C" 
			},
			{
				"x": 1.0713254652,
				"y": 2.5097045451,
				"z": 4.6241401091,
				"element": "O" 
			},
			{
				"x": 1.8431454733,
				"y": 1.8010745999,
				"z": 2.5170793745,
				"element": "C" 
			},
			{
				"x": 1.6501263444,
				"y": 1.1024098055,
				"z": 1.3265874492,
				"element": "C" 
			},
			{
				"x": 2.6963023865,
				"y": 1.1409586697,
				"z": 0.4460122132,
				"element": "O" 
			},
			{
				"x": 2.518759307,
				"y": 0.6752886606,
				"z": -0.8403878912,
				"element": "C" 
			},
			{
				"x": 1.3885761913,
				"y": -0.0541130497,
				"z": -1.2294197585,
				"element": "C" 
			},
			{
				"x": 1.3350601845,
				"y": -0.4804033023,
				"z": -2.5607567351,
				"element": "C" 
			},
			{
				"x": 2.3518581228,
				"y": -0.1952975601,
				"z": -3.4677309128,
				"element": "C" 
			},
			{
				"x": 3.4671339027,
				"y": 0.5386227919,
				"z": -3.0453828711,
				"element": "C" 
			},
			{
				"x": 4.5002733869,
				"y": 0.8576006637,
				"z": -3.8766361495,
				"element": "O" 
			},
			{
				"x": 3.5512340958,
				"y": 0.9770621956,
				"z": -1.7239553993,
				"element": "C" 
			},
			{
				"x": -0.3791224207,
				"y": 2.0172362048,
				"z": -0.0281353781,
				"element": "H" 
			},
			{
				"x": -1.3303131837,
				"y": -2.5056115658,
				"z": -0.0855094062,
				"element": "H" 
			},
			{
				"x": -3.6271421294,
				"y": -2.7931447704,
				"z": -0.9358137809,
				"element": "H" 
			},
			{
				"x": -4.7224117423,
				"y": -0.9339366178,
				"z": -2.1969681425,
				"element": "H" 
			},
			{
				"x": -3.4667505274,
				"y": 1.184447258,
				"z": -2.5651185774,
				"element": "H" 
			},
			{
				"x": 0.5375853164,
				"y": -1.4747470559,
				"z": 0.0954656927,
				"element": "H" 
			},
			{
				"x": -1.4737405515,
				"y": -0.0793564276,
				"z": 1.8615175188,
				"element": "H" 
			},
			{
				"x": -1.1669120411,
				"y": 1.1507993666,
				"z": 3.9799985518,
				"element": "H" 
			},
			{
				"x": 0.296082402,
				"y": 2.4560812355,
				"z": 5.1979942924,
				"element": "H" 
			},
			{
				"x": 2.7711901047,
				"y": 2.3336418698,
				"z": 2.6873887565,
				"element": "H" 
			},
			{
				"x": 0.4728302257,
				"y": -1.0480209674,
				"z": -2.8968944561,
				"element": "H" 
			},
			{
				"x": 2.2770181945,
				"y": -0.5366355268,
				"z": -4.4971957204,
				"element": "H" 
			},
			{
				"x": 4.3036219719,
				"y": 0.5317019111,
				"z": -4.7643812585,
				"element": "H" 
			},
			{
				"x": 4.4035971684,
				"y": 1.5551452425,
				"z": -1.3876702031,
				"element": "H" 
			}
		],
		 "valence_orbital": [ 
			{
				"type": "occ",
				"energy": -0.26151,
				"method": "rhf"
			},
			{
				"type": "occ",
				"energy": -0.25217,
				"method": "rhf"
			},
			{
				"type": "occ",
				"energy": -0.23716,
				"method": "rhf"
			},
			{
				"type": "occ",
				"energy": -0.22897,
				"method": "rhf"
			},
			{
				"type": "occ",
				"energy": -0.21289,
				"method": "rhf"
			},
			{
				"type": "unocc",
				"energy": -0.04152,
				"method": "rhf"
			},
			{
				"type": "unocc",
				"energy": -0.02272,
				"method": "rhf"
			},
			{
				"type": "unocc",
				"energy": -0.01863,
				"method": "rhf"
			},
			{
				"type": "unocc",
				"energy": -0.00647,
				"method": "rhf"
			},
			{
				"type": "unocc",
				"energy": 0.00262,
				"method": "rhf"
			}
		],
		"cosmo_sigma_profile": { 
			"-0.025": 0.0,
			"-0.024": 0.0,
			"-0.023": 0.0,
			"-0.022": 0.0,
			"-0.021": 0.0,
			"-0.02": 0.0,
			"-0.019": 0.00264867380106,
			"-0.018": 1.59879012661,
			"-0.017": 2.02056102267,
			"-0.016": 2.02196327294,
			"-0.015": 3.09337030771,
			"-0.014": 1.5085741161,
			"-0.013": 1.41427814603,
			"-0.012": 1.60252850675,
			"-0.011": 1.72696772092,
			"-0.01": 3.0748406023,
			"-0.009": 2.69666208233,
			"-0.008": 3.00314430278,
			"-0.007": 10.8753191656,
			"-0.006": 19.7554021264,
			"-0.005": 20.9702454034,
			"-0.004": 21.3839870897,
			"-0.003": 21.0276835467,
			"-0.002": 19.0764173504,
			"-0.001": 16.0194108511,
			"0.0": 17.7250072866,
			"0.001": 19.2659207606,
			"0.002": 26.8480150299,
			"0.003": 34.8238555998,
			"0.004": 26.6916404597,
			"0.005": 10.9971405086,
			"0.006": 6.88450239914,
			"0.007": 5.75652731532,
			"0.008": 6.49155314213,
			"0.009": 6.48649866001,
			"0.01": 6.96789990192,
			"0.011": 8.81285731082,
			"0.012": 5.59337035073,
			"0.013": 2.08168008913,
			"0.014": 0.141649737344,
			"0.015": 0.0,
			"0.016": 0.0,
			"0.017": 0.0,
			"0.018": 0.0,
			"0.019": 0.0,
			"0.02": 0.0,
			"0.021": 0.0,
			"0.022": 0.0,
			"0.023": 0.0,
			"0.024": 0.0,
			"0.025": 0.0
		}
	}
}
