{
	 "smiles": "CCOC(=O)CNC1=C(C=C(C(Cl)=C1)[N+]([O-])=O)[N+]([O-])=O", 
	 "Tm": 419.15, 
	 "num_atms": 30, 
	 "gaussian": { 
		 "optdone": 1, 
		 "sigma_profile": "yes", 
		 "theory": "DFT", 
		 "functional": "B3LYP", 
		 "basiset": "6-31G**", 
		 "properties": { 
			 "R2extent": 7688.2036, 
			 "electric_dipole_moment_norm": 8.41253276844, 
			 "electric_quadrupole_moment_norm": 12.9427235492, 
			 "total_energy": -1462.68377567, 
			 "HOMO_LUMO_gap": 0.1452, 
			 "cosmo_polarized_energy": -19.43, 
			 "cosmo_cavitation_energy": 38.07, 
			 "cosmo_dispersion_energy": -26.67, 
			 "cosmo_repulsion_energy": 2.08, 
			 "cosmo_total_nonelectrostatic_energy": 13.48, 
			 "SMD_solvation_energy": 10.88 
		},
		"coords": [
			{
				"x": -1.0815573266,
				"y": 3.668298098,
				"z": -2.9509470091,
				"element": "C" 
			},
			{
				"x": -1.7215759293,
				"y": 3.9590091146,
				"z": -1.6033096922,
				"element": "C" 
			},
			{
				"x": -0.9128343494,
				"y": 3.4354229778,
				"z": -0.5126300094,
				"element": "O" 
			},
			{
				"x": -1.1100595811,
				"y": 2.1495011891,
				"z": -0.1770225732,
				"element": "C" 
			},
			{
				"x": -1.8990222937,
				"y": 1.3958386591,
				"z": -0.6973561297,
				"element": "O" 
			},
			{
				"x": -0.1722461527,
				"y": 1.775825056,
				"z": 0.9794515241,
				"element": "C" 
			},
			{
				"x": -0.356771429,
				"y": 0.4321169211,
				"z": 1.4620815769,
				"element": "N" 
			},
			{
				"x": 0.0406069285,
				"y": -0.6922284004,
				"z": 0.8236860486,
				"element": "C" 
			},
			{
				"x": -0.2368180729,
				"y": -2.0041639466,
				"z": 1.3242668161,
				"element": "C" 
			},
			{
				"x": 0.2258923752,
				"y": -3.1348995484,
				"z": 0.6614037035,
				"element": "C" 
			},
			{
				"x": 0.9847090255,
				"y": -3.041325842,
				"z": -0.4939644849,
				"element": "C" 
			},
			{
				"x": 1.2606866855,
				"y": -1.7588175923,
				"z": -1.0263314301,
				"element": "C" 
			},
			{
				"x": 2.1149484228,
				"y": -1.4977632341,
				"z": -2.5180813211,
				"element": "Cl" 
			},
			{
				"x": 0.7857188816,
				"y": -0.631437648,
				"z": -0.3808728954,
				"element": "C" 
			},
			{
				"x": 1.4582682357,
				"y": -4.3023875564,
				"z": -1.0715924613,
				"element": "N" 
			},
			{
				"x": 2.4347479329,
				"y": -4.2716648975,
				"z": -1.8156193377,
				"element": "O" 
			},
			{
				"x": 0.8523800791,
				"y": -5.3252172924,
				"z": -0.7471927241,
				"element": "O" 
			},
			{
				"x": -1.0090591822,
				"y": -2.2350957588,
				"z": 2.5350146891,
				"element": "N" 
			},
			{
				"x": -1.1913637812,
				"y": -3.3917483974,
				"z": 2.9021723803,
				"element": "O" 
			},
			{
				"x": -1.45533949,
				"y": -1.2503180386,
				"z": 3.1542723917,
				"element": "O" 
			},
			{
				"x": -1.6686084921,
				"y": 4.1392516503,
				"z": -3.7460618938,
				"element": "H" 
			},
			{
				"x": -1.0522563648,
				"y": 2.5926818122,
				"z": -3.1419946751,
				"element": "H" 
			},
			{
				"x": -0.0639164296,
				"y": 4.0670124137,
				"z": -2.9951786051,
				"element": "H" 
			},
			{
				"x": -1.7757652993,
				"y": 5.0312220559,
				"z": -1.4038200319,
				"element": "H" 
			},
			{
				"x": -2.7209246545,
				"y": 3.5237200827,
				"z": -1.5340704601,
				"element": "H" 
			},
			{
				"x": -0.3559751477,
				"y": 2.4681075572,
				"z": 1.8055977302,
				"element": "H" 
			},
			{
				"x": 0.8618902684,
				"y": 1.9539849832,
				"z": 0.662173019,
				"element": "H" 
			},
			{
				"x": -0.9555380381,
				"y": 0.2645669142,
				"z": 2.2641614698,
				"element": "H" 
			},
			{
				"x": -0.0071427791,
				"y": -4.1124409949,
				"z": 1.0611075708,
				"element": "H" 
			},
			{
				"x": 0.9813259581,
				"y": 0.3284496629,
				"z": -0.8373431861,
				"element": "H" 
			}
		],
		 "valence_orbital": [ 
			{
				"type": "occ",
				"energy": -0.30593,
				"method": "rhf"
			},
			{
				"type": "occ",
				"energy": -0.30311,
				"method": "rhf"
			},
			{
				"type": "occ",
				"energy": -0.2894,
				"method": "rhf"
			},
			{
				"type": "occ",
				"energy": -0.28753,
				"method": "rhf"
			},
			{
				"type": "occ",
				"energy": -0.25106,
				"method": "rhf"
			},
			{
				"type": "unocc",
				"energy": -0.10586,
				"method": "rhf"
			},
			{
				"type": "unocc",
				"energy": -0.08964,
				"method": "rhf"
			},
			{
				"type": "unocc",
				"energy": -0.0292,
				"method": "rhf"
			},
			{
				"type": "unocc",
				"energy": -0.01576,
				"method": "rhf"
			},
			{
				"type": "unocc",
				"energy": -0.00528,
				"method": "rhf"
			}
		],
		"cosmo_sigma_profile": { 
			"-0.025": 0.0,
			"-0.024": 0.0,
			"-0.023": 0.0,
			"-0.022": 0.0,
			"-0.021": 0.0,
			"-0.02": 0.0,
			"-0.019": 0.0,
			"-0.018": 0.0,
			"-0.017": 0.0,
			"-0.016": 0.0,
			"-0.015": 0.0,
			"-0.014": 0.110351979053,
			"-0.013": 0.978508738995,
			"-0.012": 1.59693278903,
			"-0.011": 2.3927932809,
			"-0.01": 3.84358131176,
			"-0.009": 5.20817965109,
			"-0.008": 5.05162725071,
			"-0.007": 8.62671928307,
			"-0.006": 11.7160887719,
			"-0.005": 18.1525402229,
			"-0.004": 24.7744228851,
			"-0.003": 30.5487837509,
			"-0.002": 27.5415155267,
			"-0.001": 23.3653960351,
			"0.0": 20.2300618174,
			"0.001": 13.4138226993,
			"0.002": 12.361365559,
			"0.003": 13.6108066127,
			"0.004": 9.18409211345,
			"0.005": 9.64820821882,
			"0.006": 10.254708639,
			"0.007": 17.0971351551,
			"0.008": 15.869052947,
			"0.009": 10.1623503874,
			"0.01": 5.90980298255,
			"0.011": 3.76733326003,
			"0.012": 0.875562459017,
			"0.013": 0.0,
			"0.014": 0.0,
			"0.015": 0.0,
			"0.016": 0.0,
			"0.017": 0.0,
			"0.018": 0.0,
			"0.019": 0.0,
			"0.02": 0.0,
			"0.021": 0.0,
			"0.022": 0.0,
			"0.023": 0.0,
			"0.024": 0.0,
			"0.025": 0.0
		}
	}
}
