{
	 "smiles": "NC1=NN=C(S1)C1=NC=CC=C1", 
	 "Tm": 534.15, 
	 "num_atms": 18, 
	 "gaussian": { 
		 "optdone": 1, 
		 "sigma_profile": "yes", 
		 "theory": "DFT", 
		 "functional": "B3LYP", 
		 "basiset": "6-31G**", 
		 "properties": { 
			 "R2extent": 2665.7476, 
			 "electric_dipole_moment_norm": 4.58318364677, 
			 "electric_quadrupole_moment_norm": 20.9751361993, 
			 "total_energy": -887.516331975, 
			 "HOMO_LUMO_gap": 0.16741, 
			 "cosmo_polarized_energy": -20.89, 
			 "cosmo_cavitation_energy": 24.66, 
			 "cosmo_dispersion_energy": -19.16, 
			 "cosmo_repulsion_energy": 1.47, 
			 "cosmo_total_nonelectrostatic_energy": 6.98, 
			 "SMD_solvation_energy": 0.88 
		},
		"coords": [
			{
				"x": -1.3799675565,
				"y": -3.1725314649,
				"z": 1.5717284057,
				"element": "N" 
			},
			{
				"x": -0.9790827071,
				"y": -1.8994212462,
				"z": 1.2577390687,
				"element": "C" 
			},
			{
				"x": -1.5837175515,
				"y": -0.8281595811,
				"z": 1.7080169006,
				"element": "N" 
			},
			{
				"x": -1.0652315335,
				"y": 0.3228074636,
				"z": 1.2016801923,
				"element": "N" 
			},
			{
				"x": -0.0695074815,
				"y": 0.1538829666,
				"z": 0.3836121983,
				"element": "C" 
			},
			{
				"x": 0.3316434011,
				"y": -1.5675405458,
				"z": 0.1363683519,
				"element": "S" 
			},
			{
				"x": 0.6753936213,
				"y": 1.2396559283,
				"z": -0.2816324387,
				"element": "C" 
			},
			{
				"x": 0.4052559634,
				"y": 2.4901632238,
				"z": 0.1334404396,
				"element": "N" 
			},
			{
				"x": 1.057463041,
				"y": 3.4952823059,
				"z": -0.4507531451,
				"element": "C" 
			},
			{
				"x": 2.0081359295,
				"y": 3.3279240387,
				"z": -1.4618322069,
				"element": "C" 
			},
			{
				"x": 2.2859282454,
				"y": 2.0310092114,
				"z": -1.8881810285,
				"element": "C" 
			},
			{
				"x": 1.6100431816,
				"y": 0.9684482962,
				"z": -1.2944918904,
				"element": "C" 
			},
			{
				"x": -0.669329358,
				"y": -3.8886154659,
				"z": 1.6075665542,
				"element": "H" 
			},
			{
				"x": -2.0379204165,
				"y": -3.1983610457,
				"z": 2.3406024271,
				"element": "H" 
			},
			{
				"x": 0.8108324083,
				"y": 4.492593731,
				"z": -0.0898139129,
				"element": "H" 
			},
			{
				"x": 2.5089217871,
				"y": 4.1872728558,
				"z": -1.8958578752,
				"element": "H" 
			},
			{
				"x": 3.0133096559,
				"y": 1.8461619428,
				"z": -2.6731864548,
				"element": "H" 
			},
			{
				"x": 1.79952937,
				"y": -0.0500726146,
				"z": -1.6187055859,
				"element": "H" 
			}
		],
		 "valence_orbital": [ 
			{
				"type": "occ",
				"energy": -0.29227,
				"method": "rhf"
			},
			{
				"type": "occ",
				"energy": -0.27283,
				"method": "rhf"
			},
			{
				"type": "occ",
				"energy": -0.26234,
				"method": "rhf"
			},
			{
				"type": "occ",
				"energy": -0.24832,
				"method": "rhf"
			},
			{
				"type": "occ",
				"energy": -0.22378,
				"method": "rhf"
			},
			{
				"type": "unocc",
				"energy": -0.05637,
				"method": "rhf"
			},
			{
				"type": "unocc",
				"energy": -0.02519,
				"method": "rhf"
			},
			{
				"type": "unocc",
				"energy": -0.00426,
				"method": "rhf"
			},
			{
				"type": "unocc",
				"energy": 0.0151,
				"method": "rhf"
			},
			{
				"type": "unocc",
				"energy": 0.0585,
				"method": "rhf"
			}
		],
		"cosmo_sigma_profile": { 
			"-0.025": 0.0,
			"-0.024": 0.0,
			"-0.023": 0.0,
			"-0.022": 0.0,
			"-0.021": 0.0,
			"-0.02": 0.0,
			"-0.019": 0.0,
			"-0.018": 0.0,
			"-0.017": 0.0,
			"-0.016": 0.0847843290982,
			"-0.015": 1.60312079975,
			"-0.014": 3.15563078389,
			"-0.013": 2.64228416598,
			"-0.012": 2.96116097527,
			"-0.011": 2.32528693664,
			"-0.01": 2.24126580891,
			"-0.009": 1.64367705923,
			"-0.008": 4.31624854679,
			"-0.007": 9.57523666414,
			"-0.006": 12.1496801756,
			"-0.005": 9.52913870302,
			"-0.004": 9.55462026811,
			"-0.003": 8.47999625168,
			"-0.002": 10.3117565139,
			"-0.001": 14.5290296845,
			"0.0": 16.9255094735,
			"0.001": 18.7961153258,
			"0.002": 18.1717717403,
			"0.003": 6.98368119703,
			"0.004": 4.63461903043,
			"0.005": 3.88509812306,
			"0.006": 2.86708708791,
			"0.007": 3.92364454606,
			"0.008": 2.95334052675,
			"0.009": 2.79216977643,
			"0.01": 3.67543137627,
			"0.011": 3.29580569118,
			"0.012": 4.21602179824,
			"0.013": 3.35495921359,
			"0.014": 3.19189616356,
			"0.015": 2.18411135881,
			"0.016": 0.961207961878,
			"0.017": 1.51576358823,
			"0.018": 1.01836805085,
			"0.019": 0.410769125647,
			"0.02": 0.0,
			"0.021": 0.0,
			"0.022": 0.0,
			"0.023": 0.0,
			"0.024": 0.0,
			"0.025": 0.0
		}
	}
}
