{
	 "smiles": "CC1=CSC(NC(=O)CC2=CC=C(N)C=C2)=N1", 
	 "Tm": 417.15, 
	 "num_atms": 30, 
	 "gaussian": { 
		 "optdone": 1, 
		 "sigma_profile": "yes", 
		 "theory": "DFT", 
		 "functional": "B3LYP", 
		 "basiset": "6-31G**", 
		 "properties": { 
			 "R2extent": 5508.9307, 
			 "electric_dipole_moment_norm": 3.34561457732, 
			 "electric_quadrupole_moment_norm": 14.8608510412, 
			 "total_energy": -1102.7946792, 
			 "HOMO_LUMO_gap": 0.166, 
			 "cosmo_polarized_energy": -16.06, 
			 "cosmo_cavitation_energy": 35.98, 
			 "cosmo_dispersion_energy": -25.71, 
			 "cosmo_repulsion_energy": 1.97, 
			 "cosmo_total_nonelectrostatic_energy": 12.23, 
			 "SMD_solvation_energy": 6.04 
		},
		"coords": [
			{
				"x": 3.0957243223,
				"y": -1.5976263326,
				"z": -1.6123918261,
				"element": "C" 
			},
			{
				"x": 2.8548263538,
				"y": -1.2184692737,
				"z": -0.1818583177,
				"element": "C" 
			},
			{
				"x": 3.8160099787,
				"y": -0.9953555898,
				"z": 0.7578683878,
				"element": "C" 
			},
			{
				"x": 3.090412452,
				"y": -0.5752823963,
				"z": 2.2877632352,
				"element": "S" 
			},
			{
				"x": 1.5059666733,
				"y": -0.7455506732,
				"z": 1.5144600419,
				"element": "C" 
			},
			{
				"x": 0.3766534059,
				"y": -0.5327441122,
				"z": 2.2858868267,
				"element": "N" 
			},
			{
				"x": -0.9954284529,
				"y": -0.568091393,
				"z": 1.9942514467,
				"element": "C" 
			},
			{
				"x": -1.7698971386,
				"y": -0.4030848071,
				"z": 2.9231181309,
				"element": "O" 
			},
			{
				"x": -1.4587158769,
				"y": -0.7505748127,
				"z": 0.5604964454,
				"element": "C" 
			},
			{
				"x": -1.6596411075,
				"y": 0.5997302966,
				"z": -0.1153682078,
				"element": "C" 
			},
			{
				"x": -2.6178782957,
				"y": 1.5044273982,
				"z": 0.3630610524,
				"element": "C" 
			},
			{
				"x": -2.8209775078,
				"y": 2.7331404419,
				"z": -0.2559971143,
				"element": "C" 
			},
			{
				"x": -2.0650553029,
				"y": 3.1017772174,
				"z": -1.3829736599,
				"element": "C" 
			},
			{
				"x": -2.2298549845,
				"y": 4.3574210022,
				"z": -1.974948336,
				"element": "N" 
			},
			{
				"x": -1.1006606517,
				"y": 2.1998919216,
				"z": -1.8606663539,
				"element": "C" 
			},
			{
				"x": -0.9028273333,
				"y": 0.9725752421,
				"z": -1.2315060932,
				"element": "C" 
			},
			{
				"x": 1.5478805499,
				"y": -1.0748205715,
				"z": 0.2585364351,
				"element": "N" 
			},
			{
				"x": 2.6838314087,
				"y": -0.8405427533,
				"z": -2.288803153,
				"element": "H" 
			},
			{
				"x": 2.6030741731,
				"y": -2.5468491476,
				"z": -1.8488889724,
				"element": "H" 
			},
			{
				"x": 4.1636240486,
				"y": -1.6999805558,
				"z": -1.8192352363,
				"element": "H" 
			},
			{
				"x": 4.8895266534,
				"y": -1.0480946681,
				"z": 0.6512637516,
				"element": "H" 
			},
			{
				"x": 0.5276415677,
				"y": -0.3429051896,
				"z": 3.2693687178,
				"element": "H" 
			},
			{
				"x": -0.7478455956,
				"y": -1.3509215248,
				"z": -0.0058141532,
				"element": "H" 
			},
			{
				"x": -2.4115227075,
				"y": -1.2843884332,
				"z": 0.6316842747,
				"element": "H" 
			},
			{
				"x": -3.2066344921,
				"y": 1.2409579388,
				"z": 1.2374353216,
				"element": "H" 
			},
			{
				"x": -3.5692702217,
				"y": 3.4190257155,
				"z": 0.134459931,
				"element": "H" 
			},
			{
				"x": -1.9448665964,
				"y": 4.4128523472,
				"z": -2.9432581129,
				"element": "H" 
			},
			{
				"x": -3.1356929425,
				"y": 4.7816098648,
				"z": -1.8284028437,
				"element": "H" 
			},
			{
				"x": -0.4998202022,
				"y": 2.4673537574,
				"z": -2.7269490097,
				"element": "H" 
			},
			{
				"x": -0.1454821775,
				"y": 0.2927190908,
				"z": -1.6098926085,
				"element": "H" 
			}
		],
		 "valence_orbital": [ 
			{
				"type": "occ",
				"energy": -0.28077,
				"method": "rhf"
			},
			{
				"type": "occ",
				"energy": -0.26032,
				"method": "rhf"
			},
			{
				"type": "occ",
				"energy": -0.24002,
				"method": "rhf"
			},
			{
				"type": "occ",
				"energy": -0.21975,
				"method": "rhf"
			},
			{
				"type": "occ",
				"energy": -0.19485,
				"method": "rhf"
			},
			{
				"type": "unocc",
				"energy": -0.02885,
				"method": "rhf"
			},
			{
				"type": "unocc",
				"energy": -0.00139,
				"method": "rhf"
			},
			{
				"type": "unocc",
				"energy": 0.00774,
				"method": "rhf"
			},
			{
				"type": "unocc",
				"energy": 0.01392,
				"method": "rhf"
			},
			{
				"type": "unocc",
				"energy": 0.03204,
				"method": "rhf"
			}
		],
		"cosmo_sigma_profile": { 
			"-0.025": 0.0,
			"-0.024": 0.0,
			"-0.023": 0.0,
			"-0.022": 0.0,
			"-0.021": 0.0,
			"-0.02": 0.0,
			"-0.019": 0.0,
			"-0.018": 0.0,
			"-0.017": 0.0037963437069,
			"-0.016": 0.618979002121,
			"-0.015": 1.12829820936,
			"-0.014": 0.819021985575,
			"-0.013": 1.46787664473,
			"-0.012": 2.84401149311,
			"-0.011": 4.03184110295,
			"-0.01": 3.30765892509,
			"-0.009": 5.09786847086,
			"-0.008": 5.47682920922,
			"-0.007": 5.97291408213,
			"-0.006": 7.51015633729,
			"-0.005": 12.7271649518,
			"-0.004": 17.3996926777,
			"-0.003": 20.6124598134,
			"-0.002": 22.8564949911,
			"-0.001": 23.1224670407,
			"0.0": 23.1714447827,
			"0.001": 20.2301009076,
			"0.002": 17.4835674176,
			"0.003": 21.7433340883,
			"0.004": 17.0658618173,
			"0.005": 13.1971718599,
			"0.006": 12.1329381084,
			"0.007": 8.923127342,
			"0.008": 2.7527824513,
			"0.009": 1.89703814049,
			"0.01": 2.2442214213,
			"0.011": 3.03227912985,
			"0.012": 5.03458518351,
			"0.013": 3.23144168088,
			"0.014": 0.774592270127,
			"0.015": 0.420672634942,
			"0.016": 0.0,
			"0.017": 0.0,
			"0.018": 0.0,
			"0.019": 0.0,
			"0.02": 0.0,
			"0.021": 0.0,
			"0.022": 0.0,
			"0.023": 0.0,
			"0.024": 0.0,
			"0.025": 0.0
		}
	}
}
