{
	 "smiles": "CC12CCC3C(CCC4CC(=O)CCC34C)C1CC[C@H]2OC=O", 
	 "Tm": 397.15, 
	 "num_atms": 53, 
	 "gaussian": { 
		 "optdone": 1, 
		 "sigma_profile": "yes", 
		 "theory": "DFT", 
		 "functional": "B3LYP", 
		 "basiset": "6-31G**", 
		 "properties": { 
			 "R2extent": 8313.3571, 
			 "electric_dipole_moment_norm": 3.00745201624, 
			 "electric_quadrupole_moment_norm": 26.3691861721, 
			 "total_energy": -1005.89974882, 
			 "HOMO_LUMO_gap": 0.22228, 
			 "cosmo_polarized_energy": -12.65, 
			 "cosmo_cavitation_energy": 45.63, 
			 "cosmo_dispersion_energy": -31.54, 
			 "cosmo_repulsion_energy": 2.32, 
			 "cosmo_total_nonelectrostatic_energy": 16.42, 
			 "SMD_solvation_energy": 8.47 
		},
		"coords": [
			{
				"x": 2.4910057307,
				"y": -3.3733330175,
				"z": -0.2066298583,
				"element": "C" 
			},
			{
				"x": 1.2205445858,
				"y": -2.5516746569,
				"z": 0.109693948,
				"element": "C" 
			},
			{
				"x": 0.2447299775,
				"y": -2.722505444,
				"z": -1.0742967025,
				"element": "C" 
			},
			{
				"x": -0.9163111018,
				"y": -1.7092490564,
				"z": -1.1996988379,
				"element": "C" 
			},
			{
				"x": -0.6644606056,
				"y": -0.3106195957,
				"z": -0.5680770272,
				"element": "C" 
			},
			{
				"x": 0.8462332767,
				"y": 0.0087463213,
				"z": -0.4651777734,
				"element": "C" 
			},
			{
				"x": 1.4506950294,
				"y": 0.2883248831,
				"z": -1.8526920617,
				"element": "C" 
			},
			{
				"x": 0.708367358,
				"y": 1.4428308029,
				"z": -2.5397794131,
				"element": "C" 
			},
			{
				"x": -0.8043820266,
				"y": 1.1662097594,
				"z": -2.6592187262,
				"element": "C" 
			},
			{
				"x": -1.5665180212,
				"y": 2.2954943866,
				"z": -3.3951178969,
				"element": "C" 
			},
			{
				"x": -2.1848226517,
				"y": 3.3585760772,
				"z": -2.4911726226,
				"element": "C" 
			},
			{
				"x": -3.0746374686,
				"y": 4.0894257604,
				"z": -2.8854497412,
				"element": "O" 
			},
			{
				"x": -1.5978804509,
				"y": 3.4591567565,
				"z": -1.096423816,
				"element": "C" 
			},
			{
				"x": -1.4955886383,
				"y": 2.0974347127,
				"z": -0.3585921894,
				"element": "C" 
			},
			{
				"x": -1.4613019521,
				"y": 0.8360802407,
				"z": -1.2829520702,
				"element": "C" 
			},
			{
				"x": -2.9292467107,
				"y": 0.397969684,
				"z": -1.5044579611,
				"element": "C" 
			},
			{
				"x": 1.6095839827,
				"y": -1.0454581054,
				"z": 0.374676725,
				"element": "C" 
			},
			{
				"x": 1.4241370783,
				"y": -0.8247461723,
				"z": 1.9038664934,
				"element": "C" 
			},
			{
				"x": 1.3973634493,
				"y": -2.2280571611,
				"z": 2.5266183079,
				"element": "C" 
			},
			{
				"x": 0.6795843654,
				"y": -3.0701883857,
				"z": 1.4692969896,
				"element": "C" 
			},
			{
				"x": -0.7569766225,
				"y": -2.8126299262,
				"z": 1.5459846286,
				"element": "O" 
			},
			{
				"x": -1.4630465363,
				"y": -3.5666217656,
				"z": 2.4042452475,
				"element": "C" 
			},
			{
				"x": -1.0292035812,
				"y": -4.4348120026,
				"z": 3.1223183125,
				"element": "O" 
			},
			{
				"x": 2.9919578275,
				"y": -2.9713987799,
				"z": -1.093231281,
				"element": "H" 
			},
			{
				"x": 2.2442481443,
				"y": -4.4223214091,
				"z": -0.4069726097,
				"element": "H" 
			},
			{
				"x": 3.2130080727,
				"y": -3.3500561198,
				"z": 0.6163069127,
				"element": "H" 
			},
			{
				"x": -0.1636302941,
				"y": -3.7404435589,
				"z": -1.0570266178,
				"element": "H" 
			},
			{
				"x": 0.8514403331,
				"y": -2.6712893066,
				"z": -1.9860263679,
				"element": "H" 
			},
			{
				"x": -1.1359733105,
				"y": -1.607925391,
				"z": -2.2679629739,
				"element": "H" 
			},
			{
				"x": -1.8168506207,
				"y": -2.1298267903,
				"z": -0.7474276133,
				"element": "H" 
			},
			{
				"x": -1.0532364993,
				"y": -0.3590665615,
				"z": 0.4578205212,
				"element": "H" 
			},
			{
				"x": 0.9545914282,
				"y": 0.949185905,
				"z": 0.0931663806,
				"element": "H" 
			},
			{
				"x": 2.5152117312,
				"y": 0.5351721668,
				"z": -1.7497149804,
				"element": "H" 
			},
			{
				"x": 1.4020068852,
				"y": -0.603695055,
				"z": -2.4900774718,
				"element": "H" 
			},
			{
				"x": 0.8878205874,
				"y": 2.3694169724,
				"z": -1.9777014704,
				"element": "H" 
			},
			{
				"x": 1.1196401842,
				"y": 1.6124012628,
				"z": -3.5430548083,
				"element": "H" 
			},
			{
				"x": -0.8968307175,
				"y": 0.267430046,
				"z": -3.2838677719,
				"element": "H" 
			},
			{
				"x": -2.3762437641,
				"y": 1.9033099297,
				"z": -4.0176839829,
				"element": "H" 
			},
			{
				"x": -0.8898024296,
				"y": 2.8181683237,
				"z": -4.0859463815,
				"element": "H" 
			},
			{
				"x": -2.177361505,
				"y": 4.1901147262,
				"z": -0.5274536246,
				"element": "H" 
			},
			{
				"x": -0.589816896,
				"y": 3.8782287793,
				"z": -1.2247759087,
				"element": "H" 
			},
			{
				"x": -0.6176537617,
				"y": 2.1283851402,
				"z": 0.2913642034,
				"element": "H" 
			},
			{
				"x": -2.3553453106,
				"y": 1.9941612548,
				"z": 0.3124149345,
				"element": "H" 
			},
			{
				"x": -3.3569869881,
				"y": 0.0166233887,
				"z": -0.5702655875,
				"element": "H" 
			},
			{
				"x": -3.0213508387,
				"y": -0.3867021788,
				"z": -2.2608791166,
				"element": "H" 
			},
			{
				"x": -3.5578904888,
				"y": 1.2347920758,
				"z": -1.8252779673,
				"element": "H" 
			},
			{
				"x": 2.6755585014,
				"y": -0.9286050387,
				"z": 0.1408731209,
				"element": "H" 
			},
			{
				"x": 2.2074948669,
				"y": -0.1871521719,
				"z": 2.3254405933,
				"element": "H" 
			},
			{
				"x": 0.4687362082,
				"y": -0.3239490617,
				"z": 2.0970293881,
				"element": "H" 
			},
			{
				"x": 0.9028529044,
				"y": -2.2795977513,
				"z": 3.4999504124,
				"element": "H" 
			},
			{
				"x": 2.4128247993,
				"y": -2.6177885687,
				"z": 2.6603975496,
				"element": "H" 
			},
			{
				"x": 0.8213019705,
				"y": -4.1453067475,
				"z": 1.5991008696,
				"element": "H" 
			},
			{
				"x": -2.522789486,
				"y": -3.2697195761,
				"z": 2.3493176944,
				"element": "H" 
			}
		],
		 "valence_orbital": [ 
			{
				"type": "occ",
				"energy": -0.28905,
				"method": "rhf"
			},
			{
				"type": "occ",
				"energy": -0.28469,
				"method": "rhf"
			},
			{
				"type": "occ",
				"energy": -0.28246,
				"method": "rhf"
			},
			{
				"type": "occ",
				"energy": -0.27994,
				"method": "rhf"
			},
			{
				"type": "occ",
				"energy": -0.23238,
				"method": "rhf"
			},
			{
				"type": "unocc",
				"energy": -0.0101,
				"method": "rhf"
			},
			{
				"type": "unocc",
				"energy": 0.00376,
				"method": "rhf"
			},
			{
				"type": "unocc",
				"energy": 0.06421,
				"method": "rhf"
			},
			{
				"type": "unocc",
				"energy": 0.07212,
				"method": "rhf"
			},
			{
				"type": "unocc",
				"energy": 0.07588,
				"method": "rhf"
			}
		],
		"cosmo_sigma_profile": { 
			"-0.025": 0.0,
			"-0.024": 0.0,
			"-0.023": 0.0,
			"-0.022": 0.0,
			"-0.021": 0.0,
			"-0.02": 0.0,
			"-0.019": 0.0,
			"-0.018": 0.0,
			"-0.017": 0.0,
			"-0.016": 0.0,
			"-0.015": 0.0,
			"-0.014": 0.0,
			"-0.013": 0.0,
			"-0.012": 0.0,
			"-0.011": 0.0,
			"-0.01": 0.0,
			"-0.009": 0.94986837885,
			"-0.008": 2.74031361562,
			"-0.007": 2.07839767236,
			"-0.006": 3.4634351555,
			"-0.005": 8.64833130573,
			"-0.004": 17.4750943291,
			"-0.003": 40.2425107782,
			"-0.002": 65.7093688715,
			"-0.001": 60.5503269952,
			"0.0": 49.6888989007,
			"0.001": 36.3361142175,
			"0.002": 12.8459167365,
			"0.003": 4.9916160592,
			"0.004": 5.08906765008,
			"0.005": 3.14824093212,
			"0.006": 3.27564782742,
			"0.007": 2.76985360884,
			"0.008": 2.98489183307,
			"0.009": 3.36002928283,
			"0.01": 3.72421203047,
			"0.011": 6.74033593737,
			"0.012": 7.88229200754,
			"0.013": 4.61572418669,
			"0.014": 1.50321661429,
			"0.015": 0.0155681201939,
			"0.016": 0.0,
			"0.017": 0.0,
			"0.018": 0.0,
			"0.019": 0.0,
			"0.02": 0.0,
			"0.021": 0.0,
			"0.022": 0.0,
			"0.023": 0.0,
			"0.024": 0.0,
			"0.025": 0.0
		}
	}
}
