{
	 "smiles": "OC(=O)C1=NN(C=C1O)C1=C(F)C=C(F)C=C1", 
	 "Tm": 477.15, 
	 "num_atms": 23, 
	 "gaussian": { 
		 "optdone": 1, 
		 "sigma_profile": "yes", 
		 "theory": "DFT", 
		 "functional": "B3LYP", 
		 "basiset": "6-31G**", 
		 "properties": { 
			 "R2extent": 5416.5749, 
			 "electric_dipole_moment_norm": 7.67822491465, 
			 "electric_quadrupole_moment_norm": 35.8368109914, 
			 "total_energy": -919.484377135, 
			 "HOMO_LUMO_gap": 0.17481, 
			 "cosmo_polarized_energy": -23.07, 
			 "cosmo_cavitation_energy": 30.04, 
			 "cosmo_dispersion_energy": -21.83, 
			 "cosmo_repulsion_energy": 1.62, 
			 "cosmo_total_nonelectrostatic_energy": 9.83, 
			 "SMD_solvation_energy": 7.69 
		},
		"coords": [
			{
				"x": -2.5058672807,
				"y": 1.3699847536,
				"z": 3.5216695882,
				"element": "O" 
			},
			{
				"x": -2.431824612,
				"y": 0.0203273066,
				"z": 3.4586964272,
				"element": "C" 
			},
			{
				"x": -3.1544509145,
				"y": -0.6955514267,
				"z": 4.1102893851,
				"element": "O" 
			},
			{
				"x": -1.3904904392,
				"y": -0.480132227,
				"z": 2.5256756403,
				"element": "C" 
			},
			{
				"x": -0.64481088,
				"y": 0.3989073398,
				"z": 1.8535951612,
				"element": "N" 
			},
			{
				"x": 0.2003059999,
				"y": -0.3192122521,
				"z": 1.097288158,
				"element": "N" 
			},
			{
				"x": 0.0043121463,
				"y": -1.6757583528,
				"z": 1.2775787141,
				"element": "C" 
			},
			{
				"x": -1.0175229442,
				"y": -1.8103528168,
				"z": 2.1951899692,
				"element": "C" 
			},
			{
				"x": -1.5835991595,
				"y": -2.9238719599,
				"z": 2.7068011454,
				"element": "O" 
			},
			{
				"x": 1.1491913622,
				"y": 0.3004595882,
				"z": 0.2442028034,
				"element": "C" 
			},
			{
				"x": 1.2717868674,
				"y": 1.6985482341,
				"z": 0.1270290674,
				"element": "C" 
			},
			{
				"x": 0.4896678461,
				"y": 2.5339432565,
				"z": 0.8227307075,
				"element": "F" 
			},
			{
				"x": 2.2112090436,
				"y": 2.2791674163,
				"z": -0.7171519822,
				"element": "C" 
			},
			{
				"x": 3.0472652725,
				"y": 1.4597537933,
				"z": -1.4614486704,
				"element": "C" 
			},
			{
				"x": 3.9551269548,
				"y": 2.0220916761,
				"z": -2.2773104495,
				"element": "F" 
			},
			{
				"x": 2.9633046538,
				"y": 0.0756869954,
				"z": -1.3790285891,
				"element": "C" 
			},
			{
				"x": 2.0168786129,
				"y": -0.4869625429,
				"z": -0.5286069766,
				"element": "C" 
			},
			{
				"x": -1.8365864706,
				"y": 1.7424779824,
				"z": 2.9196068251,
				"element": "H" 
			},
			{
				"x": 0.5802406872,
				"y": -2.4262611502,
				"z": 0.7628416114,
				"element": "H" 
			},
			{
				"x": -1.1606508815,
				"y": -3.7059764535,
				"z": 2.3295783248,
				"element": "H" 
			},
			{
				"x": 2.2759924806,
				"y": 3.3584932742,
				"z": -0.7808613855,
				"element": "H" 
			},
			{
				"x": 3.6265045876,
				"y": -0.5451746804,
				"z": -1.9695522533,
				"element": "H" 
			},
			{
				"x": 1.9592170671,
				"y": -1.566287754,
				"z": -0.4710132219,
				"element": "H" 
			}
		],
		 "valence_orbital": [ 
			{
				"type": "occ",
				"energy": -0.29896,
				"method": "rhf"
			},
			{
				"type": "occ",
				"energy": -0.28215,
				"method": "rhf"
			},
			{
				"type": "occ",
				"energy": -0.26367,
				"method": "rhf"
			},
			{
				"type": "occ",
				"energy": -0.26239,
				"method": "rhf"
			},
			{
				"type": "occ",
				"energy": -0.23346,
				"method": "rhf"
			},
			{
				"type": "unocc",
				"energy": -0.05865,
				"method": "rhf"
			},
			{
				"type": "unocc",
				"energy": -0.03617,
				"method": "rhf"
			},
			{
				"type": "unocc",
				"energy": -0.00491,
				"method": "rhf"
			},
			{
				"type": "unocc",
				"energy": 0.02817,
				"method": "rhf"
			},
			{
				"type": "unocc",
				"energy": 0.04271,
				"method": "rhf"
			}
		],
		"cosmo_sigma_profile": { 
			"-0.025": 0.0,
			"-0.024": 0.0,
			"-0.023": 0.0,
			"-0.022": 0.0,
			"-0.021": 0.0,
			"-0.02": 0.120772723802,
			"-0.019": 1.26061458763,
			"-0.018": 1.05883852249,
			"-0.017": 1.25511118738,
			"-0.016": 1.33287257887,
			"-0.015": 0.886283190651,
			"-0.014": 0.636664796767,
			"-0.013": 2.02927588353,
			"-0.012": 3.33535122971,
			"-0.011": 4.11974007405,
			"-0.01": 3.4398099588,
			"-0.009": 3.75206526179,
			"-0.008": 5.36004653917,
			"-0.007": 8.77903297226,
			"-0.006": 6.82602251553,
			"-0.005": 6.21093367509,
			"-0.004": 7.11599570834,
			"-0.003": 9.21199163791,
			"-0.002": 14.0746367404,
			"-0.001": 22.2961232831,
			"0.0": 29.3877502863,
			"0.001": 21.687719694,
			"0.002": 13.5850720809,
			"0.003": 16.0601662989,
			"0.004": 14.5432374204,
			"0.005": 4.92501757659,
			"0.006": 4.6621560697,
			"0.007": 3.07760788781,
			"0.008": 3.50374849791,
			"0.009": 4.53433152302,
			"0.01": 5.81025716283,
			"0.011": 6.35466610043,
			"0.012": 6.31950706027,
			"0.013": 3.87755527983,
			"0.014": 1.20519122272,
			"0.015": 0.0154372492002,
			"0.016": 0.0,
			"0.017": 0.0,
			"0.018": 0.0,
			"0.019": 0.0,
			"0.02": 0.0,
			"0.021": 0.0,
			"0.022": 0.0,
			"0.023": 0.0,
			"0.024": 0.0,
			"0.025": 0.0
		}
	}
}
