{
	 "smiles": "COC(=O)C1=CC(OC2CCCC2)=C(OC)C=C1", 
	 "Tm": 333.15, 
	 "num_atms": 36, 
	 "gaussian": { 
		 "optdone": 1, 
		 "sigma_profile": "yes", 
		 "theory": "DFT", 
		 "functional": "B3LYP", 
		 "basiset": "6-31G**", 
		 "properties": { 
			 "R2extent": 7247.8249, 
			 "electric_dipole_moment_norm": 3.92005317056, 
			 "electric_quadrupole_moment_norm": 12.5022477619, 
			 "total_energy": -845.227914636, 
			 "HOMO_LUMO_gap": 0.18745, 
			 "cosmo_polarized_energy": -11.69, 
			 "cosmo_cavitation_energy": 38.7, 
			 "cosmo_dispersion_energy": -27.41, 
			 "cosmo_repulsion_energy": 2.16, 
			 "cosmo_total_nonelectrostatic_energy": 13.45, 
			 "SMD_solvation_energy": 8.36 
		},
		"coords": [
			{
				"x": 1.747980785,
				"y": -5.3168762089,
				"z": 3.8160622984,
				"element": "C" 
			},
			{
				"x": 1.6157507414,
				"y": -4.7758871278,
				"z": 2.4946506687,
				"element": "O" 
			},
			{
				"x": 1.0197085356,
				"y": -3.558815262,
				"z": 2.4290183715,
				"element": "C" 
			},
			{
				"x": 0.6258548222,
				"y": -2.9654870728,
				"z": 3.4156403932,
				"element": "O" 
			},
			{
				"x": 0.9116485797,
				"y": -3.0533751134,
				"z": 1.0374640065,
				"element": "C" 
			},
			{
				"x": 0.3102902585,
				"y": -1.7998774712,
				"z": 0.838576221,
				"element": "C" 
			},
			{
				"x": 0.1729977935,
				"y": -1.2652072441,
				"z": -0.4335799118,
				"element": "C" 
			},
			{
				"x": -0.4900193984,
				"y": -0.0761911233,
				"z": -0.6002597233,
				"element": "O" 
			},
			{
				"x": 0.2906214605,
				"y": 1.0581695511,
				"z": -1.0172417217,
				"element": "C" 
			},
			{
				"x": -0.6599284558,
				"y": 2.1716739166,
				"z": -1.4777794856,
				"element": "C" 
			},
			{
				"x": 0.1179379323,
				"y": 3.497116795,
				"z": -1.2519110753,
				"element": "C" 
			},
			{
				"x": 1.401062555,
				"y": 3.1083253258,
				"z": -0.4595094285,
				"element": "C" 
			},
			{
				"x": 1.1065060481,
				"y": 1.7098319138,
				"z": 0.1078953294,
				"element": "C" 
			},
			{
				"x": 0.6413009755,
				"y": -2.001171423,
				"z": -1.5518335856,
				"element": "C" 
			},
			{
				"x": 0.4471747353,
				"y": -1.4224862254,
				"z": -2.7678443254,
				"element": "O" 
			},
			{
				"x": 0.8608547153,
				"y": -2.1308591782,
				"z": -3.9276883291,
				"element": "C" 
			},
			{
				"x": 1.2513229769,
				"y": -3.2451474239,
				"z": -1.3527768077,
				"element": "C" 
			},
			{
				"x": 1.3850265212,
				"y": -3.7678416116,
				"z": -0.0663863388,
				"element": "C" 
			},
			{
				"x": 2.2384076955,
				"y": -6.282678611,
				"z": 3.6918334369,
				"element": "H" 
			},
			{
				"x": 2.352353174,
				"y": -4.6583554091,
				"z": 4.4454161852,
				"element": "H" 
			},
			{
				"x": 0.7675328556,
				"y": -5.4422489073,
				"z": 4.2828958244,
				"element": "H" 
			},
			{
				"x": -0.0634410902,
				"y": -1.243320864,
				"z": 1.6904111627,
				"element": "H" 
			},
			{
				"x": 0.9536771657,
				"y": 0.7564200646,
				"z": -1.8365507856,
				"element": "H" 
			},
			{
				"x": -0.9894332835,
				"y": 2.0304280474,
				"z": -2.5106691191,
				"element": "H" 
			},
			{
				"x": -1.5520536292,
				"y": 2.126154112,
				"z": -0.8438911785,
				"element": "H" 
			},
			{
				"x": -0.4916833457,
				"y": 4.208046705,
				"z": -0.6858114724,
				"element": "H" 
			},
			{
				"x": 0.3716789041,
				"y": 3.9879347605,
				"z": -2.1964083477,
				"element": "H" 
			},
			{
				"x": 1.6552729925,
				"y": 3.8347234269,
				"z": 0.3178693784,
				"element": "H" 
			},
			{
				"x": 2.2605430301,
				"y": 3.0576520884,
				"z": -1.1387256456,
				"element": "H" 
			},
			{
				"x": 0.4722007689,
				"y": 1.776759868,
				"z": 1.0007230791,
				"element": "H" 
			},
			{
				"x": 2.0059318007,
				"y": 1.1474667381,
				"z": 0.376118481,
				"element": "H" 
			},
			{
				"x": 0.3431730083,
				"y": -3.0939155474,
				"z": -4.0157418851,
				"element": "H" 
			},
			{
				"x": 0.5926764275,
				"y": -1.4989954861,
				"z": -4.7754283762,
				"element": "H" 
			},
			{
				"x": 1.9446287624,
				"y": -2.3024153279,
				"z": -3.9322744701,
				"element": "H" 
			},
			{
				"x": 1.6158240499,
				"y": -3.8168552659,
				"z": -2.1978459826,
				"element": "H" 
			},
			{
				"x": 1.8540191316,
				"y": -4.7338954089,
				"z": 0.0779831595,
				"element": "H" 
			}
		],
		 "valence_orbital": [ 
			{
				"type": "occ",
				"energy": -0.29363,
				"method": "rhf"
			},
			{
				"type": "occ",
				"energy": -0.26898,
				"method": "rhf"
			},
			{
				"type": "occ",
				"energy": -0.26431,
				"method": "rhf"
			},
			{
				"type": "occ",
				"energy": -0.24413,
				"method": "rhf"
			},
			{
				"type": "occ",
				"energy": -0.21961,
				"method": "rhf"
			},
			{
				"type": "unocc",
				"energy": -0.03216,
				"method": "rhf"
			},
			{
				"type": "unocc",
				"energy": 0.00016,
				"method": "rhf"
			},
			{
				"type": "unocc",
				"energy": 0.06935,
				"method": "rhf"
			},
			{
				"type": "unocc",
				"energy": 0.0817,
				"method": "rhf"
			},
			{
				"type": "unocc",
				"energy": 0.08711,
				"method": "rhf"
			}
		],
		"cosmo_sigma_profile": { 
			"-0.025": 0.0,
			"-0.024": 0.0,
			"-0.023": 0.0,
			"-0.022": 0.0,
			"-0.021": 0.0,
			"-0.02": 0.0,
			"-0.019": 0.0,
			"-0.018": 0.0,
			"-0.017": 0.0,
			"-0.016": 0.0,
			"-0.015": 0.0,
			"-0.014": 0.0,
			"-0.013": 0.0,
			"-0.012": 0.0,
			"-0.011": 0.0,
			"-0.01": 0.0,
			"-0.009": 0.0,
			"-0.008": 0.0921720362226,
			"-0.007": 3.06201410566,
			"-0.006": 13.9189033137,
			"-0.005": 17.8619436331,
			"-0.004": 21.4033261091,
			"-0.003": 31.4818016446,
			"-0.002": 36.7437091488,
			"-0.001": 35.8734012319,
			"0.0": 27.2094680367,
			"0.001": 30.1162586817,
			"0.002": 19.6052802056,
			"0.003": 17.729324329,
			"0.004": 11.4797931379,
			"0.005": 6.33908426461,
			"0.006": 5.89242934974,
			"0.007": 3.47955909644,
			"0.008": 3.38601984378,
			"0.009": 4.07170955725,
			"0.01": 4.33432240545,
			"0.011": 3.93371177383,
			"0.012": 5.04326127965,
			"0.013": 1.30370065137,
			"0.014": 0.0,
			"0.015": 0.0,
			"0.016": 0.0,
			"0.017": 0.0,
			"0.018": 0.0,
			"0.019": 0.0,
			"0.02": 0.0,
			"0.021": 0.0,
			"0.022": 0.0,
			"0.023": 0.0,
			"0.024": 0.0,
			"0.025": 0.0
		}
	}
}
