{
	 "smiles": "BrC1=CC=CC(Br)=C1Br", 
	 "Tm": 360.65, 
	 "num_atms": 12, 
	 "gaussian": { 
		 "optdone": 1, 
		 "sigma_profile": "yes", 
		 "theory": "DFT", 
		 "functional": "B3LYP", 
		 "basiset": "6-31G**", 
		 "properties": { 
			 "R2extent": 4113.4152, 
			 "electric_dipole_moment_norm": 2.38543764748, 
			 "electric_quadrupole_moment_norm": 3.98527261426, 
			 "total_energy": -7944.64665886, 
			 "HOMO_LUMO_gap": 0.21001, 
			 "cosmo_polarized_energy": -4.45, 
			 "cosmo_cavitation_energy": 22.86, 
			 "cosmo_dispersion_energy": -18.28, 
			 "cosmo_repulsion_energy": 1.48, 
			 "cosmo_total_nonelectrostatic_energy": 6.05, 
			 "SMD_solvation_energy": 0.82 
		},
		"coords": [
			{
				"x": 0.1197318814,
				"y": -2.7101399062,
				"z": -1.0161792051,
				"element": "Br" 
			},
			{
				"x": 0.2553910974,
				"y": -0.9340267035,
				"z": -0.3478140718,
				"element": "C" 
			},
			{
				"x": 0.9540588029,
				"y": -0.7494130271,
				"z": 0.8455049673,
				"element": "C" 
			},
			{
				"x": 1.0859176048,
				"y": 0.5278739271,
				"z": 1.3823736741,
				"element": "C" 
			},
			{
				"x": 0.5223955211,
				"y": 1.6213661609,
				"z": 0.7313691418,
				"element": "C" 
			},
			{
				"x": -0.1762030173,
				"y": 1.436669079,
				"z": -0.4619830831,
				"element": "C" 
			},
			{
				"x": -0.9161432346,
				"y": 2.9813163372,
				"z": -1.2904716258,
				"element": "Br" 
			},
			{
				"x": -0.3210999371,
				"y": 0.1559976398,
				"z": -1.0208804348,
				"element": "C" 
			},
			{
				"x": -1.2693396081,
				"y": -0.0947565427,
				"z": -2.6404469853,
				"element": "Br" 
			},
			{
				"x": 1.3880122625,
				"y": -1.6087789148,
				"z": 1.3423550645,
				"element": "H" 
			},
			{
				"x": 1.6294420274,
				"y": 0.6715281367,
				"z": 2.3107014506,
				"element": "H" 
			},
			{
				"x": 0.6179365997,
				"y": 2.6206638137,
				"z": 1.1387711075,
				"element": "H" 
			}
		],
		 "valence_orbital": [ 
			{
				"type": "occ",
				"energy": -0.30346,
				"method": "rhf"
			},
			{
				"type": "occ",
				"energy": -0.30093,
				"method": "rhf"
			},
			{
				"type": "occ",
				"energy": -0.27197,
				"method": "rhf"
			},
			{
				"type": "occ",
				"energy": -0.25432,
				"method": "rhf"
			},
			{
				"type": "occ",
				"energy": -0.25357,
				"method": "rhf"
			},
			{
				"type": "unocc",
				"energy": -0.04356,
				"method": "rhf"
			},
			{
				"type": "unocc",
				"energy": -0.03551,
				"method": "rhf"
			},
			{
				"type": "unocc",
				"energy": -0.03502,
				"method": "rhf"
			},
			{
				"type": "unocc",
				"energy": 0.01958,
				"method": "rhf"
			},
			{
				"type": "unocc",
				"energy": 0.0352,
				"method": "rhf"
			}
		],
		"cosmo_sigma_profile": { 
			"-0.025": 0.0,
			"-0.024": 0.0,
			"-0.023": 0.0,
			"-0.022": 0.0,
			"-0.021": 0.0,
			"-0.02": 0.0,
			"-0.019": 0.0,
			"-0.018": 0.0,
			"-0.017": 0.0,
			"-0.016": 0.0,
			"-0.015": 0.0,
			"-0.014": 0.0,
			"-0.013": 0.0,
			"-0.012": 0.0,
			"-0.011": 0.0,
			"-0.01": 0.0,
			"-0.009": 0.051912654146,
			"-0.008": 4.1794030812,
			"-0.007": 7.026574435,
			"-0.006": 7.08589606172,
			"-0.005": 8.44471624663,
			"-0.004": 8.4130985157,
			"-0.003": 8.70667757808,
			"-0.002": 10.5102592454,
			"-0.001": 13.4814054843,
			"0.0": 26.3549951085,
			"0.001": 25.7424414183,
			"0.002": 20.5912564315,
			"0.003": 23.3104267564,
			"0.004": 23.7525774257,
			"0.005": 6.17823483167,
			"0.006": 0.0122313937181,
			"0.007": 0.0,
			"0.008": 0.0,
			"0.009": 0.0,
			"0.01": 0.0,
			"0.011": 0.0,
			"0.012": 0.0,
			"0.013": 0.0,
			"0.014": 0.0,
			"0.015": 0.0,
			"0.016": 0.0,
			"0.017": 0.0,
			"0.018": 0.0,
			"0.019": 0.0,
			"0.02": 0.0,
			"0.021": 0.0,
			"0.022": 0.0,
			"0.023": 0.0,
			"0.024": 0.0,
			"0.025": 0.0
		}
	}
}
