{
	 "smiles": "OC(=O)CC1=CC=CC=C1O", 
	 "Tm": 421.15, 
	 "num_atms": 19, 
	 "gaussian": { 
		 "optdone": 1, 
		 "sigma_profile": "yes", 
		 "theory": "DFT", 
		 "functional": "B3LYP", 
		 "basiset": "6-31G**", 
		 "properties": { 
			 "R2extent": 2221.0442, 
			 "electric_dipole_moment_norm": 1.39489181659, 
			 "electric_quadrupole_moment_norm": 11.8944323639, 
			 "total_energy": -535.357136366, 
			 "HOMO_LUMO_gap": 0.21797, 
			 "cosmo_polarized_energy": -15.06, 
			 "cosmo_cavitation_energy": 23.6, 
			 "cosmo_dispersion_energy": -17.13, 
			 "cosmo_repulsion_energy": 1.4, 
			 "cosmo_total_nonelectrostatic_energy": 7.87, 
			 "SMD_solvation_energy": 5.5 
		},
		"coords": [
			{
				"x": -4.0688464382,
				"y": -0.4680673076,
				"z": -1.2421331727,
				"element": "O" 
			},
			{
				"x": -2.8554534729,
				"y": -1.0295000872,
				"z": -1.0045856672,
				"element": "C" 
			},
			{
				"x": -2.4279204659,
				"y": -1.9542589581,
				"z": -1.6548020704,
				"element": "O" 
			},
			{
				"x": -2.1760381367,
				"y": -0.3521276535,
				"z": 0.1768110226,
				"element": "C" 
			},
			{
				"x": -0.7383278887,
				"y": -0.7577079038,
				"z": 0.3655615406,
				"element": "C" 
			},
			{
				"x": -0.3323678553,
				"y": -1.5897693473,
				"z": 1.4096722841,
				"element": "C" 
			},
			{
				"x": 1.0055646849,
				"y": -1.9559896852,
				"z": 1.5756126669,
				"element": "C" 
			},
			{
				"x": 1.9607394721,
				"y": -1.4804982689,
				"z": 0.6787538743,
				"element": "C" 
			},
			{
				"x": 1.5806762301,
				"y": -0.6437600789,
				"z": -0.3716849548,
				"element": "C" 
			},
			{
				"x": 0.2399225548,
				"y": -0.2857499813,
				"z": -0.5267439888,
				"element": "C" 
			},
			{
				"x": -0.1903189803,
				"y": 0.5396034248,
				"z": -1.5301606031,
				"element": "O" 
			},
			{
				"x": -4.4479002492,
				"y": -0.9613253068,
				"z": -1.9887067632,
				"element": "H" 
			},
			{
				"x": -2.7655721523,
				"y": -0.5950251642,
				"z": 1.0686588821,
				"element": "H" 
			},
			{
				"x": -2.2717778657,
				"y": 0.728895048,
				"z": 0.0291855229,
				"element": "H" 
			},
			{
				"x": -1.0823974852,
				"y": -1.9593563676,
				"z": 2.1046570445,
				"element": "H" 
			},
			{
				"x": 1.29564756,
				"y": -2.6055973244,
				"z": 2.3952622707,
				"element": "H" 
			},
			{
				"x": 3.0054194393,
				"y": -1.7552720831,
				"z": 0.7919695797,
				"element": "H" 
			},
			{
				"x": 2.3239870867,
				"y": -0.2681670163,
				"z": -1.0721866011,
				"element": "H" 
			},
			{
				"x": 0.5547639626,
				"y": 0.7585740614,
				"z": -2.104040867,
				"element": "H" 
			}
		],
		 "valence_orbital": [ 
			{
				"type": "occ",
				"energy": -0.33255,
				"method": "rhf"
			},
			{
				"type": "occ",
				"energy": -0.3115,
				"method": "rhf"
			},
			{
				"type": "occ",
				"energy": -0.26941,
				"method": "rhf"
			},
			{
				"type": "occ",
				"energy": -0.24691,
				"method": "rhf"
			},
			{
				"type": "occ",
				"energy": -0.2199,
				"method": "rhf"
			},
			{
				"type": "unocc",
				"energy": -0.00193,
				"method": "rhf"
			},
			{
				"type": "unocc",
				"energy": 0.01255,
				"method": "rhf"
			},
			{
				"type": "unocc",
				"energy": 0.01989,
				"method": "rhf"
			},
			{
				"type": "unocc",
				"energy": 0.06856,
				"method": "rhf"
			},
			{
				"type": "unocc",
				"energy": 0.08405,
				"method": "rhf"
			}
		],
		"cosmo_sigma_profile": { 
			"-0.025": 0.0,
			"-0.024": 0.0,
			"-0.023": 0.0,
			"-0.022": 0.0,
			"-0.021": 0.0,
			"-0.02": 0.0,
			"-0.019": 0.0,
			"-0.018": 0.795602681089,
			"-0.017": 2.50954840246,
			"-0.016": 1.78096569939,
			"-0.015": 1.64191522248,
			"-0.014": 1.82742134172,
			"-0.013": 1.88858791026,
			"-0.012": 1.29216472078,
			"-0.011": 1.48930007821,
			"-0.01": 1.96891827611,
			"-0.009": 1.95780801342,
			"-0.008": 1.26133691921,
			"-0.007": 5.59818974174,
			"-0.006": 9.61604273184,
			"-0.005": 11.5547643335,
			"-0.004": 11.6901855212,
			"-0.003": 13.4236271157,
			"-0.002": 8.71085234715,
			"-0.001": 9.69029336317,
			"0.0": 8.25294436223,
			"0.001": 8.54904678521,
			"0.002": 8.88216616239,
			"0.003": 9.59756290226,
			"0.004": 10.310649618,
			"0.005": 10.9177672469,
			"0.006": 11.1692977785,
			"0.007": 6.12467261835,
			"0.008": 5.00187470439,
			"0.009": 5.84776585901,
			"0.01": 3.94761186377,
			"0.011": 4.22458095898,
			"0.012": 4.7043526452,
			"0.013": 0.829780702361,
			"0.014": 0.0,
			"0.015": 0.0,
			"0.016": 0.0,
			"0.017": 0.0,
			"0.018": 0.0,
			"0.019": 0.0,
			"0.02": 0.0,
			"0.021": 0.0,
			"0.022": 0.0,
			"0.023": 0.0,
			"0.024": 0.0,
			"0.025": 0.0
		}
	}
}
