{
	 "smiles": "OC(=O)C1=NN(C=C1)C1=CC(Cl)=CC=C1", 
	 "Tm": 417.15, 
	 "num_atms": 22, 
	 "gaussian": { 
		 "optdone": 1, 
		 "sigma_profile": "yes", 
		 "theory": "DFT", 
		 "functional": "B3LYP", 
		 "basiset": "6-31G**", 
		 "properties": { 
			 "R2extent": 5245.3832, 
			 "electric_dipole_moment_norm": 1.93060308971, 
			 "electric_quadrupole_moment_norm": 13.9031373495, 
			 "total_energy": -1105.41678622, 
			 "HOMO_LUMO_gap": 0.18709, 
			 "cosmo_polarized_energy": -14.7, 
			 "cosmo_cavitation_energy": 29.62, 
			 "cosmo_dispersion_energy": -21.9, 
			 "cosmo_repulsion_energy": 1.7, 
			 "cosmo_total_nonelectrostatic_energy": 9.42, 
			 "SMD_solvation_energy": 5.75 
		},
		"coords": [
			{
				"x": -1.4077542368,
				"y": -2.8236831895,
				"z": -2.8756368841,
				"element": "O" 
			},
			{
				"x": -0.4457300154,
				"y": -1.9105918969,
				"z": -2.577741639,
				"element": "C" 
			},
			{
				"x": 0.541450088,
				"y": -1.7477279486,
				"z": -3.2594263599,
				"element": "O" 
			},
			{
				"x": -0.7829604076,
				"y": -1.1758519402,
				"z": -1.3395532884,
				"element": "C" 
			},
			{
				"x": 0.0430225334,
				"y": -0.2333894492,
				"z": -0.8833722937,
				"element": "N" 
			},
			{
				"x": -0.5423690423,
				"y": 0.2321812347,
				"z": 0.2355983752,
				"element": "N" 
			},
			{
				"x": -1.7326248335,
				"y": -0.404141997,
				"z": 0.4967175625,
				"element": "C" 
			},
			{
				"x": -1.920276304,
				"y": -1.3240070678,
				"z": -0.5049724901,
				"element": "C" 
			},
			{
				"x": 0.0915606711,
				"y": 1.2659172919,
				"z": 0.9807280833,
				"element": "C" 
			},
			{
				"x": -0.5038500241,
				"y": 1.7608562926,
				"z": 2.1457356916,
				"element": "C" 
			},
			{
				"x": 0.1432312055,
				"y": 2.7728650735,
				"z": 2.851464964,
				"element": "C" 
			},
			{
				"x": -0.6076105388,
				"y": 3.3920215879,
				"z": 4.314214383,
				"element": "Cl" 
			},
			{
				"x": 1.3608675418,
				"y": 3.3009480423,
				"z": 2.4285346748,
				"element": "C" 
			},
			{
				"x": 1.9350713206,
				"y": 2.7905768951,
				"z": 1.2629291793,
				"element": "C" 
			},
			{
				"x": 1.314784592,
				"y": 1.7795107624,
				"z": 0.5343016625,
				"element": "C" 
			},
			{
				"x": -1.1134971747,
				"y": -3.2576399126,
				"z": -3.693331932,
				"element": "H" 
			},
			{
				"x": -2.3413192118,
				"y": -0.1618729008,
				"z": 1.3526394745,
				"element": "H" 
			},
			{
				"x": -2.7456939802,
				"y": -2.0065780538,
				"z": -0.6309249044,
				"element": "H" 
			},
			{
				"x": -1.448594371,
				"y": 1.3815575557,
				"z": 2.5125594829,
				"element": "H" 
			},
			{
				"x": 1.8428171974,
				"y": 4.0880289473,
				"z": 2.9965792055,
				"element": "H" 
			},
			{
				"x": 2.8838052947,
				"y": 3.1891304844,
				"z": 0.9169758935,
				"element": "H" 
			},
			{
				"x": 1.7549696958,
				"y": 1.3798901887,
				"z": -0.369918841,
				"element": "H" 
			}
		],
		 "valence_orbital": [ 
			{
				"type": "occ",
				"energy": -0.30443,
				"method": "rhf"
			},
			{
				"type": "occ",
				"energy": -0.2769,
				"method": "rhf"
			},
			{
				"type": "occ",
				"energy": -0.27192,
				"method": "rhf"
			},
			{
				"type": "occ",
				"energy": -0.26274,
				"method": "rhf"
			},
			{
				"type": "occ",
				"energy": -0.24273,
				"method": "rhf"
			},
			{
				"type": "unocc",
				"energy": -0.05564,
				"method": "rhf"
			},
			{
				"type": "unocc",
				"energy": -0.02774,
				"method": "rhf"
			},
			{
				"type": "unocc",
				"energy": -0.01221,
				"method": "rhf"
			},
			{
				"type": "unocc",
				"energy": 0.01783,
				"method": "rhf"
			},
			{
				"type": "unocc",
				"energy": 0.02794,
				"method": "rhf"
			}
		],
		"cosmo_sigma_profile": { 
			"-0.025": 0.0,
			"-0.024": 0.0,
			"-0.023": 0.0,
			"-0.022": 0.0,
			"-0.021": 0.0,
			"-0.02": 0.0,
			"-0.019": 0.177806335515,
			"-0.018": 0.745756812194,
			"-0.017": 0.941148270911,
			"-0.016": 0.812201668785,
			"-0.015": 1.09718567072,
			"-0.014": 0.597785181614,
			"-0.013": 0.601542919544,
			"-0.012": 2.24133399645,
			"-0.011": 2.52981284799,
			"-0.01": 2.74951194071,
			"-0.009": 2.23423154667,
			"-0.008": 4.53052424909,
			"-0.007": 9.15279315026,
			"-0.006": 10.1382495463,
			"-0.005": 10.5117452389,
			"-0.004": 8.47404044261,
			"-0.003": 11.9404068237,
			"-0.002": 13.3281646318,
			"-0.001": 16.3355489076,
			"0.0": 19.5653847947,
			"0.001": 27.3678195051,
			"0.002": 26.7803570224,
			"0.003": 18.0935042221,
			"0.004": 14.4769378751,
			"0.005": 7.30945184709,
			"0.006": 2.94470245557,
			"0.007": 4.45610778376,
			"0.008": 2.82074795788,
			"0.009": 2.76785934296,
			"0.01": 2.65983567354,
			"0.011": 5.42524521795,
			"0.012": 4.19597366087,
			"0.013": 2.42852517333,
			"0.014": 0.791377786242,
			"0.015": 0.0,
			"0.016": 0.0,
			"0.017": 0.0,
			"0.018": 0.0,
			"0.019": 0.0,
			"0.02": 0.0,
			"0.021": 0.0,
			"0.022": 0.0,
			"0.023": 0.0,
			"0.024": 0.0,
			"0.025": 0.0
		}
	}
}
