{
	 "smiles": "COC1=C(I)N=C(C=C1)C(O)=O", 
	 "Tm": 463.15, 
	 "num_atms": 18, 
	 "gaussian": { 
		 "optdone": 1, 
		 "sigma_profile": "yes", 
		 "theory": "DFT", 
		 "functional": "B3LYP", 
		 "basiset": "6-31G**", 
		 "properties": { 
			 "R2extent": 3293.142, 
			 "electric_dipole_moment_norm": 6.58994232221, 
			 "electric_quadrupole_moment_norm": 11.0670699731, 
			 "total_energy": -562.167241097, 
			 "HOMO_LUMO_gap": 0.18651, 
			 "cosmo_polarized_energy": -14.28, 
			 "cosmo_cavitation_energy": 26.22, 
			 "cosmo_dispersion_energy": -20.7, 
			 "cosmo_repulsion_energy": 1.63, 
			 "cosmo_total_nonelectrostatic_energy": 7.15, 
			 "SMD_solvation_energy": 5.01 
		},
		"coords": [
			{
				"x": 2.4596895437,
				"y": -1.170368555,
				"z": 0.9860768918,
				"element": "C" 
			},
			{
				"x": 1.6639729167,
				"y": -0.3691516542,
				"z": 1.8571896484,
				"element": "O" 
			},
			{
				"x": 0.5862013656,
				"y": 0.260308974,
				"z": 1.3562732158,
				"element": "C" 
			},
			{
				"x": -0.1859651288,
				"y": 1.0497903873,
				"z": 2.245310687,
				"element": "C" 
			},
			{
				"x": 0.3924846687,
				"y": 1.1915849189,
				"z": 4.2839811639,
				"element": "I" 
			},
			{
				"x": -1.2581139949,
				"y": 1.7088993128,
				"z": 1.8678621608,
				"element": "N" 
			},
			{
				"x": -1.6591918649,
				"y": 1.6455148342,
				"z": 0.5839166537,
				"element": "C" 
			},
			{
				"x": -0.9747022534,
				"y": 0.9007012139,
				"z": -0.3697116692,
				"element": "C" 
			},
			{
				"x": 0.1630291631,
				"y": 0.1989988617,
				"z": 0.0222163114,
				"element": "C" 
			},
			{
				"x": -2.8935588401,
				"y": 2.426016672,
				"z": 0.2295052202,
				"element": "C" 
			},
			{
				"x": -3.4379142696,
				"y": 3.0921931223,
				"z": 1.2604381586,
				"element": "O" 
			},
			{
				"x": -3.354912186,
				"y": 2.4497497321,
				"z": -0.8897901471,
				"element": "O" 
			},
			{
				"x": 2.889888542,
				"y": -0.5698856523,
				"z": 0.1761539127,
				"element": "H" 
			},
			{
				"x": 1.8767934897,
				"y": -1.9967970452,
				"z": 0.5631421754,
				"element": "H" 
			},
			{
				"x": 3.2607416444,
				"y": -1.5707696262,
				"z": 1.6067997218,
				"element": "H" 
			},
			{
				"x": -1.3384242902,
				"y": 0.8821303002,
				"z": -1.3904501252,
				"element": "H" 
			},
			{
				"x": 0.7146129954,
				"y": -0.3891286981,
				"z": -0.7017694803,
				"element": "H" 
			},
			{
				"x": -2.8823315012,
				"y": 2.9104129015,
				"z": 2.0446555003,
				"element": "H" 
			}
		],
		 "valence_orbital": [ 
			{
				"type": "occ",
				"energy": -0.3064,
				"method": "rhf"
			},
			{
				"type": "occ",
				"energy": -0.28479,
				"method": "rhf"
			},
			{
				"type": "occ",
				"energy": -0.27189,
				"method": "rhf"
			},
			{
				"type": "occ",
				"energy": -0.26952,
				"method": "rhf"
			},
			{
				"type": "occ",
				"energy": -0.25077,
				"method": "rhf"
			},
			{
				"type": "unocc",
				"energy": -0.06426,
				"method": "rhf"
			},
			{
				"type": "unocc",
				"energy": -0.05207,
				"method": "rhf"
			},
			{
				"type": "unocc",
				"energy": -0.04833,
				"method": "rhf"
			},
			{
				"type": "unocc",
				"energy": 0.03573,
				"method": "rhf"
			},
			{
				"type": "unocc",
				"energy": 0.04419,
				"method": "rhf"
			}
		],
		"cosmo_sigma_profile": { 
			"-0.025": 0.0,
			"-0.024": 0.0,
			"-0.023": 0.0,
			"-0.022": 0.0,
			"-0.021": 0.0,
			"-0.02": 0.0,
			"-0.019": 0.0,
			"-0.018": 0.0,
			"-0.017": 0.0,
			"-0.016": 0.0,
			"-0.015": 0.0,
			"-0.014": 0.048246131293,
			"-0.013": 0.44136536626,
			"-0.012": 0.819691938607,
			"-0.011": 0.313239850275,
			"-0.01": 0.452797279965,
			"-0.009": 3.17352893397,
			"-0.008": 6.56867255304,
			"-0.007": 11.4412572212,
			"-0.006": 14.1516718823,
			"-0.005": 13.1867590612,
			"-0.004": 14.2298471553,
			"-0.003": 11.5841112034,
			"-0.002": 16.3272586905,
			"-0.001": 17.2066479925,
			"0.0": 14.7576289661,
			"0.001": 10.5462462344,
			"0.002": 10.9796337331,
			"0.003": 11.6064130262,
			"0.004": 17.8664399993,
			"0.005": 6.95438828754,
			"0.006": 3.35019111695,
			"0.007": 5.3571784983,
			"0.008": 4.36122738103,
			"0.009": 4.19865240166,
			"0.01": 4.99993304266,
			"0.011": 4.87152764771,
			"0.012": 4.23126242774,
			"0.013": 1.49172129807,
			"0.014": 0.0487436654582,
			"0.015": 0.0,
			"0.016": 0.0,
			"0.017": 0.0,
			"0.018": 0.0,
			"0.019": 0.0,
			"0.02": 0.0,
			"0.021": 0.0,
			"0.022": 0.0,
			"0.023": 0.0,
			"0.024": 0.0,
			"0.025": 0.0
		}
	}
}
