{
	 "smiles": "CC1=CC=C(C=C1)C(N)=O", 
	 "Tm": 434.15, 
	 "num_atms": 19, 
	 "gaussian": { 
		 "optdone": 1, 
		 "sigma_profile": "yes", 
		 "theory": "DFT", 
		 "functional": "B3LYP", 
		 "basiset": "6-31G**", 
		 "properties": { 
			 "R2extent": 2308.123, 
			 "electric_dipole_moment_norm": 3.67180692575, 
			 "electric_quadrupole_moment_norm": 15.306594213, 
			 "total_energy": -440.277829723, 
			 "HOMO_LUMO_gap": 0.20891, 
			 "cosmo_polarized_energy": -12.68, 
			 "cosmo_cavitation_energy": 22.86, 
			 "cosmo_dispersion_energy": -16.96, 
			 "cosmo_repulsion_energy": 1.38, 
			 "cosmo_total_nonelectrostatic_energy": 7.28, 
			 "SMD_solvation_energy": 4.8 
		},
		"coords": [
			{
				"x": 0.3120042431,
				"y": -3.0740902211,
				"z": 0.0331598602,
				"element": "C" 
			},
			{
				"x": 0.6831905864,
				"y": -1.6557656264,
				"z": 0.3943499469,
				"element": "C" 
			},
			{
				"x": 0.036033242,
				"y": -0.5685048885,
				"z": -0.2141743572,
				"element": "C" 
			},
			{
				"x": 0.3566146846,
				"y": 0.740159943,
				"z": 0.1276993212,
				"element": "C" 
			},
			{
				"x": 1.3490437025,
				"y": 1.0045199157,
				"z": 1.0817269899,
				"element": "C" 
			},
			{
				"x": 1.9928508725,
				"y": -0.0743066778,
				"z": 1.7007380119,
				"element": "C" 
			},
			{
				"x": 1.6620739229,
				"y": -1.3853532378,
				"z": 1.3584389479,
				"element": "C" 
			},
			{
				"x": 1.6455233913,
				"y": 2.4419755529,
				"z": 1.3947034276,
				"element": "C" 
			},
			{
				"x": 2.8264552708,
				"y": 2.6922833394,
				"z": 2.0570499796,
				"element": "N" 
			},
			{
				"x": 0.8724067794,
				"y": 3.3454270092,
				"z": 1.0988309661,
				"element": "O" 
			},
			{
				"x": 0.2597788085,
				"y": -3.2083437838,
				"z": -1.0524855048,
				"element": "H" 
			},
			{
				"x": -0.6726213224,
				"y": -3.3394286607,
				"z": 0.4371281794,
				"element": "H" 
			},
			{
				"x": 1.0356943686,
				"y": -3.791975177,
				"z": 0.4287688461,
				"element": "H" 
			},
			{
				"x": -0.7295483935,
				"y": -0.7547576776,
				"z": -0.9636129868,
				"element": "H" 
			},
			{
				"x": -0.1485990481,
				"y": 1.5825969221,
				"z": -0.3326798379,
				"element": "H" 
			},
			{
				"x": 2.7325614649,
				"y": 0.0978238023,
				"z": 2.4775287297,
				"element": "H" 
			},
			{
				"x": 2.1669689335,
				"y": -2.2111462538,
				"z": 1.8532753998,
				"element": "H" 
			},
			{
				"x": 3.5928036573,
				"y": 2.0408213364,
				"z": 1.9904790942,
				"element": "H" 
			},
			{
				"x": 3.0674648358,
				"y": 3.6691643835,
				"z": 2.1446749862,
				"element": "H" 
			}
		],
		 "valence_orbital": [ 
			{
				"type": "occ",
				"energy": -0.34095,
				"method": "rhf"
			},
			{
				"type": "occ",
				"energy": -0.26934,
				"method": "rhf"
			},
			{
				"type": "occ",
				"energy": -0.25561,
				"method": "rhf"
			},
			{
				"type": "occ",
				"energy": -0.24965,
				"method": "rhf"
			},
			{
				"type": "occ",
				"energy": -0.24214,
				"method": "rhf"
			},
			{
				"type": "unocc",
				"energy": -0.03323,
				"method": "rhf"
			},
			{
				"type": "unocc",
				"energy": -0.00607,
				"method": "rhf"
			},
			{
				"type": "unocc",
				"energy": 0.06002,
				"method": "rhf"
			},
			{
				"type": "unocc",
				"energy": 0.07963,
				"method": "rhf"
			},
			{
				"type": "unocc",
				"energy": 0.10335,
				"method": "rhf"
			}
		],
		"cosmo_sigma_profile": { 
			"-0.025": 0.0,
			"-0.024": 0.0,
			"-0.023": 0.0,
			"-0.022": 0.0,
			"-0.021": 0.0,
			"-0.02": 0.0,
			"-0.019": 0.0,
			"-0.018": 0.0,
			"-0.017": 0.0,
			"-0.016": 0.0,
			"-0.015": 0.0332660252148,
			"-0.014": 1.0220085948,
			"-0.013": 2.0705596951,
			"-0.012": 3.08194491495,
			"-0.011": 2.04540386019,
			"-0.01": 2.47129986531,
			"-0.009": 2.29317473325,
			"-0.008": 2.77984285535,
			"-0.007": 2.44163938375,
			"-0.006": 3.87777497483,
			"-0.005": 10.6379462014,
			"-0.004": 15.8028942238,
			"-0.003": 12.946865749,
			"-0.002": 14.1414245477,
			"-0.001": 14.0550864256,
			"0.0": 15.2574932634,
			"0.001": 11.5184477484,
			"0.002": 8.65372254787,
			"0.003": 11.2462918275,
			"0.004": 12.2483692021,
			"0.005": 10.4747082607,
			"0.006": 1.89358207133,
			"0.007": 1.95849817534,
			"0.008": 1.86459949902,
			"0.009": 1.91272663991,
			"0.01": 1.9236862976,
			"0.011": 1.99409151207,
			"0.012": 1.41756054746,
			"0.013": 4.08161468147,
			"0.014": 4.65081624616,
			"0.015": 0.498616734343,
			"0.016": 0.0,
			"0.017": 0.0,
			"0.018": 0.0,
			"0.019": 0.0,
			"0.02": 0.0,
			"0.021": 0.0,
			"0.022": 0.0,
			"0.023": 0.0,
			"0.024": 0.0,
			"0.025": 0.0
		}
	}
}
