{
	 "smiles": "CC1=CC(N)=C(C=C1)S(C)(=O)=O", 
	 "Tm": 377.15, 
	 "num_atms": 23, 
	 "gaussian": { 
		 "optdone": 1, 
		 "sigma_profile": "yes", 
		 "theory": "DFT", 
		 "functional": "B3LYP", 
		 "basiset": "6-31G**", 
		 "properties": { 
			 "R2extent": 3148.1048, 
			 "electric_dipole_moment_norm": 5.00165848094, 
			 "electric_quadrupole_moment_norm": 16.4713930212, 
			 "total_energy": -914.822062247, 
			 "HOMO_LUMO_gap": 0.19202, 
			 "cosmo_polarized_energy": -14.77, 
			 "cosmo_cavitation_energy": 27.07, 
			 "cosmo_dispersion_energy": -20.51, 
			 "cosmo_repulsion_energy": 1.58, 
			 "cosmo_total_nonelectrostatic_energy": 8.14, 
			 "SMD_solvation_energy": 4.49 
		},
		"coords": [
			{
				"x": 2.3163838974,
				"y": 1.3350979504,
				"z": -1.2879408562,
				"element": "C" 
			},
			{
				"x": 1.2542538869,
				"y": 0.5152871728,
				"z": -0.5952858612,
				"element": "C" 
			},
			{
				"x": 1.59914927,
				"y": -0.6127434541,
				"z": 0.1456275601,
				"element": "C" 
			},
			{
				"x": 0.6354238341,
				"y": -1.4076024717,
				"z": 0.7979469072,
				"element": "C" 
			},
			{
				"x": 1.0172987965,
				"y": -2.5004422223,
				"z": 1.5582991481,
				"element": "N" 
			},
			{
				"x": -0.715823654,
				"y": -1.0040197445,
				"z": 0.6880893368,
				"element": "C" 
			},
			{
				"x": -1.0723298745,
				"y": 0.1206916625,
				"z": -0.0639318788,
				"element": "C" 
			},
			{
				"x": -0.1007950688,
				"y": 0.8769815877,
				"z": -0.7033323256,
				"element": "C" 
			},
			{
				"x": -2.0166757397,
				"y": -1.903861571,
				"z": 1.5181393225,
				"element": "S" 
			},
			{
				"x": -1.8278830571,
				"y": -1.4316803718,
				"z": 3.252179664,
				"element": "C" 
			},
			{
				"x": -3.3147118635,
				"y": -1.3992499163,
				"z": 1.0467999698,
				"element": "O" 
			},
			{
				"x": -1.7124625637,
				"y": -3.3512232046,
				"z": 1.4353197203,
				"element": "O" 
			},
			{
				"x": 3.3194497496,
				"y": 0.9469251462,
				"z": -1.0931916359,
				"element": "H" 
			},
			{
				"x": 2.28708784,
				"y": 2.3784297204,
				"z": -0.9543061442,
				"element": "H" 
			},
			{
				"x": 2.1618701687,
				"y": 1.3413935284,
				"z": -2.3729009338,
				"element": "H" 
			},
			{
				"x": 2.6447479286,
				"y": -0.9035573125,
				"z": 0.2214712438,
				"element": "H" 
			},
			{
				"x": 1.9607222495,
				"y": -2.8236340229,
				"z": 1.3973506507,
				"element": "H" 
			},
			{
				"x": 0.3284269999,
				"y": -3.244830271,
				"z": 1.6118810943,
				"element": "H" 
			},
			{
				"x": -2.123599451,
				"y": 0.3786532057,
				"z": -0.1373685817,
				"element": "H" 
			},
			{
				"x": -0.3863233995,
				"y": 1.7470164855,
				"z": -1.2870914606,
				"element": "H" 
			},
			{
				"x": -2.5524317227,
				"y": -2.0218922523,
				"z": 3.8169978543,
				"element": "H" 
			},
			{
				"x": -0.8100272644,
				"y": -1.6671826351,
				"z": 3.5681789144,
				"element": "H" 
			},
			{
				"x": -2.0377509625,
				"y": -0.3661570092,
				"z": 3.3524682917,
				"element": "H" 
			}
		],
		 "valence_orbital": [ 
			{
				"type": "occ",
				"energy": -0.30859,
				"method": "rhf"
			},
			{
				"type": "occ",
				"energy": -0.29384,
				"method": "rhf"
			},
			{
				"type": "occ",
				"energy": -0.28485,
				"method": "rhf"
			},
			{
				"type": "occ",
				"energy": -0.25958,
				"method": "rhf"
			},
			{
				"type": "occ",
				"energy": -0.21933,
				"method": "rhf"
			},
			{
				"type": "unocc",
				"energy": -0.02731,
				"method": "rhf"
			},
			{
				"type": "unocc",
				"energy": -0.00186,
				"method": "rhf"
			},
			{
				"type": "unocc",
				"energy": 0.07166,
				"method": "rhf"
			},
			{
				"type": "unocc",
				"energy": 0.07674,
				"method": "rhf"
			},
			{
				"type": "unocc",
				"energy": 0.08783,
				"method": "rhf"
			}
		],
		"cosmo_sigma_profile": { 
			"-0.025": 0.0,
			"-0.024": 0.0,
			"-0.023": 0.0,
			"-0.022": 0.0,
			"-0.021": 0.0,
			"-0.02": 0.0,
			"-0.019": 0.0,
			"-0.018": 0.0,
			"-0.017": 0.0,
			"-0.016": 0.0,
			"-0.015": 0.0,
			"-0.014": 0.151952395521,
			"-0.013": 1.10896205316,
			"-0.012": 1.76027191257,
			"-0.011": 1.26148568316,
			"-0.01": 1.5938567498,
			"-0.009": 3.39848103885,
			"-0.008": 5.88712533906,
			"-0.007": 6.50249640618,
			"-0.006": 9.60799132342,
			"-0.005": 13.3039017888,
			"-0.004": 20.165129336,
			"-0.003": 17.7474441647,
			"-0.002": 15.9827112798,
			"-0.001": 15.1549560052,
			"0.0": 13.4762227073,
			"0.001": 10.9322496288,
			"0.002": 11.4982946491,
			"0.003": 10.59387009,
			"0.004": 11.77424035,
			"0.005": 8.31628326891,
			"0.006": 2.95505721762,
			"0.007": 2.41553156269,
			"0.008": 3.94460719848,
			"0.009": 3.56896176229,
			"0.01": 5.14536532421,
			"0.011": 6.89648128588,
			"0.012": 7.69823589576,
			"0.013": 1.64652911871,
			"0.014": 0.0,
			"0.015": 0.0,
			"0.016": 0.0,
			"0.017": 0.0,
			"0.018": 0.0,
			"0.019": 0.0,
			"0.02": 0.0,
			"0.021": 0.0,
			"0.022": 0.0,
			"0.023": 0.0,
			"0.024": 0.0,
			"0.025": 0.0
		}
	}
}
