{
	 "smiles": "CC(=O)NC1=CC=C(Cl)C=C1F", 
	 "Tm": 429.15, 
	 "num_atms": 19, 
	 "gaussian": { 
		 "optdone": 1, 
		 "sigma_profile": "yes", 
		 "theory": "DFT", 
		 "functional": "B3LYP", 
		 "basiset": "6-31G**", 
		 "properties": { 
			 "R2extent": 3821.1979, 
			 "electric_dipole_moment_norm": 2.5450742111, 
			 "electric_quadrupole_moment_norm": 12.5646056663, 
			 "total_energy": -999.085122022, 
			 "HOMO_LUMO_gap": 0.20257, 
			 "cosmo_polarized_energy": -11.06, 
			 "cosmo_cavitation_energy": 25.67, 
			 "cosmo_dispersion_energy": -18.67, 
			 "cosmo_repulsion_energy": 1.48, 
			 "cosmo_total_nonelectrostatic_energy": 8.49, 
			 "SMD_solvation_energy": 5.55 
		},
		"coords": [
			{
				"x": -0.8248952364,
				"y": 1.3659195114,
				"z": 1.5835154696,
				"element": "C" 
			},
			{
				"x": -1.0116955413,
				"y": -0.1138533049,
				"z": 1.3159663618,
				"element": "C" 
			},
			{
				"x": -1.9268869046,
				"y": -0.7651010181,
				"z": 1.7926163458,
				"element": "O" 
			},
			{
				"x": -0.0990672029,
				"y": -0.7352616002,
				"z": 0.4712908578,
				"element": "N" 
			},
			{
				"x": 1.0215225671,
				"y": -0.1970187793,
				"z": -0.1974983814,
				"element": "C" 
			},
			{
				"x": 1.146251865,
				"y": -0.3014512283,
				"z": -1.5899138417,
				"element": "C" 
			},
			{
				"x": 2.2710455123,
				"y": 0.1732154705,
				"z": -2.261306254,
				"element": "C" 
			},
			{
				"x": 3.2899610443,
				"y": 0.7836542545,
				"z": -1.529549478,
				"element": "C" 
			},
			{
				"x": 4.7032967523,
				"y": 1.4066342867,
				"z": -2.3587144665,
				"element": "Cl" 
			},
			{
				"x": 3.2059061486,
				"y": 0.9059505062,
				"z": -0.1436417017,
				"element": "C" 
			},
			{
				"x": 2.0845491156,
				"y": 0.3961891291,
				"z": 0.4975027256,
				"element": "C" 
			},
			{
				"x": 2.0281876284,
				"y": 0.4768796851,
				"z": 1.84126207,
				"element": "F" 
			},
			{
				"x": -0.0435730105,
				"y": 1.5169860974,
				"z": 2.3328228952,
				"element": "H" 
			},
			{
				"x": -1.7668210846,
				"y": 1.7545423106,
				"z": 1.9698842139,
				"element": "H" 
			},
			{
				"x": -0.5358727897,
				"y": 1.9152844474,
				"z": 0.6829255329,
				"element": "H" 
			},
			{
				"x": -0.3536670006,
				"y": -1.6935210714,
				"z": 0.2651660321,
				"element": "H" 
			},
			{
				"x": 0.3367872006,
				"y": -0.7613556672,
				"z": -2.1487073388,
				"element": "H" 
			},
			{
				"x": 2.3513081604,
				"y": 0.0830791676,
				"z": -3.338228576,
				"element": "H" 
			},
			{
				"x": 3.9970627761,
				"y": 1.3611278028,
				"z": 0.4396075333,
				"element": "H" 
			}
		],
		 "valence_orbital": [ 
			{
				"type": "occ",
				"energy": -0.32746,
				"method": "rhf"
			},
			{
				"type": "occ",
				"energy": -0.29128,
				"method": "rhf"
			},
			{
				"type": "occ",
				"energy": -0.27638,
				"method": "rhf"
			},
			{
				"type": "occ",
				"energy": -0.25627,
				"method": "rhf"
			},
			{
				"type": "occ",
				"energy": -0.24177,
				"method": "rhf"
			},
			{
				"type": "unocc",
				"energy": -0.0392,
				"method": "rhf"
			},
			{
				"type": "unocc",
				"energy": -0.02554,
				"method": "rhf"
			},
			{
				"type": "unocc",
				"energy": 0.01244,
				"method": "rhf"
			},
			{
				"type": "unocc",
				"energy": 0.02519,
				"method": "rhf"
			},
			{
				"type": "unocc",
				"energy": 0.0847,
				"method": "rhf"
			}
		],
		"cosmo_sigma_profile": { 
			"-0.025": 0.0,
			"-0.024": 0.0,
			"-0.023": 0.0,
			"-0.022": 0.0,
			"-0.021": 0.0,
			"-0.02": 0.0,
			"-0.019": 0.0,
			"-0.018": 0.0,
			"-0.017": 0.0,
			"-0.016": 0.0,
			"-0.015": 0.275509243817,
			"-0.014": 0.825414718072,
			"-0.013": 0.988579116737,
			"-0.012": 1.3847084395,
			"-0.011": 1.01381275478,
			"-0.01": 0.988492598057,
			"-0.009": 1.58645082021,
			"-0.008": 5.45438249048,
			"-0.007": 6.63978934023,
			"-0.006": 6.79647519806,
			"-0.005": 9.95176336077,
			"-0.004": 11.9377243476,
			"-0.003": 12.7631968777,
			"-0.002": 16.5552466223,
			"-0.001": 20.7121893446,
			"0.0": 17.7868712832,
			"0.001": 20.7596687758,
			"0.002": 18.5181882965,
			"0.003": 15.9392978543,
			"0.004": 13.9222957105,
			"0.005": 3.32992830815,
			"0.006": 1.02476403969,
			"0.007": 1.39939162115,
			"0.008": 1.15537847405,
			"0.009": 1.14961445232,
			"0.01": 1.26966370538,
			"0.011": 1.98051330427,
			"0.012": 2.55250559382,
			"0.013": 5.10661618619,
			"0.014": 3.55430513503,
			"0.015": 0.283535734598,
			"0.016": 0.0,
			"0.017": 0.0,
			"0.018": 0.0,
			"0.019": 0.0,
			"0.02": 0.0,
			"0.021": 0.0,
			"0.022": 0.0,
			"0.023": 0.0,
			"0.024": 0.0,
			"0.025": 0.0
		}
	}
}
