{
	 "smiles": "SC1=NN=C(O1)C1=CC2=C(C=CC=C2)C=C1", 
	 "Tm": 500.15, 
	 "num_atms": 24, 
	 "gaussian": { 
		 "optdone": 1, 
		 "sigma_profile": "yes", 
		 "theory": "DFT", 
		 "functional": "B3LYP", 
		 "basiset": "6-31G**", 
		 "properties": { 
			 "R2extent": 7022.5559, 
			 "electric_dipole_moment_norm": 4.47957542185, 
			 "electric_quadrupole_moment_norm": 22.4490136578, 
			 "total_energy": -1044.98653366, 
			 "HOMO_LUMO_gap": 0.15718, 
			 "cosmo_polarized_energy": -12.86, 
			 "cosmo_cavitation_energy": 31.07, 
			 "cosmo_dispersion_energy": -23.62, 
			 "cosmo_repulsion_energy": 1.75, 
			 "cosmo_total_nonelectrostatic_energy": 9.2, 
			 "SMD_solvation_energy": 2.97 
		},
		"coords": [
			{
				"x": -0.4769458156,
				"y": -6.6268847268,
				"z": 1.1340160146,
				"element": "S" 
			},
			{
				"x": -1.2299040556,
				"y": -5.0788518143,
				"z": 0.785319228,
				"element": "C" 
			},
			{
				"x": -2.4874903543,
				"y": -4.8665117709,
				"z": 0.5605600468,
				"element": "N" 
			},
			{
				"x": -2.6058883473,
				"y": -3.4951219544,
				"z": 0.3354768216,
				"element": "N" 
			},
			{
				"x": -1.4150261372,
				"y": -2.9855341917,
				"z": 0.4412187294,
				"element": "C" 
			},
			{
				"x": -0.4728186115,
				"y": -3.9488271316,
				"z": 0.7305618058,
				"element": "O" 
			},
			{
				"x": -0.9923845392,
				"y": -1.5988991585,
				"z": 0.2968929081,
				"element": "C" 
			},
			{
				"x": -1.9390300606,
				"y": -0.6297465802,
				"z": 0.0060688486,
				"element": "C" 
			},
			{
				"x": -1.5667294967,
				"y": 0.7275240621,
				"z": -0.1414965665,
				"element": "C" 
			},
			{
				"x": -0.1889342196,
				"y": 1.0947173129,
				"z": 0.013875527,
				"element": "C" 
			},
			{
				"x": 0.1793799251,
				"y": 2.4577970741,
				"z": -0.1351677224,
				"element": "C" 
			},
			{
				"x": -0.7677801915,
				"y": 3.4148196358,
				"z": -0.4241758505,
				"element": "C" 
			},
			{
				"x": -2.1296931602,
				"y": 3.0529136032,
				"z": -0.5778991358,
				"element": "C" 
			},
			{
				"x": -2.519856997,
				"y": 1.7406747312,
				"z": -0.439872625,
				"element": "C" 
			},
			{
				"x": 0.7587209564,
				"y": 0.0780009163,
				"z": 0.3119836498,
				"element": "C" 
			},
			{
				"x": 0.3751568029,
				"y": -1.2335027923,
				"z": 0.4509570839,
				"element": "C" 
			},
			{
				"x": 0.7649287435,
				"y": -6.1186353567,
				"z": 1.2481339365,
				"element": "H" 
			},
			{
				"x": -2.9788968928,
				"y": -0.9195066533,
				"z": -0.1093034809,
				"element": "H" 
			},
			{
				"x": 1.2239377431,
				"y": 2.7340799678,
				"z": -0.0170682531,
				"element": "H" 
			},
			{
				"x": -0.4739767574,
				"y": 4.4544195953,
				"z": -0.535868653,
				"element": "H" 
			},
			{
				"x": -2.8652991208,
				"y": 3.8186232988,
				"z": -0.8057232349,
				"element": "H" 
			},
			{
				"x": -3.5627074981,
				"y": 1.4585098311,
				"z": -0.5568245437,
				"element": "H" 
			},
			{
				"x": 1.8030554087,
				"y": 0.3543738307,
				"z": 0.4300370344,
				"element": "H" 
			},
			{
				"x": 1.1085826757,
				"y": -1.9992317284,
				"z": 0.6784984314,
				"element": "H" 
			}
		],
		 "valence_orbital": [ 
			{
				"type": "occ",
				"energy": -0.29627,
				"method": "rhf"
			},
			{
				"type": "occ",
				"energy": -0.28092,
				"method": "rhf"
			},
			{
				"type": "occ",
				"energy": -0.26933,
				"method": "rhf"
			},
			{
				"type": "occ",
				"energy": -0.24146,
				"method": "rhf"
			},
			{
				"type": "occ",
				"energy": -0.2204,
				"method": "rhf"
			},
			{
				"type": "unocc",
				"energy": -0.06322,
				"method": "rhf"
			},
			{
				"type": "unocc",
				"energy": -0.03622,
				"method": "rhf"
			},
			{
				"type": "unocc",
				"energy": -0.00531,
				"method": "rhf"
			},
			{
				"type": "unocc",
				"energy": 0.00711,
				"method": "rhf"
			},
			{
				"type": "unocc",
				"energy": 0.01709,
				"method": "rhf"
			}
		],
		"cosmo_sigma_profile": { 
			"-0.025": 0.0,
			"-0.024": 0.0,
			"-0.023": 0.0,
			"-0.022": 0.0,
			"-0.021": 0.0,
			"-0.02": 0.0,
			"-0.019": 0.0,
			"-0.018": 0.0,
			"-0.017": 0.0,
			"-0.016": 0.0,
			"-0.015": 0.0,
			"-0.014": 0.312477645537,
			"-0.013": 1.8546056986,
			"-0.012": 1.72560034163,
			"-0.011": 1.43483529876,
			"-0.01": 1.42224959891,
			"-0.009": 1.2727211714,
			"-0.008": 1.67675355036,
			"-0.007": 5.73788408113,
			"-0.006": 15.8362487241,
			"-0.005": 16.0130728027,
			"-0.004": 18.5089115182,
			"-0.003": 15.370766347,
			"-0.002": 16.5029371738,
			"-0.001": 16.43967033,
			"0.0": 19.4606628927,
			"0.001": 20.6379026656,
			"0.002": 24.5533645644,
			"0.003": 27.6558787574,
			"0.004": 17.7809338316,
			"0.005": 7.39173952349,
			"0.006": 2.36245215381,
			"0.007": 1.96919406145,
			"0.008": 1.98203967341,
			"0.009": 2.59890100541,
			"0.01": 2.35063506501,
			"0.011": 3.90796601414,
			"0.012": 2.70372702984,
			"0.013": 2.41157153652,
			"0.014": 1.579143871,
			"0.015": 0.372369045223,
			"0.016": 0.0,
			"0.017": 0.0,
			"0.018": 0.0,
			"0.019": 0.0,
			"0.02": 0.0,
			"0.021": 0.0,
			"0.022": 0.0,
			"0.023": 0.0,
			"0.024": 0.0,
			"0.025": 0.0
		}
	}
}
