{
	 "smiles": "COC(=O)OC1=C(F)C(F)=C(F)C(F)=C1F", 
	 "Tm": 302.15, 
	 "num_atms": 19, 
	 "gaussian": { 
		 "optdone": 1, 
		 "sigma_profile": "yes", 
		 "theory": "DFT", 
		 "functional": "B3LYP", 
		 "basiset": "6-31G**", 
		 "properties": { 
			 "R2extent": 3844.6887, 
			 "electric_dipole_moment_norm": 2.34634754885, 
			 "electric_quadrupole_moment_norm": 10.2583634475, 
			 "total_energy": -1031.45647673, 
			 "HOMO_LUMO_gap": 0.23261, 
			 "cosmo_polarized_energy": -6.65, 
			 "cosmo_cavitation_energy": 28.3, 
			 "cosmo_dispersion_energy": -19.31, 
			 "cosmo_repulsion_energy": 1.43, 
			 "cosmo_total_nonelectrostatic_energy": 10.42, 
			 "SMD_solvation_energy": 9.65 
		},
		"coords": [
			{
				"x": 0.7553696165,
				"y": -2.8737791221,
				"z": 3.2931011846,
				"element": "C" 
			},
			{
				"x": 1.1909810726,
				"y": -1.7130214887,
				"z": 2.5599273732,
				"element": "O" 
			},
			{
				"x": 0.3546547657,
				"y": -1.3176309188,
				"z": 1.6041938659,
				"element": "C" 
			},
			{
				"x": -0.6991896347,
				"y": -1.8124778076,
				"z": 1.2947870477,
				"element": "O" 
			},
			{
				"x": 0.91860928,
				"y": -0.2155326974,
				"z": 1.0159641912,
				"element": "O" 
			},
			{
				"x": 0.1931254525,
				"y": 0.3485714314,
				"z": -0.0120147204,
				"element": "C" 
			},
			{
				"x": 0.4094079001,
				"y": -0.0572274626,
				"z": -1.3278646693,
				"element": "C" 
			},
			{
				"x": 1.2675780368,
				"y": -1.0474983662,
				"z": -1.58455982,
				"element": "F" 
			},
			{
				"x": -0.2658548118,
				"y": 0.5628583337,
				"z": -2.376508533,
				"element": "C" 
			},
			{
				"x": -0.0522230339,
				"y": 0.1765475043,
				"z": -3.6377418875,
				"element": "F" 
			},
			{
				"x": -1.1706793293,
				"y": 1.5882224421,
				"z": -2.1061837653,
				"element": "C" 
			},
			{
				"x": -1.8186053813,
				"y": 2.1857869677,
				"z": -3.108843415,
				"element": "F" 
			},
			{
				"x": -1.4002187082,
				"y": 1.9918721315,
				"z": -0.7918297599,
				"element": "C" 
			},
			{
				"x": -2.2715986634,
				"y": 2.972434129,
				"z": -0.5373210782,
				"element": "F" 
			},
			{
				"x": -0.7212295591,
				"y": 1.3670783608,
				"z": 0.2516101001,
				"element": "C" 
			},
			{
				"x": -0.9489878281,
				"y": 1.7449014807,
				"z": 1.5119132575,
				"element": "F" 
			},
			{
				"x": 1.5396551297,
				"y": -3.0619246467,
				"z": 4.0249359465,
				"element": "H" 
			},
			{
				"x": -0.1966872977,
				"y": -2.6755526477,
				"z": 3.790519766,
				"element": "H" 
			},
			{
				"x": 0.6411929937,
				"y": -3.7280276232,
				"z": 2.6220149161,
				"element": "H" 
			}
		],
		 "valence_orbital": [ 
			{
				"type": "occ",
				"energy": -0.34298,
				"method": "rhf"
			},
			{
				"type": "occ",
				"energy": -0.32586,
				"method": "rhf"
			},
			{
				"type": "occ",
				"energy": -0.30955,
				"method": "rhf"
			},
			{
				"type": "occ",
				"energy": -0.26924,
				"method": "rhf"
			},
			{
				"type": "occ",
				"energy": -0.2636,
				"method": "rhf"
			},
			{
				"type": "unocc",
				"energy": -0.03099,
				"method": "rhf"
			},
			{
				"type": "unocc",
				"energy": -0.02344,
				"method": "rhf"
			},
			{
				"type": "unocc",
				"energy": -0.00443,
				"method": "rhf"
			},
			{
				"type": "unocc",
				"energy": 0.01834,
				"method": "rhf"
			},
			{
				"type": "unocc",
				"energy": 0.08504,
				"method": "rhf"
			}
		],
		"cosmo_sigma_profile": { 
			"-0.025": 0.0,
			"-0.024": 0.0,
			"-0.023": 0.0,
			"-0.022": 0.0,
			"-0.021": 0.0,
			"-0.02": 0.0,
			"-0.019": 0.0,
			"-0.018": 0.0,
			"-0.017": 0.0,
			"-0.016": 0.0,
			"-0.015": 0.0,
			"-0.014": 0.0,
			"-0.013": 0.0,
			"-0.012": 0.0,
			"-0.011": 0.0,
			"-0.01": 0.0,
			"-0.009": 0.0,
			"-0.008": 0.672368182749,
			"-0.007": 4.90197643763,
			"-0.006": 9.66871149743,
			"-0.005": 13.2344081748,
			"-0.004": 28.8445934533,
			"-0.003": 15.3267020309,
			"-0.002": 13.6772323501,
			"-0.001": 13.3139296315,
			"0.0": 14.2851641098,
			"0.001": 18.4727075605,
			"0.002": 54.6524713384,
			"0.003": 15.3527091732,
			"0.004": 3.70072501799,
			"0.005": 3.30606351835,
			"0.006": 4.35630536824,
			"0.007": 4.29058942548,
			"0.008": 3.25897993183,
			"0.009": 1.95130469872,
			"0.01": 4.07638707305,
			"0.011": 1.75439725714,
			"0.012": 0.0,
			"0.013": 0.0,
			"0.014": 0.0,
			"0.015": 0.0,
			"0.016": 0.0,
			"0.017": 0.0,
			"0.018": 0.0,
			"0.019": 0.0,
			"0.02": 0.0,
			"0.021": 0.0,
			"0.022": 0.0,
			"0.023": 0.0,
			"0.024": 0.0,
			"0.025": 0.0
		}
	}
}
