{
	 "smiles": "CC(C)(N1N=C2C=CC=CC2=N1)C(N)=O", 
	 "Tm": 447.15, 
	 "num_atms": 27, 
	 "gaussian": { 
		 "optdone": 1, 
		 "sigma_profile": "yes", 
		 "theory": "DFT", 
		 "functional": "B3LYP", 
		 "basiset": "6-31G**", 
		 "properties": { 
			 "R2extent": 3465.2344, 
			 "electric_dipole_moment_norm": 3.23742711578, 
			 "electric_quadrupole_moment_norm": 9.45206190574, 
			 "total_energy": -682.520998068, 
			 "HOMO_LUMO_gap": 0.17869, 
			 "cosmo_polarized_energy": -12.18, 
			 "cosmo_cavitation_energy": 30.23, 
			 "cosmo_dispersion_energy": -21.84, 
			 "cosmo_repulsion_energy": 1.7, 
			 "cosmo_total_nonelectrostatic_energy": 10.09, 
			 "SMD_solvation_energy": 4.35 
		},
		"coords": [
			{
				"x": 2.3269152617,
				"y": 1.4761281106,
				"z": 0.3753695853,
				"element": "C" 
			},
			{
				"x": 0.8780493174,
				"y": 1.2527178707,
				"z": 0.8541095304,
				"element": "C" 
			},
			{
				"x": -0.0112805764,
				"y": 2.4392821226,
				"z": 0.4773858985,
				"element": "C" 
			},
			{
				"x": 0.3547465058,
				"y": 0.0162180277,
				"z": 0.2093945593,
				"element": "N" 
			},
			{
				"x": 1.0583867243,
				"y": -1.1204104808,
				"z": 0.2307493564,
				"element": "N" 
			},
			{
				"x": 0.2590105618,
				"y": -1.9917109913,
				"z": -0.4275803921,
				"element": "C" 
			},
			{
				"x": 0.4407414422,
				"y": -3.3593691756,
				"z": -0.7373793893,
				"element": "C" 
			},
			{
				"x": -0.5734708227,
				"y": -3.978944964,
				"z": -1.4355484422,
				"element": "C" 
			},
			{
				"x": -1.7549650756,
				"y": -3.28314626,
				"z": -1.8330478863,
				"element": "C" 
			},
			{
				"x": -1.9483977761,
				"y": -1.9505397774,
				"z": -1.5403539246,
				"element": "C" 
			},
			{
				"x": -0.9198381488,
				"y": -1.2976425125,
				"z": -0.8227815126,
				"element": "C" 
			},
			{
				"x": -0.8243619505,
				"y": -0.017267685,
				"z": -0.3954211726,
				"element": "N" 
			},
			{
				"x": 0.9084382945,
				"y": 1.11623033,
				"z": 2.4131016752,
				"element": "C" 
			},
			{
				"x": 1.089135367,
				"y": -0.1305768871,
				"z": 2.9136567044,
				"element": "N" 
			},
			{
				"x": 0.8249485779,
				"y": 2.118561965,
				"z": 3.1085046096,
				"element": "O" 
			},
			{
				"x": 2.7276676938,
				"y": 2.3612393964,
				"z": 0.874993346,
				"element": "H" 
			},
			{
				"x": 2.9590270344,
				"y": 0.6177406098,
				"z": 0.6082104636,
				"element": "H" 
			},
			{
				"x": 2.343498073,
				"y": 1.6418035036,
				"z": -0.7056929214,
				"element": "H" 
			},
			{
				"x": 0.0096661824,
				"y": 2.6038980761,
				"z": -0.6020693396,
				"element": "H" 
			},
			{
				"x": -1.0452532419,
				"y": 2.2768115316,
				"z": 0.7829045362,
				"element": "H" 
			},
			{
				"x": 0.3691684922,
				"y": 3.3189385924,
				"z": 0.9961057115,
				"element": "H" 
			},
			{
				"x": 1.3396963186,
				"y": -3.8874681143,
				"z": -0.4377974863,
				"element": "H" 
			},
			{
				"x": -0.4778534439,
				"y": -5.0288591781,
				"z": -1.6963535614,
				"element": "H" 
			},
			{
				"x": -2.5177941741,
				"y": -3.8272722565,
				"z": -2.3818220023,
				"element": "H" 
			},
			{
				"x": -2.8440030251,
				"y": -1.4172395967,
				"z": -1.840175706,
				"element": "H" 
			},
			{
				"x": 1.2076071983,
				"y": -0.2134974134,
				"z": 3.9119527121,
				"element": "H" 
			},
			{
				"x": 1.2671151898,
				"y": -0.9195248438,
				"z": 2.3062850484,
				"element": "H" 
			}
		],
		 "valence_orbital": [ 
			{
				"type": "occ",
				"energy": -0.30232,
				"method": "rhf"
			},
			{
				"type": "occ",
				"energy": -0.26952,
				"method": "rhf"
			},
			{
				"type": "occ",
				"energy": -0.26912,
				"method": "rhf"
			},
			{
				"type": "occ",
				"energy": -0.24332,
				"method": "rhf"
			},
			{
				"type": "occ",
				"energy": -0.23536,
				"method": "rhf"
			},
			{
				"type": "unocc",
				"energy": -0.05667,
				"method": "rhf"
			},
			{
				"type": "unocc",
				"energy": 0.01448,
				"method": "rhf"
			},
			{
				"type": "unocc",
				"energy": 0.02193,
				"method": "rhf"
			},
			{
				"type": "unocc",
				"energy": 0.02516,
				"method": "rhf"
			},
			{
				"type": "unocc",
				"energy": 0.09228,
				"method": "rhf"
			}
		],
		"cosmo_sigma_profile": { 
			"-0.025": 0.0,
			"-0.024": 0.0,
			"-0.023": 0.0,
			"-0.022": 0.0,
			"-0.021": 0.0,
			"-0.02": 0.0,
			"-0.019": 0.0,
			"-0.018": 0.0,
			"-0.017": 0.0,
			"-0.016": 0.0,
			"-0.015": 0.0485338998334,
			"-0.014": 1.12759040605,
			"-0.013": 0.913168310708,
			"-0.012": 1.07834150725,
			"-0.011": 1.23429012789,
			"-0.01": 2.24766524523,
			"-0.009": 1.53955721712,
			"-0.008": 1.50251577224,
			"-0.007": 5.0202371935,
			"-0.006": 8.96415680708,
			"-0.005": 15.8316683884,
			"-0.004": 19.3847698062,
			"-0.003": 20.478546991,
			"-0.002": 20.7508605217,
			"-0.001": 23.7465810915,
			"0.0": 17.708601227,
			"0.001": 15.1031464411,
			"0.002": 16.7097619592,
			"0.003": 16.5668839665,
			"0.004": 14.1991017889,
			"0.005": 6.93662458753,
			"0.006": 4.02348010399,
			"0.007": 3.22491343955,
			"0.008": 2.41960113593,
			"0.009": 3.92915823598,
			"0.01": 2.40869540262,
			"0.011": 2.24199032047,
			"0.012": 2.81501660535,
			"0.013": 5.38914837064,
			"0.014": 2.25307894362,
			"0.015": 0.0731905316718,
			"0.016": 0.0,
			"0.017": 0.0,
			"0.018": 0.0,
			"0.019": 0.0,
			"0.02": 0.0,
			"0.021": 0.0,
			"0.022": 0.0,
			"0.023": 0.0,
			"0.024": 0.0,
			"0.025": 0.0
		}
	}
}
