{
	 "smiles": "OC(C(O)C(=O)NCC=C)C(=O)NCC=C", 
	 "Tm": 457.15, 
	 "num_atms": 32, 
	 "gaussian": { 
		 "optdone": 1, 
		 "sigma_profile": "yes", 
		 "theory": "DFT", 
		 "functional": "B3LYP", 
		 "basiset": "6-31G**", 
		 "properties": { 
			 "R2extent": 4224.8698, 
			 "electric_dipole_moment_norm": 6.99583585499, 
			 "electric_quadrupole_moment_norm": 24.1683624838, 
			 "total_energy": -801.072825557, 
			 "HOMO_LUMO_gap": 0.23804, 
			 "cosmo_polarized_energy": -25.67, 
			 "cosmo_cavitation_energy": 36.11, 
			 "cosmo_dispersion_energy": -23.36, 
			 "cosmo_repulsion_energy": 1.84, 
			 "cosmo_total_nonelectrostatic_energy": 14.58, 
			 "SMD_solvation_energy": 7.23 
		},
		"coords": [
			{
				"x": 0.2549442984,
				"y": 1.983113283,
				"z": -1.7265441949,
				"element": "O" 
			},
			{
				"x": 1.5560032602,
				"y": 1.3900146446,
				"z": -1.5870625727,
				"element": "C" 
			},
			{
				"x": 2.428340466,
				"y": 2.0919764828,
				"z": -0.5076445418,
				"element": "C" 
			},
			{
				"x": 3.764828074,
				"y": 1.7143551894,
				"z": -0.6485367065,
				"element": "O" 
			},
			{
				"x": 1.9176581254,
				"y": 1.8651044356,
				"z": 0.9408986891,
				"element": "C" 
			},
			{
				"x": 2.6572589905,
				"y": 1.4461608694,
				"z": 1.8174714256,
				"element": "O" 
			},
			{
				"x": 0.6117508951,
				"y": 2.2195421523,
				"z": 1.1449196294,
				"element": "N" 
			},
			{
				"x": -0.0396814693,
				"y": 2.0340170713,
				"z": 2.4396086329,
				"element": "C" 
			},
			{
				"x": -0.9570824817,
				"y": 0.836344792,
				"z": 2.4886450961,
				"element": "C" 
			},
			{
				"x": -0.8127483553,
				"y": -0.1847016471,
				"z": 3.3335808888,
				"element": "C" 
			},
			{
				"x": 1.4149258842,
				"y": -0.1079044532,
				"z": -1.2891259877,
				"element": "C" 
			},
			{
				"x": 2.3807597275,
				"y": -0.7428082588,
				"z": -0.8651483027,
				"element": "O" 
			},
			{
				"x": 0.2010954154,
				"y": -0.6432790984,
				"z": -1.5565344262,
				"element": "N" 
			},
			{
				"x": -0.1227342878,
				"y": -2.0425422869,
				"z": -1.2919983552,
				"element": "C" 
			},
			{
				"x": -1.2145230654,
				"y": -2.1805050414,
				"z": -0.2645793639,
				"element": "C" 
			},
			{
				"x": -2.3706771026,
				"y": -2.8073328929,
				"z": -0.4819309618,
				"element": "C" 
			},
			{
				"x": 0.3374074583,
				"y": 2.7639329473,
				"z": -2.2886129824,
				"element": "H" 
			},
			{
				"x": 2.1162811346,
				"y": 1.4700230921,
				"z": -2.527851895,
				"element": "H" 
			},
			{
				"x": 2.3763863592,
				"y": 3.1709947809,
				"z": -0.7112045676,
				"element": "H" 
			},
			{
				"x": 3.802159893,
				"y": 0.7803433943,
				"z": -0.3790367022,
				"element": "H" 
			},
			{
				"x": 0.0487672955,
				"y": 2.4163670412,
				"z": 0.3265619394,
				"element": "H" 
			},
			{
				"x": -0.6060303325,
				"y": 2.9454678642,
				"z": 2.6754911514,
				"element": "H" 
			},
			{
				"x": 0.7592486035,
				"y": 1.9306508336,
				"z": 3.1764077387,
				"element": "H" 
			},
			{
				"x": -1.7919306074,
				"y": 0.8401235594,
				"z": 1.7862967735,
				"element": "H" 
			},
			{
				"x": -1.5118138045,
				"y": -1.0162079254,
				"z": 3.3507917475,
				"element": "H" 
			},
			{
				"x": 0.0112737838,
				"y": -0.2239281465,
				"z": 4.0414900251,
				"element": "H" 
			},
			{
				"x": -0.5297630895,
				"y": -0.0040684508,
				"z": -1.8373716862,
				"element": "H" 
			},
			{
				"x": -0.4112935801,
				"y": -2.5410294166,
				"z": -2.2256599605,
				"element": "H" 
			},
			{
				"x": 0.8071029255,
				"y": -2.4992716527,
				"z": -0.9386356459,
				"element": "H" 
			},
			{
				"x": -1.0057835998,
				"y": -1.7238976822,
				"z": 0.7020860791,
				"element": "H" 
			},
			{
				"x": -3.1267829824,
				"y": -2.8977140652,
				"z": 0.2922488121,
				"element": "H" 
			},
			{
				"x": -2.5995478321,
				"y": -3.2661414154,
				"z": -1.4415197756,
				"element": "H" 
			}
		],
		 "valence_orbital": [ 
			{
				"type": "occ",
				"energy": -0.26894,
				"method": "rhf"
			},
			{
				"type": "occ",
				"energy": -0.25949,
				"method": "rhf"
			},
			{
				"type": "occ",
				"energy": -0.24961,
				"method": "rhf"
			},
			{
				"type": "occ",
				"energy": -0.24603,
				"method": "rhf"
			},
			{
				"type": "occ",
				"energy": -0.23878,
				"method": "rhf"
			},
			{
				"type": "unocc",
				"energy": -0.00074,
				"method": "rhf"
			},
			{
				"type": "unocc",
				"energy": 0.0091,
				"method": "rhf"
			},
			{
				"type": "unocc",
				"energy": 0.01277,
				"method": "rhf"
			},
			{
				"type": "unocc",
				"energy": 0.03587,
				"method": "rhf"
			},
			{
				"type": "unocc",
				"energy": 0.049,
				"method": "rhf"
			}
		],
		"cosmo_sigma_profile": { 
			"-0.025": 0.0,
			"-0.024": 0.0,
			"-0.023": 0.0,
			"-0.022": 0.0,
			"-0.021": 0.0,
			"-0.02": 0.0,
			"-0.019": 0.0,
			"-0.018": 0.477208644354,
			"-0.017": 1.54833017489,
			"-0.016": 1.1321724004,
			"-0.015": 1.25100321339,
			"-0.014": 0.884333984443,
			"-0.013": 1.46042063834,
			"-0.012": 1.53316487181,
			"-0.011": 1.27365148954,
			"-0.01": 3.02674049867,
			"-0.009": 4.43918764686,
			"-0.008": 4.88536009836,
			"-0.007": 6.79680788844,
			"-0.006": 9.34964911322,
			"-0.005": 21.172442868,
			"-0.004": 21.9297913243,
			"-0.003": 21.5333668882,
			"-0.002": 24.0902620093,
			"-0.001": 22.0219056754,
			"0.0": 21.1935660678,
			"0.001": 17.725054142,
			"0.002": 13.8150749471,
			"0.003": 11.8629899652,
			"0.004": 11.8351755699,
			"0.005": 9.98663127607,
			"0.006": 7.49224573081,
			"0.007": 4.52551538996,
			"0.008": 4.07031745163,
			"0.009": 3.00787024511,
			"0.01": 4.72639660375,
			"0.011": 4.6713243602,
			"0.012": 5.77532223155,
			"0.013": 8.46258510044,
			"0.014": 5.31712900048,
			"0.015": 0.67091822407,
			"0.016": 0.0,
			"0.017": 0.0,
			"0.018": 0.0,
			"0.019": 0.0,
			"0.02": 0.0,
			"0.021": 0.0,
			"0.022": 0.0,
			"0.023": 0.0,
			"0.024": 0.0,
			"0.025": 0.0
		}
	}
}
