{
	 "smiles": "OC(=O)C1=CC(O)=C(I)C=C1", 
	 "Tm": 501.15, 
	 "num_atms": 16, 
	 "gaussian": { 
		 "optdone": 1, 
		 "sigma_profile": "no", 
		 "theory": "DFT", 
		 "functional": "B3LYP", 
		 "basiset": "6-31G**", 
		 "properties": { 
			 "R2extent": 2230.099, 
			 "electric_dipole_moment_norm": 1.3268728236, 
			 "electric_quadrupole_moment_norm": 8.07041411143, 
			 "total_energy": -506.827452333, 
			 "HOMO_LUMO_gap": 0.17739, 
			 "cosmo_polarized_energy": -95469.47, 
			 "cosmo_cavitation_energy": 24.27, 
			 "cosmo_dispersion_energy": -19.48, 
			 "cosmo_repulsion_energy": 1.53, 
			 "cosmo_total_nonelectrostatic_energy": 6.31, 
			 "SMD_solvation_energy": 4.99 
		},
		"coords": [
			{
				"x": -3.3248998779,
				"y": -0.4526825212,
				"z": 0.1808124463,
				"element": "O" 
			},
			{
				"x": -2.315492888,
				"y": 0.208651879,
				"z": -0.4347240452,
				"element": "C" 
			},
			{
				"x": -2.4109098626,
				"y": 0.6215629778,
				"z": -1.5740890572,
				"element": "O" 
			},
			{
				"x": -1.111892111,
				"y": 0.365414885,
				"z": 0.4251891053,
				"element": "C" 
			},
			{
				"x": -0.0150891861,
				"y": 1.0363958992,
				"z": -0.1229970569,
				"element": "C" 
			},
			{
				"x": 1.1515720656,
				"y": 1.2241276652,
				"z": 0.6203550715,
				"element": "C" 
			},
			{
				"x": 2.2360376586,
				"y": 1.8706354271,
				"z": 0.1207642841,
				"element": "O" 
			},
			{
				"x": 1.2060862548,
				"y": 0.7258131555,
				"z": 1.934186487,
				"element": "C" 
			},
			{
				"x": 2.9525133001,
				"y": 0.9915827747,
				"z": 3.0860794486,
				"element": "I" 
			},
			{
				"x": 0.1102402527,
				"y": 0.0557943327,
				"z": 2.4809137167,
				"element": "C" 
			},
			{
				"x": -1.0512813835,
				"y": -0.1283065733,
				"z": 1.733546804,
				"element": "C" 
			},
			{
				"x": -4.0485463544,
				"y": -0.4953421229,
				"z": -0.4654635534,
				"element": "H" 
			},
			{
				"x": -0.0900843989,
				"y": 1.4091156847,
				"z": -1.1411271001,
				"element": "H" 
			},
			{
				"x": 2.0496940548,
				"y": 2.1524157303,
				"z": -0.7846826902,
				"element": "H" 
			},
			{
				"x": 0.1685415841,
				"y": -0.3222962804,
				"z": 3.495350386,
				"element": "H" 
			},
			{
				"x": -1.9003891083,
				"y": -0.6484829135,
				"z": 2.1596857533,
				"element": "H" 
			}
		],
		 "valence_orbital": [ 
			{
				"type": "occ",
				"energy": -0.30178,
				"method": "rhf"
			},
			{
				"type": "occ",
				"energy": -0.2861,
				"method": "rhf"
			},
			{
				"type": "occ",
				"energy": -0.26689,
				"method": "rhf"
			},
			{
				"type": "occ",
				"energy": -0.25651,
				"method": "rhf"
			},
			{
				"type": "occ",
				"energy": -0.23749,
				"method": "rhf"
			},
			{
				"type": "unocc",
				"energy": -0.0601,
				"method": "rhf"
			},
			{
				"type": "unocc",
				"energy": -0.03915,
				"method": "rhf"
			},
			{
				"type": "unocc",
				"energy": -0.01272,
				"method": "rhf"
			},
			{
				"type": "unocc",
				"energy": 0.03743,
				"method": "rhf"
			},
			{
				"type": "unocc",
				"energy": 0.045,
				"method": "rhf"
			}
		],
		"cosmo_sigma_profile": { 
			"0.0": 0.0,
			"0.0": 0.0,
			"0.0": 0.0,
			"0.0": 0.0,
			"0.0": 0.0,
			"0.0": 0.0,
			"0.0": 0.0,
			"0.0": 0.0,
			"0.0": 0.0,
			"0.0": 0.0,
			"0.0": 0.0,
			"0.0": 0.0,
			"0.0": 0.0,
			"0.0": 0.0,
			"0.0": 0.0,
			"0.0": 0.0,
			"0.0": 0.0,
			"0.0": 0.0,
			"0.0": 0.0,
			"0.0": 0.0,
			"0.0": 0.0,
			"0.0": 0.0,
			"0.0": 0.0,
			"0.0": 0.0,
			"0.0": 0.0,
			"0.0": 0.0,
			"0.0": 0.0,
			"0.0": 0.0,
			"0.0": 0.0,
			"0.0": 0.0,
			"0.0": 0.0,
			"0.0": 0.0,
			"0.0": 0.0,
			"0.0": 0.0,
			"0.0": 0.0,
			"0.0": 0.0,
			"0.0": 0.0,
			"0.0": 0.0,
			"0.0": 0.0,
			"0.0": 0.0,
			"0.0": 0.0,
			"0.0": 0.0,
			"0.0": 0.0,
			"0.0": 0.0,
			"0.0": 0.0,
			"0.0": 0.0,
			"0.0": 0.0,
			"0.0": 0.0,
			"0.0": 0.0,
			"0.0": 0.0,
			"0.0": 0.0
		}
	}
}
