{
	 "smiles": "CC1=CC=CN2C(=O)C(=CN=C12)C(O)=O", 
	 "Tm": 479.15, 
	 "num_atms": 23, 
	 "gaussian": { 
		 "optdone": 1, 
		 "sigma_profile": "yes", 
		 "theory": "DFT", 
		 "functional": "B3LYP", 
		 "basiset": "6-31G**", 
		 "properties": { 
			 "R2extent": 3762.1789, 
			 "electric_dipole_moment_norm": 8.01085686116, 
			 "electric_quadrupole_moment_norm": 30.6266677379, 
			 "total_energy": -721.072074769, 
			 "HOMO_LUMO_gap": 0.15378, 
			 "cosmo_polarized_energy": -23.03, 
			 "cosmo_cavitation_energy": 27.88, 
			 "cosmo_dispersion_energy": -20.63, 
			 "cosmo_repulsion_energy": 1.58, 
			 "cosmo_total_nonelectrostatic_energy": 8.83, 
			 "SMD_solvation_energy": 5.8 
		},
		"coords": [
			{
				"x": 1.3672246137,
				"y": 0.7845495251,
				"z": 2.4182464027,
				"element": "C" 
			},
			{
				"x": 0.7698693852,
				"y": 1.3578054493,
				"z": 1.1638225266,
				"element": "C" 
			},
			{
				"x": 1.1203549817,
				"y": 2.5899965463,
				"z": 0.6647906173,
				"element": "C" 
			},
			{
				"x": 0.5310507844,
				"y": 3.0947574178,
				"z": -0.5216186954,
				"element": "C" 
			},
			{
				"x": -0.3979488321,
				"y": 2.344624173,
				"z": -1.1775909928,
				"element": "C" 
			},
			{
				"x": -0.7644316474,
				"y": 1.109364514,
				"z": -0.6977860038,
				"element": "N" 
			},
			{
				"x": -1.7862163918,
				"y": 0.3861513742,
				"z": -1.4890827853,
				"element": "C" 
			},
			{
				"x": -2.2032582248,
				"y": 0.9130455178,
				"z": -2.5019273883,
				"element": "O" 
			},
			{
				"x": -2.1119069187,
				"y": -0.8953306466,
				"z": -0.9210194952,
				"element": "C" 
			},
			{
				"x": -1.4848865904,
				"y": -1.3044963771,
				"z": 0.2472160402,
				"element": "C" 
			},
			{
				"x": -0.5645337343,
				"y": -0.6169218037,
				"z": 0.9350909735,
				"element": "N" 
			},
			{
				"x": -0.2115777077,
				"y": 0.5786780273,
				"z": 0.4619596805,
				"element": "C" 
			},
			{
				"x": -3.1988654047,
				"y": -1.7088856967,
				"z": -1.5448348804,
				"element": "C" 
			},
			{
				"x": -3.035678486,
				"y": -3.064666338,
				"z": -1.4529718631,
				"element": "O" 
			},
			{
				"x": -4.1868459887,
				"y": -1.2542253416,
				"z": -2.0618474685,
				"element": "O" 
			},
			{
				"x": 0.5896153692,
				"y": 0.5744742882,
				"z": 3.1587946303,
				"element": "H" 
			},
			{
				"x": 1.86199302,
				"y": -0.1698104963,
				"z": 2.2140160023,
				"element": "H" 
			},
			{
				"x": 2.0939953318,
				"y": 1.4759125004,
				"z": 2.8515883973,
				"element": "H" 
			},
			{
				"x": 1.8607719859,
				"y": 3.1866265039,
				"z": 1.1897769667,
				"element": "H" 
			},
			{
				"x": 0.808311596,
				"y": 4.0661942561,
				"z": -0.9135241668,
				"element": "H" 
			},
			{
				"x": -0.9090698569,
				"y": 2.6297383803,
				"z": -2.0873103957,
				"element": "H" 
			},
			{
				"x": -1.7663296226,
				"y": -2.2602507463,
				"z": 0.6893843267,
				"element": "H" 
			},
			{
				"x": -2.1226376616,
				"y": -3.2705310278,
				"z": -1.2091724287,
				"element": "H" 
			}
		],
		 "valence_orbital": [ 
			{
				"type": "occ",
				"energy": -0.29859,
				"method": "rhf"
			},
			{
				"type": "occ",
				"energy": -0.28751,
				"method": "rhf"
			},
			{
				"type": "occ",
				"energy": -0.28146,
				"method": "rhf"
			},
			{
				"type": "occ",
				"energy": -0.26061,
				"method": "rhf"
			},
			{
				"type": "occ",
				"energy": -0.23276,
				"method": "rhf"
			},
			{
				"type": "unocc",
				"energy": -0.07898,
				"method": "rhf"
			},
			{
				"type": "unocc",
				"energy": -0.0635,
				"method": "rhf"
			},
			{
				"type": "unocc",
				"energy": -0.00322,
				"method": "rhf"
			},
			{
				"type": "unocc",
				"energy": 0.01393,
				"method": "rhf"
			},
			{
				"type": "unocc",
				"energy": 0.07114,
				"method": "rhf"
			}
		],
		"cosmo_sigma_profile": { 
			"-0.025": 0.0,
			"-0.024": 0.0,
			"-0.023": 0.0,
			"-0.022": 0.0,
			"-0.021": 0.0,
			"-0.02": 0.0,
			"-0.019": 0.237538354437,
			"-0.018": 0.801080791596,
			"-0.017": 1.06968446132,
			"-0.016": 0.986886645057,
			"-0.015": 1.29020697188,
			"-0.014": 0.979649486922,
			"-0.013": 0.705502276921,
			"-0.012": 0.996832304771,
			"-0.011": 1.39224650541,
			"-0.01": 1.09014105332,
			"-0.009": 2.07656688635,
			"-0.008": 8.04947518836,
			"-0.007": 10.7931637666,
			"-0.006": 10.6375871251,
			"-0.005": 12.3806864391,
			"-0.004": 15.5982789653,
			"-0.003": 17.257526865,
			"-0.002": 19.3178541538,
			"-0.001": 21.4911233174,
			"0.0": 17.0738376416,
			"0.001": 10.9123282391,
			"0.002": 4.56612008753,
			"0.003": 5.17600214605,
			"0.004": 3.52799399855,
			"0.005": 3.33857869277,
			"0.006": 5.35960635342,
			"0.007": 4.26812949779,
			"0.008": 5.10626344481,
			"0.009": 4.62614891197,
			"0.01": 7.2714629518,
			"0.011": 9.65431473935,
			"0.012": 8.40815257452,
			"0.013": 4.47770181595,
			"0.014": 2.00045791016,
			"0.015": 0.956510410316,
			"0.016": 0.0177342186116,
			"0.017": 0.0,
			"0.018": 0.0,
			"0.019": 0.0,
			"0.02": 0.0,
			"0.021": 0.0,
			"0.022": 0.0,
			"0.023": 0.0,
			"0.024": 0.0,
			"0.025": 0.0
		}
	}
}
