{
	 "smiles": "O=C(C1=CC=CS1)C1=C2C=CC=CC2=CC=C1", 
	 "Tm": 339.15, 
	 "num_atms": 27, 
	 "gaussian": { 
		 "optdone": 1, 
		 "sigma_profile": "yes", 
		 "theory": "DFT", 
		 "functional": "B3LYP", 
		 "basiset": "6-31G**", 
		 "properties": { 
			 "R2extent": 4674.835, 
			 "electric_dipole_moment_norm": 3.798341442, 
			 "electric_quadrupole_moment_norm": 16.8932430303, 
			 "total_energy": -1051.02715127, 
			 "HOMO_LUMO_gap": 0.15093, 
			 "cosmo_polarized_energy": -10.76, 
			 "cosmo_cavitation_energy": 32.67, 
			 "cosmo_dispersion_energy": -23.86, 
			 "cosmo_repulsion_energy": 1.78, 
			 "cosmo_total_nonelectrostatic_energy": 10.59, 
			 "SMD_solvation_energy": 5.68 
		},
		"coords": [
			{
				"x": -1.8139865037,
				"y": 2.1499996272,
				"z": 1.0016981979,
				"element": "O" 
			},
			{
				"x": -1.2817796615,
				"y": 1.2678462797,
				"z": 0.3343164192,
				"element": "C" 
			},
			{
				"x": -2.0257668136,
				"y": 0.6023707173,
				"z": -0.7482495721,
				"element": "C" 
			},
			{
				"x": -1.7292161387,
				"y": -0.5318675419,
				"z": -1.4776954263,
				"element": "C" 
			},
			{
				"x": -2.7574037846,
				"y": -0.8927118725,
				"z": -2.387457859,
				"element": "C" 
			},
			{
				"x": -3.8252190139,
				"y": -0.0298788856,
				"z": -2.335926198,
				"element": "C" 
			},
			{
				"x": -3.6032516247,
				"y": 1.2266269027,
				"z": -1.1745060246,
				"element": "S" 
			},
			{
				"x": 0.1046015109,
				"y": 0.7841879443,
				"z": 0.680339264,
				"element": "C" 
			},
			{
				"x": 1.198333212,
				"y": 0.753987062,
				"z": -0.2466783129,
				"element": "C" 
			},
			{
				"x": 1.110589306,
				"y": 1.2368150586,
				"z": -1.5835718807,
				"element": "C" 
			},
			{
				"x": 2.2004936526,
				"y": 1.2034673153,
				"z": -2.4245497688,
				"element": "C" 
			},
			{
				"x": 3.440830206,
				"y": 0.688174458,
				"z": -1.9781585603,
				"element": "C" 
			},
			{
				"x": 3.5681402695,
				"y": 0.2318205678,
				"z": -0.6870932995,
				"element": "C" 
			},
			{
				"x": 2.4673626767,
				"y": 0.2605963144,
				"z": 0.2122217445,
				"element": "C" 
			},
			{
				"x": 2.6059336049,
				"y": -0.1704813368,
				"z": 1.5580998794,
				"element": "C" 
			},
			{
				"x": 1.5487364729,
				"y": -0.0936932571,
				"z": 2.4351637443,
				"element": "C" 
			},
			{
				"x": 0.3013299632,
				"y": 0.3987733499,
				"z": 1.9949578325,
				"element": "C" 
			},
			{
				"x": -0.8040025101,
				"y": -1.0820845798,
				"z": -1.3572458127,
				"element": "H" 
			},
			{
				"x": -2.7100348279,
				"y": -1.7509073043,
				"z": -3.0477993069,
				"element": "H" 
			},
			{
				"x": -4.7343326771,
				"y": -0.0696210128,
				"z": -2.9212748347,
				"element": "H" 
			},
			{
				"x": 0.1718701497,
				"y": 1.6444325604,
				"z": -1.9408491993,
				"element": "H" 
			},
			{
				"x": 2.1093330065,
				"y": 1.5819368991,
				"z": -3.4385267049,
				"element": "H" 
			},
			{
				"x": 4.2909821372,
				"y": 0.6652217948,
				"z": -2.6535814658,
				"element": "H" 
			},
			{
				"x": 4.5204613136,
				"y": -0.150280186,
				"z": -0.3284056872,
				"element": "H" 
			},
			{
				"x": 3.5700172786,
				"y": -0.5498517051,
				"z": 1.886939166,
				"element": "H" 
			},
			{
				"x": 1.6662837776,
				"y": -0.409845256,
				"z": 3.4672926822,
				"element": "H" 
			},
			{
				"x": -0.5293049822,
				"y": 0.4690660864,
				"z": 2.6900409839,
				"element": "H" 
			}
		],
		 "valence_orbital": [ 
			{
				"type": "occ",
				"energy": -0.26227,
				"method": "rhf"
			},
			{
				"type": "occ",
				"energy": -0.25535,
				"method": "rhf"
			},
			{
				"type": "occ",
				"energy": -0.24878,
				"method": "rhf"
			},
			{
				"type": "occ",
				"energy": -0.24531,
				"method": "rhf"
			},
			{
				"type": "occ",
				"energy": -0.21991,
				"method": "rhf"
			},
			{
				"type": "unocc",
				"energy": -0.06898,
				"method": "rhf"
			},
			{
				"type": "unocc",
				"energy": -0.04453,
				"method": "rhf"
			},
			{
				"type": "unocc",
				"energy": -0.01518,
				"method": "rhf"
			},
			{
				"type": "unocc",
				"energy": 0.01105,
				"method": "rhf"
			},
			{
				"type": "unocc",
				"energy": 0.03201,
				"method": "rhf"
			}
		],
		"cosmo_sigma_profile": { 
			"-0.025": 0.0,
			"-0.024": 0.0,
			"-0.023": 0.0,
			"-0.022": 0.0,
			"-0.021": 0.0,
			"-0.02": 0.0,
			"-0.019": 0.0,
			"-0.018": 0.0,
			"-0.017": 0.0,
			"-0.016": 0.0,
			"-0.015": 0.0,
			"-0.014": 0.0,
			"-0.013": 0.0,
			"-0.012": 0.0,
			"-0.011": 0.0,
			"-0.01": 0.211782963544,
			"-0.009": 2.12923555734,
			"-0.008": 2.78930266773,
			"-0.007": 6.52582227278,
			"-0.006": 17.8224346603,
			"-0.005": 21.9761283331,
			"-0.004": 20.2278157901,
			"-0.003": 16.8019971881,
			"-0.002": 16.4196680846,
			"-0.001": 14.0549518105,
			"0.0": 17.9105904923,
			"0.001": 18.8824465096,
			"0.002": 28.4126884626,
			"0.003": 32.3137664735,
			"0.004": 22.8054361697,
			"0.005": 7.53334192975,
			"0.006": 1.96223307031,
			"0.007": 2.1462941325,
			"0.008": 1.91023383618,
			"0.009": 2.09592144142,
			"0.01": 2.0046807511,
			"0.011": 3.62837044452,
			"0.012": 3.84700177844,
			"0.013": 1.06353265323,
			"0.014": 0.0631322087013,
			"0.015": 0.0,
			"0.016": 0.0,
			"0.017": 0.0,
			"0.018": 0.0,
			"0.019": 0.0,
			"0.02": 0.0,
			"0.021": 0.0,
			"0.022": 0.0,
			"0.023": 0.0,
			"0.024": 0.0,
			"0.025": 0.0
		}
	}
}
