{
	 "smiles": "NC1=CC(=CC=C1S(=O)(=O)CCO)S(N)(=O)=O", 
	 "Tm": 402.15, 
	 "num_atms": 29, 
	 "gaussian": { 
		 "optdone": 1, 
		 "sigma_profile": "yes", 
		 "theory": "DFT", 
		 "functional": "B3LYP", 
		 "basiset": "6-31G**", 
		 "properties": { 
			 "R2extent": 6394.599, 
			 "electric_dipole_moment_norm": 2.65503998087, 
			 "electric_quadrupole_moment_norm": 28.0822375271, 
			 "total_energy": -1593.94401603, 
			 "HOMO_LUMO_gap": 0.18172, 
			 "cosmo_polarized_energy": -28.18, 
			 "cosmo_cavitation_energy": 34.38, 
			 "cosmo_dispersion_energy": -26.14, 
			 "cosmo_repulsion_energy": 1.94, 
			 "cosmo_total_nonelectrostatic_energy": 10.19, 
			 "SMD_solvation_energy": 4.8 
		},
		"coords": [
			{
				"x": 0.2485386452,
				"y": -1.8104753149,
				"z": 0.3345579246,
				"element": "N" 
			},
			{
				"x": 0.0507052418,
				"y": -0.6047107594,
				"z": -0.3386732018,
				"element": "C" 
			},
			{
				"x": 0.5137144343,
				"y": 0.6010632639,
				"z": 0.2188665361,
				"element": "C" 
			},
			{
				"x": 0.3512894672,
				"y": 1.7962829052,
				"z": -0.4680964032,
				"element": "C" 
			},
			{
				"x": -0.2618719104,
				"y": 1.8620583443,
				"z": -1.7210511165,
				"element": "C" 
			},
			{
				"x": -0.7202991522,
				"y": 0.6756239495,
				"z": -2.2827096583,
				"element": "C" 
			},
			{
				"x": -0.5582078591,
				"y": -0.5419692585,
				"z": -1.6147932257,
				"element": "C" 
			},
			{
				"x": -1.168150784,
				"y": -2.0186920671,
				"z": -2.4537672602,
				"element": "S" 
			},
			{
				"x": -2.1597314985,
				"y": -1.5900831099,
				"z": -3.4514902783,
				"element": "O" 
			},
			{
				"x": -1.5533607629,
				"y": -2.9910645081,
				"z": -1.4063970587,
				"element": "O" 
			},
			{
				"x": 0.2580067796,
				"y": -2.6856021693,
				"z": -3.3850305852,
				"element": "C" 
			},
			{
				"x": 1.6313034179,
				"y": -2.6791175366,
				"z": -2.6944344175,
				"element": "C" 
			},
			{
				"x": 1.7284819168,
				"y": -3.5282145331,
				"z": -1.5796444449,
				"element": "O" 
			},
			{
				"x": 0.9574093322,
				"y": 3.3098980044,
				"z": 0.2946701124,
				"element": "S" 
			},
			{
				"x": -0.4346732396,
				"y": 3.9664136753,
				"z": 0.9939073532,
				"element": "N" 
			},
			{
				"x": 1.8587668358,
				"y": 2.9227731505,
				"z": 1.3835137041,
				"element": "O" 
			},
			{
				"x": 1.3641364725,
				"y": 4.212532337,
				"z": -0.7841984196,
				"element": "O" 
			},
			{
				"x": 0.4837126589,
				"y": -1.7037817095,
				"z": 1.3130034903,
				"element": "H" 
			},
			{
				"x": -0.4869288029,
				"y": -2.4948401216,
				"z": 0.1635653481,
				"element": "H" 
			},
			{
				"x": 1.0083164764,
				"y": 0.6010910757,
				"z": 1.184992351,
				"element": "H" 
			},
			{
				"x": -0.3622054485,
				"y": 2.8073866454,
				"z": -2.2404392143,
				"element": "H" 
			},
			{
				"x": -1.2197219239,
				"y": 0.6750306319,
				"z": -3.2457002893,
				"element": "H" 
			},
			{
				"x": 0.2844764827,
				"y": -2.0984251487,
				"z": -4.3075856865,
				"element": "H" 
			},
			{
				"x": -0.055387651,
				"y": -3.7085553751,
				"z": -3.6150808919,
				"element": "H" 
			},
			{
				"x": 1.9222472603,
				"y": -1.6447378006,
				"z": -2.4602698065,
				"element": "H" 
			},
			{
				"x": 2.3437201414,
				"y": -3.0424925781,
				"z": -3.4453351895,
				"element": "H" 
			},
			{
				"x": 1.3967852502,
				"y": -3.042560184,
				"z": -0.8042040692,
				"element": "H" 
			},
			{
				"x": -0.6122939832,
				"y": 4.8866130335,
				"z": 0.6001706884,
				"element": "H" 
			},
			{
				"x": -0.328777797,
				"y": 4.0031551578,
				"z": 2.0041537089,
				"element": "H" 
			}
		],
		 "valence_orbital": [ 
			{
				"type": "occ",
				"energy": -0.30849,
				"method": "rhf"
			},
			{
				"type": "occ",
				"energy": -0.29942,
				"method": "rhf"
			},
			{
				"type": "occ",
				"energy": -0.28794,
				"method": "rhf"
			},
			{
				"type": "occ",
				"energy": -0.27381,
				"method": "rhf"
			},
			{
				"type": "occ",
				"energy": -0.25041,
				"method": "rhf"
			},
			{
				"type": "unocc",
				"energy": -0.06869,
				"method": "rhf"
			},
			{
				"type": "unocc",
				"energy": -0.03195,
				"method": "rhf"
			},
			{
				"type": "unocc",
				"energy": 0.03536,
				"method": "rhf"
			},
			{
				"type": "unocc",
				"energy": 0.04928,
				"method": "rhf"
			},
			{
				"type": "unocc",
				"energy": 0.05475,
				"method": "rhf"
			}
		],
		"cosmo_sigma_profile": { 
			"-0.025": 0.0,
			"-0.024": 0.0,
			"-0.023": 0.0,
			"-0.022": 0.0,
			"-0.021": 0.0,
			"-0.02": 0.0,
			"-0.019": 0.0,
			"-0.018": 0.0,
			"-0.017": 0.0,
			"-0.016": 0.0631325396941,
			"-0.015": 2.10608308355,
			"-0.014": 4.77922767924,
			"-0.013": 3.75829271865,
			"-0.012": 4.24543750273,
			"-0.011": 4.61268569755,
			"-0.01": 4.4963100687,
			"-0.009": 5.77056871054,
			"-0.008": 10.1534876675,
			"-0.007": 12.0575326463,
			"-0.006": 16.6586920113,
			"-0.005": 16.1857239526,
			"-0.004": 15.9341270692,
			"-0.003": 12.8788495725,
			"-0.002": 13.4013838496,
			"-0.001": 12.3513674003,
			"0.0": 14.2717755154,
			"0.001": 13.2506864373,
			"0.002": 10.5126033103,
			"0.003": 7.42250018771,
			"0.004": 6.74768585117,
			"0.005": 6.09840872245,
			"0.006": 6.2771454278,
			"0.007": 7.54352207061,
			"0.008": 7.99744443356,
			"0.009": 10.1682965811,
			"0.01": 14.7545932622,
			"0.011": 17.3782504557,
			"0.012": 6.49144604377,
			"0.013": 1.90379877054,
			"0.014": 1.96759934134,
			"0.015": 0.329161180901,
			"0.016": 0.0,
			"0.017": 0.0,
			"0.018": 0.0,
			"0.019": 0.0,
			"0.02": 0.0,
			"0.021": 0.0,
			"0.022": 0.0,
			"0.023": 0.0,
			"0.024": 0.0,
			"0.025": 0.0
		}
	}
}
