{
	 "smiles": "OC1=C(Br)N=CC(Cl)=C1", 
	 "Tm": 418.15, 
	 "num_atms": 12, 
	 "gaussian": { 
		 "optdone": 1, 
		 "sigma_profile": "yes", 
		 "theory": "DFT", 
		 "functional": "B3LYP", 
		 "basiset": "6-31G**", 
		 "properties": { 
			 "R2extent": 3358.7627, 
			 "electric_dipole_moment_norm": 1.13106221756, 
			 "electric_quadrupole_moment_norm": 4.71972900493, 
			 "total_energy": -3353.90162453, 
			 "HOMO_LUMO_gap": 0.20028, 
			 "cosmo_polarized_energy": -6.41, 
			 "cosmo_cavitation_energy": 20.73, 
			 "cosmo_dispersion_energy": -16.38, 
			 "cosmo_repulsion_energy": 1.34, 
			 "cosmo_total_nonelectrostatic_energy": 5.69, 
			 "SMD_solvation_energy": 1.3 
		},
		"coords": [
			{
				"x": 0.6415755413,
				"y": -0.4124384236,
				"z": -0.6941879203,
				"element": "O" 
			},
			{
				"x": -0.0166409306,
				"y": 0.6092194294,
				"z": -0.114716062,
				"element": "C" 
			},
			{
				"x": 0.517132763,
				"y": 1.9006108561,
				"z": 0.057178751,
				"element": "C" 
			},
			{
				"x": 2.3127883072,
				"y": 2.2055301658,
				"z": -0.5877814016,
				"element": "Br" 
			},
			{
				"x": -0.1160032753,
				"y": 2.9003709331,
				"z": 0.6197057692,
				"element": "N" 
			},
			{
				"x": -1.3595170686,
				"y": 2.7092636888,
				"z": 1.0722179852,
				"element": "C" 
			},
			{
				"x": -1.9844677702,
				"y": 1.466099115,
				"z": 0.9523129102,
				"element": "C" 
			},
			{
				"x": -3.6123301798,
				"y": 1.2512880018,
				"z": 1.5553311891,
				"element": "Cl" 
			},
			{
				"x": -1.31624955,
				"y": 0.401123105,
				"z": 0.3556493565,
				"element": "C" 
			},
			{
				"x": 1.5230493837,
				"y": -0.0981745005,
				"z": -0.9607281776,
				"element": "H" 
			},
			{
				"x": -1.8626021609,
				"y": 3.5525926345,
				"z": 1.5340164356,
				"element": "H" 
			},
			{
				"x": -1.7743350598,
				"y": -0.5750850053,
				"z": 0.2481011647,
				"element": "H" 
			}
		],
		 "valence_orbital": [ 
			{
				"type": "occ",
				"energy": -0.32003,
				"method": "rhf"
			},
			{
				"type": "occ",
				"energy": -0.31495,
				"method": "rhf"
			},
			{
				"type": "occ",
				"energy": -0.28751,
				"method": "rhf"
			},
			{
				"type": "occ",
				"energy": -0.28558,
				"method": "rhf"
			},
			{
				"type": "occ",
				"energy": -0.24936,
				"method": "rhf"
			},
			{
				"type": "unocc",
				"energy": -0.04908,
				"method": "rhf"
			},
			{
				"type": "unocc",
				"energy": -0.0272,
				"method": "rhf"
			},
			{
				"type": "unocc",
				"energy": -0.01082,
				"method": "rhf"
			},
			{
				"type": "unocc",
				"energy": 0.01598,
				"method": "rhf"
			},
			{
				"type": "unocc",
				"energy": 0.0798,
				"method": "rhf"
			}
		],
		"cosmo_sigma_profile": { 
			"-0.025": 0.0,
			"-0.024": 0.0,
			"-0.023": 0.0,
			"-0.022": 0.0,
			"-0.021": 0.0,
			"-0.02": 0.0,
			"-0.019": 0.0,
			"-0.018": 0.0,
			"-0.017": 0.0,
			"-0.016": 0.0,
			"-0.015": 0.414438381382,
			"-0.014": 1.02461836851,
			"-0.013": 0.596077925107,
			"-0.012": 0.256667734082,
			"-0.011": 0.991941936069,
			"-0.01": 1.49075874832,
			"-0.009": 2.41200909929,
			"-0.008": 3.97892615068,
			"-0.007": 4.6797065007,
			"-0.006": 3.9798879514,
			"-0.005": 5.94412321653,
			"-0.004": 6.66079362414,
			"-0.003": 8.88604876784,
			"-0.002": 15.0240131045,
			"-0.001": 19.8775650531,
			"0.0": 19.7781039409,
			"0.001": 11.7690243467,
			"0.002": 13.5324785755,
			"0.003": 18.2706023048,
			"0.004": 14.9900173471,
			"0.005": 3.70824923144,
			"0.006": 2.63885254709,
			"0.007": 2.61887035109,
			"0.008": 2.3736571289,
			"0.009": 3.5247971539,
			"0.01": 1.30013397817,
			"0.011": 0.81804282039,
			"0.012": 0.998013162292,
			"0.013": 0.373364164988,
			"0.014": 0.0,
			"0.015": 0.0,
			"0.016": 0.0,
			"0.017": 0.0,
			"0.018": 0.0,
			"0.019": 0.0,
			"0.02": 0.0,
			"0.021": 0.0,
			"0.022": 0.0,
			"0.023": 0.0,
			"0.024": 0.0,
			"0.025": 0.0
		}
	}
}
