{
	 "smiles": "CC1=CC=C(C=C1)N1C=C(C=N1)S(Cl)(=O)=O", 
	 "Tm": 366.15, 
	 "num_atms": 25, 
	 "gaussian": { 
		 "optdone": 1, 
		 "sigma_profile": "yes", 
		 "theory": "DFT", 
		 "functional": "B3LYP", 
		 "basiset": "6-31G**", 
		 "properties": { 
			 "R2extent": 7112.3072, 
			 "electric_dipole_moment_norm": 6.95329105244, 
			 "electric_quadrupole_moment_norm": 10.3820470616, 
			 "total_energy": -1504.73073537, 
			 "HOMO_LUMO_gap": 0.16582, 
			 "cosmo_polarized_energy": -12.09, 
			 "cosmo_cavitation_energy": 33.55, 
			 "cosmo_dispersion_energy": -24.8, 
			 "cosmo_repulsion_energy": 1.88, 
			 "cosmo_total_nonelectrostatic_energy": 10.63, 
			 "SMD_solvation_energy": 4.1 
		},
		"coords": [
			{
				"x": 4.8359069311,
				"y": 1.9648731924,
				"z": 0.8504859202,
				"element": "C" 
			},
			{
				"x": 3.3806073783,
				"y": 1.6810104315,
				"z": 0.565876828,
				"element": "C" 
			},
			{
				"x": 2.9960386191,
				"y": 0.7902953764,
				"z": -0.442876233,
				"element": "C" 
			},
			{
				"x": 1.65199342,
				"y": 0.5376636924,
				"z": -0.7160805468,
				"element": "C" 
			},
			{
				"x": 0.6677322943,
				"y": 1.170714587,
				"z": 0.0438694378,
				"element": "C" 
			},
			{
				"x": 1.0227988478,
				"y": 2.0678524786,
				"z": 1.055286773,
				"element": "C" 
			},
			{
				"x": 2.3687110896,
				"y": 2.3161192585,
				"z": 1.3025024886,
				"element": "C" 
			},
			{
				"x": -0.7126392105,
				"y": 0.9069408429,
				"z": -0.2038357249,
				"element": "N" 
			},
			{
				"x": -1.2602971471,
				"y": -0.2198220618,
				"z": -0.7152180536,
				"element": "C" 
			},
			{
				"x": -2.6274114621,
				"y": 0.0038857811,
				"z": -0.7415031296,
				"element": "C" 
			},
			{
				"x": -2.8154355335,
				"y": 1.3056167873,
				"z": -0.2185696324,
				"element": "C" 
			},
			{
				"x": -1.6528822541,
				"y": 1.8460390371,
				"z": 0.1091410554,
				"element": "N" 
			},
			{
				"x": -3.8355346176,
				"y": -1.1284211477,
				"z": -1.28656501,
				"element": "S" 
			},
			{
				"x": -4.0735224265,
				"y": -0.5796473414,
				"z": -3.3386907416,
				"element": "Cl" 
			},
			{
				"x": -3.260840515,
				"y": -2.4680588925,
				"z": -1.2984863232,
				"element": "O" 
			},
			{
				"x": -5.1053505207,
				"y": -0.8180032037,
				"z": -0.644439565,
				"element": "O" 
			},
			{
				"x": 5.4925926835,
				"y": 1.3386658581,
				"z": 0.2410099201,
				"element": "H" 
			},
			{
				"x": 5.0781967,
				"y": 1.7814735434,
				"z": 1.9030909566,
				"element": "H" 
			},
			{
				"x": 5.0840168804,
				"y": 3.0118463841,
				"z": 0.6411059645,
				"element": "H" 
			},
			{
				"x": 3.7570426353,
				"y": 0.2938150007,
				"z": -1.0383714363,
				"element": "H" 
			},
			{
				"x": 1.3814805241,
				"y": -0.1286281539,
				"z": -1.5287342061,
				"element": "H" 
			},
			{
				"x": 0.2448448521,
				"y": 2.5570801305,
				"z": 1.6287048509,
				"element": "H" 
			},
			{
				"x": 2.638866089,
				"y": 3.0138733081,
				"z": 2.0908374567,
				"element": "H" 
			},
			{
				"x": -0.6857012778,
				"y": -1.0913402906,
				"z": -0.9852058902,
				"element": "H" 
			},
			{
				"x": -3.7413139798,
				"y": 1.8430554015,
				"z": -0.072235159,
				"element": "H" 
			}
		],
		 "valence_orbital": [ 
			{
				"type": "occ",
				"energy": -0.31154,
				"method": "rhf"
			},
			{
				"type": "occ",
				"energy": -0.30998,
				"method": "rhf"
			},
			{
				"type": "occ",
				"energy": -0.29054,
				"method": "rhf"
			},
			{
				"type": "occ",
				"energy": -0.27548,
				"method": "rhf"
			},
			{
				"type": "occ",
				"energy": -0.25015,
				"method": "rhf"
			},
			{
				"type": "unocc",
				"energy": -0.08433,
				"method": "rhf"
			},
			{
				"type": "unocc",
				"energy": -0.04773,
				"method": "rhf"
			},
			{
				"type": "unocc",
				"energy": -0.02684,
				"method": "rhf"
			},
			{
				"type": "unocc",
				"energy": 0.00015,
				"method": "rhf"
			},
			{
				"type": "unocc",
				"energy": 0.00948,
				"method": "rhf"
			}
		],
		"cosmo_sigma_profile": { 
			"-0.025": 0.0,
			"-0.024": 0.0,
			"-0.023": 0.0,
			"-0.022": 0.0,
			"-0.021": 0.0,
			"-0.02": 0.0,
			"-0.019": 0.0,
			"-0.018": 0.0,
			"-0.017": 0.0,
			"-0.016": 0.0,
			"-0.015": 0.0,
			"-0.014": 0.0,
			"-0.013": 0.0,
			"-0.012": 1.04224476284,
			"-0.011": 2.15611480771,
			"-0.01": 3.14757884953,
			"-0.009": 3.22461041087,
			"-0.008": 4.08095898637,
			"-0.007": 5.56326414588,
			"-0.006": 10.1762117476,
			"-0.005": 15.452029262,
			"-0.004": 17.8858338346,
			"-0.003": 18.5208060934,
			"-0.002": 23.7220576975,
			"-0.001": 24.8407975192,
			"0.0": 21.7458929398,
			"0.001": 16.8239652646,
			"0.002": 17.3978264817,
			"0.003": 24.8681082935,
			"0.004": 23.8901549249,
			"0.005": 6.10965977298,
			"0.006": 3.9240438216,
			"0.007": 7.13216121502,
			"0.008": 12.1273809141,
			"0.009": 5.83092622011,
			"0.01": 1.11512507482,
			"0.011": 1.04552969595,
			"0.012": 0.313739017501,
			"0.013": 0.0,
			"0.014": 0.0,
			"0.015": 0.0,
			"0.016": 0.0,
			"0.017": 0.0,
			"0.018": 0.0,
			"0.019": 0.0,
			"0.02": 0.0,
			"0.021": 0.0,
			"0.022": 0.0,
			"0.023": 0.0,
			"0.024": 0.0,
			"0.025": 0.0
		}
	}
}
