{
	 "smiles": "NC(=NO)C1=C(CN2CCCCC2)C=CC=C1", 
	 "Tm": 388.15, 
	 "num_atms": 36, 
	 "gaussian": { 
		 "optdone": 1, 
		 "sigma_profile": "yes", 
		 "theory": "DFT", 
		 "functional": "B3LYP", 
		 "basiset": "6-31G**", 
		 "properties": { 
			 "R2extent": 4317.9082, 
			 "electric_dipole_moment_norm": 1.5607004357, 
			 "electric_quadrupole_moment_norm": 6.2517428378, 
			 "total_energy": -746.250107318, 
			 "HOMO_LUMO_gap": 0.1663, 
			 "cosmo_polarized_energy": -12.9, 
			 "cosmo_cavitation_energy": 36.16, 
			 "cosmo_dispersion_energy": -25.33, 
			 "cosmo_repulsion_energy": 2.0, 
			 "cosmo_total_nonelectrostatic_energy": 12.83, 
			 "SMD_solvation_energy": 3.3 
		},
		"coords": [
			{
				"x": 3.3250959385,
				"y": -0.0943629782,
				"z": -0.7416573855,
				"element": "N" 
			},
			{
				"x": 2.0593728324,
				"y": 0.089204243,
				"z": -1.2652227106,
				"element": "C" 
			},
			{
				"x": 1.527221784,
				"y": -0.6820993813,
				"z": -2.1559739535,
				"element": "N" 
			},
			{
				"x": 2.4782330225,
				"y": -1.6742031456,
				"z": -2.5500398865,
				"element": "O" 
			},
			{
				"x": 1.2490732715,
				"y": 1.2479134463,
				"z": -0.7875171623,
				"element": "C" 
			},
			{
				"x": 1.0200723219,
				"y": 1.5268266401,
				"z": 0.5815167308,
				"element": "C" 
			},
			{
				"x": 1.4016739562,
				"y": 0.5735377468,
				"z": 1.7222178151,
				"element": "C" 
			},
			{
				"x": 0.3843412214,
				"y": -0.3937176974,
				"z": 2.1359389097,
				"element": "N" 
			},
			{
				"x": -0.7963757383,
				"y": 0.1282368952,
				"z": 2.8454006762,
				"element": "C" 
			},
			{
				"x": -2.101744377,
				"y": -0.0482244091,
				"z": 2.0570384694,
				"element": "C" 
			},
			{
				"x": -2.3651729617,
				"y": -1.5444732252,
				"z": 1.768685398,
				"element": "C" 
			},
			{
				"x": -1.039017834,
				"y": -2.333845487,
				"z": 1.6501851086,
				"element": "C" 
			},
			{
				"x": 0.0925115617,
				"y": -1.4355071065,
				"z": 1.1454546941,
				"element": "C" 
			},
			{
				"x": 0.334221549,
				"y": 2.7106274073,
				"z": 0.8982138216,
				"element": "C" 
			},
			{
				"x": -0.1594779097,
				"y": 3.5681684773,
				"z": -0.0835081432,
				"element": "C" 
			},
			{
				"x": 0.0259658282,
				"y": 3.2551593427,
				"z": -1.4301779714,
				"element": "C" 
			},
			{
				"x": 0.7344992516,
				"y": 2.1068707986,
				"z": -1.7725630261,
				"element": "C" 
			},
			{
				"x": 3.8913276094,
				"y": -0.7526651541,
				"z": -1.2605290378,
				"element": "H" 
			},
			{
				"x": 3.8031506072,
				"y": 0.7419388143,
				"z": -0.4401974187,
				"element": "H" 
			},
			{
				"x": 1.9776872994,
				"y": -2.1765616994,
				"z": -3.2035595487,
				"element": "H" 
			},
			{
				"x": 2.2928071852,
				"y": 0.0035058003,
				"z": 1.4478495583,
				"element": "H" 
			},
			{
				"x": 1.6625208413,
				"y": 1.1768075641,
				"z": 2.6000303493,
				"element": "H" 
			},
			{
				"x": -0.6395555425,
				"y": 1.1848330301,
				"z": 3.0802725253,
				"element": "H" 
			},
			{
				"x": -0.8966215598,
				"y": -0.3867370362,
				"z": 3.8147545023,
				"element": "H" 
			},
			{
				"x": -2.0215817133,
				"y": 0.5094935791,
				"z": 1.1171644067,
				"element": "H" 
			},
			{
				"x": -2.9377651308,
				"y": 0.3918301551,
				"z": 2.6135005582,
				"element": "H" 
			},
			{
				"x": -2.9796117865,
				"y": -1.9802157276,
				"z": 2.565346973,
				"element": "H" 
			},
			{
				"x": -2.945025967,
				"y": -1.6406593819,
				"z": 0.8435036682,
				"element": "H" 
			},
			{
				"x": -0.7497581682,
				"y": -2.7382602255,
				"z": 2.6276828967,
				"element": "H" 
			},
			{
				"x": -1.1581696103,
				"y": -3.1898118,
				"z": 0.9774378871,
				"element": "H" 
			},
			{
				"x": 1.007304449,
				"y": -2.0198450907,
				"z": 0.9819055816,
				"element": "H" 
			},
			{
				"x": -0.1911919975,
				"y": -1.026455667,
				"z": 0.1602261875,
				"element": "H" 
			},
			{
				"x": 0.1862913779,
				"y": 2.9642959224,
				"z": 1.9446386228,
				"element": "H" 
			},
			{
				"x": -0.6832248479,
				"y": 4.4760491845,
				"z": 0.2026749061,
				"element": "H" 
			},
			{
				"x": -0.3586291135,
				"y": 3.9091265925,
				"z": -2.2073091681,
				"element": "H" 
			},
			{
				"x": 0.9112523498,
				"y": 1.8591195733,
				"z": -2.8138848342,
				"element": "H" 
			}
		],
		 "valence_orbital": [ 
			{
				"type": "occ",
				"energy": -0.27041,
				"method": "rhf"
			},
			{
				"type": "occ",
				"energy": -0.25105,
				"method": "rhf"
			},
			{
				"type": "occ",
				"energy": -0.24559,
				"method": "rhf"
			},
			{
				"type": "occ",
				"energy": -0.21146,
				"method": "rhf"
			},
			{
				"type": "occ",
				"energy": -0.18345,
				"method": "rhf"
			},
			{
				"type": "unocc",
				"energy": -0.01715,
				"method": "rhf"
			},
			{
				"type": "unocc",
				"energy": -0.00348,
				"method": "rhf"
			},
			{
				"type": "unocc",
				"energy": 0.04701,
				"method": "rhf"
			},
			{
				"type": "unocc",
				"energy": 0.07721,
				"method": "rhf"
			},
			{
				"type": "unocc",
				"energy": 0.08623,
				"method": "rhf"
			}
		],
		"cosmo_sigma_profile": { 
			"-0.025": 0.0,
			"-0.024": 0.0,
			"-0.023": 0.0,
			"-0.022": 0.0,
			"-0.021": 0.0,
			"-0.02": 0.0,
			"-0.019": 0.0,
			"-0.018": 0.0,
			"-0.017": 0.188407734598,
			"-0.016": 1.00921179926,
			"-0.015": 0.969118724304,
			"-0.014": 0.830116931534,
			"-0.013": 1.68246032257,
			"-0.012": 2.00573020117,
			"-0.011": 2.27290790866,
			"-0.01": 2.93369849009,
			"-0.009": 3.42831573534,
			"-0.008": 2.38572795968,
			"-0.007": 2.82087141696,
			"-0.006": 7.82945231741,
			"-0.005": 10.9762436199,
			"-0.004": 12.7045320927,
			"-0.003": 16.0159667327,
			"-0.002": 24.9794360038,
			"-0.001": 37.9795971438,
			"0.0": 35.0306580485,
			"0.001": 27.9503231677,
			"0.002": 16.1906687246,
			"0.003": 13.1406539554,
			"0.004": 12.8176339555,
			"0.005": 12.8843404486,
			"0.006": 6.70484474011,
			"0.007": 6.937862891,
			"0.008": 6.33720400154,
			"0.009": 3.16081401001,
			"0.01": 2.86072417146,
			"0.011": 2.00793115343,
			"0.012": 1.23512582077,
			"0.013": 1.1860736028,
			"0.014": 1.16472898993,
			"0.015": 0.974002386886,
			"0.016": 0.415888852153,
			"0.017": 0.0,
			"0.018": 0.0,
			"0.019": 0.0,
			"0.02": 0.0,
			"0.021": 0.0,
			"0.022": 0.0,
			"0.023": 0.0,
			"0.024": 0.0,
			"0.025": 0.0
		}
	}
}
