{
	 "smiles": "OCC1OC(OC2(CCl)OC(CCl)C(O)C2O)C(O)C(O)C1Cl", 
	 "Tm": 403.15, 
	 "num_atms": 42, 
	 "gaussian": { 
		 "optdone": 1, 
		 "sigma_profile": "yes", 
		 "theory": "DFT", 
		 "functional": "B3LYP", 
		 "basiset": "6-31G**", 
		 "properties": { 
			 "R2extent": 9373.0714, 
			 "electric_dipole_moment_norm": 3.88897216755, 
			 "electric_quadrupole_moment_norm": 12.1762898877, 
			 "total_energy": -2451.06423295, 
			 "HOMO_LUMO_gap": 0.27342, 
			 "cosmo_polarized_energy": -23.78, 
			 "cosmo_cavitation_energy": 45.95, 
			 "cosmo_dispersion_energy": -31.18, 
			 "cosmo_repulsion_energy": 2.39, 
			 "cosmo_total_nonelectrostatic_energy": 17.15, 
			 "SMD_solvation_energy": 5.56 
		},
		"coords": [
			{
				"x": 2.1452768177,
				"y": -2.98048962,
				"z": 2.1356015431,
				"element": "O" 
			},
			{
				"x": 2.1792138903,
				"y": -1.7999199011,
				"z": 2.9159560086,
				"element": "C" 
			},
			{
				"x": 0.9943516303,
				"y": -0.8948724121,
				"z": 2.5892870213,
				"element": "C" 
			},
			{
				"x": 1.1139426125,
				"y": -0.556280553,
				"z": 1.1999722101,
				"element": "O" 
			},
			{
				"x": -0.0358572368,
				"y": 0.1177644066,
				"z": 0.7147798568,
				"element": "C" 
			},
			{
				"x": 0.1628018162,
				"y": 0.3981227636,
				"z": -0.649088776,
				"element": "O" 
			},
			{
				"x": -0.4471483918,
				"y": -0.4508176955,
				"z": -1.6444003678,
				"element": "C" 
			},
			{
				"x": 0.4362930723,
				"y": -1.6921975421,
				"z": -1.7736641491,
				"element": "C" 
			},
			{
				"x": -0.1169235724,
				"y": -2.8109424083,
				"z": -3.0789423876,
				"element": "Cl" 
			},
			{
				"x": -1.7455989076,
				"y": -0.8217252059,
				"z": -1.3025912406,
				"element": "O" 
			},
			{
				"x": -2.7361215548,
				"y": -0.0094145432,
				"z": -1.9800427846,
				"element": "C" 
			},
			{
				"x": -3.7940526489,
				"y": 0.4723060358,
				"z": -1.0021367905,
				"element": "C" 
			},
			{
				"x": -4.7891622668,
				"y": -0.9008206476,
				"z": -0.3676889388,
				"element": "Cl" 
			},
			{
				"x": -1.9591092968,
				"y": 1.110717117,
				"z": -2.6798470493,
				"element": "C" 
			},
			{
				"x": -1.8466237077,
				"y": 2.2675617693,
				"z": -1.8541868386,
				"element": "O" 
			},
			{
				"x": -0.5679557698,
				"y": 0.4651782619,
				"z": -2.8891910074,
				"element": "C" 
			},
			{
				"x": 0.4567396662,
				"y": 1.4279037747,
				"z": -2.9945743409,
				"element": "O" 
			},
			{
				"x": -0.2187094908,
				"y": 1.4610386925,
				"z": 1.4272158111,
				"element": "C" 
			},
			{
				"x": -1.4344497006,
				"y": 2.0813985744,
				"z": 1.0405045824,
				"element": "O" 
			},
			{
				"x": -0.3053624793,
				"y": 1.2450023894,
				"z": 2.9460391852,
				"element": "C" 
			},
			{
				"x": -1.4988366668,
				"y": 0.5506175272,
				"z": 3.271738705,
				"element": "O" 
			},
			{
				"x": 0.8488824203,
				"y": 0.3631900786,
				"z": 3.4506873612,
				"element": "C" 
			},
			{
				"x": 2.3792906495,
				"y": 1.3593683889,
				"z": 3.4956224204,
				"element": "Cl" 
			},
			{
				"x": 2.1978021409,
				"y": -2.6941784806,
				"z": 1.2139190746,
				"element": "H" 
			},
			{
				"x": 3.1149754747,
				"y": -1.2436237603,
				"z": 2.7747509169,
				"element": "H" 
			},
			{
				"x": 2.1214340922,
				"y": -2.1073158193,
				"z": 3.9649257793,
				"element": "H" 
			},
			{
				"x": 0.0672200811,
				"y": -1.4681673365,
				"z": 2.7423008852,
				"element": "H" 
			},
			{
				"x": -0.930929947,
				"y": -0.5020828491,
				"z": 0.8469016915,
				"element": "H" 
			},
			{
				"x": 0.4203034198,
				"y": -2.25002988,
				"z": -0.8374105612,
				"element": "H" 
			},
			{
				"x": 1.4572989256,
				"y": -1.3911383782,
				"z": -2.0074023409,
				"element": "H" 
			},
			{
				"x": -3.2057442683,
				"y": -0.6433366944,
				"z": -2.7412770156,
				"element": "H" 
			},
			{
				"x": -3.339577621,
				"y": 0.9624046694,
				"z": -0.1435136547,
				"element": "H" 
			},
			{
				"x": -4.4796884217,
				"y": 1.1609148961,
				"z": -1.4982279172,
				"element": "H" 
			},
			{
				"x": -2.4318915739,
				"y": 1.3817462706,
				"z": -3.6319912418,
				"element": "H" 
			},
			{
				"x": -1.0865670692,
				"y": 2.7542145568,
				"z": -2.2158263614,
				"element": "H" 
			},
			{
				"x": -0.5746557365,
				"y": -0.1478816713,
				"z": -3.7949775923,
				"element": "H" 
			},
			{
				"x": 0.8454925475,
				"y": 1.5018641242,
				"z": -2.1068514947,
				"element": "H" 
			},
			{
				"x": 0.6526236345,
				"y": 2.0886213323,
				"z": 1.1949704311,
				"element": "H" 
			},
			{
				"x": -1.4627923048,
				"y": 2.1609212966,
				"z": 0.0675456797,
				"element": "H" 
			},
			{
				"x": -0.2685740981,
				"y": 2.2212591903,
				"z": 3.4486943682,
				"element": "H" 
			},
			{
				"x": -2.1979071044,
				"y": 0.9670827304,
				"z": 2.7439645131,
				"element": "H" 
			},
			{
				"x": 0.6480969444,
				"y": 0.0809365519,
				"z": 4.4860548064,
				"element": "H" 
			}
		],
		 "valence_orbital": [ 
			{
				"type": "occ",
				"energy": -0.29918,
				"method": "rhf"
			},
			{
				"type": "occ",
				"energy": -0.29645,
				"method": "rhf"
			},
			{
				"type": "occ",
				"energy": -0.29036,
				"method": "rhf"
			},
			{
				"type": "occ",
				"energy": -0.27407,
				"method": "rhf"
			},
			{
				"type": "occ",
				"energy": -0.26753,
				"method": "rhf"
			},
			{
				"type": "unocc",
				"energy": 0.00589,
				"method": "rhf"
			},
			{
				"type": "unocc",
				"energy": 0.0078,
				"method": "rhf"
			},
			{
				"type": "unocc",
				"energy": 0.012,
				"method": "rhf"
			},
			{
				"type": "unocc",
				"energy": 0.0488,
				"method": "rhf"
			},
			{
				"type": "unocc",
				"energy": 0.05922,
				"method": "rhf"
			}
		],
		"cosmo_sigma_profile": { 
			"-0.025": 0.0,
			"-0.024": 0.0,
			"-0.023": 0.0,
			"-0.022": 0.0,
			"-0.021": 0.0,
			"-0.02": 0.0,
			"-0.019": 0.0,
			"-0.018": 0.0,
			"-0.017": 0.0,
			"-0.016": 0.0,
			"-0.015": 0.0150142759012,
			"-0.014": 0.57386896112,
			"-0.013": 0.874766033728,
			"-0.012": 2.63225643639,
			"-0.011": 3.5496268708,
			"-0.01": 4.05172705186,
			"-0.009": 4.73501103049,
			"-0.008": 16.2936009809,
			"-0.007": 20.5846665696,
			"-0.006": 20.9965701789,
			"-0.005": 22.414543308,
			"-0.004": 22.1886827007,
			"-0.003": 21.7675454314,
			"-0.002": 19.1952115311,
			"-0.001": 18.5560742567,
			"0.0": 18.3097289935,
			"0.001": 15.7464843703,
			"0.002": 18.9638428152,
			"0.003": 19.8991503702,
			"0.004": 21.6908756913,
			"0.005": 22.505280984,
			"0.006": 24.031400361,
			"0.007": 9.64511177585,
			"0.008": 7.00814339055,
			"0.009": 7.71632063238,
			"0.01": 5.34655071624,
			"0.011": 5.21891660858,
			"0.012": 4.10535834407,
			"0.013": 4.18245938325,
			"0.014": 1.89444545058,
			"0.015": 0.100422880618,
			"0.016": 0.0,
			"0.017": 0.0,
			"0.018": 0.0,
			"0.019": 0.0,
			"0.02": 0.0,
			"0.021": 0.0,
			"0.022": 0.0,
			"0.023": 0.0,
			"0.024": 0.0,
			"0.025": 0.0
		}
	}
}
