{
	 "smiles": "CC1=NN=C2NC=C(C=C12)C(=O)NN", 
	 "Tm": 563.15, 
	 "num_atms": 23, 
	 "gaussian": { 
		 "optdone": 1, 
		 "sigma_profile": "yes", 
		 "theory": "DFT", 
		 "functional": "B3LYP", 
		 "basiset": "6-31G**", 
		 "properties": { 
			 "R2extent": 4218.7753, 
			 "electric_dipole_moment_norm": 5.30990257349, 
			 "electric_quadrupole_moment_norm": 23.3701643999, 
			 "total_energy": -659.199601336, 
			 "HOMO_LUMO_gap": 0.14215, 
			 "cosmo_polarized_energy": -30.27, 
			 "cosmo_cavitation_energy": 28.0, 
			 "cosmo_dispersion_energy": -20.7, 
			 "cosmo_repulsion_energy": 1.63, 
			 "cosmo_total_nonelectrostatic_energy": 8.93, 
			 "SMD_solvation_energy": 3.81 
		},
		"coords": [
			{
				"x": 2.9220682209,
				"y": 0.4745830724,
				"z": 4.5849781097,
				"element": "C" 
			},
			{
				"x": 1.6638076331,
				"y": 0.8192228888,
				"z": 3.8527834072,
				"element": "C" 
			},
			{
				"x": 0.6864516951,
				"y": 1.5089800064,
				"z": 4.4232751766,
				"element": "N" 
			},
			{
				"x": -0.3786666609,
				"y": 1.70379531,
				"z": 3.5379921951,
				"element": "N" 
			},
			{
				"x": -0.0167524356,
				"y": 1.1115534071,
				"z": 2.4277024994,
				"element": "C" 
			},
			{
				"x": -0.7201827531,
				"y": 1.0378952196,
				"z": 1.2513007417,
				"element": "N" 
			},
			{
				"x": -0.2222585851,
				"y": 0.3861317668,
				"z": 0.1767038005,
				"element": "C" 
			},
			{
				"x": 1.020429689,
				"y": -0.2339493138,
				"z": 0.2228535546,
				"element": "C" 
			},
			{
				"x": 1.8052021323,
				"y": -0.1541035013,
				"z": 1.4077538283,
				"element": "C" 
			},
			{
				"x": 1.293090274,
				"y": 0.4978107706,
				"z": 2.5034615453,
				"element": "C" 
			},
			{
				"x": 1.5983134094,
				"y": -0.9356815069,
				"z": -0.9600587451,
				"element": "C" 
			},
			{
				"x": 2.8052304825,
				"y": -1.1118996763,
				"z": -1.089998749,
				"element": "O" 
			},
			{
				"x": 0.6946086315,
				"y": -1.3766986301,
				"z": -1.9089066117,
				"element": "N" 
			},
			{
				"x": 1.159805277,
				"y": -2.1687075082,
				"z": -2.9857845094,
				"element": "N" 
			},
			{
				"x": 2.8678466541,
				"y": 0.8768394758,
				"z": 5.5987100202,
				"element": "H" 
			},
			{
				"x": 3.8062312372,
				"y": 0.8954619471,
				"z": 4.0918060713,
				"element": "H" 
			},
			{
				"x": 3.0696699699,
				"y": -0.6099673007,
				"z": 4.6498935463,
				"element": "H" 
			},
			{
				"x": -1.6169998663,
				"y": 1.5078778547,
				"z": 1.2030350339,
				"element": "H" 
			},
			{
				"x": -0.8296255795,
				"y": 0.4103294298,
				"z": -0.7197695852,
				"element": "H" 
			},
			{
				"x": 2.7883352912,
				"y": -0.615157846,
				"z": 1.3954273773,
				"element": "H" 
			},
			{
				"x": -0.2221264884,
				"y": -1.657121023,
				"z": -1.5866577938,
				"element": "H" 
			},
			{
				"x": 2.0263576381,
				"y": -2.6081401438,
				"z": -2.6691158866,
				"element": "H" 
			},
			{
				"x": 1.4362641337,
				"y": -1.5304546991,
				"z": -3.7306850265,
				"element": "H" 
			}
		],
		 "valence_orbital": [ 
			{
				"type": "occ",
				"energy": -0.27986,
				"method": "rhf"
			},
			{
				"type": "occ",
				"energy": -0.26954,
				"method": "rhf"
			},
			{
				"type": "occ",
				"energy": -0.25755,
				"method": "rhf"
			},
			{
				"type": "occ",
				"energy": -0.23961,
				"method": "rhf"
			},
			{
				"type": "occ",
				"energy": -0.22111,
				"method": "rhf"
			},
			{
				"type": "unocc",
				"energy": -0.07896,
				"method": "rhf"
			},
			{
				"type": "unocc",
				"energy": -0.04449,
				"method": "rhf"
			},
			{
				"type": "unocc",
				"energy": 0.04299,
				"method": "rhf"
			},
			{
				"type": "unocc",
				"energy": 0.049,
				"method": "rhf"
			},
			{
				"type": "unocc",
				"energy": 0.06713,
				"method": "rhf"
			}
		],
		"cosmo_sigma_profile": { 
			"-0.025": 0.0,
			"-0.024": 0.0,
			"-0.023": 0.0,
			"-0.022": 0.0,
			"-0.021": 0.0,
			"-0.02": 0.0,
			"-0.019": 0.309073874029,
			"-0.018": 1.87581260385,
			"-0.017": 1.69622861302,
			"-0.016": 1.24321429334,
			"-0.015": 2.15009146005,
			"-0.014": 2.62171226251,
			"-0.013": 2.59613073907,
			"-0.012": 4.10043931973,
			"-0.011": 5.16948803399,
			"-0.01": 4.38896045918,
			"-0.009": 5.25927700849,
			"-0.008": 4.81580917032,
			"-0.007": 4.95818243985,
			"-0.006": 5.20425554424,
			"-0.005": 9.26016063296,
			"-0.004": 13.8895556,
			"-0.003": 18.0146571118,
			"-0.002": 16.5539129249,
			"-0.001": 16.0448220259,
			"0.0": 16.0023105372,
			"0.001": 11.4949881691,
			"0.002": 8.73672291059,
			"0.003": 4.88271105066,
			"0.004": 5.57855376872,
			"0.005": 4.04619550095,
			"0.006": 4.61529277879,
			"0.007": 3.93801327574,
			"0.008": 2.70019319299,
			"0.009": 3.8402526147,
			"0.01": 3.95394542585,
			"0.011": 4.92419743677,
			"0.012": 5.81821334348,
			"0.013": 7.11529023013,
			"0.014": 2.39880034615,
			"0.015": 4.02482635375,
			"0.016": 4.10473621348,
			"0.017": 2.90359712345,
			"0.018": 1.67682759522,
			"0.019": 0.104295667936,
			"0.02": 0.0,
			"0.021": 0.0,
			"0.022": 0.0,
			"0.023": 0.0,
			"0.024": 0.0,
			"0.025": 0.0
		}
	}
}
