{
	 "smiles": "NC1=NC(=CS1)C1=CC=C(C=C1)C1CCCCC1", 
	 "Tm": 501.15, 
	 "num_atms": 36, 
	 "gaussian": { 
		 "optdone": 1, 
		 "sigma_profile": "yes", 
		 "theory": "DFT", 
		 "functional": "B3LYP", 
		 "basiset": "6-31G**", 
		 "properties": { 
			 "R2extent": 9398.7718, 
			 "electric_dipole_moment_norm": 1.39318599261, 
			 "electric_quadrupole_moment_norm": 20.6519098754, 
			 "total_energy": -1090.15022142, 
			 "HOMO_LUMO_gap": 0.17105, 
			 "cosmo_polarized_energy": -11.59, 
			 "cosmo_cavitation_energy": 38.72, 
			 "cosmo_dispersion_energy": -29.02, 
			 "cosmo_repulsion_energy": 2.2, 
			 "cosmo_total_nonelectrostatic_energy": 11.9, 
			 "SMD_solvation_energy": 4.14 
		},
		"coords": [
			{
				"x": 4.3726278001,
				"y": -5.5446603229,
				"z": -0.7751654812,
				"element": "N" 
			},
			{
				"x": 3.7740468539,
				"y": -4.6537114682,
				"z": 0.0887870886,
				"element": "C" 
			},
			{
				"x": 2.848361806,
				"y": -3.8133062972,
				"z": -0.259174145,
				"element": "N" 
			},
			{
				"x": 2.4876194475,
				"y": -2.9847205862,
				"z": 0.7973572398,
				"element": "C" 
			},
			{
				"x": 3.156120514,
				"y": -3.220964351,
				"z": 1.9685828929,
				"element": "C" 
			},
			{
				"x": 4.3099479281,
				"y": -4.5148218042,
				"z": 1.7700576757,
				"element": "S" 
			},
			{
				"x": 1.4437571731,
				"y": -1.966526753,
				"z": 0.5742599993,
				"element": "C" 
			},
			{
				"x": 1.0314790267,
				"y": -1.0833856785,
				"z": 1.5871789002,
				"element": "C" 
			},
			{
				"x": 0.0440800651,
				"y": -0.1332507284,
				"z": 1.3514131065,
				"element": "C" 
			},
			{
				"x": -0.5786915606,
				"y": -0.0215021975,
				"z": 0.0968534458,
				"element": "C" 
			},
			{
				"x": -0.1635562042,
				"y": -0.9035402499,
				"z": -0.9082900985,
				"element": "C" 
			},
			{
				"x": 0.8265430886,
				"y": -1.8575468991,
				"z": -0.6808962988,
				"element": "C" 
			},
			{
				"x": -1.6400267768,
				"y": 1.0292140143,
				"z": -0.1822186845,
				"element": "C" 
			},
			{
				"x": -2.8079447701,
				"y": 1.0468575051,
				"z": 0.8607291139,
				"element": "C" 
			},
			{
				"x": -2.772409675,
				"y": 2.2737919061,
				"z": 1.7836657308,
				"element": "C" 
			},
			{
				"x": -2.8682292037,
				"y": 3.5926871661,
				"z": 0.9873966511,
				"element": "C" 
			},
			{
				"x": -2.0931465694,
				"y": 3.5258280966,
				"z": -0.354910311,
				"element": "C" 
			},
			{
				"x": -1.0095620923,
				"y": 2.4401462953,
				"z": -0.3290081637,
				"element": "C" 
			},
			{
				"x": 4.6948984799,
				"y": -6.415563799,
				"z": -0.3776387812,
				"element": "H" 
			},
			{
				"x": 3.8560209964,
				"y": -5.6573953155,
				"z": -1.6379116898,
				"element": "H" 
			},
			{
				"x": 3.048673563,
				"y": -2.7364752072,
				"z": 2.9268750592,
				"element": "H" 
			},
			{
				"x": 1.4862994005,
				"y": -1.1340123614,
				"z": 2.572207443,
				"element": "H" 
			},
			{
				"x": -0.2472791933,
				"y": 0.5319522221,
				"z": 2.1598990439,
				"element": "H" 
			},
			{
				"x": -0.6271260048,
				"y": -0.8445166157,
				"z": -1.8905999298,
				"element": "H" 
			},
			{
				"x": 1.1334201159,
				"y": -2.5330211509,
				"z": -1.4713275826,
				"element": "H" 
			},
			{
				"x": -2.0785562602,
				"y": 0.7811390434,
				"z": -1.1571039295,
				"element": "H" 
			},
			{
				"x": -3.7640746969,
				"y": 1.0464470549,
				"z": 0.322034888,
				"element": "H" 
			},
			{
				"x": -2.7929676679,
				"y": 0.1256599308,
				"z": 1.4523353112,
				"element": "H" 
			},
			{
				"x": -3.5867152643,
				"y": 2.2167403697,
				"z": 2.515240523,
				"element": "H" 
			},
			{
				"x": -1.8436650129,
				"y": 2.2643612138,
				"z": 2.3678347369,
				"element": "H" 
			},
			{
				"x": -2.4841128851,
				"y": 4.4134722092,
				"z": 1.6045328616,
				"element": "H" 
			},
			{
				"x": -3.9210714413,
				"y": 3.8274114919,
				"z": 0.7896836499,
				"element": "H" 
			},
			{
				"x": -2.7874352411,
				"y": 3.3036501607,
				"z": -1.1761642604,
				"element": "H" 
			},
			{
				"x": -1.651242231,
				"y": 4.500927317,
				"z": -0.5881615564,
				"element": "H" 
			},
			{
				"x": -0.4028501426,
				"y": 2.4705220875,
				"z": -1.240958272,
				"element": "H" 
			},
			{
				"x": -0.3174333652,
				"y": 2.6250137014,
				"z": 0.5025038232,
				"element": "H" 
			}
		],
		 "valence_orbital": [ 
			{
				"type": "occ",
				"energy": -0.27776,
				"method": "rhf"
			},
			{
				"type": "occ",
				"energy": -0.26994,
				"method": "rhf"
			},
			{
				"type": "occ",
				"energy": -0.24246,
				"method": "rhf"
			},
			{
				"type": "occ",
				"energy": -0.2374,
				"method": "rhf"
			},
			{
				"type": "occ",
				"energy": -0.19507,
				"method": "rhf"
			},
			{
				"type": "unocc",
				"energy": -0.02402,
				"method": "rhf"
			},
			{
				"type": "unocc",
				"energy": 0.0055,
				"method": "rhf"
			},
			{
				"type": "unocc",
				"energy": 0.01235,
				"method": "rhf"
			},
			{
				"type": "unocc",
				"energy": 0.02202,
				"method": "rhf"
			},
			{
				"type": "unocc",
				"energy": 0.0717,
				"method": "rhf"
			}
		],
		"cosmo_sigma_profile": { 
			"-0.025": 0.0,
			"-0.024": 0.0,
			"-0.023": 0.0,
			"-0.022": 0.0,
			"-0.021": 0.0,
			"-0.02": 0.0,
			"-0.019": 0.0,
			"-0.018": 0.0,
			"-0.017": 0.0,
			"-0.016": 0.0,
			"-0.015": 0.234221841319,
			"-0.014": 1.92383673898,
			"-0.013": 2.60213386697,
			"-0.012": 2.18615042896,
			"-0.011": 2.86767233343,
			"-0.01": 2.69344508255,
			"-0.009": 2.2128225583,
			"-0.008": 4.65623882548,
			"-0.007": 4.75081439282,
			"-0.006": 4.04520692831,
			"-0.005": 7.04798982438,
			"-0.004": 11.4682415293,
			"-0.003": 15.4796880359,
			"-0.002": 32.8677397743,
			"-0.001": 37.4273896107,
			"0.0": 37.6130770655,
			"0.001": 32.838646318,
			"0.002": 22.3530600637,
			"0.003": 17.3429940363,
			"0.004": 22.6395179139,
			"0.005": 16.4295893363,
			"0.006": 11.8695497474,
			"0.007": 3.67872315415,
			"0.008": 2.19767682884,
			"0.009": 2.55207648142,
			"0.01": 1.80204261671,
			"0.011": 2.3350742308,
			"0.012": 0.648552028354,
			"0.013": 0.0,
			"0.014": 0.0,
			"0.015": 0.0,
			"0.016": 0.0,
			"0.017": 0.0,
			"0.018": 0.0,
			"0.019": 0.0,
			"0.02": 0.0,
			"0.021": 0.0,
			"0.022": 0.0,
			"0.023": 0.0,
			"0.024": 0.0,
			"0.025": 0.0
		}
	}
}
