{
	 "smiles": "CC(=O)C1=C(O)C(C)=C(O)C=C1", 
	 "Tm": 427.15, 
	 "num_atms": 22, 
	 "gaussian": { 
		 "optdone": 1, 
		 "sigma_profile": "yes", 
		 "theory": "DFT", 
		 "functional": "B3LYP", 
		 "basiset": "6-31G**", 
		 "properties": { 
			 "R2extent": 2209.3916, 
			 "electric_dipole_moment_norm": 2.05839481636, 
			 "electric_quadrupole_moment_norm": 15.0989761279, 
			 "total_energy": -574.677653116, 
			 "HOMO_LUMO_gap": 0.1699, 
			 "cosmo_polarized_energy": -10.79, 
			 "cosmo_cavitation_energy": 25.05, 
			 "cosmo_dispersion_energy": -18.98, 
			 "cosmo_repulsion_energy": 1.49, 
			 "cosmo_total_nonelectrostatic_energy": 7.56, 
			 "SMD_solvation_energy": 5.45 
		},
		"coords": [
			{
				"x": 1.4581544107,
				"y": 0.9806849699,
				"z": -3.2030612348,
				"element": "C" 
			},
			{
				"x": 1.5813017103,
				"y": 0.1674955187,
				"z": -1.9290511097,
				"element": "C" 
			},
			{
				"x": 2.5342343699,
				"y": -0.6291013364,
				"z": -1.8258738603,
				"element": "O" 
			},
			{
				"x": 0.6007934954,
				"y": 0.3220352595,
				"z": -0.856930206,
				"element": "C" 
			},
			{
				"x": 0.7382719094,
				"y": -0.4560070127,
				"z": 0.3326510429,
				"element": "C" 
			},
			{
				"x": 1.7497381986,
				"y": -1.3214891381,
				"z": 0.4769429443,
				"element": "O" 
			},
			{
				"x": -0.1862001511,
				"y": -0.3357085153,
				"z": 1.3886106284,
				"element": "C" 
			},
			{
				"x": -0.0387756753,
				"y": -1.1592258786,
				"z": 2.6450369215,
				"element": "C" 
			},
			{
				"x": -1.2433849673,
				"y": 0.5688332268,
				"z": 1.2374432062,
				"element": "C" 
			},
			{
				"x": -2.176316725,
				"y": 0.7425352125,
				"z": 2.2103503875,
				"element": "O" 
			},
			{
				"x": -1.4021119396,
				"y": 1.3479590342,
				"z": 0.0750961925,
				"element": "C" 
			},
			{
				"x": -0.4876942643,
				"y": 1.2169778364,
				"z": -0.9481838929,
				"element": "C" 
			},
			{
				"x": 1.4960168038,
				"y": 2.0542682415,
				"z": -2.9908179113,
				"element": "H" 
			},
			{
				"x": 2.2834465176,
				"y": 0.7142761797,
				"z": -3.8638101122,
				"element": "H" 
			},
			{
				"x": 0.5086825909,
				"y": 0.7784486012,
				"z": -3.7096820662,
				"element": "H" 
			},
			{
				"x": 2.2840277425,
				"y": -1.2595920421,
				"z": -0.3667247269,
				"element": "H" 
			},
			{
				"x": 0.085978287,
				"y": -0.529270535,
				"z": 3.5365769051,
				"element": "H" 
			},
			{
				"x": -0.9072047903,
				"y": -1.8110546543,
				"z": 2.8129492104,
				"element": "H" 
			},
			{
				"x": 0.8400050628,
				"y": -1.7997542333,
				"z": 2.573441704,
				"element": "H" 
			},
			{
				"x": -1.9746793417,
				"y": 0.1641232045,
				"z": 2.9578556381,
				"element": "H" 
			},
			{
				"x": -2.2406007874,
				"y": 2.0320391796,
				"z": 0.0142863787,
				"element": "H" 
			},
			{
				"x": -0.6102824569,
				"y": 1.817326881,
				"z": -1.8434060395,
				"element": "H" 
			}
		],
		 "valence_orbital": [ 
			{
				"type": "occ",
				"energy": -0.34371,
				"method": "rhf"
			},
			{
				"type": "occ",
				"energy": -0.3183,
				"method": "rhf"
			},
			{
				"type": "occ",
				"energy": -0.25928,
				"method": "rhf"
			},
			{
				"type": "occ",
				"energy": -0.2349,
				"method": "rhf"
			},
			{
				"type": "occ",
				"energy": -0.22216,
				"method": "rhf"
			},
			{
				"type": "unocc",
				"energy": -0.05226,
				"method": "rhf"
			},
			{
				"type": "unocc",
				"energy": 0.00566,
				"method": "rhf"
			},
			{
				"type": "unocc",
				"energy": 0.04456,
				"method": "rhf"
			},
			{
				"type": "unocc",
				"energy": 0.06234,
				"method": "rhf"
			},
			{
				"type": "unocc",
				"energy": 0.0953,
				"method": "rhf"
			}
		],
		"cosmo_sigma_profile": { 
			"-0.025": 0.0,
			"-0.024": 0.0,
			"-0.023": 0.0,
			"-0.022": 0.0,
			"-0.021": 0.0,
			"-0.02": 0.0,
			"-0.019": 0.0,
			"-0.018": 0.0,
			"-0.017": 0.141085535751,
			"-0.016": 0.707845625076,
			"-0.015": 0.928033417271,
			"-0.014": 0.985967339319,
			"-0.013": 0.839312423848,
			"-0.012": 0.945082819745,
			"-0.011": 0.885581897235,
			"-0.01": 1.68121289593,
			"-0.009": 1.42098668808,
			"-0.008": 1.25438030453,
			"-0.007": 3.30908218595,
			"-0.006": 11.9444082666,
			"-0.005": 12.407679424,
			"-0.004": 13.2342199982,
			"-0.003": 13.1860142255,
			"-0.002": 15.6696729903,
			"-0.001": 18.303872229,
			"0.0": 14.5681339544,
			"0.001": 11.3357891947,
			"0.002": 13.8438274986,
			"0.003": 15.4257614566,
			"0.004": 10.3687851145,
			"0.005": 7.0265382997,
			"0.006": 5.28282967584,
			"0.007": 4.02564207091,
			"0.008": 4.1804761569,
			"0.009": 4.62590960374,
			"0.01": 5.23358969528,
			"0.011": 2.61432252905,
			"0.012": 1.51719305977,
			"0.013": 0.884376490836,
			"0.014": 0.0228592258309,
			"0.015": 0.0,
			"0.016": 0.0,
			"0.017": 0.0,
			"0.018": 0.0,
			"0.019": 0.0,
			"0.02": 0.0,
			"0.021": 0.0,
			"0.022": 0.0,
			"0.023": 0.0,
			"0.024": 0.0,
			"0.025": 0.0
		}
	}
}
