{
	 "smiles": "NC(=S)CCN1CCOC1=O", 
	 "Tm": 414.15, 
	 "num_atms": 21, 
	 "gaussian": { 
		 "optdone": 1, 
		 "sigma_profile": "yes", 
		 "theory": "DFT", 
		 "functional": "B3LYP", 
		 "basiset": "6-31G**", 
		 "properties": { 
			 "R2extent": 3049.1708, 
			 "electric_dipole_moment_norm": 6.60173425851, 
			 "electric_quadrupole_moment_norm": 20.8146326105, 
			 "total_energy": -892.828174436, 
			 "HOMO_LUMO_gap": 0.1735, 
			 "cosmo_polarized_energy": -19.87, 
			 "cosmo_cavitation_energy": 25.56, 
			 "cosmo_dispersion_energy": -19.49, 
			 "cosmo_repulsion_energy": 1.54, 
			 "cosmo_total_nonelectrostatic_energy": 7.6, 
			 "SMD_solvation_energy": 3.41 
		},
		"coords": [
			{
				"x": 0.6551333803,
				"y": -0.0423059216,
				"z": -3.366612712,
				"element": "N" 
			},
			{
				"x": 0.3623125027,
				"y": -1.3063998,
				"z": -3.0255309714,
				"element": "C" 
			},
			{
				"x": 0.3671560614,
				"y": -2.5794974484,
				"z": -4.102869849,
				"element": "S" 
			},
			{
				"x": 0.0217794403,
				"y": -1.4896523893,
				"z": -1.5511866729,
				"element": "C" 
			},
			{
				"x": -1.2070788868,
				"y": -0.6454111844,
				"z": -1.0895818045,
				"element": "C" 
			},
			{
				"x": -0.9543980429,
				"y": 0.2199213296,
				"z": 0.0554972061,
				"element": "N" 
			},
			{
				"x": -0.9991563442,
				"y": -0.2183626093,
				"z": 1.4429599889,
				"element": "C" 
			},
			{
				"x": -0.6164216195,
				"y": 1.0936062844,
				"z": 2.1493286893,
				"element": "C" 
			},
			{
				"x": 0.1237013311,
				"y": 1.8353006445,
				"z": 1.1587259173,
				"element": "O" 
			},
			{
				"x": -0.1504538185,
				"y": 1.3224928627,
				"z": -0.0724460417,
				"element": "C" 
			},
			{
				"x": 0.2826418101,
				"y": 1.8055293437,
				"z": -1.1037590856,
				"element": "O" 
			},
			{
				"x": 0.8819653086,
				"y": 0.155937138,
				"z": -4.3302247753,
				"element": "H" 
			},
			{
				"x": 0.6202163717,
				"y": 0.7185587685,
				"z": -2.6868968355,
				"element": "H" 
			},
			{
				"x": -0.1428065702,
				"y": -2.5513480913,
				"z": -1.3721154326,
				"element": "H" 
			},
			{
				"x": 0.8984518001,
				"y": -1.186975853,
				"z": -0.9640476377,
				"element": "H" 
			},
			{
				"x": -1.5492029744,
				"y": -0.0033964957,
				"z": -1.9045529046,
				"element": "H" 
			},
			{
				"x": -2.0407913635,
				"y": -1.3007820074,
				"z": -0.8267068834,
				"element": "H" 
			},
			{
				"x": -1.9956330402,
				"y": -0.5703974681,
				"z": 1.726184666,
				"element": "H" 
			},
			{
				"x": -0.2759434135,
				"y": -1.023072629,
				"z": 1.6414503811,
				"element": "H" 
			},
			{
				"x": 0.0222776555,
				"y": 0.9536770991,
				"z": 3.0224807062,
				"element": "H" 
			},
			{
				"x": -1.5006495882,
				"y": 1.6748784269,
				"z": 2.4316040512,
				"element": "H" 
			}
		],
		 "valence_orbital": [ 
			{
				"type": "occ",
				"energy": -0.31431,
				"method": "rhf"
			},
			{
				"type": "occ",
				"energy": -0.30122,
				"method": "rhf"
			},
			{
				"type": "occ",
				"energy": -0.27182,
				"method": "rhf"
			},
			{
				"type": "occ",
				"energy": -0.22097,
				"method": "rhf"
			},
			{
				"type": "occ",
				"energy": -0.19752,
				"method": "rhf"
			},
			{
				"type": "unocc",
				"energy": -0.02402,
				"method": "rhf"
			},
			{
				"type": "unocc",
				"energy": 0.02378,
				"method": "rhf"
			},
			{
				"type": "unocc",
				"energy": 0.05756,
				"method": "rhf"
			},
			{
				"type": "unocc",
				"energy": 0.07809,
				"method": "rhf"
			},
			{
				"type": "unocc",
				"energy": 0.08786,
				"method": "rhf"
			}
		],
		"cosmo_sigma_profile": { 
			"-0.025": 0.0,
			"-0.024": 0.0,
			"-0.023": 0.0,
			"-0.022": 0.0,
			"-0.021": 0.0,
			"-0.02": 0.0,
			"-0.019": 0.0,
			"-0.018": 0.0,
			"-0.017": 0.0,
			"-0.016": 0.0,
			"-0.015": 0.262139562394,
			"-0.014": 1.13126274511,
			"-0.013": 1.13540713089,
			"-0.012": 0.937397778706,
			"-0.011": 0.855968080654,
			"-0.01": 1.28580260814,
			"-0.009": 1.41326634121,
			"-0.008": 1.50245643784,
			"-0.007": 15.8627743893,
			"-0.006": 26.0623924077,
			"-0.005": 21.8801413081,
			"-0.004": 15.602654369,
			"-0.003": 11.2545557378,
			"-0.002": 8.831419017,
			"-0.001": 7.50549179333,
			"0.0": 6.15662317484,
			"0.001": 6.3163726795,
			"0.002": 5.6424500846,
			"0.003": 6.32718662045,
			"0.004": 4.6592875385,
			"0.005": 5.60943599512,
			"0.006": 5.32168602105,
			"0.007": 6.46493233712,
			"0.008": 6.87464481855,
			"0.009": 10.2111681887,
			"0.01": 9.64897916716,
			"0.011": 6.59395625783,
			"0.012": 5.8254040305,
			"0.013": 3.07008628324,
			"0.014": 0.161600440609,
			"0.015": 0.0,
			"0.016": 0.0,
			"0.017": 0.0,
			"0.018": 0.0,
			"0.019": 0.0,
			"0.02": 0.0,
			"0.021": 0.0,
			"0.022": 0.0,
			"0.023": 0.0,
			"0.024": 0.0,
			"0.025": 0.0
		}
	}
}
