{
	 "smiles": "COP(N)(=O)SC", 
	 "Tm": 318.65, 
	 "num_atms": 15, 
	 "gaussian": { 
		 "optdone": 1, 
		 "sigma_profile": "yes", 
		 "theory": "DFT", 
		 "functional": "B3LYP", 
		 "basiset": "6-31G**", 
		 "properties": { 
			 "R2extent": 1303.2469, 
			 "electric_dipole_moment_norm": 2.75421358104, 
			 "electric_quadrupole_moment_norm": 11.3951067849, 
			 "total_energy": -1025.83313316, 
			 "HOMO_LUMO_gap": 0.26606, 
			 "cosmo_polarized_energy": -14.69, 
			 "cosmo_cavitation_energy": 21.26, 
			 "cosmo_dispersion_energy": -16.41, 
			 "cosmo_repulsion_energy": 1.32, 
			 "cosmo_total_nonelectrostatic_energy": 6.17, 
			 "SMD_solvation_energy": 6.16 
		},
		"coords": [
			{
				"x": 1.5795875597,
				"y": 0.5461871667,
				"z": 1.2325284688,
				"element": "C" 
			},
			{
				"x": 0.7104943767,
				"y": 1.1344741936,
				"z": 0.2527801227,
				"element": "O" 
			},
			{
				"x": -0.8976041792,
				"y": 0.9497105104,
				"z": 0.2899534703,
				"element": "P" 
			},
			{
				"x": -1.2658357621,
				"y": 1.5552398087,
				"z": 1.8230914737,
				"element": "N" 
			},
			{
				"x": -1.520493427,
				"y": 1.5306357596,
				"z": -0.926951798,
				"element": "O" 
			},
			{
				"x": -1.3817194431,
				"y": -1.0822290811,
				"z": 0.6060661676,
				"element": "S" 
			},
			{
				"x": -1.8166938189,
				"y": -1.553533216,
				"z": -1.1193241381,
				"element": "C" 
			},
			{
				"x": 1.532657559,
				"y": -0.5461318533,
				"z": 1.1833499405,
				"element": "H" 
			},
			{
				"x": 1.314116651,
				"y": 0.8744605085,
				"z": 2.2417287792,
				"element": "H" 
			},
			{
				"x": 2.5883015388,
				"y": 0.8811866429,
				"z": 0.9857893783,
				"element": "H" 
			},
			{
				"x": -2.2431668325,
				"y": 1.4618961674,
				"z": 2.078287209,
				"element": "H" 
			},
			{
				"x": -0.945692604,
				"y": 2.5095399687,
				"z": 1.9622290438,
				"element": "H" 
			},
			{
				"x": -2.3320607467,
				"y": -0.7222665813,
				"z": -1.6004942312,
				"element": "H" 
			},
			{
				"x": -2.4763484951,
				"y": -2.4194412553,
				"z": -1.0452024998,
				"element": "H" 
			},
			{
				"x": -0.9217423764,
				"y": -1.8183287393,
				"z": -1.6832313868,
				"element": "H" 
			}
		],
		 "valence_orbital": [ 
			{
				"type": "occ",
				"energy": -0.32136,
				"method": "rhf"
			},
			{
				"type": "occ",
				"energy": -0.30876,
				"method": "rhf"
			},
			{
				"type": "occ",
				"energy": -0.2854,
				"method": "rhf"
			},
			{
				"type": "occ",
				"energy": -0.27301,
				"method": "rhf"
			},
			{
				"type": "occ",
				"energy": -0.25217,
				"method": "rhf"
			},
			{
				"type": "unocc",
				"energy": 0.01389,
				"method": "rhf"
			},
			{
				"type": "unocc",
				"energy": 0.03857,
				"method": "rhf"
			},
			{
				"type": "unocc",
				"energy": 0.06914,
				"method": "rhf"
			},
			{
				"type": "unocc",
				"energy": 0.0811,
				"method": "rhf"
			},
			{
				"type": "unocc",
				"energy": 0.10863,
				"method": "rhf"
			}
		],
		"cosmo_sigma_profile": { 
			"-0.025": 0.0,
			"-0.024": 0.0,
			"-0.023": 0.0,
			"-0.022": 0.0,
			"-0.021": 0.0,
			"-0.02": 0.0,
			"-0.019": 0.0,
			"-0.018": 0.0,
			"-0.017": 0.0,
			"-0.016": 0.0,
			"-0.015": 0.119278472289,
			"-0.014": 1.72740728733,
			"-0.013": 2.95059227302,
			"-0.012": 2.49778053284,
			"-0.011": 2.3499556994,
			"-0.01": 2.54043445376,
			"-0.009": 2.39710927791,
			"-0.008": 1.44376462799,
			"-0.007": 3.67297954594,
			"-0.006": 8.41829935345,
			"-0.005": 11.2512433346,
			"-0.004": 15.9763958895,
			"-0.003": 14.617162545,
			"-0.002": 13.4452866053,
			"-0.001": 9.82171524603,
			"0.0": 7.08913813122,
			"0.001": 6.30328459027,
			"0.002": 6.20894819226,
			"0.003": 6.36758896964,
			"0.004": 7.26114861785,
			"0.005": 6.24311024449,
			"0.006": 5.09643658727,
			"0.007": 4.05028451042,
			"0.008": 2.8974516989,
			"0.009": 2.27340695047,
			"0.01": 3.37693098903,
			"0.011": 3.62635354882,
			"0.012": 1.45370184252,
			"0.013": 2.35705397092,
			"0.014": 5.22867811625,
			"0.015": 3.90851521302,
			"0.016": 0.0249531722683,
			"0.017": 0.0,
			"0.018": 0.0,
			"0.019": 0.0,
			"0.02": 0.0,
			"0.021": 0.0,
			"0.022": 0.0,
			"0.023": 0.0,
			"0.024": 0.0,
			"0.025": 0.0
		}
	}
}
