{
	 "smiles": "BrC1=CC2=C(OC3=C(O2)C=C(Br)C=C3)C=C1", 
	 "Tm": 418.15, 
	 "num_atms": 22, 
	 "gaussian": { 
		 "optdone": 1, 
		 "sigma_profile": "yes", 
		 "theory": "DFT", 
		 "functional": "B3LYP", 
		 "basiset": "6-31G**", 
		 "properties": { 
			 "R2extent": 10786.8632, 
			 "electric_dipole_moment_norm": 1.70858819497, 
			 "electric_quadrupole_moment_norm": 7.88347785752, 
			 "total_energy": -5754.12915746, 
			 "HOMO_LUMO_gap": 0.17631, 
			 "cosmo_polarized_energy": -5.67, 
			 "cosmo_cavitation_energy": 31.61, 
			 "cosmo_dispersion_energy": -24.71, 
			 "cosmo_repulsion_energy": 1.89, 
			 "cosmo_total_nonelectrostatic_energy": 8.79, 
			 "SMD_solvation_energy": 3.47 
		},
		"coords": [
			{
				"x": -2.3305126096,
				"y": -4.2689940263,
				"z": -1.9750154421,
				"element": "Br" 
			},
			{
				"x": -1.8900828989,
				"y": -2.6920707751,
				"z": -0.993818844,
				"element": "C" 
			},
			{
				"x": -1.3254504458,
				"y": -1.6093414709,
				"z": -1.6685394485,
				"element": "C" 
			},
			{
				"x": -1.0050844478,
				"y": -0.4614192973,
				"z": -0.9528230679,
				"element": "C" 
			},
			{
				"x": -1.2460951976,
				"y": -0.394545033,
				"z": 0.4243791594,
				"element": "C" 
			},
			{
				"x": -0.9396816948,
				"y": 0.7295308459,
				"z": 1.1624731975,
				"element": "O" 
			},
			{
				"x": -0.3828009922,
				"y": 1.7837616236,
				"z": 0.4691334589,
				"element": "C" 
			},
			{
				"x": -0.1420312429,
				"y": 1.7162783078,
				"z": -0.9080793332,
				"element": "C" 
			},
			{
				"x": -0.4483425545,
				"y": 0.5925177438,
				"z": -1.6462983613,
				"element": "O" 
			},
			{
				"x": 0.4207737886,
				"y": 2.7965798892,
				"z": -1.5780168815,
				"element": "C" 
			},
			{
				"x": 0.7414047346,
				"y": 3.9473523942,
				"z": -0.8574130001,
				"element": "C" 
			},
			{
				"x": 1.5142446144,
				"y": 5.4315344105,
				"z": -1.7757015558,
				"element": "Br" 
			},
			{
				"x": 0.5080999167,
				"y": 4.0301274967,
				"z": 0.5128645035,
				"element": "C" 
			},
			{
				"x": -0.0578348133,
				"y": 2.9371899351,
				"z": 1.172893735,
				"element": "C" 
			},
			{
				"x": -1.8091430578,
				"y": -1.4815806259,
				"z": 1.0821096178,
				"element": "C" 
			},
			{
				"x": -2.1360168519,
				"y": -2.641202296,
				"z": 0.3758036556,
				"element": "C" 
			},
			{
				"x": -1.1305878826,
				"y": -1.6399048275,
				"z": -2.733570121,
				"element": "H" 
			},
			{
				"x": 0.5986901669,
				"y": 2.7231726977,
				"z": -2.6439222366,
				"element": "H" 
			},
			{
				"x": 0.7617236465,
				"y": 4.9295254729,
				"z": 1.0605234813,
				"element": "H" 
			},
			{
				"x": -0.25316713,
				"y": 2.9673536769,
				"z": 2.2395636265,
				"element": "H" 
			},
			{
				"x": -1.9871319928,
				"y": -1.4076194031,
				"z": 2.1496780446,
				"element": "H" 
			},
			{
				"x": -2.5748730551,
				"y": -3.4889467393,
				"z": 0.8875758121,
				"element": "H" 
			}
		],
		 "valence_orbital": [ 
			{
				"type": "occ",
				"energy": -0.29279,
				"method": "rhf"
			},
			{
				"type": "occ",
				"energy": -0.28247,
				"method": "rhf"
			},
			{
				"type": "occ",
				"energy": -0.25617,
				"method": "rhf"
			},
			{
				"type": "occ",
				"energy": -0.25143,
				"method": "rhf"
			},
			{
				"type": "occ",
				"energy": -0.21043,
				"method": "rhf"
			},
			{
				"type": "unocc",
				"energy": -0.03412,
				"method": "rhf"
			},
			{
				"type": "unocc",
				"energy": -0.02372,
				"method": "rhf"
			},
			{
				"type": "unocc",
				"energy": -0.02341,
				"method": "rhf"
			},
			{
				"type": "unocc",
				"energy": -0.00361,
				"method": "rhf"
			},
			{
				"type": "unocc",
				"energy": 0.00226,
				"method": "rhf"
			}
		],
		"cosmo_sigma_profile": { 
			"-0.025": 0.0,
			"-0.024": 0.0,
			"-0.023": 0.0,
			"-0.022": 0.0,
			"-0.021": 0.0,
			"-0.02": 0.0,
			"-0.019": 0.0,
			"-0.018": 0.0,
			"-0.017": 0.0,
			"-0.016": 0.0,
			"-0.015": 0.0,
			"-0.014": 0.0,
			"-0.013": 0.0,
			"-0.012": 0.0,
			"-0.011": 0.0,
			"-0.01": 0.0,
			"-0.009": 0.259312407721,
			"-0.008": 5.6923609391,
			"-0.007": 10.5737284021,
			"-0.006": 9.07251537399,
			"-0.005": 12.3197935155,
			"-0.004": 12.3505384505,
			"-0.003": 15.5349279696,
			"-0.002": 13.531854209,
			"-0.001": 16.5870071733,
			"0.0": 25.5022729327,
			"0.001": 36.5134662007,
			"0.002": 39.124335862,
			"0.003": 25.4960359913,
			"0.004": 23.3306792499,
			"0.005": 12.0207729062,
			"0.006": 3.31502257814,
			"0.007": 1.30885222921,
			"0.008": 0.0,
			"0.009": 0.0,
			"0.01": 0.0,
			"0.011": 0.0,
			"0.012": 0.0,
			"0.013": 0.0,
			"0.014": 0.0,
			"0.015": 0.0,
			"0.016": 0.0,
			"0.017": 0.0,
			"0.018": 0.0,
			"0.019": 0.0,
			"0.02": 0.0,
			"0.021": 0.0,
			"0.022": 0.0,
			"0.023": 0.0,
			"0.024": 0.0,
			"0.025": 0.0
		}
	}
}
