{
	 "smiles": "CC(C)C1=CC=C(C=C1)C1(CCC1)C(O)=O", 
	 "Tm": 393.15, 
	 "num_atms": 34, 
	 "gaussian": { 
		 "optdone": 1, 
		 "sigma_profile": "yes", 
		 "theory": "DFT", 
		 "functional": "B3LYP", 
		 "basiset": "6-31G**", 
		 "properties": { 
			 "R2extent": 5393.598, 
			 "electric_dipole_moment_norm": 5.03968551201, 
			 "electric_quadrupole_moment_norm": 24.9760253373, 
			 "total_energy": -694.785988024, 
			 "HOMO_LUMO_gap": 0.22025, 
			 "cosmo_polarized_energy": -11.36, 
			 "cosmo_cavitation_energy": 35.24, 
			 "cosmo_dispersion_energy": -24.62, 
			 "cosmo_repulsion_energy": 1.94, 
			 "cosmo_total_nonelectrostatic_energy": 12.55, 
			 "SMD_solvation_energy": 6.87 
		},
		"coords": [
			{
				"x": -1.7840787303,
				"y": 2.6891545819,
				"z": 1.2937631297,
				"element": "C" 
			},
			{
				"x": -1.3076204467,
				"y": 1.4311871555,
				"z": 2.0446751063,
				"element": "C" 
			},
			{
				"x": -0.729756115,
				"y": 1.7956349033,
				"z": 3.4254401123,
				"element": "C" 
			},
			{
				"x": -0.3231367127,
				"y": 0.618110235,
				"z": 1.215711223,
				"element": "C" 
			},
			{
				"x": -0.6261207974,
				"y": -0.6868335161,
				"z": 0.8144078317,
				"element": "C" 
			},
			{
				"x": 0.2674069372,
				"y": -1.4394229599,
				"z": 0.047348422,
				"element": "C" 
			},
			{
				"x": 1.5043957659,
				"y": -0.9112783917,
				"z": -0.3535123542,
				"element": "C" 
			},
			{
				"x": 1.8139551151,
				"y": 0.3947866826,
				"z": 0.0647169634,
				"element": "C" 
			},
			{
				"x": 0.9201170072,
				"y": 1.1417119576,
				"z": 0.82691189,
				"element": "C" 
			},
			{
				"x": 2.5196986237,
				"y": -1.7409207759,
				"z": -1.1301561239,
				"element": "C" 
			},
			{
				"x": 3.237917591,
				"y": -0.9839621251,
				"z": -2.2975637616,
				"element": "C" 
			},
			{
				"x": 2.2639585703,
				"y": -1.6318624606,
				"z": -3.3089748245,
				"element": "C" 
			},
			{
				"x": 1.9091934363,
				"y": -2.6867259,
				"z": -2.2358100151,
				"element": "C" 
			},
			{
				"x": 3.4952418709,
				"y": -2.4991500283,
				"z": -0.205390269,
				"element": "C" 
			},
			{
				"x": 3.1062174589,
				"y": -2.6968673385,
				"z": 1.0742844489,
				"element": "O" 
			},
			{
				"x": 4.5447624879,
				"y": -2.9519370225,
				"z": -0.5989686994,
				"element": "O" 
			},
			{
				"x": -2.5347834437,
				"y": 3.2276302167,
				"z": 1.8821098401,
				"element": "H" 
			},
			{
				"x": -0.9536102265,
				"y": 3.3783913763,
				"z": 1.1052638098,
				"element": "H" 
			},
			{
				"x": -2.228816055,
				"y": 2.4306457358,
				"z": 0.3278414171,
				"element": "H" 
			},
			{
				"x": -2.1865316553,
				"y": 0.7950316337,
				"z": 2.2127143676,
				"element": "H" 
			},
			{
				"x": -0.4235156344,
				"y": 0.9014020238,
				"z": 3.9770258975,
				"element": "H" 
			},
			{
				"x": 0.1464905922,
				"y": 2.4464084936,
				"z": 3.3314335378,
				"element": "H" 
			},
			{
				"x": -1.4748598872,
				"y": 2.3281871838,
				"z": 4.0261134765,
				"element": "H" 
			},
			{
				"x": -1.5789034875,
				"y": -1.1255833924,
				"z": 1.1010281526,
				"element": "H" 
			},
			{
				"x": -0.0110614622,
				"y": -2.448220392,
				"z": -0.243642041,
				"element": "H" 
			},
			{
				"x": 2.7703386185,
				"y": 0.8319954947,
				"z": -0.2068876813,
				"element": "H" 
			},
			{
				"x": 1.1986598329,
				"y": 2.1490594342,
				"z": 1.124763579,
				"element": "H" 
			},
			{
				"x": 4.2553004051,
				"y": -1.3646521297,
				"z": -2.4033111181,
				"element": "H" 
			},
			{
				"x": 3.2585185046,
				"y": 0.1069016226,
				"z": -2.243539796,
				"element": "H" 
			},
			{
				"x": 2.6868810561,
				"y": -1.9985320189,
				"z": -4.2477972387,
				"element": "H" 
			},
			{
				"x": 1.4140082538,
				"y": -0.9816635995,
				"z": -3.5363043829,
				"element": "H" 
			},
			{
				"x": 0.8599931732,
				"y": -2.9708598847,
				"z": -2.1282002834,
				"element": "H" 
			},
			{
				"x": 2.5163658684,
				"y": -3.5892512277,
				"z": -2.3362884225,
				"element": "H" 
			},
			{
				"x": 2.264773485,
				"y": -2.2364155676,
				"z": 1.2281938063,
				"element": "H" 
			}
		],
		 "valence_orbital": [ 
			{
				"type": "occ",
				"energy": -0.30944,
				"method": "rhf"
			},
			{
				"type": "occ",
				"energy": -0.30158,
				"method": "rhf"
			},
			{
				"type": "occ",
				"energy": -0.2737,
				"method": "rhf"
			},
			{
				"type": "occ",
				"energy": -0.26422,
				"method": "rhf"
			},
			{
				"type": "occ",
				"energy": -0.24086,
				"method": "rhf"
			},
			{
				"type": "unocc",
				"energy": -0.02061,
				"method": "rhf"
			},
			{
				"type": "unocc",
				"energy": -0.01802,
				"method": "rhf"
			},
			{
				"type": "unocc",
				"energy": 0.01456,
				"method": "rhf"
			},
			{
				"type": "unocc",
				"energy": 0.07798,
				"method": "rhf"
			},
			{
				"type": "unocc",
				"energy": 0.09108,
				"method": "rhf"
			}
		],
		"cosmo_sigma_profile": { 
			"-0.025": 0.0,
			"-0.024": 0.0,
			"-0.023": 0.0,
			"-0.022": 0.0,
			"-0.021": 0.0,
			"-0.02": 0.0,
			"-0.019": 0.0,
			"-0.018": 0.0,
			"-0.017": 0.0,
			"-0.016": 0.0,
			"-0.015": 0.0,
			"-0.014": 0.0,
			"-0.013": 0.2715072788,
			"-0.012": 0.500766171373,
			"-0.011": 0.11331616933,
			"-0.01": 1.28684299962,
			"-0.009": 0.945911792447,
			"-0.008": 1.15106842549,
			"-0.007": 2.09290200615,
			"-0.006": 7.22628843048,
			"-0.005": 14.9156601033,
			"-0.004": 19.3264459794,
			"-0.003": 28.2878429774,
			"-0.002": 32.6235827159,
			"-0.001": 35.9573280537,
			"0.0": 32.7884410865,
			"0.001": 32.5396407201,
			"0.002": 13.3268733733,
			"0.003": 9.43545427014,
			"0.004": 7.70906290704,
			"0.005": 7.33063517081,
			"0.006": 3.53041041255,
			"0.007": 2.54827907302,
			"0.008": 2.62910868639,
			"0.009": 2.81297329926,
			"0.01": 3.81525587773,
			"0.011": 4.68920800091,
			"0.012": 5.4560090246,
			"0.013": 2.67764781636,
			"0.014": 0.277717910912,
			"0.015": 0.0,
			"0.016": 0.0,
			"0.017": 0.0,
			"0.018": 0.0,
			"0.019": 0.0,
			"0.02": 0.0,
			"0.021": 0.0,
			"0.022": 0.0,
			"0.023": 0.0,
			"0.024": 0.0,
			"0.025": 0.0
		}
	}
}
