{
	 "smiles": "CCOC(=O)C1=C(NC)N=CC=C1", 
	 "Tm": 320.15, 
	 "num_atms": 25, 
	 "gaussian": { 
		 "optdone": 1, 
		 "sigma_profile": "yes", 
		 "theory": "DFT", 
		 "functional": "B3LYP", 
		 "basiset": "6-31G**", 
		 "properties": { 
			 "R2extent": 3150.1575, 
			 "electric_dipole_moment_norm": 1.58879472872, 
			 "electric_quadrupole_moment_norm": 7.4576508969, 
			 "total_energy": -610.170392903, 
			 "HOMO_LUMO_gap": 0.15925, 
			 "cosmo_polarized_energy": -7.48, 
			 "cosmo_cavitation_energy": 28.46, 
			 "cosmo_dispersion_energy": -21.08, 
			 "cosmo_repulsion_energy": 1.7, 
			 "cosmo_total_nonelectrostatic_energy": 9.08, 
			 "SMD_solvation_energy": 4.46 
		},
		"coords": [
			{
				"x": 3.914125786,
				"y": 2.0184517294,
				"z": -1.0246508619,
				"element": "C" 
			},
			{
				"x": 3.9012301768,
				"y": 0.5140611632,
				"z": -1.251925978,
				"element": "C" 
			},
			{
				"x": 2.5656337768,
				"y": 0.0326013365,
				"z": -1.5285232566,
				"element": "O" 
			},
			{
				"x": 1.7855190641,
				"y": -0.2515853195,
				"z": -0.4604052015,
				"element": "C" 
			},
			{
				"x": 2.1859981932,
				"y": -0.118337169,
				"z": 0.6940007593,
				"element": "O" 
			},
			{
				"x": 0.4457830497,
				"y": -0.728147569,
				"z": -0.838753857,
				"element": "C" 
			},
			{
				"x": -0.5241574395,
				"y": -1.0853784805,
				"z": 0.1601704372,
				"element": "C" 
			},
			{
				"x": -0.2497862415,
				"y": -1.0025012984,
				"z": 1.4813992421,
				"element": "N" 
			},
			{
				"x": -1.2085371863,
				"y": -1.3561241004,
				"z": 2.5097408536,
				"element": "C" 
			},
			{
				"x": -1.7595793331,
				"y": -1.5227386657,
				"z": -0.17500194,
				"element": "N" 
			},
			{
				"x": -2.0691926613,
				"y": -1.6196289658,
				"z": -1.4652360619,
				"element": "C" 
			},
			{
				"x": -1.2038008732,
				"y": -1.2997232036,
				"z": -2.5154720663,
				"element": "C" 
			},
			{
				"x": 0.0673028873,
				"y": -0.8491931673,
				"z": -2.1804905695,
				"element": "C" 
			},
			{
				"x": 3.3522367182,
				"y": 2.2754258704,
				"z": -0.1235638622,
				"element": "H" 
			},
			{
				"x": 3.4770015415,
				"y": 2.5454611717,
				"z": -1.8778858781,
				"element": "H" 
			},
			{
				"x": 4.9450526073,
				"y": 2.3655861528,
				"z": -0.8976059618,
				"element": "H" 
			},
			{
				"x": 4.2971674234,
				"y": -0.01906982,
				"z": -0.3846548106,
				"element": "H" 
			},
			{
				"x": 4.4752110712,
				"y": 0.2390316436,
				"z": -2.1401889968,
				"element": "H" 
			},
			{
				"x": 0.6790885396,
				"y": -0.6746415007,
				"z": 1.7188278853,
				"element": "H" 
			},
			{
				"x": -0.7387485309,
				"y": -1.1983633883,
				"z": 3.4829129045,
				"element": "H" 
			},
			{
				"x": -1.5178651827,
				"y": -2.4037343353,
				"z": 2.428908913,
				"element": "H" 
			},
			{
				"x": -2.1124425926,
				"y": -0.7408271244,
				"z": 2.4462758322,
				"element": "H" 
			},
			{
				"x": -3.076550343,
				"y": -1.9766529313,
				"z": -1.6795872721,
				"element": "H" 
			},
			{
				"x": -1.5187569964,
				"y": -1.4011478899,
				"z": -3.5478158087,
				"element": "H" 
			},
			{
				"x": 0.7851665454,
				"y": -0.5839241386,
				"z": -2.9482744443,
				"element": "H" 
			}
		],
		 "valence_orbital": [ 
			{
				"type": "occ",
				"energy": -0.29675,
				"method": "rhf"
			},
			{
				"type": "occ",
				"energy": -0.27933,
				"method": "rhf"
			},
			{
				"type": "occ",
				"energy": -0.2781,
				"method": "rhf"
			},
			{
				"type": "occ",
				"energy": -0.25328,
				"method": "rhf"
			},
			{
				"type": "occ",
				"energy": -0.20504,
				"method": "rhf"
			},
			{
				"type": "unocc",
				"energy": -0.04579,
				"method": "rhf"
			},
			{
				"type": "unocc",
				"energy": 0.0079,
				"method": "rhf"
			},
			{
				"type": "unocc",
				"energy": 0.05535,
				"method": "rhf"
			},
			{
				"type": "unocc",
				"energy": 0.10441,
				"method": "rhf"
			},
			{
				"type": "unocc",
				"energy": 0.11277,
				"method": "rhf"
			}
		],
		"cosmo_sigma_profile": { 
			"-0.025": 0.0,
			"-0.024": 0.0,
			"-0.023": 0.0,
			"-0.022": 0.0,
			"-0.021": 0.0,
			"-0.02": 0.0,
			"-0.019": 0.0,
			"-0.018": 0.0,
			"-0.017": 0.0,
			"-0.016": 0.0,
			"-0.015": 0.0,
			"-0.014": 0.0,
			"-0.013": 0.0,
			"-0.012": 0.0,
			"-0.011": 0.0,
			"-0.01": 0.0766084750527,
			"-0.009": 0.669486311983,
			"-0.008": 0.862295755427,
			"-0.007": 1.70018322267,
			"-0.006": 8.7888272248,
			"-0.005": 12.8360348977,
			"-0.004": 19.2864759305,
			"-0.003": 22.9437584769,
			"-0.002": 22.6165315626,
			"-0.001": 24.0553584406,
			"0.0": 21.11706806,
			"0.001": 20.3399859842,
			"0.002": 18.6042760873,
			"0.003": 15.9152088877,
			"0.004": 9.06733448211,
			"0.005": 6.2900523292,
			"0.006": 3.31556589268,
			"0.007": 2.50281516321,
			"0.008": 3.44470980147,
			"0.009": 2.70134669562,
			"0.01": 3.28885725263,
			"0.011": 2.48091864361,
			"0.012": 1.35846270208,
			"0.013": 0.66439537854,
			"0.014": 0.620256495437,
			"0.015": 0.195351535858,
			"0.016": 0.0,
			"0.017": 0.0,
			"0.018": 0.0,
			"0.019": 0.0,
			"0.02": 0.0,
			"0.021": 0.0,
			"0.022": 0.0,
			"0.023": 0.0,
			"0.024": 0.0,
			"0.025": 0.0
		}
	}
}
