{
	 "smiles": "CCCCCCCCCCCCCCCC(=O)NC(CO)C(O)C=CCCCCCCCCCCCCC", 
	 "Tm": 367.65, 
	 "num_atms": 105, 
	 "gaussian": { 
		 "optdone": 1, 
		 "sigma_profile": "yes", 
		 "theory": "DFT", 
		 "functional": "B3LYP", 
		 "basiset": "6-31G**", 
		 "properties": { 
			 "R2extent": 70319.2355, 
			 "electric_dipole_moment_norm": 4.8296653, 
			 "electric_quadrupole_moment_norm": 29.4468175618, 
			 "total_energy": -1616.49001458, 
			 "HOMO_LUMO_gap": 0.23759, 
			 "cosmo_polarized_energy": -18.52, 
			 "cosmo_cavitation_energy": 99.31, 
			 "cosmo_dispersion_energy": -66.2, 
			 "cosmo_repulsion_energy": 5.26, 
			 "cosmo_total_nonelectrostatic_energy": 38.38, 
			 "SMD_solvation_energy": 12.49 
		},
		"coords": [
			{
				"x": -1.318481285,
				"y": 4.9538349998,
				"z": -7.3470926207,
				"element": "C" 
			},
			{
				"x": -0.879807397,
				"y": 5.1606668589,
				"z": -8.8019739585,
				"element": "C" 
			},
			{
				"x": -0.2957582583,
				"y": 3.9073577551,
				"z": -9.4754542007,
				"element": "C" 
			},
			{
				"x": 1.0321984376,
				"y": 3.4242214414,
				"z": -8.8720574847,
				"element": "C" 
			},
			{
				"x": 1.69635182,
				"y": 2.2645577564,
				"z": -9.6338584449,
				"element": "C" 
			},
			{
				"x": 0.9079892928,
				"y": 0.9457509705,
				"z": -9.6072127336,
				"element": "C" 
			},
			{
				"x": 1.6339351523,
				"y": -0.2244467576,
				"z": -10.3004059019,
				"element": "C" 
			},
			{
				"x": 2.8510356218,
				"y": -0.8088230601,
				"z": -9.5452306261,
				"element": "C" 
			},
			{
				"x": 2.5541615434,
				"y": -2.0322416624,
				"z": -8.6590787095,
				"element": "C" 
			},
			{
				"x": 1.6108105169,
				"y": -1.7901988966,
				"z": -7.4728156866,
				"element": "C" 
			},
			{
				"x": 1.4396239277,
				"y": -3.0261045057,
				"z": -6.5793384617,
				"element": "C" 
			},
			{
				"x": 0.4896571069,
				"y": -2.803163281,
				"z": -5.39541192,
				"element": "C" 
			},
			{
				"x": 0.3273986684,
				"y": -4.0443414651,
				"z": -4.506112019,
				"element": "C" 
			},
			{
				"x": -0.6799073517,
				"y": -3.8929552638,
				"z": -3.3570474957,
				"element": "C" 
			},
			{
				"x": -0.2757118718,
				"y": -2.8624563616,
				"z": -2.2936755821,
				"element": "C" 
			},
			{
				"x": -1.1698732476,
				"y": -2.9429765791,
				"z": -1.0544685235,
				"element": "C" 
			},
			{
				"x": -1.572910447,
				"y": -4.0150020246,
				"z": -0.614455697,
				"element": "O" 
			},
			{
				"x": -1.4673429647,
				"y": -1.7381340002,
				"z": -0.4788809999,
				"element": "N" 
			},
			{
				"x": -2.2433102635,
				"y": -1.5439612739,
				"z": 0.7488788578,
				"element": "C" 
			},
			{
				"x": -3.5316706287,
				"y": -2.3962072215,
				"z": 0.8293660118,
				"element": "C" 
			},
			{
				"x": -4.4920949812,
				"y": -1.7640560895,
				"z": 1.6582959552,
				"element": "O" 
			},
			{
				"x": -1.3345894618,
				"y": -1.647368012,
				"z": 2.0033834241,
				"element": "C" 
			},
			{
				"x": -2.1860574126,
				"y": -1.3550756448,
				"z": 3.1394435906,
				"element": "O" 
			},
			{
				"x": -0.6505476883,
				"y": -2.9763161239,
				"z": 2.1872330578,
				"element": "C" 
			},
			{
				"x": 0.6122315635,
				"y": -3.1512644761,
				"z": 2.6040795975,
				"element": "C" 
			},
			{
				"x": 1.6468161923,
				"y": -2.113746197,
				"z": 2.9543529424,
				"element": "C" 
			},
			{
				"x": 2.2210327641,
				"y": -2.2953472161,
				"z": 4.3780903889,
				"element": "C" 
			},
			{
				"x": 1.2036008852,
				"y": -2.1635072904,
				"z": 5.5236940254,
				"element": "C" 
			},
			{
				"x": 0.5623212137,
				"y": -0.7730550829,
				"z": 5.6547282643,
				"element": "C" 
			},
			{
				"x": -0.4039199193,
				"y": -0.6244258888,
				"z": 6.8446262282,
				"element": "C" 
			},
			{
				"x": 0.2690323181,
				"y": -0.6581093504,
				"z": 8.22541094,
				"element": "C" 
			},
			{
				"x": -0.7018240112,
				"y": -0.5245574842,
				"z": 9.4113012713,
				"element": "C" 
			},
			{
				"x": -1.4065732517,
				"y": 0.8353042412,
				"z": 9.5233358581,
				"element": "C" 
			},
			{
				"x": -2.3013327154,
				"y": 0.9412552689,
				"z": 10.7670185266,
				"element": "C" 
			},
			{
				"x": -3.0874399531,
				"y": 2.25728309,
				"z": 10.8872775823,
				"element": "C" 
			},
			{
				"x": -2.2237653796,
				"y": 3.5072503038,
				"z": 11.1071467554,
				"element": "C" 
			},
			{
				"x": -3.0478217637,
				"y": 4.7871427298,
				"z": 11.2996368767,
				"element": "C" 
			},
			{
				"x": -2.1865893515,
				"y": 6.0348646546,
				"z": 11.5199083717,
				"element": "C" 
			},
			{
				"x": -1.7728354939,
				"y": 5.862935997,
				"z": -6.9393065525,
				"element": "H" 
			},
			{
				"x": -2.0595701238,
				"y": 4.1494255811,
				"z": -7.2697571887,
				"element": "H" 
			},
			{
				"x": -0.4759677951,
				"y": 4.6902357689,
				"z": -6.699484002,
				"element": "H" 
			},
			{
				"x": -0.1405226012,
				"y": 5.972375061,
				"z": -8.8483455406,
				"element": "H" 
			},
			{
				"x": -1.7426342752,
				"y": 5.5037788604,
				"z": -9.3872228688,
				"element": "H" 
			},
			{
				"x": -0.1381034482,
				"y": 4.121003257,
				"z": -10.5419320281,
				"element": "H" 
			},
			{
				"x": -1.0416786509,
				"y": 3.1023248524,
				"z": -9.4341435646,
				"element": "H" 
			},
			{
				"x": 0.8803618788,
				"y": 3.1219631843,
				"z": -7.8271020359,
				"element": "H" 
			},
			{
				"x": 1.7310027028,
				"y": 4.2720713181,
				"z": -8.8435017393,
				"element": "H" 
			},
			{
				"x": 1.8586055955,
				"y": 2.5632689094,
				"z": -10.6798726477,
				"element": "H" 
			},
			{
				"x": 2.6955105063,
				"y": 2.0993244497,
				"z": -9.2102518858,
				"element": "H" 
			},
			{
				"x": 0.6799679744,
				"y": 0.6843195382,
				"z": -8.5657464362,
				"element": "H" 
			},
			{
				"x": -0.0602145379,
				"y": 1.0943650419,
				"z": -10.1012683884,
				"element": "H" 
			},
			{
				"x": 0.9156337921,
				"y": -1.0331297813,
				"z": -10.4916548077,
				"element": "H" 
			},
			{
				"x": 1.9570050916,
				"y": 0.1214395101,
				"z": -11.2913369206,
				"element": "H" 
			},
			{
				"x": 3.3242578938,
				"y": -0.0272099504,
				"z": -8.935479187,
				"element": "H" 
			},
			{
				"x": 3.6110715439,
				"y": -1.1099234263,
				"z": -10.2767561569,
				"element": "H" 
			},
			{
				"x": 2.1381719073,
				"y": -2.8328464447,
				"z": -9.2878197349,
				"element": "H" 
			},
			{
				"x": 3.5078042304,
				"y": -2.4193152203,
				"z": -8.2735291848,
				"element": "H" 
			},
			{
				"x": 0.6242113145,
				"y": -1.4761804087,
				"z": -7.8377903951,
				"element": "H" 
			},
			{
				"x": 1.9928479273,
				"y": -0.9549590832,
				"z": -6.8678137683,
				"element": "H" 
			},
			{
				"x": 2.4233825787,
				"y": -3.3395789924,
				"z": -6.2012695756,
				"element": "H" 
			},
			{
				"x": 1.0694552405,
				"y": -3.8644073944,
				"z": -7.1867581754,
				"element": "H" 
			},
			{
				"x": 0.8584148193,
				"y": -1.9580300127,
				"z": -4.7977814038,
				"element": "H" 
			},
			{
				"x": -0.4972100189,
				"y": -2.499311797,
				"z": -5.7739439531,
				"element": "H" 
			},
			{
				"x": 1.3074429512,
				"y": -4.3267753028,
				"z": -4.0946199383,
				"element": "H" 
			},
			{
				"x": 0.0107112742,
				"y": -4.887683369,
				"z": -5.1342822978,
				"element": "H" 
			},
			{
				"x": -0.8119057647,
				"y": -4.8528307411,
				"z": -2.84846264,
				"element": "H" 
			},
			{
				"x": -1.6641749223,
				"y": -3.6239797535,
				"z": -3.763684108,
				"element": "H" 
			},
			{
				"x": 0.7498342904,
				"y": -3.0716263267,
				"z": -1.9569610113,
				"element": "H" 
			},
			{
				"x": -0.2689424777,
				"y": -1.8460829507,
				"z": -2.7042422246,
				"element": "H" 
			},
			{
				"x": -1.0821599314,
				"y": -0.9113114434,
				"z": -0.9096450919,
				"element": "H" 
			},
			{
				"x": -2.604924722,
				"y": -0.5098949016,
				"z": 0.7161405773,
				"element": "H" 
			},
			{
				"x": -3.9666478474,
				"y": -2.4674337141,
				"z": -0.1715110711,
				"element": "H" 
			},
			{
				"x": -3.3120890515,
				"y": -3.4190004477,
				"z": 1.1557880187,
				"element": "H" 
			},
			{
				"x": -4.0426985639,
				"y": -1.6173304198,
				"z": 2.5053350301,
				"element": "H" 
			},
			{
				"x": -0.5803590601,
				"y": -0.8531578632,
				"z": 1.9227279094,
				"element": "H" 
			},
			{
				"x": -1.7933870966,
				"y": -1.7872369686,
				"z": 3.9087517214,
				"element": "H" 
			},
			{
				"x": -1.2510552335,
				"y": -3.8556248427,
				"z": 1.9738126383,
				"element": "H" 
			},
			{
				"x": 0.9556070402,
				"y": -4.1811846264,
				"z": 2.7175602383,
				"element": "H" 
			},
			{
				"x": 2.4816728433,
				"y": -2.2010613889,
				"z": 2.2441521199,
				"element": "H" 
			},
			{
				"x": 1.2521823813,
				"y": -1.1002584366,
				"z": 2.8365218214,
				"element": "H" 
			},
			{
				"x": 2.6940802771,
				"y": -3.2844121305,
				"z": 4.4395195589,
				"element": "H" 
			},
			{
				"x": 3.0261172686,
				"y": -1.5629227287,
				"z": 4.5227327874,
				"element": "H" 
			},
			{
				"x": 1.7135808521,
				"y": -2.4208971519,
				"z": 6.4595857507,
				"element": "H" 
			},
			{
				"x": 0.4126644944,
				"y": -2.9161337321,
				"z": 5.3952399679,
				"element": "H" 
			},
			{
				"x": 0.011052504,
				"y": -0.5355019299,
				"z": 4.7358358966,
				"element": "H" 
			},
			{
				"x": 1.3537700467,
				"y": -0.0137604461,
				"z": 5.7347988019,
				"element": "H" 
			},
			{
				"x": -0.9485396928,
				"y": 0.3202829037,
				"z": 6.7297800948,
				"element": "H" 
			},
			{
				"x": -1.1644644924,
				"y": -1.4187883642,
				"z": 6.7974444427,
				"element": "H" 
			},
			{
				"x": 1.0183495935,
				"y": 0.145276979,
				"z": 8.2782703162,
				"element": "H" 
			},
			{
				"x": 0.8240929398,
				"y": -1.5974967605,
				"z": 8.3389462671,
				"element": "H" 
			},
			{
				"x": -1.4575685595,
				"y": -1.3211655753,
				"z": 9.3517219782,
				"element": "H" 
			},
			{
				"x": -0.145635174,
				"y": -0.7077758888,
				"z": 10.3407602138,
				"element": "H" 
			},
			{
				"x": -2.0195072702,
				"y": 1.0172156269,
				"z": 8.6303412804,
				"element": "H" 
			},
			{
				"x": -0.6467205489,
				"y": 1.6282133656,
				"z": 9.5390133299,
				"element": "H" 
			},
			{
				"x": -3.014399408,
				"y": 0.105539203,
				"z": 10.7577912825,
				"element": "H" 
			},
			{
				"x": -1.6866881164,
				"y": 0.802714009,
				"z": 11.6683134223,
				"element": "H" 
			},
			{
				"x": -3.7948429858,
				"y": 2.168369264,
				"z": 11.7231060438,
				"element": "H" 
			},
			{
				"x": -3.7022245284,
				"y": 2.3954135155,
				"z": 9.9860849362,
				"element": "H" 
			},
			{
				"x": -1.5421852429,
				"y": 3.6478136982,
				"z": 10.2576044851,
				"element": "H" 
			},
			{
				"x": -1.5830019806,
				"y": 3.3535801071,
				"z": 11.9879353,
				"element": "H" 
			},
			{
				"x": -3.6920239981,
				"y": 4.9372122322,
				"z": 10.4224301066,
				"element": "H" 
			},
			{
				"x": -3.7264741867,
				"y": 4.6549242975,
				"z": 12.1534271025,
				"element": "H" 
			},
			{
				"x": -2.8032912287,
				"y": 6.9296595525,
				"z": 11.654400367,
				"element": "H" 
			},
			{
				"x": -1.5227952825,
				"y": 6.2142409872,
				"z": 10.6662457609,
				"element": "H" 
			},
			{
				"x": -1.5559868622,
				"y": 5.9290847848,
				"z": 12.410219496,
				"element": "H" 
			}
		],
		 "valence_orbital": [ 
			{
				"type": "occ",
				"energy": -0.28074,
				"method": "rhf"
			},
			{
				"type": "occ",
				"energy": -0.26444,
				"method": "rhf"
			},
			{
				"type": "occ",
				"energy": -0.25701,
				"method": "rhf"
			},
			{
				"type": "occ",
				"energy": -0.24253,
				"method": "rhf"
			},
			{
				"type": "occ",
				"energy": -0.23574,
				"method": "rhf"
			},
			{
				"type": "unocc",
				"energy": 0.00185,
				"method": "rhf"
			},
			{
				"type": "unocc",
				"energy": 0.02832,
				"method": "rhf"
			},
			{
				"type": "unocc",
				"energy": 0.05447,
				"method": "rhf"
			},
			{
				"type": "unocc",
				"energy": 0.06359,
				"method": "rhf"
			},
			{
				"type": "unocc",
				"energy": 0.08598,
				"method": "rhf"
			}
		],
		"cosmo_sigma_profile": { 
			"-0.025": 0.0,
			"-0.024": 0.0,
			"-0.023": 0.0,
			"-0.022": 0.0,
			"-0.021": 0.0,
			"-0.02": 0.0,
			"-0.019": 0.0,
			"-0.018": 0.0,
			"-0.017": 0.0,
			"-0.016": 0.0,
			"-0.015": 0.0,
			"-0.014": 0.757687138947,
			"-0.013": 1.3095891896,
			"-0.012": 1.77344188118,
			"-0.011": 1.75789694699,
			"-0.01": 1.79921147315,
			"-0.009": 2.43300976803,
			"-0.008": 4.21500956087,
			"-0.007": 4.04367663354,
			"-0.006": 5.36225703406,
			"-0.005": 8.86902406774,
			"-0.004": 16.1102749424,
			"-0.003": 26.8156710559,
			"-0.002": 91.0760363107,
			"-0.001": 162.321086182,
			"0.0": 175.079893346,
			"0.001": 137.907763965,
			"0.002": 60.772354942,
			"0.003": 8.4277166932,
			"0.004": 6.05158485128,
			"0.005": 4.3690664144,
			"0.006": 3.4357666731,
			"0.007": 4.30953979051,
			"0.008": 4.91865167889,
			"0.009": 3.40714280159,
			"0.01": 3.17634088524,
			"0.011": 2.98931312962,
			"0.012": 4.05804401078,
			"0.013": 3.36063210223,
			"0.014": 4.80253984386,
			"0.015": 3.40530426176,
			"0.016": 0.360309953873,
			"0.017": 0.0,
			"0.018": 0.0,
			"0.019": 0.0,
			"0.02": 0.0,
			"0.021": 0.0,
			"0.022": 0.0,
			"0.023": 0.0,
			"0.024": 0.0,
			"0.025": 0.0
		}
	}
}
