{
	 "smiles": "CCOC(=O)C1=C(SC=C1C1=CC=CC=C1)N=CN(C)C", 
	 "Tm": 369.15, 
	 "num_atms": 39, 
	 "gaussian": { 
		 "optdone": 1, 
		 "sigma_profile": "yes", 
		 "theory": "DFT", 
		 "functional": "B3LYP", 
		 "basiset": "6-31G**", 
		 "properties": { 
			 "R2extent": 7568.2638, 
			 "electric_dipole_moment_norm": 6.02980929549, 
			 "electric_quadrupole_moment_norm": 19.0305427345, 
			 "total_energy": -1278.67516788, 
			 "HOMO_LUMO_gap": 0.17846, 
			 "cosmo_polarized_energy": -17.13, 
			 "cosmo_cavitation_energy": 44.14, 
			 "cosmo_dispersion_energy": -29.42, 
			 "cosmo_repulsion_energy": 2.25, 
			 "cosmo_total_nonelectrostatic_energy": 16.96, 
			 "SMD_solvation_energy": 7.01 
		},
		"coords": [
			{
				"x": -3.6091852874,
				"y": -1.4933040017,
				"z": 2.1869967623,
				"element": "C" 
			},
			{
				"x": -3.1297268497,
				"y": -0.3658445515,
				"z": 1.2914451032,
				"element": "C" 
			},
			{
				"x": -1.9273517178,
				"y": -0.8144701795,
				"z": 0.6335378957,
				"element": "O" 
			},
			{
				"x": -1.3920274591,
				"y": 0.0622740445,
				"z": -0.2596500747,
				"element": "C" 
			},
			{
				"x": -1.8517402438,
				"y": 1.1744866466,
				"z": -0.4350823635,
				"element": "O" 
			},
			{
				"x": -0.2139017436,
				"y": -0.4950838127,
				"z": -0.9546240718,
				"element": "C" 
			},
			{
				"x": -0.0329015986,
				"y": -1.8556937008,
				"z": -1.184439847,
				"element": "C" 
			},
			{
				"x": 1.3889586392,
				"y": -2.1289778337,
				"z": -2.1898433923,
				"element": "S" 
			},
			{
				"x": 1.7321404745,
				"y": -0.4245982959,
				"z": -2.2539174279,
				"element": "C" 
			},
			{
				"x": 0.8151200312,
				"y": 0.3261844491,
				"z": -1.5733289143,
				"element": "C" 
			},
			{
				"x": 0.9645540715,
				"y": 1.7993959861,
				"z": -1.4681115217,
				"element": "C" 
			},
			{
				"x": 0.9032259081,
				"y": 2.4617834077,
				"z": -0.2315617995,
				"element": "C" 
			},
			{
				"x": 1.1231543868,
				"y": 3.8344164539,
				"z": -0.1473058126,
				"element": "C" 
			},
			{
				"x": 1.4085771565,
				"y": 4.5754711186,
				"z": -1.2968515412,
				"element": "C" 
			},
			{
				"x": 1.4703781665,
				"y": 3.9302128011,
				"z": -2.5320501878,
				"element": "C" 
			},
			{
				"x": 1.2495835504,
				"y": 2.5550995317,
				"z": -2.6161826796,
				"element": "C" 
			},
			{
				"x": -0.8696821465,
				"y": -2.9185195085,
				"z": -0.9588723599,
				"element": "N" 
			},
			{
				"x": -0.8676386964,
				"y": -3.7840255176,
				"z": -0.0107154257,
				"element": "C" 
			},
			{
				"x": -0.1332938142,
				"y": -3.8970170417,
				"z": 1.1310590052,
				"element": "N" 
			},
			{
				"x": 0.8802608646,
				"y": -2.9362932448,
				"z": 1.5485905407,
				"element": "C" 
			},
			{
				"x": -0.2170685093,
				"y": -5.1163207545,
				"z": 1.9221299307,
				"element": "C" 
			},
			{
				"x": -2.8510163998,
				"y": -1.7508439916,
				"z": 2.9328034383,
				"element": "H" 
			},
			{
				"x": -3.833555045,
				"y": -2.3886599568,
				"z": 1.6000699258,
				"element": "H" 
			},
			{
				"x": -4.5194055801,
				"y": -1.1897884653,
				"z": 2.7138219188,
				"element": "H" 
			},
			{
				"x": -3.8739922222,
				"y": -0.0999832022,
				"z": 0.5341967136,
				"element": "H" 
			},
			{
				"x": -2.9082858506,
				"y": 0.5430395454,
				"z": 1.860864389,
				"element": "H" 
			},
			{
				"x": 2.6276172195,
				"y": -0.0705864999,
				"z": -2.7446931035,
				"element": "H" 
			},
			{
				"x": 0.6899263706,
				"y": 1.895646115,
				"z": 0.6693145585,
				"element": "H" 
			},
			{
				"x": 1.0733839652,
				"y": 4.327764864,
				"z": 0.8194633489,
				"element": "H" 
			},
			{
				"x": 1.5767197326,
				"y": 5.646577117,
				"z": -1.2292346244,
				"element": "H" 
			},
			{
				"x": 1.6829122308,
				"y": 4.4971344637,
				"z": -3.4342742816,
				"element": "H" 
			},
			{
				"x": 1.2781248524,
				"y": 2.058111826,
				"z": -3.5814100763,
				"element": "H" 
			},
			{
				"x": -1.5990129394,
				"y": -4.5897983187,
				"z": -0.1057806328,
				"element": "H" 
			},
			{
				"x": 0.6373926509,
				"y": -1.945707639,
				"z": 1.1714789849,
				"element": "H" 
			},
			{
				"x": 1.8811079013,
				"y": -3.2190376486,
				"z": 1.1972760763,
				"element": "H" 
			},
			{
				"x": 0.8961070803,
				"y": -2.8973111666,
				"z": 2.6425548011,
				"element": "H" 
			},
			{
				"x": 0.7161592913,
				"y": -5.692953498,
				"z": 1.8681030712,
				"element": "H" 
			},
			{
				"x": -0.4108519341,
				"y": -4.877894029,
				"z": 2.9745372437,
				"element": "H" 
			},
			{
				"x": -1.0295665069,
				"y": -5.7465855116,
				"z": 1.5548864303,
				"element": "H" 
			}
		],
		 "valence_orbital": [ 
			{
				"type": "occ",
				"energy": -0.24804,
				"method": "rhf"
			},
			{
				"type": "occ",
				"energy": -0.23595,
				"method": "rhf"
			},
			{
				"type": "occ",
				"energy": -0.23411,
				"method": "rhf"
			},
			{
				"type": "occ",
				"energy": -0.22418,
				"method": "rhf"
			},
			{
				"type": "occ",
				"energy": -0.19557,
				"method": "rhf"
			},
			{
				"type": "unocc",
				"energy": -0.01711,
				"method": "rhf"
			},
			{
				"type": "unocc",
				"energy": -0.00574,
				"method": "rhf"
			},
			{
				"type": "unocc",
				"energy": 0.00212,
				"method": "rhf"
			},
			{
				"type": "unocc",
				"energy": 0.01282,
				"method": "rhf"
			},
			{
				"type": "unocc",
				"energy": 0.03207,
				"method": "rhf"
			}
		],
		"cosmo_sigma_profile": { 
			"-0.025": 0.0,
			"-0.024": 0.0,
			"-0.023": 0.0,
			"-0.022": 0.0,
			"-0.021": 0.0,
			"-0.02": 0.0,
			"-0.019": 0.0,
			"-0.018": 0.0,
			"-0.017": 0.0,
			"-0.016": 0.0,
			"-0.015": 0.0,
			"-0.014": 0.0,
			"-0.013": 0.0,
			"-0.012": 0.0,
			"-0.011": 0.0,
			"-0.01": 0.0,
			"-0.009": 0.786041886753,
			"-0.008": 3.8134204637,
			"-0.007": 5.33958525567,
			"-0.006": 10.1881449954,
			"-0.005": 25.8586223771,
			"-0.004": 37.6517995319,
			"-0.003": 40.8044396583,
			"-0.002": 38.5734645434,
			"-0.001": 28.360432324,
			"0.0": 24.6029465902,
			"0.001": 18.9188139191,
			"0.002": 19.0382005392,
			"0.003": 21.4794872977,
			"0.004": 23.5680115027,
			"0.005": 14.2272286348,
			"0.006": 10.6972460946,
			"0.007": 4.51755754738,
			"0.008": 3.35359390607,
			"0.009": 3.81516217294,
			"0.01": 3.29616436272,
			"0.011": 3.0214600695,
			"0.012": 4.2686374289,
			"0.013": 5.68359696643,
			"0.014": 0.807872380691,
			"0.015": 0.0297733049693,
			"0.016": 0.0,
			"0.017": 0.0,
			"0.018": 0.0,
			"0.019": 0.0,
			"0.02": 0.0,
			"0.021": 0.0,
			"0.022": 0.0,
			"0.023": 0.0,
			"0.024": 0.0,
			"0.025": 0.0
		}
	}
}
