{
	 "smiles": "CNS(=O)(=O)CC1=CC=C(C=C1)C#N", 
	 "Tm": 429.15, 
	 "num_atms": 24, 
	 "gaussian": { 
		 "optdone": 1, 
		 "sigma_profile": "yes", 
		 "theory": "DFT", 
		 "functional": "B3LYP", 
		 "basiset": "6-31G**", 
		 "properties": { 
			 "R2extent": 4392.5436, 
			 "electric_dipole_moment_norm": 7.21922939447, 
			 "electric_quadrupole_moment_norm": 17.0110126644, 
			 "total_energy": -1007.0404704, 
			 "HOMO_LUMO_gap": 0.20306, 
			 "cosmo_polarized_energy": -20.62, 
			 "cosmo_cavitation_energy": 30.99, 
			 "cosmo_dispersion_energy": -21.78, 
			 "cosmo_repulsion_energy": 1.68, 
			 "cosmo_total_nonelectrostatic_energy": 10.89, 
			 "SMD_solvation_energy": 5.51 
		},
		"coords": [
			{
				"x": 3.5504597252,
				"y": -2.5886965877,
				"z": 1.5991667,
				"element": "C" 
			},
			{
				"x": 2.0853843939,
				"y": -2.467582667,
				"z": 1.5924738235,
				"element": "N" 
			},
			{
				"x": 1.3583226075,
				"y": -1.804262974,
				"z": 0.2143951041,
				"element": "S" 
			},
			{
				"x": 2.3314076307,
				"y": -1.7199989789,
				"z": -0.8797956663,
				"element": "O" 
			},
			{
				"x": 0.079110703,
				"y": -2.5051059213,
				"z": 0.059112005,
				"element": "O" 
			},
			{
				"x": 1.009611424,
				"y": -0.098615683,
				"z": 0.779687544,
				"element": "C" 
			},
			{
				"x": 0.3563810351,
				"y": 0.7158619663,
				"z": -0.3022897342,
				"element": "C" 
			},
			{
				"x": -1.0363388478,
				"y": 0.6919136226,
				"z": -0.4607919199,
				"element": "C" 
			},
			{
				"x": -1.6481399238,
				"y": 1.4314114137,
				"z": -1.4669465532,
				"element": "C" 
			},
			{
				"x": -0.8651009408,
				"y": 2.2065311401,
				"z": -2.3385608563,
				"element": "C" 
			},
			{
				"x": 0.532110746,
				"y": 2.2248266225,
				"z": -2.1940033301,
				"element": "C" 
			},
			{
				"x": 1.1319866153,
				"y": 1.4803581859,
				"z": -1.1843138913,
				"element": "C" 
			},
			{
				"x": -1.4907555918,
				"y": 2.9801871282,
				"z": -3.3715806309,
				"element": "C" 
			},
			{
				"x": -1.9982286492,
				"y": 3.6107055606,
				"z": -4.2070812394,
				"element": "N" 
			},
			{
				"x": 3.8391065461,
				"y": -3.0319868201,
				"z": 2.5552304031,
				"element": "H" 
			},
			{
				"x": 4.0007797924,
				"y": -1.5953790191,
				"z": 1.5397947085,
				"element": "H" 
			},
			{
				"x": 3.9434149992,
				"y": -3.196508188,
				"z": 0.7777313817,
				"element": "H" 
			},
			{
				"x": 1.598478628,
				"y": -3.3388942437,
				"z": 1.7877367787,
				"element": "H" 
			},
			{
				"x": 0.3747435292,
				"y": -0.2138699308,
				"z": 1.6604543677,
				"element": "H" 
			},
			{
				"x": 1.9727012913,
				"y": 0.3174339327,
				"z": 1.0859220281,
				"element": "H" 
			},
			{
				"x": -1.6421418587,
				"y": 0.084598147,
				"z": 0.2043531596,
				"element": "H" 
			},
			{
				"x": -2.7261732101,
				"y": 1.414093614,
				"z": -1.5848526455,
				"element": "H" 
			},
			{
				"x": 1.1346840075,
				"y": 2.8192244432,
				"z": -2.8722014326,
				"element": "H" 
			},
			{
				"x": 2.2126953479,
				"y": 1.4884552366,
				"z": -1.0817401042,
				"element": "H" 
			}
		],
		 "valence_orbital": [ 
			{
				"type": "occ",
				"energy": -0.31804,
				"method": "rhf"
			},
			{
				"type": "occ",
				"energy": -0.30956,
				"method": "rhf"
			},
			{
				"type": "occ",
				"energy": -0.28507,
				"method": "rhf"
			},
			{
				"type": "occ",
				"energy": -0.27915,
				"method": "rhf"
			},
			{
				"type": "occ",
				"energy": -0.26473,
				"method": "rhf"
			},
			{
				"type": "unocc",
				"energy": -0.06167,
				"method": "rhf"
			},
			{
				"type": "unocc",
				"energy": -0.0291,
				"method": "rhf"
			},
			{
				"type": "unocc",
				"energy": 0.03553,
				"method": "rhf"
			},
			{
				"type": "unocc",
				"energy": 0.04573,
				"method": "rhf"
			},
			{
				"type": "unocc",
				"energy": 0.0532,
				"method": "rhf"
			}
		],
		"cosmo_sigma_profile": { 
			"-0.025": 0.0,
			"-0.024": 0.0,
			"-0.023": 0.0,
			"-0.022": 0.0,
			"-0.021": 0.0,
			"-0.02": 0.0,
			"-0.019": 0.0,
			"-0.018": 0.0,
			"-0.017": 0.0,
			"-0.016": 0.0,
			"-0.015": 0.292329635165,
			"-0.014": 1.01071599958,
			"-0.013": 1.14041868953,
			"-0.012": 0.869397993577,
			"-0.011": 1.13056404345,
			"-0.01": 0.682356752345,
			"-0.009": 6.08567288002,
			"-0.008": 11.4885787121,
			"-0.007": 16.183575383,
			"-0.006": 16.42079551,
			"-0.005": 14.6981763991,
			"-0.004": 16.6299168642,
			"-0.003": 15.2047257032,
			"-0.002": 15.5754310512,
			"-0.001": 13.2795306379,
			"0.0": 11.6358762919,
			"0.001": 14.9781925601,
			"0.002": 14.2416970086,
			"0.003": 7.62120319814,
			"0.004": 5.59461830319,
			"0.005": 6.03704709399,
			"0.006": 5.76467411644,
			"0.007": 7.52596307183,
			"0.008": 6.88115362882,
			"0.009": 6.94881547831,
			"0.01": 10.4059082722,
			"0.011": 12.3838904249,
			"0.012": 5.59186449512,
			"0.013": 1.3842299833,
			"0.014": 0.0210407255735,
			"0.015": 0.0,
			"0.016": 0.0,
			"0.017": 0.0,
			"0.018": 0.0,
			"0.019": 0.0,
			"0.02": 0.0,
			"0.021": 0.0,
			"0.022": 0.0,
			"0.023": 0.0,
			"0.024": 0.0,
			"0.025": 0.0
		}
	}
}
