{
	 "smiles": "NC1=NC(=CC=N1)C(F)(F)F", 
	 "Tm": 449.15, 
	 "num_atms": 15, 
	 "gaussian": { 
		 "optdone": 1, 
		 "sigma_profile": "yes", 
		 "theory": "DFT", 
		 "functional": "B3LYP", 
		 "basiset": "6-31G**", 
		 "properties": { 
			 "R2extent": 2932.1517, 
			 "electric_dipole_moment_norm": 2.4143550236, 
			 "electric_quadrupole_moment_norm": 10.5192128327, 
			 "total_energy": -656.729870651, 
			 "HOMO_LUMO_gap": 0.18817, 
			 "cosmo_polarized_energy": -8.79, 
			 "cosmo_cavitation_energy": 21.31, 
			 "cosmo_dispersion_energy": -15.56, 
			 "cosmo_repulsion_energy": 1.21, 
			 "cosmo_total_nonelectrostatic_energy": 6.96, 
			 "SMD_solvation_energy": 2.3 
		},
		"coords": [
			{
				"x": -0.2539102409,
				"y": 1.8695235159,
				"z": 0.5549343337,
				"element": "N" 
			},
			{
				"x": -0.4370321261,
				"y": 0.6561348088,
				"z": 1.1367175239,
				"element": "C" 
			},
			{
				"x": -1.3404777628,
				"y": -0.164197442,
				"z": 0.5667962048,
				"element": "N" 
			},
			{
				"x": -1.5227732263,
				"y": -1.3338504926,
				"z": 1.1747670351,
				"element": "C" 
			},
			{
				"x": -0.8419528709,
				"y": -1.720714753,
				"z": 2.3245126956,
				"element": "C" 
			},
			{
				"x": 0.0757618611,
				"y": -0.7868261186,
				"z": 2.8149858504,
				"element": "C" 
			},
			{
				"x": 0.2938069328,
				"y": 0.3940410474,
				"z": 2.2437661786,
				"element": "N" 
			},
			{
				"x": -2.5440901655,
				"y": -2.2437837185,
				"z": 0.5147723254,
				"element": "C" 
			},
			{
				"x": -3.7566179589,
				"y": -1.6624613525,
				"z": 0.4719521416,
				"element": "F" 
			},
			{
				"x": -2.1859597004,
				"y": -2.5389396255,
				"z": -0.7483125707,
				"element": "F" 
			},
			{
				"x": -2.6712911207,
				"y": -3.4086581046,
				"z": 1.1876348942,
				"element": "F" 
			},
			{
				"x": 0.5110739498,
				"y": 2.4415869139,
				"z": 0.8716345168,
				"element": "H" 
			},
			{
				"x": -0.674011286,
				"y": 2.040087322,
				"z": -0.3436463341,
				"element": "H" 
			},
			{
				"x": -1.0070847913,
				"y": -2.6774901377,
				"z": 2.799992617,
				"element": "H" 
			},
			{
				"x": 0.662058506,
				"y": -1.0031518631,
				"z": 3.7067925876,
				"element": "H" 
			}
		],
		 "valence_orbital": [ 
			{
				"type": "occ",
				"energy": -0.3413,
				"method": "rhf"
			},
			{
				"type": "occ",
				"energy": -0.32403,
				"method": "rhf"
			},
			{
				"type": "occ",
				"energy": -0.32349,
				"method": "rhf"
			},
			{
				"type": "occ",
				"energy": -0.26164,
				"method": "rhf"
			},
			{
				"type": "occ",
				"energy": -0.24087,
				"method": "rhf"
			},
			{
				"type": "unocc",
				"energy": -0.0527,
				"method": "rhf"
			},
			{
				"type": "unocc",
				"energy": -0.0118,
				"method": "rhf"
			},
			{
				"type": "unocc",
				"energy": 0.08354,
				"method": "rhf"
			},
			{
				"type": "unocc",
				"energy": 0.11093,
				"method": "rhf"
			},
			{
				"type": "unocc",
				"energy": 0.11996,
				"method": "rhf"
			}
		],
		"cosmo_sigma_profile": { 
			"-0.025": 0.0,
			"-0.024": 0.0,
			"-0.023": 0.0,
			"-0.022": 0.0,
			"-0.021": 0.0,
			"-0.02": 0.0,
			"-0.019": 0.0,
			"-0.018": 0.0,
			"-0.017": 0.0,
			"-0.016": 0.0,
			"-0.015": 0.237313092386,
			"-0.014": 2.11175495531,
			"-0.013": 1.70528614608,
			"-0.012": 1.42725008562,
			"-0.011": 2.6823272364,
			"-0.01": 2.07327641833,
			"-0.009": 1.69979394749,
			"-0.008": 4.29754287237,
			"-0.007": 5.08389878714,
			"-0.006": 5.22172420718,
			"-0.005": 4.76541365035,
			"-0.004": 5.65257548666,
			"-0.003": 6.93052325857,
			"-0.002": 11.4259016138,
			"-0.001": 11.0712303645,
			"0.0": 14.0473492015,
			"0.001": 13.5882026621,
			"0.002": 26.1343189074,
			"0.003": 22.3796340064,
			"0.004": 5.28530972257,
			"0.005": 4.98248319117,
			"0.006": 4.39617482437,
			"0.007": 3.3962642067,
			"0.008": 2.04010650721,
			"0.009": 2.00054483719,
			"0.01": 1.89328709816,
			"0.011": 1.81171720939,
			"0.012": 1.19644886673,
			"0.013": 0.693853603693,
			"0.014": 0.732533444551,
			"0.015": 0.13274100168,
			"0.016": 0.0,
			"0.017": 0.0,
			"0.018": 0.0,
			"0.019": 0.0,
			"0.02": 0.0,
			"0.021": 0.0,
			"0.022": 0.0,
			"0.023": 0.0,
			"0.024": 0.0,
			"0.025": 0.0
		}
	}
}
