{
	 "smiles": "CCC1=CC2=C(C=C1)C(CCl)=CC(=O)O2", 
	 "Tm": 412.15, 
	 "num_atms": 26, 
	 "gaussian": { 
		 "optdone": 1, 
		 "sigma_profile": "yes", 
		 "theory": "DFT", 
		 "functional": "B3LYP", 
		 "basiset": "6-31G**", 
		 "properties": { 
			 "R2extent": 4884.0713, 
			 "electric_dipole_moment_norm": 4.53070361644, 
			 "electric_quadrupole_moment_norm": 15.3241997843, 
			 "total_energy": -1074.56548289, 
			 "HOMO_LUMO_gap": 0.16042, 
			 "cosmo_polarized_energy": -12.54, 
			 "cosmo_cavitation_energy": 31.64, 
			 "cosmo_dispersion_energy": -22.89, 
			 "cosmo_repulsion_energy": 1.8, 
			 "cosmo_total_nonelectrostatic_energy": 10.55, 
			 "SMD_solvation_energy": 6.08 
		},
		"coords": [
			{
				"x": 0.5431252564,
				"y": 0.2289895462,
				"z": 3.5364830562,
				"element": "C" 
			},
			{
				"x": 1.2091322572,
				"y": 1.0292097339,
				"z": 2.4015379075,
				"element": "C" 
			},
			{
				"x": 0.4895187376,
				"y": 0.8746949489,
				"z": 1.0797910315,
				"element": "C" 
			},
			{
				"x": 0.8739357733,
				"y": -0.1097775921,
				"z": 0.1700770829,
				"element": "C" 
			},
			{
				"x": 0.1782494389,
				"y": -0.2709198555,
				"z": -1.0289068955,
				"element": "C" 
			},
			{
				"x": -0.9208069029,
				"y": 0.5459031533,
				"z": -1.3604755388,
				"element": "C" 
			},
			{
				"x": -1.2993071898,
				"y": 1.5358023673,
				"z": -0.4318638616,
				"element": "C" 
			},
			{
				"x": -0.6091102003,
				"y": 1.6962414585,
				"z": 0.7592700062,
				"element": "C" 
			},
			{
				"x": -1.5664273583,
				"y": 0.3139537403,
				"z": -2.6410376536,
				"element": "C" 
			},
			{
				"x": -2.7150313254,
				"y": 1.1676742776,
				"z": -3.0987570618,
				"element": "C" 
			},
			{
				"x": -4.2571770905,
				"y": 0.801704537,
				"z": -2.19206844,
				"element": "Cl" 
			},
			{
				"x": -1.1013329179,
				"y": -0.6706120522,
				"z": -3.4506028239,
				"element": "C" 
			},
			{
				"x": 0.0309949256,
				"y": -1.5183025502,
				"z": -3.0950736943,
				"element": "C" 
			},
			{
				"x": 0.487988794,
				"y": -2.4094888283,
				"z": -3.7711709966,
				"element": "O" 
			},
			{
				"x": 0.6245725328,
				"y": -1.2551227933,
				"z": -1.8644392431,
				"element": "O" 
			},
			{
				"x": -0.4919571856,
				"y": 0.5502858012,
				"z": 3.6902216119,
				"element": "H" 
			},
			{
				"x": 0.5284216862,
				"y": -0.8407338889,
				"z": 3.3054225617,
				"element": "H" 
			},
			{
				"x": 1.0850827095,
				"y": 0.3669668749,
				"z": 4.4774788075,
				"element": "H" 
			},
			{
				"x": 2.2497735128,
				"y": 0.7042879217,
				"z": 2.2908640828,
				"element": "H" 
			},
			{
				"x": 1.2385206238,
				"y": 2.0902296937,
				"z": 2.6764076509,
				"element": "H" 
			},
			{
				"x": 1.7166203197,
				"y": -0.7644547157,
				"z": 0.3689761104,
				"element": "H" 
			},
			{
				"x": -2.1512324806,
				"y": 2.1721466769,
				"z": -0.645174687,
				"element": "H" 
			},
			{
				"x": -0.9193469258,
				"y": 2.4679577417,
				"z": 1.4582137228,
				"element": "H" 
			},
			{
				"x": -2.9342700623,
				"y": 0.9939351797,
				"z": -4.151215504,
				"element": "H" 
			},
			{
				"x": -2.5198013849,
				"y": 2.2294816582,
				"z": -2.9420995727,
				"element": "H" 
			},
			{
				"x": -1.5495355438,
				"y": -0.8824530349,
				"z": -4.4147576593,
				"element": "H" 
			}
		],
		 "valence_orbital": [ 
			{
				"type": "occ",
				"energy": -0.3104,
				"method": "rhf"
			},
			{
				"type": "occ",
				"energy": -0.30631,
				"method": "rhf"
			},
			{
				"type": "occ",
				"energy": -0.27605,
				"method": "rhf"
			},
			{
				"type": "occ",
				"energy": -0.25762,
				"method": "rhf"
			},
			{
				"type": "occ",
				"energy": -0.23862,
				"method": "rhf"
			},
			{
				"type": "unocc",
				"energy": -0.0782,
				"method": "rhf"
			},
			{
				"type": "unocc",
				"energy": -0.01656,
				"method": "rhf"
			},
			{
				"type": "unocc",
				"energy": -0.0144,
				"method": "rhf"
			},
			{
				"type": "unocc",
				"energy": 0.02723,
				"method": "rhf"
			},
			{
				"type": "unocc",
				"energy": 0.07369,
				"method": "rhf"
			}
		],
		"cosmo_sigma_profile": { 
			"-0.025": 0.0,
			"-0.024": 0.0,
			"-0.023": 0.0,
			"-0.022": 0.0,
			"-0.021": 0.0,
			"-0.02": 0.0,
			"-0.019": 0.0,
			"-0.018": 0.0,
			"-0.017": 0.0,
			"-0.016": 0.0,
			"-0.015": 0.0,
			"-0.014": 0.0,
			"-0.013": 0.0,
			"-0.012": 0.0,
			"-0.011": 0.0,
			"-0.01": 0.465507692715,
			"-0.009": 5.18890754611,
			"-0.008": 6.9866104568,
			"-0.007": 7.10391311069,
			"-0.006": 9.84602633014,
			"-0.005": 13.2386304558,
			"-0.004": 16.103391784,
			"-0.003": 20.112225898,
			"-0.002": 20.9393657843,
			"-0.001": 25.7547766255,
			"0.0": 23.1218801679,
			"0.001": 21.9454114934,
			"0.002": 16.5273292575,
			"0.003": 16.3341615335,
			"0.004": 10.8508669035,
			"0.005": 9.69110725153,
			"0.006": 8.41417643061,
			"0.007": 1.83214377887,
			"0.008": 1.99226684055,
			"0.009": 2.82837118176,
			"0.01": 2.76773720966,
			"0.011": 3.7247953225,
			"0.012": 6.28289712331,
			"0.013": 2.05621981752,
			"0.014": 0.027595107865,
			"0.015": 0.0,
			"0.016": 0.0,
			"0.017": 0.0,
			"0.018": 0.0,
			"0.019": 0.0,
			"0.02": 0.0,
			"0.021": 0.0,
			"0.022": 0.0,
			"0.023": 0.0,
			"0.024": 0.0,
			"0.025": 0.0
		}
	}
}
