{
	 "smiles": "NN1C(S)=NN=C1C1=CC=NC=C1", 
	 "Tm": 525.15, 
	 "num_atms": 20, 
	 "gaussian": { 
		 "optdone": 1, 
		 "sigma_profile": "yes", 
		 "theory": "DFT", 
		 "functional": "B3LYP", 
		 "basiset": "6-31G**", 
		 "properties": { 
			 "R2extent": 3745.8283, 
			 "electric_dipole_moment_norm": 5.56880691082, 
			 "electric_quadrupole_moment_norm": 20.2202137968, 
			 "total_energy": -942.836422251, 
			 "HOMO_LUMO_gap": 0.1706, 
			 "cosmo_polarized_energy": -23.5, 
			 "cosmo_cavitation_energy": 26.39, 
			 "cosmo_dispersion_energy": -20.2, 
			 "cosmo_repulsion_energy": 1.53, 
			 "cosmo_total_nonelectrostatic_energy": 7.71, 
			 "SMD_solvation_energy": 1.14 
		},
		"coords": [
			{
				"x": -1.7575086339,
				"y": 1.9615585256,
				"z": 0.8057684991,
				"element": "N" 
			},
			{
				"x": -1.3756498373,
				"y": 0.6182228469,
				"z": 0.7548793468,
				"element": "N" 
			},
			{
				"x": -1.1139410984,
				"y": -0.1322813639,
				"z": 1.879786552,
				"element": "C" 
			},
			{
				"x": -1.2956730793,
				"y": 0.4440398266,
				"z": 3.5294214351,
				"element": "S" 
			},
			{
				"x": -0.7205804699,
				"y": -1.3385090823,
				"z": 1.5446337952,
				"element": "N" 
			},
			{
				"x": -0.7047219713,
				"y": -1.3933595028,
				"z": 0.1702405822,
				"element": "N" 
			},
			{
				"x": -1.0920989957,
				"y": -0.2313545349,
				"z": -0.3110935015,
				"element": "C" 
			},
			{
				"x": -1.1597171886,
				"y": 0.069678718,
				"z": -1.7442550157,
				"element": "C" 
			},
			{
				"x": -1.8218252688,
				"y": 1.1709873009,
				"z": -2.3081141491,
				"element": "C" 
			},
			{
				"x": -1.8120756083,
				"y": 1.330784285,
				"z": -3.6948334915,
				"element": "C" 
			},
			{
				"x": -1.209811087,
				"y": 0.4928428998,
				"z": -4.5430048545,
				"element": "N" 
			},
			{
				"x": -0.5868857175,
				"y": -0.5645941485,
				"z": -3.9989609107,
				"element": "C" 
			},
			{
				"x": -0.5292807156,
				"y": -0.8187719937,
				"z": -2.6335788591,
				"element": "C" 
			},
			{
				"x": -2.7002005187,
				"y": 2.0690513921,
				"z": 0.4406781156,
				"element": "H" 
			},
			{
				"x": -1.1128548781,
				"y": 2.5237629947,
				"z": 0.2562571944,
				"element": "H" 
			},
			{
				"x": -1.6105219541,
				"y": 1.6983296855,
				"z": 3.1401969861,
				"element": "H" 
			},
			{
				"x": -2.3559566474,
				"y": 1.8944448815,
				"z": -1.7049797319,
				"element": "H" 
			},
			{
				"x": -2.3232192903,
				"y": 2.1823300109,
				"z": -4.1411774663,
				"element": "H" 
			},
			{
				"x": -0.1026541564,
				"y": -1.2447914071,
				"z": -4.6968919479,
				"element": "H" 
			},
			{
				"x": -0.0112228834,
				"y": -1.6870713343,
				"z": -2.2438725782,
				"element": "H" 
			}
		],
		 "valence_orbital": [ 
			{
				"type": "occ",
				"energy": -0.29364,
				"method": "rhf"
			},
			{
				"type": "occ",
				"energy": -0.27554,
				"method": "rhf"
			},
			{
				"type": "occ",
				"energy": -0.26588,
				"method": "rhf"
			},
			{
				"type": "occ",
				"energy": -0.2598,
				"method": "rhf"
			},
			{
				"type": "occ",
				"energy": -0.23225,
				"method": "rhf"
			},
			{
				"type": "unocc",
				"energy": -0.06165,
				"method": "rhf"
			},
			{
				"type": "unocc",
				"energy": -0.02456,
				"method": "rhf"
			},
			{
				"type": "unocc",
				"energy": 0.01091,
				"method": "rhf"
			},
			{
				"type": "unocc",
				"energy": 0.02006,
				"method": "rhf"
			},
			{
				"type": "unocc",
				"energy": 0.02781,
				"method": "rhf"
			}
		],
		"cosmo_sigma_profile": { 
			"-0.025": 0.0,
			"-0.024": 0.0,
			"-0.023": 0.0,
			"-0.022": 0.0,
			"-0.021": 0.0,
			"-0.02": 0.0,
			"-0.019": 0.0,
			"-0.018": 0.0,
			"-0.017": 0.0,
			"-0.016": 0.0,
			"-0.015": 1.64280453411,
			"-0.014": 5.31699012087,
			"-0.013": 3.67795514278,
			"-0.012": 4.13016582733,
			"-0.011": 3.13636384622,
			"-0.01": 3.32271220499,
			"-0.009": 3.02766418839,
			"-0.008": 3.29564750749,
			"-0.007": 5.71609031968,
			"-0.006": 11.5758673439,
			"-0.005": 9.6617099997,
			"-0.004": 9.7169421604,
			"-0.003": 10.3824191881,
			"-0.002": 9.55493647322,
			"-0.001": 11.4424356886,
			"0.0": 13.208046895,
			"0.001": 20.7848726956,
			"0.002": 19.1921451358,
			"0.003": 10.5432963938,
			"0.004": 8.61288498942,
			"0.005": 7.21900820703,
			"0.006": 6.63868424888,
			"0.007": 4.46452150116,
			"0.008": 2.49415320319,
			"0.009": 3.49767316823,
			"0.01": 3.44908881331,
			"0.011": 3.32397949434,
			"0.012": 4.19024885647,
			"0.013": 3.71861434543,
			"0.014": 3.74796733711,
			"0.015": 2.56793054232,
			"0.016": 1.58814082362,
			"0.017": 0.22577867243,
			"0.018": 0.0,
			"0.019": 0.0,
			"0.02": 0.0,
			"0.021": 0.0,
			"0.022": 0.0,
			"0.023": 0.0,
			"0.024": 0.0,
			"0.025": 0.0
		}
	}
}
