{
	 "smiles": "BrC1=CC(Br)=C(Br)C=C1", 
	 "Tm": 316.35, 
	 "num_atms": 12, 
	 "gaussian": { 
		 "optdone": 1, 
		 "sigma_profile": "yes", 
		 "theory": "DFT", 
		 "functional": "B3LYP", 
		 "basiset": "6-31G**", 
		 "properties": { 
			 "R2extent": 5228.1145, 
			 "electric_dipole_moment_norm": 1.19518711924, 
			 "electric_quadrupole_moment_norm": 3.76975711154, 
			 "total_energy": -7944.65139409, 
			 "HOMO_LUMO_gap": 0.21033, 
			 "cosmo_polarized_energy": -3.94, 
			 "cosmo_cavitation_energy": 23.3, 
			 "cosmo_dispersion_energy": -18.54, 
			 "cosmo_repulsion_energy": 1.51, 
			 "cosmo_total_nonelectrostatic_energy": 6.27, 
			 "SMD_solvation_energy": 0.71 
		},
		"coords": [
			{
				"x": 2.8511971937,
				"y": -1.7323146017,
				"z": -2.946327454,
				"element": "Br" 
			},
			{
				"x": 1.5590699972,
				"y": -0.834593084,
				"z": -1.8707266854,
				"element": "C" 
			},
			{
				"x": 0.2466805625,
				"y": -0.7369209814,
				"z": -2.3238180419,
				"element": "C" 
			},
			{
				"x": -0.7058293608,
				"y": -0.0802083454,
				"z": -1.5409255637,
				"element": "C" 
			},
			{
				"x": -2.4812023396,
				"y": 0.0228233598,
				"z": -2.2092995585,
				"element": "Br" 
			},
			{
				"x": -0.3391958535,
				"y": 0.4747873487,
				"z": -0.3092378688,
				"element": "C" 
			},
			{
				"x": -1.5821897019,
				"y": 1.380881479,
				"z": 0.8052924102,
				"element": "Br" 
			},
			{
				"x": 0.9830996656,
				"y": 0.3659694878,
				"z": 0.1277464969,
				"element": "C" 
			},
			{
				"x": 1.9383150096,
				"y": -0.2868042026,
				"z": -0.646428516,
				"element": "C" 
			},
			{
				"x": -0.0417679398,
				"y": -1.164279491,
				"z": -3.275247545,
				"element": "H" 
			},
			{
				"x": 1.2625072514,
				"y": 0.7970076822,
				"z": 1.0818300405,
				"element": "H" 
			},
			{
				"x": 2.9617155156,
				"y": -0.3665486515,
				"z": -0.2998577142,
				"element": "H" 
			}
		],
		 "valence_orbital": [ 
			{
				"type": "occ",
				"energy": -0.30119,
				"method": "rhf"
			},
			{
				"type": "occ",
				"energy": -0.30017,
				"method": "rhf"
			},
			{
				"type": "occ",
				"energy": -0.28527,
				"method": "rhf"
			},
			{
				"type": "occ",
				"energy": -0.26718,
				"method": "rhf"
			},
			{
				"type": "occ",
				"energy": -0.24799,
				"method": "rhf"
			},
			{
				"type": "unocc",
				"energy": -0.03766,
				"method": "rhf"
			},
			{
				"type": "unocc",
				"energy": -0.03734,
				"method": "rhf"
			},
			{
				"type": "unocc",
				"energy": -0.03554,
				"method": "rhf"
			},
			{
				"type": "unocc",
				"energy": 0.00119,
				"method": "rhf"
			},
			{
				"type": "unocc",
				"energy": 0.03196,
				"method": "rhf"
			}
		],
		"cosmo_sigma_profile": { 
			"-0.025": 0.0,
			"-0.024": 0.0,
			"-0.023": 0.0,
			"-0.022": 0.0,
			"-0.021": 0.0,
			"-0.02": 0.0,
			"-0.019": 0.0,
			"-0.018": 0.0,
			"-0.017": 0.0,
			"-0.016": 0.0,
			"-0.015": 0.0,
			"-0.014": 0.0,
			"-0.013": 0.0,
			"-0.012": 0.0,
			"-0.011": 0.0,
			"-0.01": 0.0,
			"-0.009": 0.664626427226,
			"-0.008": 4.95984119381,
			"-0.007": 5.62307714388,
			"-0.006": 5.44371994582,
			"-0.005": 7.86928531503,
			"-0.004": 9.7689311519,
			"-0.003": 8.45668808501,
			"-0.002": 11.6565839524,
			"-0.001": 14.175014407,
			"0.0": 29.7847702951,
			"0.001": 26.7372695021,
			"0.002": 20.1963978224,
			"0.003": 23.7901399345,
			"0.004": 24.4055759237,
			"0.005": 4.10469497361,
			"0.006": 0.11347357445,
			"0.007": 0.0,
			"0.008": 0.0,
			"0.009": 0.0,
			"0.01": 0.0,
			"0.011": 0.0,
			"0.012": 0.0,
			"0.013": 0.0,
			"0.014": 0.0,
			"0.015": 0.0,
			"0.016": 0.0,
			"0.017": 0.0,
			"0.018": 0.0,
			"0.019": 0.0,
			"0.02": 0.0,
			"0.021": 0.0,
			"0.022": 0.0,
			"0.023": 0.0,
			"0.024": 0.0,
			"0.025": 0.0
		}
	}
}
