{
	 "smiles": "OC(=O)C1=CNC2=C1C(F)=CC=C2", 
	 "Tm": 483.15, 
	 "num_atms": 19, 
	 "gaussian": { 
		 "optdone": 1, 
		 "sigma_profile": "yes", 
		 "theory": "DFT", 
		 "functional": "B3LYP", 
		 "basiset": "6-31G**", 
		 "properties": { 
			 "R2extent": 2645.9094, 
			 "electric_dipole_moment_norm": 3.77045928767, 
			 "electric_quadrupole_moment_norm": 11.2599861194, 
			 "total_energy": -651.627209492, 
			 "HOMO_LUMO_gap": 0.18561, 
			 "cosmo_polarized_energy": -15.92, 
			 "cosmo_cavitation_energy": 24.18, 
			 "cosmo_dispersion_energy": -18.12, 
			 "cosmo_repulsion_energy": 1.4, 
			 "cosmo_total_nonelectrostatic_energy": 7.47, 
			 "SMD_solvation_energy": 5.71 
		},
		"coords": [
			{
				"x": -0.8434574987,
				"y": 3.1471993522,
				"z": -1.7163979435,
				"element": "O" 
			},
			{
				"x": -0.3424761639,
				"y": 2.1741995458,
				"z": -2.5099397466,
				"element": "C" 
			},
			{
				"x": -0.4018797939,
				"y": 2.2395573209,
				"z": -3.7272667755,
				"element": "O" 
			},
			{
				"x": 0.2670627162,
				"y": 1.0550539305,
				"z": -1.7834391204,
				"element": "C" 
			},
			{
				"x": 0.8135075329,
				"y": 0.0016050493,
				"z": -2.4871426616,
				"element": "C" 
			},
			{
				"x": 1.3220145007,
				"y": -0.9222366127,
				"z": -1.6219139173,
				"element": "N" 
			},
			{
				"x": 1.1242845125,
				"y": -0.5019624975,
				"z": -0.3160962247,
				"element": "C" 
			},
			{
				"x": 0.4554450658,
				"y": 0.7532095831,
				"z": -0.3770204579,
				"element": "C" 
			},
			{
				"x": 0.158209067,
				"y": 1.3578096806,
				"z": 0.8558806461,
				"element": "C" 
			},
			{
				"x": -0.4721984279,
				"y": 2.5443293939,
				"z": 0.8995912246,
				"element": "F" 
			},
			{
				"x": 0.5036106209,
				"y": 0.7530918912,
				"z": 2.0533090719,
				"element": "C" 
			},
			{
				"x": 1.1641953372,
				"y": -0.4884561856,
				"z": 2.0618491063,
				"element": "C" 
			},
			{
				"x": 1.4853351825,
				"y": -1.1363514303,
				"z": 0.8767028426,
				"element": "C" 
			},
			{
				"x": -1.2086535035,
				"y": 3.8110789093,
				"z": -2.3245042306,
				"element": "H" 
			},
			{
				"x": 0.8593790088,
				"y": -0.1243113731,
				"z": -3.5584646649,
				"element": "H" 
			},
			{
				"x": 1.7740379239,
				"y": -1.7819414563,
				"z": -1.8898612188,
				"element": "H" 
			},
			{
				"x": 0.2522251631,
				"y": 1.2601160672,
				"z": 2.9782981386,
				"element": "H" 
			},
			{
				"x": 1.4245944968,
				"y": -0.9425645594,
				"z": 3.0126458445,
				"element": "H" 
			},
			{
				"x": 1.9950642595,
				"y": -2.0947266091,
				"z": 0.8740700871,
				"element": "H" 
			}
		],
		 "valence_orbital": [ 
			{
				"type": "occ",
				"energy": -0.30675,
				"method": "rhf"
			},
			{
				"type": "occ",
				"energy": -0.28219,
				"method": "rhf"
			},
			{
				"type": "occ",
				"energy": -0.26532,
				"method": "rhf"
			},
			{
				"type": "occ",
				"energy": -0.23924,
				"method": "rhf"
			},
			{
				"type": "occ",
				"energy": -0.21531,
				"method": "rhf"
			},
			{
				"type": "unocc",
				"energy": -0.0297,
				"method": "rhf"
			},
			{
				"type": "unocc",
				"energy": -0.00096,
				"method": "rhf"
			},
			{
				"type": "unocc",
				"energy": 0.01817,
				"method": "rhf"
			},
			{
				"type": "unocc",
				"energy": 0.06475,
				"method": "rhf"
			},
			{
				"type": "unocc",
				"energy": 0.09307,
				"method": "rhf"
			}
		],
		"cosmo_sigma_profile": { 
			"-0.025": 0.0,
			"-0.024": 0.0,
			"-0.023": 0.0,
			"-0.022": 0.0,
			"-0.021": 0.0,
			"-0.02": 0.0,
			"-0.019": 0.0,
			"-0.018": 0.266409638689,
			"-0.017": 2.23919529781,
			"-0.016": 2.15744754516,
			"-0.015": 2.30498562104,
			"-0.014": 2.59332799916,
			"-0.013": 1.49215030098,
			"-0.012": 1.95846783878,
			"-0.011": 2.0196400636,
			"-0.01": 2.73451930802,
			"-0.009": 3.7603898082,
			"-0.008": 2.55624766683,
			"-0.007": 4.75891950238,
			"-0.006": 7.99180493472,
			"-0.005": 7.6256577544,
			"-0.004": 8.80021780843,
			"-0.003": 6.37700609514,
			"-0.002": 7.53071558089,
			"-0.001": 8.50492653936,
			"0.0": 8.9910075095,
			"0.001": 14.1873461289,
			"0.002": 21.8439915928,
			"0.003": 18.3994193757,
			"0.004": 14.8587019665,
			"0.005": 12.9894817712,
			"0.006": 4.20151355681,
			"0.007": 4.43659239844,
			"0.008": 2.68163731111,
			"0.009": 3.60009792709,
			"0.01": 2.89628578346,
			"0.011": 1.7349235103,
			"0.012": 4.10500303734,
			"0.013": 3.72372219573,
			"0.014": 0.0287372635499,
			"0.015": 0.0,
			"0.016": 0.0,
			"0.017": 0.0,
			"0.018": 0.0,
			"0.019": 0.0,
			"0.02": 0.0,
			"0.021": 0.0,
			"0.022": 0.0,
			"0.023": 0.0,
			"0.024": 0.0,
			"0.025": 0.0
		}
	}
}
