{
	 "smiles": "ClC1=CC=CC(Cl)=C1C(=O)N1CCNCC1", 
	 "Tm": 423.15, 
	 "num_atms": 28, 
	 "gaussian": { 
		 "optdone": 1, 
		 "sigma_profile": "yes", 
		 "theory": "DFT", 
		 "functional": "B3LYP", 
		 "basiset": "6-31G**", 
		 "properties": { 
			 "R2extent": 5726.6316, 
			 "electric_dipole_moment_norm": 4.07385923787, 
			 "electric_quadrupole_moment_norm": 17.6323686489, 
			 "total_energy": -1531.51390158, 
			 "HOMO_LUMO_gap": 0.19904, 
			 "cosmo_polarized_energy": -13.75, 
			 "cosmo_cavitation_energy": 34.08, 
			 "cosmo_dispersion_energy": -23.73, 
			 "cosmo_repulsion_energy": 1.85, 
			 "cosmo_total_nonelectrostatic_energy": 12.2, 
			 "SMD_solvation_energy": 2.77 
		},
		"coords": [
			{
				"x": -0.0856743881,
				"y": -2.0379917408,
				"z": 2.207894387,
				"element": "Cl" 
			},
			{
				"x": 0.7797319263,
				"y": -0.6611110307,
				"z": 2.8739157551,
				"element": "C" 
			},
			{
				"x": 1.2591118734,
				"y": -0.7497689226,
				"z": 4.1797678555,
				"element": "C" 
			},
			{
				"x": 1.9424957021,
				"y": 0.3344847365,
				"z": 4.7269623207,
				"element": "C" 
			},
			{
				"x": 2.1395392324,
				"y": 1.4947812895,
				"z": 3.9805094103,
				"element": "C" 
			},
			{
				"x": 1.6506835744,
				"y": 1.5551791889,
				"z": 2.6765314084,
				"element": "C" 
			},
			{
				"x": 1.9038126903,
				"y": 3.0336255383,
				"z": 1.7607008192,
				"element": "Cl" 
			},
			{
				"x": 0.9588748869,
				"y": 0.4866492953,
				"z": 2.088818254,
				"element": "C" 
			},
			{
				"x": 0.5693943041,
				"y": 0.5065964171,
				"z": 0.6190918473,
				"element": "C" 
			},
			{
				"x": 1.3999788794,
				"y": 0.1619805091,
				"z": -0.213148545,
				"element": "O" 
			},
			{
				"x": -0.6953506813,
				"y": 0.9135770623,
				"z": 0.3097043061,
				"element": "N" 
			},
			{
				"x": -1.7263204295,
				"y": 1.3080061504,
				"z": 1.2681472257,
				"element": "C" 
			},
			{
				"x": -2.3233636928,
				"y": 2.6611526835,
				"z": 0.8669250691,
				"element": "C" 
			},
			{
				"x": -2.8216193299,
				"y": 2.5731020425,
				"z": -0.5053769532,
				"element": "N" 
			},
			{
				"x": -1.7368925071,
				"y": 2.2769454074,
				"z": -1.4440567156,
				"element": "C" 
			},
			{
				"x": -1.125059853,
				"y": 0.9199789995,
				"z": -1.0910548203,
				"element": "C" 
			},
			{
				"x": 1.098189771,
				"y": -1.6567582917,
				"z": 4.7509702146,
				"element": "H" 
			},
			{
				"x": 2.32286028,
				"y": 0.275455137,
				"z": 5.7418958864,
				"element": "H" 
			},
			{
				"x": 2.667124896,
				"y": 2.3453418736,
				"z": 4.3964499972,
				"element": "H" 
			},
			{
				"x": -2.5220720923,
				"y": 0.5507995233,
				"z": 1.2744481328,
				"element": "H" 
			},
			{
				"x": -1.2941224719,
				"y": 1.3629688547,
				"z": 2.2679231988,
				"element": "H" 
			},
			{
				"x": -3.1570423799,
				"y": 2.8989321238,
				"z": 1.5366548707,
				"element": "H" 
			},
			{
				"x": -1.5470852927,
				"y": 3.4377509223,
				"z": 0.9981336942,
				"element": "H" 
			},
			{
				"x": -3.281057271,
				"y": 3.4411045017,
				"z": -0.7649052793,
				"element": "H" 
			},
			{
				"x": -2.1450693356,
				"y": 2.235647971,
				"z": -2.4595762092,
				"element": "H" 
			},
			{
				"x": -0.9357439503,
				"y": 3.038856967,
				"z": -1.4303707503,
				"element": "H" 
			},
			{
				"x": -0.2525516405,
				"y": 0.6979514871,
				"z": -1.705317188,
				"element": "H" 
			},
			{
				"x": -1.8763727004,
				"y": 0.132261304,
				"z": -1.237138192,
				"element": "H" 
			}
		],
		 "valence_orbital": [ 
			{
				"type": "occ",
				"energy": -0.27618,
				"method": "rhf"
			},
			{
				"type": "occ",
				"energy": -0.25459,
				"method": "rhf"
			},
			{
				"type": "occ",
				"energy": -0.24565,
				"method": "rhf"
			},
			{
				"type": "occ",
				"energy": -0.2441,
				"method": "rhf"
			},
			{
				"type": "occ",
				"energy": -0.22857,
				"method": "rhf"
			},
			{
				"type": "unocc",
				"energy": -0.02953,
				"method": "rhf"
			},
			{
				"type": "unocc",
				"energy": -0.02756,
				"method": "rhf"
			},
			{
				"type": "unocc",
				"energy": 0.00436,
				"method": "rhf"
			},
			{
				"type": "unocc",
				"energy": 0.01972,
				"method": "rhf"
			},
			{
				"type": "unocc",
				"energy": 0.04886,
				"method": "rhf"
			}
		],
		"cosmo_sigma_profile": { 
			"-0.025": 0.0,
			"-0.024": 0.0,
			"-0.023": 0.0,
			"-0.022": 0.0,
			"-0.021": 0.0,
			"-0.02": 0.0,
			"-0.019": 0.0,
			"-0.018": 0.0,
			"-0.017": 0.0,
			"-0.016": 0.0,
			"-0.015": 0.0,
			"-0.014": 0.0,
			"-0.013": 0.0,
			"-0.012": 0.0,
			"-0.011": 0.45046323578,
			"-0.01": 1.4962975797,
			"-0.009": 1.16387464584,
			"-0.008": 5.46238427779,
			"-0.007": 8.02417367502,
			"-0.006": 9.07810645405,
			"-0.005": 12.8606717591,
			"-0.004": 23.8827836073,
			"-0.003": 24.1340938738,
			"-0.002": 28.6950857959,
			"-0.001": 24.3198762571,
			"0.0": 20.6674304592,
			"0.001": 23.2989462859,
			"0.002": 24.2482970052,
			"0.003": 18.8007924168,
			"0.004": 14.4052227882,
			"0.005": 5.75470247803,
			"0.006": 3.37483573545,
			"0.007": 2.74865458763,
			"0.008": 3.07277856312,
			"0.009": 1.78010708735,
			"0.01": 1.49854526153,
			"0.011": 2.83345680482,
			"0.012": 2.9037897993,
			"0.013": 5.54654289371,
			"0.014": 1.92764668337,
			"0.015": 0.697567493757,
			"0.016": 0.425396448532,
			"0.017": 0.412156663401,
			"0.018": 0.0717441372563,
			"0.019": 0.0,
			"0.02": 0.0,
			"0.021": 0.0,
			"0.022": 0.0,
			"0.023": 0.0,
			"0.024": 0.0,
			"0.025": 0.0
		}
	}
}
