{
	 "smiles": "NC(=NO)C1=CC=C(C=C1)C(F)(F)F", 
	 "Tm": 399.15, 
	 "num_atms": 21, 
	 "gaussian": { 
		 "optdone": 1, 
		 "sigma_profile": "yes", 
		 "theory": "DFT", 
		 "functional": "B3LYP", 
		 "basiset": "6-31G**", 
		 "properties": { 
			 "R2extent": 4009.2988, 
			 "electric_dipole_moment_norm": 3.16556699819, 
			 "electric_quadrupole_moment_norm": 8.9056789438, 
			 "total_energy": -793.277731056, 
			 "HOMO_LUMO_gap": 0.17303, 
			 "cosmo_polarized_energy": -11.2, 
			 "cosmo_cavitation_energy": 27.16, 
			 "cosmo_dispersion_energy": -19.67, 
			 "cosmo_repulsion_energy": 1.5, 
			 "cosmo_total_nonelectrostatic_energy": 8.99, 
			 "SMD_solvation_energy": 5.95 
		},
		"coords": [
			{
				"x": 2.6001450278,
				"y": 2.4485771485,
				"z": 0.5588113129,
				"element": "N" 
			},
			{
				"x": 1.613590104,
				"y": 1.922888726,
				"z": -0.254298914,
				"element": "C" 
			},
			{
				"x": 1.4181549227,
				"y": 2.2807290621,
				"z": -1.4827161031,
				"element": "N" 
			},
			{
				"x": 2.4274877268,
				"y": 3.1958694078,
				"z": -1.8798042418,
				"element": "O" 
			},
			{
				"x": 0.6732560354,
				"y": 0.9359409294,
				"z": 0.327883166,
				"element": "C" 
			},
			{
				"x": -0.0362129375,
				"y": 0.0557648818,
				"z": -0.5058406093,
				"element": "C" 
			},
			{
				"x": -0.9168512114,
				"y": -0.8720462952,
				"z": 0.0361359495,
				"element": "C" 
			},
			{
				"x": -1.0974922865,
				"y": -0.9418671537,
				"z": 1.4224793059,
				"element": "C" 
			},
			{
				"x": -0.3993778461,
				"y": -0.0710128089,
				"z": 2.2601158635,
				"element": "C" 
			},
			{
				"x": 0.4791456584,
				"y": 0.863489381,
				"z": 1.7152301048,
				"element": "C" 
			},
			{
				"x": -2.0866354272,
				"y": -1.9178352527,
				"z": 1.9984218091,
				"element": "C" 
			},
			{
				"x": -2.1281588676,
				"y": -3.0675914911,
				"z": 1.2881228385,
				"element": "F" 
			},
			{
				"x": -1.7929416818,
				"y": -2.2404743987,
				"z": 3.2777682015,
				"element": "F" 
			},
			{
				"x": -3.3432032599,
				"y": -1.4143013759,
				"z": 1.9985902398,
				"element": "F" 
			},
			{
				"x": 3.2829940937,
				"y": 2.9983005508,
				"z": 0.0543986158,
				"element": "H" 
			},
			{
				"x": 2.9975828233,
				"y": 1.8126319104,
				"z": 1.2353292789,
				"element": "H" 
			},
			{
				"x": 2.1704413484,
				"y": 3.3983667674,
				"z": -2.7873898382,
				"element": "H" 
			},
			{
				"x": 0.1198482386,
				"y": 0.1104952437,
				"z": -1.5769462124,
				"element": "H" 
			},
			{
				"x": -1.4535693368,
				"y": -1.5567639313,
				"z": -0.6119079932,
				"element": "H" 
			},
			{
				"x": -0.542921999,
				"y": -0.123245746,
				"z": 3.3337805489,
				"element": "H" 
			},
			{
				"x": 0.9959188746,
				"y": 1.5580844446,
				"z": 2.369336677,
				"element": "H" 
			}
		],
		 "valence_orbital": [ 
			{
				"type": "occ",
				"energy": -0.33039,
				"method": "rhf"
			},
			{
				"type": "occ",
				"energy": -0.28264,
				"method": "rhf"
			},
			{
				"type": "occ",
				"energy": -0.27189,
				"method": "rhf"
			},
			{
				"type": "occ",
				"energy": -0.26825,
				"method": "rhf"
			},
			{
				"type": "occ",
				"energy": -0.21927,
				"method": "rhf"
			},
			{
				"type": "unocc",
				"energy": -0.04624,
				"method": "rhf"
			},
			{
				"type": "unocc",
				"energy": -0.01839,
				"method": "rhf"
			},
			{
				"type": "unocc",
				"energy": 0.04428,
				"method": "rhf"
			},
			{
				"type": "unocc",
				"energy": 0.06697,
				"method": "rhf"
			},
			{
				"type": "unocc",
				"energy": 0.0912,
				"method": "rhf"
			}
		],
		"cosmo_sigma_profile": { 
			"-0.025": 0.0,
			"-0.024": 0.0,
			"-0.023": 0.0,
			"-0.022": 0.0,
			"-0.021": 0.0,
			"-0.02": 0.0,
			"-0.019": 0.0,
			"-0.018": 0.0604657706885,
			"-0.017": 0.700989088017,
			"-0.016": 0.957446664096,
			"-0.015": 1.04517412921,
			"-0.014": 0.809200793257,
			"-0.013": 1.80870249618,
			"-0.012": 2.09544578603,
			"-0.011": 2.50231312217,
			"-0.01": 2.83367586167,
			"-0.009": 3.72726083119,
			"-0.008": 3.40775268158,
			"-0.007": 6.21006901823,
			"-0.006": 8.68818799075,
			"-0.005": 9.08414080716,
			"-0.004": 8.21323204776,
			"-0.003": 7.56976583129,
			"-0.002": 8.9510450757,
			"-0.001": 10.7142571879,
			"0.0": 14.5616332126,
			"0.001": 17.7038565112,
			"0.002": 29.7452619465,
			"0.003": 40.6058356151,
			"0.004": 7.18734682324,
			"0.005": 3.96774103805,
			"0.006": 5.11098787189,
			"0.007": 4.89296277747,
			"0.008": 4.70533838921,
			"0.009": 3.85309109643,
			"0.01": 2.29757749326,
			"0.011": 0.946798741083,
			"0.012": 1.33949464224,
			"0.013": 0.590442570213,
			"0.014": 0.0807600227051,
			"0.015": 0.0,
			"0.016": 0.0,
			"0.017": 0.0,
			"0.018": 0.0,
			"0.019": 0.0,
			"0.02": 0.0,
			"0.021": 0.0,
			"0.022": 0.0,
			"0.023": 0.0,
			"0.024": 0.0,
			"0.025": 0.0
		}
	}
}
