{
	 "smiles": "CN(C)C1=C(C=CC=C1)N(=O)=O", 
	 "Tm": 253.15, 
	 "num_atms": 22, 
	 "gaussian": { 
		 "optdone": 1, 
		 "sigma_profile": "yes", 
		 "theory": "DFT", 
		 "functional": "B3LYP", 
		 "basiset": "6-31G**", 
		 "properties": { 
			 "R2extent": 2512.1465, 
			 "electric_dipole_moment_norm": 4.68620210725, 
			 "electric_quadrupole_moment_norm": 12.4156561599, 
			 "total_energy": -570.711351543, 
			 "HOMO_LUMO_gap": 0.13805, 
			 "cosmo_polarized_energy": -10.12, 
			 "cosmo_cavitation_energy": 25.14, 
			 "cosmo_dispersion_energy": -18.44, 
			 "cosmo_repulsion_energy": 1.45, 
			 "cosmo_total_nonelectrostatic_energy": 8.14, 
			 "SMD_solvation_energy": 6.48 
		},
		"coords": [
			{
				"x": 1.7730500128,
				"y": -0.35686764,
				"z": -0.550820742,
				"element": "C" 
			},
			{
				"x": 1.4442161641,
				"y": 0.3668471761,
				"z": 0.6716538505,
				"element": "N" 
			},
			{
				"x": 2.2360367191,
				"y": 0.0008794301,
				"z": 1.834535144,
				"element": "C" 
			},
			{
				"x": 0.2613306322,
				"y": 1.0568447818,
				"z": 0.8266131963,
				"element": "C" 
			},
			{
				"x": -0.4107354306,
				"y": 1.7387843162,
				"z": -0.2279774991,
				"element": "C" 
			},
			{
				"x": -1.684258702,
				"y": 2.2961270089,
				"z": -0.0540849221,
				"element": "C" 
			},
			{
				"x": -2.3041805137,
				"y": 2.2756194959,
				"z": 1.1845047162,
				"element": "C" 
			},
			{
				"x": -1.6303523651,
				"y": 1.6836380586,
				"z": 2.2597610618,
				"element": "C" 
			},
			{
				"x": -0.3909627144,
				"y": 1.0864838408,
				"z": 2.0861953009,
				"element": "C" 
			},
			{
				"x": 0.2258483143,
				"y": 2.0376440739,
				"z": -1.5116233212,
				"element": "N" 
			},
			{
				"x": -0.5044561297,
				"y": 2.184182922,
				"z": -2.4962340242,
				"element": "O" 
			},
			{
				"x": 1.4504482125,
				"y": 2.191933125,
				"z": -1.5344212855,
				"element": "O" 
			},
			{
				"x": 0.8925077822,
				"y": -0.4491132323,
				"z": -1.1898816381,
				"element": "H" 
			},
			{
				"x": 2.0949401162,
				"y": -1.3713423676,
				"z": -0.2870669635,
				"element": "H" 
			},
			{
				"x": 2.563521927,
				"y": 0.1354315136,
				"z": -1.126379216,
				"element": "H" 
			},
			{
				"x": 3.2664119154,
				"y": -0.1735978748,
				"z": 1.5133514447,
				"element": "H" 
			},
			{
				"x": 2.2507653736,
				"y": 0.8158844434,
				"z": 2.5618104284,
				"element": "H" 
			},
			{
				"x": 1.8764085985,
				"y": -0.9127326954,
				"z": 2.3347217166,
				"element": "H" 
			},
			{
				"x": -2.1426822292,
				"y": 2.7753364374,
				"z": -0.9103785943,
				"element": "H" 
			},
			{
				"x": -3.2811732495,
				"y": 2.7270821737,
				"z": 1.3176429738,
				"element": "H" 
			},
			{
				"x": -2.0898232909,
				"y": 1.6626294523,
				"z": 3.2440591763,
				"element": "H" 
			},
			{
				"x": 0.0696388574,
				"y": 0.5846055602,
				"z": 2.9280191965,
				"element": "H" 
			}
		],
		 "valence_orbital": [ 
			{
				"type": "occ",
				"energy": -0.29474,
				"method": "rhf"
			},
			{
				"type": "occ",
				"energy": -0.28965,
				"method": "rhf"
			},
			{
				"type": "occ",
				"energy": -0.28143,
				"method": "rhf"
			},
			{
				"type": "occ",
				"energy": -0.2613,
				"method": "rhf"
			},
			{
				"type": "occ",
				"energy": -0.20932,
				"method": "rhf"
			},
			{
				"type": "unocc",
				"energy": -0.07127,
				"method": "rhf"
			},
			{
				"type": "unocc",
				"energy": -0.00748,
				"method": "rhf"
			},
			{
				"type": "unocc",
				"energy": 0.00496,
				"method": "rhf"
			},
			{
				"type": "unocc",
				"energy": 0.08,
				"method": "rhf"
			},
			{
				"type": "unocc",
				"energy": 0.09507,
				"method": "rhf"
			}
		],
		"cosmo_sigma_profile": { 
			"-0.025": 0.0,
			"-0.024": 0.0,
			"-0.023": 0.0,
			"-0.022": 0.0,
			"-0.021": 0.0,
			"-0.02": 0.0,
			"-0.019": 0.0,
			"-0.018": 0.0,
			"-0.017": 0.0,
			"-0.016": 0.0,
			"-0.015": 0.0,
			"-0.014": 0.0,
			"-0.013": 0.0,
			"-0.012": 0.0,
			"-0.011": 0.0,
			"-0.01": 0.0,
			"-0.009": 0.0,
			"-0.008": 0.0,
			"-0.007": 2.62016495424,
			"-0.006": 12.4740449008,
			"-0.005": 20.5482321788,
			"-0.004": 22.1699563051,
			"-0.003": 21.299325037,
			"-0.002": 21.2144422284,
			"-0.001": 11.0916136056,
			"0.0": 8.75660731534,
			"0.001": 9.863936064,
			"0.002": 11.4095192712,
			"0.003": 11.5260156192,
			"0.004": 11.1438567616,
			"0.005": 4.64931163734,
			"0.006": 3.02538905668,
			"0.007": 3.68514008178,
			"0.008": 7.73123828414,
			"0.009": 7.91036055212,
			"0.01": 5.43561053892,
			"0.011": 2.89133137858,
			"0.012": 0.153717746294,
			"0.013": 0.0,
			"0.014": 0.0,
			"0.015": 0.0,
			"0.016": 0.0,
			"0.017": 0.0,
			"0.018": 0.0,
			"0.019": 0.0,
			"0.02": 0.0,
			"0.021": 0.0,
			"0.022": 0.0,
			"0.023": 0.0,
			"0.024": 0.0,
			"0.025": 0.0
		}
	}
}
