{
	 "smiles": "CC(=O)C1=C(C)N=C(CNC(=O)OC(C)(C)C)C=C1", 
	 "Tm": 346.15, 
	 "num_atms": 39, 
	 "gaussian": { 
		 "optdone": 1, 
		 "sigma_profile": "yes", 
		 "theory": "DFT", 
		 "functional": "B3LYP", 
		 "basiset": "6-31G**", 
		 "properties": { 
			 "R2extent": 9463.3834, 
			 "electric_dipole_moment_norm": 5.60098310478, 
			 "electric_quadrupole_moment_norm": 8.91271184208, 
			 "total_energy": -880.767378395, 
			 "HOMO_LUMO_gap": 0.17095, 
			 "cosmo_polarized_energy": -15.36, 
			 "cosmo_cavitation_energy": 41.73, 
			 "cosmo_dispersion_energy": -29.24, 
			 "cosmo_repulsion_energy": 2.27, 
			 "cosmo_total_nonelectrostatic_energy": 14.75, 
			 "SMD_solvation_energy": 7.26 
		},
		"coords": [
			{
				"x": 2.9046938585,
				"y": -1.682178002,
				"z": -5.5963387813,
				"element": "C" 
			},
			{
				"x": 1.4557417088,
				"y": -1.3628125032,
				"z": -5.2497185984,
				"element": "C" 
			},
			{
				"x": 0.5798556567,
				"y": -1.5657071303,
				"z": -6.0782448675,
				"element": "O" 
			},
			{
				"x": 1.1484662922,
				"y": -0.8060908211,
				"z": -3.8940475339,
				"element": "C" 
			},
			{
				"x": -0.1726614104,
				"y": -0.4819267326,
				"z": -3.4897175049,
				"element": "C" 
			},
			{
				"x": -1.3887661162,
				"y": -0.6573998496,
				"z": -4.3594120219,
				"element": "C" 
			},
			{
				"x": -0.4206365305,
				"y": 0.0171182137,
				"z": -2.265283701,
				"element": "N" 
			},
			{
				"x": 0.5739800047,
				"y": 0.2204520798,
				"z": -1.3972196621,
				"element": "C" 
			},
			{
				"x": 0.2123412847,
				"y": 0.7870637613,
				"z": -0.0362287091,
				"element": "C" 
			},
			{
				"x": -1.2095337093,
				"y": 1.005170523,
				"z": 0.0681399074,
				"element": "N" 
			},
			{
				"x": -1.8642217067,
				"y": 1.5098639092,
				"z": 1.1505242395,
				"element": "C" 
			},
			{
				"x": -3.0724268547,
				"y": 1.6815439321,
				"z": 1.1942239536,
				"element": "O" 
			},
			{
				"x": -0.9777600669,
				"y": 1.7832241405,
				"z": 2.1463046977,
				"element": "O" 
			},
			{
				"x": -1.4354226759,
				"y": 2.3401700401,
				"z": 3.4260648949,
				"element": "C" 
			},
			{
				"x": -2.3855119784,
				"y": 1.3566295487,
				"z": 4.118524005,
				"element": "C" 
			},
			{
				"x": -0.1308387021,
				"y": 2.4804534654,
				"z": 4.2155679458,
				"element": "C" 
			},
			{
				"x": -2.0838607889,
				"y": 3.7108401041,
				"z": 3.2017660084,
				"element": "C" 
			},
			{
				"x": 1.9055562827,
				"y": -0.0703701238,
				"z": -1.7098874265,
				"element": "C" 
			},
			{
				"x": 2.1809329264,
				"y": -0.5851440013,
				"z": -2.9664037525,
				"element": "C" 
			},
			{
				"x": 2.9290953211,
				"y": -2.0735123807,
				"z": -6.613460826,
				"element": "H" 
			},
			{
				"x": 3.3250400567,
				"y": -2.428497643,
				"z": -4.9133713869,
				"element": "H" 
			},
			{
				"x": 3.5367461475,
				"y": -0.7892280135,
				"z": -5.5390583028,
				"element": "H" 
			},
			{
				"x": -1.5089450002,
				"y": -1.6987360914,
				"z": -4.6700927784,
				"element": "H" 
			},
			{
				"x": -2.266333397,
				"y": -0.3313948949,
				"z": -3.7991029238,
				"element": "H" 
			},
			{
				"x": -1.3018435163,
				"y": -0.0829963433,
				"z": -5.2856289679,
				"element": "H" 
			},
			{
				"x": 0.7701892445,
				"y": 1.7218504362,
				"z": 0.1190980805,
				"element": "H" 
			},
			{
				"x": 0.5665747969,
				"y": 0.0957929537,
				"z": 0.7421007226,
				"element": "H" 
			},
			{
				"x": -1.7638351072,
				"y": 0.7652610204,
				"z": -0.7436767113,
				"element": "H" 
			},
			{
				"x": -3.3044533659,
				"y": 1.2361980559,
				"z": 3.5447212654,
				"element": "H" 
			},
			{
				"x": -1.9050379403,
				"y": 0.3790822421,
				"z": 4.2290491836,
				"element": "H" 
			},
			{
				"x": -2.6354331175,
				"y": 1.7271695651,
				"z": 5.1181692028,
				"element": "H" 
			},
			{
				"x": 0.3534048957,
				"y": 1.5069763988,
				"z": 4.3377224306,
				"element": "H" 
			},
			{
				"x": -0.3337323157,
				"y": 2.89305672,
				"z": 5.2083685687,
				"element": "H" 
			},
			{
				"x": 0.563842718,
				"y": 3.1490028727,
				"z": 3.6983301919,
				"element": "H" 
			},
			{
				"x": -1.3927540187,
				"y": 4.3755484774,
				"z": 2.6733632309,
				"element": "H" 
			},
			{
				"x": -2.9992319742,
				"y": 3.6156450978,
				"z": 2.617614976,
				"element": "H" 
			},
			{
				"x": -2.3231816768,
				"y": 4.1680246572,
				"z": 4.1675572281,
				"element": "H" 
			},
			{
				"x": 2.6970389674,
				"y": 0.1033773978,
				"z": -0.98707641,
				"element": "H" 
			},
			{
				"x": 3.2067218073,
				"y": -0.8179210825,
				"z": -3.2302398673,
				"element": "H" 
			}
		],
		 "valence_orbital": [ 
			{
				"type": "occ",
				"energy": -0.27632,
				"method": "rhf"
			},
			{
				"type": "occ",
				"energy": -0.2683,
				"method": "rhf"
			},
			{
				"type": "occ",
				"energy": -0.25396,
				"method": "rhf"
			},
			{
				"type": "occ",
				"energy": -0.25152,
				"method": "rhf"
			},
			{
				"type": "occ",
				"energy": -0.23976,
				"method": "rhf"
			},
			{
				"type": "unocc",
				"energy": -0.06881,
				"method": "rhf"
			},
			{
				"type": "unocc",
				"energy": -0.03497,
				"method": "rhf"
			},
			{
				"type": "unocc",
				"energy": 0.01979,
				"method": "rhf"
			},
			{
				"type": "unocc",
				"energy": 0.0648,
				"method": "rhf"
			},
			{
				"type": "unocc",
				"energy": 0.08106,
				"method": "rhf"
			}
		],
		"cosmo_sigma_profile": { 
			"-0.025": 0.0,
			"-0.024": 0.0,
			"-0.023": 0.0,
			"-0.022": 0.0,
			"-0.021": 0.0,
			"-0.02": 0.0,
			"-0.019": 0.0,
			"-0.018": 0.0,
			"-0.017": 0.0,
			"-0.016": 0.0,
			"-0.015": 0.0,
			"-0.014": 0.0,
			"-0.013": 0.0,
			"-0.012": 0.0,
			"-0.011": 0.0,
			"-0.01": 0.0,
			"-0.009": 0.0,
			"-0.008": 2.1978414482,
			"-0.007": 8.97981546285,
			"-0.006": 15.8183013669,
			"-0.005": 13.661604923,
			"-0.004": 22.7915557494,
			"-0.003": 30.8625184978,
			"-0.002": 33.2531513925,
			"-0.001": 34.7759781576,
			"0.0": 45.6404170382,
			"0.001": 38.5367246176,
			"0.002": 18.1104147973,
			"0.003": 11.2808083225,
			"0.004": 8.1467002835,
			"0.005": 6.8663312736,
			"0.006": 7.84641117488,
			"0.007": 3.98533561896,
			"0.008": 3.60971159822,
			"0.009": 2.6221147428,
			"0.01": 2.44602337006,
			"0.011": 3.391576271,
			"0.012": 4.87313516958,
			"0.013": 3.93749738052,
			"0.014": 3.38871853047,
			"0.015": 0.643292223607,
			"0.016": 0.0,
			"0.017": 0.0,
			"0.018": 0.0,
			"0.019": 0.0,
			"0.02": 0.0,
			"0.021": 0.0,
			"0.022": 0.0,
			"0.023": 0.0,
			"0.024": 0.0,
			"0.025": 0.0
		}
	}
}
