{
	 "smiles": "NCC1=CN=CC=C1", 
	 "Tm": 252.05, 
	 "num_atms": 16, 
	 "gaussian": { 
		 "optdone": 1, 
		 "sigma_profile": "yes", 
		 "theory": "DFT", 
		 "functional": "B3LYP", 
		 "basiset": "6-31G**", 
		 "properties": { 
			 "R2extent": 1303.1775, 
			 "electric_dipole_moment_norm": 1.94606835954, 
			 "electric_quadrupole_moment_norm": 7.50398799306, 
			 "total_energy": -342.950511756, 
			 "HOMO_LUMO_gap": 0.20951, 
			 "cosmo_polarized_energy": -9.77, 
			 "cosmo_cavitation_energy": 19.64, 
			 "cosmo_dispersion_energy": -14.47, 
			 "cosmo_repulsion_energy": 1.21, 
			 "cosmo_total_nonelectrostatic_energy": 6.39, 
			 "SMD_solvation_energy": 0.59 
		},
		"coords": [
			{
				"x": -1.30520788,
				"y": -0.1711676921,
				"z": 2.5285907454,
				"element": "N" 
			},
			{
				"x": -0.2323690105,
				"y": -0.4341645672,
				"z": 1.5562063798,
				"element": "C" 
			},
			{
				"x": 0.0366829047,
				"y": 0.6794197309,
				"z": 0.5607536221,
				"element": "C" 
			},
			{
				"x": 0.9926515999,
				"y": 1.670706151,
				"z": 0.8227890618,
				"element": "C" 
			},
			{
				"x": 1.2484887638,
				"y": 2.7121838715,
				"z": 0.0231850032,
				"element": "N" 
			},
			{
				"x": 0.5388040291,
				"y": 2.8032846189,
				"z": -1.1083576617,
				"element": "C" 
			},
			{
				"x": -0.4324667146,
				"y": 1.8728430531,
				"z": -1.4826165585,
				"element": "C" 
			},
			{
				"x": -0.6832203935,
				"y": 0.7968207305,
				"z": -0.6338527761,
				"element": "C" 
			},
			{
				"x": -1.0873535927,
				"y": 0.6760621483,
				"z": 3.0496951578,
				"element": "H" 
			},
			{
				"x": -2.1717393109,
				"y": 0.0271633791,
				"z": 2.0320234542,
				"element": "H" 
			},
			{
				"x": -0.4899211373,
				"y": -1.3537656822,
				"z": 1.01813986,
				"element": "H" 
			},
			{
				"x": 0.6818925025,
				"y": -0.6480603242,
				"z": 2.1212111231,
				"element": "H" 
			},
			{
				"x": 1.5899718916,
				"y": 1.6126847556,
				"z": 1.7337402843,
				"element": "H" 
			},
			{
				"x": 0.7604523667,
				"y": 3.6562479637,
				"z": -1.747544682,
				"element": "H" 
			},
			{
				"x": -0.9713678208,
				"y": 1.9886478624,
				"z": -2.4181177464,
				"element": "H" 
			},
			{
				"x": -1.4279981981,
				"y": 0.0483940007,
				"z": -0.8975452669,
				"element": "H" 
			}
		],
		 "valence_orbital": [ 
			{
				"type": "occ",
				"energy": -0.36115,
				"method": "rhf"
			},
			{
				"type": "occ",
				"energy": -0.28731,
				"method": "rhf"
			},
			{
				"type": "occ",
				"energy": -0.26715,
				"method": "rhf"
			},
			{
				"type": "occ",
				"energy": -0.25427,
				"method": "rhf"
			},
			{
				"type": "occ",
				"energy": -0.23558,
				"method": "rhf"
			},
			{
				"type": "unocc",
				"energy": -0.02607,
				"method": "rhf"
			},
			{
				"type": "unocc",
				"energy": -0.01335,
				"method": "rhf"
			},
			{
				"type": "unocc",
				"energy": 0.0823,
				"method": "rhf"
			},
			{
				"type": "unocc",
				"energy": 0.10278,
				"method": "rhf"
			},
			{
				"type": "unocc",
				"energy": 0.12373,
				"method": "rhf"
			}
		],
		"cosmo_sigma_profile": { 
			"-0.025": 0.0,
			"-0.024": 0.0,
			"-0.023": 0.0,
			"-0.022": 0.0,
			"-0.021": 0.0,
			"-0.02": 0.0,
			"-0.019": 0.0,
			"-0.018": 0.0,
			"-0.017": 0.0,
			"-0.016": 0.0,
			"-0.015": 0.0,
			"-0.014": 0.0,
			"-0.013": 0.0,
			"-0.012": 0.0,
			"-0.011": 0.0,
			"-0.01": 0.760500769116,
			"-0.009": 2.41876095052,
			"-0.008": 3.1647269272,
			"-0.007": 5.41462405521,
			"-0.006": 13.0303714965,
			"-0.005": 15.960489727,
			"-0.004": 14.3757809788,
			"-0.003": 9.85690037659,
			"-0.002": 9.72428494539,
			"-0.001": 9.57392271508,
			"0.0": 7.87978109691,
			"0.001": 8.75122705079,
			"0.002": 9.91592227827,
			"0.003": 13.8713283933,
			"0.004": 4.68783309796,
			"0.005": 3.29616011872,
			"0.006": 2.69913251587,
			"0.007": 1.61736860826,
			"0.008": 2.14699995043,
			"0.009": 1.64096272442,
			"0.01": 2.20179522361,
			"0.011": 1.75120454556,
			"0.012": 1.97413127216,
			"0.013": 1.47223555602,
			"0.014": 1.44098833598,
			"0.015": 1.41666475905,
			"0.016": 1.38013685937,
			"0.017": 1.70459108134,
			"0.018": 0.463966193351,
			"0.019": 0.537880775223,
			"0.02": 0.269918771985,
			"0.021": 0.0,
			"0.022": 0.0,
			"0.023": 0.0,
			"0.024": 0.0,
			"0.025": 0.0
		}
	}
}
