{
	 "smiles": "CC1N=C(S)N(CC2=CC=CC=C2)C1=O", 
	 "Tm": 290.15, 
	 "num_atms": 27, 
	 "gaussian": { 
		 "optdone": 1, 
		 "sigma_profile": "yes", 
		 "theory": "DFT", 
		 "functional": "B3LYP", 
		 "basiset": "6-31G**", 
		 "properties": { 
			 "R2extent": 4104.7396, 
			 "electric_dipole_moment_norm": 1.83555690459, 
			 "electric_quadrupole_moment_norm": 8.06664497669, 
			 "total_energy": -1009.32669002, 
			 "HOMO_LUMO_gap": 0.22012, 
			 "cosmo_polarized_energy": -11.45, 
			 "cosmo_cavitation_energy": 32.25, 
			 "cosmo_dispersion_energy": -22.98, 
			 "cosmo_repulsion_energy": 1.77, 
			 "cosmo_total_nonelectrostatic_energy": 11.04, 
			 "SMD_solvation_energy": 2.44 
		},
		"coords": [
			{
				"x": -1.4746378978,
				"y": 2.7848623744,
				"z": -2.0297276088,
				"element": "C" 
			},
			{
				"x": 0.0528158248,
				"y": 2.7660749452,
				"z": -1.9224512535,
				"element": "C" 
			},
			{
				"x": 0.6546342881,
				"y": 1.6186499667,
				"z": -2.618487989,
				"element": "N" 
			},
			{
				"x": 1.3496340806,
				"y": 0.9969502901,
				"z": -1.7407944484,
				"element": "C" 
			},
			{
				"x": 2.3060588243,
				"y": -0.4635129937,
				"z": -2.0570990441,
				"element": "S" 
			},
			{
				"x": 1.3525385096,
				"y": 1.5408100623,
				"z": -0.448755217,
				"element": "N" 
			},
			{
				"x": 2.035375987,
				"y": 1.0679824874,
				"z": 0.7579044033,
				"element": "C" 
			},
			{
				"x": 1.2818328228,
				"y": -0.0076523008,
				"z": 1.5186015836,
				"element": "C" 
			},
			{
				"x": 1.7836568956,
				"y": -1.3101471676,
				"z": 1.6048690356,
				"element": "C" 
			},
			{
				"x": 1.089611156,
				"y": -2.2928332131,
				"z": 2.3149474328,
				"element": "C" 
			},
			{
				"x": -0.1149470875,
				"y": -1.9789220594,
				"z": 2.9438522081,
				"element": "C" 
			},
			{
				"x": -0.6211260906,
				"y": -0.6783084125,
				"z": 2.8646337548,
				"element": "C" 
			},
			{
				"x": 0.0734803854,
				"y": 0.303198244,
				"z": 2.1595961643,
				"element": "C" 
			},
			{
				"x": 0.5333294243,
				"y": 2.6684154691,
				"z": -0.4705450366,
				"element": "C" 
			},
			{
				"x": 0.2807638756,
				"y": 3.3788191821,
				"z": 0.4848424696,
				"element": "O" 
			},
			{
				"x": -1.7756885915,
				"y": 2.8753191381,
				"z": -3.0760468017,
				"element": "H" 
			},
			{
				"x": -1.9000026343,
				"y": 1.8608574612,
				"z": -1.6274833454,
				"element": "H" 
			},
			{
				"x": -1.8751563593,
				"y": 3.6300000717,
				"z": -1.4633079153,
				"element": "H" 
			},
			{
				"x": 0.4553593013,
				"y": 3.6931264743,
				"z": -2.3538134351,
				"element": "H" 
			},
			{
				"x": 2.0485436099,
				"y": -0.423317246,
				"z": -3.3779746684,
				"element": "H" 
			},
			{
				"x": 2.15395981,
				"y": 1.9594280362,
				"z": 1.3813837604,
				"element": "H" 
			},
			{
				"x": 3.0331314963,
				"y": 0.7176284312,
				"z": 0.4768793566,
				"element": "H" 
			},
			{
				"x": 2.7226492274,
				"y": -1.558957554,
				"z": 1.1166055463,
				"element": "H" 
			},
			{
				"x": 1.4903380383,
				"y": -3.3006912659,
				"z": 2.3740688169,
				"element": "H" 
			},
			{
				"x": -0.6563603504,
				"y": -2.7415558742,
				"z": 3.4962708911,
				"element": "H" 
			},
			{
				"x": -1.5554026914,
				"y": -0.4273924419,
				"z": 3.35885794,
				"element": "H" 
			},
			{
				"x": -0.3119918545,
				"y": 1.3175678951,
				"z": 2.1046733998,
				"element": "H" 
			}
		],
		 "valence_orbital": [ 
			{
				"type": "occ",
				"energy": -0.27698,
				"method": "rhf"
			},
			{
				"type": "occ",
				"energy": -0.25569,
				"method": "rhf"
			},
			{
				"type": "occ",
				"energy": -0.25278,
				"method": "rhf"
			},
			{
				"type": "occ",
				"energy": -0.25101,
				"method": "rhf"
			},
			{
				"type": "occ",
				"energy": -0.23899,
				"method": "rhf"
			},
			{
				"type": "unocc",
				"energy": -0.01887,
				"method": "rhf"
			},
			{
				"type": "unocc",
				"energy": -0.01058,
				"method": "rhf"
			},
			{
				"type": "unocc",
				"energy": -0.00669,
				"method": "rhf"
			},
			{
				"type": "unocc",
				"energy": 0.00802,
				"method": "rhf"
			},
			{
				"type": "unocc",
				"energy": 0.03537,
				"method": "rhf"
			}
		],
		"cosmo_sigma_profile": { 
			"-0.025": 0.0,
			"-0.024": 0.0,
			"-0.023": 0.0,
			"-0.022": 0.0,
			"-0.021": 0.0,
			"-0.02": 0.0,
			"-0.019": 0.0,
			"-0.018": 0.0,
			"-0.017": 0.0,
			"-0.016": 0.0,
			"-0.015": 0.0,
			"-0.014": 0.0,
			"-0.013": 0.0813212194884,
			"-0.012": 1.06946287543,
			"-0.011": 1.46850843298,
			"-0.01": 1.4453819773,
			"-0.009": 1.19101187806,
			"-0.008": 0.847521456713,
			"-0.007": 6.50784388271,
			"-0.006": 12.7273099756,
			"-0.005": 20.1540765238,
			"-0.004": 24.9595238192,
			"-0.003": 23.2883827749,
			"-0.002": 20.00595125,
			"-0.001": 20.9477817215,
			"0.0": 19.58518026,
			"0.001": 15.0827855401,
			"0.002": 13.7649951737,
			"0.003": 14.8046371035,
			"0.004": 14.3001139251,
			"0.005": 15.1201402569,
			"0.006": 8.88113103339,
			"0.007": 2.75122212377,
			"0.008": 2.16271726377,
			"0.009": 2.71447261593,
			"0.01": 2.48749806151,
			"0.011": 3.14498151676,
			"0.012": 4.99125710243,
			"0.013": 2.36094792222,
			"0.014": 0.700608215115,
			"0.015": 0.867222654495,
			"0.016": 0.440950808746,
			"0.017": 0.0,
			"0.018": 0.0,
			"0.019": 0.0,
			"0.02": 0.0,
			"0.021": 0.0,
			"0.022": 0.0,
			"0.023": 0.0,
			"0.024": 0.0,
			"0.025": 0.0
		}
	}
}
