{
	 "smiles": "NC1=CC=CC(=C1)C1=CN=CN=C1", 
	 "Tm": 437.15, 
	 "num_atms": 22, 
	 "gaussian": { 
		 "optdone": 1, 
		 "sigma_profile": "yes", 
		 "theory": "DFT", 
		 "functional": "B3LYP", 
		 "basiset": "6-31G**", 
		 "properties": { 
			 "R2extent": 3436.3688, 
			 "electric_dipole_moment_norm": 4.11570089535, 
			 "electric_quadrupole_moment_norm": 12.6144887586, 
			 "total_energy": -550.740788524, 
			 "HOMO_LUMO_gap": 0.16937, 
			 "cosmo_polarized_energy": -12.45, 
			 "cosmo_cavitation_energy": 26.38, 
			 "cosmo_dispersion_energy": -19.54, 
			 "cosmo_repulsion_energy": 1.52, 
			 "cosmo_total_nonelectrostatic_energy": 8.37, 
			 "SMD_solvation_energy": 1.46 
		},
		"coords": [
			{
				"x": -3.043174553,
				"y": -3.2066010733,
				"z": 0.0150515128,
				"element": "N" 
			},
			{
				"x": -1.9525842747,
				"y": -2.3935601812,
				"z": -0.2910484378,
				"element": "C" 
			},
			{
				"x": -1.6649431301,
				"y": -2.0502839246,
				"z": -1.6240369016,
				"element": "C" 
			},
			{
				"x": -0.5453125645,
				"y": -1.2789356869,
				"z": -1.9218725576,
				"element": "C" 
			},
			{
				"x": 0.3091555876,
				"y": -0.8332176383,
				"z": -0.9141040574,
				"element": "C" 
			},
			{
				"x": 0.0372809542,
				"y": -1.1663074397,
				"z": 0.4231294777,
				"element": "C" 
			},
			{
				"x": -1.0918260419,
				"y": -1.9412026807,
				"z": 0.721532449,
				"element": "C" 
			},
			{
				"x": 0.9301742659,
				"y": -0.7049748682,
				"z": 1.5097637793,
				"element": "C" 
			},
			{
				"x": 1.2514308267,
				"y": -1.5031884384,
				"z": 2.6179408935,
				"element": "C" 
			},
			{
				"x": 2.0511760462,
				"y": -1.0952780596,
				"z": 3.6076429849,
				"element": "N" 
			},
			{
				"x": 2.5540677448,
				"y": 0.1375211137,
				"z": 3.4837360565,
				"element": "C" 
			},
			{
				"x": 2.3356098013,
				"y": 0.9951929884,
				"z": 2.4812742689,
				"element": "N" 
			},
			{
				"x": 1.5234770395,
				"y": 0.5665643432,
				"z": 1.5107461202,
				"element": "C" 
			},
			{
				"x": -3.7932921974,
				"y": -3.1982478029,
				"z": -0.6619628735,
				"element": "H" 
			},
			{
				"x": -3.3866441364,
				"y": -3.1344578478,
				"z": 0.9627114498,
				"element": "H" 
			},
			{
				"x": -2.3204843345,
				"y": -2.3943089328,
				"z": -2.4200572288,
				"element": "H" 
			},
			{
				"x": -0.3334262691,
				"y": -1.027105324,
				"z": -2.9571795021,
				"element": "H" 
			},
			{
				"x": 1.194994131,
				"y": -0.2584821084,
				"z": -1.163531661,
				"element": "H" 
			},
			{
				"x": -1.3229836251,
				"y": -2.1784888514,
				"z": 1.7569000871,
				"element": "H" 
			},
			{
				"x": 0.8602190425,
				"y": -2.5164666109,
				"z": 2.6966229565,
				"element": "H" 
			},
			{
				"x": 3.2101875423,
				"y": 0.478460883,
				"z": 4.2821845412,
				"element": "H" 
			},
			{
				"x": 1.3191981449,
				"y": 1.2679681406,
				"z": 0.7032566426,
				"element": "H" 
			}
		],
		 "valence_orbital": [ 
			{
				"type": "occ",
				"energy": -0.29714,
				"method": "rhf"
			},
			{
				"type": "occ",
				"energy": -0.28908,
				"method": "rhf"
			},
			{
				"type": "occ",
				"energy": -0.25011,
				"method": "rhf"
			},
			{
				"type": "occ",
				"energy": -0.24047,
				"method": "rhf"
			},
			{
				"type": "occ",
				"energy": -0.21098,
				"method": "rhf"
			},
			{
				"type": "unocc",
				"energy": -0.04161,
				"method": "rhf"
			},
			{
				"type": "unocc",
				"energy": -0.03777,
				"method": "rhf"
			},
			{
				"type": "unocc",
				"energy": 0.00202,
				"method": "rhf"
			},
			{
				"type": "unocc",
				"energy": 0.01866,
				"method": "rhf"
			},
			{
				"type": "unocc",
				"energy": 0.07351,
				"method": "rhf"
			}
		],
		"cosmo_sigma_profile": { 
			"-0.025": 0.0,
			"-0.024": 0.0,
			"-0.023": 0.0,
			"-0.022": 0.0,
			"-0.021": 0.0,
			"-0.02": 0.0,
			"-0.019": 0.0,
			"-0.018": 0.0,
			"-0.017": 0.0,
			"-0.016": 0.0,
			"-0.015": 0.0,
			"-0.014": 0.0,
			"-0.013": 0.426393542523,
			"-0.012": 2.62737496122,
			"-0.011": 2.73713773714,
			"-0.01": 3.45963071193,
			"-0.009": 3.20862860207,
			"-0.008": 3.90960623546,
			"-0.007": 8.54402188406,
			"-0.006": 12.543958743,
			"-0.005": 13.6182729692,
			"-0.004": 12.3844693582,
			"-0.003": 12.4471968862,
			"-0.002": 11.8732299105,
			"-0.001": 15.8876190173,
			"0.0": 17.2124103999,
			"0.001": 12.9954830953,
			"0.002": 9.39262381741,
			"0.003": 10.8627576107,
			"0.004": 10.3430808925,
			"0.005": 10.7096299753,
			"0.006": 12.6325003078,
			"0.007": 3.09683907156,
			"0.008": 3.15520973465,
			"0.009": 2.76096458741,
			"0.01": 2.74957641965,
			"0.011": 2.85180739276,
			"0.012": 2.4175343839,
			"0.013": 2.06969651619,
			"0.014": 2.64806624704,
			"0.015": 1.56441361563,
			"0.016": 0.327427433543,
			"0.017": 0.0,
			"0.018": 0.0,
			"0.019": 0.0,
			"0.02": 0.0,
			"0.021": 0.0,
			"0.022": 0.0,
			"0.023": 0.0,
			"0.024": 0.0,
			"0.025": 0.0
		}
	}
}
