{
	 "smiles": "O=C1NC=CC=C1C#N", 
	 "Tm": 497.15, 
	 "num_atms": 13, 
	 "gaussian": { 
		 "optdone": 1, 
		 "sigma_profile": "yes", 
		 "theory": "DFT", 
		 "functional": "B3LYP", 
		 "basiset": "6-31G**", 
		 "properties": { 
			 "R2extent": 1560.1577, 
			 "electric_dipole_moment_norm": 7.88746834542, 
			 "electric_quadrupole_moment_norm": 19.018394739, 
			 "total_energy": -415.757962994, 
			 "HOMO_LUMO_gap": 0.16024, 
			 "cosmo_polarized_energy": -21.05, 
			 "cosmo_cavitation_energy": 18.92, 
			 "cosmo_dispersion_energy": -13.57, 
			 "cosmo_repulsion_energy": 1.12, 
			 "cosmo_total_nonelectrostatic_energy": 6.47, 
			 "SMD_solvation_energy": 5.78 
		},
		"coords": [
			{
				"x": -0.3953230219,
				"y": 1.8660605835,
				"z": 2.3416131176,
				"element": "O" 
			},
			{
				"x": 0.2955649641,
				"y": 1.1762353853,
				"z": 1.6090117407,
				"element": "C" 
			},
			{
				"x": 1.1199335639,
				"y": 1.7780739462,
				"z": 0.6309979356,
				"element": "N" 
			},
			{
				"x": 1.9312606131,
				"y": 1.1241817658,
				"z": -0.2419512184,
				"element": "C" 
			},
			{
				"x": 2.0063265385,
				"y": -0.2415734801,
				"z": -0.2293597355,
				"element": "C" 
			},
			{
				"x": 1.2181745574,
				"y": -0.9469604749,
				"z": 0.7142693732,
				"element": "C" 
			},
			{
				"x": 0.3937702181,
				"y": -0.2875129654,
				"z": 1.6016621278,
				"element": "C" 
			},
			{
				"x": -0.3959063398,
				"y": -1.0085290773,
				"z": 2.5480659083,
				"element": "C" 
			},
			{
				"x": -1.0262206642,
				"y": -1.6256798739,
				"z": 3.3065364644,
				"element": "N" 
			},
			{
				"x": 1.0647450278,
				"y": 2.7897594548,
				"z": 0.6210761316,
				"element": "H" 
			},
			{
				"x": 2.4971171059,
				"y": 1.7449326368,
				"z": -0.9278830439,
				"element": "H" 
			},
			{
				"x": 2.6520898196,
				"y": -0.7619790705,
				"z": -0.9242706908,
				"element": "H" 
			},
			{
				"x": 1.2594676176,
				"y": -2.0316088303,
				"z": 0.7447318894,
				"element": "H" 
			}
		],
		 "valence_orbital": [ 
			{
				"type": "occ",
				"energy": -0.35564,
				"method": "rhf"
			},
			{
				"type": "occ",
				"energy": -0.32854,
				"method": "rhf"
			},
			{
				"type": "occ",
				"energy": -0.3118,
				"method": "rhf"
			},
			{
				"type": "occ",
				"energy": -0.27423,
				"method": "rhf"
			},
			{
				"type": "occ",
				"energy": -0.24071,
				"method": "rhf"
			},
			{
				"type": "unocc",
				"energy": -0.08047,
				"method": "rhf"
			},
			{
				"type": "unocc",
				"energy": -0.01229,
				"method": "rhf"
			},
			{
				"type": "unocc",
				"energy": 0.03391,
				"method": "rhf"
			},
			{
				"type": "unocc",
				"energy": 0.04845,
				"method": "rhf"
			},
			{
				"type": "unocc",
				"energy": 0.05552,
				"method": "rhf"
			}
		],
		"cosmo_sigma_profile": { 
			"-0.025": 0.0,
			"-0.024": 0.0,
			"-0.023": 0.0,
			"-0.022": 0.0,
			"-0.021": 0.0,
			"-0.02": 0.0,
			"-0.019": 0.0,
			"-0.018": 0.0364398589164,
			"-0.017": 1.59339342863,
			"-0.016": 1.28677104361,
			"-0.015": 1.5522681126,
			"-0.014": 1.41190449885,
			"-0.013": 0.960017223973,
			"-0.012": 0.95898312664,
			"-0.011": 2.08337076811,
			"-0.01": 4.07063735072,
			"-0.009": 4.89612826454,
			"-0.008": 7.08291362194,
			"-0.007": 7.35797710569,
			"-0.006": 6.33422273595,
			"-0.005": 4.80869139533,
			"-0.004": 5.61235083676,
			"-0.003": 8.69025295344,
			"-0.002": 12.8902790924,
			"-0.001": 11.4143149516,
			"0.0": 8.12575139511,
			"0.001": 6.8933038531,
			"0.002": 4.07529994202,
			"0.003": 2.41292392827,
			"0.004": 2.95713819437,
			"0.005": 2.64310642253,
			"0.006": 4.16118058048,
			"0.007": 5.19494310038,
			"0.008": 4.55311324198,
			"0.009": 5.5719707338,
			"0.01": 4.7523372803,
			"0.011": 4.79821714135,
			"0.012": 5.39132682346,
			"0.013": 7.89872825825,
			"0.014": 0.989763961933,
			"0.015": 0.0,
			"0.016": 0.0,
			"0.017": 0.0,
			"0.018": 0.0,
			"0.019": 0.0,
			"0.02": 0.0,
			"0.021": 0.0,
			"0.022": 0.0,
			"0.023": 0.0,
			"0.024": 0.0,
			"0.025": 0.0
		}
	}
}
