{
	 "smiles": "FC(F)(F)C1=CC(=CC=C1)C1=CSC(=O)N1", 
	 "Tm": 456.15, 
	 "num_atms": 22, 
	 "gaussian": { 
		 "optdone": 1, 
		 "sigma_profile": "yes", 
		 "theory": "DFT", 
		 "functional": "B3LYP", 
		 "basiset": "6-31G**", 
		 "properties": { 
			 "R2extent": 5881.6335, 
			 "electric_dipole_moment_norm": 4.47553081991, 
			 "electric_quadrupole_moment_norm": 19.7423184419, 
			 "total_energy": -1212.37965934, 
			 "HOMO_LUMO_gap": 0.16233, 
			 "cosmo_polarized_energy": -12.8, 
			 "cosmo_cavitation_energy": 30.31, 
			 "cosmo_dispersion_energy": -22.11, 
			 "cosmo_repulsion_energy": 1.6, 
			 "cosmo_total_nonelectrostatic_energy": 9.8, 
			 "SMD_solvation_energy": 7.0 
		},
		"coords": [
			{
				"x": 0.2947419976,
				"y": 3.4167619589,
				"z": 1.6386327104,
				"element": "F" 
			},
			{
				"x": -0.4927980018,
				"y": 2.9763038857,
				"z": 0.6337976559,
				"element": "C" 
			},
			{
				"x": -0.0061679842,
				"y": 3.4846813747,
				"z": -0.5199614739,
				"element": "F" 
			},
			{
				"x": -1.7149529732,
				"y": 3.5231231515,
				"z": 0.8220073796,
				"element": "F" 
			},
			{
				"x": -0.5604581115,
				"y": 1.4714612786,
				"z": 0.5989842454,
				"element": "C" 
			},
			{
				"x": -0.7239497011,
				"y": 0.8155715757,
				"z": -0.6211694995,
				"element": "C" 
			},
			{
				"x": -0.8450780144,
				"y": -0.5821478886,
				"z": -0.6663787955,
				"element": "C" 
			},
			{
				"x": -0.7968006425,
				"y": -1.301041275,
				"z": 0.5407352324,
				"element": "C" 
			},
			{
				"x": -0.6437850951,
				"y": -0.6396675351,
				"z": 1.7560859565,
				"element": "C" 
			},
			{
				"x": -0.5210892045,
				"y": 0.7495612698,
				"z": 1.7938463747,
				"element": "C" 
			},
			{
				"x": -1.0221715797,
				"y": -1.284984959,
				"z": -1.9452335303,
				"element": "C" 
			},
			{
				"x": -1.6973410589,
				"y": -2.4389095312,
				"z": -2.1651019263,
				"element": "C" 
			},
			{
				"x": -1.6978087602,
				"y": -2.9079569998,
				"z": -3.8542522854,
				"element": "S" 
			},
			{
				"x": -0.701812091,
				"y": -1.4499065697,
				"z": -4.2973837548,
				"element": "C" 
			},
			{
				"x": -0.2925237022,
				"y": -1.1640770668,
				"z": -5.3989044034,
				"element": "O" 
			},
			{
				"x": -0.4977400008,
				"y": -0.7467657684,
				"z": -3.12394344,
				"element": "N" 
			},
			{
				"x": -0.7786762462,
				"y": 1.4029206153,
				"z": -1.5314391052,
				"element": "H" 
			},
			{
				"x": -0.8533900358,
				"y": -2.384672342,
				"z": 0.5175362313,
				"element": "H" 
			},
			{
				"x": -0.6007401819,
				"y": -1.210972315,
				"z": 2.6781182398,
				"element": "H" 
			},
			{
				"x": -0.3832077541,
				"y": 1.2681412698,
				"z": 2.7361401741,
				"element": "H" 
			},
			{
				"x": -2.2468195716,
				"y": -3.0084421414,
				"z": -1.4306646703,
				"element": "H" 
			},
			{
				"x": 0.1356687132,
				"y": 0.040318012,
				"z": -3.1444513155,
				"element": "H" 
			}
		],
		 "valence_orbital": [ 
			{
				"type": "occ",
				"energy": -0.3074,
				"method": "rhf"
			},
			{
				"type": "occ",
				"energy": -0.28766,
				"method": "rhf"
			},
			{
				"type": "occ",
				"energy": -0.28561,
				"method": "rhf"
			},
			{
				"type": "occ",
				"energy": -0.27576,
				"method": "rhf"
			},
			{
				"type": "occ",
				"energy": -0.219,
				"method": "rhf"
			},
			{
				"type": "unocc",
				"energy": -0.05667,
				"method": "rhf"
			},
			{
				"type": "unocc",
				"energy": -0.04187,
				"method": "rhf"
			},
			{
				"type": "unocc",
				"energy": 0.00499,
				"method": "rhf"
			},
			{
				"type": "unocc",
				"energy": 0.00883,
				"method": "rhf"
			},
			{
				"type": "unocc",
				"energy": 0.03693,
				"method": "rhf"
			}
		],
		"cosmo_sigma_profile": { 
			"-0.025": 0.0,
			"-0.024": 0.0,
			"-0.023": 0.0,
			"-0.022": 0.0,
			"-0.021": 0.0,
			"-0.02": 0.0,
			"-0.019": 0.0,
			"-0.018": 0.0,
			"-0.017": 0.317940286825,
			"-0.016": 1.17330372976,
			"-0.015": 0.793074675754,
			"-0.014": 1.18217781423,
			"-0.013": 1.27323142131,
			"-0.012": 1.35100988041,
			"-0.011": 1.15457644895,
			"-0.01": 1.29153026894,
			"-0.009": 3.43424416162,
			"-0.008": 5.17729143183,
			"-0.007": 8.89385214809,
			"-0.006": 9.57892710575,
			"-0.005": 10.6134337726,
			"-0.004": 8.31307677141,
			"-0.003": 8.91100814935,
			"-0.002": 13.2611876185,
			"-0.001": 16.2001818545,
			"0.0": 21.3448510504,
			"0.001": 26.5438705899,
			"0.002": 38.0739484463,
			"0.003": 40.4120204515,
			"0.004": 6.33022864673,
			"0.005": 2.83940086111,
			"0.006": 1.40770321366,
			"0.007": 0.712182756301,
			"0.008": 1.28837715862,
			"0.009": 1.9268592815,
			"0.01": 1.79412492627,
			"0.011": 3.09949433343,
			"0.012": 6.58900340572,
			"0.013": 1.33625806656,
			"0.014": 0.0,
			"0.015": 0.0,
			"0.016": 0.0,
			"0.017": 0.0,
			"0.018": 0.0,
			"0.019": 0.0,
			"0.02": 0.0,
			"0.021": 0.0,
			"0.022": 0.0,
			"0.023": 0.0,
			"0.024": 0.0,
			"0.025": 0.0
		}
	}
}
