{
	 "smiles": "FC(F)(F)C1=CC2=C(SC(CC#N)=N2)C=C1", 
	 "Tm": 369.15, 
	 "num_atms": 21, 
	 "gaussian": { 
		 "optdone": 1, 
		 "sigma_profile": "yes", 
		 "theory": "DFT", 
		 "functional": "B3LYP", 
		 "basiset": "6-31G**", 
		 "properties": { 
			 "R2extent": 6658.9717, 
			 "electric_dipole_moment_norm": 2.04418118082, 
			 "electric_quadrupole_moment_norm": 21.6267318352, 
			 "total_energy": -1191.28120034, 
			 "HOMO_LUMO_gap": 0.20018, 
			 "cosmo_polarized_energy": -11.69, 
			 "cosmo_cavitation_energy": 30.26, 
			 "cosmo_dispersion_energy": -21.58, 
			 "cosmo_repulsion_energy": 1.56, 
			 "cosmo_total_nonelectrostatic_energy": 10.24, 
			 "SMD_solvation_energy": 5.42 
		},
		"coords": [
			{
				"x": -2.6641624601,
				"y": 3.5060472317,
				"z": 2.7797714184,
				"element": "F" 
			},
			{
				"x": -3.019450552,
				"y": 2.2532814584,
				"z": 3.1470602764,
				"element": "C" 
			},
			{
				"x": -4.3706032754,
				"y": 2.2395933309,
				"z": 3.2142402587,
				"element": "F" 
			},
			{
				"x": -2.5480118158,
				"y": 2.0510314758,
				"z": 4.3945369098,
				"element": "F" 
			},
			{
				"x": -2.5086324649,
				"y": 1.2284775218,
				"z": 2.1696274181,
				"element": "C" 
			},
			{
				"x": -1.5100983101,
				"y": 0.3369477931,
				"z": 2.5385633502,
				"element": "C" 
			},
			{
				"x": -1.0493641275,
				"y": -0.5849059899,
				"z": 1.5889970289,
				"element": "C" 
			},
			{
				"x": -1.6022149994,
				"y": -0.5903526419,
				"z": 0.2861816287,
				"element": "C" 
			},
			{
				"x": -0.8272261022,
				"y": -1.8365169219,
				"z": -0.6667232724,
				"element": "S" 
			},
			{
				"x": 0.1547304926,
				"y": -2.2368518271,
				"z": 0.7575180637,
				"element": "C" 
			},
			{
				"x": 1.1371636341,
				"y": -3.3855148323,
				"z": 0.7478497114,
				"element": "C" 
			},
			{
				"x": 1.8945979664,
				"y": -3.5208724807,
				"z": -0.4993951583,
				"element": "C" 
			},
			{
				"x": 2.4874728802,
				"y": -3.6389686886,
				"z": -1.4894471252,
				"element": "N" 
			},
			{
				"x": -0.0591912059,
				"y": -1.5285493581,
				"z": 1.816201748,
				"element": "N" 
			},
			{
				"x": -2.6052384262,
				"y": 0.3119520193,
				"z": -0.0829632927,
				"element": "C" 
			},
			{
				"x": -3.0527455631,
				"y": 1.2173553099,
				"z": 0.8697007651,
				"element": "C" 
			},
			{
				"x": -1.0890653697,
				"y": 0.3405047967,
				"z": 3.5365027053,
				"element": "H" 
			},
			{
				"x": 1.8254012107,
				"y": -3.235534904,
				"z": 1.5853587753,
				"element": "H" 
			},
			{
				"x": 0.605439451,
				"y": -4.328862313,
				"z": 0.9317123,
				"element": "H" 
			},
			{
				"x": -3.0279425104,
				"y": 0.3076151844,
				"z": -1.0818639935,
				"element": "H" 
			},
			{
				"x": -3.8351584522,
				"y": 1.9241238356,
				"z": 0.6140704842,
				"element": "H" 
			}
		],
		 "valence_orbital": [ 
			{
				"type": "occ",
				"energy": -0.34136,
				"method": "rhf"
			},
			{
				"type": "occ",
				"energy": -0.3278,
				"method": "rhf"
			},
			{
				"type": "occ",
				"energy": -0.30372,
				"method": "rhf"
			},
			{
				"type": "occ",
				"energy": -0.2659,
				"method": "rhf"
			},
			{
				"type": "occ",
				"energy": -0.26209,
				"method": "rhf"
			},
			{
				"type": "unocc",
				"energy": -0.06191,
				"method": "rhf"
			},
			{
				"type": "unocc",
				"energy": -0.03949,
				"method": "rhf"
			},
			{
				"type": "unocc",
				"energy": -0.01752,
				"method": "rhf"
			},
			{
				"type": "unocc",
				"energy": 0.00121,
				"method": "rhf"
			},
			{
				"type": "unocc",
				"energy": 0.02314,
				"method": "rhf"
			}
		],
		"cosmo_sigma_profile": { 
			"-0.025": 0.0,
			"-0.024": 0.0,
			"-0.023": 0.0,
			"-0.022": 0.0,
			"-0.021": 0.0,
			"-0.02": 0.0,
			"-0.019": 0.0,
			"-0.018": 0.0,
			"-0.017": 0.0,
			"-0.016": 0.0,
			"-0.015": 0.0,
			"-0.014": 0.0,
			"-0.013": 0.0,
			"-0.012": 0.0,
			"-0.011": 2.31994931721,
			"-0.01": 5.38966742762,
			"-0.009": 5.23403897916,
			"-0.008": 8.56588651888,
			"-0.007": 10.5426239365,
			"-0.006": 8.88040888584,
			"-0.005": 8.07020068289,
			"-0.004": 7.85764551601,
			"-0.003": 11.7437575873,
			"-0.002": 14.2879707707,
			"-0.001": 13.5386652665,
			"0.0": 22.3305736948,
			"0.001": 28.9740334454,
			"0.002": 32.5638457901,
			"0.003": 32.5863947313,
			"0.004": 4.43987492431,
			"0.005": 4.30257078972,
			"0.006": 2.50216715707,
			"0.007": 3.8841602938,
			"0.008": 4.3731714157,
			"0.009": 4.37813294054,
			"0.01": 3.36852542648,
			"0.011": 3.30036008684,
			"0.012": 3.03808972972,
			"0.013": 0.887162310629,
			"0.014": 0.0491721569431,
			"0.015": 0.0,
			"0.016": 0.0,
			"0.017": 0.0,
			"0.018": 0.0,
			"0.019": 0.0,
			"0.02": 0.0,
			"0.021": 0.0,
			"0.022": 0.0,
			"0.023": 0.0,
			"0.024": 0.0,
			"0.025": 0.0
		}
	}
}
