{
	 "smiles": "CC1=CC(C)=C(CS)C(C)=C1CS", 
	 "Tm": 338.65, 
	 "num_atms": 29, 
	 "gaussian": { 
		 "optdone": 1, 
		 "sigma_profile": "yes", 
		 "theory": "DFT", 
		 "functional": "B3LYP", 
		 "basiset": "6-31G**", 
		 "properties": { 
			 "R2extent": 4256.784, 
			 "electric_dipole_moment_norm": 3.05252657318, 
			 "electric_quadrupole_moment_norm": 11.0041833132, 
			 "total_energy": -1225.20460907, 
			 "HOMO_LUMO_gap": 0.20773, 
			 "cosmo_polarized_energy": -9.16, 
			 "cosmo_cavitation_energy": 32.97, 
			 "cosmo_dispersion_energy": -24.09, 
			 "cosmo_repulsion_energy": 1.81, 
			 "cosmo_total_nonelectrostatic_energy": 10.69, 
			 "SMD_solvation_energy": 4.25 
		},
		"coords": [
			{
				"x": 0.7321431225,
				"y": -2.6655332066,
				"z": 1.1041526084,
				"element": "C" 
			},
			{
				"x": 0.7559558199,
				"y": -1.2707064629,
				"z": 0.5159805564,
				"element": "C" 
			},
			{
				"x": -0.0758265086,
				"y": -0.9773929307,
				"z": -0.5653896684,
				"element": "C" 
			},
			{
				"x": -0.0892152801,
				"y": 0.2746134002,
				"z": -1.1814754053,
				"element": "C" 
			},
			{
				"x": -0.9983612205,
				"y": 0.4984827643,
				"z": -2.3711488891,
				"element": "C" 
			},
			{
				"x": 0.7563317532,
				"y": 1.2860792208,
				"z": -0.6807771162,
				"element": "C" 
			},
			{
				"x": 0.7704173634,
				"y": 2.6323210049,
				"z": -1.3635440647,
				"element": "C" 
			},
			{
				"x": -0.329085309,
				"y": 3.9235702636,
				"z": -0.5856485491,
				"element": "S" 
			},
			{
				"x": 1.5845402372,
				"y": 1.0277663642,
				"z": 0.4333448681,
				"element": "C" 
			},
			{
				"x": 2.4649901686,
				"y": 2.1262080037,
				"z": 0.9949528547,
				"element": "C" 
			},
			{
				"x": 1.6010099762,
				"y": -0.2584381883,
				"z": 1.0158813988,
				"element": "C" 
			},
			{
				"x": 2.5265518186,
				"y": -0.5790848475,
				"z": 2.1644394729,
				"element": "C" 
			},
			{
				"x": 1.8789514464,
				"y": -0.1177026466,
				"z": 3.852362832,
				"element": "S" 
			},
			{
				"x": 0.5873131177,
				"y": -2.6602513366,
				"z": 2.1899469439,
				"element": "H" 
			},
			{
				"x": 1.6668080505,
				"y": -3.2064520413,
				"z": 0.9104460306,
				"element": "H" 
			},
			{
				"x": -0.0789967157,
				"y": -3.2529067197,
				"z": 0.666306689,
				"element": "H" 
			},
			{
				"x": -0.7297818133,
				"y": -1.756964336,
				"z": -0.9495037351,
				"element": "H" 
			},
			{
				"x": -0.4302130295,
				"y": 0.62779381,
				"z": -3.3007707073,
				"element": "H" 
			},
			{
				"x": -1.6270275516,
				"y": 1.3881880496,
				"z": -2.2566069042,
				"element": "H" 
			},
			{
				"x": -1.66222538,
				"y": -0.3580781821,
				"z": -2.5134603164,
				"element": "H" 
			},
			{
				"x": 0.4877424727,
				"y": 2.5439642258,
				"z": -2.4121386734,
				"element": "H" 
			},
			{
				"x": 1.7605427539,
				"y": 3.0906686732,
				"z": -1.3360539727,
				"element": "H" 
			},
			{
				"x": -1.4027045301,
				"y": 3.1287855177,
				"z": -0.4096807385,
				"element": "H" 
			},
			{
				"x": 3.4530007347,
				"y": 2.1385165238,
				"z": 0.5142502084,
				"element": "H" 
			},
			{
				"x": 2.0136443754,
				"y": 3.109606614,
				"z": 0.8552063131,
				"element": "H" 
			},
			{
				"x": 2.6177302913,
				"y": 2.0051699793,
				"z": 2.068422096,
				"element": "H" 
			},
			{
				"x": 3.4667671027,
				"y": -0.0294747105,
				"z": 2.093207328,
				"element": "H" 
			},
			{
				"x": 2.7764274759,
				"y": -1.6394951943,
				"z": 2.1834425343,
				"element": "H" 
			},
			{
				"x": 0.6318692576,
				"y": -0.596653612,
				"z": 3.6770560058,
				"element": "H" 
			}
		],
		 "valence_orbital": [ 
			{
				"type": "occ",
				"energy": -0.31734,
				"method": "rhf"
			},
			{
				"type": "occ",
				"energy": -0.24103,
				"method": "rhf"
			},
			{
				"type": "occ",
				"energy": -0.241,
				"method": "rhf"
			},
			{
				"type": "occ",
				"energy": -0.23235,
				"method": "rhf"
			},
			{
				"type": "occ",
				"energy": -0.22625,
				"method": "rhf"
			},
			{
				"type": "unocc",
				"energy": -0.01852,
				"method": "rhf"
			},
			{
				"type": "unocc",
				"energy": -0.00846,
				"method": "rhf"
			},
			{
				"type": "unocc",
				"energy": 0.02469,
				"method": "rhf"
			},
			{
				"type": "unocc",
				"energy": 0.03197,
				"method": "rhf"
			},
			{
				"type": "unocc",
				"energy": 0.06662,
				"method": "rhf"
			}
		],
		"cosmo_sigma_profile": { 
			"-0.025": 0.0,
			"-0.024": 0.0,
			"-0.023": 0.0,
			"-0.022": 0.0,
			"-0.021": 0.0,
			"-0.02": 0.0,
			"-0.019": 0.0,
			"-0.018": 0.0,
			"-0.017": 0.0,
			"-0.016": 0.0,
			"-0.015": 0.0,
			"-0.014": 0.0,
			"-0.013": 0.0,
			"-0.012": 0.0,
			"-0.011": 0.0,
			"-0.01": 0.0,
			"-0.009": 0.784647465928,
			"-0.008": 2.82667833927,
			"-0.007": 4.87510929943,
			"-0.006": 8.82853619012,
			"-0.005": 17.4468095129,
			"-0.004": 27.3425626936,
			"-0.003": 25.7029497715,
			"-0.002": 26.5994344311,
			"-0.001": 21.7802101841,
			"0.0": 25.012471879,
			"0.001": 17.9866678186,
			"0.002": 11.1915319429,
			"0.003": 10.7616727674,
			"0.004": 12.405823386,
			"0.005": 15.9856260989,
			"0.006": 12.8429940986,
			"0.007": 6.51484353367,
			"0.008": 5.76332677423,
			"0.009": 4.48205465295,
			"0.01": 3.21437094633,
			"0.011": 1.47871464257,
			"0.012": 0.00300023083187,
			"0.013": 0.0,
			"0.014": 0.0,
			"0.015": 0.0,
			"0.016": 0.0,
			"0.017": 0.0,
			"0.018": 0.0,
			"0.019": 0.0,
			"0.02": 0.0,
			"0.021": 0.0,
			"0.022": 0.0,
			"0.023": 0.0,
			"0.024": 0.0,
			"0.025": 0.0
		}
	}
}
