{
	 "smiles": "CC(C)(C)C1=C(N=NN1C1=C(F)C=C(Cl)C=C1)C(O)=O", 
	 "Tm": 426.15, 
	 "num_atms": 33, 
	 "gaussian": { 
		 "optdone": 1, 
		 "sigma_profile": "yes", 
		 "theory": "DFT", 
		 "functional": "B3LYP", 
		 "basiset": "6-31G**", 
		 "properties": { 
			 "R2extent": 7626.1108, 
			 "electric_dipole_moment_norm": 5.36617793779, 
			 "electric_quadrupole_moment_norm": 19.5353174929, 
			 "total_energy": -1377.9267613, 
			 "HOMO_LUMO_gap": 0.21205, 
			 "cosmo_polarized_energy": -13.57, 
			 "cosmo_cavitation_energy": 37.82, 
			 "cosmo_dispersion_energy": -26.4, 
			 "cosmo_repulsion_energy": 1.98, 
			 "cosmo_total_nonelectrostatic_energy": 13.4, 
			 "SMD_solvation_energy": 6.67 
		},
		"coords": [
			{
				"x": -0.5770964144,
				"y": 0.0082430061,
				"z": 2.5899760712,
				"element": "C" 
			},
			{
				"x": -0.143216065,
				"y": 1.03801478,
				"z": 1.5155307071,
				"element": "C" 
			},
			{
				"x": 0.1372971208,
				"y": 2.4109730211,
				"z": 2.174995323,
				"element": "C" 
			},
			{
				"x": -1.3168174471,
				"y": 1.2031364463,
				"z": 0.5296979223,
				"element": "C" 
			},
			{
				"x": 1.1555184363,
				"y": 0.5380825022,
				"z": 0.8815050031,
				"element": "C" 
			},
			{
				"x": 2.3665240582,
				"y": 0.1861470585,
				"z": 1.4867493671,
				"element": "C" 
			},
			{
				"x": 3.2294645946,
				"y": -0.2706342078,
				"z": 0.5323742715,
				"element": "N" 
			},
			{
				"x": 2.6746096256,
				"y": -0.229019919,
				"z": -0.6275225784,
				"element": "N" 
			},
			{
				"x": 1.4042931472,
				"y": 0.2649614144,
				"z": -0.4404630623,
				"element": "N" 
			},
			{
				"x": 0.6531285908,
				"y": 0.4548000881,
				"z": -1.6402212245,
				"element": "C" 
			},
			{
				"x": 0.4438577015,
				"y": 1.737256958,
				"z": -2.1495667394,
				"element": "C" 
			},
			{
				"x": 0.8495899303,
				"y": 2.7989573647,
				"z": -1.4327524669,
				"element": "F" 
			},
			{
				"x": -0.1986706448,
				"y": 1.9476053807,
				"z": -3.3612448332,
				"element": "C" 
			},
			{
				"x": -0.6177505372,
				"y": 0.8315768653,
				"z": -4.0863076646,
				"element": "C" 
			},
			{
				"x": -1.4264566969,
				"y": 1.0713137797,
				"z": -5.6189191789,
				"element": "Cl" 
			},
			{
				"x": -0.4047861849,
				"y": -0.4651375926,
				"z": -3.6151913021,
				"element": "C" 
			},
			{
				"x": 0.2375504546,
				"y": -0.6445002609,
				"z": -2.3917092577,
				"element": "C" 
			},
			{
				"x": 2.8785479651,
				"y": 0.2324476616,
				"z": 2.8830739077,
				"element": "C" 
			},
			{
				"x": 4.1398719536,
				"y": -0.2231917552,
				"z": 2.9969232397,
				"element": "O" 
			},
			{
				"x": 2.2650263523,
				"y": 0.6367250304,
				"z": 3.8490788863,
				"element": "O" 
			},
			{
				"x": -1.4909272248,
				"y": 0.3643130574,
				"z": 3.076872475,
				"element": "H" 
			},
			{
				"x": -0.7954034025,
				"y": -0.9636296937,
				"z": 2.1342914704,
				"element": "H" 
			},
			{
				"x": 0.1889797051,
				"y": -0.1171746792,
				"z": 3.3547565268,
				"element": "H" 
			},
			{
				"x": 0.9059934195,
				"y": 2.3272307764,
				"z": 2.9443717675,
				"element": "H" 
			},
			{
				"x": 0.4550578832,
				"y": 3.1408422371,
				"z": 1.4236663741,
				"element": "H" 
			},
			{
				"x": -0.7806097338,
				"y": 2.7814085617,
				"z": 2.6436406823,
				"element": "H" 
			},
			{
				"x": -1.5376395651,
				"y": 0.2858924001,
				"z": -0.0234109585,
				"element": "H" 
			},
			{
				"x": -1.1536179409,
				"y": 2.0162368665,
				"z": -0.1790163938,
				"element": "H" 
			},
			{
				"x": -2.2085132785,
				"y": 1.4572180716,
				"z": 1.1104569994,
				"element": "H" 
			},
			{
				"x": -0.3543128166,
				"y": 2.9567600123,
				"z": -3.7221724331,
				"element": "H" 
			},
			{
				"x": -0.7310222929,
				"y": -1.3177147119,
				"z": -4.19853235,
				"element": "H" 
			},
			{
				"x": 0.4302796584,
				"y": -1.6415480087,
				"z": -2.0113720571,
				"element": "H" 
			},
			{
				"x": 4.4483496485,
				"y": -0.4860925113,
				"z": 2.1078415056,
				"element": "H" 
			}
		],
		 "valence_orbital": [ 
			{
				"type": "occ",
				"energy": -0.2999,
				"method": "rhf"
			},
			{
				"type": "occ",
				"energy": -0.29131,
				"method": "rhf"
			},
			{
				"type": "occ",
				"energy": -0.27635,
				"method": "rhf"
			},
			{
				"type": "occ",
				"energy": -0.27403,
				"method": "rhf"
			},
			{
				"type": "occ",
				"energy": -0.26984,
				"method": "rhf"
			},
			{
				"type": "unocc",
				"energy": -0.05779,
				"method": "rhf"
			},
			{
				"type": "unocc",
				"energy": -0.04209,
				"method": "rhf"
			},
			{
				"type": "unocc",
				"energy": -0.03387,
				"method": "rhf"
			},
			{
				"type": "unocc",
				"energy": -0.02442,
				"method": "rhf"
			},
			{
				"type": "unocc",
				"energy": 0.00147,
				"method": "rhf"
			}
		],
		"cosmo_sigma_profile": { 
			"-0.025": 0.0,
			"-0.024": 0.0,
			"-0.023": 0.0,
			"-0.022": 0.0,
			"-0.021": 0.0,
			"-0.02": 0.0,
			"-0.019": 0.0,
			"-0.018": 0.0,
			"-0.017": 0.0,
			"-0.016": 0.0,
			"-0.015": 0.0,
			"-0.014": 0.251908213615,
			"-0.013": 0.757532427724,
			"-0.012": 0.308853412019,
			"-0.011": 0.362562411733,
			"-0.01": 1.50002212143,
			"-0.009": 3.58122040981,
			"-0.008": 6.17095265859,
			"-0.007": 7.36802151562,
			"-0.006": 7.41606074096,
			"-0.005": 9.1717319847,
			"-0.004": 19.6635322922,
			"-0.003": 23.9205218225,
			"-0.002": 33.4464706496,
			"-0.001": 36.4738756467,
			"0.0": 40.9430505405,
			"0.001": 26.5233112661,
			"0.002": 13.9363487288,
			"0.003": 16.7056519132,
			"0.004": 13.1280387176,
			"0.005": 5.23186077552,
			"0.006": 4.8604678622,
			"0.007": 5.13198346308,
			"0.008": 6.94464635229,
			"0.009": 5.49236728082,
			"0.01": 5.88812653809,
			"0.011": 4.27931739645,
			"0.012": 3.19725260333,
			"0.013": 1.15047462581,
			"0.014": 0.0,
			"0.015": 0.0,
			"0.016": 0.0,
			"0.017": 0.0,
			"0.018": 0.0,
			"0.019": 0.0,
			"0.02": 0.0,
			"0.021": 0.0,
			"0.022": 0.0,
			"0.023": 0.0,
			"0.024": 0.0,
			"0.025": 0.0
		}
	}
}
