{
	 "smiles": "COC(=O)C1=CC=C(OCNC(=O)C2=CC=CC=C2)C=C1", 
	 "Tm": 415.15, 
	 "num_atms": 36, 
	 "gaussian": { 
		 "optdone": 1, 
		 "sigma_profile": "yes", 
		 "theory": "DFT", 
		 "functional": "B3LYP", 
		 "basiset": "6-31G**", 
		 "properties": { 
			 "R2extent": 10017.8794, 
			 "electric_dipole_moment_norm": 1.49951459146, 
			 "electric_quadrupole_moment_norm": 27.0769810592, 
			 "total_energy": -974.40594209, 
			 "HOMO_LUMO_gap": 0.19057, 
			 "cosmo_polarized_energy": -18.18, 
			 "cosmo_cavitation_energy": 41.75, 
			 "cosmo_dispersion_energy": -29.36, 
			 "cosmo_repulsion_energy": 2.28, 
			 "cosmo_total_nonelectrostatic_energy": 14.66, 
			 "SMD_solvation_energy": 8.63 
		},
		"coords": [
			{
				"x": 2.6718008606,
				"y": -6.1162189934,
				"z": -2.29287154,
				"element": "C" 
			},
			{
				"x": 1.7913677909,
				"y": -5.0053555353,
				"z": -2.0720426512,
				"element": "O" 
			},
			{
				"x": 1.9742609665,
				"y": -4.3499931457,
				"z": -0.8997300355,
				"element": "C" 
			},
			{
				"x": 2.821386506,
				"y": -4.6738784148,
				"z": -0.0880838496,
				"element": "O" 
			},
			{
				"x": 1.0339359559,
				"y": -3.2136638422,
				"z": -0.7323736842,
				"element": "C" 
			},
			{
				"x": 0.0689091629,
				"y": -2.8732742289,
				"z": -1.696311339,
				"element": "C" 
			},
			{
				"x": -0.7846316347,
				"y": -1.8015564385,
				"z": -1.4868179169,
				"element": "C" 
			},
			{
				"x": -0.6911479584,
				"y": -1.0444483328,
				"z": -0.3067938361,
				"element": "C" 
			},
			{
				"x": -1.5746174453,
				"y": -0.012923003,
				"z": -0.1985987001,
				"element": "O" 
			},
			{
				"x": -1.5623684314,
				"y": 0.7838772438,
				"z": 0.9966589067,
				"element": "C" 
			},
			{
				"x": -2.6050565357,
				"y": 1.7588738575,
				"z": 0.9108488519,
				"element": "N" 
			},
			{
				"x": -2.5563449412,
				"y": 2.8945592803,
				"z": 0.0966435569,
				"element": "C" 
			},
			{
				"x": -3.5664537199,
				"y": 3.2923986303,
				"z": -0.4629508767,
				"element": "O" 
			},
			{
				"x": -1.2587175224,
				"y": 3.6385167274,
				"z": 0.0001874266,
				"element": "C" 
			},
			{
				"x": -0.9460572471,
				"y": 4.2509570638,
				"z": -1.2210571596,
				"element": "C" 
			},
			{
				"x": 0.221259989,
				"y": 4.9995436363,
				"z": -1.3517609255,
				"element": "C" 
			},
			{
				"x": 1.0727295699,
				"y": 5.1665683104,
				"z": -0.2561015323,
				"element": "C" 
			},
			{
				"x": 0.7514888785,
				"y": 4.5853496035,
				"z": 0.9719260836,
				"element": "C" 
			},
			{
				"x": -0.4080277791,
				"y": 3.8198334556,
				"z": 1.1004445334,
				"element": "C" 
			},
			{
				"x": 0.2695277719,
				"y": -1.3748059072,
				"z": 0.6612695743,
				"element": "C" 
			},
			{
				"x": 1.1208362052,
				"y": -2.4546533567,
				"z": 0.439143686,
				"element": "C" 
			},
			{
				"x": 2.3936545328,
				"y": -6.524095687,
				"z": -3.2648250228,
				"element": "H" 
			},
			{
				"x": 2.5470470751,
				"y": -6.8695871887,
				"z": -1.5107988611,
				"element": "H" 
			},
			{
				"x": 3.7143224624,
				"y": -5.7877595613,
				"z": -2.2988698784,
				"element": "H" 
			},
			{
				"x": -0.004908449,
				"y": -3.4558141437,
				"z": -2.6073572982,
				"element": "H" 
			},
			{
				"x": -1.5353097729,
				"y": -1.5247528798,
				"z": -2.2194662941,
				"element": "H" 
			},
			{
				"x": -1.7413017801,
				"y": 0.1395301631,
				"z": 1.8655585981,
				"element": "H" 
			},
			{
				"x": -0.5925129054,
				"y": 1.274603806,
				"z": 1.1017309595,
				"element": "H" 
			},
			{
				"x": -3.5397478795,
				"y": 1.3628847985,
				"z": 0.8870816461,
				"element": "H" 
			},
			{
				"x": -1.6303124376,
				"y": 4.1318868189,
				"z": -2.0545540755,
				"element": "H" 
			},
			{
				"x": 0.4644408875,
				"y": 5.459753274,
				"z": -2.3048763028,
				"element": "H" 
			},
			{
				"x": 1.9792145297,
				"y": 5.7563891538,
				"z": -0.3569567366,
				"element": "H" 
			},
			{
				"x": 1.3990293387,
				"y": 4.7331469397,
				"z": 1.8311970156,
				"element": "H" 
			},
			{
				"x": -0.6719976425,
				"y": 3.3932147329,
				"z": 2.0635959985,
				"element": "H" 
			},
			{
				"x": 0.3642139677,
				"y": -0.8047448767,
				"z": 1.5777188673,
				"element": "H" 
			},
			{
				"x": 1.8699876312,
				"y": -2.7252619601,
				"z": 1.175692812,
				"element": "H" 
			}
		],
		 "valence_orbital": [ 
			{
				"type": "occ",
				"energy": -0.26887,
				"method": "rhf"
			},
			{
				"type": "occ",
				"energy": -0.26432,
				"method": "rhf"
			},
			{
				"type": "occ",
				"energy": -0.26285,
				"method": "rhf"
			},
			{
				"type": "occ",
				"energy": -0.25203,
				"method": "rhf"
			},
			{
				"type": "occ",
				"energy": -0.23335,
				"method": "rhf"
			},
			{
				"type": "unocc",
				"energy": -0.04278,
				"method": "rhf"
			},
			{
				"type": "unocc",
				"energy": -0.03651,
				"method": "rhf"
			},
			{
				"type": "unocc",
				"energy": -0.01471,
				"method": "rhf"
			},
			{
				"type": "unocc",
				"energy": -0.01096,
				"method": "rhf"
			},
			{
				"type": "unocc",
				"energy": 0.03628,
				"method": "rhf"
			}
		],
		"cosmo_sigma_profile": { 
			"-0.025": 0.0,
			"-0.024": 0.0,
			"-0.023": 0.0,
			"-0.022": 0.0,
			"-0.021": 0.0,
			"-0.02": 0.0,
			"-0.019": 0.0,
			"-0.018": 0.0,
			"-0.017": 0.0,
			"-0.016": 0.0,
			"-0.015": 0.0,
			"-0.014": 0.626649782885,
			"-0.013": 1.20104509237,
			"-0.012": 0.965053008034,
			"-0.011": 0.909214827553,
			"-0.01": 0.630987240489,
			"-0.009": 1.64854492443,
			"-0.008": 6.25460501623,
			"-0.007": 10.5757856875,
			"-0.006": 23.3534972187,
			"-0.005": 26.2564615277,
			"-0.004": 26.4195490819,
			"-0.003": 22.3085900746,
			"-0.002": 22.3079141893,
			"-0.001": 18.3533010611,
			"0.0": 18.35945197,
			"0.001": 23.606927033,
			"0.002": 26.5970619428,
			"0.003": 29.2736610699,
			"0.004": 25.0172035685,
			"0.005": 8.78980313357,
			"0.006": 6.69901591371,
			"0.007": 4.28027281513,
			"0.008": 4.13659932109,
			"0.009": 2.29125105053,
			"0.01": 3.72088596207,
			"0.011": 4.41035374273,
			"0.012": 8.9015162871,
			"0.013": 5.11514488294,
			"0.014": 0.461502889106,
			"0.015": 0.0,
			"0.016": 0.0,
			"0.017": 0.0,
			"0.018": 0.0,
			"0.019": 0.0,
			"0.02": 0.0,
			"0.021": 0.0,
			"0.022": 0.0,
			"0.023": 0.0,
			"0.024": 0.0,
			"0.025": 0.0
		}
	}
}
