{
	 "smiles": "COC1=CC=C(C=CC(O)=O)C=C1OC", 
	 "Tm": 455.15, 
	 "num_atms": 27, 
	 "gaussian": { 
		 "optdone": 1, 
		 "sigma_profile": "yes", 
		 "theory": "DFT", 
		 "functional": "B3LYP", 
		 "basiset": "6-31G**", 
		 "properties": { 
			 "R2extent": 5439.8791, 
			 "electric_dipole_moment_norm": 2.50593450234, 
			 "electric_quadrupole_moment_norm": 17.3608309168, 
			 "total_energy": -727.270067074, 
			 "HOMO_LUMO_gap": 0.15365, 
			 "cosmo_polarized_energy": -13.81, 
			 "cosmo_cavitation_energy": 31.93, 
			 "cosmo_dispersion_energy": -22.85, 
			 "cosmo_repulsion_energy": 1.81, 
			 "cosmo_total_nonelectrostatic_energy": 10.89, 
			 "SMD_solvation_energy": 8.48 
		},
		"coords": [
			{
				"x": 2.1470119243,
				"y": -2.6341283795,
				"z": 0.5304784283,
				"element": "C" 
			},
			{
				"x": 1.7244375927,
				"y": -1.430104927,
				"z": 1.1806370885,
				"element": "O" 
			},
			{
				"x": 0.5651228631,
				"y": -0.8577218346,
				"z": 0.736139704,
				"element": "C" 
			},
			{
				"x": -0.4913306991,
				"y": -0.7176157959,
				"z": 1.6316950032,
				"element": "C" 
			},
			{
				"x": -1.6725446013,
				"y": -0.0822462659,
				"z": 1.2526822319,
				"element": "C" 
			},
			{
				"x": -1.8262971603,
				"y": 0.4207269092,
				"z": -0.0470269487,
				"element": "C" 
			},
			{
				"x": -3.0868113665,
				"y": 1.0663481393,
				"z": -0.4057877605,
				"element": "C" 
			},
			{
				"x": -3.4325669271,
				"y": 1.5876841055,
				"z": -1.6000685606,
				"element": "C" 
			},
			{
				"x": -4.728707364,
				"y": 2.2229530322,
				"z": -1.8741463746,
				"element": "C" 
			},
			{
				"x": -5.5732220517,
				"y": 2.2446651136,
				"z": -0.8053579759,
				"element": "O" 
			},
			{
				"x": -5.0453323497,
				"y": 2.6953726955,
				"z": -2.9508448246,
				"element": "O" 
			},
			{
				"x": -0.7526511785,
				"y": 0.286829149,
				"z": -0.9538996899,
				"element": "C" 
			},
			{
				"x": 0.4343677198,
				"y": -0.3327543655,
				"z": -0.576570572,
				"element": "C" 
			},
			{
				"x": 1.5265830524,
				"y": -0.4678709571,
				"z": -1.3834481826,
				"element": "O" 
			},
			{
				"x": 1.4691892653,
				"y": 0.0810485669,
				"z": -2.6922909363,
				"element": "C" 
			},
			{
				"x": 1.3722531842,
				"y": -3.4076581834,
				"z": 0.6062321499,
				"element": "H" 
			},
			{
				"x": 2.3916511964,
				"y": -2.4609581389,
				"z": -0.5201827384,
				"element": "H" 
			},
			{
				"x": 3.0382359322,
				"y": -2.9654632851,
				"z": 1.0666663882,
				"element": "H" 
			},
			{
				"x": -0.3603131276,
				"y": -1.1138190581,
				"z": 2.6332922964,
				"element": "H" 
			},
			{
				"x": -2.4859299466,
				"y": 0.016520052,
				"z": 1.9655336764,
				"element": "H" 
			},
			{
				"x": -3.8217195538,
				"y": 1.1235410724,
				"z": 0.3941161322,
				"element": "H" 
			},
			{
				"x": -2.771442153,
				"y": 1.5759201468,
				"z": -2.4599762555,
				"element": "H" 
			},
			{
				"x": -6.3772871709,
				"y": 2.6855585927,
				"z": -1.1237314631,
				"element": "H" 
			},
			{
				"x": -0.8521381036,
				"y": 0.6875643366,
				"z": -1.9545927799,
				"element": "H" 
			},
			{
				"x": 0.6847222657,
				"y": -0.3923904227,
				"z": -3.2962808939,
				"element": "H" 
			},
			{
				"x": 2.4415174094,
				"y": -0.1198326131,
				"z": -3.1439751341,
				"element": "H" 
			},
			{
				"x": 1.299201348,
				"y": 1.1645323151,
				"z": -2.6659920085,
				"element": "H" 
			}
		],
		 "valence_orbital": [ 
			{
				"type": "occ",
				"energy": -0.29403,
				"method": "rhf"
			},
			{
				"type": "occ",
				"energy": -0.27772,
				"method": "rhf"
			},
			{
				"type": "occ",
				"energy": -0.26621,
				"method": "rhf"
			},
			{
				"type": "occ",
				"energy": -0.24378,
				"method": "rhf"
			},
			{
				"type": "occ",
				"energy": -0.21717,
				"method": "rhf"
			},
			{
				"type": "unocc",
				"energy": -0.06352,
				"method": "rhf"
			},
			{
				"type": "unocc",
				"energy": -0.00054,
				"method": "rhf"
			},
			{
				"type": "unocc",
				"energy": 0.02527,
				"method": "rhf"
			},
			{
				"type": "unocc",
				"energy": 0.07729,
				"method": "rhf"
			},
			{
				"type": "unocc",
				"energy": 0.08689,
				"method": "rhf"
			}
		],
		"cosmo_sigma_profile": { 
			"-0.025": 0.0,
			"-0.024": 0.0,
			"-0.023": 0.0,
			"-0.022": 0.0,
			"-0.021": 0.0,
			"-0.02": 0.0,
			"-0.019": 0.0,
			"-0.018": 0.374705747534,
			"-0.017": 0.790783519487,
			"-0.016": 0.988653407402,
			"-0.015": 0.558155589477,
			"-0.014": 0.992482049152,
			"-0.013": 0.791305948154,
			"-0.012": 0.210498921459,
			"-0.011": 0.565272663273,
			"-0.01": 1.24811900146,
			"-0.009": 1.25951647406,
			"-0.008": 2.55709909971,
			"-0.007": 6.44523715017,
			"-0.006": 14.7273814053,
			"-0.005": 18.1508362539,
			"-0.004": 21.0044500111,
			"-0.003": 21.1715644716,
			"-0.002": 17.9709790619,
			"-0.001": 15.3831279021,
			"0.0": 14.6611095317,
			"0.001": 16.8348384261,
			"0.002": 19.9091331217,
			"0.003": 22.3036376288,
			"0.004": 13.5333455127,
			"0.005": 4.91229152049,
			"0.006": 6.04281950136,
			"0.007": 4.63230120245,
			"0.008": 4.7185584656,
			"0.009": 4.38725409153,
			"0.01": 4.1231162862,
			"0.011": 3.96746227309,
			"0.012": 5.32201320284,
			"0.013": 3.24781178481,
			"0.014": 0.254693501256,
			"0.015": 0.0,
			"0.016": 0.0,
			"0.017": 0.0,
			"0.018": 0.0,
			"0.019": 0.0,
			"0.02": 0.0,
			"0.021": 0.0,
			"0.022": 0.0,
			"0.023": 0.0,
			"0.024": 0.0,
			"0.025": 0.0
		}
	}
}
