{
	 "smiles": "CC1=CC=CC2=C1CC2=O", 
	 "Tm": 329.15, 
	 "num_atms": 18, 
	 "gaussian": { 
		 "optdone": 1, 
		 "sigma_profile": "yes", 
		 "theory": "DFT", 
		 "functional": "B3LYP", 
		 "basiset": "6-31G**", 
		 "properties": { 
			 "R2extent": 1635.4393, 
			 "electric_dipole_moment_norm": 3.78553329796, 
			 "electric_quadrupole_moment_norm": 10.4549300835, 
			 "total_energy": -422.969166965, 
			 "HOMO_LUMO_gap": 0.19127, 
			 "cosmo_polarized_energy": -7.4, 
			 "cosmo_cavitation_energy": 22.09, 
			 "cosmo_dispersion_energy": -16.14, 
			 "cosmo_repulsion_energy": 1.33, 
			 "cosmo_total_nonelectrostatic_energy": 7.28, 
			 "SMD_solvation_energy": 4.31 
		},
		"coords": [
			{
				"x": 2.4250651049,
				"y": 1.0450964803,
				"z": -0.0414362345,
				"element": "C" 
			},
			{
				"x": 1.3234828717,
				"y": 0.0178575409,
				"z": -0.1084920746,
				"element": "C" 
			},
			{
				"x": 1.070051781,
				"y": -0.7411445915,
				"z": -1.2652551112,
				"element": "C" 
			},
			{
				"x": 0.0469287108,
				"y": -1.7033155485,
				"z": -1.3468014464,
				"element": "C" 
			},
			{
				"x": -0.7958999683,
				"y": -1.9692315132,
				"z": -0.264485848,
				"element": "C" 
			},
			{
				"x": -0.5458501713,
				"y": -1.2179938152,
				"z": 0.8820186887,
				"element": "C" 
			},
			{
				"x": 0.4732632788,
				"y": -0.2608805987,
				"z": 0.9605999744,
				"element": "C" 
			},
			{
				"x": 0.1822173799,
				"y": 0.1370966208,
				"z": 2.4056729499,
				"element": "C" 
			},
			{
				"x": -0.9594648798,
				"y": -0.945203488,
				"z": 2.2961055927,
				"element": "C" 
			},
			{
				"x": -1.7974356392,
				"y": -1.3537527844,
				"z": 3.0592770491,
				"element": "O" 
			},
			{
				"x": 3.1431820805,
				"y": 0.8061794409,
				"z": 0.7513110436,
				"element": "H" 
			},
			{
				"x": 2.0256020748,
				"y": 2.0415322642,
				"z": 0.1796595953,
				"element": "H" 
			},
			{
				"x": 2.9736829898,
				"y": 1.1049106834,
				"z": -0.9852682121,
				"element": "H" 
			},
			{
				"x": 1.6950430309,
				"y": -0.577340749,
				"z": -2.1403783637,
				"element": "H" 
			},
			{
				"x": -0.0830260272,
				"y": -2.2474919377,
				"z": -2.2780536892,
				"element": "H" 
			},
			{
				"x": -1.5861104758,
				"y": -2.7106185622,
				"z": -0.3237143663,
				"element": "H" 
			},
			{
				"x": -0.1765597012,
				"y": 1.1588580914,
				"z": 2.5746271277,
				"element": "H" 
			},
			{
				"x": 0.9555275596,
				"y": -0.0932575335,
				"z": 3.1474133247,
				"element": "H" 
			}
		],
		 "valence_orbital": [ 
			{
				"type": "occ",
				"energy": -0.35126,
				"method": "rhf"
			},
			{
				"type": "occ",
				"energy": -0.33555,
				"method": "rhf"
			},
			{
				"type": "occ",
				"energy": -0.25886,
				"method": "rhf"
			},
			{
				"type": "occ",
				"energy": -0.25335,
				"method": "rhf"
			},
			{
				"type": "occ",
				"energy": -0.24575,
				"method": "rhf"
			},
			{
				"type": "unocc",
				"energy": -0.05448,
				"method": "rhf"
			},
			{
				"type": "unocc",
				"energy": -0.01389,
				"method": "rhf"
			},
			{
				"type": "unocc",
				"energy": 0.04787,
				"method": "rhf"
			},
			{
				"type": "unocc",
				"energy": 0.08937,
				"method": "rhf"
			},
			{
				"type": "unocc",
				"energy": 0.10406,
				"method": "rhf"
			}
		],
		"cosmo_sigma_profile": { 
			"-0.025": 0.0,
			"-0.024": 0.0,
			"-0.023": 0.0,
			"-0.022": 0.0,
			"-0.021": 0.0,
			"-0.02": 0.0,
			"-0.019": 0.0,
			"-0.018": 0.0,
			"-0.017": 0.0,
			"-0.016": 0.0,
			"-0.015": 0.0,
			"-0.014": 0.0,
			"-0.013": 0.0,
			"-0.012": 0.0,
			"-0.011": 0.0,
			"-0.01": 0.0,
			"-0.009": 0.0,
			"-0.008": 0.0,
			"-0.007": 1.53449167299,
			"-0.006": 8.64775221243,
			"-0.005": 14.3452669245,
			"-0.004": 18.5630916021,
			"-0.003": 15.9758007325,
			"-0.002": 19.7028311459,
			"-0.001": 17.2773429305,
			"0.0": 16.5359054838,
			"0.001": 11.884948483,
			"0.002": 8.39907943463,
			"0.003": 10.5561104629,
			"0.004": 10.6587916319,
			"0.005": 2.62092829837,
			"0.006": 1.65442712321,
			"0.007": 1.26326932262,
			"0.008": 2.00034342665,
			"0.009": 2.09557470151,
			"0.01": 3.14586527208,
			"0.011": 4.87744553495,
			"0.012": 4.09571368761,
			"0.013": 0.710240678781,
			"0.014": 0.0,
			"0.015": 0.0,
			"0.016": 0.0,
			"0.017": 0.0,
			"0.018": 0.0,
			"0.019": 0.0,
			"0.02": 0.0,
			"0.021": 0.0,
			"0.022": 0.0,
			"0.023": 0.0,
			"0.024": 0.0,
			"0.025": 0.0
		}
	}
}
