{
	 "smiles": "C(CC=CC1=CC=CC=C1)C=CC1=CC=CC=C1", 
	 "Tm": 355.15, 
	 "num_atms": 36, 
	 "gaussian": { 
		 "optdone": 1, 
		 "sigma_profile": "yes", 
		 "theory": "DFT", 
		 "functional": "B3LYP", 
		 "basiset": "6-31G**", 
		 "properties": { 
			 "R2extent": 8765.1499, 
			 "electric_dipole_moment_norm": 0.315536146899, 
			 "electric_quadrupole_moment_norm": 5.13213714353, 
			 "total_energy": -696.740148687, 
			 "HOMO_LUMO_gap": 0.18534, 
			 "cosmo_polarized_energy": -7.3, 
			 "cosmo_cavitation_energy": 39.87, 
			 "cosmo_dispersion_energy": -28.04, 
			 "cosmo_repulsion_energy": 2.18, 
			 "cosmo_total_nonelectrostatic_energy": 14.02, 
			 "SMD_solvation_energy": 6.25 
		},
		"coords": [
			{
				"x": -0.1066635134,
				"y": 1.3846503302,
				"z": -1.1998942499,
				"element": "C" 
			},
			{
				"x": 0.7194042439,
				"y": 0.1817665884,
				"z": -1.7311399656,
				"element": "C" 
			},
			{
				"x": 0.7241906115,
				"y": -1.0057881948,
				"z": -0.8081861392,
				"element": "C" 
			},
			{
				"x": 0.1795666606,
				"y": -2.2193911467,
				"z": -1.0020170823,
				"element": "C" 
			},
			{
				"x": -0.6107743787,
				"y": -2.7193666853,
				"z": -2.1452559742,
				"element": "C" 
			},
			{
				"x": -0.4505940723,
				"y": -4.0593822213,
				"z": -2.5447068869,
				"element": "C" 
			},
			{
				"x": -1.1709843288,
				"y": -4.5861173636,
				"z": -3.6145104566,
				"element": "C" 
			},
			{
				"x": -2.0862219794,
				"y": -3.7877493632,
				"z": -4.3044130413,
				"element": "C" 
			},
			{
				"x": -2.2787179541,
				"y": -2.4640767805,
				"z": -3.9051781924,
				"element": "C" 
			},
			{
				"x": -1.5541896077,
				"y": -1.93703692,
				"z": -2.8360759768,
				"element": "C" 
			},
			{
				"x": 0.4494766085,
				"y": 1.987581169,
				"z": 0.059497347,
				"element": "C" 
			},
			{
				"x": -0.2019260353,
				"y": 2.0477143079,
				"z": 1.2309007566,
				"element": "C" 
			},
			{
				"x": 0.2752072209,
				"y": 2.6234841057,
				"z": 2.4981392507,
				"element": "C" 
			},
			{
				"x": -0.5290013058,
				"y": 2.4960937243,
				"z": 3.6447063279,
				"element": "C" 
			},
			{
				"x": -0.1265588811,
				"y": 3.0164793169,
				"z": 4.874002199,
				"element": "C" 
			},
			{
				"x": 1.0943958184,
				"y": 3.6821053668,
				"z": 4.985705179,
				"element": "C" 
			},
			{
				"x": 1.9050275473,
				"y": 3.82246435,
				"z": 3.8549754713,
				"element": "C" 
			},
			{
				"x": 1.5016883075,
				"y": 3.3027467065,
				"z": 2.628488396,
				"element": "C" 
			},
			{
				"x": -0.1241979637,
				"y": 2.1508287271,
				"z": -1.9888169446,
				"element": "H" 
			},
			{
				"x": -1.1451408299,
				"y": 1.0736671457,
				"z": -1.0351561113,
				"element": "H" 
			},
			{
				"x": 1.7579562082,
				"y": 0.5178455514,
				"z": -1.8666808132,
				"element": "H" 
			},
			{
				"x": 0.351020142,
				"y": -0.0975435646,
				"z": -2.7218721653,
				"element": "H" 
			},
			{
				"x": 1.2653594115,
				"y": -0.8579446703,
				"z": 0.1254397704,
				"element": "H" 
			},
			{
				"x": 0.3695517318,
				"y": -2.9677813911,
				"z": -0.2324231656,
				"element": "H" 
			},
			{
				"x": 0.25836527,
				"y": -4.6874725109,
				"z": -2.010957787,
				"element": "H" 
			},
			{
				"x": -1.021332293,
				"y": -5.6215217758,
				"z": -3.9078509214,
				"element": "H" 
			},
			{
				"x": -2.6530253471,
				"y": -4.1971245702,
				"z": -5.1356251592,
				"element": "H" 
			},
			{
				"x": -3.0052483458,
				"y": -1.8410890152,
				"z": -4.4196811939,
				"element": "H" 
			},
			{
				"x": -1.7465964059,
				"y": -0.9197316698,
				"z": -2.512147885,
				"element": "H" 
			},
			{
				"x": 1.4607827216,
				"y": 2.3883428676,
				"z": -0.02037886,
				"element": "H" 
			},
			{
				"x": -1.2050324493,
				"y": 1.6218489679,
				"z": 1.2747207691,
				"element": "H" 
			},
			{
				"x": -1.4815831262,
				"y": 1.9778553363,
				"z": 3.5654664938,
				"element": "H" 
			},
			{
				"x": -0.7675185925,
				"y": 2.9020481328,
				"z": 5.7437463572,
				"element": "H" 
			},
			{
				"x": 1.4117647181,
				"y": 4.0903898265,
				"z": 5.9408039917,
				"element": "H" 
			},
			{
				"x": 2.8556088522,
				"y": 4.3434102945,
				"z": 3.9302299518,
				"element": "H" 
			},
			{
				"x": 2.1434413362,
				"y": 3.431595028,
				"z": 1.7621467102,
				"element": "H" 
			}
		],
		 "valence_orbital": [ 
			{
				"type": "occ",
				"energy": -0.27786,
				"method": "rhf"
			},
			{
				"type": "occ",
				"energy": -0.2479,
				"method": "rhf"
			},
			{
				"type": "occ",
				"energy": -0.24747,
				"method": "rhf"
			},
			{
				"type": "occ",
				"energy": -0.22084,
				"method": "rhf"
			},
			{
				"type": "occ",
				"energy": -0.21389,
				"method": "rhf"
			},
			{
				"type": "unocc",
				"energy": -0.02855,
				"method": "rhf"
			},
			{
				"type": "unocc",
				"energy": -0.02091,
				"method": "rhf"
			},
			{
				"type": "unocc",
				"energy": 0.00131,
				"method": "rhf"
			},
			{
				"type": "unocc",
				"energy": 0.00286,
				"method": "rhf"
			},
			{
				"type": "unocc",
				"energy": 0.05122,
				"method": "rhf"
			}
		],
		"cosmo_sigma_profile": { 
			"-0.025": 0.0,
			"-0.024": 0.0,
			"-0.023": 0.0,
			"-0.022": 0.0,
			"-0.021": 0.0,
			"-0.02": 0.0,
			"-0.019": 0.0,
			"-0.018": 0.0,
			"-0.017": 0.0,
			"-0.016": 0.0,
			"-0.015": 0.0,
			"-0.014": 0.0,
			"-0.013": 0.0,
			"-0.012": 0.0,
			"-0.011": 0.0,
			"-0.01": 0.0,
			"-0.009": 0.0,
			"-0.008": 0.0,
			"-0.007": 0.425510019826,
			"-0.006": 6.79759701407,
			"-0.005": 25.1723239022,
			"-0.004": 32.7901336533,
			"-0.003": 39.0077676725,
			"-0.002": 30.4223177154,
			"-0.001": 25.3494688631,
			"0.0": 20.8430703203,
			"0.001": 20.0833064821,
			"0.002": 18.6990252055,
			"0.003": 21.8553416105,
			"0.004": 25.9503669368,
			"0.005": 26.2872004804,
			"0.006": 21.3463846855,
			"0.007": 2.22862287646,
			"0.008": 0.0,
			"0.009": 0.0,
			"0.01": 0.0,
			"0.011": 0.0,
			"0.012": 0.0,
			"0.013": 0.0,
			"0.014": 0.0,
			"0.015": 0.0,
			"0.016": 0.0,
			"0.017": 0.0,
			"0.018": 0.0,
			"0.019": 0.0,
			"0.02": 0.0,
			"0.021": 0.0,
			"0.022": 0.0,
			"0.023": 0.0,
			"0.024": 0.0,
			"0.025": 0.0
		}
	}
}
