{
	 "smiles": "NC1=CC=C(C=C1)S(=O)(=O)N1CCCC(C1)C(O)=O", 
	 "Tm": 469.15, 
	 "num_atms": 35, 
	 "gaussian": { 
		 "optdone": 1, 
		 "sigma_profile": "yes", 
		 "theory": "DFT", 
		 "functional": "B3LYP", 
		 "basiset": "6-31G**", 
		 "properties": { 
			 "R2extent": 5800.1617, 
			 "electric_dipole_moment_norm": 9.39425943116, 
			 "electric_quadrupole_moment_norm": 28.4773122078, 
			 "total_energy": -1275.45189432, 
			 "HOMO_LUMO_gap": 0.19754, 
			 "cosmo_polarized_energy": -31.07, 
			 "cosmo_cavitation_energy": 38.0, 
			 "cosmo_dispersion_energy": -26.74, 
			 "cosmo_repulsion_energy": 2.03, 
			 "cosmo_total_nonelectrostatic_energy": 13.28, 
			 "SMD_solvation_energy": 5.28 
		},
		"coords": [
			{
				"x": 3.9662144039,
				"y": 0.7453401868,
				"z": 1.1475250039,
				"element": "N" 
			},
			{
				"x": 2.7408532514,
				"y": 0.8029722021,
				"z": 0.5102296006,
				"element": "C" 
			},
			{
				"x": 2.4851275079,
				"y": 0.0135751951,
				"z": -0.6295444854,
				"element": "C" 
			},
			{
				"x": 1.2740856374,
				"y": 0.1130982339,
				"z": -1.3032558753,
				"element": "C" 
			},
			{
				"x": 0.2889778332,
				"y": 0.99582846,
				"z": -0.8465778107,
				"element": "C" 
			},
			{
				"x": 0.5331879496,
				"y": 1.7960106705,
				"z": 0.2750283924,
				"element": "C" 
			},
			{
				"x": 1.7439576023,
				"y": 1.6985261384,
				"z": 0.9486368222,
				"element": "C" 
			},
			{
				"x": -1.2863623261,
				"y": 1.0941249276,
				"z": -1.6929507867,
				"element": "S" 
			},
			{
				"x": -1.0583818168,
				"y": 0.6215900903,
				"z": -3.0609338144,
				"element": "O" 
			},
			{
				"x": -1.8467942751,
				"y": 2.4161092298,
				"z": -1.3974744276,
				"element": "O" 
			},
			{
				"x": -2.3527346348,
				"y": -0.0103823187,
				"z": -1.0025887885,
				"element": "N" 
			},
			{
				"x": -3.0369728194,
				"y": 0.3102224552,
				"z": 0.2555211183,
				"element": "C" 
			},
			{
				"x": -2.4181575399,
				"y": -0.4196290715,
				"z": 1.4564633837,
				"element": "C" 
			},
			{
				"x": -2.3154498388,
				"y": -1.9288970971,
				"z": 1.1912765343,
				"element": "C" 
			},
			{
				"x": -1.5593792438,
				"y": -2.2098665529,
				"z": -0.1322867855,
				"element": "C" 
			},
			{
				"x": -2.2155502625,
				"y": -1.4394002766,
				"z": -1.2945223235,
				"element": "C" 
			},
			{
				"x": -1.5283015567,
				"y": -3.7040693315,
				"z": -0.4357385501,
				"element": "C" 
			},
			{
				"x": -0.7560908807,
				"y": -4.456388613,
				"z": 0.3972145049,
				"element": "O" 
			},
			{
				"x": -2.1435744477,
				"y": -4.2346266944,
				"z": -1.3269992038,
				"element": "O" 
			},
			{
				"x": 4.0183550381,
				"y": 1.1035865918,
				"z": 2.0889808131,
				"element": "H" 
			},
			{
				"x": 4.5379025161,
				"y": -0.069428205,
				"z": 0.9839775384,
				"element": "H" 
			},
			{
				"x": 3.2540320471,
				"y": -0.6611346313,
				"z": -0.9968982846,
				"element": "H" 
			},
			{
				"x": 1.0964582284,
				"y": -0.4710478368,
				"z": -2.1999752854,
				"element": "H" 
			},
			{
				"x": -0.2173038139,
				"y": 2.5095760348,
				"z": 0.597999735,
				"element": "H" 
			},
			{
				"x": 1.9363828898,
				"y": 2.3333589886,
				"z": 1.8096200375,
				"element": "H" 
			},
			{
				"x": -4.0862138069,
				"y": 0.0040011159,
				"z": 0.1384586845,
				"element": "H" 
			},
			{
				"x": -3.0320418488,
				"y": 1.3929864531,
				"z": 0.3852321915,
				"element": "H" 
			},
			{
				"x": -3.0295159093,
				"y": -0.2374827378,
				"z": 2.3480667631,
				"element": "H" 
			},
			{
				"x": -1.4207199561,
				"y": -0.0107732031,
				"z": 1.6586585815,
				"element": "H" 
			},
			{
				"x": -1.8253518615,
				"y": -2.4299677543,
				"z": 2.0348934845,
				"element": "H" 
			},
			{
				"x": -3.3226023699,
				"y": -2.3607673447,
				"z": 1.1156091139,
				"element": "H" 
			},
			{
				"x": -0.5223741758,
				"y": -1.8612802744,
				"z": -0.0191879649,
				"element": "H" 
			},
			{
				"x": -3.2159977405,
				"y": -1.8513135538,
				"z": -1.4721413132,
				"element": "H" 
			},
			{
				"x": -1.6601099888,
				"y": -1.5610211505,
				"z": -2.2242791714,
				"element": "H" 
			},
			{
				"x": -0.3147537915,
				"y": -3.8890303266,
				"z": 1.045062568,
				"element": "H" 
			}
		],
		 "valence_orbital": [ 
			{
				"type": "occ",
				"energy": -0.29517,
				"method": "rhf"
			},
			{
				"type": "occ",
				"energy": -0.27719,
				"method": "rhf"
			},
			{
				"type": "occ",
				"energy": -0.27346,
				"method": "rhf"
			},
			{
				"type": "occ",
				"energy": -0.25411,
				"method": "rhf"
			},
			{
				"type": "occ",
				"energy": -0.22286,
				"method": "rhf"
			},
			{
				"type": "unocc",
				"energy": -0.02532,
				"method": "rhf"
			},
			{
				"type": "unocc",
				"energy": -0.02453,
				"method": "rhf"
			},
			{
				"type": "unocc",
				"energy": 0.00258,
				"method": "rhf"
			},
			{
				"type": "unocc",
				"energy": 0.03904,
				"method": "rhf"
			},
			{
				"type": "unocc",
				"energy": 0.0522,
				"method": "rhf"
			}
		],
		"cosmo_sigma_profile": { 
			"-0.025": 0.0,
			"-0.024": 0.0,
			"-0.023": 0.0,
			"-0.022": 0.0,
			"-0.021": 0.0,
			"-0.02": 0.0,
			"-0.019": 0.300649212615,
			"-0.018": 0.768907361875,
			"-0.017": 1.0460852068,
			"-0.016": 1.35487830265,
			"-0.015": 0.945274931479,
			"-0.014": 1.3641738859,
			"-0.013": 3.22527113641,
			"-0.012": 4.17769190811,
			"-0.011": 5.22439324699,
			"-0.01": 3.61935387684,
			"-0.009": 3.43874916956,
			"-0.008": 5.31063168956,
			"-0.007": 6.77989153048,
			"-0.006": 12.6976307631,
			"-0.005": 21.8481878826,
			"-0.004": 25.982572102,
			"-0.003": 24.4076834647,
			"-0.002": 21.6653688679,
			"-0.001": 15.7075786162,
			"0.0": 11.0361341043,
			"0.001": 11.0794625348,
			"0.002": 11.3866045355,
			"0.003": 14.6427427672,
			"0.004": 15.7610002527,
			"0.005": 8.09692298119,
			"0.006": 8.32866698785,
			"0.007": 6.78742781247,
			"0.008": 7.06405215207,
			"0.009": 7.63160464099,
			"0.01": 10.7575867987,
			"0.011": 13.2393337478,
			"0.012": 11.5056059262,
			"0.013": 1.85030623574,
			"0.014": 0.0421585866137,
			"0.015": 0.0,
			"0.016": 0.0,
			"0.017": 0.0,
			"0.018": 0.0,
			"0.019": 0.0,
			"0.02": 0.0,
			"0.021": 0.0,
			"0.022": 0.0,
			"0.023": 0.0,
			"0.024": 0.0,
			"0.025": 0.0
		}
	}
}
