{
	 "smiles": "COC1=C2OCOC2=CC(CC=C)=C1OC", 
	 "Tm": 302.65, 
	 "num_atms": 30, 
	 "gaussian": { 
		 "optdone": 1, 
		 "sigma_profile": "yes", 
		 "theory": "DFT", 
		 "functional": "B3LYP", 
		 "basiset": "6-31G**", 
		 "properties": { 
			 "R2extent": 3869.8709, 
			 "electric_dipole_moment_norm": 1.58678816166, 
			 "electric_quadrupole_moment_norm": 8.1567599744, 
			 "total_energy": -766.520956284, 
			 "HOMO_LUMO_gap": 0.20894, 
			 "cosmo_polarized_energy": -8.57, 
			 "cosmo_cavitation_energy": 32.99, 
			 "cosmo_dispersion_energy": -23.32, 
			 "cosmo_repulsion_energy": 1.84, 
			 "cosmo_total_nonelectrostatic_energy": 11.5, 
			 "SMD_solvation_energy": 8.13 
		},
		"coords": [
			{
				"x": 0.4155043079,
				"y": -1.2801093932,
				"z": -3.4521341454,
				"element": "C" 
			},
			{
				"x": -0.5384334222,
				"y": -0.4843948235,
				"z": -2.7472073922,
				"element": "O" 
			},
			{
				"x": -0.2609344668,
				"y": -0.1430554952,
				"z": -1.4571492387,
				"element": "C" 
			},
			{
				"x": 1.0012842797,
				"y": 0.0609222979,
				"z": -0.9144332591,
				"element": "C" 
			},
			{
				"x": 2.2400063578,
				"y": 0.0008863439,
				"z": -1.5315663702,
				"element": "O" 
			},
			{
				"x": 3.1816573042,
				"y": 0.0495187951,
				"z": -0.4538633113,
				"element": "C" 
			},
			{
				"x": 2.5107114838,
				"y": 0.5840590526,
				"z": 0.6852594677,
				"element": "O" 
			},
			{
				"x": 1.1658353135,
				"y": 0.4201238023,
				"z": 0.4209144849,
				"element": "C" 
			},
			{
				"x": 0.1042037402,
				"y": 0.6122168361,
				"z": 1.2775281534,
				"element": "C" 
			},
			{
				"x": -1.194926034,
				"y": 0.4328311683,
				"z": 0.7561406597,
				"element": "C" 
			},
			{
				"x": -2.4006738839,
				"y": 0.6205016096,
				"z": 1.6501023433,
				"element": "C" 
			},
			{
				"x": -2.9032929388,
				"y": 2.0423198848,
				"z": 1.7892218084,
				"element": "C" 
			},
			{
				"x": -2.3775684056,
				"y": 3.1362715055,
				"z": 1.2370372986,
				"element": "C" 
			},
			{
				"x": -1.3662114096,
				"y": 0.0608395607,
				"z": -0.584296552,
				"element": "C" 
			},
			{
				"x": -2.6341672095,
				"y": -0.1950600269,
				"z": -1.0557301269,
				"element": "O" 
			},
			{
				"x": -3.1709464399,
				"y": 0.7909775386,
				"z": -1.9438115696,
				"element": "C" 
			},
			{
				"x": -0.0688394212,
				"y": -1.5593035721,
				"z": -4.3895306452,
				"element": "H" 
			},
			{
				"x": 1.3344370248,
				"y": -0.7256047264,
				"z": -3.6604476298,
				"element": "H" 
			},
			{
				"x": 0.6634993338,
				"y": -2.1866426151,
				"z": -2.8873651314,
				"element": "H" 
			},
			{
				"x": 4.0128482433,
				"y": 0.7027835005,
				"z": -0.7307552744,
				"element": "H" 
			},
			{
				"x": 3.5372451317,
				"y": -0.9691833556,
				"z": -0.2307167496,
				"element": "H" 
			},
			{
				"x": 0.258879232,
				"y": 0.8975392271,
				"z": 2.3119202136,
				"element": "H" 
			},
			{
				"x": -2.167231579,
				"y": 0.2419758824,
				"z": 2.6556342838,
				"element": "H" 
			},
			{
				"x": -3.2229332679,
				"y": -0.0011580635,
				"z": 1.2788542268,
				"element": "H" 
			},
			{
				"x": -3.7885653033,
				"y": 2.144032432,
				"z": 2.4185062734,
				"element": "H" 
			},
			{
				"x": -1.4925865759,
				"y": 3.0929890961,
				"z": 0.6090685268,
				"element": "H" 
			},
			{
				"x": -2.8162081766,
				"y": 4.1157150871,
				"z": 1.4031320228,
				"element": "H" 
			},
			{
				"x": -4.1758313531,
				"y": 0.4506315161,
				"z": -2.2040964391,
				"element": "H" 
			},
			{
				"x": -2.5690681367,
				"y": 0.8740424854,
				"z": -2.8542504681,
				"element": "H" 
			},
			{
				"x": -3.2353937288,
				"y": 1.7672344494,
				"z": -1.4485654602,
				"element": "H" 
			}
		],
		 "valence_orbital": [ 
			{
				"type": "occ",
				"energy": -0.28681,
				"method": "rhf"
			},
			{
				"type": "occ",
				"energy": -0.26493,
				"method": "rhf"
			},
			{
				"type": "occ",
				"energy": -0.24823,
				"method": "rhf"
			},
			{
				"type": "occ",
				"energy": -0.2137,
				"method": "rhf"
			},
			{
				"type": "occ",
				"energy": -0.19947,
				"method": "rhf"
			},
			{
				"type": "unocc",
				"energy": 0.00947,
				"method": "rhf"
			},
			{
				"type": "unocc",
				"energy": 0.01648,
				"method": "rhf"
			},
			{
				"type": "unocc",
				"energy": 0.0289,
				"method": "rhf"
			},
			{
				"type": "unocc",
				"energy": 0.07614,
				"method": "rhf"
			},
			{
				"type": "unocc",
				"energy": 0.10818,
				"method": "rhf"
			}
		],
		"cosmo_sigma_profile": { 
			"-0.025": 0.0,
			"-0.024": 0.0,
			"-0.023": 0.0,
			"-0.022": 0.0,
			"-0.021": 0.0,
			"-0.02": 0.0,
			"-0.019": 0.0,
			"-0.018": 0.0,
			"-0.017": 0.0,
			"-0.016": 0.0,
			"-0.015": 0.0,
			"-0.014": 0.0,
			"-0.013": 0.0,
			"-0.012": 0.0,
			"-0.011": 0.0,
			"-0.01": 0.0,
			"-0.009": 0.148065292484,
			"-0.008": 2.81075127946,
			"-0.007": 4.60212733362,
			"-0.006": 10.9105157787,
			"-0.005": 15.5369755877,
			"-0.004": 21.9612918589,
			"-0.003": 27.0684722655,
			"-0.002": 27.1262742869,
			"-0.001": 20.4006247415,
			"0.0": 19.3311460711,
			"0.001": 19.1682367931,
			"0.002": 20.8756632887,
			"0.003": 20.5208509631,
			"0.004": 13.9553488335,
			"0.005": 10.4705143568,
			"0.006": 7.3936475468,
			"0.007": 5.39260135352,
			"0.008": 4.07446404014,
			"0.009": 3.63341371323,
			"0.01": 2.38668608389,
			"0.011": 1.52210985321,
			"0.012": 2.14046474122,
			"0.013": 0.102896141968,
			"0.014": 0.0,
			"0.015": 0.0,
			"0.016": 0.0,
			"0.017": 0.0,
			"0.018": 0.0,
			"0.019": 0.0,
			"0.02": 0.0,
			"0.021": 0.0,
			"0.022": 0.0,
			"0.023": 0.0,
			"0.024": 0.0,
			"0.025": 0.0
		}
	}
}
