{
	 "smiles": "ClC1=CC(=CC=C1)C1=NNC=C1C=O", 
	 "Tm": 413.15, 
	 "num_atms": 21, 
	 "gaussian": { 
		 "optdone": 1, 
		 "sigma_profile": "yes", 
		 "theory": "DFT", 
		 "functional": "B3LYP", 
		 "basiset": "6-31G**", 
		 "properties": { 
			 "R2extent": 3706.3908, 
			 "electric_dipole_moment_norm": 6.50400541974, 
			 "electric_quadrupole_moment_norm": 21.2977140224, 
			 "total_energy": -1030.17620681, 
			 "HOMO_LUMO_gap": 0.17404, 
			 "cosmo_polarized_energy": -16.23, 
			 "cosmo_cavitation_energy": 27.66, 
			 "cosmo_dispersion_energy": -20.55, 
			 "cosmo_repulsion_energy": 1.59, 
			 "cosmo_total_nonelectrostatic_energy": 8.7, 
			 "SMD_solvation_energy": 4.88 
		},
		"coords": [
			{
				"x": 2.7440850756,
				"y": 0.8880401773,
				"z": 3.1417249469,
				"element": "Cl" 
			},
			{
				"x": 1.6145355281,
				"y": 1.1565685789,
				"z": 1.8173399484,
				"element": "C" 
			},
			{
				"x": 0.7464691796,
				"y": 0.1285545843,
				"z": 1.4541913026,
				"element": "C" 
			},
			{
				"x": -0.1567176066,
				"y": 0.3339622975,
				"z": 0.4001617877,
				"element": "C" 
			},
			{
				"x": -0.1619001192,
				"y": 1.5759902301,
				"z": -0.2639855017,
				"element": "C" 
			},
			{
				"x": 0.7146436731,
				"y": 2.5846253307,
				"z": 0.1183049492,
				"element": "C" 
			},
			{
				"x": 1.616665832,
				"y": 2.3873710398,
				"z": 1.1668247541,
				"element": "C" 
			},
			{
				"x": -1.1071237706,
				"y": -0.7106701501,
				"z": -0.0401767333,
				"element": "C" 
			},
			{
				"x": -1.9286927633,
				"y": -0.4193692793,
				"z": -1.0523709793,
				"element": "N" 
			},
			{
				"x": -2.6777774244,
				"y": -1.5256641231,
				"z": -1.2499563022,
				"element": "N" 
			},
			{
				"x": -2.3766555336,
				"y": -2.5250137432,
				"z": -0.4070987806,
				"element": "C" 
			},
			{
				"x": -1.3533877241,
				"y": -2.0625928535,
				"z": 0.4173700475,
				"element": "C" 
			},
			{
				"x": -0.8102595281,
				"y": -2.9430286364,
				"z": 1.4499709589,
				"element": "C" 
			},
			{
				"x": 0.0762184485,
				"y": -2.7135931561,
				"z": 2.2553674599,
				"element": "O" 
			},
			{
				"x": 0.7695546356,
				"y": -0.8182356177,
				"z": 1.9803034523,
				"element": "H" 
			},
			{
				"x": -0.8589384673,
				"y": 1.7352286302,
				"z": -1.0778742573,
				"element": "H" 
			},
			{
				"x": 0.7002222855,
				"y": 3.5376818312,
				"z": -0.4022721605,
				"element": "H" 
			},
			{
				"x": 2.3043433653,
				"y": 3.1680563652,
				"z": 1.4723567115,
				"element": "H" 
			},
			{
				"x": -3.3729207561,
				"y": -1.5164382166,
				"z": -1.9810255258,
				"element": "H" 
			},
			{
				"x": -2.8818742019,
				"y": -3.4802539489,
				"z": -0.4297558385,
				"element": "H" 
			},
			{
				"x": -1.307390128,
				"y": -3.9385193402,
				"z": 1.4560997602,
				"element": "H" 
			}
		],
		 "valence_orbital": [ 
			{
				"type": "occ",
				"energy": -0.29856,
				"method": "rhf"
			},
			{
				"type": "occ",
				"energy": -0.27639,
				"method": "rhf"
			},
			{
				"type": "occ",
				"energy": -0.25955,
				"method": "rhf"
			},
			{
				"type": "occ",
				"energy": -0.24436,
				"method": "rhf"
			},
			{
				"type": "occ",
				"energy": -0.23144,
				"method": "rhf"
			},
			{
				"type": "unocc",
				"energy": -0.0574,
				"method": "rhf"
			},
			{
				"type": "unocc",
				"energy": -0.03041,
				"method": "rhf"
			},
			{
				"type": "unocc",
				"energy": -0.00327,
				"method": "rhf"
			},
			{
				"type": "unocc",
				"energy": 0.02542,
				"method": "rhf"
			},
			{
				"type": "unocc",
				"energy": 0.04136,
				"method": "rhf"
			}
		],
		"cosmo_sigma_profile": { 
			"-0.025": 0.0,
			"-0.024": 0.0,
			"-0.023": 0.0,
			"-0.022": 0.0,
			"-0.021": 0.0,
			"-0.02": 0.0,
			"-0.019": 0.0,
			"-0.018": 1.09243415803,
			"-0.017": 1.91860636094,
			"-0.016": 1.78473404675,
			"-0.015": 1.16469795273,
			"-0.014": 0.692829039377,
			"-0.013": 0.867829770384,
			"-0.012": 1.36168607311,
			"-0.011": 3.19744438278,
			"-0.01": 3.90257754866,
			"-0.009": 2.66825227822,
			"-0.008": 3.29924445552,
			"-0.007": 6.54137608923,
			"-0.006": 8.0857301619,
			"-0.005": 9.27044292504,
			"-0.004": 9.02752068408,
			"-0.003": 7.34972497598,
			"-0.002": 9.85355910814,
			"-0.001": 10.9258296563,
			"0.0": 16.996731363,
			"0.001": 22.3804149791,
			"0.002": 23.7204639052,
			"0.003": 25.1729821401,
			"0.004": 19.522618692,
			"0.005": 12.8217246423,
			"0.006": 3.65924543636,
			"0.007": 3.25070160989,
			"0.008": 2.57391566579,
			"0.009": 2.91539770966,
			"0.01": 3.6052603862,
			"0.011": 3.06941861208,
			"0.012": 2.22248462927,
			"0.013": 0.892901135957,
			"0.014": 0.0,
			"0.015": 0.0,
			"0.016": 0.0,
			"0.017": 0.0,
			"0.018": 0.0,
			"0.019": 0.0,
			"0.02": 0.0,
			"0.021": 0.0,
			"0.022": 0.0,
			"0.023": 0.0,
			"0.024": 0.0,
			"0.025": 0.0
		}
	}
}
