{
	 "smiles": "BrC1=CC2=C(NC(=O)C2=O)C=C1", 
	 "Tm": 525.15, 
	 "num_atms": 16, 
	 "gaussian": { 
		 "optdone": 1, 
		 "sigma_profile": "yes", 
		 "theory": "DFT", 
		 "functional": "B3LYP", 
		 "basiset": "6-31G**", 
		 "properties": { 
			 "R2extent": 5407.486, 
			 "electric_dipole_moment_norm": 5.1736608103, 
			 "electric_quadrupole_moment_norm": 18.7634997423, 
			 "total_energy": -3083.86228034, 
			 "HOMO_LUMO_gap": 0.134, 
			 "cosmo_polarized_energy": -15.41, 
			 "cosmo_cavitation_energy": 24.09, 
			 "cosmo_dispersion_energy": -18.21, 
			 "cosmo_repulsion_energy": 1.45, 
			 "cosmo_total_nonelectrostatic_energy": 7.33, 
			 "SMD_solvation_energy": 4.33 
		},
		"coords": [
			{
				"x": -2.6295180277,
				"y": 1.624323477,
				"z": -3.3898669304,
				"element": "Br" 
			},
			{
				"x": -1.0749737174,
				"y": 1.3602459991,
				"z": -2.3131982514,
				"element": "C" 
			},
			{
				"x": 0.0106046052,
				"y": 0.6526183296,
				"z": -2.8291548058,
				"element": "C" 
			},
			{
				"x": 1.1221429584,
				"y": 0.4840443155,
				"z": -2.0099464415,
				"element": "C" 
			},
			{
				"x": 1.1558861128,
				"y": 1.0079938829,
				"z": -0.7026647774,
				"element": "C" 
			},
			{
				"x": 2.3779498906,
				"y": 0.7043990714,
				"z": -0.0880039403,
				"element": "N" 
			},
			{
				"x": 3.216963859,
				"y": -0.0223804347,
				"z": -0.9215119565,
				"element": "C" 
			},
			{
				"x": 4.3284599084,
				"y": -0.4248244099,
				"z": -0.6687913418,
				"element": "O" 
			},
			{
				"x": 2.4051011343,
				"y": -0.2012599885,
				"z": -2.2540626913,
				"element": "C" 
			},
			{
				"x": 2.8081708593,
				"y": -0.7888768873,
				"z": -3.2319803386,
				"element": "O" 
			},
			{
				"x": 0.0727790922,
				"y": 1.7127344473,
				"z": -0.1911687595,
				"element": "C" 
			},
			{
				"x": -1.0461423495,
				"y": 1.8825339185,
				"z": -1.0155768444,
				"element": "C" 
			},
			{
				"x": -0.0008359567,
				"y": 0.2435840888,
				"z": -3.833243558,
				"element": "H" 
			},
			{
				"x": 2.6391252322,
				"y": 0.9722410056,
				"z": 0.8497626614,
				"element": "H" 
			},
			{
				"x": 0.0812138597,
				"y": 2.1233242208,
				"z": 0.813385135,
				"element": "H" 
			},
			{
				"x": -1.9061274607,
				"y": 2.427998964,
				"z": -0.6433771595,
				"element": "H" 
			}
		],
		 "valence_orbital": [ 
			{
				"type": "occ",
				"energy": -0.30374,
				"method": "rhf"
			},
			{
				"type": "occ",
				"energy": -0.30131,
				"method": "rhf"
			},
			{
				"type": "occ",
				"energy": -0.29195,
				"method": "rhf"
			},
			{
				"type": "occ",
				"energy": -0.25575,
				"method": "rhf"
			},
			{
				"type": "occ",
				"energy": -0.24154,
				"method": "rhf"
			},
			{
				"type": "unocc",
				"energy": -0.10754,
				"method": "rhf"
			},
			{
				"type": "unocc",
				"energy": -0.03583,
				"method": "rhf"
			},
			{
				"type": "unocc",
				"energy": -0.00782,
				"method": "rhf"
			},
			{
				"type": "unocc",
				"energy": -0.00608,
				"method": "rhf"
			},
			{
				"type": "unocc",
				"energy": 0.06748,
				"method": "rhf"
			}
		],
		"cosmo_sigma_profile": { 
			"-0.025": 0.0,
			"-0.024": 0.0,
			"-0.023": 0.0,
			"-0.022": 0.0,
			"-0.021": 0.0,
			"-0.02": 0.0,
			"-0.019": 0.0,
			"-0.018": 0.0,
			"-0.017": 0.947481090687,
			"-0.016": 1.59501124889,
			"-0.015": 1.32198077585,
			"-0.014": 1.18249705891,
			"-0.013": 0.909767781384,
			"-0.012": 1.40062905427,
			"-0.011": 1.41150887996,
			"-0.01": 1.37845984596,
			"-0.009": 2.41348352582,
			"-0.008": 7.07036780268,
			"-0.007": 8.24349292482,
			"-0.006": 7.27806318113,
			"-0.005": 7.82141694068,
			"-0.004": 9.65809439271,
			"-0.003": 9.79617463235,
			"-0.002": 12.7119613898,
			"-0.001": 14.8152115717,
			"0.0": 17.2599194871,
			"0.001": 20.3151771934,
			"0.002": 9.6070435543,
			"0.003": 9.37810869934,
			"0.004": 12.7882253706,
			"0.005": 4.75771603748,
			"0.006": 3.00547858077,
			"0.007": 2.90346955072,
			"0.008": 4.23767238209,
			"0.009": 5.2511577911,
			"0.01": 8.35625484198,
			"0.011": 8.01069257835,
			"0.012": 2.1793777455,
			"0.013": 0.0564289696139,
			"0.014": 0.0,
			"0.015": 0.0,
			"0.016": 0.0,
			"0.017": 0.0,
			"0.018": 0.0,
			"0.019": 0.0,
			"0.02": 0.0,
			"0.021": 0.0,
			"0.022": 0.0,
			"0.023": 0.0,
			"0.024": 0.0,
			"0.025": 0.0
		}
	}
}
