{
	 "smiles": "CC1=C(Cl)C=C(C=CC(O)=O)C=C1", 
	 "Tm": 468.15, 
	 "num_atms": 22, 
	 "gaussian": { 
		 "optdone": 1, 
		 "sigma_profile": "yes", 
		 "theory": "DFT", 
		 "functional": "B3LYP", 
		 "basiset": "6-31G**", 
		 "properties": { 
			 "R2extent": 3836.9823, 
			 "electric_dipole_moment_norm": 3.26522435523, 
			 "electric_quadrupole_moment_norm": 6.16784402527, 
			 "total_energy": -997.130773938, 
			 "HOMO_LUMO_gap": 0.16878, 
			 "cosmo_polarized_energy": -10.77, 
			 "cosmo_cavitation_energy": 28.39, 
			 "cosmo_dispersion_energy": -20.51, 
			 "cosmo_repulsion_energy": 1.63, 
			 "cosmo_total_nonelectrostatic_energy": 9.52, 
			 "SMD_solvation_energy": 5.97 
		},
		"coords": [
			{
				"x": -4.3927892995,
				"y": -0.8689329397,
				"z": -1.6091645487,
				"element": "C" 
			},
			{
				"x": -2.9891874527,
				"y": -0.4988434341,
				"z": -1.2112411251,
				"element": "C" 
			},
			{
				"x": -2.642351773,
				"y": -0.1705964281,
				"z": 0.1097432068,
				"element": "C" 
			},
			{
				"x": -3.8893766591,
				"y": -0.1736495883,
				"z": 1.3576586697,
				"element": "Cl" 
			},
			{
				"x": -1.3486113674,
				"y": 0.1670789293,
				"z": 0.4882608956,
				"element": "C" 
			},
			{
				"x": -0.319767245,
				"y": 0.1933669145,
				"z": -0.4682763803,
				"element": "C" 
			},
			{
				"x": 1.0704754052,
				"y": 0.5821306263,
				"z": -0.1901698061,
				"element": "C" 
			},
			{
				"x": 1.8703065766,
				"y": 0.5253278071,
				"z": 0.8970035805,
				"element": "C" 
			},
			{
				"x": 1.6930151482,
				"y": -0.0517193126,
				"z": 2.2447026599,
				"element": "C" 
			},
			{
				"x": 0.583181481,
				"y": -0.8116415594,
				"z": 2.4243635227,
				"element": "O" 
			},
			{
				"x": 2.5085590604,
				"y": 0.1051471567,
				"z": 3.1339669469,
				"element": "O" 
			},
			{
				"x": -0.6561502638,
				"y": -0.1005464809,
				"z": -1.8023193823,
				"element": "C" 
			},
			{
				"x": -1.9539164148,
				"y": -0.4526497034,
				"z": -2.1550033946,
				"element": "C" 
			},
			{
				"x": -4.7416262406,
				"y": -1.7503007863,
				"z": -1.0602466151,
				"element": "H" 
			},
			{
				"x": -5.0963625076,
				"y": -0.0600787365,
				"z": -1.3843616672,
				"element": "H" 
			},
			{
				"x": -4.4476482221,
				"y": -1.0857025678,
				"z": -2.6786664505,
				"element": "H" 
			},
			{
				"x": -1.145043052,
				"y": 0.4119452063,
				"z": 1.5202196653,
				"element": "H" 
			},
			{
				"x": 1.5576706882,
				"y": 1.0088973865,
				"z": -1.067417479,
				"element": "H" 
			},
			{
				"x": 2.8646988825,
				"y": 0.9496645424,
				"z": 0.7994898111,
				"element": "H" 
			},
			{
				"x": 0.6363083629,
				"y": -1.134552055,
				"z": 3.3396176876,
				"element": "H" 
			},
			{
				"x": 0.1147122679,
				"y": -0.0622551409,
				"z": -2.567103528,
				"element": "H" 
			},
			{
				"x": -2.1820973755,
				"y": -0.6897898362,
				"z": -3.1904562693,
				"element": "H" 
			}
		],
		 "valence_orbital": [ 
			{
				"type": "occ",
				"energy": -0.31407,
				"method": "rhf"
			},
			{
				"type": "occ",
				"energy": -0.29984,
				"method": "rhf"
			},
			{
				"type": "occ",
				"energy": -0.2762,
				"method": "rhf"
			},
			{
				"type": "occ",
				"energy": -0.25487,
				"method": "rhf"
			},
			{
				"type": "occ",
				"energy": -0.23955,
				"method": "rhf"
			},
			{
				"type": "unocc",
				"energy": -0.07077,
				"method": "rhf"
			},
			{
				"type": "unocc",
				"energy": -0.01679,
				"method": "rhf"
			},
			{
				"type": "unocc",
				"energy": 0.00619,
				"method": "rhf"
			},
			{
				"type": "unocc",
				"energy": 0.02945,
				"method": "rhf"
			},
			{
				"type": "unocc",
				"energy": 0.07428,
				"method": "rhf"
			}
		],
		"cosmo_sigma_profile": { 
			"-0.025": 0.0,
			"-0.024": 0.0,
			"-0.023": 0.0,
			"-0.022": 0.0,
			"-0.021": 0.0,
			"-0.02": 0.0,
			"-0.019": 0.0,
			"-0.018": 0.573109682919,
			"-0.017": 0.901838590472,
			"-0.016": 1.12140365664,
			"-0.015": 0.271416224973,
			"-0.014": 0.594459953066,
			"-0.013": 0.860606776344,
			"-0.012": 0.971248749599,
			"-0.011": 0.884527926691,
			"-0.01": 0.835303403712,
			"-0.009": 0.265294987585,
			"-0.008": 1.06533462497,
			"-0.007": 7.46694949902,
			"-0.006": 10.8202428788,
			"-0.005": 12.9011612991,
			"-0.004": 12.1371231836,
			"-0.003": 14.5524093812,
			"-0.002": 17.2026057528,
			"-0.001": 20.1296731125,
			"0.0": 18.8205771696,
			"0.001": 18.335358511,
			"0.002": 21.8147464478,
			"0.003": 21.2960475897,
			"0.004": 14.973655494,
			"0.005": 8.47449719962,
			"0.006": 3.03877410482,
			"0.007": 2.33214070436,
			"0.008": 2.30034717754,
			"0.009": 1.804323011,
			"0.01": 1.62863463436,
			"0.011": 3.2103560278,
			"0.012": 5.32836545982,
			"0.013": 1.68232427589,
			"0.014": 0.0117077007104,
			"0.015": 0.0,
			"0.016": 0.0,
			"0.017": 0.0,
			"0.018": 0.0,
			"0.019": 0.0,
			"0.02": 0.0,
			"0.021": 0.0,
			"0.022": 0.0,
			"0.023": 0.0,
			"0.024": 0.0,
			"0.025": 0.0
		}
	}
}
