{
	 "smiles": "OC(=O)C1=CC2=C(N=C1)N(CC1=CN=CC=C1)N=C2", 
	 "Tm": 522.15, 
	 "num_atms": 29, 
	 "gaussian": { 
		 "optdone": 1, 
		 "sigma_profile": "yes", 
		 "theory": "DFT", 
		 "functional": "B3LYP", 
		 "basiset": "6-31G**", 
		 "properties": { 
			 "R2extent": 6222.7072, 
			 "electric_dipole_moment_norm": 5.47636430308, 
			 "electric_quadrupole_moment_norm": 19.59935808, 
			 "total_energy": -870.848690305, 
			 "HOMO_LUMO_gap": 0.17776, 
			 "cosmo_polarized_energy": -21.54, 
			 "cosmo_cavitation_energy": 34.94, 
			 "cosmo_dispersion_energy": -24.93, 
			 "cosmo_repulsion_energy": 1.89, 
			 "cosmo_total_nonelectrostatic_energy": 11.9, 
			 "SMD_solvation_energy": 3.33 
		},
		"coords": [
			{
				"x": 4.6133652537,
				"y": -2.4141579836,
				"z": -0.0087831112,
				"element": "O" 
			},
			{
				"x": 4.1638604184,
				"y": -1.2736149669,
				"z": 0.5834874258,
				"element": "C" 
			},
			{
				"x": 4.9515511668,
				"y": -0.4851853444,
				"z": 1.0505935534,
				"element": "O" 
			},
			{
				"x": 2.6827478539,
				"y": -1.0725589597,
				"z": 0.6217761561,
				"element": "C" 
			},
			{
				"x": 1.7607906168,
				"y": -2.1133239526,
				"z": 0.5152134633,
				"element": "C" 
			},
			{
				"x": 0.403567463,
				"y": -1.783298896,
				"z": 0.5973554416,
				"element": "C" 
			},
			{
				"x": 0.0806207266,
				"y": -0.4128397695,
				"z": 0.7858471089,
				"element": "C" 
			},
			{
				"x": 0.9403460928,
				"y": 0.6085520153,
				"z": 0.9062714368,
				"element": "N" 
			},
			{
				"x": 2.2171191986,
				"y": 0.2569078236,
				"z": 0.8311901006,
				"element": "C" 
			},
			{
				"x": -1.2779258465,
				"y": -0.3385966524,
				"z": 0.8477160714,
				"element": "N" 
			},
			{
				"x": -2.1008084616,
				"y": 0.8630997137,
				"z": 0.957346599,
				"element": "C" 
			},
			{
				"x": -2.6172191887,
				"y": 1.3584192703,
				"z": -0.3776904641,
				"element": "C" 
			},
			{
				"x": -2.1064614169,
				"y": 2.5274411462,
				"z": -0.9523863685,
				"element": "C" 
			},
			{
				"x": -2.5133106059,
				"y": 3.0280437841,
				"z": -2.1247721816,
				"element": "N" 
			},
			{
				"x": -3.4660890215,
				"y": 2.3549865384,
				"z": -2.7797639644,
				"element": "C" 
			},
			{
				"x": -4.0435868585,
				"y": 1.1752842753,
				"z": -2.3037660818,
				"element": "C" 
			},
			{
				"x": -3.6119555364,
				"y": 0.6696349812,
				"z": -1.0805707009,
				"element": "C" 
			},
			{
				"x": -1.8500520701,
				"y": -1.5655385202,
				"z": 0.6985948427,
				"element": "N" 
			},
			{
				"x": -0.8639114758,
				"y": -2.4354442817,
				"z": 0.5554117267,
				"element": "C" 
			},
			{
				"x": 3.8997557442,
				"y": -2.8426170428,
				"z": -0.500760144,
				"element": "H" 
			},
			{
				"x": 2.0746954062,
				"y": -3.1491400877,
				"z": 0.408141406,
				"element": "H" 
			},
			{
				"x": 2.9576194578,
				"y": 1.0447369368,
				"z": 0.9366155063,
				"element": "H" 
			},
			{
				"x": -2.9265902447,
				"y": 0.6199999042,
				"z": 1.6313939639,
				"element": "H" 
			},
			{
				"x": -1.4758355456,
				"y": 1.6231455621,
				"z": 1.4312096029,
				"element": "H" 
			},
			{
				"x": -1.3255892947,
				"y": 3.0860122993,
				"z": -0.436867877,
				"element": "H" 
			},
			{
				"x": -3.7842981574,
				"y": 2.7779432213,
				"z": -3.7311654919,
				"element": "H" 
			},
			{
				"x": -4.813881677,
				"y": 0.6708894419,
				"z": -2.8788251253,
				"element": "H" 
			},
			{
				"x": -4.0273612031,
				"y": -0.2488528408,
				"z": -0.6755602095,
				"element": "H" 
			},
			{
				"x": -1.0866627943,
				"y": -3.4867276152,
				"z": 0.4313473146,
				"element": "H" 
			}
		],
		 "valence_orbital": [ 
			{
				"type": "occ",
				"energy": -0.27936,
				"method": "rhf"
			},
			{
				"type": "occ",
				"energy": -0.26892,
				"method": "rhf"
			},
			{
				"type": "occ",
				"energy": -0.2682,
				"method": "rhf"
			},
			{
				"type": "occ",
				"energy": -0.26171,
				"method": "rhf"
			},
			{
				"type": "occ",
				"energy": -0.25133,
				"method": "rhf"
			},
			{
				"type": "unocc",
				"energy": -0.07357,
				"method": "rhf"
			},
			{
				"type": "unocc",
				"energy": -0.04352,
				"method": "rhf"
			},
			{
				"type": "unocc",
				"energy": -0.03337,
				"method": "rhf"
			},
			{
				"type": "unocc",
				"energy": -0.01932,
				"method": "rhf"
			},
			{
				"type": "unocc",
				"energy": 0.02187,
				"method": "rhf"
			}
		],
		"cosmo_sigma_profile": { 
			"-0.025": 0.0,
			"-0.024": 0.0,
			"-0.023": 0.0,
			"-0.022": 0.0,
			"-0.021": 0.0,
			"-0.02": 0.0,
			"-0.019": 0.693354320987,
			"-0.018": 1.29405545715,
			"-0.017": 0.900673758152,
			"-0.016": 1.0491252716,
			"-0.015": 0.861018069126,
			"-0.014": 1.30111099798,
			"-0.013": 0.985382473731,
			"-0.012": 1.3294995548,
			"-0.011": 1.69993570136,
			"-0.01": 1.5011404773,
			"-0.009": 2.39822261769,
			"-0.008": 5.28963195317,
			"-0.007": 12.2444889533,
			"-0.006": 18.0005906806,
			"-0.005": 17.2747391376,
			"-0.004": 16.180599265,
			"-0.003": 14.3833864263,
			"-0.002": 16.9103794941,
			"-0.001": 23.6274209398,
			"0.0": 22.5841760129,
			"0.001": 19.9060853175,
			"0.002": 20.6943827461,
			"0.003": 13.4173080698,
			"0.004": 8.26888881564,
			"0.005": 7.62438359248,
			"0.006": 5.4327137992,
			"0.007": 6.26844575522,
			"0.008": 6.13294989143,
			"0.009": 6.2510965041,
			"0.01": 7.99816663801,
			"0.011": 7.34439545111,
			"0.012": 6.34421624669,
			"0.013": 2.76985953342,
			"0.014": 0.858085812546,
			"0.015": 0.513698118216,
			"0.016": 1.10946549022,
			"0.017": 0.207231040647,
			"0.018": 0.0,
			"0.019": 0.0,
			"0.02": 0.0,
			"0.021": 0.0,
			"0.022": 0.0,
			"0.023": 0.0,
			"0.024": 0.0,
			"0.025": 0.0
		}
	}
}
