{
	 "smiles": "ClS(=O)(=O)N1CCN(CC2=CC=CC=C2)C1=O", 
	 "Tm": 386.15, 
	 "num_atms": 28, 
	 "gaussian": { 
		 "optdone": 1, 
		 "sigma_profile": "yes", 
		 "theory": "DFT", 
		 "functional": "B3LYP", 
		 "basiset": "6-31G**", 
		 "properties": { 
			 "R2extent": 6364.4607, 
			 "electric_dipole_moment_norm": 7.34697836801, 
			 "electric_quadrupole_moment_norm": 18.3886642848, 
			 "total_energy": -1581.18908299, 
			 "HOMO_LUMO_gap": 0.17338, 
			 "cosmo_polarized_energy": -17.05, 
			 "cosmo_cavitation_energy": 35.45, 
			 "cosmo_dispersion_energy": -25.18, 
			 "cosmo_repulsion_energy": 1.91, 
			 "cosmo_total_nonelectrostatic_energy": 12.19, 
			 "SMD_solvation_energy": 4.42 
		},
		"coords": [
			{
				"x": 0.9541573724,
				"y": -2.5313052543,
				"z": 2.6880499741,
				"element": "Cl" 
			},
			{
				"x": 1.2213456481,
				"y": -3.6270846851,
				"z": 0.8825395145,
				"element": "S" 
			},
			{
				"x": 0.1237009305,
				"y": -4.562439651,
				"z": 0.7922495464,
				"element": "O" 
			},
			{
				"x": 2.6190927962,
				"y": -4.0244730513,
				"z": 0.8673709334,
				"element": "O" 
			},
			{
				"x": 1.0726514422,
				"y": -2.448464563,
				"z": -0.2909889342,
				"element": "N" 
			},
			{
				"x": 2.215296616,
				"y": -1.5532022836,
				"z": -0.5605383664,
				"element": "C" 
			},
			{
				"x": 1.5862766116,
				"y": -0.5600079587,
				"z": -1.5523910151,
				"element": "C" 
			},
			{
				"x": 0.1768820073,
				"y": -0.6044821517,
				"z": -1.1916481001,
				"element": "N" 
			},
			{
				"x": -0.8265665539,
				"y": 0.2511555394,
				"z": -1.8124370117,
				"element": "C" 
			},
			{
				"x": -0.6396487383,
				"y": 1.7168818967,
				"z": -1.4685232344,
				"element": "C" 
			},
			{
				"x": -0.6304388942,
				"y": 2.1351531579,
				"z": -0.1302426982,
				"element": "C" 
			},
			{
				"x": -0.4757289867,
				"y": 3.4833522488,
				"z": 0.1876115811,
				"element": "C" 
			},
			{
				"x": -0.3303602072,
				"y": 4.4325148704,
				"z": -0.8285160255,
				"element": "C" 
			},
			{
				"x": -0.3387188334,
				"y": 4.0250611479,
				"z": -2.1622578489,
				"element": "C" 
			},
			{
				"x": -0.4892759446,
				"y": 2.6724140407,
				"z": -2.4784971598,
				"element": "C" 
			},
			{
				"x": -0.1707797012,
				"y": -1.7476511172,
				"z": -0.5216163715,
				"element": "C" 
			},
			{
				"x": -1.2713401473,
				"y": -2.1172018267,
				"z": -0.1830007237,
				"element": "O" 
			},
			{
				"x": 3.0516158836,
				"y": -2.1129193716,
				"z": -0.9768583856,
				"element": "H" 
			},
			{
				"x": 2.5351408064,
				"y": -1.0491192977,
				"z": 0.3588874913,
				"element": "H" 
			},
			{
				"x": 1.7378978593,
				"y": -0.8814826342,
				"z": -2.5929580974,
				"element": "H" 
			},
			{
				"x": 1.9914114752,
				"y": 0.4484121586,
				"z": -1.4363228812,
				"element": "H" 
			},
			{
				"x": -1.7924707611,
				"y": -0.1184590504,
				"z": -1.45506279,
				"element": "H" 
			},
			{
				"x": -0.8035948527,
				"y": 0.1175338204,
				"z": -2.9030104565,
				"element": "H" 
			},
			{
				"x": -0.7467000776,
				"y": 1.3990569672,
				"z": 0.6608888959,
				"element": "H" 
			},
			{
				"x": -0.4733544395,
				"y": 3.7955756652,
				"z": 1.2279837252,
				"element": "H" 
			},
			{
				"x": -0.2118935815,
				"y": 5.483056615,
				"z": -0.5796918002,
				"element": "H" 
			},
			{
				"x": -0.2248233549,
				"y": 4.7562278624,
				"z": -2.9573707605,
				"element": "H" 
			},
			{
				"x": -0.4942743747,
				"y": 2.358096906,
				"z": -3.519649001,
				"element": "H" 
			}
		],
		 "valence_orbital": [ 
			{
				"type": "occ",
				"energy": -0.30703,
				"method": "rhf"
			},
			{
				"type": "occ",
				"energy": -0.29256,
				"method": "rhf"
			},
			{
				"type": "occ",
				"energy": -0.27362,
				"method": "rhf"
			},
			{
				"type": "occ",
				"energy": -0.26498,
				"method": "rhf"
			},
			{
				"type": "occ",
				"energy": -0.25776,
				"method": "rhf"
			},
			{
				"type": "unocc",
				"energy": -0.08438,
				"method": "rhf"
			},
			{
				"type": "unocc",
				"energy": -0.02116,
				"method": "rhf"
			},
			{
				"type": "unocc",
				"energy": -0.01586,
				"method": "rhf"
			},
			{
				"type": "unocc",
				"energy": 0.01808,
				"method": "rhf"
			},
			{
				"type": "unocc",
				"energy": 0.05172,
				"method": "rhf"
			}
		],
		"cosmo_sigma_profile": { 
			"-0.025": 0.0,
			"-0.024": 0.0,
			"-0.023": 0.0,
			"-0.022": 0.0,
			"-0.021": 0.0,
			"-0.02": 0.0,
			"-0.019": 0.0,
			"-0.018": 0.0,
			"-0.017": 0.0,
			"-0.016": 0.0,
			"-0.015": 0.0,
			"-0.014": 0.0,
			"-0.013": 0.0,
			"-0.012": 0.0,
			"-0.011": 0.0,
			"-0.01": 0.0,
			"-0.009": 0.108506748947,
			"-0.008": 3.65053401621,
			"-0.007": 12.9804259861,
			"-0.006": 25.603915087,
			"-0.005": 23.1949912193,
			"-0.004": 22.8618210586,
			"-0.003": 22.7233676172,
			"-0.002": 15.720415145,
			"-0.001": 16.7512152457,
			"0.0": 15.6421941654,
			"0.001": 15.3009282763,
			"0.002": 18.7350253376,
			"0.003": 21.605886929,
			"0.004": 13.7608291156,
			"0.005": 12.6547026404,
			"0.006": 8.74044178843,
			"0.007": 10.9507580282,
			"0.008": 9.75466883133,
			"0.009": 2.79144017918,
			"0.01": 2.11654195218,
			"0.011": 4.73149610406,
			"0.012": 4.13536794934,
			"0.013": 0.605610969028,
			"0.014": 0.0,
			"0.015": 0.0,
			"0.016": 0.0,
			"0.017": 0.0,
			"0.018": 0.0,
			"0.019": 0.0,
			"0.02": 0.0,
			"0.021": 0.0,
			"0.022": 0.0,
			"0.023": 0.0,
			"0.024": 0.0,
			"0.025": 0.0
		}
	}
}
