{
	 "smiles": "CC1=NC2=NC(N)=NN2C(C)=C1", 
	 "Tm": 643.15, 
	 "num_atms": 21, 
	 "gaussian": { 
		 "optdone": 1, 
		 "sigma_profile": "yes", 
		 "theory": "DFT", 
		 "functional": "B3LYP", 
		 "basiset": "6-31G**", 
		 "properties": { 
			 "R2extent": 2258.1531, 
			 "electric_dipole_moment_norm": 3.4484145067, 
			 "electric_quadrupole_moment_norm": 13.3221328773, 
			 "total_energy": -545.936531716, 
			 "HOMO_LUMO_gap": 0.17522, 
			 "cosmo_polarized_energy": -16.12, 
			 "cosmo_cavitation_energy": 25.1, 
			 "cosmo_dispersion_energy": -18.92, 
			 "cosmo_repulsion_energy": 1.52, 
			 "cosmo_total_nonelectrostatic_energy": 7.69, 
			 "SMD_solvation_energy": 0.11 
		},
		"coords": [
			{
				"x": 0.6779903222,
				"y": 0.5077542635,
				"z": 3.4054696656,
				"element": "C" 
			},
			{
				"x": 0.6378228955,
				"y": 0.210306131,
				"z": 1.9280442873,
				"element": "C" 
			},
			{
				"x": 0.7529740165,
				"y": -1.0694206789,
				"z": 1.5770817623,
				"element": "N" 
			},
			{
				"x": 0.7184666108,
				"y": -1.3477726668,
				"z": 0.2696890133,
				"element": "C" 
			},
			{
				"x": 0.8095061467,
				"y": -2.5228124879,
				"z": -0.352610909,
				"element": "N" 
			},
			{
				"x": 0.7108392058,
				"y": -2.1842799893,
				"z": -1.6611979905,
				"element": "C" 
			},
			{
				"x": 0.8069081512,
				"y": -3.1219587918,
				"z": -2.6541220096,
				"element": "N" 
			},
			{
				"x": 0.5562838189,
				"y": -0.878564181,
				"z": -1.9477311622,
				"element": "N" 
			},
			{
				"x": 0.5656339594,
				"y": -0.3380989444,
				"z": -0.6971543441,
				"element": "N" 
			},
			{
				"x": 0.4471419871,
				"y": 0.9713912686,
				"z": -0.3701955523,
				"element": "C" 
			},
			{
				"x": 0.2921412852,
				"y": 1.9610068988,
				"z": -1.4787649649,
				"element": "C" 
			},
			{
				"x": 0.4840501667,
				"y": 1.2552604109,
				"z": 0.9833956561,
				"element": "C" 
			},
			{
				"x": -0.1297793135,
				"y": -0.0240233547,
				"z": 3.918310875,
				"element": "H" 
			},
			{
				"x": 1.6189484221,
				"y": 0.1502499522,
				"z": 3.8354737143,
				"element": "H" 
			},
			{
				"x": 0.5809614076,
				"y": 1.5766279012,
				"z": 3.610230659,
				"element": "H" 
			},
			{
				"x": 0.4244956629,
				"y": -2.8553722981,
				"z": -3.5488832901,
				"element": "H" 
			},
			{
				"x": 0.6138478006,
				"y": -4.0674345776,
				"z": -2.3598414174,
				"element": "H" 
			},
			{
				"x": -0.5977918789,
				"y": 1.7316023765,
				"z": -2.0741000594,
				"element": "H" 
			},
			{
				"x": 0.2104652532,
				"y": 2.9736397125,
				"z": -1.0802360371,
				"element": "H" 
			},
			{
				"x": 1.1465396437,
				"y": 1.9059764996,
				"z": -2.161363043,
				"element": "H" 
			},
			{
				"x": 0.3948544363,
				"y": 2.2844225556,
				"z": 1.3098051468,
				"element": "H" 
			}
		],
		 "valence_orbital": [ 
			{
				"type": "occ",
				"energy": -0.29962,
				"method": "rhf"
			},
			{
				"type": "occ",
				"energy": -0.2716,
				"method": "rhf"
			},
			{
				"type": "occ",
				"energy": -0.26193,
				"method": "rhf"
			},
			{
				"type": "occ",
				"energy": -0.23622,
				"method": "rhf"
			},
			{
				"type": "occ",
				"energy": -0.21752,
				"method": "rhf"
			},
			{
				"type": "unocc",
				"energy": -0.0423,
				"method": "rhf"
			},
			{
				"type": "unocc",
				"energy": -0.00055,
				"method": "rhf"
			},
			{
				"type": "unocc",
				"energy": 0.07524,
				"method": "rhf"
			},
			{
				"type": "unocc",
				"energy": 0.09282,
				"method": "rhf"
			},
			{
				"type": "unocc",
				"energy": 0.09982,
				"method": "rhf"
			}
		],
		"cosmo_sigma_profile": { 
			"-0.025": 0.0,
			"-0.024": 0.0,
			"-0.023": 0.0,
			"-0.022": 0.0,
			"-0.021": 0.0,
			"-0.02": 0.0,
			"-0.019": 0.0,
			"-0.018": 0.0,
			"-0.017": 0.0,
			"-0.016": 0.0,
			"-0.015": 0.0,
			"-0.014": 0.831359966936,
			"-0.013": 1.94969485197,
			"-0.012": 2.679398699,
			"-0.011": 2.14559666644,
			"-0.01": 2.06196327929,
			"-0.009": 2.0404967061,
			"-0.008": 2.48469969255,
			"-0.007": 6.03088209569,
			"-0.006": 9.0805289795,
			"-0.005": 13.4143230637,
			"-0.004": 13.7127783637,
			"-0.003": 19.0324397319,
			"-0.002": 21.0046744002,
			"-0.001": 20.8418404765,
			"0.0": 13.4047525349,
			"0.001": 8.55894111357,
			"0.002": 6.59617770211,
			"0.003": 4.63854063899,
			"0.004": 4.65888064726,
			"0.005": 4.8863934944,
			"0.006": 4.58810243764,
			"0.007": 4.66457937722,
			"0.008": 4.32655461684,
			"0.009": 3.70570320879,
			"0.01": 3.02994341849,
			"0.011": 4.17104301102,
			"0.012": 3.94570728442,
			"0.013": 3.98684288888,
			"0.014": 3.13644569963,
			"0.015": 2.13738228378,
			"0.016": 1.44099858526,
			"0.017": 0.344261805376,
			"0.018": 0.0,
			"0.019": 0.0,
			"0.02": 0.0,
			"0.021": 0.0,
			"0.022": 0.0,
			"0.023": 0.0,
			"0.024": 0.0,
			"0.025": 0.0
		}
	}
}
