{
	 "smiles": "CC1=C2CCC2=C(C)C(C)=C1", 
	 "Tm": 297.15, 
	 "num_atms": 25, 
	 "gaussian": { 
		 "optdone": 1, 
		 "sigma_profile": "yes", 
		 "theory": "DFT", 
		 "functional": "B3LYP", 
		 "basiset": "6-31G**", 
		 "properties": { 
			 "R2extent": 1980.7214, 
			 "electric_dipole_moment_norm": 0.220479590892, 
			 "electric_quadrupole_moment_norm": 3.19522198133, 
			 "total_energy": -427.595649888, 
			 "HOMO_LUMO_gap": 0.22362, 
			 "cosmo_polarized_energy": -3.0, 
			 "cosmo_cavitation_energy": 26.89, 
			 "cosmo_dispersion_energy": -19.44, 
			 "cosmo_repulsion_energy": 1.58, 
			 "cosmo_total_nonelectrostatic_energy": 9.04, 
			 "SMD_solvation_energy": 4.17 
		},
		"coords": [
			{
				"x": -3.1317190175,
				"y": 1.2107675664,
				"z": 0.0477663296,
				"element": "C" 
			},
			{
				"x": -1.8196541625,
				"y": 0.4719162353,
				"z": -0.0366732301,
				"element": "C" 
			},
			{
				"x": -1.4944453243,
				"y": -0.6152066797,
				"z": 0.7673121938,
				"element": "C" 
			},
			{
				"x": -2.0095773765,
				"y": -1.5121859358,
				"z": 1.8841776038,
				"element": "C" 
			},
			{
				"x": -0.6264724457,
				"y": -2.2719710113,
				"z": 1.7778792818,
				"element": "C" 
			},
			{
				"x": -0.2761906014,
				"y": -1.2830172582,
				"z": 0.6723907057,
				"element": "C" 
			},
			{
				"x": 0.7272913518,
				"y": -0.9358672554,
				"z": -0.2245719683,
				"element": "C" 
			},
			{
				"x": 2.039269403,
				"y": -1.6751443255,
				"z": -0.3084221658,
				"element": "C" 
			},
			{
				"x": 0.42473326,
				"y": 0.1697363485,
				"z": -1.0586037528,
				"element": "C" 
			},
			{
				"x": 1.4353112303,
				"y": 0.6460434938,
				"z": -2.077501611,
				"element": "C" 
			},
			{
				"x": -0.8107020802,
				"y": 0.8325286929,
				"z": -0.9491293746,
				"element": "C" 
			},
			{
				"x": -3.288725592,
				"y": 1.6352778079,
				"z": 1.046583059,
				"element": "H" 
			},
			{
				"x": -3.97992844,
				"y": 0.5447276346,
				"z": -0.1508388223,
				"element": "H" 
			},
			{
				"x": -3.1753713797,
				"y": 2.0312092402,
				"z": -0.674299532,
				"element": "H" 
			},
			{
				"x": -2.1878558365,
				"y": -1.0232504895,
				"z": 2.8486490572,
				"element": "H" 
			},
			{
				"x": -2.8856299471,
				"y": -2.1246510229,
				"z": 1.6423789224,
				"element": "H" 
			},
			{
				"x": -0.0082383406,
				"y": -2.2198983255,
				"z": 2.6809811031,
				"element": "H" 
			},
			{
				"x": -0.7062203846,
				"y": -3.3217105235,
				"z": 1.4742280228,
				"element": "H" 
			},
			{
				"x": 2.8926545223,
				"y": -1.0152914987,
				"z": -0.1082943982,
				"element": "H" 
			},
			{
				"x": 2.2019568303,
				"y": -2.1053491678,
				"z": -1.3044972323,
				"element": "H" 
			},
			{
				"x": 2.0741811508,
				"y": -2.4927807649,
				"z": 0.416511698,
				"element": "H" 
			},
			{
				"x": 2.3776600352,
				"y": 0.9494625914,
				"z": -1.6042444221,
				"element": "H" 
			},
			{
				"x": 1.0567929978,
				"y": 1.5028684757,
				"z": -2.6412438444,
				"element": "H" 
			},
			{
				"x": 1.687384783,
				"y": -0.1414876739,
				"z": -2.7988117395,
				"element": "H" 
			},
			{
				"x": -0.9941046362,
				"y": 1.675973846,
				"z": -1.6127258837,
				"element": "H" 
			}
		],
		 "valence_orbital": [ 
			{
				"type": "occ",
				"energy": -0.31871,
				"method": "rhf"
			},
			{
				"type": "occ",
				"energy": -0.30583,
				"method": "rhf"
			},
			{
				"type": "occ",
				"energy": -0.29945,
				"method": "rhf"
			},
			{
				"type": "occ",
				"energy": -0.22288,
				"method": "rhf"
			},
			{
				"type": "occ",
				"energy": -0.2158,
				"method": "rhf"
			},
			{
				"type": "unocc",
				"energy": 0.00782,
				"method": "rhf"
			},
			{
				"type": "unocc",
				"energy": 0.02098,
				"method": "rhf"
			},
			{
				"type": "unocc",
				"energy": 0.09527,
				"method": "rhf"
			},
			{
				"type": "unocc",
				"energy": 0.10941,
				"method": "rhf"
			},
			{
				"type": "unocc",
				"energy": 0.11565,
				"method": "rhf"
			}
		],
		"cosmo_sigma_profile": { 
			"-0.025": 0.0,
			"-0.024": 0.0,
			"-0.023": 0.0,
			"-0.022": 0.0,
			"-0.021": 0.0,
			"-0.02": 0.0,
			"-0.019": 0.0,
			"-0.018": 0.0,
			"-0.017": 0.0,
			"-0.016": 0.0,
			"-0.015": 0.0,
			"-0.014": 0.0,
			"-0.013": 0.0,
			"-0.012": 0.0,
			"-0.011": 0.0,
			"-0.01": 0.0,
			"-0.009": 0.0,
			"-0.008": 0.0,
			"-0.007": 0.0,
			"-0.006": 0.0,
			"-0.005": 0.0188627055627,
			"-0.004": 12.5540811669,
			"-0.003": 29.8019509152,
			"-0.002": 25.7251137326,
			"-0.001": 31.7637340232,
			"0.0": 37.1353593112,
			"0.001": 28.400159484,
			"0.002": 11.8089377681,
			"0.003": 8.36308517253,
			"0.004": 5.36686015301,
			"0.005": 6.1665892311,
			"0.006": 5.57799127332,
			"0.007": 5.64180645641,
			"0.008": 2.53113694971,
			"0.009": 0.00195587311928,
			"0.01": 0.0,
			"0.011": 0.0,
			"0.012": 0.0,
			"0.013": 0.0,
			"0.014": 0.0,
			"0.015": 0.0,
			"0.016": 0.0,
			"0.017": 0.0,
			"0.018": 0.0,
			"0.019": 0.0,
			"0.02": 0.0,
			"0.021": 0.0,
			"0.022": 0.0,
			"0.023": 0.0,
			"0.024": 0.0,
			"0.025": 0.0
		}
	}
}
