{
	 "smiles": "ClCC(Cl)=O", 
	 "Tm": 251.15, 
	 "num_atms": 7, 
	 "gaussian": { 
		 "optdone": 1, 
		 "sigma_profile": "yes", 
		 "theory": "DFT", 
		 "functional": "B3LYP", 
		 "basiset": "6-31G**", 
		 "properties": { 
			 "R2extent": 1415.8486, 
			 "electric_dipole_moment_norm": 2.23985118479, 
			 "electric_quadrupole_moment_norm": 5.5908820136, 
			 "total_energy": -1073.02078511, 
			 "HOMO_LUMO_gap": 0.23245, 
			 "cosmo_polarized_energy": -6.07, 
			 "cosmo_cavitation_energy": 15.12, 
			 "cosmo_dispersion_energy": -11.41, 
			 "cosmo_repulsion_energy": 1.03, 
			 "cosmo_total_nonelectrostatic_energy": 4.75, 
			 "SMD_solvation_energy": 3.2 
		},
		"coords": [
			{
				"x": -0.5393985524,
				"y": -0.3200425948,
				"z": -1.7494146466,
				"element": "Cl" 
			},
			{
				"x": -0.7951701747,
				"y": 1.0993097949,
				"z": -0.6736231591,
				"element": "C" 
			},
			{
				"x": 0.4696781161,
				"y": 1.9307028428,
				"z": -0.5307450241,
				"element": "C" 
			},
			{
				"x": 0.9435552328,
				"y": 2.7763228051,
				"z": -2.0508438252,
				"element": "Cl" 
			},
			{
				"x": 1.0937297148,
				"y": 2.0589316252,
				"z": 0.4735618621,
				"element": "O" 
			},
			{
				"x": -1.0665911073,
				"y": 0.7315083187,
				"z": 0.3153376309,
				"element": "H" 
			},
			{
				"x": -1.5970032293,
				"y": 1.702367208,
				"z": -1.1015728381,
				"element": "H" 
			}
		],
		 "valence_orbital": [ 
			{
				"type": "occ",
				"energy": -0.34747,
				"method": "rhf"
			},
			{
				"type": "occ",
				"energy": -0.33961,
				"method": "rhf"
			},
			{
				"type": "occ",
				"energy": -0.33213,
				"method": "rhf"
			},
			{
				"type": "occ",
				"energy": -0.32301,
				"method": "rhf"
			},
			{
				"type": "occ",
				"energy": -0.30716,
				"method": "rhf"
			},
			{
				"type": "unocc",
				"energy": -0.07471,
				"method": "rhf"
			},
			{
				"type": "unocc",
				"energy": 0.00573,
				"method": "rhf"
			},
			{
				"type": "unocc",
				"energy": 0.01731,
				"method": "rhf"
			},
			{
				"type": "unocc",
				"energy": 0.09846,
				"method": "rhf"
			},
			{
				"type": "unocc",
				"energy": 0.11395,
				"method": "rhf"
			}
		],
		"cosmo_sigma_profile": { 
			"-0.025": 0.0,
			"-0.024": 0.0,
			"-0.023": 0.0,
			"-0.022": 0.0,
			"-0.021": 0.0,
			"-0.02": 0.0,
			"-0.019": 0.0,
			"-0.018": 0.0,
			"-0.017": 0.0,
			"-0.016": 0.0,
			"-0.015": 0.0,
			"-0.014": 0.0,
			"-0.013": 0.0,
			"-0.012": 0.0225673470222,
			"-0.011": 2.1534124953,
			"-0.01": 4.86238320546,
			"-0.009": 4.34858842619,
			"-0.008": 4.89902711135,
			"-0.007": 3.96346545118,
			"-0.006": 3.04904098413,
			"-0.005": 2.43245936856,
			"-0.004": 4.19080003423,
			"-0.003": 4.79100937721,
			"-0.002": 5.78709280714,
			"-0.001": 6.79869908468,
			"0.0": 8.11616292759,
			"0.001": 8.72791010877,
			"0.002": 10.317108598,
			"0.003": 16.5867162856,
			"0.004": 16.7151932495,
			"0.005": 7.35124106713,
			"0.006": 2.88355278756,
			"0.007": 4.39025036065,
			"0.008": 3.04193590583,
			"0.009": 0.155174801833,
			"0.01": 0.0,
			"0.011": 0.0,
			"0.012": 0.0,
			"0.013": 0.0,
			"0.014": 0.0,
			"0.015": 0.0,
			"0.016": 0.0,
			"0.017": 0.0,
			"0.018": 0.0,
			"0.019": 0.0,
			"0.02": 0.0,
			"0.021": 0.0,
			"0.022": 0.0,
			"0.023": 0.0,
			"0.024": 0.0,
			"0.025": 0.0
		}
	}
}
