{
	 "smiles": "CC(=O)CC1=CNC2=CC=CC=C12", 
	 "Tm": 389.15, 
	 "num_atms": 24, 
	 "gaussian": { 
		 "optdone": 1, 
		 "sigma_profile": "yes", 
		 "theory": "DFT", 
		 "functional": "B3LYP", 
		 "basiset": "6-31G**", 
		 "properties": { 
			 "R2extent": 3162.9046, 
			 "electric_dipole_moment_norm": 2.51186984137, 
			 "electric_quadrupole_moment_norm": 18.7125122127, 
			 "total_energy": -555.781205401, 
			 "HOMO_LUMO_gap": 0.187, 
			 "cosmo_polarized_energy": -12.57, 
			 "cosmo_cavitation_energy": 27.93, 
			 "cosmo_dispersion_energy": -19.77, 
			 "cosmo_repulsion_energy": 1.57, 
			 "cosmo_total_nonelectrostatic_energy": 9.73, 
			 "SMD_solvation_energy": 5.34 
		},
		"coords": [
			{
				"x": -0.1513742338,
				"y": 2.9687724235,
				"z": 3.0318713175,
				"element": "C" 
			},
			{
				"x": 1.0247467483,
				"y": 2.0474779753,
				"z": 2.7679670115,
				"element": "C" 
			},
			{
				"x": 1.6167777003,
				"y": 1.4781182196,
				"z": 3.6649483888,
				"element": "O" 
			},
			{
				"x": 1.4273872512,
				"y": 1.8402024959,
				"z": 1.3019839846,
				"element": "C" 
			},
			{
				"x": 0.4677091584,
				"y": 0.9033093117,
				"z": 0.6126796895,
				"element": "C" 
			},
			{
				"x": 0.4113232814,
				"y": -0.4599017489,
				"z": 0.7785212422,
				"element": "C" 
			},
			{
				"x": -0.6170004728,
				"y": -0.9843638684,
				"z": 0.0197826517,
				"element": "N" 
			},
			{
				"x": -1.253910347,
				"y": 0.0370244088,
				"z": -0.6546109324,
				"element": "C" 
			},
			{
				"x": -2.3374272545,
				"y": 0.0052871336,
				"z": -1.5388799833,
				"element": "C" 
			},
			{
				"x": -2.7666388229,
				"y": 1.2150986954,
				"z": -2.0722872067,
				"element": "C" 
			},
			{
				"x": -2.1309299067,
				"y": 2.4282261544,
				"z": -1.7356587964,
				"element": "C" 
			},
			{
				"x": -1.0544582364,
				"y": 2.4549110572,
				"z": -0.8580597025,
				"element": "C" 
			},
			{
				"x": -0.5959899117,
				"y": 1.2480855394,
				"z": -0.2992972676,
				"element": "C" 
			},
			{
				"x": -0.9946261648,
				"y": 2.723103,
				"z": 2.3784678755,
				"element": "H" 
			},
			{
				"x": 0.137631887,
				"y": 4.0035080577,
				"z": 2.8082861306,
				"element": "H" 
			},
			{
				"x": -0.4508834307,
				"y": 2.9001143972,
				"z": 4.0786486184,
				"element": "H" 
			},
			{
				"x": 2.44300286,
				"y": 1.4347387903,
				"z": 1.3012367422,
				"element": "H" 
			},
			{
				"x": 1.4435606656,
				"y": 2.8030608716,
				"z": 0.7779119944,
				"element": "H" 
			},
			{
				"x": 1.0318421702,
				"y": -1.1017032474,
				"z": 1.3881279677,
				"element": "H" 
			},
			{
				"x": -0.8538141671,
				"y": -1.9610313559,
				"z": -0.0398877247,
				"element": "H" 
			},
			{
				"x": -2.8264371857,
				"y": -0.929242927,
				"z": -1.7996666834,
				"element": "H" 
			},
			{
				"x": -3.6059002457,
				"y": 1.2259559524,
				"z": -2.7614176835,
				"element": "H" 
			},
			{
				"x": -2.4913703063,
				"y": 3.3549951261,
				"z": -2.1723277335,
				"element": "H" 
			},
			{
				"x": -0.5732210361,
				"y": 3.3971535376,
				"z": -0.6094399006,
				"element": "H" 
			}
		],
		 "valence_orbital": [ 
			{
				"type": "occ",
				"energy": -0.3317,
				"method": "rhf"
			},
			{
				"type": "occ",
				"energy": -0.27928,
				"method": "rhf"
			},
			{
				"type": "occ",
				"energy": -0.23969,
				"method": "rhf"
			},
			{
				"type": "occ",
				"energy": -0.2235,
				"method": "rhf"
			},
			{
				"type": "occ",
				"energy": -0.20125,
				"method": "rhf"
			},
			{
				"type": "unocc",
				"energy": -0.01425,
				"method": "rhf"
			},
			{
				"type": "unocc",
				"energy": -0.00498,
				"method": "rhf"
			},
			{
				"type": "unocc",
				"energy": 0.02553,
				"method": "rhf"
			},
			{
				"type": "unocc",
				"energy": 0.0645,
				"method": "rhf"
			},
			{
				"type": "unocc",
				"energy": 0.07695,
				"method": "rhf"
			}
		],
		"cosmo_sigma_profile": { 
			"-0.025": 0.0,
			"-0.024": 0.0,
			"-0.023": 0.0,
			"-0.022": 0.0,
			"-0.021": 0.0,
			"-0.02": 0.0,
			"-0.019": 0.0,
			"-0.018": 0.0,
			"-0.017": 0.0,
			"-0.016": 0.55042937367,
			"-0.015": 1.63098169262,
			"-0.014": 0.982209857875,
			"-0.013": 1.37404927856,
			"-0.012": 1.05435807373,
			"-0.011": 1.2953770944,
			"-0.01": 1.40625484535,
			"-0.009": 1.13141573026,
			"-0.008": 3.07398811911,
			"-0.007": 3.80245970829,
			"-0.006": 9.81863138396,
			"-0.005": 15.1391565518,
			"-0.004": 16.312155064,
			"-0.003": 20.2269869339,
			"-0.002": 19.0555874507,
			"-0.001": 19.6092232892,
			"0.0": 12.5702111989,
			"0.001": 10.1269480575,
			"0.002": 10.8846029835,
			"0.003": 10.7194836706,
			"0.004": 12.2837367407,
			"0.005": 13.0971617374,
			"0.006": 11.1586118305,
			"0.007": 8.56744044257,
			"0.008": 1.88381244749,
			"0.009": 1.5281019959,
			"0.01": 2.12963928645,
			"0.011": 2.81402110518,
			"0.012": 4.42627316116,
			"0.013": 2.90751558517,
			"0.014": 0.515333254419,
			"0.015": 0.0,
			"0.016": 0.0,
			"0.017": 0.0,
			"0.018": 0.0,
			"0.019": 0.0,
			"0.02": 0.0,
			"0.021": 0.0,
			"0.022": 0.0,
			"0.023": 0.0,
			"0.024": 0.0,
			"0.025": 0.0
		}
	}
}
