{
	 "smiles": "OC1=CC=CC=C1[C@H]1C[C@@H](SC2=C(N1)C=CC=C2)C1=CC=CC=C1", 
	 "Tm": 363.0, 
	 "num_atms": 43, 
	 "gaussian": { 
		 "optdone": 1, 
		 "sigma_profile": "yes", 
		 "theory": "DFT", 
		 "functional": "B3LYP", 
		 "basiset": "6-31G**", 
		 "properties": { 
			 "R2extent": 8605.6982, 
			 "electric_dipole_moment_norm": 4.18017516499, 
			 "electric_quadrupole_moment_norm": 8.6462130485, 
			 "total_energy": -1339.84113456, 
			 "HOMO_LUMO_gap": 0.18065, 
			 "cosmo_polarized_energy": -16.25, 
			 "cosmo_cavitation_energy": 45.56, 
			 "cosmo_dispersion_energy": -31.84, 
			 "cosmo_repulsion_energy": 2.38, 
			 "cosmo_total_nonelectrostatic_energy": 16.1, 
			 "SMD_solvation_energy": 6.0 
		},
		"coords": [
			{
				"x": 2.3261525364,
				"y": 3.0888407072,
				"z": 0.6944391711,
				"element": "O" 
			},
			{
				"x": 2.6454470437,
				"y": 2.0998938071,
				"z": -0.2034312785,
				"element": "C" 
			},
			{
				"x": 3.3248317937,
				"y": 2.384099863,
				"z": -1.3898275065,
				"element": "C" 
			},
			{
				"x": 3.6300467352,
				"y": 1.3569748718,
				"z": -2.2826758285,
				"element": "C" 
			},
			{
				"x": 3.255737842,
				"y": 0.0491650694,
				"z": -1.9839917016,
				"element": "C" 
			},
			{
				"x": 2.5789253731,
				"y": -0.2254300564,
				"z": -0.7918034611,
				"element": "C" 
			},
			{
				"x": 2.2583931607,
				"y": 0.7834019727,
				"z": 0.1238688923,
				"element": "C" 
			},
			{
				"x": 1.5221915975,
				"y": 0.555101092,
				"z": 1.451226177,
				"element": "C" 
			},
			{
				"x": 0.0293784506,
				"y": 0.932550709,
				"z": 1.3613418319,
				"element": "C" 
			},
			{
				"x": -0.8431927161,
				"y": 0.0535734105,
				"z": 0.4595234401,
				"element": "C" 
			},
			{
				"x": -1.2060965951,
				"y": -1.5940168051,
				"z": 1.2415939283,
				"element": "S" 
			},
			{
				"x": 0.3261723734,
				"y": -2.5006461102,
				"z": 1.1652714297,
				"element": "C" 
			},
			{
				"x": 1.5732894083,
				"y": -2.0235388839,
				"z": 1.6368493084,
				"element": "C" 
			},
			{
				"x": 1.786251538,
				"y": -0.7256322408,
				"z": 2.1328428284,
				"element": "N" 
			},
			{
				"x": 2.6478948589,
				"y": -2.9356822017,
				"z": 1.6928168538,
				"element": "C" 
			},
			{
				"x": 2.5096324556,
				"y": -4.2651114037,
				"z": 1.3103900088,
				"element": "C" 
			},
			{
				"x": 1.2870122986,
				"y": -4.722630975,
				"z": 0.8166427858,
				"element": "C" 
			},
			{
				"x": 0.2178847823,
				"y": -3.8344726315,
				"z": 0.7370342428,
				"element": "C" 
			},
			{
				"x": -2.1857511746,
				"y": 0.6858442403,
				"z": 0.1451337172,
				"element": "C" 
			},
			{
				"x": -3.052536315,
				"y": 1.1052387793,
				"z": 1.1658621228,
				"element": "C" 
			},
			{
				"x": -4.2811604319,
				"y": 1.6912531821,
				"z": 0.8600771503,
				"element": "C" 
			},
			{
				"x": -4.663679727,
				"y": 1.8702964255,
				"z": -0.4706463227,
				"element": "C" 
			},
			{
				"x": -3.8100934438,
				"y": 1.4549848796,
				"z": -1.4939524078,
				"element": "C" 
			},
			{
				"x": -2.5836741096,
				"y": 0.8650589951,
				"z": -1.1863009474,
				"element": "C" 
			},
			{
				"x": 2.6585329938,
				"y": 3.9335140802,
				"z": 0.3648396039,
				"element": "H" 
			},
			{
				"x": 3.613840113,
				"y": 3.4100935792,
				"z": -1.6109739022,
				"element": "H" 
			},
			{
				"x": 4.1576474625,
				"y": 1.5847366697,
				"z": -3.2042343018,
				"element": "H" 
			},
			{
				"x": 3.4876644326,
				"y": -0.7593033803,
				"z": -2.6702388236,
				"element": "H" 
			},
			{
				"x": 2.3035781285,
				"y": -1.2489916626,
				"z": -0.5704702799,
				"element": "H" 
			},
			{
				"x": 1.9354927578,
				"y": 1.2944144218,
				"z": 2.144184268,
				"element": "H" 
			},
			{
				"x": -0.3811315846,
				"y": 0.9347009056,
				"z": 2.3761869074,
				"element": "H" 
			},
			{
				"x": -0.0103825579,
				"y": 1.9620686011,
				"z": 0.9880214243,
				"element": "H" 
			},
			{
				"x": -0.3240648313,
				"y": -0.1459357865,
				"z": -0.4823202979,
				"element": "H" 
			},
			{
				"x": 2.7029534105,
				"y": -0.6800068577,
				"z": 2.560340632,
				"element": "H" 
			},
			{
				"x": 3.6119634148,
				"y": -2.57680765,
				"z": 2.047528354,
				"element": "H" 
			},
			{
				"x": 3.3627455916,
				"y": -4.9340381424,
				"z": 1.3792310819,
				"element": "H" 
			},
			{
				"x": 1.1672078814,
				"y": -5.7517626578,
				"z": 0.4929004443,
				"element": "H" 
			},
			{
				"x": -0.7414524456,
				"y": -4.1718344814,
				"z": 0.3565216183,
				"element": "H" 
			},
			{
				"x": -2.7686256637,
				"y": 0.9668152415,
				"z": 2.2049931633,
				"element": "H" 
			},
			{
				"x": -4.9405258401,
				"y": 2.0079214489,
				"z": 1.663393122,
				"element": "H" 
			},
			{
				"x": -5.6196127402,
				"y": 2.3284566735,
				"z": -0.7078359237,
				"element": "H" 
			},
			{
				"x": -4.0986683272,
				"y": 1.5880019768,
				"z": -2.5329107055,
				"element": "H" 
			},
			{
				"x": -1.9248199309,
				"y": 0.5399403241,
				"z": -1.9875408194,
				"element": "H" 
			}
		],
		 "valence_orbital": [ 
			{
				"type": "occ",
				"energy": -0.24596,
				"method": "rhf"
			},
			{
				"type": "occ",
				"energy": -0.23919,
				"method": "rhf"
			},
			{
				"type": "occ",
				"energy": -0.22447,
				"method": "rhf"
			},
			{
				"type": "occ",
				"energy": -0.21434,
				"method": "rhf"
			},
			{
				"type": "occ",
				"energy": -0.19287,
				"method": "rhf"
			},
			{
				"type": "unocc",
				"energy": -0.01222,
				"method": "rhf"
			},
			{
				"type": "unocc",
				"energy": -0.0056,
				"method": "rhf"
			},
			{
				"type": "unocc",
				"energy": 0.00135,
				"method": "rhf"
			},
			{
				"type": "unocc",
				"energy": 0.00232,
				"method": "rhf"
			},
			{
				"type": "unocc",
				"energy": 0.01073,
				"method": "rhf"
			}
		],
		"cosmo_sigma_profile": { 
			"-0.025": 0.0,
			"-0.024": 0.0,
			"-0.023": 0.0,
			"-0.022": 0.0,
			"-0.021": 0.0,
			"-0.02": 0.0,
			"-0.019": 0.0,
			"-0.018": 0.240699522057,
			"-0.017": 1.26968285376,
			"-0.016": 0.765203067014,
			"-0.015": 1.26494801386,
			"-0.014": 1.09872400038,
			"-0.013": 0.995423286924,
			"-0.012": 2.77082528862,
			"-0.011": 2.05064411213,
			"-0.01": 2.20047855831,
			"-0.009": 2.91559694651,
			"-0.008": 2.57574299801,
			"-0.007": 3.30707745341,
			"-0.006": 12.7752743367,
			"-0.005": 25.9596128179,
			"-0.004": 28.5376379899,
			"-0.003": 31.1058546826,
			"-0.002": 25.3398583985,
			"-0.001": 23.3666641574,
			"0.0": 22.0925112899,
			"0.001": 22.9174033651,
			"0.002": 23.626289768,
			"0.003": 25.1672982,
			"0.004": 27.1285991486,
			"0.005": 30.4656459407,
			"0.006": 25.0877626748,
			"0.007": 6.62163370229,
			"0.008": 4.75188085815,
			"0.009": 4.07799862017,
			"0.01": 2.0290898736,
			"0.011": 0.780594022912,
			"0.012": 0.845919079704,
			"0.013": 0.129479330969,
			"0.014": 0.0,
			"0.015": 0.0,
			"0.016": 0.0,
			"0.017": 0.0,
			"0.018": 0.0,
			"0.019": 0.0,
			"0.02": 0.0,
			"0.021": 0.0,
			"0.022": 0.0,
			"0.023": 0.0,
			"0.024": 0.0,
			"0.025": 0.0
		}
	}
}
