{
	 "smiles": "COC(=O)C1=CN=CN1C", 
	 "Tm": 330.15, 
	 "num_atms": 18, 
	 "gaussian": { 
		 "optdone": 1, 
		 "sigma_profile": "yes", 
		 "theory": "DFT", 
		 "functional": "B3LYP", 
		 "basiset": "6-31G**", 
		 "properties": { 
			 "R2extent": 1806.0429, 
			 "electric_dipole_moment_norm": 1.9499920846, 
			 "electric_quadrupole_moment_norm": 18.225599811, 
			 "total_energy": -493.413561424, 
			 "HOMO_LUMO_gap": 0.20689, 
			 "cosmo_polarized_energy": -11.08, 
			 "cosmo_cavitation_energy": 22.38, 
			 "cosmo_dispersion_energy": -16.42, 
			 "cosmo_repulsion_energy": 1.32, 
			 "cosmo_total_nonelectrostatic_energy": 7.29, 
			 "SMD_solvation_energy": 4.32 
		},
		"coords": [
			{
				"x": 0.7267774175,
				"y": 1.5168980125,
				"z": 1.8169035051,
				"element": "C" 
			},
			{
				"x": 0.245684193,
				"y": 0.3887874207,
				"z": 1.0713309971,
				"element": "O" 
			},
			{
				"x": 0.6712791817,
				"y": 0.3238638248,
				"z": -0.211465923,
				"element": "C" 
			},
			{
				"x": 1.4102331866,
				"y": 1.1526672298,
				"z": -0.7182910189,
				"element": "O" 
			},
			{
				"x": 0.1316441346,
				"y": -0.8524717358,
				"z": -0.8850136588,
				"element": "C" 
			},
			{
				"x": -0.7059740069,
				"y": -1.864469368,
				"z": -0.4435622562,
				"element": "C" 
			},
			{
				"x": -0.9456810055,
				"y": -2.766561729,
				"z": -1.4359327233,
				"element": "N" 
			},
			{
				"x": -0.2621307013,
				"y": -2.3125700204,
				"z": -2.4757471432,
				"element": "C" 
			},
			{
				"x": 0.4096757093,
				"y": -1.1624956956,
				"z": -2.211613203,
				"element": "N" 
			},
			{
				"x": 1.246454631,
				"y": -0.4246886131,
				"z": -3.1514410315,
				"element": "C" 
			},
			{
				"x": 1.8185004516,
				"y": 1.5087556407,
				"z": 1.8703704406,
				"element": "H" 
			},
			{
				"x": 0.2949405184,
				"y": 1.4148037452,
				"z": 2.8123335233,
				"element": "H" 
			},
			{
				"x": 0.4045487962,
				"y": 2.4531330606,
				"z": 1.35384544,
				"element": "H" 
			},
			{
				"x": -1.1352889187,
				"y": -1.9669226241,
				"z": 0.5430384462,
				"element": "H" 
			},
			{
				"x": -0.2189913454,
				"y": -2.7814871253,
				"z": -3.450256631,
				"element": "H" 
			},
			{
				"x": 0.8641271626,
				"y": 0.5873690465,
				"z": -3.2923435802,
				"element": "H" 
			},
			{
				"x": 1.2373657331,
				"y": -0.9589115845,
				"z": -4.1034441357,
				"element": "H" 
			},
			{
				"x": 2.269234862,
				"y": -0.3518994849,
				"z": -2.7787110475,
				"element": "H" 
			}
		],
		 "valence_orbital": [ 
			{
				"type": "occ",
				"energy": -0.30311,
				"method": "rhf"
			},
			{
				"type": "occ",
				"energy": -0.2876,
				"method": "rhf"
			},
			{
				"type": "occ",
				"energy": -0.27809,
				"method": "rhf"
			},
			{
				"type": "occ",
				"energy": -0.26611,
				"method": "rhf"
			},
			{
				"type": "occ",
				"energy": -0.23873,
				"method": "rhf"
			},
			{
				"type": "unocc",
				"energy": -0.03184,
				"method": "rhf"
			},
			{
				"type": "unocc",
				"energy": 0.0438,
				"method": "rhf"
			},
			{
				"type": "unocc",
				"energy": 0.0973,
				"method": "rhf"
			},
			{
				"type": "unocc",
				"energy": 0.10324,
				"method": "rhf"
			},
			{
				"type": "unocc",
				"energy": 0.11396,
				"method": "rhf"
			}
		],
		"cosmo_sigma_profile": { 
			"-0.025": 0.0,
			"-0.024": 0.0,
			"-0.023": 0.0,
			"-0.022": 0.0,
			"-0.021": 0.0,
			"-0.02": 0.0,
			"-0.019": 0.0,
			"-0.018": 0.0,
			"-0.017": 0.0,
			"-0.016": 0.0,
			"-0.015": 0.0,
			"-0.014": 0.0,
			"-0.013": 0.0,
			"-0.012": 0.0,
			"-0.011": 0.0,
			"-0.01": 1.38559217518,
			"-0.009": 3.42207488907,
			"-0.008": 2.94445620821,
			"-0.007": 5.14066389095,
			"-0.006": 11.368168257,
			"-0.005": 14.0432099349,
			"-0.004": 16.4947766131,
			"-0.003": 21.9558230451,
			"-0.002": 13.8531769507,
			"-0.001": 8.6484425893,
			"0.0": 10.1321185837,
			"0.001": 10.0532741071,
			"0.002": 8.56007298859,
			"0.003": 8.01772713682,
			"0.004": 5.88201589786,
			"0.005": 5.10034344493,
			"0.006": 4.8117590758,
			"0.007": 4.38498919276,
			"0.008": 3.32387751944,
			"0.009": 2.03633668243,
			"0.01": 3.08431155818,
			"0.011": 4.02166422531,
			"0.012": 3.74470231715,
			"0.013": 1.89767883017,
			"0.014": 0.860038160312,
			"0.015": 1.07984387652,
			"0.016": 1.07456675649,
			"0.017": 0.943354076452,
			"0.018": 0.0465196835095,
			"0.019": 0.0,
			"0.02": 0.0,
			"0.021": 0.0,
			"0.022": 0.0,
			"0.023": 0.0,
			"0.024": 0.0,
			"0.025": 0.0
		}
	}
}
