{
	 "smiles": "OC(C1C(=O)N(N=C1C(F)(F)F)C1=CC=CC=C1)C1=CC=CC=C1", 
	 "Tm": 531.15, 
	 "num_atms": 37, 
	 "gaussian": { 
		 "optdone": 1, 
		 "sigma_profile": "yes", 
		 "theory": "DFT", 
		 "functional": "B3LYP", 
		 "basiset": "6-31G**", 
		 "properties": { 
			 "R2extent": 8722.1217, 
			 "electric_dipole_moment_norm": 2.08624490892, 
			 "electric_quadrupole_moment_norm": 12.7975905142, 
			 "total_energy": -1215.08723615, 
			 "HOMO_LUMO_gap": 0.16395, 
			 "cosmo_polarized_energy": -14.16, 
			 "cosmo_cavitation_energy": 42.7, 
			 "cosmo_dispersion_energy": -29.21, 
			 "cosmo_repulsion_energy": 2.15, 
			 "cosmo_total_nonelectrostatic_energy": 15.64, 
			 "SMD_solvation_energy": 8.01 
		},
		"coords": [
			{
				"x": 0.5182482005,
				"y": -1.6809593594,
				"z": 1.52258193,
				"element": "O" 
			},
			{
				"x": 0.2895658649,
				"y": -0.3989495709,
				"z": 2.0877216973,
				"element": "C" 
			},
			{
				"x": -0.5406168897,
				"y": 0.3713852246,
				"z": 1.0240000292,
				"element": "C" 
			},
			{
				"x": 0.0926328538,
				"y": 0.3758617375,
				"z": -0.3775079799,
				"element": "C" 
			},
			{
				"x": 1.1799949497,
				"y": 0.8054712507,
				"z": -0.7046009962,
				"element": "O" 
			},
			{
				"x": -0.8681030536,
				"y": -0.2079315862,
				"z": -1.215854848,
				"element": "N" 
			},
			{
				"x": -2.0173590953,
				"y": -0.5572929393,
				"z": -0.5329586652,
				"element": "N" 
			},
			{
				"x": -1.8658748373,
				"y": -0.2553090469,
				"z": 0.704563547,
				"element": "C" 
			},
			{
				"x": -2.9679908231,
				"y": -0.4991529557,
				"z": 1.6904795219,
				"element": "C" 
			},
			{
				"x": -3.2128942591,
				"y": 0.635196133,
				"z": 2.3914713059,
				"element": "F" 
			},
			{
				"x": -2.6146216673,
				"y": -1.4439698274,
				"z": 2.5952183365,
				"element": "F" 
			},
			{
				"x": -4.1052812474,
				"y": -0.889824233,
				"z": 1.1077730959,
				"element": "F" 
			},
			{
				"x": -0.8016299219,
				"y": -0.4619628961,
				"z": -2.6155098665,
				"element": "C" 
			},
			{
				"x": -1.901102305,
				"y": -1.053887027,
				"z": -3.2538610809,
				"element": "C" 
			},
			{
				"x": -1.8482008506,
				"y": -1.3074215439,
				"z": -4.6224100771,
				"element": "C" 
			},
			{
				"x": -0.713001894,
				"y": -0.9791282503,
				"z": -5.3655413795,
				"element": "C" 
			},
			{
				"x": 0.3751725253,
				"y": -0.3913478584,
				"z": -4.7209262837,
				"element": "C" 
			},
			{
				"x": 0.3448307103,
				"y": -0.1281316597,
				"z": -3.3513054354,
				"element": "C" 
			},
			{
				"x": 1.5644713154,
				"y": 0.3128356641,
				"z": 2.5101026336,
				"element": "C" 
			},
			{
				"x": 2.7831790322,
				"y": 0.0658303089,
				"z": 1.867777648,
				"element": "C" 
			},
			{
				"x": 3.9424083266,
				"y": 0.7201187182,
				"z": 2.2858146757,
				"element": "C" 
			},
			{
				"x": 3.8958777281,
				"y": 1.6294986306,
				"z": 3.3440205168,
				"element": "C" 
			},
			{
				"x": 2.6831333984,
				"y": 1.8800187084,
				"z": 3.9894878732,
				"element": "C" 
			},
			{
				"x": 1.5261740143,
				"y": 1.2190745562,
				"z": 3.5771988053,
				"element": "C" 
			},
			{
				"x": 1.0502687222,
				"y": -2.1927806463,
				"z": 2.1461872654,
				"element": "H" 
			},
			{
				"x": -0.3576774022,
				"y": -0.4799780092,
				"z": 2.9733957289,
				"element": "H" 
			},
			{
				"x": -0.6652457656,
				"y": 1.4047986103,
				"z": 1.3671871849,
				"element": "H" 
			},
			{
				"x": -2.7803702138,
				"y": -1.3091303295,
				"z": -2.6769431995,
				"element": "H" 
			},
			{
				"x": -2.7048720838,
				"y": -1.766336641,
				"z": -5.1075381145,
				"element": "H" 
			},
			{
				"x": -0.677886013,
				"y": -1.1791344861,
				"z": -6.4321476074,
				"element": "H" 
			},
			{
				"x": 1.2660872455,
				"y": -0.1299899541,
				"z": -5.2847166453,
				"element": "H" 
			},
			{
				"x": 1.1896930092,
				"y": 0.3283811183,
				"z": -2.8560568258,
				"element": "H" 
			},
			{
				"x": 2.8139229177,
				"y": -0.6303852071,
				"z": 1.0374419111,
				"element": "H" 
			},
			{
				"x": 4.8828875762,
				"y": 0.5226696548,
				"z": 1.7795218358,
				"element": "H" 
			},
			{
				"x": 4.7999441309,
				"y": 2.1376010458,
				"z": 3.6669744705,
				"element": "H" 
			},
			{
				"x": 2.6400899661,
				"y": 2.5793286864,
				"z": 4.8195310163,
				"element": "H" 
			},
			{
				"x": 0.5864458352,
				"y": 1.4036339798,
				"z": 4.0941279756,
				"element": "H" 
			}
		],
		 "valence_orbital": [ 
			{
				"type": "occ",
				"energy": -0.26972,
				"method": "rhf"
			},
			{
				"type": "occ",
				"energy": -0.2557,
				"method": "rhf"
			},
			{
				"type": "occ",
				"energy": -0.25039,
				"method": "rhf"
			},
			{
				"type": "occ",
				"energy": -0.24843,
				"method": "rhf"
			},
			{
				"type": "occ",
				"energy": -0.22171,
				"method": "rhf"
			},
			{
				"type": "unocc",
				"energy": -0.05776,
				"method": "rhf"
			},
			{
				"type": "unocc",
				"energy": -0.01926,
				"method": "rhf"
			},
			{
				"type": "unocc",
				"energy": -0.01011,
				"method": "rhf"
			},
			{
				"type": "unocc",
				"energy": -0.00751,
				"method": "rhf"
			},
			{
				"type": "unocc",
				"energy": 0.0004,
				"method": "rhf"
			}
		],
		"cosmo_sigma_profile": { 
			"-0.025": 0.0,
			"-0.024": 0.0,
			"-0.023": 0.0,
			"-0.022": 0.0,
			"-0.021": 0.0,
			"-0.02": 0.0,
			"-0.019": 0.0,
			"-0.018": 0.0,
			"-0.017": 0.110019856407,
			"-0.016": 0.927243974064,
			"-0.015": 0.91867232508,
			"-0.014": 1.03503086733,
			"-0.013": 0.738562560273,
			"-0.012": 0.940419313422,
			"-0.011": 0.661482201088,
			"-0.01": 1.93313199634,
			"-0.009": 3.58798577094,
			"-0.008": 4.8989109806,
			"-0.007": 6.19062866936,
			"-0.006": 15.7251162024,
			"-0.005": 21.9560147937,
			"-0.004": 24.5087821223,
			"-0.003": 22.7493486344,
			"-0.002": 18.3128677825,
			"-0.001": 19.9251627402,
			"0.0": 20.953895135,
			"0.001": 28.0203585408,
			"0.002": 45.4862816556,
			"0.003": 28.3150373264,
			"0.004": 22.0664069977,
			"0.005": 22.4609299641,
			"0.006": 10.2624127615,
			"0.007": 5.16661109043,
			"0.008": 3.9602783733,
			"0.009": 3.04866274945,
			"0.01": 3.56771213056,
			"0.011": 3.11628984381,
			"0.012": 0.582935316047,
			"0.013": 0.0,
			"0.014": 0.0,
			"0.015": 0.0,
			"0.016": 0.0,
			"0.017": 0.0,
			"0.018": 0.0,
			"0.019": 0.0,
			"0.02": 0.0,
			"0.021": 0.0,
			"0.022": 0.0,
			"0.023": 0.0,
			"0.024": 0.0,
			"0.025": 0.0
		}
	}
}
