{
	 "smiles": "CC(O)C(Cl)(Cl)Cl", 
	 "Tm": 323.65, 
	 "num_atms": 12, 
	 "gaussian": { 
		 "optdone": 1, 
		 "sigma_profile": "yes", 
		 "theory": "DFT", 
		 "functional": "B3LYP", 
		 "basiset": "6-31G**", 
		 "properties": { 
			 "R2extent": 1337.9273, 
			 "electric_dipole_moment_norm": 2.10135332821, 
			 "electric_quadrupole_moment_norm": 4.95401416429, 
			 "total_energy": -1573.11705729, 
			 "HOMO_LUMO_gap": 0.25218, 
			 "cosmo_polarized_energy": -6.45, 
			 "cosmo_cavitation_energy": 20.06, 
			 "cosmo_dispersion_energy": -15.16, 
			 "cosmo_repulsion_energy": 1.27, 
			 "cosmo_total_nonelectrostatic_energy": 6.16, 
			 "SMD_solvation_energy": 2.62 
		},
		"coords": [
			{
				"x": -0.2197089238,
				"y": -1.1231911932,
				"z": 2.2376151219,
				"element": "C" 
			},
			{
				"x": 0.1839522089,
				"y": 0.0345672457,
				"z": 1.3235068662,
				"element": "C" 
			},
			{
				"x": 0.0628225532,
				"y": 1.2789891149,
				"z": 1.9654337542,
				"element": "O" 
			},
			{
				"x": -0.5761067569,
				"y": 0.0586265112,
				"z": -0.0421063388,
				"element": "C" 
			},
			{
				"x": 0.0269942872,
				"y": 1.4155329068,
				"z": -1.0506755657,
				"element": "Cl" 
			},
			{
				"x": -0.3179362929,
				"y": -1.4858224925,
				"z": -0.9339997856,
				"element": "Cl" 
			},
			{
				"x": -2.3521112613,
				"y": 0.292328801,
				"z": 0.2409618714,
				"element": "Cl" 
			},
			{
				"x": 0.3759926287,
				"y": -1.0497985993,
				"z": 3.1508507416,
				"element": "H" 
			},
			{
				"x": -1.2779669278,
				"y": -1.0610780636,
				"z": 2.5092347591,
				"element": "H" 
			},
			{
				"x": -0.0381422002,
				"y": -2.0961239376,
				"z": 1.7781342758,
				"element": "H" 
			},
			{
				"x": 1.2400779286,
				"y": -0.0598131573,
				"z": 1.0499976664,
				"element": "H" 
			},
			{
				"x": -0.8477672438,
				"y": 1.3673828638,
				"z": 2.2828466335,
				"element": "H" 
			}
		],
		 "valence_orbital": [ 
			{
				"type": "occ",
				"energy": -0.33691,
				"method": "rhf"
			},
			{
				"type": "occ",
				"energy": -0.32781,
				"method": "rhf"
			},
			{
				"type": "occ",
				"energy": -0.31892,
				"method": "rhf"
			},
			{
				"type": "occ",
				"energy": -0.30912,
				"method": "rhf"
			},
			{
				"type": "occ",
				"energy": -0.29568,
				"method": "rhf"
			},
			{
				"type": "unocc",
				"energy": -0.0435,
				"method": "rhf"
			},
			{
				"type": "unocc",
				"energy": -0.00278,
				"method": "rhf"
			},
			{
				"type": "unocc",
				"energy": 0.00238,
				"method": "rhf"
			},
			{
				"type": "unocc",
				"energy": 0.07565,
				"method": "rhf"
			},
			{
				"type": "unocc",
				"energy": 0.11256,
				"method": "rhf"
			}
		],
		"cosmo_sigma_profile": { 
			"-0.025": 0.0,
			"-0.024": 0.0,
			"-0.023": 0.0,
			"-0.022": 0.0,
			"-0.021": 0.0,
			"-0.02": 0.0,
			"-0.019": 0.0,
			"-0.018": 0.0,
			"-0.017": 0.0,
			"-0.016": 0.125580452964,
			"-0.015": 0.600276042248,
			"-0.014": 1.17864993828,
			"-0.013": 0.285869886862,
			"-0.012": 0.845125993905,
			"-0.011": 0.868919204511,
			"-0.01": 1.41641166036,
			"-0.009": 0.590221797736,
			"-0.008": 1.76075783325,
			"-0.007": 2.86408788298,
			"-0.006": 3.82299154439,
			"-0.005": 5.61810995234,
			"-0.004": 9.6240913033,
			"-0.003": 12.9637913204,
			"-0.002": 13.588453786,
			"-0.001": 16.8580681289,
			"0.0": 14.6290078887,
			"0.001": 12.595157574,
			"0.002": 15.9054473095,
			"0.003": 24.6611189302,
			"0.004": 10.0065798777,
			"0.005": 2.02702840348,
			"0.006": 2.13658140142,
			"0.007": 1.51512492409,
			"0.008": 1.39851806936,
			"0.009": 0.655908249908,
			"0.01": 1.42265662875,
			"0.011": 2.07329096645,
			"0.012": 1.58557698049,
			"0.013": 0.891270561457,
			"0.014": 0.0,
			"0.015": 0.0,
			"0.016": 0.0,
			"0.017": 0.0,
			"0.018": 0.0,
			"0.019": 0.0,
			"0.02": 0.0,
			"0.021": 0.0,
			"0.022": 0.0,
			"0.023": 0.0,
			"0.024": 0.0,
			"0.025": 0.0
		}
	}
}
