{
	 "smiles": "CC1=C(C=C(CCl)C=C1)[N+]([O-])=O", 
	 "Tm": 321.15, 
	 "num_atms": 20, 
	 "gaussian": { 
		 "optdone": 1, 
		 "sigma_profile": "yes", 
		 "theory": "DFT", 
		 "functional": "B3LYP", 
		 "basiset": "6-31G**", 
		 "properties": { 
			 "R2extent": 3223.4802, 
			 "electric_dipole_moment_norm": 4.13360774627, 
			 "electric_quadrupole_moment_norm": 11.402427071, 
			 "total_energy": -974.973277679, 
			 "HOMO_LUMO_gap": 0.17933, 
			 "cosmo_polarized_energy": -10.37, 
			 "cosmo_cavitation_energy": 26.23, 
			 "cosmo_dispersion_energy": -19.15, 
			 "cosmo_repulsion_energy": 1.53, 
			 "cosmo_total_nonelectrostatic_energy": 8.61, 
			 "SMD_solvation_energy": 6.22 
		},
		"coords": [
			{
				"x": 0.5530881018,
				"y": 2.182959651,
				"z": -1.8403387108,
				"element": "C" 
			},
			{
				"x": 0.3160275849,
				"y": 1.322451325,
				"z": -0.6243429485,
				"element": "C" 
			},
			{
				"x": -0.9299748887,
				"y": 0.8135505634,
				"z": -0.2072628576,
				"element": "C" 
			},
			{
				"x": -1.0711349573,
				"y": 0.0112249873,
				"z": 0.9270694594,
				"element": "C" 
			},
			{
				"x": 0.0372478155,
				"y": -0.3159922807,
				"z": 1.7041747063,
				"element": "C" 
			},
			{
				"x": -0.1119109809,
				"y": -1.1731968537,
				"z": 2.9257186393,
				"element": "C" 
			},
			{
				"x": -0.208276416,
				"y": -0.1777609457,
				"z": 4.4621043059,
				"element": "Cl" 
			},
			{
				"x": 1.2891996809,
				"y": 0.1750987127,
				"z": 1.3111037953,
				"element": "C" 
			},
			{
				"x": 1.4149784716,
				"y": 0.9668577789,
				"z": 0.1754973129,
				"element": "C" 
			},
			{
				"x": -2.1728833183,
				"y": 1.095284428,
				"z": -0.9514859307,
				"element": "N" 
			},
			{
				"x": -3.1719162051,
				"y": 0.4356002541,
				"z": -0.6646691686,
				"element": "O" 
			},
			{
				"x": -2.1513327535,
				"y": 1.9746739512,
				"z": -1.8128511576,
				"element": "O" 
			},
			{
				"x": 0.0717460644,
				"y": 3.1586478293,
				"z": -1.7364040188,
				"element": "H" 
			},
			{
				"x": 0.1354990919,
				"y": 1.7341042009,
				"z": -2.7447196033,
				"element": "H" 
			},
			{
				"x": 1.6268378631,
				"y": 2.3310107069,
				"z": -1.9808769714,
				"element": "H" 
			},
			{
				"x": -2.061290972,
				"y": -0.3465854729,
				"z": 1.1816643208,
				"element": "H" 
			},
			{
				"x": -1.0274262204,
				"y": -1.7635463729,
				"z": 2.8973703592,
				"element": "H" 
			},
			{
				"x": 0.7421421236,
				"y": -1.8367460956,
				"z": 3.0642281887,
				"element": "H" 
			},
			{
				"x": 2.170845143,
				"y": -0.063469959,
				"z": 1.8998355385,
				"element": "H" 
			},
			{
				"x": 2.3975347715,
				"y": 1.3276335918,
				"z": -0.113615259,
				"element": "H" 
			}
		],
		 "valence_orbital": [ 
			{
				"type": "occ",
				"energy": -0.30599,
				"method": "rhf"
			},
			{
				"type": "occ",
				"energy": -0.30397,
				"method": "rhf"
			},
			{
				"type": "occ",
				"energy": -0.29413,
				"method": "rhf"
			},
			{
				"type": "occ",
				"energy": -0.28336,
				"method": "rhf"
			},
			{
				"type": "occ",
				"energy": -0.27094,
				"method": "rhf"
			},
			{
				"type": "unocc",
				"energy": -0.09161,
				"method": "rhf"
			},
			{
				"type": "unocc",
				"energy": -0.04533,
				"method": "rhf"
			},
			{
				"type": "unocc",
				"energy": -0.0123,
				"method": "rhf"
			},
			{
				"type": "unocc",
				"energy": 0.03059,
				"method": "rhf"
			},
			{
				"type": "unocc",
				"energy": 0.07505,
				"method": "rhf"
			}
		],
		"cosmo_sigma_profile": { 
			"-0.025": 0.0,
			"-0.024": 0.0,
			"-0.023": 0.0,
			"-0.022": 0.0,
			"-0.021": 0.0,
			"-0.02": 0.0,
			"-0.019": 0.0,
			"-0.018": 0.0,
			"-0.017": 0.0,
			"-0.016": 0.0,
			"-0.015": 0.0,
			"-0.014": 0.0,
			"-0.013": 0.0,
			"-0.012": 0.0,
			"-0.011": 0.0,
			"-0.01": 0.00563618127616,
			"-0.009": 1.38292300233,
			"-0.008": 7.37499727599,
			"-0.007": 11.5095806011,
			"-0.006": 11.0191276607,
			"-0.005": 12.99596617,
			"-0.004": 14.132272533,
			"-0.003": 12.8646363062,
			"-0.002": 15.0487303113,
			"-0.001": 16.3997202385,
			"0.0": 16.2861025482,
			"0.001": 16.1735901591,
			"0.002": 13.1654731398,
			"0.003": 8.375654334,
			"0.004": 7.15252804824,
			"0.005": 9.23062073098,
			"0.006": 13.487687886,
			"0.007": 9.29999258561,
			"0.008": 7.25385309363,
			"0.009": 4.54275068712,
			"0.01": 3.26841943891,
			"0.011": 0.312797164931,
			"0.012": 0.0,
			"0.013": 0.0,
			"0.014": 0.0,
			"0.015": 0.0,
			"0.016": 0.0,
			"0.017": 0.0,
			"0.018": 0.0,
			"0.019": 0.0,
			"0.02": 0.0,
			"0.021": 0.0,
			"0.022": 0.0,
			"0.023": 0.0,
			"0.024": 0.0,
			"0.025": 0.0
		}
	}
}
