{
	 "smiles": "COC1=CC(CC2N(C)C(=N)NC2=O)=CC=C1O", 
	 "Tm": 505.15, 
	 "num_atms": 33, 
	 "gaussian": { 
		 "optdone": 1, 
		 "sigma_profile": "yes", 
		 "theory": "DFT", 
		 "functional": "B3LYP", 
		 "basiset": "6-31G**", 
		 "properties": { 
			 "R2extent": 5737.7933, 
			 "electric_dipole_moment_norm": 3.64314204225, 
			 "electric_quadrupole_moment_norm": 20.5688252535, 
			 "total_energy": -856.247380041, 
			 "HOMO_LUMO_gap": 0.20134, 
			 "cosmo_polarized_energy": -19.36, 
			 "cosmo_cavitation_energy": 36.45, 
			 "cosmo_dispersion_energy": -25.52, 
			 "cosmo_repulsion_energy": 1.99, 
			 "cosmo_total_nonelectrostatic_energy": 12.92, 
			 "SMD_solvation_energy": 6.08 
		},
		"coords": [
			{
				"x": 4.5608211855,
				"y": 0.6860528002,
				"z": -0.7284478869,
				"element": "C" 
			},
			{
				"x": 3.6981803168,
				"y": 1.5917433861,
				"z": -1.4006574697,
				"element": "O" 
			},
			{
				"x": 2.3793748132,
				"y": 1.6411644793,
				"z": -1.0184934949,
				"element": "C" 
			},
			{
				"x": 1.7831892165,
				"y": 0.8641106161,
				"z": -0.0317142438,
				"element": "C" 
			},
			{
				"x": 0.4156283925,
				"y": 1.0171098491,
				"z": 0.2683458516,
				"element": "C" 
			},
			{
				"x": -0.2233093198,
				"y": 0.1586643367,
				"z": 1.338671083,
				"element": "C" 
			},
			{
				"x": -0.4459466911,
				"y": -1.3212213345,
				"z": 0.9547421285,
				"element": "C" 
			},
			{
				"x": -1.5647705609,
				"y": -1.5846973266,
				"z": 0.0458522209,
				"element": "N" 
			},
			{
				"x": -1.4219559844,
				"y": -1.416691369,
				"z": -1.3912436857,
				"element": "C" 
			},
			{
				"x": -2.3878167199,
				"y": -2.5899467391,
				"z": 0.5486846165,
				"element": "C" 
			},
			{
				"x": -3.3687092471,
				"y": -3.2331262654,
				"z": 0.0471366096,
				"element": "N" 
			},
			{
				"x": -1.9476053526,
				"y": -2.8380407642,
				"z": 1.8580096113,
				"element": "N" 
			},
			{
				"x": -0.8161978397,
				"y": -2.1453933822,
				"z": 2.1981144095,
				"element": "C" 
			},
			{
				"x": -0.2267695038,
				"y": -2.1615395685,
				"z": 3.2611418028,
				"element": "O" 
			},
			{
				"x": -0.3212189104,
				"y": 1.9700236908,
				"z": -0.438228449,
				"element": "C" 
			},
			{
				"x": 0.2744251641,
				"y": 2.7547595769,
				"z": -1.4323566541,
				"element": "C" 
			},
			{
				"x": 1.6219440406,
				"y": 2.5962098875,
				"z": -1.7305402514,
				"element": "C" 
			},
			{
				"x": 2.2104636114,
				"y": 3.3564111879,
				"z": -2.694020998,
				"element": "O" 
			},
			{
				"x": 5.5471277152,
				"y": 0.8149592289,
				"z": -1.1762463028,
				"element": "H" 
			},
			{
				"x": 4.233645483,
				"y": -0.3523067651,
				"z": -0.8643613178,
				"element": "H" 
			},
			{
				"x": 4.6161814045,
				"y": 0.909288093,
				"z": 0.3441061543,
				"element": "H" 
			},
			{
				"x": 2.3729358577,
				"y": 0.1415033961,
				"z": 0.5231689488,
				"element": "H" 
			},
			{
				"x": 0.4067453864,
				"y": 0.1400858013,
				"z": 2.2360012523,
				"element": "H" 
			},
			{
				"x": -1.1893942835,
				"y": 0.5812147551,
				"z": 1.6336210491,
				"element": "H" 
			},
			{
				"x": 0.4929889848,
				"y": -1.732177296,
				"z": 0.549343881,
				"element": "H" 
			},
			{
				"x": -2.408459268,
				"y": -1.3313868517,
				"z": -1.855350292,
				"element": "H" 
			},
			{
				"x": -0.8830482194,
				"y": -0.4912536775,
				"z": -1.5920527913,
				"element": "H" 
			},
			{
				"x": -0.8859121269,
				"y": -2.2546630924,
				"z": -1.8621126418,
				"element": "H" 
			},
			{
				"x": -3.5623274767,
				"y": -2.9391007979,
				"z": -0.9081680802,
				"element": "H" 
			},
			{
				"x": -2.4349210873,
				"y": -3.4790210331,
				"z": 2.467082492,
				"element": "H" 
			},
			{
				"x": -1.3747169785,
				"y": 2.1085015954,
				"z": -0.2116925222,
				"element": "H" 
			},
			{
				"x": -0.2945864105,
				"y": 3.4986236466,
				"z": -1.98030533,
				"element": "H" 
			},
			{
				"x": 3.1439144085,
				"y": 3.0966399362,
				"z": -2.7300296997,
				"element": "H" 
			}
		],
		 "valence_orbital": [ 
			{
				"type": "occ",
				"energy": -0.26716,
				"method": "rhf"
			},
			{
				"type": "occ",
				"energy": -0.26023,
				"method": "rhf"
			},
			{
				"type": "occ",
				"energy": -0.2446,
				"method": "rhf"
			},
			{
				"type": "occ",
				"energy": -0.23306,
				"method": "rhf"
			},
			{
				"type": "occ",
				"energy": -0.20967,
				"method": "rhf"
			},
			{
				"type": "unocc",
				"energy": -0.00833,
				"method": "rhf"
			},
			{
				"type": "unocc",
				"energy": 0.0029,
				"method": "rhf"
			},
			{
				"type": "unocc",
				"energy": 0.01115,
				"method": "rhf"
			},
			{
				"type": "unocc",
				"energy": 0.06151,
				"method": "rhf"
			},
			{
				"type": "unocc",
				"energy": 0.07129,
				"method": "rhf"
			}
		],
		"cosmo_sigma_profile": { 
			"-0.025": 0.0,
			"-0.024": 0.0,
			"-0.023": 0.0,
			"-0.022": 0.0,
			"-0.021": 0.0,
			"-0.02": 0.0,
			"-0.019": 0.0,
			"-0.018": 0.0,
			"-0.017": 0.0,
			"-0.016": 0.734656222443,
			"-0.015": 1.08931494211,
			"-0.014": 1.61974619229,
			"-0.013": 1.12224812214,
			"-0.012": 1.30715105254,
			"-0.011": 1.05399822141,
			"-0.01": 3.16649263883,
			"-0.009": 2.85539273943,
			"-0.008": 2.52074535746,
			"-0.007": 6.9583074156,
			"-0.006": 16.6953134665,
			"-0.005": 24.0471827905,
			"-0.004": 28.5661986013,
			"-0.003": 25.7370730202,
			"-0.002": 21.3394255675,
			"-0.001": 18.6537948309,
			"0.0": 15.0288639443,
			"0.001": 13.457448496,
			"0.002": 15.1072198449,
			"0.003": 14.338541774,
			"0.004": 14.5801250628,
			"0.005": 11.0646473703,
			"0.006": 7.3961570071,
			"0.007": 3.78737320912,
			"0.008": 3.13541674928,
			"0.009": 5.043737042,
			"0.01": 4.32398360953,
			"0.011": 4.98198175841,
			"0.012": 7.44906029271,
			"0.013": 5.0812871502,
			"0.014": 1.31391838994,
			"0.015": 1.47079033421,
			"0.016": 0.869213440566,
			"0.017": 1.19708403822,
			"0.018": 0.955164241032,
			"0.019": 0.0240658062676,
			"0.02": 0.0,
			"0.021": 0.0,
			"0.022": 0.0,
			"0.023": 0.0,
			"0.024": 0.0,
			"0.025": 0.0
		}
	}
}
