{
	 "smiles": "CN(C)CCC=C1C2=C(SC3=C1C=C(Cl)C=C3)C=CC=C2", 
	 "Tm": 370.65, 
	 "num_atms": 39, 
	 "gaussian": { 
		 "optdone": 1, 
		 "sigma_profile": "yes", 
		 "theory": "DFT", 
		 "functional": "B3LYP", 
		 "basiset": "6-31G**", 
		 "properties": { 
			 "R2extent": 8972.3265, 
			 "electric_dipole_moment_norm": 1.67420460518, 
			 "electric_quadrupole_moment_norm": 13.100174921, 
			 "total_energy": -1609.88095159, 
			 "HOMO_LUMO_gap": 0.16265, 
			 "cosmo_polarized_energy": -8.54, 
			 "cosmo_cavitation_energy": 44.22, 
			 "cosmo_dispersion_energy": -30.76, 
			 "cosmo_repulsion_energy": 2.34, 
			 "cosmo_total_nonelectrostatic_energy": 15.8, 
			 "SMD_solvation_energy": 4.57 
		},
		"coords": [
			{
				"x": 1.515142508,
				"y": -2.0700915736,
				"z": 0.9664765353,
				"element": "C" 
			},
			{
				"x": 2.1195449316,
				"y": -0.8016804044,
				"z": 1.3535991307,
				"element": "N" 
			},
			{
				"x": 3.0372110373,
				"y": -0.9767943939,
				"z": 2.4707801107,
				"element": "C" 
			},
			{
				"x": 2.76549973,
				"y": -0.1116315748,
				"z": 0.240595025,
				"element": "C" 
			},
			{
				"x": 1.7881835878,
				"y": 0.3308518064,
				"z": -0.8611943344,
				"element": "C" 
			},
			{
				"x": 0.6558802599,
				"y": 1.1590357455,
				"z": -0.3184450601,
				"element": "C" 
			},
			{
				"x": -0.6325680797,
				"y": 1.1982058312,
				"z": -0.7238080683,
				"element": "C" 
			},
			{
				"x": -1.6154068747,
				"y": 2.0455023178,
				"z": 0.0037967425,
				"element": "C" 
			},
			{
				"x": -2.9132657886,
				"y": 1.5675990583,
				"z": 0.2679218737,
				"element": "C" 
			},
			{
				"x": -3.4136342781,
				"y": -0.0592750104,
				"z": -0.2631967212,
				"element": "S" 
			},
			{
				"x": -2.4407861455,
				"y": -0.2165653803,
				"z": -1.7443536839,
				"element": "C" 
			},
			{
				"x": -1.1779341843,
				"y": 0.4025137066,
				"z": -1.8538628111,
				"element": "C" 
			},
			{
				"x": -0.4798772639,
				"y": 0.2717118041,
				"z": -3.0658008033,
				"element": "C" 
			},
			{
				"x": -0.993651227,
				"y": -0.5092892379,
				"z": -4.0967283685,
				"element": "C" 
			},
			{
				"x": -0.0823982323,
				"y": -0.6648990883,
				"z": -5.5935753786,
				"element": "Cl" 
			},
			{
				"x": -2.2196450528,
				"y": -1.1601763532,
				"z": -3.9688587694,
				"element": "C" 
			},
			{
				"x": -2.9455036201,
				"y": -0.9945003421,
				"z": -2.7920394335,
				"element": "C" 
			},
			{
				"x": -3.8274729715,
				"y": 2.3360294618,
				"z": 0.9974294702,
				"element": "C" 
			},
			{
				"x": -3.4614392256,
				"y": 3.5948305603,
				"z": 1.4688796324,
				"element": "C" 
			},
			{
				"x": -2.189067497,
				"y": 4.0984006471,
				"z": 1.1893800897,
				"element": "C" 
			},
			{
				"x": -1.2856667113,
				"y": 3.334085198,
				"z": 0.4548731488,
				"element": "C" 
			},
			{
				"x": 1.0391958903,
				"y": -2.525751067,
				"z": 1.8401590611,
				"element": "H" 
			},
			{
				"x": 0.7370881096,
				"y": -1.9120207858,
				"z": 0.2156064779,
				"element": "H" 
			},
			{
				"x": 2.247577395,
				"y": -2.7955204606,
				"z": 0.560388815,
				"element": "H" 
			},
			{
				"x": 3.4245035835,
				"y": -0.0039396397,
				"z": 2.7911380777,
				"element": "H" 
			},
			{
				"x": 3.9031742576,
				"y": -1.625417791,
				"z": 2.2320450184,
				"element": "H" 
			},
			{
				"x": 2.5069533236,
				"y": -1.4248198187,
				"z": 3.31727394,
				"element": "H" 
			},
			{
				"x": 3.2530219665,
				"y": 0.7814584072,
				"z": 0.6521247344,
				"element": "H" 
			},
			{
				"x": 3.5682527671,
				"y": -0.7230074983,
				"z": -0.2203898275,
				"element": "H" 
			},
			{
				"x": 2.3738579743,
				"y": 0.911687235,
				"z": -1.5903535038,
				"element": "H" 
			},
			{
				"x": 1.4076845816,
				"y": -0.5334992202,
				"z": -1.4141838997,
				"element": "H" 
			},
			{
				"x": 0.9108204805,
				"y": 1.7617545221,
				"z": 0.5510703813,
				"element": "H" 
			},
			{
				"x": 0.4599578505,
				"y": 0.7908399319,
				"z": -3.2059277024,
				"element": "H" 
			},
			{
				"x": -2.610160092,
				"y": -1.761402981,
				"z": -4.7820447895,
				"element": "H" 
			},
			{
				"x": -3.9201865492,
				"y": -1.4622649312,
				"z": -2.6922395984,
				"element": "H" 
			},
			{
				"x": -4.8242910863,
				"y": 1.9483177196,
				"z": 1.1854664665,
				"element": "H" 
			},
			{
				"x": -4.1754922435,
				"y": 4.1876054788,
				"z": 2.0327786099,
				"element": "H" 
			},
			{
				"x": -1.9053972437,
				"y": 5.089132376,
				"z": 1.5316440772,
				"element": "H" 
			},
			{
				"x": -0.3052058676,
				"y": 3.7349857449,
				"z": 0.2164753351,
				"element": "H" 
			}
		],
		 "valence_orbital": [ 
			{
				"type": "occ",
				"energy": -0.25899,
				"method": "rhf"
			},
			{
				"type": "occ",
				"energy": -0.25149,
				"method": "rhf"
			},
			{
				"type": "occ",
				"energy": -0.23409,
				"method": "rhf"
			},
			{
				"type": "occ",
				"energy": -0.21216,
				"method": "rhf"
			},
			{
				"type": "occ",
				"energy": -0.20281,
				"method": "rhf"
			},
			{
				"type": "unocc",
				"energy": -0.04016,
				"method": "rhf"
			},
			{
				"type": "unocc",
				"energy": -0.01942,
				"method": "rhf"
			},
			{
				"type": "unocc",
				"energy": -0.0111,
				"method": "rhf"
			},
			{
				"type": "unocc",
				"energy": -0.00514,
				"method": "rhf"
			},
			{
				"type": "unocc",
				"energy": 0.02436,
				"method": "rhf"
			}
		],
		"cosmo_sigma_profile": { 
			"-0.025": 0.0,
			"-0.024": 0.0,
			"-0.023": 0.0,
			"-0.022": 0.0,
			"-0.021": 0.0,
			"-0.02": 0.0,
			"-0.019": 0.0,
			"-0.018": 0.0,
			"-0.017": 0.0,
			"-0.016": 0.0,
			"-0.015": 0.0,
			"-0.014": 0.0,
			"-0.013": 0.0,
			"-0.012": 0.0,
			"-0.011": 0.0,
			"-0.01": 0.0,
			"-0.009": 0.0,
			"-0.008": 0.810276809063,
			"-0.007": 5.35255704975,
			"-0.006": 12.5689528388,
			"-0.005": 16.8275147818,
			"-0.004": 25.9589128102,
			"-0.003": 29.5783744418,
			"-0.002": 32.9678707476,
			"-0.001": 41.5324611096,
			"0.0": 38.8235695012,
			"0.001": 28.8940306256,
			"0.002": 30.6522212166,
			"0.003": 32.2917419409,
			"0.004": 26.1565426686,
			"0.005": 19.4358945491,
			"0.006": 4.52271349661,
			"0.007": 3.15670616239,
			"0.008": 1.05846988838,
			"0.009": 0.821049706279,
			"0.01": 0.987158210128,
			"0.011": 0.57272305589,
			"0.012": 0.749818288088,
			"0.013": 0.626213590838,
			"0.014": 0.471787758023,
			"0.015": 0.266760483131,
			"0.016": 0.0493929606045,
			"0.017": 0.0,
			"0.018": 0.0,
			"0.019": 0.0,
			"0.02": 0.0,
			"0.021": 0.0,
			"0.022": 0.0,
			"0.023": 0.0,
			"0.024": 0.0,
			"0.025": 0.0
		}
	}
}
