{
	 "smiles": "OC(=O)C1=CNC2=C1C=C(Br)C=C2", 
	 "Tm": 512.15, 
	 "num_atms": 19, 
	 "gaussian": { 
		 "optdone": 1, 
		 "sigma_profile": "yes", 
		 "theory": "DFT", 
		 "functional": "B3LYP", 
		 "basiset": "6-31G**", 
		 "properties": { 
			 "R2extent": 4278.1502, 
			 "electric_dipole_moment_norm": 3.70524353586, 
			 "electric_quadrupole_moment_norm": 20.8780473337, 
			 "total_energy": -3123.20271273, 
			 "HOMO_LUMO_gap": 0.18626, 
			 "cosmo_polarized_energy": -15.93, 
			 "cosmo_cavitation_energy": 26.33, 
			 "cosmo_dispersion_energy": -20.03, 
			 "cosmo_repulsion_energy": 1.58, 
			 "cosmo_total_nonelectrostatic_energy": 7.88, 
			 "SMD_solvation_energy": 4.46 
		},
		"coords": [
			{
				"x": 0.7590208448,
				"y": 1.733911595,
				"z": 2.604603635,
				"element": "O" 
			},
			{
				"x": 1.8798305042,
				"y": 0.9640228527,
				"z": 2.5567978653,
				"element": "C" 
			},
			{
				"x": 2.9085688697,
				"y": 1.2870815704,
				"z": 3.1231723435,
				"element": "O" 
			},
			{
				"x": 1.6981948225,
				"y": -0.2521733605,
				"z": 1.7670668764,
				"element": "C" 
			},
			{
				"x": 2.7109067651,
				"y": -1.172945569,
				"z": 1.5887060727,
				"element": "C" 
			},
			{
				"x": 2.2629034186,
				"y": -2.2035412807,
				"z": 0.8123268973,
				"element": "N" 
			},
			{
				"x": 0.9390661325,
				"y": -1.9814930636,
				"z": 0.4614686862,
				"element": "C" 
			},
			{
				"x": 0.5458332274,
				"y": -0.7509030076,
				"z": 1.0499717595,
				"element": "C" 
			},
			{
				"x": -0.7641218343,
				"y": -0.2842862266,
				"z": 0.8496455568,
				"element": "C" 
			},
			{
				"x": -1.6161895295,
				"y": -1.0595571227,
				"z": 0.0776843368,
				"element": "C" 
			},
			{
				"x": -3.4106766959,
				"y": -0.456135869,
				"z": -0.2180458416,
				"element": "Br" 
			},
			{
				"x": -1.2207931461,
				"y": -2.2787880448,
				"z": -0.5032361736,
				"element": "C" 
			},
			{
				"x": 0.0713211707,
				"y": -2.7536357252,
				"z": -0.3143090037,
				"element": "C" 
			},
			{
				"x": 0.9936454115,
				"y": 2.5044721306,
				"z": 3.1477675501,
				"element": "H" 
			},
			{
				"x": 3.7191172676,
				"y": -1.1422358574,
				"z": 1.9747394379,
				"element": "H" 
			},
			{
				"x": 2.8119974894,
				"y": -3.0025505439,
				"z": 0.537343676,
				"element": "H" 
			},
			{
				"x": -1.0904956097,
				"y": 0.6502969402,
				"z": 1.2864990222,
				"element": "H" 
			},
			{
				"x": -1.9292477759,
				"y": -2.8434516704,
				"z": -1.0975031896,
				"element": "H" 
			},
			{
				"x": 0.3865186675,
				"y": -3.6932877474,
				"z": -0.7581995072,
				"element": "H" 
			}
		],
		 "valence_orbital": [ 
			{
				"type": "occ",
				"energy": -0.29201,
				"method": "rhf"
			},
			{
				"type": "occ",
				"energy": -0.28156,
				"method": "rhf"
			},
			{
				"type": "occ",
				"energy": -0.2723,
				"method": "rhf"
			},
			{
				"type": "occ",
				"energy": -0.23147,
				"method": "rhf"
			},
			{
				"type": "occ",
				"energy": -0.22498,
				"method": "rhf"
			},
			{
				"type": "unocc",
				"energy": -0.03872,
				"method": "rhf"
			},
			{
				"type": "unocc",
				"energy": -0.00851,
				"method": "rhf"
			},
			{
				"type": "unocc",
				"energy": 0.00793,
				"method": "rhf"
			},
			{
				"type": "unocc",
				"energy": 0.0115,
				"method": "rhf"
			},
			{
				"type": "unocc",
				"energy": 0.06209,
				"method": "rhf"
			}
		],
		"cosmo_sigma_profile": { 
			"-0.025": 0.0,
			"-0.024": 0.0,
			"-0.023": 0.0,
			"-0.022": 0.0,
			"-0.021": 0.0,
			"-0.02": 0.0,
			"-0.019": 0.0,
			"-0.018": 0.368322923217,
			"-0.017": 2.30802327643,
			"-0.016": 2.45655228662,
			"-0.015": 2.29445518729,
			"-0.014": 2.09399750413,
			"-0.013": 2.43093084726,
			"-0.012": 1.4759433146,
			"-0.011": 1.90854559208,
			"-0.01": 3.26632138245,
			"-0.009": 3.79334216023,
			"-0.008": 3.84895845304,
			"-0.007": 5.32126457129,
			"-0.006": 6.37916192126,
			"-0.005": 6.03766662272,
			"-0.004": 6.43402733439,
			"-0.003": 9.09504722501,
			"-0.002": 8.30752100393,
			"-0.001": 10.3083416383,
			"0.0": 12.5536488829,
			"0.001": 16.9056015379,
			"0.002": 23.4376504684,
			"0.003": 27.6300935216,
			"0.004": 22.7901895659,
			"0.005": 12.9072103936,
			"0.006": 4.25812057979,
			"0.007": 2.57664372454,
			"0.008": 0.68920339939,
			"0.009": 1.00436173411,
			"0.01": 2.15689447507,
			"0.011": 1.87289779841,
			"0.012": 5.21618894657,
			"0.013": 2.74374635967,
			"0.014": 0.0,
			"0.015": 0.0,
			"0.016": 0.0,
			"0.017": 0.0,
			"0.018": 0.0,
			"0.019": 0.0,
			"0.02": 0.0,
			"0.021": 0.0,
			"0.022": 0.0,
			"0.023": 0.0,
			"0.024": 0.0,
			"0.025": 0.0
		}
	}
}
