{
	 "smiles": "FC1=CC2=C(OCC2=O)C=C1", 
	 "Tm": 378.15, 
	 "num_atms": 16, 
	 "gaussian": { 
		 "optdone": 1, 
		 "sigma_profile": "yes", 
		 "theory": "DFT", 
		 "functional": "B3LYP", 
		 "basiset": "6-31G**", 
		 "properties": { 
			 "R2extent": 2400.0429, 
			 "electric_dipole_moment_norm": 2.51613861701, 
			 "electric_quadrupole_moment_norm": 7.90484988725, 
			 "total_energy": -558.131523255, 
			 "HOMO_LUMO_gap": 0.16397, 
			 "cosmo_polarized_energy": -8.39, 
			 "cosmo_cavitation_energy": 21.19, 
			 "cosmo_dispersion_energy": -15.83, 
			 "cosmo_repulsion_energy": 1.24, 
			 "cosmo_total_nonelectrostatic_energy": 6.6, 
			 "SMD_solvation_energy": 5.07 
		},
		"coords": [
			{
				"x": -1.4974683681,
				"y": 2.0987384753,
				"z": -1.5354563657,
				"element": "F" 
			},
			{
				"x": -0.4473292563,
				"y": 1.3540718278,
				"z": -1.1291226621,
				"element": "C" 
			},
			{
				"x": 0.6925539716,
				"y": 1.9817549454,
				"z": -0.6562967712,
				"element": "C" 
			},
			{
				"x": 1.7442590416,
				"y": 1.1535657634,
				"z": -0.2511719443,
				"element": "C" 
			},
			{
				"x": 1.6437930369,
				"y": -0.2398900054,
				"z": -0.3223687739,
				"element": "C" 
			},
			{
				"x": 2.7531998835,
				"y": -0.9021770814,
				"z": 0.1099005202,
				"element": "O" 
			},
			{
				"x": 3.7196372388,
				"y": 0.0861123281,
				"z": 0.5209696763,
				"element": "C" 
			},
			{
				"x": 3.0733665716,
				"y": 1.4653336613,
				"z": 0.2907556826,
				"element": "C" 
			},
			{
				"x": 3.5921868737,
				"y": 2.5398782495,
				"z": 0.5235610981,
				"element": "O" 
			},
			{
				"x": 0.4905495374,
				"y": -0.8648004206,
				"z": -0.8005592743,
				"element": "C" 
			},
			{
				"x": -0.5585913508,
				"y": -0.0419102898,
				"z": -1.2048122176,
				"element": "C" 
			},
			{
				"x": 0.7657490293,
				"y": 3.06238488,
				"z": -0.6029386362,
				"element": "H" 
			},
			{
				"x": 4.6297203719,
				"y": -0.0317161247,
				"z": -0.0758211013,
				"element": "H" 
			},
			{
				"x": 3.9637377805,
				"y": -0.0679308369,
				"z": 1.576897103,
				"element": "H" 
			},
			{
				"x": 0.4178956139,
				"y": -1.9450310938,
				"z": -0.8536765147,
				"element": "H" 
			},
			{
				"x": -1.4816599756,
				"y": -0.4662842782,
				"z": -1.585859819,
				"element": "H" 
			}
		],
		 "valence_orbital": [ 
			{
				"type": "occ",
				"energy": -0.36653,
				"method": "rhf"
			},
			{
				"type": "occ",
				"energy": -0.32806,
				"method": "rhf"
			},
			{
				"type": "occ",
				"energy": -0.27971,
				"method": "rhf"
			},
			{
				"type": "occ",
				"energy": -0.25732,
				"method": "rhf"
			},
			{
				"type": "occ",
				"energy": -0.23547,
				"method": "rhf"
			},
			{
				"type": "unocc",
				"energy": -0.0715,
				"method": "rhf"
			},
			{
				"type": "unocc",
				"energy": -0.00455,
				"method": "rhf"
			},
			{
				"type": "unocc",
				"energy": 0.03351,
				"method": "rhf"
			},
			{
				"type": "unocc",
				"energy": 0.08388,
				"method": "rhf"
			},
			{
				"type": "unocc",
				"energy": 0.09572,
				"method": "rhf"
			}
		],
		"cosmo_sigma_profile": { 
			"-0.025": 0.0,
			"-0.024": 0.0,
			"-0.023": 0.0,
			"-0.022": 0.0,
			"-0.021": 0.0,
			"-0.02": 0.0,
			"-0.019": 0.0,
			"-0.018": 0.0,
			"-0.017": 0.0,
			"-0.016": 0.0,
			"-0.015": 0.0,
			"-0.014": 0.0,
			"-0.013": 0.0,
			"-0.012": 0.0,
			"-0.011": 0.0,
			"-0.01": 0.0,
			"-0.009": 2.29357024787,
			"-0.008": 10.5928105734,
			"-0.007": 8.72240559925,
			"-0.006": 10.9066025438,
			"-0.005": 9.33015134319,
			"-0.004": 7.1650748302,
			"-0.003": 7.64805775867,
			"-0.002": 7.38619456139,
			"-0.001": 10.545898479,
			"0.0": 19.0042252184,
			"0.001": 19.9664769734,
			"0.002": 10.3068174194,
			"0.003": 7.37362950302,
			"0.004": 11.6356142086,
			"0.005": 5.36029918726,
			"0.006": 2.04522597823,
			"0.007": 1.95989082079,
			"0.008": 3.33871229444,
			"0.009": 3.20681930862,
			"0.01": 2.72232582714,
			"0.011": 4.49068157341,
			"0.012": 4.09094846818,
			"0.013": 0.821991024377,
			"0.014": 0.0,
			"0.015": 0.0,
			"0.016": 0.0,
			"0.017": 0.0,
			"0.018": 0.0,
			"0.019": 0.0,
			"0.02": 0.0,
			"0.021": 0.0,
			"0.022": 0.0,
			"0.023": 0.0,
			"0.024": 0.0,
			"0.025": 0.0
		}
	}
}
