{
	 "smiles": "OCC1=C(F)C=C(Br)C=C1", 
	 "Tm": 305.15, 
	 "num_atms": 16, 
	 "gaussian": { 
		 "optdone": 1, 
		 "sigma_profile": "yes", 
		 "theory": "DFT", 
		 "functional": "B3LYP", 
		 "basiset": "6-31G**", 
		 "properties": { 
			 "R2extent": 3534.1412, 
			 "electric_dipole_moment_norm": 1.17323676212, 
			 "electric_quadrupole_moment_norm": 6.09642809684, 
			 "total_energy": -3016.81235921, 
			 "HOMO_LUMO_gap": 0.22001, 
			 "cosmo_polarized_energy": -7.28, 
			 "cosmo_cavitation_energy": 22.89, 
			 "cosmo_dispersion_energy": -17.29, 
			 "cosmo_repulsion_energy": 1.39, 
			 "cosmo_total_nonelectrostatic_energy": 6.99, 
			 "SMD_solvation_energy": 3.29 
		},
		"coords": [
			{
				"x": 1.0664342002,
				"y": -2.6131710421,
				"z": -0.8967436229,
				"element": "O" 
			},
			{
				"x": -0.0178581863,
				"y": -2.4629584526,
				"z": 0.004814634,
				"element": "C" 
			},
			{
				"x": -0.1670639572,
				"y": -1.048040486,
				"z": 0.5323406137,
				"element": "C" 
			},
			{
				"x": -0.8969557967,
				"y": -0.7892956672,
				"z": 1.6929269229,
				"element": "C" 
			},
			{
				"x": -1.4624770914,
				"y": -1.8321260001,
				"z": 2.34399912,
				"element": "F" 
			},
			{
				"x": -1.0710655081,
				"y": 0.4855855207,
				"z": 2.2154247508,
				"element": "C" 
			},
			{
				"x": -0.4848981234,
				"y": 1.552032163,
				"z": 1.5354791989,
				"element": "C" 
			},
			{
				"x": -0.6991276317,
				"y": 3.3209241792,
				"z": 2.222483669,
				"element": "Br" 
			},
			{
				"x": 0.2518132715,
				"y": 1.3490970066,
				"z": 0.3699934388,
				"element": "C" 
			},
			{
				"x": 0.4010835694,
				"y": 0.0503152672,
				"z": -0.1194558958,
				"element": "C" 
			},
			{
				"x": 1.8836741744,
				"y": -2.4755623405,
				"z": -0.3993693717,
				"element": "H" 
			},
			{
				"x": 0.0488514503,
				"y": -3.1642354675,
				"z": 0.8483151058,
				"element": "H" 
			},
			{
				"x": -0.912759488,
				"y": -2.743412891,
				"z": -0.5629230367,
				"element": "H" 
			},
			{
				"x": -1.6447674185,
				"y": 0.6273769689,
				"z": 3.1228303886,
				"element": "H" 
			},
			{
				"x": 0.6992984584,
				"y": 2.1900298626,
				"z": -0.1464832863,
				"element": "H" 
			},
			{
				"x": 0.9708180771,
				"y": -0.1297586211,
				"z": -1.0253326291,
				"element": "H" 
			}
		],
		 "valence_orbital": [ 
			{
				"type": "occ",
				"energy": -0.31277,
				"method": "rhf"
			},
			{
				"type": "occ",
				"energy": -0.29258,
				"method": "rhf"
			},
			{
				"type": "occ",
				"energy": -0.28744,
				"method": "rhf"
			},
			{
				"type": "occ",
				"energy": -0.26372,
				"method": "rhf"
			},
			{
				"type": "occ",
				"energy": -0.2438,
				"method": "rhf"
			},
			{
				"type": "unocc",
				"energy": -0.02379,
				"method": "rhf"
			},
			{
				"type": "unocc",
				"energy": -0.01425,
				"method": "rhf"
			},
			{
				"type": "unocc",
				"energy": 0.00042,
				"method": "rhf"
			},
			{
				"type": "unocc",
				"energy": 0.07141,
				"method": "rhf"
			},
			{
				"type": "unocc",
				"energy": 0.10885,
				"method": "rhf"
			}
		],
		"cosmo_sigma_profile": { 
			"-0.025": 0.0,
			"-0.024": 0.0,
			"-0.023": 0.0,
			"-0.022": 0.0,
			"-0.021": 0.0,
			"-0.02": 0.0,
			"-0.019": 0.0,
			"-0.018": 0.0,
			"-0.017": 0.0,
			"-0.016": 0.674426953801,
			"-0.015": 0.95312877289,
			"-0.014": 0.848744863129,
			"-0.013": 1.06723681007,
			"-0.012": 0.895185812832,
			"-0.011": 1.14050111763,
			"-0.01": 0.569161805543,
			"-0.009": 0.811333890865,
			"-0.008": 2.26690569723,
			"-0.007": 4.45893947822,
			"-0.006": 7.34248020363,
			"-0.005": 10.5651901202,
			"-0.004": 10.6737945861,
			"-0.003": 11.179009123,
			"-0.002": 11.1495944238,
			"-0.001": 11.0315496345,
			"0.0": 14.8339328049,
			"0.001": 17.8016119629,
			"0.002": 20.95727382,
			"0.003": 19.421097409,
			"0.004": 20.7840588807,
			"0.005": 5.96596402989,
			"0.006": 1.38390148917,
			"0.007": 0.753093733395,
			"0.008": 0.689949586283,
			"0.009": 1.26167702264,
			"0.01": 0.978866655115,
			"0.011": 1.76885412041,
			"0.012": 0.680209167305,
			"0.013": 2.19985753746,
			"0.014": 0.984648684563,
			"0.015": 0.0,
			"0.016": 0.0,
			"0.017": 0.0,
			"0.018": 0.0,
			"0.019": 0.0,
			"0.02": 0.0,
			"0.021": 0.0,
			"0.022": 0.0,
			"0.023": 0.0,
			"0.024": 0.0,
			"0.025": 0.0
		}
	}
}
