{
	 "smiles": "CCC(CO)NC(=O)C1CN(C)C2CC3=CNC4=CC=CC(=C34)C2=C1", 
	 "Tm": 445.15, 
	 "num_atms": 50, 
	 "gaussian": { 
		 "optdone": 1, 
		 "sigma_profile": "yes", 
		 "theory": "DFT", 
		 "functional": "B3LYP", 
		 "basiset": "6-31G**", 
		 "properties": { 
			 "R2extent": 9918.617, 
			 "electric_dipole_moment_norm": 5.54809288495, 
			 "electric_quadrupole_moment_norm": 19.5699165823, 
			 "total_energy": -1091.89710321, 
			 "HOMO_LUMO_gap": 0.16438, 
			 "cosmo_polarized_energy": -20.69, 
			 "cosmo_cavitation_energy": 49.78, 
			 "cosmo_dispersion_energy": -33.43, 
			 "cosmo_repulsion_energy": 2.56, 
			 "cosmo_total_nonelectrostatic_energy": 18.92, 
			 "SMD_solvation_energy": 6.06 
		},
		"coords": [
			{
				"x": -3.9701103186,
				"y": 0.0906623965,
				"z": 0.8659869514,
				"element": "C" 
			},
			{
				"x": -3.6623080741,
				"y": 1.4360933989,
				"z": 1.5319533406,
				"element": "C" 
			},
			{
				"x": -2.4770457564,
				"y": 2.2373849638,
				"z": 0.9472601017,
				"element": "C" 
			},
			{
				"x": -2.680555908,
				"y": 2.746533954,
				"z": -0.4815348047,
				"element": "C" 
			},
			{
				"x": -2.5555125967,
				"y": 1.6480174582,
				"z": -1.3852701148,
				"element": "O" 
			},
			{
				"x": -1.2176889432,
				"y": 1.5037544744,
				"z": 0.9972245166,
				"element": "N" 
			},
			{
				"x": -0.4200083789,
				"y": 1.4955752607,
				"z": 2.1022021058,
				"element": "C" 
			},
			{
				"x": -0.6944841343,
				"y": 2.1174361248,
				"z": 3.1256270736,
				"element": "O" 
			},
			{
				"x": 0.8340496672,
				"y": 0.6113340206,
				"z": 2.0229353023,
				"element": "C" 
			},
			{
				"x": 0.5221854339,
				"y": -0.7589867727,
				"z": 2.6601396555,
				"element": "C" 
			},
			{
				"x": 1.6611842797,
				"y": -1.6447724917,
				"z": 2.4852677315,
				"element": "N" 
			},
			{
				"x": 1.7151532211,
				"y": -2.7508845188,
				"z": 3.4238534134,
				"element": "C" 
			},
			{
				"x": 1.9593842264,
				"y": -1.9947290411,
				"z": 1.0988687426,
				"element": "C" 
			},
			{
				"x": 1.1518017757,
				"y": -3.20369324,
				"z": 0.5013825719,
				"element": "C" 
			},
			{
				"x": 1.5981453368,
				"y": -3.4213885206,
				"z": -0.9180991074,
				"element": "C" 
			},
			{
				"x": 1.6377215651,
				"y": -4.4905978472,
				"z": -1.7772300243,
				"element": "C" 
			},
			{
				"x": 2.1649932064,
				"y": -4.0814609079,
				"z": -3.0031960588,
				"element": "N" 
			},
			{
				"x": 2.4785823627,
				"y": -2.7365922416,
				"z": -2.9450514634,
				"element": "C" 
			},
			{
				"x": 3.0144632291,
				"y": -1.8216453451,
				"z": -3.8610932269,
				"element": "C" 
			},
			{
				"x": 3.1830920656,
				"y": -0.5082156729,
				"z": -3.4181903677,
				"element": "C" 
			},
			{
				"x": 2.8407040439,
				"y": -0.0903475806,
				"z": -2.1134248682,
				"element": "C" 
			},
			{
				"x": 2.3035191867,
				"y": -0.9977641925,
				"z": -1.1992978779,
				"element": "C" 
			},
			{
				"x": 2.1346005714,
				"y": -2.3173164867,
				"z": -1.6451244667,
				"element": "C" 
			},
			{
				"x": 1.8668342756,
				"y": -0.7615374661,
				"z": 0.1929741416,
				"element": "C" 
			},
			{
				"x": 1.3833209429,
				"y": 0.4112940784,
				"z": 0.6355998765,
				"element": "C" 
			},
			{
				"x": -4.2375900045,
				"y": 0.2089431252,
				"z": -0.1865988667,
				"element": "H" 
			},
			{
				"x": -3.1039338241,
				"y": -0.5777260004,
				"z": 0.9126596641,
				"element": "H" 
			},
			{
				"x": -4.7980968823,
				"y": -0.407516839,
				"z": 1.3813486967,
				"element": "H" 
			},
			{
				"x": -3.4390902523,
				"y": 1.2793762917,
				"z": 2.5932872377,
				"element": "H" 
			},
			{
				"x": -4.5502868544,
				"y": 2.0818522208,
				"z": 1.4956249106,
				"element": "H" 
			},
			{
				"x": -2.3444332053,
				"y": 3.1152783925,
				"z": 1.589356784,
				"element": "H" 
			},
			{
				"x": -1.919146163,
				"y": 3.5106865621,
				"z": -0.6965718705,
				"element": "H" 
			},
			{
				"x": -3.6707970873,
				"y": 3.2199611347,
				"z": -0.5619467238,
				"element": "H" 
			},
			{
				"x": -2.5047978541,
				"y": 1.9946330823,
				"z": -2.28394284,
				"element": "H" 
			},
			{
				"x": -0.9782494989,
				"y": 0.9400164963,
				"z": 0.1928372858,
				"element": "H" 
			},
			{
				"x": 1.5741653098,
				"y": 1.1158800423,
				"z": 2.6564907509,
				"element": "H" 
			},
			{
				"x": 0.3405361535,
				"y": -0.6229614083,
				"z": 3.7300302008,
				"element": "H" 
			},
			{
				"x": -0.4127746566,
				"y": -1.1605076156,
				"z": 2.2230404472,
				"element": "H" 
			},
			{
				"x": 1.7264726749,
				"y": -2.3575948646,
				"z": 4.4459388791,
				"element": "H" 
			},
			{
				"x": 0.8728503431,
				"y": -3.4629262097,
				"z": 3.3501563769,
				"element": "H" 
			},
			{
				"x": 2.6429560381,
				"y": -3.3142424661,
				"z": 3.2731228318,
				"element": "H" 
			},
			{
				"x": 3.0145087325,
				"y": -2.310191458,
				"z": 1.0772434511,
				"element": "H" 
			},
			{
				"x": 0.0772363572,
				"y": -2.9776238748,
				"z": 0.5448252515,
				"element": "H" 
			},
			{
				"x": 1.3148554578,
				"y": -4.0942914688,
				"z": 1.1168668298,
				"element": "H" 
			},
			{
				"x": 1.3367031207,
				"y": -5.5193831651,
				"z": -1.6361338352,
				"element": "H" 
			},
			{
				"x": 2.2960226477,
				"y": -4.6821849631,
				"z": -3.8001687935,
				"element": "H" 
			},
			{
				"x": 3.2932016418,
				"y": -2.1091629216,
				"z": -4.8706589415,
				"element": "H" 
			},
			{
				"x": 3.6065653582,
				"y": 0.2214046518,
				"z": -4.1027550767,
				"element": "H" 
			},
			{
				"x": 3.0232788775,
				"y": 0.9397153796,
				"z": -1.8209750928,
				"element": "H" 
			},
			{
				"x": 1.3626222901,
				"y": 1.262812071,
				"z": -0.0427407013,
				"element": "H" 
			}
		],
		 "valence_orbital": [ 
			{
				"type": "occ",
				"energy": -0.23805,
				"method": "rhf"
			},
			{
				"type": "occ",
				"energy": -0.22993,
				"method": "rhf"
			},
			{
				"type": "occ",
				"energy": -0.21897,
				"method": "rhf"
			},
			{
				"type": "occ",
				"energy": -0.20333,
				"method": "rhf"
			},
			{
				"type": "occ",
				"energy": -0.18883,
				"method": "rhf"
			},
			{
				"type": "unocc",
				"energy": -0.02445,
				"method": "rhf"
			},
			{
				"type": "unocc",
				"energy": 0.01602,
				"method": "rhf"
			},
			{
				"type": "unocc",
				"energy": 0.04051,
				"method": "rhf"
			},
			{
				"type": "unocc",
				"energy": 0.04765,
				"method": "rhf"
			},
			{
				"type": "unocc",
				"energy": 0.06107,
				"method": "rhf"
			}
		],
		"cosmo_sigma_profile": { 
			"-0.025": 0.0,
			"-0.024": 0.0,
			"-0.023": 0.0,
			"-0.022": 0.0,
			"-0.021": 0.0,
			"-0.02": 0.0,
			"-0.019": 0.0,
			"-0.018": 0.0,
			"-0.017": 0.0610645873536,
			"-0.016": 0.900342641653,
			"-0.015": 2.4660397928,
			"-0.014": 2.66027916551,
			"-0.013": 2.1635783333,
			"-0.012": 1.88580572787,
			"-0.011": 1.73205300591,
			"-0.01": 1.63951491835,
			"-0.009": 2.07947393371,
			"-0.008": 3.46572092073,
			"-0.007": 4.30147119713,
			"-0.006": 5.93456159933,
			"-0.005": 12.693473027,
			"-0.004": 33.9432998694,
			"-0.003": 43.205766413,
			"-0.002": 42.5254734482,
			"-0.001": 39.6264182243,
			"0.0": 37.2790764036,
			"0.001": 26.9615149176,
			"0.002": 20.2879276083,
			"0.003": 15.1999077993,
			"0.004": 15.5691444502,
			"0.005": 19.9757786595,
			"0.006": 17.3497897911,
			"0.007": 10.1381828753,
			"0.008": 4.28276386912,
			"0.009": 3.36145780515,
			"0.01": 2.80449292196,
			"0.011": 2.38287173461,
			"0.012": 1.97825719821,
			"0.013": 2.36741452416,
			"0.014": 5.19502796595,
			"0.015": 2.65195376701,
			"0.016": 0.275717437279,
			"0.017": 0.0,
			"0.018": 0.0,
			"0.019": 0.0,
			"0.02": 0.0,
			"0.021": 0.0,
			"0.022": 0.0,
			"0.023": 0.0,
			"0.024": 0.0,
			"0.025": 0.0
		}
	}
}
