{
	 "smiles": "CC1=C(C=CC(=C1)[N+]([O-])=O)S(N)(=O)=O", 
	 "Tm": 429.15, 
	 "num_atms": 22, 
	 "gaussian": { 
		 "optdone": 1, 
		 "sigma_profile": "yes", 
		 "theory": "DFT", 
		 "functional": "B3LYP", 
		 "basiset": "6-31G**", 
		 "properties": { 
			 "R2extent": 3626.6032, 
			 "electric_dipole_moment_norm": 4.06735238085, 
			 "electric_quadrupole_moment_norm": 28.9292827165, 
			 "total_energy": -1079.98239886, 
			 "HOMO_LUMO_gap": 0.18059, 
			 "cosmo_polarized_energy": -20.81, 
			 "cosmo_cavitation_energy": 27.86, 
			 "cosmo_dispersion_energy": -21.05, 
			 "cosmo_repulsion_energy": 1.59, 
			 "cosmo_total_nonelectrostatic_energy": 8.39, 
			 "SMD_solvation_energy": 6.76 
		},
		"coords": [
			{
				"x": -0.6617410234,
				"y": 2.0305927601,
				"z": 0.3531940837,
				"element": "C" 
			},
			{
				"x": 0.0174586034,
				"y": 0.7107333138,
				"z": 0.0731758281,
				"element": "C" 
			},
			{
				"x": -0.1795502688,
				"y": -0.4557047162,
				"z": 0.8442857608,
				"element": "C" 
			},
			{
				"x": 0.4710290197,
				"y": -1.6567051717,
				"z": 0.5454183298,
				"element": "C" 
			},
			{
				"x": 1.3345904589,
				"y": -1.736358433,
				"z": -0.5433211192,
				"element": "C" 
			},
			{
				"x": 1.5233474819,
				"y": -0.5912656772,
				"z": -1.3078592078,
				"element": "C" 
			},
			{
				"x": 0.8876000293,
				"y": 0.6122012136,
				"z": -1.0174923753,
				"element": "C" 
			},
			{
				"x": 2.4323690025,
				"y": -0.6495320981,
				"z": -2.4697536757,
				"element": "N" 
			},
			{
				"x": 2.9795342726,
				"y": -1.7242595982,
				"z": -2.7064913993,
				"element": "O" 
			},
			{
				"x": 2.582051489,
				"y": 0.3787669559,
				"z": -3.1270451499,
				"element": "O" 
			},
			{
				"x": -1.2550998333,
				"y": -0.4827916721,
				"z": 2.3070287927,
				"element": "S" 
			},
			{
				"x": -2.8209943731,
				"y": -0.2489899916,
				"z": 1.7709021346,
				"element": "N" 
			},
			{
				"x": -1.2137626485,
				"y": -1.8465795163,
				"z": 2.8279247427,
				"element": "O" 
			},
			{
				"x": -0.932338537,
				"y": 0.6808056387,
				"z": 3.1303432654,
				"element": "O" 
			},
			{
				"x": -1.7270776861,
				"y": 1.9903937037,
				"z": 0.091243283,
				"element": "H" 
			},
			{
				"x": -0.5879719229,
				"y": 2.3029314204,
				"z": 1.4077861351,
				"element": "H" 
			},
			{
				"x": -0.2158135134,
				"y": 2.8231051677,
				"z": -0.2512050491,
				"element": "H" 
			},
			{
				"x": 0.2970642413,
				"y": -2.5188791027,
				"z": 1.1783705209,
				"element": "H" 
			},
			{
				"x": 1.8534339788,
				"y": -2.6514191448,
				"z": -0.7983053181,
				"element": "H" 
			},
			{
				"x": 1.0820019475,
				"y": 1.4714838831,
				"z": -1.6477935307,
				"element": "H" 
			},
			{
				"x": -3.0219867395,
				"y": 0.6875229721,
				"z": 1.4405300209,
				"element": "H" 
			},
			{
				"x": -3.1784439791,
				"y": -0.9957519073,
				"z": 1.1854639274,
				"element": "H" 
			}
		],
		 "valence_orbital": [ 
			{
				"type": "occ",
				"energy": -0.32082,
				"method": "rhf"
			},
			{
				"type": "occ",
				"energy": -0.31751,
				"method": "rhf"
			},
			{
				"type": "occ",
				"energy": -0.30464,
				"method": "rhf"
			},
			{
				"type": "occ",
				"energy": -0.29459,
				"method": "rhf"
			},
			{
				"type": "occ",
				"energy": -0.28836,
				"method": "rhf"
			},
			{
				"type": "unocc",
				"energy": -0.10777,
				"method": "rhf"
			},
			{
				"type": "unocc",
				"energy": -0.045,
				"method": "rhf"
			},
			{
				"type": "unocc",
				"energy": -0.03077,
				"method": "rhf"
			},
			{
				"type": "unocc",
				"energy": 0.03344,
				"method": "rhf"
			},
			{
				"type": "unocc",
				"energy": 0.05344,
				"method": "rhf"
			}
		],
		"cosmo_sigma_profile": { 
			"-0.025": 0.0,
			"-0.024": 0.0,
			"-0.023": 0.0,
			"-0.022": 0.0,
			"-0.021": 0.0,
			"-0.02": 0.0,
			"-0.019": 0.0,
			"-0.018": 0.0,
			"-0.017": 0.0,
			"-0.016": 0.883240085597,
			"-0.015": 2.42942629398,
			"-0.014": 2.17865261463,
			"-0.013": 3.10723530606,
			"-0.012": 3.13167142337,
			"-0.011": 3.29161247494,
			"-0.01": 1.61181716407,
			"-0.009": 2.22761575202,
			"-0.008": 6.30339301613,
			"-0.007": 9.87150694869,
			"-0.006": 8.62697305311,
			"-0.005": 8.47292825324,
			"-0.004": 10.9107332691,
			"-0.003": 14.2629466871,
			"-0.002": 19.6403048342,
			"-0.001": 21.834822815,
			"0.0": 16.0848870545,
			"0.001": 6.34439943929,
			"0.002": 5.08126972625,
			"0.003": 4.42259729001,
			"0.004": 5.89043896546,
			"0.005": 5.64657054266,
			"0.006": 8.52671686826,
			"0.007": 14.8865592886,
			"0.008": 9.32846658896,
			"0.009": 8.85663194371,
			"0.01": 9.06577564024,
			"0.011": 8.72985913859,
			"0.012": 1.00602656628,
			"0.013": 0.0,
			"0.014": 0.0,
			"0.015": 0.0,
			"0.016": 0.0,
			"0.017": 0.0,
			"0.018": 0.0,
			"0.019": 0.0,
			"0.02": 0.0,
			"0.021": 0.0,
			"0.022": 0.0,
			"0.023": 0.0,
			"0.024": 0.0,
			"0.025": 0.0
		}
	}
}
