{
	 "smiles": "NC1=NN(C=C1)C1=NC=CS1", 
	 "Tm": 373.15, 
	 "num_atms": 17, 
	 "gaussian": { 
		 "optdone": 1, 
		 "sigma_profile": "yes", 
		 "theory": "DFT", 
		 "functional": "B3LYP", 
		 "basiset": "6-31G**", 
		 "properties": { 
			 "R2extent": 2253.9596, 
			 "electric_dipole_moment_norm": 1.58471393949, 
			 "electric_quadrupole_moment_norm": 13.3948924057, 
			 "total_energy": -849.411781323, 
			 "HOMO_LUMO_gap": 0.16804, 
			 "cosmo_polarized_energy": -11.5, 
			 "cosmo_cavitation_energy": 23.42, 
			 "cosmo_dispersion_energy": -18.23, 
			 "cosmo_repulsion_energy": 1.42, 
			 "cosmo_total_nonelectrostatic_energy": 6.61, 
			 "SMD_solvation_energy": 2.45 
		},
		"coords": [
			{
				"x": 1.9791403484,
				"y": 0.1582184056,
				"z": -2.5792100468,
				"element": "N" 
			},
			{
				"x": 1.331817437,
				"y": 0.3313527393,
				"z": -1.365245765,
				"element": "C" 
			},
			{
				"x": 0.3044675296,
				"y": -0.4367547163,
				"z": -1.0210548251,
				"element": "N" 
			},
			{
				"x": -0.1140489796,
				"y": 0.0750116534,
				"z": 0.1794203131,
				"element": "N" 
			},
			{
				"x": 0.6472821732,
				"y": 1.1364701567,
				"z": 0.5869810567,
				"element": "C" 
			},
			{
				"x": 1.5950198094,
				"y": 1.3382071094,
				"z": -0.3844640578,
				"element": "C" 
			},
			{
				"x": -1.192990436,
				"y": -0.4909737358,
				"z": 0.8397953902,
				"element": "C" 
			},
			{
				"x": -1.63219763,
				"y": -0.0683602853,
				"z": 1.9897265205,
				"element": "N" 
			},
			{
				"x": -2.711187158,
				"y": -0.8301768325,
				"z": 2.3831129916,
				"element": "C" 
			},
			{
				"x": -3.0877976772,
				"y": -1.8275773623,
				"z": 1.534719692,
				"element": "C" 
			},
			{
				"x": -2.0475854212,
				"y": -1.8494034607,
				"z": 0.1340893125,
				"element": "S" 
			},
			{
				"x": 2.9711145697,
				"y": 0.351122428,
				"z": -2.5566959605,
				"element": "H" 
			},
			{
				"x": 1.7734839193,
				"y": -0.7333723828,
				"z": -3.0118064453,
				"element": "H" 
			},
			{
				"x": 0.434917665,
				"y": 1.6379620955,
				"z": 1.5181263103,
				"element": "H" 
			},
			{
				"x": 2.3589056184,
				"y": 2.1008736094,
				"z": -0.4070513171,
				"element": "H" 
			},
			{
				"x": -3.194548339,
				"y": -0.6030247018,
				"z": 3.3260499655,
				"element": "H" 
			},
			{
				"x": -3.8946934291,
				"y": -2.5380747198,
				"z": 1.6401068652,
				"element": "H" 
			}
		],
		 "valence_orbital": [ 
			{
				"type": "occ",
				"energy": -0.28191,
				"method": "rhf"
			},
			{
				"type": "occ",
				"energy": -0.28185,
				"method": "rhf"
			},
			{
				"type": "occ",
				"energy": -0.26588,
				"method": "rhf"
			},
			{
				"type": "occ",
				"energy": -0.24265,
				"method": "rhf"
			},
			{
				"type": "occ",
				"energy": -0.20213,
				"method": "rhf"
			},
			{
				"type": "unocc",
				"energy": -0.03409,
				"method": "rhf"
			},
			{
				"type": "unocc",
				"energy": 0.02485,
				"method": "rhf"
			},
			{
				"type": "unocc",
				"energy": 0.03021,
				"method": "rhf"
			},
			{
				"type": "unocc",
				"energy": 0.06933,
				"method": "rhf"
			},
			{
				"type": "unocc",
				"energy": 0.07566,
				"method": "rhf"
			}
		],
		"cosmo_sigma_profile": { 
			"-0.025": 0.0,
			"-0.024": 0.0,
			"-0.023": 0.0,
			"-0.022": 0.0,
			"-0.021": 0.0,
			"-0.02": 0.0,
			"-0.019": 0.0,
			"-0.018": 0.0,
			"-0.017": 0.0,
			"-0.016": 0.0,
			"-0.015": 0.0,
			"-0.014": 0.206427776103,
			"-0.013": 1.75070285097,
			"-0.012": 2.28829889124,
			"-0.011": 2.67241144103,
			"-0.01": 2.5252274831,
			"-0.009": 5.38352582623,
			"-0.008": 6.96911865093,
			"-0.007": 8.6896522415,
			"-0.006": 7.48649616003,
			"-0.005": 8.1470965064,
			"-0.004": 8.31350819843,
			"-0.003": 6.4111977977,
			"-0.002": 7.46595680658,
			"-0.001": 10.1924829421,
			"0.0": 13.614216769,
			"0.001": 14.8844079566,
			"0.002": 16.9801527236,
			"0.003": 19.6405830599,
			"0.004": 13.5065751107,
			"0.005": 6.86010029338,
			"0.006": 4.33981718934,
			"0.007": 4.34331563899,
			"0.008": 3.14200135223,
			"0.009": 4.26811893014,
			"0.01": 3.43727221039,
			"0.011": 2.88943421779,
			"0.012": 2.26453261638,
			"0.013": 1.23835471604,
			"0.014": 0.617336690185,
			"0.015": 0.0,
			"0.016": 0.0,
			"0.017": 0.0,
			"0.018": 0.0,
			"0.019": 0.0,
			"0.02": 0.0,
			"0.021": 0.0,
			"0.022": 0.0,
			"0.023": 0.0,
			"0.024": 0.0,
			"0.025": 0.0
		}
	}
}
