{
	 "smiles": "CC(Cl)C(=O)N1CCCC(C1)C(N)=O", 
	 "Tm": 388.15, 
	 "num_atms": 29, 
	 "gaussian": { 
		 "optdone": 1, 
		 "sigma_profile": "yes", 
		 "theory": "DFT", 
		 "functional": "B3LYP", 
		 "basiset": "6-31G**", 
		 "properties": { 
			 "R2extent": 4036.1452, 
			 "electric_dipole_moment_norm": 6.46137242697, 
			 "electric_quadrupole_moment_norm": 17.4015680276, 
			 "total_energy": -1072.17392589, 
			 "HOMO_LUMO_gap": 0.23232, 
			 "cosmo_polarized_energy": -21.51, 
			 "cosmo_cavitation_energy": 32.14, 
			 "cosmo_dispersion_energy": -22.82, 
			 "cosmo_repulsion_energy": 1.83, 
			 "cosmo_total_nonelectrostatic_energy": 11.15, 
			 "SMD_solvation_energy": 5.58 
		},
		"coords": [
			{
				"x": 1.0809248002,
				"y": 2.2905990127,
				"z": 2.5408834905,
				"element": "C" 
			},
			{
				"x": 1.9876256636,
				"y": 1.5752472372,
				"z": 1.5426227511,
				"element": "C" 
			},
			{
				"x": 2.2597279114,
				"y": 2.613380079,
				"z": 0.0464322,
				"element": "Cl" 
			},
			{
				"x": 1.5658893033,
				"y": 0.1238175013,
				"z": 1.2421905413,
				"element": "C" 
			},
			{
				"x": 2.1987575993,
				"y": -0.7546750651,
				"z": 1.8244643405,
				"element": "O" 
			},
			{
				"x": 0.5196938813,
				"y": -0.1730848783,
				"z": 0.4196120387,
				"element": "N" 
			},
			{
				"x": -0.4284292356,
				"y": 0.756837783,
				"z": -0.1925596997,
				"element": "C" 
			},
			{
				"x": -0.4447039505,
				"y": 0.5960424948,
				"z": -1.7247914347,
				"element": "C" 
			},
			{
				"x": -0.2060943329,
				"y": -0.8728424196,
				"z": -2.1401251805,
				"element": "C" 
			},
			{
				"x": -0.6420492786,
				"y": -1.8398948445,
				"z": -1.0187304411,
				"element": "C" 
			},
			{
				"x": 0.2303368853,
				"y": -1.605229233,
				"z": 0.2288954849,
				"element": "C" 
			},
			{
				"x": -0.4715462651,
				"y": -3.2888797946,
				"z": -1.490567653,
				"element": "C" 
			},
			{
				"x": -1.6282313015,
				"y": -3.9360159336,
				"z": -1.8216074087,
				"element": "N" 
			},
			{
				"x": 0.6267814284,
				"y": -3.8138375263,
				"z": -1.603424174,
				"element": "O" 
			},
			{
				"x": 1.5137176415,
				"y": 3.2525239282,
				"z": 2.8256426757,
				"element": "H" 
			},
			{
				"x": 0.0779633756,
				"y": 2.4666050099,
				"z": 2.1452449212,
				"element": "H" 
			},
			{
				"x": 0.9949240819,
				"y": 1.6686821759,
				"z": 3.438472113,
				"element": "H" 
			},
			{
				"x": 2.9851860626,
				"y": 1.4649154508,
				"z": 1.9631436492,
				"element": "H" 
			},
			{
				"x": -0.1769646301,
				"y": 1.7792192225,
				"z": 0.0755940001,
				"element": "H" 
			},
			{
				"x": -1.4264097802,
				"y": 0.5504465664,
				"z": 0.2203493022,
				"element": "H" 
			},
			{
				"x": -1.4111733431,
				"y": 0.953345049,
				"z": -2.0995719452,
				"element": "H" 
			},
			{
				"x": 0.3272467908,
				"y": 1.2334508831,
				"z": -2.1663969845,
				"element": "H" 
			},
			{
				"x": -0.735619429,
				"y": -1.101521496,
				"z": -3.0709234193,
				"element": "H" 
			},
			{
				"x": 0.8572544252,
				"y": -1.0499624716,
				"z": -2.3303268614,
				"element": "H" 
			},
			{
				"x": -1.6995631236,
				"y": -1.6582036545,
				"z": -0.7832566185,
				"element": "H" 
			},
			{
				"x": 1.1773968552,
				"y": -2.1327416882,
				"z": 0.1022868494,
				"element": "H" 
			},
			{
				"x": -0.2511322396,
				"y": -2.0154819988,
				"z": 1.1270789424,
				"element": "H" 
			},
			{
				"x": -2.5377127068,
				"y": -3.5231731483,
				"z": -1.6983056462,
				"element": "H" 
			},
			{
				"x": -1.5617970888,
				"y": -4.8828682414,
				"z": -2.1638258332,
				"element": "H" 
			}
		],
		 "valence_orbital": [ 
			{
				"type": "occ",
				"energy": -0.29635,
				"method": "rhf"
			},
			{
				"type": "occ",
				"energy": -0.27339,
				"method": "rhf"
			},
			{
				"type": "occ",
				"energy": -0.25407,
				"method": "rhf"
			},
			{
				"type": "occ",
				"energy": -0.24923,
				"method": "rhf"
			},
			{
				"type": "occ",
				"energy": -0.23841,
				"method": "rhf"
			},
			{
				"type": "unocc",
				"energy": -0.00609,
				"method": "rhf"
			},
			{
				"type": "unocc",
				"energy": 0.02161,
				"method": "rhf"
			},
			{
				"type": "unocc",
				"energy": 0.04667,
				"method": "rhf"
			},
			{
				"type": "unocc",
				"energy": 0.05982,
				"method": "rhf"
			},
			{
				"type": "unocc",
				"energy": 0.08452,
				"method": "rhf"
			}
		],
		"cosmo_sigma_profile": { 
			"-0.025": 0.0,
			"-0.024": 0.0,
			"-0.023": 0.0,
			"-0.022": 0.0,
			"-0.021": 0.0,
			"-0.02": 0.0,
			"-0.019": 0.0,
			"-0.018": 0.0,
			"-0.017": 0.0,
			"-0.016": 0.0,
			"-0.015": 0.225051940214,
			"-0.014": 1.75399161273,
			"-0.013": 3.05489032566,
			"-0.012": 1.67935104191,
			"-0.011": 3.16801443339,
			"-0.01": 2.78815588115,
			"-0.009": 2.10057342962,
			"-0.008": 2.30001656296,
			"-0.007": 3.82869946311,
			"-0.006": 8.62253160181,
			"-0.005": 17.6528814499,
			"-0.004": 23.4091710376,
			"-0.003": 26.5258283965,
			"-0.002": 22.2382002352,
			"-0.001": 21.6441716185,
			"0.0": 17.7546568532,
			"0.001": 11.6083981686,
			"0.002": 11.6898545063,
			"0.003": 9.21310383355,
			"0.004": 9.99884110993,
			"0.005": 8.45253241533,
			"0.006": 8.20131388405,
			"0.007": 3.41869787351,
			"0.008": 2.39772839614,
			"0.009": 2.32700080343,
			"0.01": 3.06734530835,
			"0.011": 2.70424697774,
			"0.012": 3.42457290023,
			"0.013": 7.86061414376,
			"0.014": 8.4073678987,
			"0.015": 0.90906638792,
			"0.016": 0.0,
			"0.017": 0.0,
			"0.018": 0.0,
			"0.019": 0.0,
			"0.02": 0.0,
			"0.021": 0.0,
			"0.022": 0.0,
			"0.023": 0.0,
			"0.024": 0.0,
			"0.025": 0.0
		}
	}
}
