{
	 "smiles": "CC(C)(C)OC(=O)NCCNS(=O)(=O)C1=CC=C(N)C=C1", 
	 "Tm": 404.15, 
	 "num_atms": 42, 
	 "gaussian": { 
		 "optdone": 1, 
		 "sigma_profile": "yes", 
		 "theory": "DFT", 
		 "functional": "B3LYP", 
		 "basiset": "6-31G**", 
		 "properties": { 
			 "R2extent": 9162.6031, 
			 "electric_dipole_moment_norm": 6.5919022065, 
			 "electric_quadrupole_moment_norm": 36.2641126301, 
			 "total_energy": -1371.35561763, 
			 "HOMO_LUMO_gap": 0.19948, 
			 "cosmo_polarized_energy": -24.51, 
			 "cosmo_cavitation_energy": 45.71, 
			 "cosmo_dispersion_energy": -30.91, 
			 "cosmo_repulsion_energy": 2.39, 
			 "cosmo_total_nonelectrostatic_energy": 17.19, 
			 "SMD_solvation_energy": 6.57 
		},
		"coords": [
			{
				"x": 0.294473408,
				"y": 3.5621300819,
				"z": 2.0017408219,
				"element": "C" 
			},
			{
				"x": -0.9933247803,
				"y": 3.1696567838,
				"z": 1.2688049833,
				"element": "C" 
			},
			{
				"x": -2.1740507486,
				"y": 3.111188724,
				"z": 2.2420369288,
				"element": "C" 
			},
			{
				"x": -1.3016322862,
				"y": 4.1079225789,
				"z": 0.0967786474,
				"element": "C" 
			},
			{
				"x": -0.9018693937,
				"y": 1.7820608345,
				"z": 0.7937593076,
				"element": "O" 
			},
			{
				"x": 0.0428482002,
				"y": 1.4164182075,
				"z": -0.1091158045,
				"element": "C" 
			},
			{
				"x": 0.8932795782,
				"y": 2.1430503531,
				"z": -0.602894649,
				"element": "O" 
			},
			{
				"x": -0.107719582,
				"y": 0.0925275646,
				"z": -0.4168659554,
				"element": "N" 
			},
			{
				"x": 0.8996691282,
				"y": -0.5994214687,
				"z": -1.2001029474,
				"element": "C" 
			},
			{
				"x": 2.1458926036,
				"y": -1.0032638004,
				"z": -0.4012869129,
				"element": "C" 
			},
			{
				"x": 1.8189861542,
				"y": -1.8346561499,
				"z": 0.7725076305,
				"element": "N" 
			},
			{
				"x": 1.5170616705,
				"y": -3.4896326841,
				"z": 0.5444895463,
				"element": "S" 
			},
			{
				"x": 1.9240360072,
				"y": -4.1057382637,
				"z": 1.8129898742,
				"element": "O" 
			},
			{
				"x": 2.0778593036,
				"y": -3.9422652866,
				"z": -0.7364866828,
				"element": "O" 
			},
			{
				"x": -0.2584776085,
				"y": -3.5590335633,
				"z": 0.3955384084,
				"element": "C" 
			},
			{
				"x": -1.0684445701,
				"y": -3.0819961482,
				"z": 1.433633485,
				"element": "C" 
			},
			{
				"x": -2.4493853026,
				"y": -3.1607546666,
				"z": 1.3247234014,
				"element": "C" 
			},
			{
				"x": -3.0491864447,
				"y": -3.7338357049,
				"z": 0.1822251561,
				"element": "C" 
			},
			{
				"x": -4.4230895528,
				"y": -3.8569835812,
				"z": 0.0985130303,
				"element": "N" 
			},
			{
				"x": -2.218153823,
				"y": -4.221354702,
				"z": -0.8450970054,
				"element": "C" 
			},
			{
				"x": -0.8351319999,
				"y": -4.1361809484,
				"z": -0.7384208059,
				"element": "C" 
			},
			{
				"x": 1.1413939478,
				"y": 3.5849232778,
				"z": 1.3157082677,
				"element": "H" 
			},
			{
				"x": 0.1754257844,
				"y": 4.5535658471,
				"z": 2.4508945096,
				"element": "H" 
			},
			{
				"x": 0.5061720295,
				"y": 2.8491768533,
				"z": 2.80517013,
				"element": "H" 
			},
			{
				"x": -3.0834376512,
				"y": 2.788965143,
				"z": 1.7262440496,
				"element": "H" 
			},
			{
				"x": -2.3534610295,
				"y": 4.0991561451,
				"z": 2.6764515554,
				"element": "H" 
			},
			{
				"x": -1.9702972107,
				"y": 2.4074050277,
				"z": 3.0545019577,
				"element": "H" 
			},
			{
				"x": -1.4795777995,
				"y": 5.12092592,
				"z": 0.4723953832,
				"element": "H" 
			},
			{
				"x": -2.2038039306,
				"y": 3.7764519735,
				"z": -0.4272654931,
				"element": "H" 
			},
			{
				"x": -0.4716523698,
				"y": 4.1335779048,
				"z": -0.6096196186,
				"element": "H" 
			},
			{
				"x": -0.697403923,
				"y": -0.4537285754,
				"z": 0.1943077422,
				"element": "H" 
			},
			{
				"x": 1.2135990342,
				"y": 0.0656861917,
				"z": -2.0082754748,
				"element": "H" 
			},
			{
				"x": 0.4353078027,
				"y": -1.4791646901,
				"z": -1.6535833463,
				"element": "H" 
			},
			{
				"x": 2.8578930928,
				"y": -1.5038772841,
				"z": -1.0692011268,
				"element": "H" 
			},
			{
				"x": 2.6164005218,
				"y": -0.0958395211,
				"z": -0.0127968941,
				"element": "H" 
			},
			{
				"x": 2.5117895684,
				"y": -1.778573126,
				"z": 1.5145706294,
				"element": "H" 
			},
			{
				"x": -0.616403433,
				"y": -2.648491507,
				"z": 2.319744971,
				"element": "H" 
			},
			{
				"x": -3.0779253262,
				"y": -2.7902791549,
				"z": 2.1301201873,
				"element": "H" 
			},
			{
				"x": -4.9776112453,
				"y": -3.2579496123,
				"z": 0.6915028529,
				"element": "H" 
			},
			{
				"x": -4.8179838268,
				"y": -4.0025354398,
				"z": -0.8185111123,
				"element": "H" 
			},
			{
				"x": -2.665198645,
				"y": -4.6722101576,
				"z": -1.7269955783,
				"element": "H" 
			},
			{
				"x": -0.1934653522,
				"y": -4.509523376,
				"z": -1.5290340496,
				"element": "H" 
			}
		],
		 "valence_orbital": [ 
			{
				"type": "occ",
				"energy": -0.27429,
				"method": "rhf"
			},
			{
				"type": "occ",
				"energy": -0.27048,
				"method": "rhf"
			},
			{
				"type": "occ",
				"energy": -0.26371,
				"method": "rhf"
			},
			{
				"type": "occ",
				"energy": -0.24918,
				"method": "rhf"
			},
			{
				"type": "occ",
				"energy": -0.22547,
				"method": "rhf"
			},
			{
				"type": "unocc",
				"energy": -0.02599,
				"method": "rhf"
			},
			{
				"type": "unocc",
				"energy": -0.02077,
				"method": "rhf"
			},
			{
				"type": "unocc",
				"energy": 0.05376,
				"method": "rhf"
			},
			{
				"type": "unocc",
				"energy": 0.05631,
				"method": "rhf"
			},
			{
				"type": "unocc",
				"energy": 0.06971,
				"method": "rhf"
			}
		],
		"cosmo_sigma_profile": { 
			"-0.025": 0.0,
			"-0.024": 0.0,
			"-0.023": 0.0,
			"-0.022": 0.0,
			"-0.021": 0.0,
			"-0.02": 0.0,
			"-0.019": 0.0,
			"-0.018": 0.0,
			"-0.017": 0.0,
			"-0.016": 0.0,
			"-0.015": 0.0700372773965,
			"-0.014": 1.2307919622,
			"-0.013": 3.84047122704,
			"-0.012": 3.65926712774,
			"-0.011": 5.01592005387,
			"-0.01": 4.35180027172,
			"-0.009": 3.92415732803,
			"-0.008": 3.91040534075,
			"-0.007": 7.33108474646,
			"-0.006": 11.4378932235,
			"-0.005": 16.5341935632,
			"-0.004": 25.5090713378,
			"-0.003": 33.2460659564,
			"-0.002": 30.4255351472,
			"-0.001": 27.8521637043,
			"0.0": 33.5481016286,
			"0.001": 30.5126740046,
			"0.002": 16.2660410135,
			"0.003": 16.3341793628,
			"0.004": 16.4862617967,
			"0.005": 9.52573726008,
			"0.006": 8.49786366167,
			"0.007": 6.48940752937,
			"0.008": 6.04861573151,
			"0.009": 6.13797274296,
			"0.01": 6.95727855172,
			"0.011": 10.6883176484,
			"0.012": 8.86839698609,
			"0.013": 2.99854482272,
			"0.014": 0.76258822969,
			"0.015": 0.0,
			"0.016": 0.0,
			"0.017": 0.0,
			"0.018": 0.0,
			"0.019": 0.0,
			"0.02": 0.0,
			"0.021": 0.0,
			"0.022": 0.0,
			"0.023": 0.0,
			"0.024": 0.0,
			"0.025": 0.0
		}
	}
}
