{
	 "smiles": "CCN1C(Cl)=NN=C1C1=C(Cl)C=CC=C1", 
	 "Tm": 397.15, 
	 "num_atms": 24, 
	 "gaussian": { 
		 "optdone": 1, 
		 "sigma_profile": "yes", 
		 "theory": "DFT", 
		 "functional": "B3LYP", 
		 "basiset": "6-31G**", 
		 "properties": { 
			 "R2extent": 4437.9913, 
			 "electric_dipole_moment_norm": 6.60366450238, 
			 "electric_quadrupole_moment_norm": 25.398728215, 
			 "total_energy": -1471.10295628, 
			 "HOMO_LUMO_gap": 0.21585, 
			 "cosmo_polarized_energy": -15.46, 
			 "cosmo_cavitation_energy": 31.68, 
			 "cosmo_dispersion_energy": -22.19, 
			 "cosmo_repulsion_energy": 1.74, 
			 "cosmo_total_nonelectrostatic_energy": 11.22, 
			 "SMD_solvation_energy": 2.66 
		},
		"coords": [
			{
				"x": 1.465534671,
				"y": -1.9390866248,
				"z": -0.7950962179,
				"element": "C" 
			},
			{
				"x": 2.0237997193,
				"y": -0.7304028577,
				"z": -0.042462893,
				"element": "C" 
			},
			{
				"x": 1.4599961239,
				"y": -0.5695861209,
				"z": 1.3023483771,
				"element": "N" 
			},
			{
				"x": 1.7852556113,
				"y": -1.2530745079,
				"z": 2.4442101416,
				"element": "C" 
			},
			{
				"x": 2.9901558775,
				"y": -2.4861837071,
				"z": 2.4715910823,
				"element": "Cl" 
			},
			{
				"x": 1.1063407009,
				"y": -0.8426694094,
				"z": 3.4804281169,
				"element": "N" 
			},
			{
				"x": 0.2811245729,
				"y": 0.1669825782,
				"z": 3.027332834,
				"element": "N" 
			},
			{
				"x": 0.4943008789,
				"y": 0.3163690214,
				"z": 1.7376187021,
				"element": "C" 
			},
			{
				"x": -0.1469302766,
				"y": 1.3415781615,
				"z": 0.8829050094,
				"element": "C" 
			},
			{
				"x": -1.2908565296,
				"y": 1.0841868419,
				"z": 0.1102672512,
				"element": "C" 
			},
			{
				"x": -2.0216965981,
				"y": -0.5128208636,
				"z": 0.1128407712,
				"element": "Cl" 
			},
			{
				"x": -1.8859657375,
				"y": 2.0826473615,
				"z": -0.6605371101,
				"element": "C" 
			},
			{
				"x": -1.3392512287,
				"y": 3.3654955177,
				"z": -0.664707705,
				"element": "C" 
			},
			{
				"x": -0.2078959506,
				"y": 3.6495634415,
				"z": 0.1009750117,
				"element": "C" 
			},
			{
				"x": 0.3773386798,
				"y": 2.6437846365,
				"z": 0.8672740895,
				"element": "C" 
			},
			{
				"x": 1.9210667413,
				"y": -1.9900054696,
				"z": -1.7889606233,
				"element": "H" 
			},
			{
				"x": 1.6928445294,
				"y": -2.8695700107,
				"z": -0.2687829438,
				"element": "H" 
			},
			{
				"x": 0.3824820459,
				"y": -1.8610625918,
				"z": -0.9130097499,
				"element": "H" 
			},
			{
				"x": 1.8099384735,
				"y": 0.1959618255,
				"z": -0.5805072779,
				"element": "H" 
			},
			{
				"x": 3.1097004083,
				"y": -0.8075986982,
				"z": 0.0635916169,
				"element": "H" 
			},
			{
				"x": -2.7715438346,
				"y": 1.8525387481,
				"z": -1.2422022529,
				"element": "H" 
			},
			{
				"x": -1.8054515436,
				"y": 4.1420334597,
				"z": -1.2635935111,
				"element": "H" 
			},
			{
				"x": 0.2134736862,
				"y": 4.649742654,
				"z": 0.1070875535,
				"element": "H" 
			},
			{
				"x": 1.2487389793,
				"y": 2.8569766143,
				"z": 1.4783897273,
				"element": "H" 
			}
		],
		 "valence_orbital": [ 
			{
				"type": "occ",
				"energy": -0.29535,
				"method": "rhf"
			},
			{
				"type": "occ",
				"energy": -0.27987,
				"method": "rhf"
			},
			{
				"type": "occ",
				"energy": -0.2636,
				"method": "rhf"
			},
			{
				"type": "occ",
				"energy": -0.25707,
				"method": "rhf"
			},
			{
				"type": "occ",
				"energy": -0.25358,
				"method": "rhf"
			},
			{
				"type": "unocc",
				"energy": -0.03773,
				"method": "rhf"
			},
			{
				"type": "unocc",
				"energy": -0.02873,
				"method": "rhf"
			},
			{
				"type": "unocc",
				"energy": 0.00698,
				"method": "rhf"
			},
			{
				"type": "unocc",
				"energy": 0.01877,
				"method": "rhf"
			},
			{
				"type": "unocc",
				"energy": 0.02873,
				"method": "rhf"
			}
		],
		"cosmo_sigma_profile": { 
			"-0.025": 0.0,
			"-0.024": 0.0,
			"-0.023": 0.0,
			"-0.022": 0.0,
			"-0.021": 0.0,
			"-0.02": 0.0,
			"-0.019": 0.0,
			"-0.018": 0.0,
			"-0.017": 0.0,
			"-0.016": 0.0,
			"-0.015": 0.0,
			"-0.014": 0.0,
			"-0.013": 0.0,
			"-0.012": 0.0,
			"-0.011": 0.0,
			"-0.01": 0.0,
			"-0.009": 0.0,
			"-0.008": 1.6897288508,
			"-0.007": 10.2081627889,
			"-0.006": 16.4296582085,
			"-0.005": 19.7398658409,
			"-0.004": 21.2535654594,
			"-0.003": 16.8660905674,
			"-0.002": 19.5579706369,
			"-0.001": 23.6478636711,
			"0.0": 24.8781078311,
			"0.001": 20.2190148238,
			"0.002": 22.8371748638,
			"0.003": 20.5222175403,
			"0.004": 9.92702134728,
			"0.005": 4.13306405941,
			"0.006": 2.29104939243,
			"0.007": 2.02221307397,
			"0.008": 2.21549036021,
			"0.009": 2.08811335793,
			"0.01": 1.65223163989,
			"0.011": 3.04409835986,
			"0.012": 3.86920754864,
			"0.013": 3.02885668329,
			"0.014": 2.69977854371,
			"0.015": 2.22995315273,
			"0.016": 1.347012066,
			"0.017": 0.0230658817294,
			"0.018": 0.0,
			"0.019": 0.0,
			"0.02": 0.0,
			"0.021": 0.0,
			"0.022": 0.0,
			"0.023": 0.0,
			"0.024": 0.0,
			"0.025": 0.0
		}
	}
}
