{
	 "smiles": "CN1C(=O)NC(C2=CC3=CC=CC=C3C=C2)C(C(=O)OCC2=CC=CC=C2)=C1C", 
	 "Tm": 423.15, 
	 "num_atms": 51, 
	 "gaussian": { 
		 "optdone": 1, 
		 "sigma_profile": "yes", 
		 "theory": "DFT", 
		 "functional": "B3LYP", 
		 "basiset": "6-31G**", 
		 "properties": { 
			 "R2extent": 13803.8282, 
			 "electric_dipole_moment_norm": 3.48200701608, 
			 "electric_quadrupole_moment_norm": 13.7708080369, 
			 "total_energy": -1263.0313398, 
			 "HOMO_LUMO_gap": 0.16712, 
			 "cosmo_polarized_energy": -17.09, 
			 "cosmo_cavitation_energy": 53.24, 
			 "cosmo_dispersion_energy": -36.07, 
			 "cosmo_repulsion_energy": 2.69, 
			 "cosmo_total_nonelectrostatic_energy": 19.86, 
			 "SMD_solvation_energy": 9.13 
		},
		"coords": [
			{
				"x": -4.0572106011,
				"y": 2.2161258585,
				"z": -0.5061052017,
				"element": "C" 
			},
			{
				"x": -2.7258526064,
				"y": 2.5120268494,
				"z": 0.0296893268,
				"element": "N" 
			},
			{
				"x": -2.7007248685,
				"y": 3.1404302344,
				"z": 1.2988200851,
				"element": "C" 
			},
			{
				"x": -3.7251259263,
				"y": 3.4887644984,
				"z": 1.8730741884,
				"element": "O" 
			},
			{
				"x": -1.4476320979,
				"y": 3.351451376,
				"z": 1.798059867,
				"element": "N" 
			},
			{
				"x": -0.3146388646,
				"y": 2.5309553971,
				"z": 1.3881731103,
				"element": "C" 
			},
			{
				"x": -0.2851393243,
				"y": 1.1457767513,
				"z": 2.0556314884,
				"element": "C" 
			},
			{
				"x": -1.3387856932,
				"y": 0.6611250521,
				"z": 2.8027650383,
				"element": "C" 
			},
			{
				"x": -1.2913806584,
				"y": -0.6254415439,
				"z": 3.4086466624,
				"element": "C" 
			},
			{
				"x": -2.3724730676,
				"y": -1.1363621918,
				"z": 4.1760781724,
				"element": "C" 
			},
			{
				"x": -2.3004680753,
				"y": -2.3856183239,
				"z": 4.7521104189,
				"element": "C" 
			},
			{
				"x": -1.1412195649,
				"y": -3.1826839103,
				"z": 4.5880930695,
				"element": "C" 
			},
			{
				"x": -0.0758526879,
				"y": -2.7142566836,
				"z": 3.8510502407,
				"element": "C" 
			},
			{
				"x": -0.1202469874,
				"y": -1.4311352709,
				"z": 3.2442760154,
				"element": "C" 
			},
			{
				"x": 0.9569779664,
				"y": -0.905362339,
				"z": 2.4799122869,
				"element": "C" 
			},
			{
				"x": 0.8810549436,
				"y": 0.3400685391,
				"z": 1.9047305872,
				"element": "C" 
			},
			{
				"x": -0.3478526295,
				"y": 2.4627001662,
				"z": -0.1369246159,
				"element": "C" 
			},
			{
				"x": 0.9698825028,
				"y": 2.5639369041,
				"z": -0.7796077993,
				"element": "C" 
			},
			{
				"x": 2.0177041346,
				"y": 2.5394431842,
				"z": -0.142612436,
				"element": "O" 
			},
			{
				"x": 0.9540331544,
				"y": 2.7503392869,
				"z": -2.1246460863,
				"element": "O" 
			},
			{
				"x": 2.24483242,
				"y": 2.8595211745,
				"z": -2.7880940756,
				"element": "C" 
			},
			{
				"x": 2.7440183863,
				"y": 1.521545569,
				"z": -3.2748142558,
				"element": "C" 
			},
			{
				"x": 2.4359990563,
				"y": 1.0799299201,
				"z": -4.5678221399,
				"element": "C" 
			},
			{
				"x": 2.8846049935,
				"y": -0.1610585529,
				"z": -5.0217353757,
				"element": "C" 
			},
			{
				"x": 3.6489517273,
				"y": -0.9745215176,
				"z": -4.1832638391,
				"element": "C" 
			},
			{
				"x": 3.9622989675,
				"y": -0.542008243,
				"z": -2.8925046532,
				"element": "C" 
			},
			{
				"x": 3.5132030069,
				"y": 0.6986374655,
				"z": -2.4398573687,
				"element": "C" 
			},
			{
				"x": -1.5710914109,
				"y": 2.3674658452,
				"z": -0.7438094932,
				"element": "C" 
			},
			{
				"x": -1.8138051089,
				"y": 2.0939143102,
				"z": -2.2045052914,
				"element": "C" 
			},
			{
				"x": -4.1348572142,
				"y": 1.1624199891,
				"z": -0.7873651056,
				"element": "H" 
			},
			{
				"x": -4.7716823578,
				"y": 2.4361426,
				"z": 0.2837144063,
				"element": "H" 
			},
			{
				"x": -4.2916384367,
				"y": 2.8379406704,
				"z": -1.3749277957,
				"element": "H" 
			},
			{
				"x": -1.4617755974,
				"y": 3.7130848563,
				"z": 2.7420619713,
				"element": "H" 
			},
			{
				"x": 0.5983249734,
				"y": 3.0591132823,
				"z": 1.6735486892,
				"element": "H" 
			},
			{
				"x": -2.2338152672,
				"y": 1.256651927,
				"z": 2.9554304485,
				"element": "H" 
			},
			{
				"x": -3.2610504844,
				"y": -0.5225797938,
				"z": 4.3014682005,
				"element": "H" 
			},
			{
				"x": -3.1343071507,
				"y": -2.7643380322,
				"z": 5.3363258916,
				"element": "H" 
			},
			{
				"x": -1.0958648101,
				"y": -4.1659460226,
				"z": 5.0476050621,
				"element": "H" 
			},
			{
				"x": 0.8162557303,
				"y": -3.3225682843,
				"z": 3.7238750472,
				"element": "H" 
			},
			{
				"x": 1.8549364284,
				"y": -1.5066484972,
				"z": 2.3591490774,
				"element": "H" 
			},
			{
				"x": 1.7132811979,
				"y": 0.7315746851,
				"z": 1.3296361711,
				"element": "H" 
			},
			{
				"x": 2.9499542436,
				"y": 3.3219893316,
				"z": -2.096336951,
				"element": "H" 
			},
			{
				"x": 2.0540873306,
				"y": 3.5330586564,
				"z": -3.626456609,
				"element": "H" 
			},
			{
				"x": 1.8456660871,
				"y": 1.7150760872,
				"z": -5.2243080388,
				"element": "H" 
			},
			{
				"x": 2.6418943079,
				"y": -0.4901546531,
				"z": -6.0281532601,
				"element": "H" 
			},
			{
				"x": 4.0020037603,
				"y": -1.9397225082,
				"z": -4.5352132037,
				"element": "H" 
			},
			{
				"x": 4.5599325929,
				"y": -1.1708728233,
				"z": -2.2386669833,
				"element": "H" 
			},
			{
				"x": 3.7464659528,
				"y": 1.0373825338,
				"z": -1.4353102635,
				"element": "H" 
			},
			{
				"x": -0.884683723,
				"y": 1.8874217631,
				"z": -2.7223174641,
				"element": "H" 
			},
			{
				"x": -2.2998358722,
				"y": 2.94993385,
				"z": -2.6871433088,
				"element": "H" 
			},
			{
				"x": -2.4815527786,
				"y": 1.2347305772,
				"z": -2.3196239073,
				"element": "H" 
			}
		],
		 "valence_orbital": [ 
			{
				"type": "occ",
				"energy": -0.25382,
				"method": "rhf"
			},
			{
				"type": "occ",
				"energy": -0.25123,
				"method": "rhf"
			},
			{
				"type": "occ",
				"energy": -0.23551,
				"method": "rhf"
			},
			{
				"type": "occ",
				"energy": -0.22129,
				"method": "rhf"
			},
			{
				"type": "occ",
				"energy": -0.2102,
				"method": "rhf"
			},
			{
				"type": "unocc",
				"energy": -0.04308,
				"method": "rhf"
			},
			{
				"type": "unocc",
				"energy": -0.03109,
				"method": "rhf"
			},
			{
				"type": "unocc",
				"energy": -0.01329,
				"method": "rhf"
			},
			{
				"type": "unocc",
				"energy": -0.00525,
				"method": "rhf"
			},
			{
				"type": "unocc",
				"energy": -0.00469,
				"method": "rhf"
			}
		],
		"cosmo_sigma_profile": { 
			"-0.025": 0.0,
			"-0.024": 0.0,
			"-0.023": 0.0,
			"-0.022": 0.0,
			"-0.021": 0.0,
			"-0.02": 0.0,
			"-0.019": 0.0,
			"-0.018": 0.0,
			"-0.017": 0.0,
			"-0.016": 0.0,
			"-0.015": 0.197558659126,
			"-0.014": 1.02363314677,
			"-0.013": 0.912851491381,
			"-0.012": 0.946644478999,
			"-0.011": 1.18600504167,
			"-0.01": 0.803892802886,
			"-0.009": 0.47902916659,
			"-0.008": 1.95400277817,
			"-0.007": 4.88980568077,
			"-0.006": 24.1273491869,
			"-0.005": 35.0261218378,
			"-0.004": 37.0385096888,
			"-0.003": 37.1471744003,
			"-0.002": 33.307376393,
			"-0.001": 34.3912771648,
			"0.0": 25.1022568672,
			"0.001": 25.7876124998,
			"0.002": 28.1655204,
			"0.003": 28.9181372776,
			"0.004": 36.0211551241,
			"0.005": 33.1243309538,
			"0.006": 10.7772304262,
			"0.007": 2.88311996935,
			"0.008": 1.75492217222,
			"0.009": 3.09888308678,
			"0.01": 1.97040542626,
			"0.011": 3.15724265049,
			"0.012": 3.85390124188,
			"0.013": 4.89206468969,
			"0.014": 1.82620617091,
			"0.015": 0.0212465517261,
			"0.016": 0.0,
			"0.017": 0.0,
			"0.018": 0.0,
			"0.019": 0.0,
			"0.02": 0.0,
			"0.021": 0.0,
			"0.022": 0.0,
			"0.023": 0.0,
			"0.024": 0.0,
			"0.025": 0.0
		}
	}
}
