{
	 "smiles": "C[Si]1(C)O[Si](C)(C)O[Si](C)(C)O[Si](C)(C)O[Si](C)(C)O[Si](C)(C)O1", 
	 "Tm": 270.15, 
	 "num_atms": 60, 
	 "gaussian": { 
		 "optdone": 1, 
		 "sigma_profile": "yes", 
		 "theory": "DFT", 
		 "functional": "B3LYP", 
		 "basiset": "6-31G**", 
		 "properties": { 
			 "R2extent": 11322.7806, 
			 "electric_dipole_moment_norm": 0.00608440629807, 
			 "electric_quadrupole_moment_norm": 3.05800399607, 
			 "total_energy": -2668.06991281, 
			 "HOMO_LUMO_gap": 0.30754, 
			 "cosmo_polarized_energy": -7.1, 
			 "cosmo_cavitation_energy": 70.5, 
			 "cosmo_dispersion_energy": -29.85, 
			 "cosmo_repulsion_energy": 2.7, 
			 "cosmo_total_nonelectrostatic_energy": 43.35, 
			 "SMD_solvation_energy": 15.2 
		},
		"coords": [
			{
				"x": -3.0628482886,
				"y": 0.0975336264,
				"z": 1.2254243968,
				"element": "C" 
			},
			{
				"x": -1.9758588871,
				"y": 1.1038689294,
				"z": 0.0802415473,
				"element": "Si" 
			},
			{
				"x": -2.6988547936,
				"y": 2.7972498887,
				"z": -0.2804469331,
				"element": "C" 
			},
			{
				"x": -0.4997821068,
				"y": 1.2803808279,
				"z": 0.814903213,
				"element": "O" 
			},
			{
				"x": 1.0968923099,
				"y": 1.7122144419,
				"z": 0.7352897522,
				"element": "Si" 
			},
			{
				"x": 1.6272253433,
				"y": 2.1808384506,
				"z": 2.4726258396,
				"element": "C" 
			},
			{
				"x": 1.3377708977,
				"y": 3.1182940718,
				"z": -0.4829838324,
				"element": "C" 
			},
			{
				"x": 1.9900516308,
				"y": 0.432076367,
				"z": 0.1818095681,
				"element": "O" 
			},
			{
				"x": 2.8114471823,
				"y": -0.975456453,
				"z": 0.4894386184,
				"element": "Si" 
			},
			{
				"x": 4.397100851,
				"y": -0.5826001164,
				"z": 1.4122875011,
				"element": "C" 
			},
			{
				"x": 3.1360122141,
				"y": -1.8127125443,
				"z": -1.1535476144,
				"element": "C" 
			},
			{
				"x": 1.915494063,
				"y": -1.9756687925,
				"z": 1.4526904021,
				"element": "O" 
			},
			{
				"x": 0.5611809263,
				"y": -2.699897781,
				"z": 2.0628588706,
				"element": "Si" 
			},
			{
				"x": -0.1785106942,
				"y": -1.6170298485,
				"z": 3.39921074,
				"element": "C" 
			},
			{
				"x": 1.0714971062,
				"y": -4.383951497,
				"z": 2.7139604519,
				"element": "C" 
			},
			{
				"x": -0.5849845305,
				"y": -2.8909128636,
				"z": 0.8798418639,
				"element": "O" 
			},
			{
				"x": -0.9953755933,
				"y": -3.3727097099,
				"z": -0.6504319644,
				"element": "Si" 
			},
			{
				"x": 0.0593305704,
				"y": -4.8287643409,
				"z": -1.1859276577,
				"element": "C" 
			},
			{
				"x": -2.8234065663,
				"y": -3.7931865023,
				"z": -0.6229588301,
				"element": "C" 
			},
			{
				"x": -0.6994635784,
				"y": -2.1409077202,
				"z": -1.7170131441,
				"element": "O" 
			},
			{
				"x": -1.1966368357,
				"y": -0.7469189305,
				"z": -2.4652647093,
				"element": "Si" 
			},
			{
				"x": -2.5612728877,
				"y": -1.1494113876,
				"z": -3.6883475122,
				"element": "C" 
			},
			{
				"x": 0.2986256157,
				"y": 0.0148698815,
				"z": -3.2956691445,
				"element": "C" 
			},
			{
				"x": -1.8192499395,
				"y": 0.3166030872,
				"z": -1.3642410125,
				"element": "O" 
			},
			{
				"x": -4.0603421969,
				"y": -0.0446438025,
				"z": 0.7952301476,
				"element": "H" 
			},
			{
				"x": -2.6226569796,
				"y": -0.888671327,
				"z": 1.4024184658,
				"element": "H" 
			},
			{
				"x": -3.1826530483,
				"y": 0.5921437087,
				"z": 2.1953301008,
				"element": "H" 
			},
			{
				"x": -3.6811073935,
				"y": 2.7107689265,
				"z": -0.7573097124,
				"element": "H" 
			},
			{
				"x": -2.0508367983,
				"y": 3.365366906,
				"z": -0.9560216864,
				"element": "H" 
			},
			{
				"x": -2.8210556855,
				"y": 3.3807885673,
				"z": 0.6384890001,
				"element": "H" 
			},
			{
				"x": 2.6881600151,
				"y": 2.4509704099,
				"z": 2.507571685,
				"element": "H" 
			},
			{
				"x": 1.050606525,
				"y": 3.0368297923,
				"z": 2.8395719334,
				"element": "H" 
			},
			{
				"x": 1.4663393227,
				"y": 1.3511380092,
				"z": 3.1687526596,
				"element": "H" 
			},
			{
				"x": 1.0375216471,
				"y": 2.8188517464,
				"z": -1.4924807049,
				"element": "H" 
			},
			{
				"x": 0.747729703,
				"y": 3.9970000109,
				"z": -0.2010407072,
				"element": "H" 
			},
			{
				"x": 2.3897348224,
				"y": 3.4204626438,
				"z": -0.5271223599,
				"element": "H" 
			},
			{
				"x": 4.1842345452,
				"y": -0.0999276494,
				"z": 2.371859916,
				"element": "H" 
			},
			{
				"x": 5.0377244991,
				"y": 0.0902370207,
				"z": 0.8319623716,
				"element": "H" 
			},
			{
				"x": 4.9669426576,
				"y": -1.494914157,
				"z": 1.6188496311,
				"element": "H" 
			},
			{
				"x": 3.6871822491,
				"y": -2.7493255324,
				"z": -1.0147813782,
				"element": "H" 
			},
			{
				"x": 2.1930658841,
				"y": -2.041986611,
				"z": -1.659462498,
				"element": "H" 
			},
			{
				"x": 3.7263694886,
				"y": -1.170582016,
				"z": -1.8160249034,
				"element": "H" 
			},
			{
				"x": -0.4523020313,
				"y": -0.6391690059,
				"z": 2.9911991784,
				"element": "H" 
			},
			{
				"x": 0.5340060999,
				"y": -1.460140058,
				"z": 4.2165083323,
				"element": "H" 
			},
			{
				"x": -1.0812214414,
				"y": -2.0702211204,
				"z": 3.822825475,
				"element": "H" 
			},
			{
				"x": 1.5056116193,
				"y": -4.9981176235,
				"z": 1.9180740977,
				"element": "H" 
			},
			{
				"x": 1.8222527702,
				"y": -4.2872719703,
				"z": 3.5056163636,
				"element": "H" 
			},
			{
				"x": 0.2141934329,
				"y": -4.9260375039,
				"z": 3.1275710173,
				"element": "H" 
			},
			{
				"x": -0.060351359,
				"y": -5.6802477093,
				"z": -0.5073796424,
				"element": "H" 
			},
			{
				"x": -0.2157943257,
				"y": -5.1607452823,
				"z": -2.1928800759,
				"element": "H" 
			},
			{
				"x": 1.1201778622,
				"y": -4.5583275582,
				"z": -1.2055297487,
				"element": "H" 
			},
			{
				"x": -3.418480618,
				"y": -2.9340764866,
				"z": -0.2962601917,
				"element": "H" 
			},
			{
				"x": -3.1794240184,
				"y": -4.0941762173,
				"z": -1.6141346836,
				"element": "H" 
			},
			{
				"x": -3.0241948701,
				"y": -4.6171695009,
				"z": 0.0702991068,
				"element": "H" 
			},
			{
				"x": -3.4270100005,
				"y": -1.5877055902,
				"z": -3.1809349078,
				"element": "H" 
			},
			{
				"x": -2.9021917398,
				"y": -0.2468603789,
				"z": -4.2068673078,
				"element": "H" 
			},
			{
				"x": -2.2179788893,
				"y": -1.8630219744,
				"z": -4.4451813891,
				"element": "H" 
			},
			{
				"x": 1.0688150403,
				"y": 0.2510400837,
				"z": -2.5549140624,
				"element": "H" 
			},
			{
				"x": 0.736223252,
				"y": -0.6696374676,
				"z": -4.0303004429,
				"element": "H" 
			},
			{
				"x": 0.0293259505,
				"y": 0.9399776326,
				"z": -3.8171534899,
				"element": "H" 
			}
		],
		 "valence_orbital": [ 
			{
				"type": "occ",
				"energy": -0.27612,
				"method": "rhf"
			},
			{
				"type": "occ",
				"energy": -0.27553,
				"method": "rhf"
			},
			{
				"type": "occ",
				"energy": -0.26791,
				"method": "rhf"
			},
			{
				"type": "occ",
				"energy": -0.26664,
				"method": "rhf"
			},
			{
				"type": "occ",
				"energy": -0.26347,
				"method": "rhf"
			},
			{
				"type": "unocc",
				"energy": 0.04407,
				"method": "rhf"
			},
			{
				"type": "unocc",
				"energy": 0.06623,
				"method": "rhf"
			},
			{
				"type": "unocc",
				"energy": 0.06719,
				"method": "rhf"
			},
			{
				"type": "unocc",
				"energy": 0.07509,
				"method": "rhf"
			},
			{
				"type": "unocc",
				"energy": 0.08842,
				"method": "rhf"
			}
		],
		"cosmo_sigma_profile": { 
			"-0.025": 0.0,
			"-0.024": 0.0,
			"-0.023": 0.0,
			"-0.022": 0.0,
			"-0.021": 0.0,
			"-0.02": 0.0,
			"-0.019": 0.0,
			"-0.018": 0.0,
			"-0.017": 0.0,
			"-0.016": 0.0,
			"-0.015": 0.0,
			"-0.014": 0.0,
			"-0.013": 0.0,
			"-0.012": 0.0,
			"-0.011": 0.0,
			"-0.01": 0.0,
			"-0.009": 0.0,
			"-0.008": 0.0,
			"-0.007": 0.0,
			"-0.006": 0.0,
			"-0.005": 0.269999812824,
			"-0.004": 27.3101540402,
			"-0.003": 53.2660575576,
			"-0.002": 65.3181080478,
			"-0.001": 91.4508610781,
			"0.0": 73.794337311,
			"0.001": 82.6894494137,
			"0.002": 43.5153581169,
			"0.003": 26.0449553419,
			"0.004": 15.0618775877,
			"0.005": 13.626992864,
			"0.006": 6.21321459053,
			"0.007": 5.50454209968,
			"0.008": 3.62220949285,
			"0.009": 0.375056877399,
			"0.01": 0.0,
			"0.011": 0.0,
			"0.012": 0.0,
			"0.013": 0.0,
			"0.014": 0.0,
			"0.015": 0.0,
			"0.016": 0.0,
			"0.017": 0.0,
			"0.018": 0.0,
			"0.019": 0.0,
			"0.02": 0.0,
			"0.021": 0.0,
			"0.022": 0.0,
			"0.023": 0.0,
			"0.024": 0.0,
			"0.025": 0.0
		}
	}
}
