{
	 "smiles": "NC1=NC(=NO1)C1=CC=CC=C1", 
	 "Tm": 423.15, 
	 "num_atms": 19, 
	 "gaussian": { 
		 "optdone": 1, 
		 "sigma_profile": "yes", 
		 "theory": "DFT", 
		 "functional": "B3LYP", 
		 "basiset": "6-31G**", 
		 "properties": { 
			 "R2extent": 3082.4564, 
			 "electric_dipole_moment_norm": 2.72812829244, 
			 "electric_quadrupole_moment_norm": 21.4244331248, 
			 "total_energy": -548.520074934, 
			 "HOMO_LUMO_gap": 0.19631, 
			 "cosmo_polarized_energy": -13.26, 
			 "cosmo_cavitation_energy": 23.98, 
			 "cosmo_dispersion_energy": -18.21, 
			 "cosmo_repulsion_energy": 1.45, 
			 "cosmo_total_nonelectrostatic_energy": 7.22, 
			 "SMD_solvation_energy": 2.71 
		},
		"coords": [
			{
				"x": -2.9073487118,
				"y": 0.9106319324,
				"z": 4.2102075586,
				"element": "N" 
			},
			{
				"x": -2.3767986441,
				"y": 0.1586893454,
				"z": 3.2115826006,
				"element": "C" 
			},
			{
				"x": -1.8327103405,
				"y": 0.5741700907,
				"z": 2.0991292592,
				"element": "N" 
			},
			{
				"x": -1.430979238,
				"y": -0.6143662233,
				"z": 1.5248439448,
				"element": "C" 
			},
			{
				"x": -1.7063227274,
				"y": -1.6952918231,
				"z": 2.2214988307,
				"element": "N" 
			},
			{
				"x": -2.3535093505,
				"y": -1.1723394796,
				"z": 3.3776323535,
				"element": "O" 
			},
			{
				"x": -0.7459891656,
				"y": -0.6742962417,
				"z": 0.2248933204,
				"element": "C" 
			},
			{
				"x": -0.3624080191,
				"y": -1.9064266711,
				"z": -0.3283752246,
				"element": "C" 
			},
			{
				"x": 0.285249092,
				"y": -1.9455771968,
				"z": -1.5600085673,
				"element": "C" 
			},
			{
				"x": 0.5562898502,
				"y": -0.7606304522,
				"z": -2.2509704759,
				"element": "C" 
			},
			{
				"x": 0.176066395,
				"y": 0.4659101097,
				"z": -1.7032071412,
				"element": "C" 
			},
			{
				"x": -0.4727830382,
				"y": 0.5119986472,
				"z": -0.4699477837,
				"element": "C" 
			},
			{
				"x": -3.1310382668,
				"y": 1.8629073198,
				"z": 3.9653230663,
				"element": "H" 
			},
			{
				"x": -3.5355818832,
				"y": 0.4494081772,
				"z": 4.8505038428,
				"element": "H" 
			},
			{
				"x": -0.5759002733,
				"y": -2.8217784419,
				"z": 0.2135896047,
				"element": "H" 
			},
			{
				"x": 0.5797678822,
				"y": -2.9016563523,
				"z": -1.9829235135,
				"element": "H" 
			},
			{
				"x": 1.0618994632,
				"y": -0.7948502942,
				"z": -3.2118447771,
				"element": "H" 
			},
			{
				"x": 0.3850791059,
				"y": 1.388848137,
				"z": -2.2364178409,
				"element": "H" 
			},
			{
				"x": -0.7731821299,
				"y": 1.457749417,
				"z": -0.0324090575,
				"element": "H" 
			}
		],
		 "valence_orbital": [ 
			{
				"type": "occ",
				"energy": -0.32688,
				"method": "rhf"
			},
			{
				"type": "occ",
				"energy": -0.28664,
				"method": "rhf"
			},
			{
				"type": "occ",
				"energy": -0.25827,
				"method": "rhf"
			},
			{
				"type": "occ",
				"energy": -0.25034,
				"method": "rhf"
			},
			{
				"type": "occ",
				"energy": -0.23105,
				"method": "rhf"
			},
			{
				"type": "unocc",
				"energy": -0.03474,
				"method": "rhf"
			},
			{
				"type": "unocc",
				"energy": -0.00054,
				"method": "rhf"
			},
			{
				"type": "unocc",
				"energy": 0.02718,
				"method": "rhf"
			},
			{
				"type": "unocc",
				"energy": 0.05579,
				"method": "rhf"
			},
			{
				"type": "unocc",
				"energy": 0.08317,
				"method": "rhf"
			}
		],
		"cosmo_sigma_profile": { 
			"-0.025": 0.0,
			"-0.024": 0.0,
			"-0.023": 0.0,
			"-0.022": 0.0,
			"-0.021": 0.0,
			"-0.02": 0.0,
			"-0.019": 0.0,
			"-0.018": 0.0,
			"-0.017": 0.0,
			"-0.016": 0.772955605768,
			"-0.015": 2.64197441265,
			"-0.014": 2.72753744134,
			"-0.013": 2.21946597539,
			"-0.012": 2.28631760377,
			"-0.011": 2.2959159055,
			"-0.01": 2.08125399653,
			"-0.009": 1.91718752559,
			"-0.008": 1.45812078656,
			"-0.007": 2.09733568551,
			"-0.006": 8.67367788974,
			"-0.005": 11.0694333653,
			"-0.004": 12.5087611581,
			"-0.003": 9.75716557057,
			"-0.002": 10.1291515627,
			"-0.001": 9.71232633753,
			"0.0": 11.0880565519,
			"0.001": 13.3710929283,
			"0.002": 16.1344163374,
			"0.003": 15.1218283978,
			"0.004": 16.1425151207,
			"0.005": 10.4870605876,
			"0.006": 3.85837089227,
			"0.007": 7.48454333467,
			"0.008": 4.40352443825,
			"0.009": 3.18678945185,
			"0.01": 2.77739949208,
			"0.011": 2.04654334743,
			"0.012": 3.09537814806,
			"0.013": 1.10411722632,
			"0.014": 0.0622024047145,
			"0.015": 0.0,
			"0.016": 0.0,
			"0.017": 0.0,
			"0.018": 0.0,
			"0.019": 0.0,
			"0.02": 0.0,
			"0.021": 0.0,
			"0.022": 0.0,
			"0.023": 0.0,
			"0.024": 0.0,
			"0.025": 0.0
		}
	}
}
