{
	 "smiles": "CC1=C(C=C(C=C1)S(=O)(=O)N1CCOCC1)C(O)=O", 
	 "Tm": 423.15, 
	 "num_atms": 34, 
	 "gaussian": { 
		 "optdone": 1, 
		 "sigma_profile": "yes", 
		 "theory": "DFT", 
		 "functional": "B3LYP", 
		 "basiset": "6-31G**", 
		 "properties": { 
			 "R2extent": 7454.9884, 
			 "electric_dipole_moment_norm": 5.25268430995, 
			 "electric_quadrupole_moment_norm": 18.5974626893, 
			 "total_energy": -1295.2901808, 
			 "HOMO_LUMO_gap": 0.18883, 
			 "cosmo_polarized_energy": -22.59, 
			 "cosmo_cavitation_energy": 37.88, 
			 "cosmo_dispersion_energy": -27.26, 
			 "cosmo_repulsion_energy": 2.06, 
			 "cosmo_total_nonelectrostatic_energy": 12.67, 
			 "SMD_solvation_energy": 5.91 
		},
		"coords": [
			{
				"x": -2.7212179773,
				"y": 1.8876206247,
				"z": 3.851932197,
				"element": "C" 
			},
			{
				"x": -1.7760690833,
				"y": 0.9518213419,
				"z": 3.1407888994,
				"element": "C" 
			},
			{
				"x": -2.2173565425,
				"y": -0.0800940298,
				"z": 2.2787313944,
				"element": "C" 
			},
			{
				"x": -1.2839767845,
				"y": -0.9307013667,
				"z": 1.6671829592,
				"element": "C" 
			},
			{
				"x": 0.0775583799,
				"y": -0.7556246156,
				"z": 1.8887816648,
				"element": "C" 
			},
			{
				"x": 0.5349661592,
				"y": 0.2630964559,
				"z": 2.7247725146,
				"element": "C" 
			},
			{
				"x": -0.3933180802,
				"y": 1.1025657118,
				"z": 3.3318107352,
				"element": "C" 
			},
			{
				"x": 1.2398507758,
				"y": -1.9048528642,
				"z": 1.1456185794,
				"element": "S" 
			},
			{
				"x": 0.4527170829,
				"y": -2.7985302487,
				"z": 0.2827595329,
				"element": "O" 
			},
			{
				"x": 2.1057074713,
				"y": -2.4507085029,
				"z": 2.195511927,
				"element": "O" 
			},
			{
				"x": 2.2024713184,
				"y": -0.8655363225,
				"z": 0.2211391699,
				"element": "N" 
			},
			{
				"x": 1.6167205985,
				"y": -0.4545015226,
				"z": -1.0743601369,
				"element": "C" 
			},
			{
				"x": 2.685604443,
				"y": 0.2792694622,
				"z": -1.8790235513,
				"element": "C" 
			},
			{
				"x": 3.7989824112,
				"y": -0.5465509738,
				"z": -2.19536532,
				"element": "O" 
			},
			{
				"x": 4.1014370412,
				"y": -1.5407712285,
				"z": -1.2148210648,
				"element": "C" 
			},
			{
				"x": 3.662054664,
				"y": -1.1300165731,
				"z": 0.1861934748,
				"element": "C" 
			},
			{
				"x": -3.6845758483,
				"y": -0.3105458522,
				"z": 2.0467540712,
				"element": "C" 
			},
			{
				"x": -4.0264625424,
				"y": -0.8630852446,
				"z": 0.8526883605,
				"element": "O" 
			},
			{
				"x": -4.547081817,
				"y": -0.0449067766,
				"z": 2.8506029052,
				"element": "O" 
			},
			{
				"x": -2.1652811014,
				"y": 2.6960308463,
				"z": 4.3333281496,
				"element": "H" 
			},
			{
				"x": -3.298478879,
				"y": 1.3515380574,
				"z": 4.6097633858,
				"element": "H" 
			},
			{
				"x": -3.455399718,
				"y": 2.321925132,
				"z": 3.1681977062,
				"element": "H" 
			},
			{
				"x": -1.5969869706,
				"y": -1.7642388515,
				"z": 1.0457329681,
				"element": "H" 
			},
			{
				"x": 1.5978421062,
				"y": 0.3945592392,
				"z": 2.8970891558,
				"element": "H" 
			},
			{
				"x": -0.0411317713,
				"y": 1.8985228844,
				"z": 3.9814506051,
				"element": "H" 
			},
			{
				"x": 1.2534770424,
				"y": -1.3208116268,
				"z": -1.6404747944,
				"element": "H" 
			},
			{
				"x": 0.7671871711,
				"y": 0.2136611493,
				"z": -0.89157076,
				"element": "H" 
			},
			{
				"x": 3.011002149,
				"y": 1.1740699194,
				"z": -1.3257095812,
				"element": "H" 
			},
			{
				"x": 2.2582376272,
				"y": 0.6135731808,
				"z": -2.8296824454,
				"element": "H" 
			},
			{
				"x": 5.1863746284,
				"y": -1.6897183966,
				"z": -1.2368878959,
				"element": "H" 
			},
			{
				"x": 3.6247943652,
				"y": -2.4947143853,
				"z": -1.4857521387,
				"element": "H" 
			},
			{
				"x": 4.1882796069,
				"y": -0.2176417432,
				"z": 0.4912400819,
				"element": "H" 
			},
			{
				"x": 3.9026426454,
				"y": -1.9087624703,
				"z": 0.9115398831,
				"element": "H" 
			},
			{
				"x": -3.2628705714,
				"y": -0.8927404098,
				"z": 0.2598373677,
				"element": "H" 
			}
		],
		 "valence_orbital": [ 
			{
				"type": "occ",
				"energy": -0.29166,
				"method": "rhf"
			},
			{
				"type": "occ",
				"energy": -0.28402,
				"method": "rhf"
			},
			{
				"type": "occ",
				"energy": -0.27706,
				"method": "rhf"
			},
			{
				"type": "occ",
				"energy": -0.2655,
				"method": "rhf"
			},
			{
				"type": "occ",
				"energy": -0.25652,
				"method": "rhf"
			},
			{
				"type": "unocc",
				"energy": -0.06769,
				"method": "rhf"
			},
			{
				"type": "unocc",
				"energy": -0.04862,
				"method": "rhf"
			},
			{
				"type": "unocc",
				"energy": 0.02221,
				"method": "rhf"
			},
			{
				"type": "unocc",
				"energy": 0.04433,
				"method": "rhf"
			},
			{
				"type": "unocc",
				"energy": 0.06217,
				"method": "rhf"
			}
		],
		"cosmo_sigma_profile": { 
			"-0.025": 0.0,
			"-0.024": 0.0,
			"-0.023": 0.0,
			"-0.022": 0.0,
			"-0.021": 0.0,
			"-0.02": 0.0,
			"-0.019": 0.380984276209,
			"-0.018": 0.931481073186,
			"-0.017": 1.19831512293,
			"-0.016": 0.737059538216,
			"-0.015": 0.777147350231,
			"-0.014": 1.45758363211,
			"-0.013": 0.567791113281,
			"-0.012": 0.891995018152,
			"-0.011": 0.994735079994,
			"-0.01": 1.05818349633,
			"-0.009": 0.926231335063,
			"-0.008": 3.58906100792,
			"-0.007": 6.36208962158,
			"-0.006": 16.1582149915,
			"-0.005": 30.9851743125,
			"-0.004": 31.8831327106,
			"-0.003": 24.8070463947,
			"-0.002": 22.2413296395,
			"-0.001": 19.3824286881,
			"0.0": 20.3135352662,
			"0.001": 19.2496300443,
			"0.002": 11.1796297947,
			"0.003": 7.22606773311,
			"0.004": 6.71090406072,
			"0.005": 5.77471365567,
			"0.006": 4.99900067718,
			"0.007": 6.65996280332,
			"0.008": 8.98891753157,
			"0.009": 8.08244805424,
			"0.01": 12.8493023911,
			"0.011": 12.7104688082,
			"0.012": 6.49106271798,
			"0.013": 2.78897962082,
			"0.014": 0.170761770889,
			"0.015": 0.0,
			"0.016": 0.0,
			"0.017": 0.0,
			"0.018": 0.0,
			"0.019": 0.0,
			"0.02": 0.0,
			"0.021": 0.0,
			"0.022": 0.0,
			"0.023": 0.0,
			"0.024": 0.0,
			"0.0": 0.0
		}
	}
}
