{
	 "smiles": "BrC1=CN2CC3=C(C=CC=C3)C(=N)N=C2C=C1", 
	 "Tm": 452.15, 
	 "num_atms": 27, 
	 "gaussian": { 
		 "optdone": 1, 
		 "sigma_profile": "yes", 
		 "theory": "DFT", 
		 "functional": "B3LYP", 
		 "basiset": "6-31G**", 
		 "properties": { 
			 "R2extent": 6805.9257, 
			 "electric_dipole_moment_norm": 4.75968340229, 
			 "electric_quadrupole_moment_norm": 13.8910726774, 
			 "total_energy": -3237.03249245, 
			 "HOMO_LUMO_gap": 0.1478, 
			 "cosmo_polarized_energy": -20.05, 
			 "cosmo_cavitation_energy": 33.06, 
			 "cosmo_dispersion_energy": -24.4, 
			 "cosmo_repulsion_energy": 1.86, 
			 "cosmo_total_nonelectrostatic_energy": 10.52, 
			 "SMD_solvation_energy": 1.61 
		},
		"coords": [
			{
				"x": 0.6639127625,
				"y": -3.3030247788,
				"z": -4.0414875348,
				"element": "Br" 
			},
			{
				"x": 0.8796571536,
				"y": -2.2672771226,
				"z": -2.4615213196,
				"element": "C" 
			},
			{
				"x": 0.5198157984,
				"y": -0.9552385359,
				"z": -2.4501815919,
				"element": "C" 
			},
			{
				"x": 0.660125997,
				"y": -0.1812221542,
				"z": -1.3253973141,
				"element": "N" 
			},
			{
				"x": 0.319518556,
				"y": 1.254124498,
				"z": -1.3947657444,
				"element": "C" 
			},
			{
				"x": -0.825723649,
				"y": 1.5987216642,
				"z": -0.478280024,
				"element": "C" 
			},
			{
				"x": -0.593798609,
				"y": 1.5412999169,
				"z": 0.9071096437,
				"element": "C" 
			},
			{
				"x": -1.6352253634,
				"y": 1.855620083,
				"z": 1.7880890501,
				"element": "C" 
			},
			{
				"x": -2.8897570146,
				"y": 2.2212211688,
				"z": 1.2990597884,
				"element": "C" 
			},
			{
				"x": -3.1141647507,
				"y": 2.2837598547,
				"z": -0.0776144395,
				"element": "C" 
			},
			{
				"x": -2.0810699002,
				"y": 1.9719358373,
				"z": -0.9632386288,
				"element": "C" 
			},
			{
				"x": 0.7698299929,
				"y": 1.1648544015,
				"z": 1.4176957497,
				"element": "C" 
			},
			{
				"x": 1.4017674946,
				"y": 1.8560398504,
				"z": 2.3022239882,
				"element": "N" 
			},
			{
				"x": 1.3162308088,
				"y": -0.0382913778,
				"z": 1.0033545945,
				"element": "N" 
			},
			{
				"x": 1.1587341359,
				"y": -0.6925299607,
				"z": -0.1052628853,
				"element": "C" 
			},
			{
				"x": 1.5686006193,
				"y": -2.0810711035,
				"z": -0.1653384388,
				"element": "C" 
			},
			{
				"x": 1.4306534852,
				"y": -2.8467878966,
				"z": -1.2813163894,
				"element": "C" 
			},
			{
				"x": 0.1124593327,
				"y": -0.4590631731,
				"z": -3.3219074904,
				"element": "H" 
			},
			{
				"x": 0.0813671566,
				"y": 1.4893747591,
				"z": -2.433552132,
				"element": "H" 
			},
			{
				"x": 1.2198648705,
				"y": 1.8171030859,
				"z": -1.1204262228,
				"element": "H" 
			},
			{
				"x": -1.4560747568,
				"y": 1.8006421247,
				"z": 2.858002335,
				"element": "H" 
			},
			{
				"x": -3.6922010464,
				"y": 2.4565510258,
				"z": 1.9921414029,
				"element": "H" 
			},
			{
				"x": -4.0879612561,
				"y": 2.5738293914,
				"z": -0.460668857,
				"element": "H" 
			},
			{
				"x": -2.2499202958,
				"y": 2.0281873938,
				"z": -2.036064854,
				"element": "H" 
			},
			{
				"x": 0.8529953331,
				"y": 2.6881611625,
				"z": 2.5306084396,
				"element": "H" 
			},
			{
				"x": 1.9821881988,
				"y": -2.4793792932,
				"z": 0.7530875114,
				"element": "H" 
			},
			{
				"x": 1.732074946,
				"y": -3.8884408218,
				"z": -1.2838486367,
				"element": "H" 
			}
		],
		 "valence_orbital": [ 
			{
				"type": "occ",
				"energy": -0.2768,
				"method": "rhf"
			},
			{
				"type": "occ",
				"energy": -0.26441,
				"method": "rhf"
			},
			{
				"type": "occ",
				"energy": -0.23876,
				"method": "rhf"
			},
			{
				"type": "occ",
				"energy": -0.23216,
				"method": "rhf"
			},
			{
				"type": "occ",
				"energy": -0.20225,
				"method": "rhf"
			},
			{
				"type": "unocc",
				"energy": -0.05445,
				"method": "rhf"
			},
			{
				"type": "unocc",
				"energy": -0.03439,
				"method": "rhf"
			},
			{
				"type": "unocc",
				"energy": -0.01821,
				"method": "rhf"
			},
			{
				"type": "unocc",
				"energy": -0.00932,
				"method": "rhf"
			},
			{
				"type": "unocc",
				"energy": -0.00554,
				"method": "rhf"
			}
		],
		"cosmo_sigma_profile": { 
			"-0.025": 0.0,
			"-0.024": 0.0,
			"-0.023": 0.0,
			"-0.022": 0.0,
			"-0.021": 0.0,
			"-0.02": 0.0,
			"-0.019": 0.0,
			"-0.018": 0.0,
			"-0.017": 0.0,
			"-0.016": 0.0,
			"-0.015": 0.0,
			"-0.014": 0.0,
			"-0.013": 0.0,
			"-0.012": 0.778902263962,
			"-0.011": 2.21887289079,
			"-0.01": 2.29218443429,
			"-0.009": 3.26603178714,
			"-0.008": 6.43139167683,
			"-0.007": 10.9731063072,
			"-0.006": 17.5568093849,
			"-0.005": 19.0677634584,
			"-0.004": 20.7524376052,
			"-0.003": 15.5187280301,
			"-0.002": 16.9873171096,
			"-0.001": 17.9840618054,
			"0.0": 19.1241735516,
			"0.001": 23.0115390948,
			"0.002": 18.5072807345,
			"0.003": 18.328009859,
			"0.004": 20.9769681287,
			"0.005": 7.92441280756,
			"0.006": 1.764068175,
			"0.007": 1.29779458085,
			"0.008": 2.46547037231,
			"0.009": 1.6473915574,
			"0.01": 1.39681847936,
			"0.011": 1.95764221095,
			"0.012": 1.67203337921,
			"0.013": 1.89838544208,
			"0.014": 1.7128606788,
			"0.015": 2.01927842488,
			"0.016": 2.18513348745,
			"0.017": 1.75915138309,
			"0.018": 2.71341949044,
			"0.019": 1.67044100572,
			"0.02": 0.96888233838,
			"0.021": 0.0,
			"0.022": 0.0,
			"0.023": 0.0,
			"0.024": 0.0,
			"0.025": 0.0
		}
	}
}
