{
	 "smiles": "OCC1OC(OC2OC(CO)C(O)C(O)C2O)C(O)C(O)C1O", 
	 "Tm": 476.15, 
	 "num_atms": 45, 
	 "gaussian": { 
		 "optdone": 1, 
		 "sigma_profile": "yes", 
		 "theory": "DFT", 
		 "functional": "B3LYP", 
		 "basiset": "6-31G**", 
		 "properties": { 
			 "R2extent": 8051.408, 
			 "electric_dipole_moment_norm": 3.95578824762, 
			 "electric_quadrupole_moment_norm": 17.0555320237, 
			 "total_energy": -1297.91024072, 
			 "HOMO_LUMO_gap": 0.29844, 
			 "cosmo_polarized_energy": -24.64, 
			 "cosmo_cavitation_energy": 42.4, 
			 "cosmo_dispersion_energy": -30.47, 
			 "cosmo_repulsion_energy": 2.32, 
			 "cosmo_total_nonelectrostatic_energy": 14.25, 
			 "SMD_solvation_energy": 6.13 
		},
		"coords": [
			{
				"x": 2.3683473173,
				"y": -1.1680772144,
				"z": -2.2198551341,
				"element": "O" 
			},
			{
				"x": 3.4795849497,
				"y": -0.6267288413,
				"z": -1.5095123556,
				"element": "C" 
			},
			{
				"x": 3.2588006522,
				"y": -0.7324834631,
				"z": -0.0022193576,
				"element": "C" 
			},
			{
				"x": 2.0952331498,
				"y": -0.0093123113,
				"z": 0.4570663293,
				"element": "O" 
			},
			{
				"x": 0.8051804717,
				"y": -0.6193610729,
				"z": 0.2353440181,
				"element": "C" 
			},
			{
				"x": -0.1351265973,
				"y": 0.094747626,
				"z": 0.9951668825,
				"element": "O" 
			},
			{
				"x": -0.1942639295,
				"y": 1.5370065554,
				"z": 0.9583530878,
				"element": "C" 
			},
			{
				"x": -1.3917161024,
				"y": 1.8966521802,
				"z": 1.5731479401,
				"element": "O" 
			},
			{
				"x": -2.6264389222,
				"y": 1.8313892073,
				"z": 0.7990444868,
				"element": "C" 
			},
			{
				"x": -3.1898529341,
				"y": 3.2524011006,
				"z": 0.7309691668,
				"element": "C" 
			},
			{
				"x": -3.3344267672,
				"y": 3.7972745169,
				"z": 2.0287204522,
				"element": "O" 
			},
			{
				"x": -2.4295420522,
				"y": 1.1542299925,
				"z": -0.562634572,
				"element": "C" 
			},
			{
				"x": -3.6634600363,
				"y": 1.2575955425,
				"z": -1.2600446889,
				"element": "O" 
			},
			{
				"x": -1.2632502954,
				"y": 1.7523548106,
				"z": -1.3640533417,
				"element": "C" 
			},
			{
				"x": -0.8334786302,
				"y": 0.7715007052,
				"z": -2.2935532194,
				"element": "O" 
			},
			{
				"x": -0.0995170597,
				"y": 2.1941571179,
				"z": -0.4306718667,
				"element": "C" 
			},
			{
				"x": 1.1405987994,
				"y": 2.0250194579,
				"z": -1.0987382094,
				"element": "O" 
			},
			{
				"x": 0.728000929,
				"y": -2.06393218,
				"z": 0.7501417327,
				"element": "C" 
			},
			{
				"x": 0.7648229438,
				"y": -2.1111838045,
				"z": 2.1688294235,
				"element": "O" 
			},
			{
				"x": 1.9168143648,
				"y": -2.8872657066,
				"z": 0.2564876542,
				"element": "C" 
			},
			{
				"x": 1.942377993,
				"y": -4.1778307531,
				"z": 0.8570583006,
				"element": "O" 
			},
			{
				"x": 3.2261878318,
				"y": -2.1566156301,
				"z": 0.5730808929,
				"element": "C" 
			},
			{
				"x": 4.3391028138,
				"y": -2.8744542118,
				"z": 0.0710250644,
				"element": "O" 
			},
			{
				"x": 2.6144875857,
				"y": -1.2644165148,
				"z": -3.1476685577,
				"element": "H" 
			},
			{
				"x": 3.6240842334,
				"y": 0.4333956299,
				"z": -1.767511825,
				"element": "H" 
			},
			{
				"x": 4.4063328323,
				"y": -1.1688955963,
				"z": -1.7345030278,
				"element": "H" 
			},
			{
				"x": 4.1011178708,
				"y": -0.2040597723,
				"z": 0.4582350986,
				"element": "H" 
			},
			{
				"x": 0.5654470655,
				"y": -0.580154901,
				"z": -0.8297452826,
				"element": "H" 
			},
			{
				"x": 0.6037659327,
				"y": 1.9201741385,
				"z": 1.6039448084,
				"element": "H" 
			},
			{
				"x": -3.3145454449,
				"y": 1.2259524682,
				"z": 1.3979141818,
				"element": "H" 
			},
			{
				"x": -4.1799666387,
				"y": 3.2248175973,
				"z": 0.2708458063,
				"element": "H" 
			},
			{
				"x": -2.5454817074,
				"y": 3.885596527,
				"z": 0.0979759499,
				"element": "H" 
			},
			{
				"x": -2.4863683478,
				"y": 3.6562737347,
				"z": 2.473509867,
				"element": "H" 
			},
			{
				"x": -2.1741332335,
				"y": 0.102975602,
				"z": -0.3836931517,
				"element": "H" 
			},
			{
				"x": -3.555478826,
				"y": 0.7773642529,
				"z": -2.0920121469,
				"element": "H" 
			},
			{
				"x": -1.635195363,
				"y": 2.63856143,
				"z": -1.9007454812,
				"element": "H" 
			},
			{
				"x": 0.1057109,
				"y": 0.9707785401,
				"z": -2.4552924885,
				"element": "H" 
			},
			{
				"x": -0.2278648817,
				"y": 3.2634369599,
				"z": -0.2160063337,
				"element": "H" 
			},
			{
				"x": 1.7101949128,
				"y": 1.4428384178,
				"z": -0.558901534,
				"element": "H" 
			},
			{
				"x": -0.2111701164,
				"y": -2.4976096055,
				"z": 0.3735912707,
				"element": "H" 
			},
			{
				"x": 0.2208727458,
				"y": -1.3717726979,
				"z": 2.4805769223,
				"element": "H" 
			},
			{
				"x": 1.8439046275,
				"y": -3.0388242925,
				"z": -0.8226352043,
				"element": "H" 
			},
			{
				"x": 1.7156826392,
				"y": -4.0404960225,
				"z": 1.7906126548,
				"element": "H" 
			},
			{
				"x": 3.2857318054,
				"y": -2.0560558602,
				"z": 1.6675431673,
				"element": "H" 
			},
			{
				"x": 4.1627925186,
				"y": -3.8017636591,
				"z": 0.2927126196,
				"element": "H" 
			}
		],
		 "valence_orbital": [ 
			{
				"type": "occ",
				"energy": -0.28041,
				"method": "rhf"
			},
			{
				"type": "occ",
				"energy": -0.27039,
				"method": "rhf"
			},
			{
				"type": "occ",
				"energy": -0.26626,
				"method": "rhf"
			},
			{
				"type": "occ",
				"energy": -0.25864,
				"method": "rhf"
			},
			{
				"type": "occ",
				"energy": -0.25678,
				"method": "rhf"
			},
			{
				"type": "unocc",
				"energy": 0.04166,
				"method": "rhf"
			},
			{
				"type": "unocc",
				"energy": 0.06353,
				"method": "rhf"
			},
			{
				"type": "unocc",
				"energy": 0.06456,
				"method": "rhf"
			},
			{
				"type": "unocc",
				"energy": 0.07439,
				"method": "rhf"
			},
			{
				"type": "unocc",
				"energy": 0.08341,
				"method": "rhf"
			}
		],
		"cosmo_sigma_profile": { 
			"-0.025": 0.0,
			"-0.024": 0.0,
			"-0.023": 0.0,
			"-0.022": 0.0,
			"-0.021": 0.0,
			"-0.02": 0.0,
			"-0.019": 0.0,
			"-0.018": 0.0,
			"-0.017": 0.363050240015,
			"-0.016": 1.14893128386,
			"-0.015": 1.76279718412,
			"-0.014": 2.14632506247,
			"-0.013": 2.61794934525,
			"-0.012": 2.46432912459,
			"-0.011": 4.16016024782,
			"-0.01": 3.62279472911,
			"-0.009": 3.47182272893,
			"-0.008": 5.59616148878,
			"-0.007": 9.83043531555,
			"-0.006": 19.1175772635,
			"-0.005": 23.4959727288,
			"-0.004": 27.5842224241,
			"-0.003": 25.4327053394,
			"-0.002": 22.4377437864,
			"-0.001": 16.0641338662,
			"0.0": 16.1357993934,
			"0.001": 16.5001451495,
			"0.002": 14.1975381354,
			"0.003": 13.5467053651,
			"0.004": 12.1161411713,
			"0.005": 9.81303224891,
			"0.006": 12.3883621827,
			"0.007": 11.3328414972,
			"0.008": 9.7712411086,
			"0.009": 8.96952648639,
			"0.01": 6.67508420902,
			"0.011": 7.84265227866,
			"0.012": 7.33171687412,
			"0.013": 5.24805234587,
			"0.014": 3.31353798624,
			"0.015": 0.301405012656,
			"0.016": 0.0,
			"0.017": 0.0,
			"0.018": 0.0,
			"0.019": 0.0,
			"0.02": 0.0,
			"0.021": 0.0,
			"0.022": 0.0,
			"0.023": 0.0,
			"0.024": 0.0,
			"0.025": 0.0
		}
	}
}
