{
	 "smiles": "NC1=NC2=C(C=CC=C2)N1C1CCCCC1", 
	 "Tm": 480.15, 
	 "num_atms": 33, 
	 "gaussian": { 
		 "optdone": 1, 
		 "sigma_profile": "yes", 
		 "theory": "DFT", 
		 "functional": "B3LYP", 
		 "basiset": "6-31G**", 
		 "properties": { 
			 "R2extent": 4695.221, 
			 "electric_dipole_moment_norm": 4.20450104531, 
			 "electric_quadrupole_moment_norm": 11.1427968231, 
			 "total_energy": -669.920277963, 
			 "HOMO_LUMO_gap": 0.20173, 
			 "cosmo_polarized_energy": -13.83, 
			 "cosmo_cavitation_energy": 33.35, 
			 "cosmo_dispersion_energy": -24.27, 
			 "cosmo_repulsion_energy": 1.89, 
			 "cosmo_total_nonelectrostatic_energy": 10.97, 
			 "SMD_solvation_energy": 2.67 
		},
		"coords": [
			{
				"x": -1.4320709539,
				"y": 2.3127729418,
				"z": 0.9522575113,
				"element": "N" 
			},
			{
				"x": -0.0440124977,
				"y": 2.2646608994,
				"z": 1.0272615236,
				"element": "C" 
			},
			{
				"x": 0.718589976,
				"y": 3.3179392338,
				"z": 1.1936650834,
				"element": "N" 
			},
			{
				"x": 2.0130763928,
				"y": 2.8222473423,
				"z": 1.1292041,
				"element": "C" 
			},
			{
				"x": 2.0008494676,
				"y": 1.4183016837,
				"z": 0.9325569598,
				"element": "C" 
			},
			{
				"x": 3.1810734736,
				"y": 0.6755914577,
				"z": 0.8637078252,
				"element": "C" 
			},
			{
				"x": 4.3850436906,
				"y": 1.3729430043,
				"z": 0.984767169,
				"element": "C" 
			},
			{
				"x": 4.4092306183,
				"y": 2.7646813152,
				"z": 1.1749536228,
				"element": "C" 
			},
			{
				"x": 3.2287891882,
				"y": 3.5017446211,
				"z": 1.2504932258,
				"element": "C" 
			},
			{
				"x": 0.645468654,
				"y": 1.0748109304,
				"z": 0.8575775454,
				"element": "N" 
			},
			{
				"x": 0.0495792266,
				"y": -0.2211564185,
				"z": 0.5159254679,
				"element": "C" 
			},
			{
				"x": 0.2811070317,
				"y": -1.2771875605,
				"z": 1.613332778,
				"element": "C" 
			},
			{
				"x": -0.3909364437,
				"y": -2.6109625451,
				"z": 1.2494715727,
				"element": "C" 
			},
			{
				"x": 0.0641675708,
				"y": -3.1172115154,
				"z": -0.1276359914,
				"element": "C" 
			},
			{
				"x": -0.175137853,
				"y": -2.0594817299,
				"z": -1.2156331616,
				"element": "C" 
			},
			{
				"x": 0.5030316232,
				"y": -0.7244606862,
				"z": -0.8682213473,
				"element": "C" 
			},
			{
				"x": -1.9091266537,
				"y": 1.6639475082,
				"z": 1.5682729468,
				"element": "H" 
			},
			{
				"x": -1.7420204584,
				"y": 3.2616551182,
				"z": 1.1271454456,
				"element": "H" 
			},
			{
				"x": 3.1822955165,
				"y": -0.3995380067,
				"z": 0.7224902902,
				"element": "H" 
			},
			{
				"x": 5.3205497836,
				"y": 0.8237962579,
				"z": 0.9313654957,
				"element": "H" 
			},
			{
				"x": 5.3652616625,
				"y": 3.2720904903,
				"z": 1.2664312472,
				"element": "H" 
			},
			{
				"x": 3.2364396988,
				"y": 4.5765671929,
				"z": 1.401391351,
				"element": "H" 
			},
			{
				"x": -1.0280849704,
				"y": -0.0354484071,
				"z": 0.4459856856,
				"element": "H" 
			},
			{
				"x": -0.0988093815,
				"y": -0.8989003583,
				"z": 2.5697063899,
				"element": "H" 
			},
			{
				"x": 1.3583734362,
				"y": -1.4326651531,
				"z": 1.7474334813,
				"element": "H" 
			},
			{
				"x": -1.482337929,
				"y": -2.4770628234,
				"z": 1.2412531832,
				"element": "H" 
			},
			{
				"x": -0.1770649915,
				"y": -3.3570303434,
				"z": 2.0233274818,
				"element": "H" 
			},
			{
				"x": 1.1351637913,
				"y": -3.3614767631,
				"z": -0.0881584586,
				"element": "H" 
			},
			{
				"x": -0.4584438377,
				"y": -4.047022168,
				"z": -0.3805960312,
				"element": "H" 
			},
			{
				"x": 0.1892696212,
				"y": -2.4176047943,
				"z": -2.1851980611,
				"element": "H" 
			},
			{
				"x": -1.2565249744,
				"y": -1.8985786692,
				"z": -1.3314404402,
				"element": "H" 
			},
			{
				"x": 0.2698385322,
				"y": 0.0374491087,
				"z": -1.6198596242,
				"element": "H" 
			},
			{
				"x": 1.5912719892,
				"y": -0.8529111637,
				"z": -0.8766342675,
				"element": "H" 
			}
		],
		 "valence_orbital": [ 
			{
				"type": "occ",
				"energy": -0.28756,
				"method": "rhf"
			},
			{
				"type": "occ",
				"energy": -0.27807,
				"method": "rhf"
			},
			{
				"type": "occ",
				"energy": -0.26031,
				"method": "rhf"
			},
			{
				"type": "occ",
				"energy": -0.2112,
				"method": "rhf"
			},
			{
				"type": "occ",
				"energy": -0.19705,
				"method": "rhf"
			},
			{
				"type": "unocc",
				"energy": 0.00468,
				"method": "rhf"
			},
			{
				"type": "unocc",
				"energy": 0.0318,
				"method": "rhf"
			},
			{
				"type": "unocc",
				"energy": 0.05808,
				"method": "rhf"
			},
			{
				"type": "unocc",
				"energy": 0.07422,
				"method": "rhf"
			},
			{
				"type": "unocc",
				"energy": 0.07687,
				"method": "rhf"
			}
		],
		"cosmo_sigma_profile": { 
			"-0.025": 0.0,
			"-0.024": 0.0,
			"-0.023": 0.0,
			"-0.022": 0.0,
			"-0.021": 0.0,
			"-0.02": 0.0,
			"-0.019": 0.0,
			"-0.018": 0.0,
			"-0.017": 0.0,
			"-0.016": 0.0,
			"-0.015": 0.0,
			"-0.014": 0.184056798595,
			"-0.013": 1.87280565363,
			"-0.012": 3.42476369013,
			"-0.011": 2.9832029659,
			"-0.01": 2.21817734796,
			"-0.009": 3.01723534569,
			"-0.008": 1.93160415272,
			"-0.007": 2.06127507598,
			"-0.006": 4.46241395054,
			"-0.005": 9.8460209091,
			"-0.004": 13.7334123719,
			"-0.003": 23.339675376,
			"-0.002": 32.4212320841,
			"-0.001": 32.4498996568,
			"0.0": 31.4182614975,
			"0.001": 21.1394663186,
			"0.002": 10.4407810516,
			"0.003": 8.26771696658,
			"0.004": 9.19826883904,
			"0.005": 11.0379816404,
			"0.006": 10.7043924402,
			"0.007": 9.00175838352,
			"0.008": 3.10120430595,
			"0.009": 2.37613796886,
			"0.01": 1.31927137897,
			"0.011": 1.24747137116,
			"0.012": 1.74980254604,
			"0.013": 2.05955693084,
			"0.014": 1.11788452537,
			"0.015": 1.05423020712,
			"0.016": 0.833115495414,
			"0.017": 0.860202362949,
			"0.018": 0.590157936866,
			"0.019": 0.00528467892028,
			"0.02": 0.0,
			"0.021": 0.0,
			"0.022": 0.0,
			"0.023": 0.0,
			"0.024": 0.0,
			"0.025": 0.0
		}
	}
}
