{
	 "smiles": "COC1=CC=C(C=CC(=O)C2=C(OC)C=C(OC)C=C2)C=C1", 
	 "Tm": 370.15, 
	 "num_atms": 40, 
	 "gaussian": { 
		 "optdone": 1, 
		 "sigma_profile": "yes", 
		 "theory": "DFT", 
		 "functional": "B3LYP", 
		 "basiset": "6-31G**", 
		 "properties": { 
			 "R2extent": 11272.3438, 
			 "electric_dipole_moment_norm": 5.86943643376, 
			 "electric_quadrupole_moment_norm": 20.5068691923, 
			 "total_energy": -997.604798635, 
			 "HOMO_LUMO_gap": 0.15005, 
			 "cosmo_polarized_energy": -16.22, 
			 "cosmo_cavitation_energy": 44.33, 
			 "cosmo_dispersion_energy": -30.93, 
			 "cosmo_repulsion_energy": 2.38, 
			 "cosmo_total_nonelectrostatic_energy": 15.78, 
			 "SMD_solvation_energy": 10.21 
		},
		"coords": [
			{
				"x": 4.0124002171,
				"y": -5.9527204614,
				"z": -1.429932401,
				"element": "C" 
			},
			{
				"x": 2.9939531839,
				"y": -5.8143622367,
				"z": -0.4496913958,
				"element": "O" 
			},
			{
				"x": 2.579313307,
				"y": -4.561516125,
				"z": -0.1195923271,
				"element": "C" 
			},
			{
				"x": 3.0806486121,
				"y": -3.3798612008,
				"z": -0.6784388823,
				"element": "C" 
			},
			{
				"x": 2.571423087,
				"y": -2.1531499441,
				"z": -0.2541471476,
				"element": "C" 
			},
			{
				"x": 1.5649890026,
				"y": -2.0596594817,
				"z": 0.7206202028,
				"element": "C" 
			},
			{
				"x": 1.0788815868,
				"y": -0.7396040371,
				"z": 1.1114736315,
				"element": "C" 
			},
			{
				"x": 0.1192353117,
				"y": -0.4570573305,
				"z": 2.0179197332,
				"element": "C" 
			},
			{
				"x": -0.2762092169,
				"y": 0.8946291915,
				"z": 2.4575715055,
				"element": "C" 
			},
			{
				"x": -0.9042956016,
				"y": 1.0180790248,
				"z": 3.509596385,
				"element": "O" 
			},
			{
				"x": 0.1369981706,
				"y": 2.133500425,
				"z": 1.7068969225,
				"element": "C" 
			},
			{
				"x": 0.0982881307,
				"y": 2.3224723161,
				"z": 0.3137073817,
				"element": "C" 
			},
			{
				"x": -0.3187559743,
				"y": 1.3473016532,
				"z": -0.5690613893,
				"element": "O" 
			},
			{
				"x": -1.7103666408,
				"y": 1.0298026028,
				"z": -0.5279931698,
				"element": "C" 
			},
			{
				"x": 0.5016667259,
				"y": 3.5326604025,
				"z": -0.263788514,
				"element": "C" 
			},
			{
				"x": 0.9520886228,
				"y": 4.5806441684,
				"z": 0.5435732315,
				"element": "C" 
			},
			{
				"x": 1.3796454024,
				"y": 5.784488802,
				"z": 0.0741868009,
				"element": "O" 
			},
			{
				"x": 1.3885373837,
				"y": 5.997167327,
				"z": -1.3295934384,
				"element": "C" 
			},
			{
				"x": 0.9629879184,
				"y": 4.4250588611,
				"z": 1.9392609941,
				"element": "C" 
			},
			{
				"x": 0.5467308781,
				"y": 3.227771612,
				"z": 2.4944434652,
				"element": "C" 
			},
			{
				"x": 1.0773931051,
				"y": -3.2671014768,
				"z": 1.2690897551,
				"element": "C" 
			},
			{
				"x": 1.5714334352,
				"y": -4.4923555042,
				"z": 0.8597747975,
				"element": "C" 
			},
			{
				"x": 3.6993731614,
				"y": -5.541434276,
				"z": -2.3979078085,
				"element": "H" 
			},
			{
				"x": 4.9436354295,
				"y": -5.4646657649,
				"z": -1.1158630012,
				"element": "H" 
			},
			{
				"x": 4.185723047,
				"y": -7.0246432622,
				"z": -1.5340095039,
				"element": "H" 
			},
			{
				"x": 3.8565914882,
				"y": -3.4029529725,
				"z": -1.4341589509,
				"element": "H" 
			},
			{
				"x": 2.9645354257,
				"y": -1.240361501,
				"z": -0.6943061813,
				"element": "H" 
			},
			{
				"x": 1.5620391649,
				"y": 0.0915186634,
				"z": 0.6048243681,
				"element": "H" 
			},
			{
				"x": -0.3744512619,
				"y": -1.2407821678,
				"z": 2.5870357109,
				"element": "H" 
			},
			{
				"x": -1.8804920294,
				"y": 0.2979616535,
				"z": -1.3202235957,
				"element": "H" 
			},
			{
				"x": -2.0039693431,
				"y": 0.5905611814,
				"z": 0.4318091194,
				"element": "H" 
			},
			{
				"x": -2.3206388866,
				"y": 1.9220402427,
				"z": -0.7171069827,
				"element": "H" 
			},
			{
				"x": 0.4407315284,
				"y": 3.6160374857,
				"z": -1.3414475208,
				"element": "H" 
			},
			{
				"x": 1.7747026573,
				"y": 7.006561043,
				"z": -1.4784884699,
				"element": "H" 
			},
			{
				"x": 2.041823704,
				"y": 5.2801000824,
				"z": -1.842541669,
				"element": "H" 
			},
			{
				"x": 0.3791367154,
				"y": 5.9303717903,
				"z": -1.7549258837,
				"element": "H" 
			},
			{
				"x": 1.2984993905,
				"y": 5.251893021,
				"z": 2.5558101238,
				"element": "H" 
			},
			{
				"x": 0.5363429349,
				"y": 3.1017488675,
				"z": 3.5720323156,
				"element": "H" 
			},
			{
				"x": 0.3017336963,
				"y": -3.2419127089,
				"z": 2.0277871101,
				"element": "H" 
			},
			{
				"x": 1.1983965302,
				"y": -5.4201299655,
				"z": 1.2810046784,
				"element": "H" 
			}
		],
		 "valence_orbital": [ 
			{
				"type": "occ",
				"energy": -0.25932,
				"method": "rhf"
			},
			{
				"type": "occ",
				"energy": -0.2437,
				"method": "rhf"
			},
			{
				"type": "occ",
				"energy": -0.23587,
				"method": "rhf"
			},
			{
				"type": "occ",
				"energy": -0.21781,
				"method": "rhf"
			},
			{
				"type": "occ",
				"energy": -0.21086,
				"method": "rhf"
			},
			{
				"type": "unocc",
				"energy": -0.06081,
				"method": "rhf"
			},
			{
				"type": "unocc",
				"energy": -0.00905,
				"method": "rhf"
			},
			{
				"type": "unocc",
				"energy": -0.0059,
				"method": "rhf"
			},
			{
				"type": "unocc",
				"energy": 0.00147,
				"method": "rhf"
			},
			{
				"type": "unocc",
				"energy": 0.03862,
				"method": "rhf"
			}
		],
		"cosmo_sigma_profile": { 
			"-0.025": 0.0,
			"-0.024": 0.0,
			"-0.023": 0.0,
			"-0.022": 0.0,
			"-0.021": 0.0,
			"-0.02": 0.0,
			"-0.019": 0.0,
			"-0.018": 0.0,
			"-0.017": 0.0,
			"-0.016": 0.0,
			"-0.015": 0.0,
			"-0.014": 0.0,
			"-0.013": 0.0,
			"-0.012": 0.0,
			"-0.011": 0.0,
			"-0.01": 0.0,
			"-0.009": 0.0,
			"-0.008": 0.669990715499,
			"-0.007": 7.3639697482,
			"-0.006": 25.5836764195,
			"-0.005": 34.077088639,
			"-0.004": 35.600627362,
			"-0.003": 36.843959379,
			"-0.002": 23.1880852073,
			"-0.001": 17.9560028471,
			"0.0": 18.9006722583,
			"0.001": 19.7141697376,
			"0.002": 23.2653320208,
			"0.003": 31.9396253539,
			"0.004": 27.9152811752,
			"0.005": 11.0440371525,
			"0.006": 6.54916812985,
			"0.007": 4.93891916133,
			"0.008": 4.46215703279,
			"0.009": 5.81397546012,
			"0.01": 4.99776129402,
			"0.011": 2.39296846278,
			"0.012": 3.33459892517,
			"0.013": 4.79124747248,
			"0.014": 1.72775168936,
			"0.015": 0.0378353633001,
			"0.016": 0.0,
			"0.017": 0.0,
			"0.018": 0.0,
			"0.019": 0.0,
			"0.02": 0.0,
			"0.021": 0.0,
			"0.022": 0.0,
			"0.023": 0.0,
			"0.024": 0.0,
			"0.025": 0.0
		}
	}
}
