{
	 "smiles": "[O-][N+](=O)C1=CC=C2NC(=O)OC(=O)C2=C1", 
	 "Tm": 534.15, 
	 "num_atms": 19, 
	 "gaussian": { 
		 "optdone": 1, 
		 "sigma_profile": "yes", 
		 "theory": "DFT", 
		 "functional": "B3LYP", 
		 "basiset": "6-31G**", 
		 "properties": { 
			 "R2extent": 3622.4743, 
			 "electric_dipole_moment_norm": 5.39429495486, 
			 "electric_quadrupole_moment_norm": 26.7456144654, 
			 "total_energy": -792.813902333, 
			 "HOMO_LUMO_gap": 0.17071, 
			 "cosmo_polarized_energy": -21.71, 
			 "cosmo_cavitation_energy": 25.71, 
			 "cosmo_dispersion_energy": -19.18, 
			 "cosmo_repulsion_energy": 1.47, 
			 "cosmo_total_nonelectrostatic_energy": 7.99, 
			 "SMD_solvation_energy": 8.85 
		},
		"coords": [
			{
				"x": 1.7816110742,
				"y": 2.4256902215,
				"z": -1.8231705803,
				"element": "O" 
			},
			{
				"x": 1.0489028546,
				"y": 2.8137325074,
				"z": -0.9159909336,
				"element": "N" 
			},
			{
				"x": 1.0400270057,
				"y": 3.953192138,
				"z": -0.4506174031,
				"element": "O" 
			},
			{
				"x": 0.1089752016,
				"y": 1.8432325872,
				"z": -0.3406364863,
				"element": "C" 
			},
			{
				"x": -0.740610212,
				"y": 2.2531710549,
				"z": 0.6946381305,
				"element": "C" 
			},
			{
				"x": -1.6328613096,
				"y": 1.3492574608,
				"z": 1.2478300229,
				"element": "C" 
			},
			{
				"x": -1.6739230788,
				"y": 0.0310824452,
				"z": 0.7623832965,
				"element": "C" 
			},
			{
				"x": -2.5454960774,
				"y": -0.9051762898,
				"z": 1.2815327934,
				"element": "N" 
			},
			{
				"x": -2.6481064439,
				"y": -2.2212897636,
				"z": 0.8602905297,
				"element": "C" 
			},
			{
				"x": -3.4204519282,
				"y": -3.0090554018,
				"z": 1.3371601398,
				"element": "O" 
			},
			{
				"x": -1.7992943254,
				"y": -2.5839978838,
				"z": -0.1554351287,
				"element": "O" 
			},
			{
				"x": -0.8660879842,
				"y": -1.7482097708,
				"z": -0.7783313448,
				"element": "C" 
			},
			{
				"x": -0.1893520883,
				"y": -2.2095793439,
				"z": -1.6563208439,
				"element": "O" 
			},
			{
				"x": -0.813881141,
				"y": -0.365211374,
				"z": -0.2781894119,
				"element": "C" 
			},
			{
				"x": 0.0844610854,
				"y": 0.5476106134,
				"z": -0.8340567444,
				"element": "C" 
			},
			{
				"x": -0.6842884547,
				"y": 3.2758779101,
				"z": 1.0462203747,
				"element": "H" 
			},
			{
				"x": -2.2965460844,
				"y": 1.6546679182,
				"z": 2.0506852787,
				"element": "H" 
			},
			{
				"x": -3.1785042715,
				"y": -0.6574222103,
				"z": 2.0298756661,
				"element": "H" 
			},
			{
				"x": 0.745926178,
				"y": 0.2414271812,
				"z": -1.6349673553,
				"element": "H" 
			}
		],
		 "valence_orbital": [ 
			{
				"type": "occ",
				"energy": -0.32354,
				"method": "rhf"
			},
			{
				"type": "occ",
				"energy": -0.31175,
				"method": "rhf"
			},
			{
				"type": "occ",
				"energy": -0.30814,
				"method": "rhf"
			},
			{
				"type": "occ",
				"energy": -0.30512,
				"method": "rhf"
			},
			{
				"type": "occ",
				"energy": -0.27779,
				"method": "rhf"
			},
			{
				"type": "unocc",
				"energy": -0.10708,
				"method": "rhf"
			},
			{
				"type": "unocc",
				"energy": -0.09183,
				"method": "rhf"
			},
			{
				"type": "unocc",
				"energy": -0.03293,
				"method": "rhf"
			},
			{
				"type": "unocc",
				"energy": -0.00807,
				"method": "rhf"
			},
			{
				"type": "unocc",
				"energy": 0.04186,
				"method": "rhf"
			}
		],
		"cosmo_sigma_profile": { 
			"-0.025": 0.0,
			"-0.024": 0.0,
			"-0.023": 0.0,
			"-0.022": 0.0,
			"-0.021": 0.0,
			"-0.02": 0.0,
			"-0.019": 0.0,
			"-0.018": 1.07547269294,
			"-0.017": 1.82754937845,
			"-0.016": 1.3786192309,
			"-0.015": 1.18580728887,
			"-0.014": 1.28013730327,
			"-0.013": 0.798975928559,
			"-0.012": 1.14354323623,
			"-0.011": 2.49860580495,
			"-0.01": 3.38425096985,
			"-0.009": 4.68998207598,
			"-0.008": 6.57038356804,
			"-0.007": 7.31253658368,
			"-0.006": 9.47243801163,
			"-0.005": 9.77057362662,
			"-0.004": 14.4359846155,
			"-0.003": 17.8338745398,
			"-0.002": 15.8933590165,
			"-0.001": 10.8521230334,
			"0.0": 8.48636045367,
			"0.001": 5.00810399625,
			"0.002": 4.73073884369,
			"0.003": 5.31800437139,
			"0.004": 4.96211540368,
			"0.005": 6.66547492233,
			"0.006": 7.87646287958,
			"0.007": 14.4564817371,
			"0.008": 11.6102775849,
			"0.009": 10.2766623327,
			"0.01": 11.0469664305,
			"0.011": 5.6818526483,
			"0.012": 0.566509977676,
			"0.013": 0.0,
			"0.014": 0.0,
			"0.015": 0.0,
			"0.016": 0.0,
			"0.017": 0.0,
			"0.018": 0.0,
			"0.019": 0.0,
			"0.02": 0.0,
			"0.021": 0.0,
			"0.022": 0.0,
			"0.023": 0.0,
			"0.024": 0.0,
			"0.025": 0.0
		}
	}
}
