{
	 "smiles": "CCOC(=O)C(CC)C1=CC=C(C)C=C1", 
	 "Tm": 403.15, 
	 "num_atms": 33, 
	 "gaussian": { 
		 "optdone": 1, 
		 "sigma_profile": "yes", 
		 "theory": "DFT", 
		 "functional": "B3LYP", 
		 "basiset": "6-31G**", 
		 "properties": { 
			 "R2extent": 4332.1885, 
			 "electric_dipole_moment_norm": 1.47553084007, 
			 "electric_quadrupole_moment_norm": 8.87882999443, 
			 "total_energy": -656.715140977, 
			 "HOMO_LUMO_gap": 0.2253, 
			 "cosmo_polarized_energy": -7.62, 
			 "cosmo_cavitation_energy": 35.65, 
			 "cosmo_dispersion_energy": -24.47, 
			 "cosmo_repulsion_energy": 1.99, 
			 "cosmo_total_nonelectrostatic_energy": 13.16, 
			 "SMD_solvation_energy": 7.04 
		},
		"coords": [
			{
				"x": -3.2929736597,
				"y": 2.8894610475,
				"z": -0.7410233537,
				"element": "C" 
			},
			{
				"x": -2.9683828719,
				"y": 1.4772445964,
				"z": -0.2777561968,
				"element": "C" 
			},
			{
				"x": -1.5586972975,
				"y": 1.3332942458,
				"z": 0.0238216242,
				"element": "O" 
			},
			{
				"x": -0.7472189361,
				"y": 1.026758897,
				"z": -1.0112313251,
				"element": "C" 
			},
			{
				"x": -1.1301024702,
				"y": 0.8933881701,
				"z": -2.1565791502,
				"element": "O" 
			},
			{
				"x": 0.694408326,
				"y": 0.8425658734,
				"z": -0.5492669036,
				"element": "C" 
			},
			{
				"x": 1.6638376785,
				"y": 1.4300759339,
				"z": -1.6014809005,
				"element": "C" 
			},
			{
				"x": 3.1295655678,
				"y": 1.3939830515,
				"z": -1.163387949,
				"element": "C" 
			},
			{
				"x": 0.9462119666,
				"y": -0.6360509755,
				"z": -0.2612218567,
				"element": "C" 
			},
			{
				"x": 1.4366901346,
				"y": -1.0488807123,
				"z": 0.9818181687,
				"element": "C" 
			},
			{
				"x": 1.6933639693,
				"y": -2.396502132,
				"z": 1.2403015916,
				"element": "C" 
			},
			{
				"x": 1.4616643426,
				"y": -3.3758061863,
				"z": 0.2681093375,
				"element": "C" 
			},
			{
				"x": 1.7109594908,
				"y": -4.8383875719,
				"z": 0.5529241073,
				"element": "C" 
			},
			{
				"x": 0.9663633691,
				"y": -2.9581575792,
				"z": -0.9757759677,
				"element": "C" 
			},
			{
				"x": 0.7109073294,
				"y": -1.6143275671,
				"z": -1.2388229082,
				"element": "C" 
			},
			{
				"x": -2.9738355411,
				"y": 3.6265214555,
				"z": 0.0018896988,
				"element": "H" 
			},
			{
				"x": -2.7967646086,
				"y": 3.104818117,
				"z": -1.6904360951,
				"element": "H" 
			},
			{
				"x": -4.3733354606,
				"y": 2.9943639825,
				"z": -0.8867618371,
				"element": "H" 
			},
			{
				"x": -3.2431470158,
				"y": 0.7408133262,
				"z": -1.0365871354,
				"element": "H" 
			},
			{
				"x": -3.4723985355,
				"y": 1.2376579314,
				"z": 0.661683289,
				"element": "H" 
			},
			{
				"x": 0.8071243345,
				"y": 1.392830584,
				"z": 0.3908132746,
				"element": "H" 
			},
			{
				"x": 1.3657225694,
				"y": 2.4659060547,
				"z": -1.806244808,
				"element": "H" 
			},
			{
				"x": 1.5310687594,
				"y": 0.8850742121,
				"z": -2.541466131,
				"element": "H" 
			},
			{
				"x": 3.284710206,
				"y": 1.9650456193,
				"z": -0.2404709437,
				"element": "H" 
			},
			{
				"x": 3.468253631,
				"y": 0.3697498284,
				"z": -0.9811046624,
				"element": "H" 
			},
			{
				"x": 3.7736755713,
				"y": 1.8292819434,
				"z": -1.9339745277,
				"element": "H" 
			},
			{
				"x": 1.6250233881,
				"y": -0.3093754729,
				"z": 1.756230126,
				"element": "H" 
			},
			{
				"x": 2.0793332937,
				"y": -2.6894870448,
				"z": 2.2138219171,
				"element": "H" 
			},
			{
				"x": 2.3824640673,
				"y": -4.9714095392,
				"z": 1.4061260734,
				"element": "H" 
			},
			{
				"x": 2.1562878642,
				"y": -5.3444110869,
				"z": -0.3098775855,
				"element": "H" 
			},
			{
				"x": 0.7761045221,
				"y": -5.3631882369,
				"z": 0.7867410518,
				"element": "H" 
			},
			{
				"x": 0.7764358227,
				"y": -3.6977994605,
				"z": -1.7503144348,
				"element": "H" 
			},
			{
				"x": 0.3134801924,
				"y": -1.3184513048,
				"z": -2.2052955878,
				"element": "H" 
			}
		],
		 "valence_orbital": [ 
			{
				"type": "occ",
				"energy": -0.32214,
				"method": "rhf"
			},
			{
				"type": "occ",
				"energy": -0.295,
				"method": "rhf"
			},
			{
				"type": "occ",
				"energy": -0.26731,
				"method": "rhf"
			},
			{
				"type": "occ",
				"energy": -0.24545,
				"method": "rhf"
			},
			{
				"type": "occ",
				"energy": -0.2308,
				"method": "rhf"
			},
			{
				"type": "unocc",
				"energy": -0.0055,
				"method": "rhf"
			},
			{
				"type": "unocc",
				"energy": 0.00144,
				"method": "rhf"
			},
			{
				"type": "unocc",
				"energy": 0.02654,
				"method": "rhf"
			},
			{
				"type": "unocc",
				"energy": 0.09663,
				"method": "rhf"
			},
			{
				"type": "unocc",
				"energy": 0.10685,
				"method": "rhf"
			}
		],
		"cosmo_sigma_profile": { 
			"-0.025": 0.0,
			"-0.024": 0.0,
			"-0.023": 0.0,
			"-0.022": 0.0,
			"-0.021": 0.0,
			"-0.02": 0.0,
			"-0.019": 0.0,
			"-0.018": 0.0,
			"-0.017": 0.0,
			"-0.016": 0.0,
			"-0.015": 0.0,
			"-0.014": 0.0,
			"-0.013": 0.0,
			"-0.012": 0.0,
			"-0.011": 0.0,
			"-0.01": 0.0,
			"-0.009": 0.0,
			"-0.008": 0.0,
			"-0.007": 0.0,
			"-0.006": 2.76861434236,
			"-0.005": 13.0478012663,
			"-0.004": 27.1640851682,
			"-0.003": 36.5085131659,
			"-0.002": 32.3050341454,
			"-0.001": 31.5837644494,
			"0.0": 35.1384465259,
			"0.001": 27.044422599,
			"0.002": 15.2155633233,
			"0.003": 11.3656141488,
			"0.004": 11.7715395114,
			"0.005": 10.2802041197,
			"0.006": 9.40825386673,
			"0.007": 2.94912166569,
			"0.008": 2.76118707082,
			"0.009": 2.42327777627,
			"0.01": 1.43023479876,
			"0.011": 2.11483262953,
			"0.012": 3.58403388246,
			"0.013": 0.386301749158,
			"0.014": 0.0,
			"0.015": 0.0,
			"0.016": 0.0,
			"0.017": 0.0,
			"0.018": 0.0,
			"0.019": 0.0,
			"0.02": 0.0,
			"0.021": 0.0,
			"0.022": 0.0,
			"0.023": 0.0,
			"0.024": 0.0,
			"0.025": 0.0
		}
	}
}
