{
	 "smiles": "NC(=O)C1=CC(Cl)=NC(Cl)=C1", 
	 "Tm": 477.15, 
	 "num_atms": 15, 
	 "gaussian": { 
		 "optdone": 1, 
		 "sigma_profile": "yes", 
		 "theory": "DFT", 
		 "functional": "B3LYP", 
		 "basiset": "6-31G**", 
		 "properties": { 
			 "R2extent": 4102.0839, 
			 "electric_dipole_moment_norm": 4.43629404346, 
			 "electric_quadrupole_moment_norm": 8.22625723765, 
			 "total_energy": -1336.17278636, 
			 "HOMO_LUMO_gap": 0.19093, 
			 "cosmo_polarized_energy": -14.91, 
			 "cosmo_cavitation_energy": 24.07, 
			 "cosmo_dispersion_energy": -18.13, 
			 "cosmo_repulsion_energy": 1.49, 
			 "cosmo_total_nonelectrostatic_energy": 7.43, 
			 "SMD_solvation_energy": 3.05 
		},
		"coords": [
			{
				"x": 1.2119067896,
				"y": 0.6061809527,
				"z": 1.3893130101,
				"element": "N" 
			},
			{
				"x": 1.4333247388,
				"y": 1.2327464542,
				"z": 0.1935296242,
				"element": "C" 
			},
			{
				"x": 2.0243770355,
				"y": 2.2983316296,
				"z": 0.1018913552,
				"element": "O" 
			},
			{
				"x": 0.8787410426,
				"y": 0.5407814658,
				"z": -1.03089751,
				"element": "C" 
			},
			{
				"x": 1.4111341046,
				"y": 0.9068187258,
				"z": -2.2695735542,
				"element": "C" 
			},
			{
				"x": 0.9010374121,
				"y": 0.2723569813,
				"z": -3.3998602581,
				"element": "C" 
			},
			{
				"x": 1.5508024619,
				"y": 0.6851897035,
				"z": -4.9747281589,
				"element": "Cl" 
			},
			{
				"x": -0.0605190123,
				"y": -0.6412481051,
				"z": -3.3784946123,
				"element": "N" 
			},
			{
				"x": -0.5636178917,
				"y": -0.9593286779,
				"z": -2.1977276766,
				"element": "C" 
			},
			{
				"x": -1.8502857477,
				"y": -2.1544186171,
				"z": -2.1851861009,
				"element": "Cl" 
			},
			{
				"x": -0.1439816388,
				"y": -0.4114264767,
				"z": -0.9844147181,
				"element": "C" 
			},
			{
				"x": 1.6598741229,
				"y": 1.0180728583,
				"z": 2.1953210388,
				"element": "H" 
			},
			{
				"x": 0.9885942506,
				"y": -0.3755206912,
				"z": 1.4344891592,
				"element": "H" 
			},
			{
				"x": 2.1860208863,
				"y": 1.6600421674,
				"z": -2.3275361379,
				"element": "H" 
			},
			{
				"x": -0.6293085544,
				"y": -0.7000783705,
				"z": -0.0605254605,
				"element": "H" 
			}
		],
		 "valence_orbital": [ 
			{
				"type": "occ",
				"energy": -0.31027,
				"method": "rhf"
			},
			{
				"type": "occ",
				"energy": -0.30464,
				"method": "rhf"
			},
			{
				"type": "occ",
				"energy": -0.29684,
				"method": "rhf"
			},
			{
				"type": "occ",
				"energy": -0.27848,
				"method": "rhf"
			},
			{
				"type": "occ",
				"energy": -0.26925,
				"method": "rhf"
			},
			{
				"type": "unocc",
				"energy": -0.07832,
				"method": "rhf"
			},
			{
				"type": "unocc",
				"energy": -0.04642,
				"method": "rhf"
			},
			{
				"type": "unocc",
				"energy": 0.00877,
				"method": "rhf"
			},
			{
				"type": "unocc",
				"energy": 0.02565,
				"method": "rhf"
			},
			{
				"type": "unocc",
				"energy": 0.03751,
				"method": "rhf"
			}
		],
		"cosmo_sigma_profile": { 
			"-0.025": 0.0,
			"-0.024": 0.0,
			"-0.023": 0.0,
			"-0.022": 0.0,
			"-0.021": 0.0,
			"-0.02": 0.0,
			"-0.019": 0.0,
			"-0.018": 0.0,
			"-0.017": 0.0,
			"-0.016": 0.420950090457,
			"-0.015": 1.58569690328,
			"-0.014": 3.21801133915,
			"-0.013": 2.56398959567,
			"-0.012": 2.12977834718,
			"-0.011": 3.54346798949,
			"-0.01": 2.90945631364,
			"-0.009": 2.59113419118,
			"-0.008": 3.38319104516,
			"-0.007": 4.04468055395,
			"-0.006": 3.49744411153,
			"-0.005": 4.34862052127,
			"-0.004": 6.30730045813,
			"-0.003": 14.5052350608,
			"-0.002": 22.3283151072,
			"-0.001": 14.9696872351,
			"0.0": 11.7840046484,
			"0.001": 12.6883661207,
			"0.002": 13.076365625,
			"0.003": 19.6500539842,
			"0.004": 16.3718626216,
			"0.005": 5.4740957824,
			"0.006": 4.6378239214,
			"0.007": 3.00427236804,
			"0.008": 2.62445083622,
			"0.009": 3.00132628942,
			"0.01": 1.85963702572,
			"0.011": 3.0920410003,
			"0.012": 4.83083839891,
			"0.013": 3.54069772601,
			"0.014": 0.286839240466,
			"0.015": 0.0,
			"0.016": 0.0,
			"0.017": 0.0,
			"0.018": 0.0,
			"0.019": 0.0,
			"0.02": 0.0,
			"0.021": 0.0,
			"0.022": 0.0,
			"0.023": 0.0,
			"0.024": 0.0,
			"0.025": 0.0
		}
	}
}
