{
	 "smiles": "CC(C)(C)OC(=O)N1CCN(CC1)C1=C(F)C=C(CN)C=C1", 
	 "Tm": 343.15, 
	 "num_atms": 46, 
	 "gaussian": { 
		 "optdone": 1, 
		 "sigma_profile": "yes", 
		 "theory": "DFT", 
		 "functional": "B3LYP", 
		 "basiset": "6-31G**", 
		 "properties": { 
			 "R2extent": 10604.0586, 
			 "electric_dipole_moment_norm": 1.60460063879, 
			 "electric_quadrupole_moment_norm": 17.3937033938, 
			 "total_energy": -1038.72468708, 
			 "HOMO_LUMO_gap": 0.19273, 
			 "cosmo_polarized_energy": -14.12, 
			 "cosmo_cavitation_energy": 46.75, 
			 "cosmo_dispersion_energy": -32.37, 
			 "cosmo_repulsion_energy": 2.47, 
			 "cosmo_total_nonelectrostatic_energy": 16.85, 
			 "SMD_solvation_energy": 6.22 
		},
		"coords": [
			{
				"x": -1.8493286629,
				"y": -4.2621345743,
				"z": 0.8895240135,
				"element": "C" 
			},
			{
				"x": -2.9811142095,
				"y": -3.2338203126,
				"z": 0.7881681907,
				"element": "C" 
			},
			{
				"x": -3.948459301,
				"y": -3.3155033736,
				"z": 1.9740217642,
				"element": "C" 
			},
			{
				"x": -3.7333196099,
				"y": -3.3840503917,
				"z": -0.5369744085,
				"element": "C" 
			},
			{
				"x": -2.4235026017,
				"y": -1.876666832,
				"z": 0.6854873135,
				"element": "O" 
			},
			{
				"x": -1.6627426414,
				"y": -1.3597403111,
				"z": 1.6810334626,
				"element": "C" 
			},
			{
				"x": -1.3863346246,
				"y": -1.9188921155,
				"z": 2.7346869527,
				"element": "O" 
			},
			{
				"x": -1.2413523283,
				"y": -0.099739192,
				"z": 1.3464028469,
				"element": "N" 
			},
			{
				"x": -1.5583260043,
				"y": 0.5448170459,
				"z": 0.067861852,
				"element": "C" 
			},
			{
				"x": -0.6346228154,
				"y": 1.7540880209,
				"z": -0.124345953,
				"element": "C" 
			},
			{
				"x": 0.7313630885,
				"y": 1.3762602712,
				"z": 0.2316016674,
				"element": "N" 
			},
			{
				"x": 0.9130425616,
				"y": 1.0802770854,
				"z": 1.6506597848,
				"element": "C" 
			},
			{
				"x": -0.4264304272,
				"y": 0.6556551997,
				"z": 2.2840369921,
				"element": "C" 
			},
			{
				"x": 1.83995459,
				"y": 1.7386455031,
				"z": -0.5333741682,
				"element": "C" 
			},
			{
				"x": 1.8265475924,
				"y": 1.7068358194,
				"z": -1.9451914231,
				"element": "C" 
			},
			{
				"x": 0.689892762,
				"y": 1.3224597436,
				"z": -2.5908002388,
				"element": "F" 
			},
			{
				"x": 2.9205535875,
				"y": 2.0391114086,
				"z": -2.7221026687,
				"element": "C" 
			},
			{
				"x": 4.1409949859,
				"y": 2.3909779653,
				"z": -2.1271496343,
				"element": "C" 
			},
			{
				"x": 5.3680516023,
				"y": 2.6798338117,
				"z": -2.9724400514,
				"element": "C" 
			},
			{
				"x": 6.1736806134,
				"y": 1.5079420902,
				"z": -3.3585048119,
				"element": "N" 
			},
			{
				"x": 4.1922674428,
				"y": 2.4000319722,
				"z": -0.7307732784,
				"element": "C" 
			},
			{
				"x": 3.0761020148,
				"y": 2.0881010171,
				"z": 0.0463049038,
				"element": "C" 
			},
			{
				"x": -1.2986503896,
				"y": -4.1449825851,
				"z": 1.8229691316,
				"element": "H" 
			},
			{
				"x": -2.2670115814,
				"y": -5.2734267714,
				"z": 0.8479106788,
				"element": "H" 
			},
			{
				"x": -1.155800333,
				"y": -4.1467165812,
				"z": 0.0504096169,
				"element": "H" 
			},
			{
				"x": -4.7202539169,
				"y": -2.5438783863,
				"z": 1.8878502866,
				"element": "H" 
			},
			{
				"x": -3.4192457675,
				"y": -3.1834462265,
				"z": 2.9177723576,
				"element": "H" 
			},
			{
				"x": -4.443867454,
				"y": -4.2919529118,
				"z": 1.977472419,
				"element": "H" 
			},
			{
				"x": -4.2084034048,
				"y": -4.3681564001,
				"z": -0.589991164,
				"element": "H" 
			},
			{
				"x": -3.0482612955,
				"y": -3.2840316543,
				"z": -1.3839855773,
				"element": "H" 
			},
			{
				"x": -4.5097864444,
				"y": -2.6190014211,
				"z": -0.6292067866,
				"element": "H" 
			},
			{
				"x": -1.3934943205,
				"y": -0.1680356097,
				"z": -0.7434534465,
				"element": "H" 
			},
			{
				"x": -2.6102836615,
				"y": 0.8613156693,
				"z": 0.030334326,
				"element": "H" 
			},
			{
				"x": -0.6774218674,
				"y": 2.0728483673,
				"z": -1.1617153051,
				"element": "H" 
			},
			{
				"x": -0.9728403031,
				"y": 2.6047192068,
				"z": 0.4891306738,
				"element": "H" 
			},
			{
				"x": 1.6524078527,
				"y": 0.2759799911,
				"z": 1.7461243228,
				"element": "H" 
			},
			{
				"x": 1.2944278143,
				"y": 1.9473741601,
				"z": 2.218092114,
				"element": "H" 
			},
			{
				"x": -0.9782307686,
				"y": 1.5422125852,
				"z": 2.624412009,
				"element": "H" 
			},
			{
				"x": -0.2501825901,
				"y": 0.0246905416,
				"z": 3.1546590758,
				"element": "H" 
			},
			{
				"x": 2.8086143548,
				"y": 1.9971683069,
				"z": -3.8021989151,
				"element": "H" 
			},
			{
				"x": 6.0276029171,
				"y": 3.369055085,
				"z": -2.4327177064,
				"element": "H" 
			},
			{
				"x": 5.0699234597,
				"y": 3.1912200398,
				"z": -3.89508638,
				"element": "H" 
			},
			{
				"x": 6.4578167758,
				"y": 1.0100721355,
				"z": -2.5165135903,
				"element": "H" 
			},
			{
				"x": 5.5855238382,
				"y": 0.8539926896,
				"z": -3.8722499309,
				"element": "H" 
			},
			{
				"x": 5.1192614176,
				"y": 2.6710814014,
				"z": -0.2305134697,
				"element": "H" 
			},
			{
				"x": 3.1628380527,
				"y": 2.1289085162,
				"z": 1.1254621523,
				"element": "H" 
			}
		],
		 "valence_orbital": [ 
			{
				"type": "occ",
				"energy": -0.25851,
				"method": "rhf"
			},
			{
				"type": "occ",
				"energy": -0.24716,
				"method": "rhf"
			},
			{
				"type": "occ",
				"energy": -0.23701,
				"method": "rhf"
			},
			{
				"type": "occ",
				"energy": -0.23514,
				"method": "rhf"
			},
			{
				"type": "occ",
				"energy": -0.19467,
				"method": "rhf"
			},
			{
				"type": "unocc",
				"energy": -0.00194,
				"method": "rhf"
			},
			{
				"type": "unocc",
				"energy": 0.00407,
				"method": "rhf"
			},
			{
				"type": "unocc",
				"energy": 0.05543,
				"method": "rhf"
			},
			{
				"type": "unocc",
				"energy": 0.07955,
				"method": "rhf"
			},
			{
				"type": "unocc",
				"energy": 0.08425,
				"method": "rhf"
			}
		],
		"cosmo_sigma_profile": { 
			"-0.025": 0.0,
			"-0.024": 0.0,
			"-0.023": 0.0,
			"-0.022": 0.0,
			"-0.021": 0.0,
			"-0.02": 0.0,
			"-0.019": 0.0,
			"-0.018": 0.0,
			"-0.017": 0.0,
			"-0.016": 0.0,
			"-0.015": 0.0,
			"-0.014": 0.0,
			"-0.013": 0.0,
			"-0.012": 0.0,
			"-0.011": 0.0,
			"-0.01": 0.0638210446291,
			"-0.009": 2.00391180102,
			"-0.008": 2.67980743107,
			"-0.007": 2.88804550357,
			"-0.006": 8.15259418932,
			"-0.005": 19.0312920533,
			"-0.004": 45.2894769585,
			"-0.003": 44.4155519325,
			"-0.002": 34.8969903737,
			"-0.001": 29.7300080118,
			"0.0": 37.0786460238,
			"0.001": 33.6700088466,
			"0.002": 18.4678550516,
			"0.003": 17.0131957512,
			"0.004": 18.4675398495,
			"0.005": 17.4868960071,
			"0.006": 9.41254521461,
			"0.007": 3.68750610367,
			"0.008": 1.87633320103,
			"0.009": 2.36141689326,
			"0.01": 2.56136429137,
			"0.011": 2.20151450917,
			"0.012": 2.20918132744,
			"0.013": 3.80029876036,
			"0.014": 1.94672161636,
			"0.015": 0.495220178022,
			"0.016": 0.496984700223,
			"0.017": 1.07485683874,
			"0.018": 0.66506550047,
			"0.019": 0.511174779765,
			"0.02": 0.408660200158,
			"0.021": 0.0371486272211,
			"0.022": 0.0,
			"0.023": 0.0,
			"0.024": 0.0,
			"0.025": 0.0
		}
	}
}
