{
	 "smiles": "CC(=O)C1=CC=C(NC(=O)C(C(F)(F)F)(C(F)(F)F)C(F)(F)F)C=C1", 
	 "Tm": 497.15, 
	 "num_atms": 33, 
	 "gaussian": { 
		 "optdone": 1, 
		 "sigma_profile": "yes", 
		 "theory": "DFT", 
		 "functional": "B3LYP", 
		 "basiset": "6-31G**", 
		 "properties": { 
			 "R2extent": 11236.702, 
			 "electric_dipole_moment_norm": 4.76877501461, 
			 "electric_quadrupole_moment_norm": 14.0117980688, 
			 "total_energy": -1603.9836997, 
			 "HOMO_LUMO_gap": 0.17905, 
			 "cosmo_polarized_energy": -13.59, 
			 "cosmo_cavitation_energy": 40.44, 
			 "cosmo_dispersion_energy": -27.58, 
			 "cosmo_repulsion_energy": 1.88, 
			 "cosmo_total_nonelectrostatic_energy": 14.74, 
			 "SMD_solvation_energy": 10.79 
		},
		"coords": [
			{
				"x": -4.2403023631,
				"y": -3.6402892461,
				"z": -1.8205279006,
				"element": "C" 
			},
			{
				"x": -3.9267314113,
				"y": -2.9062193757,
				"z": -0.5271797408,
				"element": "C" 
			},
			{
				"x": -4.631500512,
				"y": -3.0563018338,
				"z": 0.4596906717,
				"element": "O" 
			},
			{
				"x": -2.7386247392,
				"y": -1.9955331966,
				"z": -0.4830906043,
				"element": "C" 
			},
			{
				"x": -2.4566331393,
				"y": -1.3219325213,
				"z": 0.7147796611,
				"element": "C" 
			},
			{
				"x": -1.3724498019,
				"y": -0.4608099839,
				"z": 0.8334965017,
				"element": "C" 
			},
			{
				"x": -0.5355147827,
				"y": -0.2592031806,
				"z": -0.2767677588,
				"element": "C" 
			},
			{
				"x": 0.5918486794,
				"y": 0.5920714495,
				"z": -0.2674176051,
				"element": "N" 
			},
			{
				"x": 1.0678003505,
				"y": 1.3457698166,
				"z": 0.7670256917,
				"element": "C" 
			},
			{
				"x": 0.5788987542,
				"y": 1.4039532574,
				"z": 1.8776828256,
				"element": "O" 
			},
			{
				"x": 2.3646554181,
				"y": 2.1875082517,
				"z": 0.4232357663,
				"element": "C" 
			},
			{
				"x": 2.773091576,
				"y": 2.9879709348,
				"z": 1.7094287114,
				"element": "C" 
			},
			{
				"x": 3.051323665,
				"y": 2.159264693,
				"z": 2.7202500255,
				"element": "F" 
			},
			{
				"x": 1.7994826939,
				"y": 3.8242110365,
				"z": 2.081741188,
				"element": "F" 
			},
			{
				"x": 3.8740830396,
				"y": 3.7279175524,
				"z": 1.4801058888,
				"element": "F" 
			},
			{
				"x": 3.5306557656,
				"y": 1.2356441964,
				"z": 0.0275701666,
				"element": "C" 
			},
			{
				"x": 4.6815479331,
				"y": 1.8915439421,
				"z": -0.1567758343,
				"element": "F" 
			},
			{
				"x": 3.2611930039,
				"y": 0.5796845423,
				"z": -1.1270828928,
				"element": "F" 
			},
			{
				"x": 3.7135137126,
				"y": 0.3087027708,
				"z": 0.9770632488,
				"element": "F" 
			},
			{
				"x": 2.0610829574,
				"y": 3.1940110141,
				"z": -0.7244049097,
				"element": "C" 
			},
			{
				"x": 1.7790411722,
				"y": 2.5502184551,
				"z": -1.8829122091,
				"element": "F" 
			},
			{
				"x": 0.9925109606,
				"y": 3.9399987372,
				"z": -0.4147376543,
				"element": "F" 
			},
			{
				"x": 3.0930961598,
				"y": 4.0077284529,
				"z": -0.9724962783,
				"element": "F" 
			},
			{
				"x": -0.805258617,
				"y": -0.9264719479,
				"z": -1.4826218586,
				"element": "C" 
			},
			{
				"x": -1.8936010138,
				"y": -1.7835789246,
				"z": -1.5827646712,
				"element": "C" 
			},
			{
				"x": -4.4198353864,
				"y": -2.9356952941,
				"z": -2.6402302568,
				"element": "H" 
			},
			{
				"x": -5.130875874,
				"y": -4.2501745296,
				"z": -1.6673727642,
				"element": "H" 
			},
			{
				"x": -3.4064059381,
				"y": -4.2850101862,
				"z": -2.1198387405,
				"element": "H" 
			},
			{
				"x": -3.1149867685,
				"y": -1.4913180541,
				"z": 1.5602220906,
				"element": "H" 
			},
			{
				"x": -1.1676656222,
				"y": 0.0510354891,
				"z": 1.7622606733,
				"element": "H" 
			},
			{
				"x": 1.0988854467,
				"y": 0.6384474949,
				"z": -1.1393025518,
				"element": "H" 
			},
			{
				"x": -0.1584427298,
				"y": -0.7713966879,
				"z": -2.3428147457,
				"element": "H" 
			},
			{
				"x": -2.0782825894,
				"y": -2.2860471244,
				"z": -2.5264141341,
				"element": "H" 
			}
		],
		 "valence_orbital": [ 
			{
				"type": "occ",
				"energy": -0.32932,
				"method": "rhf"
			},
			{
				"type": "occ",
				"energy": -0.29705,
				"method": "rhf"
			},
			{
				"type": "occ",
				"energy": -0.27343,
				"method": "rhf"
			},
			{
				"type": "occ",
				"energy": -0.25218,
				"method": "rhf"
			},
			{
				"type": "occ",
				"energy": -0.24782,
				"method": "rhf"
			},
			{
				"type": "unocc",
				"energy": -0.06877,
				"method": "rhf"
			},
			{
				"type": "unocc",
				"energy": -0.02223,
				"method": "rhf"
			},
			{
				"type": "unocc",
				"energy": -0.02096,
				"method": "rhf"
			},
			{
				"type": "unocc",
				"energy": 0.04273,
				"method": "rhf"
			},
			{
				"type": "unocc",
				"energy": 0.05485,
				"method": "rhf"
			}
		],
		"cosmo_sigma_profile": { 
			"-0.025": 0.0,
			"-0.024": 0.0,
			"-0.023": 0.0,
			"-0.022": 0.0,
			"-0.021": 0.0,
			"-0.02": 0.0,
			"-0.019": 0.0,
			"-0.018": 0.0,
			"-0.017": 0.0,
			"-0.016": 0.0169445713312,
			"-0.015": 0.498800692027,
			"-0.014": 0.583344831955,
			"-0.013": 1.12478574115,
			"-0.012": 0.891629444768,
			"-0.011": 0.830022982742,
			"-0.01": 1.24309580261,
			"-0.009": 1.78366236982,
			"-0.008": 2.27542266102,
			"-0.007": 5.07442475551,
			"-0.006": 12.3603541218,
			"-0.005": 15.0394780255,
			"-0.004": 15.8593602271,
			"-0.003": 20.6872766964,
			"-0.002": 22.0538210181,
			"-0.001": 27.8435189891,
			"0.0": 42.0993043546,
			"0.001": 72.2483438172,
			"0.002": 29.1258871546,
			"0.003": 15.980598606,
			"0.004": 5.17001957013,
			"0.005": 3.76024459737,
			"0.006": 3.90311038984,
			"0.007": 3.99007175208,
			"0.008": 3.72655283498,
			"0.009": 4.08407053592,
			"0.01": 4.01889707394,
			"0.011": 2.79888924469,
			"0.012": 4.01088314015,
			"0.013": 1.62757609899,
			"0.014": 0.166677766524,
			"0.015": 0.0,
			"0.016": 0.0,
			"0.017": 0.0,
			"0.018": 0.0,
			"0.019": 0.0,
			"0.02": 0.0,
			"0.021": 0.0,
			"0.022": 0.0,
			"0.023": 0.0,
			"0.024": 0.0,
			"0.025": 0.0
		}
	}
}
