{
	 "smiles": "O=C(CC1=CC=CC=C1)C1=CC=CC=C1", 
	 "Tm": 330.65, 
	 "num_atms": 27, 
	 "gaussian": { 
		 "optdone": 1, 
		 "sigma_profile": "yes", 
		 "theory": "DFT", 
		 "functional": "B3LYP", 
		 "basiset": "6-31G**", 
		 "properties": { 
			 "R2extent": 3643.4072, 
			 "electric_dipole_moment_norm": 2.78168215654, 
			 "electric_quadrupole_moment_norm": 7.14932168531, 
			 "total_energy": -615.949967545, 
			 "HOMO_LUMO_gap": 0.17887, 
			 "cosmo_polarized_energy": -9.13, 
			 "cosmo_cavitation_energy": 30.91, 
			 "cosmo_dispersion_energy": -21.96, 
			 "cosmo_repulsion_energy": 1.71, 
			 "cosmo_total_nonelectrostatic_energy": 10.65, 
			 "SMD_solvation_energy": 5.51 
		},
		"coords": [
			{
				"x": 1.0135891452,
				"y": -1.7760560734,
				"z": -2.2930957328,
				"element": "O" 
			},
			{
				"x": 0.2956606946,
				"y": -0.9373719719,
				"z": -1.7660872522,
				"element": "C" 
			},
			{
				"x": -1.0543240783,
				"y": -1.3642756809,
				"z": -1.1812792674,
				"element": "C" 
			},
			{
				"x": -0.9796232788,
				"y": -1.6345145465,
				"z": 0.3148741508,
				"element": "C" 
			},
			{
				"x": -0.0080575956,
				"y": -2.5057481339,
				"z": 0.8285415917,
				"element": "C" 
			},
			{
				"x": 0.0534172375,
				"y": -2.772149736,
				"z": 2.1960154983,
				"element": "C" 
			},
			{
				"x": -0.8548873317,
				"y": -2.1732939424,
				"z": 3.0723085807,
				"element": "C" 
			},
			{
				"x": -1.8265661815,
				"y": -1.3071123591,
				"z": 2.5703668732,
				"element": "C" 
			},
			{
				"x": -1.8858631233,
				"y": -1.0396569811,
				"z": 1.2010469168,
				"element": "C" 
			},
			{
				"x": 0.7330572366,
				"y": 0.4921951297,
				"z": -1.6729464721,
				"element": "C" 
			},
			{
				"x": 0.0014387816,
				"y": 1.474131573,
				"z": -0.9877954278,
				"element": "C" 
			},
			{
				"x": 0.462602319,
				"y": 2.7896053263,
				"z": -0.9382458095,
				"element": "C" 
			},
			{
				"x": 1.6541333122,
				"y": 3.1378309215,
				"z": -1.5768798515,
				"element": "C" 
			},
			{
				"x": 2.3906724804,
				"y": 2.1654710208,
				"z": -2.2610083689,
				"element": "C" 
			},
			{
				"x": 1.9349293327,
				"y": 0.8520041743,
				"z": -2.3051347893,
				"element": "C" 
			},
			{
				"x": -1.8246738713,
				"y": -0.6151426574,
				"z": -1.3871345722,
				"element": "H" 
			},
			{
				"x": -1.328400304,
				"y": -2.2811076412,
				"z": -1.7126253665,
				"element": "H" 
			},
			{
				"x": 0.6992749603,
				"y": -2.9728889507,
				"z": 0.1490806365,
				"element": "H" 
			},
			{
				"x": 0.8121136532,
				"y": -3.4494537243,
				"z": 2.5780100078,
				"element": "H" 
			},
			{
				"x": -0.8060875509,
				"y": -2.3819541479,
				"z": 4.1371198086,
				"element": "H" 
			},
			{
				"x": -2.540150245,
				"y": -0.8386146585,
				"z": 3.2424284739,
				"element": "H" 
			},
			{
				"x": -2.6513239286,
				"y": -0.3694098092,
				"z": 0.8163687163,
				"element": "H" 
			},
			{
				"x": -0.9179906913,
				"y": 1.2146548131,
				"z": -0.4749101631,
				"element": "H" 
			},
			{
				"x": -0.1072595875,
				"y": 3.5417843233,
				"z": -0.4006991047,
				"element": "H" 
			},
			{
				"x": 2.0096142753,
				"y": 4.1637750314,
				"z": -1.5405333779,
				"element": "H" 
			},
			{
				"x": 3.3187430368,
				"y": 2.4350401693,
				"z": -2.7567649039,
				"element": "H" 
			},
			{
				"x": 2.4894613025,
				"y": 0.0784585317,
				"z": -2.8256207948,
				"element": "H" 
			}
		],
		 "valence_orbital": [ 
			{
				"type": "occ",
				"energy": -0.26259,
				"method": "rhf"
			},
			{
				"type": "occ",
				"energy": -0.25811,
				"method": "rhf"
			},
			{
				"type": "occ",
				"energy": -0.25471,
				"method": "rhf"
			},
			{
				"type": "occ",
				"energy": -0.25074,
				"method": "rhf"
			},
			{
				"type": "occ",
				"energy": -0.23635,
				"method": "rhf"
			},
			{
				"type": "unocc",
				"energy": -0.05748,
				"method": "rhf"
			},
			{
				"type": "unocc",
				"energy": -0.00991,
				"method": "rhf"
			},
			{
				"type": "unocc",
				"energy": -0.00367,
				"method": "rhf"
			},
			{
				"type": "unocc",
				"energy": -0.00059,
				"method": "rhf"
			},
			{
				"type": "unocc",
				"energy": 0.03979,
				"method": "rhf"
			}
		],
		"cosmo_sigma_profile": { 
			"-0.025": 0.0,
			"-0.024": 0.0,
			"-0.023": 0.0,
			"-0.022": 0.0,
			"-0.021": 0.0,
			"-0.02": 0.0,
			"-0.019": 0.0,
			"-0.018": 0.0,
			"-0.017": 0.0,
			"-0.016": 0.0,
			"-0.015": 0.0,
			"-0.014": 0.0,
			"-0.013": 0.0,
			"-0.012": 0.0,
			"-0.011": 0.0,
			"-0.01": 0.0,
			"-0.009": 0.0055524536178,
			"-0.008": 0.987888286102,
			"-0.007": 3.1910178988,
			"-0.006": 14.6873091541,
			"-0.005": 23.3926984101,
			"-0.004": 23.5395298476,
			"-0.003": 21.8804934055,
			"-0.002": 17.7474894238,
			"-0.001": 15.573856991,
			"0.0": 15.1364222458,
			"0.001": 17.3576817825,
			"0.002": 19.1590434499,
			"0.003": 20.4514140662,
			"0.004": 21.2033824259,
			"0.005": 11.8308606221,
			"0.006": 8.48023236718,
			"0.007": 1.19058907358,
			"0.008": 1.12807944457,
			"0.009": 1.40948469145,
			"0.01": 2.09290613819,
			"0.011": 2.59217787028,
			"0.012": 3.55758725748,
			"0.013": 0.871782212554,
			"0.014": 0.0278580197254,
			"0.015": 0.0,
			"0.016": 0.0,
			"0.017": 0.0,
			"0.018": 0.0,
			"0.019": 0.0,
			"0.02": 0.0,
			"0.021": 0.0,
			"0.022": 0.0,
			"0.023": 0.0,
			"0.024": 0.0,
			"0.025": 0.0
		}
	}
}
