{
	 "smiles": "NC1(CO)CC2=C(C1)C=CC=C2", 
	 "Tm": 381.15, 
	 "num_atms": 25, 
	 "gaussian": { 
		 "optdone": 1, 
		 "sigma_profile": "yes", 
		 "theory": "DFT", 
		 "functional": "B3LYP", 
		 "basiset": "6-31G**", 
		 "properties": { 
			 "R2extent": 2428.6628, 
			 "electric_dipole_moment_norm": 1.39729890861, 
			 "electric_quadrupole_moment_norm": 4.65769588423, 
			 "total_energy": -518.870013654, 
			 "HOMO_LUMO_gap": 0.23157, 
			 "cosmo_polarized_energy": -9.71, 
			 "cosmo_cavitation_energy": 26.68, 
			 "cosmo_dispersion_energy": -19.56, 
			 "cosmo_repulsion_energy": 1.55, 
			 "cosmo_total_nonelectrostatic_energy": 8.68, 
			 "SMD_solvation_energy": 3.26 
		},
		"coords": [
			{
				"x": -1.1706399947,
				"y": 0.2976045737,
				"z": 2.1377749908,
				"element": "N" 
			},
			{
				"x": -0.2071707791,
				"y": 0.5625281778,
				"z": 1.049373087,
				"element": "C" 
			},
			{
				"x": 0.4063433089,
				"y": 1.9419103256,
				"z": 1.3255926558,
				"element": "C" 
			},
			{
				"x": 0.9158103365,
				"y": 2.0513266509,
				"z": 2.6484267258,
				"element": "O" 
			},
			{
				"x": -0.9757600111,
				"y": 0.5290506,
				"z": -0.299161996,
				"element": "C" 
			},
			{
				"x": -0.8689933329,
				"y": -0.915409254,
				"z": -0.7390035915,
				"element": "C" 
			},
			{
				"x": 0.176140088,
				"y": -1.5529950994,
				"z": -0.0525145719,
				"element": "C" 
			},
			{
				"x": 0.8487591531,
				"y": -0.5795128417,
				"z": 0.8906196435,
				"element": "C" 
			},
			{
				"x": 0.4685519901,
				"y": -2.8925641128,
				"z": -0.3019967522,
				"element": "C" 
			},
			{
				"x": -0.2919287981,
				"y": -3.59165398,
				"z": -1.2455135379,
				"element": "C" 
			},
			{
				"x": -1.3321255487,
				"y": -2.9555350887,
				"z": -1.9294606547,
				"element": "C" 
			},
			{
				"x": -1.6266765268,
				"y": -1.6110100856,
				"z": -1.6793605665,
				"element": "C" 
			},
			{
				"x": -1.7737225131,
				"y": -0.4806693918,
				"z": 1.8792997172,
				"element": "H" 
			},
			{
				"x": -0.656321725,
				"y": -0.0145917219,
				"z": 2.9591204336,
				"element": "H" 
			},
			{
				"x": 1.2488858377,
				"y": 2.1248500227,
				"z": 0.6500899849,
				"element": "H" 
			},
			{
				"x": -0.3557006789,
				"y": 2.712330723,
				"z": 1.1341439039,
				"element": "H" 
			},
			{
				"x": 0.1418423028,
				"y": 2.09188618,
				"z": 3.2265803033,
				"element": "H" 
			},
			{
				"x": -2.003648216,
				"y": 0.8870100889,
				"z": -0.17630453,
				"element": "H" 
			},
			{
				"x": -0.4899771809,
				"y": 1.1910479575,
				"z": -1.0308574455,
				"element": "H" 
			},
			{
				"x": 1.1323400103,
				"y": -1.0166088396,
				"z": 1.8541132394,
				"element": "H" 
			},
			{
				"x": 1.773234939,
				"y": -0.1921574126,
				"z": 0.4386985284,
				"element": "H" 
			},
			{
				"x": 1.2743361927,
				"y": -3.3923898604,
				"z": 0.2299392937,
				"element": "H" 
			},
			{
				"x": -0.0760133828,
				"y": -4.6376766546,
				"z": -1.4445300467,
				"element": "H" 
			},
			{
				"x": -1.9192087014,
				"y": -3.510552006,
				"z": -2.6558235002,
				"element": "H" 
			},
			{
				"x": -2.4393567697,
				"y": -1.1208189511,
				"z": -2.2097453144,
				"element": "H" 
			}
		],
		 "valence_orbital": [ 
			{
				"type": "occ",
				"energy": -0.31306,
				"method": "rhf"
			},
			{
				"type": "occ",
				"energy": -0.2674,
				"method": "rhf"
			},
			{
				"type": "occ",
				"energy": -0.24713,
				"method": "rhf"
			},
			{
				"type": "occ",
				"energy": -0.23805,
				"method": "rhf"
			},
			{
				"type": "occ",
				"energy": -0.23435,
				"method": "rhf"
			},
			{
				"type": "unocc",
				"energy": -0.00278,
				"method": "rhf"
			},
			{
				"type": "unocc",
				"energy": 0.00402,
				"method": "rhf"
			},
			{
				"type": "unocc",
				"energy": 0.07282,
				"method": "rhf"
			},
			{
				"type": "unocc",
				"energy": 0.10014,
				"method": "rhf"
			},
			{
				"type": "unocc",
				"energy": 0.10427,
				"method": "rhf"
			}
		],
		"cosmo_sigma_profile": { 
			"-0.025": 0.0,
			"-0.024": 0.0,
			"-0.023": 0.0,
			"-0.022": 0.0,
			"-0.021": 0.0,
			"-0.02": 0.0,
			"-0.019": 0.0,
			"-0.018": 0.0,
			"-0.017": 0.0,
			"-0.016": 0.0,
			"-0.015": 0.0,
			"-0.014": 0.406502421663,
			"-0.013": 0.590701575254,
			"-0.012": 0.655356111179,
			"-0.011": 0.692658493157,
			"-0.01": 0.909870903854,
			"-0.009": 2.73494927687,
			"-0.008": 4.00366129092,
			"-0.007": 2.73176266207,
			"-0.006": 4.38980252093,
			"-0.005": 11.3895225828,
			"-0.004": 22.9388584423,
			"-0.003": 25.7978712251,
			"-0.002": 21.6075725502,
			"-0.001": 18.1472280495,
			"0.0": 14.5182931295,
			"0.001": 9.65906075354,
			"0.002": 9.20840160763,
			"0.003": 8.89728220124,
			"0.004": 9.7053700319,
			"0.005": 8.74835492075,
			"0.006": 8.56446902651,
			"0.007": 6.20743275076,
			"0.008": 2.11898949468,
			"0.009": 1.31197511909,
			"0.01": 2.15108524391,
			"0.011": 1.39511301543,
			"0.012": 1.56511880024,
			"0.013": 2.62783273389,
			"0.014": 2.32219665317,
			"0.015": 1.33968386535,
			"0.016": 0.600598179884,
			"0.017": 0.297109726349,
			"0.018": 0.373730134974,
			"0.019": 0.0841570625166,
			"0.02": 0.0,
			"0.021": 0.0,
			"0.022": 0.0,
			"0.023": 0.0,
			"0.024": 0.0,
			"0.025": 0.0
		}
	}
}
