{
	 "smiles": "CC(C)C1CCC(C)CC1=O", 
	 "Tm": 267.15, 
	 "num_atms": 29, 
	 "gaussian": { 
		 "optdone": 1, 
		 "sigma_profile": "yes", 
		 "theory": "DFT", 
		 "functional": "B3LYP", 
		 "basiset": "6-31G**", 
		 "properties": { 
			 "R2extent": 2318.7537, 
			 "electric_dipole_moment_norm": 2.75830162419, 
			 "electric_quadrupole_moment_norm": 4.70570091591, 
			 "total_energy": -467.161127819, 
			 "HOMO_LUMO_gap": 0.22087, 
			 "cosmo_polarized_energy": -6.47, 
			 "cosmo_cavitation_energy": 28.27, 
			 "cosmo_dispersion_energy": -20.18, 
			 "cosmo_repulsion_energy": 1.61, 
			 "cosmo_total_nonelectrostatic_energy": 9.71, 
			 "SMD_solvation_energy": 4.91 
		},
		"coords": [
			{
				"x": -2.7835128539,
				"y": 2.8100961992,
				"z": -1.4625028307,
				"element": "C" 
			},
			{
				"x": -1.7592921703,
				"y": 2.2465054305,
				"z": -0.4653062496,
				"element": "C" 
			},
			{
				"x": -0.4449681049,
				"y": 3.0421028157,
				"z": -0.5185906101,
				"element": "C" 
			},
			{
				"x": -1.5672762902,
				"y": 0.7219717496,
				"z": -0.6493955043,
				"element": "C" 
			},
			{
				"x": -0.8090377231,
				"y": 0.2940591105,
				"z": -1.9319683751,
				"element": "C" 
			},
			{
				"x": -0.6824753239,
				"y": -1.2322097023,
				"z": -2.0502911404,
				"element": "C" 
			},
			{
				"x": 0.0073086475,
				"y": -1.8703016441,
				"z": -0.8273206458,
				"element": "C" 
			},
			{
				"x": 1.5010921762,
				"y": -1.5201039038,
				"z": -0.7368854071,
				"element": "C" 
			},
			{
				"x": -0.7456697913,
				"y": -1.4615114917,
				"z": 0.4614612791,
				"element": "C" 
			},
			{
				"x": -0.9394189978,
				"y": 0.0469638971,
				"z": 0.5755258168,
				"element": "C" 
			},
			{
				"x": -0.6392540284,
				"y": 0.6551410416,
				"z": 1.5876646205,
				"element": "O" 
			},
			{
				"x": -3.7415009614,
				"y": 2.2809706195,
				"z": -1.4004577474,
				"element": "H" 
			},
			{
				"x": -2.975810832,
				"y": 3.8691919309,
				"z": -1.2601609484,
				"element": "H" 
			},
			{
				"x": -2.4286762516,
				"y": 2.7378600986,
				"z": -2.4972469589,
				"element": "H" 
			},
			{
				"x": -2.1674770224,
				"y": 2.373587566,
				"z": 0.5447483631,
				"element": "H" 
			},
			{
				"x": 0.004798508,
				"y": 3.0216995944,
				"z": -1.5179037368,
				"element": "H" 
			},
			{
				"x": 0.2806965001,
				"y": 2.6530763404,
				"z": 0.1997531129,
				"element": "H" 
			},
			{
				"x": -0.6302920238,
				"y": 4.0925703284,
				"z": -0.2697217811,
				"element": "H" 
			},
			{
				"x": -2.5713671851,
				"y": 0.2689866689,
				"z": -0.7230061566,
				"element": "H" 
			},
			{
				"x": 0.187991347,
				"y": 0.7482728732,
				"z": -1.9369242851,
				"element": "H" 
			},
			{
				"x": -1.3297966622,
				"y": 0.6901709865,
				"z": -2.8106822352,
				"element": "H" 
			},
			{
				"x": -0.1304289094,
				"y": -1.4893630524,
				"z": -2.9626437052,
				"element": "H" 
			},
			{
				"x": -1.6851905581,
				"y": -1.6681270727,
				"z": -2.1608310388,
				"element": "H" 
			},
			{
				"x": -0.0696543625,
				"y": -2.9611055898,
				"z": -0.9260019523,
				"element": "H" 
			},
			{
				"x": 1.9730471173,
				"y": -2.0469418698,
				"z": 0.0989793465,
				"element": "H" 
			},
			{
				"x": 2.027108164,
				"y": -1.8060835749,
				"z": -1.6542168397,
				"element": "H" 
			},
			{
				"x": 1.6666030657,
				"y": -0.4492433367,
				"z": -0.5772112078,
				"element": "H" 
			},
			{
				"x": -1.7458498826,
				"y": -1.918399769,
				"z": 0.4487439639,
				"element": "H" 
			},
			{
				"x": -0.232795591,
				"y": -1.8097362439,
				"z": 1.362592854,
				"element": "H" 
			}
		],
		 "valence_orbital": [ 
			{
				"type": "occ",
				"energy": -0.32404,
				"method": "rhf"
			},
			{
				"type": "occ",
				"energy": -0.31962,
				"method": "rhf"
			},
			{
				"type": "occ",
				"energy": -0.31201,
				"method": "rhf"
			},
			{
				"type": "occ",
				"energy": -0.30372,
				"method": "rhf"
			},
			{
				"type": "occ",
				"energy": -0.23308,
				"method": "rhf"
			},
			{
				"type": "unocc",
				"energy": -0.01221,
				"method": "rhf"
			},
			{
				"type": "unocc",
				"energy": 0.07845,
				"method": "rhf"
			},
			{
				"type": "unocc",
				"energy": 0.09333,
				"method": "rhf"
			},
			{
				"type": "unocc",
				"energy": 0.10109,
				"method": "rhf"
			},
			{
				"type": "unocc",
				"energy": 0.1239,
				"method": "rhf"
			}
		],
		"cosmo_sigma_profile": { 
			"-0.025": 0.0,
			"-0.024": 0.0,
			"-0.023": 0.0,
			"-0.022": 0.0,
			"-0.021": 0.0,
			"-0.02": 0.0,
			"-0.019": 0.0,
			"-0.018": 0.0,
			"-0.017": 0.0,
			"-0.016": 0.0,
			"-0.015": 0.0,
			"-0.014": 0.0,
			"-0.013": 0.0,
			"-0.012": 0.0,
			"-0.011": 0.0,
			"-0.01": 0.0,
			"-0.009": 0.0,
			"-0.008": 0.0,
			"-0.007": 0.0,
			"-0.006": 1.38567695804,
			"-0.005": 5.05034284737,
			"-0.004": 8.16263182158,
			"-0.003": 25.4511880222,
			"-0.002": 38.9986632748,
			"-0.001": 40.8488776874,
			"0.0": 33.3249838441,
			"0.001": 25.1681004645,
			"0.002": 13.956048658,
			"0.003": 3.20286703111,
			"0.004": 2.06269665497,
			"0.005": 1.46740916707,
			"0.006": 1.37542256533,
			"0.007": 2.3266881623,
			"0.008": 1.22653822509,
			"0.009": 2.26700756855,
			"0.01": 1.47954991127,
			"0.011": 2.69437692448,
			"0.012": 3.21017102101,
			"0.013": 3.14088894626,
			"0.014": 0.388916384562,
			"0.015": 0.0,
			"0.016": 0.0,
			"0.017": 0.0,
			"0.018": 0.0,
			"0.019": 0.0,
			"0.02": 0.0,
			"0.021": 0.0,
			"0.022": 0.0,
			"0.023": 0.0,
			"0.024": 0.0,
			"0.025": 0.0
		}
	}
}
