{
	 "smiles": "COC1=C(OC)C=C(C=C1)C(=O)NC1=CC=C(C=C1)C(O)=O", 
	 "Tm": 533.15, 
	 "num_atms": 37, 
	 "gaussian": { 
		 "optdone": 1, 
		 "sigma_profile": "yes", 
		 "theory": "DFT", 
		 "functional": "B3LYP", 
		 "basiset": "6-31G**", 
		 "properties": { 
			 "R2extent": 12505.0423, 
			 "electric_dipole_moment_norm": 9.05445596709, 
			 "electric_quadrupole_moment_norm": 42.4280481165, 
			 "total_energy": -1049.61145041, 
			 "HOMO_LUMO_gap": 0.17437, 
			 "cosmo_polarized_energy": -25.22, 
			 "cosmo_cavitation_energy": 42.16, 
			 "cosmo_dispersion_energy": -30.3, 
			 "cosmo_repulsion_energy": 2.29, 
			 "cosmo_total_nonelectrostatic_energy": 14.14, 
			 "SMD_solvation_energy": 10.11 
		},
		"coords": [
			{
				"x": -4.73328638,
				"y": -3.1484689729,
				"z": 1.5940032638,
				"element": "C" 
			},
			{
				"x": -4.3077500402,
				"y": -1.9774901092,
				"z": 2.3067466397,
				"element": "O" 
			},
			{
				"x": -3.0311631428,
				"y": -1.5542515787,
				"z": 2.0372016697,
				"element": "C" 
			},
			{
				"x": -2.6644255996,
				"y": -1.0545498923,
				"z": 0.7706524049,
				"element": "C" 
			},
			{
				"x": -3.5597893162,
				"y": -0.9934702611,
				"z": -0.2719605432,
				"element": "O" 
			},
			{
				"x": -4.6188445694,
				"y": -0.0390714883,
				"z": -0.1041598442,
				"element": "C" 
			},
			{
				"x": -1.3541532345,
				"y": -0.6339536149,
				"z": 0.5494683206,
				"element": "C" 
			},
			{
				"x": -0.3986109811,
				"y": -0.6811620861,
				"z": 1.5754364544,
				"element": "C" 
			},
			{
				"x": -0.7870762553,
				"y": -1.1255044201,
				"z": 2.8461043262,
				"element": "C" 
			},
			{
				"x": -2.0871344973,
				"y": -1.5679482846,
				"z": 3.0677409125,
				"element": "C" 
			},
			{
				"x": 1.0240657092,
				"y": -0.2358612931,
				"z": 1.4081834155,
				"element": "C" 
			},
			{
				"x": 1.7061849597,
				"y": 0.1119742482,
				"z": 2.3642137122,
				"element": "O" 
			},
			{
				"x": 1.4971719185,
				"y": -0.2717790965,
				"z": 0.1062918602,
				"element": "N" 
			},
			{
				"x": 2.7587194188,
				"y": 0.1007001416,
				"z": -0.3815993392,
				"element": "C" 
			},
			{
				"x": 3.0041817161,
				"y": -0.1042429834,
				"z": -1.7511661859,
				"element": "C" 
			},
			{
				"x": 4.2222211848,
				"y": 0.2552438438,
				"z": -2.3123061257,
				"element": "C" 
			},
			{
				"x": 5.2300714593,
				"y": 0.8292816839,
				"z": -1.5233708982,
				"element": "C" 
			},
			{
				"x": 4.9854648376,
				"y": 1.007868377,
				"z": -0.1546675867,
				"element": "C" 
			},
			{
				"x": 3.7691571495,
				"y": 0.6621005022,
				"z": 0.4210244316,
				"element": "C" 
			},
			{
				"x": 6.5687066093,
				"y": 1.2256751709,
				"z": -2.0565322198,
				"element": "C" 
			},
			{
				"x": 6.6617032798,
				"y": 1.4124757821,
				"z": -3.4040901536,
				"element": "O" 
			},
			{
				"x": 7.5451466332,
				"y": 1.3837903135,
				"z": -1.36124038,
				"element": "O" 
			},
			{
				"x": -5.7592813654,
				"y": -3.3397853411,
				"z": 1.9130127291,
				"element": "H" 
			},
			{
				"x": -4.7021660618,
				"y": -2.9920804273,
				"z": 0.5119954928,
				"element": "H" 
			},
			{
				"x": -4.1051506482,
				"y": -4.007624429,
				"z": 1.8585824031,
				"element": "H" 
			},
			{
				"x": -4.2130314253,
				"y": 0.9769150855,
				"z": -0.0270463182,
				"element": "H" 
			},
			{
				"x": -5.218309702,
				"y": -0.2605237573,
				"z": 0.78379129,
				"element": "H" 
			},
			{
				"x": -5.2395658258,
				"y": -0.1138324178,
				"z": -0.9988829304,
				"element": "H" 
			},
			{
				"x": -1.1300737907,
				"y": -0.2286652892,
				"z": -0.4329793193,
				"element": "H" 
			},
			{
				"x": -0.050789646,
				"y": -1.1289147423,
				"z": 3.6418604032,
				"element": "H" 
			},
			{
				"x": -2.3980209362,
				"y": -1.9381894379,
				"z": 4.0393657263,
				"element": "H" 
			},
			{
				"x": 0.886050698,
				"y": -0.7007689242,
				"z": -0.5730190977,
				"element": "H" 
			},
			{
				"x": 2.2369978864,
				"y": -0.5570445101,
				"z": -2.3748241439,
				"element": "H" 
			},
			{
				"x": 4.3875852387,
				"y": 0.0434090427,
				"z": -3.3659990907,
				"element": "H" 
			},
			{
				"x": 5.7765994114,
				"y": 1.4297258773,
				"z": 0.4559981495,
				"element": "H" 
			},
			{
				"x": 3.5883801191,
				"y": 0.806902675,
				"z": 1.4760551933,
				"element": "H" 
			},
			{
				"x": 5.7789151883,
				"y": 1.4293206137,
				"z": -3.7979846219,
				"element": "H" 
			}
		],
		 "valence_orbital": [ 
			{
				"type": "occ",
				"energy": -0.26918,
				"method": "rhf"
			},
			{
				"type": "occ",
				"energy": -0.26542,
				"method": "rhf"
			},
			{
				"type": "occ",
				"energy": -0.26172,
				"method": "rhf"
			},
			{
				"type": "occ",
				"energy": -0.24666,
				"method": "rhf"
			},
			{
				"type": "occ",
				"energy": -0.23433,
				"method": "rhf"
			},
			{
				"type": "unocc",
				"energy": -0.05996,
				"method": "rhf"
			},
			{
				"type": "unocc",
				"energy": -0.03141,
				"method": "rhf"
			},
			{
				"type": "unocc",
				"energy": -0.01975,
				"method": "rhf"
			},
			{
				"type": "unocc",
				"energy": -0.01856,
				"method": "rhf"
			},
			{
				"type": "unocc",
				"energy": 0.03861,
				"method": "rhf"
			}
		],
		"cosmo_sigma_profile": { 
			"-0.025": 0.0,
			"-0.024": 0.0,
			"-0.023": 0.0,
			"-0.022": 0.0,
			"-0.021": 0.0,
			"-0.02": 0.0,
			"-0.019": 0.0910426056451,
			"-0.018": 0.80374327857,
			"-0.017": 1.15403983626,
			"-0.016": 1.12686393606,
			"-0.015": 2.49484619547,
			"-0.014": 1.90527136677,
			"-0.013": 2.52610229316,
			"-0.012": 2.64525931987,
			"-0.011": 2.83271144733,
			"-0.01": 2.26011816818,
			"-0.009": 2.64203192777,
			"-0.008": 4.63086890298,
			"-0.007": 6.58663002911,
			"-0.006": 12.1677348879,
			"-0.005": 18.8669500833,
			"-0.004": 22.4445095714,
			"-0.003": 29.478510505,
			"-0.002": 26.9649233863,
			"-0.001": 24.2799518121,
			"0.0": 21.0290564673,
			"0.001": 22.6912662745,
			"0.002": 26.0034099712,
			"0.003": 27.7927450987,
			"0.004": 12.6104522928,
			"0.005": 6.71183298648,
			"0.006": 6.36213367456,
			"0.007": 6.34909096567,
			"0.008": 5.34023456483,
			"0.009": 5.95346255322,
			"0.01": 9.05020637798,
			"0.011": 8.83180091374,
			"0.012": 8.73352261797,
			"0.013": 3.56890407927,
			"0.014": 0.204536038598,
			"0.015": 0.0,
			"0.016": 0.0,
			"0.017": 0.0,
			"0.018": 0.0,
			"0.019": 0.0,
			"0.02": 0.0,
			"0.021": 0.0,
			"0.022": 0.0,
			"0.023": 0.0,
			"0.024": 0.0,
			"0.025": 0.0
		}
	}
}
