{
	 "smiles": "ClCC(=O)C1=CC=C(NC(=O)C2=CC=CC=C2)C=C1", 
	 "Tm": 414.15, 
	 "num_atms": 31, 
	 "gaussian": { 
		 "optdone": 1, 
		 "sigma_profile": "yes", 
		 "theory": "DFT", 
		 "functional": "B3LYP", 
		 "basiset": "6-31G**", 
		 "properties": { 
			 "R2extent": 11953.3668, 
			 "electric_dipole_moment_norm": 6.79995365278, 
			 "electric_quadrupole_moment_norm": 32.3182535846, 
			 "total_energy": -1244.24110016, 
			 "HOMO_LUMO_gap": 0.16784, 
			 "cosmo_polarized_energy": -20.26, 
			 "cosmo_cavitation_energy": 38.01, 
			 "cosmo_dispersion_energy": -27.83, 
			 "cosmo_repulsion_energy": 2.11, 
			 "cosmo_total_nonelectrostatic_energy": 12.29, 
			 "SMD_solvation_energy": 6.93 
		},
		"coords": [
			{
				"x": -7.8430227328,
				"y": 1.9755372212,
				"z": 1.9997602103,
				"element": "Cl" 
			},
			{
				"x": -6.1575765745,
				"y": 1.9544424447,
				"z": 1.3972109859,
				"element": "C" 
			},
			{
				"x": -5.6052113011,
				"y": 0.5367030512,
				"z": 1.1938330546,
				"element": "C" 
			},
			{
				"x": -6.2758806666,
				"y": -0.4511061629,
				"z": 1.4285365438,
				"element": "O" 
			},
			{
				"x": -4.2031083253,
				"y": 0.4326865473,
				"z": 0.6930595277,
				"element": "C" 
			},
			{
				"x": -3.6718379614,
				"y": -0.8540570601,
				"z": 0.4992978003,
				"element": "C" 
			},
			{
				"x": -2.3785980992,
				"y": -1.0230715187,
				"z": 0.0366673006,
				"element": "C" 
			},
			{
				"x": -1.5669033276,
				"y": 0.0926394705,
				"z": -0.2484518809,
				"element": "C" 
			},
			{
				"x": -0.2721105726,
				"y": -0.1613545244,
				"z": -0.7229744517,
				"element": "N" 
			},
			{
				"x": 0.7375759326,
				"y": 0.7399685348,
				"z": -1.0171147576,
				"element": "C" 
			},
			{
				"x": 0.6312309188,
				"y": 1.9488524588,
				"z": -0.8510315998,
				"element": "O" 
			},
			{
				"x": 2.0031206366,
				"y": 0.1242843122,
				"z": -1.5424975194,
				"element": "C" 
			},
			{
				"x": 2.0529106,
				"y": -1.1129977509,
				"z": -2.2022268408,
				"element": "C" 
			},
			{
				"x": 3.267864861,
				"y": -1.6116500843,
				"z": -2.6723888248,
				"element": "C" 
			},
			{
				"x": 4.4424635055,
				"y": -0.8803396722,
				"z": -2.4874053565,
				"element": "C" 
			},
			{
				"x": 4.3973428192,
				"y": 0.3594974444,
				"z": -1.8442566372,
				"element": "C" 
			},
			{
				"x": 3.1841064655,
				"y": 0.8627238214,
				"z": -1.3820693293,
				"element": "C" 
			},
			{
				"x": -2.084379866,
				"y": 1.3854896264,
				"z": -0.0585607513,
				"element": "C" 
			},
			{
				"x": -3.3873083314,
				"y": 1.5383443475,
				"z": 0.4060723332,
				"element": "C" 
			},
			{
				"x": -6.1364770473,
				"y": 2.5033108133,
				"z": 0.4523136377,
				"element": "H" 
			},
			{
				"x": -5.5408620516,
				"y": 2.4965952153,
				"z": 2.1184626679,
				"element": "H" 
			},
			{
				"x": -4.3010944498,
				"y": -1.7092089322,
				"z": 0.7209285216,
				"element": "H" 
			},
			{
				"x": -1.9836518379,
				"y": -2.0261281854,
				"z": -0.108991524,
				"element": "H" 
			},
			{
				"x": -0.0225468902,
				"y": -1.1380814426,
				"z": -0.776884907,
				"element": "H" 
			},
			{
				"x": 1.1443186156,
				"y": -1.6778089319,
				"z": -2.3940112722,
				"element": "H" 
			},
			{
				"x": 3.2946291411,
				"y": -2.565213745,
				"z": -3.1911602543,
				"element": "H" 
			},
			{
				"x": 5.3881540418,
				"y": -1.2711854627,
				"z": -2.8513367085,
				"element": "H" 
			},
			{
				"x": 5.3082855123,
				"y": 0.9342701916,
				"z": -1.7061774015,
				"element": "H" 
			},
			{
				"x": 3.124720157,
				"y": 1.8287945896,
				"z": -0.8926573789,
				"element": "H" 
			},
			{
				"x": -1.4619424559,
				"y": 2.2426446624,
				"z": -0.2690661283,
				"element": "H" 
			},
			{
				"x": -3.7584107157,
				"y": 2.5492187209,
				"z": 0.5429209404,
				"element": "H" 
			}
		],
		 "valence_orbital": [ 
			{
				"type": "occ",
				"energy": -0.27311,
				"method": "rhf"
			},
			{
				"type": "occ",
				"energy": -0.27024,
				"method": "rhf"
			},
			{
				"type": "occ",
				"energy": -0.26505,
				"method": "rhf"
			},
			{
				"type": "occ",
				"energy": -0.25868,
				"method": "rhf"
			},
			{
				"type": "occ",
				"energy": -0.23744,
				"method": "rhf"
			},
			{
				"type": "unocc",
				"energy": -0.0696,
				"method": "rhf"
			},
			{
				"type": "unocc",
				"energy": -0.04312,
				"method": "rhf"
			},
			{
				"type": "unocc",
				"energy": -0.02289,
				"method": "rhf"
			},
			{
				"type": "unocc",
				"energy": -0.0181,
				"method": "rhf"
			},
			{
				"type": "unocc",
				"energy": 0.02559,
				"method": "rhf"
			}
		],
		"cosmo_sigma_profile": { 
			"-0.025": 0.0,
			"-0.024": 0.0,
			"-0.023": 0.0,
			"-0.022": 0.0,
			"-0.021": 0.0,
			"-0.02": 0.0,
			"-0.019": 0.0,
			"-0.018": 0.0,
			"-0.017": 0.0,
			"-0.016": 0.195089244825,
			"-0.015": 1.23739910427,
			"-0.014": 1.35929406123,
			"-0.013": 1.08773281501,
			"-0.012": 1.90212264417,
			"-0.011": 1.5006650905,
			"-0.01": 2.06737410554,
			"-0.009": 7.07001435642,
			"-0.008": 10.5810185096,
			"-0.007": 9.91098295903,
			"-0.006": 16.0949926427,
			"-0.005": 19.2844002185,
			"-0.004": 17.594163142,
			"-0.003": 14.496944384,
			"-0.002": 14.5126439986,
			"-0.001": 17.9050982449,
			"0.0": 19.3382244154,
			"0.001": 22.7783544276,
			"0.002": 23.3790138205,
			"0.003": 29.8905981274,
			"0.004": 21.8020798181,
			"0.005": 10.815621284,
			"0.006": 11.3171679852,
			"0.007": 5.07478219902,
			"0.008": 2.82575478391,
			"0.009": 4.67309437122,
			"0.01": 4.13523452687,
			"0.011": 6.37509319826,
			"0.012": 5.58728636018,
			"0.013": 2.64076672123,
			"0.014": 0.153641554663,
			"0.015": 0.0,
			"0.016": 0.0,
			"0.017": 0.0,
			"0.018": 0.0,
			"0.019": 0.0,
			"0.02": 0.0,
			"0.021": 0.0,
			"0.022": 0.0,
			"0.023": 0.0,
			"0.024": 0.0,
			"0.025": 0.0
		}
	}
}
