{
	 "smiles": "OC(=O)C1=C2N=CC=CN2N=C1", 
	 "Tm": 477.15, 
	 "num_atms": 17, 
	 "gaussian": { 
		 "optdone": 1, 
		 "sigma_profile": "yes", 
		 "theory": "DFT", 
		 "functional": "B3LYP", 
		 "basiset": "6-31G**", 
		 "properties": { 
			 "R2extent": 2017.4147, 
			 "electric_dipole_moment_norm": 3.4046122628, 
			 "electric_quadrupole_moment_norm": 16.9273738592, 
			 "total_energy": -584.44134055, 
			 "HOMO_LUMO_gap": 0.17126, 
			 "cosmo_polarized_energy": -17.27, 
			 "cosmo_cavitation_energy": 22.62, 
			 "cosmo_dispersion_energy": -16.92, 
			 "cosmo_repulsion_energy": 1.33, 
			 "cosmo_total_nonelectrostatic_energy": 7.03, 
			 "SMD_solvation_energy": 3.34 
		},
		"coords": [
			{
				"x": 3.6051075173,
				"y": 0.0160090124,
				"z": -0.8377583981,
				"element": "O" 
			},
			{
				"x": 2.2806601433,
				"y": -0.2625737134,
				"z": -1.0153739484,
				"element": "C" 
			},
			{
				"x": 1.8569141142,
				"y": -0.7655021051,
				"z": -2.0354010885,
				"element": "O" 
			},
			{
				"x": 1.4972244222,
				"y": 0.1219036471,
				"z": 0.1576594346,
				"element": "C" 
			},
			{
				"x": 0.1101152284,
				"y": -0.0108494488,
				"z": 0.3415023033,
				"element": "C" 
			},
			{
				"x": -0.8908998433,
				"y": -0.4904581937,
				"z": -0.4188852584,
				"element": "N" 
			},
			{
				"x": -2.1047031388,
				"y": -0.4540969496,
				"z": 0.0969273143,
				"element": "C" 
			},
			{
				"x": -2.4072562523,
				"y": 0.0552192853,
				"z": 1.389505262,
				"element": "C" 
			},
			{
				"x": -1.3797041992,
				"y": 0.5407279038,
				"z": 2.1542137071,
				"element": "C" 
			},
			{
				"x": -0.1295557026,
				"y": 0.5046733833,
				"z": 1.6262067582,
				"element": "N" 
			},
			{
				"x": 0.9956678335,
				"y": 0.9431625142,
				"z": 2.2468770145,
				"element": "N" 
			},
			{
				"x": 1.9595464306,
				"y": 0.7072740205,
				"z": 1.3556019743,
				"element": "C" 
			},
			{
				"x": 4.0394958292,
				"y": -0.269965391,
				"z": -1.6578120021,
				"element": "H" 
			},
			{
				"x": -2.9061158838,
				"y": -0.8446182719,
				"z": -0.5270945369,
				"element": "H" 
			},
			{
				"x": -3.4227712455,
				"y": 0.0617421721,
				"z": 1.7654169121,
				"element": "H" 
			},
			{
				"x": -1.4648036778,
				"y": 0.9560908397,
				"z": 3.1509543149,
				"element": "H" 
			},
			{
				"x": 2.9810784247,
				"y": 0.9667612951,
				"z": 1.5965602371,
				"element": "H" 
			}
		],
		 "valence_orbital": [ 
			{
				"type": "occ",
				"energy": -0.30793,
				"method": "rhf"
			},
			{
				"type": "occ",
				"energy": -0.278,
				"method": "rhf"
			},
			{
				"type": "occ",
				"energy": -0.27775,
				"method": "rhf"
			},
			{
				"type": "occ",
				"energy": -0.26424,
				"method": "rhf"
			},
			{
				"type": "occ",
				"energy": -0.23972,
				"method": "rhf"
			},
			{
				"type": "unocc",
				"energy": -0.06846,
				"method": "rhf"
			},
			{
				"type": "unocc",
				"energy": -0.03293,
				"method": "rhf"
			},
			{
				"type": "unocc",
				"energy": -0.00175,
				"method": "rhf"
			},
			{
				"type": "unocc",
				"energy": 0.07881,
				"method": "rhf"
			},
			{
				"type": "unocc",
				"energy": 0.08754,
				"method": "rhf"
			}
		],
		"cosmo_sigma_profile": { 
			"-0.025": 0.0,
			"-0.024": 0.0,
			"-0.023": 0.0,
			"-0.022": 0.0,
			"-0.021": 0.0,
			"-0.02": 0.0,
			"-0.019": 0.0,
			"-0.018": 0.424994755919,
			"-0.017": 1.0500771833,
			"-0.016": 0.629107053074,
			"-0.015": 1.01563673809,
			"-0.014": 0.498108784838,
			"-0.013": 0.903626958163,
			"-0.012": 0.837306128244,
			"-0.011": 1.9882075003,
			"-0.01": 2.60052601045,
			"-0.009": 5.59114802357,
			"-0.008": 9.29022709434,
			"-0.007": 8.04737256193,
			"-0.006": 6.57820027868,
			"-0.005": 7.22015804011,
			"-0.004": 10.1526705593,
			"-0.003": 10.5587763888,
			"-0.002": 11.9180929129,
			"-0.001": 15.652432483,
			"0.0": 14.210766887,
			"0.001": 11.5404906732,
			"0.002": 5.50947333564,
			"0.003": 6.83538422687,
			"0.004": 4.5124081377,
			"0.005": 4.79120983334,
			"0.006": 5.68467183192,
			"0.007": 3.86223548244,
			"0.008": 4.14551947722,
			"0.009": 3.70238140418,
			"0.01": 2.59060762915,
			"0.011": 5.22184329375,
			"0.012": 6.6624339263,
			"0.013": 3.8546683456,
			"0.014": 2.09661752001,
			"0.015": 1.42554575916,
			"0.016": 1.20025142983,
			"0.017": 0.0263302976518,
			"0.018": 0.0,
			"0.019": 0.0,
			"0.02": 0.0,
			"0.021": 0.0,
			"0.022": 0.0,
			"0.023": 0.0,
			"0.024": 0.0,
			"0.025": 0.0
		}
	}
}
