{
	 "smiles": "OC(=O)C1=C(N=CC=N1)C(=O)N1CCOCC1", 
	 "Tm": 459.15, 
	 "num_atms": 28, 
	 "gaussian": { 
		 "optdone": 1, 
		 "sigma_profile": "yes", 
		 "theory": "DFT", 
		 "functional": "B3LYP", 
		 "basiset": "6-31G**", 
		 "properties": { 
			 "R2extent": 4442.3705, 
			 "electric_dipole_moment_norm": 2.88502371047, 
			 "electric_quadrupole_moment_norm": 10.4713691249, 
			 "total_energy": -852.828470437, 
			 "HOMO_LUMO_gap": 0.15765, 
			 "cosmo_polarized_energy": -20.19, 
			 "cosmo_cavitation_energy": 32.28, 
			 "cosmo_dispersion_energy": -22.9, 
			 "cosmo_repulsion_energy": 1.79, 
			 "cosmo_total_nonelectrostatic_energy": 11.17, 
			 "SMD_solvation_energy": 4.11 
		},
		"coords": [
			{
				"x": -1.338189,
				"y": -0.4228992771,
				"z": -3.0788269582,
				"element": "O" 
			},
			{
				"x": -1.1625021798,
				"y": -0.4766253119,
				"z": -1.7495373456,
				"element": "C" 
			},
			{
				"x": -2.0494943317,
				"y": -0.7483981085,
				"z": -0.964189732,
				"element": "O" 
			},
			{
				"x": 0.2350747927,
				"y": -0.1460001132,
				"z": -1.3193454687,
				"element": "C" 
			},
			{
				"x": 0.6964326282,
				"y": -0.5680262431,
				"z": -0.0556461955,
				"element": "C" 
			},
			{
				"x": 1.890721236,
				"y": -0.1735772753,
				"z": 0.4056364455,
				"element": "N" 
			},
			{
				"x": 2.6268405371,
				"y": 0.5969188524,
				"z": -0.401454161,
				"element": "C" 
			},
			{
				"x": 2.1878120505,
				"y": 0.9659205066,
				"z": -1.674523249,
				"element": "C" 
			},
			{
				"x": 0.9857265926,
				"y": 0.6066040907,
				"z": -2.1294760538,
				"element": "N" 
			},
			{
				"x": -0.0155689393,
				"y": -1.6402173591,
				"z": 0.7528518176,
				"element": "C" 
			},
			{
				"x": 0.0860444809,
				"y": -2.7969933363,
				"z": 0.3577642214,
				"element": "O" 
			},
			{
				"x": -0.6396941872,
				"y": -1.2718887945,
				"z": 1.903570655,
				"element": "N" 
			},
			{
				"x": -0.9790015202,
				"y": 0.1038464081,
				"z": 2.2598494804,
				"element": "C" 
			},
			{
				"x": -0.8080901846,
				"y": 0.2903099481,
				"z": 3.769036159,
				"element": "C" 
			},
			{
				"x": -1.5615053149,
				"y": -0.6688800839,
				"z": 4.4961074552,
				"element": "O" 
			},
			{
				"x": -1.151217091,
				"y": -1.9941303157,
				"z": 4.1762853995,
				"element": "C" 
			},
			{
				"x": -1.338789693,
				"y": -2.2897493562,
				"z": 2.6896557981,
				"element": "C" 
			},
			{
				"x": -2.2733027148,
				"y": -0.6386769727,
				"z": -3.2344519873,
				"element": "H" 
			},
			{
				"x": 3.5918557866,
				"y": 0.9268927733,
				"z": -0.0228066142,
				"element": "H" 
			},
			{
				"x": 2.8084372087,
				"y": 1.5697098812,
				"z": -2.3324624344,
				"element": "H" 
			},
			{
				"x": -0.330580192,
				"y": 0.7980341506,
				"z": 1.7223596341,
				"element": "H" 
			},
			{
				"x": -2.0196913641,
				"y": 0.3102067648,
				"z": 1.9733317515,
				"element": "H" 
			},
			{
				"x": 0.2608312902,
				"y": 0.2143824297,
				"z": 4.027301393,
				"element": "H" 
			},
			{
				"x": -1.1746853264,
				"y": 1.274644544,
				"z": 4.0743937487,
				"element": "H" 
			},
			{
				"x": -1.7680262713,
				"y": -2.6654228386,
				"z": 4.7803058308,
				"element": "H" 
			},
			{
				"x": -0.0947445182,
				"y": -2.1411737746,
				"z": 4.4533879621,
				"element": "H" 
			},
			{
				"x": -0.9346769062,
				"y": -3.2656353776,
				"z": 2.416556378,
				"element": "H" 
			},
			{
				"x": -2.4088168687,
				"y": -2.273475811,
				"z": 2.4385260698,
				"element": "H" 
			}
		],
		 "valence_orbital": [ 
			{
				"type": "occ",
				"energy": -0.29646,
				"method": "rhf"
			},
			{
				"type": "occ",
				"energy": -0.27344,
				"method": "rhf"
			},
			{
				"type": "occ",
				"energy": -0.26931,
				"method": "rhf"
			},
			{
				"type": "occ",
				"energy": -0.24854,
				"method": "rhf"
			},
			{
				"type": "occ",
				"energy": -0.2369,
				"method": "rhf"
			},
			{
				"type": "unocc",
				"energy": -0.07925,
				"method": "rhf"
			},
			{
				"type": "unocc",
				"energy": -0.05773,
				"method": "rhf"
			},
			{
				"type": "unocc",
				"energy": 0.01873,
				"method": "rhf"
			},
			{
				"type": "unocc",
				"energy": 0.02708,
				"method": "rhf"
			},
			{
				"type": "unocc",
				"energy": 0.07257,
				"method": "rhf"
			}
		],
		"cosmo_sigma_profile": { 
			"-0.025": 0.0,
			"-0.024": 0.0,
			"-0.023": 0.0,
			"-0.022": 0.0,
			"-0.021": 0.0,
			"-0.02": 0.0206703961559,
			"-0.019": 0.723785807703,
			"-0.018": 0.964219271157,
			"-0.017": 0.957197146854,
			"-0.016": 0.827347823843,
			"-0.015": 1.05827732728,
			"-0.014": 0.470561562004,
			"-0.013": 0.127100668282,
			"-0.012": 1.40309867855,
			"-0.011": 0.674606699315,
			"-0.01": 0.290009259728,
			"-0.009": 3.36123001318,
			"-0.008": 7.63037091453,
			"-0.007": 6.55719768673,
			"-0.006": 12.5642939445,
			"-0.005": 23.1191693501,
			"-0.004": 30.7155622567,
			"-0.003": 22.9143456456,
			"-0.002": 19.5837454524,
			"-0.001": 13.1448102787,
			"0.0": 9.35519030132,
			"0.001": 8.88642785608,
			"0.002": 8.288380848,
			"0.003": 7.32148765855,
			"0.004": 8.9298958608,
			"0.005": 7.7476138439,
			"0.006": 6.73468770714,
			"0.007": 8.05307555268,
			"0.008": 6.61010866789,
			"0.009": 7.44026879484,
			"0.01": 6.8772170897,
			"0.011": 7.34068212985,
			"0.012": 6.57987944455,
			"0.013": 7.65614210556,
			"0.014": 1.28794349443,
			"0.015": 0.0501025713488,
			"0.016": 0.0,
			"0.017": 0.0,
			"0.018": 0.0,
			"0.019": 0.0,
			"0.02": 0.0,
			"0.021": 0.0,
			"0.022": 0.0,
			"0.023": 0.0,
			"0.024": 0.0,
			"0.025": 0.0
		}
	}
}
