{
	 "smiles": "ClC1=NC=C(C=C1)S(=O)(=O)NCC1CC1", 
	 "Tm": 369.15, 
	 "num_atms": 26, 
	 "gaussian": { 
		 "optdone": 1, 
		 "sigma_profile": "yes", 
		 "theory": "DFT", 
		 "functional": "B3LYP", 
		 "basiset": "6-31G**", 
		 "properties": { 
			 "R2extent": 5953.6211, 
			 "electric_dipole_moment_norm": 4.12995705789, 
			 "electric_quadrupole_moment_norm": 13.9681690694, 
			 "total_energy": -1467.8098779, 
			 "HOMO_LUMO_gap": 0.20981, 
			 "cosmo_polarized_energy": -14.69, 
			 "cosmo_cavitation_energy": 33.64, 
			 "cosmo_dispersion_energy": -24.39, 
			 "cosmo_repulsion_energy": 1.9, 
			 "cosmo_total_nonelectrostatic_energy": 11.15, 
			 "SMD_solvation_energy": 2.24 
		},
		"coords": [
			{
				"x": -0.1225353502,
				"y": -2.7596011064,
				"z": 4.6395037742,
				"element": "Cl" 
			},
			{
				"x": 0.4872310908,
				"y": -1.6377129678,
				"z": 3.4347659754,
				"element": "C" 
			},
			{
				"x": -0.2755522717,
				"y": -0.5891039168,
				"z": 3.1642834319,
				"element": "N" 
			},
			{
				"x": 0.1692487672,
				"y": 0.2762297429,
				"z": 2.2476243793,
				"element": "C" 
			},
			{
				"x": 1.3829963276,
				"y": 0.1017702627,
				"z": 1.5796239133,
				"element": "C" 
			},
			{
				"x": 2.1791865705,
				"y": -1.003484978,
				"z": 1.8811057748,
				"element": "C" 
			},
			{
				"x": 1.7226523861,
				"y": -1.9054755863,
				"z": 2.8372716658,
				"element": "C" 
			},
			{
				"x": 1.9440088612,
				"y": 1.3168599224,
				"z": 0.3858887125,
				"element": "S" 
			},
			{
				"x": 3.2590795255,
				"y": 0.8622442837,
				"z": -0.0829768949,
				"element": "O" 
			},
			{
				"x": 1.7535615827,
				"y": 2.6559378984,
				"z": 0.9482734829,
				"element": "O" 
			},
			{
				"x": 0.7824209998,
				"y": 1.1788901468,
				"z": -0.8259880838,
				"element": "N" 
			},
			{
				"x": 1.0044318292,
				"y": 0.1843699432,
				"z": -1.8949700945,
				"element": "C" 
			},
			{
				"x": -0.1268835432,
				"y": 0.2637953696,
				"z": -2.8916605441,
				"element": "C" 
			},
			{
				"x": -0.0825173191,
				"y": 1.3006131063,
				"z": -3.9940718522,
				"element": "C" 
			},
			{
				"x": 0.1088277449,
				"y": -0.1598761512,
				"z": -4.3193375505,
				"element": "C" 
			},
			{
				"x": -0.4621762762,
				"y": 1.1356638013,
				"z": 2.040328324,
				"element": "H" 
			},
			{
				"x": 3.1305158537,
				"y": -1.1386482065,
				"z": 1.3777967268,
				"element": "H" 
			},
			{
				"x": 2.2955585025,
				"y": -2.7818031589,
				"z": 3.1148829096,
				"element": "H" 
			},
			{
				"x": 0.597226503,
				"y": 2.1161483782,
				"z": -1.1794580638,
				"element": "H" 
			},
			{
				"x": 1.031959848,
				"y": -0.8061962691,
				"z": -1.4269706892,
				"element": "H" 
			},
			{
				"x": 1.969664213,
				"y": 0.3372057236,
				"z": -2.3953481805,
				"element": "H" 
			},
			{
				"x": -1.1066380736,
				"y": 0.0457092205,
				"z": -2.4732239845,
				"element": "H" 
			},
			{
				"x": 0.7897650815,
				"y": 1.9467136974,
				"z": -4.0535634385,
				"element": "H" 
			},
			{
				"x": -1.0114807442,
				"y": 1.7796099038,
				"z": -4.2867766087,
				"element": "H" 
			},
			{
				"x": 1.1061540098,
				"y": -0.4906494298,
				"z": -4.5951885246,
				"element": "H" 
			},
			{
				"x": -0.690206119,
				"y": -0.6853096302,
				"z": -4.8325145608,
				"element": "H" 
			}
		],
		 "valence_orbital": [ 
			{
				"type": "occ",
				"energy": -0.30709,
				"method": "rhf"
			},
			{
				"type": "occ",
				"energy": -0.30389,
				"method": "rhf"
			},
			{
				"type": "occ",
				"energy": -0.28975,
				"method": "rhf"
			},
			{
				"type": "occ",
				"energy": -0.28852,
				"method": "rhf"
			},
			{
				"type": "occ",
				"energy": -0.26965,
				"method": "rhf"
			},
			{
				"type": "unocc",
				"energy": -0.05984,
				"method": "rhf"
			},
			{
				"type": "unocc",
				"energy": -0.0529,
				"method": "rhf"
			},
			{
				"type": "unocc",
				"energy": 0.02202,
				"method": "rhf"
			},
			{
				"type": "unocc",
				"energy": 0.05349,
				"method": "rhf"
			},
			{
				"type": "unocc",
				"energy": 0.07216,
				"method": "rhf"
			}
		],
		"cosmo_sigma_profile": { 
			"-0.025": 0.0,
			"-0.024": 0.0,
			"-0.023": 0.0,
			"-0.022": 0.0,
			"-0.021": 0.0,
			"-0.02": 0.0,
			"-0.019": 0.0,
			"-0.018": 0.0,
			"-0.017": 0.0,
			"-0.016": 0.0,
			"-0.015": 0.0,
			"-0.014": 0.0,
			"-0.013": 0.832263339301,
			"-0.012": 0.641885109288,
			"-0.011": 0.847170486131,
			"-0.01": 1.38486705318,
			"-0.009": 5.37637042775,
			"-0.008": 6.02358981251,
			"-0.007": 5.61305520557,
			"-0.006": 6.99983915481,
			"-0.005": 19.1057505488,
			"-0.004": 20.3803652438,
			"-0.003": 24.7473255528,
			"-0.002": 28.283763175,
			"-0.001": 23.6575368082,
			"0.0": 19.7357007119,
			"0.001": 15.4418700393,
			"0.002": 14.3159950948,
			"0.003": 15.4108496672,
			"0.004": 13.169730542,
			"0.005": 7.3495526057,
			"0.006": 5.01706552074,
			"0.007": 5.18394519782,
			"0.008": 4.84318291502,
			"0.009": 4.72860814655,
			"0.01": 9.92912870278,
			"0.011": 8.27327447494,
			"0.012": 2.1166868379,
			"0.013": 0.491319092643,
			"0.014": 0.155262316547,
			"0.015": 0.0,
			"0.016": 0.0,
			"0.017": 0.0,
			"0.018": 0.0,
			"0.019": 0.0,
			"0.02": 0.0,
			"0.021": 0.0,
			"0.022": 0.0,
			"0.023": 0.0,
			"0.024": 0.0,
			"0.025": 0.0
		}
	}
}
