{
	 "smiles": "ClC1=CC=CC(Cl)=C1CCC#N", 
	 "Tm": 314.15, 
	 "num_atms": 19, 
	 "gaussian": { 
		 "optdone": 1, 
		 "sigma_profile": "yes", 
		 "theory": "DFT", 
		 "functional": "B3LYP", 
		 "basiset": "6-31G**", 
		 "properties": { 
			 "R2extent": 2931.6918, 
			 "electric_dipole_moment_norm": 3.69560686897, 
			 "electric_quadrupole_moment_norm": 14.6526579347, 
			 "total_energy": -1322.29853912, 
			 "HOMO_LUMO_gap": 0.22363, 
			 "cosmo_polarized_energy": -10.99, 
			 "cosmo_cavitation_energy": 26.93, 
			 "cosmo_dispersion_energy": -18.97, 
			 "cosmo_repulsion_energy": 1.51, 
			 "cosmo_total_nonelectrostatic_energy": 9.46, 
			 "SMD_solvation_energy": 5.28 
		},
		"coords": [
			{
				"x": 2.7415498161,
				"y": 2.5048852886,
				"z": 0.0422279568,
				"element": "Cl" 
			},
			{
				"x": 2.2799664952,
				"y": 0.9095009592,
				"z": 0.6412008032,
				"element": "C" 
			},
			{
				"x": 3.3097834581,
				"y": 0.0511513477,
				"z": 1.0181566244,
				"element": "C" 
			},
			{
				"x": 2.99112294,
				"y": -1.2120509823,
				"z": 1.5104548725,
				"element": "C" 
			},
			{
				"x": 1.6599841002,
				"y": -1.6004151586,
				"z": 1.6287566892,
				"element": "C" 
			},
			{
				"x": 0.6503043118,
				"y": -0.7187245562,
				"z": 1.2431070443,
				"element": "C" 
			},
			{
				"x": -1.0083301537,
				"y": -1.2695129895,
				"z": 1.4439921141,
				"element": "Cl" 
			},
			{
				"x": 0.918632163,
				"y": 0.5640656309,
				"z": 0.7287655849,
				"element": "C" 
			},
			{
				"x": -0.1739872875,
				"y": 1.5176512418,
				"z": 0.2996651594,
				"element": "C" 
			},
			{
				"x": -0.3647234089,
				"y": 1.613773344,
				"z": -1.2370903119,
				"element": "C" 
			},
			{
				"x": -0.7508048231,
				"y": 0.3521432911,
				"z": -1.8749491954,
				"element": "C" 
			},
			{
				"x": -1.0538442516,
				"y": -0.6416792654,
				"z": -2.3920718773,
				"element": "N" 
			},
			{
				"x": 4.3401176482,
				"y": 0.3742977583,
				"z": 0.926300396,
				"element": "H" 
			},
			{
				"x": 3.7824793542,
				"y": -1.8933349959,
				"z": 1.8063615228,
				"element": "H" 
			},
			{
				"x": 1.3956672764,
				"y": -2.5775603801,
				"z": 2.0155833241,
				"element": "H" 
			},
			{
				"x": -1.1187075067,
				"y": 1.2242068509,
				"z": 0.7582745767,
				"element": "H" 
			},
			{
				"x": 0.0649050548,
				"y": 2.5241464849,
				"z": 0.6543806609,
				"element": "H" 
			},
			{
				"x": 0.5574939731,
				"y": 1.9678923715,
				"z": -1.7088647259,
				"element": "H" 
			},
			{
				"x": -1.1395091596,
				"y": 2.3581637592,
				"z": -1.4539512188,
				"element": "H" 
			}
		],
		 "valence_orbital": [ 
			{
				"type": "occ",
				"energy": -0.32394,
				"method": "rhf"
			},
			{
				"type": "occ",
				"energy": -0.32034,
				"method": "rhf"
			},
			{
				"type": "occ",
				"energy": -0.31575,
				"method": "rhf"
			},
			{
				"type": "occ",
				"energy": -0.26684,
				"method": "rhf"
			},
			{
				"type": "occ",
				"energy": -0.25783,
				"method": "rhf"
			},
			{
				"type": "unocc",
				"energy": -0.0342,
				"method": "rhf"
			},
			{
				"type": "unocc",
				"energy": -0.03065,
				"method": "rhf"
			},
			{
				"type": "unocc",
				"energy": -0.00238,
				"method": "rhf"
			},
			{
				"type": "unocc",
				"energy": 0.03312,
				"method": "rhf"
			},
			{
				"type": "unocc",
				"energy": 0.04221,
				"method": "rhf"
			}
		],
		"cosmo_sigma_profile": { 
			"-0.025": 0.0,
			"-0.024": 0.0,
			"-0.023": 0.0,
			"-0.022": 0.0,
			"-0.021": 0.0,
			"-0.02": 0.0,
			"-0.019": 0.0,
			"-0.018": 0.0,
			"-0.017": 0.0,
			"-0.016": 0.0,
			"-0.015": 0.0,
			"-0.014": 0.0,
			"-0.013": 0.0,
			"-0.012": 0.0,
			"-0.011": 0.0,
			"-0.01": 0.0,
			"-0.009": 1.12489861111,
			"-0.008": 5.66569918906,
			"-0.007": 11.0712666512,
			"-0.006": 14.4504439899,
			"-0.005": 15.1871300686,
			"-0.004": 11.0817699976,
			"-0.003": 14.4297669757,
			"-0.002": 13.5726375817,
			"-0.001": 12.7405822356,
			"0.0": 17.5233137105,
			"0.001": 21.1643254315,
			"0.002": 22.4242468113,
			"0.003": 16.8454032335,
			"0.004": 14.0127544798,
			"0.005": 5.00272451493,
			"0.006": 4.50171793076,
			"0.007": 2.42102209822,
			"0.008": 3.20986961191,
			"0.009": 3.52430951388,
			"0.01": 3.04865577503,
			"0.011": 2.7814325223,
			"0.012": 2.54038390494,
			"0.013": 2.07127061713,
			"0.014": 0.358273915982,
			"0.015": 0.0,
			"0.016": 0.0,
			"0.017": 0.0,
			"0.018": 0.0,
			"0.019": 0.0,
			"0.02": 0.0,
			"0.021": 0.0,
			"0.022": 0.0,
			"0.023": 0.0,
			"0.024": 0.0,
			"0.025": 0.0
		}
	}
}
