{
	 "smiles": "CC(=O)OCC1OC(OC(C)=O)C(OC(C)=O)C1OC(C)=O", 
	 "Tm": 353.15, 
	 "num_atms": 40, 
	 "gaussian": { 
		 "optdone": 1, 
		 "sigma_profile": "yes", 
		 "theory": "DFT", 
		 "functional": "B3LYP", 
		 "basiset": "6-31G**", 
		 "properties": { 
			 "R2extent": 7716.0137, 
			 "electric_dipole_moment_norm": 4.45164925281, 
			 "electric_quadrupole_moment_norm": 13.8554933561, 
			 "total_energy": -1183.28270146, 
			 "HOMO_LUMO_gap": 0.26844, 
			 "cosmo_polarized_energy": -19.33, 
			 "cosmo_cavitation_energy": 44.53, 
			 "cosmo_dispersion_energy": -29.03, 
			 "cosmo_repulsion_energy": 2.3, 
			 "cosmo_total_nonelectrostatic_energy": 17.8, 
			 "SMD_solvation_energy": 11.75 
		},
		"coords": [
			{
				"x": -0.25139747,
				"y": 3.7178519886,
				"z": 4.5168257765,
				"element": "C" 
			},
			{
				"x": 0.6933367583,
				"y": 3.3063285145,
				"z": 3.4136567924,
				"element": "C" 
			},
			{
				"x": 1.8955506965,
				"y": 3.1999447622,
				"z": 3.5174299904,
				"element": "O" 
			},
			{
				"x": 0.0112257,
				"y": 3.0721791807,
				"z": 2.2640466295,
				"element": "O" 
			},
			{
				"x": 0.7927160059,
				"y": 2.7233399029,
				"z": 1.1049418515,
				"element": "C" 
			},
			{
				"x": 1.1465649575,
				"y": 1.2386631392,
				"z": 1.0932962682,
				"element": "C" 
			},
			{
				"x": 1.9552092605,
				"y": 1.027405058,
				"z": -0.0860902393,
				"element": "O" 
			},
			{
				"x": 1.7701896133,
				"y": -0.2711651315,
				"z": -0.5427638104,
				"element": "C" 
			},
			{
				"x": 2.5529626461,
				"y": -1.1715400138,
				"z": 0.2689025469,
				"element": "O" 
			},
			{
				"x": 3.2642145087,
				"y": -2.1416265295,
				"z": -0.3701939936,
				"element": "C" 
			},
			{
				"x": 4.040328498,
				"y": -2.965497726,
				"z": 0.6270282942,
				"element": "C" 
			},
			{
				"x": 3.2631696327,
				"y": -2.3020608343,
				"z": -1.569049628,
				"element": "O" 
			},
			{
				"x": 0.2799669802,
				"y": -0.553158083,
				"z": -0.3206641404,
				"element": "C" 
			},
			{
				"x": 0.0445797518,
				"y": -1.9635209462,
				"z": -0.2461816921,
				"element": "O" 
			},
			{
				"x": -1.2040368353,
				"y": -2.3958979822,
				"z": -0.5693472048,
				"element": "C" 
			},
			{
				"x": -1.2646666397,
				"y": -3.9023398103,
				"z": -0.5387693217,
				"element": "C" 
			},
			{
				"x": -2.1226588167,
				"y": -1.6562510309,
				"z": -0.8430797957,
				"element": "O" 
			},
			{
				"x": 0.0004649712,
				"y": 0.1829517073,
				"z": 1.0043135425,
				"element": "C" 
			},
			{
				"x": -1.3537551071,
				"y": 0.6271322797,
				"z": 1.1926442003,
				"element": "O" 
			},
			{
				"x": -2.0153195136,
				"y": 1.312438655,
				"z": 0.2243337214,
				"element": "C" 
			},
			{
				"x": -3.4850704666,
				"y": 1.379307169,
				"z": 0.5448061761,
				"element": "C" 
			},
			{
				"x": -1.4898699226,
				"y": 1.7812528644,
				"z": -0.7624329108,
				"element": "O" 
			},
			{
				"x": -1.0381969778,
				"y": 2.9681616968,
				"z": 4.6391251293,
				"element": "H" 
			},
			{
				"x": -0.7388165738,
				"y": 4.6618981475,
				"z": 4.2547819855,
				"element": "H" 
			},
			{
				"x": 0.3049238556,
				"y": 3.8351918126,
				"z": 5.4461062815,
				"element": "H" 
			},
			{
				"x": 1.7257842559,
				"y": 3.2914460562,
				"z": 1.1028984806,
				"element": "H" 
			},
			{
				"x": 0.1850497292,
				"y": 2.9815022358,
				"z": 0.2408579637,
				"element": "H" 
			},
			{
				"x": 1.7572655179,
				"y": 1.0231050123,
				"z": 1.9764405559,
				"element": "H" 
			},
			{
				"x": 2.1017331817,
				"y": -0.3493672472,
				"z": -1.5771760219,
				"element": "H" 
			},
			{
				"x": 3.3528305819,
				"y": -3.4356016467,
				"z": 1.336428724,
				"element": "H" 
			},
			{
				"x": 4.712481232,
				"y": -2.3215023321,
				"z": 1.2015280983,
				"element": "H" 
			},
			{
				"x": 4.6122578664,
				"y": -3.7286476234,
				"z": 0.1003690556,
				"element": "H" 
			},
			{
				"x": -0.3003003638,
				"y": -0.118990247,
				"z": -1.1327592514,
				"element": "H" 
			},
			{
				"x": -0.9599160999,
				"y": -4.2716060084,
				"z": 0.4447015197,
				"element": "H" 
			},
			{
				"x": -0.5672271098,
				"y": -4.3160312296,
				"z": -1.2732286992,
				"element": "H" 
			},
			{
				"x": -2.2792481982,
				"y": -4.2291284047,
				"z": -0.7632236737,
				"element": "H" 
			},
			{
				"x": 0.124601614,
				"y": -0.5354253455,
				"z": 1.8168256386,
				"element": "H" 
			},
			{
				"x": -3.955204382,
				"y": 2.1517533698,
				"z": -0.0633875023,
				"element": "H" 
			},
			{
				"x": -3.9274476898,
				"y": 0.4075341771,
				"z": 0.3022010057,
				"element": "H" 
			},
			{
				"x": -3.6470756485,
				"y": 1.570670443,
				"z": 1.607757657,
				"element": "H" 
			}
		],
		 "valence_orbital": [ 
			{
				"type": "occ",
				"energy": -0.28682,
				"method": "rhf"
			},
			{
				"type": "occ",
				"energy": -0.28024,
				"method": "rhf"
			},
			{
				"type": "occ",
				"energy": -0.27637,
				"method": "rhf"
			},
			{
				"type": "occ",
				"energy": -0.27478,
				"method": "rhf"
			},
			{
				"type": "occ",
				"energy": -0.27161,
				"method": "rhf"
			},
			{
				"type": "unocc",
				"energy": -0.00317,
				"method": "rhf"
			},
			{
				"type": "unocc",
				"energy": 0.00364,
				"method": "rhf"
			},
			{
				"type": "unocc",
				"energy": 0.00641,
				"method": "rhf"
			},
			{
				"type": "unocc",
				"energy": 0.00786,
				"method": "rhf"
			},
			{
				"type": "unocc",
				"energy": 0.06254,
				"method": "rhf"
			}
		],
		"cosmo_sigma_profile": { 
			"-0.025": 0.0,
			"-0.024": 0.0,
			"-0.023": 0.0,
			"-0.022": 0.0,
			"-0.021": 0.0,
			"-0.02": 0.0,
			"-0.019": 0.0,
			"-0.018": 0.0,
			"-0.017": 0.0,
			"-0.016": 0.0,
			"-0.015": 0.0,
			"-0.014": 0.0,
			"-0.013": 0.0,
			"-0.012": 0.0,
			"-0.011": 0.0,
			"-0.01": 0.0,
			"-0.009": 0.746069883521,
			"-0.008": 5.14851840717,
			"-0.007": 10.3862830727,
			"-0.006": 25.583199659,
			"-0.005": 30.4333301358,
			"-0.004": 33.2496044104,
			"-0.003": 38.7502743865,
			"-0.002": 37.8279889937,
			"-0.001": 23.9612372886,
			"0.0": 12.2764410397,
			"0.001": 14.3617310419,
			"0.002": 13.8780722262,
			"0.003": 13.6953320249,
			"0.004": 11.8546714536,
			"0.005": 15.0796282096,
			"0.006": 11.8199531939,
			"0.007": 8.52754360337,
			"0.008": 7.36224507757,
			"0.009": 7.23282631515,
			"0.01": 8.80964594158,
			"0.011": 10.7924534386,
			"0.012": 8.0604026082,
			"0.013": 1.15033427138,
			"0.014": 0.0,
			"0.015": 0.0,
			"0.016": 0.0,
			"0.017": 0.0,
			"0.018": 0.0,
			"0.019": 0.0,
			"0.02": 0.0,
			"0.021": 0.0,
			"0.022": 0.0,
			"0.023": 0.0,
			"0.024": 0.0,
			"0.025": 0.0
		}
	}
}
