{
	 "smiles": "OC(=O)C1=CC2=C(CCCCC2)NC1=O", 
	 "Tm": 521.15, 
	 "num_atms": 28, 
	 "gaussian": { 
		 "optdone": 1, 
		 "sigma_profile": "yes", 
		 "theory": "DFT", 
		 "functional": "B3LYP", 
		 "basiset": "6-31G**", 
		 "properties": { 
			 "R2extent": 3997.9643, 
			 "electric_dipole_moment_norm": 9.29540855961, 
			 "electric_quadrupole_moment_norm": 22.3091667608, 
			 "total_energy": -707.47453913, 
			 "HOMO_LUMO_gap": 0.1635, 
			 "cosmo_polarized_energy": -19.75, 
			 "cosmo_cavitation_energy": 29.63, 
			 "cosmo_dispersion_energy": -22.4, 
			 "cosmo_repulsion_energy": 1.74, 
			 "cosmo_total_nonelectrostatic_energy": 8.97, 
			 "SMD_solvation_energy": 5.77 
		},
		"coords": [
			{
				"x": -2.5945797072,
				"y": 1.1996912388,
				"z": -3.9280874027,
				"element": "O" 
			},
			{
				"x": -2.7018530129,
				"y": 0.3947635049,
				"z": -2.8656130923,
				"element": "C" 
			},
			{
				"x": -3.7654600577,
				"y": -0.0607483389,
				"z": -2.4953122258,
				"element": "O" 
			},
			{
				"x": -1.4159894877,
				"y": 0.0850881108,
				"z": -2.1514278996,
				"element": "C" 
			},
			{
				"x": -1.4316464876,
				"y": -0.7313204253,
				"z": -1.0457454144,
				"element": "C" 
			},
			{
				"x": -0.2703583651,
				"y": -1.0809403935,
				"z": -0.3059890708,
				"element": "C" 
			},
			{
				"x": 0.9289531105,
				"y": -0.552130773,
				"z": -0.7428819275,
				"element": "C" 
			},
			{
				"x": 2.2618927522,
				"y": -0.8019108704,
				"z": -0.0854398015,
				"element": "C" 
			},
			{
				"x": 2.3813861688,
				"y": -0.1880331812,
				"z": 1.3279739177,
				"element": "C" 
			},
			{
				"x": 1.1928915739,
				"y": -0.5130089592,
				"z": 2.257818604,
				"element": "C" 
			},
			{
				"x": 0.6189781441,
				"y": -1.9222998532,
				"z": 2.0357102636,
				"element": "C" 
			},
			{
				"x": -0.4236025748,
				"y": -2.0094618739,
				"z": 0.8914044754,
				"element": "C" 
			},
			{
				"x": 0.9335114434,
				"y": 0.2699223472,
				"z": -1.8390610445,
				"element": "N" 
			},
			{
				"x": -0.1661414931,
				"y": 0.6432779592,
				"z": -2.6063912155,
				"element": "C" 
			},
			{
				"x": -0.0021010645,
				"y": 1.3991081546,
				"z": -3.5840571249,
				"element": "O" 
			},
			{
				"x": -1.6397421754,
				"y": 1.4503392431,
				"z": -4.0430722909,
				"element": "H" 
			},
			{
				"x": -2.4018920134,
				"y": -1.1173790941,
				"z": -0.7417269223,
				"element": "H" 
			},
			{
				"x": 3.067740108,
				"y": -0.4168941845,
				"z": -0.7204031003,
				"element": "H" 
			},
			{
				"x": 2.4179827551,
				"y": -1.884211936,
				"z": -0.0263480507,
				"element": "H" 
			},
			{
				"x": 2.5002532032,
				"y": 0.8985368895,
				"z": 1.2473097482,
				"element": "H" 
			},
			{
				"x": 3.3104229342,
				"y": -0.5703043333,
				"z": 1.7674921157,
				"element": "H" 
			},
			{
				"x": 0.3950854672,
				"y": 0.2254145588,
				"z": 2.114893167,
				"element": "H" 
			},
			{
				"x": 1.5247233791,
				"y": -0.4018880468,
				"z": 3.2958137347,
				"element": "H" 
			},
			{
				"x": 0.1268423047,
				"y": -2.2676894461,
				"z": 2.9510127755,
				"element": "H" 
			},
			{
				"x": 1.4396072499,
				"y": -2.6292727914,
				"z": 1.8635261924,
				"element": "H" 
			},
			{
				"x": -1.4104660081,
				"y": -1.7948205145,
				"z": 1.3177512324,
				"element": "H" 
			},
			{
				"x": -0.4836782551,
				"y": -3.0486163681,
				"z": 0.5388283059,
				"element": "H" 
			},
			{
				"x": 1.8107401083,
				"y": 0.6634893763,
				"z": -2.1608779489,
				"element": "H" 
			}
		],
		 "valence_orbital": [ 
			{
				"type": "occ",
				"energy": -0.31283,
				"method": "rhf"
			},
			{
				"type": "occ",
				"energy": -0.28444,
				"method": "rhf"
			},
			{
				"type": "occ",
				"energy": -0.2774,
				"method": "rhf"
			},
			{
				"type": "occ",
				"energy": -0.25434,
				"method": "rhf"
			},
			{
				"type": "occ",
				"energy": -0.23146,
				"method": "rhf"
			},
			{
				"type": "unocc",
				"energy": -0.06796,
				"method": "rhf"
			},
			{
				"type": "unocc",
				"energy": -0.01138,
				"method": "rhf"
			},
			{
				"type": "unocc",
				"energy": 0.0416,
				"method": "rhf"
			},
			{
				"type": "unocc",
				"energy": 0.05179,
				"method": "rhf"
			},
			{
				"type": "unocc",
				"energy": 0.0711,
				"method": "rhf"
			}
		],
		"cosmo_sigma_profile": { 
			"-0.025": 0.0,
			"-0.024": 0.0,
			"-0.023": 0.0,
			"-0.022": 0.0,
			"-0.021": 0.0,
			"-0.02": 0.0,
			"-0.019": 0.0,
			"-0.018": 0.0,
			"-0.017": 0.114453488592,
			"-0.016": 1.04162508402,
			"-0.015": 1.07362896231,
			"-0.014": 1.29939493841,
			"-0.013": 1.00078422619,
			"-0.012": 1.57757993992,
			"-0.011": 0.997603380607,
			"-0.01": 0.836371009406,
			"-0.009": 1.49837390393,
			"-0.008": 1.39861717852,
			"-0.007": 2.07549192359,
			"-0.006": 5.19244861842,
			"-0.005": 9.67092543512,
			"-0.004": 17.5904518792,
			"-0.003": 31.363620418,
			"-0.002": 39.2102938577,
			"-0.001": 28.8073548719,
			"0.0": 21.8415437219,
			"0.001": 11.8122881217,
			"0.002": 3.09025327502,
			"0.003": 3.16027873865,
			"0.004": 3.69238409393,
			"0.005": 2.80692134913,
			"0.006": 3.36959460044,
			"0.007": 3.33868966826,
			"0.008": 3.38813287007,
			"0.009": 4.31163190181,
			"0.01": 4.14624021105,
			"0.011": 6.43030979237,
			"0.012": 8.29571648347,
			"0.013": 6.55246849062,
			"0.014": 2.00107814835,
			"0.015": 0.0895606733771,
			"0.016": 0.0,
			"0.017": 0.0,
			"0.018": 0.0,
			"0.019": 0.0,
			"0.02": 0.0,
			"0.021": 0.0,
			"0.022": 0.0,
			"0.023": 0.0,
			"0.024": 0.0,
			"0.025": 0.0
		}
	}
}
