{
	 "smiles": "OC(=O)CCNC1=CC=CC=C1", 
	 "Tm": 331.15, 
	 "num_atms": 23, 
	 "gaussian": { 
		 "optdone": 1, 
		 "sigma_profile": "yes", 
		 "theory": "DFT", 
		 "functional": "B3LYP", 
		 "basiset": "6-31G**", 
		 "properties": { 
			 "R2extent": 2388.8182, 
			 "electric_dipole_moment_norm": 4.74296431675, 
			 "electric_quadrupole_moment_norm": 19.7007475109, 
			 "total_energy": -554.787066077, 
			 "HOMO_LUMO_gap": 0.19489, 
			 "cosmo_polarized_energy": -21.0, 
			 "cosmo_cavitation_energy": 26.53, 
			 "cosmo_dispersion_energy": -18.91, 
			 "cosmo_repulsion_energy": 1.52, 
			 "cosmo_total_nonelectrostatic_energy": 9.14, 
			 "SMD_solvation_energy": 4.71 
		},
		"coords": [
			{
				"x": 2.5623252412,
				"y": 0.4324103515,
				"z": 1.7622484603,
				"element": "O" 
			},
			{
				"x": 1.9971418771,
				"y": -0.803356252,
				"z": 1.6017832532,
				"element": "C" 
			},
			{
				"x": 1.4677255364,
				"y": -1.3470865671,
				"z": 2.5352125143,
				"element": "O" 
			},
			{
				"x": 2.1141319601,
				"y": -1.3955008444,
				"z": 0.204616556,
				"element": "C" 
			},
			{
				"x": 1.3128580889,
				"y": -0.6646760321,
				"z": -0.9091850774,
				"element": "C" 
			},
			{
				"x": -0.1210916298,
				"y": -0.8068755909,
				"z": -0.8666704149,
				"element": "N" 
			},
			{
				"x": -1.0090912583,
				"y": -0.0259440618,
				"z": -0.1271060186,
				"element": "C" 
			},
			{
				"x": -0.6266453106,
				"y": 1.1443970324,
				"z": 0.5513196774,
				"element": "C" 
			},
			{
				"x": -1.5799445353,
				"y": 1.9112912351,
				"z": 1.2225712629,
				"element": "C" 
			},
			{
				"x": -2.9232372163,
				"y": 1.5397238005,
				"z": 1.2420812269,
				"element": "C" 
			},
			{
				"x": -3.3058719438,
				"y": 0.3716490689,
				"z": 0.5765394054,
				"element": "C" 
			},
			{
				"x": -2.3676950255,
				"y": -0.4000451277,
				"z": -0.0991660558,
				"element": "C" 
			},
			{
				"x": 2.9923251509,
				"y": 0.7164384852,
				"z": 0.9435142937,
				"element": "H" 
			},
			{
				"x": 1.7879890716,
				"y": -2.4359831378,
				"z": 0.2671329402,
				"element": "H" 
			},
			{
				"x": 3.1747968142,
				"y": -1.3975749322,
				"z": -0.0843922346,
				"element": "H" 
			},
			{
				"x": 1.5624734343,
				"y": 0.4024020072,
				"z": -0.9281047059,
				"element": "H" 
			},
			{
				"x": 1.6585303847,
				"y": -1.0670837024,
				"z": -1.8684740111,
				"element": "H" 
			},
			{
				"x": -0.4710201331,
				"y": -1.7179406264,
				"z": -1.1236938759,
				"element": "H" 
			},
			{
				"x": 0.4123801601,
				"y": 1.4492293926,
				"z": 0.5910444114,
				"element": "H" 
			},
			{
				"x": -1.2561435695,
				"y": 2.8068090433,
				"z": 1.7458294036,
				"element": "H" 
			},
			{
				"x": -3.656152352,
				"y": 2.140380674,
				"z": 1.7710981978,
				"element": "H" 
			},
			{
				"x": -4.3458372007,
				"y": 0.0565319276,
				"z": 0.5816528394,
				"element": "H" 
			},
			{
				"x": -2.6807475447,
				"y": -1.3019961437,
				"z": -0.6208520481,
				"element": "H" 
			}
		],
		 "valence_orbital": [ 
			{
				"type": "occ",
				"energy": -0.31582,
				"method": "rhf"
			},
			{
				"type": "occ",
				"energy": -0.29544,
				"method": "rhf"
			},
			{
				"type": "occ",
				"energy": -0.2692,
				"method": "rhf"
			},
			{
				"type": "occ",
				"energy": -0.24061,
				"method": "rhf"
			},
			{
				"type": "occ",
				"energy": -0.1937,
				"method": "rhf"
			},
			{
				"type": "unocc",
				"energy": 0.00119,
				"method": "rhf"
			},
			{
				"type": "unocc",
				"energy": 0.01003,
				"method": "rhf"
			},
			{
				"type": "unocc",
				"energy": 0.02305,
				"method": "rhf"
			},
			{
				"type": "unocc",
				"energy": 0.0421,
				"method": "rhf"
			},
			{
				"type": "unocc",
				"energy": 0.07828,
				"method": "rhf"
			}
		],
		"cosmo_sigma_profile": { 
			"-0.025": 0.0,
			"-0.024": 0.0,
			"-0.023": 0.0,
			"-0.022": 0.0,
			"-0.021": 0.0,
			"-0.02": 0.0,
			"-0.019": 0.190791740081,
			"-0.018": 1.15324498829,
			"-0.017": 1.2485783387,
			"-0.016": 1.32575150095,
			"-0.015": 1.31733452641,
			"-0.014": 0.757152253932,
			"-0.013": 2.14697454015,
			"-0.012": 2.90851286393,
			"-0.011": 2.32927646947,
			"-0.01": 2.9580884475,
			"-0.009": 3.57832060033,
			"-0.008": 3.95205812915,
			"-0.007": 5.00262931684,
			"-0.006": 9.91293349826,
			"-0.005": 15.2361700409,
			"-0.004": 14.7719301001,
			"-0.003": 16.3410304299,
			"-0.002": 12.6363098092,
			"-0.001": 9.04824672395,
			"0.0": 7.73924606623,
			"0.001": 6.13045249619,
			"0.002": 7.61630270655,
			"0.003": 8.63696582007,
			"0.004": 8.8102228677,
			"0.005": 11.830669037,
			"0.006": 12.2158398155,
			"0.007": 11.4119541426,
			"0.008": 6.02361198624,
			"0.009": 3.87479912662,
			"0.01": 4.38365039415,
			"0.011": 5.79049968964,
			"0.012": 5.58918713827,
			"0.013": 2.6812880395,
			"0.014": 0.112431499788,
			"0.015": 0.0,
			"0.016": 0.0,
			"0.017": 0.0,
			"0.018": 0.0,
			"0.019": 0.0,
			"0.02": 0.0,
			"0.021": 0.0,
			"0.022": 0.0,
			"0.023": 0.0,
			"0.024": 0.0,
			"0.025": 0.0
		}
	}
}
