{
	 "smiles": "CC(=O)NC1=CC=C(C=C1)S(=O)(=O)NCCO", 
	 "Tm": 399.15, 
	 "num_atms": 31, 
	 "gaussian": { 
		 "optdone": 1, 
		 "sigma_profile": "yes", 
		 "theory": "DFT", 
		 "functional": "B3LYP", 
		 "basiset": "6-31G**", 
		 "properties": { 
			 "R2extent": 7559.1933, 
			 "electric_dipole_moment_norm": 6.85572020214, 
			 "electric_quadrupole_moment_norm": 27.03594416, 
			 "total_energy": -1198.02989319, 
			 "HOMO_LUMO_gap": 0.19678, 
			 "cosmo_polarized_energy": -26.41, 
			 "cosmo_cavitation_energy": 36.69, 
			 "cosmo_dispersion_energy": -26.75, 
			 "cosmo_repulsion_energy": 2.08, 
			 "cosmo_total_nonelectrostatic_energy": 12.02, 
			 "SMD_solvation_energy": 5.78 
		},
		"coords": [
			{
				"x": 5.2692067253,
				"y": 0.6275971801,
				"z": 4.1810985771,
				"element": "C" 
			},
			{
				"x": 4.4251428025,
				"y": -0.1835615245,
				"z": 3.209082209,
				"element": "C" 
			},
			{
				"x": 4.6787992194,
				"y": -1.3506593797,
				"z": 2.9560799825,
				"element": "O" 
			},
			{
				"x": 3.3544658592,
				"y": 0.5084941556,
				"z": 2.6712898531,
				"element": "N" 
			},
			{
				"x": 2.3707011058,
				"y": 0.0570095674,
				"z": 1.7741816966,
				"element": "C" 
			},
			{
				"x": 2.3617204044,
				"y": -1.242122188,
				"z": 1.2324403264,
				"element": "C" 
			},
			{
				"x": 1.3544202184,
				"y": -1.6063372267,
				"z": 0.3457171284,
				"element": "C" 
			},
			{
				"x": 0.3539152038,
				"y": -0.6943239368,
				"z": -0.0001296189,
				"element": "C" 
			},
			{
				"x": 0.3569087679,
				"y": 0.5968712505,
				"z": 0.5279398869,
				"element": "C" 
			},
			{
				"x": 1.36318598,
				"y": 0.9673666321,
				"z": 1.4128376846,
				"element": "C" 
			},
			{
				"x": -0.9116289205,
				"y": -1.1607032363,
				"z": -1.1752257046,
				"element": "S" 
			},
			{
				"x": -0.2916836036,
				"y": -1.8313077571,
				"z": -2.3221874007,
				"element": "O" 
			},
			{
				"x": -1.7765764216,
				"y": 0.0132475433,
				"z": -1.3628573629,
				"element": "O" 
			},
			{
				"x": -1.7239235042,
				"y": -2.3885191724,
				"z": -0.3479087798,
				"element": "N" 
			},
			{
				"x": -2.8022392926,
				"y": -1.9960607594,
				"z": 0.5697398945,
				"element": "C" 
			},
			{
				"x": -3.4322727875,
				"y": -3.2600642234,
				"z": 1.1336733821,
				"element": "C" 
			},
			{
				"x": -3.9481724428,
				"y": -3.9951645016,
				"z": 0.0284885257,
				"element": "O" 
			},
			{
				"x": 5.0839912883,
				"y": 1.7047222427,
				"z": 4.1430788956,
				"element": "H" 
			},
			{
				"x": 5.0737936416,
				"y": 0.2748210045,
				"z": 5.1987930277,
				"element": "H" 
			},
			{
				"x": 6.3222161285,
				"y": 0.4365830132,
				"z": 3.9648236632,
				"element": "H" 
			},
			{
				"x": 3.2549651659,
				"y": 1.4698748219,
				"z": 2.9633338907,
				"element": "H" 
			},
			{
				"x": 3.1402680911,
				"y": -1.9374890058,
				"z": 1.510474069,
				"element": "H" 
			},
			{
				"x": 1.3473019468,
				"y": -2.6033645437,
				"z": -0.0815443524,
				"element": "H" 
			},
			{
				"x": -0.4192028115,
				"y": 1.2959538263,
				"z": 0.2374978581,
				"element": "H" 
			},
			{
				"x": 1.3703727031,
				"y": 1.9732849817,
				"z": 1.8261500491,
				"element": "H" 
			},
			{
				"x": -2.053225292,
				"y": -3.0655148745,
				"z": -1.0357823312,
				"element": "H" 
			},
			{
				"x": -2.3760506823,
				"y": -1.4070687795,
				"z": 1.3886539946,
				"element": "H" 
			},
			{
				"x": -3.5665690269,
				"y": -1.3869632059,
				"z": 0.0716389359,
				"element": "H" 
			},
			{
				"x": -2.6713968857,
				"y": -3.8369120627,
				"z": 1.6787453177,
				"element": "H" 
			},
			{
				"x": -4.2280645426,
				"y": -2.9804681774,
				"z": 1.840714607,
				"element": "H" 
			},
			{
				"x": -4.184769038,
				"y": -4.8807216639,
				"z": 0.3284620952,
				"element": "H" 
			}
		],
		 "valence_orbital": [ 
			{
				"type": "occ",
				"energy": -0.28468,
				"method": "rhf"
			},
			{
				"type": "occ",
				"energy": -0.26981,
				"method": "rhf"
			},
			{
				"type": "occ",
				"energy": -0.26566,
				"method": "rhf"
			},
			{
				"type": "occ",
				"energy": -0.26489,
				"method": "rhf"
			},
			{
				"type": "occ",
				"energy": -0.23614,
				"method": "rhf"
			},
			{
				"type": "unocc",
				"energy": -0.03936,
				"method": "rhf"
			},
			{
				"type": "unocc",
				"energy": -0.01741,
				"method": "rhf"
			},
			{
				"type": "unocc",
				"energy": 0.02245,
				"method": "rhf"
			},
			{
				"type": "unocc",
				"energy": 0.05147,
				"method": "rhf"
			},
			{
				"type": "unocc",
				"energy": 0.05822,
				"method": "rhf"
			}
		],
		"cosmo_sigma_profile": { 
			"-0.025": 0.0,
			"-0.024": 0.0,
			"-0.023": 0.0,
			"-0.022": 0.0,
			"-0.021": 0.0,
			"-0.02": 0.0,
			"-0.019": 0.0,
			"-0.018": 0.0,
			"-0.017": 0.119330501379,
			"-0.016": 1.41379449147,
			"-0.015": 2.64328769573,
			"-0.014": 2.25687866344,
			"-0.013": 2.76890973471,
			"-0.012": 2.93958944773,
			"-0.011": 2.58613908555,
			"-0.01": 2.6916897215,
			"-0.009": 3.13431811103,
			"-0.008": 4.65210306868,
			"-0.007": 7.71638249582,
			"-0.006": 12.597078736,
			"-0.005": 21.3887826175,
			"-0.004": 25.148443756,
			"-0.003": 22.6749573824,
			"-0.002": 19.2702881834,
			"-0.001": 16.7564977365,
			"0.0": 13.2904921713,
			"0.001": 16.2626913098,
			"0.002": 19.5400180647,
			"0.003": 17.3004689501,
			"0.004": 8.25546978585,
			"0.005": 5.76231391619,
			"0.006": 5.58278461465,
			"0.007": 6.02592134009,
			"0.008": 6.41396567396,
			"0.009": 6.39814579749,
			"0.01": 8.18690489096,
			"0.011": 12.7325878566,
			"0.012": 9.01044176551,
			"0.013": 3.43940439364,
			"0.014": 1.33403414927,
			"0.015": 0.0,
			"0.016": 0.0,
			"0.017": 0.0,
			"0.018": 0.0,
			"0.019": 0.0,
			"0.02": 0.0,
			"0.021": 0.0,
			"0.022": 0.0,
			"0.023": 0.0,
			"0.024": 0.0,
			"0.025": 0.0
		}
	}
}
