{
	 "smiles": "CSC1=CC(C(O)=O)=C(C)C=C1", 
	 "Tm": 402.15, 
	 "num_atms": 22, 
	 "gaussian": { 
		 "optdone": 1, 
		 "sigma_profile": "yes", 
		 "theory": "DFT", 
		 "functional": "B3LYP", 
		 "basiset": "6-31G**", 
		 "properties": { 
			 "R2extent": 2783.9098, 
			 "electric_dipole_moment_norm": 3.30846023703, 
			 "electric_quadrupole_moment_norm": 19.5849636147, 
			 "total_energy": -897.632368551, 
			 "HOMO_LUMO_gap": 0.16942, 
			 "cosmo_polarized_energy": -14.24, 
			 "cosmo_cavitation_energy": 27.07, 
			 "cosmo_dispersion_energy": -20.26, 
			 "cosmo_repulsion_energy": 1.56, 
			 "cosmo_total_nonelectrostatic_energy": 8.36, 
			 "SMD_solvation_energy": 5.65 
		},
		"coords": [
			{
				"x": -1.1400437361,
				"y": 0.0615314866,
				"z": 3.647979807,
				"element": "C" 
			},
			{
				"x": 0.2018726371,
				"y": 1.1521786074,
				"z": 3.074882348,
				"element": "S" 
			},
			{
				"x": 0.4883897634,
				"y": 0.6106520417,
				"z": 1.4035330762,
				"element": "C" 
			},
			{
				"x": -0.2390962591,
				"y": -0.3890182084,
				"z": 0.7594869268,
				"element": "C" 
			},
			{
				"x": 0.0338623202,
				"y": -0.7513140717,
				"z": -0.5700014954,
				"element": "C" 
			},
			{
				"x": -0.8531357525,
				"y": -1.8447450806,
				"z": -1.1047506789,
				"element": "C" 
			},
			{
				"x": -1.0980622027,
				"y": -1.8634154526,
				"z": -2.4419906909,
				"element": "O" 
			},
			{
				"x": -1.3678272003,
				"y": -2.6791717041,
				"z": -0.3970397447,
				"element": "O" 
			},
			{
				"x": 1.0863152722,
				"y": -0.1350889621,
				"z": -1.2792533216,
				"element": "C" 
			},
			{
				"x": 1.5001448552,
				"y": -0.501291996,
				"z": -2.6914346474,
				"element": "C" 
			},
			{
				"x": 1.8156187002,
				"y": 0.8585110326,
				"z": -0.6073012041,
				"element": "C" 
			},
			{
				"x": 1.5269886484,
				"y": 1.2387923235,
				"z": 0.6963792408,
				"element": "C" 
			},
			{
				"x": -0.8389159143,
				"y": -0.988073985,
				"z": 3.6260022858,
				"element": "H" 
			},
			{
				"x": -2.0518947513,
				"y": 0.2054271562,
				"z": 3.0641514481,
				"element": "H" 
			},
			{
				"x": -1.3319314661,
				"y": 0.3546389048,
				"z": 4.6821068899,
				"element": "H" 
			},
			{
				"x": -1.0343969208,
				"y": -0.9265397968,
				"z": 1.2598973904,
				"element": "H" 
			},
			{
				"x": -0.7323265499,
				"y": -1.074279921,
				"z": -2.8628186291,
				"element": "H" 
			},
			{
				"x": 1.4348275664,
				"y": -1.5747920469,
				"z": -2.8860147147,
				"element": "H" 
			},
			{
				"x": 2.5336477881,
				"y": -0.193913295,
				"z": -2.8702198763,
				"element": "H" 
			},
			{
				"x": 0.8982148907,
				"y": 0.0157324257,
				"z": -3.4544342139,
				"element": "H" 
			},
			{
				"x": 2.6423957566,
				"y": 1.3398092596,
				"z": -1.1233177925,
				"element": "H" 
			},
			{
				"x": 2.1181525546,
				"y": 2.014971282,
				"z": 1.1743575967,
				"element": "H" 
			}
		],
		 "valence_orbital": [ 
			{
				"type": "occ",
				"energy": -0.31588,
				"method": "rhf"
			},
			{
				"type": "occ",
				"energy": -0.29233,
				"method": "rhf"
			},
			{
				"type": "occ",
				"energy": -0.27779,
				"method": "rhf"
			},
			{
				"type": "occ",
				"energy": -0.26132,
				"method": "rhf"
			},
			{
				"type": "occ",
				"energy": -0.21742,
				"method": "rhf"
			},
			{
				"type": "unocc",
				"energy": -0.048,
				"method": "rhf"
			},
			{
				"type": "unocc",
				"energy": -0.01469,
				"method": "rhf"
			},
			{
				"type": "unocc",
				"energy": 0.02933,
				"method": "rhf"
			},
			{
				"type": "unocc",
				"energy": 0.0421,
				"method": "rhf"
			},
			{
				"type": "unocc",
				"energy": 0.06431,
				"method": "rhf"
			}
		],
		"cosmo_sigma_profile": { 
			"-0.025": 0.0,
			"-0.024": 0.0,
			"-0.023": 0.0,
			"-0.022": 0.0,
			"-0.021": 0.0,
			"-0.02": 0.0,
			"-0.019": 0.0,
			"-0.018": 0.0,
			"-0.017": 0.470646666676,
			"-0.016": 0.928728936994,
			"-0.015": 0.848695317197,
			"-0.014": 1.17034916465,
			"-0.013": 0.716497042413,
			"-0.012": 0.932774798742,
			"-0.011": 1.30114605556,
			"-0.01": 0.60935342395,
			"-0.009": 0.843577964072,
			"-0.008": 1.34221380425,
			"-0.007": 5.57255094787,
			"-0.006": 16.1733083634,
			"-0.005": 19.4549387553,
			"-0.004": 16.1010081625,
			"-0.003": 15.8730003426,
			"-0.002": 17.9947915177,
			"-0.001": 15.7120304834,
			"0.0": 10.0709073538,
			"0.001": 7.99914911329,
			"0.002": 10.2538379669,
			"0.003": 15.3461338736,
			"0.004": 14.8468170645,
			"0.005": 5.41438925721,
			"0.006": 6.22554807361,
			"0.007": 4.43311480499,
			"0.008": 5.20649643708,
			"0.009": 4.48931806128,
			"0.01": 4.84655461795,
			"0.011": 5.07045101243,
			"0.012": 5.21698483017,
			"0.013": 1.6989784914,
			"0.014": 0.0693893334871,
			"0.015": 0.0,
			"0.016": 0.0,
			"0.017": 0.0,
			"0.018": 0.0,
			"0.019": 0.0,
			"0.02": 0.0,
			"0.021": 0.0,
			"0.022": 0.0,
			"0.023": 0.0,
			"0.024": 0.0,
			"0.025": 0.0
		}
	}
}
