{
	 "smiles": "CON(C)C(=O)C=P(C1=CC=CC=C1)(C1=CC=CC=C1)C1=CC=CC=C1", 
	 "Tm": 456.15, 
	 "num_atms": 48, 
	 "gaussian": { 
		 "optdone": 1, 
		 "sigma_profile": "yes", 
		 "theory": "DFT", 
		 "functional": "B3LYP", 
		 "basiset": "6-31G**", 
		 "properties": { 
			 "R2extent": 10025.6179, 
			 "electric_dipole_moment_norm": 5.09921219307, 
			 "electric_quadrupole_moment_norm": 9.29435200377, 
			 "total_energy": -1398.0612273, 
			 "HOMO_LUMO_gap": 0.14693, 
			 "cosmo_polarized_energy": -19.29, 
			 "cosmo_cavitation_energy": 51.64, 
			 "cosmo_dispersion_energy": -33.93, 
			 "cosmo_repulsion_energy": 2.6, 
			 "cosmo_total_nonelectrostatic_energy": 20.31, 
			 "SMD_solvation_energy": 10.62 
		},
		"coords": [
			{
				"x": 3.3956370125,
				"y": -2.2321203343,
				"z": -2.81121149,
				"element": "C" 
			},
			{
				"x": 3.5806189155,
				"y": -0.8537396681,
				"z": -2.5050316801,
				"element": "O" 
			},
			{
				"x": 2.3408744874,
				"y": -0.1661941932,
				"z": -2.6029790584,
				"element": "N" 
			},
			{
				"x": 2.5299356866,
				"y": 0.9939833248,
				"z": -3.4586109965,
				"element": "C" 
			},
			{
				"x": 1.6838034286,
				"y": -0.067636355,
				"z": -1.3495373237,
				"element": "C" 
			},
			{
				"x": 1.8924491984,
				"y": -0.9491605169,
				"z": -0.4913714459,
				"element": "O" 
			},
			{
				"x": 0.7590982434,
				"y": 1.0016415196,
				"z": -1.1588852542,
				"element": "C" 
			},
			{
				"x": -0.1095960135,
				"y": 1.0635072067,
				"z": 0.3250996421,
				"element": "P" 
			},
			{
				"x": 0.9343838894,
				"y": 1.1551849997,
				"z": 1.8314775505,
				"element": "C" 
			},
			{
				"x": 2.2550038616,
				"y": 1.605287597,
				"z": 1.7061798931,
				"element": "C" 
			},
			{
				"x": 3.0633507737,
				"y": 1.7259987497,
				"z": 2.835891058,
				"element": "C" 
			},
			{
				"x": 2.5593579001,
				"y": 1.3985071963,
				"z": 4.0964843019,
				"element": "C" 
			},
			{
				"x": 1.2455489139,
				"y": 0.9436480563,
				"z": 4.2264417184,
				"element": "C" 
			},
			{
				"x": 0.4351051591,
				"y": 0.8160689793,
				"z": 3.0974954343,
				"element": "C" 
			},
			{
				"x": -1.0832435538,
				"y": 2.6134402632,
				"z": 0.2522710089,
				"element": "C" 
			},
			{
				"x": -1.8786114179,
				"y": 2.8606778705,
				"z": -0.8802453841,
				"element": "C" 
			},
			{
				"x": -2.6198928323,
				"y": 4.0373181393,
				"z": -0.9763921589,
				"element": "C" 
			},
			{
				"x": -2.5797593515,
				"y": 4.9779263381,
				"z": 0.0560161081,
				"element": "C" 
			},
			{
				"x": -1.7956106713,
				"y": 4.7373783482,
				"z": 1.1842552978,
				"element": "C" 
			},
			{
				"x": -1.0501853292,
				"y": 3.5604583817,
				"z": 1.284573467,
				"element": "C" 
			},
			{
				"x": -1.324022235,
				"y": -0.2775324234,
				"z": 0.6709472741,
				"element": "C" 
			},
			{
				"x": -0.9288707525,
				"y": -1.6215101174,
				"z": 0.5383500397,
				"element": "C" 
			},
			{
				"x": -1.8476959575,
				"y": -2.641253386,
				"z": 0.7841510488,
				"element": "C" 
			},
			{
				"x": -3.1571941685,
				"y": -2.3409178764,
				"z": 1.1672595264,
				"element": "C" 
			},
			{
				"x": -3.5521031826,
				"y": -1.0099597971,
				"z": 1.3027942652,
				"element": "C" 
			},
			{
				"x": -2.6415999652,
				"y": 0.0193870531,
				"z": 1.0543763162,
				"element": "C" 
			},
			{
				"x": 2.7616625099,
				"y": -2.7118858037,
				"z": -2.060781384,
				"element": "H" 
			},
			{
				"x": 2.9620592826,
				"y": -2.3659034321,
				"z": -3.8112385403,
				"element": "H" 
			},
			{
				"x": 4.3981698074,
				"y": -2.669758694,
				"z": -2.7856834779,
				"element": "H" 
			},
			{
				"x": 1.5566652021,
				"y": 1.4180115947,
				"z": -3.7137967202,
				"element": "H" 
			},
			{
				"x": 3.1547715077,
				"y": 1.7738768295,
				"z": -2.9989069845,
				"element": "H" 
			},
			{
				"x": 3.0083417442,
				"y": 0.6589003886,
				"z": -4.3808693998,
				"element": "H" 
			},
			{
				"x": 0.6076199078,
				"y": 1.8223342761,
				"z": -1.8439023118,
				"element": "H" 
			},
			{
				"x": 2.64154688,
				"y": 1.8413862858,
				"z": 0.7199707156,
				"element": "H" 
			},
			{
				"x": 4.0893706668,
				"y": 2.0661271044,
				"z": 2.7304089066,
				"element": "H" 
			},
			{
				"x": 3.1915471732,
				"y": 1.4897135041,
				"z": 4.9752425775,
				"element": "H" 
			},
			{
				"x": 0.8537078935,
				"y": 0.6788046745,
				"z": 5.2042932671,
				"element": "H" 
			},
			{
				"x": -0.5795257271,
				"y": 0.4442141741,
				"z": 3.2020171573,
				"element": "H" 
			},
			{
				"x": -1.912855073,
				"y": 2.1326294948,
				"z": -1.6848269589,
				"element": "H" 
			},
			{
				"x": -3.2293460577,
				"y": 4.2190681551,
				"z": -1.8568163568,
				"element": "H" 
			},
			{
				"x": -3.1580096418,
				"y": 5.8942606967,
				"z": -0.0201622926,
				"element": "H" 
			},
			{
				"x": -1.7588083585,
				"y": 5.4661990969,
				"z": 1.9886389906,
				"element": "H" 
			},
			{
				"x": -0.4392434086,
				"y": 3.3841196039,
				"z": 2.1632769652,
				"element": "H" 
			},
			{
				"x": 0.0909690481,
				"y": -1.8432620672,
				"z": 0.2391971276,
				"element": "H" 
			},
			{
				"x": -1.5367367358,
				"y": -3.6765350637,
				"z": 0.6764274247,
				"element": "H" 
			},
			{
				"x": -3.8667582447,
				"y": -3.1411373943,
				"z": 1.3586522824,
				"element": "H" 
			},
			{
				"x": -4.5688170984,
				"y": -0.7682266408,
				"z": 1.5995577278,
				"element": "H" 
			},
			{
				"x": -2.9635133172,
				"y": 1.0502738611,
				"z": 1.1575021257,
				"element": "H" 
			}
		],
		 "valence_orbital": [ 
			{
				"type": "occ",
				"energy": -0.2502,
				"method": "rhf"
			},
			{
				"type": "occ",
				"energy": -0.24837,
				"method": "rhf"
			},
			{
				"type": "occ",
				"energy": -0.22102,
				"method": "rhf"
			},
			{
				"type": "occ",
				"energy": -0.20697,
				"method": "rhf"
			},
			{
				"type": "occ",
				"energy": -0.1805,
				"method": "rhf"
			},
			{
				"type": "unocc",
				"energy": -0.03357,
				"method": "rhf"
			},
			{
				"type": "unocc",
				"energy": -0.02604,
				"method": "rhf"
			},
			{
				"type": "unocc",
				"energy": -0.02189,
				"method": "rhf"
			},
			{
				"type": "unocc",
				"energy": -0.01862,
				"method": "rhf"
			},
			{
				"type": "unocc",
				"energy": -0.00466,
				"method": "rhf"
			}
		],
		"cosmo_sigma_profile": { 
			"-0.025": 0.0,
			"-0.024": 0.0,
			"-0.023": 0.0,
			"-0.022": 0.0,
			"-0.021": 0.0,
			"-0.02": 0.0,
			"-0.019": 0.0,
			"-0.018": 0.0,
			"-0.017": 0.0,
			"-0.016": 0.0,
			"-0.015": 0.0,
			"-0.014": 0.0,
			"-0.013": 0.0,
			"-0.012": 0.0,
			"-0.011": 0.0,
			"-0.01": 0.0,
			"-0.009": 0.0,
			"-0.008": 0.0,
			"-0.007": 3.62564272477,
			"-0.006": 24.8868196553,
			"-0.005": 35.0732184148,
			"-0.004": 40.1411285168,
			"-0.003": 35.4776852681,
			"-0.002": 40.4606536025,
			"-0.001": 34.1284751595,
			"0.0": 29.4520899146,
			"0.001": 27.0614338656,
			"0.002": 28.9288188509,
			"0.003": 29.3287633561,
			"0.004": 31.253572328,
			"0.005": 14.3462970886,
			"0.006": 6.35680470138,
			"0.007": 5.9140830739,
			"0.008": 5.2980204847,
			"0.009": 2.8830629503,
			"0.01": 2.82816328374,
			"0.011": 2.73698931463,
			"0.012": 2.77850693849,
			"0.013": 2.26423526128,
			"0.014": 1.91491164636,
			"0.015": 1.65208274356,
			"0.016": 1.98137281388,
			"0.017": 0.767684839311,
			"0.018": 0.0146892719105,
			"0.019": 0.0,
			"0.02": 0.0,
			"0.021": 0.0,
			"0.022": 0.0,
			"0.023": 0.0,
			"0.024": 0.0,
			"0.025": 0.0
		}
	}
}
