{
	 "smiles": "CN1C(=O)C(C2=NNC(=O)C2=C/NC2=CC=C(C)C=C2)=C(O)C2=CC=CC=C12", 
	 "Tm": 555.15, 
	 "num_atms": 46, 
	 "gaussian": { 
		 "optdone": 1, 
		 "sigma_profile": "yes", 
		 "theory": "DFT", 
		 "functional": "B3LYP", 
		 "basiset": "6-31G**", 
		 "properties": { 
			 "R2extent": 14670.4497, 
			 "electric_dipole_moment_norm": 6.45710221229, 
			 "electric_quadrupole_moment_norm": 26.6257685686, 
			 "total_energy": -1255.77854474, 
			 "HOMO_LUMO_gap": 0.1245, 
			 "cosmo_polarized_energy": -26.73, 
			 "cosmo_cavitation_energy": 49.73, 
			 "cosmo_dispersion_energy": -35.91, 
			 "cosmo_repulsion_energy": 2.64, 
			 "cosmo_total_nonelectrostatic_energy": 16.46, 
			 "SMD_solvation_energy": 8.45 
		},
		"coords": [
			{
				"x": -0.3885919922,
				"y": -0.2759898856,
				"z": 3.1926681056,
				"element": "C" 
			},
			{
				"x": -0.4653551343,
				"y": -1.3387636513,
				"z": 2.1901728106,
				"element": "N" 
			},
			{
				"x": 0.2242025928,
				"y": -1.1225909464,
				"z": 0.9780259083,
				"element": "C" 
			},
			{
				"x": 0.8259791493,
				"y": -0.0586920263,
				"z": 0.8044540953,
				"element": "O" 
			},
			{
				"x": 0.1564548702,
				"y": -2.1789225333,
				"z": -0.03165221,
				"element": "C" 
			},
			{
				"x": 0.8951031356,
				"y": -1.9975105678,
				"z": -1.2977090134,
				"element": "C" 
			},
			{
				"x": 1.5372504717,
				"y": -3.0218612484,
				"z": -1.8206733155,
				"element": "N" 
			},
			{
				"x": 2.0713084203,
				"y": -2.5840969213,
				"z": -3.009391788,
				"element": "N" 
			},
			{
				"x": 1.7899884817,
				"y": -1.2699734664,
				"z": -3.3056914233,
				"element": "C" 
			},
			{
				"x": 2.1366334438,
				"y": -0.6362219235,
				"z": -4.3198471887,
				"element": "O" 
			},
			{
				"x": 1.0044030191,
				"y": -0.8318007253,
				"z": -2.1546078518,
				"element": "C" 
			},
			{
				"x": 0.5576187428,
				"y": 0.4659624156,
				"z": -2.0426246418,
				"element": "C" 
			},
			{
				"x": 0.7876230071,
				"y": 1.3644634914,
				"z": -3.0144161785,
				"element": "N" 
			},
			{
				"x": 0.4660076113,
				"y": 2.732509951,
				"z": -2.9933604732,
				"element": "C" 
			},
			{
				"x": 0.1471621143,
				"y": 3.4157152101,
				"z": -1.8113971901,
				"element": "C" 
			},
			{
				"x": -0.1789529039,
				"y": 4.7693630113,
				"z": -1.8603247962,
				"element": "C" 
			},
			{
				"x": -0.1798007701,
				"y": 5.486359964,
				"z": -3.0637553287,
				"element": "C" 
			},
			{
				"x": -0.4966327413,
				"y": 6.9627159738,
				"z": -3.096941208,
				"element": "C" 
			},
			{
				"x": 0.1577473671,
				"y": 4.7911018061,
				"z": -4.2332071481,
				"element": "C" 
			},
			{
				"x": 0.474564665,
				"y": 3.4367539244,
				"z": -4.2063092868,
				"element": "C" 
			},
			{
				"x": -0.5958355266,
				"y": -3.305344214,
				"z": 0.2081244204,
				"element": "C" 
			},
			{
				"x": -0.7333957699,
				"y": -4.2365407025,
				"z": -0.7637167247,
				"element": "O" 
			},
			{
				"x": -1.2465147263,
				"y": -3.5199172281,
				"z": 1.4856653981,
				"element": "C" 
			},
			{
				"x": -1.929421424,
				"y": -4.7123202227,
				"z": 1.7963276129,
				"element": "C" 
			},
			{
				"x": -2.564119857,
				"y": -4.8884315486,
				"z": 3.0155891199,
				"element": "C" 
			},
			{
				"x": -2.5159726216,
				"y": -3.8598654725,
				"z": 3.9643981696,
				"element": "C" 
			},
			{
				"x": -1.828054373,
				"y": -2.6836601225,
				"z": 3.7002649861,
				"element": "C" 
			},
			{
				"x": -1.1740626128,
				"y": -2.4963269713,
				"z": 2.4653077291,
				"element": "C" 
			},
			{
				"x": 0.2221717938,
				"y": 0.5177321138,
				"z": 2.7697424433,
				"element": "H" 
			},
			{
				"x": 0.0755770223,
				"y": -0.6458716221,
				"z": 4.1121075212,
				"element": "H" 
			},
			{
				"x": -1.3864374621,
				"y": 0.1101401434,
				"z": 3.4237674244,
				"element": "H" 
			},
			{
				"x": 2.6111160398,
				"y": -3.2205026407,
				"z": -3.5742069771,
				"element": "H" 
			},
			{
				"x": 0.0252614746,
				"y": 0.7978814362,
				"z": -1.1608956121,
				"element": "H" 
			},
			{
				"x": 1.2943609387,
				"y": 0.9782423377,
				"z": -3.8230928603,
				"element": "H" 
			},
			{
				"x": 0.1774747322,
				"y": 2.9055185047,
				"z": -0.8542674361,
				"element": "H" 
			},
			{
				"x": -0.4243593054,
				"y": 5.2830318789,
				"z": -0.9340118485,
				"element": "H" 
			},
			{
				"x": -1.1231476177,
				"y": 7.2566984697,
				"z": -2.2495274862,
				"element": "H" 
			},
			{
				"x": 0.416984624,
				"y": 7.5692346833,
				"z": -3.0523899968,
				"element": "H" 
			},
			{
				"x": -1.0222890105,
				"y": 7.2389808794,
				"z": -4.0165064371,
				"element": "H" 
			},
			{
				"x": 0.1670174727,
				"y": 5.3164802122,
				"z": -5.1850054234,
				"element": "H" 
			},
			{
				"x": 0.7182287183,
				"y": 2.9129444223,
				"z": -5.126645988,
				"element": "H" 
			},
			{
				"x": -1.4932591135,
				"y": -4.797819508,
				"z": -0.5624558722,
				"element": "H" 
			},
			{
				"x": -1.9352813197,
				"y": -5.5365297148,
				"z": 1.0876541305,
				"element": "H" 
			},
			{
				"x": -3.0808011411,
				"y": -5.8170672321,
				"z": 3.2339363463,
				"element": "H" 
			},
			{
				"x": -3.0100082395,
				"y": -3.9811501463,
				"z": 4.9237251479,
				"element": "H" 
			},
			{
				"x": -1.794346246,
				"y": -1.909559587,
				"z": 4.4555003347,
				"element": "H" 
			}
		],
		 "valence_orbital": [ 
			{
				"type": "occ",
				"energy": -0.24629,
				"method": "rhf"
			},
			{
				"type": "occ",
				"energy": -0.23464,
				"method": "rhf"
			},
			{
				"type": "occ",
				"energy": -0.22874,
				"method": "rhf"
			},
			{
				"type": "occ",
				"energy": -0.21017,
				"method": "rhf"
			},
			{
				"type": "occ",
				"energy": -0.18484,
				"method": "rhf"
			},
			{
				"type": "unocc",
				"energy": -0.06034,
				"method": "rhf"
			},
			{
				"type": "unocc",
				"energy": -0.04296,
				"method": "rhf"
			},
			{
				"type": "unocc",
				"energy": -0.01649,
				"method": "rhf"
			},
			{
				"type": "unocc",
				"energy": -0.00363,
				"method": "rhf"
			},
			{
				"type": "unocc",
				"energy": 0.0154,
				"method": "rhf"
			}
		],
		"cosmo_sigma_profile": { 
			"-0.025": 0.0,
			"-0.024": 0.0,
			"-0.023": 0.0,
			"-0.022": 0.0,
			"-0.021": 0.0,
			"-0.02": 0.0,
			"-0.019": 0.15438799479,
			"-0.018": 0.834121886938,
			"-0.017": 0.717062157423,
			"-0.016": 1.51392069324,
			"-0.015": 2.1661533584,
			"-0.014": 1.81275875608,
			"-0.013": 2.17123745707,
			"-0.012": 1.81901955821,
			"-0.011": 1.89607259447,
			"-0.01": 2.04079320882,
			"-0.009": 3.38222977087,
			"-0.008": 3.72266327743,
			"-0.007": 9.28454419569,
			"-0.006": 20.6777252343,
			"-0.005": 25.0274040085,
			"-0.004": 29.6659527598,
			"-0.003": 27.165703786,
			"-0.002": 30.0426441413,
			"-0.001": 31.6471068114,
			"0.0": 31.4461873095,
			"0.001": 30.8202978472,
			"0.002": 25.609003133,
			"0.003": 25.0099220629,
			"0.004": 22.8255262267,
			"0.005": 16.086102959,
			"0.006": 6.23688328354,
			"0.007": 4.86948011605,
			"0.008": 4.62353674317,
			"0.009": 4.81515700771,
			"0.01": 4.58548937806,
			"0.011": 5.41628164671,
			"0.012": 4.33342102851,
			"0.013": 5.99014787714,
			"0.014": 5.34503037923,
			"0.015": 2.92727862993,
			"0.016": 1.48087976614,
			"0.017": 0.332207608689,
			"0.018": 0.0,
			"0.019": 0.0,
			"0.02": 0.0,
			"0.021": 0.0,
			"0.022": 0.0,
			"0.023": 0.0,
			"0.024": 0.0,
			"0.025": 0.0
		}
	}
}
