{
	 "smiles": "CCC1=CC=CC=C1O", 
	 "Tm": 291.15, 
	 "num_atms": 19, 
	 "gaussian": { 
		 "optdone": 1, 
		 "sigma_profile": "yes", 
		 "theory": "DFT", 
		 "functional": "B3LYP", 
		 "basiset": "6-31G**", 
		 "properties": { 
			 "R2extent": 1271.6247, 
			 "electric_dipole_moment_norm": 1.65434217742, 
			 "electric_quadrupole_moment_norm": 5.81554233498, 
			 "total_energy": -386.106947757, 
			 "HOMO_LUMO_gap": 0.21816, 
			 "cosmo_polarized_energy": -7.0, 
			 "cosmo_cavitation_energy": 21.71, 
			 "cosmo_dispersion_energy": -16.11, 
			 "cosmo_repulsion_energy": 1.32, 
			 "cosmo_total_nonelectrostatic_energy": 6.91, 
			 "SMD_solvation_energy": 3.9 
		},
		"coords": [
			{
				"x": -0.078548453,
				"y": -2.0771526707,
				"z": 2.4753404033,
				"element": "C" 
			},
			{
				"x": -0.9738954386,
				"y": -1.850758159,
				"z": 1.2413839418,
				"element": "C" 
			},
			{
				"x": -0.3438402971,
				"y": -0.9578698529,
				"z": 0.1915551114,
				"element": "C" 
			},
			{
				"x": 0.2357951195,
				"y": -1.4987951015,
				"z": -0.9628734353,
				"element": "C" 
			},
			{
				"x": 0.8525640077,
				"y": -0.696277042,
				"z": -1.9222172321,
				"element": "C" 
			},
			{
				"x": 0.8945855598,
				"y": 0.6865741427,
				"z": -1.732129814,
				"element": "C" 
			},
			{
				"x": 0.3224031204,
				"y": 1.2543364229,
				"z": -0.596577545,
				"element": "C" 
			},
			{
				"x": -0.2904403928,
				"y": 0.4391707836,
				"z": 0.3596609056,
				"element": "C" 
			},
			{
				"x": -0.8259996469,
				"y": 1.072132638,
				"z": 1.4514560128,
				"element": "O" 
			},
			{
				"x": -0.5757060062,
				"y": -2.7168038493,
				"z": 3.2120640928,
				"element": "H" 
			},
			{
				"x": 0.1780802892,
				"y": -1.1316307646,
				"z": 2.9649769197,
				"element": "H" 
			},
			{
				"x": 0.8607469284,
				"y": -2.5565491595,
				"z": 2.1842527874,
				"element": "H" 
			},
			{
				"x": -1.9451437662,
				"y": -1.4421351851,
				"z": 1.5624864226,
				"element": "H" 
			},
			{
				"x": -1.2112265108,
				"y": -2.8179200476,
				"z": 0.7858251062,
				"element": "H" 
			},
			{
				"x": 0.1973547583,
				"y": -2.5764057511,
				"z": -1.1059961098,
				"element": "H" 
			},
			{
				"x": 1.2924636957,
				"y": -1.1447455903,
				"z": -2.8076156568,
				"element": "H" 
			},
			{
				"x": 1.3695664978,
				"y": 1.3269393393,
				"z": -2.469924476,
				"element": "H" 
			},
			{
				"x": 0.3370846568,
				"y": 2.3263904036,
				"z": -0.428599063,
				"element": "H" 
			},
			{
				"x": -1.2850441219,
				"y": 0.4276994435,
				"z": 2.0037316285,
				"element": "H" 
			}
		],
		 "valence_orbital": [ 
			{
				"type": "occ",
				"energy": -0.34062,
				"method": "rhf"
			},
			{
				"type": "occ",
				"energy": -0.32822,
				"method": "rhf"
			},
			{
				"type": "occ",
				"energy": -0.32414,
				"method": "rhf"
			},
			{
				"type": "occ",
				"energy": -0.24094,
				"method": "rhf"
			},
			{
				"type": "occ",
				"energy": -0.21452,
				"method": "rhf"
			},
			{
				"type": "unocc",
				"energy": 0.00364,
				"method": "rhf"
			},
			{
				"type": "unocc",
				"energy": 0.01719,
				"method": "rhf"
			},
			{
				"type": "unocc",
				"energy": 0.06059,
				"method": "rhf"
			},
			{
				"type": "unocc",
				"energy": 0.10054,
				"method": "rhf"
			},
			{
				"type": "unocc",
				"energy": 0.12837,
				"method": "rhf"
			}
		],
		"cosmo_sigma_profile": { 
			"-0.025": 0.0,
			"-0.024": 0.0,
			"-0.023": 0.0,
			"-0.022": 0.0,
			"-0.021": 0.0,
			"-0.02": 0.0,
			"-0.019": 0.0,
			"-0.018": 0.0,
			"-0.017": 0.0,
			"-0.016": 0.296595764278,
			"-0.015": 0.466704619058,
			"-0.014": 0.880635493083,
			"-0.013": 1.21587991904,
			"-0.012": 0.571304275702,
			"-0.011": 0.725045932619,
			"-0.01": 1.36648004217,
			"-0.009": 1.53188075104,
			"-0.008": 0.924676786087,
			"-0.007": 1.21788019839,
			"-0.006": 2.27407731341,
			"-0.005": 9.30818776111,
			"-0.004": 12.9053708647,
			"-0.003": 17.0806226897,
			"-0.002": 16.4907693779,
			"-0.001": 17.8591263836,
			"0.0": 16.4801780563,
			"0.001": 11.38584951,
			"0.002": 8.38686276599,
			"0.003": 8.21678011583,
			"0.004": 9.44017405394,
			"0.005": 10.1006732461,
			"0.006": 9.7225877215,
			"0.007": 5.08338665758,
			"0.008": 1.63019420939,
			"0.009": 1.12855981526,
			"0.01": 1.5104316373,
			"0.011": 2.07258281068,
			"0.012": 1.06991296637,
			"0.013": 0.0,
			"0.014": 0.0,
			"0.015": 0.0,
			"0.016": 0.0,
			"0.017": 0.0,
			"0.018": 0.0,
			"0.019": 0.0,
			"0.02": 0.0,
			"0.021": 0.0,
			"0.022": 0.0,
			"0.023": 0.0,
			"0.024": 0.0,
			"0.025": 0.0
		}
	}
}
