{
	 "smiles": "CC1=CC=CC=C1CO", 
	 "Tm": 310.15, 
	 "num_atms": 19, 
	 "gaussian": { 
		 "optdone": 1, 
		 "sigma_profile": "yes", 
		 "theory": "DFT", 
		 "functional": "B3LYP", 
		 "basiset": "6-31G**", 
		 "properties": { 
			 "R2extent": 1742.4394, 
			 "electric_dipole_moment_norm": 1.2413512718, 
			 "electric_quadrupole_moment_norm": 5.71736617334, 
			 "total_energy": -386.098594864, 
			 "HOMO_LUMO_gap": 0.2298, 
			 "cosmo_polarized_energy": -6.71, 
			 "cosmo_cavitation_energy": 21.71, 
			 "cosmo_dispersion_energy": -16.06, 
			 "cosmo_repulsion_energy": 1.32, 
			 "cosmo_total_nonelectrostatic_energy": 6.96, 
			 "SMD_solvation_energy": 3.86 
		},
		"coords": [
			{
				"x": -0.5680998823,
				"y": -1.6866653167,
				"z": 0.0796625393,
				"element": "C" 
			},
			{
				"x": 0.4824663049,
				"y": -0.8062894454,
				"z": -0.5571522267,
				"element": "C" 
			},
			{
				"x": 1.5385504427,
				"y": -0.2996290163,
				"z": 0.2076777353,
				"element": "C" 
			},
			{
				"x": 2.532255711,
				"y": 0.5028015598,
				"z": -0.3581630994,
				"element": "C" 
			},
			{
				"x": 2.4816321919,
				"y": 0.8142083139,
				"z": -1.7149645765,
				"element": "C" 
			},
			{
				"x": 1.4308827934,
				"y": 0.3193190524,
				"z": -2.4898459512,
				"element": "C" 
			},
			{
				"x": 0.43159253,
				"y": -0.4865194781,
				"z": -1.933174231,
				"element": "C" 
			},
			{
				"x": -0.7033755066,
				"y": -0.9760857677,
				"z": -2.808150833,
				"element": "C" 
			},
			{
				"x": -1.9728035164,
				"y": -0.4210431752,
				"z": -2.4541085742,
				"element": "O" 
			},
			{
				"x": -0.4657372187,
				"y": -1.69644559,
				"z": 1.1680966084,
				"element": "H" 
			},
			{
				"x": -0.4797061277,
				"y": -2.724228576,
				"z": -0.2683670354,
				"element": "H" 
			},
			{
				"x": -1.5741728724,
				"y": -1.3488078926,
				"z": -0.1810467572,
				"element": "H" 
			},
			{
				"x": 1.583356872,
				"y": -0.5405853408,
				"z": 1.2670927863,
				"element": "H" 
			},
			{
				"x": 3.340255927,
				"y": 0.8812439427,
				"z": 0.2617823729,
				"element": "H" 
			},
			{
				"x": 3.2479203782,
				"y": 1.4370393979,
				"z": -2.1673182332,
				"element": "H" 
			},
			{
				"x": 1.3843320395,
				"y": 0.5595193979,
				"z": -3.5499944104,
				"element": "H" 
			},
			{
				"x": -0.4663376662,
				"y": -0.7687890931,
				"z": -3.8627007115,
				"element": "H" 
			},
			{
				"x": -0.8320041649,
				"y": -2.0597400688,
				"z": -2.7141347129,
				"element": "H" 
			},
			{
				"x": -1.8615082354,
				"y": 0.5381970962,
				"z": -2.4144906895,
				"element": "H" 
			}
		],
		 "valence_orbital": [ 
			{
				"type": "occ",
				"energy": -0.33719,
				"method": "rhf"
			},
			{
				"type": "occ",
				"energy": -0.31988,
				"method": "rhf"
			},
			{
				"type": "occ",
				"energy": -0.27003,
				"method": "rhf"
			},
			{
				"type": "occ",
				"energy": -0.2466,
				"method": "rhf"
			},
			{
				"type": "occ",
				"energy": -0.23723,
				"method": "rhf"
			},
			{
				"type": "unocc",
				"energy": -0.00743,
				"method": "rhf"
			},
			{
				"type": "unocc",
				"energy": 0.00299,
				"method": "rhf"
			},
			{
				"type": "unocc",
				"energy": 0.0906,
				"method": "rhf"
			},
			{
				"type": "unocc",
				"energy": 0.09899,
				"method": "rhf"
			},
			{
				"type": "unocc",
				"energy": 0.11635,
				"method": "rhf"
			}
		],
		"cosmo_sigma_profile": { 
			"-0.025": 0.0,
			"-0.024": 0.0,
			"-0.023": 0.0,
			"-0.022": 0.0,
			"-0.021": 0.0,
			"-0.02": 0.0,
			"-0.019": 0.0,
			"-0.018": 0.0,
			"-0.017": 0.0,
			"-0.016": 0.0223438937717,
			"-0.015": 0.501082791219,
			"-0.014": 1.35903746503,
			"-0.013": 0.270901869406,
			"-0.012": 0.524789046325,
			"-0.011": 1.41353426104,
			"-0.01": 0.271862453022,
			"-0.009": 0.795860781718,
			"-0.008": 1.15526317811,
			"-0.007": 1.14963660917,
			"-0.006": 1.90659140727,
			"-0.005": 11.6550462368,
			"-0.004": 17.8344213174,
			"-0.003": 18.7647297932,
			"-0.002": 14.1915035513,
			"-0.001": 14.5551458772,
			"0.0": 13.7093371907,
			"0.001": 12.882184083,
			"0.002": 10.4326890925,
			"0.003": 9.03588187331,
			"0.004": 8.44437011135,
			"0.005": 9.07034789607,
			"0.006": 8.65781901536,
			"0.007": 3.57616569131,
			"0.008": 1.21670702301,
			"0.009": 0.917183949602,
			"0.01": 0.918726843783,
			"0.011": 1.3591108649,
			"0.012": 1.09840687905,
			"0.013": 1.41326940332,
			"0.014": 1.54710209745,
			"0.015": 0.444276126199,
			"0.016": 0.0,
			"0.017": 0.0,
			"0.018": 0.0,
			"0.019": 0.0,
			"0.02": 0.0,
			"0.021": 0.0,
			"0.022": 0.0,
			"0.023": 0.0,
			"0.024": 0.0,
			"0.025": 0.0
		}
	}
}
