{
	 "smiles": "NC1=C(C=O)C=CC2=C1C(=O)C1=CC=CC=C1C2=O", 
	 "Tm": 504.15, 
	 "num_atms": 28, 
	 "gaussian": { 
		 "optdone": 1, 
		 "sigma_profile": "yes", 
		 "theory": "DFT", 
		 "functional": "B3LYP", 
		 "basiset": "6-31G**", 
		 "properties": { 
			 "R2extent": 5529.1888, 
			 "electric_dipole_moment_norm": 1.81237976429, 
			 "electric_quadrupole_moment_norm": 18.7237712206, 
			 "total_energy": -857.473864659, 
			 "HOMO_LUMO_gap": 0.1112, 
			 "cosmo_polarized_energy": -11.14, 
			 "cosmo_cavitation_energy": 32.15, 
			 "cosmo_dispersion_energy": -24.28, 
			 "cosmo_repulsion_energy": 1.77, 
			 "cosmo_total_nonelectrostatic_energy": 9.63, 
			 "SMD_solvation_energy": 6.54 
		},
		"coords": [
			{
				"x": 1.6613424863,
				"y": -2.6278386574,
				"z": 0.8565126772,
				"element": "N" 
			},
			{
				"x": 0.677587285,
				"y": -1.854442666,
				"z": 1.3359379936,
				"element": "C" 
			},
			{
				"x": 0.472058007,
				"y": -1.7545302407,
				"z": 2.7566709039,
				"element": "C" 
			},
			{
				"x": 1.3096482115,
				"y": -2.4769187638,
				"z": 3.7127316779,
				"element": "C" 
			},
			{
				"x": 2.2464821497,
				"y": -3.2220187475,
				"z": 3.4380007316,
				"element": "O" 
			},
			{
				"x": -0.5531425231,
				"y": -0.9483287264,
				"z": 3.2587491276,
				"element": "C" 
			},
			{
				"x": -1.3948061003,
				"y": -0.2279955561,
				"z": 2.4214094546,
				"element": "C" 
			},
			{
				"x": -1.2130924132,
				"y": -0.3105840186,
				"z": 1.0390348633,
				"element": "C" 
			},
			{
				"x": -0.1955518922,
				"y": -1.1074735466,
				"z": 0.4683645749,
				"element": "C" 
			},
			{
				"x": -0.031136785,
				"y": -1.172890628,
				"z": -0.9923502639,
				"element": "C" 
			},
			{
				"x": 0.8475493073,
				"y": -1.8590885004,
				"z": -1.5361835104,
				"element": "O" 
			},
			{
				"x": -0.9620196123,
				"y": -0.3801094193,
				"z": -1.8491843765,
				"element": "C" 
			},
			{
				"x": -0.8150400671,
				"y": -0.4350425489,
				"z": -3.2403535389,
				"element": "C" 
			},
			{
				"x": -1.6700835544,
				"y": 0.2947601581,
				"z": -4.0625523098,
				"element": "C" 
			},
			{
				"x": -2.6805961919,
				"y": 1.0868925403,
				"z": -3.5039606496,
				"element": "C" 
			},
			{
				"x": -2.8336493727,
				"y": 1.1472044716,
				"z": -2.1218222902,
				"element": "C" 
			},
			{
				"x": -1.977265631,
				"y": 0.4157739166,
				"z": -1.289888928,
				"element": "C" 
			},
			{
				"x": -2.151627332,
				"y": 0.4890510604,
				"z": 0.1819916792,
				"element": "C" 
			},
			{
				"x": -3.0299993506,
				"y": 1.178040459,
				"z": 0.6891584267,
				"element": "O" 
			},
			{
				"x": 1.7739929253,
				"y": -2.6717073048,
				"z": -0.1503478766,
				"element": "H" 
			},
			{
				"x": 2.2377213691,
				"y": -3.1259698746,
				"z": 1.526242802,
				"element": "H" 
			},
			{
				"x": 1.0369702956,
				"y": -2.305885044,
				"z": 4.7752321691,
				"element": "H" 
			},
			{
				"x": -0.6837750415,
				"y": -0.8929758318,
				"z": 4.3374256532,
				"element": "H" 
			},
			{
				"x": -2.1908724917,
				"y": 0.3984666053,
				"z": 2.8043285969,
				"element": "H" 
			},
			{
				"x": -0.0256692423,
				"y": -1.0549270654,
				"z": -3.6507565074,
				"element": "H" 
			},
			{
				"x": -1.5516019305,
				"y": 0.2484618424,
				"z": -5.1411596387,
				"element": "H" 
			},
			{
				"x": -3.3451338277,
				"y": 1.6543387186,
				"z": -4.1487245007,
				"element": "H" 
			},
			{
				"x": -3.6068886773,
				"y": 1.7518373676,
				"z": -1.660106941,
				"element": "H" 
			}
		],
		 "valence_orbital": [ 
			{
				"type": "occ",
				"energy": -0.2727,
				"method": "rhf"
			},
			{
				"type": "occ",
				"energy": -0.27047,
				"method": "rhf"
			},
			{
				"type": "occ",
				"energy": -0.26905,
				"method": "rhf"
			},
			{
				"type": "occ",
				"energy": -0.25865,
				"method": "rhf"
			},
			{
				"type": "occ",
				"energy": -0.22479,
				"method": "rhf"
			},
			{
				"type": "unocc",
				"energy": -0.11359,
				"method": "rhf"
			},
			{
				"type": "unocc",
				"energy": -0.0631,
				"method": "rhf"
			},
			{
				"type": "unocc",
				"energy": -0.04915,
				"method": "rhf"
			},
			{
				"type": "unocc",
				"energy": -0.01266,
				"method": "rhf"
			},
			{
				"type": "unocc",
				"energy": 0.0087,
				"method": "rhf"
			}
		],
		"cosmo_sigma_profile": { 
			"-0.025": 0.0,
			"-0.024": 0.0,
			"-0.023": 0.0,
			"-0.022": 0.0,
			"-0.021": 0.0,
			"-0.02": 0.0,
			"-0.019": 0.0,
			"-0.018": 0.0,
			"-0.017": 0.0,
			"-0.016": 0.0,
			"-0.015": 0.0,
			"-0.014": 0.0,
			"-0.013": 0.0,
			"-0.012": 0.0,
			"-0.011": 0.0,
			"-0.01": 0.0996408881383,
			"-0.009": 2.44389721972,
			"-0.008": 5.76257337493,
			"-0.007": 10.5379016957,
			"-0.006": 15.7698747366,
			"-0.005": 15.630557128,
			"-0.004": 14.4206716266,
			"-0.003": 16.3562013135,
			"-0.002": 17.5763330009,
			"-0.001": 20.9314293133,
			"0.0": 29.2569385765,
			"0.001": 28.1997991109,
			"0.002": 25.8483974018,
			"0.003": 11.5338344741,
			"0.004": 6.96647716529,
			"0.005": 4.05088500514,
			"0.006": 3.83325467265,
			"0.007": 4.71945079567,
			"0.008": 5.02034676716,
			"0.009": 5.72552359643,
			"0.01": 6.04237574302,
			"0.011": 7.01235664089,
			"0.012": 2.03571761879,
			"0.013": 0.455671585326,
			"0.014": 0.0,
			"0.015": 0.0,
			"0.016": 0.0,
			"0.017": 0.0,
			"0.018": 0.0,
			"0.019": 0.0,
			"0.02": 0.0,
			"0.021": 0.0,
			"0.022": 0.0,
			"0.023": 0.0,
			"0.024": 0.0,
			"0.025": 0.0
		}
	}
}
