{
	 "smiles": "CCOC(=O)C1=C(N)SC(C(=O)NC)=C1C", 
	 "Tm": 425.15, 
	 "num_atms": 30, 
	 "gaussian": { 
		 "optdone": 1, 
		 "sigma_profile": "yes", 
		 "theory": "DFT", 
		 "functional": "B3LYP", 
		 "basiset": "6-31G**", 
		 "properties": { 
			 "R2extent": 5228.3221, 
			 "electric_dipole_moment_norm": 6.25271035792, 
			 "electric_quadrupole_moment_norm": 16.3740669615, 
			 "total_energy": -1122.88872594, 
			 "HOMO_LUMO_gap": 0.17542, 
			 "cosmo_polarized_energy": -18.66, 
			 "cosmo_cavitation_energy": 34.55, 
			 "cosmo_dispersion_energy": -25.35, 
			 "cosmo_repulsion_energy": 1.97, 
			 "cosmo_total_nonelectrostatic_energy": 11.18, 
			 "SMD_solvation_energy": 6.77 
		},
		"coords": [
			{
				"x": -1.4337687829,
				"y": 1.5806394833,
				"z": 3.8322285366,
				"element": "C" 
			},
			{
				"x": 0.0280257879,
				"y": 1.4006588566,
				"z": 3.4512348564,
				"element": "C" 
			},
			{
				"x": 0.2155084808,
				"y": 1.4633042191,
				"z": 2.0169217274,
				"element": "O" 
			},
			{
				"x": 0.0217654333,
				"y": 0.2879674493,
				"z": 1.3262666207,
				"element": "C" 
			},
			{
				"x": -0.2902715839,
				"y": -0.7395116669,
				"z": 1.8998789392,
				"element": "O" 
			},
			{
				"x": 0.2305297787,
				"y": 0.4394748893,
				"z": -0.1172365768,
				"element": "C" 
			},
			{
				"x": 0.5821613508,
				"y": 1.6375434309,
				"z": -0.749170517,
				"element": "C" 
			},
			{
				"x": 0.8743034752,
				"y": 2.8454964013,
				"z": -0.1963609638,
				"element": "N" 
			},
			{
				"x": 0.703056299,
				"y": 1.4370669152,
				"z": -2.4741503464,
				"element": "S" 
			},
			{
				"x": 0.2706578221,
				"y": -0.279109934,
				"z": -2.3585264586,
				"element": "C" 
			},
			{
				"x": 0.2950677078,
				"y": -1.1460888974,
				"z": -3.5638108011,
				"element": "C" 
			},
			{
				"x": 0.7078490319,
				"y": -2.3039922347,
				"z": -3.5259136002,
				"element": "O" 
			},
			{
				"x": -0.1125838119,
				"y": -0.5966164926,
				"z": -4.7631044172,
				"element": "N" 
			},
			{
				"x": -1.1034630045,
				"y": 0.4537662061,
				"z": -4.9720818633,
				"element": "C" 
			},
			{
				"x": 0.0766168511,
				"y": -0.6582948999,
				"z": -1.0519331823,
				"element": "C" 
			},
			{
				"x": -0.2862979361,
				"y": -2.0580287376,
				"z": -0.6373876659,
				"element": "C" 
			},
			{
				"x": -1.8306219103,
				"y": 2.5201650135,
				"z": 3.4352844683,
				"element": "H" 
			},
			{
				"x": -2.0326540535,
				"y": 0.7520593721,
				"z": 3.4475407397,
				"element": "H" 
			},
			{
				"x": -1.5336543593,
				"y": 1.6004664683,
				"z": 4.9226931449,
				"element": "H" 
			},
			{
				"x": 0.6479554232,
				"y": 2.2115882927,
				"z": 3.8425737836,
				"element": "H" 
			},
			{
				"x": 0.4131620011,
				"y": 0.4446706399,
				"z": 3.8112757325,
				"element": "H" 
			},
			{
				"x": 0.6619156154,
				"y": 2.9419931566,
				"z": 0.7868592378,
				"element": "H" 
			},
			{
				"x": 0.850733526,
				"y": 3.6697450547,
				"z": -0.775007402,
				"element": "H" 
			},
			{
				"x": 0.0001031196,
				"y": -1.2652889326,
				"z": -5.5141178755,
				"element": "H" 
			},
			{
				"x": -1.8311066084,
				"y": 0.1240556725,
				"z": -5.7203531653,
				"element": "H" 
			},
			{
				"x": -0.6548163299,
				"y": 1.3907196883,
				"z": -5.3232324234,
				"element": "H" 
			},
			{
				"x": -1.6444459208,
				"y": 0.6579980641,
				"z": -4.0463429528,
				"element": "H" 
			},
			{
				"x": 0.4685468063,
				"y": -2.4579017451,
				"z": 0.0457785704,
				"element": "H" 
			},
			{
				"x": -0.3513409235,
				"y": -2.7101368256,
				"z": -1.505848668,
				"element": "H" 
			},
			{
				"x": -1.2274332852,
				"y": -2.0621089074,
				"z": -0.0808574779,
				"element": "H" 
			}
		],
		 "valence_orbital": [ 
			{
				"type": "occ",
				"energy": -0.26994,
				"method": "rhf"
			},
			{
				"type": "occ",
				"energy": -0.25133,
				"method": "rhf"
			},
			{
				"type": "occ",
				"energy": -0.25046,
				"method": "rhf"
			},
			{
				"type": "occ",
				"energy": -0.23881,
				"method": "rhf"
			},
			{
				"type": "occ",
				"energy": -0.203,
				"method": "rhf"
			},
			{
				"type": "unocc",
				"energy": -0.02758,
				"method": "rhf"
			},
			{
				"type": "unocc",
				"energy": -0.01451,
				"method": "rhf"
			},
			{
				"type": "unocc",
				"energy": 0.0074,
				"method": "rhf"
			},
			{
				"type": "unocc",
				"energy": 0.05929,
				"method": "rhf"
			},
			{
				"type": "unocc",
				"energy": 0.08095,
				"method": "rhf"
			}
		],
		"cosmo_sigma_profile": { 
			"-0.025": 0.0,
			"-0.024": 0.0,
			"-0.023": 0.0,
			"-0.022": 0.0,
			"-0.021": 0.0,
			"-0.02": 0.0,
			"-0.019": 0.0,
			"-0.018": 0.0,
			"-0.017": 0.0,
			"-0.016": 0.0645800543177,
			"-0.015": 1.07832238897,
			"-0.014": 1.45240439235,
			"-0.013": 2.20684990322,
			"-0.012": 2.80415738287,
			"-0.011": 2.9252787029,
			"-0.01": 3.5315346227,
			"-0.009": 2.63516591256,
			"-0.008": 2.68503953117,
			"-0.007": 2.66622292477,
			"-0.006": 5.50360025488,
			"-0.005": 10.4855038126,
			"-0.004": 18.8239344146,
			"-0.003": 24.910692815,
			"-0.002": 25.9067241832,
			"-0.001": 24.8987690484,
			"0.0": 30.8360965865,
			"0.001": 26.7380559866,
			"0.002": 18.8533309239,
			"0.003": 15.0014095901,
			"0.004": 8.36576624347,
			"0.005": 6.48612769919,
			"0.006": 4.32503389053,
			"0.007": 3.17625990712,
			"0.008": 3.72343108296,
			"0.009": 3.73978151219,
			"0.01": 3.18421170835,
			"0.011": 3.45509228375,
			"0.012": 4.74512080073,
			"0.013": 3.96891906651,
			"0.014": 4.7334944703,
			"0.015": 0.691850744421,
			"0.016": 0.0,
			"0.017": 0.0,
			"0.018": 0.0,
			"0.019": 0.0,
			"0.02": 0.0,
			"0.021": 0.0,
			"0.022": 0.0,
			"0.023": 0.0,
			"0.024": 0.0,
			"0.025": 0.0
		}
	}
}
