{
	 "smiles": "OC(=O)CC1=CC=C2OCOC2=C1", 
	 "Tm": 403.15, 
	 "num_atms": 21, 
	 "gaussian": { 
		 "optdone": 1, 
		 "sigma_profile": "yes", 
		 "theory": "DFT", 
		 "functional": "B3LYP", 
		 "basiset": "6-31G**", 
		 "properties": { 
			 "R2extent": 3032.2018, 
			 "electric_dipole_moment_norm": 1.36038548581, 
			 "electric_quadrupole_moment_norm": 10.5662577836, 
			 "total_energy": -648.662370645, 
			 "HOMO_LUMO_gap": 0.19979, 
			 "cosmo_polarized_energy": -11.7, 
			 "cosmo_cavitation_energy": 25.73, 
			 "cosmo_dispersion_energy": -19.18, 
			 "cosmo_repulsion_energy": 1.53, 
			 "cosmo_total_nonelectrostatic_energy": 8.08, 
			 "SMD_solvation_energy": 6.15 
		},
		"coords": [
			{
				"x": 1.3269995643,
				"y": 2.1171985116,
				"z": -3.6528333103,
				"element": "O" 
			},
			{
				"x": 0.4574520886,
				"y": 2.1920652235,
				"z": -2.6185822581,
				"element": "C" 
			},
			{
				"x": 0.5097014662,
				"y": 3.0674547638,
				"z": -1.7818599059,
				"element": "O" 
			},
			{
				"x": -0.5420144261,
				"y": 1.0496514335,
				"z": -2.6255209971,
				"element": "C" 
			},
			{
				"x": -0.1342620808,
				"y": -0.0502952814,
				"z": -1.6559277349,
				"element": "C" 
			},
			{
				"x": 0.1169919231,
				"y": -1.3428669827,
				"z": -2.1209621304,
				"element": "C" 
			},
			{
				"x": 0.4841786603,
				"y": -2.3878270249,
				"z": -1.2513258392,
				"element": "C" 
			},
			{
				"x": 0.5919328419,
				"y": -2.0739875893,
				"z": 0.0874353933,
				"element": "C" 
			},
			{
				"x": 0.9104680778,
				"y": -2.8992124576,
				"z": 1.1391726899,
				"element": "O" 
			},
			{
				"x": 1.0065472248,
				"y": -2.0465568243,
				"z": 2.2864482176,
				"element": "C" 
			},
			{
				"x": 0.505786718,
				"y": -0.7553823838,
				"z": 1.9236846919,
				"element": "O" 
			},
			{
				"x": 0.3477899581,
				"y": -0.7843952372,
				"z": 0.5586516746,
				"element": "C" 
			},
			{
				"x": -0.0161371308,
				"y": 0.2479910263,
				"z": -0.2791129981,
				"element": "C" 
			},
			{
				"x": 1.9429014343,
				"y": 2.8616489844,
				"z": -3.5419332953,
				"element": "H" 
			},
			{
				"x": -0.6319420698,
				"y": 0.6465949217,
				"z": -3.6361430072,
				"element": "H" 
			},
			{
				"x": -1.5074711055,
				"y": 1.4747515136,
				"z": -2.331582373,
				"element": "H" 
			},
			{
				"x": 0.0272223041,
				"y": -1.5523205884,
				"z": -3.1826594909,
				"element": "H" 
			},
			{
				"x": 0.6737355796,
				"y": -3.3915926531,
				"z": -1.6141803297,
				"element": "H" 
			},
			{
				"x": 0.399143326,
				"y": -2.4586581042,
				"z": 3.0985737939,
				"element": "H" 
			},
			{
				"x": 2.0590893481,
				"y": -1.96006196,
				"z": 2.5922504155,
				"element": "H" 
			},
			{
				"x": -0.1914137019,
				"y": 1.2503007084,
				"z": 0.0949067936,
				"element": "H" 
			}
		],
		 "valence_orbital": [ 
			{
				"type": "occ",
				"energy": -0.31892,
				"method": "rhf"
			},
			{
				"type": "occ",
				"energy": -0.31185,
				"method": "rhf"
			},
			{
				"type": "occ",
				"energy": -0.27554,
				"method": "rhf"
			},
			{
				"type": "occ",
				"energy": -0.24569,
				"method": "rhf"
			},
			{
				"type": "occ",
				"energy": -0.20699,
				"method": "rhf"
			},
			{
				"type": "unocc",
				"energy": -0.0072,
				"method": "rhf"
			},
			{
				"type": "unocc",
				"energy": 0.00044,
				"method": "rhf"
			},
			{
				"type": "unocc",
				"energy": 0.02267,
				"method": "rhf"
			},
			{
				"type": "unocc",
				"energy": 0.07822,
				"method": "rhf"
			},
			{
				"type": "unocc",
				"energy": 0.09484,
				"method": "rhf"
			}
		],
		"cosmo_sigma_profile": { 
			"-0.025": 0.0,
			"-0.024": 0.0,
			"-0.023": 0.0,
			"-0.022": 0.0,
			"-0.021": 0.0,
			"-0.02": 0.0,
			"-0.019": 0.0,
			"-0.018": 0.644436242352,
			"-0.017": 1.00683739271,
			"-0.016": 0.77492478834,
			"-0.015": 0.833609146041,
			"-0.014": 1.29977092951,
			"-0.013": 0.241271261054,
			"-0.012": 0.0774772513737,
			"-0.011": 1.01620616384,
			"-0.01": 0.996113225157,
			"-0.009": 0.789661740657,
			"-0.008": 2.88553955254,
			"-0.007": 10.3145125512,
			"-0.006": 16.1694334486,
			"-0.005": 13.1948416979,
			"-0.004": 13.318294619,
			"-0.003": 12.55857539,
			"-0.002": 10.6324436995,
			"-0.001": 10.6654372771,
			"0.0": 10.8170606692,
			"0.001": 9.86113531998,
			"0.002": 15.3495897562,
			"0.003": 15.7349616866,
			"0.004": 13.9092088017,
			"0.005": 8.78591269512,
			"0.006": 4.10087449135,
			"0.007": 5.43894510317,
			"0.008": 5.51266054969,
			"0.009": 6.60547787754,
			"0.01": 4.11543672902,
			"0.011": 3.27662731251,
			"0.012": 3.905504263,
			"0.013": 0.25483408907,
			"0.014": 0.0,
			"0.015": 0.0,
			"0.016": 0.0,
			"0.017": 0.0,
			"0.018": 0.0,
			"0.019": 0.0,
			"0.02": 0.0,
			"0.021": 0.0,
			"0.022": 0.0,
			"0.023": 0.0,
			"0.024": 0.0,
			"0.025": 0.0
		}
	}
}
