{
	 "smiles": "CCOP(=S)(OCC)OC1=CC=C(C=C1)S(C)=O", 
	 "Tm": 298.15, 
	 "num_atms": 35, 
	 "gaussian": { 
		 "optdone": 1, 
		 "sigma_profile": "yes", 
		 "theory": "DFT", 
		 "functional": "B3LYP", 
		 "basiset": "6-31G**", 
		 "properties": { 
			 "R2extent": 9166.3373, 
			 "electric_dipole_moment_norm": 6.35499190715, 
			 "electric_quadrupole_moment_norm": 26.849220335, 
			 "total_energy": -1868.06112224, 
			 "HOMO_LUMO_gap": 0.19818, 
			 "cosmo_polarized_energy": -19.5, 
			 "cosmo_cavitation_energy": 43.84, 
			 "cosmo_dispersion_energy": -30.19, 
			 "cosmo_repulsion_energy": 2.32, 
			 "cosmo_total_nonelectrostatic_energy": 15.96, 
			 "SMD_solvation_energy": 7.54 
		},
		"coords": [
			{
				"x": 1.3511053009,
				"y": -1.9601253227,
				"z": -5.0661048246,
				"element": "C" 
			},
			{
				"x": 1.2722191079,
				"y": -2.5322492435,
				"z": -3.6637468971,
				"element": "C" 
			},
			{
				"x": 0.3822987287,
				"y": -1.6842957704,
				"z": -2.8891199001,
				"element": "O" 
			},
			{
				"x": 0.129199015,
				"y": -1.9836525011,
				"z": -1.3119901608,
				"element": "P" 
			},
			{
				"x": 1.6676250467,
				"y": -2.4601364996,
				"z": -0.2520287827,
				"element": "S" 
			},
			{
				"x": -1.0563645336,
				"y": -3.0642872234,
				"z": -1.259242561,
				"element": "O" 
			},
			{
				"x": -2.3391517232,
				"y": -2.8366187291,
				"z": -1.908652946,
				"element": "C" 
			},
			{
				"x": -3.1317053515,
				"y": -4.1260916512,
				"z": -1.8186266048,
				"element": "C" 
			},
			{
				"x": -0.7005404008,
				"y": -0.6334602861,
				"z": -0.9176843447,
				"element": "O" 
			},
			{
				"x": -0.0949519618,
				"y": 0.5972598064,
				"z": -0.6692830012,
				"element": "C" 
			},
			{
				"x": -0.1201849733,
				"y": 1.0863725231,
				"z": 0.6356233125,
				"element": "C" 
			},
			{
				"x": 0.4130676027,
				"y": 2.3473293137,
				"z": 0.8999336985,
				"element": "C" 
			},
			{
				"x": 0.9711217475,
				"y": 3.0871840951,
				"z": -0.1403410548,
				"element": "C" 
			},
			{
				"x": 0.9754310077,
				"y": 2.6028978144,
				"z": -1.4499021119,
				"element": "C" 
			},
			{
				"x": 0.4427063222,
				"y": 1.3432203286,
				"z": -1.7199428918,
				"element": "C" 
			},
			{
				"x": 1.6150728153,
				"y": 4.7499510288,
				"z": 0.2450373208,
				"element": "S" 
			},
			{
				"x": 3.3941864316,
				"y": 4.2874870619,
				"z": 0.2222949223,
				"element": "C" 
			},
			{
				"x": 1.2549531083,
				"y": 5.0406348732,
				"z": 1.6850863007,
				"element": "O" 
			},
			{
				"x": 0.3641693876,
				"y": -1.9341889436,
				"z": -5.5367213494,
				"element": "H" 
			},
			{
				"x": 1.7546925611,
				"y": -0.9437301076,
				"z": -5.0486394673,
				"element": "H" 
			},
			{
				"x": 2.0104192386,
				"y": -2.5812195433,
				"z": -5.6805720068,
				"element": "H" 
			},
			{
				"x": 0.8711534769,
				"y": -3.5520621901,
				"z": -3.6708604835,
				"element": "H" 
			},
			{
				"x": 2.2511549941,
				"y": -2.5508790912,
				"z": -3.1755938157,
				"element": "H" 
			},
			{
				"x": -2.1640987615,
				"y": -2.5415540068,
				"z": -2.9485585572,
				"element": "H" 
			},
			{
				"x": -2.8434464738,
				"y": -2.0140324939,
				"z": -1.3935851965,
				"element": "H" 
			},
			{
				"x": -3.281709654,
				"y": -4.4154149071,
				"z": -0.7751254404,
				"element": "H" 
			},
			{
				"x": -4.1123792674,
				"y": -3.9899378035,
				"z": -2.2858079469,
				"element": "H" 
			},
			{
				"x": -2.6124358154,
				"y": -4.9400711907,
				"z": -2.3319132955,
				"element": "H" 
			},
			{
				"x": -0.5559132695,
				"y": 0.4793146641,
				"z": 1.4216033938,
				"element": "H" 
			},
			{
				"x": 0.4011802972,
				"y": 2.775726661,
				"z": 1.8979369825,
				"element": "H" 
			},
			{
				"x": 1.3834757343,
				"y": 3.2007480749,
				"z": -2.2612231445,
				"element": "H" 
			},
			{
				"x": 0.4294319011,
				"y": 0.938271611,
				"z": -2.725018776,
				"element": "H" 
			},
			{
				"x": 3.6677423966,
				"y": 3.9238515987,
				"z": -0.7711727505,
				"element": "H" 
			},
			{
				"x": 3.9604323746,
				"y": 5.1899458716,
				"z": 0.4628862711,
				"element": "H" 
			},
			{
				"x": 3.5686435893,
				"y": 3.5198121782,
				"z": 0.9791561096,
				"element": "H" 
			}
		],
		 "valence_orbital": [ 
			{
				"type": "occ",
				"energy": -0.26569,
				"method": "rhf"
			},
			{
				"type": "occ",
				"energy": -0.26287,
				"method": "rhf"
			},
			{
				"type": "occ",
				"energy": -0.24654,
				"method": "rhf"
			},
			{
				"type": "occ",
				"energy": -0.24293,
				"method": "rhf"
			},
			{
				"type": "occ",
				"energy": -0.22503,
				"method": "rhf"
			},
			{
				"type": "unocc",
				"energy": -0.02685,
				"method": "rhf"
			},
			{
				"type": "unocc",
				"energy": -0.02127,
				"method": "rhf"
			},
			{
				"type": "unocc",
				"energy": 0.03624,
				"method": "rhf"
			},
			{
				"type": "unocc",
				"energy": 0.03958,
				"method": "rhf"
			},
			{
				"type": "unocc",
				"energy": 0.04591,
				"method": "rhf"
			}
		],
		"cosmo_sigma_profile": { 
			"-0.025": 0.0,
			"-0.024": 0.0,
			"-0.023": 0.0,
			"-0.022": 0.0,
			"-0.021": 0.0,
			"-0.02": 0.0,
			"-0.019": 0.0,
			"-0.018": 0.0,
			"-0.017": 0.0,
			"-0.016": 0.0,
			"-0.015": 0.0,
			"-0.014": 0.0,
			"-0.013": 0.0,
			"-0.012": 0.0,
			"-0.011": 0.0,
			"-0.01": 0.215239897848,
			"-0.009": 1.21137062488,
			"-0.008": 4.29756061661,
			"-0.007": 9.15320208273,
			"-0.006": 13.8800945316,
			"-0.005": 26.6073343008,
			"-0.004": 37.3546473045,
			"-0.003": 35.5349069677,
			"-0.002": 30.1375092057,
			"-0.001": 29.722420273,
			"0.0": 27.9649560406,
			"0.001": 22.8539707901,
			"0.002": 22.4677999028,
			"0.003": 17.9312729827,
			"0.004": 10.938009982,
			"0.005": 8.59896786195,
			"0.006": 8.25092635712,
			"0.007": 8.45491232624,
			"0.008": 10.7858104681,
			"0.009": 6.97099665789,
			"0.01": 1.91510103771,
			"0.011": 1.59123222405,
			"0.012": 1.45785289321,
			"0.013": 2.27630552831,
			"0.014": 4.43746655379,
			"0.015": 3.63110079925,
			"0.016": 0.671212679834,
			"0.017": 0.0,
			"0.018": 0.0,
			"0.019": 0.0,
			"0.02": 0.0,
			"0.021": 0.0,
			"0.022": 0.0,
			"0.023": 0.0,
			"0.024": 0.0,
			"0.025": 0.0
		}
	}
}
