{
	 "smiles": "FC1=CC=CC=C1C1=CC=CC=C1", 
	 "Tm": 346.95, 
	 "num_atms": 22, 
	 "gaussian": { 
		 "optdone": 1, 
		 "sigma_profile": "yes", 
		 "theory": "DFT", 
		 "functional": "B3LYP", 
		 "basiset": "6-31G**", 
		 "properties": { 
			 "R2extent": 2554.5876, 
			 "electric_dipole_moment_norm": 1.12825735539, 
			 "electric_quadrupole_moment_norm": 8.77198810476, 
			 "total_energy": -562.542062306, 
			 "HOMO_LUMO_gap": 0.19522, 
			 "cosmo_polarized_energy": -5.05, 
			 "cosmo_cavitation_energy": 26.09, 
			 "cosmo_dispersion_energy": -19.23, 
			 "cosmo_repulsion_energy": 1.48, 
			 "cosmo_total_nonelectrostatic_energy": 8.34, 
			 "SMD_solvation_energy": 4.69 
		},
		"coords": [
			{
				"x": -1.8513796193,
				"y": -0.9311078321,
				"z": -0.1869742384,
				"element": "F" 
			},
			{
				"x": -1.3562647548,
				"y": 0.3116500067,
				"z": 0.0232669072,
				"element": "C" 
			},
			{
				"x": -2.2620720356,
				"y": 1.3179433582,
				"z": 0.3334798422,
				"element": "C" 
			},
			{
				"x": -1.7927263042,
				"y": 2.6140387629,
				"z": 0.5447939184,
				"element": "C" 
			},
			{
				"x": -0.4258859029,
				"y": 2.8786272298,
				"z": 0.4425457561,
				"element": "C" 
			},
			{
				"x": 0.4611963905,
				"y": 1.8501915359,
				"z": 0.1293636547,
				"element": "C" 
			},
			{
				"x": 0.0239606084,
				"y": 0.5316505857,
				"z": -0.0927849779,
				"element": "C" 
			},
			{
				"x": 0.983902279,
				"y": -0.5470969992,
				"z": -0.4423585044,
				"element": "C" 
			},
			{
				"x": 2.0611047337,
				"y": -0.2761973904,
				"z": -1.3035838928,
				"element": "C" 
			},
			{
				"x": 2.9943165734,
				"y": -1.2630883849,
				"z": -1.6178583651,
				"element": "C" 
			},
			{
				"x": 2.8689391856,
				"y": -2.5441817918,
				"z": -1.0784756471,
				"element": "C" 
			},
			{
				"x": 1.8003593445,
				"y": -2.8288824396,
				"z": -0.2261245772,
				"element": "C" 
			},
			{
				"x": 0.8656270032,
				"y": -1.8437855894,
				"z": 0.0877536319,
				"element": "C" 
			},
			{
				"x": -3.3163899049,
				"y": 1.0709374742,
				"z": 0.3975022305,
				"element": "H" 
			},
			{
				"x": -2.4916644862,
				"y": 3.4075698853,
				"z": 0.7909057496,
				"element": "H" 
			},
			{
				"x": -0.0487865033,
				"y": 3.8820298611,
				"z": 0.6146342166,
				"element": "H" 
			},
			{
				"x": 1.5255126428,
				"y": 2.0573311936,
				"z": 0.0747399701,
				"element": "H" 
			},
			{
				"x": 2.154251068,
				"y": 0.7109097019,
				"z": -1.746753113,
				"element": "H" 
			},
			{
				"x": 3.8151175988,
				"y": -1.0321421788,
				"z": -2.2910429729,
				"element": "H" 
			},
			{
				"x": 3.5943259352,
				"y": -3.3147227029,
				"z": -1.3231723201,
				"element": "H" 
			},
			{
				"x": 1.6940982343,
				"y": -3.8226423862,
				"z": 0.1997820902,
				"element": "H" 
			},
			{
				"x": 0.041857914,
				"y": -2.0766319001,
				"z": 0.7523606415,
				"element": "H" 
			}
		],
		 "valence_orbital": [ 
			{
				"type": "occ",
				"energy": -0.33224,
				"method": "rhf"
			},
			{
				"type": "occ",
				"energy": -0.27691,
				"method": "rhf"
			},
			{
				"type": "occ",
				"energy": -0.24918,
				"method": "rhf"
			},
			{
				"type": "occ",
				"energy": -0.24859,
				"method": "rhf"
			},
			{
				"type": "occ",
				"energy": -0.22547,
				"method": "rhf"
			},
			{
				"type": "unocc",
				"energy": -0.03025,
				"method": "rhf"
			},
			{
				"type": "unocc",
				"energy": -0.00214,
				"method": "rhf"
			},
			{
				"type": "unocc",
				"energy": 0.00104,
				"method": "rhf"
			},
			{
				"type": "unocc",
				"energy": 0.02565,
				"method": "rhf"
			},
			{
				"type": "unocc",
				"energy": 0.0869,
				"method": "rhf"
			}
		],
		"cosmo_sigma_profile": { 
			"-0.025": 0.0,
			"-0.024": 0.0,
			"-0.023": 0.0,
			"-0.022": 0.0,
			"-0.021": 0.0,
			"-0.02": 0.0,
			"-0.019": 0.0,
			"-0.018": 0.0,
			"-0.017": 0.0,
			"-0.016": 0.0,
			"-0.015": 0.0,
			"-0.014": 0.0,
			"-0.013": 0.0,
			"-0.012": 0.0,
			"-0.011": 0.0,
			"-0.01": 0.0,
			"-0.009": 0.0,
			"-0.008": 0.0578762909812,
			"-0.007": 1.84904157087,
			"-0.006": 10.9459861143,
			"-0.005": 18.4079566232,
			"-0.004": 19.9285224244,
			"-0.003": 16.4095326354,
			"-0.002": 13.8890266714,
			"-0.001": 12.3810931984,
			"0.0": 12.2604020561,
			"0.001": 16.6835913757,
			"0.002": 18.3286335488,
			"0.003": 19.687473277,
			"0.004": 24.2160972449,
			"0.005": 19.5903347347,
			"0.006": 5.32316450795,
			"0.007": 0.0,
			"0.008": 0.0,
			"0.009": 0.0,
			"0.01": 0.0,
			"0.011": 0.0,
			"0.012": 0.0,
			"0.013": 0.0,
			"0.014": 0.0,
			"0.015": 0.0,
			"0.016": 0.0,
			"0.017": 0.0,
			"0.018": 0.0,
			"0.019": 0.0,
			"0.02": 0.0,
			"0.021": 0.0,
			"0.022": 0.0,
			"0.023": 0.0,
			"0.024": 0.0,
			"0.025": 0.0
		}
	}
}
