{
	 "smiles": "CC1=CC=CN=N1", 
	 "Tm": 457.15, 
	 "num_atms": 13, 
	 "gaussian": { 
		 "optdone": 1, 
		 "sigma_profile": "yes", 
		 "theory": "DFT", 
		 "functional": "B3LYP", 
		 "basiset": "6-31G**", 
		 "properties": { 
			 "R2extent": 909.0546, 
			 "electric_dipole_moment_norm": 3.97548163371, 
			 "electric_quadrupole_moment_norm": 7.80250262224, 
			 "total_energy": -303.611162214, 
			 "HOMO_LUMO_gap": 0.181, 
			 "cosmo_polarized_energy": -10.61, 
			 "cosmo_cavitation_energy": 16.87, 
			 "cosmo_dispersion_energy": -12.73, 
			 "cosmo_repulsion_energy": 1.08, 
			 "cosmo_total_nonelectrostatic_energy": 5.21, 
			 "SMD_solvation_energy": 1.56 
		},
		"coords": [
			{
				"x": -2.4301666637,
				"y": -0.6909789414,
				"z": -2.294610076,
				"element": "C" 
			},
			{
				"x": -1.5383574377,
				"y": -0.4987135133,
				"z": -1.0963224349,
				"element": "C" 
			},
			{
				"x": -1.6470326325,
				"y": 0.6279448907,
				"z": -0.2628876128,
				"element": "C" 
			},
			{
				"x": -0.7852351359,
				"y": 0.7179159674,
				"z": 0.8133841343,
				"element": "C" 
			},
			{
				"x": 0.1290227904,
				"y": -0.3274763414,
				"z": 0.9836283748,
				"element": "C" 
			},
			{
				"x": 0.1985786591,
				"y": -1.3803391036,
				"z": 0.1676528433,
				"element": "N" 
			},
			{
				"x": -0.6350608611,
				"y": -1.4648150341,
				"z": -0.8713045623,
				"element": "N" 
			},
			{
				"x": -2.3166946141,
				"y": 0.1325169254,
				"z": -3.0086486057,
				"element": "H" 
			},
			{
				"x": -2.1719155438,
				"y": -1.6270072006,
				"z": -2.7920771696,
				"element": "H" 
			},
			{
				"x": -3.4854337264,
				"y": -0.7253554245,
				"z": -2.0011842281,
				"element": "H" 
			},
			{
				"x": -2.3875606461,
				"y": 1.3961680551,
				"z": -0.4676284342,
				"element": "H" 
			},
			{
				"x": -0.8089847827,
				"y": 1.5577857911,
				"z": 1.5011112044,
				"element": "H" 
			},
			{
				"x": 0.8403405945,
				"y": -0.3309460707,
				"z": 1.8057865668,
				"element": "H" 
			}
		],
		 "valence_orbital": [ 
			{
				"type": "occ",
				"energy": -0.38632,
				"method": "rhf"
			},
			{
				"type": "occ",
				"energy": -0.3047,
				"method": "rhf"
			},
			{
				"type": "occ",
				"energy": -0.30365,
				"method": "rhf"
			},
			{
				"type": "occ",
				"energy": -0.27905,
				"method": "rhf"
			},
			{
				"type": "occ",
				"energy": -0.22741,
				"method": "rhf"
			},
			{
				"type": "unocc",
				"energy": -0.04641,
				"method": "rhf"
			},
			{
				"type": "unocc",
				"energy": -0.02352,
				"method": "rhf"
			},
			{
				"type": "unocc",
				"energy": 0.09137,
				"method": "rhf"
			},
			{
				"type": "unocc",
				"energy": 0.1168,
				"method": "rhf"
			},
			{
				"type": "unocc",
				"energy": 0.11868,
				"method": "rhf"
			}
		],
		"cosmo_sigma_profile": { 
			"-0.025": 0.0,
			"-0.024": 0.0,
			"-0.023": 0.0,
			"-0.022": 0.0,
			"-0.021": 0.0,
			"-0.02": 0.0,
			"-0.019": 0.0,
			"-0.018": 0.0,
			"-0.017": 0.0,
			"-0.016": 0.0,
			"-0.015": 0.0,
			"-0.014": 0.0,
			"-0.013": 0.0,
			"-0.012": 0.0,
			"-0.011": 0.0,
			"-0.01": 0.0,
			"-0.009": 0.10501036676,
			"-0.008": 4.53832010133,
			"-0.007": 7.89137336758,
			"-0.006": 8.27700270958,
			"-0.005": 10.5055277493,
			"-0.004": 11.287639727,
			"-0.003": 9.80801372001,
			"-0.002": 10.1711833229,
			"-0.001": 13.9817010772,
			"0.0": 16.1173785127,
			"0.001": 9.2274372475,
			"0.002": 2.95759989201,
			"0.003": 2.77661865973,
			"0.004": 2.63804092828,
			"0.005": 1.70271917533,
			"0.006": 1.72467483713,
			"0.007": 2.44594902013,
			"0.008": 2.15196171522,
			"0.009": 1.13868309348,
			"0.01": 1.81299347037,
			"0.011": 2.14264190668,
			"0.012": 1.79850341413,
			"0.013": 2.18404178359,
			"0.014": 2.39301389996,
			"0.015": 3.01915247041,
			"0.016": 1.63787314762,
			"0.017": 0.516717349015,
			"0.018": 0.0,
			"0.019": 0.0,
			"0.02": 0.0,
			"0.021": 0.0,
			"0.022": 0.0,
			"0.023": 0.0,
			"0.024": 0.0,
			"0.025": 0.0
		}
	}
}
