{
	 "smiles": "CN(C)CC1=NC2=C(C=CC=C2)C(S)=N1", 
	 "Tm": 405.15, 
	 "num_atms": 28, 
	 "gaussian": { 
		 "optdone": 1, 
		 "sigma_profile": "yes", 
		 "theory": "DFT", 
		 "functional": "B3LYP", 
		 "basiset": "6-31G**", 
		 "properties": { 
			 "R2extent": 4255.8853, 
			 "electric_dipole_moment_norm": 2.05830822279, 
			 "electric_quadrupole_moment_norm": 7.41251115345, 
			 "total_energy": -989.445290764, 
			 "HOMO_LUMO_gap": 0.13557, 
			 "cosmo_polarized_energy": -8.55, 
			 "cosmo_cavitation_energy": 32.64, 
			 "cosmo_dispersion_energy": -23.63, 
			 "cosmo_repulsion_energy": 1.8, 
			 "cosmo_total_nonelectrostatic_energy": 10.81, 
			 "SMD_solvation_energy": 0.49 
		},
		"coords": [
			{
				"x": -1.7970213667,
				"y": 1.9114135,
				"z": 1.7739615607,
				"element": "C" 
			},
			{
				"x": -2.2367195308,
				"y": 1.6363641376,
				"z": 0.4129722282,
				"element": "N" 
			},
			{
				"x": -1.4529051362,
				"y": 2.3515322792,
				"z": -0.584449328,
				"element": "C" 
			},
			{
				"x": -2.4382063719,
				"y": 0.2173030015,
				"z": 0.1100110081,
				"element": "C" 
			},
			{
				"x": -1.1793121781,
				"y": -0.6359172845,
				"z": 0.0936727778,
				"element": "C" 
			},
			{
				"x": -0.5614050422,
				"y": -0.8087100815,
				"z": -1.0576641509,
				"element": "N" 
			},
			{
				"x": 0.5900612672,
				"y": -1.5434679227,
				"z": -1.0410500586,
				"element": "C" 
			},
			{
				"x": 1.1109610988,
				"y": -2.103979657,
				"z": 0.1629592146,
				"element": "C" 
			},
			{
				"x": 2.3057753409,
				"y": -2.8632699111,
				"z": 0.1255756156,
				"element": "C" 
			},
			{
				"x": 2.9627706308,
				"y": -3.0577733517,
				"z": -1.0703447859,
				"element": "C" 
			},
			{
				"x": 2.4487645815,
				"y": -2.5022489874,
				"z": -2.2671555851,
				"element": "C" 
			},
			{
				"x": 1.2875425446,
				"y": -1.7611544126,
				"z": -2.2568344919,
				"element": "C" 
			},
			{
				"x": 0.3394492626,
				"y": -1.8297758721,
				"z": 1.3357959337,
				"element": "C" 
			},
			{
				"x": 0.8772966794,
				"y": -2.4668604014,
				"z": 2.9124721544,
				"element": "S" 
			},
			{
				"x": -0.7681794998,
				"y": -1.1219035655,
				"z": 1.30606918,
				"element": "N" 
			},
			{
				"x": -0.7570007308,
				"y": 1.6082317912,
				"z": 1.9872794566,
				"element": "H" 
			},
			{
				"x": -2.4466139719,
				"y": 1.3900229998,
				"z": 2.4836910078,
				"element": "H" 
			},
			{
				"x": -1.8777390178,
				"y": 2.9880695183,
				"z": 1.962621077,
				"element": "H" 
			},
			{
				"x": -1.5211227715,
				"y": 3.4272795098,
				"z": -0.3870675728,
				"element": "H" 
			},
			{
				"x": -0.3828299753,
				"y": 2.0783347813,
				"z": -0.602889464,
				"element": "H" 
			},
			{
				"x": -1.8603757633,
				"y": 2.1589476772,
				"z": -1.5815478518,
				"element": "H" 
			},
			{
				"x": -2.9034802057,
				"y": 0.1450750627,
				"z": -0.8778217448,
				"element": "H" 
			},
			{
				"x": -3.1253181037,
				"y": -0.193078715,
				"z": 0.8573940689,
				"element": "H" 
			},
			{
				"x": 2.7028043056,
				"y": -3.291677391,
				"z": 1.041067405,
				"element": "H" 
			},
			{
				"x": 3.8789312743,
				"y": -3.6395748579,
				"z": -1.097736681,
				"element": "H" 
			},
			{
				"x": 2.9788089542,
				"y": -2.665388159,
				"z": -3.201109519,
				"element": "H" 
			},
			{
				"x": 0.8735975184,
				"y": -1.3266248276,
				"z": -3.1605538212,
				"element": "H" 
			},
			{
				"x": -0.1659337926,
				"y": -1.9353688606,
				"z": 3.5766823664,
				"element": "H" 
			}
		],
		 "valence_orbital": [ 
			{
				"type": "occ",
				"energy": -0.27624,
				"method": "rhf"
			},
			{
				"type": "occ",
				"energy": -0.26659,
				"method": "rhf"
			},
			{
				"type": "occ",
				"energy": -0.24987,
				"method": "rhf"
			},
			{
				"type": "occ",
				"energy": -0.23699,
				"method": "rhf"
			},
			{
				"type": "occ",
				"energy": -0.20158,
				"method": "rhf"
			},
			{
				"type": "unocc",
				"energy": -0.06601,
				"method": "rhf"
			},
			{
				"type": "unocc",
				"energy": -0.03283,
				"method": "rhf"
			},
			{
				"type": "unocc",
				"energy": 0.01119,
				"method": "rhf"
			},
			{
				"type": "unocc",
				"energy": 0.01221,
				"method": "rhf"
			},
			{
				"type": "unocc",
				"energy": 0.06455,
				"method": "rhf"
			}
		],
		"cosmo_sigma_profile": { 
			"-0.025": 0.0,
			"-0.024": 0.0,
			"-0.023": 0.0,
			"-0.022": 0.0,
			"-0.021": 0.0,
			"-0.02": 0.0,
			"-0.019": 0.0,
			"-0.018": 0.0,
			"-0.017": 0.0,
			"-0.016": 0.0,
			"-0.015": 0.0,
			"-0.014": 0.0,
			"-0.013": 0.0,
			"-0.012": 0.164659227036,
			"-0.011": 1.20608098692,
			"-0.01": 1.43077956138,
			"-0.009": 0.864921069049,
			"-0.008": 1.39273713679,
			"-0.007": 5.84703824725,
			"-0.006": 9.62194532335,
			"-0.005": 10.1671732347,
			"-0.004": 16.7559059457,
			"-0.003": 21.4953174783,
			"-0.002": 22.8083361978,
			"-0.001": 31.8969539398,
			"0.0": 32.5722705547,
			"0.001": 22.9445346428,
			"0.002": 23.5722871608,
			"0.003": 18.4331548306,
			"0.004": 8.55926021631,
			"0.005": 6.79351407708,
			"0.006": 6.48466040008,
			"0.007": 5.12875759856,
			"0.008": 3.00701761245,
			"0.009": 2.59169188235,
			"0.01": 1.91950282256,
			"0.011": 1.30872039473,
			"0.012": 1.05618546842,
			"0.013": 1.43934664073,
			"0.014": 1.28581308396,
			"0.015": 0.504669009239,
			"0.016": 0.120038158697,
			"0.017": 0.0,
			"0.018": 0.0,
			"0.019": 0.0,
			"0.02": 0.0,
			"0.021": 0.0,
			"0.022": 0.0,
			"0.023": 0.0,
			"0.024": 0.0,
			"0.025": 0.0
		}
	}
}
