{
	 "smiles": "C1COC2(CC3=C(C=CC=C3)C3(CC4=C2C=CC=C4)OCCO3)O1", 
	 "Tm": 417.15, 
	 "num_atms": 44, 
	 "gaussian": { 
		 "optdone": 1, 
		 "sigma_profile": "yes", 
		 "theory": "DFT", 
		 "functional": "B3LYP", 
		 "basiset": "6-31G**", 
		 "properties": { 
			 "R2extent": 6662.8146, 
			 "electric_dipole_moment_norm": 0.0001, 
			 "electric_quadrupole_moment_norm": 12.2079114856, 
			 "total_energy": -1075.03512158, 
			 "HOMO_LUMO_gap": 0.21856, 
			 "cosmo_polarized_energy": -12.17, 
			 "cosmo_cavitation_energy": 42.56, 
			 "cosmo_dispersion_energy": -29.76, 
			 "cosmo_repulsion_energy": 2.23, 
			 "cosmo_total_nonelectrostatic_energy": 15.02, 
			 "SMD_solvation_energy": 6.86 
		},
		"coords": [
			{
				"x": -3.1530478382,
				"y": 0.8351641098,
				"z": 1.7196975718,
				"element": "C" 
			},
			{
				"x": -1.8578589267,
				"y": 1.5889918464,
				"z": 2.0738862486,
				"element": "C" 
			},
			{
				"x": -1.0488362345,
				"y": 1.3914488581,
				"z": 0.9205665264,
				"element": "O" 
			},
			{
				"x": -1.349829439,
				"y": 0.0787059464,
				"z": 0.4606681512,
				"element": "C" 
			},
			{
				"x": -1.1024828835,
				"y": -0.0234260658,
				"z": -1.0732242512,
				"element": "C" 
			},
			{
				"x": -0.2286541165,
				"y": 1.0565914098,
				"z": -1.6826630905,
				"element": "C" 
			},
			{
				"x": 1.1799095818,
				"y": 1.0766561431,
				"z": -1.5812168486,
				"element": "C" 
			},
			{
				"x": 1.895053194,
				"y": 2.1195097127,
				"z": -2.1813818877,
				"element": "C" 
			},
			{
				"x": 1.2483431385,
				"y": 3.1318714626,
				"z": -2.8911002739,
				"element": "C" 
			},
			{
				"x": -0.139077718,
				"y": 3.1114154305,
				"z": -3.0038197954,
				"element": "C" 
			},
			{
				"x": -0.8592210157,
				"y": 2.0810159618,
				"z": -2.4003131535,
				"element": "C" 
			},
			{
				"x": 1.9498595013,
				"y": 0.0074882064,
				"z": -0.7851169186,
				"element": "C" 
			},
			{
				"x": 1.7024717934,
				"y": 0.1096114805,
				"z": 0.7487710366,
				"element": "C" 
			},
			{
				"x": 0.8286604124,
				"y": -0.9704296813,
				"z": 1.3581905382,
				"element": "C" 
			},
			{
				"x": -0.5798999802,
				"y": -0.9904951979,
				"z": 1.2567423279,
				"element": "C" 
			},
			{
				"x": -1.2950444197,
				"y": -2.0333544526,
				"z": 1.8568970688,
				"element": "C" 
			},
			{
				"x": -0.6483322504,
				"y": -3.0457226879,
				"z": 2.5666053524,
				"element": "C" 
			},
			{
				"x": 0.7390886099,
				"y": -3.0252643353,
				"z": 2.6793283683,
				"element": "C" 
			},
			{
				"x": 1.4592306327,
				"y": -1.9948557811,
				"z": 2.0758351258,
				"element": "C" 
			},
			{
				"x": 1.6489623915,
				"y": -1.3052725013,
				"z": -1.2450291531,
				"element": "O" 
			},
			{
				"x": 2.4580249309,
				"y": -1.5027610339,
				"z": -2.3983306275,
				"element": "C" 
			},
			{
				"x": 3.7531537115,
				"y": -0.7488412222,
				"z": -2.0441153895,
				"element": "C" 
			},
			{
				"x": 3.3592008848,
				"y": 0.1494045351,
				"z": -1.0045922738,
				"element": "O" 
			},
			{
				"x": -2.7591733265,
				"y": -0.0631295263,
				"z": 0.6801860597,
				"element": "O" 
			},
			{
				"x": -3.9298033512,
				"y": 1.5016757977,
				"z": 1.3275615079,
				"element": "H" 
			},
			{
				"x": -3.5590767771,
				"y": 0.2823329908,
				"z": 2.5751816238,
				"element": "H" 
			},
			{
				"x": -1.9948337462,
				"y": 2.6637128005,
				"z": 2.2130367136,
				"element": "H" 
			},
			{
				"x": -1.3795045306,
				"y": 1.1652122895,
				"z": 2.9671199113,
				"element": "H" 
			},
			{
				"x": -0.6943358413,
				"y": -1.0110356925,
				"z": -1.2927060085,
				"element": "H" 
			},
			{
				"x": -2.0942518139,
				"y": 0.0364851402,
				"z": -1.5270494662,
				"element": "H" 
			},
			{
				"x": 2.9735828504,
				"y": 2.1317954434,
				"z": -2.074977053,
				"element": "H" 
			},
			{
				"x": 1.8285202333,
				"y": 3.9274854258,
				"z": -3.3501669206,
				"element": "H" 
			},
			{
				"x": -0.6610956821,
				"y": 3.8895853694,
				"z": -3.5536742748,
				"element": "H" 
			},
			{
				"x": -1.9427521877,
				"y": 2.0652118296,
				"z": -2.4850615421,
				"element": "H" 
			},
			{
				"x": 1.2942874464,
				"y": 1.0972089222,
				"z": 0.9682443819,
				"element": "H" 
			},
			{
				"x": 2.6942309889,
				"y": 0.0497321771,
				"z": 1.2026214611,
				"element": "H" 
			},
			{
				"x": -2.3735733586,
				"y": -2.0456410613,
				"z": 1.7504910341,
				"element": "H" 
			},
			{
				"x": -1.2285080869,
				"y": -3.8413426895,
				"z": 3.0256631488,
				"element": "H" 
			},
			{
				"x": 1.2611074516,
				"y": -3.803438206,
				"z": 3.2291764994,
				"element": "H" 
			},
			{
				"x": 2.5427613448,
				"y": -1.9790470696,
				"z": 2.1605885773,
				"element": "H" 
			},
			{
				"x": 1.9796604086,
				"y": -1.0790171544,
				"z": -3.291575717,
				"element": "H" 
			},
			{
				"x": 2.5950789798,
				"y": -2.5774725861,
				"z": -2.5374760864,
				"element": "H" 
			},
			{
				"x": 4.529955534,
				"y": -1.4152998507,
				"z": -1.6519814475,
				"element": "H" 
			},
			{
				"x": 4.1591495042,
				"y": -0.1959664938,
				"z": -2.8995870556,
				"element": "H" 
			}
		],
		 "valence_orbital": [ 
			{
				"type": "occ",
				"energy": -0.25804,
				"method": "rhf"
			},
			{
				"type": "occ",
				"energy": -0.24163,
				"method": "rhf"
			},
			{
				"type": "occ",
				"energy": -0.23979,
				"method": "rhf"
			},
			{
				"type": "occ",
				"energy": -0.23496,
				"method": "rhf"
			},
			{
				"type": "occ",
				"energy": -0.22712,
				"method": "rhf"
			},
			{
				"type": "unocc",
				"energy": -0.00856,
				"method": "rhf"
			},
			{
				"type": "unocc",
				"energy": 0.00767,
				"method": "rhf"
			},
			{
				"type": "unocc",
				"energy": 0.00788,
				"method": "rhf"
			},
			{
				"type": "unocc",
				"energy": 0.00931,
				"method": "rhf"
			},
			{
				"type": "unocc",
				"energy": 0.08824,
				"method": "rhf"
			}
		],
		"cosmo_sigma_profile": { 
			"-0.025": 0.0,
			"-0.024": 0.0,
			"-0.023": 0.0,
			"-0.022": 0.0,
			"-0.021": 0.0,
			"-0.02": 0.0,
			"-0.019": 0.0,
			"-0.018": 0.0,
			"-0.017": 0.0,
			"-0.016": 0.0,
			"-0.015": 0.0,
			"-0.014": 0.0,
			"-0.013": 0.0,
			"-0.012": 0.0,
			"-0.011": 0.0,
			"-0.01": 0.0,
			"-0.009": 0.0,
			"-0.008": 0.0,
			"-0.007": 0.885175133635,
			"-0.006": 10.7501502432,
			"-0.005": 38.5912525699,
			"-0.004": 38.7852536965,
			"-0.003": 34.5520627583,
			"-0.002": 27.8862791657,
			"-0.001": 24.8735532726,
			"0.0": 23.4721909625,
			"0.001": 18.2199163437,
			"0.002": 21.7834491351,
			"0.003": 19.329181694,
			"0.004": 18.1829722878,
			"0.005": 17.3380379672,
			"0.006": 15.4143323792,
			"0.007": 7.17086232839,
			"0.008": 5.65498241052,
			"0.009": 3.58507430561,
			"0.01": 4.32030944958,
			"0.011": 3.76592099302,
			"0.012": 1.81883249839,
			"0.013": 0.0122047003476,
			"0.014": 0.0,
			"0.015": 0.0,
			"0.016": 0.0,
			"0.017": 0.0,
			"0.018": 0.0,
			"0.019": 0.0,
			"0.02": 0.0,
			"0.021": 0.0,
			"0.022": 0.0,
			"0.023": 0.0,
			"0.024": 0.0,
			"0.025": 0.0
		}
	}
}
