{
	 "smiles": "COC1=C(C=C(C=C1)C(O)=O)S(=O)(=O)NC(C)(C)C", 
	 "Tm": 492.15, 
	 "num_atms": 36, 
	 "gaussian": { 
		 "optdone": 1, 
		 "sigma_profile": "yes", 
		 "theory": "DFT", 
		 "functional": "B3LYP", 
		 "basiset": "6-31G**", 
		 "properties": { 
			 "R2extent": 6596.0288, 
			 "electric_dipole_moment_norm": 4.68152090778, 
			 "electric_quadrupole_moment_norm": 25.7791299929, 
			 "total_energy": -1296.51016811, 
			 "HOMO_LUMO_gap": 0.1995, 
			 "cosmo_polarized_energy": -22.41, 
			 "cosmo_cavitation_energy": 38.91, 
			 "cosmo_dispersion_energy": -27.23, 
			 "cosmo_repulsion_energy": 2.04, 
			 "cosmo_total_nonelectrostatic_energy": 13.72, 
			 "SMD_solvation_energy": 7.87 
		},
		"coords": [
			{
				"x": -2.1040126374,
				"y": -2.3482441562,
				"z": 1.4409569966,
				"element": "C" 
			},
			{
				"x": -1.5908235408,
				"y": -1.1372207341,
				"z": 0.858586793,
				"element": "O" 
			},
			{
				"x": -0.9043698536,
				"y": -0.3138986638,
				"z": 1.7054919561,
				"element": "C" 
			},
			{
				"x": 0.4941011829,
				"y": -0.2041267877,
				"z": 1.629700912,
				"element": "C" 
			},
			{
				"x": 1.1669341663,
				"y": 0.693680641,
				"z": 2.4625102734,
				"element": "C" 
			},
			{
				"x": 0.4655162296,
				"y": 1.4880248428,
				"z": 3.3734308472,
				"element": "C" 
			},
			{
				"x": -0.932753454,
				"y": 1.3901465557,
				"z": 3.4290180005,
				"element": "C" 
			},
			{
				"x": -1.6064612323,
				"y": 0.4935030667,
				"z": 2.611597593,
				"element": "C" 
			},
			{
				"x": 1.1329771212,
				"y": 2.4774285272,
				"z": 4.2821899305,
				"element": "C" 
			},
			{
				"x": 2.4628837726,
				"y": 2.317743628,
				"z": 4.5008340791,
				"element": "O" 
			},
			{
				"x": 0.5365836254,
				"y": 3.3875573175,
				"z": 4.808726759,
				"element": "O" 
			},
			{
				"x": 1.5148364361,
				"y": -1.2366555366,
				"z": 0.539548182,
				"element": "S" 
			},
			{
				"x": 2.8868667445,
				"y": -1.0258137895,
				"z": 1.0178221941,
				"element": "O" 
			},
			{
				"x": 0.9166510129,
				"y": -2.5702836611,
				"z": 0.5127116551,
				"element": "O" 
			},
			{
				"x": 1.5445947255,
				"y": -0.607714865,
				"z": -0.9972785407,
				"element": "N" 
			},
			{
				"x": 0.5344256957,
				"y": -0.5773011001,
				"z": -2.0968926558,
				"element": "C" 
			},
			{
				"x": -0.1476969179,
				"y": -1.9432767776,
				"z": -2.2513849969,
				"element": "C" 
			},
			{
				"x": -0.5084520321,
				"y": 0.5344599343,
				"z": -1.8778040975,
				"element": "C" 
			},
			{
				"x": 1.362737808,
				"y": -0.2702672701,
				"z": -3.359087581,
				"element": "C" 
			},
			{
				"x": -2.7122900683,
				"y": -2.8193647251,
				"z": 0.6679201233,
				"element": "H" 
			},
			{
				"x": -1.2775194374,
				"y": -3.008692869,
				"z": 1.7159510539,
				"element": "H" 
			},
			{
				"x": -2.7284560303,
				"y": -2.1294954369,
				"z": 2.3146196791,
				"element": "H" 
			},
			{
				"x": 2.2465750455,
				"y": 0.7459197695,
				"z": 2.3634469575,
				"element": "H" 
			},
			{
				"x": -1.4687996519,
				"y": 2.0323052073,
				"z": 4.1193821037,
				"element": "H" 
			},
			{
				"x": -2.6886299242,
				"y": 0.4155256338,
				"z": 2.643268467,
				"element": "H" 
			},
			{
				"x": 2.7702561238,
				"y": 1.4691069596,
				"z": 4.1526913801,
				"element": "H" 
			},
			{
				"x": 2.2355998041,
				"y": 0.1341004445,
				"z": -1.0334712149,
				"element": "H" 
			},
			{
				"x": 0.5927751769,
				"y": -2.7369940561,
				"z": -2.3754360926,
				"element": "H" 
			},
			{
				"x": -0.7890726627,
				"y": -1.918037887,
				"z": -3.1381411246,
				"element": "H" 
			},
			{
				"x": -0.7636568495,
				"y": -2.1822310485,
				"z": -1.3849950732,
				"element": "H" 
			},
			{
				"x": -1.1549503484,
				"y": 0.6217260271,
				"z": -2.7575795097,
				"element": "H" 
			},
			{
				"x": -0.0219825025,
				"y": 1.5037064578,
				"z": -1.7228786256,
				"element": "H" 
			},
			{
				"x": -1.1444592467,
				"y": 0.316590204,
				"z": -1.0181869003,
				"element": "H" 
			},
			{
				"x": 0.7060192451,
				"y": -0.2225627629,
				"z": -4.2326255364,
				"element": "H" 
			},
			{
				"x": 2.1150896778,
				"y": -1.0452977304,
				"z": -3.5283885368,
				"element": "H" 
			},
			{
				"x": 1.872962796,
				"y": 0.697054641,
				"z": -3.2763554504,
				"element": "H" 
			}
		],
		 "valence_orbital": [ 
			{
				"type": "occ",
				"energy": -0.30398,
				"method": "rhf"
			},
			{
				"type": "occ",
				"energy": -0.29069,
				"method": "rhf"
			},
			{
				"type": "occ",
				"energy": -0.28046,
				"method": "rhf"
			},
			{
				"type": "occ",
				"energy": -0.27503,
				"method": "rhf"
			},
			{
				"type": "occ",
				"energy": -0.26237,
				"method": "rhf"
			},
			{
				"type": "unocc",
				"energy": -0.06287,
				"method": "rhf"
			},
			{
				"type": "unocc",
				"energy": -0.04844,
				"method": "rhf"
			},
			{
				"type": "unocc",
				"energy": 0.02889,
				"method": "rhf"
			},
			{
				"type": "unocc",
				"energy": 0.04147,
				"method": "rhf"
			},
			{
				"type": "unocc",
				"energy": 0.05358,
				"method": "rhf"
			}
		],
		"cosmo_sigma_profile": { 
			"-0.025": 0.0,
			"-0.024": 0.0,
			"-0.023": 0.0,
			"-0.022": 0.0,
			"-0.021": 0.0,
			"-0.02": 0.044587719559,
			"-0.019": 0.54934334052,
			"-0.018": 0.977145590562,
			"-0.017": 1.00685429984,
			"-0.016": 1.26691349026,
			"-0.015": 0.710629604738,
			"-0.014": 1.35890393113,
			"-0.013": 2.12575734699,
			"-0.012": 2.0016393339,
			"-0.011": 2.51308088728,
			"-0.01": 1.83721137548,
			"-0.009": 2.47104774453,
			"-0.008": 3.53295392175,
			"-0.007": 7.22217935961,
			"-0.006": 10.9268146886,
			"-0.005": 13.316655337,
			"-0.004": 23.7850628324,
			"-0.003": 29.9414377044,
			"-0.002": 23.4974101134,
			"-0.001": 28.8275391248,
			"0.0": 32.3085781479,
			"0.001": 26.0410596127,
			"0.002": 10.1753690796,
			"0.003": 7.02735471598,
			"0.004": 6.98761636268,
			"0.005": 6.64575830713,
			"0.006": 8.15409633125,
			"0.007": 7.07935360179,
			"0.008": 6.58584450027,
			"0.009": 7.43335780523,
			"0.01": 9.80799083575,
			"0.011": 11.5198433542,
			"0.012": 8.34435468593,
			"0.013": 1.02191826006,
			"0.014": 0.0,
			"0.015": 0.0,
			"0.016": 0.0,
			"0.017": 0.0,
			"0.018": 0.0,
			"0.019": 0.0,
			"0.02": 0.0,
			"0.021": 0.0,
			"0.022": 0.0,
			"0.023": 0.0,
			"0.024": 0.0,
			"0.025": 0.0
		}
	}
}
