{
	 "smiles": "COC1=CC=C(CNC(=O)C(=CN(C)C)C#N)C=C1", 
	 "Tm": 402.15, 
	 "num_atms": 36, 
	 "gaussian": { 
		 "optdone": 1, 
		 "sigma_profile": "yes", 
		 "theory": "DFT", 
		 "functional": "B3LYP", 
		 "basiset": "6-31G**", 
		 "properties": { 
			 "R2extent": 6810.5321, 
			 "electric_dipole_moment_norm": 4.53352042126, 
			 "electric_quadrupole_moment_norm": 22.8257240203, 
			 "total_energy": -858.407203156, 
			 "HOMO_LUMO_gap": 0.1851, 
			 "cosmo_polarized_energy": -20.37, 
			 "cosmo_cavitation_energy": 40.05, 
			 "cosmo_dispersion_energy": -27.29, 
			 "cosmo_repulsion_energy": 2.13, 
			 "cosmo_total_nonelectrostatic_energy": 14.89, 
			 "SMD_solvation_energy": 8.69 
		},
		"coords": [
			{
				"x": 0.910903451,
				"y": 4.4948081595,
				"z": -1.4508374559,
				"element": "C" 
			},
			{
				"x": -0.4419983944,
				"y": 4.0975152195,
				"z": -1.3038750848,
				"element": "O" 
			},
			{
				"x": -0.7562005928,
				"y": 2.7866226958,
				"z": -1.5274631893,
				"element": "C" 
			},
			{
				"x": 0.1635686942,
				"y": 1.794091878,
				"z": -1.8785568897,
				"element": "C" 
			},
			{
				"x": -0.2795711551,
				"y": 0.4819379911,
				"z": -2.0790683267,
				"element": "C" 
			},
			{
				"x": -1.62476182,
				"y": 0.1370541944,
				"z": -1.9429436404,
				"element": "C" 
			},
			{
				"x": -2.0909536186,
				"y": -1.2840154664,
				"z": -2.2165460719,
				"element": "C" 
			},
			{
				"x": -2.9415819425,
				"y": -1.8817371003,
				"z": -1.1783861832,
				"element": "N" 
			},
			{
				"x": -2.6906494095,
				"y": -2.0780229186,
				"z": 0.1611747072,
				"element": "C" 
			},
			{
				"x": -3.6393814726,
				"y": -2.1316370337,
				"z": 0.9480516452,
				"element": "O" 
			},
			{
				"x": -1.2852054354,
				"y": -2.2694108662,
				"z": 0.6462825649,
				"element": "C" 
			},
			{
				"x": -1.1673899751,
				"y": -2.2217067352,
				"z": 2.0225380039,
				"element": "C" 
			},
			{
				"x": -0.1315043458,
				"y": -2.358220914,
				"z": 2.8657853078,
				"element": "N" 
			},
			{
				"x": 1.2585715919,
				"y": -2.6001857814,
				"z": 2.4931942109,
				"element": "C" 
			},
			{
				"x": -0.3500929938,
				"y": -2.2290484843,
				"z": 4.3027460999,
				"element": "C" 
			},
			{
				"x": -0.2181769912,
				"y": -2.5716420063,
				"z": -0.235129571,
				"element": "C" 
			},
			{
				"x": 0.6540372128,
				"y": -2.8388564345,
				"z": -0.965943367,
				"element": "N" 
			},
			{
				"x": -2.5337952792,
				"y": 1.1472603347,
				"z": -1.5873486008,
				"element": "C" 
			},
			{
				"x": -2.1120607805,
				"y": 2.4527117156,
				"z": -1.3792503259,
				"element": "C" 
			},
			{
				"x": 0.9367287557,
				"y": 5.5650163483,
				"z": -1.238983981,
				"element": "H" 
			},
			{
				"x": 1.2769680864,
				"y": 4.3204799753,
				"z": -2.4710784402,
				"element": "H" 
			},
			{
				"x": 1.5674836489,
				"y": 3.9718515886,
				"z": -0.7430346475,
				"element": "H" 
			},
			{
				"x": 1.2171475562,
				"y": 2.0212161929,
				"z": -1.9912624056,
				"element": "H" 
			},
			{
				"x": 0.4450032791,
				"y": -0.2871790792,
				"z": -2.3322843926,
				"element": "H" 
			},
			{
				"x": -2.6999370645,
				"y": -1.3050367658,
				"z": -3.1277502569,
				"element": "H" 
			},
			{
				"x": -1.2288803169,
				"y": -1.9224536856,
				"z": -2.4125862753,
				"element": "H" 
			},
			{
				"x": -3.938350385,
				"y": -1.7707562369,
				"z": -1.3132351287,
				"element": "H" 
			},
			{
				"x": -2.1216668587,
				"y": -2.0440227943,
				"z": 2.5121703664,
				"element": "H" 
			},
			{
				"x": 1.8831559496,
				"y": -1.7601516005,
				"z": 2.8212147461,
				"element": "H" 
			},
			{
				"x": 1.3657366181,
				"y": -2.72019171,
				"z": 1.4193602957,
				"element": "H" 
			},
			{
				"x": 1.6197623894,
				"y": -3.5091652531,
				"z": 2.9885683931,
				"element": "H" 
			},
			{
				"x": 0.2340860129,
				"y": -1.392675744,
				"z": 4.7063438181,
				"element": "H" 
			},
			{
				"x": -0.038949944,
				"y": -3.1447197794,
				"z": 4.8200095795,
				"element": "H" 
			},
			{
				"x": -1.4060573834,
				"y": -2.0515580718,
				"z": 4.5084263091,
				"element": "H" 
			},
			{
				"x": -3.5869860584,
				"y": 0.9068894322,
				"z": -1.4642088366,
				"element": "H" 
			},
			{
				"x": -2.8110010287,
				"y": 3.2359387358,
				"z": -1.1038929768,
				"element": "H" 
			}
		],
		 "valence_orbital": [ 
			{
				"type": "occ",
				"energy": -0.25313,
				"method": "rhf"
			},
			{
				"type": "occ",
				"energy": -0.24609,
				"method": "rhf"
			},
			{
				"type": "occ",
				"energy": -0.23859,
				"method": "rhf"
			},
			{
				"type": "occ",
				"energy": -0.2157,
				"method": "rhf"
			},
			{
				"type": "occ",
				"energy": -0.21144,
				"method": "rhf"
			},
			{
				"type": "unocc",
				"energy": -0.02634,
				"method": "rhf"
			},
			{
				"type": "unocc",
				"energy": 0.00195,
				"method": "rhf"
			},
			{
				"type": "unocc",
				"energy": 0.01222,
				"method": "rhf"
			},
			{
				"type": "unocc",
				"energy": 0.03135,
				"method": "rhf"
			},
			{
				"type": "unocc",
				"energy": 0.04075,
				"method": "rhf"
			}
		],
		"cosmo_sigma_profile": { 
			"-0.025": 0.0,
			"-0.024": 0.0,
			"-0.023": 0.0,
			"-0.022": 0.0,
			"-0.021": 0.0,
			"-0.02": 0.0,
			"-0.019": 0.0,
			"-0.018": 0.0,
			"-0.017": 0.0,
			"-0.016": 0.0,
			"-0.015": 0.0,
			"-0.014": 0.0112499598782,
			"-0.013": 0.642547807856,
			"-0.012": 1.23065075824,
			"-0.011": 1.05651434127,
			"-0.01": 1.45093273898,
			"-0.009": 2.73222166225,
			"-0.008": 3.2041370109,
			"-0.007": 5.57909750284,
			"-0.006": 23.1032930237,
			"-0.005": 29.4333409712,
			"-0.004": 29.8477451521,
			"-0.003": 39.4894693922,
			"-0.002": 22.6001141221,
			"-0.001": 16.164534158,
			"0.0": 14.7300465717,
			"0.001": 14.5635509325,
			"0.002": 13.9515238865,
			"0.003": 16.7305847582,
			"0.004": 16.7958184274,
			"0.005": 15.067417173,
			"0.006": 11.5342406097,
			"0.007": 4.79060238489,
			"0.008": 3.67584474574,
			"0.009": 4.94621942561,
			"0.01": 4.46155732304,
			"0.011": 3.75659197044,
			"0.012": 4.2817164592,
			"0.013": 4.91279640051,
			"0.014": 6.49664755268,
			"0.015": 0.903919842392,
			"0.016": 0.0,
			"0.017": 0.0,
			"0.018": 0.0,
			"0.019": 0.0,
			"0.02": 0.0,
			"0.021": 0.0,
			"0.022": 0.0,
			"0.023": 0.0,
			"0.024": 0.0,
			"0.025": 0.0
		}
	}
}
