{
	 "smiles": "OC(=O)CNC(=O)COC1=CC=CC=C1", 
	 "Tm": 363.15, 
	 "num_atms": 26, 
	 "gaussian": { 
		 "optdone": 1, 
		 "sigma_profile": "yes", 
		 "theory": "DFT", 
		 "functional": "B3LYP", 
		 "basiset": "6-31G**", 
		 "properties": { 
			 "R2extent": 4234.7556, 
			 "electric_dipole_moment_norm": 1.09665543814, 
			 "electric_quadrupole_moment_norm": 13.3618403006, 
			 "total_energy": -743.347494831, 
			 "HOMO_LUMO_gap": 0.21234, 
			 "cosmo_polarized_energy": -17.52, 
			 "cosmo_cavitation_energy": 30.76, 
			 "cosmo_dispersion_energy": -21.79, 
			 "cosmo_repulsion_energy": 1.74, 
			 "cosmo_total_nonelectrostatic_energy": 10.72, 
			 "SMD_solvation_energy": 6.95 
		},
		"coords": [
			{
				"x": 1.7314931783,
				"y": 2.1835731214,
				"z": -3.035464099,
				"element": "O" 
			},
			{
				"x": 0.3952988439,
				"y": 2.3154519531,
				"z": -2.8720332901,
				"element": "C" 
			},
			{
				"x": -0.3692343288,
				"y": 2.52680202,
				"z": -3.7845998192,
				"element": "O" 
			},
			{
				"x": -0.044727913,
				"y": 2.1113473634,
				"z": -1.424030276,
				"element": "C" 
			},
			{
				"x": 0.925828177,
				"y": 2.4533796219,
				"z": -0.4052489487,
				"element": "N" 
			},
			{
				"x": 1.9326334649,
				"y": 1.6720252325,
				"z": 0.0969842198,
				"element": "C" 
			},
			{
				"x": 2.8150424056,
				"y": 2.1404715705,
				"z": 0.8042607873,
				"element": "O" 
			},
			{
				"x": 1.934654039,
				"y": 0.1777785561,
				"z": -0.2640515491,
				"element": "C" 
			},
			{
				"x": 0.6970492719,
				"y": -0.4981556815,
				"z": -0.0727368772,
				"element": "O" 
			},
			{
				"x": 0.3023054181,
				"y": -0.8016712809,
				"z": 1.2130441644,
				"element": "C" 
			},
			{
				"x": -0.8483488922,
				"y": -1.594450675,
				"z": 1.3104822489,
				"element": "C" 
			},
			{
				"x": -1.330573753,
				"y": -1.9622382104,
				"z": 2.5625746348,
				"element": "C" 
			},
			{
				"x": -0.6726280199,
				"y": -1.5476454193,
				"z": 3.7251511756,
				"element": "C" 
			},
			{
				"x": 0.4700525325,
				"y": -0.7579285835,
				"z": 3.6168322567,
				"element": "C" 
			},
			{
				"x": 0.9684833596,
				"y": -0.3754824218,
				"z": 2.3667394065,
				"element": "C" 
			},
			{
				"x": 1.9030712863,
				"y": 2.2954942313,
				"z": -3.9859774144,
				"element": "H" 
			},
			{
				"x": -0.3283969983,
				"y": 1.0603768789,
				"z": -1.3150077076,
				"element": "H" 
			},
			{
				"x": -0.9543000474,
				"y": 2.7002177317,
				"z": -1.28461608,
				"element": "H" 
			},
			{
				"x": 1.0440424584,
				"y": 3.4327356344,
				"z": -0.1774030475,
				"element": "H" 
			},
			{
				"x": 2.1615180041,
				"y": 0.0728274084,
				"z": -1.32940912,
				"element": "H" 
			},
			{
				"x": 2.7394133856,
				"y": -0.2837567636,
				"z": 0.3149177731,
				"element": "H" 
			},
			{
				"x": -1.3408008274,
				"y": -1.9137935647,
				"z": 0.3975319744,
				"element": "H" 
			},
			{
				"x": -2.2224647874,
				"y": -2.5787038222,
				"z": 2.6303355139,
				"element": "H" 
			},
			{
				"x": -1.0496475028,
				"y": -1.8364765455,
				"z": 4.7012900471,
				"element": "H" 
			},
			{
				"x": 0.9880182695,
				"y": -0.4241667905,
				"z": 4.5114406432,
				"element": "H" 
			},
			{
				"x": 1.8472189755,
				"y": 0.2562884354,
				"z": 2.3099933832,
				"element": "H" 
			}
		],
		 "valence_orbital": [ 
			{
				"type": "occ",
				"energy": -0.30575,
				"method": "rhf"
			},
			{
				"type": "occ",
				"energy": -0.26214,
				"method": "rhf"
			},
			{
				"type": "occ",
				"energy": -0.25883,
				"method": "rhf"
			},
			{
				"type": "occ",
				"energy": -0.25167,
				"method": "rhf"
			},
			{
				"type": "occ",
				"energy": -0.22367,
				"method": "rhf"
			},
			{
				"type": "unocc",
				"energy": -0.01133,
				"method": "rhf"
			},
			{
				"type": "unocc",
				"energy": -0.00421,
				"method": "rhf"
			},
			{
				"type": "unocc",
				"energy": 0.0083,
				"method": "rhf"
			},
			{
				"type": "unocc",
				"energy": 0.01015,
				"method": "rhf"
			},
			{
				"type": "unocc",
				"energy": 0.05737,
				"method": "rhf"
			}
		],
		"cosmo_sigma_profile": { 
			"-0.025": 0.0,
			"-0.024": 0.0,
			"-0.023": 0.0,
			"-0.022": 0.0,
			"-0.021": 0.0,
			"-0.02": 0.0,
			"-0.019": 0.288898218083,
			"-0.018": 0.800038783249,
			"-0.017": 0.966617686437,
			"-0.016": 1.28330790857,
			"-0.015": 0.957164074382,
			"-0.014": 1.76338764915,
			"-0.013": 2.1250022704,
			"-0.012": 1.92270400963,
			"-0.011": 2.18887594254,
			"-0.01": 1.69400823706,
			"-0.009": 1.97946226809,
			"-0.008": 4.43888852907,
			"-0.007": 6.40854915678,
			"-0.006": 13.9888432961,
			"-0.005": 18.0314638193,
			"-0.004": 17.8078632798,
			"-0.003": 17.1947704731,
			"-0.002": 13.0933937096,
			"-0.001": 11.9626417653,
			"0.0": 12.1394869148,
			"0.001": 13.9725308083,
			"0.002": 13.8828933855,
			"0.003": 14.4102865771,
			"0.004": 14.9841935768,
			"0.005": 12.7836679245,
			"0.006": 9.67276959408,
			"0.007": 4.91019581415,
			"0.008": 3.03682219655,
			"0.009": 3.08744821105,
			"0.01": 3.72462803587,
			"0.011": 6.59536177214,
			"0.012": 6.10064229571,
			"0.013": 4.89391582904,
			"0.014": 1.41515261479,
			"0.015": 0.0,
			"0.016": 0.0,
			"0.017": 0.0,
			"0.018": 0.0,
			"0.019": 0.0,
			"0.02": 0.0,
			"0.021": 0.0,
			"0.022": 0.0,
			"0.023": 0.0,
			"0.024": 0.0,
			"0.025": 0.0
		}
	}
}
