{
	 "smiles": "OC(=O)C1CCN(CC1)C(=O)CSC1=NN=C(O1)C1=CC=CC=C1", 
	 "Tm": 378.15, 
	 "num_atms": 41, 
	 "gaussian": { 
		 "optdone": 1, 
		 "sigma_profile": "yes", 
		 "theory": "DFT", 
		 "functional": "B3LYP", 
		 "basiset": "6-31G**", 
		 "properties": { 
			 "R2extent": 11371.4998, 
			 "electric_dipole_moment_norm": 3.79918266605, 
			 "electric_quadrupole_moment_norm": 22.3394873945, 
			 "total_energy": -1483.28306938, 
			 "HOMO_LUMO_gap": 0.17475, 
			 "cosmo_polarized_energy": -21.63, 
			 "cosmo_cavitation_energy": 46.38, 
			 "cosmo_dispersion_energy": -32.71, 
			 "cosmo_repulsion_energy": 2.45, 
			 "cosmo_total_nonelectrostatic_energy": 16.12, 
			 "SMD_solvation_energy": 7.23 
		},
		"coords": [
			{
				"x": -3.3398536455,
				"y": 1.092590017,
				"z": 3.8616966736,
				"element": "O" 
			},
			{
				"x": -2.0676467137,
				"y": 0.8682530431,
				"z": 4.2756588093,
				"element": "C" 
			},
			{
				"x": -1.8098224574,
				"y": 0.5405787358,
				"z": 5.4138228381,
				"element": "O" 
			},
			{
				"x": -1.071127057,
				"y": 1.1035236267,
				"z": 3.1531578856,
				"element": "C" 
			},
			{
				"x": 0.338277065,
				"y": 0.5682375116,
				"z": 3.5061632595,
				"element": "C" 
			},
			{
				"x": 1.4465447496,
				"y": 1.5223054616,
				"z": 3.0362373194,
				"element": "C" 
			},
			{
				"x": 1.1500608432,
				"y": 2.0650477267,
				"z": 1.7048641654,
				"element": "N" 
			},
			{
				"x": -0.1086745169,
				"y": 2.8222140742,
				"z": 1.5700056063,
				"element": "C" 
			},
			{
				"x": -1.0114744637,
				"y": 2.6057644744,
				"z": 2.7936192775,
				"element": "C" 
			},
			{
				"x": 1.989788787,
				"y": 1.7505171567,
				"z": 0.6737022255,
				"element": "C" 
			},
			{
				"x": 2.9872417026,
				"y": 1.0482022786,
				"z": 0.8031198996,
				"element": "O" 
			},
			{
				"x": 1.696426584,
				"y": 2.3851442175,
				"z": -0.697277681,
				"element": "C" 
			},
			{
				"x": 1.7682941818,
				"y": 1.1759433629,
				"z": -2.0745779868,
				"element": "S" 
			},
			{
				"x": 0.2295551545,
				"y": 0.3918349394,
				"z": -1.8170050052,
				"element": "C" 
			},
			{
				"x": -0.7034713802,
				"y": 0.6395499541,
				"z": -0.9451823479,
				"element": "N" 
			},
			{
				"x": -1.715811757,
				"y": -0.2901422539,
				"z": -1.1885108307,
				"element": "N" 
			},
			{
				"x": -1.3230628344,
				"y": -1.0244908968,
				"z": -2.1851038122,
				"element": "C" 
			},
			{
				"x": -0.0812969832,
				"y": -0.6440097902,
				"z": -2.6398015189,
				"element": "O" 
			},
			{
				"x": -2.009399122,
				"y": -2.1355232477,
				"z": -2.8318570929,
				"element": "C" 
			},
			{
				"x": -3.2822924097,
				"y": -2.5133648262,
				"z": -2.3721110698,
				"element": "C" 
			},
			{
				"x": -3.9514043559,
				"y": -3.5721843001,
				"z": -2.9776246358,
				"element": "C" 
			},
			{
				"x": -3.3624266844,
				"y": -4.2617174266,
				"z": -4.0419916069,
				"element": "C" 
			},
			{
				"x": -2.0976241939,
				"y": -3.8873262959,
				"z": -4.4998248463,
				"element": "C" 
			},
			{
				"x": -1.4189634344,
				"y": -2.8282290912,
				"z": -3.8999613358,
				"element": "C" 
			},
			{
				"x": -3.9060719307,
				"y": 0.9409337928,
				"z": 4.6369641321,
				"element": "H" 
			},
			{
				"x": -1.4640642143,
				"y": 0.5838764687,
				"z": 2.2710190346,
				"element": "H" 
			},
			{
				"x": 0.4817545491,
				"y": -0.4123869061,
				"z": 3.0424282031,
				"element": "H" 
			},
			{
				"x": 0.4143192112,
				"y": 0.4307815167,
				"z": 4.5888162508,
				"element": "H" 
			},
			{
				"x": 2.4052731959,
				"y": 1.0106997829,
				"z": 2.968273497,
				"element": "H" 
			},
			{
				"x": 1.5599323886,
				"y": 2.3571278945,
				"z": 3.739124826,
				"element": "H" 
			},
			{
				"x": -0.6406292637,
				"y": 2.4608963953,
				"z": 0.6865404632,
				"element": "H" 
			},
			{
				"x": 0.0930459498,
				"y": 3.8963266982,
				"z": 1.4518640138,
				"element": "H" 
			},
			{
				"x": -0.6492413703,
				"y": 3.1779425624,
				"z": 3.655568131,
				"element": "H" 
			},
			{
				"x": -2.0102180721,
				"y": 2.9819612223,
				"z": 2.5565425754,
				"element": "H" 
			},
			{
				"x": 0.7636274769,
				"y": 2.9402481378,
				"z": -0.7698092554,
				"element": "H" 
			},
			{
				"x": 2.524436975,
				"y": 3.0652300977,
				"z": -0.9170607548,
				"element": "H" 
			},
			{
				"x": -3.7273508266,
				"y": -1.9697215671,
				"z": -1.54566894,
				"element": "H" 
			},
			{
				"x": -4.934863761,
				"y": -3.8613767613,
				"z": -2.6194425324,
				"element": "H" 
			},
			{
				"x": -3.8880181904,
				"y": -5.087794491,
				"z": -4.5118475976,
				"element": "H" 
			},
			{
				"x": -1.6368907732,
				"y": -4.4209404776,
				"z": -5.3256632151,
				"element": "H" 
			},
			{
				"x": -0.4357784026,
				"y": -2.536622818,
				"z": -4.2533670213,
				"element": "H" 
			}
		],
		 "valence_orbital": [ 
			{
				"type": "occ",
				"energy": -0.27337,
				"method": "rhf"
			},
			{
				"type": "occ",
				"energy": -0.26561,
				"method": "rhf"
			},
			{
				"type": "occ",
				"energy": -0.24972,
				"method": "rhf"
			},
			{
				"type": "occ",
				"energy": -0.23682,
				"method": "rhf"
			},
			{
				"type": "occ",
				"energy": -0.22823,
				"method": "rhf"
			},
			{
				"type": "unocc",
				"energy": -0.05348,
				"method": "rhf"
			},
			{
				"type": "unocc",
				"energy": -0.01508,
				"method": "rhf"
			},
			{
				"type": "unocc",
				"energy": -0.00597,
				"method": "rhf"
			},
			{
				"type": "unocc",
				"energy": 0.00601,
				"method": "rhf"
			},
			{
				"type": "unocc",
				"energy": 0.00923,
				"method": "rhf"
			}
		],
		"cosmo_sigma_profile": { 
			"-0.025": 0.0,
			"-0.024": 0.0,
			"-0.023": 0.0,
			"-0.022": 0.0,
			"-0.021": 0.0,
			"-0.02": 0.0,
			"-0.019": 0.0,
			"-0.018": 0.564012097872,
			"-0.017": 1.13862170128,
			"-0.016": 0.836455545914,
			"-0.015": 0.578241285819,
			"-0.014": 0.732322241824,
			"-0.013": 0.577252849475,
			"-0.012": 0.548684243676,
			"-0.011": 1.11354942329,
			"-0.01": 1.80628048451,
			"-0.009": 2.805493964,
			"-0.008": 2.95461994671,
			"-0.007": 7.20271301863,
			"-0.006": 17.9055094667,
			"-0.005": 30.2499658811,
			"-0.004": 32.7891421115,
			"-0.003": 32.8903129863,
			"-0.002": 32.546216385,
			"-0.001": 27.1800317923,
			"0.0": 24.1529525867,
			"0.001": 25.722678523,
			"0.002": 22.452458892,
			"0.003": 21.606069867,
			"0.004": 20.7287071345,
			"0.005": 8.20669274678,
			"0.006": 6.67094001073,
			"0.007": 6.21147848574,
			"0.008": 5.9305828367,
			"0.009": 6.2439879545,
			"0.01": 5.32320266805,
			"0.011": 6.01771942367,
			"0.012": 7.05048248343,
			"0.013": 4.51083528444,
			"0.014": 4.61692982285,
			"0.015": 0.779619385875,
			"0.016": 0.0,
			"0.017": 0.0,
			"0.018": 0.0,
			"0.019": 0.0,
			"0.02": 0.0,
			"0.021": 0.0,
			"0.022": 0.0,
			"0.023": 0.0,
			"0.024": 0.0,
			"0.025": 0.0
		}
	}
}
