{
	 "smiles": "NC1=CC=C(C=C1N)C(=O)C1=CC=CC=C1", 
	 "Tm": 390.15, 
	 "num_atms": 28, 
	 "gaussian": { 
		 "optdone": 1, 
		 "sigma_profile": "yes", 
		 "theory": "DFT", 
		 "functional": "B3LYP", 
		 "basiset": "6-31G**", 
		 "properties": { 
			 "R2extent": 4745.4764, 
			 "electric_dipole_moment_norm": 4.66174323188, 
			 "electric_quadrupole_moment_norm": 17.5986476904, 
			 "total_energy": -687.353768591, 
			 "HOMO_LUMO_gap": 0.14873, 
			 "cosmo_polarized_energy": -17.05, 
			 "cosmo_cavitation_energy": 31.96, 
			 "cosmo_dispersion_energy": -23.34, 
			 "cosmo_repulsion_energy": 1.82, 
			 "cosmo_total_nonelectrostatic_energy": 10.45, 
			 "SMD_solvation_energy": 5.74 
		},
		"coords": [
			{
				"x": 3.6004019976,
				"y": 2.4970453163,
				"z": 2.801710641,
				"element": "N" 
			},
			{
				"x": 2.9621736322,
				"y": 1.5331833054,
				"z": 2.019675521,
				"element": "C" 
			},
			{
				"x": 3.0101806716,
				"y": 0.1639440581,
				"z": 2.3150199388,
				"element": "C" 
			},
			{
				"x": 2.3804476002,
				"y": -0.7631587926,
				"z": 1.4945077523,
				"element": "C" 
			},
			{
				"x": 1.657063982,
				"y": -0.3435777888,
				"z": 0.3678598148,
				"element": "C" 
			},
			{
				"x": 1.6361526886,
				"y": 1.027943675,
				"z": 0.0523042848,
				"element": "C" 
			},
			{
				"x": 2.2870993229,
				"y": 1.9639483418,
				"z": 0.851034266,
				"element": "C" 
			},
			{
				"x": 2.2706534628,
				"y": 3.3513501604,
				"z": 0.5834976646,
				"element": "N" 
			},
			{
				"x": 1.0280015115,
				"y": -1.3897599706,
				"z": -0.4874309297,
				"element": "C" 
			},
			{
				"x": 1.4386238069,
				"y": -2.5477850306,
				"z": -0.457153128,
				"element": "O" 
			},
			{
				"x": -0.118948626,
				"y": -1.0475721562,
				"z": -1.3998549513,
				"element": "C" 
			},
			{
				"x": -0.2667406924,
				"y": -1.8033975043,
				"z": -2.5737111269,
				"element": "C" 
			},
			{
				"x": -1.3353078133,
				"y": -1.5718564444,
				"z": -3.4351696064,
				"element": "C" 
			},
			{
				"x": -2.2894759934,
				"y": -0.5991304035,
				"z": -3.1208711508,
				"element": "C" 
			},
			{
				"x": -2.1682668939,
				"y": 0.1380216357,
				"z": -1.9420052639,
				"element": "C" 
			},
			{
				"x": -1.0858254374,
				"y": -0.0795732589,
				"z": -1.0876500858,
				"element": "C" 
			},
			{
				"x": 3.8844412886,
				"y": 2.1731701339,
				"z": 3.7169597211,
				"element": "H" 
			},
			{
				"x": 3.0878730088,
				"y": 3.3712486222,
				"z": 2.8527498423,
				"element": "H" 
			},
			{
				"x": 3.5412365742,
				"y": -0.1659442236,
				"z": 3.2049177042,
				"element": "H" 
			},
			{
				"x": 2.4240489265,
				"y": -1.8237659582,
				"z": 1.7156363123,
				"element": "H" 
			},
			{
				"x": 1.1353176146,
				"y": 1.3689253763,
				"z": -0.8490002578,
				"element": "H" 
			},
			{
				"x": 3.2024378622,
				"y": 3.7569199501,
				"z": 0.6148396765,
				"element": "H" 
			},
			{
				"x": 1.8355453961,
				"y": 3.5728915549,
				"z": -0.3043175535,
				"element": "H" 
			},
			{
				"x": 0.4688649486,
				"y": -2.5720346621,
				"z": -2.7866685255,
				"element": "H" 
			},
			{
				"x": -1.4315590842,
				"y": -2.1530968462,
				"z": -4.347869036,
				"element": "H" 
			},
			{
				"x": -3.1280495183,
				"y": -0.4231365197,
				"z": -3.7888618603,
				"element": "H" 
			},
			{
				"x": -2.9187790606,
				"y": 0.8797832041,
				"z": -1.6837084489,
				"element": "H" 
			},
			{
				"x": -1.0062111761,
				"y": 0.4841142255,
				"z": -0.1640412149,
				"element": "H" 
			}
		],
		 "valence_orbital": [ 
			{
				"type": "occ",
				"energy": -0.25248,
				"method": "rhf"
			},
			{
				"type": "occ",
				"energy": -0.25218,
				"method": "rhf"
			},
			{
				"type": "occ",
				"energy": -0.23411,
				"method": "rhf"
			},
			{
				"type": "occ",
				"energy": -0.23091,
				"method": "rhf"
			},
			{
				"type": "occ",
				"energy": -0.19767,
				"method": "rhf"
			},
			{
				"type": "unocc",
				"energy": -0.04894,
				"method": "rhf"
			},
			{
				"type": "unocc",
				"energy": -0.00451,
				"method": "rhf"
			},
			{
				"type": "unocc",
				"energy": 0.00209,
				"method": "rhf"
			},
			{
				"type": "unocc",
				"energy": 0.01172,
				"method": "rhf"
			},
			{
				"type": "unocc",
				"energy": 0.06502,
				"method": "rhf"
			}
		],
		"cosmo_sigma_profile": { 
			"-0.025": 0.0,
			"-0.024": 0.0,
			"-0.023": 0.0,
			"-0.022": 0.0,
			"-0.021": 0.0,
			"-0.02": 0.0,
			"-0.019": 0.0,
			"-0.018": 0.0,
			"-0.017": 0.0,
			"-0.016": 0.0,
			"-0.015": 0.0,
			"-0.014": 0.0,
			"-0.013": 0.582658814488,
			"-0.012": 2.68209909102,
			"-0.011": 4.73415256013,
			"-0.01": 5.97044469186,
			"-0.009": 5.67385814562,
			"-0.008": 5.28596941718,
			"-0.007": 5.508540116,
			"-0.006": 12.9506034896,
			"-0.005": 14.6139125493,
			"-0.004": 17.3636696113,
			"-0.003": 15.3468233851,
			"-0.002": 16.1462081819,
			"-0.001": 13.7448392664,
			"0.0": 15.0672991774,
			"0.001": 14.0746036374,
			"0.002": 14.9456208981,
			"0.003": 16.405584445,
			"0.004": 21.0046697981,
			"0.005": 18.4877247698,
			"0.006": 7.58558385207,
			"0.007": 2.83072390232,
			"0.008": 3.60926932724,
			"0.009": 3.42733419989,
			"0.01": 2.64935146839,
			"0.011": 3.46010601945,
			"0.012": 4.84899169561,
			"0.013": 4.62974909986,
			"0.014": 0.977271777885,
			"0.015": 0.141237782617,
			"0.016": 0.0,
			"0.017": 0.0,
			"0.018": 0.0,
			"0.019": 0.0,
			"0.02": 0.0,
			"0.021": 0.0,
			"0.022": 0.0,
			"0.023": 0.0,
			"0.024": 0.0,
			"0.025": 0.0
		}
	}
}
