{
	 "smiles": "CCN1C=C(N)C(=O)C(Br)=C1", 
	 "Tm": 390.15, 
	 "num_atms": 20, 
	 "gaussian": { 
		 "optdone": 1, 
		 "sigma_profile": "yes", 
		 "theory": "DFT", 
		 "functional": "B3LYP", 
		 "basiset": "6-31G**", 
		 "properties": { 
			 "R2extent": 4182.4824, 
			 "electric_dipole_moment_norm": 7.40937113796, 
			 "electric_quadrupole_moment_norm": 19.5791321365, 
			 "total_energy": -3028.29591903, 
			 "HOMO_LUMO_gap": 0.17157, 
			 "cosmo_polarized_energy": -20.19, 
			 "cosmo_cavitation_energy": 25.97, 
			 "cosmo_dispersion_energy": -19.41, 
			 "cosmo_repulsion_energy": 1.58, 
			 "cosmo_total_nonelectrostatic_energy": 8.14, 
			 "SMD_solvation_energy": 4.18 
		},
		"coords": [
			{
				"x": 0.812760851,
				"y": 2.1790006856,
				"z": 0.6518557342,
				"element": "C" 
			},
			{
				"x": 0.9691178172,
				"y": 0.7160967377,
				"z": 1.0723133792,
				"element": "C" 
			},
			{
				"x": 0.0022503081,
				"y": -0.1783073125,
				"z": 0.4211199203,
				"element": "N" 
			},
			{
				"x": 0.24393014,
				"y": -0.6194732426,
				"z": -0.868277392,
				"element": "C" 
			},
			{
				"x": -0.6714345644,
				"y": -1.3734499038,
				"z": -1.5505992358,
				"element": "C" 
			},
			{
				"x": -0.4776210062,
				"y": -1.9033749043,
				"z": -2.808542863,
				"element": "N" 
			},
			{
				"x": -1.9724283443,
				"y": -1.7321069408,
				"z": -0.9436139748,
				"element": "C" 
			},
			{
				"x": -2.8013113582,
				"y": -2.3893822497,
				"z": -1.5881517819,
				"element": "O" 
			},
			{
				"x": -2.1304539144,
				"y": -1.2372306247,
				"z": 0.4056537418,
				"element": "C" 
			},
			{
				"x": -3.7447346862,
				"y": -1.6301001103,
				"z": 1.328301064,
				"element": "Br" 
			},
			{
				"x": -1.1700592802,
				"y": -0.4888285282,
				"z": 1.0340126322,
				"element": "C" 
			},
			{
				"x": -0.1801229636,
				"y": 2.5564974116,
				"z": 0.9130868293,
				"element": "H" 
			},
			{
				"x": 0.9484436838,
				"y": 2.2953712208,
				"z": -0.4273246979,
				"element": "H" 
			},
			{
				"x": 1.5606482079,
				"y": 2.7968093077,
				"z": 1.1589032325,
				"element": "H" 
			},
			{
				"x": 0.8382538773,
				"y": 0.6092830647,
				"z": 2.1525296958,
				"element": "H" 
			},
			{
				"x": 1.9729134076,
				"y": 0.3499127664,
				"z": 0.8341987405,
				"element": "H" 
			},
			{
				"x": 1.2059858166,
				"y": -0.3450121493,
				"z": -1.285670375,
				"element": "H" 
			},
			{
				"x": -1.3487174215,
				"y": -2.2603450263,
				"z": -3.1889529679,
				"element": "H" 
			},
			{
				"x": 0.1055592365,
				"y": -1.3940731161,
				"z": -3.4551641962,
				"element": "H" 
			},
			{
				"x": -1.3040798068,
				"y": -0.113887086,
				"z": 2.041122515,
				"element": "H" 
			}
		],
		 "valence_orbital": [ 
			{
				"type": "occ",
				"energy": -0.29123,
				"method": "rhf"
			},
			{
				"type": "occ",
				"energy": -0.27267,
				"method": "rhf"
			},
			{
				"type": "occ",
				"energy": -0.23503,
				"method": "rhf"
			},
			{
				"type": "occ",
				"energy": -0.23367,
				"method": "rhf"
			},
			{
				"type": "occ",
				"energy": -0.19201,
				"method": "rhf"
			},
			{
				"type": "unocc",
				"energy": -0.02044,
				"method": "rhf"
			},
			{
				"type": "unocc",
				"energy": -0.00014,
				"method": "rhf"
			},
			{
				"type": "unocc",
				"energy": 0.01873,
				"method": "rhf"
			},
			{
				"type": "unocc",
				"energy": 0.06772,
				"method": "rhf"
			},
			{
				"type": "unocc",
				"energy": 0.09254,
				"method": "rhf"
			}
		],
		"cosmo_sigma_profile": { 
			"-0.025": 0.0,
			"-0.024": 0.0,
			"-0.023": 0.0,
			"-0.022": 0.0,
			"-0.021": 0.0,
			"-0.02": 0.0,
			"-0.019": 0.0,
			"-0.018": 0.0,
			"-0.017": 0.0,
			"-0.016": 0.0,
			"-0.015": 0.0,
			"-0.014": 0.0,
			"-0.013": 0.7671138599,
			"-0.012": 1.56653178147,
			"-0.011": 1.61264187752,
			"-0.01": 3.5403257562,
			"-0.009": 6.54337275017,
			"-0.008": 7.94608664224,
			"-0.007": 7.87872325185,
			"-0.006": 8.30631311847,
			"-0.005": 11.4751554241,
			"-0.004": 15.8556013845,
			"-0.003": 14.1557438431,
			"-0.002": 12.0734200482,
			"-0.001": 12.8526419102,
			"0.0": 15.6090282178,
			"0.001": 13.4355662953,
			"0.002": 12.5355564269,
			"0.003": 9.95417255893,
			"0.004": 9.27342325973,
			"0.005": 10.9633741363,
			"0.006": 4.76637901471,
			"0.007": 3.1287784432,
			"0.008": 2.56915623676,
			"0.009": 2.88821860085,
			"0.01": 2.3461335803,
			"0.011": 2.44569214011,
			"0.012": 2.57586823573,
			"0.013": 2.48866709412,
			"0.014": 4.70133369746,
			"0.015": 3.45879189446,
			"0.016": 1.14732342237,
			"0.017": 0.0,
			"0.018": 0.0,
			"0.019": 0.0,
			"0.02": 0.0,
			"0.021": 0.0,
			"0.022": 0.0,
			"0.023": 0.0,
			"0.024": 0.0,
			"0.025": 0.0
		}
	}
}
