{
	 "smiles": "CCOC(=O)C1CC=CCC1N", 
	 "Tm": 374.15, 
	 "num_atms": 27, 
	 "gaussian": { 
		 "optdone": 1, 
		 "sigma_profile": "yes", 
		 "theory": "DFT", 
		 "functional": "B3LYP", 
		 "basiset": "6-31G**", 
		 "properties": { 
			 "R2extent": 2296.7859, 
			 "electric_dipole_moment_norm": 2.35331432027, 
			 "electric_quadrupole_moment_norm": 8.19769966759, 
			 "total_energy": -557.196486497, 
			 "HOMO_LUMO_gap": 0.24098, 
			 "cosmo_polarized_energy": -9.6, 
			 "cosmo_cavitation_energy": 28.35, 
			 "cosmo_dispersion_energy": -20.24, 
			 "cosmo_repulsion_energy": 1.65, 
			 "cosmo_total_nonelectrostatic_energy": 9.75, 
			 "SMD_solvation_energy": 4.29 
		},
		"coords": [
			{
				"x": 2.9694834935,
				"y": -0.2808480202,
				"z": -2.1243426032,
				"element": "C" 
			},
			{
				"x": 1.511877713,
				"y": -0.0303704184,
				"z": -2.4613484437,
				"element": "C" 
			},
			{
				"x": 0.7486382738,
				"y": -0.1652224605,
				"z": -1.237542335,
				"element": "O" 
			},
			{
				"x": -0.5889289846,
				"y": 0.0250697876,
				"z": -1.3538808299,
				"element": "C" 
			},
			{
				"x": -1.1126244034,
				"y": 0.2983221971,
				"z": -2.4128922064,
				"element": "O" 
			},
			{
				"x": -1.3589031039,
				"y": -0.1997817455,
				"z": -0.0482204391,
				"element": "C" 
			},
			{
				"x": -2.5843408956,
				"y": 0.7360672812,
				"z": -0.018742225,
				"element": "C" 
			},
			{
				"x": -2.2180591677,
				"y": 2.1234208596,
				"z": 0.4515739468,
				"element": "C" 
			},
			{
				"x": -1.0705017345,
				"y": 2.4208546286,
				"z": 1.0703599411,
				"element": "C" 
			},
			{
				"x": -0.0219972914,
				"y": 1.3889312345,
				"z": 1.4106374301,
				"element": "C" 
			},
			{
				"x": -0.5624427738,
				"y": -0.0497567443,
				"z": 1.2679181722,
				"element": "C" 
			},
			{
				"x": 0.4141568868,
				"y": -1.125910304,
				"z": 1.4445090357,
				"element": "N" 
			},
			{
				"x": 3.5795306334,
				"y": -0.1857537072,
				"z": -3.0280203706,
				"element": "H" 
			},
			{
				"x": 3.3336102122,
				"y": 0.4429620197,
				"z": -1.3890957586,
				"element": "H" 
			},
			{
				"x": 3.1125798349,
				"y": -1.2874911336,
				"z": -1.7203752181,
				"element": "H" 
			},
			{
				"x": 1.1291055719,
				"y": -0.7479006484,
				"z": -3.193321526,
				"element": "H" 
			},
			{
				"x": 1.3486214004,
				"y": 0.9721702563,
				"z": -2.8677631112,
				"element": "H" 
			},
			{
				"x": -1.6969351182,
				"y": -1.2433920228,
				"z": -0.1049522842,
				"element": "H" 
			},
			{
				"x": -3.0242030863,
				"y": 0.7829361908,
				"z": -1.0195497049,
				"element": "H" 
			},
			{
				"x": -3.3540241774,
				"y": 0.3090457339,
				"z": 0.6397024896,
				"element": "H" 
			},
			{
				"x": -2.9422457083,
				"y": 2.91259451,
				"z": 0.2573626291,
				"element": "H" 
			},
			{
				"x": -0.86831861,
				"y": 3.4510753872,
				"z": 1.3591901769,
				"element": "H" 
			},
			{
				"x": 0.8630314717,
				"y": 1.5175967765,
				"z": 0.7710551857,
				"element": "H" 
			},
			{
				"x": 0.329401833,
				"y": 1.5414875028,
				"z": 2.4410110912,
				"element": "H" 
			},
			{
				"x": -1.3108228356,
				"y": -0.1870323151,
				"z": 2.0604793798,
				"element": "H" 
			},
			{
				"x": 1.1629060405,
				"y": -1.015560927,
				"z": 0.7665935681,
				"element": "H" 
			},
			{
				"x": 0.8330045254,
				"y": -1.0542139187,
				"z": 2.3689540097,
				"element": "H" 
			}
		],
		 "valence_orbital": [ 
			{
				"type": "occ",
				"energy": -0.31866,
				"method": "rhf"
			},
			{
				"type": "occ",
				"energy": -0.30027,
				"method": "rhf"
			},
			{
				"type": "occ",
				"energy": -0.26682,
				"method": "rhf"
			},
			{
				"type": "occ",
				"energy": -0.23989,
				"method": "rhf"
			},
			{
				"type": "occ",
				"energy": -0.22794,
				"method": "rhf"
			},
			{
				"type": "unocc",
				"energy": 0.01304,
				"method": "rhf"
			},
			{
				"type": "unocc",
				"energy": 0.02856,
				"method": "rhf"
			},
			{
				"type": "unocc",
				"energy": 0.0831,
				"method": "rhf"
			},
			{
				"type": "unocc",
				"energy": 0.09427,
				"method": "rhf"
			},
			{
				"type": "unocc",
				"energy": 0.10917,
				"method": "rhf"
			}
		],
		"cosmo_sigma_profile": { 
			"-0.025": 0.0,
			"-0.024": 0.0,
			"-0.023": 0.0,
			"-0.022": 0.0,
			"-0.021": 0.0,
			"-0.02": 0.0,
			"-0.019": 0.0,
			"-0.018": 0.0,
			"-0.017": 0.0,
			"-0.016": 0.0,
			"-0.015": 0.0,
			"-0.014": 0.0,
			"-0.013": 0.0,
			"-0.012": 0.0,
			"-0.011": 0.0,
			"-0.01": 0.237344585216,
			"-0.009": 1.11396892817,
			"-0.008": 1.36631857304,
			"-0.007": 1.6087465777,
			"-0.006": 3.45039380912,
			"-0.005": 10.986334382,
			"-0.004": 24.8281551213,
			"-0.003": 29.9250433829,
			"-0.002": 29.533653834,
			"-0.001": 29.4283878972,
			"0.0": 21.7864876936,
			"0.001": 11.5743276364,
			"0.002": 8.05103075473,
			"0.003": 5.77700869253,
			"0.004": 6.17253789575,
			"0.005": 6.21909749899,
			"0.006": 4.58780985451,
			"0.007": 3.68416763879,
			"0.008": 2.43995718148,
			"0.009": 2.0516669773,
			"0.01": 2.10920591987,
			"0.011": 3.53724736052,
			"0.012": 4.95328566291,
			"0.013": 1.10604904559,
			"0.014": 0.764803729504,
			"0.015": 0.815775461513,
			"0.016": 0.488794012212,
			"0.017": 0.48620066844,
			"0.018": 0.564421179812,
			"0.019": 0.577488457644,
			"0.02": 0.118319196182,
			"0.021": 0.0,
			"0.022": 0.0,
			"0.023": 0.0,
			"0.024": 0.0,
			"0.025": 0.0
		}
	}
}
