{
	 "smiles": "NC(COC1=CC=C(C=C1)C1SCCS1)=NO", 
	 "Tm": 387.15, 
	 "num_atms": 31, 
	 "gaussian": { 
		 "optdone": 1, 
		 "sigma_profile": "yes", 
		 "theory": "DFT", 
		 "functional": "B3LYP", 
		 "basiset": "6-31G**", 
		 "properties": { 
			 "R2extent": 9117.5312, 
			 "electric_dipole_moment_norm": 1.83624833288, 
			 "electric_quadrupole_moment_norm": 12.2310885313, 
			 "total_energy": -1483.86767303, 
			 "HOMO_LUMO_gap": 0.20385, 
			 "cosmo_polarized_energy": -16.43, 
			 "cosmo_cavitation_energy": 37.14, 
			 "cosmo_dispersion_energy": -28.05, 
			 "cosmo_repulsion_energy": 2.12, 
			 "cosmo_total_nonelectrostatic_energy": 11.21, 
			 "SMD_solvation_energy": 5.11 
		},
		"coords": [
			{
				"x": -3.9663444176,
				"y": -0.1500909985,
				"z": 2.1665777805,
				"element": "N" 
			},
			{
				"x": -3.8651090148,
				"y": 1.2228465011,
				"z": 2.1829434283,
				"element": "C" 
			},
			{
				"x": -2.9332421585,
				"y": 1.8921391143,
				"z": 1.2031488261,
				"element": "C" 
			},
			{
				"x": -1.6066387856,
				"y": 1.3579624597,
				"z": 1.2627178613,
				"element": "O" 
			},
			{
				"x": -1.1739941436,
				"y": 0.4675927397,
				"z": 0.3160632242,
				"element": "C" 
			},
			{
				"x": -2.0029450389,
				"y": -0.2695436933,
				"z": -0.5363359173,
				"element": "C" 
			},
			{
				"x": -1.4290190115,
				"y": -1.1593881373,
				"z": -1.4504257582,
				"element": "C" 
			},
			{
				"x": -0.0469415023,
				"y": -1.3395619579,
				"z": -1.5289034972,
				"element": "C" 
			},
			{
				"x": 0.7694329422,
				"y": -0.5969443764,
				"z": -0.6587270861,
				"element": "C" 
			},
			{
				"x": 0.2185568875,
				"y": 0.2938320193,
				"z": 0.249163303,
				"element": "C" 
			},
			{
				"x": 0.5264552868,
				"y": -2.3214750164,
				"z": -2.5206301261,
				"element": "C" 
			},
			{
				"x": 1.711335208,
				"y": -1.5392776924,
				"z": -3.7465011925,
				"element": "S" 
			},
			{
				"x": 3.051192568,
				"y": -2.7969951543,
				"z": -3.6307271875,
				"element": "C" 
			},
			{
				"x": 2.4572615266,
				"y": -4.1072428315,
				"z": -3.1173542639,
				"element": "C" 
			},
			{
				"x": 1.4038143209,
				"y": -3.7103270764,
				"z": -1.676800395,
				"element": "S" 
			},
			{
				"x": -4.5747866892,
				"y": 2.0161793485,
				"z": 2.9103500529,
				"element": "N" 
			},
			{
				"x": -5.45349316,
				"y": 1.2498086698,
				"z": 3.7283921149,
				"element": "O" 
			},
			{
				"x": -3.121925069,
				"y": -0.6507718153,
				"z": 1.926987175,
				"element": "H" 
			},
			{
				"x": -4.4700244681,
				"y": -0.5277371739,
				"z": 2.9586383383,
				"element": "H" 
			},
			{
				"x": -3.3263799288,
				"y": 1.8223119579,
				"z": 0.1824113225,
				"element": "H" 
			},
			{
				"x": -2.8643674703,
				"y": 2.9464507107,
				"z": 1.4763546794,
				"element": "H" 
			},
			{
				"x": -3.0821032378,
				"y": -0.1793665886,
				"z": -0.4896333077,
				"element": "H" 
			},
			{
				"x": -2.0824761338,
				"y": -1.7276393399,
				"z": -2.1076437591,
				"element": "H" 
			},
			{
				"x": 1.8469487903,
				"y": -0.7170407133,
				"z": -0.7084183036,
				"element": "H" 
			},
			{
				"x": 0.8437834857,
				"y": 0.8766360423,
				"z": 0.9173863885,
				"element": "H" 
			},
			{
				"x": -0.2876947663,
				"y": -2.7447790302,
				"z": -3.1123626462,
				"element": "H" 
			},
			{
				"x": 3.4755724888,
				"y": -2.9202933668,
				"z": -4.6318203818,
				"element": "H" 
			},
			{
				"x": 3.8318540673,
				"y": -2.4369517912,
				"z": -2.9565399411,
				"element": "H" 
			},
			{
				"x": 3.2374355817,
				"y": -4.794726274,
				"z": -2.7762384691,
				"element": "H" 
			},
			{
				"x": 1.8660363458,
				"y": -4.6035891183,
				"z": -3.892387083,
				"element": "H" 
			},
			{
				"x": -5.8725945036,
				"y": 1.9329825824,
				"z": 4.2653148207,
				"element": "H" 
			}
		],
		 "valence_orbital": [ 
			{
				"type": "occ",
				"energy": -0.2592,
				"method": "rhf"
			},
			{
				"type": "occ",
				"energy": -0.23575,
				"method": "rhf"
			},
			{
				"type": "occ",
				"energy": -0.23017,
				"method": "rhf"
			},
			{
				"type": "occ",
				"energy": -0.21902,
				"method": "rhf"
			},
			{
				"type": "occ",
				"energy": -0.2168,
				"method": "rhf"
			},
			{
				"type": "unocc",
				"energy": -0.01295,
				"method": "rhf"
			},
			{
				"type": "unocc",
				"energy": -0.00944,
				"method": "rhf"
			},
			{
				"type": "unocc",
				"energy": -0.00147,
				"method": "rhf"
			},
			{
				"type": "unocc",
				"energy": 0.02717,
				"method": "rhf"
			},
			{
				"type": "unocc",
				"energy": 0.05373,
				"method": "rhf"
			}
		],
		"cosmo_sigma_profile": { 
			"-0.025": 0.0,
			"-0.024": 0.0,
			"-0.023": 0.0,
			"-0.022": 0.0,
			"-0.021": 0.0,
			"-0.02": 0.0,
			"-0.019": 0.0,
			"-0.018": 0.0,
			"-0.017": 0.342927911662,
			"-0.016": 1.12341841891,
			"-0.015": 0.738378800393,
			"-0.014": 0.958202027692,
			"-0.013": 1.00119304477,
			"-0.012": 1.51007119895,
			"-0.011": 1.93322906974,
			"-0.01": 3.24790211267,
			"-0.009": 2.05366954921,
			"-0.008": 3.47640185732,
			"-0.007": 11.8810029903,
			"-0.006": 18.827868347,
			"-0.005": 25.3764975131,
			"-0.004": 22.0468395879,
			"-0.003": 20.2647797156,
			"-0.002": 15.0797049401,
			"-0.001": 13.3747583996,
			"0.0": 14.4609171349,
			"0.001": 16.0081372679,
			"0.002": 16.6885301775,
			"0.003": 17.2431361767,
			"0.004": 22.1265195031,
			"0.005": 16.8202694579,
			"0.006": 11.753672346,
			"0.007": 10.69831502,
			"0.008": 9.29305944437,
			"0.009": 9.13239348613,
			"0.01": 4.46072393488,
			"0.011": 2.8688726933,
			"0.012": 0.925466782607,
			"0.013": 0.986133161155,
			"0.014": 0.882665555221,
			"0.015": 0.104186554391,
			"0.016": 0.0,
			"0.017": 0.0,
			"0.018": 0.0,
			"0.019": 0.0,
			"0.02": 0.0,
			"0.021": 0.0,
			"0.022": 0.0,
			"0.023": 0.0,
			"0.024": 0.0,
			"0.025": 0.0
		}
	}
}
