{
	 "smiles": "CC1=C(C)C2=C(C=C1)C1CCC3CCCCC3(C)C1CC2", 
	 "Tm": 429.15, 
	 "num_atms": 51, 
	 "gaussian": { 
		 "optdone": 1, 
		 "sigma_profile": "yes", 
		 "theory": "DFT", 
		 "functional": "B3LYP", 
		 "basiset": "6-31G**", 
		 "properties": { 
			 "R2extent": 6503.3549, 
			 "electric_dipole_moment_norm": 0.503582942523, 
			 "electric_quadrupole_moment_norm": 4.46190539792, 
			 "total_energy": -818.353146233, 
			 "HOMO_LUMO_gap": 0.22472, 
			 "cosmo_polarized_energy": -3.49, 
			 "cosmo_cavitation_energy": 43.17, 
			 "cosmo_dispersion_energy": -31.07, 
			 "cosmo_repulsion_energy": 2.31, 
			 "cosmo_total_nonelectrostatic_energy": 14.42, 
			 "SMD_solvation_energy": 5.57 
		},
		"coords": [
			{
				"x": -3.666776474,
				"y": -3.3460306724,
				"z": 2.8982233906,
				"element": "C" 
			},
			{
				"x": -2.7242270957,
				"y": -2.9188550548,
				"z": 1.7936059021,
				"element": "C" 
			},
			{
				"x": -1.3823330127,
				"y": -2.5733740837,
				"z": 2.0392005798,
				"element": "C" 
			},
			{
				"x": -0.8238711069,
				"y": -2.6109396994,
				"z": 3.4467193411,
				"element": "C" 
			},
			{
				"x": -0.5367976172,
				"y": -2.1933664983,
				"z": 0.9695746965,
				"element": "C" 
			},
			{
				"x": -1.0299644425,
				"y": -2.1143230776,
				"z": -0.3470244476,
				"element": "C" 
			},
			{
				"x": -2.3669446836,
				"y": -2.4742703942,
				"z": -0.5679432608,
				"element": "C" 
			},
			{
				"x": -3.1921107956,
				"y": -2.8704026867,
				"z": 0.4763316567,
				"element": "C" 
			},
			{
				"x": -0.1499387638,
				"y": -1.7245697284,
				"z": -1.5458272392,
				"element": "C" 
			},
			{
				"x": -0.8853433556,
				"y": -0.8490553684,
				"z": -2.5781418398,
				"element": "C" 
			},
			{
				"x": -1.2229272937,
				"y": 0.5503631124,
				"z": -2.0242215514,
				"element": "C" 
			},
			{
				"x": -0.2609748784,
				"y": 1.0169446341,
				"z": -0.9091902479,
				"element": "C" 
			},
			{
				"x": -0.3703425499,
				"y": 2.5381045063,
				"z": -0.6941535792,
				"element": "C" 
			},
			{
				"x": 0.5445106625,
				"y": 3.0389971955,
				"z": 0.4301909459,
				"element": "C" 
			},
			{
				"x": 1.9978779722,
				"y": 2.6157888722,
				"z": 0.1817915325,
				"element": "C" 
			},
			{
				"x": 2.1061356965,
				"y": 1.0927338843,
				"z": -0.0062826976,
				"element": "C" 
			},
			{
				"x": 1.2014194015,
				"y": 0.524737949,
				"z": -1.1364294655,
				"element": "C" 
			},
			{
				"x": 1.7673712391,
				"y": 1.0488120214,
				"z": -2.4824291216,
				"element": "C" 
			},
			{
				"x": 1.2223022032,
				"y": -1.0686333466,
				"z": -1.1858573575,
				"element": "C" 
			},
			{
				"x": 1.808469304,
				"y": -1.8241496871,
				"z": 0.0222732612,
				"element": "C" 
			},
			{
				"x": 0.911949812,
				"y": -1.8627464304,
				"z": 1.2646103557,
				"element": "C" 
			},
			{
				"x": -3.8206879091,
				"y": -2.553401599,
				"z": 3.6404425192,
				"element": "H" 
			},
			{
				"x": -4.6472362214,
				"y": -3.6023230395,
				"z": 2.487497205,
				"element": "H" 
			},
			{
				"x": -3.2979020231,
				"y": -4.2244939673,
				"z": 3.4403427463,
				"element": "H" 
			},
			{
				"x": -1.6054957019,
				"y": -2.7499836834,
				"z": 4.1942173125,
				"element": "H" 
			},
			{
				"x": -0.1026603081,
				"y": -3.4289099939,
				"z": 3.5755274407,
				"element": "H" 
			},
			{
				"x": -0.2935073884,
				"y": -1.6853143632,
				"z": 3.69614056,
				"element": "H" 
			},
			{
				"x": -2.7757271018,
				"y": -2.454127999,
				"z": -1.5730180832,
				"element": "H" 
			},
			{
				"x": -4.223736495,
				"y": -3.1441891114,
				"z": 0.2682443633,
				"element": "H" 
			},
			{
				"x": 0.0995390395,
				"y": -2.6711454142,
				"z": -2.0489202277,
				"element": "H" 
			},
			{
				"x": -1.7913829991,
				"y": -1.339897411,
				"z": -2.9451232907,
				"element": "H" 
			},
			{
				"x": -0.2331775097,
				"y": -0.7639646068,
				"z": -3.4543514668,
				"element": "H" 
			},
			{
				"x": -1.218760129,
				"y": 1.2767960838,
				"z": -2.8469902517,
				"element": "H" 
			},
			{
				"x": -2.241897735,
				"y": 0.556439339,
				"z": -1.6204096599,
				"element": "H" 
			},
			{
				"x": -0.5943202271,
				"y": 0.544947299,
				"z": 0.0255197284,
				"element": "H" 
			},
			{
				"x": -1.4156047071,
				"y": 2.7919933555,
				"z": -0.4744401963,
				"element": "H" 
			},
			{
				"x": -0.1227041188,
				"y": 3.0630563875,
				"z": -1.6271739939,
				"element": "H" 
			},
			{
				"x": 0.2051289532,
				"y": 2.618838765,
				"z": 1.3879668087,
				"element": "H" 
			},
			{
				"x": 0.4717178317,
				"y": 4.1292878063,
				"z": 0.5257658614,
				"element": "H" 
			},
			{
				"x": 2.6322656927,
				"y": 2.9200285457,
				"z": 1.0235516288,
				"element": "H" 
			},
			{
				"x": 2.3883867043,
				"y": 3.1428499043,
				"z": -0.6977910613,
				"element": "H" 
			},
			{
				"x": 3.151079536,
				"y": 0.8185319729,
				"z": -0.1999867273,
				"element": "H" 
			},
			{
				"x": 1.8385250821,
				"y": 0.6311498409,
				"z": 0.9490811297,
				"element": "H" 
			},
			{
				"x": 1.2201265495,
				"y": 0.6644421554,
				"z": -3.3458662429,
				"element": "H" 
			},
			{
				"x": 1.7468912752,
				"y": 2.1396861008,
				"z": -2.5472615972,
				"element": "H" 
			},
			{
				"x": 2.811993336,
				"y": 0.735756186,
				"z": -2.5946874037,
				"element": "H" 
			},
			{
				"x": 1.8846503925,
				"y": -1.315296218,
				"z": -2.0254604627,
				"element": "H" 
			},
			{
				"x": 2.7959428168,
				"y": -1.4366375616,
				"z": 0.2915213794,
				"element": "H" 
			},
			{
				"x": 1.9730699056,
				"y": -2.8596686516,
				"z": -0.3053607521,
				"element": "H" 
			},
			{
				"x": 1.3228320601,
				"y": -2.6009867232,
				"z": 1.9640319765,
				"element": "H" 
			},
			{
				"x": 0.9583671781,
				"y": -0.9069288462,
				"z": 1.8048699036,
				"element": "H" 
			}
		],
		 "valence_orbital": [ 
			{
				"type": "occ",
				"energy": -0.2807,
				"method": "rhf"
			},
			{
				"type": "occ",
				"energy": -0.27016,
				"method": "rhf"
			},
			{
				"type": "occ",
				"energy": -0.2661,
				"method": "rhf"
			},
			{
				"type": "occ",
				"energy": -0.22325,
				"method": "rhf"
			},
			{
				"type": "occ",
				"energy": -0.21701,
				"method": "rhf"
			},
			{
				"type": "unocc",
				"energy": 0.00771,
				"method": "rhf"
			},
			{
				"type": "unocc",
				"energy": 0.01505,
				"method": "rhf"
			},
			{
				"type": "unocc",
				"energy": 0.07571,
				"method": "rhf"
			},
			{
				"type": "unocc",
				"energy": 0.08886,
				"method": "rhf"
			},
			{
				"type": "unocc",
				"energy": 0.09395,
				"method": "rhf"
			}
		],
		"cosmo_sigma_profile": { 
			"-0.025": 0.0,
			"-0.024": 0.0,
			"-0.023": 0.0,
			"-0.022": 0.0,
			"-0.021": 0.0,
			"-0.02": 0.0,
			"-0.019": 0.0,
			"-0.018": 0.0,
			"-0.017": 0.0,
			"-0.016": 0.0,
			"-0.015": 0.0,
			"-0.014": 0.0,
			"-0.013": 0.0,
			"-0.012": 0.0,
			"-0.011": 0.0,
			"-0.01": 0.0,
			"-0.009": 0.0,
			"-0.008": 0.0,
			"-0.007": 0.0,
			"-0.006": 0.0,
			"-0.005": 1.30029507899,
			"-0.004": 9.55338838888,
			"-0.003": 26.3812198567,
			"-0.002": 45.8043282008,
			"-0.001": 67.9749787162,
			"0.0": 65.0681397408,
			"0.001": 55.4139564825,
			"0.002": 27.4133665588,
			"0.003": 8.05188338321,
			"0.004": 5.95535008582,
			"0.005": 5.63620447556,
			"0.006": 5.2140966874,
			"0.007": 5.19739017499,
			"0.008": 3.36124746843,
			"0.009": 0.0704870460161,
			"0.01": 0.0,
			"0.011": 0.0,
			"0.012": 0.0,
			"0.013": 0.0,
			"0.014": 0.0,
			"0.015": 0.0,
			"0.016": 0.0,
			"0.017": 0.0,
			"0.018": 0.0,
			"0.019": 0.0,
			"0.02": 0.0,
			"0.021": 0.0,
			"0.022": 0.0,
			"0.023": 0.0,
			"0.024": 0.0,
			"0.025": 0.0
		}
	}
}
