{
	 "smiles": "NC1CC=CCC1C(O)=O", 
	 "Tm": 471.15, 
	 "num_atms": 21, 
	 "gaussian": { 
		 "optdone": 1, 
		 "sigma_profile": "yes", 
		 "theory": "DFT", 
		 "functional": "B3LYP", 
		 "basiset": "6-31G**", 
		 "properties": { 
			 "R2extent": 1667.3722, 
			 "electric_dipole_moment_norm": 6.52272703553, 
			 "electric_quadrupole_moment_norm": 12.110318926, 
			 "total_energy": -478.577173068, 
			 "HOMO_LUMO_gap": 0.25022, 
			 "cosmo_polarized_energy": -15.48, 
			 "cosmo_cavitation_energy": 22.6, 
			 "cosmo_dispersion_energy": -17.01, 
			 "cosmo_repulsion_energy": 1.39, 
			 "cosmo_total_nonelectrostatic_energy": 6.97, 
			 "SMD_solvation_energy": 4.38 
		},
		"coords": [
			{
				"x": 0.7854862766,
				"y": 0.5936133115,
				"z": 2.266349192,
				"element": "N" 
			},
			{
				"x": 0.8558244475,
				"y": 0.2226633752,
				"z": 0.8313699279,
				"element": "C" 
			},
			{
				"x": 1.7963834089,
				"y": -0.9631173926,
				"z": 0.5511492584,
				"element": "C" 
			},
			{
				"x": 1.1891717233,
				"y": -2.2779373271,
				"z": 0.9805851772,
				"element": "C" 
			},
			{
				"x": -0.1189060684,
				"y": -2.4411928794,
				"z": 1.2080378234,
				"element": "C" 
			},
			{
				"x": -1.1400489889,
				"y": -1.3439643329,
				"z": 1.0456541142,
				"element": "C" 
			},
			{
				"x": -0.5654702942,
				"y": -0.1043825517,
				"z": 0.3176372551,
				"element": "C" 
			},
			{
				"x": -1.5621638594,
				"y": 1.0617285635,
				"z": 0.4103659902,
				"element": "C" 
			},
			{
				"x": -1.4580992807,
				"y": 1.8381147589,
				"z": 1.4998916015,
				"element": "O" 
			},
			{
				"x": -2.4169225017,
				"y": 1.239102171,
				"z": -0.4291865416,
				"element": "O" 
			},
			{
				"x": 1.646569823,
				"y": 1.047780888,
				"z": 2.5593401591,
				"element": "H" 
			},
			{
				"x": 0.683374294,
				"y": -0.2444116162,
				"z": 2.8362360183,
				"element": "H" 
			},
			{
				"x": 1.2245753283,
				"y": 1.1099231468,
				"z": 0.3045223534,
				"element": "H" 
			},
			{
				"x": 2.040960685,
				"y": -0.9955347484,
				"z": -0.520674513,
				"element": "H" 
			},
			{
				"x": 2.7528471632,
				"y": -0.8006603736,
				"z": 1.0667689192,
				"element": "H" 
			},
			{
				"x": 1.865706501,
				"y": -3.1212677353,
				"z": 1.1041617969,
				"element": "H" 
			},
			{
				"x": -0.4907938152,
				"y": -3.4126883821,
				"z": 1.5289755866,
				"element": "H" 
			},
			{
				"x": -2.0070910874,
				"y": -1.7116400538,
				"z": 0.4849043551,
				"element": "H" 
			},
			{
				"x": -1.5369556004,
				"y": -1.0558968084,
				"z": 2.0309273815,
				"element": "H" 
			},
			{
				"x": -0.4897566214,
				"y": -0.3426925577,
				"z": -0.7473225406,
				"element": "H" 
			},
			{
				"x": -0.6723915332,
				"y": 1.5289605442,
				"z": 2.0335066853,
				"element": "H" 
			}
		],
		 "valence_orbital": [ 
			{
				"type": "occ",
				"energy": -0.32753,
				"method": "rhf"
			},
			{
				"type": "occ",
				"energy": -0.28531,
				"method": "rhf"
			},
			{
				"type": "occ",
				"energy": -0.27733,
				"method": "rhf"
			},
			{
				"type": "occ",
				"energy": -0.25929,
				"method": "rhf"
			},
			{
				"type": "occ",
				"energy": -0.24263,
				"method": "rhf"
			},
			{
				"type": "unocc",
				"energy": 0.00759,
				"method": "rhf"
			},
			{
				"type": "unocc",
				"energy": 0.03182,
				"method": "rhf"
			},
			{
				"type": "unocc",
				"energy": 0.05156,
				"method": "rhf"
			},
			{
				"type": "unocc",
				"energy": 0.09446,
				"method": "rhf"
			},
			{
				"type": "unocc",
				"energy": 0.10468,
				"method": "rhf"
			}
		],
		"cosmo_sigma_profile": { 
			"-0.025": 0.0,
			"-0.024": 0.0,
			"-0.023": 0.0,
			"-0.022": 0.0,
			"-0.021": 0.0,
			"-0.02": 0.0,
			"-0.019": 0.0,
			"-0.018": 0.0,
			"-0.017": 0.0,
			"-0.016": 0.0,
			"-0.015": 0.0,
			"-0.014": 0.0,
			"-0.013": 0.0,
			"-0.012": 0.779134875035,
			"-0.011": 1.58214336346,
			"-0.01": 2.1433599736,
			"-0.009": 3.19182446983,
			"-0.008": 2.94462911743,
			"-0.007": 3.02017979079,
			"-0.006": 4.42132971376,
			"-0.005": 15.4463241253,
			"-0.004": 22.0875192066,
			"-0.003": 20.0418741852,
			"-0.002": 18.9281126826,
			"-0.001": 15.0378312867,
			"0.0": 8.28707645619,
			"0.001": 5.89977959196,
			"0.002": 5.84147662064,
			"0.003": 5.45059479698,
			"0.004": 3.99107637203,
			"0.005": 3.25233371691,
			"0.006": 3.95571539508,
			"0.007": 1.87876235813,
			"0.008": 2.23788777508,
			"0.009": 2.55471945105,
			"0.01": 3.23199604604,
			"0.011": 3.38851167133,
			"0.012": 6.41874844616,
			"0.013": 6.48713617428,
			"0.014": 3.22217729809,
			"0.015": 0.37229678469,
			"0.016": 0.0,
			"0.017": 0.0,
			"0.018": 0.0,
			"0.019": 0.0,
			"0.02": 0.0,
			"0.021": 0.0,
			"0.022": 0.0,
			"0.023": 0.0,
			"0.024": 0.0,
			"0.025": 0.0
		}
	}
}
