{
	 "smiles": "COC1=C(N)C=C(C=C1)C(=O)NC1CCS(=O)(=O)C1", 
	 "Tm": 419.15, 
	 "num_atms": 35, 
	 "gaussian": { 
		 "optdone": 1, 
		 "sigma_profile": "yes", 
		 "theory": "DFT", 
		 "functional": "B3LYP", 
		 "basiset": "6-31G**", 
		 "properties": { 
			 "R2extent": 8300.8972, 
			 "electric_dipole_moment_norm": 8.63786104368, 
			 "electric_quadrupole_moment_norm": 21.6154302331, 
			 "total_energy": -1275.44705092, 
			 "HOMO_LUMO_gap": 0.17499, 
			 "cosmo_polarized_energy": -28.33, 
			 "cosmo_cavitation_energy": 38.98, 
			 "cosmo_dispersion_energy": -28.15, 
			 "cosmo_repulsion_energy": 2.14, 
			 "cosmo_total_nonelectrostatic_energy": 12.97, 
			 "SMD_solvation_energy": 6.14 
		},
		"coords": [
			{
				"x": 1.0298783311,
				"y": -1.9404059493,
				"z": -4.6960241659,
				"element": "C" 
			},
			{
				"x": 1.108424637,
				"y": -0.6470467448,
				"z": -4.1161205107,
				"element": "O" 
			},
			{
				"x": 1.2155328606,
				"y": -0.5514634444,
				"z": -2.7542707563,
				"element": "C" 
			},
			{
				"x": 1.3251701598,
				"y": 0.7779750001,
				"z": -2.271370636,
				"element": "C" 
			},
			{
				"x": 1.4099273911,
				"y": 1.8221865534,
				"z": -3.1854888287,
				"element": "N" 
			},
			{
				"x": 1.4069017672,
				"y": 0.9767261715,
				"z": -0.8916414644,
				"element": "C" 
			},
			{
				"x": 1.4063054485,
				"y": -0.1076531675,
				"z": 0.002831709,
				"element": "C" 
			},
			{
				"x": 1.3374224503,
				"y": -1.4093918327,
				"z": -0.4955660898,
				"element": "C" 
			},
			{
				"x": 1.2258380658,
				"y": -1.6287057548,
				"z": -1.8712978455,
				"element": "C" 
			},
			{
				"x": 1.5713883997,
				"y": 0.0715839274,
				"z": 1.4809217118,
				"element": "C" 
			},
			{
				"x": 2.2754452984,
				"y": -0.6816888907,
				"z": 2.1424478214,
				"element": "O" 
			},
			{
				"x": 0.9359051926,
				"y": 1.1513643854,
				"z": 2.0858252856,
				"element": "N" 
			},
			{
				"x": -0.3913590828,
				"y": 1.6469371862,
				"z": 1.7209966988,
				"element": "C" 
			},
			{
				"x": -1.5509690625,
				"y": 0.6784323251,
				"z": 2.1049634467,
				"element": "C" 
			},
			{
				"x": -1.772839861,
				"y": 0.7430966467,
				"z": 3.6243038172,
				"element": "C" 
			},
			{
				"x": -1.1853252761,
				"y": 2.4107262061,
				"z": 4.1517415031,
				"element": "S" 
			},
			{
				"x": -2.2942872502,
				"y": 3.2299765091,
				"z": 4.6609023822,
				"element": "O" 
			},
			{
				"x": 0.0487491796,
				"y": 2.2338415424,
				"z": 4.9424885274,
				"element": "O" 
			},
			{
				"x": -0.6905887823,
				"y": 2.9497694424,
				"z": 2.4704183161,
				"element": "C" 
			},
			{
				"x": 0.1395469283,
				"y": -2.4823615201,
				"z": -4.3525529159,
				"element": "H" 
			},
			{
				"x": 0.963786608,
				"y": -1.7856823383,
				"z": -5.7739363823,
				"element": "H" 
			},
			{
				"x": 1.92306091,
				"y": -2.5354267724,
				"z": -4.4693729236,
				"element": "H" 
			},
			{
				"x": 1.1182681168,
				"y": 2.7276917932,
				"z": -2.8481007149,
				"element": "H" 
			},
			{
				"x": 1.0633815399,
				"y": 1.600889327,
				"z": -4.1079186932,
				"element": "H" 
			},
			{
				"x": 1.5301399553,
				"y": 1.9887401621,
				"z": -0.5147940491,
				"element": "H" 
			},
			{
				"x": 1.379195978,
				"y": -2.2446449817,
				"z": 0.194409683,
				"element": "H" 
			},
			{
				"x": 1.1541358264,
				"y": -2.6431465426,
				"z": -2.2457823435,
				"element": "H" 
			},
			{
				"x": 1.145261529,
				"y": 1.1814595962,
				"z": 3.0815689086,
				"element": "H" 
			},
			{
				"x": -0.4168996607,
				"y": 1.820979007,
				"z": 0.645026222,
				"element": "H" 
			},
			{
				"x": -1.3233635358,
				"y": -0.3389792898,
				"z": 1.7775216564,
				"element": "H" 
			},
			{
				"x": -2.4588646896,
				"y": 0.9992075577,
				"z": 1.5820469354,
				"element": "H" 
			},
			{
				"x": -1.1632343239,
				"y": 0.0282592579,
				"z": 4.179980114,
				"element": "H" 
			},
			{
				"x": -2.8171740387,
				"y": 0.652434057,
				"z": 3.9252550227,
				"element": "H" 
			},
			{
				"x": -1.5415019125,
				"y": 3.4788725203,
				"z": 2.0356775579,
				"element": "H" 
			},
			{
				"x": 0.1671409025,
				"y": 3.6162480549,
				"z": 2.5703110006,
				"element": "H" 
			}
		],
		 "valence_orbital": [ 
			{
				"type": "occ",
				"energy": -0.28586,
				"method": "rhf"
			},
			{
				"type": "occ",
				"energy": -0.26488,
				"method": "rhf"
			},
			{
				"type": "occ",
				"energy": -0.24647,
				"method": "rhf"
			},
			{
				"type": "occ",
				"energy": -0.2419,
				"method": "rhf"
			},
			{
				"type": "occ",
				"energy": -0.20278,
				"method": "rhf"
			},
			{
				"type": "unocc",
				"energy": -0.02779,
				"method": "rhf"
			},
			{
				"type": "unocc",
				"energy": 0.00047,
				"method": "rhf"
			},
			{
				"type": "unocc",
				"energy": 0.04163,
				"method": "rhf"
			},
			{
				"type": "unocc",
				"energy": 0.04649,
				"method": "rhf"
			},
			{
				"type": "unocc",
				"energy": 0.06345,
				"method": "rhf"
			}
		],
		"cosmo_sigma_profile": { 
			"-0.025": 0.0,
			"-0.024": 0.0,
			"-0.023": 0.0,
			"-0.022": 0.0,
			"-0.021": 0.0,
			"-0.02": 0.0,
			"-0.019": 0.0,
			"-0.018": 0.0,
			"-0.017": 0.0,
			"-0.016": 0.0,
			"-0.015": 0.0,
			"-0.014": 0.0,
			"-0.013": 0.40945023711,
			"-0.012": 1.42715240952,
			"-0.011": 1.88598784614,
			"-0.01": 3.17663938017,
			"-0.009": 5.93239843971,
			"-0.008": 10.9582390456,
			"-0.007": 16.1265691716,
			"-0.006": 25.998830318,
			"-0.005": 28.2836605547,
			"-0.004": 26.8919669893,
			"-0.003": 23.5220478837,
			"-0.002": 16.4340603676,
			"-0.001": 11.2507204198,
			"0.0": 9.92941424352,
			"0.001": 11.4851798768,
			"0.002": 11.1265654442,
			"0.003": 11.7888468499,
			"0.004": 12.6677716922,
			"0.005": 13.1641095625,
			"0.006": 8.82844233613,
			"0.007": 4.79540689145,
			"0.008": 5.39535387824,
			"0.009": 5.66340319102,
			"0.01": 7.02671639636,
			"0.011": 10.9448062653,
			"0.012": 11.8028581896,
			"0.013": 6.50634356519,
			"0.014": 3.91898565647,
			"0.015": 0.33130436019,
			"0.016": 0.0,
			"0.017": 0.0,
			"0.018": 0.0,
			"0.019": 0.0,
			"0.02": 0.0,
			"0.021": 0.0,
			"0.022": 0.0,
			"0.023": 0.0,
			"0.024": 0.0,
			"0.025": 0.0
		}
	}
}
