{
	 "smiles": "CC1=CC(=O)OC2=C1C=CC(OP(O)(O)=O)=C2", 
	 "Tm": 483.15, 
	 "num_atms": 26, 
	 "gaussian": { 
		 "optdone": 1, 
		 "sigma_profile": "yes", 
		 "theory": "DFT", 
		 "functional": "B3LYP", 
		 "basiset": "6-31G**", 
		 "properties": { 
			 "R2extent": 6376.4777, 
			 "electric_dipole_moment_norm": 5.28255520842, 
			 "electric_quadrupole_moment_norm": 24.225102754, 
			 "total_energy": -1179.27842081, 
			 "HOMO_LUMO_gap": 0.1696, 
			 "cosmo_polarized_energy": -24.06, 
			 "cosmo_cavitation_energy": 33.05, 
			 "cosmo_dispersion_energy": -24.56, 
			 "cosmo_repulsion_energy": 1.89, 
			 "cosmo_total_nonelectrostatic_energy": 10.37, 
			 "SMD_solvation_energy": 9.57 
		},
		"coords": [
			{
				"x": -1.7569037432,
				"y": -2.7740832391,
				"z": 0.8927623497,
				"element": "C" 
			},
			{
				"x": -0.8875795378,
				"y": -1.9085381534,
				"z": 0.0215298556,
				"element": "C" 
			},
			{
				"x": -0.1175884802,
				"y": -2.4446151821,
				"z": -0.9590393926,
				"element": "C" 
			},
			{
				"x": 0.7386636528,
				"y": -1.6493674949,
				"z": -1.8267415609,
				"element": "C" 
			},
			{
				"x": 1.4445202559,
				"y": -2.0677601415,
				"z": -2.7133976055,
				"element": "O" 
			},
			{
				"x": 0.7314217221,
				"y": -0.2703374364,
				"z": -1.5970803719,
				"element": "O" 
			},
			{
				"x": -0.0277245254,
				"y": 0.3005160611,
				"z": -0.6219452264,
				"element": "C" 
			},
			{
				"x": -0.8588089352,
				"y": -0.467701683,
				"z": 0.2189512271,
				"element": "C" 
			},
			{
				"x": -1.6095509715,
				"y": 0.2153099538,
				"z": 1.1955683314,
				"element": "C" 
			},
			{
				"x": -1.5330361616,
				"y": 1.5922743294,
				"z": 1.3324731428,
				"element": "C" 
			},
			{
				"x": -0.6928434341,
				"y": 2.3163181869,
				"z": 0.4777529605,
				"element": "C" 
			},
			{
				"x": -0.7049701904,
				"y": 3.6977523762,
				"z": 0.6378016745,
				"element": "O" 
			},
			{
				"x": 0.6016467386,
				"y": 4.6396896743,
				"z": 0.4836946936,
				"element": "P" 
			},
			{
				"x": -0.0535820354,
				"y": 6.068505117,
				"z": 0.813526176,
				"element": "O" 
			},
			{
				"x": 1.4070321788,
				"y": 4.2746536453,
				"z": 1.8261751006,
				"element": "O" 
			},
			{
				"x": 1.3651854581,
				"y": 4.564785261,
				"z": -0.7802902345,
				"element": "O" 
			},
			{
				"x": 0.0595607823,
				"y": 1.6903187045,
				"z": -0.5087868151,
				"element": "C" 
			},
			{
				"x": -2.8114611706,
				"y": -2.488946911,
				"z": 0.8041815335,
				"element": "H" 
			},
			{
				"x": -1.4825525015,
				"y": -2.6713323059,
				"z": 1.9489058874,
				"element": "H" 
			},
			{
				"x": -1.6632520075,
				"y": -3.8261107179,
				"z": 0.6163027724,
				"element": "H" 
			},
			{
				"x": -0.0990391039,
				"y": -3.5113316344,
				"z": -1.1514141745,
				"element": "H" 
			},
			{
				"x": -2.2593098253,
				"y": -0.3459760772,
				"z": 1.8581332586,
				"element": "H" 
			},
			{
				"x": -2.1052648996,
				"y": 2.1220130792,
				"z": 2.08513125,
				"element": "H" 
			},
			{
				"x": -0.1716495191,
				"y": 6.5783609455,
				"z": -0.0006399366,
				"element": "H" 
			},
			{
				"x": 2.3551781553,
				"y": 4.4305718501,
				"z": 1.7080894901,
				"element": "H" 
			},
			{
				"x": 0.6976080984,
				"y": 2.2516317924,
				"z": -1.1805443857,
				"element": "H" 
			}
		],
		 "valence_orbital": [ 
			{
				"type": "occ",
				"energy": -0.3102,
				"method": "rhf"
			},
			{
				"type": "occ",
				"energy": -0.30104,
				"method": "rhf"
			},
			{
				"type": "occ",
				"energy": -0.2708,
				"method": "rhf"
			},
			{
				"type": "occ",
				"energy": -0.25904,
				"method": "rhf"
			},
			{
				"type": "occ",
				"energy": -0.23448,
				"method": "rhf"
			},
			{
				"type": "unocc",
				"energy": -0.06488,
				"method": "rhf"
			},
			{
				"type": "unocc",
				"energy": -0.01823,
				"method": "rhf"
			},
			{
				"type": "unocc",
				"energy": 0.00078,
				"method": "rhf"
			},
			{
				"type": "unocc",
				"energy": 0.02458,
				"method": "rhf"
			},
			{
				"type": "unocc",
				"energy": 0.06646,
				"method": "rhf"
			}
		],
		"cosmo_sigma_profile": { 
			"-0.025": 0.0,
			"-0.024": 0.0,
			"-0.023": 0.0,
			"-0.022": 0.0,
			"-0.021": 0.0451705131121,
			"-0.02": 1.79175509378,
			"-0.019": 2.77296942746,
			"-0.018": 1.08214040934,
			"-0.017": 1.61635106334,
			"-0.016": 2.27984372454,
			"-0.015": 1.67348872354,
			"-0.014": 0.917699444826,
			"-0.013": 1.32277286093,
			"-0.012": 2.0251525746,
			"-0.011": 1.73766493083,
			"-0.01": 0.801591245669,
			"-0.009": 0.983190703088,
			"-0.008": 2.93163214275,
			"-0.007": 8.88127579763,
			"-0.006": 13.1541166604,
			"-0.005": 14.996078492,
			"-0.004": 13.358953678,
			"-0.003": 14.4496509286,
			"-0.002": 17.6591766137,
			"-0.001": 20.2845401569,
			"0.0": 20.0055721531,
			"0.001": 23.4177399398,
			"0.002": 15.7545293445,
			"0.003": 9.55848151511,
			"0.004": 5.98517728767,
			"0.005": 5.62731553347,
			"0.006": 7.66270371161,
			"0.007": 7.37448550761,
			"0.008": 6.29161607417,
			"0.009": 6.68186456187,
			"0.01": 5.31362041118,
			"0.011": 5.1624267822,
			"0.012": 8.20587759067,
			"0.013": 7.73743231962,
			"0.014": 1.6475406375,
			"0.015": 0.0,
			"0.016": 0.0,
			"0.017": 0.0,
			"0.018": 0.0,
			"0.019": 0.0,
			"0.02": 0.0,
			"0.021": 0.0,
			"0.022": 0.0,
			"0.023": 0.0,
			"0.024": 0.0,
			"0.025": 0.0
		}
	}
}
