{
	 "smiles": "OC(=O)C1=C(COC2=CC=CC=C2)C2=C(S1)C=CC=C2F", 
	 "Tm": 480.15, 
	 "num_atms": 32, 
	 "gaussian": { 
		 "optdone": 1, 
		 "sigma_profile": "yes", 
		 "theory": "DFT", 
		 "functional": "B3LYP", 
		 "basiset": "6-31G**", 
		 "properties": { 
			 "R2extent": 7635.5465, 
			 "electric_dipole_moment_norm": 5.45765828905, 
			 "electric_quadrupole_moment_norm": 29.2372703136, 
			 "total_energy": -1340.02860503, 
			 "HOMO_LUMO_gap": 0.16333, 
			 "cosmo_polarized_energy": -14.73, 
			 "cosmo_cavitation_energy": 38.4, 
			 "cosmo_dispersion_energy": -27.84, 
			 "cosmo_repulsion_energy": 2.02, 
			 "cosmo_total_nonelectrostatic_energy": 12.58, 
			 "SMD_solvation_energy": 7.41 
		},
		"coords": [
			{
				"x": -0.4680641222,
				"y": -1.4267209949,
				"z": -2.2427712151,
				"element": "O" 
			},
			{
				"x": 0.859964262,
				"y": -1.6198921332,
				"z": -2.2923449658,
				"element": "C" 
			},
			{
				"x": 1.3785655848,
				"y": -2.2336133932,
				"z": -3.2007816849,
				"element": "O" 
			},
			{
				"x": 1.6831000768,
				"y": -1.0467928391,
				"z": -1.1851720009,
				"element": "C" 
			},
			{
				"x": 1.4222318243,
				"y": -0.041593401,
				"z": -0.2816508014,
				"element": "C" 
			},
			{
				"x": 0.1417654918,
				"y": 0.7555693205,
				"z": -0.2457047066,
				"element": "C" 
			},
			{
				"x": -0.9385886664,
				"y": -0.1374912849,
				"z": 0.0973919045,
				"element": "O" 
			},
			{
				"x": -2.191463082,
				"y": 0.4059873135,
				"z": 0.3287211666,
				"element": "C" 
			},
			{
				"x": -2.5014533815,
				"y": 1.7577109998,
				"z": 0.164601782,
				"element": "C" 
			},
			{
				"x": -3.8056711172,
				"y": 2.1919158424,
				"z": 0.4255295083,
				"element": "C" 
			},
			{
				"x": -4.7880990892,
				"y": 1.2957138152,
				"z": 0.8397090354,
				"element": "C" 
			},
			{
				"x": -4.4626689026,
				"y": -0.0554981703,
				"z": 0.9971585701,
				"element": "C" 
			},
			{
				"x": -3.1700209303,
				"y": -0.5037564406,
				"z": 0.7451777421,
				"element": "C" 
			},
			{
				"x": 2.548119014,
				"y": 0.1929038954,
				"z": 0.5939374356,
				"element": "C" 
			},
			{
				"x": 3.648047464,
				"y": -0.6579372323,
				"z": 0.3024174862,
				"element": "C" 
			},
			{
				"x": 3.2926269341,
				"y": -1.7184867855,
				"z": -1.0368605354,
				"element": "S" 
			},
			{
				"x": 4.8476107615,
				"y": -0.6119623589,
				"z": 1.0249667578,
				"element": "C" 
			},
			{
				"x": 4.9604388425,
				"y": 0.304159454,
				"z": 2.060798835,
				"element": "C" 
			},
			{
				"x": 3.8967520731,
				"y": 1.1671632037,
				"z": 2.3808600053,
				"element": "C" 
			},
			{
				"x": 2.72497051,
				"y": 1.1025410204,
				"z": 1.6558910091,
				"element": "C" 
			},
			{
				"x": 1.7173734239,
				"y": 1.945825771,
				"z": 1.9889150927,
				"element": "F" 
			},
			{
				"x": -0.7542693703,
				"y": -1.1003675756,
				"z": -1.361953045,
				"element": "H" 
			},
			{
				"x": -0.0624603148,
				"y": 1.2028167091,
				"z": -1.2273221016,
				"element": "H" 
			},
			{
				"x": 0.2084867349,
				"y": 1.5498283331,
				"z": 0.495552173,
				"element": "H" 
			},
			{
				"x": -1.755573433,
				"y": 2.4716740968,
				"z": -0.1630867184,
				"element": "H" 
			},
			{
				"x": -4.0458302101,
				"y": 3.243346796,
				"z": 0.2975618963,
				"element": "H" 
			},
			{
				"x": -5.7971817061,
				"y": 1.6427099049,
				"z": 1.0381482633,
				"element": "H" 
			},
			{
				"x": -5.2187721037,
				"y": -0.7650611449,
				"z": 1.3199674585,
				"element": "H" 
			},
			{
				"x": -2.8985210649,
				"y": -1.5472657651,
				"z": 0.8680679057,
				"element": "H" 
			},
			{
				"x": 5.6679663547,
				"y": -1.2773178049,
				"z": 0.7774463435,
				"element": "H" 
			},
			{
				"x": 5.8794018472,
				"y": 0.3600159292,
				"z": 2.6355488354,
				"element": "H" 
			},
			{
				"x": 3.9734162949,
				"y": 1.8849749193,
				"z": 3.1897785691,
				"element": "H" 
			}
		],
		 "valence_orbital": [ 
			{
				"type": "occ",
				"energy": -0.27474,
				"method": "rhf"
			},
			{
				"type": "occ",
				"energy": -0.26344,
				"method": "rhf"
			},
			{
				"type": "occ",
				"energy": -0.25612,
				"method": "rhf"
			},
			{
				"type": "occ",
				"energy": -0.23968,
				"method": "rhf"
			},
			{
				"type": "occ",
				"energy": -0.23432,
				"method": "rhf"
			},
			{
				"type": "unocc",
				"energy": -0.07099,
				"method": "rhf"
			},
			{
				"type": "unocc",
				"energy": -0.01879,
				"method": "rhf"
			},
			{
				"type": "unocc",
				"energy": -0.01461,
				"method": "rhf"
			},
			{
				"type": "unocc",
				"energy": -0.00297,
				"method": "rhf"
			},
			{
				"type": "unocc",
				"energy": -0.00029,
				"method": "rhf"
			}
		],
		"cosmo_sigma_profile": { 
			"-0.025": 0.0,
			"-0.024": 0.0,
			"-0.023": 0.0,
			"-0.022": 0.0,
			"-0.021": 0.0,
			"-0.02": 0.0,
			"-0.019": 0.0,
			"-0.018": 0.0,
			"-0.017": 0.0,
			"-0.016": 0.0,
			"-0.015": 0.0,
			"-0.014": 0.0,
			"-0.013": 0.0,
			"-0.012": 0.0,
			"-0.011": 0.0,
			"-0.01": 0.0,
			"-0.009": 0.0,
			"-0.008": 5.6972565051,
			"-0.007": 16.4672090636,
			"-0.006": 21.2924971451,
			"-0.005": 22.775201192,
			"-0.004": 20.3316187247,
			"-0.003": 19.0780102724,
			"-0.002": 16.9176197374,
			"-0.001": 20.1563110957,
			"0.0": 25.3106472247,
			"0.001": 27.8164614607,
			"0.002": 26.7547029427,
			"0.003": 26.0090667529,
			"0.004": 18.6695577889,
			"0.005": 13.447541862,
			"0.006": 5.61071995296,
			"0.007": 3.25950952032,
			"0.008": 2.87598792411,
			"0.009": 3.18333850095,
			"0.01": 4.91295956732,
			"0.011": 5.48334740404,
			"0.012": 4.4283940578,
			"0.013": 1.30241053177,
			"0.014": 0.031708478613,
			"0.015": 0.0,
			"0.016": 0.0,
			"0.017": 0.0,
			"0.018": 0.0,
			"0.019": 0.0,
			"0.02": 0.0,
			"0.021": 0.0,
			"0.022": 0.0,
			"0.023": 0.0,
			"0.024": 0.0,
			"0.025": 0.0
		}
	}
}
