{
	 "smiles": "BrC1=CC=CN2C=NN=C12", 
	 "Tm": 458.15, 
	 "num_atms": 14, 
	 "gaussian": { 
		 "optdone": 1, 
		 "sigma_profile": "yes", 
		 "theory": "DFT", 
		 "functional": "B3LYP", 
		 "basiset": "6-31G**", 
		 "properties": { 
			 "R2extent": 3794.5525, 
			 "electric_dipole_moment_norm": 6.14700836993, 
			 "electric_quadrupole_moment_norm": 13.5861708892, 
			 "total_energy": -2966.66353811, 
			 "HOMO_LUMO_gap": 0.17108, 
			 "cosmo_polarized_energy": -17.4, 
			 "cosmo_cavitation_energy": 20.95, 
			 "cosmo_dispersion_energy": -16.22, 
			 "cosmo_repulsion_energy": 1.28, 
			 "cosmo_total_nonelectrostatic_energy": 6.01, 
			 "SMD_solvation_energy": 1.44 
		},
		"coords": [
			{
				"x": 2.7766048884,
				"y": 1.1047440826,
				"z": -3.3499615064,
				"element": "Br" 
			},
			{
				"x": 1.7255755502,
				"y": 0.4147120402,
				"z": -1.9400344831,
				"element": "C" 
			},
			{
				"x": 2.1727626907,
				"y": -0.5971526037,
				"z": -1.133316226,
				"element": "C" 
			},
			{
				"x": 1.3477450252,
				"y": -1.0925507193,
				"z": -0.0762257423,
				"element": "C" 
			},
			{
				"x": 0.109763493,
				"y": -0.5706654578,
				"z": 0.1466127267,
				"element": "C" 
			},
			{
				"x": -0.3302323288,
				"y": 0.4476805599,
				"z": -0.6716889006,
				"element": "N" 
			},
			{
				"x": -1.4933322899,
				"y": 1.1773120525,
				"z": -0.7202993545,
				"element": "C" 
			},
			{
				"x": -1.4403014743,
				"y": 2.054341856,
				"z": -1.6986635235,
				"element": "N" 
			},
			{
				"x": -0.2370810602,
				"y": 1.9362722284,
				"z": -2.3348359387,
				"element": "N" 
			},
			{
				"x": 0.4341590504,
				"y": 0.9721897072,
				"z": -1.721678323,
				"element": "C" 
			},
			{
				"x": 3.1549418677,
				"y": -1.025064615,
				"z": -1.2951210474,
				"element": "H" 
			},
			{
				"x": 1.7079499608,
				"y": -1.8936767653,
				"z": 0.5585743713,
				"element": "H" 
			},
			{
				"x": -0.5657626408,
				"y": -0.8973441161,
				"z": 0.927082797,
				"element": "H" 
			},
			{
				"x": -2.3170927323,
				"y": 1.0290017503,
				"z": -0.0380448495,
				"element": "H" 
			}
		],
		 "valence_orbital": [ 
			{
				"type": "occ",
				"energy": -0.29879,
				"method": "rhf"
			},
			{
				"type": "occ",
				"energy": -0.29622,
				"method": "rhf"
			},
			{
				"type": "occ",
				"energy": -0.27901,
				"method": "rhf"
			},
			{
				"type": "occ",
				"energy": -0.25783,
				"method": "rhf"
			},
			{
				"type": "occ",
				"energy": -0.23244,
				"method": "rhf"
			},
			{
				"type": "unocc",
				"energy": -0.06136,
				"method": "rhf"
			},
			{
				"type": "unocc",
				"energy": -0.01772,
				"method": "rhf"
			},
			{
				"type": "unocc",
				"energy": -0.00226,
				"method": "rhf"
			},
			{
				"type": "unocc",
				"energy": 0.03959,
				"method": "rhf"
			},
			{
				"type": "unocc",
				"energy": 0.07816,
				"method": "rhf"
			}
		],
		"cosmo_sigma_profile": { 
			"-0.025": 0.0,
			"-0.024": 0.0,
			"-0.023": 0.0,
			"-0.022": 0.0,
			"-0.021": 0.0,
			"-0.02": 0.0,
			"-0.019": 0.0,
			"-0.018": 0.0,
			"-0.017": 0.0,
			"-0.016": 0.0,
			"-0.015": 0.0,
			"-0.014": 0.0,
			"-0.013": 0.0633467704125,
			"-0.012": 1.44854467374,
			"-0.011": 4.12404532312,
			"-0.01": 4.15402468175,
			"-0.009": 4.65015133367,
			"-0.008": 8.67891060996,
			"-0.007": 6.49585148367,
			"-0.006": 6.29237762497,
			"-0.005": 6.77116511654,
			"-0.004": 8.8678212675,
			"-0.003": 12.2997371811,
			"-0.002": 9.86923591974,
			"-0.001": 11.8471645723,
			"0.0": 14.1032540083,
			"0.001": 14.5641598363,
			"0.002": 8.52281137095,
			"0.003": 10.4359528967,
			"0.004": 7.63221383472,
			"0.005": 2.58472526708,
			"0.006": 2.73725938459,
			"0.007": 3.51970306068,
			"0.008": 1.59320751215,
			"0.009": 2.00548995978,
			"0.01": 2.89622850947,
			"0.011": 2.8847877774,
			"0.012": 2.78680993509,
			"0.013": 3.45046202855,
			"0.014": 3.41657978755,
			"0.015": 2.17890989711,
			"0.016": 2.02988706477,
			"0.017": 0.333759288369,
			"0.018": 0.0,
			"0.019": 0.0,
			"0.02": 0.0,
			"0.021": 0.0,
			"0.022": 0.0,
			"0.023": 0.0,
			"0.024": 0.0,
			"0.025": 0.0
		}
	}
}
