{
	 "smiles": "OC(=O)C1=CC(=NO1)C1=C(F)C=CC=C1F", 
	 "Tm": 455.15, 
	 "num_atms": 21, 
	 "gaussian": { 
		 "optdone": 1, 
		 "sigma_profile": "yes", 
		 "theory": "DFT", 
		 "functional": "B3LYP", 
		 "basiset": "6-31G**", 
		 "properties": { 
			 "R2extent": 5736.6407, 
			 "electric_dipole_moment_norm": 7.23513569327, 
			 "electric_quadrupole_moment_norm": 22.4788144923, 
			 "total_energy": -864.109695964, 
			 "HOMO_LUMO_gap": 0.19125, 
			 "cosmo_polarized_energy": -18.99, 
			 "cosmo_cavitation_energy": 28.09, 
			 "cosmo_dispersion_energy": -20.53, 
			 "cosmo_repulsion_energy": 1.54, 
			 "cosmo_total_nonelectrostatic_energy": 9.1, 
			 "SMD_solvation_energy": 7.07 
		},
		"coords": [
			{
				"x": 4.2141452266,
				"y": 3.9771921682,
				"z": 1.7240274128,
				"element": "O" 
			},
			{
				"x": 4.0576282833,
				"y": 3.6879622238,
				"z": 0.4074275685,
				"element": "C" 
			},
			{
				"x": 4.4887373091,
				"y": 4.4092592975,
				"z": -0.4534305887,
				"element": "O" 
			},
			{
				"x": 3.2987393558,
				"y": 2.4371481346,
				"z": 0.1303249674,
				"element": "C" 
			},
			{
				"x": 2.4583575124,
				"y": 1.6654399946,
				"z": 0.8771573757,
				"element": "C" 
			},
			{
				"x": 2.0381814562,
				"y": 0.6394106796,
				"z": -0.0270099186,
				"element": "C" 
			},
			{
				"x": 2.6043843184,
				"y": 0.8035311356,
				"z": -1.2141166794,
				"element": "N" 
			},
			{
				"x": 3.3907304062,
				"y": 1.9330395033,
				"z": -1.1166446182,
				"element": "O" 
			},
			{
				"x": 1.1104118665,
				"y": -0.474109908,
				"z": 0.229497012,
				"element": "C" 
			},
			{
				"x": 0.8369824065,
				"y": -0.9235508002,
				"z": 1.5315890183,
				"element": "C" 
			},
			{
				"x": 1.4576146465,
				"y": -0.3167013482,
				"z": 2.5695619023,
				"element": "F" 
			},
			{
				"x": -0.033128397,
				"y": -1.963792069,
				"z": 1.8213702274,
				"element": "C" 
			},
			{
				"x": -0.6816928136,
				"y": -2.6050450336,
				"z": 0.7665108753,
				"element": "C" 
			},
			{
				"x": -0.4549737953,
				"y": -2.2012731157,
				"z": -0.5479143773,
				"element": "C" 
			},
			{
				"x": 0.4259759201,
				"y": -1.1551938093,
				"z": -0.7945427451,
				"element": "C" 
			},
			{
				"x": 0.6135847516,
				"y": -0.7818823206,
				"z": -2.0660789669,
				"element": "F" 
			},
			{
				"x": 3.9352862671,
				"y": 3.2326497373,
				"z": 2.2760351687,
				"element": "H" 
			},
			{
				"x": 2.1426508972,
				"y": 1.799293786,
				"z": 1.8984553425,
				"element": "H" 
			},
			{
				"x": -0.1846019693,
				"y": -2.2524672483,
				"z": 2.8548187034,
				"element": "H" 
			},
			{
				"x": -1.3662338541,
				"y": -3.4218234742,
				"z": 0.9703295052,
				"element": "H" 
			},
			{
				"x": -0.946979794,
				"y": -2.6760875336,
				"z": -1.3887671854,
				"element": "H" 
			}
		],
		 "valence_orbital": [ 
			{
				"type": "occ",
				"energy": -0.32038,
				"method": "rhf"
			},
			{
				"type": "occ",
				"energy": -0.29622,
				"method": "rhf"
			},
			{
				"type": "occ",
				"energy": -0.29009,
				"method": "rhf"
			},
			{
				"type": "occ",
				"energy": -0.26845,
				"method": "rhf"
			},
			{
				"type": "occ",
				"energy": -0.26469,
				"method": "rhf"
			},
			{
				"type": "unocc",
				"energy": -0.07344,
				"method": "rhf"
			},
			{
				"type": "unocc",
				"energy": -0.05132,
				"method": "rhf"
			},
			{
				"type": "unocc",
				"energy": -0.02123,
				"method": "rhf"
			},
			{
				"type": "unocc",
				"energy": 0.03045,
				"method": "rhf"
			},
			{
				"type": "unocc",
				"energy": 0.04675,
				"method": "rhf"
			}
		],
		"cosmo_sigma_profile": { 
			"-0.025": 0.0,
			"-0.024": 0.0,
			"-0.023": 0.0,
			"-0.022": 0.0,
			"-0.021": 0.0,
			"-0.02": 0.354621110252,
			"-0.019": 1.51876915371,
			"-0.018": 1.15046387156,
			"-0.017": 1.04742781655,
			"-0.016": 1.20676111064,
			"-0.015": 1.03451214471,
			"-0.014": 1.11902276058,
			"-0.013": 1.64260780186,
			"-0.012": 1.19985533338,
			"-0.011": 0.604417653557,
			"-0.01": 1.1568568943,
			"-0.009": 2.10357803513,
			"-0.008": 5.96099048693,
			"-0.007": 8.01128269357,
			"-0.006": 10.2301018876,
			"-0.005": 9.83880318473,
			"-0.004": 8.52058262561,
			"-0.003": 11.717841217,
			"-0.002": 14.8045497768,
			"-0.001": 21.6833878546,
			"0.0": 19.8125774039,
			"0.001": 14.3598271488,
			"0.002": 15.475581519,
			"0.003": 14.7852847286,
			"0.004": 9.01196284543,
			"0.005": 5.56597195801,
			"0.006": 7.27853706227,
			"0.007": 7.22455727276,
			"0.008": 6.9083015756,
			"0.009": 6.81021714032,
			"0.01": 7.51288038066,
			"0.011": 5.9268587989,
			"0.012": 1.87998623005,
			"0.013": 0.173555891752,
			"0.014": 0.0,
			"0.015": 0.0,
			"0.016": 0.0,
			"0.017": 0.0,
			"0.018": 0.0,
			"0.019": 0.0,
			"0.02": 0.0,
			"0.021": 0.0,
			"0.022": 0.0,
			"0.023": 0.0,
			"0.024": 0.0,
			"0.025": 0.0
		}
	}
}
