{
	 "smiles": "CC(=CC(O)=O)C(F)(F)F", 
	 "Tm": 302.15, 
	 "num_atms": 15, 
	 "gaussian": { 
		 "optdone": 1, 
		 "sigma_profile": "yes", 
		 "theory": "DFT", 
		 "functional": "B3LYP", 
		 "basiset": "6-31G**", 
		 "properties": { 
			 "R2extent": 2009.5281, 
			 "electric_dipole_moment_norm": 3.35731598304, 
			 "electric_quadrupole_moment_norm": 14.0733820438, 
			 "total_energy": -643.505806208, 
			 "HOMO_LUMO_gap": 0.21922, 
			 "cosmo_polarized_energy": -12.35, 
			 "cosmo_cavitation_energy": 20.95, 
			 "cosmo_dispersion_energy": -14.78, 
			 "cosmo_repulsion_energy": 1.16, 
			 "cosmo_total_nonelectrostatic_energy": 7.34, 
			 "SMD_solvation_energy": 6.33 
		},
		"coords": [
			{
				"x": 1.2164713485,
				"y": -1.1625210262,
				"z": -0.5402548781,
				"element": "C" 
			},
			{
				"x": 0.3738315532,
				"y": 0.0017904016,
				"z": -0.9927450045,
				"element": "C" 
			},
			{
				"x": 0.7286194423,
				"y": 1.2925153674,
				"z": -1.0709890351,
				"element": "C" 
			},
			{
				"x": 2.068296397,
				"y": 1.874519345,
				"z": -0.7482966428,
				"element": "C" 
			},
			{
				"x": 2.673863139,
				"y": 1.4570156776,
				"z": 0.3968388905,
				"element": "O" 
			},
			{
				"x": 2.5988223863,
				"y": 2.690947828,
				"z": -1.4592510316,
				"element": "O" 
			},
			{
				"x": -1.0154886375,
				"y": -0.3963031939,
				"z": -1.441139617,
				"element": "C" 
			},
			{
				"x": -0.9576661991,
				"y": -1.2715007263,
				"z": -2.4700932417,
				"element": "F" 
			},
			{
				"x": -1.7711695751,
				"y": 0.6440008809,
				"z": -1.8349565863,
				"element": "F" 
			},
			{
				"x": -1.6709120882,
				"y": -1.0171747991,
				"z": -0.4316944598,
				"element": "F" 
			},
			{
				"x": 2.2482405133,
				"y": -0.873632904,
				"z": -0.3406339878,
				"element": "H" 
			},
			{
				"x": 1.2211123992,
				"y": -1.9328510014,
				"z": -1.3178592145,
				"element": "H" 
			},
			{
				"x": 0.78943814,
				"y": -1.6237400732,
				"z": 0.3575478916,
				"element": "H" 
			},
			{
				"x": 0.0363820088,
				"y": 2.0101370644,
				"z": -1.4978797278,
				"element": "H" 
			},
			{
				"x": 2.0582591723,
				"y": 0.9226971592,
				"z": 0.9182066448,
				"element": "H" 
			}
		],
		 "valence_orbital": [ 
			{
				"type": "occ",
				"energy": -0.40153,
				"method": "rhf"
			},
			{
				"type": "occ",
				"energy": -0.37838,
				"method": "rhf"
			},
			{
				"type": "occ",
				"energy": -0.3324,
				"method": "rhf"
			},
			{
				"type": "occ",
				"energy": -0.30842,
				"method": "rhf"
			},
			{
				"type": "occ",
				"energy": -0.28354,
				"method": "rhf"
			},
			{
				"type": "unocc",
				"energy": -0.06432,
				"method": "rhf"
			},
			{
				"type": "unocc",
				"energy": 0.03022,
				"method": "rhf"
			},
			{
				"type": "unocc",
				"energy": 0.05366,
				"method": "rhf"
			},
			{
				"type": "unocc",
				"energy": 0.10971,
				"method": "rhf"
			},
			{
				"type": "unocc",
				"energy": 0.11383,
				"method": "rhf"
			}
		],
		"cosmo_sigma_profile": { 
			"-0.025": 0.0,
			"-0.024": 0.0,
			"-0.023": 0.0,
			"-0.022": 0.0,
			"-0.021": 0.0,
			"-0.02": 0.0,
			"-0.019": 0.218901981333,
			"-0.018": 0.872823234901,
			"-0.017": 1.18055285034,
			"-0.016": 0.521255393068,
			"-0.015": 0.865819259608,
			"-0.014": 0.805712413773,
			"-0.013": 1.10101052168,
			"-0.012": 1.17131674576,
			"-0.011": 1.21400379787,
			"-0.01": 0.447545833472,
			"-0.009": 1.04327563682,
			"-0.008": 3.06533112706,
			"-0.007": 2.74230149375,
			"-0.006": 6.81900848791,
			"-0.005": 10.6566945252,
			"-0.004": 9.4571120453,
			"-0.003": 14.3883691072,
			"-0.002": 13.2091306851,
			"-0.001": 9.39306952251,
			"0.0": 6.8685275871,
			"0.001": 9.72999502896,
			"0.002": 24.9357539315,
			"0.003": 15.3609771376,
			"0.004": 2.36905894085,
			"0.005": 2.13119034813,
			"0.006": 2.06672028336,
			"0.007": 2.32985187634,
			"0.008": 3.13906595321,
			"0.009": 4.15571807647,
			"0.01": 5.14734214543,
			"0.011": 6.1515192334,
			"0.012": 3.30413567168,
			"0.013": 0.264822066317,
			"0.014": 0.0,
			"0.015": 0.0,
			"0.016": 0.0,
			"0.017": 0.0,
			"0.018": 0.0,
			"0.019": 0.0,
			"0.02": 0.0,
			"0.021": 0.0,
			"0.022": 0.0,
			"0.023": 0.0,
			"0.024": 0.0,
			"0.025": 0.0
		}
	}
}
