{
	 "smiles": "CC(C1CC2CCC1C2)N1C(N)=CC(=O)NC1=O", 
	 "Tm": 522.15, 
	 "num_atms": 37, 
	 "gaussian": { 
		 "optdone": 1, 
		 "sigma_profile": "yes", 
		 "theory": "DFT", 
		 "functional": "B3LYP", 
		 "basiset": "6-31G**", 
		 "properties": { 
			 "R2extent": 4693.4118, 
			 "electric_dipole_moment_norm": 6.21639907503, 
			 "electric_quadrupole_moment_norm": 18.206587605, 
			 "total_energy": -821.580651977, 
			 "HOMO_LUMO_gap": 0.20721, 
			 "cosmo_polarized_energy": -19.9, 
			 "cosmo_cavitation_energy": 36.02, 
			 "cosmo_dispersion_energy": -25.74, 
			 "cosmo_repulsion_energy": 1.97, 
			 "cosmo_total_nonelectrostatic_energy": 12.25, 
			 "SMD_solvation_energy": 6.93 
		},
		"coords": [
			{
				"x": -0.4153505757,
				"y": -2.7478130508,
				"z": 0.1313362354,
				"element": "C" 
			},
			{
				"x": -0.2146238703,
				"y": -1.2638729468,
				"z": -0.2099514522,
				"element": "C" 
			},
			{
				"x": 1.2740025682,
				"y": -0.8311770932,
				"z": -0.2087356616,
				"element": "C" 
			},
			{
				"x": 2.0178460183,
				"y": -1.396951158,
				"z": -1.4745680155,
				"element": "C" 
			},
			{
				"x": 2.6052496895,
				"y": -0.1338390192,
				"z": -2.1456137849,
				"element": "C" 
			},
			{
				"x": 3.7612332182,
				"y": 0.3969252982,
				"z": -1.2662175063,
				"element": "C" 
			},
			{
				"x": 3.0139742558,
				"y": 0.9692752921,
				"z": -0.0168478566,
				"element": "C" 
			},
			{
				"x": 1.5240672433,
				"y": 0.6974498979,
				"z": -0.3388382986,
				"element": "C" 
			},
			{
				"x": 1.497556425,
				"y": 0.9052714884,
				"z": -1.869504086,
				"element": "C" 
			},
			{
				"x": -1.1271607706,
				"y": -0.3827318248,
				"z": 0.5797033597,
				"element": "N" 
			},
			{
				"x": -1.1186621063,
				"y": -0.2686855114,
				"z": 1.9675366756,
				"element": "C" 
			},
			{
				"x": -0.13674553,
				"y": -0.9619646618,
				"z": 2.6463856514,
				"element": "N" 
			},
			{
				"x": -2.0639039222,
				"y": 0.4582831788,
				"z": 2.64189584,
				"element": "C" 
			},
			{
				"x": -3.1189640041,
				"y": 1.1445608806,
				"z": 1.9509857323,
				"element": "C" 
			},
			{
				"x": -4.0179609918,
				"y": 1.816149021,
				"z": 2.4391546336,
				"element": "O" 
			},
			{
				"x": -3.03127858,
				"y": 1.0036180947,
				"z": 0.5459933492,
				"element": "N" 
			},
			{
				"x": -2.1051823335,
				"y": 0.2988971915,
				"z": -0.1816995324,
				"element": "C" 
			},
			{
				"x": -2.1332047055,
				"y": 0.259464806,
				"z": -1.4053435913,
				"element": "O" 
			},
			{
				"x": -1.4668310101,
				"y": -3.0249509471,
				"z": 0.0144188361,
				"element": "H" 
			},
			{
				"x": -0.1103460617,
				"y": -2.9919068116,
				"z": 1.1510486425,
				"element": "H" 
			},
			{
				"x": 0.1715510101,
				"y": -3.3615579112,
				"z": -0.5585723011,
				"element": "H" 
			},
			{
				"x": -0.5842660499,
				"y": -1.1091622965,
				"z": -1.2228914784,
				"element": "H" 
			},
			{
				"x": 1.7754239236,
				"y": -1.2181833577,
				"z": 0.690506847,
				"element": "H" 
			},
			{
				"x": 1.3116365315,
				"y": -1.8952693911,
				"z": -2.1483341415,
				"element": "H" 
			},
			{
				"x": 2.7892365054,
				"y": -2.1292879041,
				"z": -1.2157727077,
				"element": "H" 
			},
			{
				"x": 2.8779962316,
				"y": -0.2858704988,
				"z": -3.1933995477,
				"element": "H" 
			},
			{
				"x": 4.4784157475,
				"y": -0.3894658699,
				"z": -1.0084390175,
				"element": "H" 
			},
			{
				"x": 4.3169750919,
				"y": 1.1833955489,
				"z": -1.7871233337,
				"element": "H" 
			},
			{
				"x": 3.330694506,
				"y": 0.496356115,
				"z": 0.9197079668,
				"element": "H" 
			},
			{
				"x": 3.1905644227,
				"y": 2.0442264221,
				"z": 0.0911227049,
				"element": "H" 
			},
			{
				"x": 0.832479569,
				"y": 1.3112150651,
				"z": 0.2426463701,
				"element": "H" 
			},
			{
				"x": 1.7783739073,
				"y": 1.9226274613,
				"z": -2.1625258969,
				"element": "H" 
			},
			{
				"x": 0.5323484933,
				"y": 0.6652122382,
				"z": -2.3246859961,
				"element": "H" 
			},
			{
				"x": -0.0733677603,
				"y": -0.7240122336,
				"z": 3.6258215884,
				"element": "H" 
			},
			{
				"x": 0.7640426972,
				"y": -1.0401181018,
				"z": 2.1986961192,
				"element": "H" 
			},
			{
				"x": -2.0225407974,
				"y": 0.5460182554,
				"z": 3.7195584976,
				"element": "H" 
			},
			{
				"x": -3.733978986,
				"y": 1.4848743343,
				"z": -0.0009548439,
				"element": "H" 
			}
		],
		 "valence_orbital": [ 
			{
				"type": "occ",
				"energy": -0.28377,
				"method": "rhf"
			},
			{
				"type": "occ",
				"energy": -0.28172,
				"method": "rhf"
			},
			{
				"type": "occ",
				"energy": -0.27034,
				"method": "rhf"
			},
			{
				"type": "occ",
				"energy": -0.24428,
				"method": "rhf"
			},
			{
				"type": "occ",
				"energy": -0.21925,
				"method": "rhf"
			},
			{
				"type": "unocc",
				"energy": -0.01204,
				"method": "rhf"
			},
			{
				"type": "unocc",
				"energy": 0.02051,
				"method": "rhf"
			},
			{
				"type": "unocc",
				"energy": 0.04907,
				"method": "rhf"
			},
			{
				"type": "unocc",
				"energy": 0.07508,
				"method": "rhf"
			},
			{
				"type": "unocc",
				"energy": 0.07743,
				"method": "rhf"
			}
		],
		"cosmo_sigma_profile": { 
			"-0.025": 0.0,
			"-0.024": 0.0,
			"-0.023": 0.0,
			"-0.022": 0.0,
			"-0.021": 0.0,
			"-0.02": 0.0,
			"-0.019": 0.0,
			"-0.018": 0.0,
			"-0.017": 0.0,
			"-0.016": 0.0,
			"-0.015": 1.07553392787,
			"-0.014": 2.03039685947,
			"-0.013": 3.04511375319,
			"-0.012": 3.15858853524,
			"-0.011": 3.2117200546,
			"-0.01": 3.4012312241,
			"-0.009": 3.46774905309,
			"-0.008": 3.68909784321,
			"-0.007": 3.63436557525,
			"-0.006": 3.56921469486,
			"-0.005": 5.10580903689,
			"-0.004": 13.1379118121,
			"-0.003": 24.9569615157,
			"-0.002": 34.4775401394,
			"-0.001": 37.3382882084,
			"0.0": 34.4832395974,
			"0.001": 27.330171862,
			"0.002": 15.0446387867,
			"0.003": 8.0403996507,
			"0.004": 7.44705204101,
			"0.005": 4.62675420485,
			"0.006": 3.88873075164,
			"0.007": 3.35431494141,
			"0.008": 2.67583962849,
			"0.009": 2.66010552063,
			"0.01": 3.35198787301,
			"0.011": 2.70543929556,
			"0.012": 4.51548179896,
			"0.013": 6.1613571399,
			"0.014": 6.80606589736,
			"0.015": 2.42185675068,
			"0.016": 0.122821063273,
			"0.017": 0.0,
			"0.018": 0.0,
			"0.019": 0.0,
			"0.02": 0.0,
			"0.021": 0.0,
			"0.022": 0.0,
			"0.023": 0.0,
			"0.024": 0.0,
			"0.025": 0.0
		}
	}
}
