{
	 "smiles": "CCOC(=O)NC1C(C2CCC1(C)C2(C)C)N(C)C", 
	 "Tm": 510.15, 
	 "num_atms": 47, 
	 "gaussian": { 
		 "optdone": 1, 
		 "sigma_profile": "yes", 
		 "theory": "DFT", 
		 "functional": "B3LYP", 
		 "basiset": "6-31G**", 
		 "properties": { 
			 "R2extent": 5588.9366, 
			 "electric_dipole_moment_norm": 2.28936725319, 
			 "electric_quadrupole_moment_norm": 15.9057925562, 
			 "total_energy": -848.442433296, 
			 "HOMO_LUMO_gap": 0.27271, 
			 "cosmo_polarized_energy": -10.19, 
			 "cosmo_cavitation_energy": 43.08, 
			 "cosmo_dispersion_energy": -28.55, 
			 "cosmo_repulsion_energy": 2.19, 
			 "cosmo_total_nonelectrostatic_energy": 16.72, 
			 "SMD_solvation_energy": 7.22 
		},
		"coords": [
			{
				"x": -0.0208991057,
				"y": -4.2795735473,
				"z": 2.1235690857,
				"element": "C" 
			},
			{
				"x": 1.223032222,
				"y": -3.4120834782,
				"z": 2.0782876231,
				"element": "C" 
			},
			{
				"x": 0.9283815642,
				"y": -2.2803395684,
				"z": 1.2333819727,
				"element": "O" 
			},
			{
				"x": 1.9555361937,
				"y": -1.4005059159,
				"z": 1.0745179315,
				"element": "C" 
			},
			{
				"x": 3.0527307236,
				"y": -1.5350715605,
				"z": 1.5894660584,
				"element": "O" 
			},
			{
				"x": 1.6041685323,
				"y": -0.3386704179,
				"z": 0.2897006869,
				"element": "N" 
			},
			{
				"x": 0.3601434305,
				"y": -0.1565662752,
				"z": -0.4481841874,
				"element": "C" 
			},
			{
				"x": -0.2065717062,
				"y": 1.3015209828,
				"z": -0.3461758894,
				"element": "C" 
			},
			{
				"x": -0.5279160534,
				"y": 1.6359057343,
				"z": -1.8308590022,
				"element": "C" 
			},
			{
				"x": -1.7154862303,
				"y": 0.7460830234,
				"z": -2.2707745232,
				"element": "C" 
			},
			{
				"x": -1.0604113872,
				"y": -0.6624450678,
				"z": -2.396883876,
				"element": "C" 
			},
			{
				"x": 0.4239620108,
				"y": -0.4251697843,
				"z": -1.9953193428,
				"element": "C" 
			},
			{
				"x": 1.3588969652,
				"y": -1.5551237169,
				"z": -2.4028535592,
				"element": "C" 
			},
			{
				"x": 0.6804157329,
				"y": 1.0076573745,
				"z": -2.5935540442,
				"element": "C" 
			},
			{
				"x": 2.0501821185,
				"y": 1.637041918,
				"z": -2.2653482217,
				"element": "C" 
			},
			{
				"x": 0.5455188589,
				"y": 1.0845935683,
				"z": -4.1280208604,
				"element": "C" 
			},
			{
				"x": -1.3508367993,
				"y": 1.4063252205,
				"z": 0.5668462039,
				"element": "N" 
			},
			{
				"x": -0.9980678416,
				"y": 1.0278112568,
				"z": 1.9344464514,
				"element": "C" 
			},
			{
				"x": -1.9298928377,
				"y": 2.7470048124,
				"z": 0.5599791042,
				"element": "C" 
			},
			{
				"x": -0.8702305514,
				"y": -3.7262903624,
				"z": 2.5351295988,
				"element": "H" 
			},
			{
				"x": -0.291102887,
				"y": -4.6296181428,
				"z": 1.1229350731,
				"element": "H" 
			},
			{
				"x": 0.1592199809,
				"y": -5.1539809545,
				"z": 2.7567548579,
				"element": "H" 
			},
			{
				"x": 1.5073759848,
				"y": -3.0522640528,
				"z": 3.0720771769,
				"element": "H" 
			},
			{
				"x": 2.0826219278,
				"y": -3.9500551915,
				"z": 1.6668101924,
				"element": "H" 
			},
			{
				"x": 2.3755705732,
				"y": 0.2911969129,
				"z": 0.131125925,
				"element": "H" 
			},
			{
				"x": -0.3501923791,
				"y": -0.853912678,
				"z": -0.006423775,
				"element": "H" 
			},
			{
				"x": 0.5996458375,
				"y": 1.9722632633,
				"z": 0.0065618748,
				"element": "H" 
			},
			{
				"x": -0.6731256786,
				"y": 2.7043927388,
				"z": -2.0156422547,
				"element": "H" 
			},
			{
				"x": -2.513939454,
				"y": 0.7599401848,
				"z": -1.5268175676,
				"element": "H" 
			},
			{
				"x": -2.1361087695,
				"y": 1.0861824807,
				"z": -3.2212976319,
				"element": "H" 
			},
			{
				"x": -1.5319173651,
				"y": -1.4034934158,
				"z": -1.7432109375,
				"element": "H" 
			},
			{
				"x": -1.1287010751,
				"y": -1.0550630911,
				"z": -3.4160840754,
				"element": "H" 
			},
			{
				"x": 1.3315426405,
				"y": -1.7151067638,
				"z": -3.4860768362,
				"element": "H" 
			},
			{
				"x": 1.0641182976,
				"y": -2.4946511245,
				"z": -1.9219437302,
				"element": "H" 
			},
			{
				"x": 2.3959320446,
				"y": -1.3556569504,
				"z": -2.1161353545,
				"element": "H" 
			},
			{
				"x": 2.123436897,
				"y": 2.6289778597,
				"z": -2.7254463259,
				"element": "H" 
			},
			{
				"x": 2.2475036702,
				"y": 1.7788193995,
				"z": -1.2017175534,
				"element": "H" 
			},
			{
				"x": 2.8638606737,
				"y": 1.0306469608,
				"z": -2.67799295,
				"element": "H" 
			},
			{
				"x": 0.5656845291,
				"y": 2.130327464,
				"z": -4.4555725624,
				"element": "H" 
			},
			{
				"x": -0.3708073711,
				"y": 0.6380543565,
				"z": -4.5161364194,
				"element": "H" 
			},
			{
				"x": 1.3883832312,
				"y": 0.5789247922,
				"z": -4.612283915,
				"element": "H" 
			},
			{
				"x": -0.6324399126,
				"y": -0.0000633848,
				"z": 1.9726738846,
				"element": "H" 
			},
			{
				"x": -0.221558421,
				"y": 1.6810635357,
				"z": 2.3768433345,
				"element": "H" 
			},
			{
				"x": -1.8906595385,
				"y": 1.0905978797,
				"z": 2.5650917054,
				"element": "H" 
			},
			{
				"x": -2.7706561714,
				"y": 2.7806517002,
				"z": 1.2598059344,
				"element": "H" 
			},
			{
				"x": -1.2091258735,
				"y": 3.5329151648,
				"z": 0.8594566503,
				"element": "H" 
			},
			{
				"x": -2.3124172315,
				"y": 2.9976068601,
				"z": -0.4323059302,
				"element": "H" 
			}
		],
		 "valence_orbital": [ 
			{
				"type": "occ",
				"energy": -0.28841,
				"method": "rhf"
			},
			{
				"type": "occ",
				"energy": -0.28579,
				"method": "rhf"
			},
			{
				"type": "occ",
				"energy": -0.25996,
				"method": "rhf"
			},
			{
				"type": "occ",
				"energy": -0.23849,
				"method": "rhf"
			},
			{
				"type": "occ",
				"energy": -0.21266,
				"method": "rhf"
			},
			{
				"type": "unocc",
				"energy": 0.06005,
				"method": "rhf"
			},
			{
				"type": "unocc",
				"energy": 0.06838,
				"method": "rhf"
			},
			{
				"type": "unocc",
				"energy": 0.08792,
				"method": "rhf"
			},
			{
				"type": "unocc",
				"energy": 0.09157,
				"method": "rhf"
			},
			{
				"type": "unocc",
				"energy": 0.09418,
				"method": "rhf"
			}
		],
		"cosmo_sigma_profile": { 
			"-0.025": 0.0,
			"-0.024": 0.0,
			"-0.023": 0.0,
			"-0.022": 0.0,
			"-0.021": 0.0,
			"-0.02": 0.0,
			"-0.019": 0.0,
			"-0.018": 0.0,
			"-0.017": 0.0,
			"-0.016": 0.0,
			"-0.015": 0.0,
			"-0.014": 0.0,
			"-0.013": 0.0,
			"-0.012": 0.65288921106,
			"-0.011": 0.749781861453,
			"-0.01": 0.878024222984,
			"-0.009": 1.47020836619,
			"-0.008": 0.912176334644,
			"-0.007": 0.628773854006,
			"-0.006": 1.8049579183,
			"-0.005": 4.69583524103,
			"-0.004": 14.9244977025,
			"-0.003": 34.1559098622,
			"-0.002": 50.8962136544,
			"-0.001": 59.9663592677,
			"0.0": 58.8110289685,
			"0.001": 39.0527874698,
			"0.002": 20.5905574741,
			"0.003": 7.68357053842,
			"0.004": 5.26340227353,
			"0.005": 3.71791951447,
			"0.006": 2.82235921771,
			"0.007": 2.16274479277,
			"0.008": 1.51349027821,
			"0.009": 2.33704116432,
			"0.01": 2.23907847684,
			"0.011": 1.73451060229,
			"0.012": 2.45347689546,
			"0.013": 4.34244109475,
			"0.014": 5.08135818472,
			"0.015": 0.203579921624,
			"0.016": 0.0,
			"0.017": 0.0,
			"0.018": 0.0,
			"0.019": 0.0,
			"0.02": 0.0,
			"0.021": 0.0,
			"0.022": 0.0,
			"0.023": 0.0,
			"0.024": 0.0,
			"0.025": 0.0
		}
	}
}
