{
	 "smiles": "COCCOC1=C2C=CC=CC2=CC(=N1)C(O)=O", 
	 "Tm": 419.15, 
	 "num_atms": 31, 
	 "gaussian": { 
		 "optdone": 1, 
		 "sigma_profile": "no", 
		 "theory": "DFT", 
		 "functional": "B3LYP", 
		 "basiset": "6-31G**", 
		 "properties": { 
			 "R2extent": 6706.9123, 
			 "electric_dipole_moment_norm": 2.75176954159, 
			 "electric_quadrupole_moment_norm": 21.1820391868, 
			 "total_energy": -858.872168954, 
			 "HOMO_LUMO_gap": 0.16433, 
			 "cosmo_polarized_energy": -19.57, 
			 "cosmo_cavitation_energy": 36.12, 
			 "cosmo_dispersion_energy": -25.87, 
			 "cosmo_repulsion_energy": 2.03, 
			 "cosmo_total_nonelectrostatic_energy": 12.27, 
			 "SMD_solvation_energy": 7.19 
		},
		"coords": [
			{
				"x": 1.6613585699,
				"y": -4.2055095063,
				"z": 2.5587252329,
				"element": "C" 
			},
			{
				"x": 1.8881180824,
				"y": -2.8747618096,
				"z": 2.1489922186,
				"element": "O" 
			},
			{
				"x": 2.3087859513,
				"y": -2.7814830829,
				"z": 0.8047524048,
				"element": "C" 
			},
			{
				"x": 2.5132611645,
				"y": -1.3274131326,
				"z": 0.4428460217,
				"element": "C" 
			},
			{
				"x": 1.2220465885,
				"y": -0.6965206758,
				"z": 0.4108482778,
				"element": "O" 
			},
			{
				"x": 1.1815273048,
				"y": 0.6048273111,
				"z": 0.0645595258,
				"element": "C" 
			},
			{
				"x": -0.1233346699,
				"y": 1.215285597,
				"z": 0.0892582139,
				"element": "C" 
			},
			{
				"x": -1.2959404853,
				"y": 0.5218821308,
				"z": 0.4622377853,
				"element": "C" 
			},
			{
				"x": -2.5120659792,
				"y": 1.1765710995,
				"z": 0.4597134245,
				"element": "C" 
			},
			{
				"x": -2.590514524,
				"y": 2.5375798473,
				"z": 0.0861086527,
				"element": "C" 
			},
			{
				"x": -1.4553719017,
				"y": 3.23159584,
				"z": -0.27859455,
				"element": "C" 
			},
			{
				"x": -0.192116151,
				"y": 2.5875766093,
				"z": -0.2852118303,
				"element": "C" 
			},
			{
				"x": 1.0157878785,
				"y": 3.2488835749,
				"z": -0.6465422286,
				"element": "C" 
			},
			{
				"x": 2.1959093717,
				"y": 2.5428903376,
				"z": -0.6203742778,
				"element": "C" 
			},
			{
				"x": 2.2814513563,
				"y": 1.2264879196,
				"z": -0.2671789273,
				"element": "N" 
			},
			{
				"x": 3.500829672,
				"y": 3.1765492091,
				"z": -0.9873407828,
				"element": "C" 
			},
			{
				"x": 3.3606018659,
				"y": 4.4883115154,
				"z": -1.3235498134,
				"element": "O" 
			},
			{
				"x": 4.5758115642,
				"y": 2.6197243666,
				"z": -0.9969036454,
				"element": "O" 
			},
			{
				"x": 2.5728423241,
				"y": -4.8203264901,
				"z": 2.4819932315,
				"element": "H" 
			},
			{
				"x": 0.8710474274,
				"y": -4.6895487583,
				"z": 1.9628304732,
				"element": "H" 
			},
			{
				"x": 1.3451910525,
				"y": -4.1743002518,
				"z": 3.6040977633,
				"element": "H" 
			},
			{
				"x": 3.2641721019,
				"y": -3.3138417106,
				"z": 0.6530633018,
				"element": "H" 
			},
			{
				"x": 1.5666524696,
				"y": -3.2348729016,
				"z": 0.1263512869,
				"element": "H" 
			},
			{
				"x": 3.149300569,
				"y": -0.8267437596,
				"z": 1.1790110458,
				"element": "H" 
			},
			{
				"x": 2.9945730623,
				"y": -1.2358621488,
				"z": -0.5360554505,
				"element": "H" 
			},
			{
				"x": -1.2197820741,
				"y": -0.5203102012,
				"z": 0.750346275,
				"element": "H" 
			},
			{
				"x": -3.4148085744,
				"y": 0.6459158306,
				"z": 0.7472393861,
				"element": "H" 
			},
			{
				"x": -3.5540428761,
				"y": 3.0390791825,
				"z": 0.0887608617,
				"element": "H" 
			},
			{
				"x": -1.5139310509,
				"y": 4.2782528396,
				"z": -0.5638642679,
				"element": "H" 
			},
			{
				"x": 1.0042899272,
				"y": 4.2926551724,
				"z": -0.935867338,
				"element": "H" 
			},
			{
				"x": 4.2557499826,
				"y": 4.7950260459,
				"z": -1.5408522712,
				"element": "H" 
			}
		],
		 "valence_orbital": [ 
			{
				"type": "occ",
				"energy": -0.26925,
				"method": "rhf"
			},
			{
				"type": "occ",
				"energy": -0.2671,
				"method": "rhf"
			},
			{
				"type": "occ",
				"energy": -0.26479,
				"method": "rhf"
			},
			{
				"type": "occ",
				"energy": -0.25678,
				"method": "rhf"
			},
			{
				"type": "occ",
				"energy": -0.22194,
				"method": "rhf"
			},
			{
				"type": "unocc",
				"energy": -0.05761,
				"method": "rhf"
			},
			{
				"type": "unocc",
				"energy": -0.03894,
				"method": "rhf"
			},
			{
				"type": "unocc",
				"energy": 0.01884,
				"method": "rhf"
			},
			{
				"type": "unocc",
				"energy": 0.04932,
				"method": "rhf"
			},
			{
				"type": "unocc",
				"energy": 0.0842,
				"method": "rhf"
			}
		],
		"cosmo_sigma_profile": { 
			"0.0": 0.0,
			"0.0": 0.0,
			"0.0": 0.0,
			"0.0": 0.0,
			"0.0": 0.0,
			"0.0": 0.0,
			"0.0": 0.0,
			"0.0": 0.0,
			"0.0": 0.0,
			"0.0": 0.0,
			"0.0": 0.0,
			"0.0": 0.0,
			"0.0": 0.0,
			"0.0": 0.0,
			"0.0": 0.0,
			"0.0": 0.0,
			"0.0": 0.0,
			"0.0": 0.0,
			"0.0": 0.0,
			"0.0": 0.0,
			"0.0": 0.0,
			"0.0": 0.0,
			"0.0": 0.0,
			"0.0": 0.0,
			"0.0": 0.0,
			"0.0": 0.0,
			"0.0": 0.0,
			"0.0": 0.0,
			"0.0": 0.0,
			"0.0": 0.0,
			"0.0": 0.0,
			"0.0": 0.0,
			"0.0": 0.0,
			"0.0": 0.0,
			"0.0": 0.0,
			"0.0": 0.0,
			"0.0": 0.0,
			"0.0": 0.0,
			"0.0": 0.0,
			"0.0": 0.0,
			"0.0": 0.0,
			"0.0": 0.0,
			"0.0": 0.0,
			"0.0": 0.0,
			"0.0": 0.0,
			"0.0": 0.0,
			"0.0": 0.0,
			"0.0": 0.0,
			"0.0": 0.0,
			"0.0": 0.0,
			"0.0": 0.0
		}
	}
}
