{
	 "smiles": "CC1=CC(Br)=CC(C)=C1N=C=S", 
	 "Tm": 352.65, 
	 "num_atms": 20, 
	 "gaussian": { 
		 "optdone": 1, 
		 "sigma_profile": "yes", 
		 "theory": "DFT", 
		 "functional": "B3LYP", 
		 "basiset": "6-31G**", 
		 "properties": { 
			 "R2extent": 6151.9906, 
			 "electric_dipole_moment_norm": 1.58088446131, 
			 "electric_quadrupole_moment_norm": 11.700445906, 
			 "total_energy": -3372.13428392, 
			 "HOMO_LUMO_gap": 0.17404, 
			 "cosmo_polarized_energy": -5.67, 
			 "cosmo_cavitation_energy": 29.33, 
			 "cosmo_dispersion_energy": -21.39, 
			 "cosmo_repulsion_energy": 1.68, 
			 "cosmo_total_nonelectrostatic_energy": 9.62, 
			 "SMD_solvation_energy": 4.39 
		},
		"coords": [
			{
				"x": -1.8206392154,
				"y": 1.6293604848,
				"z": -1.7057053184,
				"element": "C" 
			},
			{
				"x": -1.3479668047,
				"y": 1.6643031721,
				"z": -0.2756970854,
				"element": "C" 
			},
			{
				"x": -1.8379813777,
				"y": 2.6100112291,
				"z": 0.6267115638,
				"element": "C" 
			},
			{
				"x": -1.3853702478,
				"y": 2.6218640274,
				"z": 1.9436662782,
				"element": "C" 
			},
			{
				"x": -2.0723574346,
				"y": 3.9260846852,
				"z": 3.1565379996,
				"element": "Br" 
			},
			{
				"x": -0.4419325879,
				"y": 1.7018380983,
				"z": 2.3940729108,
				"element": "C" 
			},
			{
				"x": 0.0726959053,
				"y": 0.7401150557,
				"z": 1.5228284096,
				"element": "C" 
			},
			{
				"x": 1.0939997099,
				"y": -0.2666755079,
				"z": 1.9841630699,
				"element": "C" 
			},
			{
				"x": -0.3914426553,
				"y": 0.7348974015,
				"z": 0.1889635431,
				"element": "C" 
			},
			{
				"x": 0.103281564,
				"y": -0.2040928493,
				"z": -0.6843765938,
				"element": "N" 
			},
			{
				"x": 0.531253316,
				"y": -1.0147618697,
				"z": -1.4390223494,
				"element": "C" 
			},
			{
				"x": 1.105972193,
				"y": -2.1036262479,
				"z": -2.4524236375,
				"element": "S" 
			},
			{
				"x": -2.5558368445,
				"y": 2.4150868357,
				"z": -1.8926206401,
				"element": "H" 
			},
			{
				"x": -0.987315289,
				"y": 1.7680310467,
				"z": -2.403462948,
				"element": "H" 
			},
			{
				"x": -2.2813417369,
				"y": 0.6654330363,
				"z": -1.9488295753,
				"element": "H" 
			},
			{
				"x": -2.5730530635,
				"y": 3.3362637074,
				"z": 0.2985851189,
				"element": "H" 
			},
			{
				"x": -0.1043394945,
				"y": 1.7303188309,
				"z": 3.4239603367,
				"element": "H" 
			},
			{
				"x": 2.0200747059,
				"y": -0.1881443463,
				"z": 1.4038721776,
				"element": "H" 
			},
			{
				"x": 1.3388348949,
				"y": -0.1186879586,
				"z": 3.0381904647,
				"element": "H" 
			},
			{
				"x": 0.7268644627,
				"y": -1.2914188314,
				"z": 1.8591862749,
				"element": "H" 
			}
		],
		 "valence_orbital": [ 
			{
				"type": "occ",
				"energy": -0.29491,
				"method": "rhf"
			},
			{
				"type": "occ",
				"energy": -0.27799,
				"method": "rhf"
			},
			{
				"type": "occ",
				"energy": -0.26549,
				"method": "rhf"
			},
			{
				"type": "occ",
				"energy": -0.25542,
				"method": "rhf"
			},
			{
				"type": "occ",
				"energy": -0.22752,
				"method": "rhf"
			},
			{
				"type": "unocc",
				"energy": -0.05348,
				"method": "rhf"
			},
			{
				"type": "unocc",
				"energy": -0.02196,
				"method": "rhf"
			},
			{
				"type": "unocc",
				"energy": -0.00094,
				"method": "rhf"
			},
			{
				"type": "unocc",
				"energy": 0.00041,
				"method": "rhf"
			},
			{
				"type": "unocc",
				"energy": 0.03905,
				"method": "rhf"
			}
		],
		"cosmo_sigma_profile": { 
			"-0.025": 0.0,
			"-0.024": 0.0,
			"-0.023": 0.0,
			"-0.022": 0.0,
			"-0.021": 0.0,
			"-0.02": 0.0,
			"-0.019": 0.0,
			"-0.018": 0.0,
			"-0.017": 0.0,
			"-0.016": 0.0,
			"-0.015": 0.0,
			"-0.014": 0.0,
			"-0.013": 0.0,
			"-0.012": 0.0,
			"-0.011": 0.0,
			"-0.01": 0.0,
			"-0.009": 0.0,
			"-0.008": 0.161708913489,
			"-0.007": 3.75500887022,
			"-0.006": 6.53769367436,
			"-0.005": 13.0828484313,
			"-0.004": 17.8670947565,
			"-0.003": 20.9106125542,
			"-0.002": 22.3499858213,
			"-0.001": 31.6360870601,
			"0.0": 20.2666532994,
			"0.001": 20.5529943549,
			"0.002": 23.9134768698,
			"0.003": 16.6086079827,
			"0.004": 16.6503299841,
			"0.005": 11.4171392239,
			"0.006": 13.1425922983,
			"0.007": 2.5464454913,
			"0.008": 0.0,
			"0.009": 0.0,
			"0.01": 0.0,
			"0.011": 0.0,
			"0.012": 0.0,
			"0.013": 0.0,
			"0.014": 0.0,
			"0.015": 0.0,
			"0.016": 0.0,
			"0.017": 0.0,
			"0.018": 0.0,
			"0.019": 0.0,
			"0.02": 0.0,
			"0.021": 0.0,
			"0.022": 0.0,
			"0.023": 0.0,
			"0.024": 0.0,
			"0.025": 0.0
		}
	}
}
