{
	 "smiles": "COC1=C(O)C=CC(CCC(C)=NO)=C1", 
	 "Tm": 356.15, 
	 "num_atms": 30, 
	 "gaussian": { 
		 "optdone": 1, 
		 "sigma_profile": "yes", 
		 "theory": "DFT", 
		 "functional": "B3LYP", 
		 "basiset": "6-31G**", 
		 "properties": { 
			 "R2extent": 4379.9018, 
			 "electric_dipole_moment_norm": 2.94181304131, 
			 "electric_quadrupole_moment_norm": 14.008599819, 
			 "total_energy": -708.569530569, 
			 "HOMO_LUMO_gap": 0.20741, 
			 "cosmo_polarized_energy": -12.94, 
			 "cosmo_cavitation_energy": 33.38, 
			 "cosmo_dispersion_energy": -23.16, 
			 "cosmo_repulsion_energy": 1.86, 
			 "cosmo_total_nonelectrostatic_energy": 12.07, 
			 "SMD_solvation_energy": 6.47 
		},
		"coords": [
			{
				"x": -3.8678088036,
				"y": 0.0972329242,
				"z": 1.4785640161,
				"element": "C" 
			},
			{
				"x": -3.808595646,
				"y": 0.0929877877,
				"z": 0.0612526468,
				"element": "O" 
			},
			{
				"x": -2.6245356954,
				"y": -0.2662908429,
				"z": -0.5403110758,
				"element": "C" 
			},
			{
				"x": -2.6780891107,
				"y": -0.238467685,
				"z": -1.9500275511,
				"element": "C" 
			},
			{
				"x": -3.8276714533,
				"y": 0.1242691865,
				"z": -2.5851533641,
				"element": "O" 
			},
			{
				"x": -1.5496575142,
				"y": -0.5905855337,
				"z": -2.6791574906,
				"element": "C" 
			},
			{
				"x": -0.3748963806,
				"y": -0.9640154427,
				"z": -2.0166748533,
				"element": "C" 
			},
			{
				"x": -0.3061586296,
				"y": -0.9904615166,
				"z": -0.6225553997,
				"element": "C" 
			},
			{
				"x": 0.9663884982,
				"y": -1.3839262724,
				"z": 0.0983732591,
				"element": "C" 
			},
			{
				"x": 1.7279571414,
				"y": -0.228180051,
				"z": 0.8021793927,
				"element": "C" 
			},
			{
				"x": 2.3018912911,
				"y": 0.8092098322,
				"z": -0.1355190235,
				"element": "C" 
			},
			{
				"x": 1.4329508379,
				"y": 1.8814653396,
				"z": -0.7396559646,
				"element": "C" 
			},
			{
				"x": 3.5605841414,
				"y": 0.701939479,
				"z": -0.3638510062,
				"element": "N" 
			},
			{
				"x": 4.0057935618,
				"y": 1.6921294,
				"z": -1.2683215952,
				"element": "O" 
			},
			{
				"x": -1.454963325,
				"y": -0.6395187856,
				"z": 0.1126356753,
				"element": "C" 
			},
			{
				"x": -3.6791752537,
				"y": -0.9023884629,
				"z": 1.8898572867,
				"element": "H" 
			},
			{
				"x": -3.1461455595,
				"y": 0.8042678896,
				"z": 1.9068899903,
				"element": "H" 
			},
			{
				"x": -4.8792860593,
				"y": 0.4105025391,
				"z": 1.7415487437,
				"element": "H" 
			},
			{
				"x": -4.4807316262,
				"y": 0.3212460431,
				"z": -1.8963229341,
				"element": "H" 
			},
			{
				"x": -1.604703071,
				"y": -0.5714048613,
				"z": -3.7627285636,
				"element": "H" 
			},
			{
				"x": 0.4988844035,
				"y": -1.2395850354,
				"z": -2.6007208288,
				"element": "H" 
			},
			{
				"x": 0.7331875374,
				"y": -2.1339417038,
				"z": 0.8655559296,
				"element": "H" 
			},
			{
				"x": 1.6526488171,
				"y": -1.8638394191,
				"z": -0.6075672547,
				"element": "H" 
			},
			{
				"x": 1.0575222037,
				"y": 0.2653712074,
				"z": 1.5178207482,
				"element": "H" 
			},
			{
				"x": 2.5557853262,
				"y": -0.6631848643,
				"z": 1.3704359242,
				"element": "H" 
			},
			{
				"x": 1.320746837,
				"y": 1.7254835029,
				"z": -1.8178127215,
				"element": "H" 
			},
			{
				"x": 1.9052500813,
				"y": 2.8604535997,
				"z": -0.6107129697,
				"element": "H" 
			},
			{
				"x": 0.4386702829,
				"y": 1.8882648111,
				"z": -0.2911530776,
				"element": "H" 
			},
			{
				"x": 4.953532057,
				"y": 1.5103063367,
				"z": -1.3092818663,
				"element": "H" 
			},
			{
				"x": -1.42247489,
				"y": -0.6691394021,
				"z": 1.1971139277,
				"element": "H" 
			}
		],
		 "valence_orbital": [ 
			{
				"type": "occ",
				"energy": -0.3102,
				"method": "rhf"
			},
			{
				"type": "occ",
				"energy": -0.26147,
				"method": "rhf"
			},
			{
				"type": "occ",
				"energy": -0.23803,
				"method": "rhf"
			},
			{
				"type": "occ",
				"energy": -0.23499,
				"method": "rhf"
			},
			{
				"type": "occ",
				"energy": -0.20193,
				"method": "rhf"
			},
			{
				"type": "unocc",
				"energy": 0.00548,
				"method": "rhf"
			},
			{
				"type": "unocc",
				"energy": 0.015,
				"method": "rhf"
			},
			{
				"type": "unocc",
				"energy": 0.01833,
				"method": "rhf"
			},
			{
				"type": "unocc",
				"energy": 0.07674,
				"method": "rhf"
			},
			{
				"type": "unocc",
				"energy": 0.08578,
				"method": "rhf"
			}
		],
		"cosmo_sigma_profile": { 
			"-0.025": 0.0,
			"-0.024": 0.0,
			"-0.023": 0.0,
			"-0.022": 0.0,
			"-0.021": 0.0,
			"-0.02": 0.0,
			"-0.019": 0.0,
			"-0.018": 0.0,
			"-0.017": 0.367872100632,
			"-0.016": 0.90046491006,
			"-0.015": 1.05936744762,
			"-0.014": 1.08174548097,
			"-0.013": 0.950179336992,
			"-0.012": 1.31073750352,
			"-0.011": 1.53817447995,
			"-0.01": 1.42411491721,
			"-0.009": 0.786203718324,
			"-0.008": 1.03038826196,
			"-0.007": 1.4309026542,
			"-0.006": 8.30044124631,
			"-0.005": 16.3639779992,
			"-0.004": 24.3157082772,
			"-0.003": 30.0029197349,
			"-0.002": 23.1722895276,
			"-0.001": 22.0907422421,
			"0.0": 21.4198433242,
			"0.001": 13.0399884585,
			"0.002": 13.8742735001,
			"0.003": 13.0897547043,
			"0.004": 13.8744376012,
			"0.005": 12.3586339646,
			"0.006": 9.68146664405,
			"0.007": 7.08171154978,
			"0.008": 4.2215507873,
			"0.009": 4.23337014528,
			"0.01": 4.83125602282,
			"0.011": 3.93042534702,
			"0.012": 2.3954171321,
			"0.013": 0.88848861503,
			"0.014": 0.838901431411,
			"0.015": 0.0931656223896,
			"0.016": 0.0,
			"0.017": 0.0,
			"0.018": 0.0,
			"0.019": 0.0,
			"0.02": 0.0,
			"0.021": 0.0,
			"0.022": 0.0,
			"0.023": 0.0,
			"0.024": 0.0,
			"0.025": 0.0
		}
	}
}
