{
	 "smiles": "CC(=O)OC1CCC2(C)C3CCC4(C)C(CCC4=O)C3C(=O)C=C2C1", 
	 "Tm": 455.15, 
	 "num_atms": 53, 
	 "gaussian": { 
		 "optdone": 1, 
		 "sigma_profile": "yes", 
		 "theory": "DFT", 
		 "functional": "B3LYP", 
		 "basiset": "6-31G**", 
		 "properties": { 
			 "R2extent": 10898.296, 
			 "electric_dipole_moment_norm": 4.52012005703, 
			 "electric_quadrupole_moment_norm": 31.2246577765, 
			 "total_energy": -1118.01509338, 
			 "HOMO_LUMO_gap": 0.17648, 
			 "cosmo_polarized_energy": -18.3, 
			 "cosmo_cavitation_energy": 48.38, 
			 "cosmo_dispersion_energy": -33.2, 
			 "cosmo_repulsion_energy": 2.46, 
			 "cosmo_total_nonelectrostatic_energy": 17.64, 
			 "SMD_solvation_energy": 9.19 
		},
		"coords": [
			{
				"x": 5.3266927394,
				"y": -1.5191999418,
				"z": 3.8524160703,
				"element": "C" 
			},
			{
				"x": 5.1266418134,
				"y": -1.5797330816,
				"z": 2.3566972686,
				"element": "C" 
			},
			{
				"x": 6.0100702341,
				"y": -1.5626229064,
				"z": 1.5276223278,
				"element": "O" 
			},
			{
				"x": 3.8077592874,
				"y": -1.6575507094,
				"z": 2.0482622943,
				"element": "O" 
			},
			{
				"x": 3.4787534524,
				"y": -1.7655458247,
				"z": 0.6336863399,
				"element": "C" 
			},
			{
				"x": 2.0906797119,
				"y": -2.3856219534,
				"z": 0.5584496024,
				"element": "C" 
			},
			{
				"x": 1.0274857209,
				"y": -1.4925161226,
				"z": 1.2148280513,
				"element": "C" 
			},
			{
				"x": 1.0455080892,
				"y": 0.0104299972,
				"z": 0.7364610385,
				"element": "C" 
			},
			{
				"x": 1.4007699346,
				"y": 0.9136581053,
				"z": 1.9461413696,
				"element": "C" 
			},
			{
				"x": -0.3384910968,
				"y": 0.3699966172,
				"z": 0.1204145471,
				"element": "C" 
			},
			{
				"x": -1.5504913334,
				"y": 0.3558911842,
				"z": 1.07140631,
				"element": "C" 
			},
			{
				"x": -2.881373898,
				"y": 0.344053747,
				"z": 0.2725801734,
				"element": "C" 
			},
			{
				"x": -2.8123135664,
				"y": 1.2262531688,
				"z": -1.0015534131,
				"element": "C" 
			},
			{
				"x": -2.6965553858,
				"y": 0.3665759579,
				"z": -2.2875969276,
				"element": "C" 
			},
			{
				"x": -1.7012720182,
				"y": 2.2940534378,
				"z": -0.856739323,
				"element": "C" 
			},
			{
				"x": -2.0239144062,
				"y": 3.3587483816,
				"z": -1.9274306953,
				"element": "C" 
			},
			{
				"x": -3.5644399149,
				"y": 3.453573142,
				"z": -1.8483316091,
				"element": "C" 
			},
			{
				"x": -4.0376914307,
				"y": 2.1268728905,
				"z": -1.2293886399,
				"element": "C" 
			},
			{
				"x": -5.1851244053,
				"y": 1.8468510711,
				"z": -0.9547559189,
				"element": "O" 
			},
			{
				"x": -0.2857846525,
				"y": 1.7172389566,
				"z": -0.6639326586,
				"element": "C" 
			},
			{
				"x": 0.6232329264,
				"y": 1.4942697067,
				"z": -1.8640849393,
				"element": "C" 
			},
			{
				"x": 0.4012977278,
				"y": 1.884018997,
				"z": -3.0031849731,
				"element": "O" 
			},
			{
				"x": 1.8831383994,
				"y": 0.7957409834,
				"z": -1.5221024555,
				"element": "C" 
			},
			{
				"x": 2.1199353173,
				"y": 0.1817544322,
				"z": -0.3435526367,
				"element": "C" 
			},
			{
				"x": 3.4965827599,
				"y": -0.3799131491,
				"z": -0.0542605484,
				"element": "C" 
			},
			{
				"x": 4.8337318764,
				"y": -0.6323066565,
				"z": 4.262060586,
				"element": "H" 
			},
			{
				"x": 4.8728245994,
				"y": -2.3928175475,
				"z": 4.3290896626,
				"element": "H" 
			},
			{
				"x": 6.3928536089,
				"y": -1.4843763645,
				"z": 4.0736757803,
				"element": "H" 
			},
			{
				"x": 4.2334222376,
				"y": -2.4093636586,
				"z": 0.1776248475,
				"element": "H" 
			},
			{
				"x": 1.8571066063,
				"y": -2.5367771401,
				"z": -0.5031478207,
				"element": "H" 
			},
			{
				"x": 2.094310749,
				"y": -3.3738804478,
				"z": 1.0299243985,
				"element": "H" 
			},
			{
				"x": 1.1662844738,
				"y": -1.5281152801,
				"z": 2.2992127116,
				"element": "H" 
			},
			{
				"x": 0.043403984,
				"y": -1.9274088573,
				"z": 1.0147049931,
				"element": "H" 
			},
			{
				"x": 2.3630983412,
				"y": 0.618545462,
				"z": 2.3722271184,
				"element": "H" 
			},
			{
				"x": 1.4632142697,
				"y": 1.9712391458,
				"z": 1.6722371075,
				"element": "H" 
			},
			{
				"x": 0.6479403032,
				"y": 0.8095593898,
				"z": 2.7334846426,
				"element": "H" 
			},
			{
				"x": -0.5211914858,
				"y": -0.4214773878,
				"z": -0.6201167306,
				"element": "H" 
			},
			{
				"x": -1.5127499006,
				"y": 1.2298682035,
				"z": 1.7330074201,
				"element": "H" 
			},
			{
				"x": -1.5207071034,
				"y": -0.5202282263,
				"z": 1.7282668301,
				"element": "H" 
			},
			{
				"x": -3.706017336,
				"y": 0.6770953377,
				"z": 0.9120802099,
				"element": "H" 
			},
			{
				"x": -3.1188821513,
				"y": -0.6870771,
				"z": -0.0120564092,
				"element": "H" 
			},
			{
				"x": -1.8064787619,
				"y": -0.2674507422,
				"z": -2.2734101567,
				"element": "H" 
			},
			{
				"x": -3.574606877,
				"y": -0.2825443819,
				"z": -2.3659889778,
				"element": "H" 
			},
			{
				"x": -2.6437384229,
				"y": 0.9754262467,
				"z": -3.1943129934,
				"element": "H" 
			},
			{
				"x": -1.9263304871,
				"y": 2.7840570128,
				"z": 0.1039792266,
				"element": "H" 
			},
			{
				"x": -1.5339699426,
				"y": 4.3144363889,
				"z": -1.7165652433,
				"element": "H" 
			},
			{
				"x": -1.6847860998,
				"y": 3.0360482904,
				"z": -2.9113740306,
				"element": "H" 
			},
			{
				"x": -4.0578863721,
				"y": 3.6215144841,
				"z": -2.8109777206,
				"element": "H" 
			},
			{
				"x": -3.8981576948,
				"y": 4.2607504197,
				"z": -1.1846706326,
				"element": "H" 
			},
			{
				"x": 0.2679257838,
				"y": 2.438773654,
				"z": -0.0442187146,
				"element": "H" 
			},
			{
				"x": 2.6493543125,
				"y": 0.8284352019,
				"z": -2.2938852532,
				"element": "H" 
			},
			{
				"x": 4.0647648242,
				"y": -0.4395705843,
				"z": -0.9869634837,
				"element": "H" 
			},
			{
				"x": 4.0489706595,
				"y": 0.3186680503,
				"z": 0.5854619779,
				"element": "H" 
			}
		],
		 "valence_orbital": [ 
			{
				"type": "occ",
				"energy": -0.29632,
				"method": "rhf"
			},
			{
				"type": "occ",
				"energy": -0.27956,
				"method": "rhf"
			},
			{
				"type": "occ",
				"energy": -0.26168,
				"method": "rhf"
			},
			{
				"type": "occ",
				"energy": -0.23812,
				"method": "rhf"
			},
			{
				"type": "occ",
				"energy": -0.22809,
				"method": "rhf"
			},
			{
				"type": "unocc",
				"energy": -0.05161,
				"method": "rhf"
			},
			{
				"type": "unocc",
				"energy": -0.00961,
				"method": "rhf"
			},
			{
				"type": "unocc",
				"energy": 0.00305,
				"method": "rhf"
			},
			{
				"type": "unocc",
				"energy": 0.05038,
				"method": "rhf"
			},
			{
				"type": "unocc",
				"energy": 0.06917,
				"method": "rhf"
			}
		],
		"cosmo_sigma_profile": { 
			"-0.025": 0.0,
			"-0.024": 0.0,
			"-0.023": 0.0,
			"-0.022": 0.0,
			"-0.021": 0.0,
			"-0.02": 0.0,
			"-0.019": 0.0,
			"-0.018": 0.0,
			"-0.017": 0.0,
			"-0.016": 0.0,
			"-0.015": 0.0,
			"-0.014": 0.0,
			"-0.013": 0.0,
			"-0.012": 0.0,
			"-0.011": 0.0,
			"-0.01": 0.0,
			"-0.009": 0.0,
			"-0.008": 0.0,
			"-0.007": 0.686213134478,
			"-0.006": 7.46548687896,
			"-0.005": 28.8025837491,
			"-0.004": 41.6833213156,
			"-0.003": 53.4225400574,
			"-0.002": 58.4386402507,
			"-0.001": 42.5134503788,
			"0.0": 31.4501571701,
			"0.001": 21.9256481883,
			"0.002": 11.2749313781,
			"0.003": 8.8450760147,
			"0.004": 7.56875749632,
			"0.005": 6.00921593205,
			"0.006": 7.430115425,
			"0.007": 4.95772307632,
			"0.008": 5.43482828045,
			"0.009": 4.22901550495,
			"0.01": 5.23568075007,
			"0.011": 8.03349340131,
			"0.012": 11.6340983378,
			"0.013": 6.72516365648,
			"0.014": 1.49857072732,
			"0.015": 0.0686283635715,
			"0.016": 0.0,
			"0.017": 0.0,
			"0.018": 0.0,
			"0.019": 0.0,
			"0.02": 0.0,
			"0.021": 0.0,
			"0.022": 0.0,
			"0.023": 0.0,
			"0.024": 0.0,
			"0.025": 0.0
		}
	}
}
