{
	 "smiles": "COC1=CC=C(C=C(OC2=CC=CC=C2)C2=NC3=C(S2)C=CC=C3)C=C1", 
	 "Tm": 424.15, 
	 "num_atms": 43, 
	 "gaussian": { 
		 "optdone": 1, 
		 "sigma_profile": "yes", 
		 "theory": "DFT", 
		 "functional": "B3LYP", 
		 "basiset": "6-31G**", 
		 "properties": { 
			 "R2extent": 13673.0968, 
			 "electric_dipole_moment_norm": 2.80536841253, 
			 "electric_quadrupole_moment_norm": 17.9817110009, 
			 "total_energy": -1451.95089903, 
			 "HOMO_LUMO_gap": 0.13417, 
			 "cosmo_polarized_energy": -13.94, 
			 "cosmo_cavitation_energy": 49.52, 
			 "cosmo_dispersion_energy": -34.73, 
			 "cosmo_repulsion_energy": 2.59, 
			 "cosmo_total_nonelectrostatic_energy": 17.37, 
			 "SMD_solvation_energy": 7.27 
		},
		"coords": [
			{
				"x": -2.9168025576,
				"y": -3.8687130503,
				"z": 4.8229968778,
				"element": "C" 
			},
			{
				"x": -3.400395494,
				"y": -3.2446230735,
				"z": 3.6429937035,
				"element": "O" 
			},
			{
				"x": -2.5537111183,
				"y": -2.4420773885,
				"z": 2.9418008848,
				"element": "C" 
			},
			{
				"x": -3.0891250758,
				"y": -1.8500426931,
				"z": 1.7853642323,
				"element": "C" 
			},
			{
				"x": -2.3171836474,
				"y": -1.0158553401,
				"z": 0.9949933809,
				"element": "C" 
			},
			{
				"x": -0.9695657956,
				"y": -0.7382634705,
				"z": 1.3278536304,
				"element": "C" 
			},
			{
				"x": -0.0767925534,
				"y": 0.116761805,
				"z": 0.5578591274,
				"element": "C" 
			},
			{
				"x": -0.2679933075,
				"y": 0.7664752267,
				"z": -0.6160344205,
				"element": "C" 
			},
			{
				"x": -1.5020150261,
				"y": 0.7792589599,
				"z": -1.2303210967,
				"element": "O" 
			},
			{
				"x": -1.6417014809,
				"y": 0.2659351183,
				"z": -2.5111081349,
				"element": "C" 
			},
			{
				"x": -0.7916242147,
				"y": -0.7084382767,
				"z": -3.0357191968,
				"element": "C" 
			},
			{
				"x": -1.0453811369,
				"y": -1.2141272645,
				"z": -4.3121886499,
				"element": "C" 
			},
			{
				"x": -2.1389868291,
				"y": -0.7637291969,
				"z": -5.0527054237,
				"element": "C" 
			},
			{
				"x": -2.9855065471,
				"y": 0.205786284,
				"z": -4.5079321731,
				"element": "C" 
			},
			{
				"x": -2.7405682822,
				"y": 0.7258572527,
				"z": -3.2387232874,
				"element": "C" 
			},
			{
				"x": 0.7561136178,
				"y": 1.6037765344,
				"z": -1.2470120874,
				"element": "C" 
			},
			{
				"x": 0.5057339389,
				"y": 2.4405016359,
				"z": -2.2073137124,
				"element": "N" 
			},
			{
				"x": 1.6450382649,
				"y": 3.1053966615,
				"z": -2.6158351156,
				"element": "C" 
			},
			{
				"x": 2.836128179,
				"y": 2.7545176031,
				"z": -1.9311884033,
				"element": "C" 
			},
			{
				"x": 2.4761823871,
				"y": 1.5201566529,
				"z": -0.7414975122,
				"element": "S" 
			},
			{
				"x": 4.0580219854,
				"y": 3.3558389156,
				"z": -2.2390599749,
				"element": "C" 
			},
			{
				"x": 4.0800632969,
				"y": 4.3170237487,
				"z": -3.2477650179,
				"element": "C" 
			},
			{
				"x": 2.9068933362,
				"y": 4.6736343763,
				"z": -3.935408487,
				"element": "C" 
			},
			{
				"x": 1.6904595173,
				"y": 4.0766993876,
				"z": -3.6279795818,
				"element": "C" 
			},
			{
				"x": -0.458111069,
				"y": -1.3365527305,
				"z": 2.4948022342,
				"element": "C" 
			},
			{
				"x": -1.2248117473,
				"y": -2.1784472212,
				"z": 3.2967601868,
				"element": "C" 
			},
			{
				"x": -2.0725609677,
				"y": -4.5367170509,
				"z": 4.6099240065,
				"element": "H" 
			},
			{
				"x": -2.6096215519,
				"y": -3.1299357406,
				"z": 5.5741301384,
				"element": "H" 
			},
			{
				"x": -3.7485310238,
				"y": -4.4553315814,
				"z": 5.2156319318,
				"element": "H" 
			},
			{
				"x": -4.1225650518,
				"y": -2.0615206468,
				"z": 1.5307144823,
				"element": "H" 
			},
			{
				"x": -2.7538648675,
				"y": -0.561976696,
				"z": 0.1158677202,
				"element": "H" 
			},
			{
				"x": 0.8985895373,
				"y": 0.2681294373,
				"z": 1.0144132832,
				"element": "H" 
			},
			{
				"x": 0.0496264502,
				"y": -1.0688273493,
				"z": -2.4533134919,
				"element": "H" 
			},
			{
				"x": -0.3832183966,
				"y": -1.9706767529,
				"z": -4.723726478,
				"element": "H" 
			},
			{
				"x": -2.3306796415,
				"y": -1.1634990435,
				"z": -6.0437202991,
				"element": "H" 
			},
			{
				"x": -3.8393224092,
				"y": 0.5649227477,
				"z": -5.0754675146,
				"element": "H" 
			},
			{
				"x": -3.3780615077,
				"y": 1.487083012,
				"z": -2.8016213519,
				"element": "H" 
			},
			{
				"x": 4.9666956384,
				"y": 3.0848783348,
				"z": -1.7111171966,
				"element": "H" 
			},
			{
				"x": 5.0198441113,
				"y": 4.7966280173,
				"z": -3.5047774586,
				"element": "H" 
			},
			{
				"x": 2.954019829,
				"y": 5.4261874088,
				"z": -4.7167329166,
				"element": "H" 
			},
			{
				"x": 0.7756108313,
				"y": 4.3407923704,
				"z": -4.1478171965,
				"element": "H" 
			},
			{
				"x": 0.5718454652,
				"y": -1.1391623212,
				"z": 2.7814820859,
				"element": "H" 
			},
			{
				"x": -0.7835650856,
				"y": -2.6163246022,
				"z": 4.1840982732,
				"element": "H" 
			}
		],
		 "valence_orbital": [ 
			{
				"type": "occ",
				"energy": -0.24696,
				"method": "rhf"
			},
			{
				"type": "occ",
				"energy": -0.24194,
				"method": "rhf"
			},
			{
				"type": "occ",
				"energy": -0.2331,
				"method": "rhf"
			},
			{
				"type": "occ",
				"energy": -0.22116,
				"method": "rhf"
			},
			{
				"type": "occ",
				"energy": -0.19835,
				"method": "rhf"
			},
			{
				"type": "unocc",
				"energy": -0.06418,
				"method": "rhf"
			},
			{
				"type": "unocc",
				"energy": -0.00455,
				"method": "rhf"
			},
			{
				"type": "unocc",
				"energy": -0.00381,
				"method": "rhf"
			},
			{
				"type": "unocc",
				"energy": -0.00073,
				"method": "rhf"
			},
			{
				"type": "unocc",
				"energy": 0.00438,
				"method": "rhf"
			}
		],
		"cosmo_sigma_profile": { 
			"-0.025": 0.0,
			"-0.024": 0.0,
			"-0.023": 0.0,
			"-0.022": 0.0,
			"-0.021": 0.0,
			"-0.02": 0.0,
			"-0.019": 0.0,
			"-0.018": 0.0,
			"-0.017": 0.0,
			"-0.016": 0.0,
			"-0.015": 0.0,
			"-0.014": 0.0,
			"-0.013": 0.0,
			"-0.012": 0.0,
			"-0.011": 0.0,
			"-0.01": 0.0,
			"-0.009": 0.0196369156921,
			"-0.008": 1.5801691878,
			"-0.007": 7.61432429472,
			"-0.006": 27.5637577826,
			"-0.005": 32.6102635445,
			"-0.004": 35.1949058044,
			"-0.003": 31.371455327,
			"-0.002": 24.5568189023,
			"-0.001": 24.011476607,
			"0.0": 24.7972958023,
			"0.001": 31.1916913606,
			"0.002": 33.789275029,
			"0.003": 37.860127669,
			"0.004": 36.6736863359,
			"0.005": 23.4341436735,
			"0.006": 9.48138681036,
			"0.007": 4.10525444479,
			"0.008": 4.58348368937,
			"0.009": 3.95815513031,
			"0.01": 2.08975635676,
			"0.011": 1.70573518249,
			"0.012": 1.46189824015,
			"0.013": 0.664351549114,
			"0.014": 0.061221686348,
			"0.015": 0.0,
			"0.016": 0.0,
			"0.017": 0.0,
			"0.018": 0.0,
			"0.019": 0.0,
			"0.02": 0.0,
			"0.021": 0.0,
			"0.022": 0.0,
			"0.023": 0.0,
			"0.024": 0.0,
			"0.025": 0.0
		}
	}
}
