{
	 "smiles": "BrC1=CC=CC(C=O)=N1", 
	 "Tm": 354.15, 
	 "num_atms": 13, 
	 "gaussian": { 
		 "optdone": 1, 
		 "sigma_profile": "yes", 
		 "theory": "DFT", 
		 "functional": "B3LYP", 
		 "basiset": "6-31G**", 
		 "properties": { 
			 "R2extent": 3629.176, 
			 "electric_dipole_moment_norm": 5.45127461792, 
			 "electric_quadrupole_moment_norm": 12.0255624746, 
			 "total_energy": -2932.40376377, 
			 "HOMO_LUMO_gap": 0.17769, 
			 "cosmo_polarized_energy": -13.58, 
			 "cosmo_cavitation_energy": 20.68, 
			 "cosmo_dispersion_energy": -15.6, 
			 "cosmo_repulsion_energy": 1.29, 
			 "cosmo_total_nonelectrostatic_energy": 6.37, 
			 "SMD_solvation_energy": 2.31 
		},
		"coords": [
			{
				"x": -1.6155763011,
				"y": -1.761669895,
				"z": -3.272114204,
				"element": "Br" 
			},
			{
				"x": -0.3067834564,
				"y": -0.7164662199,
				"z": -2.3323648061,
				"element": "C" 
			},
			{
				"x": 0.8559112521,
				"y": -1.3661210804,
				"z": -1.8869983948,
				"element": "C" 
			},
			{
				"x": 1.794769451,
				"y": -0.5992373881,
				"z": -1.2085948547,
				"element": "C" 
			},
			{
				"x": 1.5380731052,
				"y": 0.7599316981,
				"z": -1.0068279768,
				"element": "C" 
			},
			{
				"x": 0.3449366728,
				"y": 1.2932370274,
				"z": -1.496762602,
				"element": "C" 
			},
			{
				"x": 0.0520388481,
				"y": 2.7467672121,
				"z": -1.2905355466,
				"element": "C" 
			},
			{
				"x": -0.9465500772,
				"y": 3.3123744925,
				"z": -1.6712229174,
				"element": "O" 
			},
			{
				"x": -0.5710415744,
				"y": 0.5564927479,
				"z": -2.1558202317,
				"element": "N" 
			},
			{
				"x": 1.0025636853,
				"y": -2.4232278966,
				"z": -2.0715144223,
				"element": "H" 
			},
			{
				"x": 2.7109171102,
				"y": -1.0534228128,
				"z": -0.8434248613,
				"element": "H" 
			},
			{
				"x": 2.2457115688,
				"y": 1.3942619699,
				"z": -0.4815849413,
				"element": "H" 
			},
			{
				"x": 0.8536297155,
				"y": 3.288380145,
				"z": -0.7391342409,
				"element": "H" 
			}
		],
		 "valence_orbital": [ 
			{
				"type": "occ",
				"energy": -0.31002,
				"method": "rhf"
			},
			{
				"type": "occ",
				"energy": -0.29635,
				"method": "rhf"
			},
			{
				"type": "occ",
				"energy": -0.28579,
				"method": "rhf"
			},
			{
				"type": "occ",
				"energy": -0.26817,
				"method": "rhf"
			},
			{
				"type": "occ",
				"energy": -0.26422,
				"method": "rhf"
			},
			{
				"type": "unocc",
				"energy": -0.08653,
				"method": "rhf"
			},
			{
				"type": "unocc",
				"energy": -0.04633,
				"method": "rhf"
			},
			{
				"type": "unocc",
				"energy": 0.00029,
				"method": "rhf"
			},
			{
				"type": "unocc",
				"energy": 0.01732,
				"method": "rhf"
			},
			{
				"type": "unocc",
				"energy": 0.07991,
				"method": "rhf"
			}
		],
		"cosmo_sigma_profile": { 
			"-0.025": 0.0,
			"-0.024": 0.0,
			"-0.023": 0.0,
			"-0.022": 0.0,
			"-0.021": 0.0,
			"-0.02": 0.0,
			"-0.019": 0.0,
			"-0.018": 0.0,
			"-0.017": 0.0,
			"-0.016": 0.0,
			"-0.015": 0.0,
			"-0.014": 0.0,
			"-0.013": 0.0,
			"-0.012": 0.0,
			"-0.011": 0.0,
			"-0.01": 0.737736072014,
			"-0.009": 5.6267285404,
			"-0.008": 9.7923478449,
			"-0.007": 9.85447064937,
			"-0.006": 7.7039340697,
			"-0.005": 7.87705446165,
			"-0.004": 8.75329903689,
			"-0.003": 8.87684642999,
			"-0.002": 13.5638585664,
			"-0.001": 16.1398645157,
			"0.0": 13.7486935027,
			"0.001": 7.02947528403,
			"0.002": 6.74383829773,
			"0.003": 9.05859906133,
			"0.004": 12.3663799673,
			"0.005": 4.98559150364,
			"0.006": 2.67478045955,
			"0.007": 2.89316229079,
			"0.008": 3.0521375538,
			"0.009": 3.40408136945,
			"0.01": 4.08594070872,
			"0.011": 4.77723783899,
			"0.012": 2.86375390376,
			"0.013": 1.56451263351,
			"0.014": 1.19004516489,
			"0.015": 0.968428297319,
			"0.016": 0.158676979536,
			"0.017": 0.0,
			"0.018": 0.0,
			"0.019": 0.0,
			"0.02": 0.0,
			"0.021": 0.0,
			"0.022": 0.0,
			"0.023": 0.0,
			"0.024": 0.0,
			"0.025": 0.0
		}
	}
}
