{
	 "smiles": "ClC1=CC(Cl)=C(Cl)N=C1Cl", 
	 "Tm": 363.95, 
	 "num_atms": 11, 
	 "gaussian": { 
		 "optdone": 1, 
		 "sigma_profile": "yes", 
		 "theory": "DFT", 
		 "functional": "B3LYP", 
		 "basiset": "6-31G**", 
		 "properties": { 
			 "R2extent": 2938.7636, 
			 "electric_dipole_moment_norm": 2.1662966879, 
			 "electric_quadrupole_moment_norm": 1.89212516764, 
			 "total_energy": -2086.63873695, 
			 "HOMO_LUMO_gap": 0.1975, 
			 "cosmo_polarized_energy": -5.0, 
			 "cosmo_cavitation_energy": 23.23, 
			 "cosmo_dispersion_energy": -17.92, 
			 "cosmo_repulsion_energy": 1.47, 
			 "cosmo_total_nonelectrostatic_energy": 6.78, 
			 "SMD_solvation_energy": 1.68 
		},
		"coords": [
			{
				"x": -1.2983013054,
				"y": 0.7689525191,
				"z": -2.6257034633,
				"element": "Cl" 
			},
			{
				"x": -0.8328753448,
				"y": 0.4229354187,
				"z": -0.9878460588,
				"element": "C" 
			},
			{
				"x": 0.4665802541,
				"y": 0.7023101082,
				"z": -0.5693504247,
				"element": "C" 
			},
			{
				"x": 0.8440035533,
				"y": 0.4263179076,
				"z": 0.7433340967,
				"element": "C" 
			},
			{
				"x": 2.4655206127,
				"y": 0.7765316503,
				"z": 1.2600030927,
				"element": "Cl" 
			},
			{
				"x": -0.1209172798,
				"y": -0.1307318869,
				"z": 1.5986717431,
				"element": "C" 
			},
			{
				"x": 0.2566221811,
				"y": -0.5102317669,
				"z": 3.2567832219,
				"element": "Cl" 
			},
			{
				"x": -1.3509056991,
				"y": -0.3923863342,
				"z": 1.1932637597,
				"element": "N" 
			},
			{
				"x": -1.7174234796,
				"y": -0.1339674836,
				"z": -0.0495505169,
				"element": "C" 
			},
			{
				"x": -3.3619120154,
				"y": -0.5175542429,
				"z": -0.4789746576,
				"element": "Cl" 
			},
			{
				"x": 1.1805085229,
				"y": 1.1323241105,
				"z": -1.2617307928,
				"element": "H" 
			}
		],
		 "valence_orbital": [ 
			{
				"type": "occ",
				"energy": -0.33437,
				"method": "rhf"
			},
			{
				"type": "occ",
				"energy": -0.32762,
				"method": "rhf"
			},
			{
				"type": "occ",
				"energy": -0.30741,
				"method": "rhf"
			},
			{
				"type": "occ",
				"energy": -0.30509,
				"method": "rhf"
			},
			{
				"type": "occ",
				"energy": -0.26675,
				"method": "rhf"
			},
			{
				"type": "unocc",
				"energy": -0.06925,
				"method": "rhf"
			},
			{
				"type": "unocc",
				"energy": -0.05814,
				"method": "rhf"
			},
			{
				"type": "unocc",
				"energy": -0.02242,
				"method": "rhf"
			},
			{
				"type": "unocc",
				"energy": 0.00475,
				"method": "rhf"
			},
			{
				"type": "unocc",
				"energy": 0.02353,
				"method": "rhf"
			}
		],
		"cosmo_sigma_profile": { 
			"-0.025": 0.0,
			"-0.024": 0.0,
			"-0.023": 0.0,
			"-0.022": 0.0,
			"-0.021": 0.0,
			"-0.02": 0.0,
			"-0.019": 0.0,
			"-0.018": 0.0,
			"-0.017": 0.0,
			"-0.016": 0.0,
			"-0.015": 0.0,
			"-0.014": 0.0,
			"-0.013": 0.0,
			"-0.012": 0.0,
			"-0.011": 0.638257920768,
			"-0.01": 2.00693096198,
			"-0.009": 1.21122990443,
			"-0.008": 2.08056824557,
			"-0.007": 1.64438670051,
			"-0.006": 2.24390681511,
			"-0.005": 4.80256287451,
			"-0.004": 16.023483356,
			"-0.003": 19.8236933596,
			"-0.002": 18.6099197854,
			"-0.001": 14.793214018,
			"0.0": 15.963073521,
			"0.001": 17.0050514428,
			"0.002": 28.2945051941,
			"0.003": 32.5237819642,
			"0.004": 10.2202356024,
			"0.005": 2.73919805848,
			"0.006": 1.62162391601,
			"0.007": 1.84112404912,
			"0.008": 1.31218986088,
			"0.009": 0.432650311518,
			"0.01": 1.1811391152,
			"0.011": 0.299061480365,
			"0.012": 0.0,
			"0.013": 0.0,
			"0.014": 0.0,
			"0.015": 0.0,
			"0.016": 0.0,
			"0.017": 0.0,
			"0.018": 0.0,
			"0.019": 0.0,
			"0.02": 0.0,
			"0.021": 0.0,
			"0.022": 0.0,
			"0.023": 0.0,
			"0.024": 0.0,
			"0.025": 0.0
		}
	}
}
