{
	 "smiles": "CC1(C)C2CCC1(C)C(CC2=N/O)=NO", 
	 "Tm": 482.15, 
	 "num_atms": 33, 
	 "gaussian": { 
		 "optdone": 1, 
		 "sigma_profile": "yes", 
		 "theory": "DFT", 
		 "functional": "B3LYP", 
		 "basiset": "6-31G**", 
		 "properties": { 
			 "R2extent": 3055.5323, 
			 "electric_dipole_moment_norm": 0.763842274295, 
			 "electric_quadrupole_moment_norm": 2.85738484632, 
			 "total_energy": -689.866003839, 
			 "HOMO_LUMO_gap": 0.24459, 
			 "cosmo_polarized_energy": -11.86, 
			 "cosmo_cavitation_energy": 32.03, 
			 "cosmo_dispersion_energy": -22.77, 
			 "cosmo_repulsion_energy": 1.77, 
			 "cosmo_total_nonelectrostatic_energy": 11.04, 
			 "SMD_solvation_energy": 5.21 
		},
		"coords": [
			{
				"x": -0.058516347,
				"y": -0.2884179426,
				"z": -3.3012080231,
				"element": "C" 
			},
			{
				"x": 0.0695191123,
				"y": 0.0644203185,
				"z": -1.8051153029,
				"element": "C" 
			},
			{
				"x": -0.8961315924,
				"y": 1.2252635615,
				"z": -1.5137683246,
				"element": "C" 
			},
			{
				"x": 1.5559243045,
				"y": 0.3954997558,
				"z": -1.4667426436,
				"element": "C" 
			},
			{
				"x": 2.2609079669,
				"y": -0.9909949766,
				"z": -1.5147103284,
				"element": "C" 
			},
			{
				"x": 1.1673470942,
				"y": -2.0172939619,
				"z": -1.1132515241,
				"element": "C" 
			},
			{
				"x": -0.1447035059,
				"y": -1.1937930121,
				"z": -0.8756859625,
				"element": "C" 
			},
			{
				"x": -1.3998950842,
				"y": -2.0170092522,
				"z": -1.1817438558,
				"element": "C" 
			},
			{
				"x": -0.127119185,
				"y": -0.7132446951,
				"z": 0.5761475545,
				"element": "C" 
			},
			{
				"x": 0.9722953407,
				"y": 0.2180905056,
				"z": 1.0469810307,
				"element": "C" 
			},
			{
				"x": 1.6550143769,
				"y": 0.9634397277,
				"z": -0.074376092,
				"element": "C" 
			},
			{
				"x": 2.3328790427,
				"y": 2.0399473687,
				"z": 0.0758366435,
				"element": "N" 
			},
			{
				"x": 2.384211089,
				"y": 2.4369457603,
				"z": 1.4327376191,
				"element": "O" 
			},
			{
				"x": -1.0410041728,
				"y": -1.1540253296,
				"z": 1.3584678102,
				"element": "N" 
			},
			{
				"x": -0.874975008,
				"y": -0.6831144682,
				"z": 2.6801752582,
				"element": "O" 
			},
			{
				"x": 0.2727920153,
				"y": 0.5602385244,
				"z": -3.9098912757,
				"element": "H" 
			},
			{
				"x": 0.5386068252,
				"y": -1.1563940726,
				"z": -3.5930576834,
				"element": "H" 
			},
			{
				"x": -1.0985175368,
				"y": -0.4961629069,
				"z": -3.5698068596,
				"element": "H" 
			},
			{
				"x": -0.6578865153,
				"y": 2.0864492983,
				"z": -2.1475802183,
				"element": "H" 
			},
			{
				"x": -1.9290585069,
				"y": 0.9321326544,
				"z": -1.7293049522,
				"element": "H" 
			},
			{
				"x": -0.8598936229,
				"y": 1.5639340442,
				"z": -0.475320945,
				"element": "H" 
			},
			{
				"x": 1.9967795958,
				"y": 1.1125239695,
				"z": -2.1651917571,
				"element": "H" 
			},
			{
				"x": 2.6310040586,
				"y": -1.1857882185,
				"z": -2.5254355815,
				"element": "H" 
			},
			{
				"x": 3.1316973817,
				"y": -1.0189770904,
				"z": -0.853394149,
				"element": "H" 
			},
			{
				"x": 0.9988243542,
				"y": -2.7448193732,
				"z": -1.9132631709,
				"element": "H" 
			},
			{
				"x": 1.4358803769,
				"y": -2.5942165513,
				"z": -0.2231559985,
				"element": "H" 
			},
			{
				"x": -1.3711439417,
				"y": -2.3911018014,
				"z": -2.208709882,
				"element": "H" 
			},
			{
				"x": -2.3120531167,
				"y": -1.4286640271,
				"z": -1.0490666327,
				"element": "H" 
			},
			{
				"x": -1.4721694581,
				"y": -2.8740543185,
				"z": -0.5081103355,
				"element": "H" 
			},
			{
				"x": 1.7191578015,
				"y": -0.3595020225,
				"z": 1.6128938259,
				"element": "H" 
			},
			{
				"x": 0.5703885482,
				"y": 0.9253637038,
				"z": 1.7768997146,
				"element": "H" 
			},
			{
				"x": 2.8760752721,
				"y": 3.2662907005,
				"z": 1.3771673207,
				"element": "H" 
			},
			{
				"x": -1.6485369628,
				"y": -1.0574658724,
				"z": 3.121184721,
				"element": "H" 
			}
		],
		 "valence_orbital": [ 
			{
				"type": "occ",
				"energy": -0.30318,
				"method": "rhf"
			},
			{
				"type": "occ",
				"energy": -0.26936,
				"method": "rhf"
			},
			{
				"type": "occ",
				"energy": -0.25975,
				"method": "rhf"
			},
			{
				"type": "occ",
				"energy": -0.24212,
				"method": "rhf"
			},
			{
				"type": "occ",
				"energy": -0.2376,
				"method": "rhf"
			},
			{
				"type": "unocc",
				"energy": 0.00699,
				"method": "rhf"
			},
			{
				"type": "unocc",
				"energy": 0.02016,
				"method": "rhf"
			},
			{
				"type": "unocc",
				"energy": 0.07089,
				"method": "rhf"
			},
			{
				"type": "unocc",
				"energy": 0.07807,
				"method": "rhf"
			},
			{
				"type": "unocc",
				"energy": 0.0879,
				"method": "rhf"
			}
		],
		"cosmo_sigma_profile": { 
			"-0.025": 0.0,
			"-0.024": 0.0,
			"-0.023": 0.0,
			"-0.022": 0.0,
			"-0.021": 0.0,
			"-0.02": 0.0,
			"-0.019": 0.0,
			"-0.018": 0.0,
			"-0.017": 0.977281999809,
			"-0.016": 1.91621179923,
			"-0.015": 2.32957288582,
			"-0.014": 1.0392656907,
			"-0.013": 1.37175527139,
			"-0.012": 1.52943418278,
			"-0.011": 1.17048562622,
			"-0.01": 1.45922411247,
			"-0.009": 1.15250169726,
			"-0.008": 1.085802907,
			"-0.007": 1.8875161426,
			"-0.006": 3.65327882588,
			"-0.005": 3.70418174815,
			"-0.004": 11.618471831,
			"-0.003": 29.99857869,
			"-0.002": 33.6009220656,
			"-0.001": 26.8332725874,
			"0.0": 26.8300368265,
			"0.001": 24.0309532025,
			"0.002": 10.9393641345,
			"0.003": 7.01846410146,
			"0.004": 6.74758226795,
			"0.005": 5.86565839442,
			"0.006": 7.69678438129,
			"0.007": 7.98647958178,
			"0.008": 7.24848653632,
			"0.009": 6.72666234956,
			"0.01": 5.19360786534,
			"0.011": 1.95780736128,
			"0.012": 1.7065422428,
			"0.013": 1.164681228,
			"0.014": 0.681504208965,
			"0.015": 0.0,
			"0.016": 0.0,
			"0.017": 0.0,
			"0.018": 0.0,
			"0.019": 0.0,
			"0.02": 0.0,
			"0.021": 0.0,
			"0.022": 0.0,
			"0.023": 0.0,
			"0.024": 0.0,
			"0.025": 0.0
		}
	}
}
