{
	 "smiles": "OCCSCCCCCCCCCCSCCO", 
	 "Tm": 342.65, 
	 "num_atms": 48, 
	 "gaussian": { 
		 "optdone": 1, 
		 "sigma_profile": "yes", 
		 "theory": "DFT", 
		 "functional": "B3LYP", 
		 "basiset": "6-31G**", 
		 "properties": { 
			 "R2extent": 8882.8242, 
			 "electric_dipole_moment_norm": 3.8400677468, 
			 "electric_quadrupole_moment_norm": 13.9828629025, 
			 "total_energy": -1498.39963404, 
			 "HOMO_LUMO_gap": 0.25522, 
			 "cosmo_polarized_energy": -13.13, 
			 "cosmo_cavitation_energy": 49.17, 
			 "cosmo_dispersion_energy": -32.46, 
			 "cosmo_repulsion_energy": 2.48, 
			 "cosmo_total_nonelectrostatic_energy": 19.19, 
			 "SMD_solvation_energy": 5.65 
		},
		"coords": [
			{
				"x": -2.6239820491,
				"y": -2.7555225758,
				"z": 1.2978727278,
				"element": "O" 
			},
			{
				"x": -2.9372783652,
				"y": -2.5552541382,
				"z": 2.6714343819,
				"element": "C" 
			},
			{
				"x": -1.93342916,
				"y": -1.5818581608,
				"z": 3.2692942449,
				"element": "C" 
			},
			{
				"x": -2.1185067011,
				"y": 0.1928665996,
				"z": 2.8200280105,
				"element": "S" 
			},
			{
				"x": -1.4660408518,
				"y": 0.2831884777,
				"z": 1.0953154032,
				"element": "C" 
			},
			{
				"x": -2.5172843982,
				"y": 0.2372427359,
				"z": -0.0171010203,
				"element": "C" 
			},
			{
				"x": -1.8766213331,
				"y": 0.3980583458,
				"z": -1.4093853751,
				"element": "C" 
			},
			{
				"x": -1.4032060142,
				"y": 1.8339808827,
				"z": -1.7437329516,
				"element": "C" 
			},
			{
				"x": -0.0748851377,
				"y": 1.8971804469,
				"z": -2.5197656877,
				"element": "C" 
			},
			{
				"x": 1.1403769958,
				"y": 1.5737117228,
				"z": -1.6392543762,
				"element": "C" 
			},
			{
				"x": 2.4847197382,
				"y": 1.5714159301,
				"z": -2.379335899,
				"element": "C" 
			},
			{
				"x": 3.6952605903,
				"y": 1.3246653029,
				"z": -1.4613311583,
				"element": "C" 
			},
			{
				"x": 3.7703679468,
				"y": -0.0944748674,
				"z": -0.8817824481,
				"element": "C" 
			},
			{
				"x": 4.9130933814,
				"y": -0.3087063727,
				"z": 0.1182169713,
				"element": "C" 
			},
			{
				"x": 4.792385526,
				"y": 0.5976714555,
				"z": 1.7180476386,
				"element": "S" 
			},
			{
				"x": 3.4336937257,
				"y": -0.3032924426,
				"z": 2.5700039155,
				"element": "C" 
			},
			{
				"x": 2.1076755992,
				"y": 0.4529011784,
				"z": 2.5640505017,
				"element": "C" 
			},
			{
				"x": 1.1684319316,
				"y": -0.335405069,
				"z": 3.2819409307,
				"element": "O" 
			},
			{
				"x": -3.302552678,
				"y": -3.3235747082,
				"z": 0.9130833906,
				"element": "H" 
			},
			{
				"x": -2.8631629137,
				"y": -3.5047085794,
				"z": 3.2281235468,
				"element": "H" 
			},
			{
				"x": -3.9574133648,
				"y": -2.1662693799,
				"z": 2.8028243204,
				"element": "H" 
			},
			{
				"x": -2.0420411218,
				"y": -1.587102484,
				"z": 4.3587529536,
				"element": "H" 
			},
			{
				"x": -0.9105312548,
				"y": -1.8944990186,
				"z": 3.0382044356,
				"element": "H" 
			},
			{
				"x": -0.9082194812,
				"y": 1.2242339395,
				"z": 1.0609880394,
				"element": "H" 
			},
			{
				"x": -0.7425911653,
				"y": -0.5292772662,
				"z": 0.9818937515,
				"element": "H" 
			},
			{
				"x": -3.0356844234,
				"y": -0.7228358251,
				"z": 0.0471411636,
				"element": "H" 
			},
			{
				"x": -3.2639327441,
				"y": 1.0248188071,
				"z": 0.1465855063,
				"element": "H" 
			},
			{
				"x": -1.0335746085,
				"y": -0.3020391185,
				"z": -1.481859337,
				"element": "H" 
			},
			{
				"x": -2.5932313466,
				"y": 0.0706644341,
				"z": -2.1724035252,
				"element": "H" 
			},
			{
				"x": -1.2874734216,
				"y": 2.4173359481,
				"z": -0.8200959261,
				"element": "H" 
			},
			{
				"x": -2.1876965964,
				"y": 2.344897144,
				"z": -2.3148402545,
				"element": "H" 
			},
			{
				"x": -0.1129257384,
				"y": 1.2039586691,
				"z": -3.3723255362,
				"element": "H" 
			},
			{
				"x": 0.051932812,
				"y": 2.9001403083,
				"z": -2.9485936366,
				"element": "H" 
			},
			{
				"x": 1.1875980886,
				"y": 2.3089766206,
				"z": -0.822609961,
				"element": "H" 
			},
			{
				"x": 0.9864209934,
				"y": 0.5997867823,
				"z": -1.1584488978,
				"element": "H" 
			},
			{
				"x": 2.4641004258,
				"y": 0.8152744273,
				"z": -3.1775289316,
				"element": "H" 
			},
			{
				"x": 2.6147867419,
				"y": 2.5388752463,
				"z": -2.8826313993,
				"element": "H" 
			},
			{
				"x": 3.6782544908,
				"y": 2.0488150045,
				"z": -0.636983931,
				"element": "H" 
			},
			{
				"x": 4.6194239215,
				"y": 1.5207951159,
				"z": -2.0219246018,
				"element": "H" 
			},
			{
				"x": 3.9073368114,
				"y": -0.8123450114,
				"z": -1.7039705001,
				"element": "H" 
			},
			{
				"x": 2.8230694846,
				"y": -0.3663107904,
				"z": -0.4020738205,
				"element": "H" 
			},
			{
				"x": 5.863299399,
				"y": 0.0338047862,
				"z": -0.3068935997,
				"element": "H" 
			},
			{
				"x": 5.0311789283,
				"y": -1.3726779881,
				"z": 0.3478712,
				"element": "H" 
			},
			{
				"x": 3.3115370887,
				"y": -1.2872985383,
				"z": 2.1068531794,
				"element": "H" 
			},
			{
				"x": 3.7493689989,
				"y": -0.4670655044,
				"z": 3.6040533402,
				"element": "H" 
			},
			{
				"x": 1.7838524247,
				"y": 0.6302953647,
				"z": 1.5273292752,
				"element": "H" 
			},
			{
				"x": 2.2516706815,
				"y": 1.4385274983,
				"z": 3.0320450404,
				"element": "H" 
			},
			{
				"x": 0.3393281429,
				"y": 0.1637346646,
				"z": 3.3707189057,
				"element": "H" 
			}
		],
		 "valence_orbital": [ 
			{
				"type": "occ",
				"energy": -0.29154,
				"method": "rhf"
			},
			{
				"type": "occ",
				"energy": -0.27672,
				"method": "rhf"
			},
			{
				"type": "occ",
				"energy": -0.26007,
				"method": "rhf"
			},
			{
				"type": "occ",
				"energy": -0.22601,
				"method": "rhf"
			},
			{
				"type": "occ",
				"energy": -0.21508,
				"method": "rhf"
			},
			{
				"type": "unocc",
				"energy": 0.04014,
				"method": "rhf"
			},
			{
				"type": "unocc",
				"energy": 0.04723,
				"method": "rhf"
			},
			{
				"type": "unocc",
				"energy": 0.06048,
				"method": "rhf"
			},
			{
				"type": "unocc",
				"energy": 0.06238,
				"method": "rhf"
			},
			{
				"type": "unocc",
				"energy": 0.0716,
				"method": "rhf"
			}
		],
		"cosmo_sigma_profile": { 
			"-0.025": 0.0,
			"-0.024": 0.0,
			"-0.023": 0.0,
			"-0.022": 0.0,
			"-0.021": 0.0,
			"-0.02": 0.0,
			"-0.019": 0.0,
			"-0.018": 0.0,
			"-0.017": 0.0,
			"-0.016": 0.316864053608,
			"-0.015": 1.33606964823,
			"-0.014": 1.05179756524,
			"-0.013": 0.696047609795,
			"-0.012": 0.905582188043,
			"-0.011": 0.994069710385,
			"-0.01": 0.878550079008,
			"-0.009": 0.686452305427,
			"-0.008": 0.893601367618,
			"-0.007": 1.12062621671,
			"-0.006": 5.56425925717,
			"-0.005": 12.5641467344,
			"-0.004": 25.7492397324,
			"-0.003": 34.7520266553,
			"-0.002": 52.4931518118,
			"-0.001": 60.0546481554,
			"0.0": 51.3663191586,
			"0.001": 39.2510688945,
			"0.002": 17.7532314499,
			"0.003": 10.1974163094,
			"0.004": 9.84265506655,
			"0.005": 8.23327290546,
			"0.006": 9.66280556353,
			"0.007": 9.16183945049,
			"0.008": 6.81164337543,
			"0.009": 6.11654696648,
			"0.01": 5.13809571071,
			"0.011": 3.03024028998,
			"0.012": 1.41235529803,
			"0.013": 2.57601920542,
			"0.014": 1.0645930096,
			"0.015": 0.13999889534,
			"0.016": 0.0,
			"0.017": 0.0,
			"0.018": 0.0,
			"0.019": 0.0,
			"0.02": 0.0,
			"0.021": 0.0,
			"0.022": 0.0,
			"0.023": 0.0,
			"0.024": 0.0,
			"0.025": 0.0
		}
	}
}
