{
	 "smiles": "O=CC1=CC=C(N=C1)N1CCOCC1", 
	 "Tm": 361.65, 
	 "num_atms": 26, 
	 "gaussian": { 
		 "optdone": 1, 
		 "sigma_profile": "yes", 
		 "theory": "DFT", 
		 "functional": "B3LYP", 
		 "basiset": "6-31G**", 
		 "properties": { 
			 "R2extent": 4123.8958, 
			 "electric_dipole_moment_norm": 4.11561173703, 
			 "electric_quadrupole_moment_norm": 20.8099000418, 
			 "total_energy": -648.21941378, 
			 "HOMO_LUMO_gap": 0.16555, 
			 "cosmo_polarized_energy": -12.92, 
			 "cosmo_cavitation_energy": 28.83, 
			 "cosmo_dispersion_energy": -21.56, 
			 "cosmo_repulsion_energy": 1.68, 
			 "cosmo_total_nonelectrostatic_energy": 8.96, 
			 "SMD_solvation_energy": 4.22 
		},
		"coords": [
			{
				"x": 3.3435233176,
				"y": 3.1035000237,
				"z": -3.3899021262,
				"element": "O" 
			},
			{
				"x": 2.3778554527,
				"y": 2.3689423991,
				"z": -3.5214210816,
				"element": "C" 
			},
			{
				"x": 1.4879847801,
				"y": 1.9554402197,
				"z": -2.4328365922,
				"element": "C" 
			},
			{
				"x": 1.6858355556,
				"y": 2.388881032,
				"z": -1.1072334481,
				"element": "C" 
			},
			{
				"x": 0.8246661279,
				"y": 1.9772237395,
				"z": -0.1139212969,
				"element": "C" 
			},
			{
				"x": -0.2558153244,
				"y": 1.1149329885,
				"z": -0.4611366771,
				"element": "C" 
			},
			{
				"x": -0.4514017417,
				"y": 0.6961776118,
				"z": -1.7317841788,
				"element": "N" 
			},
			{
				"x": 0.3991974352,
				"y": 1.1086862139,
				"z": -2.6666682152,
				"element": "C" 
			},
			{
				"x": -1.1434736296,
				"y": 0.6741041451,
				"z": 0.4823922044,
				"element": "N" 
			},
			{
				"x": -2.251759478,
				"y": -0.217513048,
				"z": 0.1463088084,
				"element": "C" 
			},
			{
				"x": -2.3190268974,
				"y": -1.3773093769,
				"z": 1.1415191494,
				"element": "C" 
			},
			{
				"x": -2.1990840779,
				"y": -0.9646264024,
				"z": 2.5092388527,
				"element": "O" 
			},
			{
				"x": -2.1633385279,
				"y": 0.4374242734,
				"z": 2.6918185346,
				"element": "C" 
			},
			{
				"x": -1.032591375,
				"y": 1.07721639,
				"z": 1.8846249635,
				"element": "C" 
			},
			{
				"x": 2.1101090511,
				"y": 1.9552983739,
				"z": -4.5200788737,
				"element": "H" 
			},
			{
				"x": 2.5235049957,
				"y": 3.0458018722,
				"z": -0.892704629,
				"element": "H" 
			},
			{
				"x": 0.9717989812,
				"y": 2.3038207464,
				"z": 0.9076180379,
				"element": "H" 
			},
			{
				"x": 0.2057719622,
				"y": 0.7447913042,
				"z": -3.6768894377,
				"element": "H" 
			},
			{
				"x": -2.09026867,
				"y": -0.593162018,
				"z": -0.8634052227,
				"element": "H" 
			},
			{
				"x": -3.1979867583,
				"y": 0.3410095117,
				"z": 0.1383518292,
				"element": "H" 
			},
			{
				"x": -3.2698483414,
				"y": -1.9123996143,
				"z": 1.0087904368,
				"element": "H" 
			},
			{
				"x": -1.5027313204,
				"y": -2.082858084,
				"z": 0.9440548718,
				"element": "H" 
			},
			{
				"x": -3.1271996608,
				"y": 0.9056396196,
				"z": 2.4380739805,
				"element": "H" 
			},
			{
				"x": -1.9888842131,
				"y": 0.6072344499,
				"z": 3.7576873304,
				"element": "H" 
			},
			{
				"x": -0.0688069584,
				"y": 0.7473128624,
				"z": 2.295981903,
				"element": "H" 
			},
			{
				"x": -1.0823306851,
				"y": 2.1716307666,
				"z": 1.9855208765,
				"element": "H" 
			}
		],
		 "valence_orbital": [ 
			{
				"type": "occ",
				"energy": -0.28988,
				"method": "rhf"
			},
			{
				"type": "occ",
				"energy": -0.27066,
				"method": "rhf"
			},
			{
				"type": "occ",
				"energy": -0.26221,
				"method": "rhf"
			},
			{
				"type": "occ",
				"energy": -0.24247,
				"method": "rhf"
			},
			{
				"type": "occ",
				"energy": -0.21583,
				"method": "rhf"
			},
			{
				"type": "unocc",
				"energy": -0.05028,
				"method": "rhf"
			},
			{
				"type": "unocc",
				"energy": -0.02459,
				"method": "rhf"
			},
			{
				"type": "unocc",
				"energy": 0.04703,
				"method": "rhf"
			},
			{
				"type": "unocc",
				"energy": 0.07506,
				"method": "rhf"
			},
			{
				"type": "unocc",
				"energy": 0.09952,
				"method": "rhf"
			}
		],
		"cosmo_sigma_profile": { 
			"-0.025": 0.0,
			"-0.024": 0.0,
			"-0.023": 0.0,
			"-0.022": 0.0,
			"-0.021": 0.0,
			"-0.02": 0.0,
			"-0.019": 0.0,
			"-0.018": 0.0,
			"-0.017": 0.0,
			"-0.016": 0.0,
			"-0.015": 0.0,
			"-0.014": 0.0,
			"-0.013": 0.0,
			"-0.012": 0.0,
			"-0.011": 0.0,
			"-0.01": 0.0,
			"-0.009": 0.0,
			"-0.008": 0.311707821033,
			"-0.007": 5.83728241296,
			"-0.006": 15.073795985,
			"-0.005": 30.0451755637,
			"-0.004": 27.6634045908,
			"-0.003": 18.8326271677,
			"-0.002": 14.03122598,
			"-0.001": 12.5798603735,
			"0.0": 13.3403770594,
			"0.001": 17.6528738272,
			"0.002": 14.9927593106,
			"0.003": 10.1166209809,
			"0.004": 5.8046742495,
			"0.005": 4.21298031658,
			"0.006": 4.32974766228,
			"0.007": 4.02256776306,
			"0.008": 5.0017250285,
			"0.009": 3.96959376449,
			"0.01": 3.91563014088,
			"0.011": 5.20693185254,
			"0.012": 5.80404178968,
			"0.013": 4.67331304438,
			"0.014": 0.888116967179,
			"0.015": 0.0,
			"0.016": 0.0,
			"0.017": 0.0,
			"0.018": 0.0,
			"0.019": 0.0,
			"0.02": 0.0,
			"0.021": 0.0,
			"0.022": 0.0,
			"0.023": 0.0,
			"0.024": 0.0,
			"0.025": 0.0
		}
	}
}
