{
	 "smiles": "CCC1=NC2=C(O1)C=CC(N)=C2", 
	 "Tm": 343.15, 
	 "num_atms": 22, 
	 "gaussian": { 
		 "optdone": 1, 
		 "sigma_profile": "yes", 
		 "theory": "DFT", 
		 "functional": "B3LYP", 
		 "basiset": "6-31G**", 
		 "properties": { 
			 "R2extent": 2564.1175, 
			 "electric_dipole_moment_norm": 1.52715207494, 
			 "electric_quadrupole_moment_norm": 12.5800724875, 
			 "total_energy": -533.722112739, 
			 "HOMO_LUMO_gap": 0.17944, 
			 "cosmo_polarized_energy": -11.04, 
			 "cosmo_cavitation_energy": 25.88, 
			 "cosmo_dispersion_energy": -19.41, 
			 "cosmo_repulsion_energy": 1.56, 
			 "cosmo_total_nonelectrostatic_energy": 8.04, 
			 "SMD_solvation_energy": 2.59 
		},
		"coords": [
			{
				"x": -3.4017374627,
				"y": -3.0035911646,
				"z": 0.046354039,
				"element": "C" 
			},
			{
				"x": -1.9821276088,
				"y": -3.2967773003,
				"z": -0.4703454164,
				"element": "C" 
			},
			{
				"x": -1.1056708803,
				"y": -2.089979231,
				"z": -0.4959993642,
				"element": "C" 
			},
			{
				"x": -0.5566889278,
				"y": -1.5237420881,
				"z": -1.525131924,
				"element": "N" 
			},
			{
				"x": 0.1443034619,
				"y": -0.4368861414,
				"z": -0.99351777,
				"element": "C" 
			},
			{
				"x": -0.040632617,
				"y": -0.4210003709,
				"z": 0.3933682054,
				"element": "C" 
			},
			{
				"x": -0.8489084352,
				"y": -1.4898569522,
				"z": 0.716242181,
				"element": "O" 
			},
			{
				"x": 0.5293916209,
				"y": 0.5329275227,
				"z": 1.2207691869,
				"element": "C" 
			},
			{
				"x": 1.3140262066,
				"y": 1.5027113799,
				"z": 0.5964160229,
				"element": "C" 
			},
			{
				"x": 1.5220035214,
				"y": 1.5158293732,
				"z": -0.8046930581,
				"element": "C" 
			},
			{
				"x": 2.271804106,
				"y": 2.5525078967,
				"z": -1.3796185139,
				"element": "N" 
			},
			{
				"x": 0.9315958697,
				"y": 0.533339919,
				"z": -1.6138964402,
				"element": "C" 
			},
			{
				"x": -3.9070500115,
				"y": -2.2728517936,
				"z": -0.5921709037,
				"element": "H" 
			},
			{
				"x": -3.3734074899,
				"y": -2.6045243983,
				"z": 1.0639346808,
				"element": "H" 
			},
			{
				"x": -3.9993530288,
				"y": -3.9198373469,
				"z": 0.0547577319,
				"element": "H" 
			},
			{
				"x": -2.0117637799,
				"y": -3.6889718311,
				"z": -1.4897626163,
				"element": "H" 
			},
			{
				"x": -1.512773908,
				"y": -4.0600036495,
				"z": 0.1634003918,
				"element": "H" 
			},
			{
				"x": 0.3790199855,
				"y": 0.5312019101,
				"z": 2.2947549449,
				"element": "H" 
			},
			{
				"x": 1.7767041348,
				"y": 2.2792943589,
				"z": 1.1996246512,
				"element": "H" 
			},
			{
				"x": 2.9684913467,
				"y": 2.9555339316,
				"z": -0.7674597304,
				"element": "H" 
			},
			{
				"x": 2.6669686552,
				"y": 2.3299987315,
				"z": -2.2834578304,
				"element": "H" 
			},
			{
				"x": 1.0761052411,
				"y": 0.5263772443,
				"z": -2.6898684682,
				"element": "H" 
			}
		],
		 "valence_orbital": [ 
			{
				"type": "occ",
				"energy": -0.31852,
				"method": "rhf"
			},
			{
				"type": "occ",
				"energy": -0.29426,
				"method": "rhf"
			},
			{
				"type": "occ",
				"energy": -0.27781,
				"method": "rhf"
			},
			{
				"type": "occ",
				"energy": -0.22851,
				"method": "rhf"
			},
			{
				"type": "occ",
				"energy": -0.19645,
				"method": "rhf"
			},
			{
				"type": "unocc",
				"energy": -0.01701,
				"method": "rhf"
			},
			{
				"type": "unocc",
				"energy": 0.0269,
				"method": "rhf"
			},
			{
				"type": "unocc",
				"energy": 0.04969,
				"method": "rhf"
			},
			{
				"type": "unocc",
				"energy": 0.08365,
				"method": "rhf"
			},
			{
				"type": "unocc",
				"energy": 0.10244,
				"method": "rhf"
			}
		],
		"cosmo_sigma_profile": { 
			"-0.025": 0.0,
			"-0.024": 0.0,
			"-0.023": 0.0,
			"-0.022": 0.0,
			"-0.021": 0.0,
			"-0.02": 0.0,
			"-0.019": 0.0,
			"-0.018": 0.0,
			"-0.017": 0.0,
			"-0.016": 0.0,
			"-0.015": 0.0,
			"-0.014": 0.0,
			"-0.013": 0.0777057429973,
			"-0.012": 2.16970478281,
			"-0.011": 3.00844173229,
			"-0.01": 2.29802595247,
			"-0.009": 3.89183357169,
			"-0.008": 3.51252016594,
			"-0.007": 5.02238952559,
			"-0.006": 7.38637796483,
			"-0.005": 10.324580794,
			"-0.004": 13.6319824579,
			"-0.003": 17.0317567258,
			"-0.002": 20.2105801863,
			"-0.001": 15.6536180264,
			"0.0": 15.613611975,
			"0.001": 10.9067962966,
			"0.002": 10.4662227804,
			"0.003": 11.1335478553,
			"0.004": 11.2289692942,
			"0.005": 15.1818660248,
			"0.006": 7.62023972019,
			"0.007": 3.28374680086,
			"0.008": 2.46263939224,
			"0.009": 2.28638107432,
			"0.01": 1.55829912767,
			"0.011": 1.80687319971,
			"0.012": 1.62383343535,
			"0.013": 2.08432503327,
			"0.014": 1.47342997026,
			"0.015": 1.20761520784,
			"0.016": 1.04687678344,
			"0.017": 0.145218618427,
			"0.018": 0.0,
			"0.019": 0.0,
			"0.02": 0.0,
			"0.021": 0.0,
			"0.022": 0.0,
			"0.023": 0.0,
			"0.024": 0.0,
			"0.025": 0.0
		}
	}
}
