{
	 "smiles": "NC(=O)C1=C(O)C(=CC=C1)[N+]([O-])=O", 
	 "Tm": 428.15, 
	 "num_atms": 19, 
	 "gaussian": { 
		 "optdone": 1, 
		 "sigma_profile": "yes", 
		 "theory": "DFT", 
		 "functional": "B3LYP", 
		 "basiset": "6-31G**", 
		 "properties": { 
			 "R2extent": 2915.5114, 
			 "electric_dipole_moment_norm": 8.14214003011, 
			 "electric_quadrupole_moment_norm": 9.15344455984, 
			 "total_energy": -680.67622966, 
			 "HOMO_LUMO_gap": 0.16418, 
			 "cosmo_polarized_energy": -19.76, 
			 "cosmo_cavitation_energy": 24.08, 
			 "cosmo_dispersion_energy": -18.33, 
			 "cosmo_repulsion_energy": 1.44, 
			 "cosmo_total_nonelectrostatic_energy": 7.19, 
			 "SMD_solvation_energy": 7.41 
		},
		"coords": [
			{
				"x": -2.8520167945,
				"y": 0.0710562773,
				"z": 0.8896006578,
				"element": "N" 
			},
			{
				"x": -1.6464637547,
				"y": 0.1610036783,
				"z": 1.5126098706,
				"element": "C" 
			},
			{
				"x": -1.5948406227,
				"y": 0.498130439,
				"z": 2.7105128131,
				"element": "O" 
			},
			{
				"x": -0.4166167388,
				"y": -0.1624227393,
				"z": 0.7438274711,
				"element": "C" 
			},
			{
				"x": 0.8413952942,
				"y": 0.1278766401,
				"z": 1.3586439312,
				"element": "C" 
			},
			{
				"x": 0.9188441262,
				"y": 0.6044600024,
				"z": 2.5903094233,
				"element": "O" 
			},
			{
				"x": 2.0100176382,
				"y": -0.1504016474,
				"z": 0.6053174658,
				"element": "C" 
			},
			{
				"x": 1.9422362294,
				"y": -0.7293990731,
				"z": -0.6579026803,
				"element": "C" 
			},
			{
				"x": 0.7113224571,
				"y": -1.0286151375,
				"z": -1.2359753517,
				"element": "C" 
			},
			{
				"x": -0.4526981644,
				"y": -0.7421505435,
				"z": -0.5312840683,
				"element": "C" 
			},
			{
				"x": 3.3500811134,
				"y": 0.1498023669,
				"z": 1.1269013022,
				"element": "N" 
			},
			{
				"x": 4.2890529434,
				"y": -0.4973257684,
				"z": 0.6534939734,
				"element": "O" 
			},
			{
				"x": 3.4631865747,
				"y": 1.0321967309,
				"z": 1.9705811803,
				"element": "O" 
			},
			{
				"x": -2.9359592345,
				"y": 0.0568363413,
				"z": -0.1130082588,
				"element": "H" 
			},
			{
				"x": -3.6495636008,
				"y": 0.3816265474,
				"z": 1.4250942706,
				"element": "H" 
			},
			{
				"x": -0.0238941663,
				"y": 0.6437828697,
				"z": 2.9311679979,
				"element": "H" 
			},
			{
				"x": 2.8749746545,
				"y": -0.9446222077,
				"z": -1.1649158098,
				"element": "H" 
			},
			{
				"x": 0.6642484653,
				"y": -1.484442005,
				"z": -2.2184146738,
				"element": "H" 
			},
			{
				"x": -1.4075064194,
				"y": -1.0080927717,
				"z": -0.9749595148,
				"element": "H" 
			}
		],
		 "valence_orbital": [ 
			{
				"type": "occ",
				"energy": -0.29955,
				"method": "rhf"
			},
			{
				"type": "occ",
				"energy": -0.29619,
				"method": "rhf"
			},
			{
				"type": "occ",
				"energy": -0.28478,
				"method": "rhf"
			},
			{
				"type": "occ",
				"energy": -0.2746,
				"method": "rhf"
			},
			{
				"type": "occ",
				"energy": -0.24942,
				"method": "rhf"
			},
			{
				"type": "unocc",
				"energy": -0.08524,
				"method": "rhf"
			},
			{
				"type": "unocc",
				"energy": -0.05378,
				"method": "rhf"
			},
			{
				"type": "unocc",
				"energy": -0.00787,
				"method": "rhf"
			},
			{
				"type": "unocc",
				"energy": 0.03587,
				"method": "rhf"
			},
			{
				"type": "unocc",
				"energy": 0.04744,
				"method": "rhf"
			}
		],
		"cosmo_sigma_profile": { 
			"-0.025": 0.0,
			"-0.024": 0.0,
			"-0.023": 0.0,
			"-0.022": 0.0,
			"-0.021": 0.0,
			"-0.02": 0.0,
			"-0.019": 0.0,
			"-0.018": 0.0,
			"-0.017": 0.119182626141,
			"-0.016": 1.19557432426,
			"-0.015": 1.99880053306,
			"-0.014": 2.48204893321,
			"-0.013": 2.12451669613,
			"-0.012": 3.1010982991,
			"-0.011": 2.74220166134,
			"-0.01": 1.87188328737,
			"-0.009": 2.70300155697,
			"-0.008": 3.74900197217,
			"-0.007": 7.05257404572,
			"-0.006": 8.77935240352,
			"-0.005": 7.94237174815,
			"-0.004": 9.03303725066,
			"-0.003": 11.4547865891,
			"-0.002": 14.6381288784,
			"-0.001": 13.4918092311,
			"0.0": 14.1232670456,
			"0.001": 12.0395454467,
			"0.002": 9.89121747911,
			"0.003": 5.80573365703,
			"0.004": 4.87903767226,
			"0.005": 4.24445243591,
			"0.006": 5.5564305976,
			"0.007": 7.9163493135,
			"0.008": 11.392267922,
			"0.009": 7.80878702679,
			"0.01": 6.6283518026,
			"0.011": 3.74653827125,
			"0.012": 3.32789582326,
			"0.013": 1.35713412081,
			"0.014": 0.110981803146,
			"0.015": 0.0,
			"0.016": 0.0,
			"0.017": 0.0,
			"0.018": 0.0,
			"0.019": 0.0,
			"0.02": 0.0,
			"0.021": 0.0,
			"0.022": 0.0,
			"0.023": 0.0,
			"0.024": 0.0,
			"0.025": 0.0
		}
	}
}
