{
	 "smiles": "CCCN1C=C(C(O)=O)C2=C1C=CC=C2", 
	 "Tm": 429.15, 
	 "num_atms": 28, 
	 "gaussian": { 
		 "optdone": 1, 
		 "sigma_profile": "yes", 
		 "theory": "DFT", 
		 "functional": "B3LYP", 
		 "basiset": "6-31G**", 
		 "properties": { 
			 "R2extent": 3503.7885, 
			 "electric_dipole_moment_norm": 6.30471661139, 
			 "electric_quadrupole_moment_norm": 23.7321509697, 
			 "total_energy": -670.337276407, 
			 "HOMO_LUMO_gap": 0.18523, 
			 "cosmo_polarized_energy": -16.1, 
			 "cosmo_cavitation_energy": 31.26, 
			 "cosmo_dispersion_energy": -22.18, 
			 "cosmo_repulsion_energy": 1.73, 
			 "cosmo_total_nonelectrostatic_energy": 10.81, 
			 "SMD_solvation_energy": 6.11 
		},
		"coords": [
			{
				"x": -3.1455007243,
				"y": 0.2589109366,
				"z": -1.6229485362,
				"element": "C" 
			},
			{
				"x": -1.8823897646,
				"y": 0.8428463321,
				"z": -2.2611043479,
				"element": "C" 
			},
			{
				"x": -1.0763198104,
				"y": 1.7558880091,
				"z": -1.3232760402,
				"element": "C" 
			},
			{
				"x": -0.524740104,
				"y": 1.0696542672,
				"z": -0.1582971561,
				"element": "N" 
			},
			{
				"x": -1.0556812118,
				"y": 1.081312511,
				"z": 1.1027390226,
				"element": "C" 
			},
			{
				"x": -0.3180962079,
				"y": 0.27979296,
				"z": 1.9493139914,
				"element": "C" 
			},
			{
				"x": -0.6799639845,
				"y": 0.0876576716,
				"z": 3.3629447565,
				"element": "C" 
			},
			{
				"x": -0.1173741536,
				"y": -0.9926803991,
				"z": 3.9835790053,
				"element": "O" 
			},
			{
				"x": -1.4355601075,
				"y": 0.8086986151,
				"z": 3.9767190891,
				"element": "O" 
			},
			{
				"x": 0.7708270738,
				"y": -0.2559196671,
				"z": 1.1624771627,
				"element": "C" 
			},
			{
				"x": 0.6017704473,
				"y": 0.2533067744,
				"z": -0.1555132439,
				"element": "C" 
			},
			{
				"x": 1.4864952406,
				"y": -0.0523822888,
				"z": -1.1949411081,
				"element": "C" 
			},
			{
				"x": 2.5661942879,
				"y": -0.8784925772,
				"z": -0.9014029459,
				"element": "C" 
			},
			{
				"x": 2.7667941601,
				"y": -1.3766461006,
				"z": 0.3999734983,
				"element": "C" 
			},
			{
				"x": 1.8878486014,
				"y": -1.0680386461,
				"z": 1.4313818421,
				"element": "C" 
			},
			{
				"x": -3.8287876373,
				"y": 1.0511992722,
				"z": -1.295971795,
				"element": "H" 
			},
			{
				"x": -2.9058805921,
				"y": -0.3578941038,
				"z": -0.7514113295,
				"element": "H" 
			},
			{
				"x": -3.6855816283,
				"y": -0.3709350049,
				"z": -2.3361097771,
				"element": "H" 
			},
			{
				"x": -2.1495355584,
				"y": 1.4375547301,
				"z": -3.1437660485,
				"element": "H" 
			},
			{
				"x": -1.234580533,
				"y": 0.0331420437,
				"z": -2.6168010248,
				"element": "H" 
			},
			{
				"x": -1.7088160523,
				"y": 2.5675118767,
				"z": -0.9498745168,
				"element": "H" 
			},
			{
				"x": -0.2461080918,
				"y": 2.2204401309,
				"z": -1.8663608607,
				"element": "H" 
			},
			{
				"x": -1.9404264739,
				"y": 1.6564095351,
				"z": 1.3351874517,
				"element": "H" 
			},
			{
				"x": 0.2942829798,
				"y": -1.5675679161,
				"z": 3.3232816132,
				"element": "H" 
			},
			{
				"x": 1.3451532784,
				"y": 0.3432048606,
				"z": -2.1957659402,
				"element": "H" 
			},
			{
				"x": 3.2712567983,
				"y": -1.1340823975,
				"z": -1.686442094,
				"element": "H" 
			},
			{
				"x": 3.6304256731,
				"y": -2.0025276682,
				"z": 0.6031891434,
				"element": "H" 
			},
			{
				"x": 2.094994095,
				"y": -1.4230637572,
				"z": 2.4376001886,
				"element": "H" 
			}
		],
		 "valence_orbital": [ 
			{
				"type": "occ",
				"energy": -0.3018,
				"method": "rhf"
			},
			{
				"type": "occ",
				"energy": -0.28584,
				"method": "rhf"
			},
			{
				"type": "occ",
				"energy": -0.25844,
				"method": "rhf"
			},
			{
				"type": "occ",
				"energy": -0.23752,
				"method": "rhf"
			},
			{
				"type": "occ",
				"energy": -0.21794,
				"method": "rhf"
			},
			{
				"type": "unocc",
				"energy": -0.03271,
				"method": "rhf"
			},
			{
				"type": "unocc",
				"energy": -0.00169,
				"method": "rhf"
			},
			{
				"type": "unocc",
				"energy": 0.00942,
				"method": "rhf"
			},
			{
				"type": "unocc",
				"energy": 0.06964,
				"method": "rhf"
			},
			{
				"type": "unocc",
				"energy": 0.07798,
				"method": "rhf"
			}
		],
		"cosmo_sigma_profile": { 
			"-0.025": 0.0,
			"-0.024": 0.0,
			"-0.023": 0.0,
			"-0.022": 0.0,
			"-0.021": 0.0,
			"-0.02": 0.0,
			"-0.019": 0.0,
			"-0.018": 0.0,
			"-0.017": 0.0,
			"-0.016": 0.597890155425,
			"-0.015": 0.501650329987,
			"-0.014": 0.882990167659,
			"-0.013": 0.779295247783,
			"-0.012": 0.947106692021,
			"-0.011": 0.99112349042,
			"-0.01": 1.44945310151,
			"-0.009": 2.75579131346,
			"-0.008": 2.79759605112,
			"-0.007": 5.92769266302,
			"-0.006": 11.9032542661,
			"-0.005": 14.9651412001,
			"-0.004": 19.0234078242,
			"-0.003": 23.5051293921,
			"-0.002": 20.0120265204,
			"-0.001": 23.3425378306,
			"0.0": 20.5151538796,
			"0.001": 16.4608944484,
			"0.002": 12.5652961026,
			"0.003": 10.4527619983,
			"0.004": 11.7619589011,
			"0.005": 10.5192533555,
			"0.006": 7.5838957622,
			"0.007": 2.71835117271,
			"0.008": 1.65487175079,
			"0.009": 2.96964774866,
			"0.01": 3.57358813947,
			"0.011": 5.12706076841,
			"0.012": 5.33250512672,
			"0.013": 4.74902653242,
			"0.014": 1.56617512143,
			"0.015": 0.0419590038478,
			"0.016": 0.0,
			"0.017": 0.0,
			"0.018": 0.0,
			"0.019": 0.0,
			"0.02": 0.0,
			"0.021": 0.0,
			"0.022": 0.0,
			"0.023": 0.0,
			"0.024": 0.0,
			"0.025": 0.0
		}
	}
}
