{
	 "smiles": "COC1=CC=CC=C1C(=O)OC1=CC=C(C=C1)C(=O)C=CC1=CC=C(C=C1)N(C)C", 
	 "Tm": 372.15, 
	 "num_atms": 53, 
	 "gaussian": { 
		 "optdone": 1, 
		 "sigma_profile": "yes", 
		 "theory": "DFT", 
		 "functional": "B3LYP", 
		 "basiset": "6-31G**", 
		 "properties": { 
			 "R2extent": 29481.4636, 
			 "electric_dipole_moment_norm": 4.48025136125, 
			 "electric_quadrupole_moment_norm": 73.1571598031, 
			 "total_energy": -1322.14693845, 
			 "HOMO_LUMO_gap": 0.12618, 
			 "cosmo_polarized_energy": -20.46, 
			 "cosmo_cavitation_energy": 58.13, 
			 "cosmo_dispersion_energy": -41.29, 
			 "cosmo_repulsion_energy": 3.03, 
			 "cosmo_total_nonelectrostatic_energy": 19.86, 
			 "SMD_solvation_energy": 11.54 
		},
		"coords": [
			{
				"x": -7.0900786784,
				"y": -0.6754406984,
				"z": -2.8422149841,
				"element": "C" 
			},
			{
				"x": -6.7544279327,
				"y": 0.7164186034,
				"z": -2.8405594152,
				"element": "O" 
			},
			{
				"x": -7.1959804309,
				"y": 1.4336327124,
				"z": -1.7616125265,
				"element": "C" 
			},
			{
				"x": -8.4398066499,
				"y": 2.0666395591,
				"z": -1.8578211695,
				"element": "C" 
			},
			{
				"x": -8.908683287,
				"y": 2.8773755702,
				"z": -0.8271970423,
				"element": "C" 
			},
			{
				"x": -8.1296657043,
				"y": 3.0751287282,
				"z": 0.3154969641,
				"element": "C" 
			},
			{
				"x": -6.8852070805,
				"y": 2.4621344216,
				"z": 0.4139108797,
				"element": "C" 
			},
			{
				"x": -6.4014456215,
				"y": 1.6255502067,
				"z": -0.6077060184,
				"element": "C" 
			},
			{
				"x": -5.0772968901,
				"y": 0.9583153806,
				"z": -0.4708976933,
				"element": "C" 
			},
			{
				"x": -4.7078058918,
				"y": -0.0304577927,
				"z": -1.0618743381,
				"element": "O" 
			},
			{
				"x": -4.3034446408,
				"y": 1.6168409509,
				"z": 0.4562373569,
				"element": "O" 
			},
			{
				"x": -3.0279894094,
				"y": 1.1698605302,
				"z": 0.7874367766,
				"element": "C" 
			},
			{
				"x": -2.0861840888,
				"y": 0.7791693978,
				"z": -0.164850903,
				"element": "C" 
			},
			{
				"x": -0.8089760834,
				"y": 0.4177273664,
				"z": 0.261410664,
				"element": "C" 
			},
			{
				"x": -0.4550864591,
				"y": 0.4507748367,
				"z": 1.6187824434,
				"element": "C" 
			},
			{
				"x": -1.4190639474,
				"y": 0.8680863135,
				"z": 2.5507617297,
				"element": "C" 
			},
			{
				"x": -2.6992588977,
				"y": 1.2201552262,
				"z": 2.1440261402,
				"element": "C" 
			},
			{
				"x": 0.907841151,
				"y": 0.091039712,
				"z": 2.1428572184,
				"element": "C" 
			},
			{
				"x": 1.1965337674,
				"y": 0.3651480074,
				"z": 3.309684432,
				"element": "O" 
			},
			{
				"x": 1.8608754239,
				"y": -0.5973196994,
				"z": 1.2505087098,
				"element": "C" 
			},
			{
				"x": 3.1131077007,
				"y": -0.8756025057,
				"z": 1.6815989651,
				"element": "C" 
			},
			{
				"x": 4.183774656,
				"y": -1.5521084296,
				"z": 0.9723124226,
				"element": "C" 
			},
			{
				"x": 4.0673307933,
				"y": -2.0516079107,
				"z": -0.3416140659,
				"element": "C" 
			},
			{
				"x": 5.1169121265,
				"y": -2.690982884,
				"z": -0.9775762465,
				"element": "C" 
			},
			{
				"x": 6.3652136079,
				"y": -2.8754959193,
				"z": -0.3272952026,
				"element": "C" 
			},
			{
				"x": 6.4906176778,
				"y": -2.3720742542,
				"z": 0.9902382492,
				"element": "C" 
			},
			{
				"x": 5.4266875853,
				"y": -1.7346791204,
				"z": 1.6094846162,
				"element": "C" 
			},
			{
				"x": 7.410702329,
				"y": -3.5207707481,
				"z": -0.9542084551,
				"element": "N" 
			},
			{
				"x": 8.6961472662,
				"y": -3.6402894836,
				"z": -0.2869028852,
				"element": "C" 
			},
			{
				"x": 7.272706002,
				"y": -3.970638208,
				"z": -2.3292882586,
				"element": "C" 
			},
			{
				"x": -8.1772536506,
				"y": -0.8164447685,
				"z": -2.783457897,
				"element": "H" 
			},
			{
				"x": -6.5954480739,
				"y": -1.1945288688,
				"z": -2.0171229333,
				"element": "H" 
			},
			{
				"x": -6.7252397101,
				"y": -1.0727759613,
				"z": -3.7910661191,
				"element": "H" 
			},
			{
				"x": -9.0159187247,
				"y": 1.9206343904,
				"z": -2.765993848,
				"element": "H" 
			},
			{
				"x": -9.8775447015,
				"y": 3.3600059614,
				"z": -0.9190788913,
				"element": "H" 
			},
			{
				"x": -8.4865479953,
				"y": 3.709361811,
				"z": 1.1208294713,
				"element": "H" 
			},
			{
				"x": -6.2689398478,
				"y": 2.6194643304,
				"z": 1.2907964734,
				"element": "H" 
			},
			{
				"x": -2.3477672805,
				"y": 0.7508611944,
				"z": -1.2139982696,
				"element": "H" 
			},
			{
				"x": -0.0824606608,
				"y": 0.1298787548,
				"z": -0.4904303008,
				"element": "H" 
			},
			{
				"x": -1.1330355129,
				"y": 0.9072728622,
				"z": 3.5960892704,
				"element": "H" 
			},
			{
				"x": -3.4514845958,
				"y": 1.5385852379,
				"z": 2.8584611895,
				"element": "H" 
			},
			{
				"x": 1.5321244175,
				"y": -0.8932762096,
				"z": 0.2605781001,
				"element": "H" 
			},
			{
				"x": 3.3427404525,
				"y": -0.5477168808,
				"z": 2.6950536412,
				"element": "H" 
			},
			{
				"x": 3.1316389342,
				"y": -1.9357125677,
				"z": -0.8805361372,
				"element": "H" 
			},
			{
				"x": 4.9707581131,
				"y": -3.0517889356,
				"z": -1.9881722266,
				"element": "H" 
			},
			{
				"x": 7.4223090646,
				"y": -2.4792734592,
				"z": 1.5315605362,
				"element": "H" 
			},
			{
				"x": 5.5562797505,
				"y": -1.3611036573,
				"z": 2.6222283249,
				"element": "H" 
			},
			{
				"x": 9.1426289568,
				"y": -2.6601242493,
				"z": -0.0671236392,
				"element": "H" 
			},
			{
				"x": 8.610293201,
				"y": -4.1917281342,
				"z": 0.6582235867,
				"element": "H" 
			},
			{
				"x": 9.3852645745,
				"y": -4.1881849968,
				"z": -0.9303120003,
				"element": "H" 
			},
			{
				"x": 8.1943670812,
				"y": -4.4641034373,
				"z": -2.6392680573,
				"element": "H" 
			},
			{
				"x": 7.0837885147,
				"y": -3.1384860262,
				"z": -3.0222334359,
				"element": "H" 
			},
			{
				"x": 6.4538992998,
				"y": -4.6934462589,
				"z": -2.4378552016,
				"element": "H" 
			}
		],
		 "valence_orbital": [ 
			{
				"type": "occ",
				"energy": -0.2505,
				"method": "rhf"
			},
			{
				"type": "occ",
				"energy": -0.24761,
				"method": "rhf"
			},
			{
				"type": "occ",
				"energy": -0.23716,
				"method": "rhf"
			},
			{
				"type": "occ",
				"energy": -0.23056,
				"method": "rhf"
			},
			{
				"type": "occ",
				"energy": -0.18972,
				"method": "rhf"
			},
			{
				"type": "unocc",
				"energy": -0.06354,
				"method": "rhf"
			},
			{
				"type": "unocc",
				"energy": -0.04822,
				"method": "rhf"
			},
			{
				"type": "unocc",
				"energy": -0.01073,
				"method": "rhf"
			},
			{
				"type": "unocc",
				"energy": -0.00667,
				"method": "rhf"
			},
			{
				"type": "unocc",
				"energy": -0.0009,
				"method": "rhf"
			}
		],
		"cosmo_sigma_profile": { 
			"-0.025": 0.0,
			"-0.024": 0.0,
			"-0.023": 0.0,
			"-0.022": 0.0,
			"-0.021": 0.0,
			"-0.02": 0.0,
			"-0.019": 0.0,
			"-0.018": 0.0,
			"-0.017": 0.0,
			"-0.016": 0.0,
			"-0.015": 0.0,
			"-0.014": 0.0,
			"-0.013": 0.0,
			"-0.012": 0.0,
			"-0.011": 0.0,
			"-0.01": 0.0,
			"-0.009": 0.165465162787,
			"-0.008": 2.64068965297,
			"-0.007": 10.3795747224,
			"-0.006": 24.1974699818,
			"-0.005": 37.3253327834,
			"-0.004": 44.1606618783,
			"-0.003": 42.18034488,
			"-0.002": 44.0202680179,
			"-0.001": 32.201042848,
			"0.0": 27.706461187,
			"0.001": 31.8726422372,
			"0.002": 32.1434750812,
			"0.003": 42.6375636318,
			"0.004": 29.3659793579,
			"0.005": 19.8043671153,
			"0.006": 8.94373658898,
			"0.007": 4.50351797115,
			"0.008": 4.53390936908,
			"0.009": 4.83274791185,
			"0.01": 6.43690360114,
			"0.011": 5.57605004638,
			"0.012": 3.52157289668,
			"0.013": 4.50832737905,
			"0.014": 1.16551364078,
			"0.015": 0.0,
			"0.016": 0.0,
			"0.017": 0.0,
			"0.018": 0.0,
			"0.019": 0.0,
			"0.02": 0.0,
			"0.021": 0.0,
			"0.022": 0.0,
			"0.023": 0.0,
			"0.024": 0.0,
			"0.025": 0.0
		}
	}
}
