{
	 "smiles": "CCC[C@@H]1C[C@H](N(C)C1)C(=O)N[C@H]([C@H](C)Cl)[C@H]1O[C@H](SC)[C@H](O)[C@@H](O)[C@H]1O", 
	 "Tm": 414.15, 
	 "num_atms": 60, 
	 "gaussian": { 
		 "optdone": 1, 
		 "sigma_profile": "yes", 
		 "theory": "DFT", 
		 "functional": "B3LYP", 
		 "basiset": "6-31G**", 
		 "properties": { 
			 "R2extent": 14500.3721, 
			 "electric_dipole_moment_norm": 5.82483562944, 
			 "electric_quadrupole_moment_norm": 17.7525891903, 
			 "total_energy": -2049.79670315, 
			 "HOMO_LUMO_gap": 0.20177, 
			 "cosmo_polarized_energy": -24.99, 
			 "cosmo_cavitation_energy": 59.93, 
			 "cosmo_dispersion_energy": -38.37, 
			 "cosmo_repulsion_energy": 2.87, 
			 "cosmo_total_nonelectrostatic_energy": 24.43, 
			 "SMD_solvation_energy": 6.61 
		},
		"coords": [
			{
				"x": -3.0466867733,
				"y": 2.4423280094,
				"z": 4.1714075344,
				"element": "C" 
			},
			{
				"x": -3.8789988656,
				"y": 2.6693531381,
				"z": 2.9035166204,
				"element": "C" 
			},
			{
				"x": -4.2890978634,
				"y": 1.3793888532,
				"z": 2.1725665749,
				"element": "C" 
			},
			{
				"x": -3.1306140753,
				"y": 0.552586537,
				"z": 1.598103125,
				"element": "C" 
			},
			{
				"x": -2.2983162269,
				"y": 1.2830238339,
				"z": 0.5181789372,
				"element": "C" 
			},
			{
				"x": -1.7597960292,
				"y": 0.1295587516,
				"z": -0.3544406963,
				"element": "C" 
			},
			{
				"x": -2.9060588254,
				"y": -0.7603795059,
				"z": -0.4067863004,
				"element": "N" 
			},
			{
				"x": -2.7323524948,
				"y": -2.0602680783,
				"z": -1.0211044874,
				"element": "C" 
			},
			{
				"x": -3.5917099182,
				"y": -0.7499901272,
				"z": 0.8920918268,
				"element": "C" 
			},
			{
				"x": -0.4913062021,
				"y": -0.4669757808,
				"z": 0.2923072439,
				"element": "C" 
			},
			{
				"x": -0.5409794059,
				"y": -1.3161876279,
				"z": 1.178245316,
				"element": "O" 
			},
			{
				"x": 0.6785523068,
				"y": 0.0843508118,
				"z": -0.1575234767,
				"element": "N" 
			},
			{
				"x": 1.9714995104,
				"y": -0.3139117173,
				"z": 0.3591058437,
				"element": "C" 
			},
			{
				"x": 2.7036902555,
				"y": 0.8640966273,
				"z": 1.0439430541,
				"element": "C" 
			},
			{
				"x": 4.066683103,
				"y": 0.515021495,
				"z": 1.6353301227,
				"element": "C" 
			},
			{
				"x": 1.6507944107,
				"y": 1.5232070869,
				"z": 2.3919068555,
				"element": "Cl" 
			},
			{
				"x": 2.8437850199,
				"y": -0.9816623229,
				"z": -0.7368685867,
				"element": "C" 
			},
			{
				"x": 2.0889095833,
				"y": -2.1119840743,
				"z": -1.1875665741,
				"element": "O" 
			},
			{
				"x": 2.3216656327,
				"y": -2.5699292323,
				"z": -2.5044249867,
				"element": "C" 
			},
			{
				"x": 1.9512715966,
				"y": -4.3775796593,
				"z": -2.5672785734,
				"element": "S" 
			},
			{
				"x": 0.363404559,
				"y": -4.4217360992,
				"z": -1.662068652,
				"element": "C" 
			},
			{
				"x": 3.7837098936,
				"y": -2.3702478796,
				"z": -2.9272529182,
				"element": "C" 
			},
			{
				"x": 4.6768007692,
				"y": -3.0150959166,
				"z": -2.0359289664,
				"element": "O" 
			},
			{
				"x": 4.1517274922,
				"y": -0.8695130491,
				"z": -2.8914410037,
				"element": "C" 
			},
			{
				"x": 3.9826486202,
				"y": -0.2237011802,
				"z": -4.1484405375,
				"element": "O" 
			},
			{
				"x": 3.266686584,
				"y": -0.0725153289,
				"z": -1.8974140822,
				"element": "C" 
			},
			{
				"x": 2.1088169347,
				"y": 0.4342335752,
				"z": -2.5478210346,
				"element": "O" 
			},
			{
				"x": -2.0841446878,
				"y": 1.9700603597,
				"z": 3.9505412625,
				"element": "H" 
			},
			{
				"x": -2.8377108062,
				"y": 3.3897252848,
				"z": 4.6794438771,
				"element": "H" 
			},
			{
				"x": -3.5768408122,
				"y": 1.7954119237,
				"z": 4.8803154095,
				"element": "H" 
			},
			{
				"x": -4.7904663607,
				"y": 3.2204003922,
				"z": 3.1691599452,
				"element": "H" 
			},
			{
				"x": -3.3251933105,
				"y": 3.3213838229,
				"z": 2.2150540155,
				"element": "H" 
			},
			{
				"x": -4.8659047453,
				"y": 0.7491189028,
				"z": 2.8646619546,
				"element": "H" 
			},
			{
				"x": -4.9737039846,
				"y": 1.6353704534,
				"z": 1.3513185306,
				"element": "H" 
			},
			{
				"x": -2.4529120275,
				"y": 0.2668280336,
				"z": 2.4082203259,
				"element": "H" 
			},
			{
				"x": -1.5020614487,
				"y": 1.9062097389,
				"z": 0.9341117223,
				"element": "H" 
			},
			{
				"x": -2.9447371792,
				"y": 1.9155767752,
				"z": -0.1013245343,
				"element": "H" 
			},
			{
				"x": -1.5097763417,
				"y": 0.4748450707,
				"z": -1.368960508,
				"element": "H" 
			},
			{
				"x": -3.7128348519,
				"y": -2.5294420536,
				"z": -1.1638221487,
				"element": "H" 
			},
			{
				"x": -2.2789900489,
				"y": -1.9423083523,
				"z": -2.0127739595,
				"element": "H" 
			},
			{
				"x": -2.1048947067,
				"y": -2.7468049395,
				"z": -0.4288761255,
				"element": "H" 
			},
			{
				"x": -4.6802791308,
				"y": -0.7685318662,
				"z": 0.7315804942,
				"element": "H" 
			},
			{
				"x": -3.3308045047,
				"y": -1.6268874545,
				"z": 1.5028987752,
				"element": "H" 
			},
			{
				"x": 0.6761441083,
				"y": 0.6124162405,
				"z": -1.0200094078,
				"element": "H" 
			},
			{
				"x": 1.7656511422,
				"y": -1.0811517847,
				"z": 1.1122561885,
				"element": "H" 
			},
			{
				"x": 2.7895840704,
				"y": 1.7031194135,
				"z": 0.3483584486,
				"element": "H" 
			},
			{
				"x": 4.7841181249,
				"y": 0.2656115897,
				"z": 0.8468496346,
				"element": "H" 
			},
			{
				"x": 4.4662438189,
				"y": 1.3635720734,
				"z": 2.1945775568,
				"element": "H" 
			},
			{
				"x": 3.9891879352,
				"y": -0.3384327001,
				"z": 2.3153968654,
				"element": "H" 
			},
			{
				"x": 3.7691301416,
				"y": -1.3488019587,
				"z": -0.2749490773,
				"element": "H" 
			},
			{
				"x": 1.6637047952,
				"y": -2.0451544803,
				"z": -3.2072282187,
				"element": "H" 
			},
			{
				"x": 0.1533589734,
				"y": -5.4736713897,
				"z": -1.4593943576,
				"element": "H" 
			},
			{
				"x": -0.4411997463,
				"y": -4.0031622487,
				"z": -2.2699308365,
				"element": "H" 
			},
			{
				"x": 0.4533957562,
				"y": -3.872487259,
				"z": -0.7251549096,
				"element": "H" 
			},
			{
				"x": 3.9039709382,
				"y": -2.7427004945,
				"z": -3.959089021,
				"element": "H" 
			},
			{
				"x": 4.2506117732,
				"y": -3.8339262858,
				"z": -1.7340508861,
				"element": "H" 
			},
			{
				"x": 5.1960107845,
				"y": -0.8186894216,
				"z": -2.5570259491,
				"element": "H" 
			},
			{
				"x": 4.5562194243,
				"y": -0.6418069955,
				"z": -4.8022835424,
				"element": "H" 
			},
			{
				"x": 3.8669200286,
				"y": 0.7599377376,
				"z": -1.4996851461,
				"element": "H" 
			},
			{
				"x": 2.3840732867,
				"y": 0.6631007325,
				"z": -3.4498285563,
				"element": "H" 
			}
		],
		 "valence_orbital": [ 
			{
				"type": "occ",
				"energy": -0.26381,
				"method": "rhf"
			},
			{
				"type": "occ",
				"energy": -0.24476,
				"method": "rhf"
			},
			{
				"type": "occ",
				"energy": -0.23998,
				"method": "rhf"
			},
			{
				"type": "occ",
				"energy": -0.23705,
				"method": "rhf"
			},
			{
				"type": "occ",
				"energy": -0.18703,
				"method": "rhf"
			},
			{
				"type": "unocc",
				"energy": 0.01474,
				"method": "rhf"
			},
			{
				"type": "unocc",
				"energy": 0.02673,
				"method": "rhf"
			},
			{
				"type": "unocc",
				"energy": 0.03404,
				"method": "rhf"
			},
			{
				"type": "unocc",
				"energy": 0.03616,
				"method": "rhf"
			},
			{
				"type": "unocc",
				"energy": 0.06421,
				"method": "rhf"
			}
		],
		"cosmo_sigma_profile": { 
			"-0.025": 0.0,
			"-0.024": 0.0,
			"-0.023": 0.0,
			"-0.022": 0.0,
			"-0.021": 0.0,
			"-0.02": 0.0,
			"-0.019": 0.0,
			"-0.018": 0.0460572068675,
			"-0.017": 0.818027611119,
			"-0.016": 1.36515001074,
			"-0.015": 0.788782517949,
			"-0.014": 0.899273119593,
			"-0.013": 0.972920452169,
			"-0.012": 1.15787782433,
			"-0.011": 1.37450557683,
			"-0.01": 3.26300428648,
			"-0.009": 3.28848046849,
			"-0.008": 5.52838494795,
			"-0.007": 10.2505604143,
			"-0.006": 16.8976490057,
			"-0.005": 22.9123602114,
			"-0.004": 24.579722704,
			"-0.003": 29.931436547,
			"-0.002": 47.4669070442,
			"-0.001": 63.866511645,
			"0.0": 53.1213361718,
			"0.001": 38.4191384119,
			"0.002": 23.5296130291,
			"0.003": 18.054907874,
			"0.004": 16.5463593184,
			"0.005": 16.5770587206,
			"0.006": 17.6273035403,
			"0.007": 14.6994911074,
			"0.008": 9.1934266302,
			"0.009": 5.45585975135,
			"0.01": 4.7291194515,
			"0.011": 2.58402091358,
			"0.012": 3.44681526875,
			"0.013": 3.25632594912,
			"0.014": 3.57187266482,
			"0.015": 0.624169784282,
			"0.016": 0.0,
			"0.017": 0.0,
			"0.018": 0.0,
			"0.019": 0.0,
			"0.02": 0.0,
			"0.021": 0.0,
			"0.022": 0.0,
			"0.023": 0.0,
			"0.024": 0.0,
			"0.025": 0.0
		}
	}
}
