{
	 "smiles": "CC1=CC(C=O)=C(C)N1", 
	 "Tm": 413.15, 
	 "num_atms": 18, 
	 "gaussian": { 
		 "optdone": 1, 
		 "sigma_profile": "yes", 
		 "theory": "DFT", 
		 "functional": "B3LYP", 
		 "basiset": "6-31G**", 
		 "properties": { 
			 "R2extent": 1753.1387, 
			 "electric_dipole_moment_norm": 4.88832364518, 
			 "electric_quadrupole_moment_norm": 11.0887950887, 
			 "total_energy": -402.144860717, 
			 "HOMO_LUMO_gap": 0.18452, 
			 "cosmo_polarized_energy": -12.42, 
			 "cosmo_cavitation_energy": 21.91, 
			 "cosmo_dispersion_energy": -15.92, 
			 "cosmo_repulsion_energy": 1.32, 
			 "cosmo_total_nonelectrostatic_energy": 7.31, 
			 "SMD_solvation_energy": 4.87 
		},
		"coords": [
			{
				"x": -0.0953492947,
				"y": -1.9713901416,
				"z": 2.4414852782,
				"element": "C" 
			},
			{
				"x": -0.6696321498,
				"y": -0.8939441833,
				"z": 1.5796769688,
				"element": "C" 
			},
			{
				"x": -1.6994681676,
				"y": -0.0111571435,
				"z": 1.7855031782,
				"element": "C" 
			},
			{
				"x": -1.8220394943,
				"y": 0.8101789378,
				"z": 0.6146233546,
				"element": "C" 
			},
			{
				"x": -2.7767680668,
				"y": 1.8791386052,
				"z": 0.3876032092,
				"element": "C" 
			},
			{
				"x": -2.8486454448,
				"y": 2.557189716,
				"z": -0.6305168958,
				"element": "O" 
			},
			{
				"x": -0.8425600481,
				"y": 0.3956289939,
				"z": -0.2906192931,
				"element": "C" 
			},
			{
				"x": -0.5106643236,
				"y": 0.8915269225,
				"z": -1.6593899794,
				"element": "C" 
			},
			{
				"x": -0.1653693509,
				"y": -0.6260642034,
				"z": 0.3104632141,
				"element": "N" 
			},
			{
				"x": -0.1726074342,
				"y": -2.9617473923,
				"z": 1.9746430015,
				"element": "H" 
			},
			{
				"x": -0.6356168814,
				"y": -2.0119823798,
				"z": 3.3900546967,
				"element": "H" 
			},
			{
				"x": 0.9638161571,
				"y": -1.7984988283,
				"z": 2.6716872449,
				"element": "H" 
			},
			{
				"x": -2.3093306403,
				"y": 0.0504815582,
				"z": 2.6770361589,
				"element": "H" 
			},
			{
				"x": -3.4801182316,
				"y": 2.0577360729,
				"z": 1.2326808536,
				"element": "H" 
			},
			{
				"x": -1.3731584709,
				"y": 0.8040974363,
				"z": -2.3269273825,
				"element": "H" 
			},
			{
				"x": -0.2497687776,
				"y": 1.9538911041,
				"z": -1.6379596309,
				"element": "H" 
			},
			{
				"x": 0.3262266184,
				"y": 0.33303765,
				"z": -2.0919308358,
				"element": "H" 
			},
			{
				"x": 0.6036540011,
				"y": -1.1216227246,
				"z": -0.1163131412,
				"element": "H" 
			}
		],
		 "valence_orbital": [ 
			{
				"type": "occ",
				"energy": -0.35963,
				"method": "rhf"
			},
			{
				"type": "occ",
				"energy": -0.35799,
				"method": "rhf"
			},
			{
				"type": "occ",
				"energy": -0.24996,
				"method": "rhf"
			},
			{
				"type": "occ",
				"energy": -0.23045,
				"method": "rhf"
			},
			{
				"type": "occ",
				"energy": -0.20696,
				"method": "rhf"
			},
			{
				"type": "unocc",
				"energy": -0.02244,
				"method": "rhf"
			},
			{
				"type": "unocc",
				"energy": 0.04025,
				"method": "rhf"
			},
			{
				"type": "unocc",
				"energy": 0.06911,
				"method": "rhf"
			},
			{
				"type": "unocc",
				"energy": 0.10814,
				"method": "rhf"
			},
			{
				"type": "unocc",
				"energy": 0.11585,
				"method": "rhf"
			}
		],
		"cosmo_sigma_profile": { 
			"-0.025": 0.0,
			"-0.024": 0.0,
			"-0.023": 0.0,
			"-0.022": 0.0,
			"-0.021": 0.0,
			"-0.02": 0.0,
			"-0.019": 0.0,
			"-0.018": 0.0,
			"-0.017": 0.0,
			"-0.016": 0.229871932368,
			"-0.015": 1.41730172126,
			"-0.014": 1.01137089871,
			"-0.013": 1.68116200653,
			"-0.012": 0.894872904662,
			"-0.011": 1.76230908565,
			"-0.01": 1.78151336416,
			"-0.009": 1.30490747249,
			"-0.008": 1.35558229611,
			"-0.007": 1.52342241946,
			"-0.006": 2.29718661085,
			"-0.005": 9.00983707709,
			"-0.004": 19.1185708037,
			"-0.003": 15.3041463524,
			"-0.002": 15.9357919803,
			"-0.001": 18.6844849323,
			"0.0": 14.5804612498,
			"0.001": 7.46953546633,
			"0.002": 8.21047252125,
			"0.003": 7.95240516793,
			"0.004": 7.74374317288,
			"0.005": 6.26686459233,
			"0.006": 6.36839856109,
			"0.007": 4.60903253591,
			"0.008": 1.69460211814,
			"0.009": 1.95648827033,
			"0.01": 1.34084472137,
			"0.011": 2.13863354689,
			"0.012": 2.98961008489,
			"0.013": 3.75528425994,
			"0.014": 2.19375186319,
			"0.015": 0.609738284778,
			"0.016": 0.0,
			"0.017": 0.0,
			"0.018": 0.0,
			"0.019": 0.0,
			"0.02": 0.0,
			"0.021": 0.0,
			"0.022": 0.0,
			"0.023": 0.0,
			"0.024": 0.0,
			"0.025": 0.0
		}
	}
}
