{
	 "smiles": "NNC(=O)C1=C(Cl)C=CC=C1Cl", 
	 "Tm": 454.15, 
	 "num_atms": 18, 
	 "gaussian": { 
		 "optdone": 1, 
		 "sigma_profile": "yes", 
		 "theory": "DFT", 
		 "functional": "B3LYP", 
		 "basiset": "6-31G**", 
		 "properties": { 
			 "R2extent": 2714.6274, 
			 "electric_dipole_moment_norm": 4.36444999284, 
			 "electric_quadrupole_moment_norm": 9.67309789674, 
			 "total_energy": -1375.44031265, 
			 "HOMO_LUMO_gap": 0.21342, 
			 "cosmo_polarized_energy": -14.61, 
			 "cosmo_cavitation_energy": 26.3, 
			 "cosmo_dispersion_energy": -18.68, 
			 "cosmo_repulsion_energy": 1.51, 
			 "cosmo_total_nonelectrostatic_energy": 9.13, 
			 "SMD_solvation_energy": 4.95 
		},
		"coords": [
			{
				"x": 1.9508720975,
				"y": -0.4618215676,
				"z": 2.4092330074,
				"element": "N" 
			},
			{
				"x": 0.6646846254,
				"y": -0.4309118311,
				"z": 2.9654430457,
				"element": "N" 
			},
			{
				"x": -0.5007698281,
				"y": -0.1051189968,
				"z": 2.3339697908,
				"element": "C" 
			},
			{
				"x": -1.5833596828,
				"y": -0.103023766,
				"z": 2.8945294762,
				"element": "O" 
			},
			{
				"x": -0.3772968183,
				"y": 0.264095325,
				"z": 0.8628203673,
				"element": "C" 
			},
			{
				"x": -0.5429881359,
				"y": -0.6944671785,
				"z": -0.1457129547,
				"element": "C" 
			},
			{
				"x": -0.69501003,
				"y": -2.3897217099,
				"z": 0.2936289125,
				"element": "Cl" 
			},
			{
				"x": -0.5698411897,
				"y": -0.3523169805,
				"z": -1.4966102396,
				"element": "C" 
			},
			{
				"x": -0.4284207013,
				"y": 0.9858891326,
				"z": -1.8599109396,
				"element": "C" 
			},
			{
				"x": -0.2504948002,
				"y": 1.9683917827,
				"z": -0.887379,
				"element": "C" 
			},
			{
				"x": -0.2277491223,
				"y": 1.596510805,
				"z": 0.4557168278,
				"element": "C" 
			},
			{
				"x": 0.0251218905,
				"y": 2.8443633767,
				"z": 1.6676966748,
				"element": "Cl" 
			},
			{
				"x": 2.2040243206,
				"y": 0.4590428623,
				"z": 2.0603950818,
				"element": "H" 
			},
			{
				"x": 1.9856009158,
				"y": -1.1300292577,
				"z": 1.643688975,
				"element": "H" 
			},
			{
				"x": 0.5963871884,
				"y": -0.6780782653,
				"z": 3.9440523709,
				"element": "H" 
			},
			{
				"x": -0.7009256476,
				"y": -1.1252724479,
				"z": -2.2450289605,
				"element": "H" 
			},
			{
				"x": -0.4522058089,
				"y": 1.2644940826,
				"z": -2.9087069595,
				"element": "H" 
			},
			{
				"x": -0.1317292729,
				"y": 3.0108746345,
				"z": -1.1592254762,
				"element": "H" 
			}
		],
		 "valence_orbital": [ 
			{
				"type": "occ",
				"energy": -0.29397,
				"method": "rhf"
			},
			{
				"type": "occ",
				"energy": -0.28244,
				"method": "rhf"
			},
			{
				"type": "occ",
				"energy": -0.26564,
				"method": "rhf"
			},
			{
				"type": "occ",
				"energy": -0.26198,
				"method": "rhf"
			},
			{
				"type": "occ",
				"energy": -0.25063,
				"method": "rhf"
			},
			{
				"type": "unocc",
				"energy": -0.03721,
				"method": "rhf"
			},
			{
				"type": "unocc",
				"energy": -0.03512,
				"method": "rhf"
			},
			{
				"type": "unocc",
				"energy": -0.00304,
				"method": "rhf"
			},
			{
				"type": "unocc",
				"energy": 0.01028,
				"method": "rhf"
			},
			{
				"type": "unocc",
				"energy": 0.04157,
				"method": "rhf"
			}
		],
		"cosmo_sigma_profile": { 
			"-0.025": 0.0,
			"-0.024": 0.0,
			"-0.023": 0.0,
			"-0.022": 0.0,
			"-0.021": 0.0,
			"-0.02": 0.0,
			"-0.019": 0.0,
			"-0.018": 0.0,
			"-0.017": 0.0,
			"-0.016": 0.0,
			"-0.015": 0.221295506724,
			"-0.014": 0.777036069444,
			"-0.013": 1.1714021679,
			"-0.012": 0.75043616067,
			"-0.011": 2.97495363935,
			"-0.01": 2.69821226078,
			"-0.009": 3.2838739345,
			"-0.008": 8.72382712122,
			"-0.007": 10.5794222988,
			"-0.006": 10.0225816606,
			"-0.005": 8.82500136648,
			"-0.004": 8.05776157474,
			"-0.003": 9.98204403203,
			"-0.002": 9.79316318159,
			"-0.001": 13.4123006219,
			"0.0": 18.0297629466,
			"0.001": 21.8093624185,
			"0.002": 22.4917265732,
			"0.003": 16.721170591,
			"0.004": 13.2154298538,
			"0.005": 4.13432101242,
			"0.006": 2.66574678916,
			"0.007": 2.23662973829,
			"0.008": 2.47277292488,
			"0.009": 1.58525831686,
			"0.01": 2.08461773815,
			"0.011": 2.87813235123,
			"0.012": 5.30523708162,
			"0.013": 4.98879568581,
			"0.014": 1.60296158472,
			"0.015": 0.484346650118,
			"0.016": 0.210405523897,
			"0.017": 0.0,
			"0.018": 0.0,
			"0.019": 0.0,
			"0.02": 0.0,
			"0.021": 0.0,
			"0.022": 0.0,
			"0.023": 0.0,
			"0.024": 0.0,
			"0.025": 0.0
		}
	}
}
