{
	 "smiles": "OC1=CC2=C(C=C1)C(=O)NCCC2", 
	 "Tm": 493.15, 
	 "num_atms": 24, 
	 "gaussian": { 
		 "optdone": 1, 
		 "sigma_profile": "yes", 
		 "theory": "DFT", 
		 "functional": "B3LYP", 
		 "basiset": "6-31G**", 
		 "properties": { 
			 "R2extent": 2575.9698, 
			 "electric_dipole_moment_norm": 3.00752398328, 
			 "electric_quadrupole_moment_norm": 20.161309363, 
			 "total_energy": -592.912697363, 
			 "HOMO_LUMO_gap": 0.20214, 
			 "cosmo_polarized_energy": -15.86, 
			 "cosmo_cavitation_energy": 26.45, 
			 "cosmo_dispersion_energy": -19.85, 
			 "cosmo_repulsion_energy": 1.57, 
			 "cosmo_total_nonelectrostatic_energy": 8.17, 
			 "SMD_solvation_energy": 4.45 
		},
		"coords": [
			{
				"x": -2.4122956347,
				"y": 3.4788483849,
				"z": -1.7649742087,
				"element": "O" 
			},
			{
				"x": -1.4854271661,
				"y": 2.6996303688,
				"z": -1.1379672677,
				"element": "C" 
			},
			{
				"x": -1.9273748463,
				"y": 1.4852593126,
				"z": -0.6012245021,
				"element": "C" 
			},
			{
				"x": -1.0450503304,
				"y": 0.6215177088,
				"z": 0.0485199769,
				"element": "C" 
			},
			{
				"x": 0.3176038752,
				"y": 0.9896849834,
				"z": 0.1565387646,
				"element": "C" 
			},
			{
				"x": 0.7384106339,
				"y": 2.2242207404,
				"z": -0.3525718226,
				"element": "C" 
			},
			{
				"x": -0.1440486547,
				"y": 3.0755099042,
				"z": -1.007182852,
				"element": "C" 
			},
			{
				"x": 1.3582519947,
				"y": 0.157242719,
				"z": 0.8456173652,
				"element": "C" 
			},
			{
				"x": 2.3021241289,
				"y": 0.6603688545,
				"z": 1.4494232421,
				"element": "O" 
			},
			{
				"x": 1.2141685074,
				"y": -1.2110123765,
				"z": 0.7609728083,
				"element": "N" 
			},
			{
				"x": 0.4384346641,
				"y": -1.8865325831,
				"z": -0.2798174293,
				"element": "C" 
			},
			{
				"x": -1.062921179,
				"y": -1.9532739431,
				"z": 0.0391259854,
				"element": "C" 
			},
			{
				"x": -1.5691986022,
				"y": -0.648819461,
				"z": 0.688769375,
				"element": "C" 
			},
			{
				"x": -1.9884147744,
				"y": 4.291495877,
				"z": -2.0707264955,
				"element": "H" 
			},
			{
				"x": -2.9810288699,
				"y": 1.2373656752,
				"z": -0.6864218175,
				"element": "H" 
			},
			{
				"x": 1.7781852535,
				"y": 2.5038936021,
				"z": -0.2190110582,
				"element": "H" 
			},
			{
				"x": 0.2014604318,
				"y": 4.0260251502,
				"z": -1.4080915741,
				"element": "H" 
			},
			{
				"x": 1.9889890129,
				"y": -1.7073491272,
				"z": 1.1805631336,
				"element": "H" 
			},
			{
				"x": 0.5832848545,
				"y": -1.3693558806,
				"z": -1.2359435125,
				"element": "H" 
			},
			{
				"x": 0.8470513469,
				"y": -2.8937237083,
				"z": -0.4003322084,
				"element": "H" 
			},
			{
				"x": -1.6053738457,
				"y": -2.1552640075,
				"z": -0.8924385059,
				"element": "H" 
			},
			{
				"x": -1.2732542553,
				"y": -2.7853106295,
				"z": 0.7212393708,
				"element": "H" 
			},
			{
				"x": -2.6635322027,
				"y": -0.6384635266,
				"z": 0.680897895,
				"element": "H" 
			},
			{
				"x": -1.2633443428,
				"y": -0.6553580376,
				"z": 1.7410353373,
				"element": "H" 
			}
		],
		 "valence_orbital": [ 
			{
				"type": "occ",
				"energy": -0.32391,
				"method": "rhf"
			},
			{
				"type": "occ",
				"energy": -0.25345,
				"method": "rhf"
			},
			{
				"type": "occ",
				"energy": -0.24669,
				"method": "rhf"
			},
			{
				"type": "occ",
				"energy": -0.23938,
				"method": "rhf"
			},
			{
				"type": "occ",
				"energy": -0.22246,
				"method": "rhf"
			},
			{
				"type": "unocc",
				"energy": -0.02032,
				"method": "rhf"
			},
			{
				"type": "unocc",
				"energy": -0.00464,
				"method": "rhf"
			},
			{
				"type": "unocc",
				"energy": 0.06247,
				"method": "rhf"
			},
			{
				"type": "unocc",
				"energy": 0.06735,
				"method": "rhf"
			},
			{
				"type": "unocc",
				"energy": 0.08109,
				"method": "rhf"
			}
		],
		"cosmo_sigma_profile": { 
			"-0.025": 0.0,
			"-0.024": 0.0,
			"-0.023": 0.0,
			"-0.022": 0.0,
			"-0.021": 0.0,
			"-0.02": 0.0,
			"-0.019": 0.00394527967723,
			"-0.018": 0.745537298786,
			"-0.017": 1.21331213032,
			"-0.016": 0.548318744278,
			"-0.015": 1.48515468492,
			"-0.014": 0.656772079903,
			"-0.013": 2.38616046798,
			"-0.012": 1.79124966894,
			"-0.011": 1.95466423159,
			"-0.01": 2.18472989578,
			"-0.009": 1.8717509274,
			"-0.008": 2.99449625309,
			"-0.007": 2.90995138338,
			"-0.006": 5.35003202462,
			"-0.005": 10.2361113149,
			"-0.004": 13.9115840474,
			"-0.003": 20.5786300615,
			"-0.002": 21.698224644,
			"-0.001": 16.9314091596,
			"0.0": 14.9857107646,
			"0.001": 9.67133211025,
			"0.002": 8.50766426256,
			"0.003": 11.5734375516,
			"0.004": 14.7472023119,
			"0.005": 8.57010203548,
			"0.006": 3.50386850515,
			"0.007": 2.43912684724,
			"0.008": 2.93601359327,
			"0.009": 3.25412594002,
			"0.01": 2.73586216976,
			"0.011": 3.39463421144,
			"0.012": 1.96219543236,
			"0.013": 2.50781206977,
			"0.014": 5.96694581945,
			"0.015": 2.08739521802,
			"0.016": 0.0,
			"0.017": 0.0,
			"0.018": 0.0,
			"0.019": 0.0,
			"0.02": 0.0,
			"0.021": 0.0,
			"0.022": 0.0,
			"0.023": 0.0,
			"0.024": 0.0,
			"0.025": 0.0
		}
	}
}
