{
	 "smiles": "CC1=NN2C(S)=NN=C2N=C1O", 
	 "Tm": 579.15, 
	 "num_atms": 17, 
	 "gaussian": { 
		 "optdone": 1, 
		 "sigma_profile": "yes", 
		 "theory": "DFT", 
		 "functional": "B3LYP", 
		 "basiset": "6-31G**", 
		 "properties": { 
			 "R2extent": 2672.9456, 
			 "electric_dipole_moment_norm": 4.90662025737, 
			 "electric_quadrupole_moment_norm": 15.6772490147, 
			 "total_energy": -940.65157514, 
			 "HOMO_LUMO_gap": 0.13978, 
			 "cosmo_polarized_energy": -18.34, 
			 "cosmo_cavitation_energy": 24.03, 
			 "cosmo_dispersion_energy": -18.66, 
			 "cosmo_repulsion_energy": 1.44, 
			 "cosmo_total_nonelectrostatic_energy": 6.8, 
			 "SMD_solvation_energy": -0.05 
		},
		"coords": [
			{
				"x": -2.060612698,
				"y": 0.5645826931,
				"z": -2.8292385105,
				"element": "C" 
			},
			{
				"x": -1.5093728931,
				"y": -0.0302089046,
				"z": -1.5700952993,
				"element": "C" 
			},
			{
				"x": -0.3193569031,
				"y": -0.5674689387,
				"z": -1.5987693175,
				"element": "N" 
			},
			{
				"x": 0.0947708552,
				"y": -1.0775969535,
				"z": -0.419963709,
				"element": "N" 
			},
			{
				"x": 1.2719450302,
				"y": -1.7018750607,
				"z": -0.1070753299,
				"element": "C" 
			},
			{
				"x": 2.5477955966,
				"y": -1.9644038512,
				"z": -1.2909763601,
				"element": "S" 
			},
			{
				"x": 1.2614420004,
				"y": -2.0429659401,
				"z": 1.1653949147,
				"element": "N" 
			},
			{
				"x": 0.0627746644,
				"y": -1.6474623012,
				"z": 1.7303146148,
				"element": "N" 
			},
			{
				"x": -0.6335943919,
				"y": -1.0696419817,
				"z": 0.7780454023,
				"element": "C" 
			},
			{
				"x": -1.8693012606,
				"y": -0.5097698253,
				"z": 0.8006498752,
				"element": "N" 
			},
			{
				"x": -2.2804449284,
				"y": -0.0145197684,
				"z": -0.3284484537,
				"element": "C" 
			},
			{
				"x": -3.4921628323,
				"y": 0.5621561829,
				"z": -0.4084717398,
				"element": "O" 
			},
			{
				"x": -2.2876480533,
				"y": 1.6262821302,
				"z": -2.6872841079,
				"element": "H" 
			},
			{
				"x": -2.9987006927,
				"y": 0.0741725765,
				"z": -3.109222938,
				"element": "H" 
			},
			{
				"x": -1.3353338855,
				"y": 0.4515954453,
				"z": -3.6358214141,
				"element": "H" 
			},
			{
				"x": 3.3385719185,
				"y": -2.5722485515,
				"z": -0.3854653494,
				"element": "H" 
			},
			{
				"x": -3.8914715266,
				"y": 0.5046730487,
				"z": 0.4757277223,
				"element": "H" 
			}
		],
		 "valence_orbital": [ 
			{
				"type": "occ",
				"energy": -0.30833,
				"method": "rhf"
			},
			{
				"type": "occ",
				"energy": -0.29988,
				"method": "rhf"
			},
			{
				"type": "occ",
				"energy": -0.2888,
				"method": "rhf"
			},
			{
				"type": "occ",
				"energy": -0.26035,
				"method": "rhf"
			},
			{
				"type": "occ",
				"energy": -0.22769,
				"method": "rhf"
			},
			{
				"type": "unocc",
				"energy": -0.08791,
				"method": "rhf"
			},
			{
				"type": "unocc",
				"energy": -0.0166,
				"method": "rhf"
			},
			{
				"type": "unocc",
				"energy": 0.0067,
				"method": "rhf"
			},
			{
				"type": "unocc",
				"energy": 0.03649,
				"method": "rhf"
			},
			{
				"type": "unocc",
				"energy": 0.05652,
				"method": "rhf"
			}
		],
		"cosmo_sigma_profile": { 
			"-0.025": 0.0,
			"-0.024": 0.0,
			"-0.023": 0.0,
			"-0.022": 0.0,
			"-0.021": 0.0,
			"-0.02": 0.0118427486069,
			"-0.019": 0.973662832368,
			"-0.018": 0.903701331227,
			"-0.017": 0.597417425937,
			"-0.016": 1.03291138703,
			"-0.015": 0.510575393959,
			"-0.014": 0.686836291826,
			"-0.013": 1.07083295396,
			"-0.012": 2.41867423734,
			"-0.011": 2.25322983355,
			"-0.01": 1.62103658103,
			"-0.009": 3.55883133608,
			"-0.008": 3.84314964221,
			"-0.007": 6.45272695505,
			"-0.006": 12.5851394802,
			"-0.005": 11.3963929005,
			"-0.004": 12.2538807856,
			"-0.003": 12.8482914185,
			"-0.002": 15.7936085794,
			"-0.001": 10.3662156122,
			"0.0": 9.86625953457,
			"0.001": 8.80826767247,
			"0.002": 8.82741839634,
			"0.003": 10.366392257,
			"0.004": 8.27344188239,
			"0.005": 7.48380418724,
			"0.006": 7.47032235724,
			"0.007": 5.72109340553,
			"0.008": 4.42384266703,
			"0.009": 3.4677127279,
			"0.01": 2.99674617295,
			"0.011": 3.71453835406,
			"0.012": 3.72583840394,
			"0.013": 3.40933380589,
			"0.014": 2.34408928184,
			"0.015": 2.83391049612,
			"0.016": 0.894177598064,
			"0.017": 0.00693834095062,
			"0.018": 0.0,
			"0.019": 0.0,
			"0.02": 0.0,
			"0.021": 0.0,
			"0.022": 0.0,
			"0.023": 0.0,
			"0.024": 0.0,
			"0.025": 0.0
		}
	}
}
