{
	 "smiles": "CCC12CCCN3CCC4=C(C13)N(C1=C4C=CC=C1)C(=O)C2", 
	 "Tm": 448.15, 
	 "num_atms": 44, 
	 "gaussian": { 
		 "optdone": 1, 
		 "sigma_profile": "yes", 
		 "theory": "DFT", 
		 "functional": "B3LYP", 
		 "basiset": "6-31G**", 
		 "properties": { 
			 "R2extent": 7527.3091, 
			 "electric_dipole_moment_norm": 3.85907786524, 
			 "electric_quadrupole_moment_norm": 10.7851521153, 
			 "total_energy": -922.026782496, 
			 "HOMO_LUMO_gap": 0.17719, 
			 "cosmo_polarized_energy": -10.07, 
			 "cosmo_cavitation_energy": 41.2, 
			 "cosmo_dispersion_energy": -29.77, 
			 "cosmo_repulsion_energy": 2.19, 
			 "cosmo_total_nonelectrostatic_energy": 13.63, 
			 "SMD_solvation_energy": 3.99 
		},
		"coords": [
			{
				"x": 2.1308219211,
				"y": -0.6340097176,
				"z": -2.992338153,
				"element": "C" 
			},
			{
				"x": 1.7126885695,
				"y": -0.9207887764,
				"z": -1.5453749471,
				"element": "C" 
			},
			{
				"x": 0.648836172,
				"y": 0.0233096994,
				"z": -0.9124840985,
				"element": "C" 
			},
			{
				"x": -0.6429998274,
				"y": 0.0921796415,
				"z": -1.7552974396,
				"element": "C" 
			},
			{
				"x": -1.3723183892,
				"y": -1.2575695634,
				"z": -1.8351956148,
				"element": "C" 
			},
			{
				"x": -1.4717057897,
				"y": -1.9303469204,
				"z": -0.4422299302,
				"element": "C" 
			},
			{
				"x": -1.1406426789,
				"y": -0.9773576983,
				"z": 0.6179187895,
				"element": "N" 
			},
			{
				"x": -1.4056236145,
				"y": -1.5311890382,
				"z": 1.9544238101,
				"element": "C" 
			},
			{
				"x": -1.2819501808,
				"y": -0.477797449,
				"z": 3.0754803424,
				"element": "C" 
			},
			{
				"x": -0.0688352982,
				"y": 0.3727198459,
				"z": 2.8434903749,
				"element": "C" 
			},
			{
				"x": 0.5485789506,
				"y": 0.3667667277,
				"z": 1.6362060741,
				"element": "C" 
			},
			{
				"x": 0.2678871525,
				"y": -0.5618822843,
				"z": 0.503320813,
				"element": "C" 
			},
			{
				"x": 1.6253766773,
				"y": 1.2591983267,
				"z": 1.6176533649,
				"element": "N" 
			},
			{
				"x": 1.7122756332,
				"y": 1.8456438165,
				"z": 2.8976419953,
				"element": "C" 
			},
			{
				"x": 0.6497289738,
				"y": 1.3155833718,
				"z": 3.6790104231,
				"element": "C" 
			},
			{
				"x": 0.4962166202,
				"y": 1.7538745619,
				"z": 5.000863255,
				"element": "C" 
			},
			{
				"x": 1.3865721483,
				"y": 2.7007500051,
				"z": 5.5031234849,
				"element": "C" 
			},
			{
				"x": 2.4211675162,
				"y": 3.2187170129,
				"z": 4.7059377822,
				"element": "C" 
			},
			{
				"x": 2.6004660329,
				"y": 2.8003548827,
				"z": 3.3865047488,
				"element": "C" 
			},
			{
				"x": 2.1279061637,
				"y": 1.7672629287,
				"z": 0.4152110925,
				"element": "C" 
			},
			{
				"x": 3.1069800456,
				"y": 2.4882021921,
				"z": 0.3657678931,
				"element": "O" 
			},
			{
				"x": 1.2358597034,
				"y": 1.4565994905,
				"z": -0.7815044476,
				"element": "C" 
			},
			{
				"x": 2.8971413923,
				"y": -1.3499518037,
				"z": -3.3061190785,
				"element": "H" 
			},
			{
				"x": 2.5569667852,
				"y": 0.3661422896,
				"z": -3.1175112486,
				"element": "H" 
			},
			{
				"x": 1.292175276,
				"y": -0.7295100541,
				"z": -3.6891638814,
				"element": "H" 
			},
			{
				"x": 1.3383276448,
				"y": -1.9502061623,
				"z": -1.4896337724,
				"element": "H" 
			},
			{
				"x": 2.6048354703,
				"y": -0.9001168269,
				"z": -0.9044594015,
				"element": "H" 
			},
			{
				"x": -1.3110588513,
				"y": 0.8204794946,
				"z": -1.2847515661,
				"element": "H" 
			},
			{
				"x": -0.4242071929,
				"y": 0.4668433402,
				"z": -2.7611527782,
				"element": "H" 
			},
			{
				"x": -0.8634791435,
				"y": -1.9305628407,
				"z": -2.5338915876,
				"element": "H" 
			},
			{
				"x": -2.373585768,
				"y": -1.0892462972,
				"z": -2.245267878,
				"element": "H" 
			},
			{
				"x": -2.4891269505,
				"y": -2.2936054798,
				"z": -0.2652962054,
				"element": "H" 
			},
			{
				"x": -0.810484643,
				"y": -2.8192097958,
				"z": -0.3952471458,
				"element": "H" 
			},
			{
				"x": -2.4190759822,
				"y": -1.9454509994,
				"z": 1.9511777761,
				"element": "H" 
			},
			{
				"x": -0.7157701904,
				"y": -2.3712116129,
				"z": 2.1718257335,
				"element": "H" 
			},
			{
				"x": -1.2409525322,
				"y": -0.9925812912,
				"z": 4.0436542473,
				"element": "H" 
			},
			{
				"x": -2.1810006066,
				"y": 0.1531443454,
				"z": 3.095205324,
				"element": "H" 
			},
			{
				"x": 0.9143786581,
				"y": -1.4535387967,
				"z": 0.6568255212,
				"element": "H" 
			},
			{
				"x": -0.3050243654,
				"y": 1.3643339201,
				"z": 5.6225822737,
				"element": "H" 
			},
			{
				"x": 1.2799174807,
				"y": 3.045941654,
				"z": 6.5275307668,
				"element": "H" 
			},
			{
				"x": 3.1002225072,
				"y": 3.9556560051,
				"z": 5.1245084802,
				"element": "H" 
			},
			{
				"x": 3.3933484247,
				"y": 3.1881731964,
				"z": 2.7596017877,
				"element": "H" 
			},
			{
				"x": 1.7921346521,
				"y": 1.7396809434,
				"z": -1.6762745388,
				"element": "H" 
			},
			{
				"x": 0.404831433,
				"y": 2.170275716,
				"z": -0.6894724418,
				"element": "H" 
			}
		],
		 "valence_orbital": [ 
			{
				"type": "occ",
				"energy": -0.2687,
				"method": "rhf"
			},
			{
				"type": "occ",
				"energy": -0.25835,
				"method": "rhf"
			},
			{
				"type": "occ",
				"energy": -0.22676,
				"method": "rhf"
			},
			{
				"type": "occ",
				"energy": -0.22173,
				"method": "rhf"
			},
			{
				"type": "occ",
				"energy": -0.20334,
				"method": "rhf"
			},
			{
				"type": "unocc",
				"energy": -0.02615,
				"method": "rhf"
			},
			{
				"type": "unocc",
				"energy": -0.00247,
				"method": "rhf"
			},
			{
				"type": "unocc",
				"energy": 0.03521,
				"method": "rhf"
			},
			{
				"type": "unocc",
				"energy": 0.05797,
				"method": "rhf"
			},
			{
				"type": "unocc",
				"energy": 0.07026,
				"method": "rhf"
			}
		],
		"cosmo_sigma_profile": { 
			"-0.025": 0.0,
			"-0.024": 0.0,
			"-0.023": 0.0,
			"-0.022": 0.0,
			"-0.021": 0.0,
			"-0.02": 0.0,
			"-0.019": 0.0,
			"-0.018": 0.0,
			"-0.017": 0.0,
			"-0.016": 0.0,
			"-0.015": 0.0,
			"-0.014": 0.0,
			"-0.013": 0.0,
			"-0.012": 0.0,
			"-0.011": 0.0,
			"-0.01": 0.0,
			"-0.009": 0.0,
			"-0.008": 0.0,
			"-0.007": 0.654593603451,
			"-0.006": 5.16187975273,
			"-0.005": 12.8395672881,
			"-0.004": 23.6620105101,
			"-0.003": 45.4978653549,
			"-0.002": 53.3317980745,
			"-0.001": 41.6537362548,
			"0.0": 32.9138068775,
			"0.001": 20.2392761705,
			"0.002": 15.387882914,
			"0.003": 13.479576069,
			"0.004": 14.5576205705,
			"0.005": 12.2094995104,
			"0.006": 10.4038053535,
			"0.007": 3.05278205951,
			"0.008": 2.79322340364,
			"0.009": 2.26796442156,
			"0.01": 3.01982863914,
			"0.011": 2.88013014701,
			"0.012": 4.1837165632,
			"0.013": 1.80571979409,
			"0.014": 0.363727335971,
			"0.015": 0.0,
			"0.016": 0.0,
			"0.017": 0.0,
			"0.018": 0.0,
			"0.019": 0.0,
			"0.02": 0.0,
			"0.021": 0.0,
			"0.022": 0.0,
			"0.023": 0.0,
			"0.024": 0.0,
			"0.025": 0.0
		}
	}
}
