{
	 "smiles": "CN1N=C(C)C(CN2C=C(Br)C=N2)=C1Cl", 
	 "Tm": 326.15, 
	 "num_atms": 25, 
	 "gaussian": { 
		 "optdone": 1, 
		 "sigma_profile": "yes", 
		 "theory": "DFT", 
		 "functional": "B3LYP", 
		 "basiset": "6-31G**", 
		 "properties": { 
			 "R2extent": 6806.6784, 
			 "electric_dipole_moment_norm": 3.18706513583, 
			 "electric_quadrupole_moment_norm": 7.2993359513, 
			 "total_energy": -3599.54200919, 
			 "HOMO_LUMO_gap": 0.2327, 
			 "cosmo_polarized_energy": -10.41, 
			 "cosmo_cavitation_energy": 33.79, 
			 "cosmo_dispersion_energy": -24.04, 
			 "cosmo_repulsion_energy": 1.9, 
			 "cosmo_total_nonelectrostatic_energy": 11.66, 
			 "SMD_solvation_energy": 3.1 
		},
		"coords": [
			{
				"x": -0.8749077998,
				"y": -2.1769297004,
				"z": 2.7748708483,
				"element": "C" 
			},
			{
				"x": -0.9191906446,
				"y": -1.0356326463,
				"z": 1.8791411096,
				"element": "N" 
			},
			{
				"x": -0.9767974126,
				"y": 0.2262998547,
				"z": 2.379432956,
				"element": "N" 
			},
			{
				"x": -1.0047944609,
				"y": 1.036772894,
				"z": 1.3213072162,
				"element": "C" 
			},
			{
				"x": -1.0779072192,
				"y": 2.5225790584,
				"z": 1.4969787407,
				"element": "C" 
			},
			{
				"x": -0.9646015113,
				"y": 0.3020514074,
				"z": 0.1042233516,
				"element": "C" 
			},
			{
				"x": -0.9624162582,
				"y": 0.8164466176,
				"z": -1.3026742901,
				"element": "C" 
			},
			{
				"x": 0.3555037085,
				"y": 1.2535716046,
				"z": -1.7756892069,
				"element": "N" 
			},
			{
				"x": 1.3312261716,
				"y": 0.4926265865,
				"z": -2.3360211703,
				"element": "C" 
			},
			{
				"x": 2.4122554775,
				"y": 1.3351910326,
				"z": -2.5156032769,
				"element": "C" 
			},
			{
				"x": 4.0771792372,
				"y": 0.8891262447,
				"z": -3.277397067,
				"element": "Br" 
			},
			{
				"x": 1.9988464102,
				"y": 2.5895713662,
				"z": -2.0253075593,
				"element": "C" 
			},
			{
				"x": 0.7466272698,
				"y": 2.5309968625,
				"z": -1.5723058609,
				"element": "N" 
			},
			{
				"x": -0.910032048,
				"y": -1.0160508509,
				"z": 0.5245380361,
				"element": "C" 
			},
			{
				"x": -0.8425913105,
				"y": -2.4710480378,
				"z": -0.4113545088,
				"element": "Cl" 
			},
			{
				"x": -1.7445192493,
				"y": -2.8238186355,
				"z": 2.6272796736,
				"element": "H" 
			},
			{
				"x": -0.8833162646,
				"y": -1.7770523934,
				"z": 3.7876993576,
				"element": "H" 
			},
			{
				"x": 0.0362018282,
				"y": -2.7609736106,
				"z": 2.61701786,
				"element": "H" 
			},
			{
				"x": -2.053664187,
				"y": 2.9127725115,
				"z": 1.182541754,
				"element": "H" 
			},
			{
				"x": -0.3162767485,
				"y": 3.0255583938,
				"z": 0.8944111932,
				"element": "H" 
			},
			{
				"x": -0.9354837886,
				"y": 2.7749555984,
				"z": 2.5499399374,
				"element": "H" 
			},
			{
				"x": -1.3199965955,
				"y": 0.0468151296,
				"z": -1.9922625778,
				"element": "H" 
			},
			{
				"x": -1.6148478561,
				"y": 1.6869599857,
				"z": -1.3998737161,
				"element": "H" 
			},
			{
				"x": 1.1965092152,
				"y": -0.5538538712,
				"z": -2.5623249676,
				"element": "H" 
			},
			{
				"x": 2.5548940364,
				"y": 3.5156645979,
				"z": -1.9954678325,
				"element": "H" 
			}
		],
		 "valence_orbital": [ 
			{
				"type": "occ",
				"energy": -0.27983,
				"method": "rhf"
			},
			{
				"type": "occ",
				"energy": -0.26247,
				"method": "rhf"
			},
			{
				"type": "occ",
				"energy": -0.24908,
				"method": "rhf"
			},
			{
				"type": "occ",
				"energy": -0.24672,
				"method": "rhf"
			},
			{
				"type": "occ",
				"energy": -0.23262,
				"method": "rhf"
			},
			{
				"type": "unocc",
				"energy": 8e-05,
				"method": "rhf"
			},
			{
				"type": "unocc",
				"energy": 0.01157,
				"method": "rhf"
			},
			{
				"type": "unocc",
				"energy": 0.01876,
				"method": "rhf"
			},
			{
				"type": "unocc",
				"energy": 0.02107,
				"method": "rhf"
			},
			{
				"type": "unocc",
				"energy": 0.04753,
				"method": "rhf"
			}
		],
		"cosmo_sigma_profile": { 
			"-0.025": 0.0,
			"-0.024": 0.0,
			"-0.023": 0.0,
			"-0.022": 0.0,
			"-0.021": 0.0,
			"-0.02": 0.0,
			"-0.019": 0.0,
			"-0.018": 0.0,
			"-0.017": 0.0,
			"-0.016": 0.0,
			"-0.015": 0.0,
			"-0.014": 0.0,
			"-0.013": 0.0,
			"-0.012": 0.0,
			"-0.011": 0.0,
			"-0.01": 0.0997863508225,
			"-0.009": 1.09951157003,
			"-0.008": 3.52347116869,
			"-0.007": 9.32598510112,
			"-0.006": 12.9240301598,
			"-0.005": 17.7384057569,
			"-0.004": 22.7333273677,
			"-0.003": 21.4166156507,
			"-0.002": 16.473609152,
			"-0.001": 20.8777569516,
			"0.0": 22.7371097989,
			"0.001": 21.9361251175,
			"0.002": 26.4530956698,
			"0.003": 27.497904818,
			"0.004": 19.6102257471,
			"0.005": 10.6335657265,
			"0.006": 3.69066602997,
			"0.007": 3.11567272575,
			"0.008": 2.94354676481,
			"0.009": 1.81307508296,
			"0.01": 2.71157780572,
			"0.011": 1.4698063933,
			"0.012": 1.37222400471,
			"0.013": 1.50470459834,
			"0.014": 1.52230763682,
			"0.015": 0.360386440462,
			"0.016": 0.0,
			"0.017": 0.0,
			"0.018": 0.0,
			"0.019": 0.0,
			"0.02": 0.0,
			"0.021": 0.0,
			"0.022": 0.0,
			"0.023": 0.0,
			"0.024": 0.0,
			"0.025": 0.0
		}
	}
}
