{
	 "smiles": "OC(C(O)=O)C1=CC=C(Br)C=C1", 
	 "Tm": 390.15, 
	 "num_atms": 19, 
	 "gaussian": { 
		 "optdone": 1, 
		 "sigma_profile": "yes", 
		 "theory": "DFT", 
		 "functional": "B3LYP", 
		 "basiset": "6-31G**", 
		 "properties": { 
			 "R2extent": 5039.7275, 
			 "electric_dipole_moment_norm": 2.38154744232, 
			 "electric_quadrupole_moment_norm": 11.4957811792, 
			 "total_energy": -3106.14840907, 
			 "HOMO_LUMO_gap": 0.21714, 
			 "cosmo_polarized_energy": -11.81, 
			 "cosmo_cavitation_energy": 26.0, 
			 "cosmo_dispersion_energy": -19.48, 
			 "cosmo_repulsion_energy": 1.56, 
			 "cosmo_total_nonelectrostatic_energy": 8.08, 
			 "SMD_solvation_energy": 4.42 
		},
		"coords": [
			{
				"x": 2.3866347728,
				"y": 0.4482066623,
				"z": 0.7551790258,
				"element": "O" 
			},
			{
				"x": 1.3604466487,
				"y": 1.4144562305,
				"z": 0.6949602121,
				"element": "C" 
			},
			{
				"x": 1.480226959,
				"y": 2.457632761,
				"z": 1.8092011087,
				"element": "C" 
			},
			{
				"x": 2.0690950419,
				"y": 1.938059925,
				"z": 2.9119960602,
				"element": "O" 
			},
			{
				"x": 1.0744103417,
				"y": 3.5950308334,
				"z": 1.7464028315,
				"element": "O" 
			},
			{
				"x": -0.0510532674,
				"y": 0.8091138313,
				"z": 0.7059064348,
				"element": "C" 
			},
			{
				"x": -1.1876933185,
				"y": 1.6277303814,
				"z": 0.7406862097,
				"element": "C" 
			},
			{
				"x": -2.4650610038,
				"y": 1.0700679917,
				"z": 0.7239468938,
				"element": "C" 
			},
			{
				"x": -2.6027667883,
				"y": -0.3166670232,
				"z": 0.6707494059,
				"element": "C" 
			},
			{
				"x": -4.3523089807,
				"y": -1.0876858637,
				"z": 0.650987733,
				"element": "Br" 
			},
			{
				"x": -1.4860810918,
				"y": -1.1472758811,
				"z": 0.628511187,
				"element": "C" 
			},
			{
				"x": -0.2118722652,
				"y": -0.5771484119,
				"z": 0.6443876834,
				"element": "C" 
			},
			{
				"x": 2.4735147579,
				"y": 0.1703466567,
				"z": 1.6782287954,
				"element": "H" 
			},
			{
				"x": 1.5042661371,
				"y": 1.9599212558,
				"z": -0.2441075544,
				"element": "H" 
			},
			{
				"x": 2.0838630868,
				"y": 2.6408029222,
				"z": 3.5831786832,
				"element": "H" 
			},
			{
				"x": -1.0760436845,
				"y": 2.7066827042,
				"z": 0.7854562523,
				"element": "H" 
			},
			{
				"x": -3.3431923293,
				"y": 1.7050967685,
				"z": 0.7523933559,
				"element": "H" 
			},
			{
				"x": -1.6072054772,
				"y": -2.2235602702,
				"z": 0.5805387776,
				"element": "H" 
			},
			{
				"x": 0.6665204608,
				"y": -1.2108114739,
				"z": 0.5935969042,
				"element": "H" 
			}
		],
		 "valence_orbital": [ 
			{
				"type": "occ",
				"energy": -0.30897,
				"method": "rhf"
			},
			{
				"type": "occ",
				"energy": -0.28804,
				"method": "rhf"
			},
			{
				"type": "occ",
				"energy": -0.27821,
				"method": "rhf"
			},
			{
				"type": "occ",
				"energy": -0.26622,
				"method": "rhf"
			},
			{
				"type": "occ",
				"energy": -0.24226,
				"method": "rhf"
			},
			{
				"type": "unocc",
				"energy": -0.02512,
				"method": "rhf"
			},
			{
				"type": "unocc",
				"energy": -0.01887,
				"method": "rhf"
			},
			{
				"type": "unocc",
				"energy": -0.00147,
				"method": "rhf"
			},
			{
				"type": "unocc",
				"energy": 0.00697,
				"method": "rhf"
			},
			{
				"type": "unocc",
				"energy": 0.05038,
				"method": "rhf"
			}
		],
		"cosmo_sigma_profile": { 
			"-0.025": 0.0,
			"-0.024": 0.0,
			"-0.023": 0.0,
			"-0.022": 0.0,
			"-0.021": 0.0,
			"-0.02": 0.000152781491531,
			"-0.019": 0.674315196862,
			"-0.018": 0.937516862441,
			"-0.017": 1.07491156669,
			"-0.016": 0.974237096161,
			"-0.015": 0.687573000229,
			"-0.014": 0.572017531286,
			"-0.013": 1.42693601794,
			"-0.012": 2.22843776492,
			"-0.011": 1.51089837042,
			"-0.01": 0.838394151667,
			"-0.009": 0.920458917858,
			"-0.008": 3.38596293483,
			"-0.007": 7.79208177752,
			"-0.006": 8.07495623545,
			"-0.005": 11.3324021632,
			"-0.004": 11.9838640218,
			"-0.003": 10.9147680371,
			"-0.002": 11.8902211518,
			"-0.001": 11.2630273538,
			"0.0": 12.5691947238,
			"0.001": 16.469733442,
			"0.002": 18.9538246909,
			"0.003": 23.8333751985,
			"0.004": 18.2050621905,
			"0.005": 9.82556980842,
			"0.006": 2.42553982615,
			"0.007": 2.38485164145,
			"0.008": 2.26872880485,
			"0.009": 2.96628809214,
			"0.01": 3.94868213456,
			"0.011": 5.00047049494,
			"0.012": 2.70774814892,
			"0.013": 0.639162884286,
			"0.014": 0.0,
			"0.015": 0.0,
			"0.016": 0.0,
			"0.017": 0.0,
			"0.018": 0.0,
			"0.019": 0.0,
			"0.02": 0.0,
			"0.021": 0.0,
			"0.022": 0.0,
			"0.023": 0.0,
			"0.024": 0.0,
			"0.025": 0.0
		}
	}
}
