{
	 "smiles": "OC1=CC=C(S)C=C1", 
	 "Tm": 307.15, 
	 "num_atms": 14, 
	 "gaussian": { 
		 "optdone": 1, 
		 "sigma_profile": "yes", 
		 "theory": "DFT", 
		 "functional": "B3LYP", 
		 "basiset": "6-31G**", 
		 "properties": { 
			 "R2extent": 1362.1439, 
			 "electric_dipole_moment_norm": 2.36430816308, 
			 "electric_quadrupole_moment_norm": 8.93727357699, 
			 "total_energy": -705.656049039, 
			 "HOMO_LUMO_gap": 0.21802, 
			 "cosmo_polarized_energy": -9.39, 
			 "cosmo_cavitation_energy": 19.73, 
			 "cosmo_dispersion_energy": -15.36, 
			 "cosmo_repulsion_energy": 1.23, 
			 "cosmo_total_nonelectrostatic_energy": 5.6, 
			 "SMD_solvation_energy": 3.38 
		},
		"coords": [
			{
				"x": -3.1051132131,
				"y": -1.1672254454,
				"z": 0.4662298323,
				"element": "O" 
			},
			{
				"x": -1.9133641627,
				"y": -0.6534491897,
				"z": 0.0463292823,
				"element": "C" 
			},
			{
				"x": -1.7417943925,
				"y": -0.0715346953,
				"z": -1.2143742745,
				"element": "C" 
			},
			{
				"x": -0.496482582,
				"y": 0.4370916079,
				"z": -1.5825257628,
				"element": "C" 
			},
			{
				"x": 0.5869953346,
				"y": 0.3740740215,
				"z": -0.7002951739,
				"element": "C" 
			},
			{
				"x": 2.2054598834,
				"y": 0.980181946,
				"z": -1.2075665893,
				"element": "S" 
			},
			{
				"x": 0.4079005023,
				"y": -0.2237086171,
				"z": 0.5554651837,
				"element": "C" 
			},
			{
				"x": -0.8320864264,
				"y": -0.7286851334,
				"z": 0.9328869447,
				"element": "C" 
			},
			{
				"x": -3.7630085786,
				"y": -1.059699006,
				"z": -0.2329671515,
				"element": "H" 
			},
			{
				"x": -2.578338772,
				"y": -0.0160129205,
				"z": -1.9079834309,
				"element": "H" 
			},
			{
				"x": -0.3655047333,
				"y": 0.8862730427,
				"z": -2.5616121454,
				"element": "H" 
			},
			{
				"x": 2.1277864353,
				"y": 2.2108721376,
				"z": -0.6551782287,
				"element": "H" 
			},
			{
				"x": 1.2482327572,
				"y": -0.293035568,
				"z": 1.2387207301,
				"element": "H" 
			},
			{
				"x": -0.9806820522,
				"y": -1.1893421803,
				"z": 1.9038707841,
				"element": "H" 
			}
		],
		 "valence_orbital": [ 
			{
				"type": "occ",
				"energy": -0.34653,
				"method": "rhf"
			},
			{
				"type": "occ",
				"energy": -0.32487,
				"method": "rhf"
			},
			{
				"type": "occ",
				"energy": -0.26025,
				"method": "rhf"
			},
			{
				"type": "occ",
				"energy": -0.24389,
				"method": "rhf"
			},
			{
				"type": "occ",
				"energy": -0.22799,
				"method": "rhf"
			},
			{
				"type": "unocc",
				"energy": -0.00997,
				"method": "rhf"
			},
			{
				"type": "unocc",
				"energy": -0.00631,
				"method": "rhf"
			},
			{
				"type": "unocc",
				"energy": 0.04028,
				"method": "rhf"
			},
			{
				"type": "unocc",
				"energy": 0.06361,
				"method": "rhf"
			},
			{
				"type": "unocc",
				"energy": 0.07111,
				"method": "rhf"
			}
		],
		"cosmo_sigma_profile": { 
			"-0.025": 0.0,
			"-0.024": 0.0,
			"-0.023": 0.0,
			"-0.022": 0.0,
			"-0.021": 0.0,
			"-0.02": 0.0,
			"-0.019": 0.0,
			"-0.018": 0.663553120556,
			"-0.017": 1.22100082193,
			"-0.016": 0.965375951665,
			"-0.015": 1.11313112702,
			"-0.014": 1.21130409782,
			"-0.013": 0.968985869256,
			"-0.012": 0.559787494594,
			"-0.011": 0.65063511519,
			"-0.01": 1.84010000101,
			"-0.009": 3.10542878407,
			"-0.008": 3.06441684162,
			"-0.007": 3.54228739869,
			"-0.006": 7.612168518,
			"-0.005": 9.42208453191,
			"-0.004": 8.0972223591,
			"-0.003": 6.40252866464,
			"-0.002": 6.92473867691,
			"-0.001": 8.37250496029,
			"0.0": 8.66642838654,
			"0.001": 11.0610472649,
			"0.002": 11.800934195,
			"0.003": 14.5632963448,
			"0.004": 15.2551410972,
			"0.005": 11.9322346622,
			"0.006": 4.66042902906,
			"0.007": 4.20797149827,
			"0.008": 3.05685072885,
			"0.009": 4.01504528438,
			"0.01": 2.73838700313,
			"0.011": 1.84505398048,
			"0.012": 0.244751488936,
			"0.013": 0.0,
			"0.014": 0.0,
			"0.015": 0.0,
			"0.016": 0.0,
			"0.017": 0.0,
			"0.018": 0.0,
			"0.019": 0.0,
			"0.02": 0.0,
			"0.021": 0.0,
			"0.022": 0.0,
			"0.023": 0.0,
			"0.024": 0.0,
			"0.025": 0.0
		}
	}
}
