{
	 "smiles": "COC1=C(C=CC(=C1)C(C)=O)S(C)(=O)=O", 
	 "Tm": 398.15, 
	 "num_atms": 27, 
	 "gaussian": { 
		 "optdone": 1, 
		 "sigma_profile": "yes", 
		 "theory": "DFT", 
		 "functional": "B3LYP", 
		 "basiset": "6-31G**", 
		 "properties": { 
			 "R2extent": 4115.8702, 
			 "electric_dipole_moment_norm": 5.02641610096, 
			 "electric_quadrupole_moment_norm": 15.9234045744, 
			 "total_energy": -1087.30182183, 
			 "HOMO_LUMO_gap": 0.18262, 
			 "cosmo_polarized_energy": -17.47, 
			 "cosmo_cavitation_energy": 31.9, 
			 "cosmo_dispersion_energy": -23.16, 
			 "cosmo_repulsion_energy": 1.76, 
			 "cosmo_total_nonelectrostatic_energy": 10.5, 
			 "SMD_solvation_energy": 6.85 
		},
		"coords": [
			{
				"x": -1.9189596517,
				"y": 1.1866539539,
				"z": 1.4758804759,
				"element": "C" 
			},
			{
				"x": -1.5982312146,
				"y": 0.0134271158,
				"z": 0.7059910582,
				"element": "O" 
			},
			{
				"x": -0.6042241413,
				"y": 0.1701335006,
				"z": -0.2265885907,
				"element": "C" 
			},
			{
				"x": 0.6797589973,
				"y": -0.3424406272,
				"z": 0.0113232625,
				"element": "C" 
			},
			{
				"x": 1.6738844194,
				"y": -0.2571622186,
				"z": -0.9672249425,
				"element": "C" 
			},
			{
				"x": 1.3927382339,
				"y": 0.3497696197,
				"z": -2.1859833279,
				"element": "C" 
			},
			{
				"x": 0.1137379065,
				"y": 0.867783997,
				"z": -2.4402129866,
				"element": "C" 
			},
			{
				"x": -0.8796377709,
				"y": 0.7705745583,
				"z": -1.4574008576,
				"element": "C" 
			},
			{
				"x": -0.1390697624,
				"y": 1.5027768796,
				"z": -3.7823445612,
				"element": "C" 
			},
			{
				"x": -1.5147525923,
				"y": 2.0711943421,
				"z": -4.0788409104,
				"element": "C" 
			},
			{
				"x": 0.75353988,
				"y": 1.5559984962,
				"z": -4.6122822944,
				"element": "O" 
			},
			{
				"x": 1.1188440538,
				"y": -1.0619932472,
				"z": 1.6103113929,
				"element": "S" 
			},
			{
				"x": 0.0401808013,
				"y": -2.4999699955,
				"z": 1.7574108336,
				"element": "C" 
			},
			{
				"x": 0.756099795,
				"y": -0.104404537,
				"z": 2.6685188243,
				"element": "O" 
			},
			{
				"x": 2.5049734205,
				"y": -1.54199399,
				"z": 1.4947564385,
				"element": "O" 
			},
			{
				"x": -2.1868731912,
				"y": 2.0229363975,
				"z": 0.8196202249,
				"element": "H" 
			},
			{
				"x": -1.0755469829,
				"y": 1.4578829641,
				"z": 2.1163335634,
				"element": "H" 
			},
			{
				"x": -2.7801031248,
				"y": 0.9171802396,
				"z": 2.0889866924,
				"element": "H" 
			},
			{
				"x": 2.6549469826,
				"y": -0.6652840038,
				"z": -0.7487870456,
				"element": "H" 
			},
			{
				"x": 2.1460884278,
				"y": 0.4319059443,
				"z": -2.9613069162,
				"element": "H" 
			},
			{
				"x": -1.8845284226,
				"y": 1.1403592272,
				"z": -1.6301963436,
				"element": "H" 
			},
			{
				"x": -2.2836749529,
				"y": 1.2932829674,
				"z": -4.0139203668,
				"element": "H" 
			},
			{
				"x": -1.7801241659,
				"y": 2.8542999727,
				"z": -3.3599829076,
				"element": "H" 
			},
			{
				"x": -1.5091515204,
				"y": 2.4905108701,
				"z": -5.0850483284,
				"element": "H" 
			},
			{
				"x": -0.9941758417,
				"y": -2.1630481465,
				"z": 1.6945583255,
				"element": "H" 
			},
			{
				"x": 0.2524987109,
				"y": -2.937428252,
				"z": 2.7351877365,
				"element": "H" 
			},
			{
				"x": 0.2857617066,
				"y": -3.2060460279,
				"z": 0.9629415508,
				"element": "H" 
			}
		],
		 "valence_orbital": [ 
			{
				"type": "occ",
				"energy": -0.29916,
				"method": "rhf"
			},
			{
				"type": "occ",
				"energy": -0.29319,
				"method": "rhf"
			},
			{
				"type": "occ",
				"energy": -0.28106,
				"method": "rhf"
			},
			{
				"type": "occ",
				"energy": -0.26545,
				"method": "rhf"
			},
			{
				"type": "occ",
				"energy": -0.26215,
				"method": "rhf"
			},
			{
				"type": "unocc",
				"energy": -0.07953,
				"method": "rhf"
			},
			{
				"type": "unocc",
				"energy": -0.02818,
				"method": "rhf"
			},
			{
				"type": "unocc",
				"energy": 0.00876,
				"method": "rhf"
			},
			{
				"type": "unocc",
				"energy": 0.05489,
				"method": "rhf"
			},
			{
				"type": "unocc",
				"energy": 0.07326,
				"method": "rhf"
			}
		],
		"cosmo_sigma_profile": { 
			"-0.025": 0.0,
			"-0.024": 0.0,
			"-0.023": 0.0,
			"-0.022": 0.0,
			"-0.021": 0.0,
			"-0.02": 0.0,
			"-0.019": 0.0,
			"-0.018": 0.0,
			"-0.017": 0.0,
			"-0.016": 0.0,
			"-0.015": 0.0,
			"-0.014": 0.0,
			"-0.013": 0.0,
			"-0.012": 0.0,
			"-0.011": 0.0,
			"-0.01": 0.0889924075117,
			"-0.009": 2.65763826172,
			"-0.008": 5.86387927391,
			"-0.007": 11.6430457493,
			"-0.006": 19.8888703615,
			"-0.005": 19.414249646,
			"-0.004": 22.3062297594,
			"-0.003": 24.5275486791,
			"-0.002": 17.7228292571,
			"-0.001": 18.2789629773,
			"0.0": 17.6753354627,
			"0.001": 17.0541972921,
			"0.002": 10.6111783329,
			"0.003": 5.88180065612,
			"0.004": 4.80723684011,
			"0.005": 5.83370367164,
			"0.006": 5.44921441858,
			"0.007": 3.0335681593,
			"0.008": 6.03152658217,
			"0.009": 6.19527658052,
			"0.01": 7.48096792948,
			"0.011": 11.0163318148,
			"0.012": 9.49875239997,
			"0.013": 0.951137853792,
			"0.014": 0.0,
			"0.015": 0.0,
			"0.016": 0.0,
			"0.017": 0.0,
			"0.018": 0.0,
			"0.019": 0.0,
			"0.02": 0.0,
			"0.021": 0.0,
			"0.022": 0.0,
			"0.023": 0.0,
			"0.024": 0.0,
			"0.025": 0.0
		}
	}
}
