{
	 "smiles": "CN1N(C(=O)C(NC(C)=O)=C1C)C1=CC=CC=C1", 
	 "Tm": 474.65, 
	 "num_atms": 33, 
	 "gaussian": { 
		 "optdone": 1, 
		 "sigma_profile": "yes", 
		 "theory": "DFT", 
		 "functional": "B3LYP", 
		 "basiset": "6-31G**", 
		 "properties": { 
			 "R2extent": 5785.5618, 
			 "electric_dipole_moment_norm": 7.44569876439, 
			 "electric_quadrupole_moment_norm": 26.9885973833, 
			 "total_energy": -819.119869927, 
			 "HOMO_LUMO_gap": 0.1814, 
			 "cosmo_polarized_energy": -20.24, 
			 "cosmo_cavitation_energy": 36.36, 
			 "cosmo_dispersion_energy": -25.19, 
			 "cosmo_repulsion_energy": 1.96, 
			 "cosmo_total_nonelectrostatic_energy": 13.13, 
			 "SMD_solvation_energy": 7.81 
		},
		"coords": [
			{
				"x": 1.2182016508,
				"y": -0.4946349376,
				"z": -1.7494161997,
				"element": "C" 
			},
			{
				"x": 0.6335015832,
				"y": -0.5186636706,
				"z": -0.3995185304,
				"element": "N" 
			},
			{
				"x": -0.7294288843,
				"y": -0.8894142995,
				"z": -0.3765609039,
				"element": "N" 
			},
			{
				"x": -0.9722812047,
				"y": -1.7998544675,
				"z": 0.6786216362,
				"element": "C" 
			},
			{
				"x": -2.0746916348,
				"y": -2.2249059918,
				"z": 1.0001217702,
				"element": "O" 
			},
			{
				"x": 0.3496735163,
				"y": -2.0260946284,
				"z": 1.2692401004,
				"element": "C" 
			},
			{
				"x": 0.621698011,
				"y": -2.9033641029,
				"z": 2.3314527425,
				"element": "N" 
			},
			{
				"x": 0.0183445394,
				"y": -2.9319394861,
				"z": 3.5850962783,
				"element": "C" 
			},
			{
				"x": -0.8569151642,
				"y": -1.7515538839,
				"z": 3.9470294564,
				"element": "C" 
			},
			{
				"x": 0.2281562439,
				"y": -3.8730453762,
				"z": 4.3334468062,
				"element": "O" 
			},
			{
				"x": 1.2615762105,
				"y": -1.2789469154,
				"z": 0.5828191291,
				"element": "C" 
			},
			{
				"x": 2.742053255,
				"y": -1.2305466237,
				"z": 0.7666265982,
				"element": "C" 
			},
			{
				"x": -1.6997902834,
				"y": -0.0036090003,
				"z": -0.9148449306,
				"element": "C" 
			},
			{
				"x": -1.4157289055,
				"y": 1.3586690781,
				"z": -1.0835606296,
				"element": "C" 
			},
			{
				"x": -2.3821567961,
				"y": 2.2036513389,
				"z": -1.6291123263,
				"element": "C" 
			},
			{
				"x": -3.6356172231,
				"y": 1.706809982,
				"z": -1.9883281791,
				"element": "C" 
			},
			{
				"x": -3.9166557268,
				"y": 0.3516806773,
				"z": -1.8003383113,
				"element": "C" 
			},
			{
				"x": -2.9556607588,
				"y": -0.5110162306,
				"z": -1.2764324349,
				"element": "C" 
			},
			{
				"x": 2.2453576071,
				"y": -0.1346667795,
				"z": -1.6750020369,
				"element": "H" 
			},
			{
				"x": 0.6520386498,
				"y": 0.2006144904,
				"z": -2.3697319215,
				"element": "H" 
			},
			{
				"x": 1.2054847189,
				"y": -1.4884695038,
				"z": -2.2149895877,
				"element": "H" 
			},
			{
				"x": 1.1373252378,
				"y": -3.7536595978,
				"z": 2.1369848375,
				"element": "H" 
			},
			{
				"x": -1.092195665,
				"y": -1.8161697607,
				"z": 5.0090408813,
				"element": "H" 
			},
			{
				"x": -1.7784030456,
				"y": -1.7862853328,
				"z": 3.3580611281,
				"element": "H" 
			},
			{
				"x": -0.358619228,
				"y": -0.8007162757,
				"z": 3.7328206741,
				"element": "H" 
			},
			{
				"x": 3.1108561938,
				"y": -0.2006820256,
				"z": 0.7359672669,
				"element": "H" 
			},
			{
				"x": 2.9934003128,
				"y": -1.6640553858,
				"z": 1.7371268525,
				"element": "H" 
			},
			{
				"x": 3.2739589827,
				"y": -1.8004830723,
				"z": -0.0049346291,
				"element": "H" 
			},
			{
				"x": -0.4540932722,
				"y": 1.7490882222,
				"z": -0.7690684603,
				"element": "H" 
			},
			{
				"x": -2.154487649,
				"y": 3.257800036,
				"z": -1.7590505318,
				"element": "H" 
			},
			{
				"x": -4.3871647861,
				"y": 2.369020665,
				"z": -2.4072109499,
				"element": "H" 
			},
			{
				"x": -4.8908040098,
				"y": -0.0444703689,
				"z": -2.0717383222,
				"element": "H" 
			},
			{
				"x": -3.1697324757,
				"y": -1.5606867721,
				"z": -1.1243172728,
				"element": "H" 
			}
		],
		 "valence_orbital": [ 
			{
				"type": "occ",
				"energy": -0.25818,
				"method": "rhf"
			},
			{
				"type": "occ",
				"energy": -0.24908,
				"method": "rhf"
			},
			{
				"type": "occ",
				"energy": -0.2411,
				"method": "rhf"
			},
			{
				"type": "occ",
				"energy": -0.23545,
				"method": "rhf"
			},
			{
				"type": "occ",
				"energy": -0.21616,
				"method": "rhf"
			},
			{
				"type": "unocc",
				"energy": -0.03476,
				"method": "rhf"
			},
			{
				"type": "unocc",
				"energy": -0.00779,
				"method": "rhf"
			},
			{
				"type": "unocc",
				"energy": -0.00034,
				"method": "rhf"
			},
			{
				"type": "unocc",
				"energy": 0.0352,
				"method": "rhf"
			},
			{
				"type": "unocc",
				"energy": 0.07121,
				"method": "rhf"
			}
		],
		"cosmo_sigma_profile": { 
			"-0.025": 0.0,
			"-0.024": 0.0,
			"-0.023": 0.0,
			"-0.022": 0.0,
			"-0.021": 0.0,
			"-0.02": 0.0,
			"-0.019": 0.0,
			"-0.018": 0.0,
			"-0.017": 0.0,
			"-0.016": 0.0,
			"-0.015": 0.0,
			"-0.014": 0.475294815151,
			"-0.013": 1.10105831175,
			"-0.012": 0.661375811908,
			"-0.011": 0.89769429611,
			"-0.01": 0.941142882005,
			"-0.009": 0.765934790164,
			"-0.008": 1.12445462674,
			"-0.007": 3.50486334797,
			"-0.006": 17.8945135444,
			"-0.005": 27.6345720577,
			"-0.004": 29.5853518445,
			"-0.003": 29.3034892485,
			"-0.002": 25.1668094692,
			"-0.001": 25.4200050233,
			"0.0": 18.5842197566,
			"0.001": 13.6581142304,
			"0.002": 14.7856169738,
			"0.003": 11.7233587004,
			"0.004": 12.1892634148,
			"0.005": 13.5357315773,
			"0.006": 4.66517772357,
			"0.007": 3.26380885158,
			"0.008": 3.47871397674,
			"0.009": 2.68687027309,
			"0.01": 3.12016874048,
			"0.011": 3.34115794899,
			"0.012": 4.40510136469,
			"0.013": 8.32188390599,
			"0.014": 5.62188182962,
			"0.015": 0.798487123517,
			"0.016": 0.0,
			"0.017": 0.0,
			"0.018": 0.0,
			"0.019": 0.0,
			"0.02": 0.0,
			"0.021": 0.0,
			"0.022": 0.0,
			"0.023": 0.0,
			"0.024": 0.0,
			"0.025": 0.0
		}
	}
}
