{
	 "smiles": "CNC(=O)C1=CC(C=CC(O)=O)=CN=C1", 
	 "Tm": 527.15, 
	 "num_atms": 25, 
	 "gaussian": { 
		 "optdone": 1, 
		 "sigma_profile": "yes", 
		 "theory": "DFT", 
		 "functional": "B3LYP", 
		 "basiset": "6-31G**", 
		 "properties": { 
			 "R2extent": 5095.8576, 
			 "electric_dipole_moment_norm": 4.63056095306, 
			 "electric_quadrupole_moment_norm": 12.3046312931, 
			 "total_energy": -722.276782759, 
			 "HOMO_LUMO_gap": 0.16893, 
			 "cosmo_polarized_energy": -21.27, 
			 "cosmo_cavitation_energy": 31.1, 
			 "cosmo_dispersion_energy": -22.37, 
			 "cosmo_repulsion_energy": 1.76, 
			 "cosmo_total_nonelectrostatic_energy": 10.49, 
			 "SMD_solvation_energy": 5.7 
		},
		"coords": [
			{
				"x": 1.8819158103,
				"y": 4.4333012821,
				"z": 0.6593122162,
				"element": "C" 
			},
			{
				"x": 1.7415243435,
				"y": 2.9871079793,
				"z": 0.6068988959,
				"element": "N" 
			},
			{
				"x": 2.399400964,
				"y": 2.2381391264,
				"z": -0.3312821572,
				"element": "C" 
			},
			{
				"x": 3.0993005766,
				"y": 2.730388279,
				"z": -1.2103816154,
				"element": "O" 
			},
			{
				"x": 2.2093906406,
				"y": 0.7486217072,
				"z": -0.2330160667,
				"element": "C" 
			},
			{
				"x": 1.0987588166,
				"y": 0.1339818647,
				"z": 0.3401153444,
				"element": "C" 
			},
			{
				"x": 1.0142147025,
				"y": -1.2686324818,
				"z": 0.3619337843,
				"element": "C" 
			},
			{
				"x": -0.1060881058,
				"y": -2.0165130873,
				"z": 0.9276670028,
				"element": "C" 
			},
			{
				"x": -1.2259834614,
				"y": -1.5186441419,
				"z": 1.4814034716,
				"element": "C" 
			},
			{
				"x": -2.2579210941,
				"y": -2.4348056119,
				"z": 2.00659487,
				"element": "C" 
			},
			{
				"x": -3.3105996979,
				"y": -1.749879794,
				"z": 2.5228513433,
				"element": "O" 
			},
			{
				"x": -2.2095195804,
				"y": -3.6498536452,
				"z": 1.9979699621,
				"element": "O" 
			},
			{
				"x": 2.0867857227,
				"y": -1.9768498023,
				"z": -0.2091948417,
				"element": "C" 
			},
			{
				"x": 3.1543975806,
				"y": -1.4079407941,
				"z": -0.7757986702,
				"element": "N" 
			},
			{
				"x": 3.2026461133,
				"y": -0.0739671464,
				"z": -0.7921079786,
				"element": "C" 
			},
			{
				"x": 2.2164084499,
				"y": 4.7700900846,
				"z": -0.3218207799,
				"element": "H" 
			},
			{
				"x": 0.9207970903,
				"y": 4.8979653021,
				"z": 0.8979174479,
				"element": "H" 
			},
			{
				"x": 2.6229801389,
				"y": 4.7470993072,
				"z": 1.4047785783,
				"element": "H" 
			},
			{
				"x": 1.3655198848,
				"y": 2.5173826919,
				"z": 1.4162511323,
				"element": "H" 
			},
			{
				"x": 0.2859112767,
				"y": 0.731803338,
				"z": 0.7422624041,
				"element": "H" 
			},
			{
				"x": -0.0227610853,
				"y": -3.1018988106,
				"z": 0.8951129529,
				"element": "H" 
			},
			{
				"x": -1.4282967029,
				"y": -0.4559570447,
				"z": 1.5667646576,
				"element": "H" 
			},
			{
				"x": -3.9364152398,
				"y": -2.42163848,
				"z": 2.8408753028,
				"element": "H" 
			},
			{
				"x": 2.0658261402,
				"y": -3.0662097953,
				"z": -0.2101569502,
				"element": "H" 
			},
			{
				"x": 4.0624067159,
				"y": 0.3906096727,
				"z": -1.2670503067,
				"element": "H" 
			}
		],
		 "valence_orbital": [ 
			{
				"type": "occ",
				"energy": -0.28286,
				"method": "rhf"
			},
			{
				"type": "occ",
				"energy": -0.27665,
				"method": "rhf"
			},
			{
				"type": "occ",
				"energy": -0.26609,
				"method": "rhf"
			},
			{
				"type": "occ",
				"energy": -0.25929,
				"method": "rhf"
			},
			{
				"type": "occ",
				"energy": -0.25313,
				"method": "rhf"
			},
			{
				"type": "unocc",
				"energy": -0.0842,
				"method": "rhf"
			},
			{
				"type": "unocc",
				"energy": -0.05578,
				"method": "rhf"
			},
			{
				"type": "unocc",
				"energy": -0.00745,
				"method": "rhf"
			},
			{
				"type": "unocc",
				"energy": 0.04485,
				"method": "rhf"
			},
			{
				"type": "unocc",
				"energy": 0.06324,
				"method": "rhf"
			}
		],
		"cosmo_sigma_profile": { 
			"-0.025": 0.0,
			"-0.024": 0.0,
			"-0.023": 0.0,
			"-0.022": 0.0,
			"-0.021": 0.0,
			"-0.02": 0.0,
			"-0.019": 0.0,
			"-0.018": 0.654743652293,
			"-0.017": 1.05640793112,
			"-0.016": 0.546164912277,
			"-0.015": 1.38634593906,
			"-0.014": 2.35397923554,
			"-0.013": 1.8508468631,
			"-0.012": 2.78218706105,
			"-0.011": 2.38876518742,
			"-0.01": 3.48741514564,
			"-0.009": 3.91893731733,
			"-0.008": 6.97763853198,
			"-0.007": 6.43697470122,
			"-0.006": 7.11238764384,
			"-0.005": 13.0457970017,
			"-0.004": 13.3337864217,
			"-0.003": 15.4044073893,
			"-0.002": 22.2808675752,
			"-0.001": 22.7866222259,
			"0.0": 24.881612314,
			"0.001": 14.9371872974,
			"0.002": 10.7338904963,
			"0.003": 8.07658221332,
			"0.004": 6.40596105145,
			"0.005": 5.98923347816,
			"0.006": 5.3089540789,
			"0.007": 5.79988463266,
			"0.008": 4.64081298135,
			"0.009": 5.42888757977,
			"0.01": 4.12519742813,
			"0.011": 6.50557309548,
			"0.012": 7.58270638242,
			"0.013": 6.25503820109,
			"0.014": 2.92913612849,
			"0.015": 0.666685270927,
			"0.016": 0.436905365449,
			"0.017": 0.0,
			"0.018": 0.0,
			"0.019": 0.0,
			"0.02": 0.0,
			"0.021": 0.0,
			"0.022": 0.0,
			"0.023": 0.0,
			"0.024": 0.0,
			"0.025": 0.0
		}
	}
}
