{
	 "smiles": "C(SC1=CC=CC=C1)SC1=CC=CC=C1", 
	 "Tm": 310.15, 
	 "num_atms": 27, 
	 "gaussian": { 
		 "optdone": 1, 
		 "sigma_profile": "yes", 
		 "theory": "DFT", 
		 "functional": "B3LYP", 
		 "basiset": "6-31G**", 
		 "properties": { 
			 "R2extent": 5451.912, 
			 "electric_dipole_moment_norm": 2.80616980954, 
			 "electric_quadrupole_moment_norm": 10.2722833942, 
			 "total_energy": -1298.98212542, 
			 "HOMO_LUMO_gap": 0.19843, 
			 "cosmo_polarized_energy": -8.55, 
			 "cosmo_cavitation_energy": 34.63, 
			 "cosmo_dispersion_energy": -24.77, 
			 "cosmo_repulsion_energy": 1.88, 
			 "cosmo_total_nonelectrostatic_energy": 11.74, 
			 "SMD_solvation_energy": 4.97 
		},
		"coords": [
			{
				"x": 0.1337079066,
				"y": -1.6426406044,
				"z": -0.9229439809,
				"element": "C" 
			},
			{
				"x": 0.9194850288,
				"y": -1.1474700411,
				"z": 0.6789645043,
				"element": "S" 
			},
			{
				"x": -0.5241574489,
				"y": -0.5188061732,
				"z": 1.5475195043,
				"element": "C" 
			},
			{
				"x": -0.9370389809,
				"y": 0.8087764015,
				"z": 1.3647546942,
				"element": "C" 
			},
			{
				"x": -2.0474047761,
				"y": 1.2983895603,
				"z": 2.0536838096,
				"element": "C" 
			},
			{
				"x": -2.7461301513,
				"y": 0.4710584204,
				"z": 2.9359223737,
				"element": "C" 
			},
			{
				"x": -2.3329385386,
				"y": -0.8486986286,
				"z": 3.1280277786,
				"element": "C" 
			},
			{
				"x": -1.2265992861,
				"y": -1.3445107117,
				"z": 2.4358016581,
				"element": "C" 
			},
			{
				"x": 1.3690940038,
				"y": -2.0746010569,
				"z": -2.1988905357,
				"element": "S" 
			},
			{
				"x": 1.9018716486,
				"y": -0.4487326023,
				"z": -2.750891979,
				"element": "C" 
			},
			{
				"x": 1.2017216728,
				"y": 0.2049219761,
				"z": -3.7740767978,
				"element": "C" 
			},
			{
				"x": 1.6317892468,
				"y": 1.4520202467,
				"z": -4.2293353276,
				"element": "C" 
			},
			{
				"x": 2.7655151607,
				"y": 2.0477984535,
				"z": -3.6723042694,
				"element": "C" 
			},
			{
				"x": 3.4698926258,
				"y": 1.394377896,
				"z": -2.6593679933,
				"element": "C" 
			},
			{
				"x": 3.0425797602,
				"y": 0.1477819764,
				"z": -2.1985818976,
				"element": "C" 
			},
			{
				"x": -0.5061158328,
				"y": -0.8331048939,
				"z": -1.279534651,
				"element": "H" 
			},
			{
				"x": -0.4704106628,
				"y": -2.541140625,
				"z": -0.7768459034,
				"element": "H" 
			},
			{
				"x": -0.3812684743,
				"y": 1.4515495186,
				"z": 0.6888354898,
				"element": "H" 
			},
			{
				"x": -2.3619665292,
				"y": 2.3278592539,
				"z": 1.9072647619,
				"element": "H" 
			},
			{
				"x": -3.6071894765,
				"y": 0.855371249,
				"z": 3.4751818909,
				"element": "H" 
			},
			{
				"x": -2.871247015,
				"y": -1.4936511065,
				"z": 3.816793176,
				"element": "H" 
			},
			{
				"x": -0.8991795319,
				"y": -2.3690117143,
				"z": 2.5828570948,
				"element": "H" 
			},
			{
				"x": 0.3284952408,
				"y": -0.2688141568,
				"z": -4.2120505859,
				"element": "H" 
			},
			{
				"x": 1.0854365376,
				"y": 1.9542489668,
				"z": -5.022641952,
				"element": "H" 
			},
			{
				"x": 3.1016096279,
				"y": 3.0167193395,
				"z": -4.0303733236,
				"element": "H" 
			},
			{
				"x": 4.3534999517,
				"y": 1.8539027729,
				"z": -2.225888674,
				"element": "H" 
			},
			{
				"x": 3.5854482921,
				"y": -0.3645937168,
				"z": -1.4116788648,
				"element": "H" 
			}
		],
		 "valence_orbital": [ 
			{
				"type": "occ",
				"energy": -0.25742,
				"method": "rhf"
			},
			{
				"type": "occ",
				"energy": -0.25691,
				"method": "rhf"
			},
			{
				"type": "occ",
				"energy": -0.25236,
				"method": "rhf"
			},
			{
				"type": "occ",
				"energy": -0.23171,
				"method": "rhf"
			},
			{
				"type": "occ",
				"energy": -0.22612,
				"method": "rhf"
			},
			{
				"type": "unocc",
				"energy": -0.02769,
				"method": "rhf"
			},
			{
				"type": "unocc",
				"energy": -0.01565,
				"method": "rhf"
			},
			{
				"type": "unocc",
				"energy": -0.008,
				"method": "rhf"
			},
			{
				"type": "unocc",
				"energy": -0.00727,
				"method": "rhf"
			},
			{
				"type": "unocc",
				"energy": 0.04577,
				"method": "rhf"
			}
		],
		"cosmo_sigma_profile": { 
			"-0.025": 0.0,
			"-0.024": 0.0,
			"-0.023": 0.0,
			"-0.022": 0.0,
			"-0.021": 0.0,
			"-0.02": 0.0,
			"-0.019": 0.0,
			"-0.018": 0.0,
			"-0.017": 0.0,
			"-0.016": 0.0,
			"-0.015": 0.0,
			"-0.014": 0.0,
			"-0.013": 0.0,
			"-0.012": 0.0,
			"-0.011": 0.0,
			"-0.01": 0.0,
			"-0.009": 0.0,
			"-0.008": 0.349003503257,
			"-0.007": 3.15865802592,
			"-0.006": 19.3844158764,
			"-0.005": 25.3623621968,
			"-0.004": 26.97824276,
			"-0.003": 20.6684915092,
			"-0.002": 19.0988571319,
			"-0.001": 14.6367332653,
			"0.0": 18.3562154449,
			"0.001": 19.7662528089,
			"0.002": 22.7220447153,
			"0.003": 22.7100597612,
			"0.004": 24.1186136656,
			"0.005": 24.1662492276,
			"0.006": 6.73705718632,
			"0.007": 5.58899335113,
			"0.008": 4.12988619418,
			"0.009": 2.41480842402,
			"0.01": 0.501089765139,
			"0.011": 0.0,
			"0.012": 0.0,
			"0.013": 0.0,
			"0.014": 0.0,
			"0.015": 0.0,
			"0.016": 0.0,
			"0.017": 0.0,
			"0.018": 0.0,
			"0.019": 0.0,
			"0.02": 0.0,
			"0.021": 0.0,
			"0.022": 0.0,
			"0.023": 0.0,
			"0.024": 0.0,
			"0.025": 0.0
		}
	}
}
