{
	 "smiles": "CC1N(CCNC1=O)C(=O)C1=CC=CO1", 
	 "Tm": 423.15, 
	 "num_atms": 27, 
	 "gaussian": { 
		 "optdone": 1, 
		 "sigma_profile": "yes", 
		 "theory": "DFT", 
		 "functional": "B3LYP", 
		 "basiset": "6-31G**", 
		 "properties": { 
			 "R2extent": 3457.4669, 
			 "electric_dipole_moment_norm": 6.83417223664, 
			 "electric_quadrupole_moment_norm": 14.9849422885, 
			 "total_energy": -723.450506974, 
			 "HOMO_LUMO_gap": 0.1917, 
			 "cosmo_polarized_energy": -22.58, 
			 "cosmo_cavitation_energy": 29.95, 
			 "cosmo_dispersion_energy": -21.69, 
			 "cosmo_repulsion_energy": 1.7, 
			 "cosmo_total_nonelectrostatic_energy": 9.96, 
			 "SMD_solvation_energy": 5.47 
		},
		"coords": [
			{
				"x": -1.0801454102,
				"y": -2.1699225929,
				"z": -0.5901042093,
				"element": "C" 
			},
			{
				"x": -1.6532333036,
				"y": -0.7603851382,
				"z": -0.4895819305,
				"element": "C" 
			},
			{
				"x": -0.7767639798,
				"y": 0.2579928673,
				"z": 0.1361715998,
				"element": "N" 
			},
			{
				"x": -1.5252531338,
				"y": 1.4545658602,
				"z": 0.5424241516,
				"element": "C" 
			},
			{
				"x": -2.6735102432,
				"y": 1.7744751797,
				"z": -0.4649611043,
				"element": "C" 
			},
			{
				"x": -2.4339009506,
				"y": 1.1398703254,
				"z": -1.7532776954,
				"element": "N" 
			},
			{
				"x": -2.1552681166,
				"y": -0.2071162121,
				"z": -1.8350322172,
				"element": "C" 
			},
			{
				"x": -2.2859721613,
				"y": -0.862028808,
				"z": -2.8538105281,
				"element": "O" 
			},
			{
				"x": 0.5246847569,
				"y": 0.3858184913,
				"z": -0.3521621493,
				"element": "C" 
			},
			{
				"x": 0.9527036408,
				"y": -0.2407754613,
				"z": -1.3112432452,
				"element": "O" 
			},
			{
				"x": 1.4237410853,
				"y": 1.262893547,
				"z": 0.4380197421,
				"element": "C" 
			},
			{
				"x": 1.4759209454,
				"y": 1.6573470778,
				"z": 1.7517044936,
				"element": "C" 
			},
			{
				"x": 2.6927928381,
				"y": 2.385688951,
				"z": 1.912117435,
				"element": "C" 
			},
			{
				"x": 3.2922296809,
				"y": 2.3801301989,
				"z": 0.6855902432,
				"element": "C" 
			},
			{
				"x": 2.5423485172,
				"y": 1.7017441633,
				"z": -0.2142968639,
				"element": "O" 
			},
			{
				"x": -0.7105123803,
				"y": -2.4924133636,
				"z": 0.3875886512,
				"element": "H" 
			},
			{
				"x": -0.273470131,
				"y": -2.219865546,
				"z": -1.3173728255,
				"element": "H" 
			},
			{
				"x": -1.8773325628,
				"y": -2.8479851078,
				"z": -0.9043468212,
				"element": "H" 
			},
			{
				"x": -2.5296220708,
				"y": -0.8103399343,
				"z": 0.1748256426,
				"element": "H" 
			},
			{
				"x": -1.9615664439,
				"y": 1.3145059963,
				"z": 1.539673469,
				"element": "H" 
			},
			{
				"x": -0.8321550385,
				"y": 2.292372674,
				"z": 0.5988362763,
				"element": "H" 
			},
			{
				"x": -3.6342466566,
				"y": 1.4519008626,
				"z": -0.0368475759,
				"element": "H" 
			},
			{
				"x": -2.7410764899,
				"y": 2.8555353164,
				"z": -0.615136583,
				"element": "H" 
			},
			{
				"x": -2.8500923281,
				"y": 1.5420385737,
				"z": -2.583018442,
				"element": "H" 
			},
			{
				"x": 0.7454156672,
				"y": 1.429967054,
				"z": 2.5143377746,
				"element": "H" 
			},
			{
				"x": 3.0719014852,
				"y": 2.8431273367,
				"z": 2.8144420432,
				"element": "H" 
			},
			{
				"x": 4.2125827838,
				"y": 2.7999576888,
				"z": 0.3092606686,
				"element": "H" 
			}
		],
		 "valence_orbital": [ 
			{
				"type": "occ",
				"energy": -0.27676,
				"method": "rhf"
			},
			{
				"type": "occ",
				"energy": -0.25694,
				"method": "rhf"
			},
			{
				"type": "occ",
				"energy": -0.25448,
				"method": "rhf"
			},
			{
				"type": "occ",
				"energy": -0.2383,
				"method": "rhf"
			},
			{
				"type": "occ",
				"energy": -0.22804,
				"method": "rhf"
			},
			{
				"type": "unocc",
				"energy": -0.03634,
				"method": "rhf"
			},
			{
				"type": "unocc",
				"energy": 0.02509,
				"method": "rhf"
			},
			{
				"type": "unocc",
				"energy": 0.03683,
				"method": "rhf"
			},
			{
				"type": "unocc",
				"energy": 0.0626,
				"method": "rhf"
			},
			{
				"type": "unocc",
				"energy": 0.08245,
				"method": "rhf"
			}
		],
		"cosmo_sigma_profile": { 
			"-0.025": 0.0,
			"-0.024": 0.0,
			"-0.023": 0.0,
			"-0.022": 0.0,
			"-0.021": 0.0,
			"-0.02": 0.0,
			"-0.019": 0.0,
			"-0.018": 0.0,
			"-0.017": 0.0,
			"-0.016": 0.0,
			"-0.015": 0.0,
			"-0.014": 0.616470934944,
			"-0.013": 1.40136934053,
			"-0.012": 1.29484826854,
			"-0.011": 0.873814131675,
			"-0.01": 1.74089982593,
			"-0.009": 2.89433679999,
			"-0.008": 6.3779098077,
			"-0.007": 12.5159974581,
			"-0.006": 16.8105978455,
			"-0.005": 19.4967895817,
			"-0.004": 19.7677194044,
			"-0.003": 17.1376188014,
			"-0.002": 13.2065863523,
			"-0.001": 11.6105684857,
			"0.0": 14.435531063,
			"0.001": 16.1679026123,
			"0.002": 12.224848549,
			"0.003": 10.3996563661,
			"0.004": 7.40761168915,
			"0.005": 6.08823832633,
			"0.006": 4.00409997843,
			"0.007": 3.85003531189,
			"0.008": 3.87726489708,
			"0.009": 4.10222280195,
			"0.01": 4.72739345583,
			"0.011": 4.02017407481,
			"0.012": 6.02050000817,
			"0.013": 8.53847574196,
			"0.014": 5.19355953064,
			"0.015": 0.167993126876,
			"0.016": 0.0,
			"0.017": 0.0,
			"0.018": 0.0,
			"0.019": 0.0,
			"0.02": 0.0,
			"0.021": 0.0,
			"0.022": 0.0,
			"0.023": 0.0,
			"0.024": 0.0,
			"0.025": 0.0
		}
	}
}
