{
	 "smiles": "CC1=C(C)C=C2C=C(OC2=C1)C(O)=O", 
	 "Tm": 543.15, 
	 "num_atms": 24, 
	 "gaussian": { 
		 "optdone": 1, 
		 "sigma_profile": "yes", 
		 "theory": "DFT", 
		 "functional": "B3LYP", 
		 "basiset": "6-31G**", 
		 "properties": { 
			 "R2extent": 3593.2115, 
			 "electric_dipole_moment_norm": 6.05166633168, 
			 "electric_quadrupole_moment_norm": 19.1770217761, 
			 "total_energy": -650.875042522, 
			 "HOMO_LUMO_gap": 0.17325, 
			 "cosmo_polarized_energy": -16.44, 
			 "cosmo_cavitation_energy": 28.42, 
			 "cosmo_dispersion_energy": -20.93, 
			 "cosmo_repulsion_energy": 1.63, 
			 "cosmo_total_nonelectrostatic_energy": 9.11, 
			 "SMD_solvation_energy": 6.43 
		},
		"coords": [
			{
				"x": 0.5113569878,
				"y": -1.5432871934,
				"z": 3.3961223343,
				"element": "C" 
			},
			{
				"x": 0.6432415864,
				"y": -0.8207426054,
				"z": 2.0768233356,
				"element": "C" 
			},
			{
				"x": 1.9023277386,
				"y": -0.7874660799,
				"z": 1.4003310987,
				"element": "C" 
			},
			{
				"x": 3.1028273258,
				"y": -1.4770798095,
				"z": 2.0059143416,
				"element": "C" 
			},
			{
				"x": 2.0290072575,
				"y": -0.1222877911,
				"z": 0.1846322941,
				"element": "C" 
			},
			{
				"x": 0.9118016596,
				"y": 0.5176779851,
				"z": -0.3780262316,
				"element": "C" 
			},
			{
				"x": 0.6419971454,
				"y": 1.2781980645,
				"z": -1.5650846317,
				"element": "C" 
			},
			{
				"x": -0.6816995803,
				"y": 1.6221923525,
				"z": -1.5107148143,
				"element": "C" 
			},
			{
				"x": -1.278675378,
				"y": 1.1433597434,
				"z": -0.3715465164,
				"element": "O" 
			},
			{
				"x": -0.3104820878,
				"y": 0.4693225129,
				"z": 0.3129404178,
				"element": "C" 
			},
			{
				"x": -0.4717671583,
				"y": -0.1876152703,
				"z": 1.5277324123,
				"element": "C" 
			},
			{
				"x": -1.5425022161,
				"y": 2.4313152799,
				"z": -2.4001820383,
				"element": "C" 
			},
			{
				"x": -1.0223513935,
				"y": 2.6775992981,
				"z": -3.634780622,
				"element": "O" 
			},
			{
				"x": -2.6193821954,
				"y": 2.8697200711,
				"z": -2.0808590559,
				"element": "O" 
			},
			{
				"x": 1.1852809072,
				"y": -1.1265626655,
				"z": 4.1542309879,
				"element": "H" 
			},
			{
				"x": -0.5084577402,
				"y": -1.4750116093,
				"z": 3.7823892207,
				"element": "H" 
			},
			{
				"x": 0.7633353096,
				"y": -2.6064111652,
				"z": 3.3015245181,
				"element": "H" 
			},
			{
				"x": 3.9839942719,
				"y": -1.3600077313,
				"z": 1.3699963648,
				"element": "H" 
			},
			{
				"x": 2.9298572528,
				"y": -2.5515575756,
				"z": 2.1408030744,
				"element": "H" 
			},
			{
				"x": 3.3493652773,
				"y": -1.0711313416,
				"z": 2.9943541079,
				"element": "H" 
			},
			{
				"x": 2.9890469897,
				"y": -0.1018404214,
				"z": -0.3237012943,
				"element": "H" 
			},
			{
				"x": 1.3543636638,
				"y": 1.5542478189,
				"z": -2.33135518,
				"element": "H" 
			},
			{
				"x": -1.4337757111,
				"y": -0.2018189769,
				"z": 2.0290014472,
				"element": "H" 
			},
			{
				"x": -0.2383099128,
				"y": 2.1313871101,
				"z": -3.7861455707,
				"element": "H" 
			}
		],
		 "valence_orbital": [ 
			{
				"type": "occ",
				"energy": -0.31776,
				"method": "rhf"
			},
			{
				"type": "occ",
				"energy": -0.3048,
				"method": "rhf"
			},
			{
				"type": "occ",
				"energy": -0.27687,
				"method": "rhf"
			},
			{
				"type": "occ",
				"energy": -0.24276,
				"method": "rhf"
			},
			{
				"type": "occ",
				"energy": -0.23275,
				"method": "rhf"
			},
			{
				"type": "unocc",
				"energy": -0.0595,
				"method": "rhf"
			},
			{
				"type": "unocc",
				"energy": 0.00017,
				"method": "rhf"
			},
			{
				"type": "unocc",
				"energy": 0.0125,
				"method": "rhf"
			},
			{
				"type": "unocc",
				"energy": 0.05514,
				"method": "rhf"
			},
			{
				"type": "unocc",
				"energy": 0.085,
				"method": "rhf"
			}
		],
		"cosmo_sigma_profile": { 
			"-0.025": 0.0,
			"-0.024": 0.0,
			"-0.023": 0.0,
			"-0.022": 0.0,
			"-0.021": 0.0,
			"-0.02": 0.0,
			"-0.019": 0.487325987067,
			"-0.018": 1.19396327262,
			"-0.017": 1.11255814143,
			"-0.016": 1.07073493745,
			"-0.015": 1.05098475952,
			"-0.014": 0.744802341301,
			"-0.013": 1.24568663969,
			"-0.012": 1.26444237208,
			"-0.011": 1.45102252877,
			"-0.01": 1.42190012531,
			"-0.009": 1.7548921572,
			"-0.008": 2.09056371901,
			"-0.007": 3.28144816348,
			"-0.006": 6.90326576292,
			"-0.005": 10.3046645554,
			"-0.004": 19.7830732028,
			"-0.003": 16.0105875985,
			"-0.002": 16.6429142178,
			"-0.001": 19.6078803602,
			"0.0": 24.3987886833,
			"0.001": 17.8695222429,
			"0.002": 14.0108751445,
			"0.003": 12.500133819,
			"0.004": 11.8183315791,
			"0.005": 4.89038545548,
			"0.006": 2.63460221615,
			"0.007": 3.13906050566,
			"0.008": 4.12602434577,
			"0.009": 4.56252054799,
			"0.01": 5.8127654784,
			"0.011": 6.57039109131,
			"0.012": 5.37364235656,
			"0.013": 1.2959990345,
			"0.014": 0.0,
			"0.015": 0.0,
			"0.016": 0.0,
			"0.017": 0.0,
			"0.018": 0.0,
			"0.019": 0.0,
			"0.02": 0.0,
			"0.021": 0.0,
			"0.022": 0.0,
			"0.023": 0.0,
			"0.024": 0.0,
			"0.025": 0.0
		}
	}
}
