{
	 "smiles": "CCCCCCCCCCCCCCCCS", 
	 "Tm": 293.15, 
	 "num_atms": 51, 
	 "gaussian": { 
		 "optdone": 1, 
		 "sigma_profile": "yes", 
		 "theory": "DFT", 
		 "functional": "B3LYP", 
		 "basiset": "6-31G**", 
		 "properties": { 
			 "R2extent": 8086.7608, 
			 "electric_dipole_moment_norm": 1.97274301672, 
			 "electric_quadrupole_moment_norm": 8.79126516435, 
			 "total_energy": -1028.41917274, 
			 "HOMO_LUMO_gap": 0.25724, 
			 "cosmo_polarized_energy": -4.85, 
			 "cosmo_cavitation_energy": 50.19, 
			 "cosmo_dispersion_energy": -31.74, 
			 "cosmo_repulsion_energy": 2.5, 
			 "cosmo_total_nonelectrostatic_energy": 20.94, 
			 "SMD_solvation_energy": 5.71 
		},
		"coords": [
			{
				"x": 2.3949430035,
				"y": 3.2948189336,
				"z": 1.2410056428,
				"element": "C" 
			},
			{
				"x": 0.9715120673,
				"y": 3.2985389193,
				"z": 1.8143869628,
				"element": "C" 
			},
			{
				"x": 0.8743069351,
				"y": 3.0981431247,
				"z": 3.3428270548,
				"element": "C" 
			},
			{
				"x": 0.7796353572,
				"y": 1.6533905386,
				"z": 3.8733837023,
				"element": "C" 
			},
			{
				"x": 2.0007481183,
				"y": 0.7326944224,
				"z": 3.6419619945,
				"element": "C" 
			},
			{
				"x": 1.938472281,
				"y": -0.1554599529,
				"z": 2.3840271202,
				"element": "C" 
			},
			{
				"x": 0.9528077513,
				"y": -1.3282679013,
				"z": 2.4954036812,
				"element": "C" 
			},
			{
				"x": 0.8981752921,
				"y": -2.1895777656,
				"z": 1.22577266,
				"element": "C" 
			},
			{
				"x": 0.0145280615,
				"y": -3.4445236297,
				"z": 1.3363120951,
				"element": "C" 
			},
			{
				"x": -1.4845281761,
				"y": -3.1930258403,
				"z": 1.5874678915,
				"element": "C" 
			},
			{
				"x": -2.2223017523,
				"y": -2.3863808149,
				"z": 0.5034951464,
				"element": "C" 
			},
			{
				"x": -2.2668357121,
				"y": -3.0754098916,
				"z": -0.8708939015,
				"element": "C" 
			},
			{
				"x": -3.1650836958,
				"y": -2.4015164056,
				"z": -1.9305686297,
				"element": "C" 
			},
			{
				"x": -2.5158424857,
				"y": -1.2936981223,
				"z": -2.784229214,
				"element": "C" 
			},
			{
				"x": -2.097189519,
				"y": 0.0122805609,
				"z": -2.0824866833,
				"element": "C" 
			},
			{
				"x": -3.2656768076,
				"y": 0.7751045483,
				"z": -1.453968689,
				"element": "C" 
			},
			{
				"x": -2.8172352586,
				"y": 2.4334200544,
				"z": -0.7827779659,
				"element": "S" 
			},
			{
				"x": 2.9113988502,
				"y": 2.3456197964,
				"z": 1.4078265193,
				"element": "H" 
			},
			{
				"x": 2.3832910518,
				"y": 3.4789025027,
				"z": 0.1612712946,
				"element": "H" 
			},
			{
				"x": 2.9992634984,
				"y": 4.0834650567,
				"z": 1.7039542736,
				"element": "H" 
			},
			{
				"x": 0.5111925689,
				"y": 4.2619441471,
				"z": 1.5615432845,
				"element": "H" 
			},
			{
				"x": 0.3623259061,
				"y": 2.5388695223,
				"z": 1.3047041516,
				"element": "H" 
			},
			{
				"x": 1.7256911428,
				"y": 3.6019964235,
				"z": 3.8228411676,
				"element": "H" 
			},
			{
				"x": -0.0196351732,
				"y": 3.6250731332,
				"z": 3.7007605781,
				"element": "H" 
			},
			{
				"x": -0.1215362093,
				"y": 1.1824391812,
				"z": 3.4570181712,
				"element": "H" 
			},
			{
				"x": 0.5960841122,
				"y": 1.7238332383,
				"z": 4.952940036,
				"element": "H" 
			},
			{
				"x": 2.9109208569,
				"y": 1.3449953391,
				"z": 3.6143966033,
				"element": "H" 
			},
			{
				"x": 2.1190206424,
				"y": 0.0713679121,
				"z": 4.5108168592,
				"element": "H" 
			},
			{
				"x": 1.6789725433,
				"y": 0.4499888048,
				"z": 1.5061680602,
				"element": "H" 
			},
			{
				"x": 2.9398721773,
				"y": -0.561062039,
				"z": 2.1844368985,
				"element": "H" 
			},
			{
				"x": -0.0496102867,
				"y": -0.9472856463,
				"z": 2.7286335362,
				"element": "H" 
			},
			{
				"x": 1.2415774267,
				"y": -1.9594188687,
				"z": 3.3486340585,
				"element": "H" 
			},
			{
				"x": 1.9183762283,
				"y": -2.5084641371,
				"z": 0.9719986026,
				"element": "H" 
			},
			{
				"x": 0.5654464561,
				"y": -1.5692927057,
				"z": 0.3818148156,
				"element": "H" 
			},
			{
				"x": 0.3977474941,
				"y": -4.0721408753,
				"z": 2.152506289,
				"element": "H" 
			},
			{
				"x": 0.1348390104,
				"y": -4.0407238247,
				"z": 0.4229478413,
				"element": "H" 
			},
			{
				"x": -1.61122981,
				"y": -2.6838371833,
				"z": 2.5510986913,
				"element": "H" 
			},
			{
				"x": -1.982154618,
				"y": -4.1663843689,
				"z": 1.698065393,
				"element": "H" 
			},
			{
				"x": -3.2543101957,
				"y": -2.2223782823,
				"z": 0.8431468873,
				"element": "H" 
			},
			{
				"x": -1.7742370142,
				"y": -1.389306132,
				"z": 0.4187322563,
				"element": "H" 
			},
			{
				"x": -2.6301967035,
				"y": -4.1003695244,
				"z": -0.7139554863,
				"element": "H" 
			},
			{
				"x": -1.251592255,
				"y": -3.1799129877,
				"z": -1.2766783425,
				"element": "H" 
			},
			{
				"x": -4.0786264555,
				"y": -2.0266108728,
				"z": -1.449336635,
				"element": "H" 
			},
			{
				"x": -3.5035535211,
				"y": -3.1756914655,
				"z": -2.6307009146,
				"element": "H" 
			},
			{
				"x": -3.2117767456,
				"y": -1.0371486494,
				"z": -3.5951282936,
				"element": "H" 
			},
			{
				"x": -1.6277837959,
				"y": -1.7134243518,
				"z": -3.2758940969,
				"element": "H" 
			},
			{
				"x": -1.3402399735,
				"y": -0.1924383465,
				"z": -1.3158252911,
				"element": "H" 
			},
			{
				"x": -1.6121177895,
				"y": 0.6648382379,
				"z": -2.8175364935,
				"element": "H" 
			},
			{
				"x": -3.749677215,
				"y": 0.1989652798,
				"z": -0.6617724168,
				"element": "H" 
			},
			{
				"x": -4.0303002447,
				"y": 0.9922645936,
				"z": -2.2074868656,
				"element": "H" 
			},
			{
				"x": -1.9526774194,
				"y": 1.9997963145,
				"z": 0.157539699,
				"element": "H" 
			}
		],
		 "valence_orbital": [ 
			{
				"type": "occ",
				"energy": -0.30424,
				"method": "rhf"
			},
			{
				"type": "occ",
				"energy": -0.30237,
				"method": "rhf"
			},
			{
				"type": "occ",
				"energy": -0.29942,
				"method": "rhf"
			},
			{
				"type": "occ",
				"energy": -0.29737,
				"method": "rhf"
			},
			{
				"type": "occ",
				"energy": -0.23224,
				"method": "rhf"
			},
			{
				"type": "unocc",
				"energy": 0.025,
				"method": "rhf"
			},
			{
				"type": "unocc",
				"energy": 0.05371,
				"method": "rhf"
			},
			{
				"type": "unocc",
				"energy": 0.07131,
				"method": "rhf"
			},
			{
				"type": "unocc",
				"energy": 0.08724,
				"method": "rhf"
			},
			{
				"type": "unocc",
				"energy": 0.09293,
				"method": "rhf"
			}
		],
		"cosmo_sigma_profile": { 
			"-0.025": 0.0,
			"-0.024": 0.0,
			"-0.023": 0.0,
			"-0.022": 0.0,
			"-0.021": 0.0,
			"-0.02": 0.0,
			"-0.019": 0.0,
			"-0.018": 0.0,
			"-0.017": 0.0,
			"-0.016": 0.0,
			"-0.015": 0.0,
			"-0.014": 0.0,
			"-0.013": 0.0,
			"-0.012": 0.0,
			"-0.011": 0.0,
			"-0.01": 0.0,
			"-0.009": 0.0,
			"-0.008": 0.0,
			"-0.007": 0.666200358199,
			"-0.006": 3.02317605362,
			"-0.005": 5.72759068735,
			"-0.004": 7.40381538021,
			"-0.003": 14.7827622389,
			"-0.002": 50.694569376,
			"-0.001": 87.9927669609,
			"0.0": 88.7910560897,
			"0.001": 69.4323041572,
			"0.002": 30.5773623108,
			"0.003": 3.38247220981,
			"0.004": 3.62847450196,
			"0.005": 3.5382323609,
			"0.006": 4.16847007492,
			"0.007": 2.81974814439,
			"0.008": 2.40968134293,
			"0.009": 2.71747449677,
			"0.01": 2.2542578744,
			"0.011": 1.92842345802,
			"0.012": 0.37113268308,
			"0.013": 0.0,
			"0.014": 0.0,
			"0.015": 0.0,
			"0.016": 0.0,
			"0.017": 0.0,
			"0.018": 0.0,
			"0.019": 0.0,
			"0.02": 0.0,
			"0.021": 0.0,
			"0.022": 0.0,
			"0.023": 0.0,
			"0.024": 0.0,
			"0.025": 0.0
		}
	}
}
