{
	 "smiles": "NC1=CC(NC(=O)CN2CCCCCC2)=CC=C1", 
	 "Tm": 341.15, 
	 "num_atms": 39, 
	 "gaussian": { 
		 "optdone": 1, 
		 "sigma_profile": "yes", 
		 "theory": "DFT", 
		 "functional": "B3LYP", 
		 "basiset": "6-31G**", 
		 "properties": { 
			 "R2extent": 5962.029, 
			 "electric_dipole_moment_norm": 3.84643704875, 
			 "electric_quadrupole_moment_norm": 11.6324455318, 
			 "total_energy": -785.634863183, 
			 "HOMO_LUMO_gap": 0.19356, 
			 "cosmo_polarized_energy": -15.09, 
			 "cosmo_cavitation_energy": 38.79, 
			 "cosmo_dispersion_energy": -27.02, 
			 "cosmo_repulsion_energy": 2.08, 
			 "cosmo_total_nonelectrostatic_energy": 13.85, 
			 "SMD_solvation_energy": 5.61 
		},
		"coords": [
			{
				"x": -3.5451229524,
				"y": 0.929953285,
				"z": -0.7150573782,
				"element": "N" 
			},
			{
				"x": -2.7694921843,
				"y": 0.832575206,
				"z": -1.8702691664,
				"element": "C" 
			},
			{
				"x": -1.3733429145,
				"y": 0.7019319528,
				"z": -1.771129734,
				"element": "C" 
			},
			{
				"x": -0.5985668876,
				"y": 0.5556167948,
				"z": -2.9247926728,
				"element": "C" 
			},
			{
				"x": 0.8077260169,
				"y": 0.4053694169,
				"z": -2.8626652606,
				"element": "N" 
			},
			{
				"x": 1.7794097923,
				"y": 0.9823552686,
				"z": -2.0717720901,
				"element": "C" 
			},
			{
				"x": 2.952514214,
				"y": 0.6652419114,
				"z": -2.2335179414,
				"element": "O" 
			},
			{
				"x": 1.3839142344,
				"y": 2.0593346371,
				"z": -1.0561220154,
				"element": "C" 
			},
			{
				"x": 1.1184472933,
				"y": 1.5344610466,
				"z": 0.291124893,
				"element": "N" 
			},
			{
				"x": 0.6263887633,
				"y": 2.594992665,
				"z": 1.1888181181,
				"element": "C" 
			},
			{
				"x": -0.4725562001,
				"y": 2.098982337,
				"z": 2.1430754695,
				"element": "C" 
			},
			{
				"x": -0.0292117724,
				"y": 1.1517775692,
				"z": 3.2658379129,
				"element": "C" 
			},
			{
				"x": 0.8283642529,
				"y": -0.0419100184,
				"z": 2.8181625081,
				"element": "C" 
			},
			{
				"x": 2.2070826533,
				"y": 0.3907054852,
				"z": 2.2888843934,
				"element": "C" 
			},
			{
				"x": 2.2767729638,
				"y": 0.7779083153,
				"z": 0.8039854521,
				"element": "C" 
			},
			{
				"x": -1.2092096947,
				"y": 0.5000508896,
				"z": -4.1874668679,
				"element": "C" 
			},
			{
				"x": -2.5950237238,
				"y": 0.608782392,
				"z": -4.2752062606,
				"element": "C" 
			},
			{
				"x": -3.3773875133,
				"y": 0.7837448117,
				"z": -3.1365180262,
				"element": "C" 
			},
			{
				"x": -3.0700293083,
				"y": 1.2961817889,
				"z": 0.0979396858,
				"element": "H" 
			},
			{
				"x": -4.4599680795,
				"y": 1.3396758836,
				"z": -0.8410171667,
				"element": "H" 
			},
			{
				"x": -0.888883658,
				"y": 0.6839363017,
				"z": -0.7991913322,
				"element": "H" 
			},
			{
				"x": 1.2241922235,
				"y": -0.1804592772,
				"z": -3.5769090862,
				"element": "H" 
			},
			{
				"x": 2.2306106095,
				"y": 2.7675645035,
				"z": -1.064433398,
				"element": "H" 
			},
			{
				"x": 0.4892573055,
				"y": 2.5844066969,
				"z": -1.4022438903,
				"element": "H" 
			},
			{
				"x": 0.1908169174,
				"y": 3.3832584356,
				"z": 0.565819179,
				"element": "H" 
			},
			{
				"x": 1.4460398941,
				"y": 3.0756882668,
				"z": 1.7506818195,
				"element": "H" 
			},
			{
				"x": -1.231299837,
				"y": 1.5969637908,
				"z": 1.5283584826,
				"element": "H" 
			},
			{
				"x": -0.9602033562,
				"y": 2.9743681953,
				"z": 2.5930641814,
				"element": "H" 
			},
			{
				"x": 0.542733717,
				"y": 1.7230137355,
				"z": 4.0110474951,
				"element": "H" 
			},
			{
				"x": -0.9244085962,
				"y": 0.7881998904,
				"z": 3.7863734439,
				"element": "H" 
			},
			{
				"x": 0.9726133087,
				"y": -0.7013384072,
				"z": 3.682641916,
				"element": "H" 
			},
			{
				"x": 0.2978600622,
				"y": -0.6332850211,
				"z": 2.0611413757,
				"element": "H" 
			},
			{
				"x": 2.9312677451,
				"y": -0.420563944,
				"z": 2.4288223977,
				"element": "H" 
			},
			{
				"x": 2.5720589879,
				"y": 1.2180372804,
				"z": 2.9112140352,
				"element": "H" 
			},
			{
				"x": 2.3574232497,
				"y": -0.1325153944,
				"z": 0.203120166,
				"element": "H" 
			},
			{
				"x": 3.215737117,
				"y": 1.334585802,
				"z": 0.6321933062,
				"element": "H" 
			},
			{
				"x": -0.6015585103,
				"y": 0.3902041421,
				"z": -5.0805989095,
				"element": "H" 
			},
			{
				"x": -3.0736647652,
				"y": 0.5692254267,
				"z": -5.2496910709,
				"element": "H" 
			},
			{
				"x": -4.457601368,
				"y": 0.8691779379,
				"z": -3.2200039637,
				"element": "H" 
			}
		],
		 "valence_orbital": [ 
			{
				"type": "occ",
				"energy": -0.28007,
				"method": "rhf"
			},
			{
				"type": "occ",
				"energy": -0.24673,
				"method": "rhf"
			},
			{
				"type": "occ",
				"energy": -0.22438,
				"method": "rhf"
			},
			{
				"type": "occ",
				"energy": -0.21346,
				"method": "rhf"
			},
			{
				"type": "occ",
				"energy": -0.20146,
				"method": "rhf"
			},
			{
				"type": "unocc",
				"energy": -0.0079,
				"method": "rhf"
			},
			{
				"type": "unocc",
				"energy": 0.00952,
				"method": "rhf"
			},
			{
				"type": "unocc",
				"energy": 0.03473,
				"method": "rhf"
			},
			{
				"type": "unocc",
				"energy": 0.05627,
				"method": "rhf"
			},
			{
				"type": "unocc",
				"energy": 0.08589,
				"method": "rhf"
			}
		],
		"cosmo_sigma_profile": { 
			"-0.025": 0.0,
			"-0.024": 0.0,
			"-0.023": 0.0,
			"-0.022": 0.0,
			"-0.021": 0.0,
			"-0.02": 0.0,
			"-0.019": 0.0,
			"-0.018": 0.0,
			"-0.017": 0.0,
			"-0.016": 0.0,
			"-0.015": 0.0,
			"-0.014": 0.360878308084,
			"-0.013": 1.15072701341,
			"-0.012": 2.10286488175,
			"-0.011": 2.44349275893,
			"-0.01": 2.59888353032,
			"-0.009": 4.12812733493,
			"-0.008": 5.08086113427,
			"-0.007": 4.98641776004,
			"-0.006": 7.19447579148,
			"-0.005": 10.7686497865,
			"-0.004": 13.1438041952,
			"-0.003": 22.6949913652,
			"-0.002": 41.1923560529,
			"-0.001": 41.7958723449,
			"0.0": 35.2267753544,
			"0.001": 23.1856032192,
			"0.002": 13.4898671232,
			"0.003": 10.3684125088,
			"0.004": 9.36719078162,
			"0.005": 9.56539509008,
			"0.006": 12.48938432,
			"0.007": 7.49065245265,
			"0.008": 1.82154299593,
			"0.009": 2.72134111116,
			"0.01": 2.14376919699,
			"0.011": 2.1692788434,
			"0.012": 2.70861323443,
			"0.013": 4.44449575262,
			"0.014": 4.74167715146,
			"0.015": 0.631718717048,
			"0.016": 0.0,
			"0.017": 0.0,
			"0.018": 0.0,
			"0.019": 0.0,
			"0.02": 0.0,
			"0.021": 0.0,
			"0.022": 0.0,
			"0.023": 0.0,
			"0.024": 0.0,
			"0.025": 0.0
		}
	}
}
