{
	 "smiles": "CN(C)CC1=C(O)C=CC=N1", 
	 "Tm": 330.65, 
	 "num_atms": 23, 
	 "gaussian": { 
		 "optdone": 1, 
		 "sigma_profile": "yes", 
		 "theory": "DFT", 
		 "functional": "B3LYP", 
		 "basiset": "6-31G**", 
		 "properties": { 
			 "R2extent": 2110.1352, 
			 "electric_dipole_moment_norm": 1.3650882792, 
			 "electric_quadrupole_moment_norm": 8.09767708791, 
			 "total_energy": -496.786979328, 
			 "HOMO_LUMO_gap": 0.19376, 
			 "cosmo_polarized_energy": -11.13, 
			 "cosmo_cavitation_energy": 25.43, 
			 "cosmo_dispersion_energy": -18.6, 
			 "cosmo_repulsion_energy": 1.48, 
			 "cosmo_total_nonelectrostatic_energy": 8.31, 
			 "SMD_solvation_energy": 0.8 
		},
		"coords": [
			{
				"x": -0.4916995528,
				"y": -2.054655956,
				"z": -1.9869011081,
				"element": "C" 
			},
			{
				"x": -0.2944061922,
				"y": -0.86254211,
				"z": -1.1749218144,
				"element": "N" 
			},
			{
				"x": -0.1039071443,
				"y": 0.3188844566,
				"z": -2.000042558,
				"element": "C" 
			},
			{
				"x": 0.7764718346,
				"y": -1.0592512193,
				"z": -0.1990170662,
				"element": "C" 
			},
			{
				"x": 0.8420787518,
				"y": 0.0156888776,
				"z": 0.8697719471,
				"element": "C" 
			},
			{
				"x": 1.7321790924,
				"y": 1.1052366017,
				"z": 0.7982090086,
				"element": "C" 
			},
			{
				"x": 2.6001642989,
				"y": 1.3146408383,
				"z": -0.2342463963,
				"element": "O" 
			},
			{
				"x": 1.7402599563,
				"y": 2.0437994676,
				"z": 1.8349330579,
				"element": "C" 
			},
			{
				"x": 0.8652473661,
				"y": 1.8712721297,
				"z": 2.8992538118,
				"element": "C" 
			},
			{
				"x": 0.017155735,
				"y": 0.7602979579,
				"z": 2.893051053,
				"element": "C" 
			},
			{
				"x": 0.0098979879,
				"y": -0.1415603386,
				"z": 1.9103819224,
				"element": "N" 
			},
			{
				"x": -0.711870882,
				"y": -2.9112843949,
				"z": -1.3423983248,
				"element": "H" 
			},
			{
				"x": 0.3872598243,
				"y": -2.3125768187,
				"z": -2.6112926627,
				"element": "H" 
			},
			{
				"x": -1.3448795772,
				"y": -1.9058383624,
				"z": -2.6561825264,
				"element": "H" 
			},
			{
				"x": 0.810264357,
				"y": 0.2703793443,
				"z": -2.6304159957,
				"element": "H" 
			},
			{
				"x": -0.958292782,
				"y": 0.4387928957,
				"z": -2.6730137171,
				"element": "H" 
			},
			{
				"x": -0.0419507281,
				"y": 1.2143382057,
				"z": -1.3764750278,
				"element": "H" 
			},
			{
				"x": 0.5859259566,
				"y": -2.003370843,
				"z": 0.3186123862,
				"element": "H" 
			},
			{
				"x": 1.765805335,
				"y": -1.1771949906,
				"z": -0.700827207,
				"element": "H" 
			},
			{
				"x": 2.5141579868,
				"y": 0.6000677492,
				"z": -0.8792644871,
				"element": "H" 
			},
			{
				"x": 2.4279230632,
				"y": 2.8817115702,
				"z": 1.7802523277,
				"element": "H" 
			},
			{
				"x": 0.8425460278,
				"y": 2.5791907161,
				"z": 3.722073883,
				"element": "H" 
			},
			{
				"x": -0.6766307151,
				"y": 0.5868742229,
				"z": 3.7131594938,
				"element": "H" 
			}
		],
		 "valence_orbital": [ 
			{
				"type": "occ",
				"energy": -0.35386,
				"method": "rhf"
			},
			{
				"type": "occ",
				"energy": -0.27521,
				"method": "rhf"
			},
			{
				"type": "occ",
				"energy": -0.24928,
				"method": "rhf"
			},
			{
				"type": "occ",
				"energy": -0.23064,
				"method": "rhf"
			},
			{
				"type": "occ",
				"energy": -0.21638,
				"method": "rhf"
			},
			{
				"type": "unocc",
				"energy": -0.02262,
				"method": "rhf"
			},
			{
				"type": "unocc",
				"energy": 0.00355,
				"method": "rhf"
			},
			{
				"type": "unocc",
				"energy": 0.05435,
				"method": "rhf"
			},
			{
				"type": "unocc",
				"energy": 0.10693,
				"method": "rhf"
			},
			{
				"type": "unocc",
				"energy": 0.11012,
				"method": "rhf"
			}
		],
		"cosmo_sigma_profile": { 
			"-0.025": 0.0,
			"-0.024": 0.0,
			"-0.023": 0.0,
			"-0.022": 0.0,
			"-0.021": 0.0,
			"-0.02": 0.0,
			"-0.019": 0.0,
			"-0.018": 0.0,
			"-0.017": 0.0,
			"-0.016": 2.78960391447e-05,
			"-0.015": 0.536024499743,
			"-0.014": 1.03102725614,
			"-0.013": 1.10190834128,
			"-0.012": 0.64595230734,
			"-0.011": 1.09758226006,
			"-0.01": 1.22756781558,
			"-0.009": 1.16936346075,
			"-0.008": 1.19681303305,
			"-0.007": 3.86814647329,
			"-0.006": 7.16298891653,
			"-0.005": 9.95193544142,
			"-0.004": 17.7301900338,
			"-0.003": 17.0304965244,
			"-0.002": 21.7171910995,
			"-0.001": 23.3250867755,
			"0.0": 19.5689153733,
			"0.001": 9.71960689574,
			"0.002": 12.3793529803,
			"0.003": 12.0182165243,
			"0.004": 6.79080732498,
			"0.005": 3.5096142542,
			"0.006": 4.28929996897,
			"0.007": 1.99594031987,
			"0.008": 3.05991776451,
			"0.009": 3.66772933133,
			"0.01": 3.29790602056,
			"0.011": 2.70507815485,
			"0.012": 1.37371911595,
			"0.013": 1.23931032459,
			"0.014": 2.40155865506,
			"0.015": 1.63491356419,
			"0.016": 1.23731648211,
			"0.017": 0.490555996844,
			"0.018": 0.0,
			"0.019": 0.0,
			"0.02": 0.0,
			"0.021": 0.0,
			"0.022": 0.0,
			"0.023": 0.0,
			"0.024": 0.0,
			"0.025": 0.0
		}
	}
}
