{
	 "smiles": "COC1=CC=C(C=C1)C(=O)C1CC1", 
	 "Tm": 315.15, 
	 "num_atms": 25, 
	 "gaussian": { 
		 "optdone": 1, 
		 "sigma_profile": "yes", 
		 "theory": "DFT", 
		 "functional": "B3LYP", 
		 "basiset": "6-31G**", 
		 "properties": { 
			 "R2extent": 4072.2327, 
			 "electric_dipole_moment_norm": 2.74928635467, 
			 "electric_quadrupole_moment_norm": 20.1743118973, 
			 "total_energy": -576.814658529, 
			 "HOMO_LUMO_gap": 0.18346, 
			 "cosmo_polarized_energy": -10.09, 
			 "cosmo_cavitation_energy": 28.51, 
			 "cosmo_dispersion_energy": -21.02, 
			 "cosmo_repulsion_energy": 1.65, 
			 "cosmo_total_nonelectrostatic_energy": 9.15, 
			 "SMD_solvation_energy": 5.78 
		},
		"coords": [
			{
				"x": 0.5400113854,
				"y": 4.9596374353,
				"z": 3.4114819526,
				"element": "C" 
			},
			{
				"x": 0.2603005233,
				"y": 3.5888921349,
				"z": 3.661990616,
				"element": "O" 
			},
			{
				"x": 0.3718864538,
				"y": 2.7051903351,
				"z": 2.6353685404,
				"element": "C" 
			},
			{
				"x": 0.0824543999,
				"y": 1.3676572412,
				"z": 2.949231715,
				"element": "C" 
			},
			{
				"x": 0.1670699299,
				"y": 0.3879101526,
				"z": 1.9710251228,
				"element": "C" 
			},
			{
				"x": 0.5416260213,
				"y": 0.7094062391,
				"z": 0.6528860643,
				"element": "C" 
			},
			{
				"x": 0.8269780827,
				"y": 2.0512219764,
				"z": 0.3578752341,
				"element": "C" 
			},
			{
				"x": 0.7471857469,
				"y": 3.0457604294,
				"z": 1.3265006616,
				"element": "C" 
			},
			{
				"x": 0.6567262802,
				"y": -0.282306481,
				"z": -0.4581197129,
				"element": "C" 
			},
			{
				"x": 0.9893920518,
				"y": 0.0837978709,
				"z": -1.5837881834,
				"element": "O" 
			},
			{
				"x": 0.3675079773,
				"y": -1.728340058,
				"z": -0.2070674891,
				"element": "C" 
			},
			{
				"x": -0.2519779933,
				"y": -2.5117092744,
				"z": -1.3582042861,
				"element": "C" 
			},
			{
				"x": 1.1789487214,
				"y": -2.7375304835,
				"z": -1.010549755,
				"element": "C" 
			},
			{
				"x": -0.1403660122,
				"y": 5.3793737715,
				"z": 2.6602244352,
				"element": "H" 
			},
			{
				"x": 1.5759307955,
				"y": 5.1061119654,
				"z": 3.0814971077,
				"element": "H" 
			},
			{
				"x": 0.3888710346,
				"y": 5.4745024667,
				"z": 4.3611715691,
				"element": "H" 
			},
			{
				"x": -0.2057271181,
				"y": 1.1265010038,
				"z": 3.9670046082,
				"element": "H" 
			},
			{
				"x": -0.0633937293,
				"y": -0.634897965,
				"z": 2.247834599,
				"element": "H" 
			},
			{
				"x": 1.1151903371,
				"y": 2.2947515418,
				"z": -0.6592207717,
				"element": "H" 
			},
			{
				"x": 0.975305306,
				"y": 4.0709968184,
				"z": 1.0602762382,
				"element": "H" 
			},
			{
				"x": 0.0774696987,
				"y": -2.0283045127,
				"z": 0.7922946457,
				"element": "H" 
			},
			{
				"x": -0.4616197129,
				"y": -1.93557296,
				"z": -2.2533225388,
				"element": "H" 
			},
			{
				"x": -0.9844998803,
				"y": -3.2706944664,
				"z": -1.1019182611,
				"element": "H" 
			},
			{
				"x": 1.9251419728,
				"y": -2.3121391098,
				"z": -1.673381515,
				"element": "H" 
			},
			{
				"x": 1.4620877275,
				"y": -3.6568160717,
				"z": -0.5074905968,
				"element": "H" 
			}
		],
		 "valence_orbital": [ 
			{
				"type": "occ",
				"energy": -0.30348,
				"method": "rhf"
			},
			{
				"type": "occ",
				"energy": -0.28424,
				"method": "rhf"
			},
			{
				"type": "occ",
				"energy": -0.25877,
				"method": "rhf"
			},
			{
				"type": "occ",
				"energy": -0.24084,
				"method": "rhf"
			},
			{
				"type": "occ",
				"energy": -0.22675,
				"method": "rhf"
			},
			{
				"type": "unocc",
				"energy": -0.04329,
				"method": "rhf"
			},
			{
				"type": "unocc",
				"energy": -0.00659,
				"method": "rhf"
			},
			{
				"type": "unocc",
				"energy": 0.0518,
				"method": "rhf"
			},
			{
				"type": "unocc",
				"energy": 0.08509,
				"method": "rhf"
			},
			{
				"type": "unocc",
				"energy": 0.09418,
				"method": "rhf"
			}
		],
		"cosmo_sigma_profile": { 
			"-0.025": 0.0,
			"-0.024": 0.0,
			"-0.023": 0.0,
			"-0.022": 0.0,
			"-0.021": 0.0,
			"-0.02": 0.0,
			"-0.019": 0.0,
			"-0.018": 0.0,
			"-0.017": 0.0,
			"-0.016": 0.0,
			"-0.015": 0.0,
			"-0.014": 0.0,
			"-0.013": 0.0,
			"-0.012": 0.0,
			"-0.011": 0.0,
			"-0.01": 0.0,
			"-0.009": 0.584391608099,
			"-0.008": 1.42763788563,
			"-0.007": 4.77283746424,
			"-0.006": 12.8083569806,
			"-0.005": 20.5487789543,
			"-0.004": 23.1701921601,
			"-0.003": 19.0994789894,
			"-0.002": 13.6867581291,
			"-0.001": 15.1447881972,
			"0.0": 15.7797271091,
			"0.001": 17.1174638999,
			"0.002": 17.7025540294,
			"0.003": 20.0660841251,
			"0.004": 16.9326385362,
			"0.005": 5.41914056132,
			"0.006": 3.50998923117,
			"0.007": 2.11900978739,
			"0.008": 2.99259985557,
			"0.009": 3.30757318703,
			"0.01": 2.7377581913,
			"0.011": 1.64528624814,
			"0.012": 2.49392862515,
			"0.013": 3.59714738231,
			"0.014": 0.155219090159,
			"0.015": 0.0,
			"0.016": 0.0,
			"0.017": 0.0,
			"0.018": 0.0,
			"0.019": 0.0,
			"0.02": 0.0,
			"0.021": 0.0,
			"0.022": 0.0,
			"0.023": 0.0,
			"0.024": 0.0,
			"0.025": 0.0
		}
	}
}
