{
	 "smiles": "COC1=CC=C(CC(N)C(O)=O)C=C1", 
	 "Tm": 533.15, 
	 "num_atms": 27, 
	 "gaussian": { 
		 "optdone": 1, 
		 "sigma_profile": "yes", 
		 "theory": "DFT", 
		 "functional": "B3LYP", 
		 "basiset": "6-31G**", 
		 "properties": { 
			 "R2extent": 4051.5307, 
			 "electric_dipole_moment_norm": 6.24432015995, 
			 "electric_quadrupole_moment_norm": 16.831811295, 
			 "total_energy": -669.328899613, 
			 "HOMO_LUMO_gap": 0.21148, 
			 "cosmo_polarized_energy": -16.72, 
			 "cosmo_cavitation_energy": 29.91, 
			 "cosmo_dispersion_energy": -21.72, 
			 "cosmo_repulsion_energy": 1.73, 
			 "cosmo_total_nonelectrostatic_energy": 9.91, 
			 "SMD_solvation_energy": 6.3 
		},
		"coords": [
			{
				"x": -2.0687776968,
				"y": 1.8112225039,
				"z": -3.4815859774,
				"element": "C" 
			},
			{
				"x": -1.9245355569,
				"y": 1.7628503595,
				"z": -2.071670049,
				"element": "O" 
			},
			{
				"x": -0.9380067464,
				"y": 0.9775593883,
				"z": -1.5500576792,
				"element": "C" 
			},
			{
				"x": -0.8495161342,
				"y": 0.9592065832,
				"z": -0.1487806303,
				"element": "C" 
			},
			{
				"x": 0.1176611324,
				"y": 0.1911016687,
				"z": 0.4838976918,
				"element": "C" 
			},
			{
				"x": 1.028702018,
				"y": -0.5865477474,
				"z": -0.2566332832,
				"element": "C" 
			},
			{
				"x": 2.0997608028,
				"y": -1.4074121583,
				"z": 0.4302039066,
				"element": "C" 
			},
			{
				"x": 3.3559987104,
				"y": -0.595566219,
				"z": 0.8294404954,
				"element": "C" 
			},
			{
				"x": 3.9761858269,
				"y": 0.2033546654,
				"z": -0.2405620926,
				"element": "N" 
			},
			{
				"x": 3.0786987306,
				"y": 0.3281837404,
				"z": 2.0401834614,
				"element": "C" 
			},
			{
				"x": 3.7449891501,
				"y": 1.4867695011,
				"z": 1.9880294132,
				"element": "O" 
			},
			{
				"x": 2.3624837444,
				"y": 0.0116722265,
				"z": 2.9641299012,
				"element": "O" 
			},
			{
				"x": 0.9246104292,
				"y": -0.5574501914,
				"z": -1.6511160413,
				"element": "C" 
			},
			{
				"x": -0.044079786,
				"y": 0.212556459,
				"z": -2.3056121128,
				"element": "C" 
			},
			{
				"x": -2.2980353036,
				"y": 0.8225930776,
				"z": -3.9002822297,
				"element": "H" 
			},
			{
				"x": -2.90429598,
				"y": 2.4851832664,
				"z": -3.6768408875,
				"element": "H" 
			},
			{
				"x": -1.1671982483,
				"y": 2.2053613444,
				"z": -3.9686866177,
				"element": "H" 
			},
			{
				"x": -1.5553165116,
				"y": 1.5548034911,
				"z": 0.421092587,
				"element": "H" 
			},
			{
				"x": 0.1768905145,
				"y": 0.1884598941,
				"z": 1.5679488158,
				"element": "H" 
			},
			{
				"x": 1.70704415,
				"y": -1.859241979,
				"z": 1.3456059686,
				"element": "H" 
			},
			{
				"x": 2.4163925742,
				"y": -2.2235150822,
				"z": -0.2294381157,
				"element": "H" 
			},
			{
				"x": 4.1133242173,
				"y": -1.3034269305,
				"z": 1.1909617236,
				"element": "H" 
			},
			{
				"x": 4.6273671998,
				"y": -0.3488528413,
				"z": -0.789435462,
				"element": "H" 
			},
			{
				"x": 3.2575190474,
				"y": 0.5494105459,
				"z": -0.8748197726,
				"element": "H" 
			},
			{
				"x": 4.2023510834,
				"y": 1.464621412,
				"z": 1.1111601417,
				"element": "H" 
			},
			{
				"x": 1.5997027136,
				"y": -1.1646450498,
				"z": -2.250840599,
				"element": "H" 
			},
			{
				"x": -0.0937200812,
				"y": 0.1983480713,
				"z": -3.3879925563,
				"element": "H" 
			}
		],
		 "valence_orbital": [ 
			{
				"type": "occ",
				"energy": -0.29731,
				"method": "rhf"
			},
			{
				"type": "occ",
				"energy": -0.29228,
				"method": "rhf"
			},
			{
				"type": "occ",
				"energy": -0.25421,
				"method": "rhf"
			},
			{
				"type": "occ",
				"energy": -0.24956,
				"method": "rhf"
			},
			{
				"type": "occ",
				"energy": -0.21992,
				"method": "rhf"
			},
			{
				"type": "unocc",
				"energy": -0.00844,
				"method": "rhf"
			},
			{
				"type": "unocc",
				"energy": 0.00489,
				"method": "rhf"
			},
			{
				"type": "unocc",
				"energy": 0.0183,
				"method": "rhf"
			},
			{
				"type": "unocc",
				"energy": 0.07015,
				"method": "rhf"
			},
			{
				"type": "unocc",
				"energy": 0.09218,
				"method": "rhf"
			}
		],
		"cosmo_sigma_profile": { 
			"-0.025": 0.0,
			"-0.024": 0.0,
			"-0.023": 0.0,
			"-0.022": 0.0,
			"-0.021": 0.0,
			"-0.02": 0.0,
			"-0.019": 0.0,
			"-0.018": 0.0,
			"-0.017": 0.0,
			"-0.016": 0.0,
			"-0.015": 0.0,
			"-0.014": 0.0,
			"-0.013": 0.0,
			"-0.012": 0.942766035306,
			"-0.011": 1.92840328578,
			"-0.01": 1.66672526962,
			"-0.009": 2.66560219351,
			"-0.008": 4.13857203361,
			"-0.007": 7.45021245466,
			"-0.006": 12.0355181334,
			"-0.005": 24.836174796,
			"-0.004": 21.8988502791,
			"-0.003": 21.4999125037,
			"-0.002": 15.7533042762,
			"-0.001": 12.3894431887,
			"0.0": 10.5022508877,
			"0.001": 10.990849132,
			"0.002": 10.6014153944,
			"0.003": 11.5382749498,
			"0.004": 12.6855536509,
			"0.005": 13.3335448071,
			"0.006": 8.0131552234,
			"0.007": 3.26563063125,
			"0.008": 3.31522033799,
			"0.009": 5.05115174445,
			"0.01": 4.92171071122,
			"0.011": 5.70841276393,
			"0.012": 4.35961569653,
			"0.013": 3.29249037597,
			"0.014": 0.977753702808,
			"0.015": 0.0,
			"0.016": 0.0,
			"0.017": 0.0,
			"0.018": 0.0,
			"0.019": 0.0,
			"0.02": 0.0,
			"0.021": 0.0,
			"0.022": 0.0,
			"0.023": 0.0,
			"0.024": 0.0,
			"0.025": 0.0
		}
	}
}
