{
	 "smiles": "CC1=CC(C)=C(C(C)=C1)S(=O)(=O)NCCC(O)=O", 
	 "Tm": 392.15, 
	 "num_atms": 35, 
	 "gaussian": { 
		 "optdone": 1, 
		 "sigma_profile": "yes", 
		 "theory": "DFT", 
		 "functional": "B3LYP", 
		 "basiset": "6-31G**", 
		 "properties": { 
			 "R2extent": 6837.6864, 
			 "electric_dipole_moment_norm": 2.81844554498, 
			 "electric_quadrupole_moment_norm": 20.8889295836, 
			 "total_energy": -1221.31941803, 
			 "HOMO_LUMO_gap": 0.21377, 
			 "cosmo_polarized_energy": -18.26, 
			 "cosmo_cavitation_energy": 38.77, 
			 "cosmo_dispersion_energy": -27.44, 
			 "cosmo_repulsion_energy": 2.1, 
			 "cosmo_total_nonelectrostatic_energy": 13.43, 
			 "SMD_solvation_energy": 7.13 
		},
		"coords": [
			{
				"x": 2.7198711935,
				"y": -2.0295757074,
				"z": 2.8249471884,
				"element": "C" 
			},
			{
				"x": 1.9117014379,
				"y": -1.4766076099,
				"z": 1.6767452076,
				"element": "C" 
			},
			{
				"x": 1.7183535589,
				"y": -0.1004504622,
				"z": 1.5350593696,
				"element": "C" 
			},
			{
				"x": 0.9968318242,
				"y": 0.448860374,
				"z": 0.473644904,
				"element": "C" 
			},
			{
				"x": 0.8619516661,
				"y": 1.9540392019,
				"z": 0.4218595962,
				"element": "C" 
			},
			{
				"x": 0.4360303504,
				"y": -0.4391655921,
				"z": -0.4815687607,
				"element": "C" 
			},
			{
				"x": 0.6156940065,
				"y": -1.8393749107,
				"z": -0.3787548034,
				"element": "C" 
			},
			{
				"x": 0.0900437559,
				"y": -2.8832212183,
				"z": -1.3433291898,
				"element": "C" 
			},
			{
				"x": 1.3544440002,
				"y": -2.3155467974,
				"z": 0.714747398,
				"element": "C" 
			},
			{
				"x": -0.4707757085,
				"y": 0.2844068147,
				"z": -1.8696408666,
				"element": "S" 
			},
			{
				"x": 0.2998117371,
				"y": 1.3870035509,
				"z": -2.4559817673,
				"element": "O" 
			},
			{
				"x": -0.9602566123,
				"y": -0.7927497979,
				"z": -2.741103724,
				"element": "O" 
			},
			{
				"x": -1.7794956053,
				"y": 1.0415959881,
				"z": -1.1033979363,
				"element": "N" 
			},
			{
				"x": -2.9943094173,
				"y": 0.2649191253,
				"z": -0.8255724444,
				"element": "C" 
			},
			{
				"x": -3.9098763736,
				"y": 0.0530087511,
				"z": -2.037421771,
				"element": "C" 
			},
			{
				"x": -5.1335111888,
				"y": -0.7565890096,
				"z": -1.6775415806,
				"element": "C" 
			},
			{
				"x": -6.025800469,
				"y": -0.7976909183,
				"z": -2.6942882304,
				"element": "O" 
			},
			{
				"x": -5.3194348729,
				"y": -1.3203685208,
				"z": -0.6200415173,
				"element": "O" 
			},
			{
				"x": 2.4672133021,
				"y": -1.5313235241,
				"z": 3.7664252363,
				"element": "H" 
			},
			{
				"x": 3.7930696195,
				"y": -1.8772503236,
				"z": 2.6573023402,
				"element": "H" 
			},
			{
				"x": 2.5545122183,
				"y": -3.1027954888,
				"z": 2.9517024617,
				"element": "H" 
			},
			{
				"x": 2.1442050187,
				"y": 0.5750720459,
				"z": 2.2728355267,
				"element": "H" 
			},
			{
				"x": 1.3732500534,
				"y": 2.4016685594,
				"z": 1.2771621007,
				"element": "H" 
			},
			{
				"x": 1.2880306868,
				"y": 2.3610314421,
				"z": -0.4975728832,
				"element": "H" 
			},
			{
				"x": -0.1887381273,
				"y": 2.2560523753,
				"z": 0.4493885066,
				"element": "H" 
			},
			{
				"x": 0.4710928137,
				"y": -2.7332113429,
				"z": -2.355272233,
				"element": "H" 
			},
			{
				"x": 0.3932369021,
				"y": -3.8749830763,
				"z": -0.9986933515,
				"element": "H" 
			},
			{
				"x": -0.9989280217,
				"y": -2.8635060251,
				"z": -1.4227617986,
				"element": "H" 
			},
			{
				"x": 1.4945009418,
				"y": -3.3892771941,
				"z": 0.8072055133,
				"element": "H" 
			},
			{
				"x": -1.9326854246,
				"y": 1.9316607142,
				"z": -1.571794683,
				"element": "H" 
			},
			{
				"x": -2.6960267985,
				"y": -0.6995737112,
				"z": -0.4080777843,
				"element": "H" 
			},
			{
				"x": -3.535927388,
				"y": 0.7825818788,
				"z": -0.0279422592,
				"element": "H" 
			},
			{
				"x": -4.237679876,
				"y": 1.009124294,
				"z": -2.4634172783,
				"element": "H" 
			},
			{
				"x": -3.3670940791,
				"y": -0.4699448276,
				"z": -2.83205417,
				"element": "H" 
			},
			{
				"x": -6.7634051244,
				"y": -1.3507190573,
				"z": -2.3854963163,
				"element": "H" 
			}
		],
		 "valence_orbital": [ 
			{
				"type": "occ",
				"energy": -0.29395,
				"method": "rhf"
			},
			{
				"type": "occ",
				"energy": -0.28227,
				"method": "rhf"
			},
			{
				"type": "occ",
				"energy": -0.2726,
				"method": "rhf"
			},
			{
				"type": "occ",
				"energy": -0.2501,
				"method": "rhf"
			},
			{
				"type": "occ",
				"energy": -0.24734,
				"method": "rhf"
			},
			{
				"type": "unocc",
				"energy": -0.03357,
				"method": "rhf"
			},
			{
				"type": "unocc",
				"energy": -0.00716,
				"method": "rhf"
			},
			{
				"type": "unocc",
				"energy": 0.005,
				"method": "rhf"
			},
			{
				"type": "unocc",
				"energy": 0.0608,
				"method": "rhf"
			},
			{
				"type": "unocc",
				"energy": 0.07475,
				"method": "rhf"
			}
		],
		"cosmo_sigma_profile": { 
			"-0.025": 0.0,
			"-0.024": 0.0,
			"-0.023": 0.0,
			"-0.022": 0.0,
			"-0.021": 0.0,
			"-0.02": 0.0,
			"-0.019": 0.0262463075015,
			"-0.018": 0.628529396299,
			"-0.017": 1.08342592443,
			"-0.016": 0.58715214768,
			"-0.015": 0.918605960874,
			"-0.014": 2.10405522248,
			"-0.013": 1.27075498804,
			"-0.012": 2.05434748956,
			"-0.011": 1.81416518481,
			"-0.01": 2.01631061412,
			"-0.009": 2.32977760939,
			"-0.008": 2.19871043296,
			"-0.007": 3.19421799166,
			"-0.006": 10.8271116391,
			"-0.005": 19.1933719032,
			"-0.004": 24.6483962686,
			"-0.003": 24.930185473,
			"-0.002": 27.645937853,
			"-0.001": 27.6958299607,
			"0.0": 30.1786413619,
			"0.001": 18.6400646112,
			"0.002": 16.1986379134,
			"0.003": 15.5263104392,
			"0.004": 14.381310591,
			"0.005": 7.20843244312,
			"0.006": 5.99307474601,
			"0.007": 4.93437634193,
			"0.008": 4.56404326193,
			"0.009": 6.70465921189,
			"0.01": 7.95664402487,
			"0.011": 9.00595726817,
			"0.012": 8.41740859111,
			"0.013": 0.190996657925,
			"0.014": 0.0,
			"0.015": 0.0,
			"0.016": 0.0,
			"0.017": 0.0,
			"0.018": 0.0,
			"0.019": 0.0,
			"0.02": 0.0,
			"0.021": 0.0,
			"0.022": 0.0,
			"0.023": 0.0,
			"0.024": 0.0,
			"0.025": 0.0
		}
	}
}
