{
	 "smiles": "CC(=C)C(=O)NCO", 
	 "Tm": 236.15, 
	 "num_atms": 17, 
	 "gaussian": { 
		 "optdone": 1, 
		 "sigma_profile": "yes", 
		 "theory": "DFT", 
		 "functional": "B3LYP", 
		 "basiset": "6-31G**", 
		 "properties": { 
			 "R2extent": 2282.7936, 
			 "electric_dipole_moment_norm": 2.45542836385, 
			 "electric_quadrupole_moment_norm": 13.2201723578, 
			 "total_energy": -401.136900531, 
			 "HOMO_LUMO_gap": 0.22741, 
			 "cosmo_polarized_energy": -13.58, 
			 "cosmo_cavitation_energy": 20.69, 
			 "cosmo_dispersion_energy": -14.88, 
			 "cosmo_repulsion_energy": 1.26, 
			 "cosmo_total_nonelectrostatic_energy": 7.08, 
			 "SMD_solvation_energy": 4.66 
		},
		"coords": [
			{
				"x": 2.0154566871,
				"y": 1.561731809,
				"z": -1.7796130512,
				"element": "C" 
			},
			{
				"x": 2.5362028343,
				"y": 0.7191890174,
				"z": -0.6453524827,
				"element": "C" 
			},
			{
				"x": 3.2832280566,
				"y": -0.376909159,
				"z": -0.8222793234,
				"element": "C" 
			},
			{
				"x": 2.3033198514,
				"y": 1.3023330835,
				"z": 0.7272547267,
				"element": "C" 
			},
			{
				"x": 2.5126283004,
				"y": 2.4932597238,
				"z": 0.9289602085,
				"element": "O" 
			},
			{
				"x": 1.8793634684,
				"y": 0.4764274651,
				"z": 1.7448352639,
				"element": "N" 
			},
			{
				"x": 1.2772552873,
				"y": -0.8397174083,
				"z": 1.6709097262,
				"element": "C" 
			},
			{
				"x": 2.0288810925,
				"y": -1.8444915256,
				"z": 2.3162934849,
				"element": "O" 
			},
			{
				"x": 2.3269095603,
				"y": 1.162902257,
				"z": -2.7479895138,
				"element": "H" 
			},
			{
				"x": 2.385269518,
				"y": 2.585477901,
				"z": -1.6713870311,
				"element": "H" 
			},
			{
				"x": 0.9201273214,
				"y": 1.6162458549,
				"z": -1.7618231252,
				"element": "H" 
			},
			{
				"x": 3.7041630225,
				"y": -0.9296675008,
				"z": 0.012417895,
				"element": "H" 
			},
			{
				"x": 3.5368277717,
				"y": -0.7363947611,
				"z": -1.8155325767,
				"element": "H" 
			},
			{
				"x": 1.8152098511,
				"y": 0.9631314693,
				"z": 2.6313798668,
				"element": "H" 
			},
			{
				"x": 0.3181553757,
				"y": -0.8273160125,
				"z": 2.1974117969,
				"element": "H" 
			},
			{
				"x": 1.0967744425,
				"y": -1.0665688665,
				"z": 0.6158630397,
				"element": "H" 
			},
			{
				"x": 2.8759275589,
				"y": -1.9257333471,
				"z": 1.8578510956,
				"element": "H" 
			}
		],
		 "valence_orbital": [ 
			{
				"type": "occ",
				"energy": -0.35558,
				"method": "rhf"
			},
			{
				"type": "occ",
				"energy": -0.30192,
				"method": "rhf"
			},
			{
				"type": "occ",
				"energy": -0.27061,
				"method": "rhf"
			},
			{
				"type": "occ",
				"energy": -0.26638,
				"method": "rhf"
			},
			{
				"type": "occ",
				"energy": -0.25069,
				"method": "rhf"
			},
			{
				"type": "unocc",
				"energy": -0.02328,
				"method": "rhf"
			},
			{
				"type": "unocc",
				"energy": 0.04197,
				"method": "rhf"
			},
			{
				"type": "unocc",
				"energy": 0.0603,
				"method": "rhf"
			},
			{
				"type": "unocc",
				"energy": 0.09546,
				"method": "rhf"
			},
			{
				"type": "unocc",
				"energy": 0.11407,
				"method": "rhf"
			}
		],
		"cosmo_sigma_profile": { 
			"-0.025": 0.0,
			"-0.024": 0.0,
			"-0.023": 0.0,
			"-0.022": 0.0,
			"-0.021": 0.0,
			"-0.02": 0.0,
			"-0.019": 0.0,
			"-0.018": 0.0,
			"-0.017": 0.0,
			"-0.016": 0.0,
			"-0.015": 0.64219042487,
			"-0.014": 1.86865998264,
			"-0.013": 1.96730042425,
			"-0.012": 2.01706372558,
			"-0.011": 2.35501675023,
			"-0.01": 1.97737452591,
			"-0.009": 2.21393186141,
			"-0.008": 2.30223640892,
			"-0.007": 3.51280511982,
			"-0.006": 6.34787486997,
			"-0.005": 10.844345681,
			"-0.004": 13.7535472609,
			"-0.003": 13.0126272942,
			"-0.002": 13.4282065307,
			"-0.001": 12.4942684433,
			"0.0": 12.2459126373,
			"0.001": 9.08239603395,
			"0.002": 6.71886091311,
			"0.003": 5.60883268667,
			"0.004": 4.79656911171,
			"0.005": 3.30332674251,
			"0.006": 2.76210233364,
			"0.007": 3.49678793068,
			"0.008": 2.21933429901,
			"0.009": 2.08683842601,
			"0.01": 2.63305133221,
			"0.011": 3.08858065934,
			"0.012": 3.73230669036,
			"0.013": 6.83850916165,
			"0.014": 4.94304217303,
			"0.015": 0.0979248391399,
			"0.016": 0.0,
			"0.017": 0.0,
			"0.018": 0.0,
			"0.019": 0.0,
			"0.02": 0.0,
			"0.021": 0.0,
			"0.022": 0.0,
			"0.023": 0.0,
			"0.024": 0.0,
			"0.025": 0.0
		}
	}
}
