{
	 "smiles": "CCCCC1=CC=C(NS(=O)(=O)C2=C(OC)C=C(N)C=C2)C=C1", 
	 "Tm": 444.15, 
	 "num_atms": 45, 
	 "gaussian": { 
		 "optdone": 1, 
		 "sigma_profile": "yes", 
		 "theory": "DFT", 
		 "functional": "B3LYP", 
		 "basiset": "6-31G**", 
		 "properties": { 
			 "R2extent": 12152.8026, 
			 "electric_dipole_moment_norm": 7.08574978813, 
			 "electric_quadrupole_moment_norm": 37.2915433025, 
			 "total_energy": -1394.36510747, 
			 "HOMO_LUMO_gap": 0.18883, 
			 "cosmo_polarized_energy": -22.48, 
			 "cosmo_cavitation_energy": 48.66, 
			 "cosmo_dispersion_energy": -33.23, 
			 "cosmo_repulsion_energy": 2.53, 
			 "cosmo_total_nonelectrostatic_energy": 17.95, 
			 "SMD_solvation_energy": 7.68 
		},
		"coords": [
			{
				"x": -5.3932785918,
				"y": -1.5088643325,
				"z": 0.6820811759,
				"element": "C" 
			},
			{
				"x": -4.7206605339,
				"y": -0.1866805999,
				"z": 1.0707772112,
				"element": "C" 
			},
			{
				"x": -3.1851394942,
				"y": -0.206779865,
				"z": 1.0019947928,
				"element": "C" 
			},
			{
				"x": -2.5135664698,
				"y": -1.1452695052,
				"z": 2.0268418627,
				"element": "C" 
			},
			{
				"x": -1.0021793533,
				"y": -1.0949852579,
				"z": 1.9685939332,
				"element": "C" 
			},
			{
				"x": -0.2813386939,
				"y": -0.1341039762,
				"z": 2.6935303402,
				"element": "C" 
			},
			{
				"x": 1.1075543001,
				"y": -0.0617195669,
				"z": 2.6368038642,
				"element": "C" 
			},
			{
				"x": 1.8140940331,
				"y": -0.9463127424,
				"z": 1.8111227106,
				"element": "C" 
			},
			{
				"x": 3.2356289748,
				"y": -0.9399085044,
				"z": 1.7800208276,
				"element": "N" 
			},
			{
				"x": 4.226703726,
				"y": 0.3869222048,
				"z": 1.4206931514,
				"element": "S" 
			},
			{
				"x": 5.5752452289,
				"y": -0.1090587324,
				"z": 1.7075601415,
				"element": "O" 
			},
			{
				"x": 3.6724834137,
				"y": 1.5451228007,
				"z": 2.1236882306,
				"element": "O" 
			},
			{
				"x": 4.1752316769,
				"y": 0.6894640956,
				"z": -0.3443016281,
				"element": "C" 
			},
			{
				"x": 3.0399170262,
				"y": 1.2156923562,
				"z": -0.9866125195,
				"element": "C" 
			},
			{
				"x": 1.8787128372,
				"y": 1.4027561726,
				"z": -0.2878913491,
				"element": "O" 
			},
			{
				"x": 1.5626767442,
				"y": 2.7599602042,
				"z": 0.0515279695,
				"element": "C" 
			},
			{
				"x": 3.0757632617,
				"y": 1.4772505195,
				"z": -2.3539256715,
				"element": "C" 
			},
			{
				"x": 4.2348312242,
				"y": 1.2241164922,
				"z": -3.1084905161,
				"element": "C" 
			},
			{
				"x": 4.2767639457,
				"y": 1.5301751453,
				"z": -4.4578999449,
				"element": "N" 
			},
			{
				"x": 5.3652291311,
				"y": 0.692298095,
				"z": -2.456352138,
				"element": "C" 
			},
			{
				"x": 5.3289837284,
				"y": 0.4300864717,
				"z": -1.09491866,
				"element": "C" 
			},
			{
				"x": 1.1118791498,
				"y": -1.907866397,
				"z": 1.07641305,
				"element": "C" 
			},
			{
				"x": -0.2770000388,
				"y": -1.9852661594,
				"z": 1.1681332254,
				"element": "C" 
			},
			{
				"x": -5.1004623272,
				"y": -1.8176555468,
				"z": -0.3283817319,
				"element": "H" 
			},
			{
				"x": -6.4841076065,
				"y": -1.414649785,
				"z": 0.6965738485,
				"element": "H" 
			},
			{
				"x": -5.1274514959,
				"y": -2.3213734522,
				"z": 1.366154363,
				"element": "H" 
			},
			{
				"x": -5.0877350559,
				"y": 0.6070496944,
				"z": 0.4075213697,
				"element": "H" 
			},
			{
				"x": -5.0330782816,
				"y": 0.0984636729,
				"z": 2.0849389224,
				"element": "H" 
			},
			{
				"x": -2.8650813193,
				"y": -0.4943348924,
				"z": -0.0088777847,
				"element": "H" 
			},
			{
				"x": -2.804298463,
				"y": 0.8100000057,
				"z": 1.1619399057,
				"element": "H" 
			},
			{
				"x": -2.8526945801,
				"y": -0.8683186809,
				"z": 3.033838094,
				"element": "H" 
			},
			{
				"x": -2.848894406,
				"y": -2.1750968182,
				"z": 1.8585978652,
				"element": "H" 
			},
			{
				"x": -0.8182088112,
				"y": 0.5570942828,
				"z": 3.3395145192,
				"element": "H" 
			},
			{
				"x": 1.6537422246,
				"y": 0.6676666423,
				"z": 3.2220570686,
				"element": "H" 
			},
			{
				"x": 3.667237199,
				"y": -1.7882917916,
				"z": 1.4292538447,
				"element": "H" 
			},
			{
				"x": 0.5904055156,
				"y": 2.7245589512,
				"z": 0.5447410552,
				"element": "H" 
			},
			{
				"x": 2.3101996463,
				"y": 3.1635530618,
				"z": 0.7404046283,
				"element": "H" 
			},
			{
				"x": 1.4964843075,
				"y": 3.3869730642,
				"z": -0.8460831674,
				"element": "H" 
			},
			{
				"x": 2.1804304615,
				"y": 1.8647863506,
				"z": -2.8315294977,
				"element": "H" 
			},
			{
				"x": 3.3908809651,
				"y": 1.6182550183,
				"z": -4.9333444067,
				"element": "H" 
			},
			{
				"x": 4.9837228433,
				"y": 1.0636525871,
				"z": -5.0067803536,
				"element": "H" 
			},
			{
				"x": 6.2709062632,
				"y": 0.4947202805,
				"z": -3.0228093616,
				"element": "H" 
			},
			{
				"x": 6.2001975404,
				"y": 0.0326076264,
				"z": -0.5866920681,
				"element": "H" 
			},
			{
				"x": 1.6541094341,
				"y": -2.6000908904,
				"z": 0.436607983,
				"element": "H" 
			},
			{
				"x": -0.8046392805,
				"y": -2.7479982989,
				"z": 0.6002648448,
				"element": "H" 
			}
		],
		 "valence_orbital": [ 
			{
				"type": "occ",
				"energy": -0.27872,
				"method": "rhf"
			},
			{
				"type": "occ",
				"energy": -0.25054,
				"method": "rhf"
			},
			{
				"type": "occ",
				"energy": -0.24488,
				"method": "rhf"
			},
			{
				"type": "occ",
				"energy": -0.22694,
				"method": "rhf"
			},
			{
				"type": "occ",
				"energy": -0.2095,
				"method": "rhf"
			},
			{
				"type": "unocc",
				"energy": -0.02067,
				"method": "rhf"
			},
			{
				"type": "unocc",
				"energy": -0.01108,
				"method": "rhf"
			},
			{
				"type": "unocc",
				"energy": 0.00313,
				"method": "rhf"
			},
			{
				"type": "unocc",
				"energy": 0.00629,
				"method": "rhf"
			},
			{
				"type": "unocc",
				"energy": 0.06125,
				"method": "rhf"
			}
		],
		"cosmo_sigma_profile": { 
			"-0.025": 0.0,
			"-0.024": 0.0,
			"-0.023": 0.0,
			"-0.022": 0.0,
			"-0.021": 0.0,
			"-0.02": 0.0,
			"-0.019": 0.0,
			"-0.018": 0.0,
			"-0.017": 0.0,
			"-0.016": 0.0107841450145,
			"-0.015": 1.22954759986,
			"-0.014": 1.0858941689,
			"-0.013": 3.73162835205,
			"-0.012": 4.49805549265,
			"-0.011": 4.26040786206,
			"-0.01": 4.10366043405,
			"-0.009": 4.50019470472,
			"-0.008": 4.80117229031,
			"-0.007": 5.875561296,
			"-0.006": 8.48021725962,
			"-0.005": 16.0250254035,
			"-0.004": 19.5246870073,
			"-0.003": 30.4048879116,
			"-0.002": 35.779706341,
			"-0.001": 35.929017771,
			"0.0": 37.2090578158,
			"0.001": 33.9854945772,
			"0.002": 23.8408590832,
			"0.003": 22.3413123308,
			"0.004": 21.2524891373,
			"0.005": 13.8819039055,
			"0.006": 9.71804429488,
			"0.007": 6.44318628596,
			"0.008": 7.21966712076,
			"0.009": 7.01364923095,
			"0.01": 6.71797498573,
			"0.011": 8.08157655131,
			"0.012": 5.17540390584,
			"0.013": 0.154820900016,
			"0.014": 0.0,
			"0.015": 0.0,
			"0.016": 0.0,
			"0.017": 0.0,
			"0.018": 0.0,
			"0.019": 0.0,
			"0.02": 0.0,
			"0.021": 0.0,
			"0.022": 0.0,
			"0.023": 0.0,
			"0.024": 0.0,
			"0.025": 0.0
		}
	}
}
