{
	 "smiles": "ClC1=CC=C(OC(=O)C2=CC=C(C=C2)C(=O)OC2=CC=C(Cl)C=C2Cl)C(Cl)=C1", 
	 "Tm": 490.15, 
	 "num_atms": 38, 
	 "gaussian": { 
		 "optdone": 1, 
		 "sigma_profile": "yes", 
		 "theory": "DFT", 
		 "functional": "B3LYP", 
		 "basiset": "6-31G**", 
		 "properties": { 
			 "R2extent": 29917.457, 
			 "electric_dipole_moment_norm": 2.04900386042, 
			 "electric_quadrupole_moment_norm": 9.6591296228, 
			 "total_energy": -2909.83442812, 
			 "HOMO_LUMO_gap": 0.15918, 
			 "cosmo_polarized_energy": -11.62, 
			 "cosmo_cavitation_energy": 53.38, 
			 "cosmo_dispersion_energy": -37.8, 
			 "cosmo_repulsion_energy": 2.82, 
			 "cosmo_total_nonelectrostatic_energy": 18.41, 
			 "SMD_solvation_energy": 9.7 
		},
		"coords": [
			{
				"x": 5.6912725599,
				"y": 7.8915477224,
				"z": -2.4640807903,
				"element": "Cl" 
			},
			{
				"x": 4.6698304047,
				"y": 6.5121703724,
				"z": -2.1044302195,
				"element": "C" 
			},
			{
				"x": 5.2318382277,
				"y": 5.361814297,
				"z": -1.5522232911,
				"element": "C" 
			},
			{
				"x": 4.4159336043,
				"y": 4.2685453685,
				"z": -1.2712573963,
				"element": "C" 
			},
			{
				"x": 3.0464045556,
				"y": 4.3273670834,
				"z": -1.534445696,
				"element": "C" 
			},
			{
				"x": 2.1967878705,
				"y": 3.2513847681,
				"z": -1.3493155629,
				"element": "O" 
			},
			{
				"x": 2.2205406878,
				"y": 2.5206828325,
				"z": -0.1859684848,
				"element": "C" 
			},
			{
				"x": 2.9834819676,
				"y": 2.7320807714,
				"z": 0.7276552135,
				"element": "O" 
			},
			{
				"x": 1.1924687756,
				"y": 1.4433719595,
				"z": -0.208435864,
				"element": "C" 
			},
			{
				"x": 0.3144553779,
				"y": 1.2586366817,
				"z": -1.2870427973,
				"element": "C" 
			},
			{
				"x": -0.6226980563,
				"y": 0.232725039,
				"z": -1.2443539501,
				"element": "C" 
			},
			{
				"x": -0.6916773246,
				"y": -0.6143140338,
				"z": -0.12891164,
				"element": "C" 
			},
			{
				"x": 0.1836613817,
				"y": -0.4270494488,
				"z": 0.9514251374,
				"element": "C" 
			},
			{
				"x": 1.12100034,
				"y": 0.5986792503,
				"z": 0.9086233777,
				"element": "C" 
			},
			{
				"x": -1.7196285827,
				"y": -1.6917337454,
				"z": -0.1514229355,
				"element": "C" 
			},
			{
				"x": -2.506094724,
				"y": -1.8811892464,
				"z": -1.0497458418,
				"element": "O" 
			},
			{
				"x": -1.660009888,
				"y": -2.4563635534,
				"z": 0.9886978464,
				"element": "O" 
			},
			{
				"x": -2.5466607842,
				"y": -3.4978951808,
				"z": 1.196012482,
				"element": "C" 
			},
			{
				"x": -2.8186970133,
				"y": -4.4672056115,
				"z": 0.2292463448,
				"element": "C" 
			},
			{
				"x": -3.6612269817,
				"y": -5.5360428262,
				"z": 0.5251145218,
				"element": "C" 
			},
			{
				"x": -4.2248356507,
				"y": -5.6323288721,
				"z": 1.7968336084,
				"element": "C" 
			},
			{
				"x": -5.2839661961,
				"y": -6.9770498825,
				"z": 2.1780526764,
				"element": "Cl" 
			},
			{
				"x": -3.9608206657,
				"y": -4.6782714923,
				"z": 2.7771630405,
				"element": "C" 
			},
			{
				"x": -3.1207924756,
				"y": -3.6090367993,
				"z": 2.4688020547,
				"element": "C" 
			},
			{
				"x": -2.7881368654,
				"y": -2.4060484124,
				"z": 3.6918530557,
				"element": "Cl" 
			},
			{
				"x": 2.49731961,
				"y": 5.4904096644,
				"z": -2.0894197275,
				"element": "C" 
			},
			{
				"x": 0.785337428,
				"y": 5.5798432744,
				"z": -2.4284845056,
				"element": "Cl" 
			},
			{
				"x": 3.3062807359,
				"y": 6.5881493181,
				"z": -2.3800115423,
				"element": "C" 
			},
			{
				"x": 6.2947639548,
				"y": 5.3188329143,
				"z": -1.3455192245,
				"element": "H" 
			},
			{
				"x": 4.8369938273,
				"y": 3.3712712014,
				"z": -0.8376363487,
				"element": "H" 
			},
			{
				"x": 0.3683384555,
				"y": 1.9179260486,
				"z": -2.1448294286,
				"element": "H" 
			},
			{
				"x": -1.3125492556,
				"y": 0.0714684879,
				"z": -2.0652995709,
				"element": "H" 
			},
			{
				"x": 0.1223558161,
				"y": -1.0792622698,
				"z": 1.814100752,
				"element": "H" 
			},
			{
				"x": 1.8069076801,
				"y": 0.7636304765,
				"z": 1.732133541,
				"element": "H" 
			},
			{
				"x": -2.3783204535,
				"y": -4.3763106072,
				"z": -0.7547975596,
				"element": "H" 
			},
			{
				"x": -3.8758775883,
				"y": -6.2877950546,
				"z": -0.225336218,
				"element": "H" 
			},
			{
				"x": -4.398826021,
				"y": -4.7574497957,
				"z": 3.7643299395,
				"element": "H" 
			},
			{
				"x": 2.8736452657,
				"y": 7.4825093005,
				"z": -2.8107749967,
				"element": "H" 
			}
		],
		 "valence_orbital": [ 
			{
				"type": "occ",
				"energy": -0.28029,
				"method": "rhf"
			},
			{
				"type": "occ",
				"energy": -0.27154,
				"method": "rhf"
			},
			{
				"type": "occ",
				"energy": -0.27137,
				"method": "rhf"
			},
			{
				"type": "occ",
				"energy": -0.25267,
				"method": "rhf"
			},
			{
				"type": "occ",
				"energy": -0.25166,
				"method": "rhf"
			},
			{
				"type": "unocc",
				"energy": -0.09248,
				"method": "rhf"
			},
			{
				"type": "unocc",
				"energy": -0.03543,
				"method": "rhf"
			},
			{
				"type": "unocc",
				"energy": -0.03361,
				"method": "rhf"
			},
			{
				"type": "unocc",
				"energy": -0.03354,
				"method": "rhf"
			},
			{
				"type": "unocc",
				"energy": -0.02961,
				"method": "rhf"
			}
		],
		"cosmo_sigma_profile": { 
			"-0.025": 0.0,
			"-0.024": 0.0,
			"-0.023": 0.0,
			"-0.022": 0.0,
			"-0.021": 0.0,
			"-0.02": 0.0,
			"-0.019": 0.0,
			"-0.018": 0.0,
			"-0.017": 0.0,
			"-0.016": 0.0,
			"-0.015": 0.0,
			"-0.014": 0.0,
			"-0.013": 0.0,
			"-0.012": 0.0,
			"-0.011": 0.0,
			"-0.01": 0.0,
			"-0.009": 2.04060207362,
			"-0.008": 8.25360079274,
			"-0.007": 15.9790549708,
			"-0.006": 18.180631124,
			"-0.005": 15.9184782297,
			"-0.004": 21.0042082664,
			"-0.003": 21.9493910949,
			"-0.002": 29.2502063228,
			"-0.001": 41.743280744,
			"0.0": 58.7570378698,
			"0.001": 64.6364308136,
			"0.002": 41.4912587311,
			"0.003": 38.7381551064,
			"0.004": 33.4885143156,
			"0.005": 5.23995504019,
			"0.006": 3.4613340958,
			"0.007": 3.72963378325,
			"0.008": 3.83033437792,
			"0.009": 4.20883709429,
			"0.01": 7.25500227291,
			"0.011": 2.02744740733,
			"0.012": 0.0,
			"0.013": 0.0,
			"0.014": 0.0,
			"0.015": 0.0,
			"0.016": 0.0,
			"0.017": 0.0,
			"0.018": 0.0,
			"0.019": 0.0,
			"0.02": 0.0,
			"0.021": 0.0,
			"0.022": 0.0,
			"0.023": 0.0,
			"0.024": 0.0,
			"0.025": 0.0
		}
	}
}
