{
	 "smiles": "FC1=CC(Br)=C(F)C=C1Br", 
	 "Tm": 335.15, 
	 "num_atms": 12, 
	 "gaussian": { 
		 "optdone": 1, 
		 "sigma_profile": "yes", 
		 "theory": "DFT", 
		 "functional": "B3LYP", 
		 "basiset": "6-31G**", 
		 "properties": { 
			 "R2extent": 4449.8894, 
			 "electric_dipole_moment_norm": 0.0, 
			 "electric_quadrupole_moment_norm": 6.26202209993, 
			 "total_energy": -5572.30790631, 
			 "HOMO_LUMO_gap": 0.20411, 
			 "cosmo_polarized_energy": -3.58, 
			 "cosmo_cavitation_energy": 22.39, 
			 "cosmo_dispersion_energy": -17.21, 
			 "cosmo_repulsion_energy": 1.35, 
			 "cosmo_total_nonelectrostatic_energy": 6.53, 
			 "SMD_solvation_energy": 2.62 
		},
		"coords": [
			{
				"x": -0.8854822515,
				"y": -2.9264794128,
				"z": 0.159675549,
				"element": "F" 
			},
			{
				"x": -0.0511675765,
				"y": -1.9362716204,
				"z": -0.1858383413,
				"element": "C" 
			},
			{
				"x": 0.2566825262,
				"y": -0.9601630053,
				"z": 0.7548939955,
				"element": "C" 
			},
			{
				"x": 1.1226138669,
				"y": 0.075844085,
				"z": 0.4106957605,
				"element": "C" 
			},
			{
				"x": 1.5630965011,
				"y": 1.4228973458,
				"z": 1.6685364548,
				"element": "Br" 
			},
			{
				"x": 1.666698085,
				"y": 0.1163705424,
				"z": -0.8731799416,
				"element": "C" 
			},
			{
				"x": 2.5010179393,
				"y": 1.1065814711,
				"z": -1.2186858856,
				"element": "F" 
			},
			{
				"x": 1.3588506714,
				"y": -0.8597361358,
				"z": -1.8139103781,
				"element": "C" 
			},
			{
				"x": 0.4929155577,
				"y": -1.8957422504,
				"z": -1.4697118942,
				"element": "C" 
			},
			{
				"x": 0.0524429649,
				"y": -3.242793975,
				"z": -2.7275585603,
				"element": "Br" 
			},
			{
				"x": -0.1812421296,
				"y": -1.018270521,
				"z": 1.7436955364,
				"element": "H" 
			},
			{
				"x": 1.7967738453,
				"y": -0.8016365236,
				"z": -2.8027122952,
				"element": "H" 
			}
		],
		 "valence_orbital": [ 
			{
				"type": "occ",
				"energy": -0.30527,
				"method": "rhf"
			},
			{
				"type": "occ",
				"energy": -0.30497,
				"method": "rhf"
			},
			{
				"type": "occ",
				"energy": -0.30353,
				"method": "rhf"
			},
			{
				"type": "occ",
				"energy": -0.27459,
				"method": "rhf"
			},
			{
				"type": "occ",
				"energy": -0.24941,
				"method": "rhf"
			},
			{
				"type": "unocc",
				"energy": -0.0453,
				"method": "rhf"
			},
			{
				"type": "unocc",
				"energy": -0.02319,
				"method": "rhf"
			},
			{
				"type": "unocc",
				"energy": -0.02166,
				"method": "rhf"
			},
			{
				"type": "unocc",
				"energy": -0.0017,
				"method": "rhf"
			},
			{
				"type": "unocc",
				"energy": 0.11948,
				"method": "rhf"
			}
		],
		"cosmo_sigma_profile": { 
			"-0.025": 0.0,
			"-0.024": 0.0,
			"-0.023": 0.0,
			"-0.022": 0.0,
			"-0.021": 0.0,
			"-0.02": 0.0,
			"-0.019": 0.0,
			"-0.018": 0.0,
			"-0.017": 0.0,
			"-0.016": 0.0,
			"-0.015": 0.0,
			"-0.014": 0.0,
			"-0.013": 0.0,
			"-0.012": 0.0,
			"-0.011": 0.0,
			"-0.01": 0.746443593343,
			"-0.009": 3.24827367062,
			"-0.008": 2.3060602977,
			"-0.007": 3.65635128146,
			"-0.006": 3.68347702579,
			"-0.005": 6.8397274009,
			"-0.004": 5.58509646053,
			"-0.003": 7.29104502328,
			"-0.002": 18.1386434123,
			"-0.001": 25.6746109814,
			"0.0": 22.5051348522,
			"0.001": 14.7735855938,
			"0.002": 16.7914013114,
			"0.003": 35.0382793592,
			"0.004": 19.6033177727,
			"0.005": 2.01971937419,
			"0.006": 0.0,
			"0.007": 0.0,
			"0.008": 0.0,
			"0.009": 0.0,
			"0.01": 0.0,
			"0.011": 0.0,
			"0.012": 0.0,
			"0.013": 0.0,
			"0.014": 0.0,
			"0.015": 0.0,
			"0.016": 0.0,
			"0.017": 0.0,
			"0.018": 0.0,
			"0.019": 0.0,
			"0.02": 0.0,
			"0.021": 0.0,
			"0.022": 0.0,
			"0.023": 0.0,
			"0.024": 0.0,
			"0.025": 0.0
		}
	}
}
