{
	 "smiles": "CC1=C(C)C=C(C=C1)C(=O)CCCCl", 
	 "Tm": 320.65, 
	 "num_atms": 29, 
	 "gaussian": { 
		 "optdone": 1, 
		 "sigma_profile": "yes", 
		 "theory": "DFT", 
		 "functional": "B3LYP", 
		 "basiset": "6-31G**", 
		 "properties": { 
			 "R2extent": 6039.9638, 
			 "electric_dipole_moment_norm": 5.4101782503, 
			 "electric_quadrupole_moment_norm": 13.776629095, 
			 "total_energy": -1001.75946473, 
			 "HOMO_LUMO_gap": 0.1896, 
			 "cosmo_polarized_energy": -11.95, 
			 "cosmo_cavitation_energy": 33.65, 
			 "cosmo_dispersion_energy": -23.79, 
			 "cosmo_repulsion_energy": 1.9, 
			 "cosmo_total_nonelectrostatic_energy": 11.75, 
			 "SMD_solvation_energy": 5.68 
		},
		"coords": [
			{
				"x": 3.245951201,
				"y": -1.1870921298,
				"z": -1.847603734,
				"element": "C" 
			},
			{
				"x": 2.0944782691,
				"y": -1.3801273657,
				"z": -0.8921734584,
				"element": "C" 
			},
			{
				"x": 1.1380704933,
				"y": -0.359872829,
				"z": -0.6963019603,
				"element": "C" 
			},
			{
				"x": 1.2430760473,
				"y": 0.9518310351,
				"z": -1.4378233783,
				"element": "C" 
			},
			{
				"x": 0.084706465,
				"y": -0.5804691394,
				"z": 0.1955097162,
				"element": "C" 
			},
			{
				"x": -0.0490125549,
				"y": -1.7844107296,
				"z": 0.9040795549,
				"element": "C" 
			},
			{
				"x": 0.9086205727,
				"y": -2.7881379454,
				"z": 0.7022871453,
				"element": "C" 
			},
			{
				"x": 1.9586235729,
				"y": -2.5824110917,
				"z": -0.1838269626,
				"element": "C" 
			},
			{
				"x": -1.1579557567,
				"y": -2.0555186248,
				"z": 1.8740840792,
				"element": "C" 
			},
			{
				"x": -1.2145991029,
				"y": -3.1222866326,
				"z": 2.4702013531,
				"element": "O" 
			},
			{
				"x": -2.2022942919,
				"y": -0.97992378,
				"z": 2.1624263508,
				"element": "C" 
			},
			{
				"x": -1.7291747231,
				"y": -0.0436294368,
				"z": 3.2910962901,
				"element": "C" 
			},
			{
				"x": -2.7049543115,
				"y": 1.0781126611,
				"z": 3.6231729948,
				"element": "C" 
			},
			{
				"x": -4.2890911012,
				"y": 0.4645805049,
				"z": 4.2775761093,
				"element": "Cl" 
			},
			{
				"x": 2.8946296954,
				"y": -0.9940326289,
				"z": -2.8685357366,
				"element": "H" 
			},
			{
				"x": 3.8881432964,
				"y": -2.0707879073,
				"z": -1.8762605787,
				"element": "H" 
			},
			{
				"x": 3.8672326372,
				"y": -0.3293308749,
				"z": -1.5626084636,
				"element": "H" 
			},
			{
				"x": 1.212983694,
				"y": 0.806620008,
				"z": -2.5244346525,
				"element": "H" 
			},
			{
				"x": 2.1843347961,
				"y": 1.4691473897,
				"z": -1.2158287733,
				"element": "H" 
			},
			{
				"x": 0.4232806534,
				"y": 1.623620421,
				"z": -1.1701194702,
				"element": "H" 
			},
			{
				"x": -0.6432304928,
				"y": 0.2138352668,
				"z": 0.3313314219,
				"element": "H" 
			},
			{
				"x": 0.8050344389,
				"y": -3.7178108133,
				"z": 1.251311659,
				"element": "H" 
			},
			{
				"x": 2.6947981151,
				"y": -3.3679882957,
				"z": -0.3348064416,
				"element": "H" 
			},
			{
				"x": -2.4393357739,
				"y": -0.3964563842,
				"z": 1.2660873507,
				"element": "H" 
			},
			{
				"x": -3.1104678903,
				"y": -1.4974302442,
				"z": 2.4793321288,
				"element": "H" 
			},
			{
				"x": -1.5267828086,
				"y": -0.6350830248,
				"z": 4.1901381513,
				"element": "H" 
			},
			{
				"x": -0.7828245439,
				"y": 0.4370059158,
				"z": 3.0068116088,
				"element": "H" 
			},
			{
				"x": -2.2999267653,
				"y": 1.7365833822,
				"z": 4.3931567741,
				"element": "H" 
			},
			{
				"x": -2.9546138307,
				"y": 1.6732632937,
				"z": 2.7420209218,
				"element": "H" 
			}
		],
		 "valence_orbital": [ 
			{
				"type": "occ",
				"energy": -0.29604,
				"method": "rhf"
			},
			{
				"type": "occ",
				"energy": -0.29361,
				"method": "rhf"
			},
			{
				"type": "occ",
				"energy": -0.25625,
				"method": "rhf"
			},
			{
				"type": "occ",
				"energy": -0.24498,
				"method": "rhf"
			},
			{
				"type": "occ",
				"energy": -0.24411,
				"method": "rhf"
			},
			{
				"type": "unocc",
				"energy": -0.05451,
				"method": "rhf"
			},
			{
				"type": "unocc",
				"energy": -0.00701,
				"method": "rhf"
			},
			{
				"type": "unocc",
				"energy": 0.02518,
				"method": "rhf"
			},
			{
				"type": "unocc",
				"energy": 0.03894,
				"method": "rhf"
			},
			{
				"type": "unocc",
				"energy": 0.077,
				"method": "rhf"
			}
		],
		"cosmo_sigma_profile": { 
			"-0.025": 0.0,
			"-0.024": 0.0,
			"-0.023": 0.0,
			"-0.022": 0.0,
			"-0.021": 0.0,
			"-0.02": 0.0,
			"-0.019": 0.0,
			"-0.018": 0.0,
			"-0.017": 0.0,
			"-0.016": 0.0,
			"-0.015": 0.0,
			"-0.014": 0.0,
			"-0.013": 0.0,
			"-0.012": 0.0,
			"-0.011": 0.0,
			"-0.01": 0.0,
			"-0.009": 0.0,
			"-0.008": 0.35691627935,
			"-0.007": 6.40478196059,
			"-0.006": 10.5160381286,
			"-0.005": 19.9369872635,
			"-0.004": 29.9938755661,
			"-0.003": 25.5349489259,
			"-0.002": 24.3074821575,
			"-0.001": 22.1724266088,
			"0.0": 24.4494062575,
			"0.001": 16.2061838257,
			"0.002": 13.4489218851,
			"0.003": 14.39435779,
			"0.004": 16.1880417834,
			"0.005": 12.2473751318,
			"0.006": 9.78698987052,
			"0.007": 7.06515239573,
			"0.008": 1.00702928758,
			"0.009": 2.27271025845,
			"0.01": 1.78896039577,
			"0.011": 2.24401303243,
			"0.012": 4.23055677974,
			"0.013": 2.18275760288,
			"0.014": 0.372275632993,
			"0.015": 0.0,
			"0.016": 0.0,
			"0.017": 0.0,
			"0.018": 0.0,
			"0.019": 0.0,
			"0.02": 0.0,
			"0.021": 0.0,
			"0.022": 0.0,
			"0.023": 0.0,
			"0.024": 0.0,
			"0.025": 0.0
		}
	}
}
