{
	 "smiles": "FC(F)(F)COC1=CC=CC(OCC(F)(F)F)=C1C#N", 
	 "Tm": 389.15, 
	 "num_atms": 27, 
	 "gaussian": { 
		 "optdone": 1, 
		 "sigma_profile": "yes", 
		 "theory": "DFT", 
		 "functional": "B3LYP", 
		 "basiset": "6-31G**", 
		 "properties": { 
			 "R2extent": 8490.663, 
			 "electric_dipole_moment_norm": 3.95418778133, 
			 "electric_quadrupole_moment_norm": 5.86690637986, 
			 "total_energy": -1227.59352284, 
			 "HOMO_LUMO_gap": 0.19527, 
			 "cosmo_polarized_energy": -13.33, 
			 "cosmo_cavitation_energy": 35.82, 
			 "cosmo_dispersion_energy": -23.63, 
			 "cosmo_repulsion_energy": 1.71, 
			 "cosmo_total_nonelectrostatic_energy": 13.91, 
			 "SMD_solvation_energy": 9.87 
		},
		"coords": [
			{
				"x": -1.2911092201,
				"y": 3.9222003087,
				"z": 3.9363509671,
				"element": "F" 
			},
			{
				"x": -1.1631329047,
				"y": 2.5942124274,
				"z": 3.7351386813,
				"element": "C" 
			},
			{
				"x": -1.9554105693,
				"y": 1.9573795174,
				"z": 4.6152527197,
				"element": "F" 
			},
			{
				"x": 0.1129767499,
				"y": 2.2511609631,
				"z": 4.0114086738,
				"element": "F" 
			},
			{
				"x": -1.530276421,
				"y": 2.2607742923,
				"z": 2.2968131276,
				"element": "C" 
			},
			{
				"x": -1.4715693843,
				"y": 0.857144897,
				"z": 2.0762395865,
				"element": "O" 
			},
			{
				"x": -0.2770431615,
				"y": 0.2951517015,
				"z": 1.6980818497,
				"element": "C" 
			},
			{
				"x": 0.3180332761,
				"y": -0.6314276664,
				"z": 2.5512751129,
				"element": "C" 
			},
			{
				"x": 1.4860263133,
				"y": -1.274774482,
				"z": 2.1515405746,
				"element": "C" 
			},
			{
				"x": 2.0806215507,
				"y": -1.0087957728,
				"z": 0.915829458,
				"element": "C" 
			},
			{
				"x": 1.4768415186,
				"y": -0.0956859815,
				"z": 0.051344655,
				"element": "C" 
			},
			{
				"x": 1.9437210401,
				"y": 0.2438752215,
				"z": -1.1861911004,
				"element": "O" 
			},
			{
				"x": 2.8242162868,
				"y": -0.6140079451,
				"z": -1.8856360927,
				"element": "C" 
			},
			{
				"x": 4.2789981329,
				"y": -0.1816562923,
				"z": -1.7494946575,
				"element": "C" 
			},
			{
				"x": 4.4566118561,
				"y": 1.088343505,
				"z": -2.1389433667,
				"element": "F" 
			},
			{
				"x": 4.7300836172,
				"y": -0.2901271245,
				"z": -0.4807099393,
				"element": "F" 
			},
			{
				"x": 5.0430865897,
				"y": -0.9774581613,
				"z": -2.5274781426,
				"element": "F" 
			},
			{
				"x": 0.2818581813,
				"y": 0.5598866544,
				"z": 0.4302716129,
				"element": "C" 
			},
			{
				"x": -0.3688625432,
				"y": 1.4445003784,
				"z": -0.4832776871,
				"element": "C" 
			},
			{
				"x": -0.922476744,
				"y": 2.1717264231,
				"z": -1.2035444363,
				"element": "N" 
			},
			{
				"x": -2.5625137756,
				"y": 2.5697120139,
				"z": 2.1220296403,
				"element": "H" 
			},
			{
				"x": -0.875213451,
				"y": 2.8233747335,
				"z": 1.6268893243,
				"element": "H" 
			},
			{
				"x": -0.1381818229,
				"y": -0.8186499804,
				"z": 3.5159605697,
				"element": "H" 
			},
			{
				"x": 1.9617996429,
				"y": -1.9837719574,
				"z": 2.8219596574,
				"element": "H" 
			},
			{
				"x": 3.0194717134,
				"y": -1.4778926095,
				"z": 0.654929955,
				"element": "H" 
			},
			{
				"x": 2.5609085964,
				"y": -0.5383288458,
				"z": -2.9436159064,
				"element": "H" 
			},
			{
				"x": 2.7302349323,
				"y": -1.6572662181,
				"z": -1.5694248369,
				"element": "H" 
			}
		],
		 "valence_orbital": [ 
			{
				"type": "occ",
				"energy": -0.34249,
				"method": "rhf"
			},
			{
				"type": "occ",
				"energy": -0.33605,
				"method": "rhf"
			},
			{
				"type": "occ",
				"energy": -0.31675,
				"method": "rhf"
			},
			{
				"type": "occ",
				"energy": -0.26601,
				"method": "rhf"
			},
			{
				"type": "occ",
				"energy": -0.25454,
				"method": "rhf"
			},
			{
				"type": "unocc",
				"energy": -0.05927,
				"method": "rhf"
			},
			{
				"type": "unocc",
				"energy": -0.02097,
				"method": "rhf"
			},
			{
				"type": "unocc",
				"energy": 0.02509,
				"method": "rhf"
			},
			{
				"type": "unocc",
				"energy": 0.05927,
				"method": "rhf"
			},
			{
				"type": "unocc",
				"energy": 0.06569,
				"method": "rhf"
			}
		],
		"cosmo_sigma_profile": { 
			"-0.025": 0.0,
			"-0.024": 0.0,
			"-0.023": 0.0,
			"-0.022": 0.0,
			"-0.021": 0.0,
			"-0.02": 0.0,
			"-0.019": 0.0,
			"-0.018": 0.0,
			"-0.017": 0.0,
			"-0.016": 0.0,
			"-0.015": 0.0,
			"-0.014": 0.0,
			"-0.013": 0.0,
			"-0.012": 0.0555168125352,
			"-0.011": 0.805285516482,
			"-0.01": 4.40291771873,
			"-0.009": 8.80201617542,
			"-0.008": 9.88073601478,
			"-0.007": 12.8986489387,
			"-0.006": 12.9497057046,
			"-0.005": 10.3392582819,
			"-0.004": 8.9414956185,
			"-0.003": 9.09470216756,
			"-0.002": 11.8308408272,
			"-0.001": 17.8092570708,
			"0.0": 21.9912455471,
			"0.001": 24.3551500955,
			"0.002": 59.4808355081,
			"0.003": 37.1496681753,
			"0.004": 5.93535798793,
			"0.005": 4.20093929007,
			"0.006": 5.56282078919,
			"0.007": 4.79800610013,
			"0.008": 4.50075441949,
			"0.009": 3.82665536081,
			"0.01": 2.99159937308,
			"0.011": 2.34869957055,
			"0.012": 2.37866233721,
			"0.013": 1.0048501574,
			"0.014": 0.0,
			"0.015": 0.0,
			"0.016": 0.0,
			"0.017": 0.0,
			"0.018": 0.0,
			"0.019": 0.0,
			"0.02": 0.0,
			"0.021": 0.0,
			"0.022": 0.0,
			"0.023": 0.0,
			"0.024": 0.0,
			"0.025": 0.0
		}
	}
}
