{
	 "smiles": "COC1=NC=C(C=C1)N1C=NN=C1S", 
	 "Tm": 473.15, 
	 "num_atms": 22, 
	 "gaussian": { 
		 "optdone": 1, 
		 "sigma_profile": "yes", 
		 "theory": "DFT", 
		 "functional": "B3LYP", 
		 "basiset": "6-31G**", 
		 "properties": { 
			 "R2extent": 4104.4441, 
			 "electric_dipole_moment_norm": 6.5430583048, 
			 "electric_quadrupole_moment_norm": 26.2276794061, 
			 "total_energy": -1002.04008305, 
			 "HOMO_LUMO_gap": 0.19689, 
			 "cosmo_polarized_energy": -18.94, 
			 "cosmo_cavitation_energy": 29.12, 
			 "cosmo_dispersion_energy": -21.24, 
			 "cosmo_repulsion_energy": 1.64, 
			 "cosmo_total_nonelectrostatic_energy": 9.52, 
			 "SMD_solvation_energy": 3.23 
		},
		"coords": [
			{
				"x": 3.6128453895,
				"y": 1.5291597115,
				"z": -0.6203766558,
				"element": "C" 
			},
			{
				"x": 3.2508433495,
				"y": 0.314845495,
				"z": 0.0500553404,
				"element": "O" 
			},
			{
				"x": 1.9572623541,
				"y": -0.0514401067,
				"z": 0.0105416255,
				"element": "C" 
			},
			{
				"x": 1.0766358965,
				"y": 0.7093327634,
				"z": -0.6353902365,
				"element": "N" 
			},
			{
				"x": -0.2028414221,
				"y": 0.3161005024,
				"z": -0.6492231818,
				"element": "C" 
			},
			{
				"x": -0.6443274671,
				"y": -0.8523694664,
				"z": -0.033473835,
				"element": "C" 
			},
			{
				"x": 0.2940505313,
				"y": -1.6497758091,
				"z": 0.6422210998,
				"element": "C" 
			},
			{
				"x": 1.6161859954,
				"y": -1.2471717135,
				"z": 0.6750113408,
				"element": "C" 
			},
			{
				"x": -2.0211829497,
				"y": -1.2207276479,
				"z": -0.0705285829,
				"element": "N" 
			},
			{
				"x": -2.8848588412,
				"y": -1.2990206271,
				"z": 0.9961934694,
				"element": "C" 
			},
			{
				"x": -4.0773900494,
				"y": -1.6757136545,
				"z": 0.6125960531,
				"element": "N" 
			},
			{
				"x": -4.0241146694,
				"y": -1.8818531687,
				"z": -0.751424489,
				"element": "N" 
			},
			{
				"x": -2.8022468756,
				"y": -1.6115573093,
				"z": -1.1473389779,
				"element": "C" 
			},
			{
				"x": -2.284932188,
				"y": -1.635732983,
				"z": -2.8363946604,
				"element": "S" 
			},
			{
				"x": 3.3821446199,
				"y": 1.4715157796,
				"z": -1.6874981754,
				"element": "H" 
			},
			{
				"x": 4.6875259369,
				"y": 1.6310507657,
				"z": -0.4674382593,
				"element": "H" 
			},
			{
				"x": 3.0832174003,
				"y": 2.3852159585,
				"z": -0.1938007115,
				"element": "H" 
			},
			{
				"x": -0.9074177469,
				"y": 0.95552809,
				"z": -1.1751964446,
				"element": "H" 
			},
			{
				"x": -0.0227282712,
				"y": -2.5686140908,
				"z": 1.1263831898,
				"element": "H" 
			},
			{
				"x": 2.3834886319,
				"y": -1.8193664192,
				"z": 1.1830469505,
				"element": "H" 
			},
			{
				"x": -2.5826513897,
				"y": -1.0660951791,
				"z": 2.0075183755,
				"element": "H" 
			},
			{
				"x": -1.1977082351,
				"y": -2.4158108908,
				"z": -2.6567832346,
				"element": "H" 
			}
		],
		 "valence_orbital": [ 
			{
				"type": "occ",
				"energy": -0.29547,
				"method": "rhf"
			},
			{
				"type": "occ",
				"energy": -0.28563,
				"method": "rhf"
			},
			{
				"type": "occ",
				"energy": -0.26628,
				"method": "rhf"
			},
			{
				"type": "occ",
				"energy": -0.249,
				"method": "rhf"
			},
			{
				"type": "occ",
				"energy": -0.2451,
				"method": "rhf"
			},
			{
				"type": "unocc",
				"energy": -0.04821,
				"method": "rhf"
			},
			{
				"type": "unocc",
				"energy": -0.03343,
				"method": "rhf"
			},
			{
				"type": "unocc",
				"energy": -0.00273,
				"method": "rhf"
			},
			{
				"type": "unocc",
				"energy": 0.02435,
				"method": "rhf"
			},
			{
				"type": "unocc",
				"energy": 0.03854,
				"method": "rhf"
			}
		],
		"cosmo_sigma_profile": { 
			"-0.025": 0.0,
			"-0.024": 0.0,
			"-0.023": 0.0,
			"-0.022": 0.0,
			"-0.021": 0.0,
			"-0.02": 0.0,
			"-0.019": 0.0,
			"-0.018": 0.0,
			"-0.017": 0.0,
			"-0.016": 0.0,
			"-0.015": 0.0,
			"-0.014": 0.0,
			"-0.013": 0.0,
			"-0.012": 1.12254536227,
			"-0.011": 3.55690892485,
			"-0.01": 3.74616162069,
			"-0.009": 4.8397668493,
			"-0.008": 7.15092869907,
			"-0.007": 11.1327847685,
			"-0.006": 12.7233873107,
			"-0.005": 13.8900531871,
			"-0.004": 16.1256341466,
			"-0.003": 18.093252739,
			"-0.002": 14.9072081115,
			"-0.001": 15.3543156887,
			"0.0": 17.234915748,
			"0.001": 16.1439542182,
			"0.002": 12.8625731759,
			"0.003": 7.80321434803,
			"0.004": 9.27301931805,
			"0.005": 6.26937691421,
			"0.006": 6.24171470712,
			"0.007": 5.61245143658,
			"0.008": 5.65098850187,
			"0.009": 3.92334646825,
			"0.01": 4.24645556213,
			"0.011": 3.80727128318,
			"0.012": 3.69579527727,
			"0.013": 3.37544181158,
			"0.014": 3.16134967724,
			"0.015": 2.67012110621,
			"0.016": 1.61827598336,
			"0.017": 0.227952548482,
			"0.018": 0.0,
			"0.019": 0.0,
			"0.02": 0.0,
			"0.021": 0.0,
			"0.022": 0.0,
			"0.023": 0.0,
			"0.024": 0.0,
			"0.025": 0.0
		}
	}
}
