{
	 "smiles": "OC(=O)C1(CCCCC1)C1=CC=CS1", 
	 "Tm": 420.15, 
	 "num_atms": 28, 
	 "gaussian": { 
		 "optdone": 1, 
		 "sigma_profile": "yes", 
		 "theory": "DFT", 
		 "functional": "B3LYP", 
		 "basiset": "6-31G**", 
		 "properties": { 
			 "R2extent": 2948.3066, 
			 "electric_dipole_moment_norm": 4.71412000696, 
			 "electric_quadrupole_moment_norm": 14.2480077141, 
			 "total_energy": -976.240591512, 
			 "HOMO_LUMO_gap": 0.2073, 
			 "cosmo_polarized_energy": -11.75, 
			 "cosmo_cavitation_energy": 29.74, 
			 "cosmo_dispersion_energy": -21.98, 
			 "cosmo_repulsion_energy": 1.67, 
			 "cosmo_total_nonelectrostatic_energy": 9.43, 
			 "SMD_solvation_energy": 5.35 
		},
		"coords": [
			{
				"x": 0.3823957869,
				"y": -2.0845069187,
				"z": -1.3578686523,
				"element": "O" 
			},
			{
				"x": -0.8682211402,
				"y": -1.7408643192,
				"z": -0.9822380765,
				"element": "C" 
			},
			{
				"x": -1.8188617128,
				"y": -2.3969608776,
				"z": -1.3340138572,
				"element": "O" 
			},
			{
				"x": -1.0069116763,
				"y": -0.4258818999,
				"z": -0.1599555934,
				"element": "C" 
			},
			{
				"x": -1.23987917,
				"y": 0.7130903596,
				"z": -1.2196371647,
				"element": "C" 
			},
			{
				"x": -2.1807961867,
				"y": 1.8390220764,
				"z": -0.725484652,
				"element": "C" 
			},
			{
				"x": -2.1119049451,
				"y": 2.0334491058,
				"z": 0.7925866658,
				"element": "C" 
			},
			{
				"x": -2.562242931,
				"y": 0.7513935231,
				"z": 1.5289481485,
				"element": "C" 
			},
			{
				"x": -2.2783721721,
				"y": -0.5323042573,
				"z": 0.7178506575,
				"element": "C" 
			},
			{
				"x": 0.2455036494,
				"y": -0.2018785398,
				"z": 0.6777052244,
				"element": "C" 
			},
			{
				"x": 1.3623507187,
				"y": 0.5635975548,
				"z": 0.4225267922,
				"element": "C" 
			},
			{
				"x": 2.3909322578,
				"y": 0.4381057229,
				"z": 1.4071243122,
				"element": "C" 
			},
			{
				"x": 2.058227056,
				"y": -0.4293230302,
				"z": 2.4076778727,
				"element": "C" 
			},
			{
				"x": 0.4817877635,
				"y": -1.1054698003,
				"z": 2.1656869691,
				"element": "S" 
			},
			{
				"x": 1.0161853546,
				"y": -1.4821786472,
				"z": -0.931360787,
				"element": "H" 
			},
			{
				"x": -1.6794287906,
				"y": 0.2559881836,
				"z": -2.1113498331,
				"element": "H" 
			},
			{
				"x": -0.2798580005,
				"y": 1.1290797944,
				"z": -1.5359229137,
				"element": "H" 
			},
			{
				"x": -1.9337724647,
				"y": 2.7692963553,
				"z": -1.2488951525,
				"element": "H" 
			},
			{
				"x": -3.2136584753,
				"y": 1.5974433685,
				"z": -1.0053821687,
				"element": "H" 
			},
			{
				"x": -2.7341188882,
				"y": 2.8824290414,
				"z": 1.096235021,
				"element": "H" 
			},
			{
				"x": -1.0840450131,
				"y": 2.2855333883,
				"z": 1.0773435565,
				"element": "H" 
			},
			{
				"x": -2.0707594895,
				"y": 0.6984250425,
				"z": 2.5058322391,
				"element": "H" 
			},
			{
				"x": -3.6392608483,
				"y": 0.7948339857,
				"z": 1.7287288276,
				"element": "H" 
			},
			{
				"x": -3.1046771585,
				"y": -0.7549585677,
				"z": 0.0380688465,
				"element": "H" 
			},
			{
				"x": -2.2086340233,
				"y": -1.3997841802,
				"z": 1.3832747399,
				"element": "H" 
			},
			{
				"x": 1.4529284519,
				"y": 1.2187792539,
				"z": -0.4357237266,
				"element": "H" 
			},
			{
				"x": 3.3301769662,
				"y": 0.9777000882,
				"z": 1.3672958862,
				"element": "H" 
			},
			{
				"x": 2.6368150812,
				"y": -0.7066558061,
				"z": 3.2780468183,
				"element": "H" 
			}
		],
		 "valence_orbital": [ 
			{
				"type": "occ",
				"energy": -0.30996,
				"method": "rhf"
			},
			{
				"type": "occ",
				"energy": -0.30513,
				"method": "rhf"
			},
			{
				"type": "occ",
				"energy": -0.27548,
				"method": "rhf"
			},
			{
				"type": "occ",
				"energy": -0.26574,
				"method": "rhf"
			},
			{
				"type": "occ",
				"energy": -0.23801,
				"method": "rhf"
			},
			{
				"type": "unocc",
				"energy": -0.03071,
				"method": "rhf"
			},
			{
				"type": "unocc",
				"energy": 0.0103,
				"method": "rhf"
			},
			{
				"type": "unocc",
				"energy": 0.02286,
				"method": "rhf"
			},
			{
				"type": "unocc",
				"energy": 0.04734,
				"method": "rhf"
			},
			{
				"type": "unocc",
				"energy": 0.06978,
				"method": "rhf"
			}
		],
		"cosmo_sigma_profile": { 
			"-0.025": 0.0,
			"-0.024": 0.0,
			"-0.023": 0.0,
			"-0.022": 0.0,
			"-0.021": 0.0,
			"-0.02": 0.0,
			"-0.019": 0.0,
			"-0.018": 0.0,
			"-0.017": 0.0,
			"-0.016": 0.0,
			"-0.015": 0.0,
			"-0.014": 0.0,
			"-0.013": 0.127842344164,
			"-0.012": 0.360399709481,
			"-0.011": 1.13322979551,
			"-0.01": 1.72638466065,
			"-0.009": 2.09443455942,
			"-0.008": 4.85311053962,
			"-0.007": 6.31319504423,
			"-0.006": 7.31883696439,
			"-0.005": 8.12552296156,
			"-0.004": 11.2054757495,
			"-0.003": 21.1179107007,
			"-0.002": 27.357814118,
			"-0.001": 29.7112750422,
			"0.0": 28.2039701236,
			"0.001": 20.9947492351,
			"0.002": 10.892852358,
			"0.003": 12.1936955749,
			"0.004": 8.85326258355,
			"0.005": 5.10800197375,
			"0.006": 2.09058447913,
			"0.007": 2.72123322835,
			"0.008": 2.85513875121,
			"0.009": 3.1311407979,
			"0.01": 4.67390709125,
			"0.011": 4.62688677896,
			"0.012": 5.60545321601,
			"0.013": 1.8943160096,
			"0.014": 0.0733341102062,
			"0.015": 0.0,
			"0.016": 0.0,
			"0.017": 0.0,
			"0.018": 0.0,
			"0.019": 0.0,
			"0.02": 0.0,
			"0.021": 0.0,
			"0.022": 0.0,
			"0.023": 0.0,
			"0.024": 0.0,
			"0.025": 0.0
		}
	}
}
