{
	 "smiles": "NN1C(S)=NN=C1CC1=CC=C(F)C=C1", 
	 "Tm": 477.15, 
	 "num_atms": 24, 
	 "gaussian": { 
		 "optdone": 1, 
		 "sigma_profile": "yes", 
		 "theory": "DFT", 
		 "functional": "B3LYP", 
		 "basiset": "6-31G**", 
		 "properties": { 
			 "R2extent": 4862.6646, 
			 "electric_dipole_moment_norm": 6.21571637142, 
			 "electric_quadrupole_moment_norm": 27.0610958337, 
			 "total_energy": -1065.35014378, 
			 "HOMO_LUMO_gap": 0.19877, 
			 "cosmo_polarized_energy": -22.13, 
			 "cosmo_cavitation_energy": 30.94, 
			 "cosmo_dispersion_energy": -22.14, 
			 "cosmo_repulsion_energy": 1.67, 
			 "cosmo_total_nonelectrostatic_energy": 10.47, 
			 "SMD_solvation_energy": 3.31 
		},
		"coords": [
			{
				"x": 0.6223388349,
				"y": 0.0432045521,
				"z": 1.8982395281,
				"element": "N" 
			},
			{
				"x": 1.8631438649,
				"y": 0.3859246077,
				"z": 1.3543774605,
				"element": "N" 
			},
			{
				"x": 2.7663897602,
				"y": 1.2584358411,
				"z": 1.922995176,
				"element": "C" 
			},
			{
				"x": 2.5256067162,
				"y": 2.0593872347,
				"z": 3.471544046,
				"element": "S" 
			},
			{
				"x": 3.8187644255,
				"y": 1.3868748745,
				"z": 1.155591922,
				"element": "N" 
			},
			{
				"x": 3.6125311197,
				"y": 0.585595841,
				"z": 0.0367008369,
				"element": "N" 
			},
			{
				"x": 2.4524506375,
				"y": -0.0052289063,
				"z": 0.1649228838,
				"element": "C" 
			},
			{
				"x": 1.8062953192,
				"y": -0.918859786,
				"z": -0.8273553832,
				"element": "C" 
			},
			{
				"x": 0.5588245025,
				"y": -0.3283704483,
				"z": -1.4736176922,
				"element": "C" 
			},
			{
				"x": -0.6532854971,
				"y": -1.0297032714,
				"z": -1.4813138855,
				"element": "C" 
			},
			{
				"x": -1.7925035389,
				"y": -0.4981423686,
				"z": -2.0908624241,
				"element": "C" 
			},
			{
				"x": -1.7023631817,
				"y": 0.7502937052,
				"z": -2.6929619228,
				"element": "C" 
			},
			{
				"x": -2.7957152413,
				"y": 1.2742643262,
				"z": -3.2821567497,
				"element": "F" 
			},
			{
				"x": -0.5153825351,
				"y": 1.4774450012,
				"z": -2.7021397075,
				"element": "C" 
			},
			{
				"x": 0.610466636,
				"y": 0.932155133,
				"z": -2.0891434251,
				"element": "C" 
			},
			{
				"x": -0.1048564488,
				"y": 0.2354044119,
				"z": 1.2122815297,
				"element": "H" 
			},
			{
				"x": 0.6112242322,
				"y": -0.94935587,
				"z": 2.1226425141,
				"element": "H" 
			},
			{
				"x": 1.2811496118,
				"y": 1.5571229768,
				"z": 3.625155166,
				"element": "H" 
			},
			{
				"x": 2.5685225727,
				"y": -1.1288785113,
				"z": -1.5845926573,
				"element": "H" 
			},
			{
				"x": 1.5549111568,
				"y": -1.8783859706,
				"z": -0.3577649824,
				"element": "H" 
			},
			{
				"x": -0.7103048516,
				"y": -2.0117944938,
				"z": -1.0178326075,
				"element": "H" 
			},
			{
				"x": -2.7347407137,
				"y": -1.0351356752,
				"z": -2.1051848844,
				"element": "H" 
			},
			{
				"x": -0.4862439697,
				"y": 2.4492300763,
				"z": -3.1829940926,
				"element": "H" 
			},
			{
				"x": 1.5437765878,
				"y": 1.4885167198,
				"z": -2.0854306491,
				"element": "H" 
			}
		],
		 "valence_orbital": [ 
			{
				"type": "occ",
				"energy": -0.29562,
				"method": "rhf"
			},
			{
				"type": "occ",
				"energy": -0.27648,
				"method": "rhf"
			},
			{
				"type": "occ",
				"energy": -0.25605,
				"method": "rhf"
			},
			{
				"type": "occ",
				"energy": -0.25103,
				"method": "rhf"
			},
			{
				"type": "occ",
				"energy": -0.22779,
				"method": "rhf"
			},
			{
				"type": "unocc",
				"energy": -0.02902,
				"method": "rhf"
			},
			{
				"type": "unocc",
				"energy": -0.01783,
				"method": "rhf"
			},
			{
				"type": "unocc",
				"energy": 0.01264,
				"method": "rhf"
			},
			{
				"type": "unocc",
				"energy": 0.0198,
				"method": "rhf"
			},
			{
				"type": "unocc",
				"energy": 0.04126,
				"method": "rhf"
			}
		],
		"cosmo_sigma_profile": { 
			"-0.025": 0.0,
			"-0.024": 0.0,
			"-0.023": 0.0,
			"-0.022": 0.0,
			"-0.021": 0.0,
			"-0.02": 0.0,
			"-0.019": 0.0,
			"-0.018": 0.0,
			"-0.017": 0.0,
			"-0.016": 0.0,
			"-0.015": 0.037590453409,
			"-0.014": 1.39094643096,
			"-0.013": 1.8183303344,
			"-0.012": 2.16222024119,
			"-0.011": 3.57788978102,
			"-0.01": 3.65007069397,
			"-0.009": 4.63998272013,
			"-0.008": 5.04897123724,
			"-0.007": 11.7191862911,
			"-0.006": 13.4210686776,
			"-0.005": 13.0223238543,
			"-0.004": 14.635603819,
			"-0.003": 14.7589803426,
			"-0.002": 12.8656355121,
			"-0.001": 13.2717333545,
			"0.0": 14.6261891269,
			"0.001": 19.772620493,
			"0.002": 18.3615919767,
			"0.003": 17.8221857423,
			"0.004": 20.7237602425,
			"0.005": 10.4260768459,
			"0.006": 5.49402760574,
			"0.007": 4.07186843126,
			"0.008": 1.6303351377,
			"0.009": 1.3122785841,
			"0.01": 2.66259114328,
			"0.011": 1.87581858456,
			"0.012": 2.5092981467,
			"0.013": 2.97676615614,
			"0.014": 3.83092181991,
			"0.015": 2.46464274453,
			"0.016": 2.32060601236,
			"0.017": 1.16660274639,
			"0.018": 0.00107662363158,
			"0.019": 0.0,
			"0.02": 0.0,
			"0.021": 0.0,
			"0.022": 0.0,
			"0.023": 0.0,
			"0.024": 0.0,
			"0.025": 0.0
		}
	}
}
