{
	 "smiles": "FC(F)(F)COC(=O)NC1=CC=C(C=C1)C(F)(F)F", 
	 "Tm": 376.15, 
	 "num_atms": 26, 
	 "gaussian": { 
		 "optdone": 1, 
		 "sigma_profile": "yes", 
		 "theory": "DFT", 
		 "functional": "B3LYP", 
		 "basiset": "6-31G**", 
		 "properties": { 
			 "R2extent": 8131.2367, 
			 "electric_dipole_moment_norm": 1.92948493127, 
			 "electric_quadrupole_moment_norm": 20.8152093487, 
			 "total_energy": -1189.55685704, 
			 "HOMO_LUMO_gap": 0.20837, 
			 "cosmo_polarized_energy": -11.31, 
			 "cosmo_cavitation_energy": 34.43, 
			 "cosmo_dispersion_energy": -23.47, 
			 "cosmo_repulsion_energy": 1.68, 
			 "cosmo_total_nonelectrostatic_energy": 12.64, 
			 "SMD_solvation_energy": 9.28 
		},
		"coords": [
			{
				"x": -0.9171419781,
				"y": -2.7724598843,
				"z": -0.8114688707,
				"element": "F" 
			},
			{
				"x": -1.7898682895,
				"y": -1.8629497358,
				"z": -1.2806080781,
				"element": "C" 
			},
			{
				"x": -2.5788388613,
				"y": -2.4595762127,
				"z": -2.1950946862,
				"element": "F" 
			},
			{
				"x": -1.079053468,
				"y": -0.9002706677,
				"z": -1.9058004713,
				"element": "F" 
			},
			{
				"x": -2.643898269,
				"y": -1.2847584128,
				"z": -0.1655414423,
				"element": "C" 
			},
			{
				"x": -1.7956564275,
				"y": -0.5995046027,
				"z": 0.7495607735,
				"element": "O" 
			},
			{
				"x": -1.5598091682,
				"y": -1.2245095043,
				"z": 1.9381137112,
				"element": "C" 
			},
			{
				"x": -2.1403005515,
				"y": -2.2180298753,
				"z": 2.324254312,
				"element": "O" 
			},
			{
				"x": -0.6039871505,
				"y": -0.5778784262,
				"z": 2.6806941091,
				"element": "N" 
			},
			{
				"x": 0.217372768,
				"y": 0.5401740649,
				"z": 2.4220200156,
				"element": "C" 
			},
			{
				"x": 0.8038826138,
				"y": 1.1609256273,
				"z": 3.5374531094,
				"element": "C" 
			},
			{
				"x": 1.657669328,
				"y": 2.2451137905,
				"z": 3.3790752701,
				"element": "C" 
			},
			{
				"x": 1.9388161621,
				"y": 2.7325713078,
				"z": 2.1005791363,
				"element": "C" 
			},
			{
				"x": 1.3618237225,
				"y": 2.1138427421,
				"z": 0.989589691,
				"element": "C" 
			},
			{
				"x": 0.5123014037,
				"y": 1.020975972,
				"z": 1.1364736868,
				"element": "C" 
			},
			{
				"x": 2.8091908142,
				"y": 3.9442920727,
				"z": 1.9266979593,
				"element": "C" 
			},
			{
				"x": 2.0861952676,
				"y": 5.089786265,
				"z": 1.9397143506,
				"element": "F" 
			},
			{
				"x": 3.4777655718,
				"y": 3.9198531439,
				"z": 0.7521149605,
				"element": "F" 
			},
			{
				"x": 3.7251129522,
				"y": 4.0514175637,
				"z": 2.9158808235,
				"element": "F" 
			},
			{
				"x": -3.1855866953,
				"y": -2.0881600459,
				"z": 0.3358990068,
				"element": "H" 
			},
			{
				"x": -3.3374877498,
				"y": -0.5564793355,
				"z": -0.5897761238,
				"element": "H" 
			},
			{
				"x": -0.5201162859,
				"y": -0.9892666861,
				"z": 3.5999314038,
				"element": "H" 
			},
			{
				"x": 0.5842326016,
				"y": 0.7902011381,
				"z": 4.535248938,
				"element": "H" 
			},
			{
				"x": 2.1080189937,
				"y": 2.7109283975,
				"z": 4.2487314288,
				"element": "H" 
			},
			{
				"x": 1.591845915,
				"y": 2.4765788576,
				"z": -0.0064537604,
				"element": "H" 
			},
			{
				"x": 0.0903167804,
				"y": 0.5464824464,
				"z": 0.2625107464,
				"element": "H" 
			}
		],
		 "valence_orbital": [ 
			{
				"type": "occ",
				"energy": -0.33535,
				"method": "rhf"
			},
			{
				"type": "occ",
				"energy": -0.32263,
				"method": "rhf"
			},
			{
				"type": "occ",
				"energy": -0.30452,
				"method": "rhf"
			},
			{
				"type": "occ",
				"energy": -0.27468,
				"method": "rhf"
			},
			{
				"type": "occ",
				"energy": -0.24396,
				"method": "rhf"
			},
			{
				"type": "unocc",
				"energy": -0.03559,
				"method": "rhf"
			},
			{
				"type": "unocc",
				"energy": -0.02423,
				"method": "rhf"
			},
			{
				"type": "unocc",
				"energy": 0.03519,
				"method": "rhf"
			},
			{
				"type": "unocc",
				"energy": 0.05933,
				"method": "rhf"
			},
			{
				"type": "unocc",
				"energy": 0.08639,
				"method": "rhf"
			}
		],
		"cosmo_sigma_profile": { 
			"-0.025": 0.0,
			"-0.024": 0.0,
			"-0.023": 0.0,
			"-0.022": 0.0,
			"-0.021": 0.0,
			"-0.02": 0.0,
			"-0.019": 0.0,
			"-0.018": 0.0,
			"-0.017": 0.0,
			"-0.016": 0.505941626588,
			"-0.015": 1.39774800988,
			"-0.014": 1.1581096753,
			"-0.013": 1.03369055975,
			"-0.012": 1.02511689258,
			"-0.011": 1.59584500689,
			"-0.01": 2.1789108253,
			"-0.009": 4.88068292721,
			"-0.008": 5.24995342801,
			"-0.007": 8.37384620903,
			"-0.006": 9.20597585559,
			"-0.005": 9.8157650853,
			"-0.004": 10.2955726129,
			"-0.003": 12.5795637776,
			"-0.002": 13.7707138103,
			"-0.001": 16.7555227997,
			"0.0": 20.2426030982,
			"0.001": 24.814428776,
			"0.002": 51.1097236466,
			"0.003": 56.0747371416,
			"0.004": 8.18324950632,
			"0.005": 1.88679036502,
			"0.006": 1.26733886474,
			"0.007": 1.66412951637,
			"0.008": 1.01236262402,
			"0.009": 1.11125159571,
			"0.01": 2.14290689439,
			"0.011": 3.61154415164,
			"0.012": 3.32504429148,
			"0.013": 0.119544012949,
			"0.014": 0.0,
			"0.015": 0.0,
			"0.016": 0.0,
			"0.017": 0.0,
			"0.018": 0.0,
			"0.019": 0.0,
			"0.02": 0.0,
			"0.021": 0.0,
			"0.022": 0.0,
			"0.023": 0.0,
			"0.024": 0.0,
			"0.025": 0.0
		}
	}
}
