{
	 "smiles": "CC1=CC=C(C=C1)N1NC(C(O)=O)=C(CCO)C1=O", 
	 "Tm": 473.15, 
	 "num_atms": 33, 
	 "gaussian": { 
		 "optdone": 1, 
		 "sigma_profile": "yes", 
		 "theory": "DFT", 
		 "functional": "B3LYP", 
		 "basiset": "6-31G**", 
		 "properties": { 
			 "R2extent": 6578.2365, 
			 "electric_dipole_moment_norm": 4.12007128336, 
			 "electric_quadrupole_moment_norm": 12.0255519774, 
			 "total_energy": -914.202680106, 
			 "HOMO_LUMO_gap": 0.14505, 
			 "cosmo_polarized_energy": -22.59, 
			 "cosmo_cavitation_energy": 36.82, 
			 "cosmo_dispersion_energy": -26.45, 
			 "cosmo_repulsion_energy": 2.03, 
			 "cosmo_total_nonelectrostatic_energy": 12.4, 
			 "SMD_solvation_energy": 7.87 
		},
		"coords": [
			{
				"x": 4.7438136791,
				"y": 2.2144174471,
				"z": -3.3664601922,
				"element": "C" 
			},
			{
				"x": 3.5124140951,
				"y": 1.8915905811,
				"z": -2.5542712449,
				"element": "C" 
			},
			{
				"x": 2.7971873403,
				"y": 0.706232817,
				"z": -2.7517513567,
				"element": "C" 
			},
			{
				"x": 1.6716407028,
				"y": 0.3969154739,
				"z": -1.9888968338,
				"element": "C" 
			},
			{
				"x": 1.2288716469,
				"y": 1.2903724265,
				"z": -1.0055583615,
				"element": "C" 
			},
			{
				"x": 1.9292911296,
				"y": 2.4886978879,
				"z": -0.7899687222,
				"element": "C" 
			},
			{
				"x": 3.0549090089,
				"y": 2.7669802389,
				"z": -1.558062758,
				"element": "C" 
			},
			{
				"x": 0.0671440257,
				"y": 1.0016242394,
				"z": -0.2534642701,
				"element": "N" 
			},
			{
				"x": -0.7624492709,
				"y": -0.0647802675,
				"z": -0.6456639134,
				"element": "N" 
			},
			{
				"x": -1.7626788131,
				"y": -0.1467645963,
				"z": 0.3530460056,
				"element": "C" 
			},
			{
				"x": -2.8111175611,
				"y": -1.1879287098,
				"z": 0.2221817562,
				"element": "C" 
			},
			{
				"x": -2.5126084035,
				"y": -2.1846480674,
				"z": -0.6442442906,
				"element": "O" 
			},
			{
				"x": -3.866479641,
				"y": -1.1644994166,
				"z": 0.8153034146,
				"element": "O" 
			},
			{
				"x": -1.5351288528,
				"y": 0.731180835,
				"z": 1.357606499,
				"element": "C" 
			},
			{
				"x": -2.232156526,
				"y": 0.8948854219,
				"z": 2.6669801313,
				"element": "C" 
			},
			{
				"x": -1.8697471528,
				"y": -0.2105104408,
				"z": 3.6833490264,
				"element": "C" 
			},
			{
				"x": -2.1290314729,
				"y": -1.5178528628,
				"z": 3.2088003979,
				"element": "O" 
			},
			{
				"x": -0.3308156169,
				"y": 1.5044054476,
				"z": 0.9963792579,
				"element": "C" 
			},
			{
				"x": 0.2345435074,
				"y": 2.3832299009,
				"z": 1.6337513621,
				"element": "O" 
			},
			{
				"x": 4.8566199619,
				"y": 1.5292446497,
				"z": -4.2112528806,
				"element": "H" 
			},
			{
				"x": 5.653077114,
				"y": 2.1408603806,
				"z": -2.7575564743,
				"element": "H" 
			},
			{
				"x": 4.7053748251,
				"y": 3.2346116334,
				"z": -3.7634550277,
				"element": "H" 
			},
			{
				"x": 3.1268197938,
				"y": 0.0011327733,
				"z": -3.5104689113,
				"element": "H" 
			},
			{
				"x": 1.1564332836,
				"y": -0.5442284711,
				"z": -2.1438616106,
				"element": "H" 
			},
			{
				"x": 1.5948428617,
				"y": 3.1710215952,
				"z": -0.0205256612,
				"element": "H" 
			},
			{
				"x": 3.5890595898,
				"y": 3.6969379884,
				"z": -1.3791604543,
				"element": "H" 
			},
			{
				"x": -1.1385427065,
				"y": 0.1159212547,
				"z": -1.5797556411,
				"element": "H" 
			},
			{
				"x": -1.5685906357,
				"y": -2.1385818704,
				"z": -0.870998668,
				"element": "H" 
			},
			{
				"x": -3.3157282535,
				"y": 0.8937267066,
				"z": 2.5106642067,
				"element": "H" 
			},
			{
				"x": -1.9469629847,
				"y": 1.8652387269,
				"z": 3.0873207158,
				"element": "H" 
			},
			{
				"x": -0.798179559,
				"y": -0.1757664635,
				"z": 3.9050761413,
				"element": "H" 
			},
			{
				"x": -2.4073011286,
				"y": -0.0018006941,
				"z": 4.6215697399,
				"element": "H" 
			},
			{
				"x": -3.0520239869,
				"y": -1.5583665653,
				"z": 2.9202486179,
				"element": "H" 
			}
		],
		 "valence_orbital": [ 
			{
				"type": "occ",
				"energy": -0.27198,
				"method": "rhf"
			},
			{
				"type": "occ",
				"energy": -0.26759,
				"method": "rhf"
			},
			{
				"type": "occ",
				"energy": -0.26083,
				"method": "rhf"
			},
			{
				"type": "occ",
				"energy": -0.25405,
				"method": "rhf"
			},
			{
				"type": "occ",
				"energy": -0.22273,
				"method": "rhf"
			},
			{
				"type": "unocc",
				"energy": -0.07768,
				"method": "rhf"
			},
			{
				"type": "unocc",
				"energy": -0.01298,
				"method": "rhf"
			},
			{
				"type": "unocc",
				"energy": -0.00747,
				"method": "rhf"
			},
			{
				"type": "unocc",
				"energy": 0.02677,
				"method": "rhf"
			},
			{
				"type": "unocc",
				"energy": 0.04641,
				"method": "rhf"
			}
		],
		"cosmo_sigma_profile": { 
			"-0.025": 0.0,
			"-0.024": 0.0,
			"-0.023": 0.0,
			"-0.022": 0.0,
			"-0.021": 0.0,
			"-0.02": 0.0,
			"-0.019": 0.0,
			"-0.018": 0.0,
			"-0.017": 1.55256491161,
			"-0.016": 2.8704969761,
			"-0.015": 2.77582749562,
			"-0.014": 2.29171926281,
			"-0.013": 2.4580233598,
			"-0.012": 2.06173874011,
			"-0.011": 2.47363446785,
			"-0.01": 3.00469586295,
			"-0.009": 2.2921335457,
			"-0.008": 2.5094089734,
			"-0.007": 3.77865650542,
			"-0.006": 6.49416047846,
			"-0.005": 13.7446860414,
			"-0.004": 25.5467746747,
			"-0.003": 26.5678947288,
			"-0.002": 25.2463363481,
			"-0.001": 23.1826003955,
			"0.0": 22.5843670644,
			"0.001": 16.470853252,
			"0.002": 13.3055800404,
			"0.003": 12.7180398685,
			"0.004": 13.9265797103,
			"0.005": 14.0587580527,
			"0.006": 6.87898676247,
			"0.007": 4.87361795081,
			"0.008": 5.66602778067,
			"0.009": 7.34376110029,
			"0.01": 7.03419675881,
			"0.011": 4.87741478276,
			"0.012": 5.44456218227,
			"0.013": 5.34081076441,
			"0.014": 2.24904504505,
			"0.015": 0.332208321843,
			"0.016": 0.0,
			"0.017": 0.0,
			"0.018": 0.0,
			"0.019": 0.0,
			"0.02": 0.0,
			"0.021": 0.0,
			"0.022": 0.0,
			"0.023": 0.0,
			"0.024": 0.0,
			"0.025": 0.0
		}
	}
}
