{
	 "smiles": "[O-][N+](=O)C1=CC(Cl)=C(C=C1)N1CCNCC1", 
	 "Tm": 379.15, 
	 "num_atms": 28, 
	 "gaussian": { 
		 "optdone": 1, 
		 "sigma_profile": "yes", 
		 "theory": "DFT", 
		 "functional": "B3LYP", 
		 "basiset": "6-31G**", 
		 "properties": { 
			 "R2extent": 5587.7203, 
			 "electric_dipole_moment_norm": 5.49402144972, 
			 "electric_quadrupole_moment_norm": 31.791920344, 
			 "total_energy": -1163.06728957, 
			 "HOMO_LUMO_gap": 0.14084, 
			 "cosmo_polarized_energy": -12.81, 
			 "cosmo_cavitation_energy": 32.21, 
			 "cosmo_dispersion_energy": -23.71, 
			 "cosmo_repulsion_energy": 1.81, 
			 "cosmo_total_nonelectrostatic_energy": 10.3, 
			 "SMD_solvation_energy": 3.96 
		},
		"coords": [
			{
				"x": 5.2800040712,
				"y": -1.7804232205,
				"z": -0.9202083739,
				"element": "O" 
			},
			{
				"x": 4.3836473624,
				"y": -1.2007308053,
				"z": -1.5368309428,
				"element": "N" 
			},
			{
				"x": 4.5487219709,
				"y": -0.5671938556,
				"z": -2.5812716455,
				"element": "O" 
			},
			{
				"x": 3.0313983385,
				"y": -1.2722490632,
				"z": -0.9906245055,
				"element": "C" 
			},
			{
				"x": 2.0000476553,
				"y": -0.5977247067,
				"z": -1.6429116689,
				"element": "C" 
			},
			{
				"x": 0.7164565564,
				"y": -0.658140275,
				"z": -1.1246617032,
				"element": "C" 
			},
			{
				"x": -0.500657487,
				"y": 0.3450389652,
				"z": -1.9059750678,
				"element": "Cl" 
			},
			{
				"x": 0.4091129478,
				"y": -1.4189267014,
				"z": 0.0392818026,
				"element": "C" 
			},
			{
				"x": 1.5005224146,
				"y": -2.0593116837,
				"z": 0.6738032576,
				"element": "C" 
			},
			{
				"x": 2.7935363542,
				"y": -1.9914245185,
				"z": 0.1773188808,
				"element": "C" 
			},
			{
				"x": -0.8692685343,
				"y": -1.4816659969,
				"z": 0.5769412774,
				"element": "N" 
			},
			{
				"x": -2.0307893217,
				"y": -1.8827978154,
				"z": -0.2305957696,
				"element": "C" 
			},
			{
				"x": -3.2587563865,
				"y": -1.0406651261,
				"z": 0.1959346853,
				"element": "C" 
			},
			{
				"x": -3.1883786245,
				"y": -0.6060464796,
				"z": 1.5971507777,
				"element": "N" 
			},
			{
				"x": -2.5095396946,
				"y": -1.6041184759,
				"z": 2.4147190454,
				"element": "C" 
			},
			{
				"x": -1.0350893116,
				"y": -1.864609537,
				"z": 1.9814130237,
				"element": "C" 
			},
			{
				"x": 2.2174268765,
				"y": -0.0097291946,
				"z": -2.5249136236,
				"element": "H" 
			},
			{
				"x": 1.3164996669,
				"y": -2.6473619618,
				"z": 1.5640291355,
				"element": "H" 
			},
			{
				"x": 3.613657991,
				"y": -2.5017574851,
				"z": 0.6664389055,
				"element": "H" 
			},
			{
				"x": -1.8199477948,
				"y": -1.7621711841,
				"z": -1.2911443725,
				"element": "H" 
			},
			{
				"x": -2.2193804128,
				"y": -2.9558083018,
				"z": -0.0631052191,
				"element": "H" 
			},
			{
				"x": -3.3401611466,
				"y": -0.1496650524,
				"z": -0.432682377,
				"element": "H" 
			},
			{
				"x": -4.1695174225,
				"y": -1.6346880466,
				"z": 0.0426235168,
				"element": "H" 
			},
			{
				"x": -2.6633283335,
				"y": 0.2634466124,
				"z": 1.6401926421,
				"element": "H" 
			},
			{
				"x": -3.0862974099,
				"y": -2.5345026232,
				"z": 2.3534227726,
				"element": "H" 
			},
			{
				"x": -2.5275754903,
				"y": -1.2948584859,
				"z": 3.4642727827,
				"element": "H" 
			},
			{
				"x": -0.3468837039,
				"y": -1.2588035918,
				"z": 2.5805416187,
				"element": "H" 
			},
			{
				"x": -0.7824611312,
				"y": -2.9253113898,
				"z": 2.1580411451,
				"element": "H" 
			}
		],
		 "valence_orbital": [ 
			{
				"type": "occ",
				"energy": -0.30216,
				"method": "rhf"
			},
			{
				"type": "occ",
				"energy": -0.28533,
				"method": "rhf"
			},
			{
				"type": "occ",
				"energy": -0.27106,
				"method": "rhf"
			},
			{
				"type": "occ",
				"energy": -0.23803,
				"method": "rhf"
			},
			{
				"type": "occ",
				"energy": -0.22521,
				"method": "rhf"
			},
			{
				"type": "unocc",
				"energy": -0.08437,
				"method": "rhf"
			},
			{
				"type": "unocc",
				"energy": -0.03281,
				"method": "rhf"
			},
			{
				"type": "unocc",
				"energy": 0.00136,
				"method": "rhf"
			},
			{
				"type": "unocc",
				"energy": 0.01512,
				"method": "rhf"
			},
			{
				"type": "unocc",
				"energy": 0.06456,
				"method": "rhf"
			}
		],
		"cosmo_sigma_profile": { 
			"-0.025": 0.0,
			"-0.024": 0.0,
			"-0.023": 0.0,
			"-0.022": 0.0,
			"-0.021": 0.0,
			"-0.02": 0.0,
			"-0.019": 0.0,
			"-0.018": 0.0,
			"-0.017": 0.0,
			"-0.016": 0.0,
			"-0.015": 0.0,
			"-0.014": 0.0,
			"-0.013": 0.0,
			"-0.012": 0.0,
			"-0.011": 0.0,
			"-0.01": 0.634030573485,
			"-0.009": 1.10496253818,
			"-0.008": 1.97056148419,
			"-0.007": 5.8749425955,
			"-0.006": 7.26676923166,
			"-0.005": 16.250350801,
			"-0.004": 31.7239965457,
			"-0.003": 28.7425898517,
			"-0.002": 23.9501513997,
			"-0.001": 21.674395747,
			"0.0": 20.6162231154,
			"0.001": 20.7017706277,
			"0.002": 12.7186527324,
			"0.003": 11.0316748122,
			"0.004": 9.70805546366,
			"0.005": 5.82806992128,
			"0.006": 3.95743099002,
			"0.007": 5.57791888906,
			"0.008": 10.7177599026,
			"0.009": 5.44184269529,
			"0.01": 5.32932161912,
			"0.011": 1.88249984198,
			"0.012": 0.540111215478,
			"0.013": 1.02283768652,
			"0.014": 0.323453180806,
			"0.015": 0.475071340011,
			"0.016": 0.592836083032,
			"0.017": 0.585032214921,
			"0.018": 0.500424136307,
			"0.019": 0.0526981100496,
			"0.02": 0.0,
			"0.021": 0.0,
			"0.022": 0.0,
			"0.023": 0.0,
			"0.024": 0.0,
			"0.025": 0.0
		}
	}
}
