{
	 "smiles": "NC1=NC(=NN1)C1=CC=C(C=C1)[N+]([O-])=O", 
	 "Tm": 552.15, 
	 "num_atms": 22, 
	 "gaussian": { 
		 "optdone": 1, 
		 "sigma_profile": "yes", 
		 "theory": "DFT", 
		 "functional": "B3LYP", 
		 "basiset": "6-31G**", 
		 "properties": { 
			 "R2extent": 5155.0052, 
			 "electric_dipole_moment_norm": 9.2516005799, 
			 "electric_quadrupole_moment_norm": 14.7331846958, 
			 "total_energy": -733.176065595, 
			 "HOMO_LUMO_gap": 0.14918, 
			 "cosmo_polarized_energy": -20.37, 
			 "cosmo_cavitation_energy": 28.11, 
			 "cosmo_dispersion_energy": -21.1, 
			 "cosmo_repulsion_energy": 1.65, 
			 "cosmo_total_nonelectrostatic_energy": 8.66, 
			 "SMD_solvation_energy": 4.69 
		},
		"coords": [
			{
				"x": -0.0187890798,
				"y": -1.496330012,
				"z": 3.3553118365,
				"element": "N" 
			},
			{
				"x": 0.2617935262,
				"y": -1.2411301205,
				"z": 2.0301820787,
				"element": "C" 
			},
			{
				"x": -0.3793744578,
				"y": -0.3932609472,
				"z": 1.2467514287,
				"element": "N" 
			},
			{
				"x": 0.3326677069,
				"y": -0.4547275407,
				"z": 0.0736485976,
				"element": "C" 
			},
			{
				"x": 1.3618679413,
				"y": -1.2921168912,
				"z": 0.0866975238,
				"element": "N" 
			},
			{
				"x": 1.3047709729,
				"y": -1.7923910562,
				"z": 1.3560995948,
				"element": "N" 
			},
			{
				"x": -0.0212904339,
				"y": 0.3377724967,
				"z": -1.1099942957,
				"element": "C" 
			},
			{
				"x": -1.1155616881,
				"y": 1.2165011657,
				"z": -1.0601902241,
				"element": "C" 
			},
			{
				"x": -1.462387061,
				"y": 1.9743508738,
				"z": -2.1728790965,
				"element": "C" 
			},
			{
				"x": -0.7049709088,
				"y": 1.8451401305,
				"z": -3.3362753271,
				"element": "C" 
			},
			{
				"x": 0.3873697569,
				"y": 0.9795373597,
				"z": -3.4131526144,
				"element": "C" 
			},
			{
				"x": 0.7252783077,
				"y": 0.2270057704,
				"z": -2.2961657647,
				"element": "C" 
			},
			{
				"x": -1.0667658739,
				"y": 2.6423694753,
				"z": -4.5150011646,
				"element": "N" 
			},
			{
				"x": -2.0348673379,
				"y": 3.3980766286,
				"z": -4.4209237341,
				"element": "O" 
			},
			{
				"x": -0.3810648557,
				"y": 2.5088532223,
				"z": -5.5295185665,
				"element": "O" 
			},
			{
				"x": -0.9118020833,
				"y": -1.1093640701,
				"z": 3.6310075899,
				"element": "H" 
			},
			{
				"x": 0.0954241542,
				"y": -2.4556025363,
				"z": 3.6551626972,
				"element": "H" 
			},
			{
				"x": 2.0217746443,
				"y": -2.422070282,
				"z": 1.6821484278,
				"element": "H" 
			},
			{
				"x": -1.6840104393,
				"y": 1.2937921992,
				"z": -0.1404326057,
				"element": "H" 
			},
			{
				"x": -2.3014394669,
				"y": 2.6584360143,
				"z": -2.1580652168,
				"element": "H" 
			},
			{
				"x": 0.9472250709,
				"y": 0.9114946219,
				"z": -4.3373100435,
				"element": "H" 
			},
			{
				"x": 1.568851605,
				"y": -0.4534365021,
				"z": -2.328301121,
				"element": "H" 
			}
		],
		 "valence_orbital": [ 
			{
				"type": "occ",
				"energy": -0.28783,
				"method": "rhf"
			},
			{
				"type": "occ",
				"energy": -0.28064,
				"method": "rhf"
			},
			{
				"type": "occ",
				"energy": -0.271,
				"method": "rhf"
			},
			{
				"type": "occ",
				"energy": -0.26706,
				"method": "rhf"
			},
			{
				"type": "occ",
				"energy": -0.23316,
				"method": "rhf"
			},
			{
				"type": "unocc",
				"energy": -0.08398,
				"method": "rhf"
			},
			{
				"type": "unocc",
				"energy": -0.01901,
				"method": "rhf"
			},
			{
				"type": "unocc",
				"energy": -0.01412,
				"method": "rhf"
			},
			{
				"type": "unocc",
				"energy": 0.02539,
				"method": "rhf"
			},
			{
				"type": "unocc",
				"energy": 0.04761,
				"method": "rhf"
			}
		],
		"cosmo_sigma_profile": { 
			"-0.025": 0.0,
			"-0.024": 0.0,
			"-0.023": 0.0,
			"-0.022": 0.0,
			"-0.021": 0.0,
			"-0.02": 0.0,
			"-0.019": 0.0,
			"-0.018": 0.400870985822,
			"-0.017": 2.54030102517,
			"-0.016": 1.92984345461,
			"-0.015": 2.32382535985,
			"-0.014": 3.06572313513,
			"-0.013": 3.83469937765,
			"-0.012": 3.50012387587,
			"-0.011": 3.20089651222,
			"-0.01": 2.41788683021,
			"-0.009": 2.47987679263,
			"-0.008": 2.62777662291,
			"-0.007": 5.28330545839,
			"-0.006": 9.75972487762,
			"-0.005": 8.23183129413,
			"-0.004": 8.13839910411,
			"-0.003": 9.11140075509,
			"-0.002": 10.3835393084,
			"-0.001": 12.7191309094,
			"0.0": 16.7500329605,
			"0.001": 25.3862613856,
			"0.002": 18.405186241,
			"0.003": 8.56311008566,
			"0.004": 6.54241738153,
			"0.005": 7.49931320942,
			"0.006": 7.59598162621,
			"0.007": 9.42096433667,
			"0.008": 12.2589579733,
			"0.009": 7.93613272325,
			"0.01": 5.59141730204,
			"0.011": 3.36834812546,
			"0.012": 2.48032691284,
			"0.013": 1.8604063938,
			"0.014": 0.109822177514,
			"0.015": 0.0,
			"0.016": 0.0,
			"0.017": 0.0,
			"0.018": 0.0,
			"0.019": 0.0,
			"0.02": 0.0,
			"0.021": 0.0,
			"0.022": 0.0,
			"0.023": 0.0,
			"0.024": 0.0,
			"0.025": 0.0
		}
	}
}
