{
	 "smiles": "CSC=CC(O)=O", 
	 "Tm": 392.15, 
	 "num_atms": 13, 
	 "gaussian": { 
		 "optdone": 1, 
		 "sigma_profile": "yes", 
		 "theory": "DFT", 
		 "functional": "B3LYP", 
		 "basiset": "6-31G**", 
		 "properties": { 
			 "R2extent": 2037.249, 
			 "electric_dipole_moment_norm": 3.74364151462, 
			 "electric_quadrupole_moment_norm": 11.3288233065, 
			 "total_energy": -704.669740772, 
			 "HOMO_LUMO_gap": 0.18382, 
			 "cosmo_polarized_energy": -11.77, 
			 "cosmo_cavitation_energy": 19.03, 
			 "cosmo_dispersion_energy": -14.62, 
			 "cosmo_repulsion_energy": 1.21, 
			 "cosmo_total_nonelectrostatic_energy": 5.61, 
			 "SMD_solvation_energy": 5.31 
		},
		"coords": [
			{
				"x": -2.1131676843,
				"y": -1.8791863527,
				"z": -1.1701295638,
				"element": "C" 
			},
			{
				"x": -0.3105427804,
				"y": -1.5694515928,
				"z": -1.2405901627,
				"element": "S" 
			},
			{
				"x": 0.1417328154,
				"y": -2.1395123403,
				"z": 0.3534463143,
				"element": "C" 
			},
			{
				"x": 1.364372349,
				"y": -2.1778082032,
				"z": 0.9236058272,
				"element": "C" 
			},
			{
				"x": 2.6402827947,
				"y": -1.7455713397,
				"z": 0.3440690918,
				"element": "C" 
			},
			{
				"x": 2.5198189794,
				"y": -1.2560582581,
				"z": -0.9200916919,
				"element": "O" 
			},
			{
				"x": 3.7135113045,
				"y": -1.8070528409,
				"z": 0.9140449796,
				"element": "O" 
			},
			{
				"x": -2.5144879425,
				"y": -1.5549548922,
				"z": -2.1324115348,
				"element": "H" 
			},
			{
				"x": -2.58574786,
				"y": -1.2953914011,
				"z": -0.3773385353,
				"element": "H" 
			},
			{
				"x": -2.3288475542,
				"y": -2.9417053153,
				"z": -1.0390473831,
				"element": "H" 
			},
			{
				"x": -0.6986581192,
				"y": -2.5061676448,
				"z": 0.9391767971,
				"element": "H" 
			},
			{
				"x": 1.4535269763,
				"y": -2.5687295071,
				"z": 1.9311476484,
				"element": "H" 
			},
			{
				"x": 3.4160067214,
				"y": -1.0046103118,
				"z": -1.1971817867,
				"element": "H" 
			}
		],
		 "valence_orbital": [ 
			{
				"type": "occ",
				"energy": -0.32631,
				"method": "rhf"
			},
			{
				"type": "occ",
				"energy": -0.32429,
				"method": "rhf"
			},
			{
				"type": "occ",
				"energy": -0.31086,
				"method": "rhf"
			},
			{
				"type": "occ",
				"energy": -0.26849,
				"method": "rhf"
			},
			{
				"type": "occ",
				"energy": -0.22866,
				"method": "rhf"
			},
			{
				"type": "unocc",
				"energy": -0.04484,
				"method": "rhf"
			},
			{
				"type": "unocc",
				"energy": 0.03056,
				"method": "rhf"
			},
			{
				"type": "unocc",
				"energy": 0.07204,
				"method": "rhf"
			},
			{
				"type": "unocc",
				"energy": 0.08964,
				"method": "rhf"
			},
			{
				"type": "unocc",
				"energy": 0.0914,
				"method": "rhf"
			}
		],
		"cosmo_sigma_profile": { 
			"-0.025": 0.0,
			"-0.024": 0.0,
			"-0.023": 0.0,
			"-0.022": 0.0,
			"-0.021": 0.0,
			"-0.02": 0.0,
			"-0.019": 0.0,
			"-0.018": 0.531639968733,
			"-0.017": 0.932521517686,
			"-0.016": 0.694500547298,
			"-0.015": 0.991243646128,
			"-0.014": 0.885453129915,
			"-0.013": 0.470547887789,
			"-0.012": 0.415062705395,
			"-0.011": 0.679216151821,
			"-0.01": 0.958405334271,
			"-0.009": 1.11955574686,
			"-0.008": 3.34766286332,
			"-0.007": 7.80220371578,
			"-0.006": 12.5595755169,
			"-0.005": 9.05499851776,
			"-0.004": 9.1879550486,
			"-0.003": 8.49699140538,
			"-0.002": 11.0204455809,
			"-0.001": 8.32174238429,
			"0.0": 7.64778600745,
			"0.001": 7.31300415436,
			"0.002": 7.61369582862,
			"0.003": 8.77639974431,
			"0.004": 6.24644562468,
			"0.005": 5.29108218069,
			"0.006": 5.45873992867,
			"0.007": 6.21662242635,
			"0.008": 5.08710105731,
			"0.009": 2.62023390374,
			"0.01": 1.91450726481,
			"0.011": 2.39261925634,
			"0.012": 4.91738496615,
			"0.013": 3.52651343093,
			"0.014": 0.284311870781,
			"0.015": 0.0,
			"0.016": 0.0,
			"0.017": 0.0,
			"0.018": 0.0,
			"0.019": 0.0,
			"0.02": 0.0,
			"0.021": 0.0,
			"0.022": 0.0,
			"0.023": 0.0,
			"0.024": 0.0,
			"0.025": 0.0
		}
	}
}
