{
	 "smiles": "N#CCCOCCC#N", 
	 "Tm": 246.85, 
	 "num_atms": 17, 
	 "gaussian": { 
		 "optdone": 1, 
		 "sigma_profile": "yes", 
		 "theory": "DFT", 
		 "functional": "B3LYP", 
		 "basiset": "6-31G**", 
		 "properties": { 
			 "R2extent": 1675.8773, 
			 "electric_dipole_moment_norm": 8.00512698275, 
			 "electric_quadrupole_moment_norm": 15.2846709372, 
			 "total_energy": -418.134406384, 
			 "HOMO_LUMO_gap": 0.31095, 
			 "cosmo_polarized_energy": -20.89, 
			 "cosmo_cavitation_energy": 23.27, 
			 "cosmo_dispersion_energy": -15.32, 
			 "cosmo_repulsion_energy": 1.33, 
			 "cosmo_total_nonelectrostatic_energy": 9.27, 
			 "SMD_solvation_energy": 6.95 
		},
		"coords": [
			{
				"x": 1.1252161569,
				"y": 3.3558742114,
				"z": 0.041971599,
				"element": "N" 
			},
			{
				"x": 0.1502414085,
				"y": 2.7335640409,
				"z": 0.1309744702,
				"element": "C" 
			},
			{
				"x": -1.0978162485,
				"y": 1.9713575552,
				"z": 0.2270961892,
				"element": "C" 
			},
			{
				"x": -1.0461223228,
				"y": 0.6251341388,
				"z": -0.5010808496,
				"element": "C" 
			},
			{
				"x": -0.1378426936,
				"y": -0.2122926773,
				"z": 0.1833863815,
				"element": "O" 
			},
			{
				"x": 0.0043226195,
				"y": -1.4859747954,
				"z": -0.4101123171,
				"element": "C" 
			},
			{
				"x": 1.0207543723,
				"y": -2.2853619655,
				"z": 0.4102994624,
				"element": "C" 
			},
			{
				"x": 2.3843552657,
				"y": -1.7553048407,
				"z": 0.3238632226,
				"element": "C" 
			},
			{
				"x": 3.4714876771,
				"y": -1.3584215736,
				"z": 0.2439582882,
				"element": "N" 
			},
			{
				"x": -1.9091541753,
				"y": 2.5776868157,
				"z": -0.1915846748,
				"element": "H" 
			},
			{
				"x": -1.3281821061,
				"y": 1.7982207701,
				"z": 1.2839013549,
				"element": "H" 
			},
			{
				"x": -0.7389379858,
				"y": 0.7679994675,
				"z": -1.5482200523,
				"element": "H" 
			},
			{
				"x": -2.0573482865,
				"y": 0.1863413887,
				"z": -0.503336809,
				"element": "H" 
			},
			{
				"x": -0.9554787862,
				"y": -2.0280982182,
				"z": -0.4076430893,
				"element": "H" 
			},
			{
				"x": 0.3392105464,
				"y": -1.3993372262,
				"z": -1.4549149133,
				"element": "H" 
			},
			{
				"x": 0.7077929003,
				"y": -2.2920023785,
				"z": 1.4600066084,
				"element": "H" 
			},
			{
				"x": 1.0285016581,
				"y": -3.3246847129,
				"z": 0.0625351288,
				"element": "H" 
			}
		],
		 "valence_orbital": [ 
			{
				"type": "occ",
				"energy": -0.32633,
				"method": "rhf"
			},
			{
				"type": "occ",
				"energy": -0.32417,
				"method": "rhf"
			},
			{
				"type": "occ",
				"energy": -0.32356,
				"method": "rhf"
			},
			{
				"type": "occ",
				"energy": -0.32169,
				"method": "rhf"
			},
			{
				"type": "occ",
				"energy": -0.289,
				"method": "rhf"
			},
			{
				"type": "unocc",
				"energy": 0.02195,
				"method": "rhf"
			},
			{
				"type": "unocc",
				"energy": 0.03299,
				"method": "rhf"
			},
			{
				"type": "unocc",
				"energy": 0.03796,
				"method": "rhf"
			},
			{
				"type": "unocc",
				"energy": 0.03823,
				"method": "rhf"
			},
			{
				"type": "unocc",
				"energy": 0.07873,
				"method": "rhf"
			}
		],
		"cosmo_sigma_profile": { 
			"-0.025": 0.0,
			"-0.024": 0.0,
			"-0.023": 0.0,
			"-0.022": 0.0,
			"-0.021": 0.0,
			"-0.02": 0.0,
			"-0.019": 0.0,
			"-0.018": 0.0,
			"-0.017": 0.0,
			"-0.016": 0.0,
			"-0.015": 0.0,
			"-0.014": 0.0,
			"-0.013": 0.0,
			"-0.012": 0.0,
			"-0.011": 0.0,
			"-0.01": 0.0,
			"-0.009": 5.46232405871,
			"-0.008": 11.7425655767,
			"-0.007": 12.3355500269,
			"-0.006": 23.4792454772,
			"-0.005": 24.867153726,
			"-0.004": 12.4322448384,
			"-0.003": 4.84337577739,
			"-0.002": 3.60042681962,
			"-0.001": 4.67962081009,
			"0.0": 3.61230672621,
			"0.001": 4.04681250663,
			"0.002": 4.53076252589,
			"0.003": 4.11062702348,
			"0.004": 6.20711049988,
			"0.005": 5.13643530474,
			"0.006": 9.55265053589,
			"0.007": 6.50539568326,
			"0.008": 8.04520328922,
			"0.009": 7.91010272012,
			"0.01": 6.70000143971,
			"0.011": 5.90825756719,
			"0.012": 5.08589548172,
			"0.013": 4.03208140662,
			"0.014": 0.670231098577,
			"0.015": 0.0,
			"0.016": 0.0,
			"0.017": 0.0,
			"0.018": 0.0,
			"0.019": 0.0,
			"0.02": 0.0,
			"0.021": 0.0,
			"0.022": 0.0,
			"0.023": 0.0,
			"0.024": 0.0,
			"0.025": 0.0
		}
	}
}
