{
	 "smiles": "OC(=O)C1=C(F)C=CC=C1C(F)(F)F", 
	 "Tm": 361.65, 
	 "num_atms": 18, 
	 "gaussian": { 
		 "optdone": 1, 
		 "sigma_profile": "yes", 
		 "theory": "DFT", 
		 "functional": "B3LYP", 
		 "basiset": "6-31G**", 
		 "properties": { 
			 "R2extent": 3026.639, 
			 "electric_dipole_moment_norm": 2.65717851301, 
			 "electric_quadrupole_moment_norm": 16.9579502473, 
			 "total_energy": -857.074719307, 
			 "HOMO_LUMO_gap": 0.21161, 
			 "cosmo_polarized_energy": -10.37, 
			 "cosmo_cavitation_energy": 24.76, 
			 "cosmo_dispersion_energy": -17.49, 
			 "cosmo_repulsion_energy": 1.3, 
			 "cosmo_total_nonelectrostatic_energy": 8.57, 
			 "SMD_solvation_energy": 6.89 
		},
		"coords": [
			{
				"x": -1.7415179204,
				"y": -0.5787779093,
				"z": 0.3418247803,
				"element": "O" 
			},
			{
				"x": -0.5796027969,
				"y": -0.6547313742,
				"z": 1.0225750815,
				"element": "C" 
			},
			{
				"x": -0.3845486212,
				"y": -0.104014284,
				"z": 2.0802409267,
				"element": "O" 
			},
			{
				"x": 0.4241703024,
				"y": -1.5324908386,
				"z": 0.328309623,
				"element": "C" 
			},
			{
				"x": 0.961327009,
				"y": -2.6046698337,
				"z": 1.044913901,
				"element": "C" 
			},
			{
				"x": 0.5146653994,
				"y": -2.8427870557,
				"z": 2.2884580078,
				"element": "F" 
			},
			{
				"x": 1.9197661543,
				"y": -3.4585202454,
				"z": 0.5119175181,
				"element": "C" 
			},
			{
				"x": 2.3765451289,
				"y": -3.2263672998,
				"z": -0.7819937338,
				"element": "C" 
			},
			{
				"x": 1.8727149014,
				"y": -2.1573778762,
				"z": -1.523655914,
				"element": "C" 
			},
			{
				"x": 0.9007950339,
				"y": -1.3164446191,
				"z": -0.9788580981,
				"element": "C" 
			},
			{
				"x": 0.3783998031,
				"y": -0.176110876,
				"z": -1.8269685487,
				"element": "C" 
			},
			{
				"x": -0.8071263047,
				"y": -0.4708755546,
				"z": -2.3946100308,
				"element": "F" 
			},
			{
				"x": 1.2337772885,
				"y": 0.1184566744,
				"z": -2.8309412922,
				"element": "F" 
			},
			{
				"x": 0.2141566373,
				"y": 0.9528643876,
				"z": -1.102408807,
				"element": "F" 
			},
			{
				"x": -2.3130440233,
				"y": 0.0291248396,
				"z": 0.8418824971,
				"element": "H" 
			},
			{
				"x": 2.2880769886,
				"y": -4.279824101,
				"z": 1.116486091,
				"element": "H" 
			},
			{
				"x": 3.1303921303,
				"y": -3.8768373633,
				"z": -1.2135521806,
				"element": "H" 
			},
			{
				"x": 2.2405528897,
				"y": -1.9643166708,
				"z": -2.5237198212,
				"element": "H" 
			}
		],
		 "valence_orbital": [ 
			{
				"type": "occ",
				"energy": -0.36743,
				"method": "rhf"
			},
			{
				"type": "occ",
				"energy": -0.32812,
				"method": "rhf"
			},
			{
				"type": "occ",
				"energy": -0.29799,
				"method": "rhf"
			},
			{
				"type": "occ",
				"energy": -0.28189,
				"method": "rhf"
			},
			{
				"type": "occ",
				"energy": -0.26841,
				"method": "rhf"
			},
			{
				"type": "unocc",
				"energy": -0.0568,
				"method": "rhf"
			},
			{
				"type": "unocc",
				"energy": -0.03014,
				"method": "rhf"
			},
			{
				"type": "unocc",
				"energy": 0.01235,
				"method": "rhf"
			},
			{
				"type": "unocc",
				"energy": 0.06981,
				"method": "rhf"
			},
			{
				"type": "unocc",
				"energy": 0.0818,
				"method": "rhf"
			}
		],
		"cosmo_sigma_profile": { 
			"-0.025": 0.0,
			"-0.024": 0.0,
			"-0.023": 0.0,
			"-0.022": 0.0,
			"-0.021": 0.0,
			"-0.02": 0.0,
			"-0.019": 0.663435319769,
			"-0.018": 1.15661421813,
			"-0.017": 0.783189952134,
			"-0.016": 0.937023189901,
			"-0.015": 0.442003992094,
			"-0.014": 0.39737496668,
			"-0.013": 0.890159136273,
			"-0.012": 1.11283108761,
			"-0.011": 0.594932633271,
			"-0.01": 0.417350899509,
			"-0.009": 1.16896297246,
			"-0.008": 5.90608177353,
			"-0.007": 7.24478821028,
			"-0.006": 7.06104360896,
			"-0.005": 6.18073551138,
			"-0.004": 7.30669980407,
			"-0.003": 7.1461628326,
			"-0.002": 10.9385743782,
			"-0.001": 16.4410905267,
			"0.0": 19.2034719282,
			"0.001": 19.1805943667,
			"0.002": 29.646169183,
			"0.003": 21.7706862451,
			"0.004": 7.14414915709,
			"0.005": 3.95612171018,
			"0.006": 3.31242308485,
			"0.007": 3.92720247354,
			"0.008": 2.93256555729,
			"0.009": 2.61962707517,
			"0.01": 3.83017030164,
			"0.011": 4.45425921744,
			"0.012": 0.485431472355,
			"0.013": 0.0,
			"0.014": 0.0,
			"0.015": 0.0,
			"0.016": 0.0,
			"0.017": 0.0,
			"0.018": 0.0,
			"0.019": 0.0,
			"0.02": 0.0,
			"0.021": 0.0,
			"0.022": 0.0,
			"0.023": 0.0,
			"0.024": 0.0,
			"0.025": 0.0
		}
	}
}
