{
	 "smiles": "CC(=O)C1=CC=C(O)C(=C1)C(O)=O", 
	 "Tm": 488.15, 
	 "num_atms": 21, 
	 "gaussian": { 
		 "optdone": 1, 
		 "sigma_profile": "yes", 
		 "theory": "DFT", 
		 "functional": "B3LYP", 
		 "basiset": "6-31G**", 
		 "properties": { 
			 "R2extent": 3328.0092, 
			 "electric_dipole_moment_norm": 3.53910512277, 
			 "electric_quadrupole_moment_norm": 8.15970205093, 
			 "total_energy": -648.701405898, 
			 "HOMO_LUMO_gap": 0.18237, 
			 "cosmo_polarized_energy": -14.03, 
			 "cosmo_cavitation_energy": 25.83, 
			 "cosmo_dispersion_energy": -19.09, 
			 "cosmo_repulsion_energy": 1.5, 
			 "cosmo_total_nonelectrostatic_energy": 8.24, 
			 "SMD_solvation_energy": 6.64 
		},
		"coords": [
			{
				"x": -1.2975316269,
				"y": 0.478759929,
				"z": 1.7909145539,
				"element": "C" 
			},
			{
				"x": -1.8614566212,
				"y": -0.1486066638,
				"z": 0.5272140422,
				"element": "C" 
			},
			{
				"x": -3.0690658898,
				"y": -0.2603503204,
				"z": 0.3707618053,
				"element": "O" 
			},
			{
				"x": -0.9144855458,
				"y": -0.6285040786,
				"z": -0.5249310395,
				"element": "C" 
			},
			{
				"x": -1.4476564482,
				"y": -1.2102593701,
				"z": -1.6958342674,
				"element": "C" 
			},
			{
				"x": -0.6244840972,
				"y": -1.6719806394,
				"z": -2.702916679,
				"element": "C" 
			},
			{
				"x": 0.7755979979,
				"y": -1.5736443829,
				"z": -2.5865863598,
				"element": "C" 
			},
			{
				"x": 1.4938772462,
				"y": -2.0502934133,
				"z": -3.6180509468,
				"element": "O" 
			},
			{
				"x": 1.3316470456,
				"y": -0.9923068891,
				"z": -1.417810733,
				"element": "C" 
			},
			{
				"x": 0.4683161427,
				"y": -0.5307941085,
				"z": -0.4087862894,
				"element": "C" 
			},
			{
				"x": 2.7778920664,
				"y": -0.8281171728,
				"z": -1.1677600641,
				"element": "C" 
			},
			{
				"x": 3.5664133069,
				"y": -1.2994517792,
				"z": -2.1913187709,
				"element": "O" 
			},
			{
				"x": 3.2811217193,
				"y": -0.3363542623,
				"z": -0.1806400617,
				"element": "O" 
			},
			{
				"x": -0.6956950867,
				"y": 1.3637880091,
				"z": 1.5568729397,
				"element": "H" 
			},
			{
				"x": -2.1274429785,
				"y": 0.7659472183,
				"z": 2.436937352,
				"element": "H" 
			},
			{
				"x": -0.6480742995,
				"y": -0.2242730007,
				"z": 2.3240270417,
				"element": "H" 
			},
			{
				"x": -2.5270445933,
				"y": -1.2835047962,
				"z": -1.7800801291,
				"element": "H" 
			},
			{
				"x": -1.0257937645,
				"y": -2.1201547586,
				"z": -3.6055978212,
				"element": "H" 
			},
			{
				"x": 2.442376184,
				"y": -1.9315745571,
				"z": -3.4313161345,
				"element": "H" 
			},
			{
				"x": 0.9337749982,
				"y": -0.0934511502,
				"z": 0.4674107127,
				"element": "H" 
			},
			{
				"x": 4.4883142443,
				"y": -1.1443738133,
				"z": -1.9271091511,
				"element": "H" 
			}
		],
		 "valence_orbital": [ 
			{
				"type": "occ",
				"energy": -0.33442,
				"method": "rhf"
			},
			{
				"type": "occ",
				"energy": -0.30036,
				"method": "rhf"
			},
			{
				"type": "occ",
				"energy": -0.27511,
				"method": "rhf"
			},
			{
				"type": "occ",
				"energy": -0.24879,
				"method": "rhf"
			},
			{
				"type": "occ",
				"energy": -0.2435,
				"method": "rhf"
			},
			{
				"type": "unocc",
				"energy": -0.06113,
				"method": "rhf"
			},
			{
				"type": "unocc",
				"energy": -0.05093,
				"method": "rhf"
			},
			{
				"type": "unocc",
				"energy": 0.0194,
				"method": "rhf"
			},
			{
				"type": "unocc",
				"energy": 0.05388,
				"method": "rhf"
			},
			{
				"type": "unocc",
				"energy": 0.06465,
				"method": "rhf"
			}
		],
		"cosmo_sigma_profile": { 
			"-0.025": 0.0,
			"-0.024": 0.0,
			"-0.023": 0.0,
			"-0.022": 0.0,
			"-0.021": 0.0,
			"-0.02": 0.0631271556425,
			"-0.019": 0.726343767382,
			"-0.018": 1.24264459825,
			"-0.017": 0.288209344033,
			"-0.016": 0.91088990398,
			"-0.015": 0.576221378501,
			"-0.014": 0.881591096838,
			"-0.013": 0.814681818872,
			"-0.012": 0.901512323455,
			"-0.011": 1.13316031939,
			"-0.01": 0.850071119457,
			"-0.009": 1.64998178192,
			"-0.008": 1.75061795121,
			"-0.007": 4.94448756958,
			"-0.006": 12.7985320953,
			"-0.005": 12.9900315953,
			"-0.004": 15.0186655884,
			"-0.003": 13.8657216154,
			"-0.002": 14.9583446098,
			"-0.001": 16.3515886547,
			"0.0": 16.7228429338,
			"0.001": 18.3678372773,
			"0.002": 14.4012001015,
			"0.003": 7.75739774608,
			"0.004": 4.61647598259,
			"0.005": 3.84191713384,
			"0.006": 3.69646347823,
			"0.007": 3.98238367551,
			"0.008": 5.10173559271,
			"0.009": 4.1970890555,
			"0.01": 6.32961279132,
			"0.011": 8.0067195591,
			"0.012": 4.79637981335,
			"0.013": 1.568215366,
			"0.014": 0.266139978816,
			"0.015": 0.0,
			"0.016": 0.0,
			"0.017": 0.0,
			"0.018": 0.0,
			"0.019": 0.0,
			"0.02": 0.0,
			"0.021": 0.0,
			"0.022": 0.0,
			"0.023": 0.0,
			"0.024": 0.0,
			"0.025": 0.0
		}
	}
}
