{
	 "smiles": "CC(=O)NC1=C(C=O)C=CC=C1", 
	 "Tm": 341.15, 
	 "num_atms": 21, 
	 "gaussian": { 
		 "optdone": 1, 
		 "sigma_profile": "yes", 
		 "theory": "DFT", 
		 "functional": "B3LYP", 
		 "basiset": "6-31G**", 
		 "properties": { 
			 "R2extent": 2199.3732, 
			 "electric_dipole_moment_norm": 4.25527287139, 
			 "electric_quadrupole_moment_norm": 12.9837894881, 
			 "total_energy": -553.583852637, 
			 "HOMO_LUMO_gap": 0.17411, 
			 "cosmo_polarized_energy": -14.14, 
			 "cosmo_cavitation_energy": 25.38, 
			 "cosmo_dispersion_energy": -18.01, 
			 "cosmo_repulsion_energy": 1.44, 
			 "cosmo_total_nonelectrostatic_energy": 8.81, 
			 "SMD_solvation_energy": 6.37 
		},
		"coords": [
			{
				"x": -1.5083384689,
				"y": -1.8461239964,
				"z": 0.2074720122,
				"element": "C" 
			},
			{
				"x": -0.8329406952,
				"y": -2.189343721,
				"z": -1.106907412,
				"element": "C" 
			},
			{
				"x": -1.1728511738,
				"y": -3.137467466,
				"z": -1.7947863281,
				"element": "O" 
			},
			{
				"x": 0.2137929031,
				"y": -1.3734231252,
				"z": -1.5322001967,
				"element": "N" 
			},
			{
				"x": 0.8972943017,
				"y": -0.3561928203,
				"z": -0.811246493,
				"element": "C" 
			},
			{
				"x": 0.2765402048,
				"y": 0.8712064703,
				"z": -0.4979992347,
				"element": "C" 
			},
			{
				"x": -1.0728561492,
				"y": 1.2264569448,
				"z": -1.0057383968,
				"element": "C" 
			},
			{
				"x": -1.6807410923,
				"y": 2.2245376685,
				"z": -0.6627494005,
				"element": "O" 
			},
			{
				"x": 0.9800029597,
				"y": 1.8292535327,
				"z": 0.2503228819,
				"element": "C" 
			},
			{
				"x": 2.2936923777,
				"y": 1.6045469961,
				"z": 0.6412135892,
				"element": "C" 
			},
			{
				"x": 2.9228211836,
				"y": 0.4058210653,
				"z": 0.2854300142,
				"element": "C" 
			},
			{
				"x": 2.2279438965,
				"y": -0.5695126325,
				"z": -0.4263182302,
				"element": "C" 
			},
			{
				"x": -0.8023763053,
				"y": -1.5016244789,
				"z": 0.9669232721,
				"element": "H" 
			},
			{
				"x": -2.0233363764,
				"y": -2.7423919599,
				"z": 0.5535310508,
				"element": "H" 
			},
			{
				"x": -2.2564306771,
				"y": -1.0595907958,
				"z": 0.0635306749,
				"element": "H" 
			},
			{
				"x": 0.6983970953,
				"y": -1.7785356814,
				"z": -2.3250014005,
				"element": "H" 
			},
			{
				"x": -1.4954642254,
				"y": 0.5341434444,
				"z": -1.7591047702,
				"element": "H" 
			},
			{
				"x": 0.4680111535,
				"y": 2.7571668448,
				"z": 0.484988928,
				"element": "H" 
			},
			{
				"x": 2.832506228,
				"y": 2.3563529233,
				"z": 1.2094884067,
				"element": "H" 
			},
			{
				"x": 3.9529563163,
				"y": 0.2234813774,
				"z": 0.5773976556,
				"element": "H" 
			},
			{
				"x": 2.7030765435,
				"y": -1.5145605901,
				"z": -0.673446623,
				"element": "H" 
			}
		],
		 "valence_orbital": [ 
			{
				"type": "occ",
				"energy": -0.29966,
				"method": "rhf"
			},
			{
				"type": "occ",
				"energy": -0.275,
				"method": "rhf"
			},
			{
				"type": "occ",
				"energy": -0.26871,
				"method": "rhf"
			},
			{
				"type": "occ",
				"energy": -0.2579,
				"method": "rhf"
			},
			{
				"type": "occ",
				"energy": -0.24753,
				"method": "rhf"
			},
			{
				"type": "unocc",
				"energy": -0.07342,
				"method": "rhf"
			},
			{
				"type": "unocc",
				"energy": -0.03065,
				"method": "rhf"
			},
			{
				"type": "unocc",
				"energy": 0.01711,
				"method": "rhf"
			},
			{
				"type": "unocc",
				"energy": 0.02589,
				"method": "rhf"
			},
			{
				"type": "unocc",
				"energy": 0.08189,
				"method": "rhf"
			}
		],
		"cosmo_sigma_profile": { 
			"-0.025": 0.0,
			"-0.024": 0.0,
			"-0.023": 0.0,
			"-0.022": 0.0,
			"-0.021": 0.0,
			"-0.02": 0.0,
			"-0.019": 0.0,
			"-0.018": 0.0,
			"-0.017": 0.0,
			"-0.016": 0.0,
			"-0.015": 0.150844933246,
			"-0.014": 0.986492614324,
			"-0.013": 1.03299868327,
			"-0.012": 1.16838680188,
			"-0.011": 0.885704947731,
			"-0.01": 0.989999595832,
			"-0.009": 1.5930451905,
			"-0.008": 2.22172511601,
			"-0.007": 8.301686144,
			"-0.006": 13.4913963329,
			"-0.005": 17.2684199872,
			"-0.004": 15.9144395525,
			"-0.003": 16.7871176788,
			"-0.002": 17.3455486267,
			"-0.001": 14.0313300731,
			"0.0": 10.5854664656,
			"0.001": 12.2366377036,
			"0.002": 13.2600927137,
			"0.003": 10.7192059879,
			"0.004": 4.88075833205,
			"0.005": 2.89613884199,
			"0.006": 2.52635989549,
			"0.007": 2.92969417971,
			"0.008": 2.56687709961,
			"0.009": 2.87793599653,
			"0.01": 4.57845152133,
			"0.011": 5.92726471545,
			"0.012": 5.22729922786,
			"0.013": 6.38895564555,
			"0.014": 2.48457322126,
			"0.015": 0.148674115457,
			"0.016": 0.0,
			"0.017": 0.0,
			"0.018": 0.0,
			"0.019": 0.0,
			"0.02": 0.0,
			"0.021": 0.0,
			"0.022": 0.0,
			"0.023": 0.0,
			"0.024": 0.0,
			"0.025": 0.0
		}
	}
}
