{
	 "smiles": "CCCC1=NC=C(S1)C(O)=O", 
	 "Tm": 409.15, 
	 "num_atms": 20, 
	 "gaussian": { 
		 "optdone": 1, 
		 "sigma_profile": "yes", 
		 "theory": "DFT", 
		 "functional": "B3LYP", 
		 "basiset": "6-31G**", 
		 "properties": { 
			 "R2extent": 3825.6181, 
			 "electric_dipole_moment_norm": 5.19424094743, 
			 "electric_quadrupole_moment_norm": 18.7254174282, 
			 "total_energy": -875.561922178, 
			 "HOMO_LUMO_gap": 0.19131, 
			 "cosmo_polarized_energy": -14.02, 
			 "cosmo_cavitation_energy": 25.82, 
			 "cosmo_dispersion_energy": -19.06, 
			 "cosmo_repulsion_energy": 1.51, 
			 "cosmo_total_nonelectrostatic_energy": 8.26, 
			 "SMD_solvation_energy": 3.83 
		},
		"coords": [
			{
				"x": 2.6658951775,
				"y": -0.872350254,
				"z": 0.4578863089,
				"element": "C" 
			},
			{
				"x": 1.9872029834,
				"y": 0.2332558239,
				"z": 1.2706100489,
				"element": "C" 
			},
			{
				"x": 1.1152187616,
				"y": -0.2936447747,
				"z": 2.4347568458,
				"element": "C" 
			},
			{
				"x": -0.0673311459,
				"y": -1.1045390439,
				"z": 1.9922044205,
				"element": "C" 
			},
			{
				"x": -0.1174185233,
				"y": -2.4089160119,
				"z": 1.9766245464,
				"element": "N" 
			},
			{
				"x": -1.3105894139,
				"y": -2.8660699491,
				"z": 1.4902523188,
				"element": "C" 
			},
			{
				"x": -2.2255238673,
				"y": -1.9153564903,
				"z": 1.1119823365,
				"element": "C" 
			},
			{
				"x": -1.5373242698,
				"y": -0.331735336,
				"z": 1.387210845,
				"element": "S" 
			},
			{
				"x": -3.5697805426,
				"y": -2.2223029651,
				"z": 0.569492391,
				"element": "C" 
			},
			{
				"x": -4.3751824222,
				"y": -1.1775623561,
				"z": 0.245308049,
				"element": "O" 
			},
			{
				"x": -3.9544581609,
				"y": -3.3573105967,
				"z": 0.4126868812,
				"element": "O" 
			},
			{
				"x": 3.2742082485,
				"y": -0.4453050339,
				"z": -0.3454624944,
				"element": "H" 
			},
			{
				"x": 1.9338192668,
				"y": -1.5468566397,
				"z": 0.0038343954,
				"element": "H" 
			},
			{
				"x": 3.322723477,
				"y": -1.4792129356,
				"z": 1.0904316014,
				"element": "H" 
			},
			{
				"x": 1.3693664102,
				"y": 0.8580206379,
				"z": 0.6133197961,
				"element": "H" 
			},
			{
				"x": 2.746782616,
				"y": 0.8969098495,
				"z": 1.7008156772,
				"element": "H" 
			},
			{
				"x": 1.7137326427,
				"y": -0.9426919147,
				"z": 3.0822389557,
				"element": "H" 
			},
			{
				"x": 0.7715749946,
				"y": 0.5515518901,
				"z": 3.0418776785,
				"element": "H" 
			},
			{
				"x": -1.5014257663,
				"y": -3.9298866568,
				"z": 1.419539282,
				"element": "H" 
			},
			{
				"x": -3.9493904662,
				"y": -0.3266972432,
				"z": 0.4224901159,
				"element": "H" 
			}
		],
		 "valence_orbital": [ 
			{
				"type": "occ",
				"energy": -0.32275,
				"method": "rhf"
			},
			{
				"type": "occ",
				"energy": -0.30428,
				"method": "rhf"
			},
			{
				"type": "occ",
				"energy": -0.29098,
				"method": "rhf"
			},
			{
				"type": "occ",
				"energy": -0.28135,
				"method": "rhf"
			},
			{
				"type": "occ",
				"energy": -0.26102,
				"method": "rhf"
			},
			{
				"type": "unocc",
				"energy": -0.06971,
				"method": "rhf"
			},
			{
				"type": "unocc",
				"energy": -0.01905,
				"method": "rhf"
			},
			{
				"type": "unocc",
				"energy": 0.00625,
				"method": "rhf"
			},
			{
				"type": "unocc",
				"energy": 0.05186,
				"method": "rhf"
			},
			{
				"type": "unocc",
				"energy": 0.08265,
				"method": "rhf"
			}
		],
		"cosmo_sigma_profile": { 
			"-0.025": 0.0,
			"-0.024": 0.0,
			"-0.023": 0.0,
			"-0.022": 0.0,
			"-0.021": 0.0,
			"-0.02": 0.0,
			"-0.019": 0.0969352981271,
			"-0.018": 0.792509545437,
			"-0.017": 0.929713370645,
			"-0.016": 0.926572824202,
			"-0.015": 0.807546899215,
			"-0.014": 0.72728099628,
			"-0.013": 1.45744633833,
			"-0.012": 1.2081404492,
			"-0.011": 0.776053800285,
			"-0.01": 0.498696064963,
			"-0.009": 1.79853892919,
			"-0.008": 2.50953951898,
			"-0.007": 2.88194956757,
			"-0.006": 6.24163372449,
			"-0.005": 7.60995908704,
			"-0.004": 10.7301538503,
			"-0.003": 21.219892111,
			"-0.002": 24.1986513315,
			"-0.001": 23.3813897322,
			"0.0": 22.9632847386,
			"0.001": 17.9019402284,
			"0.002": 9.36110911235,
			"0.003": 4.55027288896,
			"0.004": 3.83695168064,
			"0.005": 4.37495507316,
			"0.006": 2.8935346001,
			"0.007": 3.46547003687,
			"0.008": 4.83064902253,
			"0.009": 4.51237610811,
			"0.01": 5.81646756286,
			"0.011": 6.45708217465,
			"0.012": 4.25501174191,
			"0.013": 1.69116041628,
			"0.014": 0.798804613233,
			"0.015": 0.0748032662743,
			"0.016": 0.0,
			"0.017": 0.0,
			"0.018": 0.0,
			"0.019": 0.0,
			"0.02": 0.0,
			"0.021": 0.0,
			"0.022": 0.0,
			"0.023": 0.0,
			"0.024": 0.0,
			"0.025": 0.0
		}
	}
}
