{
	 "smiles": "CN(C)CC(O)C(F)(F)F", 
	 "Tm": 337.15, 
	 "num_atms": 20, 
	 "gaussian": { 
		 "optdone": 1, 
		 "sigma_profile": "yes", 
		 "theory": "DFT", 
		 "functional": "B3LYP", 
		 "basiset": "6-31G**", 
		 "properties": { 
			 "R2extent": 2178.6271, 
			 "electric_dipole_moment_norm": 1.47454125069, 
			 "electric_quadrupole_moment_norm": 6.93430123012, 
			 "total_energy": -626.03950194, 
			 "HOMO_LUMO_gap": 0.2877, 
			 "cosmo_polarized_energy": -8.42, 
			 "cosmo_cavitation_energy": 23.96, 
			 "cosmo_dispersion_energy": -16.69, 
			 "cosmo_repulsion_energy": 1.32, 
			 "cosmo_total_nonelectrostatic_energy": 8.58, 
			 "SMD_solvation_energy": 3.37 
		},
		"coords": [
			{
				"x": -0.5088797651,
				"y": 0.9902107143,
				"z": -1.467037301,
				"element": "C" 
			},
			{
				"x": 0.2990508125,
				"y": 1.3934912424,
				"z": -0.3242248626,
				"element": "N" 
			},
			{
				"x": 0.495328437,
				"y": 2.8372372275,
				"z": -0.2997330578,
				"element": "C" 
			},
			{
				"x": -0.2295382568,
				"y": 0.8899611145,
				"z": 0.9385032442,
				"element": "C" 
			},
			{
				"x": 0.1820561053,
				"y": -0.5614957078,
				"z": 1.2011697023,
				"element": "C" 
			},
			{
				"x": 1.5442315868,
				"y": -0.5769583447,
				"z": 1.5673893868,
				"element": "O" 
			},
			{
				"x": -0.6591295559,
				"y": -1.1794673176,
				"z": 2.317458138,
				"element": "C" 
			},
			{
				"x": -0.1736004371,
				"y": -2.4057117988,
				"z": 2.6401826251,
				"element": "F" 
			},
			{
				"x": -0.6577789388,
				"y": -0.4383889281,
				"z": 3.4405713572,
				"element": "F" 
			},
			{
				"x": -1.9433710634,
				"y": -1.3411893568,
				"z": 1.9307311341,
				"element": "F" 
			},
			{
				"x": -0.0258104437,
				"y": 1.3178528024,
				"z": -2.3927561297,
				"element": "H" 
			},
			{
				"x": -1.5334640577,
				"y": 1.4112281232,
				"z": -1.4459812948,
				"element": "H" 
			},
			{
				"x": -0.5973825323,
				"y": -0.0995904756,
				"z": -1.5116047037,
				"element": "H" 
			},
			{
				"x": 0.9601113929,
				"y": 3.157475646,
				"z": -1.2377548224,
				"element": "H" 
			},
			{
				"x": 1.1692928379,
				"y": 3.1058918882,
				"z": 0.5190151521,
				"element": "H" 
			},
			{
				"x": -0.4443921335,
				"y": 3.4102591417,
				"z": -0.1767648005,
				"element": "H" 
			},
			{
				"x": -1.3307118989,
				"y": 0.9733654934,
				"z": 0.9959610511,
				"element": "H" 
			},
			{
				"x": 0.1847632607,
				"y": 1.4811204173,
				"z": 1.7598513712,
				"element": "H" 
			},
			{
				"x": -0.0097266272,
				"y": -1.1784785587,
				"z": 0.3103407519,
				"element": "H" 
			},
			{
				"x": 1.8055512772,
				"y": -1.4969133231,
				"z": 1.7078830585,
				"element": "H" 
			}
		],
		 "valence_orbital": [ 
			{
				"type": "occ",
				"energy": -0.37171,
				"method": "rhf"
			},
			{
				"type": "occ",
				"energy": -0.3626,
				"method": "rhf"
			},
			{
				"type": "occ",
				"energy": -0.3387,
				"method": "rhf"
			},
			{
				"type": "occ",
				"energy": -0.28876,
				"method": "rhf"
			},
			{
				"type": "occ",
				"energy": -0.21614,
				"method": "rhf"
			},
			{
				"type": "unocc",
				"energy": 0.07156,
				"method": "rhf"
			},
			{
				"type": "unocc",
				"energy": 0.08683,
				"method": "rhf"
			},
			{
				"type": "unocc",
				"energy": 0.10389,
				"method": "rhf"
			},
			{
				"type": "unocc",
				"energy": 0.13355,
				"method": "rhf"
			},
			{
				"type": "unocc",
				"energy": 0.13473,
				"method": "rhf"
			}
		],
		"cosmo_sigma_profile": { 
			"-0.025": 0.0,
			"-0.024": 0.0,
			"-0.023": 0.0,
			"-0.022": 0.0,
			"-0.021": 0.0,
			"-0.02": 0.0,
			"-0.019": 0.0,
			"-0.018": 0.0,
			"-0.017": 0.0,
			"-0.016": 0.342224364776,
			"-0.015": 0.898312101159,
			"-0.014": 0.644897478111,
			"-0.013": 1.14735367972,
			"-0.012": 0.811726782777,
			"-0.011": 0.722149436792,
			"-0.01": 0.912648459693,
			"-0.009": 0.914674282518,
			"-0.008": 1.91504160376,
			"-0.007": 4.67133063877,
			"-0.006": 2.9972515903,
			"-0.005": 5.62684367731,
			"-0.004": 10.7507586271,
			"-0.003": 16.2615813768,
			"-0.002": 22.1115899352,
			"-0.001": 22.7676695345,
			"0.0": 18.5533958208,
			"0.001": 8.77283634657,
			"0.002": 17.6062162376,
			"0.003": 26.478733005,
			"0.004": 3.39251607764,
			"0.005": 1.77094979319,
			"0.006": 1.88214863225,
			"0.007": 1.37860854187,
			"0.008": 1.27055737467,
			"0.009": 1.47818055974,
			"0.01": 1.41282677282,
			"0.011": 2.0141336105,
			"0.012": 1.50846736447,
			"0.013": 2.30568849602,
			"0.014": 0.706531287323,
			"0.015": 1.36305340775,
			"0.016": 0.896936393522,
			"0.017": 0.512390997932,
			"0.018": 0.0,
			"0.019": 0.0,
			"0.02": 0.0,
			"0.021": 0.0,
			"0.022": 0.0,
			"0.023": 0.0,
			"0.024": 0.0,
			"0.025": 0.0
		}
	}
}
