{
	 "smiles": "CC(C)(C)C1=CC(O)=C(O)C(=C1)C(C)(C)C", 
	 "Tm": 370.65, 
	 "num_atms": 38, 
	 "gaussian": { 
		 "optdone": 1, 
		 "sigma_profile": "yes", 
		 "theory": "DFT", 
		 "functional": "B3LYP", 
		 "basiset": "6-31G**", 
		 "properties": { 
			 "R2extent": 4467.2182, 
			 "electric_dipole_moment_norm": 2.66598863651, 
			 "electric_quadrupole_moment_norm": 10.2822191107, 
			 "total_energy": -697.214301019, 
			 "HOMO_LUMO_gap": 0.20985, 
			 "cosmo_polarized_energy": -8.9, 
			 "cosmo_cavitation_energy": 36.73, 
			 "cosmo_dispersion_energy": -25.58, 
			 "cosmo_repulsion_energy": 1.98, 
			 "cosmo_total_nonelectrostatic_energy": 13.13, 
			 "SMD_solvation_energy": 6.87 
		},
		"coords": [
			{
				"x": -0.4032114086,
				"y": 2.8670595049,
				"z": 1.9339830652,
				"element": "C" 
			},
			{
				"x": -1.2779678572,
				"y": 2.222341239,
				"z": 0.8325497038,
				"element": "C" 
			},
			{
				"x": -2.7485546573,
				"y": 2.5796688286,
				"z": 1.1207554124,
				"element": "C" 
			},
			{
				"x": -0.8985019009,
				"y": 2.8254483213,
				"z": -0.5408834776,
				"element": "C" 
			},
			{
				"x": -1.0415582335,
				"y": 0.6994620371,
				"z": 0.8109750894,
				"element": "C" 
			},
			{
				"x": -2.0698322681,
				"y": -0.2197556422,
				"z": 1.0325766208,
				"element": "C" 
			},
			{
				"x": -1.8037742183,
				"y": -1.5869515056,
				"z": 1.0086204214,
				"element": "C" 
			},
			{
				"x": -2.8150297707,
				"y": -2.4712114095,
				"z": 1.2376252115,
				"element": "O" 
			},
			{
				"x": -0.508089045,
				"y": -2.0586914427,
				"z": 0.7558977817,
				"element": "C" 
			},
			{
				"x": -0.428016555,
				"y": -3.4472951088,
				"z": 0.7301212433,
				"element": "O" 
			},
			{
				"x": 0.5536935418,
				"y": -1.1691295507,
				"z": 0.5145681362,
				"element": "C" 
			},
			{
				"x": 0.247102101,
				"y": 0.2001228204,
				"z": 0.5607336213,
				"element": "C" 
			},
			{
				"x": 1.9840787751,
				"y": -1.6698814782,
				"z": 0.2113459208,
				"element": "C" 
			},
			{
				"x": 2.5678806293,
				"y": -2.4199772597,
				"z": 1.4366288653,
				"element": "C" 
			},
			{
				"x": 2.953812923,
				"y": -0.508682572,
				"z": -0.0907432528,
				"element": "C" 
			},
			{
				"x": 1.9758859209,
				"y": -2.59164865,
				"z": -1.0342153779,
				"element": "C" 
			},
			{
				"x": -0.6565267639,
				"y": 2.4634000738,
				"z": 2.9198586428,
				"element": "H" 
			},
			{
				"x": 0.6627305012,
				"y": 2.6880329138,
				"z": 1.764528051,
				"element": "H" 
			},
			{
				"x": -0.5586556801,
				"y": 3.9518367994,
				"z": 1.9605083304,
				"element": "H" 
			},
			{
				"x": -3.4224385138,
				"y": 2.1756757916,
				"z": 0.3582686251,
				"element": "H" 
			},
			{
				"x": -3.07438259,
				"y": 2.206349057,
				"z": 2.0971030896,
				"element": "H" 
			},
			{
				"x": -2.8700987841,
				"y": 3.6678843141,
				"z": 1.1259200354,
				"element": "H" 
			},
			{
				"x": -1.0598369936,
				"y": 3.9097004373,
				"z": -0.5406465497,
				"element": "H" 
			},
			{
				"x": -1.5085474086,
				"y": 2.3911967505,
				"z": -1.3397509747,
				"element": "H" 
			},
			{
				"x": 0.1518432522,
				"y": 2.6457489629,
				"z": -0.7888320337,
				"element": "H" 
			},
			{
				"x": -3.0884473169,
				"y": 0.0863276793,
				"z": 1.2354420971,
				"element": "H" 
			},
			{
				"x": -2.4182460887,
				"y": -3.3560887202,
				"z": 1.2033639589,
				"element": "H" 
			},
			{
				"x": 0.4293282227,
				"y": -3.7334956556,
				"z": 1.064809428,
				"element": "H" 
			},
			{
				"x": 1.0435284475,
				"y": 0.910908248,
				"z": 0.3859968416,
				"element": "H" 
			},
			{
				"x": 2.020035584,
				"y": -3.3301184035,
				"z": 1.7120458491,
				"element": "H" 
			},
			{
				"x": 2.573746112,
				"y": -1.7740341668,
				"z": 2.3197216169,
				"element": "H" 
			},
			{
				"x": 3.5976221627,
				"y": -2.7342081788,
				"z": 1.2343201436,
				"element": "H" 
			},
			{
				"x": 2.6243313916,
				"y": 0.0796694346,
				"z": -0.9522798151,
				"element": "H" 
			},
			{
				"x": 3.0684435418,
				"y": 0.1658589482,
				"z": 0.7635437052,
				"element": "H" 
			},
			{
				"x": 3.9432086563,
				"y": -0.9144012796,
				"z": -0.3257121559,
				"element": "H" 
			},
			{
				"x": 1.3046350206,
				"y": -3.4453162218,
				"z": -0.9216670493,
				"element": "H" 
			},
			{
				"x": 2.9846727526,
				"y": -2.9717732009,
				"z": -1.2316503036,
				"element": "H" 
			},
			{
				"x": 1.6470365179,
				"y": -2.0330317152,
				"z": -1.9161305176,
				"element": "H" 
			}
		],
		 "valence_orbital": [ 
			{
				"type": "occ",
				"energy": -0.3109,
				"method": "rhf"
			},
			{
				"type": "occ",
				"energy": -0.3073,
				"method": "rhf"
			},
			{
				"type": "occ",
				"energy": -0.3004,
				"method": "rhf"
			},
			{
				"type": "occ",
				"energy": -0.22593,
				"method": "rhf"
			},
			{
				"type": "occ",
				"energy": -0.19979,
				"method": "rhf"
			},
			{
				"type": "unocc",
				"energy": 0.01006,
				"method": "rhf"
			},
			{
				"type": "unocc",
				"energy": 0.02181,
				"method": "rhf"
			},
			{
				"type": "unocc",
				"energy": 0.04874,
				"method": "rhf"
			},
			{
				"type": "unocc",
				"energy": 0.08131,
				"method": "rhf"
			},
			{
				"type": "unocc",
				"energy": 0.10036,
				"method": "rhf"
			}
		],
		"cosmo_sigma_profile": { 
			"-0.025": 0.0,
			"-0.024": 0.0,
			"-0.023": 0.0,
			"-0.022": 0.0,
			"-0.021": 0.0,
			"-0.02": 0.0,
			"-0.019": 0.0,
			"-0.018": 0.0,
			"-0.017": 0.0,
			"-0.016": 0.0225993898825,
			"-0.015": 0.667956060948,
			"-0.014": 0.90876497243,
			"-0.013": 1.59394418976,
			"-0.012": 0.599913050327,
			"-0.011": 1.09502443781,
			"-0.01": 2.21137514482,
			"-0.009": 1.95625917917,
			"-0.008": 1.78217330874,
			"-0.007": 1.28881789529,
			"-0.006": 1.58450983706,
			"-0.005": 3.36089207259,
			"-0.004": 7.58294597161,
			"-0.003": 29.6872671528,
			"-0.002": 41.7032773187,
			"-0.001": 37.5694768418,
			"0.0": 36.5934340414,
			"0.001": 40.674232644,
			"0.002": 20.5725086776,
			"0.003": 9.45740505056,
			"0.004": 10.3971192549,
			"0.005": 9.42865365032,
			"0.006": 8.86678717605,
			"0.007": 5.11929157289,
			"0.008": 2.11110805901,
			"0.009": 1.49376502738,
			"0.01": 2.69256833575,
			"0.011": 1.5204646223,
			"0.012": 2.05211556901,
			"0.013": 0.227623174034,
			"0.014": 0.0,
			"0.015": 0.0,
			"0.016": 0.0,
			"0.017": 0.0,
			"0.018": 0.0,
			"0.019": 0.0,
			"0.02": 0.0,
			"0.021": 0.0,
			"0.022": 0.0,
			"0.023": 0.0,
			"0.024": 0.0,
			"0.025": 0.0
		}
	}
}
