{
	 "smiles": "[O-][N+](=O)C1=CC=C(C=C1)C(=O)CN1CCSC1=N", 
	 "Tm": 483.15, 
	 "num_atms": 29, 
	 "gaussian": { 
		 "optdone": 1, 
		 "sigma_profile": "yes", 
		 "theory": "DFT", 
		 "functional": "B3LYP", 
		 "basiset": "6-31G**", 
		 "properties": { 
			 "R2extent": 6540.6905, 
			 "electric_dipole_moment_norm": 4.88380036038, 
			 "electric_quadrupole_moment_norm": 31.7671130752, 
			 "total_energy": -1213.79095656, 
			 "HOMO_LUMO_gap": 0.11424, 
			 "cosmo_polarized_energy": -23.23, 
			 "cosmo_cavitation_energy": 35.05, 
			 "cosmo_dispersion_energy": -25.42, 
			 "cosmo_repulsion_energy": 1.89, 
			 "cosmo_total_nonelectrostatic_energy": 11.52, 
			 "SMD_solvation_energy": 6.42 
		},
		"coords": [
			{
				"x": -1.5180953962,
				"y": 2.9920945058,
				"z": 3.7378273987,
				"element": "O" 
			},
			{
				"x": -0.3414053058,
				"y": 2.9566845424,
				"z": 3.3825208883,
				"element": "N" 
			},
			{
				"x": 0.596602993,
				"y": 3.4638933948,
				"z": 3.9931749897,
				"element": "O" 
			},
			{
				"x": -0.0312937195,
				"y": 2.2496833704,
				"z": 2.1241368188,
				"element": "C" 
			},
			{
				"x": 1.2940071953,
				"y": 2.1872243355,
				"z": 1.6937288209,
				"element": "C" 
			},
			{
				"x": 1.5742272833,
				"y": 1.5215726519,
				"z": 0.5074167071,
				"element": "C" 
			},
			{
				"x": 0.5463730984,
				"y": 0.9174161118,
				"z": -0.2375379379,
				"element": "C" 
			},
			{
				"x": -0.7771833159,
				"y": 1.0005829984,
				"z": 0.2234617111,
				"element": "C" 
			},
			{
				"x": -1.0746534482,
				"y": 1.6702167707,
				"z": 1.4080799087,
				"element": "C" 
			},
			{
				"x": 0.9289478921,
				"y": 0.2355732672,
				"z": -1.5189161475,
				"element": "C" 
			},
			{
				"x": 2.0638815722,
				"y": 0.3450187431,
				"z": -1.9578900297,
				"element": "O" 
			},
			{
				"x": -0.0733204397,
				"y": -0.6649547628,
				"z": -2.2651912253,
				"element": "C" 
			},
			{
				"x": -0.1665900651,
				"y": -1.9935649549,
				"z": -1.6849694568,
				"element": "N" 
			},
			{
				"x": -1.1951723551,
				"y": -2.3574786575,
				"z": -0.7173160204,
				"element": "C" 
			},
			{
				"x": -1.2969733652,
				"y": -3.8854762384,
				"z": -0.7644672072,
				"element": "C" 
			},
			{
				"x": 0.4223870161,
				"y": -4.4611599276,
				"z": -1.0430348575,
				"element": "S" 
			},
			{
				"x": 0.8707733566,
				"y": -2.9157062782,
				"z": -1.8516031968,
				"element": "C" 
			},
			{
				"x": 1.9822489757,
				"y": -2.8115525696,
				"z": -2.456412517,
				"element": "N" 
			},
			{
				"x": 2.0703800639,
				"y": 2.6540481595,
				"z": 2.2867517522,
				"element": "H" 
			},
			{
				"x": 2.5891779162,
				"y": 1.4535782887,
				"z": 0.1322707593,
				"element": "H" 
			},
			{
				"x": -1.5893171767,
				"y": 0.5552331093,
				"z": -0.3392727154,
				"element": "H" 
			},
			{
				"x": -2.0875864681,
				"y": 1.7520171393,
				"z": 1.7812845102,
				"element": "H" 
			},
			{
				"x": -1.0754120259,
				"y": -0.2281137217,
				"z": -2.3002798316,
				"element": "H" 
			},
			{
				"x": 0.2963859999,
				"y": -0.7465669643,
				"z": -3.2924483956,
				"element": "H" 
			},
			{
				"x": -2.1482772036,
				"y": -1.894440949,
				"z": -0.9992136796,
				"element": "H" 
			},
			{
				"x": -0.9402334193,
				"y": -2.0218498666,
				"z": 0.2989390274,
				"element": "H" 
			},
			{
				"x": -1.934958678,
				"y": -4.2145646985,
				"z": -1.5888683074,
				"element": "H" 
			},
			{
				"x": -1.6769911408,
				"y": -4.2965274823,
				"z": 0.1720473582,
				"element": "H" 
			},
			{
				"x": 2.1811701604,
				"y": -1.8622803173,
				"z": -2.7730191246,
				"element": "H" 
			}
		],
		 "valence_orbital": [ 
			{
				"type": "occ",
				"energy": -0.29777,
				"method": "rhf"
			},
			{
				"type": "occ",
				"energy": -0.29474,
				"method": "rhf"
			},
			{
				"type": "occ",
				"energy": -0.2621,
				"method": "rhf"
			},
			{
				"type": "occ",
				"energy": -0.24177,
				"method": "rhf"
			},
			{
				"type": "occ",
				"energy": -0.23237,
				"method": "rhf"
			},
			{
				"type": "unocc",
				"energy": -0.11813,
				"method": "rhf"
			},
			{
				"type": "unocc",
				"energy": -0.06362,
				"method": "rhf"
			},
			{
				"type": "unocc",
				"energy": -0.04791,
				"method": "rhf"
			},
			{
				"type": "unocc",
				"energy": 0.01149,
				"method": "rhf"
			},
			{
				"type": "unocc",
				"energy": 0.01236,
				"method": "rhf"
			}
		],
		"cosmo_sigma_profile": { 
			"-0.025": 0.0,
			"-0.024": 0.0,
			"-0.023": 0.0,
			"-0.022": 0.0,
			"-0.021": 0.0,
			"-0.02": 0.0,
			"-0.019": 0.0,
			"-0.018": 0.0,
			"-0.017": 0.0,
			"-0.016": 0.0,
			"-0.015": 0.0,
			"-0.014": 6.5545438101e-05,
			"-0.013": 0.10943106305,
			"-0.012": 0.50495492179,
			"-0.011": 1.62665165518,
			"-0.01": 2.01405981449,
			"-0.009": 3.97928420419,
			"-0.008": 7.80323641404,
			"-0.007": 14.4091717623,
			"-0.006": 20.8891903349,
			"-0.005": 23.3431244835,
			"-0.004": 21.0855360431,
			"-0.003": 18.4205967037,
			"-0.002": 18.1840529827,
			"-0.001": 19.02709317,
			"0.0": 20.4381431607,
			"0.001": 11.0103101383,
			"0.002": 9.22775638793,
			"0.003": 9.53107575301,
			"0.004": 9.97237398362,
			"0.005": 9.04032191365,
			"0.006": 11.1586552911,
			"0.007": 15.0731744262,
			"0.008": 11.4085659808,
			"0.009": 8.12772670345,
			"0.01": 5.58407502674,
			"0.011": 2.42440931886,
			"0.012": 1.03469277408,
			"0.013": 1.2081865924,
			"0.014": 1.4367467895,
			"0.015": 1.22674054392,
			"0.016": 0.728938722638,
			"0.017": 1.36335515717,
			"0.018": 0.793687183941,
			"0.019": 0.0619691017323,
			"0.02": 0.0,
			"0.021": 0.0,
			"0.022": 0.0,
			"0.023": 0.0,
			"0.024": 0.0,
			"0.025": 0.0
		}
	}
}
