{
	 "smiles": "NCC(O)C1=CC=CS1", 
	 "Tm": 355.15, 
	 "num_atms": 18, 
	 "gaussian": { 
		 "optdone": 1, 
		 "sigma_profile": "yes", 
		 "theory": "DFT", 
		 "functional": "B3LYP", 
		 "basiset": "6-31G**", 
		 "properties": { 
			 "R2extent": 1573.546, 
			 "electric_dipole_moment_norm": 1.2086169327, 
			 "electric_quadrupole_moment_norm": 6.3280649167, 
			 "total_energy": -762.194755118, 
			 "HOMO_LUMO_gap": 0.21378, 
			 "cosmo_polarized_energy": -9.8, 
			 "cosmo_cavitation_energy": 22.58, 
			 "cosmo_dispersion_energy": -17.12, 
			 "cosmo_repulsion_energy": 1.38, 
			 "cosmo_total_nonelectrostatic_energy": 6.84, 
			 "SMD_solvation_energy": 2.76 
		},
		"coords": [
			{
				"x": 0.4472166029,
				"y": -1.7525046496,
				"z": 2.6065860624,
				"element": "N" 
			},
			{
				"x": -0.475314751,
				"y": -0.6223287024,
				"z": 2.5151643281,
				"element": "C" 
			},
			{
				"x": 0.1682918042,
				"y": 0.5438414763,
				"z": 1.745930381,
				"element": "C" 
			},
			{
				"x": -0.7638979843,
				"y": 1.6176108032,
				"z": 1.8281334487,
				"element": "O" 
			},
			{
				"x": 0.4683742769,
				"y": 0.2105829846,
				"z": 0.3014560172,
				"element": "C" 
			},
			{
				"x": -0.349617996,
				"y": 0.4088422463,
				"z": -0.7825359234,
				"element": "C" 
			},
			{
				"x": 0.2320589324,
				"y": -0.0123842198,
				"z": -2.0172531462,
				"element": "C" 
			},
			{
				"x": 1.4893552784,
				"y": -0.5260116636,
				"z": -1.861127683,
				"element": "C" 
			},
			{
				"x": 1.9838174384,
				"y": -0.5041168557,
				"z": -0.1969424304,
				"element": "S" 
			},
			{
				"x": 0.4766658791,
				"y": -2.2560680575,
				"z": 1.7241022042,
				"element": "H" 
			},
			{
				"x": 0.1236829847,
				"y": -2.4112280235,
				"z": 3.3084489353,
				"element": "H" 
			},
			{
				"x": -0.6859785401,
				"y": -0.2593312093,
				"z": 3.5265486238,
				"element": "H" 
			},
			{
				"x": -1.4437954943,
				"y": -0.8456660073,
				"z": 2.0387843106,
				"element": "H" 
			},
			{
				"x": 1.1076318562,
				"y": 0.7917654133,
				"z": 2.2632352461,
				"element": "H" 
			},
			{
				"x": -0.4061762036,
				"y": 2.3523263412,
				"z": 1.3122804408,
				"element": "H" 
			},
			{
				"x": -1.3356280921,
				"y": 0.8488608201,
				"z": -0.6886389794,
				"element": "H" 
			},
			{
				"x": -0.2650851118,
				"y": 0.0674632086,
				"z": -2.977636008,
				"element": "H" 
			},
			{
				"x": 2.1540991201,
				"y": -0.9199539051,
				"z": -2.6175358276,
				"element": "H" 
			}
		],
		 "valence_orbital": [ 
			{
				"type": "occ",
				"energy": -0.32697,
				"method": "rhf"
			},
			{
				"type": "occ",
				"energy": -0.27887,
				"method": "rhf"
			},
			{
				"type": "occ",
				"energy": -0.24925,
				"method": "rhf"
			},
			{
				"type": "occ",
				"energy": -0.23696,
				"method": "rhf"
			},
			{
				"type": "occ",
				"energy": -0.22566,
				"method": "rhf"
			},
			{
				"type": "unocc",
				"energy": -0.01188,
				"method": "rhf"
			},
			{
				"type": "unocc",
				"energy": 0.03443,
				"method": "rhf"
			},
			{
				"type": "unocc",
				"energy": 0.0627,
				"method": "rhf"
			},
			{
				"type": "unocc",
				"energy": 0.08256,
				"method": "rhf"
			},
			{
				"type": "unocc",
				"energy": 0.09484,
				"method": "rhf"
			}
		],
		"cosmo_sigma_profile": { 
			"-0.025": 0.0,
			"-0.024": 0.0,
			"-0.023": 0.0,
			"-0.022": 0.0,
			"-0.021": 0.0,
			"-0.02": 0.0,
			"-0.019": 0.0,
			"-0.018": 0.0,
			"-0.017": 0.0,
			"-0.016": 0.0691619923729,
			"-0.015": 0.81498527225,
			"-0.014": 0.865549096139,
			"-0.013": 0.844559207785,
			"-0.012": 0.607690961456,
			"-0.011": 0.938937498086,
			"-0.01": 2.04523684086,
			"-0.009": 2.87568407645,
			"-0.008": 4.1922906032,
			"-0.007": 6.05243111445,
			"-0.006": 7.68012197253,
			"-0.005": 9.94198034884,
			"-0.004": 12.4044017794,
			"-0.003": 13.6198447251,
			"-0.002": 13.6366252536,
			"-0.001": 12.244073817,
			"0.0": 12.0207490667,
			"0.001": 9.27959216405,
			"0.002": 10.3598982752,
			"0.003": 12.2586509141,
			"0.004": 11.9492081998,
			"0.005": 10.8024349968,
			"0.006": 6.21938415829,
			"0.007": 2.45542100391,
			"0.008": 2.15413014732,
			"0.009": 2.25756096115,
			"0.01": 0.736164931236,
			"0.011": 2.19653629557,
			"0.012": 2.19805472171,
			"0.013": 2.42638647092,
			"0.014": 1.26024888104,
			"0.015": 0.514858436322,
			"0.016": 0.517495549215,
			"0.017": 0.386596815919,
			"0.018": 0.488856295487,
			"0.019": 0.0801040057374,
			"0.02": 0.0,
			"0.021": 0.0,
			"0.022": 0.0,
			"0.023": 0.0,
			"0.024": 0.0,
			"0.025": 0.0
		}
	}
}
