{
	 "smiles": "OC(=O)C1C2CCCCC12", 
	 "Tm": 360.15, 
	 "num_atms": 22, 
	 "gaussian": { 
		 "optdone": 1, 
		 "sigma_profile": "yes", 
		 "theory": "DFT", 
		 "functional": "B3LYP", 
		 "basiset": "6-31G**", 
		 "properties": { 
			 "R2extent": 1839.6028, 
			 "electric_dipole_moment_norm": 3.98098198313, 
			 "electric_quadrupole_moment_norm": 15.8461757948, 
			 "total_energy": -462.517976774, 
			 "HOMO_LUMO_gap": 0.27009, 
			 "cosmo_polarized_energy": -12.16, 
			 "cosmo_cavitation_energy": 22.69, 
			 "cosmo_dispersion_energy": -17.55, 
			 "cosmo_repulsion_energy": 1.44, 
			 "cosmo_total_nonelectrostatic_energy": 6.58, 
			 "SMD_solvation_energy": 3.74 
		},
		"coords": [
			{
				"x": -2.4410338465,
				"y": 2.3869404253,
				"z": 2.3982438424,
				"element": "O" 
			},
			{
				"x": -1.5682477749,
				"y": 1.559347993,
				"z": 1.7543251029,
				"element": "C" 
			},
			{
				"x": -1.9462559256,
				"y": 0.4577044125,
				"z": 1.4233760292,
				"element": "O" 
			},
			{
				"x": -0.2124130826,
				"y": 2.1300071011,
				"z": 1.5215398191,
				"element": "C" 
			},
			{
				"x": 0.5668671595,
				"y": 1.9072270466,
				"z": 0.213862285,
				"element": "C" 
			},
			{
				"x": 0.0584450578,
				"y": 1.0040548573,
				"z": -0.9102061838,
				"element": "C" 
			},
			{
				"x": 0.7707079845,
				"y": -0.3588682042,
				"z": -0.8907126232,
				"element": "C" 
			},
			{
				"x": 0.5612169604,
				"y": -1.0577712843,
				"z": 0.4580010074,
				"element": "C" 
			},
			{
				"x": 1.1294487436,
				"y": -0.2362780073,
				"z": 1.6375473056,
				"element": "C" 
			},
			{
				"x": 1.0630958781,
				"y": 1.2831330327,
				"z": 1.4833876464,
				"element": "C" 
			},
			{
				"x": -2.0184458638,
				"y": 3.2338725144,
				"z": 2.5949247425,
				"element": "H" 
			},
			{
				"x": -0.0633986153,
				"y": 3.1168656278,
				"z": 1.9566515065,
				"element": "H" 
			},
			{
				"x": 1.08710003,
				"y": 2.8022004918,
				"z": -0.1193704705,
				"element": "H" 
			},
			{
				"x": -1.0197269639,
				"y": 0.8404598888,
				"z": -0.8201911778,
				"element": "H" 
			},
			{
				"x": 0.2267068452,
				"y": 1.5098003855,
				"z": -1.8668684495,
				"element": "H" 
			},
			{
				"x": 1.8441349964,
				"y": -0.2158185327,
				"z": -1.08154844,
				"element": "H" 
			},
			{
				"x": 0.3870951582,
				"y": -0.9879364306,
				"z": -1.7023199863,
				"element": "H" 
			},
			{
				"x": 1.0427937491,
				"y": -2.0427041255,
				"z": 0.4539323285,
				"element": "H" 
			},
			{
				"x": -0.5087238182,
				"y": -1.2161580214,
				"z": 0.6068885217,
				"element": "H" 
			},
			{
				"x": 0.6547923397,
				"y": -0.5480226497,
				"z": 2.5748942822,
				"element": "H" 
			},
			{
				"x": 2.1960444771,
				"y": -0.4733139572,
				"z": 1.7416113213,
				"element": "H" 
			},
			{
				"x": 1.8908965112,
				"y": 1.7953574359,
				"z": 1.9695315906,
				"element": "H" 
			}
		],
		 "valence_orbital": [ 
			{
				"type": "occ",
				"energy": -0.31058,
				"method": "rhf"
			},
			{
				"type": "occ",
				"energy": -0.30648,
				"method": "rhf"
			},
			{
				"type": "occ",
				"energy": -0.28547,
				"method": "rhf"
			},
			{
				"type": "occ",
				"energy": -0.28012,
				"method": "rhf"
			},
			{
				"type": "occ",
				"energy": -0.26269,
				"method": "rhf"
			},
			{
				"type": "unocc",
				"energy": 0.0074,
				"method": "rhf"
			},
			{
				"type": "unocc",
				"energy": 0.04766,
				"method": "rhf"
			},
			{
				"type": "unocc",
				"energy": 0.08053,
				"method": "rhf"
			},
			{
				"type": "unocc",
				"energy": 0.11278,
				"method": "rhf"
			},
			{
				"type": "unocc",
				"energy": 0.12945,
				"method": "rhf"
			}
		],
		"cosmo_sigma_profile": { 
			"-0.025": 0.0,
			"-0.024": 0.0,
			"-0.023": 0.0,
			"-0.022": 0.0,
			"-0.021": 0.0,
			"-0.02": 0.0,
			"-0.019": 0.243987197147,
			"-0.018": 1.17328295982,
			"-0.017": 0.975258960157,
			"-0.016": 1.09606645977,
			"-0.015": 1.42549194296,
			"-0.014": 0.643056629702,
			"-0.013": 0.638085446853,
			"-0.012": 1.27707384649,
			"-0.011": 1.55231239127,
			"-0.01": 0.795467632309,
			"-0.009": 0.543963374443,
			"-0.008": 1.23611433878,
			"-0.007": 1.67227540705,
			"-0.006": 2.53728817162,
			"-0.005": 6.77852992184,
			"-0.004": 6.76444417624,
			"-0.003": 11.5130724045,
			"-0.002": 17.4901386149,
			"-0.001": 22.4668578526,
			"0.0": 28.0125490973,
			"0.001": 22.6302181171,
			"0.002": 10.9937859618,
			"0.003": 2.98261600684,
			"0.004": 2.05228670486,
			"0.005": 3.23663926706,
			"0.006": 2.41025240101,
			"0.007": 2.53822724099,
			"0.008": 2.53761337984,
			"0.009": 3.48615635981,
			"0.01": 2.94316817678,
			"0.011": 4.37891243877,
			"0.012": 3.56898761316,
			"0.013": 2.61157063002,
			"0.014": 1.12566919315,
			"0.015": 0.0,
			"0.016": 0.0,
			"0.017": 0.0,
			"0.018": 0.0,
			"0.019": 0.0,
			"0.02": 0.0,
			"0.021": 0.0,
			"0.022": 0.0,
			"0.023": 0.0,
			"0.024": 0.0,
			"0.025": 0.0
		}
	}
}
