{
	 "smiles": "NC1=CC(=NN1C1=CC=CC=C1)C1CCC1", 
	 "Tm": 361.15, 
	 "num_atms": 31, 
	 "gaussian": { 
		 "optdone": 1, 
		 "sigma_profile": "yes", 
		 "theory": "DFT", 
		 "functional": "B3LYP", 
		 "basiset": "6-31G**", 
		 "properties": { 
			 "R2extent": 4769.668, 
			 "electric_dipole_moment_norm": 2.95088701749, 
			 "electric_quadrupole_moment_norm": 9.62461868491, 
			 "total_energy": -668.635689687, 
			 "HOMO_LUMO_gap": 0.19101, 
			 "cosmo_polarized_energy": -11.43, 
			 "cosmo_cavitation_energy": 33.5, 
			 "cosmo_dispersion_energy": -24.29, 
			 "cosmo_repulsion_energy": 1.92, 
			 "cosmo_total_nonelectrostatic_energy": 11.13, 
			 "SMD_solvation_energy": 4.65 
		},
		"coords": [
			{
				"x": 2.8849029984,
				"y": 0.7631133373,
				"z": -1.1784329838,
				"element": "N" 
			},
			{
				"x": 1.7876780166,
				"y": 0.182487966,
				"z": -0.5424610701,
				"element": "C" 
			},
			{
				"x": 1.298584193,
				"y": -1.1084997127,
				"z": -0.6052377875,
				"element": "C" 
			},
			{
				"x": 0.1778041293,
				"y": -1.123283582,
				"z": 0.2668393128,
				"element": "C" 
			},
			{
				"x": -0.0201480206,
				"y": 0.0629106285,
				"z": 0.8281182629,
				"element": "N" 
			},
			{
				"x": 0.9887625533,
				"y": 0.8653045326,
				"z": 0.3432012881,
				"element": "N" 
			},
			{
				"x": 1.0286473353,
				"y": 2.2316448318,
				"z": 0.7176649707,
				"element": "C" 
			},
			{
				"x": 2.2486413673,
				"y": 2.9082286109,
				"z": 0.8573121834,
				"element": "C" 
			},
			{
				"x": 2.2522468887,
				"y": 4.2557168609,
				"z": 1.2227607409,
				"element": "C" 
			},
			{
				"x": 1.0556068304,
				"y": 4.9276165312,
				"z": 1.4714076006,
				"element": "C" 
			},
			{
				"x": -0.1553088865,
				"y": 4.2392287004,
				"z": 1.3549053823,
				"element": "C" 
			},
			{
				"x": -0.1764160622,
				"y": 2.8998385135,
				"z": 0.9754923347,
				"element": "C" 
			},
			{
				"x": -0.6849062262,
				"y": -2.3035195497,
				"z": 0.6019939055,
				"element": "C" 
			},
			{
				"x": -0.211928581,
				"y": -3.1020320182,
				"z": 1.8684786476,
				"element": "C" 
			},
			{
				"x": -1.3181136073,
				"y": -2.3963706297,
				"z": 2.6950633089,
				"element": "C" 
			},
			{
				"x": -2.0008478228,
				"y": -1.9719449781,
				"z": 1.3679589868,
				"element": "C" 
			},
			{
				"x": 2.7357373736,
				"y": 1.7281873903,
				"z": -1.4526183449,
				"element": "H" 
			},
			{
				"x": 3.1909292462,
				"y": 0.2126370006,
				"z": -1.9707893953,
				"element": "H" 
			},
			{
				"x": 1.6855765682,
				"y": -1.9192715694,
				"z": -1.2054403854,
				"element": "H" 
			},
			{
				"x": 3.1824182091,
				"y": 2.3784002846,
				"z": 0.7073154292,
				"element": "H" 
			},
			{
				"x": 3.2011706641,
				"y": 4.7734858223,
				"z": 1.3299812876,
				"element": "H" 
			},
			{
				"x": 1.065101716,
				"y": 5.9740406585,
				"z": 1.7610616547,
				"element": "H" 
			},
			{
				"x": -1.0928366279,
				"y": 4.750371063,
				"z": 1.5543552457,
				"element": "H" 
			},
			{
				"x": -1.1058381023,
				"y": 2.3511359813,
				"z": 0.8847870173,
				"element": "H" 
			},
			{
				"x": -0.8034805263,
				"y": -2.9170345039,
				"z": -0.297909901,
				"element": "H" 
			},
			{
				"x": -0.3976760835,
				"y": -4.174917603,
				"z": 1.7547651291,
				"element": "H" 
			},
			{
				"x": 0.8261973964,
				"y": -2.9562196357,
				"z": 2.1800366136,
				"element": "H" 
			},
			{
				"x": -0.9298414671,
				"y": -1.5305267063,
				"z": 3.2373230738,
				"element": "H" 
			},
			{
				"x": -1.8973194958,
				"y": -3.016246554,
				"z": 3.3859818432,
				"element": "H" 
			},
			{
				"x": -2.3502276048,
				"y": -0.940196645,
				"z": 1.2971529364,
				"element": "H" 
			},
			{
				"x": -2.8108163715,
				"y": -2.6491850262,
				"z": 1.0799327121,
				"element": "H" 
			}
		],
		 "valence_orbital": [ 
			{
				"type": "occ",
				"energy": -0.27087,
				"method": "rhf"
			},
			{
				"type": "occ",
				"energy": -0.26863,
				"method": "rhf"
			},
			{
				"type": "occ",
				"energy": -0.25297,
				"method": "rhf"
			},
			{
				"type": "occ",
				"energy": -0.21469,
				"method": "rhf"
			},
			{
				"type": "occ",
				"energy": -0.20281,
				"method": "rhf"
			},
			{
				"type": "unocc",
				"energy": -0.0118,
				"method": "rhf"
			},
			{
				"type": "unocc",
				"energy": -0.00512,
				"method": "rhf"
			},
			{
				"type": "unocc",
				"energy": 0.04883,
				"method": "rhf"
			},
			{
				"type": "unocc",
				"energy": 0.07399,
				"method": "rhf"
			},
			{
				"type": "unocc",
				"energy": 0.08387,
				"method": "rhf"
			}
		],
		"cosmo_sigma_profile": { 
			"-0.025": 0.0,
			"-0.024": 0.0,
			"-0.023": 0.0,
			"-0.022": 0.0,
			"-0.021": 0.0,
			"-0.02": 0.0,
			"-0.019": 0.0,
			"-0.018": 0.0,
			"-0.017": 0.0,
			"-0.016": 0.0,
			"-0.015": 0.0,
			"-0.014": 0.0905782421894,
			"-0.013": 1.50248825598,
			"-0.012": 2.26113807261,
			"-0.011": 2.74416115733,
			"-0.01": 2.94158138133,
			"-0.009": 2.42292702089,
			"-0.008": 2.48582808734,
			"-0.007": 2.56502994311,
			"-0.006": 8.54186457455,
			"-0.005": 11.6109000328,
			"-0.004": 14.2384550473,
			"-0.003": 19.9648262769,
			"-0.002": 23.4369367062,
			"-0.001": 25.3366115769,
			"0.0": 22.6820540243,
			"0.001": 25.633899543,
			"0.002": 23.9482106357,
			"0.003": 14.3501314618,
			"0.004": 14.6440474702,
			"0.005": 19.2343919003,
			"0.006": 8.57298436203,
			"0.007": 4.59022823723,
			"0.008": 2.87723434817,
			"0.009": 2.79825793436,
			"0.01": 2.36451101684,
			"0.011": 0.969417646051,
			"0.012": 1.31075193903,
			"0.013": 0.969911093881,
			"0.014": 0.143516386564,
			"0.015": 0.0,
			"0.016": 0.0,
			"0.017": 0.0,
			"0.018": 0.0,
			"0.019": 0.0,
			"0.02": 0.0,
			"0.021": 0.0,
			"0.022": 0.0,
			"0.023": 0.0,
			"0.024": 0.0,
			"0.025": 0.0
		}
	}
}
