{
	 "smiles": "CC1=CN(CCC(O)=O)N=C1", 
	 "Tm": 368.15, 
	 "num_atms": 21, 
	 "gaussian": { 
		 "optdone": 1, 
		 "sigma_profile": "yes", 
		 "theory": "DFT", 
		 "functional": "B3LYP", 
		 "basiset": "6-31G**", 
		 "properties": { 
			 "R2extent": 2358.28, 
			 "electric_dipole_moment_norm": 2.34192396546, 
			 "electric_quadrupole_moment_norm": 11.1592255148, 
			 "total_energy": -532.719628559, 
			 "HOMO_LUMO_gap": 0.24373, 
			 "cosmo_polarized_energy": -14.09, 
			 "cosmo_cavitation_energy": 25.21, 
			 "cosmo_dispersion_energy": -18.26, 
			 "cosmo_repulsion_energy": 1.51, 
			 "cosmo_total_nonelectrostatic_energy": 8.47, 
			 "SMD_solvation_energy": 5.16 
		},
		"coords": [
			{
				"x": -1.8597002354,
				"y": -2.8903924165,
				"z": -0.6915893253,
				"element": "C" 
			},
			{
				"x": -1.1115839056,
				"y": -1.6947212986,
				"z": -0.1796463471,
				"element": "C" 
			},
			{
				"x": -1.1336184035,
				"y": -1.1571983149,
				"z": 1.0962268332,
				"element": "C" 
			},
			{
				"x": -0.287933494,
				"y": -0.0898563709,
				"z": 1.1036112265,
				"element": "N" 
			},
			{
				"x": -0.0488658039,
				"y": 0.8492880918,
				"z": 2.1935951581,
				"element": "C" 
			},
			{
				"x": 1.3729205597,
				"y": 1.4088618902,
				"z": 2.1586428538,
				"element": "C" 
			},
			{
				"x": 1.5230922817,
				"y": 2.520090788,
				"z": 1.1362457298,
				"element": "C" 
			},
			{
				"x": 2.7662191817,
				"y": 2.5554525863,
				"z": 0.6104073412,
				"element": "O" 
			},
			{
				"x": 0.6665270421,
				"y": 3.3314337562,
				"z": 0.8629821672,
				"element": "O" 
			},
			{
				"x": 0.2828693212,
				"y": 0.1120870612,
				"z": -0.1014378322,
				"element": "N" 
			},
			{
				"x": -0.206949621,
				"y": -0.8562530443,
				"z": -0.8755282923,
				"element": "C" 
			},
			{
				"x": -1.1798438469,
				"y": -3.6766130654,
				"z": -1.0398110065,
				"element": "H" 
			},
			{
				"x": -2.4916940575,
				"y": -3.3247106701,
				"z": 0.0885478642,
				"element": "H" 
			},
			{
				"x": -2.5100435832,
				"y": -2.6297449011,
				"z": -1.5344235082,
				"element": "H" 
			},
			{
				"x": -1.6768180262,
				"y": -1.4548207879,
				"z": 1.9823890323,
				"element": "H" 
			},
			{
				"x": -0.2241348181,
				"y": 0.3117344612,
				"z": 3.1293182103,
				"element": "H" 
			},
			{
				"x": -0.7572908029,
				"y": 1.6830223281,
				"z": 2.1316056163,
				"element": "H" 
			},
			{
				"x": 2.1086161342,
				"y": 0.6243810383,
				"z": 1.9735030771,
				"element": "H" 
			},
			{
				"x": 1.596452289,
				"y": 1.8531778393,
				"z": 3.1369119385,
				"element": "H" 
			},
			{
				"x": 2.7746625016,
				"y": 3.3051270215,
				"z": -0.0083934147,
				"element": "H" 
			},
			{
				"x": 0.1109172869,
				"y": -0.9262459924,
				"z": -1.9081573221,
				"element": "H" 
			}
		],
		 "valence_orbital": [ 
			{
				"type": "occ",
				"energy": -0.31176,
				"method": "rhf"
			},
			{
				"type": "occ",
				"energy": -0.28024,
				"method": "rhf"
			},
			{
				"type": "occ",
				"energy": -0.27117,
				"method": "rhf"
			},
			{
				"type": "occ",
				"energy": -0.24228,
				"method": "rhf"
			},
			{
				"type": "occ",
				"energy": -0.22884,
				"method": "rhf"
			},
			{
				"type": "unocc",
				"energy": 0.01489,
				"method": "rhf"
			},
			{
				"type": "unocc",
				"energy": 0.02734,
				"method": "rhf"
			},
			{
				"type": "unocc",
				"energy": 0.07098,
				"method": "rhf"
			},
			{
				"type": "unocc",
				"energy": 0.08447,
				"method": "rhf"
			},
			{
				"type": "unocc",
				"energy": 0.09678,
				"method": "rhf"
			}
		],
		"cosmo_sigma_profile": { 
			"-0.025": 0.0,
			"-0.024": 0.0,
			"-0.023": 0.0,
			"-0.022": 0.0,
			"-0.021": 0.0,
			"-0.02": 0.0,
			"-0.019": 0.0129647215983,
			"-0.018": 0.642295392227,
			"-0.017": 0.976211067304,
			"-0.016": 1.14878359148,
			"-0.015": 0.563716012949,
			"-0.014": 0.720295952409,
			"-0.013": 0.288319437032,
			"-0.012": 0.267920492403,
			"-0.011": 1.26153825958,
			"-0.01": 0.988954258488,
			"-0.009": 0.731856204672,
			"-0.008": 5.24756432094,
			"-0.007": 9.60435858716,
			"-0.006": 9.62425630693,
			"-0.005": 11.7397929182,
			"-0.004": 17.7124209336,
			"-0.003": 15.4381576864,
			"-0.002": 13.3380121589,
			"-0.001": 14.5557531418,
			"0.0": 12.779058695,
			"0.001": 10.2329104124,
			"0.002": 7.33249612483,
			"0.003": 7.1536079093,
			"0.004": 7.33358490954,
			"0.005": 9.19545108564,
			"0.006": 6.63229124961,
			"0.007": 4.0266679526,
			"0.008": 5.73314796319,
			"0.009": 6.01067745444,
			"0.01": 4.57859894412,
			"0.011": 6.28538025929,
			"0.012": 6.43997057749,
			"0.013": 0.337986106433,
			"0.014": 0.0,
			"0.015": 0.0,
			"0.016": 0.0,
			"0.017": 0.0,
			"0.018": 0.0,
			"0.019": 0.0,
			"0.02": 0.0,
			"0.021": 0.0,
			"0.022": 0.0,
			"0.023": 0.0,
			"0.024": 0.0,
			"0.025": 0.0
		}
	}
}
