{
	 "smiles": "CCCCOC(=O)C(C)O", 
	 "Tm": 245.15, 
	 "num_atms": 24, 
	 "gaussian": { 
		 "optdone": 1, 
		 "sigma_profile": "yes", 
		 "theory": "DFT", 
		 "functional": "B3LYP", 
		 "basiset": "6-31G**", 
		 "properties": { 
			 "R2extent": 2507.0251, 
			 "electric_dipole_moment_norm": 2.53940619437, 
			 "electric_quadrupole_moment_norm": 10.509056863, 
			 "total_energy": -500.867723265, 
			 "HOMO_LUMO_gap": 0.26327, 
			 "cosmo_polarized_energy": -8.68, 
			 "cosmo_cavitation_energy": 26.66, 
			 "cosmo_dispersion_energy": -18.35, 
			 "cosmo_repulsion_energy": 1.52, 
			 "cosmo_total_nonelectrostatic_energy": 9.83, 
			 "SMD_solvation_energy": 5.33 
		},
		"coords": [
			{
				"x": 1.1846147729,
				"y": -0.8644339226,
				"z": 0.9048731562,
				"element": "C" 
			},
			{
				"x": 1.9899873468,
				"y": -1.6277942681,
				"z": -0.153540104,
				"element": "C" 
			},
			{
				"x": 1.425952308,
				"y": -1.5714005961,
				"z": -1.5830293048,
				"element": "C" 
			},
			{
				"x": 0.1265442854,
				"y": -2.3357598828,
				"z": -1.827041838,
				"element": "C" 
			},
			{
				"x": -1.027335858,
				"y": -1.7146465055,
				"z": -1.1999354724,
				"element": "O" 
			},
			{
				"x": -1.6746137332,
				"y": -0.7659640323,
				"z": -1.9181635028,
				"element": "C" 
			},
			{
				"x": -1.3382233722,
				"y": -0.3933461328,
				"z": -3.0200793238,
				"element": "O" 
			},
			{
				"x": -2.8505486075,
				"y": -0.1840344191,
				"z": -1.1323163867,
				"element": "C" 
			},
			{
				"x": -2.4380737078,
				"y": 1.1695760372,
				"z": -0.5309843906,
				"element": "C" 
			},
			{
				"x": -3.3623304419,
				"y": -1.0691260379,
				"z": -0.1547850262,
				"element": "O" 
			},
			{
				"x": 1.6887124816,
				"y": -0.8983614688,
				"z": 1.8762850636,
				"element": "H" 
			},
			{
				"x": 1.0711772941,
				"y": 0.1900690239,
				"z": 0.6274047923,
				"element": "H" 
			},
			{
				"x": 0.1828301029,
				"y": -1.2831126304,
				"z": 1.0323827635,
				"element": "H" 
			},
			{
				"x": 2.0902228025,
				"y": -2.6793228492,
				"z": 0.1497384611,
				"element": "H" 
			},
			{
				"x": 3.0104378301,
				"y": -1.2252822618,
				"z": -0.1780932419,
				"element": "H" 
			},
			{
				"x": 2.166632919,
				"y": -2.0045613114,
				"z": -2.2686527085,
				"element": "H" 
			},
			{
				"x": 1.2875008302,
				"y": -0.5325360286,
				"z": -1.9053168581,
				"element": "H" 
			},
			{
				"x": 0.1662247819,
				"y": -3.3387520247,
				"z": -1.392848374,
				"element": "H" 
			},
			{
				"x": -0.0754909845,
				"y": -2.4095746737,
				"z": -2.8977770814,
				"element": "H" 
			},
			{
				"x": -3.6498203982,
				"y": -0.020412563,
				"z": -1.8627415989,
				"element": "H" 
			},
			{
				"x": -3.2912823738,
				"y": 1.6019483464,
				"z": -0.002424974,
				"element": "H" 
			},
			{
				"x": -1.6194559611,
				"y": 1.0391817578,
				"z": 0.1849392269,
				"element": "H" 
			},
			{
				"x": -2.1124633737,
				"y": 1.8610842157,
				"z": -1.3135217165,
				"element": "H" 
			},
			{
				"x": -2.6067989436,
				"y": -1.5243377723,
				"z": 0.241328439,
				"element": "H" 
			}
		],
		 "valence_orbital": [ 
			{
				"type": "occ",
				"energy": -0.34119,
				"method": "rhf"
			},
			{
				"type": "occ",
				"energy": -0.33006,
				"method": "rhf"
			},
			{
				"type": "occ",
				"energy": -0.30146,
				"method": "rhf"
			},
			{
				"type": "occ",
				"energy": -0.28866,
				"method": "rhf"
			},
			{
				"type": "occ",
				"energy": -0.2581,
				"method": "rhf"
			},
			{
				"type": "unocc",
				"energy": 0.00517,
				"method": "rhf"
			},
			{
				"type": "unocc",
				"energy": 0.0663,
				"method": "rhf"
			},
			{
				"type": "unocc",
				"energy": 0.09075,
				"method": "rhf"
			},
			{
				"type": "unocc",
				"energy": 0.10679,
				"method": "rhf"
			},
			{
				"type": "unocc",
				"energy": 0.11601,
				"method": "rhf"
			}
		],
		"cosmo_sigma_profile": { 
			"-0.025": 0.0,
			"-0.024": 0.0,
			"-0.023": 0.0,
			"-0.022": 0.0,
			"-0.021": 0.0,
			"-0.02": 0.0,
			"-0.019": 0.0,
			"-0.018": 0.0,
			"-0.017": 0.0,
			"-0.016": 0.0,
			"-0.015": 0.0,
			"-0.014": 0.0,
			"-0.013": 0.0644504829675,
			"-0.012": 0.440676260053,
			"-0.011": 0.519246285888,
			"-0.01": 0.946307731257,
			"-0.009": 0.548653748565,
			"-0.008": 0.597161452414,
			"-0.007": 1.09763841358,
			"-0.006": 4.21682576453,
			"-0.005": 8.33801723816,
			"-0.004": 17.3807444021,
			"-0.003": 24.2769737781,
			"-0.002": 33.0485677425,
			"-0.001": 28.5573696738,
			"0.0": 25.5587630548,
			"0.001": 16.248926876,
			"0.002": 7.88431586593,
			"0.003": 4.12599936564,
			"0.004": 3.56760482404,
			"0.005": 2.66585227763,
			"0.006": 2.66570427031,
			"0.007": 1.94964729014,
			"0.008": 2.62204139445,
			"0.009": 2.95039720674,
			"0.01": 2.92159095915,
			"0.011": 4.78770184129,
			"0.012": 4.74959455817,
			"0.013": 2.86202702338,
			"0.014": 1.1897209084,
			"0.015": 0.0,
			"0.016": 0.0,
			"0.017": 0.0,
			"0.018": 0.0,
			"0.019": 0.0,
			"0.02": 0.0,
			"0.021": 0.0,
			"0.022": 0.0,
			"0.023": 0.0,
			"0.024": 0.0,
			"0.025": 0.0
		}
	}
}
