{
	 "smiles": "CC1=NC(CN)=CC=N1", 
	 "Tm": 282.15, 
	 "num_atms": 18, 
	 "gaussian": { 
		 "optdone": 1, 
		 "sigma_profile": "yes", 
		 "theory": "DFT", 
		 "functional": "B3LYP", 
		 "basiset": "6-31G**", 
		 "properties": { 
			 "R2extent": 1369.8074, 
			 "electric_dipole_moment_norm": 1.18157401799, 
			 "electric_quadrupole_moment_norm": 12.9136903235, 
			 "total_energy": -398.317650405, 
			 "HOMO_LUMO_gap": 0.20345, 
			 "cosmo_polarized_energy": -9.33, 
			 "cosmo_cavitation_energy": 21.59, 
			 "cosmo_dispersion_energy": -16.07, 
			 "cosmo_repulsion_energy": 1.35, 
			 "cosmo_total_nonelectrostatic_energy": 6.87, 
			 "SMD_solvation_energy": 0.05 
		},
		"coords": [
			{
				"x": -1.8619774788,
				"y": -0.6527686362,
				"z": -1.5889668927,
				"element": "C" 
			},
			{
				"x": -0.462095981,
				"y": -0.5650362497,
				"z": -1.0425220498,
				"element": "C" 
			},
			{
				"x": -0.0828220396,
				"y": 0.6201277313,
				"z": -0.5330553072,
				"element": "N" 
			},
			{
				"x": 1.1594317524,
				"y": 0.7190524735,
				"z": -0.0455773896,
				"element": "C" 
			},
			{
				"x": 1.5804423019,
				"y": 2.081011147,
				"z": 0.4947753743,
				"element": "C" 
			},
			{
				"x": 0.5116840055,
				"y": 2.9326778112,
				"z": 1.0017934381,
				"element": "N" 
			},
			{
				"x": 2.0300065329,
				"y": -0.3768119798,
				"z": -0.0642862013,
				"element": "C" 
			},
			{
				"x": 1.5396331564,
				"y": -1.5564920887,
				"z": -0.6093211219,
				"element": "C" 
			},
			{
				"x": 0.2983301598,
				"y": -1.6678789584,
				"z": -1.1020714923,
				"element": "N" 
			},
			{
				"x": -2.0548354098,
				"y": -1.6535705849,
				"z": -1.9762303753,
				"element": "H" 
			},
			{
				"x": -2.0042806836,
				"y": 0.0821311643,
				"z": -2.3880272844,
				"element": "H" 
			},
			{
				"x": -2.5907146129,
				"y": -0.4174190641,
				"z": -0.8063007051,
				"element": "H" 
			},
			{
				"x": 2.0899163117,
				"y": 2.6151158276,
				"z": -0.3205812531,
				"element": "H" 
			},
			{
				"x": 2.3356956955,
				"y": 1.9418179945,
				"z": 1.2767482625,
				"element": "H" 
			},
			{
				"x": -0.2338970191,
				"y": 2.9418078745,
				"z": 0.3079368868,
				"element": "H" 
			},
			{
				"x": 0.0988431373,
				"y": 2.4916359578,
				"z": 1.8216007608,
				"element": "H" 
			},
			{
				"x": 3.037867205,
				"y": -0.3099904924,
				"z": 0.3331574017,
				"element": "H" 
			},
			{
				"x": 2.1568729663,
				"y": -2.4529099274,
				"z": -0.6523720514,
				"element": "H" 
			}
		],
		 "valence_orbital": [ 
			{
				"type": "occ",
				"energy": -0.30696,
				"method": "rhf"
			},
			{
				"type": "occ",
				"energy": -0.29945,
				"method": "rhf"
			},
			{
				"type": "occ",
				"energy": -0.27179,
				"method": "rhf"
			},
			{
				"type": "occ",
				"energy": -0.24922,
				"method": "rhf"
			},
			{
				"type": "occ",
				"energy": -0.23936,
				"method": "rhf"
			},
			{
				"type": "unocc",
				"energy": -0.03591,
				"method": "rhf"
			},
			{
				"type": "unocc",
				"energy": -0.02343,
				"method": "rhf"
			},
			{
				"type": "unocc",
				"energy": 0.09516,
				"method": "rhf"
			},
			{
				"type": "unocc",
				"energy": 0.10752,
				"method": "rhf"
			},
			{
				"type": "unocc",
				"energy": 0.11912,
				"method": "rhf"
			}
		],
		"cosmo_sigma_profile": { 
			"-0.025": 0.0,
			"-0.024": 0.0,
			"-0.023": 0.0,
			"-0.022": 0.0,
			"-0.021": 0.0,
			"-0.02": 0.0,
			"-0.019": 0.0,
			"-0.018": 0.0,
			"-0.017": 0.0,
			"-0.016": 0.0,
			"-0.015": 0.0,
			"-0.014": 0.0,
			"-0.013": 0.0,
			"-0.012": 0.0,
			"-0.011": 0.0,
			"-0.01": 0.748927712071,
			"-0.009": 1.5197507792,
			"-0.008": 1.63999066328,
			"-0.007": 7.08641646665,
			"-0.006": 9.27732820205,
			"-0.005": 14.5807991814,
			"-0.004": 14.4590794654,
			"-0.003": 13.7212066236,
			"-0.002": 13.8728467996,
			"-0.001": 16.4132942575,
			"0.0": 17.4732695691,
			"0.001": 12.9076024188,
			"0.002": 7.65203739522,
			"0.003": 4.49672662547,
			"0.004": 4.48293381551,
			"0.005": 4.04521575455,
			"0.006": 3.70840318839,
			"0.007": 2.93550442123,
			"0.008": 2.48196714668,
			"0.009": 2.8501874606,
			"0.01": 3.13267522202,
			"0.011": 2.04289854285,
			"0.012": 1.40211651735,
			"0.013": 2.09741840664,
			"0.014": 1.14768823516,
			"0.015": 1.32334880256,
			"0.016": 0.896725385047,
			"0.017": 0.696107150398,
			"0.018": 0.842364336265,
			"0.019": 0.547927853289,
			"0.02": 0.100360950098,
			"0.021": 0.0,
			"0.022": 0.0,
			"0.023": 0.0,
			"0.024": 0.0,
			"0.025": 0.0
		}
	}
}
