{
	 "smiles": "COP(=O)(OC)C(O)C(Cl)(Cl)Cl", 
	 "Tm": 353.15, 
	 "num_atms": 20, 
	 "gaussian": { 
		 "optdone": 1, 
		 "sigma_profile": "yes", 
		 "theory": "DFT", 
		 "functional": "B3LYP", 
		 "basiset": "6-31G**", 
		 "properties": { 
			 "R2extent": 5363.5819, 
			 "electric_dipole_moment_norm": 4.58608429709, 
			 "electric_quadrupole_moment_norm": 13.0907382775, 
			 "total_energy": -2180.08175045, 
			 "HOMO_LUMO_gap": 0.23722, 
			 "cosmo_polarized_energy": -15.88, 
			 "cosmo_cavitation_energy": 29.95, 
			 "cosmo_dispersion_energy": -21.41, 
			 "cosmo_repulsion_energy": 1.69, 
			 "cosmo_total_nonelectrostatic_energy": 10.23, 
			 "SMD_solvation_energy": 6.9 
		},
		"coords": [
			{
				"x": -1.0020461487,
				"y": 0.2096375307,
				"z": 0.9658569438,
				"element": "C" 
			},
			{
				"x": 0.3520565949,
				"y": 0.3067318455,
				"z": 1.4497865977,
				"element": "O" 
			},
			{
				"x": 1.667847208,
				"y": 0.4069538093,
				"z": 0.5383454243,
				"element": "P" 
			},
			{
				"x": 2.8484813465,
				"y": 0.8808626567,
				"z": 1.2905209681,
				"element": "O" 
			},
			{
				"x": 1.2548350422,
				"y": 1.2814116931,
				"z": -0.7629212258,
				"element": "O" 
			},
			{
				"x": 1.5136890814,
				"y": 2.701676042,
				"z": -0.7522671623,
				"element": "C" 
			},
			{
				"x": 1.8620920068,
				"y": -1.2327413596,
				"z": -0.3491048555,
				"element": "C" 
			},
			{
				"x": 0.57987188,
				"y": -1.5720182708,
				"z": -0.8078749476,
				"element": "O" 
			},
			{
				"x": 2.5055546895,
				"y": -2.3909882189,
				"z": 0.4630542188,
				"element": "C" 
			},
			{
				"x": 2.5038907129,
				"y": -3.8607451674,
				"z": -0.6385755988,
				"element": "Cl" 
			},
			{
				"x": 4.1969291563,
				"y": -2.0171250634,
				"z": 0.8833396209,
				"element": "Cl" 
			},
			{
				"x": 1.5630820407,
				"y": -2.7907266404,
				"z": 1.9294622274,
				"element": "Cl" 
			},
			{
				"x": -1.1115705155,
				"y": 0.7153804712,
				"z": 0.0041529809,
				"element": "H" 
			},
			{
				"x": -1.2764767407,
				"y": -0.8405774405,
				"z": 0.859672194,
				"element": "H" 
			},
			{
				"x": -1.6304956962,
				"y": 0.6922125182,
				"z": 1.7166744221,
				"element": "H" 
			},
			{
				"x": 1.4571245423,
				"y": 3.0317014905,
				"z": -1.7904095701,
				"element": "H" 
			},
			{
				"x": 0.7552864754,
				"y": 3.2231221933,
				"z": -0.1602110069,
				"element": "H" 
			},
			{
				"x": 2.5042242562,
				"y": 2.9085696777,
				"z": -0.3411222018,
				"element": "H" 
			},
			{
				"x": 2.5628952075,
				"y": -1.0292724274,
				"z": -1.1708779657,
				"element": "H" 
			},
			{
				"x": 0.6626288604,
				"y": -2.2933653396,
				"z": -1.4490010637,
				"element": "H" 
			}
		],
		 "valence_orbital": [ 
			{
				"type": "occ",
				"energy": -0.31262,
				"method": "rhf"
			},
			{
				"type": "occ",
				"energy": -0.31103,
				"method": "rhf"
			},
			{
				"type": "occ",
				"energy": -0.30833,
				"method": "rhf"
			},
			{
				"type": "occ",
				"energy": -0.29595,
				"method": "rhf"
			},
			{
				"type": "occ",
				"energy": -0.28625,
				"method": "rhf"
			},
			{
				"type": "unocc",
				"energy": -0.04903,
				"method": "rhf"
			},
			{
				"type": "unocc",
				"energy": -0.01244,
				"method": "rhf"
			},
			{
				"type": "unocc",
				"energy": 0.00333,
				"method": "rhf"
			},
			{
				"type": "unocc",
				"energy": 0.04803,
				"method": "rhf"
			},
			{
				"type": "unocc",
				"energy": 0.05879,
				"method": "rhf"
			}
		],
		"cosmo_sigma_profile": { 
			"-0.025": 0.0,
			"-0.024": 0.0,
			"-0.023": 0.0,
			"-0.022": 0.0,
			"-0.021": 0.0,
			"-0.02": 0.0,
			"-0.019": 0.0,
			"-0.018": 0.0,
			"-0.017": 0.0382756595238,
			"-0.016": 0.645806722976,
			"-0.015": 0.907374267063,
			"-0.014": 0.685355620224,
			"-0.013": 1.04252395575,
			"-0.012": 0.8808154864,
			"-0.011": 1.28012767756,
			"-0.01": 2.38248646354,
			"-0.009": 3.32422860918,
			"-0.008": 2.90330693112,
			"-0.007": 3.33701431716,
			"-0.006": 11.0395324278,
			"-0.005": 16.7369928228,
			"-0.004": 23.369447479,
			"-0.003": 18.853596425,
			"-0.002": 14.3721218176,
			"-0.001": 13.0527191457,
			"0.0": 14.2293545881,
			"0.001": 15.7182673698,
			"0.002": 25.9076071061,
			"0.003": 24.1481627353,
			"0.004": 8.0912370109,
			"0.005": 5.99046719688,
			"0.006": 3.88051529022,
			"0.007": 3.43642824502,
			"0.008": 4.18243537258,
			"0.009": 4.1757446834,
			"0.01": 3.38609077443,
			"0.011": 2.64493088848,
			"0.012": 1.49434946422,
			"0.013": 3.60232431673,
			"0.014": 4.41419806864,
			"0.015": 0.627790909852,
			"0.016": 0.0,
			"0.017": 0.0,
			"0.018": 0.0,
			"0.019": 0.0,
			"0.02": 0.0,
			"0.021": 0.0,
			"0.022": 0.0,
			"0.023": 0.0,
			"0.024": 0.0,
			"0.025": 0.0
		}
	}
}
