{
	 "smiles": "CCOC1=CC=C2N=C(SC2=C1)S(N)(=O)=O", 
	 "Tm": 461.15, 
	 "num_atms": 26, 
	 "gaussian": { 
		 "optdone": 1, 
		 "sigma_profile": "yes", 
		 "theory": "DFT", 
		 "functional": "B3LYP", 
		 "basiset": "6-31G**", 
		 "properties": { 
			 "R2extent": 6919.0874, 
			 "electric_dipole_moment_norm": 7.95101229593, 
			 "electric_quadrupole_moment_norm": 20.4397520499, 
			 "total_energy": -1480.45507024, 
			 "HOMO_LUMO_gap": 0.16952, 
			 "cosmo_polarized_energy": -18.78, 
			 "cosmo_cavitation_energy": 33.7, 
			 "cosmo_dispersion_energy": -25.86, 
			 "cosmo_repulsion_energy": 1.94, 
			 "cosmo_total_nonelectrostatic_energy": 9.78, 
			 "SMD_solvation_energy": 3.62 
		},
		"coords": [
			{
				"x": 0.2664835869,
				"y": 1.9134702371,
				"z": 5.4833141675,
				"element": "C" 
			},
			{
				"x": -0.492014353,
				"y": 1.8940566769,
				"z": 4.1682641478,
				"element": "C" 
			},
			{
				"x": 0.0827794043,
				"y": 0.8650862135,
				"z": 3.3576606036,
				"element": "O" 
			},
			{
				"x": -0.4213673262,
				"y": 0.6328382715,
				"z": 2.11682485,
				"element": "C" 
			},
			{
				"x": -1.4952051268,
				"y": 1.3569548607,
				"z": 1.5508014423,
				"element": "C" 
			},
			{
				"x": -1.9525158479,
				"y": 1.05832569,
				"z": 0.2743664729,
				"element": "C" 
			},
			{
				"x": -1.3445108325,
				"y": 0.0293948542,
				"z": -0.4553580697,
				"element": "C" 
			},
			{
				"x": -1.6989055702,
				"y": -0.3746331805,
				"z": -1.7320331298,
				"element": "N" 
			},
			{
				"x": -0.9448352047,
				"y": -1.3457713138,
				"z": -2.1199563477,
				"element": "C" 
			},
			{
				"x": 0.3091971423,
				"y": -1.9017036162,
				"z": -1.0056916319,
				"element": "S" 
			},
			{
				"x": -0.2668714603,
				"y": -0.690038217,
				"z": 0.1260694941,
				"element": "C" 
			},
			{
				"x": 0.2016806271,
				"y": -0.3982550698,
				"z": 1.402818792,
				"element": "C" 
			},
			{
				"x": -1.1864118079,
				"y": -2.1560624322,
				"z": -3.7151758528,
				"element": "S" 
			},
			{
				"x": -1.514036188,
				"y": -0.9069872411,
				"z": -4.7737501737,
				"element": "N" 
			},
			{
				"x": 0.110583313,
				"y": -2.7173125966,
				"z": -4.083220182,
				"element": "O" 
			},
			{
				"x": -2.394853042,
				"y": -2.9655850256,
				"z": -3.624797342,
				"element": "O" 
			},
			{
				"x": -0.1406429911,
				"y": 2.6894941307,
				"z": 6.138454636,
				"element": "H" 
			},
			{
				"x": 1.3263577295,
				"y": 2.1223600443,
				"z": 5.314314861,
				"element": "H" 
			},
			{
				"x": 0.1810965447,
				"y": 0.9494085888,
				"z": 5.9919993526,
				"element": "H" 
			},
			{
				"x": -1.5580883781,
				"y": 1.6857513888,
				"z": 4.3331618709,
				"element": "H" 
			},
			{
				"x": -0.4107673551,
				"y": 2.8617277511,
				"z": 3.6541725147,
				"element": "H" 
			},
			{
				"x": -1.9723677495,
				"y": 2.1516988637,
				"z": 2.1100974177,
				"element": "H" 
			},
			{
				"x": -2.7780979572,
				"y": 1.6081384792,
				"z": -0.1649949639,
				"element": "H" 
			},
			{
				"x": 1.0227209215,
				"y": -0.9357093089,
				"z": 1.8632552459,
				"element": "H" 
			},
			{
				"x": -0.7088771161,
				"y": -0.301832169,
				"z": -4.9069923307,
				"element": "H" 
			},
			{
				"x": -2.3444309627,
				"y": -0.3908158797,
				"z": -4.4947058448,
				"element": "H" 
			}
		],
		 "valence_orbital": [ 
			{
				"type": "occ",
				"energy": -0.31046,
				"method": "rhf"
			},
			{
				"type": "occ",
				"energy": -0.3067,
				"method": "rhf"
			},
			{
				"type": "occ",
				"energy": -0.29553,
				"method": "rhf"
			},
			{
				"type": "occ",
				"energy": -0.25499,
				"method": "rhf"
			},
			{
				"type": "occ",
				"energy": -0.23056,
				"method": "rhf"
			},
			{
				"type": "unocc",
				"energy": -0.06104,
				"method": "rhf"
			},
			{
				"type": "unocc",
				"energy": -0.02281,
				"method": "rhf"
			},
			{
				"type": "unocc",
				"energy": -0.00278,
				"method": "rhf"
			},
			{
				"type": "unocc",
				"energy": 0.01751,
				"method": "rhf"
			},
			{
				"type": "unocc",
				"energy": 0.04063,
				"method": "rhf"
			}
		],
		"cosmo_sigma_profile": { 
			"-0.025": 0.0,
			"-0.024": 0.0,
			"-0.023": 0.0,
			"-0.022": 0.0,
			"-0.021": 0.0,
			"-0.02": 0.0,
			"-0.019": 0.0,
			"-0.018": 0.0,
			"-0.017": 0.046429272423,
			"-0.016": 1.21315452899,
			"-0.015": 2.39423763759,
			"-0.014": 2.64171323167,
			"-0.013": 2.59033095755,
			"-0.012": 1.87233989461,
			"-0.011": 1.44328497648,
			"-0.01": 1.42093819486,
			"-0.009": 2.16705513319,
			"-0.008": 4.52802125825,
			"-0.007": 8.39371927935,
			"-0.006": 8.55881112844,
			"-0.005": 15.3147851318,
			"-0.004": 19.0478953332,
			"-0.003": 16.8262759594,
			"-0.002": 18.9727451395,
			"-0.001": 18.1471986721,
			"0.0": 22.3298996289,
			"0.001": 19.8421083394,
			"0.002": 24.7013025793,
			"0.003": 14.8585707014,
			"0.004": 8.05846365061,
			"0.005": 7.32105122397,
			"0.006": 6.93816111268,
			"0.007": 7.38419130199,
			"0.008": 6.48139044174,
			"0.009": 8.26908078591,
			"0.01": 14.0543932581,
			"0.011": 5.12890923654,
			"0.012": 0.13944784499,
			"0.013": 0.0,
			"0.014": 0.0,
			"0.015": 0.0,
			"0.016": 0.0,
			"0.017": 0.0,
			"0.018": 0.0,
			"0.019": 0.0,
			"0.02": 0.0,
			"0.021": 0.0,
			"0.022": 0.0,
			"0.023": 0.0,
			"0.024": 0.0,
			"0.025": 0.0
		}
	}
}
