{
	 "smiles": "COC(=O)C(C1=CC=CC=C1)C1=CC=CC=C1", 
	 "Tm": 333.15, 
	 "num_atms": 31, 
	 "gaussian": { 
		 "optdone": 1, 
		 "sigma_profile": "yes", 
		 "theory": "DFT", 
		 "functional": "B3LYP", 
		 "basiset": "6-31G**", 
		 "properties": { 
			 "R2extent": 4424.6042, 
			 "electric_dipole_moment_norm": 1.78245142991, 
			 "electric_quadrupole_moment_norm": 9.21546273553, 
			 "total_energy": -730.488403241, 
			 "HOMO_LUMO_gap": 0.22608, 
			 "cosmo_polarized_energy": -9.96, 
			 "cosmo_cavitation_energy": 34.86, 
			 "cosmo_dispersion_energy": -23.91, 
			 "cosmo_repulsion_energy": 1.89, 
			 "cosmo_total_nonelectrostatic_energy": 12.84, 
			 "SMD_solvation_energy": 7.36 
		},
		"coords": [
			{
				"x": -2.0722462342,
				"y": -1.0186242253,
				"z": 1.6143048932,
				"element": "C" 
			},
			{
				"x": -1.0067601159,
				"y": -0.6583794,
				"z": 0.717849848,
				"element": "O" 
			},
			{
				"x": -0.1867315703,
				"y": 0.3200776643,
				"z": 1.1618995379,
				"element": "C" 
			},
			{
				"x": -0.3224068112,
				"y": 0.8649717097,
				"z": 2.2351500614,
				"element": "O" 
			},
			{
				"x": 0.9306856362,
				"y": 0.6502165262,
				"z": 0.1653214473,
				"element": "C" 
			},
			{
				"x": 1.687714921,
				"y": -0.6099902366,
				"z": -0.2665388199,
				"element": "C" 
			},
			{
				"x": 1.397253373,
				"y": -1.2998389422,
				"z": -1.4487304407,
				"element": "C" 
			},
			{
				"x": 2.1028984495,
				"y": -2.4555541773,
				"z": -1.786726666,
				"element": "C" 
			},
			{
				"x": 3.1087310831,
				"y": -2.9396056081,
				"z": -0.9486208081,
				"element": "C" 
			},
			{
				"x": 3.4066875086,
				"y": -2.2576625293,
				"z": 0.232221124,
				"element": "C" 
			},
			{
				"x": 2.7014825189,
				"y": -1.1015341455,
				"z": 0.5673805638,
				"element": "C" 
			},
			{
				"x": 0.4471542372,
				"y": 1.5318726875,
				"z": -0.986067969,
				"element": "C" 
			},
			{
				"x": -0.7809722716,
				"y": 1.341008615,
				"z": -1.6346399976,
				"element": "C" 
			},
			{
				"x": -1.1604784639,
				"y": 2.1672565574,
				"z": -2.6952071355,
				"element": "C" 
			},
			{
				"x": -0.3217020632,
				"y": 3.1955046118,
				"z": -3.1247146321,
				"element": "C" 
			},
			{
				"x": 0.9029510715,
				"y": 3.3950008616,
				"z": -2.4843425047,
				"element": "C" 
			},
			{
				"x": 1.2799636334,
				"y": 2.5713865609,
				"z": -1.424516059,
				"element": "C" 
			},
			{
				"x": -1.6673111865,
				"y": -1.3676581989,
				"z": 2.5670549687,
				"element": "H" 
			},
			{
				"x": -2.7251068002,
				"y": -0.1623333854,
				"z": 1.8011589072,
				"element": "H" 
			},
			{
				"x": -2.6190336492,
				"y": -1.8177386152,
				"z": 1.1141913294,
				"element": "H" 
			},
			{
				"x": 1.6189951344,
				"y": 1.2565170186,
				"z": 0.7604299671,
				"element": "H" 
			},
			{
				"x": 0.6244031373,
				"y": -0.9277262412,
				"z": -2.1128201994,
				"element": "H" 
			},
			{
				"x": 1.8672655809,
				"y": -2.9766110381,
				"z": -2.7105718309,
				"element": "H" 
			},
			{
				"x": 3.6588015743,
				"y": -3.8373919067,
				"z": -1.2157151005,
				"element": "H" 
			},
			{
				"x": 4.191200034,
				"y": -2.6207712321,
				"z": 0.8902585074,
				"element": "H" 
			},
			{
				"x": 2.9400664914,
				"y": -0.5728414298,
				"z": 1.4874217629,
				"element": "H" 
			},
			{
				"x": -1.4430790022,
				"y": 0.5469268464,
				"z": -1.3073269104,
				"element": "H" 
			},
			{
				"x": -2.117505504,
				"y": 2.0055645889,
				"z": -3.1834822293,
				"element": "H" 
			},
			{
				"x": -0.6200386369,
				"y": 3.8381666407,
				"z": -3.947953721,
				"element": "H" 
			},
			{
				"x": 1.5634650527,
				"y": 4.1952613125,
				"z": -2.8059788467,
				"element": "H" 
			},
			{
				"x": 2.2338528722,
				"y": 2.73472911,
				"z": -0.9293890475,
				"element": "H" 
			}
		],
		 "valence_orbital": [ 
			{
				"type": "occ",
				"energy": -0.28019,
				"method": "rhf"
			},
			{
				"type": "occ",
				"energy": -0.25156,
				"method": "rhf"
			},
			{
				"type": "occ",
				"energy": -0.24879,
				"method": "rhf"
			},
			{
				"type": "occ",
				"energy": -0.24368,
				"method": "rhf"
			},
			{
				"type": "occ",
				"energy": -0.23863,
				"method": "rhf"
			},
			{
				"type": "unocc",
				"energy": -0.01255,
				"method": "rhf"
			},
			{
				"type": "unocc",
				"energy": -0.01005,
				"method": "rhf"
			},
			{
				"type": "unocc",
				"energy": -0.00098,
				"method": "rhf"
			},
			{
				"type": "unocc",
				"energy": 0.00436,
				"method": "rhf"
			},
			{
				"type": "unocc",
				"energy": 0.02498,
				"method": "rhf"
			}
		],
		"cosmo_sigma_profile": { 
			"-0.025": 0.0,
			"-0.024": 0.0,
			"-0.023": 0.0,
			"-0.022": 0.0,
			"-0.021": 0.0,
			"-0.02": 0.0,
			"-0.019": 0.0,
			"-0.018": 0.0,
			"-0.017": 0.0,
			"-0.016": 0.0,
			"-0.015": 0.0,
			"-0.014": 0.0,
			"-0.013": 0.0,
			"-0.012": 0.0,
			"-0.011": 0.0,
			"-0.01": 0.0,
			"-0.009": 0.0,
			"-0.008": 0.0,
			"-0.007": 1.71879048718,
			"-0.006": 18.8572736234,
			"-0.005": 24.491575243,
			"-0.004": 31.2266643994,
			"-0.003": 28.6455909259,
			"-0.002": 22.0211950018,
			"-0.001": 18.1884330808,
			"0.0": 14.9000021982,
			"0.001": 15.8024343794,
			"0.002": 16.7759403981,
			"0.003": 16.5951079676,
			"0.004": 19.4805997958,
			"0.005": 18.6775626953,
			"0.006": 13.2813263221,
			"0.007": 3.16231786848,
			"0.008": 2.49844351166,
			"0.009": 1.62031390251,
			"0.01": 1.70863687518,
			"0.011": 3.94153896006,
			"0.012": 3.80411265683,
			"0.013": 0.666621600285,
			"0.014": 0.0,
			"0.015": 0.0,
			"0.016": 0.0,
			"0.017": 0.0,
			"0.018": 0.0,
			"0.019": 0.0,
			"0.02": 0.0,
			"0.021": 0.0,
			"0.022": 0.0,
			"0.023": 0.0,
			"0.024": 0.0,
			"0.025": 0.0
		}
	}
}
