{
	 "smiles": "COC(=O)C1=CC=C(OCC#N)C=C1", 
	 "Tm": 369.15, 
	 "num_atms": 23, 
	 "gaussian": { 
		 "optdone": 1, 
		 "sigma_profile": "yes", 
		 "theory": "DFT", 
		 "functional": "B3LYP", 
		 "basiset": "6-31G**", 
		 "properties": { 
			 "R2extent": 4537.7013, 
			 "electric_dipole_moment_norm": 3.07246720894, 
			 "electric_quadrupole_moment_norm": 25.2152829889, 
			 "total_energy": -666.88332902, 
			 "HOMO_LUMO_gap": 0.20097, 
			 "cosmo_polarized_energy": -14.57, 
			 "cosmo_cavitation_energy": 29.09, 
			 "cosmo_dispersion_energy": -20.65, 
			 "cosmo_repulsion_energy": 1.63, 
			 "cosmo_total_nonelectrostatic_energy": 10.07, 
			 "SMD_solvation_energy": 8.33 
		},
		"coords": [
			{
				"x": 3.1938370114,
				"y": 1.6806610353,
				"z": -1.9638824552,
				"element": "C" 
			},
			{
				"x": 2.1371678763,
				"y": 0.7833669081,
				"z": -1.5914359312,
				"element": "O" 
			},
			{
				"x": 0.8998831131,
				"y": 1.1492799289,
				"z": -2.0022451951,
				"element": "C" 
			},
			{
				"x": 0.6868948577,
				"y": 2.160187652,
				"z": -2.6443344473,
				"element": "O" 
			},
			{
				"x": -0.1482405519,
				"y": 0.1826845304,
				"z": -1.5820624772,
				"element": "C" 
			},
			{
				"x": -1.477955168,
				"y": 0.4507827067,
				"z": -1.9461961842,
				"element": "C" 
			},
			{
				"x": -2.4963893165,
				"y": -0.4157482366,
				"z": -1.5831128819,
				"element": "C" 
			},
			{
				"x": -2.1966362892,
				"y": -1.570651897,
				"z": -0.8463352382,
				"element": "C" 
			},
			{
				"x": -3.2793333964,
				"y": -2.3638798247,
				"z": -0.5501657619,
				"element": "O" 
			},
			{
				"x": -3.0665890077,
				"y": -3.6184864981,
				"z": 0.0664205246,
				"element": "C" 
			},
			{
				"x": -2.7573978863,
				"y": -3.5195316626,
				"z": 1.5066941296,
				"element": "C" 
			},
			{
				"x": -2.5179277993,
				"y": -3.4542261307,
				"z": 2.6398426434,
				"element": "N" 
			},
			{
				"x": -0.8786268765,
				"y": -1.8490196762,
				"z": -0.469036077,
				"element": "C" 
			},
			{
				"x": 0.1375904252,
				"y": -0.9687910911,
				"z": -0.8415796141,
				"element": "C" 
			},
			{
				"x": 3.2594822976,
				"y": 1.7689169607,
				"z": -3.0512925031,
				"element": "H" 
			},
			{
				"x": 4.106926423,
				"y": 1.2441336099,
				"z": -1.5590996077,
				"element": "H" 
			},
			{
				"x": 3.0229778928,
				"y": 2.673922361,
				"z": -1.5411514864,
				"element": "H" 
			},
			{
				"x": -1.6882028976,
				"y": 1.3479994292,
				"z": -2.5181556299,
				"element": "H" 
			},
			{
				"x": -3.528489791,
				"y": -0.2263500495,
				"z": -1.8577809894,
				"element": "H" 
			},
			{
				"x": -2.2707144044,
				"y": -4.186622567,
				"z": -0.432574123,
				"element": "H" 
			},
			{
				"x": -4.0037363857,
				"y": -4.16948982,
				"z": -0.0503391592,
				"element": "H" 
			},
			{
				"x": -0.6303276612,
				"y": -2.7204091982,
				"z": 0.1250481594,
				"element": "H" 
			},
			{
				"x": 1.1602075346,
				"y": -1.1765284706,
				"z": -0.549025695,
				"element": "H" 
			}
		],
		 "valence_orbital": [ 
			{
				"type": "occ",
				"energy": -0.3397,
				"method": "rhf"
			},
			{
				"type": "occ",
				"energy": -0.30205,
				"method": "rhf"
			},
			{
				"type": "occ",
				"energy": -0.27418,
				"method": "rhf"
			},
			{
				"type": "occ",
				"energy": -0.26884,
				"method": "rhf"
			},
			{
				"type": "occ",
				"energy": -0.24498,
				"method": "rhf"
			},
			{
				"type": "unocc",
				"energy": -0.04401,
				"method": "rhf"
			},
			{
				"type": "unocc",
				"energy": -0.01878,
				"method": "rhf"
			},
			{
				"type": "unocc",
				"energy": -0.00424,
				"method": "rhf"
			},
			{
				"type": "unocc",
				"energy": 0.02075,
				"method": "rhf"
			},
			{
				"type": "unocc",
				"energy": 0.05824,
				"method": "rhf"
			}
		],
		"cosmo_sigma_profile": { 
			"-0.025": 0.0,
			"-0.024": 0.0,
			"-0.023": 0.0,
			"-0.022": 0.0,
			"-0.021": 0.0,
			"-0.02": 0.0,
			"-0.019": 0.0,
			"-0.018": 0.0,
			"-0.017": 0.0,
			"-0.016": 0.0,
			"-0.015": 0.0,
			"-0.014": 0.0,
			"-0.013": 0.0,
			"-0.012": 0.180999215951,
			"-0.011": 3.58506141188,
			"-0.01": 5.95443810797,
			"-0.009": 5.80547165594,
			"-0.008": 5.57883704367,
			"-0.007": 6.58700726659,
			"-0.006": 11.7818550629,
			"-0.005": 14.8877013164,
			"-0.004": 13.6090787615,
			"-0.003": 16.0271964232,
			"-0.002": 12.4359656998,
			"-0.001": 13.2257485555,
			"0.0": 14.4069135985,
			"0.001": 17.3745552879,
			"0.002": 20.5729117032,
			"0.003": 17.3696118985,
			"0.004": 8.57162076533,
			"0.005": 7.51479374371,
			"0.006": 6.28580611295,
			"0.007": 5.83063654645,
			"0.008": 4.79725082086,
			"0.009": 4.44069182376,
			"0.01": 5.04493967333,
			"0.011": 4.94631604998,
			"0.012": 6.28751422611,
			"0.013": 0.698801191187,
			"0.014": 0.0,
			"0.015": 0.0,
			"0.016": 0.0,
			"0.017": 0.0,
			"0.018": 0.0,
			"0.019": 0.0,
			"0.02": 0.0,
			"0.021": 0.0,
			"0.022": 0.0,
			"0.023": 0.0,
			"0.024": 0.0,
			"0.025": 0.0
		}
	}
}
