{
	 "smiles": "CC(C)C1=C(NC(N)=S)C=CC=C1", 
	 "Tm": 411.15, 
	 "num_atms": 27, 
	 "gaussian": { 
		 "optdone": 1, 
		 "sigma_profile": "yes", 
		 "theory": "DFT", 
		 "functional": "B3LYP", 
		 "basiset": "6-31G**", 
		 "properties": { 
			 "R2extent": 3639.364, 
			 "electric_dipole_moment_norm": 4.79245852773, 
			 "electric_quadrupole_moment_norm": 28.3393097412, 
			 "total_energy": -897.215153985, 
			 "HOMO_LUMO_gap": 0.18775, 
			 "cosmo_polarized_energy": -20.42, 
			 "cosmo_cavitation_energy": 31.15, 
			 "cosmo_dispersion_energy": -21.87, 
			 "cosmo_repulsion_energy": 1.73, 
			 "cosmo_total_nonelectrostatic_energy": 11.0, 
			 "SMD_solvation_energy": 4.83 
		},
		"coords": [
			{
				"x": -0.8502677729,
				"y": -1.7122237459,
				"z": -0.4284601581,
				"element": "C" 
			},
			{
				"x": -1.006953609,
				"y": -0.1854945983,
				"z": -0.5726881073,
				"element": "C" 
			},
			{
				"x": -2.4012309502,
				"y": 0.2792477928,
				"z": -0.1129320751,
				"element": "C" 
			},
			{
				"x": 0.1044299336,
				"y": 0.5544881657,
				"z": 0.1602867618,
				"element": "C" 
			},
			{
				"x": 1.0650300019,
				"y": 1.3341489736,
				"z": -0.5086732034,
				"element": "C" 
			},
			{
				"x": 1.0732974022,
				"y": 1.4336807188,
				"z": -1.9421581934,
				"element": "N" 
			},
			{
				"x": 0.3458295728,
				"y": 2.3323102186,
				"z": -2.6751975413,
				"element": "C" 
			},
			{
				"x": 0.6468741376,
				"y": 2.311117114,
				"z": -4.014023137,
				"element": "N" 
			},
			{
				"x": -0.7881263941,
				"y": 3.3899054475,
				"z": -2.0449499716,
				"element": "S" 
			},
			{
				"x": 2.0895225795,
				"y": 1.9780473473,
				"z": 0.1939866812,
				"element": "C" 
			},
			{
				"x": 2.1806629714,
				"y": 1.8616453861,
				"z": 1.5778963992,
				"element": "C" 
			},
			{
				"x": 1.2318301296,
				"y": 1.1000501875,
				"z": 2.2612917036,
				"element": "C" 
			},
			{
				"x": 0.213122984,
				"y": 0.4629012878,
				"z": 1.5563915783,
				"element": "C" 
			},
			{
				"x": 0.1257992027,
				"y": -2.051012457,
				"z": -0.7915082097,
				"element": "H" 
			},
			{
				"x": -0.943166215,
				"y": -2.0279985161,
				"z": 0.6164713037,
				"element": "H" 
			},
			{
				"x": -1.6254886509,
				"y": -2.2323679001,
				"z": -1.0018174978,
				"element": "H" 
			},
			{
				"x": -0.9168594893,
				"y": 0.0559696254,
				"z": -1.6353397249,
				"element": "H" 
			},
			{
				"x": -3.180087919,
				"y": -0.2227487568,
				"z": -0.6974913184,
				"element": "H" 
			},
			{
				"x": -2.5767020632,
				"y": 0.0428104606,
				"z": 0.9425831091,
				"element": "H" 
			},
			{
				"x": -2.5117326696,
				"y": 1.3581514287,
				"z": -0.2477506812,
				"element": "H" 
			},
			{
				"x": 1.8978340836,
				"y": 1.0555730706,
				"z": -2.3933511611,
				"element": "H" 
			},
			{
				"x": 0.0280242054,
				"y": 2.8564133251,
				"z": -4.594689963,
				"element": "H" 
			},
			{
				"x": 1.0084653324,
				"y": 1.4620686611,
				"z": -4.4289303068,
				"element": "H" 
			},
			{
				"x": 2.8054943049,
				"y": 2.5806859463,
				"z": -0.3575356808,
				"element": "H" 
			},
			{
				"x": 2.9775727742,
				"y": 2.3660982009,
				"z": 2.1158314179,
				"element": "H" 
			},
			{
				"x": 1.2842842764,
				"y": 1.0023383521,
				"z": 3.3419077376,
				"element": "H" 
			},
			{
				"x": -0.5166581589,
				"y": -0.1283057363,
				"z": 2.1023502386,
				"element": "H" 
			}
		],
		 "valence_orbital": [ 
			{
				"type": "occ",
				"energy": -0.27825,
				"method": "rhf"
			},
			{
				"type": "occ",
				"energy": -0.24866,
				"method": "rhf"
			},
			{
				"type": "occ",
				"energy": -0.24298,
				"method": "rhf"
			},
			{
				"type": "occ",
				"energy": -0.21516,
				"method": "rhf"
			},
			{
				"type": "occ",
				"energy": -0.19987,
				"method": "rhf"
			},
			{
				"type": "unocc",
				"energy": -0.01212,
				"method": "rhf"
			},
			{
				"type": "unocc",
				"energy": -0.0019,
				"method": "rhf"
			},
			{
				"type": "unocc",
				"energy": 0.00235,
				"method": "rhf"
			},
			{
				"type": "unocc",
				"energy": 0.0564,
				"method": "rhf"
			},
			{
				"type": "unocc",
				"energy": 0.0887,
				"method": "rhf"
			}
		],
		"cosmo_sigma_profile": { 
			"-0.025": 0.0,
			"-0.024": 0.0,
			"-0.023": 0.0,
			"-0.022": 0.0,
			"-0.021": 0.0,
			"-0.02": 0.0,
			"-0.019": 0.0,
			"-0.018": 0.0,
			"-0.017": 0.330088515317,
			"-0.016": 2.02624958886,
			"-0.015": 2.76575603532,
			"-0.014": 2.59850234378,
			"-0.013": 3.47076044916,
			"-0.012": 2.90933385932,
			"-0.011": 3.00872081078,
			"-0.01": 3.12671924233,
			"-0.009": 1.93131139896,
			"-0.008": 2.15971990543,
			"-0.007": 2.72079524876,
			"-0.006": 7.00812047411,
			"-0.005": 11.0550885177,
			"-0.004": 13.089913299,
			"-0.003": 15.6660301168,
			"-0.002": 19.5079066417,
			"-0.001": 19.7572589547,
			"0.0": 20.1210282002,
			"0.001": 22.8275555001,
			"0.002": 14.9481804991,
			"0.003": 9.35548108655,
			"0.004": 11.6268241786,
			"0.005": 12.2544193385,
			"0.006": 9.73260540362,
			"0.007": 6.74054406644,
			"0.008": 4.45330157962,
			"0.009": 5.19158900411,
			"0.01": 5.24290588979,
			"0.011": 6.37141341643,
			"0.012": 4.27309949679,
			"0.013": 1.26154817822,
			"0.014": 0.0,
			"0.015": 0.0,
			"0.016": 0.0,
			"0.017": 0.0,
			"0.018": 0.0,
			"0.019": 0.0,
			"0.02": 0.0,
			"0.021": 0.0,
			"0.022": 0.0,
			"0.023": 0.0,
			"0.024": 0.0,
			"0.025": 0.0
		}
	}
}
