{
	 "smiles": "OC(=O)C1=C(F)C(=CC=C1F)S(=O)(=O)NC1CC1", 
	 "Tm": 408.15, 
	 "num_atms": 27, 
	 "gaussian": { 
		 "optdone": 1, 
		 "sigma_profile": "yes", 
		 "theory": "DFT", 
		 "functional": "B3LYP", 
		 "basiset": "6-31G**", 
		 "properties": { 
			 "R2extent": 5290.4935, 
			 "electric_dipole_moment_norm": 4.77346251268, 
			 "electric_quadrupole_moment_norm": 23.6801489442, 
			 "total_energy": -1339.88340738, 
			 "HOMO_LUMO_gap": 0.19783, 
			 "cosmo_polarized_energy": -21.19, 
			 "cosmo_cavitation_energy": 34.03, 
			 "cosmo_dispersion_energy": -24.05, 
			 "cosmo_repulsion_energy": 1.79, 
			 "cosmo_total_nonelectrostatic_energy": 11.77, 
			 "SMD_solvation_energy": 6.53 
		},
		"coords": [
			{
				"x": -3.2316645031,
				"y": -1.5327918995,
				"z": 0.8447331366,
				"element": "O" 
			},
			{
				"x": -1.9060960596,
				"y": -1.5956827644,
				"z": 0.5991247632,
				"element": "C" 
			},
			{
				"x": -1.3235740489,
				"y": -2.6497753618,
				"z": 0.6441032475,
				"element": "O" 
			},
			{
				"x": -1.203419796,
				"y": -0.2939426392,
				"z": 0.2792460871,
				"element": "C" 
			},
			{
				"x": 0.1952767957,
				"y": -0.1983842458,
				"z": 0.4025289118,
				"element": "C" 
			},
			{
				"x": 0.8885928209,
				"y": -1.2285642647,
				"z": 0.8714032037,
				"element": "F" 
			},
			{
				"x": 0.8903080989,
				"y": 0.9634673602,
				"z": 0.0537700784,
				"element": "C" 
			},
			{
				"x": 0.1966429353,
				"y": 2.0738253052,
				"z": -0.4251323199,
				"element": "C" 
			},
			{
				"x": -1.1889308675,
				"y": 2.0297889829,
				"z": -0.5502412579,
				"element": "C" 
			},
			{
				"x": -1.8432646893,
				"y": 0.8618196325,
				"z": -0.1937666416,
				"element": "C" 
			},
			{
				"x": -3.19819211,
				"y": 0.8537465709,
				"z": -0.3146565701,
				"element": "F" 
			},
			{
				"x": 2.6720566606,
				"y": 1.0844681677,
				"z": 0.2814864561,
				"element": "S" 
			},
			{
				"x": 3.0569822523,
				"y": 2.3710109962,
				"z": -0.3060710385,
				"element": "O" 
			},
			{
				"x": 2.9889252394,
				"y": 0.7503157798,
				"z": 1.6697151152,
				"element": "O" 
			},
			{
				"x": 3.2663435576,
				"y": -0.1864981664,
				"z": -0.6498302212,
				"element": "N" 
			},
			{
				"x": 3.7483940014,
				"y": 0.0931748065,
				"z": -1.9832768755,
				"element": "C" 
			},
			{
				"x": 3.7624977713,
				"y": -1.0707991191,
				"z": -2.9415419582,
				"element": "C" 
			},
			{
				"x": 2.7578644473,
				"y": 0.0373409011,
				"z": -3.1194296162,
				"element": "C" 
			},
			{
				"x": -3.5760709609,
				"y": -0.6391375003,
				"z": 0.7001283185,
				"element": "H" 
			},
			{
				"x": 0.7581540264,
				"y": 2.9626797592,
				"z": -0.6895482431,
				"element": "H" 
			},
			{
				"x": -1.7620652184,
				"y": 2.8745412853,
				"z": -0.91336133,
				"element": "H" 
			},
			{
				"x": 3.886500938,
				"y": -0.7390676557,
				"z": -0.0625898504,
				"element": "H" 
			},
			{
				"x": 4.551541164,
				"y": 0.8223779825,
				"z": -2.0609615573,
				"element": "H" 
			},
			{
				"x": 3.3962784372,
				"y": -2.0226730848,
				"z": -2.5710058509,
				"element": "H" 
			},
			{
				"x": 4.597872654,
				"y": -1.1392140229,
				"z": -3.6308159475,
				"element": "H" 
			},
			{
				"x": 2.8921703463,
				"y": 0.7423117722,
				"z": -3.9332147503,
				"element": "H" 
			},
			{
				"x": 1.725576107,
				"y": -0.1828385775,
				"z": -2.8700952896,
				"element": "H" 
			}
		],
		 "valence_orbital": [ 
			{
				"type": "occ",
				"energy": -0.30579,
				"method": "rhf"
			},
			{
				"type": "occ",
				"energy": -0.29923,
				"method": "rhf"
			},
			{
				"type": "occ",
				"energy": -0.29098,
				"method": "rhf"
			},
			{
				"type": "occ",
				"energy": -0.28406,
				"method": "rhf"
			},
			{
				"type": "occ",
				"energy": -0.27401,
				"method": "rhf"
			},
			{
				"type": "unocc",
				"energy": -0.07618,
				"method": "rhf"
			},
			{
				"type": "unocc",
				"energy": -0.0528,
				"method": "rhf"
			},
			{
				"type": "unocc",
				"energy": 0.01942,
				"method": "rhf"
			},
			{
				"type": "unocc",
				"energy": 0.03091,
				"method": "rhf"
			},
			{
				"type": "unocc",
				"energy": 0.06433,
				"method": "rhf"
			}
		],
		"cosmo_sigma_profile": { 
			"-0.025": 0.0,
			"-0.024": 0.0,
			"-0.023": 0.0,
			"-0.022": 0.0,
			"-0.021": 0.0,
			"-0.02": 0.0,
			"-0.019": 0.0,
			"-0.018": 0.0,
			"-0.017": 0.0,
			"-0.016": 0.0,
			"-0.015": 0.846519327228,
			"-0.014": 2.37803675304,
			"-0.013": 2.26527873318,
			"-0.012": 1.55487061245,
			"-0.011": 1.71826028964,
			"-0.01": 2.57621622636,
			"-0.009": 4.74482239157,
			"-0.008": 6.99335189735,
			"-0.007": 6.70888474524,
			"-0.006": 10.3895418696,
			"-0.005": 18.0326816956,
			"-0.004": 24.058902277,
			"-0.003": 24.7232659708,
			"-0.002": 20.849087403,
			"-0.001": 18.9657090002,
			"0.0": 16.4359575352,
			"0.001": 12.8072139722,
			"0.002": 13.2811759187,
			"0.003": 9.16540463465,
			"0.004": 8.53168570919,
			"0.005": 7.48621937156,
			"0.006": 6.23924326124,
			"0.007": 6.31608154693,
			"0.008": 6.93350109989,
			"0.009": 9.41649302423,
			"0.01": 15.1647850109,
			"0.011": 11.6168775287,
			"0.012": 2.19845240193,
			"0.013": 0.223019716364,
			"0.014": 0.0,
			"0.015": 0.0,
			"0.016": 0.0,
			"0.017": 0.0,
			"0.018": 0.0,
			"0.019": 0.0,
			"0.02": 0.0,
			"0.021": 0.0,
			"0.022": 0.0,
			"0.023": 0.0,
			"0.024": 0.0,
			"0.025": 0.0
		}
	}
}
