{
	 "smiles": "OCC1=CC(O)=CC(O)=C1", 
	 "Tm": 457.15, 
	 "num_atms": 18, 
	 "gaussian": { 
		 "optdone": 1, 
		 "sigma_profile": "yes", 
		 "theory": "DFT", 
		 "functional": "B3LYP", 
		 "basiset": "6-31G**", 
		 "properties": { 
			 "R2extent": 1685.2823, 
			 "electric_dipole_moment_norm": 4.44188114316, 
			 "electric_quadrupole_moment_norm": 7.73281068694, 
			 "total_energy": -497.214433375, 
			 "HOMO_LUMO_gap": 0.20947, 
			 "cosmo_polarized_energy": -16.69, 
			 "cosmo_cavitation_energy": 22.21, 
			 "cosmo_dispersion_energy": -16.49, 
			 "cosmo_repulsion_energy": 1.36, 
			 "cosmo_total_nonelectrostatic_energy": 7.08, 
			 "SMD_solvation_energy": 4.53 
		},
		"coords": [
			{
				"x": 1.9675940134,
				"y": -0.7392773753,
				"z": 2.601792245,
				"element": "O" 
			},
			{
				"x": 2.064991303,
				"y": 0.3848344486,
				"z": 1.7213903749,
				"element": "C" 
			},
			{
				"x": 0.8509634823,
				"y": 0.5358742105,
				"z": 0.8330512638,
				"element": "C" 
			},
			{
				"x": 0.8020565912,
				"y": -0.1274085089,
				"z": -0.3979406786,
				"element": "C" 
			},
			{
				"x": -0.3477613183,
				"y": -0.0384095763,
				"z": -1.1870179549,
				"element": "C" 
			},
			{
				"x": -0.3407463223,
				"y": -0.6975254845,
				"z": -2.3828386269,
				"element": "O" 
			},
			{
				"x": -1.4516120572,
				"y": 0.7030600786,
				"z": -0.7518460816,
				"element": "C" 
			},
			{
				"x": -1.3959042849,
				"y": 1.3583982833,
				"z": 0.4830880376,
				"element": "C" 
			},
			{
				"x": -2.4391030067,
				"y": 2.0987403706,
				"z": 0.9606828134,
				"element": "O" 
			},
			{
				"x": -0.2502307634,
				"y": 1.2750472818,
				"z": 1.2787795648,
				"element": "C" 
			},
			{
				"x": 1.1211904038,
				"y": -1.1694505955,
				"z": 2.4313894508,
				"element": "H" 
			},
			{
				"x": 2.9651463593,
				"y": 0.2668279533,
				"z": 1.1034377929,
				"element": "H" 
			},
			{
				"x": 2.1974172106,
				"y": 1.2914751669,
				"z": 2.3268220722,
				"element": "H" 
			},
			{
				"x": 1.6459948996,
				"y": -0.7052764933,
				"z": -0.7596190102,
				"element": "H" 
			},
			{
				"x": -1.1824654953,
				"y": -0.5540559799,
				"z": -2.8339848064,
				"element": "H" 
			},
			{
				"x": -2.3449643415,
				"y": 0.7732804541,
				"z": -1.3712333781,
				"element": "H" 
			},
			{
				"x": -3.162745255,
				"y": 2.0845355907,
				"z": 0.3213477474,
				"element": "H" 
			},
			{
				"x": -0.2305214186,
				"y": 1.7956301751,
				"z": 2.2303991737,
				"element": "H" 
			}
		],
		 "valence_orbital": [ 
			{
				"type": "occ",
				"energy": -0.3265,
				"method": "rhf"
			},
			{
				"type": "occ",
				"energy": -0.30812,
				"method": "rhf"
			},
			{
				"type": "occ",
				"energy": -0.25865,
				"method": "rhf"
			},
			{
				"type": "occ",
				"energy": -0.24256,
				"method": "rhf"
			},
			{
				"type": "occ",
				"energy": -0.21847,
				"method": "rhf"
			},
			{
				"type": "unocc",
				"energy": -0.009,
				"method": "rhf"
			},
			{
				"type": "unocc",
				"energy": 0.01367,
				"method": "rhf"
			},
			{
				"type": "unocc",
				"energy": 0.05801,
				"method": "rhf"
			},
			{
				"type": "unocc",
				"energy": 0.06434,
				"method": "rhf"
			},
			{
				"type": "unocc",
				"energy": 0.09956,
				"method": "rhf"
			}
		],
		"cosmo_sigma_profile": { 
			"-0.025": 0.0,
			"-0.024": 0.0,
			"-0.023": 0.0,
			"-0.022": 0.0,
			"-0.021": 0.0,
			"-0.02": 0.0,
			"-0.019": 0.0,
			"-0.018": 0.98881325151,
			"-0.017": 2.32508909775,
			"-0.016": 2.28044309143,
			"-0.015": 2.603297302,
			"-0.014": 2.6455244582,
			"-0.013": 2.11696206111,
			"-0.012": 1.6848008234,
			"-0.011": 2.07168000416,
			"-0.01": 4.03517881997,
			"-0.009": 3.66468309343,
			"-0.008": 2.81582854399,
			"-0.007": 2.06354808711,
			"-0.006": 4.20041873212,
			"-0.005": 7.08645036196,
			"-0.004": 10.4405803305,
			"-0.003": 10.5788667117,
			"-0.002": 9.41807381777,
			"-0.001": 9.63846035938,
			"0.0": 7.93941770477,
			"0.001": 7.25532740863,
			"0.002": 6.98396735565,
			"0.003": 9.82280784466,
			"0.004": 16.5428161905,
			"0.005": 11.7412292828,
			"0.006": 4.22859635873,
			"0.007": 3.79876860977,
			"0.008": 4.61433246391,
			"0.009": 3.81976295064,
			"0.01": 4.34049151874,
			"0.011": 5.24538255784,
			"0.012": 3.13953209094,
			"0.013": 1.22373201836,
			"0.014": 2.64024531196,
			"0.015": 1.10016228157,
			"0.016": 0.0,
			"0.017": 0.0,
			"0.018": 0.0,
			"0.019": 0.0,
			"0.02": 0.0,
			"0.021": 0.0,
			"0.022": 0.0,
			"0.023": 0.0,
			"0.024": 0.0,
			"0.025": 0.0
		}
	}
}
