{
	 "smiles": "CC1=C(C)C(=CC=C1)C(=O)CC#N", 
	 "Tm": 330.15, 
	 "num_atms": 24, 
	 "gaussian": { 
		 "optdone": 1, 
		 "sigma_profile": "yes", 
		 "theory": "DFT", 
		 "functional": "B3LYP", 
		 "basiset": "6-31G**", 
		 "properties": { 
			 "R2extent": 3524.1423, 
			 "electric_dipole_moment_norm": 3.75534398025, 
			 "electric_quadrupole_moment_norm": 21.0393769159, 
			 "total_energy": -555.761532011, 
			 "HOMO_LUMO_gap": 0.18291, 
			 "cosmo_polarized_energy": -12.08, 
			 "cosmo_cavitation_energy": 28.06, 
			 "cosmo_dispersion_energy": -19.67, 
			 "cosmo_repulsion_energy": 1.55, 
			 "cosmo_total_nonelectrostatic_energy": 9.95, 
			 "SMD_solvation_energy": 6.61 
		},
		"coords": [
			{
				"x": -1.3983228634,
				"y": 1.4929039219,
				"z": 0.1726707625,
				"element": "C" 
			},
			{
				"x": -0.2912848033,
				"y": 0.7504806301,
				"z": -0.545635716,
				"element": "C" 
			},
			{
				"x": 0.2292443861,
				"y": -0.4677436127,
				"z": -0.0537876558,
				"element": "C" 
			},
			{
				"x": -0.3406044894,
				"y": -1.0664170499,
				"z": 1.2120093397,
				"element": "C" 
			},
			{
				"x": 1.2756209391,
				"y": -1.1015491679,
				"z": -0.780356104,
				"element": "C" 
			},
			{
				"x": 1.7577743817,
				"y": -0.5256981988,
				"z": -1.9702556039,
				"element": "C" 
			},
			{
				"x": 1.2403344671,
				"y": 0.6716500609,
				"z": -2.4418455193,
				"element": "C" 
			},
			{
				"x": 0.2246758304,
				"y": 1.2997635281,
				"z": -1.7258096663,
				"element": "C" 
			},
			{
				"x": 1.9079414651,
				"y": -2.3548506679,
				"z": -0.2849455039,
				"element": "C" 
			},
			{
				"x": 1.7832619542,
				"y": -2.778882853,
				"z": 0.8510318476,
				"element": "O" 
			},
			{
				"x": 2.8266567894,
				"y": -3.1763477305,
				"z": -1.2381377188,
				"element": "C" 
			},
			{
				"x": 2.1846829494,
				"y": -3.6192538154,
				"z": -2.4743219128,
				"element": "C" 
			},
			{
				"x": 1.6639619866,
				"y": -3.9762423432,
				"z": -3.4485825259,
				"element": "N" 
			},
			{
				"x": -1.1317561514,
				"y": 1.724590221,
				"z": 1.2093675923,
				"element": "H" 
			},
			{
				"x": -2.3288488615,
				"y": 0.9144173616,
				"z": 0.2009132278,
				"element": "H" 
			},
			{
				"x": -1.6156851644,
				"y": 2.4376040058,
				"z": -0.3320940693,
				"element": "H" 
			},
			{
				"x": 0.3505187457,
				"y": -0.9451028013,
				"z": 2.0525543061,
				"element": "H" 
			},
			{
				"x": -0.4998301289,
				"y": -2.1416544183,
				"z": 1.1136634928,
				"element": "H" 
			},
			{
				"x": -1.288369111,
				"y": -0.5984406341,
				"z": 1.478546342,
				"element": "H" 
			},
			{
				"x": 2.5465646668,
				"y": -1.0102971537,
				"z": -2.5332039669,
				"element": "H" 
			},
			{
				"x": 1.6220775647,
				"y": 1.1116011825,
				"z": -3.3576719645,
				"element": "H" 
			},
			{
				"x": -0.1841718628,
				"y": 2.2390078111,
				"z": -2.0893028956,
				"element": "H" 
			},
			{
				"x": 3.7233515522,
				"y": -2.5962174593,
				"z": -1.486938747,
				"element": "H" 
			},
			{
				"x": 3.1459057578,
				"y": -4.047520817,
				"z": -0.660867341,
				"element": "H" 
			}
		],
		 "valence_orbital": [ 
			{
				"type": "occ",
				"energy": -0.33682,
				"method": "rhf"
			},
			{
				"type": "occ",
				"energy": -0.32765,
				"method": "rhf"
			},
			{
				"type": "occ",
				"energy": -0.26496,
				"method": "rhf"
			},
			{
				"type": "occ",
				"energy": -0.26207,
				"method": "rhf"
			},
			{
				"type": "occ",
				"energy": -0.25171,
				"method": "rhf"
			},
			{
				"type": "unocc",
				"energy": -0.0688,
				"method": "rhf"
			},
			{
				"type": "unocc",
				"energy": -0.01545,
				"method": "rhf"
			},
			{
				"type": "unocc",
				"energy": 0.01815,
				"method": "rhf"
			},
			{
				"type": "unocc",
				"energy": 0.03343,
				"method": "rhf"
			},
			{
				"type": "unocc",
				"energy": 0.04276,
				"method": "rhf"
			}
		],
		"cosmo_sigma_profile": { 
			"-0.025": 0.0,
			"-0.024": 0.0,
			"-0.023": 0.0,
			"-0.022": 0.0,
			"-0.021": 0.0,
			"-0.02": 0.0,
			"-0.019": 0.0,
			"-0.018": 0.0,
			"-0.017": 0.0,
			"-0.016": 0.0,
			"-0.015": 0.0,
			"-0.014": 0.0,
			"-0.013": 0.0,
			"-0.012": 0.00254560293348,
			"-0.011": 1.79416379516,
			"-0.01": 3.37168382536,
			"-0.009": 4.17828597459,
			"-0.008": 4.56950854118,
			"-0.007": 4.59180793281,
			"-0.006": 10.4866018558,
			"-0.005": 11.7557367852,
			"-0.004": 18.698418813,
			"-0.003": 17.2282815342,
			"-0.002": 19.4362263107,
			"-0.001": 17.1129291621,
			"0.0": 19.8948613644,
			"0.001": 15.1686734631,
			"0.002": 11.9140570454,
			"0.003": 12.8059101962,
			"0.004": 12.6411591883,
			"0.005": 5.02949611821,
			"0.006": 3.78605548081,
			"0.007": 3.64470685237,
			"0.008": 5.41090287629,
			"0.009": 4.53070529245,
			"0.01": 5.44867482198,
			"0.011": 5.62783250057,
			"0.012": 3.30853953461,
			"0.013": 1.49858344703,
			"0.014": 0.0510025513105,
			"0.015": 0.0,
			"0.016": 0.0,
			"0.017": 0.0,
			"0.018": 0.0,
			"0.019": 0.0,
			"0.02": 0.0,
			"0.021": 0.0,
			"0.022": 0.0,
			"0.023": 0.0,
			"0.024": 0.0,
			"0.025": 0.0
		}
	}
}
