{
	 "smiles": "CC1=C(C)C(O)=NC(S)=N1", 
	 "Tm": 550.15, 
	 "num_atms": 18, 
	 "gaussian": { 
		 "optdone": 1, 
		 "sigma_profile": "yes", 
		 "theory": "DFT", 
		 "functional": "B3LYP", 
		 "basiset": "6-31G**", 
		 "properties": { 
			 "R2extent": 2061.9318, 
			 "electric_dipole_moment_norm": 2.46933306988, 
			 "electric_quadrupole_moment_norm": 9.28024965289, 
			 "total_energy": -816.394799412, 
			 "HOMO_LUMO_gap": 0.20166, 
			 "cosmo_polarized_energy": -9.53, 
			 "cosmo_cavitation_energy": 23.55, 
			 "cosmo_dispersion_energy": -18.13, 
			 "cosmo_repulsion_energy": 1.44, 
			 "cosmo_total_nonelectrostatic_energy": 6.86, 
			 "SMD_solvation_energy": 1.52 
		},
		"coords": [
			{
				"x": 1.0729572906,
				"y": -2.0920664022,
				"z": -0.8054384818,
				"element": "C" 
			},
			{
				"x": 0.1197292328,
				"y": -1.0978158761,
				"z": -0.1975805654,
				"element": "C" 
			},
			{
				"x": 0.5655089333,
				"y": -0.1264756866,
				"z": 0.7096705269,
				"element": "C" 
			},
			{
				"x": 2.0025354983,
				"y": 0.0009063158,
				"z": 1.1421418777,
				"element": "C" 
			},
			{
				"x": -0.4396511658,
				"y": 0.7284048483,
				"z": 1.1897358009,
				"element": "C" 
			},
			{
				"x": -0.1184944033,
				"y": 1.6998585094,
				"z": 2.0682614049,
				"element": "O" 
			},
			{
				"x": -1.7214164259,
				"y": 0.646710161,
				"z": 0.830274104,
				"element": "N" 
			},
			{
				"x": -2.0150329677,
				"y": -0.3229984926,
				"z": -0.040847293,
				"element": "C" 
			},
			{
				"x": -3.7048135564,
				"y": -0.5024513976,
				"z": -0.5742806585,
				"element": "S" 
			},
			{
				"x": -1.1694655568,
				"y": -1.1994699609,
				"z": -0.5754130583,
				"element": "N" 
			},
			{
				"x": 1.563095858,
				"y": -2.6937576967,
				"z": -0.0312116814,
				"element": "H" 
			},
			{
				"x": 1.8678877858,
				"y": -1.58591764,
				"z": -1.3654273612,
				"element": "H" 
			},
			{
				"x": 0.5292230263,
				"y": -2.7543065303,
				"z": -1.4794656125,
				"element": "H" 
			},
			{
				"x": 2.6615365161,
				"y": 0.1973216314,
				"z": 0.2881217339,
				"element": "H" 
			},
			{
				"x": 2.1231008222,
				"y": 0.8169531705,
				"z": 1.8552865215,
				"element": "H" 
			},
			{
				"x": 2.3605581033,
				"y": -0.9200883176,
				"z": 1.6171511909,
				"element": "H" 
			},
			{
				"x": -0.9456201225,
				"y": 2.1669420729,
				"z": 2.2677339127,
				"element": "H" 
			},
			{
				"x": -4.1744388682,
				"y": 0.5194512912,
				"z": 0.1665876387,
				"element": "H" 
			}
		],
		 "valence_orbital": [ 
			{
				"type": "occ",
				"energy": -0.30657,
				"method": "rhf"
			},
			{
				"type": "occ",
				"energy": -0.29734,
				"method": "rhf"
			},
			{
				"type": "occ",
				"energy": -0.2766,
				"method": "rhf"
			},
			{
				"type": "occ",
				"energy": -0.25957,
				"method": "rhf"
			},
			{
				"type": "occ",
				"energy": -0.22962,
				"method": "rhf"
			},
			{
				"type": "unocc",
				"energy": -0.02796,
				"method": "rhf"
			},
			{
				"type": "unocc",
				"energy": -0.0108,
				"method": "rhf"
			},
			{
				"type": "unocc",
				"energy": 0.0255,
				"method": "rhf"
			},
			{
				"type": "unocc",
				"energy": 0.0745,
				"method": "rhf"
			},
			{
				"type": "unocc",
				"energy": 0.08534,
				"method": "rhf"
			}
		],
		"cosmo_sigma_profile": { 
			"-0.025": 0.0,
			"-0.024": 0.0,
			"-0.023": 0.0,
			"-0.022": 0.0,
			"-0.021": 0.0,
			"-0.02": 0.0,
			"-0.019": 0.0,
			"-0.018": 0.146339078692,
			"-0.017": 0.804892679611,
			"-0.016": 0.848423378734,
			"-0.015": 0.597205519575,
			"-0.014": 0.69790569477,
			"-0.013": 0.948825499022,
			"-0.012": 0.524626238099,
			"-0.011": 1.30667758266,
			"-0.01": 2.07331209529,
			"-0.009": 2.14502576911,
			"-0.008": 1.3684619467,
			"-0.007": 1.63942878084,
			"-0.006": 2.84763962437,
			"-0.005": 11.9767988612,
			"-0.004": 12.346175839,
			"-0.003": 12.2077369621,
			"-0.002": 15.4260332298,
			"-0.001": 21.9155109996,
			"0.0": 22.6493217465,
			"0.001": 11.3583917412,
			"0.002": 10.4203715101,
			"0.003": 9.59554068619,
			"0.004": 9.3449738216,
			"0.005": 8.54633128855,
			"0.006": 6.98027005107,
			"0.007": 8.31846227719,
			"0.008": 5.62353658783,
			"0.009": 2.53765106268,
			"0.01": 1.1510646443,
			"0.011": 0.684221368589,
			"0.012": 1.13024910515,
			"0.013": 0.845324457296,
			"0.014": 0.319998195506,
			"0.015": 0.0,
			"0.016": 0.0,
			"0.017": 0.0,
			"0.018": 0.0,
			"0.019": 0.0,
			"0.02": 0.0,
			"0.021": 0.0,
			"0.022": 0.0,
			"0.023": 0.0,
			"0.024": 0.0,
			"0.025": 0.0
		}
	}
}
