{
	 "smiles": "OC(=O)C(F)(F)C(F)(F)C(F)(F)C(F)(F)C(F)(F)C(F)(F)C(F)(F)C(F)F", 
	 "Tm": 340.15, 
	 "num_atms": 29, 
	 "gaussian": { 
		 "optdone": 1, 
		 "sigma_profile": "yes", 
		 "theory": "DFT", 
		 "functional": "B3LYP", 
		 "basiset": "6-31G**", 
		 "properties": { 
			 "R2extent": 10528.2825, 
			 "electric_dipole_moment_norm": 2.03474986669, 
			 "electric_quadrupole_moment_norm": 18.3200438558, 
			 "total_energy": -2091.96576236, 
			 "HOMO_LUMO_gap": 0.26539, 
			 "cosmo_polarized_energy": -11.03, 
			 "cosmo_cavitation_energy": 37.97, 
			 "cosmo_dispersion_energy": -25.11, 
			 "cosmo_repulsion_energy": 1.61, 
			 "cosmo_total_nonelectrostatic_energy": 14.47, 
			 "SMD_solvation_energy": 12.36 
		},
		"coords": [
			{
				"x": -1.2311242093,
				"y": 3.5071291613,
				"z": 0.3322006248,
				"element": "O" 
			},
			{
				"x": -0.3522586671,
				"y": 3.0701957464,
				"z": 1.2416064374,
				"element": "C" 
			},
			{
				"x": 0.4695497235,
				"y": 3.7638155102,
				"z": 1.7725331381,
				"element": "O" 
			},
			{
				"x": -0.4995727876,
				"y": 1.5714767494,
				"z": 1.6225084174,
				"element": "C" 
			},
			{
				"x": -1.5394058901,
				"y": 1.0084053901,
				"z": 0.9190099853,
				"element": "F" 
			},
			{
				"x": -0.7941346076,
				"y": 1.4990774246,
				"z": 2.9376878602,
				"element": "F" 
			},
			{
				"x": 0.7572732967,
				"y": 0.6855003781,
				"z": 1.3865619211,
				"element": "C" 
			},
			{
				"x": 0.5104747881,
				"y": -0.515228843,
				"z": 1.9634137233,
				"element": "F" 
			},
			{
				"x": 1.8089487172,
				"y": 1.2554615306,
				"z": 2.0041275899,
				"element": "F" 
			},
			{
				"x": 1.0651774461,
				"y": 0.4559778892,
				"z": -0.1239131369,
				"element": "C" 
			},
			{
				"x": 0.1948971227,
				"y": -0.454088266,
				"z": -0.6061082513,
				"element": "F" 
			},
			{
				"x": 0.8391380949,
				"y": 1.6442696047,
				"z": -0.7573699444,
				"element": "F" 
			},
			{
				"x": 2.5147174754,
				"y": 0.0474650241,
				"z": -0.5302294635,
				"element": "C" 
			},
			{
				"x": 2.5624784187,
				"y": 0.0586910694,
				"z": -1.8810849201,
				"element": "F" 
			},
			{
				"x": 3.347409236,
				"y": 1.00749058,
				"z": -0.0697372938,
				"element": "F" 
			},
			{
				"x": 3.0942598077,
				"y": -1.312879293,
				"z": -0.0307855506,
				"element": "C" 
			},
			{
				"x": 2.9755680378,
				"y": -1.327538158,
				"z": 1.3306513847,
				"element": "F" 
			},
			{
				"x": 4.405426619,
				"y": -1.2754805329,
				"z": -0.3325839694,
				"element": "F" 
			},
			{
				"x": 2.5024003756,
				"y": -2.6509188524,
				"z": -0.620895344,
				"element": "C" 
			},
			{
				"x": 1.6981353689,
				"y": -2.3637214212,
				"z": -1.67367612,
				"element": "F" 
			},
			{
				"x": 3.528726232,
				"y": -3.3989691156,
				"z": -1.0699351592,
				"element": "F" 
			},
			{
				"x": 1.6599768268,
				"y": -3.5319387232,
				"z": 0.3492025465,
				"element": "C" 
			},
			{
				"x": 0.5219044958,
				"y": -2.8551943226,
				"z": 0.6587492556,
				"element": "F" 
			},
			{
				"x": 1.3244329104,
				"y": -4.630841628,
				"z": -0.3636002082,
				"element": "F" 
			},
			{
				"x": 2.3256215093,
				"y": -3.9713640957,
				"z": 1.6753582185,
				"element": "C" 
			},
			{
				"x": 1.7652882296,
				"y": -5.1405483275,
				"z": 2.0585237812,
				"element": "F" 
			},
			{
				"x": 3.6562841624,
				"y": -4.1622166254,
				"z": 1.4772605414,
				"element": "F" 
			},
			{
				"x": -1.7948213648,
				"y": 2.7737538938,
				"z": 0.0372764572,
				"element": "H" 
			},
			{
				"x": 2.1724286319,
				"y": -3.2208817472,
				"z": 2.4530474788,
				"element": "H" 
			}
		],
		 "valence_orbital": [ 
			{
				"type": "occ",
				"energy": -0.38027,
				"method": "rhf"
			},
			{
				"type": "occ",
				"energy": -0.36614,
				"method": "rhf"
			},
			{
				"type": "occ",
				"energy": -0.35251,
				"method": "rhf"
			},
			{
				"type": "occ",
				"energy": -0.35119,
				"method": "rhf"
			},
			{
				"type": "occ",
				"energy": -0.30831,
				"method": "rhf"
			},
			{
				"type": "unocc",
				"energy": -0.04292,
				"method": "rhf"
			},
			{
				"type": "unocc",
				"energy": -0.00172,
				"method": "rhf"
			},
			{
				"type": "unocc",
				"energy": 0.00255,
				"method": "rhf"
			},
			{
				"type": "unocc",
				"energy": 0.02598,
				"method": "rhf"
			},
			{
				"type": "unocc",
				"energy": 0.03719,
				"method": "rhf"
			}
		],
		"cosmo_sigma_profile": { 
			"-0.025": 0.0,
			"-0.024": 0.0,
			"-0.023": 0.0,
			"-0.022": 0.0,
			"-0.021": 0.0,
			"-0.02": 0.0228396738847,
			"-0.019": 0.50504109988,
			"-0.018": 0.528644419941,
			"-0.017": 0.683343455833,
			"-0.016": 0.949790957119,
			"-0.015": 0.881643702281,
			"-0.014": 1.06860443308,
			"-0.013": 1.56174846561,
			"-0.012": 1.01610407179,
			"-0.011": 2.06989130971,
			"-0.01": 3.39489440244,
			"-0.009": 2.65072233543,
			"-0.008": 2.73789067833,
			"-0.007": 4.249558368,
			"-0.006": 3.86332356286,
			"-0.005": 4.36774138208,
			"-0.004": 5.49092503926,
			"-0.003": 7.76218063572,
			"-0.002": 15.9679883918,
			"-0.001": 28.8883472727,
			"0.0": 51.3053366888,
			"0.001": 86.2981531089,
			"0.002": 36.1117204767,
			"0.003": 16.0904320742,
			"0.004": 3.0755651504,
			"0.005": 3.14191773634,
			"0.006": 3.9574013079,
			"0.007": 4.04233566154,
			"0.008": 4.58171585702,
			"0.009": 4.61925339478,
			"0.01": 2.64265607716,
			"0.011": 0.273331272552,
			"0.012": 0.0,
			"0.013": 0.0,
			"0.014": 0.0,
			"0.015": 0.0,
			"0.016": 0.0,
			"0.017": 0.0,
			"0.018": 0.0,
			"0.019": 0.0,
			"0.02": 0.0,
			"0.021": 0.0,
			"0.022": 0.0,
			"0.023": 0.0,
			"0.024": 0.0,
			"0.025": 0.0
		}
	}
}
