{
	 "smiles": "NC1=CC(=NO1)C1=CC=CO1", 
	 "Tm": 370.15, 
	 "num_atms": 17, 
	 "gaussian": { 
		 "optdone": 1, 
		 "sigma_profile": "yes", 
		 "theory": "DFT", 
		 "functional": "B3LYP", 
		 "basiset": "6-31G**", 
		 "properties": { 
			 "R2extent": 2782.9883, 
			 "electric_dipole_moment_norm": 3.15407366591, 
			 "electric_quadrupole_moment_norm": 22.497748214, 
			 "total_energy": -530.232886683, 
			 "HOMO_LUMO_gap": 0.18779, 
			 "cosmo_polarized_energy": -13.86, 
			 "cosmo_cavitation_energy": 22.42, 
			 "cosmo_dispersion_energy": -16.84, 
			 "cosmo_repulsion_energy": 1.35, 
			 "cosmo_total_nonelectrostatic_energy": 6.93, 
			 "SMD_solvation_energy": 4.9 
		},
		"coords": [
			{
				"x": -4.6739397374,
				"y": 0.4512493733,
				"z": 1.0730301287,
				"element": "N" 
			},
			{
				"x": -3.3318497526,
				"y": 0.658255494,
				"z": 0.863717414,
				"element": "C" 
			},
			{
				"x": -2.6071568978,
				"y": 1.1517842165,
				"z": -0.1883055576,
				"element": "C" 
			},
			{
				"x": -1.2738325021,
				"y": 1.1553705048,
				"z": 0.3137229252,
				"element": "C" 
			},
			{
				"x": -1.1903583905,
				"y": 0.7042931462,
				"z": 1.5538628508,
				"element": "N" 
			},
			{
				"x": -2.5239603446,
				"y": 0.3835665921,
				"z": 1.9032489527,
				"element": "O" 
			},
			{
				"x": -0.0781086339,
				"y": 1.5863172492,
				"z": -0.3853520387,
				"element": "C" 
			},
			{
				"x": 1.2443191769,
				"y": 1.6486534897,
				"z": -0.0387680407,
				"element": "C" 
			},
			{
				"x": 1.9352288426,
				"y": 2.1698502995,
				"z": -1.1761307685,
				"element": "C" 
			},
			{
				"x": 0.9869988334,
				"y": 2.3861912207,
				"z": -2.1313478785,
				"element": "C" 
			},
			{
				"x": -0.244932919,
				"y": 2.036981039,
				"z": -1.6687788592,
				"element": "O" 
			},
			{
				"x": -5.2191797491,
				"y": 0.2967710478,
				"z": 0.2374277899,
				"element": "H" 
			},
			{
				"x": -4.8860343047,
				"y": -0.1995286851,
				"z": 1.8174986833,
				"element": "H" 
			},
			{
				"x": -2.9527331753,
				"y": 1.470714367,
				"z": -1.1577164309,
				"element": "H" 
			},
			{
				"x": 1.6593508615,
				"y": 1.3563643706,
				"z": 0.9142231007,
				"element": "H" 
			},
			{
				"x": 2.995185756,
				"y": 2.3576049214,
				"z": -1.2685367946,
				"element": "H" 
			},
			{
				"x": 1.0196029365,
				"y": 2.7649613533,
				"z": -3.1409954768,
				"element": "H" 
			}
		],
		 "valence_orbital": [ 
			{
				"type": "occ",
				"energy": -0.30778,
				"method": "rhf"
			},
			{
				"type": "occ",
				"energy": -0.29593,
				"method": "rhf"
			},
			{
				"type": "occ",
				"energy": -0.27839,
				"method": "rhf"
			},
			{
				"type": "occ",
				"energy": -0.22319,
				"method": "rhf"
			},
			{
				"type": "occ",
				"energy": -0.21045,
				"method": "rhf"
			},
			{
				"type": "unocc",
				"energy": -0.02266,
				"method": "rhf"
			},
			{
				"type": "unocc",
				"energy": 0.03358,
				"method": "rhf"
			},
			{
				"type": "unocc",
				"energy": 0.05779,
				"method": "rhf"
			},
			{
				"type": "unocc",
				"energy": 0.07033,
				"method": "rhf"
			},
			{
				"type": "unocc",
				"energy": 0.10902,
				"method": "rhf"
			}
		],
		"cosmo_sigma_profile": { 
			"-0.025": 0.0,
			"-0.024": 0.0,
			"-0.023": 0.0,
			"-0.022": 0.0,
			"-0.021": 0.0,
			"-0.02": 0.0,
			"-0.019": 0.0,
			"-0.018": 0.0,
			"-0.017": 0.0,
			"-0.016": 0.0,
			"-0.015": 0.987616969926,
			"-0.014": 2.90150520445,
			"-0.013": 2.66905048637,
			"-0.012": 2.29669704918,
			"-0.011": 2.61141145185,
			"-0.01": 2.58208624416,
			"-0.009": 3.71060085395,
			"-0.008": 5.47250222948,
			"-0.007": 8.50142582871,
			"-0.006": 5.92346543347,
			"-0.005": 7.97228732878,
			"-0.004": 7.35868393616,
			"-0.003": 6.98095629158,
			"-0.002": 6.42680688451,
			"-0.001": 7.23525345094,
			"0.0": 7.2721344816,
			"0.001": 12.8330139655,
			"0.002": 18.4204466566,
			"0.003": 18.2234074227,
			"0.004": 14.3088450915,
			"0.005": 7.67131941916,
			"0.006": 5.33523196595,
			"0.007": 3.63739203288,
			"0.008": 5.02356990648,
			"0.009": 4.37951514628,
			"0.01": 1.9802652433,
			"0.011": 2.64762584954,
			"0.012": 1.74120364497,
			"0.013": 1.07450925483,
			"0.014": 1.48549032957,
			"0.015": 0.665066867679,
			"0.016": 0.0,
			"0.017": 0.0,
			"0.018": 0.0,
			"0.019": 0.0,
			"0.02": 0.0,
			"0.021": 0.0,
			"0.022": 0.0,
			"0.023": 0.0,
			"0.024": 0.0,
			"0.025": 0.0
		}
	}
}
