{
	 "smiles": "ClC1=C2CCCC2=NC=N1", 
	 "Tm": 313.15, 
	 "num_atms": 17, 
	 "gaussian": { 
		 "optdone": 1, 
		 "sigma_profile": "yes", 
		 "theory": "DFT", 
		 "functional": "B3LYP", 
		 "basiset": "6-31G**", 
		 "properties": { 
			 "R2extent": 2012.5824, 
			 "electric_dipole_moment_norm": 3.1238215602, 
			 "electric_quadrupole_moment_norm": 6.88547389509, 
			 "total_energy": -840.663888456, 
			 "HOMO_LUMO_gap": 0.21901, 
			 "cosmo_polarized_energy": -6.89, 
			 "cosmo_cavitation_energy": 21.97, 
			 "cosmo_dispersion_energy": -16.9, 
			 "cosmo_repulsion_energy": 1.38, 
			 "cosmo_total_nonelectrostatic_energy": 6.44, 
			 "SMD_solvation_energy": 0.01 
		},
		"coords": [
			{
				"x": -1.6908018772,
				"y": 1.6031981756,
				"z": 2.821617555,
				"element": "Cl" 
			},
			{
				"x": -0.3975088321,
				"y": 0.8663556048,
				"z": 1.8839512276,
				"element": "C" 
			},
			{
				"x": -0.3428646471,
				"y": 1.0530706937,
				"z": 0.5087216979,
				"element": "C" 
			},
			{
				"x": -1.2114028812,
				"y": 1.7972251453,
				"z": -0.46968446,
				"element": "C" 
			},
			{
				"x": -0.3266442509,
				"y": 1.8439186333,
				"z": -1.7498817245,
				"element": "C" 
			},
			{
				"x": 0.6666416087,
				"y": 0.6593720553,
				"z": -1.625674411,
				"element": "C" 
			},
			{
				"x": 0.7224063686,
				"y": 0.4112998784,
				"z": -0.1370386274,
				"element": "C" 
			},
			{
				"x": 1.6375480906,
				"y": -0.3292708497,
				"z": 0.4920049432,
				"element": "N" 
			},
			{
				"x": 1.4691720268,
				"y": -0.4140683721,
				"z": 1.8172173375,
				"element": "C" 
			},
			{
				"x": 0.4972093853,
				"y": 0.1476010833,
				"z": 2.5473391838,
				"element": "N" 
			},
			{
				"x": -1.4984815467,
				"y": 2.7910748942,
				"z": -0.1139705796,
				"element": "H" 
			},
			{
				"x": -2.1439695092,
				"y": 1.2435991747,
				"z": -0.6429921117,
				"element": "H" 
			},
			{
				"x": 0.233054054,
				"y": 2.7849140055,
				"z": -1.7647467946,
				"element": "H" 
			},
			{
				"x": -0.9196808483,
				"y": 1.8036937804,
				"z": -2.666533048,
				"element": "H" 
			},
			{
				"x": 0.290233646,
				"y": -0.2427014084,
				"z": -2.1267256398,
				"element": "H" 
			},
			{
				"x": 1.6546105643,
				"y": 0.8660226015,
				"z": -2.0463063437,
				"element": "H" 
			},
			{
				"x": 2.1997786484,
				"y": -1.0019050957,
				"z": 2.3680017955,
				"element": "H" 
			}
		],
		 "valence_orbital": [ 
			{
				"type": "occ",
				"energy": -0.32031,
				"method": "rhf"
			},
			{
				"type": "occ",
				"energy": -0.30755,
				"method": "rhf"
			},
			{
				"type": "occ",
				"energy": -0.29878,
				"method": "rhf"
			},
			{
				"type": "occ",
				"energy": -0.26984,
				"method": "rhf"
			},
			{
				"type": "occ",
				"energy": -0.26384,
				"method": "rhf"
			},
			{
				"type": "unocc",
				"energy": -0.04483,
				"method": "rhf"
			},
			{
				"type": "unocc",
				"energy": -0.03289,
				"method": "rhf"
			},
			{
				"type": "unocc",
				"energy": 0.03086,
				"method": "rhf"
			},
			{
				"type": "unocc",
				"energy": 0.08418,
				"method": "rhf"
			},
			{
				"type": "unocc",
				"energy": 0.1097,
				"method": "rhf"
			}
		],
		"cosmo_sigma_profile": { 
			"-0.025": 0.0,
			"-0.024": 0.0,
			"-0.023": 0.0,
			"-0.022": 0.0,
			"-0.021": 0.0,
			"-0.02": 0.0,
			"-0.019": 0.0,
			"-0.018": 0.0,
			"-0.017": 0.0,
			"-0.016": 0.0,
			"-0.015": 0.0,
			"-0.014": 0.0,
			"-0.013": 0.0,
			"-0.012": 0.0,
			"-0.011": 0.0,
			"-0.01": 0.0,
			"-0.009": 0.0,
			"-0.008": 1.2670033501,
			"-0.007": 1.98834510907,
			"-0.006": 2.49660655563,
			"-0.005": 10.3224743271,
			"-0.004": 18.0997233219,
			"-0.003": 24.9835867772,
			"-0.002": 23.8488657442,
			"-0.001": 20.7962084382,
			"0.0": 12.2776278633,
			"0.001": 7.86569538751,
			"0.002": 9.53375031397,
			"0.003": 9.94616146318,
			"0.004": 9.71163338343,
			"0.005": 4.23835232512,
			"0.006": 3.77976447868,
			"0.007": 2.92296280523,
			"0.008": 1.90727081761,
			"0.009": 2.0218512314,
			"0.01": 1.92155003853,
			"0.011": 1.94792219398,
			"0.012": 1.85801662957,
			"0.013": 1.60826201639,
			"0.014": 1.4159378939,
			"0.015": 0.545955823309,
			"0.016": 0.0728750185489,
			"0.017": 0.0,
			"0.018": 0.0,
			"0.019": 0.0,
			"0.02": 0.0,
			"0.021": 0.0,
			"0.022": 0.0,
			"0.023": 0.0,
			"0.024": 0.0,
			"0.025": 0.0
		}
	}
}
