{
	 "smiles": "CC(=O)OCC1OC(OC2=CC=C(C=C2)[N+]([O-])=O)C(OC(C)=O)C(OC(C)=O)C1OC(C)=O", 
	 "Tm": 450.15, 
	 "num_atms": 56, 
	 "gaussian": { 
		 "optdone": 1, 
		 "sigma_profile": "yes", 
		 "theory": "DFT", 
		 "functional": "B3LYP", 
		 "basiset": "6-31G**", 
		 "properties": { 
			 "R2extent": 16718.2391, 
			 "electric_dipole_moment_norm": 9.07141616508, 
			 "electric_quadrupole_moment_norm": 21.2930581869, 
			 "total_energy": -1733.35550836, 
			 "HOMO_LUMO_gap": 0.1787, 
			 "cosmo_polarized_energy": -27.52, 
			 "cosmo_cavitation_energy": 61.55, 
			 "cosmo_dispersion_energy": -38.33, 
			 "cosmo_repulsion_energy": 2.95, 
			 "cosmo_total_nonelectrostatic_energy": 26.16, 
			 "SMD_solvation_energy": 16.39 
		},
		"coords": [
			{
				"x": 2.1145491774,
				"y": 3.5131230803,
				"z": -1.4721367392,
				"element": "C" 
			},
			{
				"x": 0.8711249964,
				"y": 3.8724601485,
				"z": -0.6971950033,
				"element": "C" 
			},
			{
				"x": 0.191958324,
				"y": 4.860494154,
				"z": -0.8451720106,
				"element": "O" 
			},
			{
				"x": 0.5957269049,
				"y": 2.9186720626,
				"z": 0.2398050048,
				"element": "O" 
			},
			{
				"x": -0.5869414072,
				"y": 3.1193547812,
				"z": 1.038748428,
				"element": "C" 
			},
			{
				"x": -0.8822983572,
				"y": 1.8267754329,
				"z": 1.7947316407,
				"element": "C" 
			},
			{
				"x": -1.3267014208,
				"y": 0.792976211,
				"z": 0.9210033121,
				"element": "O" 
			},
			{
				"x": -0.3895318154,
				"y": 0.0980065783,
				"z": 0.1186152956,
				"element": "C" 
			},
			{
				"x": -0.929645332,
				"y": -1.1882927905,
				"z": -0.0869890762,
				"element": "O" 
			},
			{
				"x": -1.8856560817,
				"y": -1.3147609975,
				"z": -1.0701746243,
				"element": "C" 
			},
			{
				"x": -3.1699377157,
				"y": -1.7155737959,
				"z": -0.689390738,
				"element": "C" 
			},
			{
				"x": -4.1424197275,
				"y": -1.9217965162,
				"z": -1.6614019119,
				"element": "C" 
			},
			{
				"x": -3.8117093241,
				"y": -1.7129916414,
				"z": -3.0007602215,
				"element": "C" 
			},
			{
				"x": -2.5339245504,
				"y": -1.3132663155,
				"z": -3.3925665332,
				"element": "C" 
			},
			{
				"x": -1.5603276819,
				"y": -1.1179462873,
				"z": -2.418692475,
				"element": "C" 
			},
			{
				"x": -4.8365882086,
				"y": -1.9260807919,
				"z": -4.0294343995,
				"element": "N" 
			},
			{
				"x": -4.5191696549,
				"y": -1.7303596328,
				"z": -5.2033186572,
				"element": "O" 
			},
			{
				"x": -5.953610026,
				"y": -2.2881664116,
				"z": -3.6586087191,
				"element": "O" 
			},
			{
				"x": 0.9861015081,
				"y": -0.0688661171,
				"z": 0.8191872172,
				"element": "C" 
			},
			{
				"x": 1.6060954128,
				"y": -1.3193500907,
				"z": 0.4932477964,
				"element": "O" 
			},
			{
				"x": 2.0657162881,
				"y": -1.4403085712,
				"z": -0.7725521884,
				"element": "C" 
			},
			{
				"x": 2.6766850754,
				"y": -2.7990125544,
				"z": -0.9973543367,
				"element": "C" 
			},
			{
				"x": 1.9733691059,
				"y": -0.5594197524,
				"z": -1.6049239327,
				"element": "O" 
			},
			{
				"x": 0.8239503491,
				"y": -0.0126304916,
				"z": 2.3328229569,
				"element": "C" 
			},
			{
				"x": 2.1361775137,
				"y": -0.1747624507,
				"z": 2.906875569,
				"element": "O" 
			},
			{
				"x": 2.2424134275,
				"y": -0.872968768,
				"z": 4.06752769,
				"element": "C" 
			},
			{
				"x": 3.6888916645,
				"y": -0.9783038471,
				"z": 4.4837602368,
				"element": "C" 
			},
			{
				"x": 1.3015382367,
				"y": -1.3379370682,
				"z": 4.6710633206,
				"element": "O" 
			},
			{
				"x": 0.2952161479,
				"y": 1.3774836702,
				"z": 2.7100802412,
				"element": "C" 
			},
			{
				"x": 0.0135271816,
				"y": 1.4754171463,
				"z": 4.1199078424,
				"element": "O" 
			},
			{
				"x": -0.997054026,
				"y": 0.7189928509,
				"z": 4.645498678,
				"element": "C" 
			},
			{
				"x": -0.9722984829,
				"y": 0.778393051,
				"z": 6.1495153294,
				"element": "C" 
			},
			{
				"x": -1.7776085547,
				"y": 0.0865137001,
				"z": 3.9725282148,
				"element": "O" 
			},
			{
				"x": 2.9942987191,
				"y": 3.6614673538,
				"z": -0.8366537684,
				"element": "H" 
			},
			{
				"x": 2.0977027745,
				"y": 2.4615023812,
				"z": -1.7713002175,
				"element": "H" 
			},
			{
				"x": 2.1938202801,
				"y": 4.1601400577,
				"z": -2.3452821421,
				"element": "H" 
			},
			{
				"x": -0.420114623,
				"y": 3.946236623,
				"z": 1.7389714709,
				"element": "H" 
			},
			{
				"x": -1.4263933008,
				"y": 3.3802367478,
				"z": 0.3901777852,
				"element": "H" 
			},
			{
				"x": -1.7477492952,
				"y": 2.0225402182,
				"z": 2.4301392317,
				"element": "H" 
			},
			{
				"x": -0.2621590255,
				"y": 0.6065639628,
				"z": -0.8410452511,
				"element": "H" 
			},
			{
				"x": -3.3834412223,
				"y": -1.8530114239,
				"z": 0.3644439685,
				"element": "H" 
			},
			{
				"x": -5.1477976321,
				"y": -2.2301513895,
				"z": -1.4038125541,
				"element": "H" 
			},
			{
				"x": -2.3200810206,
				"y": -1.1753358733,
				"z": -4.4449652626,
				"element": "H" 
			},
			{
				"x": -0.5487003814,
				"y": -0.8371227433,
				"z": -2.6934994747,
				"element": "H" 
			},
			{
				"x": 1.6377134973,
				"y": 0.7409241907,
				"z": 0.4858883325,
				"element": "H" 
			},
			{
				"x": 3.1647835837,
				"y": -2.8225037311,
				"z": -1.9709969971,
				"element": "H" 
			},
			{
				"x": 1.8883437947,
				"y": -3.5576525302,
				"z": -0.9628034816,
				"element": "H" 
			},
			{
				"x": 3.3917384984,
				"y": -3.0341956071,
				"z": -0.2049447585,
				"element": "H" 
			},
			{
				"x": 0.1606951506,
				"y": -0.8000589618,
				"z": 2.6910348294,
				"element": "H" 
			},
			{
				"x": 4.2723001854,
				"y": -1.4595021266,
				"z": 3.6936447687,
				"element": "H" 
			},
			{
				"x": 3.7597204361,
				"y": -1.5547175457,
				"z": 5.4053690464,
				"element": "H" 
			},
			{
				"x": 4.107000928,
				"y": 0.0212582227,
				"z": 4.63575032,
				"element": "H" 
			},
			{
				"x": 1.1296437954,
				"y": 2.0730226291,
				"z": 2.5892121644,
				"element": "H" 
			},
			{
				"x": -1.9451918964,
				"y": 0.481114274,
				"z": 6.5409217632,
				"element": "H" 
			},
			{
				"x": -0.697776259,
				"y": 1.7737718475,
				"z": 6.5050130791,
				"element": "H" 
			},
			{
				"x": -0.2145759341,
				"y": 0.068305449,
				"z": 6.4967899406,
				"element": "H" 
			}
		],
		 "valence_orbital": [ 
			{
				"type": "occ",
				"energy": -0.28344,
				"method": "rhf"
			},
			{
				"type": "occ",
				"energy": -0.2812,
				"method": "rhf"
			},
			{
				"type": "occ",
				"energy": -0.27656,
				"method": "rhf"
			},
			{
				"type": "occ",
				"energy": -0.27375,
				"method": "rhf"
			},
			{
				"type": "occ",
				"energy": -0.26019,
				"method": "rhf"
			},
			{
				"type": "unocc",
				"energy": -0.08149,
				"method": "rhf"
			},
			{
				"type": "unocc",
				"energy": -0.02515,
				"method": "rhf"
			},
			{
				"type": "unocc",
				"energy": -0.01036,
				"method": "rhf"
			},
			{
				"type": "unocc",
				"energy": -0.0053,
				"method": "rhf"
			},
			{
				"type": "unocc",
				"energy": -0.00322,
				"method": "rhf"
			}
		],
		"cosmo_sigma_profile": { 
			"-0.025": 0.0,
			"-0.024": 0.0,
			"-0.023": 0.0,
			"-0.022": 0.0,
			"-0.021": 0.0,
			"-0.02": 0.0,
			"-0.019": 0.0,
			"-0.018": 0.0,
			"-0.017": 0.0,
			"-0.016": 0.0,
			"-0.015": 0.0,
			"-0.014": 0.0,
			"-0.013": 0.0,
			"-0.012": 0.0,
			"-0.011": 0.0,
			"-0.01": 0.0,
			"-0.009": 0.378035516949,
			"-0.008": 7.24919254035,
			"-0.007": 19.7467069995,
			"-0.006": 32.6045967603,
			"-0.005": 38.3785542949,
			"-0.004": 42.1987718365,
			"-0.003": 45.7373214198,
			"-0.002": 52.2235117925,
			"-0.001": 37.2022986875,
			"0.0": 26.4943545824,
			"0.001": 30.7539073753,
			"0.002": 19.8840821127,
			"0.003": 14.5602978045,
			"0.004": 12.8159016674,
			"0.005": 15.7596197132,
			"0.006": 13.8778376362,
			"0.007": 17.2441871363,
			"0.008": 16.7182496304,
			"0.009": 12.0579820961,
			"0.01": 10.3975725292,
			"0.011": 11.1849638573,
			"0.012": 8.88395862604,
			"0.013": 1.11220737873,
			"0.014": 0.0,
			"0.015": 0.0,
			"0.016": 0.0,
			"0.017": 0.0,
			"0.018": 0.0,
			"0.019": 0.0,
			"0.02": 0.0,
			"0.021": 0.0,
			"0.022": 0.0,
			"0.023": 0.0,
			"0.024": 0.0,
			"0.025": 0.0
		}
	}
}
