{
	 "smiles": "CCN(CC)CCNC1=CC=C(C)C2=C1C(=O)C1=CC=CC=C1S2", 
	 "Tm": 337.65, 
	 "num_atms": 48, 
	 "gaussian": { 
		 "optdone": 1, 
		 "sigma_profile": "yes", 
		 "theory": "DFT", 
		 "functional": "B3LYP", 
		 "basiset": "6-31G**", 
		 "properties": { 
			 "R2extent": 12253.9412, 
			 "electric_dipole_moment_norm": 2.67127309536, 
			 "electric_quadrupole_moment_norm": 15.70021199, 
			 "total_energy": -1359.51777447, 
			 "HOMO_LUMO_gap": 0.13415, 
			 "cosmo_polarized_energy": -11.59, 
			 "cosmo_cavitation_energy": 49.36, 
			 "cosmo_dispersion_energy": -34.76, 
			 "cosmo_repulsion_energy": 2.58, 
			 "cosmo_total_nonelectrostatic_energy": 17.17, 
			 "SMD_solvation_energy": 6.72 
		},
		"coords": [
			{
				"x": -4.141376482,
				"y": 1.7861696295,
				"z": 2.0615341696,
				"element": "C" 
			},
			{
				"x": -3.6084592197,
				"y": 1.0405667547,
				"z": 0.8265279465,
				"element": "C" 
			},
			{
				"x": -2.519338369,
				"y": 1.6867004979,
				"z": 0.0759614459,
				"element": "N" 
			},
			{
				"x": -2.9205065958,
				"y": 2.9458808612,
				"z": -0.5661717731,
				"element": "C" 
			},
			{
				"x": -2.1250736854,
				"y": 3.2518681893,
				"z": -1.8377856801,
				"element": "C" 
			},
			{
				"x": -1.2591354464,
				"y": 1.7953412705,
				"z": 0.8165779807,
				"element": "C" 
			},
			{
				"x": -0.6348302745,
				"y": 0.4230770957,
				"z": 1.1167675029,
				"element": "C" 
			},
			{
				"x": -0.6291190641,
				"y": -0.3746810243,
				"z": -0.0957894027,
				"element": "N" 
			},
			{
				"x": 0.3811286703,
				"y": -1.1594922094,
				"z": -0.584923179,
				"element": "C" 
			},
			{
				"x": 0.4854702335,
				"y": -1.2664256552,
				"z": -1.9880294204,
				"element": "C" 
			},
			{
				"x": 1.5402591582,
				"y": -1.9329670618,
				"z": -2.5811585762,
				"element": "C" 
			},
			{
				"x": 2.5724680263,
				"y": -2.5103600244,
				"z": -1.8321653241,
				"element": "C" 
			},
			{
				"x": 3.7468808434,
				"y": -3.1610913073,
				"z": -2.5229071253,
				"element": "C" 
			},
			{
				"x": 2.4547606042,
				"y": -2.4573629918,
				"z": -0.432597558,
				"element": "C" 
			},
			{
				"x": 1.3384071501,
				"y": -1.8633572744,
				"z": 0.225468868,
				"element": "C" 
			},
			{
				"x": 1.0529425941,
				"y": -2.1371395815,
				"z": 1.6517002835,
				"element": "C" 
			},
			{
				"x": -0.0868233041,
				"y": -2.0400895333,
				"z": 2.1162648074,
				"element": "O" 
			},
			{
				"x": 2.1571448976,
				"y": -2.546877942,
				"z": 2.5687099651,
				"element": "C" 
			},
			{
				"x": 1.9106108129,
				"y": -2.4763335811,
				"z": 3.9525881395,
				"element": "C" 
			},
			{
				"x": 2.8866218211,
				"y": -2.8207147647,
				"z": 4.8756859742,
				"element": "C" 
			},
			{
				"x": 4.1403520872,
				"y": -3.2587068608,
				"z": 4.4267049082,
				"element": "C" 
			},
			{
				"x": 4.4035592508,
				"y": -3.3479858625,
				"z": 3.0663571013,
				"element": "C" 
			},
			{
				"x": 3.4134938449,
				"y": -2.9927044833,
				"z": 2.1337343463,
				"element": "C" 
			},
			{
				"x": 3.805855715,
				"y": -3.2131731148,
				"z": 0.4343541509,
				"element": "S" 
			},
			{
				"x": -4.9596401008,
				"y": 1.2165595866,
				"z": 2.5144707736,
				"element": "H" 
			},
			{
				"x": -4.5300531505,
				"y": 2.7764276465,
				"z": 1.8021985654,
				"element": "H" 
			},
			{
				"x": -3.3709667242,
				"y": 1.9163107718,
				"z": 2.8279837856,
				"element": "H" 
			},
			{
				"x": -4.4315691317,
				"y": 0.8816661739,
				"z": 0.1194953437,
				"element": "H" 
			},
			{
				"x": -3.267420784,
				"y": 0.0432843068,
				"z": 1.1231800479,
				"element": "H" 
			},
			{
				"x": -2.8534393524,
				"y": 3.803571069,
				"z": 0.127094569,
				"element": "H" 
			},
			{
				"x": -3.9788846723,
				"y": 2.8518016945,
				"z": -0.8341734662,
				"element": "H" 
			},
			{
				"x": -1.0583969029,
				"y": 3.3930747329,
				"z": -1.6379486714,
				"element": "H" 
			},
			{
				"x": -2.4939554378,
				"y": 4.1728715524,
				"z": -2.3015548767,
				"element": "H" 
			},
			{
				"x": -2.2286332545,
				"y": 2.4359040646,
				"z": -2.559656885,
				"element": "H" 
			},
			{
				"x": -1.3631879389,
				"y": 2.3487986403,
				"z": 1.7667248981,
				"element": "H" 
			},
			{
				"x": -0.562324404,
				"y": 2.3670243341,
				"z": 0.1957760904,
				"element": "H" 
			},
			{
				"x": -1.1615046016,
				"y": -0.0950704948,
				"z": 1.9240748486,
				"element": "H" 
			},
			{
				"x": 0.390806332,
				"y": 0.5782154388,
				"z": 1.4722557054,
				"element": "H" 
			},
			{
				"x": -1.2623173198,
				"y": 0.0064465181,
				"z": -0.7906144027,
				"element": "H" 
			},
			{
				"x": -0.258608092,
				"y": -0.7700922009,
				"z": -2.6055752497,
				"element": "H" 
			},
			{
				"x": 1.5951485275,
				"y": -1.9773963789,
				"z": -3.6661725678,
				"element": "H" 
			},
			{
				"x": 3.8476911382,
				"y": -4.2211045705,
				"z": -2.257891983,
				"element": "H" 
			},
			{
				"x": 4.6971209642,
				"y": -2.6767287013,
				"z": -2.2649263087,
				"element": "H" 
			},
			{
				"x": 3.6300146658,
				"y": -3.1021915024,
				"z": -3.6082558298,
				"element": "H" 
			},
			{
				"x": 0.9258148789,
				"y": -2.1455172046,
				"z": 4.2635556998,
				"element": "H" 
			},
			{
				"x": 2.6807421363,
				"y": -2.7529046231,
				"z": 5.9395805288,
				"element": "H" 
			},
			{
				"x": 4.9124767286,
				"y": -3.5311506267,
				"z": 5.1405507907,
				"element": "H" 
			},
			{
				"x": 5.3722932272,
				"y": -3.6938412532,
				"z": 2.7169190429,
				"element": "H" 
			}
		],
		 "valence_orbital": [ 
			{
				"type": "occ",
				"energy": -0.25277,
				"method": "rhf"
			},
			{
				"type": "occ",
				"energy": -0.23429,
				"method": "rhf"
			},
			{
				"type": "occ",
				"energy": -0.21751,
				"method": "rhf"
			},
			{
				"type": "occ",
				"energy": -0.21471,
				"method": "rhf"
			},
			{
				"type": "occ",
				"energy": -0.18428,
				"method": "rhf"
			},
			{
				"type": "unocc",
				"energy": -0.05013,
				"method": "rhf"
			},
			{
				"type": "unocc",
				"energy": -0.01619,
				"method": "rhf"
			},
			{
				"type": "unocc",
				"energy": 0.00035,
				"method": "rhf"
			},
			{
				"type": "unocc",
				"energy": 0.01686,
				"method": "rhf"
			},
			{
				"type": "unocc",
				"energy": 0.03883,
				"method": "rhf"
			}
		],
		"cosmo_sigma_profile": { 
			"-0.025": 0.0,
			"-0.024": 0.0,
			"-0.023": 0.0,
			"-0.022": 0.0,
			"-0.021": 0.0,
			"-0.02": 0.0,
			"-0.019": 0.0,
			"-0.018": 0.0,
			"-0.017": 0.0,
			"-0.016": 0.0,
			"-0.015": 0.0,
			"-0.014": 0.0,
			"-0.013": 0.0,
			"-0.012": 0.0,
			"-0.011": 0.0,
			"-0.01": 0.135681397014,
			"-0.009": 0.717188028876,
			"-0.008": 0.968859964462,
			"-0.007": 4.81899521081,
			"-0.006": 10.7786059087,
			"-0.005": 14.9731009164,
			"-0.004": 24.3146526579,
			"-0.003": 38.191838531,
			"-0.002": 47.1611525606,
			"-0.001": 51.9031882822,
			"0.0": 44.2632518042,
			"0.001": 37.9859340334,
			"0.002": 27.7470295335,
			"0.003": 27.0236501067,
			"0.004": 25.3856840917,
			"0.005": 13.5530994939,
			"0.006": 4.28943449408,
			"0.007": 2.51480958641,
			"0.008": 2.19403605784,
			"0.009": 1.51701816006,
			"0.01": 1.90613513325,
			"0.011": 1.65034814898,
			"0.012": 2.53331970313,
			"0.013": 2.70090626888,
			"0.014": 1.23403071276,
			"0.015": 0.335331425094,
			"0.016": 0.0,
			"0.017": 0.0,
			"0.018": 0.0,
			"0.019": 0.0,
			"0.02": 0.0,
			"0.021": 0.0,
			"0.022": 0.0,
			"0.023": 0.0,
			"0.024": 0.0,
			"0.025": 0.0
		}
	}
}
