{
	 "smiles": "COC1=CC2=CC=C(C=C2C=C1)[N+]([O-])=O", 
	 "Tm": 407.15, 
	 "num_atms": 24, 
	 "gaussian": { 
		 "optdone": 1, 
		 "sigma_profile": "yes", 
		 "theory": "DFT", 
		 "functional": "B3LYP", 
		 "basiset": "6-31G**", 
		 "properties": { 
			 "R2extent": 5194.1439, 
			 "electric_dipole_moment_norm": 6.77986044104, 
			 "electric_quadrupole_moment_norm": 23.9035736991, 
			 "total_energy": -704.917829298, 
			 "HOMO_LUMO_gap": 0.14052, 
			 "cosmo_polarized_energy": -11.25, 
			 "cosmo_cavitation_energy": 28.88, 
			 "cosmo_dispersion_energy": -21.41, 
			 "cosmo_repulsion_energy": 1.63, 
			 "cosmo_total_nonelectrostatic_energy": 9.11, 
			 "SMD_solvation_energy": 7.73 
		},
		"coords": [
			{
				"x": -3.50603368,
				"y": -0.3263082683,
				"z": 1.0262420453,
				"element": "C" 
			},
			{
				"x": -2.2101791475,
				"y": -0.8995878388,
				"z": 0.9119342908,
				"element": "O" 
			},
			{
				"x": -1.1464262491,
				"y": -0.0870951478,
				"z": 0.6726446807,
				"element": "C" 
			},
			{
				"x": 0.088802422,
				"y": -0.7090497861,
				"z": 0.5725852374,
				"element": "C" 
			},
			{
				"x": 1.2576061223,
				"y": 0.0400827488,
				"z": 0.3259594013,
				"element": "C" 
			},
			{
				"x": 2.5430013823,
				"y": -0.5697215273,
				"z": 0.2175699332,
				"element": "C" 
			},
			{
				"x": 3.6675987392,
				"y": 0.1780699002,
				"z": -0.0228299663,
				"element": "C" 
			},
			{
				"x": 3.5419722367,
				"y": 1.5815129655,
				"z": -0.1649009146,
				"element": "C" 
			},
			{
				"x": 2.3280313162,
				"y": 2.2221676174,
				"z": -0.0698627322,
				"element": "C" 
			},
			{
				"x": 1.1583950394,
				"y": 1.4660704861,
				"z": 0.1776960402,
				"element": "C" 
			},
			{
				"x": -0.1197300449,
				"y": 2.0717679197,
				"z": 0.2855220888,
				"element": "C" 
			},
			{
				"x": -1.2494758259,
				"y": 1.3231344084,
				"z": 0.52668018,
				"element": "C" 
			},
			{
				"x": 4.7459701945,
				"y": 2.3770057521,
				"z": -0.42182776,
				"element": "N" 
			},
			{
				"x": 5.8192869274,
				"y": 1.7766367273,
				"z": -0.5021209397,
				"element": "O" 
			},
			{
				"x": 4.6186079372,
				"y": 3.5968758904,
				"z": -0.5426788871,
				"element": "O" 
			},
			{
				"x": -3.8082887421,
				"y": 0.1806845263,
				"z": 0.1015671708,
				"element": "H" 
			},
			{
				"x": -3.5645139497,
				"y": 0.3804519569,
				"z": 1.8631998901,
				"element": "H" 
			},
			{
				"x": -4.1836722571,
				"y": -1.1599102049,
				"z": 1.2145427431,
				"element": "H" 
			},
			{
				"x": 0.1407443228,
				"y": -1.7869750665,
				"z": 0.6878396509,
				"element": "H" 
			},
			{
				"x": 2.6212270361,
				"y": -1.6473010147,
				"z": 0.3291524674,
				"element": "H" 
			},
			{
				"x": 4.6489582866,
				"y": -0.2706962735,
				"z": -0.1075300698,
				"element": "H" 
			},
			{
				"x": 2.2811246055,
				"y": 3.2987308287,
				"z": -0.1856862814,
				"element": "H" 
			},
			{
				"x": -0.2002961907,
				"y": 3.1495532298,
				"z": 0.1742277775,
				"element": "H" 
			},
			{
				"x": -2.2113104812,
				"y": 1.8153001705,
				"z": 0.6036739535,
				"element": "H" 
			}
		],
		 "valence_orbital": [ 
			{
				"type": "occ",
				"energy": -0.29873,
				"method": "rhf"
			},
			{
				"type": "occ",
				"energy": -0.29772,
				"method": "rhf"
			},
			{
				"type": "occ",
				"energy": -0.28141,
				"method": "rhf"
			},
			{
				"type": "occ",
				"energy": -0.25421,
				"method": "rhf"
			},
			{
				"type": "occ",
				"energy": -0.22446,
				"method": "rhf"
			},
			{
				"type": "unocc",
				"energy": -0.08394,
				"method": "rhf"
			},
			{
				"type": "unocc",
				"energy": -0.0497,
				"method": "rhf"
			},
			{
				"type": "unocc",
				"energy": -0.00192,
				"method": "rhf"
			},
			{
				"type": "unocc",
				"energy": 0.01613,
				"method": "rhf"
			},
			{
				"type": "unocc",
				"energy": 0.07778,
				"method": "rhf"
			}
		],
		"cosmo_sigma_profile": { 
			"-0.025": 0.0,
			"-0.024": 0.0,
			"-0.023": 0.0,
			"-0.022": 0.0,
			"-0.021": 0.0,
			"-0.02": 0.0,
			"-0.019": 0.0,
			"-0.018": 0.0,
			"-0.017": 0.0,
			"-0.016": 0.0,
			"-0.015": 0.0,
			"-0.014": 0.0,
			"-0.013": 0.0,
			"-0.012": 0.0,
			"-0.011": 0.0,
			"-0.01": 0.0,
			"-0.009": 0.00344033923791,
			"-0.008": 2.28752106487,
			"-0.007": 11.131076365,
			"-0.006": 18.6706683824,
			"-0.005": 19.0506138099,
			"-0.004": 16.2721315825,
			"-0.003": 15.4147117146,
			"-0.002": 11.7821603831,
			"-0.001": 14.8485954739,
			"0.0": 13.8739072736,
			"0.001": 19.7703598954,
			"0.002": 24.9732265968,
			"0.003": 19.5990033297,
			"0.004": 4.67336163548,
			"0.005": 4.69667286865,
			"0.006": 4.59695464941,
			"0.007": 6.45671999012,
			"0.008": 11.0324019454,
			"0.009": 6.80671195433,
			"0.01": 4.73658456401,
			"0.011": 0.968530184727,
			"0.012": 0.0,
			"0.013": 0.0,
			"0.014": 0.0,
			"0.015": 0.0,
			"0.016": 0.0,
			"0.017": 0.0,
			"0.018": 0.0,
			"0.019": 0.0,
			"0.02": 0.0,
			"0.021": 0.0,
			"0.022": 0.0,
			"0.023": 0.0,
			"0.024": 0.0,
			"0.025": 0.0
		}
	}
}
