{
	 "smiles": "COC1=C(OC)C=C(CNC(=O)C(C)Cl)C=C1", 
	 "Tm": 371.15, 
	 "num_atms": 33, 
	 "gaussian": { 
		 "optdone": 1, 
		 "sigma_profile": "yes", 
		 "theory": "DFT", 
		 "functional": "B3LYP", 
		 "basiset": "6-31G**", 
		 "properties": { 
			 "R2extent": 7459.9322, 
			 "electric_dipole_moment_norm": 1.30531180949, 
			 "electric_quadrupole_moment_norm": 8.33643422933, 
			 "total_energy": -1207.52990989, 
			 "HOMO_LUMO_gap": 0.22095, 
			 "cosmo_polarized_energy": -12.73, 
			 "cosmo_cavitation_energy": 38.15, 
			 "cosmo_dispersion_energy": -26.67, 
			 "cosmo_repulsion_energy": 2.13, 
			 "cosmo_total_nonelectrostatic_energy": 13.61, 
			 "SMD_solvation_energy": 7.48 
		},
		"coords": [
			{
				"x": 0.1003391025,
				"y": -3.4284094868,
				"z": 0.5506954289,
				"element": "C" 
			},
			{
				"x": 1.3925049158,
				"y": -2.9547626396,
				"z": 0.1513324173,
				"element": "O" 
			},
			{
				"x": 1.5325418749,
				"y": -1.5850582278,
				"z": 0.1467183775,
				"element": "C" 
			},
			{
				"x": 0.8575292572,
				"y": -0.7760877297,
				"z": -0.7913134691,
				"element": "C" 
			},
			{
				"x": -0.0136445752,
				"y": -1.3209732709,
				"z": -1.7089381138,
				"element": "O" 
			},
			{
				"x": 0.6094974282,
				"y": -2.0971742647,
				"z": -2.739505094,
				"element": "C" 
			},
			{
				"x": 1.0414757893,
				"y": 0.604250149,
				"z": -0.7740262543,
				"element": "C" 
			},
			{
				"x": 1.9013080494,
				"y": 1.204659546,
				"z": 0.1571807176,
				"element": "C" 
			},
			{
				"x": 2.0789104898,
				"y": 2.7109400216,
				"z": 0.1629737631,
				"element": "C" 
			},
			{
				"x": 0.8922274003,
				"y": 3.4373888619,
				"z": 0.6143950545,
				"element": "N" 
			},
			{
				"x": 0.0221940361,
				"y": 3.99459296,
				"z": -0.2580884505,
				"element": "C" 
			},
			{
				"x": 0.1648120566,
				"y": 3.993128009,
				"z": -1.4784396127,
				"element": "O" 
			},
			{
				"x": -1.2244526102,
				"y": 4.7066156385,
				"z": 0.295773932,
				"element": "C" 
			},
			{
				"x": -1.2373694922,
				"y": 6.1783560226,
				"z": -0.1049612363,
				"element": "C" 
			},
			{
				"x": -1.4381408851,
				"y": 4.5516797224,
				"z": 2.1160098071,
				"element": "Cl" 
			},
			{
				"x": 2.5867242514,
				"y": 0.3931323807,
				"z": 1.0649471827,
				"element": "C" 
			},
			{
				"x": 2.4000305797,
				"y": -0.9910151291,
				"z": 1.0615891762,
				"element": "C" 
			},
			{
				"x": -0.6847311341,
				"y": -3.0549259694,
				"z": -0.1135841428,
				"element": "H" 
			},
			{
				"x": 0.1445298027,
				"y": -4.5180598605,
				"z": 0.4958302113,
				"element": "H" 
			},
			{
				"x": -0.1203462513,
				"y": -3.1270738913,
				"z": 1.5825116111,
				"element": "H" 
			},
			{
				"x": 1.1627974594,
				"y": -2.9442478781,
				"z": -2.3219395469,
				"element": "H" 
			},
			{
				"x": 1.2886933069,
				"y": -1.474930507,
				"z": -3.3355435956,
				"element": "H" 
			},
			{
				"x": -0.1978249807,
				"y": -2.461753017,
				"z": -3.3779205468,
				"element": "H" 
			},
			{
				"x": 0.5098635135,
				"y": 1.2083918467,
				"z": -1.5033350412,
				"element": "H" 
			},
			{
				"x": 2.2904729093,
				"y": 3.0773808411,
				"z": -0.8445877989,
				"element": "H" 
			},
			{
				"x": 2.9183100382,
				"y": 2.987378429,
				"z": 0.8092598552,
				"element": "H" 
			},
			{
				"x": 0.6360240262,
				"y": 3.4034535012,
				"z": 1.5911248894,
				"element": "H" 
			},
			{
				"x": -2.0887226797,
				"y": 4.1880053926,
				"z": -0.1228929372,
				"element": "H" 
			},
			{
				"x": -1.1199306722,
				"y": 6.2365853184,
				"z": -1.1898418245,
				"element": "H" 
			},
			{
				"x": -0.4129994302,
				"y": 6.7182049843,
				"z": 0.3688250068,
				"element": "H" 
			},
			{
				"x": -2.1791089641,
				"y": 6.6493312248,
				"z": 0.184298928,
				"element": "H" 
			},
			{
				"x": 3.2663349398,
				"y": 0.8406501686,
				"z": 1.7859124291,
				"element": "H" 
			},
			{
				"x": 2.9193504479,
				"y": -1.6319531468,
				"z": 1.7671388767,
				"element": "H" 
			}
		],
		 "valence_orbital": [ 
			{
				"type": "occ",
				"energy": -0.26874,
				"method": "rhf"
			},
			{
				"type": "occ",
				"energy": -0.26112,
				"method": "rhf"
			},
			{
				"type": "occ",
				"energy": -0.25584,
				"method": "rhf"
			},
			{
				"type": "occ",
				"energy": -0.24311,
				"method": "rhf"
			},
			{
				"type": "occ",
				"energy": -0.22826,
				"method": "rhf"
			},
			{
				"type": "unocc",
				"energy": -0.00731,
				"method": "rhf"
			},
			{
				"type": "unocc",
				"energy": -0.00048,
				"method": "rhf"
			},
			{
				"type": "unocc",
				"energy": 0.01186,
				"method": "rhf"
			},
			{
				"type": "unocc",
				"energy": 0.02156,
				"method": "rhf"
			},
			{
				"type": "unocc",
				"energy": 0.08637,
				"method": "rhf"
			}
		],
		"cosmo_sigma_profile": { 
			"-0.025": 0.0,
			"-0.024": 0.0,
			"-0.023": 0.0,
			"-0.022": 0.0,
			"-0.021": 0.0,
			"-0.02": 0.0,
			"-0.019": 0.0,
			"-0.018": 0.0,
			"-0.017": 0.0,
			"-0.016": 0.0,
			"-0.015": 0.0,
			"-0.014": 0.0,
			"-0.013": 0.233687099501,
			"-0.012": 0.715864424899,
			"-0.011": 0.744802167418,
			"-0.01": 1.02805859412,
			"-0.009": 0.977150834651,
			"-0.008": 3.12750605086,
			"-0.007": 4.17928259808,
			"-0.006": 11.7332979215,
			"-0.005": 19.4950563408,
			"-0.004": 27.2765275781,
			"-0.003": 33.5275225165,
			"-0.002": 31.8666111027,
			"-0.001": 26.4710035682,
			"0.0": 23.5179970992,
			"0.001": 17.611039659,
			"0.002": 16.6314152279,
			"0.003": 17.3989066911,
			"0.004": 17.6332712279,
			"0.005": 15.578462865,
			"0.006": 8.14013491781,
			"0.007": 4.09783920438,
			"0.008": 3.50451167759,
			"0.009": 2.61980239313,
			"0.01": 3.40658409994,
			"0.011": 3.39153579816,
			"0.012": 3.1649052728,
			"0.013": 3.9233802395,
			"0.014": 1.33790494124,
			"0.015": 0.0,
			"0.016": 0.0,
			"0.017": 0.0,
			"0.018": 0.0,
			"0.019": 0.0,
			"0.02": 0.0,
			"0.021": 0.0,
			"0.022": 0.0,
			"0.023": 0.0,
			"0.024": 0.0,
			"0.025": 0.0
		}
	}
}
