{
	 "smiles": "FC(F)(F)C1=C(C(=CS1)S(Cl)(=O)=O)C1=CC=CC=C1", 
	 "Tm": 359.65, 
	 "num_atms": 25, 
	 "gaussian": { 
		 "optdone": 1, 
		 "sigma_profile": "yes", 
		 "theory": "DFT", 
		 "functional": "B3LYP", 
		 "basiset": "6-31G**", 
		 "properties": { 
			 "R2extent": 5977.6217, 
			 "electric_dipole_moment_norm": 2.43758733997, 
			 "electric_quadrupole_moment_norm": 21.57696161, 
			 "total_energy": -2129.23628886, 
			 "HOMO_LUMO_gap": 0.16639, 
			 "cosmo_polarized_energy": -9.44, 
			 "cosmo_cavitation_energy": 35.55, 
			 "cosmo_dispersion_energy": -25.12, 
			 "cosmo_repulsion_energy": 1.8, 
			 "cosmo_total_nonelectrostatic_energy": 12.23, 
			 "SMD_solvation_energy": 5.7 
		},
		"coords": [
			{
				"x": -1.376805289,
				"y": -2.3348122256,
				"z": 0.01026934,
				"element": "F" 
			},
			{
				"x": -0.1000860205,
				"y": -2.2969250832,
				"z": -0.4024910333,
				"element": "C" 
			},
			{
				"x": 0.4485927024,
				"y": -3.5129877296,
				"z": -0.1724843161,
				"element": "F" 
			},
			{
				"x": -0.1131380348,
				"y": -2.1190824321,
				"z": -1.7425210565,
				"element": "F" 
			},
			{
				"x": 0.6919020265,
				"y": -1.2326902422,
				"z": 0.3010354601,
				"element": "C" 
			},
			{
				"x": 0.3331980757,
				"y": 0.0775262745,
				"z": 0.5312534706,
				"element": "C" 
			},
			{
				"x": 1.3991510553,
				"y": 0.7404719661,
				"z": 1.2417218085,
				"element": "C" 
			},
			{
				"x": 2.4920346208,
				"y": -0.0444958843,
				"z": 1.5066898745,
				"element": "C" 
			},
			{
				"x": 2.2666915703,
				"y": -1.639087922,
				"z": 0.9246815367,
				"element": "S" 
			},
			{
				"x": 1.449062567,
				"y": 2.4346308839,
				"z": 1.7879449977,
				"element": "S" 
			},
			{
				"x": 1.473556544,
				"y": 3.4761014638,
				"z": -0.0584611287,
				"element": "Cl" 
			},
			{
				"x": 2.7480574085,
				"y": 2.6622106858,
				"z": 2.4097360367,
				"element": "O" 
			},
			{
				"x": 0.2091772758,
				"y": 2.8018439383,
				"z": 2.4577150769,
				"element": "O" 
			},
			{
				"x": -0.947917345,
				"y": 0.6838009075,
				"z": 0.0748287293,
				"element": "C" 
			},
			{
				"x": -1.8986043004,
				"y": 1.1413882643,
				"z": 0.9991849097,
				"element": "C" 
			},
			{
				"x": -3.1038992636,
				"y": 1.6814536003,
				"z": 0.5537491384,
				"element": "C" 
			},
			{
				"x": -3.3710509346,
				"y": 1.7750220154,
				"z": -0.8132302368,
				"element": "C" 
			},
			{
				"x": -2.4285094424,
				"y": 1.3224637568,
				"z": -1.7376048102,
				"element": "C" 
			},
			{
				"x": -1.2236734009,
				"y": 0.7759992107,
				"z": -1.2981851895,
				"element": "C" 
			},
			{
				"x": 3.3999544486,
				"y": 0.2549606316,
				"z": 2.0100024073,
				"element": "H" 
			},
			{
				"x": -1.6929545289,
				"y": 1.0767101327,
				"z": 2.0612929795,
				"element": "H" 
			},
			{
				"x": -3.8337468173,
				"y": 2.030565306,
				"z": 1.2778422231,
				"element": "H" 
			},
			{
				"x": -4.3097786404,
				"y": 2.1999121487,
				"z": -1.1564127067,
				"element": "H" 
			},
			{
				"x": -2.6286924301,
				"y": 1.3942968546,
				"z": -2.8024331664,
				"element": "H" 
			},
			{
				"x": -0.492921847,
				"y": 0.421623478,
				"z": -2.0168243446,
				"element": "H" 
			}
		],
		 "valence_orbital": [ 
			{
				"type": "occ",
				"energy": -0.31855,
				"method": "rhf"
			},
			{
				"type": "occ",
				"energy": -0.29971,
				"method": "rhf"
			},
			{
				"type": "occ",
				"energy": -0.28978,
				"method": "rhf"
			},
			{
				"type": "occ",
				"energy": -0.26171,
				"method": "rhf"
			},
			{
				"type": "occ",
				"energy": -0.25802,
				"method": "rhf"
			},
			{
				"type": "unocc",
				"energy": -0.09163,
				"method": "rhf"
			},
			{
				"type": "unocc",
				"energy": -0.06822,
				"method": "rhf"
			},
			{
				"type": "unocc",
				"energy": -0.02902,
				"method": "rhf"
			},
			{
				"type": "unocc",
				"energy": -0.0157,
				"method": "rhf"
			},
			{
				"type": "unocc",
				"energy": -0.01047,
				"method": "rhf"
			}
		],
		"cosmo_sigma_profile": { 
			"-0.025": 0.0,
			"-0.024": 0.0,
			"-0.023": 0.0,
			"-0.022": 0.0,
			"-0.021": 0.0,
			"-0.02": 0.0,
			"-0.019": 0.0,
			"-0.018": 0.0,
			"-0.017": 0.0,
			"-0.016": 0.0,
			"-0.015": 0.0,
			"-0.014": 0.0,
			"-0.013": 0.00425869514037,
			"-0.012": 1.17001479715,
			"-0.011": 1.49611324435,
			"-0.01": 1.68661840654,
			"-0.009": 1.70670792055,
			"-0.008": 0.980703484076,
			"-0.007": 2.4422815585,
			"-0.006": 12.0415745727,
			"-0.005": 15.0412372123,
			"-0.004": 20.9162383064,
			"-0.003": 20.4951012648,
			"-0.002": 27.9063684854,
			"-0.001": 24.2512866271,
			"0.0": 20.1167680069,
			"0.001": 23.935710938,
			"0.002": 40.9796078572,
			"0.003": 30.9348056442,
			"0.004": 15.3360585632,
			"0.005": 8.06954276497,
			"0.006": 4.81790096437,
			"0.007": 6.12445923903,
			"0.008": 7.96921639558,
			"0.009": 2.94711313549,
			"0.01": 0.0,
			"0.011": 0.0,
			"0.012": 0.0,
			"0.013": 0.0,
			"0.014": 0.0,
			"0.015": 0.0,
			"0.016": 0.0,
			"0.017": 0.0,
			"0.018": 0.0,
			"0.019": 0.0,
			"0.02": 0.0,
			"0.021": 0.0,
			"0.022": 0.0,
			"0.023": 0.0,
			"0.024": 0.0,
			"0.025": 0.0
		}
	}
}
