{
	 "smiles": "COC1(CCN(CC1)C(=O)OC(C)(C)C)C(O)=O", 
	 "Tm": 370.15, 
	 "num_atms": 39, 
	 "gaussian": { 
		 "optdone": 1, 
		 "sigma_profile": "yes", 
		 "theory": "DFT", 
		 "functional": "B3LYP", 
		 "basiset": "6-31G**", 
		 "properties": { 
			 "R2extent": 5577.593, 
			 "electric_dipole_moment_norm": 1.95967136531, 
			 "electric_quadrupole_moment_norm": 6.91823164327, 
			 "total_energy": -900.836092065, 
			 "HOMO_LUMO_gap": 0.22684, 
			 "cosmo_polarized_energy": -14.46, 
			 "cosmo_cavitation_energy": 38.95, 
			 "cosmo_dispersion_energy": -26.13, 
			 "cosmo_repulsion_energy": 2.0, 
			 "cosmo_total_nonelectrostatic_energy": 14.82, 
			 "SMD_solvation_energy": 7.83 
		},
		"coords": [
			{
				"x": 2.1038217719,
				"y": 3.2506736974,
				"z": 1.2446033678,
				"element": "C" 
			},
			{
				"x": 1.4321793099,
				"y": 2.4219086416,
				"z": 2.1860566192,
				"element": "O" 
			},
			{
				"x": 0.4686253899,
				"y": 1.4996469757,
				"z": 1.6689894434,
				"element": "C" 
			},
			{
				"x": -0.0113831907,
				"y": 0.6877394501,
				"z": 2.8809223488,
				"element": "C" 
			},
			{
				"x": -1.1667654948,
				"y": -0.263431329,
				"z": 2.5025825752,
				"element": "C" 
			},
			{
				"x": -1.042727269,
				"y": -0.6845900185,
				"z": 1.103990385,
				"element": "N" 
			},
			{
				"x": 0.3273775781,
				"y": -0.8220873074,
				"z": 0.6171613142,
				"element": "C" 
			},
			{
				"x": 1.0551628531,
				"y": 0.5450960106,
				"z": 0.60383383,
				"element": "C" 
			},
			{
				"x": -2.1559384503,
				"y": -0.6482377066,
				"z": 0.2991473609,
				"element": "C" 
			},
			{
				"x": -3.2785961304,
				"y": -0.3926529904,
				"z": 0.7140348512,
				"element": "O" 
			},
			{
				"x": -1.8388073201,
				"y": -0.9399626253,
				"z": -0.9842698986,
				"element": "O" 
			},
			{
				"x": -2.8525655474,
				"y": -0.8581549208,
				"z": -2.0473550565,
				"element": "C" 
			},
			{
				"x": -3.4231629276,
				"y": 0.562643634,
				"z": -2.1220219878,
				"element": "C" 
			},
			{
				"x": -3.9387754024,
				"y": -1.9139090084,
				"z": -1.816866522,
				"element": "C" 
			},
			{
				"x": -2.0383863523,
				"y": -1.1799747065,
				"z": -3.3036814675,
				"element": "C" 
			},
			{
				"x": -0.6800219044,
				"y": 2.3372263297,
				"z": 1.0545374204,
				"element": "C" 
			},
			{
				"x": -1.5021692625,
				"y": 2.8483434214,
				"z": 1.9942292843,
				"element": "O" 
			},
			{
				"x": -0.8123812782,
				"y": 2.5822395583,
				"z": -0.1268816611,
				"element": "O" 
			},
			{
				"x": 2.7608797925,
				"y": 3.8963124613,
				"z": 1.8312811254,
				"element": "H" 
			},
			{
				"x": 1.4110143289,
				"y": 3.8765601749,
				"z": 0.6675498539,
				"element": "H" 
			},
			{
				"x": 2.7150418387,
				"y": 2.6709946621,
				"z": 0.54114079,
				"element": "H" 
			},
			{
				"x": 0.8569158054,
				"y": 0.1334004941,
				"z": 3.2532869772,
				"element": "H" 
			},
			{
				"x": -0.3260450938,
				"y": 1.367023777,
				"z": 3.6752917941,
				"element": "H" 
			},
			{
				"x": -2.1328487071,
				"y": 0.2298551886,
				"z": 2.6067134472,
				"element": "H" 
			},
			{
				"x": -1.1650819534,
				"y": -1.1378920281,
				"z": 3.1674509757,
				"element": "H" 
			},
			{
				"x": 0.8485126993,
				"y": -1.5194612287,
				"z": 1.2852328757,
				"element": "H" 
			},
			{
				"x": 0.3103290933,
				"y": -1.2694573233,
				"z": -0.3736146812,
				"element": "H" 
			},
			{
				"x": 0.9779577441,
				"y": 1.0060995507,
				"z": -0.3829628801,
				"element": "H" 
			},
			{
				"x": 2.1154186719,
				"y": 0.3959559165,
				"z": 0.834092224,
				"element": "H" 
			},
			{
				"x": -4.034292948,
				"y": 0.6648368935,
				"z": -3.0249144996,
				"element": "H" 
			},
			{
				"x": -4.0403824039,
				"y": 0.7816902698,
				"z": -1.2507139876,
				"element": "H" 
			},
			{
				"x": -2.6105565976,
				"y": 1.2940166507,
				"z": -2.1685058737,
				"element": "H" 
			},
			{
				"x": -4.6352693758,
				"y": -1.9162397013,
				"z": -2.6619067251,
				"element": "H" 
			},
			{
				"x": -3.4914014571,
				"y": -2.910347756,
				"z": -1.7426312932,
				"element": "H" 
			},
			{
				"x": -4.4932198215,
				"y": -1.7054028155,
				"z": -0.9017374383,
				"element": "H" 
			},
			{
				"x": -1.5792795467,
				"y": -2.1698722388,
				"z": -3.2233368689,
				"element": "H" 
			},
			{
				"x": -2.6871922891,
				"y": -1.1703229935,
				"z": -4.1845447766,
				"element": "H" 
			},
			{
				"x": -1.2453184274,
				"y": -0.440736113,
				"z": -3.4494971698,
				"element": "H" 
			},
			{
				"x": -2.1673677257,
				"y": 3.3742690532,
				"z": 1.518313924,
				"element": "H" 
			}
		],
		 "valence_orbital": [ 
			{
				"type": "occ",
				"energy": -0.28841,
				"method": "rhf"
			},
			{
				"type": "occ",
				"energy": -0.28104,
				"method": "rhf"
			},
			{
				"type": "occ",
				"energy": -0.25705,
				"method": "rhf"
			},
			{
				"type": "occ",
				"energy": -0.25473,
				"method": "rhf"
			},
			{
				"type": "occ",
				"energy": -0.23306,
				"method": "rhf"
			},
			{
				"type": "unocc",
				"energy": -0.00622,
				"method": "rhf"
			},
			{
				"type": "unocc",
				"energy": 0.05833,
				"method": "rhf"
			},
			{
				"type": "unocc",
				"energy": 0.06851,
				"method": "rhf"
			},
			{
				"type": "unocc",
				"energy": 0.08723,
				"method": "rhf"
			},
			{
				"type": "unocc",
				"energy": 0.09511,
				"method": "rhf"
			}
		],
		"cosmo_sigma_profile": { 
			"-0.025": 0.0,
			"-0.024": 0.0,
			"-0.023": 0.0,
			"-0.022": 0.0,
			"-0.021": 0.0,
			"-0.02": 0.0,
			"-0.019": 0.277078212529,
			"-0.018": 1.03038583565,
			"-0.017": 0.952946309116,
			"-0.016": 0.809181880788,
			"-0.015": 0.61397224007,
			"-0.014": 0.193082607098,
			"-0.013": 0.604158746329,
			"-0.012": 0.975957354493,
			"-0.011": 0.887273007757,
			"-0.01": 0.283647487391,
			"-0.009": 0.691876563892,
			"-0.008": 1.01274158701,
			"-0.007": 0.811826720865,
			"-0.006": 2.21503281308,
			"-0.005": 13.0118272655,
			"-0.004": 33.4258271139,
			"-0.003": 38.5295523558,
			"-0.002": 34.8488211875,
			"-0.001": 26.1758078492,
			"0.0": 29.2181701693,
			"0.001": 24.5949463864,
			"0.002": 14.4917107662,
			"0.003": 15.0532180295,
			"0.004": 13.8759265373,
			"0.005": 9.02239108135,
			"0.006": 6.3142230561,
			"0.007": 5.75705206179,
			"0.008": 6.46664825082,
			"0.009": 3.65414565279,
			"0.01": 4.24444952551,
			"0.011": 5.20484354479,
			"0.012": 2.75421802517,
			"0.013": 2.66915783918,
			"0.014": 1.3008773901,
			"0.015": 0.0,
			"0.016": 0.0,
			"0.017": 0.0,
			"0.018": 0.0,
			"0.019": 0.0,
			"0.02": 0.0,
			"0.021": 0.0,
			"0.022": 0.0,
			"0.023": 0.0,
			"0.024": 0.0,
			"0.025": 0.0
		}
	}
}
