{
	 "smiles": "OC(=O)C=CC=CC1=CC2=C(OCO2)C=C1", 
	 "Tm": 488.15, 
	 "num_atms": 26, 
	 "gaussian": { 
		 "optdone": 1, 
		 "sigma_profile": "yes", 
		 "theory": "DFT", 
		 "functional": "B3LYP", 
		 "basiset": "6-31G**", 
		 "properties": { 
			 "R2extent": 6794.8804, 
			 "electric_dipole_moment_norm": 6.94037645233, 
			 "electric_quadrupole_moment_norm": 29.4220478455, 
			 "total_energy": -764.148712429, 
			 "HOMO_LUMO_gap": 0.12787, 
			 "cosmo_polarized_energy": -19.42, 
			 "cosmo_cavitation_energy": 31.89, 
			 "cosmo_dispersion_energy": -23.58, 
			 "cosmo_repulsion_energy": 1.83, 
			 "cosmo_total_nonelectrostatic_energy": 10.13, 
			 "SMD_solvation_energy": 7.48 
		},
		"coords": [
			{
				"x": 3.3513039024,
				"y": 5.2488869858,
				"z": 0.1979047989,
				"element": "O" 
			},
			{
				"x": 2.2211984615,
				"y": 4.849934828,
				"z": 0.8522397001,
				"element": "C" 
			},
			{
				"x": 1.6165456621,
				"y": 5.6456163569,
				"z": 1.5369292009,
				"element": "O" 
			},
			{
				"x": 1.8327259746,
				"y": 3.4336079532,
				"z": 0.657585673,
				"element": "C" 
			},
			{
				"x": 0.7311818896,
				"y": 2.9482269535,
				"z": 1.2704349698,
				"element": "C" 
			},
			{
				"x": 0.1790003511,
				"y": 1.6087458442,
				"z": 1.1906377081,
				"element": "C" 
			},
			{
				"x": 0.4989985337,
				"y": 0.6773072776,
				"z": 0.2607935961,
				"element": "C" 
			},
			{
				"x": -0.0155906435,
				"y": -0.684296592,
				"z": 0.1470916696,
				"element": "C" 
			},
			{
				"x": 0.3357880439,
				"y": -1.4326535553,
				"z": -1.008218095,
				"element": "C" 
			},
			{
				"x": -0.1559051111,
				"y": -2.7134251955,
				"z": -1.1206918826,
				"element": "C" 
			},
			{
				"x": -0.9698180234,
				"y": -3.2803317217,
				"z": -0.1419075537,
				"element": "C" 
			},
			{
				"x": -1.3020700464,
				"y": -4.5598998082,
				"z": -0.4964051061,
				"element": "O" 
			},
			{
				"x": -0.7347297566,
				"y": -4.7705844343,
				"z": -1.7980159594,
				"element": "C" 
			},
			{
				"x": 0.0533767648,
				"y": -3.6214989062,
				"z": -2.1295970305,
				"element": "O" 
			},
			{
				"x": -1.3244395586,
				"y": -2.5835288493,
				"z": 1.0000132273,
				"element": "C" 
			},
			{
				"x": -0.8334486531,
				"y": -1.2783159127,
				"z": 1.1283231259,
				"element": "C" 
			},
			{
				"x": 3.7259874009,
				"y": 4.5108251814,
				"z": -0.3020442039,
				"element": "H" 
			},
			{
				"x": 2.4561151254,
				"y": 2.7985176816,
				"z": 0.0305465683,
				"element": "H" 
			},
			{
				"x": 0.2055664549,
				"y": 3.6542537858,
				"z": 1.9114432174,
				"element": "H" 
			},
			{
				"x": -0.5755088843,
				"y": 1.3748356095,
				"z": 1.9379301906,
				"element": "H" 
			},
			{
				"x": 1.204077401,
				"y": 0.9602530503,
				"z": -0.5201279489,
				"element": "H" 
			},
			{
				"x": 0.9678657226,
				"y": -1.0066348531,
				"z": -1.7799336206,
				"element": "H" 
			},
			{
				"x": -1.542408071,
				"y": -4.8882869412,
				"z": -2.5323405029,
				"element": "H" 
			},
			{
				"x": -0.0955117614,
				"y": -5.6596058904,
				"z": -1.7757598854,
				"element": "H" 
			},
			{
				"x": -1.9499400945,
				"y": -3.0340348219,
				"z": 1.7621004985,
				"element": "H" 
			},
			{
				"x": -1.0891610847,
				"y": -0.7183140261,
				"z": 2.0209676444,
				"element": "H" 
			}
		],
		 "valence_orbital": [ 
			{
				"type": "occ",
				"energy": -0.30135,
				"method": "rhf"
			},
			{
				"type": "occ",
				"energy": -0.27173,
				"method": "rhf"
			},
			{
				"type": "occ",
				"energy": -0.26265,
				"method": "rhf"
			},
			{
				"type": "occ",
				"energy": -0.24568,
				"method": "rhf"
			},
			{
				"type": "occ",
				"energy": -0.20767,
				"method": "rhf"
			},
			{
				"type": "unocc",
				"energy": -0.0798,
				"method": "rhf"
			},
			{
				"type": "unocc",
				"energy": -0.01242,
				"method": "rhf"
			},
			{
				"type": "unocc",
				"energy": -0.00274,
				"method": "rhf"
			},
			{
				"type": "unocc",
				"energy": 0.05844,
				"method": "rhf"
			},
			{
				"type": "unocc",
				"energy": 0.06267,
				"method": "rhf"
			}
		],
		"cosmo_sigma_profile": { 
			"-0.025": 0.0,
			"-0.024": 0.0,
			"-0.023": 0.0,
			"-0.022": 0.0,
			"-0.021": 0.0,
			"-0.02": 0.0,
			"-0.019": 0.371076734119,
			"-0.018": 0.971273166568,
			"-0.017": 1.10031981699,
			"-0.016": 1.51838766748,
			"-0.015": 1.0484380555,
			"-0.014": 0.671165505615,
			"-0.013": 1.00155435004,
			"-0.012": 1.23173183711,
			"-0.011": 0.806065174046,
			"-0.01": 1.32709122821,
			"-0.009": 1.14019723889,
			"-0.008": 8.05170257387,
			"-0.007": 18.8693837308,
			"-0.006": 16.8373494323,
			"-0.005": 14.321396606,
			"-0.004": 11.8071841127,
			"-0.003": 10.4480993853,
			"-0.002": 11.3546160197,
			"-0.001": 12.8556669732,
			"0.0": 12.7805423231,
			"0.001": 16.4764818332,
			"0.002": 22.9980475796,
			"0.003": 23.1197894829,
			"0.004": 16.7116637996,
			"0.005": 6.38058087075,
			"0.006": 4.70419109694,
			"0.007": 5.16931605313,
			"0.008": 5.23924201047,
			"0.009": 5.68191388632,
			"0.01": 4.32395003193,
			"0.011": 4.93406797548,
			"0.012": 5.63684233972,
			"0.013": 4.62837462412,
			"0.014": 1.16269938038,
			"0.015": 0.0,
			"0.016": 0.0,
			"0.017": 0.0,
			"0.018": 0.0,
			"0.019": 0.0,
			"0.02": 0.0,
			"0.021": 0.0,
			"0.022": 0.0,
			"0.023": 0.0,
			"0.024": 0.0,
			"0.025": 0.0
		}
	}
}
