{
	 "smiles": "C1COC2=C(N1)C=CC=N2", 
	 "Tm": 385.15, 
	 "num_atms": 18, 
	 "gaussian": { 
		 "optdone": 1, 
		 "sigma_profile": "yes", 
		 "theory": "DFT", 
		 "functional": "B3LYP", 
		 "basiset": "6-31G**", 
		 "properties": { 
			 "R2extent": 1564.071, 
			 "electric_dipole_moment_norm": 4.17923441913, 
			 "electric_quadrupole_moment_norm": 8.79006651112, 
			 "total_energy": -456.279490631, 
			 "HOMO_LUMO_gap": 0.1893, 
			 "cosmo_polarized_energy": -12.73, 
			 "cosmo_cavitation_energy": 20.86, 
			 "cosmo_dispersion_energy": -16.36, 
			 "cosmo_repulsion_energy": 1.32, 
			 "cosmo_total_nonelectrostatic_energy": 5.82, 
			 "SMD_solvation_energy": 1.13 
		},
		"coords": [
			{
				"x": -0.9371974342,
				"y": 1.1089371921,
				"z": -0.7897103454,
				"element": "C" 
			},
			{
				"x": -1.8557877872,
				"y": 0.5287821669,
				"z": 0.2799919824,
				"element": "C" 
			},
			{
				"x": -1.8344054907,
				"y": -0.8991042535,
				"z": 0.2612797693,
				"element": "O" 
			},
			{
				"x": -0.5949451364,
				"y": -1.4771729245,
				"z": 0.1769981121,
				"element": "C" 
			},
			{
				"x": 0.538276507,
				"y": -0.7233373933,
				"z": -0.2245027635,
				"element": "C" 
			},
			{
				"x": 0.411763989,
				"y": 0.641563544,
				"z": -0.5062687638,
				"element": "N" 
			},
			{
				"x": 1.7539755469,
				"y": -1.4046685536,
				"z": -0.2887145996,
				"element": "C" 
			},
			{
				"x": 1.8016706815,
				"y": -2.7648496777,
				"z": 0.0247897208,
				"element": "C" 
			},
			{
				"x": 0.6204044524,
				"y": -3.4019534984,
				"z": 0.3897339895,
				"element": "C" 
			},
			{
				"x": -0.5576129268,
				"y": -2.7643085826,
				"z": 0.4672288844,
				"element": "N" 
			},
			{
				"x": -0.9601753703,
				"y": 2.2029758892,
				"z": -0.7453621574,
				"element": "H" 
			},
			{
				"x": -1.3013772929,
				"y": 0.7979299399,
				"z": -1.7823581372,
				"element": "H" 
			},
			{
				"x": -2.8952913289,
				"y": 0.8145662366,
				"z": 0.1040976352,
				"element": "H" 
			},
			{
				"x": -1.5490504059,
				"y": 0.8926846882,
				"z": 1.2693605644,
				"element": "H" 
			},
			{
				"x": 1.1311880983,
				"y": 1.0081764927,
				"z": -1.1160096566,
				"element": "H" 
			},
			{
				"x": 2.6524082529,
				"y": -0.8691366367,
				"z": -0.5870653968,
				"element": "H" 
			},
			{
				"x": 2.7370982506,
				"y": -3.3128134998,
				"z": -0.0207532804,
				"element": "H" 
			},
			{
				"x": 0.6074573945,
				"y": -4.4620711293,
				"z": 0.6324644426,
				"element": "H" 
			}
		],
		 "valence_orbital": [ 
			{
				"type": "occ",
				"energy": -0.31656,
				"method": "rhf"
			},
			{
				"type": "occ",
				"energy": -0.31354,
				"method": "rhf"
			},
			{
				"type": "occ",
				"energy": -0.25106,
				"method": "rhf"
			},
			{
				"type": "occ",
				"energy": -0.24973,
				"method": "rhf"
			},
			{
				"type": "occ",
				"energy": -0.19711,
				"method": "rhf"
			},
			{
				"type": "unocc",
				"energy": -0.00781,
				"method": "rhf"
			},
			{
				"type": "unocc",
				"energy": 0.01568,
				"method": "rhf"
			},
			{
				"type": "unocc",
				"energy": 0.07445,
				"method": "rhf"
			},
			{
				"type": "unocc",
				"energy": 0.10687,
				"method": "rhf"
			},
			{
				"type": "unocc",
				"energy": 0.11008,
				"method": "rhf"
			}
		],
		"cosmo_sigma_profile": { 
			"-0.025": 0.0,
			"-0.024": 0.0,
			"-0.023": 0.0,
			"-0.022": 0.0,
			"-0.021": 0.0,
			"-0.02": 0.0,
			"-0.019": 0.0,
			"-0.018": 0.0,
			"-0.017": 0.0,
			"-0.016": 0.0,
			"-0.015": 0.0,
			"-0.014": 0.0392946479736,
			"-0.013": 1.134520409,
			"-0.012": 1.55396750533,
			"-0.011": 1.42913477589,
			"-0.01": 1.37422519197,
			"-0.009": 1.44240088301,
			"-0.008": 1.92122904455,
			"-0.007": 3.57414774935,
			"-0.006": 10.5490776204,
			"-0.005": 16.4867957036,
			"-0.004": 18.8557279277,
			"-0.003": 14.3222557103,
			"-0.002": 9.36120331155,
			"-0.001": 7.37445225726,
			"0.0": 7.18557727938,
			"0.001": 7.06476098007,
			"0.002": 7.59336590667,
			"0.003": 9.93553991877,
			"0.004": 10.995269209,
			"0.005": 7.25921566628,
			"0.006": 3.02936367678,
			"0.007": 3.17658449368,
			"0.008": 2.45149947285,
			"0.009": 2.29060658341,
			"0.01": 2.89848896309,
			"0.011": 2.92807092294,
			"0.012": 2.46222318647,
			"0.013": 2.17633840003,
			"0.014": 1.53432237999,
			"0.015": 1.60696722853,
			"0.016": 1.03053290075,
			"0.017": 0.653220732369,
			"0.018": 0.0,
			"0.019": 0.0,
			"0.02": 0.0,
			"0.021": 0.0,
			"0.022": 0.0,
			"0.023": 0.0,
			"0.024": 0.0,
			"0.025": 0.0
		}
	}
}
