{
	 "smiles": "NC(=S)NC1=CC=C(C=C1)C#N", 
	 "Tm": 483.15, 
	 "num_atms": 19, 
	 "gaussian": { 
		 "optdone": 1, 
		 "sigma_profile": "yes", 
		 "theory": "DFT", 
		 "functional": "B3LYP", 
		 "basiset": "6-31G**", 
		 "properties": { 
			 "R2extent": 3341.7716, 
			 "electric_dipole_moment_norm": 1.6818233855, 
			 "electric_quadrupole_moment_norm": 35.7868435965, 
			 "total_energy": -871.512361503, 
			 "HOMO_LUMO_gap": 0.15206, 
			 "cosmo_polarized_energy": -22.35, 
			 "cosmo_cavitation_energy": 26.52, 
			 "cosmo_dispersion_energy": -19.45, 
			 "cosmo_repulsion_energy": 1.52, 
			 "cosmo_total_nonelectrostatic_energy": 8.59, 
			 "SMD_solvation_energy": 5.12 
		},
		"coords": [
			{
				"x": -1.7239208597,
				"y": 2.0295664285,
				"z": -0.823933391,
				"element": "N" 
			},
			{
				"x": -1.8064354003,
				"y": 1.6236531206,
				"z": 0.4721921609,
				"element": "C" 
			},
			{
				"x": -2.8989842958,
				"y": 2.2811309512,
				"z": 1.5587114254,
				"element": "S" 
			},
			{
				"x": -0.9410224693,
				"y": 0.6312504836,
				"z": 0.8734994318,
				"element": "N" 
			},
			{
				"x": 0.1480602031,
				"y": 0.0299250344,
				"z": 0.2193628265,
				"element": "C" 
			},
			{
				"x": 0.9611588567,
				"y": 0.7124311071,
				"z": -0.7038817711,
				"element": "C" 
			},
			{
				"x": 2.0407225085,
				"y": 0.0651612133,
				"z": -1.294235051,
				"element": "C" 
			},
			{
				"x": 2.3460203583,
				"y": -1.2653335503,
				"z": -0.9648721284,
				"element": "C" 
			},
			{
				"x": 1.5493490294,
				"y": -1.9381543174,
				"z": -0.021060047,
				"element": "C" 
			},
			{
				"x": 0.4636879461,
				"y": -1.2987978171,
				"z": 0.5580994973,
				"element": "C" 
			},
			{
				"x": 3.4595285447,
				"y": -1.9260747351,
				"z": -1.5764569195,
				"element": "C" 
			},
			{
				"x": 4.3630944078,
				"y": -2.4637206967,
				"z": -2.0748825834,
				"element": "N" 
			},
			{
				"x": -1.326055801,
				"y": 1.4199317237,
				"z": -1.5257009971,
				"element": "H" 
			},
			{
				"x": -2.4569204345,
				"y": 2.6558721432,
				"z": -1.1209452559,
				"element": "H" 
			},
			{
				"x": -1.157947164,
				"y": 0.2913715262,
				"z": 1.8009378019,
				"element": "H" 
			},
			{
				"x": 0.7727660167,
				"y": 1.7549769903,
				"z": -0.9295601585,
				"element": "H" 
			},
			{
				"x": 2.666979089,
				"y": 0.5981422499,
				"z": -2.001779854,
				"element": "H" 
			},
			{
				"x": 1.7816212039,
				"y": -2.9639979623,
				"z": 0.2439720814,
				"element": "H" 
			},
			{
				"x": -0.1583017394,
				"y": -1.8292338931,
				"z": 1.273232932,
				"element": "H" 
			}
		],
		 "valence_orbital": [ 
			{
				"type": "occ",
				"energy": -0.31869,
				"method": "rhf"
			},
			{
				"type": "occ",
				"energy": -0.29414,
				"method": "rhf"
			},
			{
				"type": "occ",
				"energy": -0.26375,
				"method": "rhf"
			},
			{
				"type": "occ",
				"energy": -0.2286,
				"method": "rhf"
			},
			{
				"type": "occ",
				"energy": -0.22185,
				"method": "rhf"
			},
			{
				"type": "unocc",
				"energy": -0.06979,
				"method": "rhf"
			},
			{
				"type": "unocc",
				"energy": -0.04409,
				"method": "rhf"
			},
			{
				"type": "unocc",
				"energy": -0.012,
				"method": "rhf"
			},
			{
				"type": "unocc",
				"energy": 0.02818,
				"method": "rhf"
			},
			{
				"type": "unocc",
				"energy": 0.05059,
				"method": "rhf"
			}
		],
		"cosmo_sigma_profile": { 
			"-0.025": 0.0,
			"-0.024": 0.0,
			"-0.023": 0.0,
			"-0.022": 0.0,
			"-0.021": 0.0,
			"-0.02": 0.0,
			"-0.019": 0.0,
			"-0.018": 0.0,
			"-0.017": 0.0,
			"-0.016": 0.031654234779,
			"-0.015": 1.86802813305,
			"-0.014": 2.79363600589,
			"-0.013": 4.42798369375,
			"-0.012": 3.24509428224,
			"-0.011": 3.85080373949,
			"-0.01": 2.86052287177,
			"-0.009": 3.4987950505,
			"-0.008": 8.59625416876,
			"-0.007": 12.0010129135,
			"-0.006": 9.82355410076,
			"-0.005": 8.88202966513,
			"-0.004": 8.30204476672,
			"-0.003": 8.94295648488,
			"-0.002": 10.6545387472,
			"-0.001": 14.5448028141,
			"0.0": 13.1499387305,
			"0.001": 15.4186977225,
			"0.002": 11.6923279799,
			"0.003": 6.16619053689,
			"0.004": 5.7484447071,
			"0.005": 5.37670745352,
			"0.006": 6.32350286501,
			"0.007": 6.17866867236,
			"0.008": 6.70683614,
			"0.009": 8.90249105528,
			"0.01": 10.0918150859,
			"0.011": 9.83802105792,
			"0.012": 4.65518334144,
			"0.013": 1.84217990475,
			"0.014": 0.110526076317,
			"0.015": 0.0,
			"0.016": 0.0,
			"0.017": 0.0,
			"0.018": 0.0,
			"0.019": 0.0,
			"0.02": 0.0,
			"0.021": 0.0,
			"0.022": 0.0,
			"0.023": 0.0,
			"0.024": 0.0,
			"0.025": 0.0
		}
	}
}
