{
	 "smiles": "C1=CC2=CC=C3C4=CC=CC5=C4C(=CC=C5)C3=C2C=C1", 
	 "Tm": 439.15, 
	 "num_atms": 32, 
	 "gaussian": { 
		 "optdone": 1, 
		 "sigma_profile": "yes", 
		 "theory": "DFT", 
		 "functional": "B3LYP", 
		 "basiset": "6-31G**", 
		 "properties": { 
			 "R2extent": 5423.395, 
			 "electric_dipole_moment_norm": 0.397599496982, 
			 "electric_quadrupole_moment_norm": 15.7181581768, 
			 "total_energy": -769.393239841, 
			 "HOMO_LUMO_gap": 0.1269, 
			 "cosmo_polarized_energy": -7.75, 
			 "cosmo_cavitation_energy": 34.71, 
			 "cosmo_dispersion_energy": -25.94, 
			 "cosmo_repulsion_energy": 1.87, 
			 "cosmo_total_nonelectrostatic_energy": 10.65, 
			 "SMD_solvation_energy": 4.58 
		},
		"coords": [
			{
				"x": -3.28636878,
				"y": -0.3502156386,
				"z": 3.1995534526,
				"element": "C" 
			},
			{
				"x": -3.5288208934,
				"y": 0.2424857705,
				"z": 1.9819286318,
				"element": "C" 
			},
			{
				"x": -2.4826587074,
				"y": 0.4536282064,
				"z": 1.0436324899,
				"element": "C" 
			},
			{
				"x": -2.7432773505,
				"y": 1.0671297245,
				"z": -0.212279114,
				"element": "C" 
			},
			{
				"x": -1.7372360419,
				"y": 1.2769237253,
				"z": -1.1294098035,
				"element": "C" 
			},
			{
				"x": -0.4250725157,
				"y": 0.8747836153,
				"z": -0.8143451084,
				"element": "C" 
			},
			{
				"x": 0.8071076512,
				"y": 0.9859432968,
				"z": -1.6110726971,
				"element": "C" 
			},
			{
				"x": 1.1254925714,
				"y": 1.4810004656,
				"z": -2.8599107342,
				"element": "C" 
			},
			{
				"x": 2.4769704814,
				"y": 1.4087706704,
				"z": -3.2997009569,
				"element": "C" 
			},
			{
				"x": 3.4798387514,
				"y": 0.8602131424,
				"z": -2.519016108,
				"element": "C" 
			},
			{
				"x": 3.1781214006,
				"y": 0.3420963467,
				"z": -1.2261376377,
				"element": "C" 
			},
			{
				"x": 1.8385061535,
				"y": 0.4267540598,
				"z": -0.8194722442,
				"element": "C" 
			},
			{
				"x": 1.3361551304,
				"y": -0.0320595141,
				"z": 0.4296227911,
				"element": "C" 
			},
			{
				"x": 2.245316215,
				"y": -0.6037573396,
				"z": 1.3030597944,
				"element": "C" 
			},
			{
				"x": 3.612778776,
				"y": -0.704473592,
				"z": 0.9200578009,
				"element": "C" 
			},
			{
				"x": 4.0815913318,
				"y": -0.251980688,
				"z": -0.2998383643,
				"element": "C" 
			},
			{
				"x": -0.1179369044,
				"y": 0.2617895363,
				"z": 0.4195779033,
				"element": "C" 
			},
			{
				"x": -1.1447888293,
				"y": 0.0366091873,
				"z": 1.3803194933,
				"element": "C" 
			},
			{
				"x": -0.9347963469,
				"y": -0.5723316349,
				"z": 2.6486574606,
				"element": "C" 
			},
			{
				"x": -1.9735928918,
				"y": -0.7607296772,
				"z": 3.5328154148,
				"element": "C" 
			},
			{
				"x": -4.0971033442,
				"y": -0.5043789763,
				"z": 3.9055561558,
				"element": "H" 
			},
			{
				"x": -4.5336135236,
				"y": 0.5614977373,
				"z": 1.7161388743,
				"element": "H" 
			},
			{
				"x": -3.7621498149,
				"y": 1.3709017385,
				"z": -0.4377952222,
				"element": "H" 
			},
			{
				"x": -1.9517992417,
				"y": 1.7470333683,
				"z": -2.0850614512,
				"element": "H" 
			},
			{
				"x": 0.3747267274,
				"y": 1.9213214412,
				"z": -3.5106385386,
				"element": "H" 
			},
			{
				"x": 2.7248418247,
				"y": 1.7990297197,
				"z": -4.2827558935,
				"element": "H" 
			},
			{
				"x": 4.5004736841,
				"y": 0.8234192353,
				"z": -2.8907791647,
				"element": "H" 
			},
			{
				"x": 1.958845642,
				"y": -0.9828023662,
				"z": 2.2776026202,
				"element": "H" 
			},
			{
				"x": 4.3095816833,
				"y": -1.1564181378,
				"z": 1.620392571,
				"element": "H" 
			},
			{
				"x": 5.1343456794,
				"y": -0.3487467518,
				"z": -0.5517114736,
				"element": "H" 
			},
			{
				"x": 0.0607746134,
				"y": -0.8947117752,
				"z": 2.9262319047,
				"element": "H" 
			},
			{
				"x": -1.7846531311,
				"y": -1.2285248959,
				"z": 4.4948771536,
				"element": "H" 
			}
		],
		 "valence_orbital": [ 
			{
				"type": "occ",
				"energy": -0.26701,
				"method": "rhf"
			},
			{
				"type": "occ",
				"energy": -0.24735,
				"method": "rhf"
			},
			{
				"type": "occ",
				"energy": -0.24438,
				"method": "rhf"
			},
			{
				"type": "occ",
				"energy": -0.21482,
				"method": "rhf"
			},
			{
				"type": "occ",
				"energy": -0.19974,
				"method": "rhf"
			},
			{
				"type": "unocc",
				"energy": -0.07284,
				"method": "rhf"
			},
			{
				"type": "unocc",
				"energy": -0.02565,
				"method": "rhf"
			},
			{
				"type": "unocc",
				"energy": -0.0091,
				"method": "rhf"
			},
			{
				"type": "unocc",
				"energy": -0.00128,
				"method": "rhf"
			},
			{
				"type": "unocc",
				"energy": 0.03612,
				"method": "rhf"
			}
		],
		"cosmo_sigma_profile": { 
			"-0.025": 0.0,
			"-0.024": 0.0,
			"-0.023": 0.0,
			"-0.022": 0.0,
			"-0.021": 0.0,
			"-0.02": 0.0,
			"-0.019": 0.0,
			"-0.018": 0.0,
			"-0.017": 0.0,
			"-0.016": 0.0,
			"-0.015": 0.0,
			"-0.014": 0.0,
			"-0.013": 0.0,
			"-0.012": 0.0,
			"-0.011": 0.0,
			"-0.01": 0.0,
			"-0.009": 0.224490513758,
			"-0.008": 1.6524813994,
			"-0.007": 2.10631929627,
			"-0.006": 21.0674474954,
			"-0.005": 25.2354260124,
			"-0.004": 23.4707409994,
			"-0.003": 19.6432500454,
			"-0.002": 15.4024141026,
			"-0.001": 15.0927936056,
			"0.0": 13.5853999282,
			"0.001": 15.8215890976,
			"0.002": 19.1079011952,
			"0.003": 34.1796206399,
			"0.004": 51.3040857878,
			"0.005": 21.3062349675,
			"0.006": 1.68651571363,
			"0.007": 0.0,
			"0.008": 0.0,
			"0.009": 0.0,
			"0.01": 0.0,
			"0.011": 0.0,
			"0.012": 0.0,
			"0.013": 0.0,
			"0.014": 0.0,
			"0.015": 0.0,
			"0.016": 0.0,
			"0.017": 0.0,
			"0.018": 0.0,
			"0.019": 0.0,
			"0.02": 0.0,
			"0.021": 0.0,
			"0.022": 0.0,
			"0.023": 0.0,
			"0.024": 0.0,
			"0.025": 0.0
		}
	}
}
