{
	 "smiles": "CC(CCC=C(C)C)C1CCC2(C)C3=C(CCC12C)C1(C)CCC(O)C(C)(C)C1CC3", 
	 "Tm": 413.15, 
	 "num_atms": 81, 
	 "gaussian": { 
		 "optdone": 1, 
		 "sigma_profile": "yes", 
		 "theory": "DFT", 
		 "functional": "B3LYP", 
		 "basiset": "6-31G**", 
		 "properties": { 
			 "R2extent": 20151.7193, 
			 "electric_dipole_moment_norm": 1.35869618753, 
			 "electric_quadrupole_moment_norm": 11.5740994259, 
			 "total_energy": -1248.53194777, 
			 "HOMO_LUMO_gap": 0.24412, 
			 "cosmo_polarized_energy": -7.74, 
			 "cosmo_cavitation_energy": 66.11, 
			 "cosmo_dispersion_energy": -43.88, 
			 "cosmo_repulsion_energy": 3.19, 
			 "cosmo_total_nonelectrostatic_energy": 25.42, 
			 "SMD_solvation_energy": 9.82 
		},
		"coords": [
			{
				"x": -2.9728118727,
				"y": 3.4530694888,
				"z": -0.0052138633,
				"element": "C" 
			},
			{
				"x": -1.4819868418,
				"y": 3.8237824867,
				"z": 0.1190816994,
				"element": "C" 
			},
			{
				"x": -1.3402169638,
				"y": 5.3669220587,
				"z": -0.0129192179,
				"element": "C" 
			},
			{
				"x": -1.5569187623,
				"y": 6.1785060373,
				"z": 1.2876928109,
				"element": "C" 
			},
			{
				"x": -2.9733947494,
				"y": 6.2557681359,
				"z": 1.7932126115,
				"element": "C" 
			},
			{
				"x": -3.4507402709,
				"y": 5.9753198941,
				"z": 3.0168539846,
				"element": "C" 
			},
			{
				"x": -4.9153610683,
				"y": 6.1642895134,
				"z": 3.3360595156,
				"element": "C" 
			},
			{
				"x": -2.6237353413,
				"y": 5.4667799825,
				"z": 4.1725454001,
				"element": "C" 
			},
			{
				"x": -0.6020835083,
				"y": 3.0876323308,
				"z": -0.9377176655,
				"element": "C" 
			},
			{
				"x": 0.8859358663,
				"y": 3.5930084119,
				"z": -0.9875996465,
				"element": "C" 
			},
			{
				"x": 1.8115524393,
				"y": 2.355980011,
				"z": -1.0288846568,
				"element": "C" 
			},
			{
				"x": 0.9905808664,
				"y": 1.2789934591,
				"z": -0.2889936874,
				"element": "C" 
			},
			{
				"x": 1.0738296918,
				"y": 1.5888902407,
				"z": 1.2345389612,
				"element": "C" 
			},
			{
				"x": 1.4237533535,
				"y": -0.1723792399,
				"z": -0.4473426841,
				"element": "C" 
			},
			{
				"x": 0.5288101978,
				"y": -1.1692087416,
				"z": -0.3077899718,
				"element": "C" 
			},
			{
				"x": -0.9411270176,
				"y": -0.8573391317,
				"z": -0.0211998223,
				"element": "C" 
			},
			{
				"x": -1.4117531707,
				"y": 0.6300883359,
				"z": -0.0939979462,
				"element": "C" 
			},
			{
				"x": -0.440947693,
				"y": 1.5074363602,
				"z": -0.8937136295,
				"element": "C" 
			},
			{
				"x": -0.5163648773,
				"y": 1.050740299,
				"z": -2.3766471879,
				"element": "C" 
			},
			{
				"x": 0.8740042635,
				"y": -2.6645982409,
				"z": -0.5635613862,
				"element": "C" 
			},
			{
				"x": 0.2891558547,
				"y": -3.0108945443,
				"z": -1.9616177401,
				"element": "C" 
			},
			{
				"x": 0.1907088594,
				"y": -3.5773915985,
				"z": 0.5002796908,
				"element": "C" 
			},
			{
				"x": 1.046700284,
				"y": -3.7428027166,
				"z": 1.753458578,
				"element": "C" 
			},
			{
				"x": 2.383177664,
				"y": -4.4559548038,
				"z": 1.4821378166,
				"element": "C" 
			},
			{
				"x": 2.2187135608,
				"y": -5.814902021,
				"z": 1.9027450333,
				"element": "O" 
			},
			{
				"x": 2.8673231403,
				"y": -4.3429487198,
				"z": -0.0064333054,
				"element": "C" 
			},
			{
				"x": 2.3384619557,
				"y": -5.5099239628,
				"z": -0.8773078802,
				"element": "C" 
			},
			{
				"x": 4.4085977561,
				"y": -4.4975059093,
				"z": -0.0259344821,
				"element": "C" 
			},
			{
				"x": 2.4439003023,
				"y": -2.9490291422,
				"z": -0.6043849373,
				"element": "C" 
			},
			{
				"x": 3.2721467128,
				"y": -1.7929751893,
				"z": -0.0155149151,
				"element": "C" 
			},
			{
				"x": 2.8900906567,
				"y": -0.4575933266,
				"z": -0.6437035753,
				"element": "C" 
			},
			{
				"x": -3.1764541141,
				"y": 2.4096620961,
				"z": 0.2337027891,
				"element": "H" 
			},
			{
				"x": -3.3239453901,
				"y": 3.6364267044,
				"z": -1.0287141919,
				"element": "H" 
			},
			{
				"x": -3.5769648516,
				"y": 4.0669319404,
				"z": 0.6670508648,
				"element": "H" 
			},
			{
				"x": -1.1380429478,
				"y": 3.5452711107,
				"z": 1.1252788056,
				"element": "H" 
			},
			{
				"x": -2.0362608228,
				"y": 5.7237969954,
				"z": -0.7855937944,
				"element": "H" 
			},
			{
				"x": -0.3417908981,
				"y": 5.6259134012,
				"z": -0.3749371571,
				"element": "H" 
			},
			{
				"x": -1.2201938927,
				"y": 7.2065870853,
				"z": 1.0830540538,
				"element": "H" 
			},
			{
				"x": -0.8821070309,
				"y": 5.7939048236,
				"z": 2.0603982881,
				"element": "H" 
			},
			{
				"x": -3.6900707171,
				"y": 6.6225416792,
				"z": 1.0553594075,
				"element": "H" 
			},
			{
				"x": -5.3744490339,
				"y": 5.221344103,
				"z": 3.662423957,
				"element": "H" 
			},
			{
				"x": -5.0517566393,
				"y": 6.8759604425,
				"z": 4.1616114548,
				"element": "H" 
			},
			{
				"x": -5.4773592185,
				"y": 6.5346233554,
				"z": 2.4740869231,
				"element": "H" 
			},
			{
				"x": -1.5755032353,
				"y": 5.3033437353,
				"z": 3.9165112056,
				"element": "H" 
			},
			{
				"x": -3.0298834982,
				"y": 4.5191391965,
				"z": 4.5501442386,
				"element": "H" 
			},
			{
				"x": -2.6573180881,
				"y": 6.1731746551,
				"z": 5.0128171058,
				"element": "H" 
			},
			{
				"x": -1.0727930429,
				"y": 3.3282438506,
				"z": -1.8995829204,
				"element": "H" 
			},
			{
				"x": 1.0634563804,
				"y": 4.261238383,
				"z": -1.8359905011,
				"element": "H" 
			},
			{
				"x": 1.1155070665,
				"y": 4.1760846274,
				"z": -0.0901629414,
				"element": "H" 
			},
			{
				"x": 2.0225484631,
				"y": 2.0504554811,
				"z": -2.0582933909,
				"element": "H" 
			},
			{
				"x": 2.7770157727,
				"y": 2.5618051999,
				"z": -0.555009516,
				"element": "H" 
			},
			{
				"x": 0.4523294416,
				"y": 0.9132195484,
				"z": 1.8258528873,
				"element": "H" 
			},
			{
				"x": 2.107864251,
				"y": 1.449677858,
				"z": 1.5704394869,
				"element": "H" 
			},
			{
				"x": 0.789763347,
				"y": 2.6151035311,
				"z": 1.4805520081,
				"element": "H" 
			},
			{
				"x": -1.5623275646,
				"y": -1.4531459482,
				"z": -0.7003905276,
				"element": "H" 
			},
			{
				"x": -1.1939437125,
				"y": -1.2289321578,
				"z": 0.9795552884,
				"element": "H" 
			},
			{
				"x": -2.4092056204,
				"y": 0.6450197782,
				"z": -0.5445219246,
				"element": "H" 
			},
			{
				"x": -1.528182081,
				"y": 1.0228948022,
				"z": 0.9195706469,
				"element": "H" 
			},
			{
				"x": -0.2725249626,
				"y": -0.0046416499,
				"z": -2.5074773798,
				"element": "H" 
			},
			{
				"x": 0.1494079406,
				"y": 1.6278567146,
				"z": -3.0246164044,
				"element": "H" 
			},
			{
				"x": -1.5367272558,
				"y": 1.2102185484,
				"z": -2.7437999784,
				"element": "H" 
			},
			{
				"x": 0.5243242096,
				"y": -4.0394962263,
				"z": -2.2463631179,
				"element": "H" 
			},
			{
				"x": 0.7015020641,
				"y": -2.348062318,
				"z": -2.7295111575,
				"element": "H" 
			},
			{
				"x": -0.8006369396,
				"y": -2.911003438,
				"z": -1.9819821094,
				"element": "H" 
			},
			{
				"x": -0.0162260141,
				"y": -4.5616440268,
				"z": 0.0724061871,
				"element": "H" 
			},
			{
				"x": -0.7884800702,
				"y": -3.1781697174,
				"z": 0.770397322,
				"element": "H" 
			},
			{
				"x": 0.5181405782,
				"y": -4.3195757313,
				"z": 2.5189815784,
				"element": "H" 
			},
			{
				"x": 1.2440360553,
				"y": -2.7529760083,
				"z": 2.1831947276,
				"element": "H" 
			},
			{
				"x": 3.1521906099,
				"y": -3.9859742485,
				"z": 2.1147077716,
				"element": "H" 
			},
			{
				"x": 3.0742714485,
				"y": -6.2567227725,
				"z": 1.8264354595,
				"element": "H" 
			},
			{
				"x": 1.2536929084,
				"y": -5.5919932717,
				"z": -0.9061193501,
				"element": "H" 
			},
			{
				"x": 2.6961262257,
				"y": -5.3908482455,
				"z": -1.9063169148,
				"element": "H" 
			},
			{
				"x": 2.7130765985,
				"y": -6.4672817157,
				"z": -0.5067362032,
				"element": "H" 
			},
			{
				"x": 4.6916920827,
				"y": -5.5119285567,
				"z": 0.2819842843,
				"element": "H" 
			},
			{
				"x": 4.915304996,
				"y": -3.8030235537,
				"z": 0.6485617925,
				"element": "H" 
			},
			{
				"x": 4.8123994864,
				"y": -4.3485365683,
				"z": -1.0339123815,
				"element": "H" 
			},
			{
				"x": 2.7212810141,
				"y": -2.98964187,
				"z": -1.6677826309,
				"element": "H" 
			},
			{
				"x": 3.130793558,
				"y": -1.7217881619,
				"z": 1.0703668801,
				"element": "H" 
			},
			{
				"x": 4.3364243737,
				"y": -1.9756457958,
				"z": -0.1863972868,
				"element": "H" 
			},
			{
				"x": 3.1509154859,
				"y": -0.4589901154,
				"z": -1.7139641138,
				"element": "H" 
			},
			{
				"x": 3.4897819962,
				"y": 0.3447226928,
				"z": -0.1972974221,
				"element": "H" 
			}
		],
		 "valence_orbital": [ 
			{
				"type": "occ",
				"energy": -0.27693,
				"method": "rhf"
			},
			{
				"type": "occ",
				"energy": -0.25816,
				"method": "rhf"
			},
			{
				"type": "occ",
				"energy": -0.25148,
				"method": "rhf"
			},
			{
				"type": "occ",
				"energy": -0.22347,
				"method": "rhf"
			},
			{
				"type": "occ",
				"energy": -0.2122,
				"method": "rhf"
			},
			{
				"type": "unocc",
				"energy": 0.03192,
				"method": "rhf"
			},
			{
				"type": "unocc",
				"energy": 0.0337,
				"method": "rhf"
			},
			{
				"type": "unocc",
				"energy": 0.0619,
				"method": "rhf"
			},
			{
				"type": "unocc",
				"energy": 0.07391,
				"method": "rhf"
			},
			{
				"type": "unocc",
				"energy": 0.08782,
				"method": "rhf"
			}
		],
		"cosmo_sigma_profile": { 
			"-0.025": 0.0,
			"-0.024": 0.0,
			"-0.023": 0.0,
			"-0.022": 0.0,
			"-0.021": 0.0,
			"-0.02": 0.0,
			"-0.019": 0.0,
			"-0.018": 0.0,
			"-0.017": 0.0,
			"-0.016": 0.0,
			"-0.015": 0.0,
			"-0.014": 0.213891507127,
			"-0.013": 1.06670385994,
			"-0.012": 0.761520605292,
			"-0.011": 1.03751886577,
			"-0.01": 1.16303816015,
			"-0.009": 1.15041373806,
			"-0.008": 1.18570431,
			"-0.007": 1.23310879933,
			"-0.006": 1.57148611599,
			"-0.005": 1.6728254832,
			"-0.004": 5.0113394226,
			"-0.003": 29.6636143357,
			"-0.002": 76.158616148,
			"-0.001": 101.155415576,
			"0.0": 97.332745277,
			"0.001": 84.7682609351,
			"0.002": 52.5934302996,
			"0.003": 19.1819140305,
			"0.004": 7.69511263475,
			"0.005": 4.57529985413,
			"0.006": 3.06219594469,
			"0.007": 2.68711253105,
			"0.008": 1.5482152212,
			"0.009": 1.03793385153,
			"0.01": 0.925812275683,
			"0.011": 1.73407757412,
			"0.012": 1.24903139802,
			"0.013": 1.45677158773,
			"0.014": 1.5965980902,
			"0.015": 0.742886398077,
			"0.016": 0.0,
			"0.017": 0.0,
			"0.018": 0.0,
			"0.019": 0.0,
			"0.02": 0.0,
			"0.021": 0.0,
			"0.022": 0.0,
			"0.023": 0.0,
			"0.024": 0.0,
			"0.025": 0.0
		}
	}
}
