{
	 "smiles": "OC(=O)CCNC(=O)C1=CC=CS1", 
	 "Tm": 494.15, 
	 "num_atms": 22, 
	 "gaussian": { 
		 "optdone": 1, 
		 "sigma_profile": "yes", 
		 "theory": "DFT", 
		 "functional": "B3LYP", 
		 "basiset": "6-31G**", 
		 "properties": { 
			 "R2extent": 3316.136, 
			 "electric_dipole_moment_norm": 2.73841854544, 
			 "electric_quadrupole_moment_norm": 23.8984316665, 
			 "total_energy": -988.886186706, 
			 "HOMO_LUMO_gap": 0.1958, 
			 "cosmo_polarized_energy": -22.22, 
			 "cosmo_cavitation_energy": 28.19, 
			 "cosmo_dispersion_energy": -20.69, 
			 "cosmo_repulsion_energy": 1.62, 
			 "cosmo_total_nonelectrostatic_energy": 9.11, 
			 "SMD_solvation_energy": 6.23 
		},
		"coords": [
			{
				"x": -1.8396132515,
				"y": -3.5556599419,
				"z": 1.3190073695,
				"element": "O" 
			},
			{
				"x": -1.6618040434,
				"y": -2.2876813491,
				"z": 1.7742833795,
				"element": "C" 
			},
			{
				"x": -1.3123592762,
				"y": -2.0950767692,
				"z": 2.9122769616,
				"element": "O" 
			},
			{
				"x": -1.9417694755,
				"y": -1.1801593517,
				"z": 0.7678973769,
				"element": "C" 
			},
			{
				"x": -1.6209276664,
				"y": 0.2084352855,
				"z": 1.3440535325,
				"element": "C" 
			},
			{
				"x": -1.9574860702,
				"y": 1.3029939763,
				"z": 0.4473874458,
				"element": "N" 
			},
			{
				"x": -1.3411856614,
				"y": 1.7844103516,
				"z": -0.684142472,
				"element": "C" 
			},
			{
				"x": -1.9357826661,
				"y": 2.5927488798,
				"z": -1.3955089033,
				"element": "O" 
			},
			{
				"x": 0.0406048273,
				"y": 1.3731419671,
				"z": -1.0675318096,
				"element": "C" 
			},
			{
				"x": 0.6125814205,
				"y": 1.8260751123,
				"z": -2.2357099479,
				"element": "C" 
			},
			{
				"x": 1.9383868829,
				"y": 1.362404035,
				"z": -2.4448576762,
				"element": "C" 
			},
			{
				"x": 2.3796843242,
				"y": 0.5555371083,
				"z": -1.4299906912,
				"element": "C" 
			},
			{
				"x": 1.1782812021,
				"y": 0.3524345985,
				"z": -0.20406455,
				"element": "S" 
			},
			{
				"x": -2.1084370283,
				"y": -3.5461163559,
				"z": 0.3891891337,
				"element": "H" 
			},
			{
				"x": -1.355211358,
				"y": -1.3589862973,
				"z": -0.1419098565,
				"element": "H" 
			},
			{
				"x": -2.9985850006,
				"y": -1.229025254,
				"z": 0.4725180497,
				"element": "H" 
			},
			{
				"x": -0.5717340989,
				"y": 0.2564957547,
				"z": 1.6415291527,
				"element": "H" 
			},
			{
				"x": -2.1871218449,
				"y": 0.3508463826,
				"z": 2.2673628654,
				"element": "H" 
			},
			{
				"x": -2.8930282651,
				"y": 1.6816630853,
				"z": 0.5210573234,
				"element": "H" 
			},
			{
				"x": 0.0660108549,
				"y": 2.4805870087,
				"z": -2.9025127994,
				"element": "H" 
			},
			{
				"x": 2.5401253819,
				"y": 1.6172214517,
				"z": -3.3094872301,
				"element": "H" 
			},
			{
				"x": 3.3401708129,
				"y": 0.0693103217,
				"z": -1.3246466546,
				"element": "H" 
			}
		],
		 "valence_orbital": [ 
			{
				"type": "occ",
				"energy": -0.28512,
				"method": "rhf"
			},
			{
				"type": "occ",
				"energy": -0.26589,
				"method": "rhf"
			},
			{
				"type": "occ",
				"energy": -0.26029,
				"method": "rhf"
			},
			{
				"type": "occ",
				"energy": -0.2543,
				"method": "rhf"
			},
			{
				"type": "occ",
				"energy": -0.24635,
				"method": "rhf"
			},
			{
				"type": "unocc",
				"energy": -0.05055,
				"method": "rhf"
			},
			{
				"type": "unocc",
				"energy": -0.00042,
				"method": "rhf"
			},
			{
				"type": "unocc",
				"energy": 0.01903,
				"method": "rhf"
			},
			{
				"type": "unocc",
				"energy": 0.03192,
				"method": "rhf"
			},
			{
				"type": "unocc",
				"energy": 0.04675,
				"method": "rhf"
			}
		],
		"cosmo_sigma_profile": { 
			"-0.025": 0.0,
			"-0.024": 0.0,
			"-0.023": 0.0,
			"-0.022": 0.0,
			"-0.021": 0.0,
			"-0.02": 0.0201666088415,
			"-0.019": 0.95072505228,
			"-0.018": 0.839098265218,
			"-0.017": 1.24308770229,
			"-0.016": 1.01041982625,
			"-0.015": 0.87970708882,
			"-0.014": 1.73678419186,
			"-0.013": 2.7184667299,
			"-0.012": 2.16656227026,
			"-0.011": 1.95519867915,
			"-0.01": 2.62551141307,
			"-0.009": 4.57072010266,
			"-0.008": 6.66317991519,
			"-0.007": 10.5272182128,
			"-0.006": 10.9064269961,
			"-0.005": 11.6628612815,
			"-0.004": 14.24904092,
			"-0.003": 13.3286513234,
			"-0.002": 10.2676697443,
			"-0.001": 11.1351787025,
			"0.0": 11.5934296676,
			"0.001": 11.7517302572,
			"0.002": 13.8578618844,
			"0.003": 16.4452484255,
			"0.004": 11.6036733167,
			"0.005": 4.91016656219,
			"0.006": 4.23724036365,
			"0.007": 3.77405168304,
			"0.008": 4.05915303579,
			"0.009": 4.72687624262,
			"0.01": 6.0496926548,
			"0.011": 7.04599924653,
			"0.012": 6.48279636234,
			"0.013": 5.2650827094,
			"0.014": 4.51247651955,
			"0.015": 0.127190618255,
			"0.016": 0.0,
			"0.017": 0.0,
			"0.018": 0.0,
			"0.019": 0.0,
			"0.02": 0.0,
			"0.021": 0.0,
			"0.022": 0.0,
			"0.023": 0.0,
			"0.024": 0.0,
			"0.025": 0.0
		}
	}
}
