{
	 "smiles": "CCCC1=NN(C(=O)N1C(N)=O)C1=CC=CC=C1", 
	 "Tm": 406.15, 
	 "num_atms": 32, 
	 "gaussian": { 
		 "optdone": 1, 
		 "sigma_profile": "yes", 
		 "theory": "DFT", 
		 "functional": "B3LYP", 
		 "basiset": "6-31G**", 
		 "properties": { 
			 "R2extent": 5918.9399, 
			 "electric_dipole_moment_norm": 0.357544808381, 
			 "electric_quadrupole_moment_norm": 9.37984903876, 
			 "total_energy": -835.214367726, 
			 "HOMO_LUMO_gap": 0.20151, 
			 "cosmo_polarized_energy": -10.74, 
			 "cosmo_cavitation_energy": 35.01, 
			 "cosmo_dispersion_energy": -25.64, 
			 "cosmo_repulsion_energy": 1.98, 
			 "cosmo_total_nonelectrostatic_energy": 11.35, 
			 "SMD_solvation_energy": 6.52 
		},
		"coords": [
			{
				"x": 2.1773595786,
				"y": 0.5726226675,
				"z": -3.6939676292,
				"element": "C" 
			},
			{
				"x": 0.7904076395,
				"y": -0.0761631789,
				"z": -3.6625798428,
				"element": "C" 
			},
			{
				"x": 0.6952876772,
				"y": -1.3789494239,
				"z": -2.8325706071,
				"element": "C" 
			},
			{
				"x": 0.9725088778,
				"y": -1.18054932,
				"z": -1.3715943601,
				"element": "C" 
			},
			{
				"x": 0.0546768857,
				"y": -0.7712177025,
				"z": -0.5512347732,
				"element": "N" 
			},
			{
				"x": 0.6545880979,
				"y": -0.6572253052,
				"z": 0.6922414592,
				"element": "N" 
			},
			{
				"x": 1.9828460215,
				"y": -1.007750833,
				"z": 0.6517757552,
				"element": "C" 
			},
			{
				"x": 2.8128721206,
				"y": -1.0290602031,
				"z": 1.561499221,
				"element": "O" 
			},
			{
				"x": 2.1919948593,
				"y": -1.3502081126,
				"z": -0.7048831458,
				"element": "N" 
			},
			{
				"x": 3.4214404731,
				"y": -1.8637387506,
				"z": -1.2623224973,
				"element": "C" 
			},
			{
				"x": 4.4365320021,
				"y": -1.8935148642,
				"z": -0.3765199062,
				"element": "N" 
			},
			{
				"x": 3.4844442065,
				"y": -2.216636435,
				"z": -2.4271911221,
				"element": "O" 
			},
			{
				"x": -0.1128939877,
				"y": -0.2279270492,
				"z": 1.8115636519,
				"element": "C" 
			},
			{
				"x": -1.4690562461,
				"y": 0.0671486047,
				"z": 1.6191927584,
				"element": "C" 
			},
			{
				"x": -2.2395958282,
				"y": 0.4891299559,
				"z": 2.7001387745,
				"element": "C" 
			},
			{
				"x": -1.6745232751,
				"y": 0.620695517,
				"z": 3.9699254486,
				"element": "C" 
			},
			{
				"x": -0.3232578923,
				"y": 0.3242984847,
				"z": 4.1489045894,
				"element": "C" 
			},
			{
				"x": 0.4676717349,
				"y": -0.1000427944,
				"z": 3.0809691691,
				"element": "C" 
			},
			{
				"x": 2.4860531847,
				"y": 0.9100071213,
				"z": -2.6982470253,
				"element": "H" 
			},
			{
				"x": 2.9364614658,
				"y": -0.126199283,
				"z": -4.0555346706,
				"element": "H" 
			},
			{
				"x": 2.1751852422,
				"y": 1.450576115,
				"z": -4.3480296533,
				"element": "H" 
			},
			{
				"x": 0.4785331239,
				"y": -0.322865748,
				"z": -4.6847200163,
				"element": "H" 
			},
			{
				"x": 0.0533470317,
				"y": 0.6374239686,
				"z": -3.2753711493,
				"element": "H" 
			},
			{
				"x": -0.3290247388,
				"y": -1.7590398251,
				"z": -2.8970362746,
				"element": "H" 
			},
			{
				"x": 1.3751078874,
				"y": -2.1311992922,
				"z": -3.2306745545,
				"element": "H" 
			},
			{
				"x": 4.2816818799,
				"y": -1.6223991523,
				"z": 0.5923592762,
				"element": "H" 
			},
			{
				"x": 5.3079337329,
				"y": -2.276803305,
				"z": -0.7051516841,
				"element": "H" 
			},
			{
				"x": -1.9002645114,
				"y": -0.0369699767,
				"z": 0.6320330257,
				"element": "H" 
			},
			{
				"x": -3.2902374651,
				"y": 0.715928303,
				"z": 2.543782537,
				"element": "H" 
			},
			{
				"x": -2.2801601712,
				"y": 0.9500704944,
				"z": 4.8087344743,
				"element": "H" 
			},
			{
				"x": 0.130288619,
				"y": 0.4220277829,
				"z": 5.1309912478,
				"element": "H" 
			},
			{
				"x": 1.5144917737,
				"y": -0.3294684602,
				"z": 3.2225175233,
				"element": "H" 
			}
		],
		 "valence_orbital": [ 
			{
				"type": "occ",
				"energy": -0.28516,
				"method": "rhf"
			},
			{
				"type": "occ",
				"energy": -0.28292,
				"method": "rhf"
			},
			{
				"type": "occ",
				"energy": -0.26782,
				"method": "rhf"
			},
			{
				"type": "occ",
				"energy": -0.25288,
				"method": "rhf"
			},
			{
				"type": "occ",
				"energy": -0.22147,
				"method": "rhf"
			},
			{
				"type": "unocc",
				"energy": -0.01996,
				"method": "rhf"
			},
			{
				"type": "unocc",
				"energy": -0.01766,
				"method": "rhf"
			},
			{
				"type": "unocc",
				"energy": -0.00126,
				"method": "rhf"
			},
			{
				"type": "unocc",
				"energy": 0.04109,
				"method": "rhf"
			},
			{
				"type": "unocc",
				"energy": 0.07582,
				"method": "rhf"
			}
		],
		"cosmo_sigma_profile": { 
			"-0.025": 0.0,
			"-0.024": 0.0,
			"-0.023": 0.0,
			"-0.022": 0.0,
			"-0.021": 0.0,
			"-0.02": 0.0,
			"-0.019": 0.0,
			"-0.018": 0.0,
			"-0.017": 0.0,
			"-0.016": 0.0364824403864,
			"-0.015": 0.871990104931,
			"-0.014": 1.27072543351,
			"-0.013": 0.879622476649,
			"-0.012": 1.13770630887,
			"-0.011": 0.806071926222,
			"-0.01": 2.07923067496,
			"-0.009": 1.91156925035,
			"-0.008": 0.881697924667,
			"-0.007": 1.46828216858,
			"-0.006": 7.65884144522,
			"-0.005": 16.0081836981,
			"-0.004": 20.6939389752,
			"-0.003": 25.7905501672,
			"-0.002": 28.5377556696,
			"-0.001": 27.6401487202,
			"0.0": 23.7378340889,
			"0.001": 23.6926411442,
			"0.002": 19.4640074121,
			"0.003": 16.0822901286,
			"0.004": 15.171278537,
			"0.005": 15.4838799103,
			"0.006": 5.04624425226,
			"0.007": 3.71908584438,
			"0.008": 3.96539420593,
			"0.009": 4.81895055241,
			"0.01": 3.86106498705,
			"0.011": 2.03355318999,
			"0.012": 2.2463356128,
			"0.013": 1.6622573301,
			"0.014": 0.0482548972623,
			"0.015": 0.0,
			"0.016": 0.0,
			"0.017": 0.0,
			"0.018": 0.0,
			"0.019": 0.0,
			"0.02": 0.0,
			"0.021": 0.0,
			"0.022": 0.0,
			"0.023": 0.0,
			"0.024": 0.0,
			"0.025": 0.0
		}
	}
}
