{
	 "smiles": "FC1=C2SCCC(=O)C2=C(F)C=C1", 
	 "Tm": 385.15, 
	 "num_atms": 19, 
	 "gaussian": { 
		 "optdone": 1, 
		 "sigma_profile": "yes", 
		 "theory": "DFT", 
		 "functional": "B3LYP", 
		 "basiset": "6-31G**", 
		 "properties": { 
			 "R2extent": 2961.9763, 
			 "electric_dipole_moment_norm": 1.67618645144, 
			 "electric_quadrupole_moment_norm": 15.0458920836, 
			 "total_energy": -1019.64777547, 
			 "HOMO_LUMO_gap": 0.15927, 
			 "cosmo_polarized_energy": -9.98, 
			 "cosmo_cavitation_energy": 24.92, 
			 "cosmo_dispersion_energy": -19.06, 
			 "cosmo_repulsion_energy": 1.4, 
			 "cosmo_total_nonelectrostatic_energy": 7.27, 
			 "SMD_solvation_energy": 4.99 
		},
		"coords": [
			{
				"x": 1.3810494717,
				"y": 3.639622432,
				"z": -0.7182275486,
				"element": "F" 
			},
			{
				"x": 0.4150031467,
				"y": 2.7402497807,
				"z": -0.4316544506,
				"element": "C" 
			},
			{
				"x": 0.5363984734,
				"y": 1.4508727681,
				"z": -0.9626184475,
				"element": "C" 
			},
			{
				"x": 1.9833243963,
				"y": 1.1686774291,
				"z": -1.9454111824,
				"element": "S" 
			},
			{
				"x": 1.9355401199,
				"y": -0.6563089802,
				"z": -2.0557527009,
				"element": "C" 
			},
			{
				"x": 0.5378654396,
				"y": -1.1655655296,
				"z": -2.3847595845,
				"element": "C" 
			},
			{
				"x": -0.4767489337,
				"y": -0.8763109546,
				"z": -1.2832405756,
				"element": "C" 
			},
			{
				"x": -1.2696215639,
				"y": -1.7394175331,
				"z": -0.9481997905,
				"element": "O" 
			},
			{
				"x": -0.4772573498,
				"y": 0.4956271485,
				"z": -0.6827727456,
				"element": "C" 
			},
			{
				"x": -1.5391469227,
				"y": 0.9093202467,
				"z": 0.1518893017,
				"element": "C" 
			},
			{
				"x": -2.527296799,
				"y": 0.0589103572,
				"z": 0.4542158939,
				"element": "F" 
			},
			{
				"x": -1.6349104135,
				"y": 2.1914563317,
				"z": 0.6742891387,
				"element": "C" 
			},
			{
				"x": -0.6421210526,
				"y": 3.1226677961,
				"z": 0.3747465228,
				"element": "C" 
			},
			{
				"x": 2.3016855581,
				"y": -1.0801770059,
				"z": -1.1150486821,
				"element": "H" 
			},
			{
				"x": 2.6494158568,
				"y": -0.9140054046,
				"z": -2.8422330429,
				"element": "H" 
			},
			{
				"x": 0.5394965587,
				"y": -2.2493287752,
				"z": -2.5313734744,
				"element": "H" 
			},
			{
				"x": 0.1847812239,
				"y": -0.6998626829,
				"z": -3.3148607283,
				"element": "H" 
			},
			{
				"x": -2.4820164716,
				"y": 2.4420343452,
				"z": 1.3017424707,
				"element": "H" 
			},
			{
				"x": -0.6737407383,
				"y": 4.1348382306,
				"z": 0.7626696262,
				"element": "H" 
			}
		],
		 "valence_orbital": [ 
			{
				"type": "occ",
				"energy": -0.3378,
				"method": "rhf"
			},
			{
				"type": "occ",
				"energy": -0.30657,
				"method": "rhf"
			},
			{
				"type": "occ",
				"energy": -0.26166,
				"method": "rhf"
			},
			{
				"type": "occ",
				"energy": -0.25116,
				"method": "rhf"
			},
			{
				"type": "occ",
				"energy": -0.22876,
				"method": "rhf"
			},
			{
				"type": "unocc",
				"energy": -0.06949,
				"method": "rhf"
			},
			{
				"type": "unocc",
				"energy": -0.01569,
				"method": "rhf"
			},
			{
				"type": "unocc",
				"energy": 0.01792,
				"method": "rhf"
			},
			{
				"type": "unocc",
				"energy": 0.03024,
				"method": "rhf"
			},
			{
				"type": "unocc",
				"energy": 0.04797,
				"method": "rhf"
			}
		],
		"cosmo_sigma_profile": { 
			"-0.025": 0.0,
			"-0.024": 0.0,
			"-0.023": 0.0,
			"-0.022": 0.0,
			"-0.021": 0.0,
			"-0.02": 0.0,
			"-0.019": 0.0,
			"-0.018": 0.0,
			"-0.017": 0.0,
			"-0.016": 0.0,
			"-0.015": 0.0,
			"-0.014": 0.0,
			"-0.013": 0.0,
			"-0.012": 0.0,
			"-0.011": 0.0,
			"-0.01": 0.0,
			"-0.009": 0.952870713409,
			"-0.008": 5.60745200478,
			"-0.007": 10.8821736884,
			"-0.006": 12.6441970746,
			"-0.005": 14.37791404,
			"-0.004": 13.8244740752,
			"-0.003": 10.8532759239,
			"-0.002": 8.95816428448,
			"-0.001": 16.3571156497,
			"0.0": 21.3241608493,
			"0.001": 13.1174684605,
			"0.002": 11.3387739188,
			"0.003": 13.8112221913,
			"0.004": 16.8076748847,
			"0.005": 6.847698268,
			"0.006": 4.27426125215,
			"0.007": 4.24968376438,
			"0.008": 2.28607832185,
			"0.009": 2.09092640841,
			"0.01": 2.47811094578,
			"0.011": 3.99766442211,
			"0.012": 4.0956281984,
			"0.013": 0.751992371935,
			"0.014": 0.0,
			"0.015": 0.0,
			"0.016": 0.0,
			"0.017": 0.0,
			"0.018": 0.0,
			"0.019": 0.0,
			"0.02": 0.0,
			"0.021": 0.0,
			"0.022": 0.0,
			"0.023": 0.0,
			"0.024": 0.0,
			"0.025": 0.0
		}
	}
}
