{
	 "smiles": "NN1C=NC2=C(C=NN2C2=CC=CC=C2)C1=O", 
	 "Tm": 507.15, 
	 "num_atms": 26, 
	 "gaussian": { 
		 "optdone": 1, 
		 "sigma_profile": "yes", 
		 "theory": "DFT", 
		 "functional": "B3LYP", 
		 "basiset": "6-31G**", 
		 "properties": { 
			 "R2extent": 4646.9225, 
			 "electric_dipole_moment_norm": 2.12775638878, 
			 "electric_quadrupole_moment_norm": 9.52231461463, 
			 "total_energy": -773.545044756, 
			 "HOMO_LUMO_gap": 0.17727, 
			 "cosmo_polarized_energy": -13.14, 
			 "cosmo_cavitation_energy": 30.74, 
			 "cosmo_dispersion_energy": -23.04, 
			 "cosmo_repulsion_energy": 1.74, 
			 "cosmo_total_nonelectrostatic_energy": 9.43, 
			 "SMD_solvation_energy": 5.32 
		},
		"coords": [
			{
				"x": -3.4721402286,
				"y": 2.1652022334,
				"z": 1.2339813392,
				"element": "N" 
			},
			{
				"x": -2.4171690741,
				"y": 1.2482484172,
				"z": 1.0272518236,
				"element": "N" 
			},
			{
				"x": -1.4328393625,
				"y": 1.6217031273,
				"z": 0.1545479447,
				"element": "C" 
			},
			{
				"x": -0.3899620154,
				"y": 0.9071936811,
				"z": -0.1561153765,
				"element": "N" 
			},
			{
				"x": -0.3428576201,
				"y": -0.3003973668,
				"z": 0.4798665622,
				"element": "C" 
			},
			{
				"x": -1.2891516378,
				"y": -0.7900715579,
				"z": 1.3914134767,
				"element": "C" 
			},
			{
				"x": -0.8065894494,
				"y": -2.0645430565,
				"z": 1.7697114892,
				"element": "C" 
			},
			{
				"x": 0.3281204961,
				"y": -2.3437680474,
				"z": 1.1560681806,
				"element": "N" 
			},
			{
				"x": 0.6235415577,
				"y": -1.2646482562,
				"z": 0.3590542007,
				"element": "N" 
			},
			{
				"x": 1.8153215722,
				"y": -1.2985506144,
				"z": -0.4290167545,
				"element": "C" 
			},
			{
				"x": 2.1669864764,
				"y": -0.228813206,
				"z": -1.2622414632,
				"element": "C" 
			},
			{
				"x": 3.3402643445,
				"y": -0.3071519073,
				"z": -2.0131272051,
				"element": "C" 
			},
			{
				"x": 4.1625102742,
				"y": -1.4315584865,
				"z": -1.9444454156,
				"element": "C" 
			},
			{
				"x": 3.8011106363,
				"y": -2.491236867,
				"z": -1.110251527,
				"element": "C" 
			},
			{
				"x": 2.6342415733,
				"y": -2.4332280186,
				"z": -0.3523556465,
				"element": "C" 
			},
			{
				"x": -2.4402333836,
				"y": -0.0011293717,
				"z": 1.7342025127,
				"element": "C" 
			},
			{
				"x": -3.3642761816,
				"y": -0.2476217702,
				"z": 2.4959324827,
				"element": "O" 
			},
			{
				"x": -3.5131008965,
				"y": 2.3359962014,
				"z": 2.2393692594,
				"element": "H" 
			},
			{
				"x": -4.3357379585,
				"y": 1.6637987084,
				"z": 1.0231612128,
				"element": "H" 
			},
			{
				"x": -1.5819661801,
				"y": 2.6023603439,
				"z": -0.2868756622,
				"element": "H" 
			},
			{
				"x": -1.2431416772,
				"y": -2.7747026405,
				"z": 2.4580815481,
				"element": "H" 
			},
			{
				"x": 1.532646759,
				"y": 0.6449366541,
				"z": -1.3186731912,
				"element": "H" 
			},
			{
				"x": 3.6079468155,
				"y": 0.5252682701,
				"z": -2.6574594694,
				"element": "H" 
			},
			{
				"x": 5.0735194504,
				"y": -1.4823500388,
				"z": -2.5330952907,
				"element": "H" 
			},
			{
				"x": 4.4303505069,
				"y": -3.3741095487,
				"z": -1.0452143019,
				"element": "H" 
			},
			{
				"x": 2.3465052028,
				"y": -3.2496268824,
				"z": 0.2966292713,
				"element": "H" 
			}
		],
		 "valence_orbital": [ 
			{
				"type": "occ",
				"energy": -0.28959,
				"method": "rhf"
			},
			{
				"type": "occ",
				"energy": -0.27669,
				"method": "rhf"
			},
			{
				"type": "occ",
				"energy": -0.25333,
				"method": "rhf"
			},
			{
				"type": "occ",
				"energy": -0.24432,
				"method": "rhf"
			},
			{
				"type": "occ",
				"energy": -0.22758,
				"method": "rhf"
			},
			{
				"type": "unocc",
				"energy": -0.05031,
				"method": "rhf"
			},
			{
				"type": "unocc",
				"energy": -0.02209,
				"method": "rhf"
			},
			{
				"type": "unocc",
				"energy": -0.00567,
				"method": "rhf"
			},
			{
				"type": "unocc",
				"energy": 0.00312,
				"method": "rhf"
			},
			{
				"type": "unocc",
				"energy": 0.04926,
				"method": "rhf"
			}
		],
		"cosmo_sigma_profile": { 
			"-0.025": 0.0,
			"-0.024": 0.0,
			"-0.023": 0.0,
			"-0.022": 0.0,
			"-0.021": 0.0,
			"-0.02": 0.0,
			"-0.019": 0.0,
			"-0.018": 0.0,
			"-0.017": 0.0,
			"-0.016": 0.0,
			"-0.015": 0.0,
			"-0.014": 0.0,
			"-0.013": 1.20059087556,
			"-0.012": 3.43937198152,
			"-0.011": 2.84262924812,
			"-0.01": 2.89406307696,
			"-0.009": 5.21748860194,
			"-0.008": 4.84210826747,
			"-0.007": 4.04154572369,
			"-0.006": 10.7412114035,
			"-0.005": 15.4738698082,
			"-0.004": 18.676333783,
			"-0.003": 14.0344176282,
			"-0.002": 15.381179527,
			"-0.001": 17.468490102,
			"0.0": 16.5749997576,
			"0.001": 17.2029897775,
			"0.002": 18.9197628785,
			"0.003": 15.8695079513,
			"0.004": 16.3515354232,
			"0.005": 13.8281190539,
			"0.006": 5.83709547029,
			"0.007": 4.81606423849,
			"0.008": 3.77991655529,
			"0.009": 3.9474631369,
			"0.01": 2.97190864193,
			"0.011": 2.8947252295,
			"0.012": 5.52468113617,
			"0.013": 2.78101825438,
			"0.014": 0.293662664879,
			"0.015": 0.0,
			"0.016": 0.0,
			"0.017": 0.0,
			"0.018": 0.0,
			"0.019": 0.0,
			"0.02": 0.0,
			"0.021": 0.0,
			"0.022": 0.0,
			"0.023": 0.0,
			"0.024": 0.0,
			"0.025": 0.0
		}
	}
}
