{
	 "smiles": "FC(F)(F)OC1=CC=CC(=C1)C1=NN=NN1", 
	 "Tm": 430.65, 
	 "num_atms": 21, 
	 "gaussian": { 
		 "optdone": 1, 
		 "sigma_profile": "yes", 
		 "theory": "DFT", 
		 "functional": "B3LYP", 
		 "basiset": "6-31G**", 
		 "properties": { 
			 "R2extent": 5322.5398, 
			 "electric_dipole_moment_norm": 4.08436330656, 
			 "electric_quadrupole_moment_norm": 26.1631892051, 
			 "total_energy": -901.562993608, 
			 "HOMO_LUMO_gap": 0.19371, 
			 "cosmo_polarized_energy": -17.31, 
			 "cosmo_cavitation_energy": 28.24, 
			 "cosmo_dispersion_energy": -20.58, 
			 "cosmo_repulsion_energy": 1.52, 
			 "cosmo_total_nonelectrostatic_energy": 9.17, 
			 "SMD_solvation_energy": 4.57 
		},
		"coords": [
			{
				"x": -1.1837172941,
				"y": -0.6809521225,
				"z": -4.0410948073,
				"element": "F" 
			},
			{
				"x": -2.1121371054,
				"y": -0.3317802757,
				"z": -3.1305590919,
				"element": "C" 
			},
			{
				"x": -3.3073656327,
				"y": -0.7115079294,
				"z": -3.573637419,
				"element": "F" 
			},
			{
				"x": -2.0945009422,
				"y": 1.0111438965,
				"z": -3.0345252486,
				"element": "F" 
			},
			{
				"x": -1.9157360569,
				"y": -0.939424777,
				"z": -1.9314507623,
				"element": "O" 
			},
			{
				"x": -0.7439383475,
				"y": -0.7431029199,
				"z": -1.2023802643,
				"element": "C" 
			},
			{
				"x": 0.3203231406,
				"y": 0.0665331498,
				"z": -1.5989148263,
				"element": "C" 
			},
			{
				"x": 1.431997693,
				"y": 0.1632308156,
				"z": -0.7570805801,
				"element": "C" 
			},
			{
				"x": 1.4887140217,
				"y": -0.5254689529,
				"z": 0.4490968139,
				"element": "C" 
			},
			{
				"x": 0.4099301369,
				"y": -1.3369809154,
				"z": 0.8357130611,
				"element": "C" 
			},
			{
				"x": -0.7090246845,
				"y": -1.4423422703,
				"z": 0.0018033578,
				"element": "C" 
			},
			{
				"x": 0.4888599757,
				"y": -2.0543068466,
				"z": 2.109705516,
				"element": "C" 
			},
			{
				"x": 1.503623116,
				"y": -2.0164015805,
				"z": 2.9621841941,
				"element": "N" 
			},
			{
				"x": 1.1668188035,
				"y": -2.8187348865,
				"z": 4.0024950649,
				"element": "N" 
			},
			{
				"x": -0.00201329,
				"y": -3.3447614281,
				"z": 3.8308654192,
				"element": "N" 
			},
			{
				"x": -0.4468123209,
				"y": -2.8756470694,
				"z": 2.64236085,
				"element": "N" 
			},
			{
				"x": 0.2961951318,
				"y": 0.6107530353,
				"z": -2.5331816028,
				"element": "H" 
			},
			{
				"x": 2.2650215619,
				"y": 0.790884933,
				"z": -1.0573086895,
				"element": "H" 
			},
			{
				"x": 2.3506986836,
				"y": -0.4503162013,
				"z": 1.1014901301,
				"element": "H" 
			},
			{
				"x": -1.5672725037,
				"y": -2.0557331799,
				"z": 0.2551943339,
				"element": "H" 
			},
			{
				"x": -1.3528640868,
				"y": -3.1591844747,
				"z": 2.3002245512,
				"element": "H" 
			}
		],
		 "valence_orbital": [ 
			{
				"type": "occ",
				"energy": -0.32639,
				"method": "rhf"
			},
			{
				"type": "occ",
				"energy": -0.30472,
				"method": "rhf"
			},
			{
				"type": "occ",
				"energy": -0.29009,
				"method": "rhf"
			},
			{
				"type": "occ",
				"energy": -0.27588,
				"method": "rhf"
			},
			{
				"type": "occ",
				"energy": -0.2612,
				"method": "rhf"
			},
			{
				"type": "unocc",
				"energy": -0.06749,
				"method": "rhf"
			},
			{
				"type": "unocc",
				"energy": -0.03002,
				"method": "rhf"
			},
			{
				"type": "unocc",
				"energy": -0.00666,
				"method": "rhf"
			},
			{
				"type": "unocc",
				"energy": 0.03671,
				"method": "rhf"
			},
			{
				"type": "unocc",
				"energy": 0.04442,
				"method": "rhf"
			}
		],
		"cosmo_sigma_profile": { 
			"-0.025": 0.0,
			"-0.024": 0.0,
			"-0.023": 0.0,
			"-0.022": 0.0,
			"-0.021": 0.0,
			"-0.02": 0.182825066001,
			"-0.019": 1.51899681934,
			"-0.018": 1.76698109048,
			"-0.017": 1.47605954173,
			"-0.016": 1.21942369042,
			"-0.015": 1.69096974527,
			"-0.014": 1.22903107811,
			"-0.013": 1.07526406858,
			"-0.012": 1.16204239175,
			"-0.011": 1.29153101028,
			"-0.01": 1.47266364174,
			"-0.009": 1.83127531364,
			"-0.008": 2.55063605996,
			"-0.007": 5.60303343259,
			"-0.006": 7.77574254512,
			"-0.005": 7.35527805728,
			"-0.004": 8.71689281175,
			"-0.003": 9.88514942354,
			"-0.002": 12.0094047721,
			"-0.001": 17.4191276791,
			"0.0": 23.7999382614,
			"0.001": 36.4386598051,
			"0.002": 32.3412011412,
			"0.003": 8.0556481601,
			"0.004": 3.69236382203,
			"0.005": 4.99668969319,
			"0.006": 2.88403266892,
			"0.007": 3.94521980449,
			"0.008": 4.85315415345,
			"0.009": 4.51127739993,
			"0.01": 5.11710825617,
			"0.011": 4.16098050289,
			"0.012": 3.52929939061,
			"0.013": 2.08215655364,
			"0.014": 0.902129176037,
			"0.015": 0.0,
			"0.016": 0.0,
			"0.017": 0.0,
			"0.018": 0.0,
			"0.019": 0.0,
			"0.02": 0.0,
			"0.021": 0.0,
			"0.022": 0.0,
			"0.023": 0.0,
			"0.024": 0.0,
			"0.025": 0.0
		}
	}
}
