{
	 "smiles": "CCCCCC#CC", 
	 "Tm": 211.55, 
	 "num_atms": 22, 
	 "gaussian": { 
		 "optdone": 1, 
		 "sigma_profile": "yes", 
		 "theory": "DFT", 
		 "functional": "B3LYP", 
		 "basiset": "6-31G**", 
		 "properties": { 
			 "R2extent": 2024.3064, 
			 "electric_dipole_moment_norm": 0.143077985728, 
			 "electric_quadrupole_moment_norm": 4.38881186541, 
			 "total_energy": -313.245667614, 
			 "HOMO_LUMO_gap": 0.29984, 
			 "cosmo_polarized_energy": -3.26, 
			 "cosmo_cavitation_energy": 24.87, 
			 "cosmo_dispersion_energy": -17.56, 
			 "cosmo_repulsion_energy": 1.54, 
			 "cosmo_total_nonelectrostatic_energy": 8.85, 
			 "SMD_solvation_energy": 4.51 
		},
		"coords": [
			{
				"x": -2.5753943042,
				"y": -2.7144759922,
				"z": 0.6343513152,
				"element": "C" 
			},
			{
				"x": -1.1970158387,
				"y": -2.5520418752,
				"z": 1.2869263824,
				"element": "C" 
			},
			{
				"x": -0.2340898241,
				"y": -1.6293434485,
				"z": 0.5215876576,
				"element": "C" 
			},
			{
				"x": 0.203866496,
				"y": -2.1639650531,
				"z": -0.8473117823,
				"element": "C" 
			},
			{
				"x": 1.2058859253,
				"y": -1.2401992529,
				"z": -1.5760326493,
				"element": "C" 
			},
			{
				"x": 0.6566926799,
				"y": 0.0739318183,
				"z": -1.9212945309,
				"element": "C" 
			},
			{
				"x": 0.1895960159,
				"y": 1.1531740702,
				"z": -2.2068381163,
				"element": "C" 
			},
			{
				"x": -0.3657905063,
				"y": 2.4583225888,
				"z": -2.5562036612,
				"element": "C" 
			},
			{
				"x": -3.2323220161,
				"y": -3.3363695574,
				"z": 1.2515430901,
				"element": "H" 
			},
			{
				"x": -3.0650462643,
				"y": -1.7426056113,
				"z": 0.5023326086,
				"element": "H" 
			},
			{
				"x": -2.5097209807,
				"y": -3.1869484978,
				"z": -0.35112533,
				"element": "H" 
			},
			{
				"x": -0.7322017192,
				"y": -3.5402186777,
				"z": 1.4105176784,
				"element": "H" 
			},
			{
				"x": -1.3298018672,
				"y": -2.1528824295,
				"z": 2.3006456293,
				"element": "H" 
			},
			{
				"x": -0.6982253542,
				"y": -0.6434684584,
				"z": 0.3886202188,
				"element": "H" 
			},
			{
				"x": 0.6619632156,
				"y": -1.4644937949,
				"z": 1.1361095361,
				"element": "H" 
			},
			{
				"x": -0.6674011466,
				"y": -2.3127752973,
				"z": -1.4951661127,
				"element": "H" 
			},
			{
				"x": 0.6760147412,
				"y": -3.147764544,
				"z": -0.7224375472,
				"element": "H" 
			},
			{
				"x": 2.097644097,
				"y": -1.1083797475,
				"z": -0.9468336114,
				"element": "H" 
			},
			{
				"x": 1.5533372881,
				"y": -1.7376193983,
				"z": -2.4913706571,
				"element": "H" 
			},
			{
				"x": 0.0210383298,
				"y": 2.8110797893,
				"z": -3.5192507432,
				"element": "H" 
			},
			{
				"x": -0.1157464722,
				"y": 3.2142473257,
				"z": -1.8028482355,
				"element": "H" 
			},
			{
				"x": -1.458382495,
				"y": 2.4188960436,
				"z": -2.6345211395,
				"element": "H" 
			}
		],
		 "valence_orbital": [ 
			{
				"type": "occ",
				"energy": -0.32076,
				"method": "rhf"
			},
			{
				"type": "occ",
				"energy": -0.31929,
				"method": "rhf"
			},
			{
				"type": "occ",
				"energy": -0.31344,
				"method": "rhf"
			},
			{
				"type": "occ",
				"energy": -0.24012,
				"method": "rhf"
			},
			{
				"type": "occ",
				"energy": -0.23883,
				"method": "rhf"
			},
			{
				"type": "unocc",
				"energy": 0.06101,
				"method": "rhf"
			},
			{
				"type": "unocc",
				"energy": 0.06807,
				"method": "rhf"
			},
			{
				"type": "unocc",
				"energy": 0.10202,
				"method": "rhf"
			},
			{
				"type": "unocc",
				"energy": 0.11618,
				"method": "rhf"
			},
			{
				"type": "unocc",
				"energy": 0.11888,
				"method": "rhf"
			}
		],
		"cosmo_sigma_profile": { 
			"-0.025": 0.0,
			"-0.024": 0.0,
			"-0.023": 0.0,
			"-0.022": 0.0,
			"-0.021": 0.0,
			"-0.02": 0.0,
			"-0.019": 0.0,
			"-0.018": 0.0,
			"-0.017": 0.0,
			"-0.016": 0.0,
			"-0.015": 0.0,
			"-0.014": 0.0,
			"-0.013": 0.0,
			"-0.012": 0.0,
			"-0.011": 0.0,
			"-0.01": 0.0,
			"-0.009": 0.0,
			"-0.008": 0.0,
			"-0.007": 0.0,
			"-0.006": 0.988207617382,
			"-0.005": 6.58797859636,
			"-0.004": 8.3788030982,
			"-0.003": 16.4920649026,
			"-0.002": 30.602094109,
			"-0.001": 34.478058003,
			"0.0": 28.9241602367,
			"0.001": 24.5671482835,
			"0.002": 13.7028061878,
			"0.003": 4.72598026433,
			"0.004": 3.85482067934,
			"0.005": 4.89580220437,
			"0.006": 4.28646675804,
			"0.007": 4.96763711375,
			"0.008": 6.22833907861,
			"0.009": 0.0782924349912,
			"0.01": 0.0,
			"0.011": 0.0,
			"0.012": 0.0,
			"0.013": 0.0,
			"0.014": 0.0,
			"0.015": 0.0,
			"0.016": 0.0,
			"0.017": 0.0,
			"0.018": 0.0,
			"0.019": 0.0,
			"0.02": 0.0,
			"0.021": 0.0,
			"0.022": 0.0,
			"0.023": 0.0,
			"0.024": 0.0,
			"0.025": 0.0
		}
	}
}
