{
	 "smiles": "CC1=NN=C(N1)C1=CC(=CC=C1)C#N", 
	 "Tm": 447.15, 
	 "num_atms": 22, 
	 "gaussian": { 
		 "optdone": 1, 
		 "sigma_profile": "yes", 
		 "theory": "DFT", 
		 "functional": "B3LYP", 
		 "basiset": "6-31G**", 
		 "properties": { 
			 "R2extent": 3965.6032, 
			 "electric_dipole_moment_norm": 8.92495772595, 
			 "electric_quadrupole_moment_norm": 13.6276623608, 
			 "total_energy": -604.867427495, 
			 "HOMO_LUMO_gap": 0.17767, 
			 "cosmo_polarized_energy": -25.28, 
			 "cosmo_cavitation_energy": 28.22, 
			 "cosmo_dispersion_energy": -20.23, 
			 "cosmo_repulsion_energy": 1.58, 
			 "cosmo_total_nonelectrostatic_energy": 9.57, 
			 "SMD_solvation_energy": 4.23 
		},
		"coords": [
			{
				"x": -2.5139250849,
				"y": 2.2598577936,
				"z": 1.1919073897,
				"element": "C" 
			},
			{
				"x": -1.5182535112,
				"y": 1.4570762814,
				"z": 0.4268228162,
				"element": "C" 
			},
			{
				"x": -1.2248525026,
				"y": 1.6015001452,
				"z": -0.8475588773,
				"element": "N" 
			},
			{
				"x": -0.2630406255,
				"y": 0.6732340425,
				"z": -1.1660476746,
				"element": "N" 
			},
			{
				"x": 0.0127873293,
				"y": -0.0206511921,
				"z": -0.0799994251,
				"element": "C" 
			},
			{
				"x": -0.7617190158,
				"y": 0.4429525905,
				"z": 0.958122078,
				"element": "N" 
			},
			{
				"x": 0.9888507169,
				"y": -1.1093268001,
				"z": 0.0001144043,
				"element": "C" 
			},
			{
				"x": 1.6968646549,
				"y": -1.4564604656,
				"z": -1.1603347434,
				"element": "C" 
			},
			{
				"x": 2.6379432138,
				"y": -2.4912532951,
				"z": -1.1242169285,
				"element": "C" 
			},
			{
				"x": 2.8833385269,
				"y": -3.1917746282,
				"z": 0.0709924441,
				"element": "C" 
			},
			{
				"x": 2.1794613839,
				"y": -2.8448263942,
				"z": 1.2196122445,
				"element": "C" 
			},
			{
				"x": 1.2403695216,
				"y": -1.8137432954,
				"z": 1.1877327427,
				"element": "C" 
			},
			{
				"x": 3.360244801,
				"y": -2.8432297487,
				"z": -2.3142189095,
				"element": "C" 
			},
			{
				"x": 3.9515140808,
				"y": -3.1375629041,
				"z": -3.2713535161,
				"element": "N" 
			},
			{
				"x": -2.9592826962,
				"y": 2.9893957736,
				"z": 0.5141334645,
				"element": "H" 
			},
			{
				"x": -3.3133778062,
				"y": 1.6319674867,
				"z": 1.6010471463,
				"element": "H" 
			},
			{
				"x": -2.0475780141,
				"y": 2.7982293125,
				"z": 2.0246401884,
				"element": "H" 
			},
			{
				"x": -0.7789857234,
				"y": 0.1154129544,
				"z": 1.9114914306,
				"element": "H" 
			},
			{
				"x": 1.5031297162,
				"y": -0.9129132681,
				"z": -2.0777911043,
				"element": "H" 
			},
			{
				"x": 3.6152704647,
				"y": -3.991800533,
				"z": 0.0859316138,
				"element": "H" 
			},
			{
				"x": 2.3615843189,
				"y": -3.3792591412,
				"z": 2.1466425405,
				"element": "H" 
			},
			{
				"x": 0.706256251,
				"y": -1.5655247145,
				"z": 2.1007306753,
				"element": "H" 
			}
		],
		 "valence_orbital": [ 
			{
				"type": "occ",
				"energy": -0.31338,
				"method": "rhf"
			},
			{
				"type": "occ",
				"energy": -0.30512,
				"method": "rhf"
			},
			{
				"type": "occ",
				"energy": -0.27464,
				"method": "rhf"
			},
			{
				"type": "occ",
				"energy": -0.25967,
				"method": "rhf"
			},
			{
				"type": "occ",
				"energy": -0.24129,
				"method": "rhf"
			},
			{
				"type": "unocc",
				"energy": -0.06362,
				"method": "rhf"
			},
			{
				"type": "unocc",
				"energy": -0.04734,
				"method": "rhf"
			},
			{
				"type": "unocc",
				"energy": 0.01888,
				"method": "rhf"
			},
			{
				"type": "unocc",
				"energy": 0.03547,
				"method": "rhf"
			},
			{
				"type": "unocc",
				"energy": 0.03766,
				"method": "rhf"
			}
		],
		"cosmo_sigma_profile": { 
			"-0.025": 0.0,
			"-0.024": 0.0,
			"-0.023": 0.0,
			"-0.022": 0.0,
			"-0.021": 0.0,
			"-0.02": 0.0,
			"-0.019": 0.0,
			"-0.018": 0.697395897538,
			"-0.017": 1.44181144338,
			"-0.016": 1.85372467693,
			"-0.015": 0.556745486394,
			"-0.014": 1.9632376304,
			"-0.013": 2.02445645655,
			"-0.012": 1.16840083193,
			"-0.011": 1.58103474392,
			"-0.01": 1.23670385978,
			"-0.009": 2.25915447641,
			"-0.008": 4.87903001262,
			"-0.007": 10.2544767336,
			"-0.006": 14.6658737288,
			"-0.005": 12.9094648719,
			"-0.004": 11.286671697,
			"-0.003": 13.9355817981,
			"-0.002": 17.1758156159,
			"-0.001": 20.2999815906,
			"0.0": 15.0344761505,
			"0.001": 19.5860876865,
			"0.002": 11.5566823497,
			"0.003": 5.98499946007,
			"0.004": 3.49298431422,
			"0.005": 5.18700902624,
			"0.006": 4.0401077345,
			"0.007": 4.84815101829,
			"0.008": 5.59433158747,
			"0.009": 5.08140679285,
			"0.01": 4.87653945077,
			"0.011": 5.03034796486,
			"0.012": 4.96117458601,
			"0.013": 4.24596462587,
			"0.014": 3.02039269221,
			"0.015": 2.84739479494,
			"0.016": 1.47333656857,
			"0.017": 0.895602497943,
			"0.018": 0.12004020059,
			"0.019": 0.0,
			"0.02": 0.0,
			"0.021": 0.0,
			"0.022": 0.0,
			"0.023": 0.0,
			"0.024": 0.0,
			"0.025": 0.0
		}
	}
}
