{
	 "smiles": "CN1N=C(CO)C=C1C1=CC=CS1", 
	 "Tm": 331.15, 
	 "num_atms": 23, 
	 "gaussian": { 
		 "optdone": 1, 
		 "sigma_profile": "yes", 
		 "theory": "DFT", 
		 "functional": "B3LYP", 
		 "basiset": "6-31G**", 
		 "properties": { 
			 "R2extent": 3345.2019, 
			 "electric_dipole_moment_norm": 4.43645630092, 
			 "electric_quadrupole_moment_norm": 13.8688246953, 
			 "total_energy": -931.855358944, 
			 "HOMO_LUMO_gap": 0.18264, 
			 "cosmo_polarized_energy": -9.86, 
			 "cosmo_cavitation_energy": 28.3, 
			 "cosmo_dispersion_energy": -21.37, 
			 "cosmo_repulsion_energy": 1.66, 
			 "cosmo_total_nonelectrostatic_energy": 8.6, 
			 "SMD_solvation_energy": 4.04 
		},
		"coords": [
			{
				"x": -1.5957572385,
				"y": -1.6915058813,
				"z": 0.194333066,
				"element": "C" 
			},
			{
				"x": -1.0913116419,
				"y": -0.6196020174,
				"z": -0.6468532898,
				"element": "N" 
			},
			{
				"x": -1.7000140561,
				"y": -0.3811197618,
				"z": -1.8301699932,
				"element": "N" 
			},
			{
				"x": -1.0626697389,
				"y": 0.6596128139,
				"z": -2.3653320167,
				"element": "C" 
			},
			{
				"x": -1.4995890698,
				"y": 1.1479511428,
				"z": -3.7225673987,
				"element": "C" 
			},
			{
				"x": -2.724360801,
				"y": 0.5750312456,
				"z": -4.1315201182,
				"element": "O" 
			},
			{
				"x": -0.0213781458,
				"y": 1.100160499,
				"z": -1.526305884,
				"element": "C" 
			},
			{
				"x": -0.0603811114,
				"y": 0.2556746915,
				"z": -0.4201224932,
				"element": "C" 
			},
			{
				"x": 0.7820186737,
				"y": 0.284736266,
				"z": 0.7688145099,
				"element": "C" 
			},
			{
				"x": 1.2699446403,
				"y": 1.411472873,
				"z": 1.3923089959,
				"element": "C" 
			},
			{
				"x": 2.1417782848,
				"y": 1.1284510083,
				"z": 2.4822069859,
				"element": "C" 
			},
			{
				"x": 2.3181677004,
				"y": -0.2126146993,
				"z": 2.686082169,
				"element": "C" 
			},
			{
				"x": 1.4275765264,
				"y": -1.1555221402,
				"z": 1.5373411356,
				"element": "S" 
			},
			{
				"x": -1.5532459485,
				"y": -1.3960765201,
				"z": 1.2442031212,
				"element": "H" 
			},
			{
				"x": -1.0226258262,
				"y": -2.6148274232,
				"z": 0.0586227382,
				"element": "H" 
			},
			{
				"x": -2.6312687111,
				"y": -1.8699946504,
				"z": -0.0946413037,
				"element": "H" 
			},
			{
				"x": -1.6107288173,
				"y": 2.2410776698,
				"z": -3.704060488,
				"element": "H" 
			},
			{
				"x": -0.7035980823,
				"y": 0.9277585079,
				"z": -4.4549891748,
				"element": "H" 
			},
			{
				"x": -2.8655436444,
				"y": -0.1993022687,
				"z": -3.5658856935,
				"element": "H" 
			},
			{
				"x": 0.6842222387,
				"y": 1.9003360351,
				"z": -1.6934888973,
				"element": "H" 
			},
			{
				"x": 0.9922617463,
				"y": 2.4117456296,
				"z": 1.0808215185,
				"element": "H" 
			},
			{
				"x": 2.607514135,
				"y": 1.8911535477,
				"z": 3.0956291459,
				"element": "H" 
			},
			{
				"x": 2.9065888876,
				"y": -0.7068965674,
				"z": 3.446573365,
				"element": "H" 
			}
		],
		 "valence_orbital": [ 
			{
				"type": "occ",
				"energy": -0.27642,
				"method": "rhf"
			},
			{
				"type": "occ",
				"energy": -0.26253,
				"method": "rhf"
			},
			{
				"type": "occ",
				"energy": -0.26118,
				"method": "rhf"
			},
			{
				"type": "occ",
				"energy": -0.23731,
				"method": "rhf"
			},
			{
				"type": "occ",
				"energy": -0.22149,
				"method": "rhf"
			},
			{
				"type": "unocc",
				"energy": -0.03885,
				"method": "rhf"
			},
			{
				"type": "unocc",
				"energy": 0.01339,
				"method": "rhf"
			},
			{
				"type": "unocc",
				"energy": 0.02608,
				"method": "rhf"
			},
			{
				"type": "unocc",
				"energy": 0.05335,
				"method": "rhf"
			},
			{
				"type": "unocc",
				"energy": 0.0623,
				"method": "rhf"
			}
		],
		"cosmo_sigma_profile": { 
			"-0.025": 0.0,
			"-0.024": 0.0,
			"-0.023": 0.0,
			"-0.022": 0.0,
			"-0.021": 0.0,
			"-0.02": 0.0,
			"-0.019": 0.0,
			"-0.018": 0.0,
			"-0.017": 0.0,
			"-0.016": 0.0,
			"-0.015": 0.0,
			"-0.014": 0.0,
			"-0.013": 0.0,
			"-0.012": 0.0,
			"-0.011": 0.0,
			"-0.01": 0.106733666472,
			"-0.009": 1.62048538732,
			"-0.008": 2.67823557811,
			"-0.007": 5.9612537789,
			"-0.006": 12.5793718119,
			"-0.005": 17.4965710404,
			"-0.004": 22.5813649575,
			"-0.003": 21.8419103502,
			"-0.002": 16.1745765388,
			"-0.001": 13.3874983946,
			"0.0": 12.835455752,
			"0.001": 13.7086728895,
			"0.002": 15.8210961293,
			"0.003": 18.4462472045,
			"0.004": 19.0540887404,
			"0.005": 11.9081185308,
			"0.006": 3.58433861726,
			"0.007": 3.27088294643,
			"0.008": 2.94312166083,
			"0.009": 2.46617034072,
			"0.01": 1.26452576191,
			"0.011": 1.36514986046,
			"0.012": 1.41548531003,
			"0.013": 1.89503363546,
			"0.014": 2.44557579353,
			"0.015": 0.760483986804,
			"0.016": 0.0,
			"0.017": 0.0,
			"0.018": 0.0,
			"0.019": 0.0,
			"0.02": 0.0,
			"0.021": 0.0,
			"0.022": 0.0,
			"0.023": 0.0,
			"0.024": 0.0,
			"0.025": 0.0
		}
	}
}
