{
	 "smiles": "COC1=CC(=CC=C1)C(=O)C1=CN=CC=C1", 
	 "Tm": 346.15, 
	 "num_atms": 27, 
	 "gaussian": { 
		 "optdone": 1, 
		 "sigma_profile": "yes", 
		 "theory": "DFT", 
		 "functional": "B3LYP", 
		 "basiset": "6-31G**", 
		 "properties": { 
			 "R2extent": 4102.7006, 
			 "electric_dipole_moment_norm": 2.24387954668, 
			 "electric_quadrupole_moment_norm": 12.9126402707, 
			 "total_energy": -707.192637409, 
			 "HOMO_LUMO_gap": 0.15731, 
			 "cosmo_polarized_energy": -11.59, 
			 "cosmo_cavitation_energy": 31.6, 
			 "cosmo_dispersion_energy": -22.56, 
			 "cosmo_repulsion_energy": 1.74, 
			 "cosmo_total_nonelectrostatic_energy": 10.77, 
			 "SMD_solvation_energy": 5.12 
		},
		"coords": [
			{
				"x": 2.602753328,
				"y": 1.1678583992,
				"z": -2.5584834834,
				"element": "C" 
			},
			{
				"x": 3.2448810913,
				"y": 0.0052730792,
				"z": -2.0563492064,
				"element": "O" 
			},
			{
				"x": 2.531279965,
				"y": -0.834491799,
				"z": -1.2537850322,
				"element": "C" 
			},
			{
				"x": 1.1935514288,
				"y": -0.640911723,
				"z": -0.8938927477,
				"element": "C" 
			},
			{
				"x": 0.5481729699,
				"y": -1.5807842622,
				"z": -0.0698152507,
				"element": "C" 
			},
			{
				"x": 1.2399592201,
				"y": -2.7121628566,
				"z": 0.379331732,
				"element": "C" 
			},
			{
				"x": 2.5790062005,
				"y": -2.8863969142,
				"z": 0.0302373585,
				"element": "C" 
			},
			{
				"x": 3.2255302219,
				"y": -1.9581524335,
				"z": -0.7798715927,
				"element": "C" 
			},
			{
				"x": -0.899163083,
				"y": -1.4593426033,
				"z": 0.2974330162,
				"element": "C" 
			},
			{
				"x": -1.5605582148,
				"y": -2.4613609525,
				"z": 0.5466813299,
				"element": "O" 
			},
			{
				"x": -1.5628284855,
				"y": -0.1137263186,
				"z": 0.3707805009,
				"element": "C" 
			},
			{
				"x": -0.898776101,
				"y": 1.068619063,
				"z": 0.7315206003,
				"element": "C" 
			},
			{
				"x": -1.5035139011,
				"y": 2.2559539888,
				"z": 0.8616914493,
				"element": "N" 
			},
			{
				"x": -2.8201898518,
				"y": 2.3031294506,
				"z": 0.6278280719,
				"element": "C" 
			},
			{
				"x": -3.5871510167,
				"y": 1.1852049505,
				"z": 0.2854231142,
				"element": "C" 
			},
			{
				"x": -2.9487277351,
				"y": -0.0428034758,
				"z": 0.1672545885,
				"element": "C" 
			},
			{
				"x": 3.3516609113,
				"y": 1.6907398907,
				"z": -3.1549056198,
				"element": "H" 
			},
			{
				"x": 1.7470037199,
				"y": 0.9140971613,
				"z": -3.1972380695,
				"element": "H" 
			},
			{
				"x": 2.2634043968,
				"y": 1.8255665752,
				"z": -1.7480759824,
				"element": "H" 
			},
			{
				"x": 0.6414951347,
				"y": 0.2109454595,
				"z": -1.2685928275,
				"element": "H" 
			},
			{
				"x": 0.7160332678,
				"y": -3.4352188687,
				"z": 0.9938603435,
				"element": "H" 
			},
			{
				"x": 3.1245522031,
				"y": -3.7546468425,
				"z": 0.3879634717,
				"element": "H" 
			},
			{
				"x": 4.2649542042,
				"y": -2.0807637966,
				"z": -1.0664607459,
				"element": "H" 
			},
			{
				"x": 0.1662353289,
				"y": 1.0529402008,
				"z": 0.949728434,
				"element": "H" 
			},
			{
				"x": -3.2880123241,
				"y": 3.2815361841,
				"z": 0.7242953345,
				"element": "H" 
			},
			{
				"x": -4.6559265142,
				"y": 1.2828296009,
				"z": 0.1229258459,
				"element": "H" 
			},
			{
				"x": -3.4900263647,
				"y": -0.9518311572,
				"z": -0.0744846332,
				"element": "H" 
			}
		],
		 "valence_orbital": [ 
			{
				"type": "occ",
				"energy": -0.27526,
				"method": "rhf"
			},
			{
				"type": "occ",
				"energy": -0.26925,
				"method": "rhf"
			},
			{
				"type": "occ",
				"energy": -0.26109,
				"method": "rhf"
			},
			{
				"type": "occ",
				"energy": -0.25056,
				"method": "rhf"
			},
			{
				"type": "occ",
				"energy": -0.22859,
				"method": "rhf"
			},
			{
				"type": "unocc",
				"energy": -0.07128,
				"method": "rhf"
			},
			{
				"type": "unocc",
				"energy": -0.03049,
				"method": "rhf"
			},
			{
				"type": "unocc",
				"energy": -0.02233,
				"method": "rhf"
			},
			{
				"type": "unocc",
				"energy": 0.00169,
				"method": "rhf"
			},
			{
				"type": "unocc",
				"energy": 0.04987,
				"method": "rhf"
			}
		],
		"cosmo_sigma_profile": { 
			"-0.025": 0.0,
			"-0.024": 0.0,
			"-0.023": 0.0,
			"-0.022": 0.0,
			"-0.021": 0.0,
			"-0.02": 0.0,
			"-0.019": 0.0,
			"-0.018": 0.0,
			"-0.017": 0.0,
			"-0.016": 0.0,
			"-0.015": 0.0,
			"-0.014": 0.0,
			"-0.013": 0.0,
			"-0.012": 0.0,
			"-0.011": 0.0,
			"-0.01": 0.0,
			"-0.009": 0.0,
			"-0.008": 0.67633593523,
			"-0.007": 8.18525507464,
			"-0.006": 19.6346775564,
			"-0.005": 24.2385998319,
			"-0.004": 23.7985309686,
			"-0.003": 21.7820601105,
			"-0.002": 15.4485741272,
			"-0.001": 14.9877230858,
			"0.0": 16.6127130258,
			"0.001": 20.9487015778,
			"0.002": 18.9068822022,
			"0.003": 15.3793282171,
			"0.004": 14.0027948105,
			"0.005": 5.86159527744,
			"0.006": 4.40320372232,
			"0.007": 3.90953295201,
			"0.008": 4.3936977302,
			"0.009": 4.42762296447,
			"0.01": 4.67997514833,
			"0.011": 3.95543699597,
			"0.012": 3.86745920103,
			"0.013": 1.26184084143,
			"0.014": 0.899394333213,
			"0.015": 0.80225151992,
			"0.016": 0.574914537592,
			"0.017": 0.0627631833616,
			"0.018": 0.0,
			"0.019": 0.0,
			"0.02": 0.0,
			"0.021": 0.0,
			"0.022": 0.0,
			"0.023": 0.0,
			"0.024": 0.0,
			"0.025": 0.0
		}
	}
}
