{
	 "smiles": "FC1=C(F)C(F)=C(C#N)C(F)=C1F", 
	 "Tm": 275.35, 
	 "num_atms": 13, 
	 "gaussian": { 
		 "optdone": 1, 
		 "sigma_profile": "yes", 
		 "theory": "DFT", 
		 "functional": "B3LYP", 
		 "basiset": "6-31G**", 
		 "properties": { 
			 "R2extent": 2203.0341, 
			 "electric_dipole_moment_norm": 2.90394095842, 
			 "electric_quadrupole_moment_norm": 13.238483511, 
			 "total_energy": -820.603930644, 
			 "HOMO_LUMO_gap": 0.20283, 
			 "cosmo_polarized_energy": -6.74, 
			 "cosmo_cavitation_energy": 22.39, 
			 "cosmo_dispersion_energy": -15.08, 
			 "cosmo_repulsion_energy": 1.09, 
			 "cosmo_total_nonelectrostatic_energy": 8.4, 
			 "SMD_solvation_energy": 7.73 
		},
		"coords": [
			{
				"x": -2.2441895787,
				"y": 0.9325141209,
				"z": -1.3472164198,
				"element": "F" 
			},
			{
				"x": -1.1030860884,
				"y": 0.4944888382,
				"z": -0.8226191986,
				"element": "C" 
			},
			{
				"x": -1.0015090898,
				"y": 0.3058632789,
				"z": 0.5560902934,
				"element": "C" 
			},
			{
				"x": -2.0473393108,
				"y": 0.5649989427,
				"z": 1.3422904661,
				"element": "F" 
			},
			{
				"x": 0.1934572479,
				"y": -0.1522642597,
				"z": 1.1000008456,
				"element": "C" 
			},
			{
				"x": 0.2802304438,
				"y": -0.3290103258,
				"z": 2.4167946118,
				"element": "F" 
			},
			{
				"x": 1.3005407683,
				"y": -0.4282601769,
				"z": 0.2824313722,
				"element": "C" 
			},
			{
				"x": 2.5239843787,
				"y": -0.8980396237,
				"z": 0.8448725978,
				"element": "C" 
			},
			{
				"x": 3.5209505929,
				"y": -1.2808758861,
				"z": 1.3031897065,
				"element": "N" 
			},
			{
				"x": 1.1753624042,
				"y": -0.2311409634,
				"z": -1.1016603606,
				"element": "C" 
			},
			{
				"x": 2.2073059749,
				"y": -0.4838029193,
				"z": -1.9041188301,
				"element": "F" 
			},
			{
				"x": -0.0155618714,
				"y": 0.2266611602,
				"z": -1.65464528,
				"element": "C" 
			},
			{
				"x": -0.1235458716,
				"y": 0.4104678139,
				"z": -2.9713098043,
				"element": "F" 
			}
		],
		 "valence_orbital": [ 
			{
				"type": "occ",
				"energy": -0.3814,
				"method": "rhf"
			},
			{
				"type": "occ",
				"energy": -0.35824,
				"method": "rhf"
			},
			{
				"type": "occ",
				"energy": -0.35745,
				"method": "rhf"
			},
			{
				"type": "occ",
				"energy": -0.28878,
				"method": "rhf"
			},
			{
				"type": "occ",
				"energy": -0.28339,
				"method": "rhf"
			},
			{
				"type": "unocc",
				"energy": -0.08056,
				"method": "rhf"
			},
			{
				"type": "unocc",
				"energy": -0.04286,
				"method": "rhf"
			},
			{
				"type": "unocc",
				"energy": -0.01002,
				"method": "rhf"
			},
			{
				"type": "unocc",
				"energy": 0.0019,
				"method": "rhf"
			},
			{
				"type": "unocc",
				"energy": 0.05387,
				"method": "rhf"
			}
		],
		"cosmo_sigma_profile": { 
			"-0.025": 0.0,
			"-0.024": 0.0,
			"-0.023": 0.0,
			"-0.022": 0.0,
			"-0.021": 0.0,
			"-0.02": 0.0,
			"-0.019": 0.0,
			"-0.018": 0.0,
			"-0.017": 0.0,
			"-0.016": 0.0,
			"-0.015": 0.0,
			"-0.014": 0.0,
			"-0.013": 0.0,
			"-0.012": 0.0,
			"-0.011": 0.0,
			"-0.01": 0.0,
			"-0.009": 0.0500893500656,
			"-0.008": 1.01000711155,
			"-0.007": 2.12150466015,
			"-0.006": 11.1306874312,
			"-0.005": 22.1596351482,
			"-0.004": 10.6597908437,
			"-0.003": 8.56635544003,
			"-0.002": 7.9405262514,
			"-0.001": 9.45014352202,
			"0.0": 11.8461429699,
			"0.001": 35.1360333824,
			"0.002": 38.6134913838,
			"0.003": 2.16273267348,
			"0.004": 3.22796291766,
			"0.005": 2.21180197508,
			"0.006": 3.04969704684,
			"0.007": 3.45813407603,
			"0.008": 2.80572474858,
			"0.009": 2.99173683559,
			"0.01": 2.40906926203,
			"0.011": 2.25045321825,
			"0.012": 0.802551230976,
			"0.013": 0.0,
			"0.014": 0.0,
			"0.015": 0.0,
			"0.016": 0.0,
			"0.017": 0.0,
			"0.018": 0.0,
			"0.019": 0.0,
			"0.02": 0.0,
			"0.021": 0.0,
			"0.022": 0.0,
			"0.023": 0.0,
			"0.024": 0.0,
			"0.025": 0.0
		}
	}
}
