{
	 "smiles": "CCC(Cl)C(N)=O", 
	 "Tm": 348.15, 
	 "num_atms": 15, 
	 "gaussian": { 
		 "optdone": 1, 
		 "sigma_profile": "yes", 
		 "theory": "DFT", 
		 "functional": "B3LYP", 
		 "basiset": "6-31G**", 
		 "properties": { 
			 "R2extent": 1621.6526, 
			 "electric_dipole_moment_norm": 1.86261365559, 
			 "electric_quadrupole_moment_norm": 13.4154621132, 
			 "total_energy": -747.44226764, 
			 "HOMO_LUMO_gap": 0.25267, 
			 "cosmo_polarized_energy": -9.9, 
			 "cosmo_cavitation_energy": 19.69, 
			 "cosmo_dispersion_energy": -14.66, 
			 "cosmo_repulsion_energy": 1.27, 
			 "cosmo_total_nonelectrostatic_energy": 6.3, 
			 "SMD_solvation_energy": 3.84 
		},
		"coords": [
			{
				"x": -1.3770199088,
				"y": -0.4573939837,
				"z": -0.2289567802,
				"element": "C" 
			},
			{
				"x": -0.1119980222,
				"y": -1.0015725159,
				"z": -0.9052181227,
				"element": "C" 
			},
			{
				"x": 1.0406589958,
				"y": 0.0156242131,
				"z": -0.94608811,
				"element": "C" 
			},
			{
				"x": 2.5802880108,
				"y": -0.8338014704,
				"z": -1.4905024058,
				"element": "Cl" 
			},
			{
				"x": 0.7067152564,
				"y": 1.2401189212,
				"z": -1.8097913975,
				"element": "C" 
			},
			{
				"x": 1.0997958311,
				"y": 1.218660089,
				"z": -3.1096252059,
				"element": "N" 
			},
			{
				"x": 0.032836112,
				"y": 2.1351938836,
				"z": -1.3178228574,
				"element": "O" 
			},
			{
				"x": -2.1541591302,
				"y": -1.227957718,
				"z": -0.2263648368,
				"element": "H" 
			},
			{
				"x": -1.1784254113,
				"y": -0.1766547926,
				"z": 0.8105621906,
				"element": "H" 
			},
			{
				"x": -1.7635519682,
				"y": 0.426243035,
				"z": -0.7403777699,
				"element": "H" 
			},
			{
				"x": 0.2463382397,
				"y": -1.8837075675,
				"z": -0.3652121182,
				"element": "H" 
			},
			{
				"x": -0.331132327,
				"y": -1.323769875,
				"z": -1.9296354581,
				"element": "H" 
			},
			{
				"x": 1.2627301633,
				"y": 0.3897031694,
				"z": 0.053693252,
				"element": "H" 
			},
			{
				"x": 1.784968542,
				"y": 0.554905374,
				"z": -3.4358593293,
				"element": "H" 
			},
			{
				"x": 0.9049556167,
				"y": 2.0393092378,
				"z": -3.6632010507,
				"element": "H" 
			}
		],
		 "valence_orbital": [ 
			{
				"type": "occ",
				"energy": -0.35184,
				"method": "rhf"
			},
			{
				"type": "occ",
				"energy": -0.31882,
				"method": "rhf"
			},
			{
				"type": "occ",
				"energy": -0.30656,
				"method": "rhf"
			},
			{
				"type": "occ",
				"energy": -0.27713,
				"method": "rhf"
			},
			{
				"type": "occ",
				"energy": -0.25719,
				"method": "rhf"
			},
			{
				"type": "unocc",
				"energy": -0.00452,
				"method": "rhf"
			},
			{
				"type": "unocc",
				"energy": 0.03217,
				"method": "rhf"
			},
			{
				"type": "unocc",
				"energy": 0.0792,
				"method": "rhf"
			},
			{
				"type": "unocc",
				"energy": 0.11064,
				"method": "rhf"
			},
			{
				"type": "unocc",
				"energy": 0.12618,
				"method": "rhf"
			}
		],
		"cosmo_sigma_profile": { 
			"-0.025": 0.0,
			"-0.024": 0.0,
			"-0.023": 0.0,
			"-0.022": 0.0,
			"-0.021": 0.0,
			"-0.02": 0.0,
			"-0.019": 0.0,
			"-0.018": 0.0,
			"-0.017": 0.0,
			"-0.016": 0.0,
			"-0.015": 0.244595800062,
			"-0.014": 1.29079697092,
			"-0.013": 1.36940272694,
			"-0.012": 2.80770654073,
			"-0.011": 2.11267745275,
			"-0.01": 1.33003930552,
			"-0.009": 1.2195594092,
			"-0.008": 3.0833814004,
			"-0.007": 3.47332289513,
			"-0.006": 2.82538900809,
			"-0.005": 5.42474018582,
			"-0.004": 11.1656285543,
			"-0.003": 13.3511722132,
			"-0.002": 14.5718920585,
			"-0.001": 14.0441764626,
			"0.0": 13.8702970929,
			"0.001": 12.6349304377,
			"0.002": 6.34302647267,
			"0.003": 7.25701155676,
			"0.004": 6.41995888299,
			"0.005": 8.15587905595,
			"0.006": 6.65071070056,
			"0.007": 1.28118855161,
			"0.008": 1.22190818801,
			"0.009": 1.50505177697,
			"0.01": 1.42546542868,
			"0.011": 1.53836665027,
			"0.012": 2.45405330891,
			"0.013": 4.8466830412,
			"0.014": 2.1716676944,
			"0.015": 0.0108795783663,
			"0.016": 0.0,
			"0.017": 0.0,
			"0.018": 0.0,
			"0.019": 0.0,
			"0.02": 0.0,
			"0.021": 0.0,
			"0.022": 0.0,
			"0.023": 0.0,
			"0.024": 0.0,
			"0.025": 0.0
		}
	}
}
