{
	 "smiles": "BrC1=NNC(=O)NC1=O", 
	 "Tm": 462.15, 
	 "num_atms": 11, 
	 "gaussian": { 
		 "optdone": 1, 
		 "sigma_profile": "yes", 
		 "theory": "DFT", 
		 "functional": "B3LYP", 
		 "basiset": "6-31G**", 
		 "properties": { 
			 "R2extent": 4132.9476, 
			 "electric_dipole_moment_norm": 1.58990055035, 
			 "electric_quadrupole_moment_norm": 8.18378007647, 
			 "total_energy": -3001.62041281, 
			 "HOMO_LUMO_gap": 0.18465, 
			 "cosmo_polarized_energy": -14.84, 
			 "cosmo_cavitation_energy": 18.93, 
			 "cosmo_dispersion_energy": -14.9, 
			 "cosmo_repulsion_energy": 1.24, 
			 "cosmo_total_nonelectrostatic_energy": 5.27, 
			 "SMD_solvation_energy": 3.37 
		},
		"coords": [
			{
				"x": -3.4519509069,
				"y": -2.171555244,
				"z": 1.5705813982,
				"element": "Br" 
			},
			{
				"x": -1.6223029008,
				"y": -1.7333489814,
				"z": 1.4026756611,
				"element": "C" 
			},
			{
				"x": -1.1514086701,
				"y": -1.4730878897,
				"z": 0.2382036521,
				"element": "N" 
			},
			{
				"x": 0.1585349326,
				"y": -1.1615637517,
				"z": 0.1339697177,
				"element": "N" 
			},
			{
				"x": 1.0847111326,
				"y": -1.0868649324,
				"z": 1.1676390199,
				"element": "C" 
			},
			{
				"x": 2.251485573,
				"y": -0.799693814,
				"z": 1.0010988097,
				"element": "O" 
			},
			{
				"x": 0.5128807031,
				"y": -1.379472122,
				"z": 2.4032074762,
				"element": "N" 
			},
			{
				"x": -0.8176641821,
				"y": -1.7154294673,
				"z": 2.6588999809,
				"element": "C" 
			},
			{
				"x": -1.2296232068,
				"y": -1.9563134778,
				"z": 3.7726539476,
				"element": "O" 
			},
			{
				"x": 0.4889233715,
				"y": -0.9635139262,
				"z": -0.8002879216,
				"element": "H" 
			},
			{
				"x": 1.1372141538,
				"y": -1.3426563935,
				"z": 3.2013582581,
				"element": "H" 
			}
		],
		 "valence_orbital": [ 
			{
				"type": "occ",
				"energy": -0.31363,
				"method": "rhf"
			},
			{
				"type": "occ",
				"energy": -0.30971,
				"method": "rhf"
			},
			{
				"type": "occ",
				"energy": -0.3024,
				"method": "rhf"
			},
			{
				"type": "occ",
				"energy": -0.293,
				"method": "rhf"
			},
			{
				"type": "occ",
				"energy": -0.26915,
				"method": "rhf"
			},
			{
				"type": "unocc",
				"energy": -0.0845,
				"method": "rhf"
			},
			{
				"type": "unocc",
				"energy": -0.01482,
				"method": "rhf"
			},
			{
				"type": "unocc",
				"energy": -0.01273,
				"method": "rhf"
			},
			{
				"type": "unocc",
				"energy": 0.06565,
				"method": "rhf"
			},
			{
				"type": "unocc",
				"energy": 0.08539,
				"method": "rhf"
			}
		],
		"cosmo_sigma_profile": { 
			"-0.025": 0.0,
			"-0.024": 0.0,
			"-0.023": 0.0,
			"-0.022": 0.0,
			"-0.021": 0.0,
			"-0.02": 0.0,
			"-0.019": 0.0,
			"-0.018": 0.960864583333,
			"-0.017": 2.13830456698,
			"-0.016": 2.62087837136,
			"-0.015": 1.87201245903,
			"-0.014": 0.856346933634,
			"-0.013": 2.0229683914,
			"-0.012": 2.1979492753,
			"-0.011": 1.32158669305,
			"-0.01": 2.21155792728,
			"-0.009": 2.97226364342,
			"-0.008": 3.41332602991,
			"-0.007": 4.9079264768,
			"-0.006": 5.86953129219,
			"-0.005": 6.99472159435,
			"-0.004": 9.73780862051,
			"-0.003": 8.8997884941,
			"-0.002": 6.38905441001,
			"-0.001": 5.7224663419,
			"0.0": 6.2240335192,
			"0.001": 8.49765172777,
			"0.002": 8.88515639509,
			"0.003": 12.3143957049,
			"0.004": 7.44496224916,
			"0.005": 4.57904427878,
			"0.006": 2.94767844894,
			"0.007": 4.01587688771,
			"0.008": 3.90643425602,
			"0.009": 5.03503439292,
			"0.01": 5.87907604171,
			"0.011": 10.9204492909,
			"0.012": 4.01462818201,
			"0.013": 0.00465600434475,
			"0.014": 0.0,
			"0.015": 0.0,
			"0.016": 0.0,
			"0.017": 0.0,
			"0.018": 0.0,
			"0.019": 0.0,
			"0.02": 0.0,
			"0.021": 0.0,
			"0.022": 0.0,
			"0.023": 0.0,
			"0.024": 0.0,
			"0.025": 0.0
		}
	}
}
