{
	 "smiles": "CC(C(C)C(O)=O)C(O)=O", 
	 "Tm": 393.15, 
	 "num_atms": 20, 
	 "gaussian": { 
		 "optdone": 1, 
		 "sigma_profile": "yes", 
		 "theory": "DFT", 
		 "functional": "B3LYP", 
		 "basiset": "6-31G**", 
		 "properties": { 
			 "R2extent": 2680.4916, 
			 "electric_dipole_moment_norm": 2.11434752583, 
			 "electric_quadrupole_moment_norm": 7.78997231317, 
			 "total_energy": -535.599998791, 
			 "HOMO_LUMO_gap": 0.27569, 
			 "cosmo_polarized_energy": -13.46, 
			 "cosmo_cavitation_energy": 23.49, 
			 "cosmo_dispersion_energy": -16.7, 
			 "cosmo_repulsion_energy": 1.38, 
			 "cosmo_total_nonelectrostatic_energy": 8.17, 
			 "SMD_solvation_energy": 6.5 
		},
		"coords": [
			{
				"x": 0.9464238311,
				"y": 1.9687223776,
				"z": 0.7781415308,
				"element": "C" 
			},
			{
				"x": 0.7921569609,
				"y": 2.0819240413,
				"z": -0.741274087,
				"element": "C" 
			},
			{
				"x": 1.1391748064,
				"y": 0.7823255662,
				"z": -1.5196323764,
				"element": "C" 
			},
			{
				"x": 0.3529423335,
				"y": -0.4577174971,
				"z": -1.0559565425,
				"element": "C" 
			},
			{
				"x": 2.6454888842,
				"y": 0.5545444746,
				"z": -1.5148138333,
				"element": "C" 
			},
			{
				"x": 2.9767805984,
				"y": -0.6569326934,
				"z": -2.0230008578,
				"element": "O" 
			},
			{
				"x": 3.4854632846,
				"y": 1.3481954423,
				"z": -1.1474209286,
				"element": "O" 
			},
			{
				"x": -0.6110679752,
				"y": 2.5381096116,
				"z": -1.1087505724,
				"element": "C" 
			},
			{
				"x": -0.7107803515,
				"y": 2.848641108,
				"z": -2.4282402471,
				"element": "O" 
			},
			{
				"x": -1.5548136565,
				"y": 2.6296042761,
				"z": -0.3547963109,
				"element": "O" 
			},
			{
				"x": 0.223456675,
				"y": 1.2695628602,
				"z": 1.2044042875,
				"element": "H" 
			},
			{
				"x": 0.7727618588,
				"y": 2.9391898028,
				"z": 1.2498559488,
				"element": "H" 
			},
			{
				"x": 1.9583393358,
				"y": 1.643317398,
				"z": 1.0292350692,
				"element": "H" 
			},
			{
				"x": 1.477872071,
				"y": 2.8513597382,
				"z": -1.1138800081,
				"element": "H" 
			},
			{
				"x": 0.8906876675,
				"y": 0.9579252119,
				"z": -2.5751530786,
				"element": "H" 
			},
			{
				"x": 0.6274600165,
				"y": -0.7536847172,
				"z": -0.0397908396,
				"element": "H" 
			},
			{
				"x": -0.7212899081,
				"y": -0.2504858911,
				"z": -1.0653885826,
				"element": "H" 
			},
			{
				"x": 0.5467754611,
				"y": -1.3046138355,
				"z": -1.7164359266,
				"element": "H" 
			},
			{
				"x": 3.9480803766,
				"y": -0.6953020013,
				"z": -2.010233969,
				"element": "H" 
			},
			{
				"x": -1.63261227,
				"y": 3.1215147271,
				"z": -2.5710686757,
				"element": "H" 
			}
		],
		 "valence_orbital": [ 
			{
				"type": "occ",
				"energy": -0.33816,
				"method": "rhf"
			},
			{
				"type": "occ",
				"energy": -0.32479,
				"method": "rhf"
			},
			{
				"type": "occ",
				"energy": -0.32033,
				"method": "rhf"
			},
			{
				"type": "occ",
				"energy": -0.28038,
				"method": "rhf"
			},
			{
				"type": "occ",
				"energy": -0.27549,
				"method": "rhf"
			},
			{
				"type": "unocc",
				"energy": 0.0002,
				"method": "rhf"
			},
			{
				"type": "unocc",
				"energy": 0.00631,
				"method": "rhf"
			},
			{
				"type": "unocc",
				"energy": 0.07184,
				"method": "rhf"
			},
			{
				"type": "unocc",
				"energy": 0.07571,
				"method": "rhf"
			},
			{
				"type": "unocc",
				"energy": 0.10018,
				"method": "rhf"
			}
		],
		"cosmo_sigma_profile": { 
			"-0.025": 0.0,
			"-0.024": 0.0,
			"-0.023": 0.0,
			"-0.022": 0.0,
			"-0.021": 0.0,
			"-0.02": 0.0,
			"-0.019": 0.0893227966415,
			"-0.018": 1.51546018301,
			"-0.017": 1.71686881567,
			"-0.016": 1.44101029527,
			"-0.015": 1.7755178062,
			"-0.014": 1.79044436939,
			"-0.013": 0.975494608005,
			"-0.012": 1.02834477509,
			"-0.011": 1.358564455,
			"-0.01": 1.80321640218,
			"-0.009": 1.20974125106,
			"-0.008": 0.832073701067,
			"-0.007": 2.97136630807,
			"-0.006": 4.22130274332,
			"-0.005": 6.77482618301,
			"-0.004": 13.7432632827,
			"-0.003": 18.5306390807,
			"-0.002": 17.2217223958,
			"-0.001": 15.7576367281,
			"0.0": 16.2813787539,
			"0.001": 10.4458516337,
			"0.002": 5.90059467655,
			"0.003": 5.45728333342,
			"0.004": 6.52791217957,
			"0.005": 5.2342606081,
			"0.006": 4.81645736951,
			"0.007": 5.21429001207,
			"0.008": 5.47035644453,
			"0.009": 4.32299929366,
			"0.01": 3.92549248999,
			"0.011": 7.56454194724,
			"0.012": 6.9124208965,
			"0.013": 0.353085934937,
			"0.014": 0.0,
			"0.015": 0.0,
			"0.016": 0.0,
			"0.017": 0.0,
			"0.018": 0.0,
			"0.019": 0.0,
			"0.02": 0.0,
			"0.021": 0.0,
			"0.022": 0.0,
			"0.023": 0.0,
			"0.024": 0.0,
			"0.025": 0.0
		}
	}
}
