{
	 "smiles": "OC(=O)C1=CC2=C(COC2)C=C1", 
	 "Tm": 438.15, 
	 "num_atms": 20, 
	 "gaussian": { 
		 "optdone": 1, 
		 "sigma_profile": "yes", 
		 "theory": "DFT", 
		 "functional": "B3LYP", 
		 "basiset": "6-31G**", 
		 "properties": { 
			 "R2extent": 3017.6743, 
			 "electric_dipole_moment_norm": 3.39238217481, 
			 "electric_quadrupole_moment_norm": 17.6805478249, 
			 "total_energy": -573.441208616, 
			 "HOMO_LUMO_gap": 0.19529, 
			 "cosmo_polarized_energy": -15.78, 
			 "cosmo_cavitation_energy": 23.97, 
			 "cosmo_dispersion_energy": -18.17, 
			 "cosmo_repulsion_energy": 1.45, 
			 "cosmo_total_nonelectrostatic_energy": 7.25, 
			 "SMD_solvation_energy": 5.08 
		},
		"coords": [
			{
				"x": 2.2260505423,
				"y": 0.2120793617,
				"z": 0.5677654454,
				"element": "O" 
			},
			{
				"x": 1.2931856786,
				"y": 0.8467101131,
				"z": 1.329170813,
				"element": "C" 
			},
			{
				"x": 1.5494386666,
				"y": 1.144240112,
				"z": 2.4720480423,
				"element": "O" 
			},
			{
				"x": -0.0246600561,
				"y": 1.1388509297,
				"z": 0.6759535082,
				"element": "C" 
			},
			{
				"x": -0.4898115417,
				"y": 0.4303723459,
				"z": -0.4446059353,
				"element": "C" 
			},
			{
				"x": -1.7295444408,
				"y": 0.7590282539,
				"z": -0.9812427734,
				"element": "C" 
			},
			{
				"x": -2.503959818,
				"y": 1.7735266132,
				"z": -0.4183977618,
				"element": "C" 
			},
			{
				"x": -3.7861383838,
				"y": 1.8861916726,
				"z": -1.2006316112,
				"element": "C" 
			},
			{
				"x": -3.6258553023,
				"y": 1.0095875566,
				"z": -2.3192253704,
				"element": "O" 
			},
			{
				"x": -2.4854351966,
				"y": 0.1653397381,
				"z": -2.1429137039,
				"element": "C" 
			},
			{
				"x": -2.0600148643,
				"y": 2.4716382449,
				"z": 0.7035291483,
				"element": "C" 
			},
			{
				"x": -0.8204054132,
				"y": 2.1434297384,
				"z": 1.2495607714,
				"element": "C" 
			},
			{
				"x": 1.9471153639,
				"y": 0.1982707368,
				"z": -0.3580511218,
				"element": "H" 
			},
			{
				"x": 0.0854614513,
				"y": -0.3907414924,
				"z": -0.8673526756,
				"element": "H" 
			},
			{
				"x": -4.6565791822,
				"y": 1.5859791581,
				"z": -0.5945590195,
				"element": "H" 
			},
			{
				"x": -3.9760787062,
				"y": 2.9019754151,
				"z": -1.5717224064,
				"element": "H" 
			},
			{
				"x": -2.7992686141,
				"y": -0.8709118078,
				"z": -1.9357706539,
				"element": "H" 
			},
			{
				"x": -1.9070347158,
				"y": 0.1557185615,
				"z": -3.0762235284,
				"element": "H" 
			},
			{
				"x": -2.6629478824,
				"y": 3.2567601505,
				"z": 1.1510948847,
				"element": "H" 
			},
			{
				"x": -0.4413175849,
				"y": 2.6556545982,
				"z": 2.1270739483,
				"element": "H" 
			}
		],
		 "valence_orbital": [ 
			{
				"type": "occ",
				"energy": -0.31838,
				"method": "rhf"
			},
			{
				"type": "occ",
				"energy": -0.28091,
				"method": "rhf"
			},
			{
				"type": "occ",
				"energy": -0.27542,
				"method": "rhf"
			},
			{
				"type": "occ",
				"energy": -0.27305,
				"method": "rhf"
			},
			{
				"type": "occ",
				"energy": -0.24938,
				"method": "rhf"
			},
			{
				"type": "unocc",
				"energy": -0.05409,
				"method": "rhf"
			},
			{
				"type": "unocc",
				"energy": -0.02793,
				"method": "rhf"
			},
			{
				"type": "unocc",
				"energy": 0.04318,
				"method": "rhf"
			},
			{
				"type": "unocc",
				"energy": 0.05913,
				"method": "rhf"
			},
			{
				"type": "unocc",
				"energy": 0.09049,
				"method": "rhf"
			}
		],
		"cosmo_sigma_profile": { 
			"-0.025": 0.0,
			"-0.024": 0.0,
			"-0.023": 0.0,
			"-0.022": 0.0,
			"-0.021": 0.0,
			"-0.02": 0.0,
			"-0.019": 0.3046660222,
			"-0.018": 0.809693555908,
			"-0.017": 0.980970176301,
			"-0.016": 0.869098159025,
			"-0.015": 0.667343790928,
			"-0.014": 0.902777786599,
			"-0.013": 1.23279939269,
			"-0.012": 1.24088139354,
			"-0.011": 1.01596047961,
			"-0.01": 1.06479854213,
			"-0.009": 1.62551105955,
			"-0.008": 2.31809167283,
			"-0.007": 3.94588726025,
			"-0.006": 10.8913926972,
			"-0.005": 18.5198650022,
			"-0.004": 16.682870231,
			"-0.003": 14.5975362052,
			"-0.002": 11.3892230197,
			"-0.001": 10.7122317665,
			"0.0": 10.5183176711,
			"0.001": 10.2117183926,
			"0.002": 11.1064430795,
			"0.003": 12.5874187678,
			"0.004": 5.16044720454,
			"0.005": 3.81328691968,
			"0.006": 3.17118506456,
			"0.007": 3.96400738197,
			"0.008": 3.96706891263,
			"0.009": 3.8850481018,
			"0.01": 5.85087476455,
			"0.011": 6.43394798839,
			"0.012": 6.98460600373,
			"0.013": 3.34228969253,
			"0.014": 0.447948182158,
			"0.015": 0.0,
			"0.016": 0.0,
			"0.017": 0.0,
			"0.018": 0.0,
			"0.019": 0.0,
			"0.02": 0.0,
			"0.021": 0.0,
			"0.022": 0.0,
			"0.023": 0.0,
			"0.024": 0.0,
			"0.025": 0.0
		}
	}
}
