{
	 "smiles": "CN1C(C2=CC=CC=C2)C(C(=O)OCC2=CC=CC=C2)=C(C)N(C)C1=O", 
	 "Tm": 359.15, 
	 "num_atms": 48, 
	 "gaussian": { 
		 "optdone": 1, 
		 "sigma_profile": "yes", 
		 "theory": "DFT", 
		 "functional": "B3LYP", 
		 "basiset": "6-31G**", 
		 "properties": { 
			 "R2extent": 11411.0768, 
			 "electric_dipole_moment_norm": 3.57083896865, 
			 "electric_quadrupole_moment_norm": 13.6751351211, 
			 "total_energy": -1148.6968139, 
			 "HOMO_LUMO_gap": 0.17997, 
			 "cosmo_polarized_energy": -14.92, 
			 "cosmo_cavitation_energy": 49.98, 
			 "cosmo_dispersion_energy": -33.89, 
			 "cosmo_repulsion_energy": 2.57, 
			 "cosmo_total_nonelectrostatic_energy": 18.67, 
			 "SMD_solvation_energy": 9.48 
		},
		"coords": [
			{
				"x": -2.8979478667,
				"y": 1.184928614,
				"z": -2.5674258076,
				"element": "C" 
			},
			{
				"x": -2.1677772745,
				"y": 0.5424921306,
				"z": -1.4821115587,
				"element": "N" 
			},
			{
				"x": -0.7565724342,
				"y": 0.2343202077,
				"z": -1.7010542885,
				"element": "C" 
			},
			{
				"x": -0.5338794678,
				"y": -1.0251150245,
				"z": -2.5582470609,
				"element": "C" 
			},
			{
				"x": -1.5115297307,
				"y": -2.0182623046,
				"z": -2.6957378749,
				"element": "C" 
			},
			{
				"x": -1.2648608749,
				"y": -3.1589292667,
				"z": -3.4643792876,
				"element": "C" 
			},
			{
				"x": -0.0391955482,
				"y": -3.3227002355,
				"z": -4.1086654762,
				"element": "C" 
			},
			{
				"x": 0.9381395593,
				"y": -2.3324212936,
				"z": -3.9846184708,
				"element": "C" 
			},
			{
				"x": 0.6927416067,
				"y": -1.1928123252,
				"z": -3.2196576513,
				"element": "C" 
			},
			{
				"x": -0.0492445753,
				"y": 0.1638471923,
				"z": -0.3526760149,
				"element": "C" 
			},
			{
				"x": 1.3138051315,
				"y": 0.7172584914,
				"z": -0.3723203371,
				"element": "C" 
			},
			{
				"x": 1.8170410209,
				"y": 1.2020743516,
				"z": -1.3792125281,
				"element": "O" 
			},
			{
				"x": 1.9983408205,
				"y": 0.6802946756,
				"z": 0.7998640853,
				"element": "O" 
			},
			{
				"x": 3.3381653818,
				"y": 1.2372705698,
				"z": 0.7531637739,
				"element": "C" 
			},
			{
				"x": 3.9476062263,
				"y": 1.0883007387,
				"z": 2.1208032403,
				"element": "C" 
			},
			{
				"x": 3.8042476463,
				"y": 2.1002764767,
				"z": 3.0782379539,
				"element": "C" 
			},
			{
				"x": 4.3548765636,
				"y": 1.9564855644,
				"z": 4.352065209,
				"element": "C" 
			},
			{
				"x": 5.0563760138,
				"y": 0.7951249905,
				"z": 4.6824098977,
				"element": "C" 
			},
			{
				"x": 5.2050946949,
				"y": -0.2200125768,
				"z": 3.7349525326,
				"element": "C" 
			},
			{
				"x": 4.6534073912,
				"y": -0.072423532,
				"z": 2.4621267018,
				"element": "C" 
			},
			{
				"x": -0.7416591718,
				"y": -0.3605374532,
				"z": 0.7033269341,
				"element": "C" 
			},
			{
				"x": -0.1992070339,
				"y": -0.6443447052,
				"z": 2.0789849405,
				"element": "C" 
			},
			{
				"x": -2.0912671992,
				"y": -0.672309346,
				"z": 0.5265749299,
				"element": "N" 
			},
			{
				"x": -2.840741073,
				"y": -1.4259038691,
				"z": 1.5350232418,
				"element": "C" 
			},
			{
				"x": -2.8777868316,
				"y": -0.0724048089,
				"z": -0.4932308118,
				"element": "C" 
			},
			{
				"x": -4.104070067,
				"y": -0.1036695904,
				"z": -0.4413638131,
				"element": "O" 
			},
			{
				"x": -2.9286763046,
				"y": 0.5472451042,
				"z": -3.4595029787,
				"element": "H" 
			},
			{
				"x": -2.4049157182,
				"y": 2.1271186987,
				"z": -2.8276316333,
				"element": "H" 
			},
			{
				"x": -3.9167287057,
				"y": 1.3779198573,
				"z": -2.2360216768,
				"element": "H" 
			},
			{
				"x": -0.326597604,
				"y": 1.0792316179,
				"z": -2.2442989292,
				"element": "H" 
			},
			{
				"x": -2.4802685095,
				"y": -1.9035944396,
				"z": -2.2201729636,
				"element": "H" 
			},
			{
				"x": -2.0376247172,
				"y": -3.916661615,
				"z": -3.5613943669,
				"element": "H" 
			},
			{
				"x": 0.1505756521,
				"y": -4.2085813672,
				"z": -4.7081408727,
				"element": "H" 
			},
			{
				"x": 1.8930691701,
				"y": -2.4435070307,
				"z": -4.4912689664,
				"element": "H" 
			},
			{
				"x": 1.4524910739,
				"y": -0.4235081845,
				"z": -3.124995234,
				"element": "H" 
			},
			{
				"x": 3.9121682031,
				"y": 0.7051244975,
				"z": -0.0105143445,
				"element": "H" 
			},
			{
				"x": 3.271645436,
				"y": 2.2852183054,
				"z": 0.4476688222,
				"element": "H" 
			},
			{
				"x": 3.2601122478,
				"y": 3.0056547374,
				"z": 2.8211870014,
				"element": "H" 
			},
			{
				"x": 4.2400826444,
				"y": 2.7505379371,
				"z": 5.084323005,
				"element": "H" 
			},
			{
				"x": 5.4891878053,
				"y": 0.6834835228,
				"z": 5.6724470384,
				"element": "H" 
			},
			{
				"x": 5.7536864901,
				"y": -1.1233367647,
				"z": 3.9858805936,
				"element": "H" 
			},
			{
				"x": 4.772164539,
				"y": -0.861878041,
				"z": 1.7241662577,
				"element": "H" 
			},
			{
				"x": -0.7876380343,
				"y": -0.1216177471,
				"z": 2.8408275652,
				"element": "H" 
			},
			{
				"x": 0.8371978461,
				"y": -0.3410435733,
				"z": 2.1638546605,
				"element": "H" 
			},
			{
				"x": -0.268100182,
				"y": -1.7154500201,
				"z": 2.2984410998,
				"element": "H" 
			},
			{
				"x": -3.8341160177,
				"y": -1.6036725397,
				"z": 1.1306793202,
				"element": "H" 
			},
			{
				"x": -2.3488263034,
				"y": -2.3794542757,
				"z": 1.7403070296,
				"element": "H" 
			},
			{
				"x": -2.9462919195,
				"y": -0.8685563513,
				"z": 2.4715271133,
				"element": "H" 
			}
		],
		 "valence_orbital": [ 
			{
				"type": "occ",
				"energy": -0.25325,
				"method": "rhf"
			},
			{
				"type": "occ",
				"energy": -0.24358,
				"method": "rhf"
			},
			{
				"type": "occ",
				"energy": -0.24339,
				"method": "rhf"
			},
			{
				"type": "occ",
				"energy": -0.23604,
				"method": "rhf"
			},
			{
				"type": "occ",
				"energy": -0.21665,
				"method": "rhf"
			},
			{
				"type": "unocc",
				"energy": -0.03668,
				"method": "rhf"
			},
			{
				"type": "unocc",
				"energy": -0.01613,
				"method": "rhf"
			},
			{
				"type": "unocc",
				"energy": -0.00833,
				"method": "rhf"
			},
			{
				"type": "unocc",
				"energy": 0.0029,
				"method": "rhf"
			},
			{
				"type": "unocc",
				"energy": 0.00555,
				"method": "rhf"
			}
		],
		"cosmo_sigma_profile": { 
			"-0.025": 0.0,
			"-0.024": 0.0,
			"-0.023": 0.0,
			"-0.022": 0.0,
			"-0.021": 0.0,
			"-0.02": 0.0,
			"-0.019": 0.0,
			"-0.018": 0.0,
			"-0.017": 0.0,
			"-0.016": 0.0,
			"-0.015": 0.0,
			"-0.014": 0.0,
			"-0.013": 0.0,
			"-0.012": 0.0,
			"-0.011": 0.0,
			"-0.01": 0.0,
			"-0.009": 0.0,
			"-0.008": 0.200409434159,
			"-0.007": 2.63214446987,
			"-0.006": 22.756356427,
			"-0.005": 34.3760191239,
			"-0.004": 37.9644606435,
			"-0.003": 39.7810530936,
			"-0.002": 40.8366417677,
			"-0.001": 31.9728882746,
			"0.0": 26.1015992055,
			"0.001": 26.4238856615,
			"0.002": 24.4293866909,
			"0.003": 24.1518454763,
			"0.004": 23.9968703244,
			"0.005": 21.6390004609,
			"0.006": 13.8290150539,
			"0.007": 3.77937686949,
			"0.008": 2.77776798749,
			"0.009": 2.24393940352,
			"0.01": 2.96383558822,
			"0.011": 2.89929819381,
			"0.012": 4.68353247018,
			"0.013": 5.59984020762,
			"0.014": 1.396345702,
			"0.015": 0.0,
			"0.016": 0.0,
			"0.017": 0.0,
			"0.018": 0.0,
			"0.019": 0.0,
			"0.02": 0.0,
			"0.021": 0.0,
			"0.022": 0.0,
			"0.023": 0.0,
			"0.024": 0.0,
			"0.025": 0.0
		}
	}
}
