{
	 "smiles": "NC1=NC(=NO1)C1=CN=CC=C1", 
	 "Tm": 540.15, 
	 "num_atms": 18, 
	 "gaussian": { 
		 "optdone": 1, 
		 "sigma_profile": "yes", 
		 "theory": "DFT", 
		 "functional": "B3LYP", 
		 "basiset": "6-31G**", 
		 "properties": { 
			 "R2extent": 2959.536, 
			 "electric_dipole_moment_norm": 5.00007422445, 
			 "electric_quadrupole_moment_norm": 18.5509430984, 
			 "total_energy": -564.55303282, 
			 "HOMO_LUMO_gap": 0.19518, 
			 "cosmo_polarized_energy": -15.06, 
			 "cosmo_cavitation_energy": 23.4, 
			 "cosmo_dispersion_energy": -17.78, 
			 "cosmo_repulsion_energy": 1.41, 
			 "cosmo_total_nonelectrostatic_energy": 7.03, 
			 "SMD_solvation_energy": 1.25 
		},
		"coords": [
			{
				"x": 2.8226433616,
				"y": -3.2112732921,
				"z": 0.5401364677,
				"element": "N" 
			},
			{
				"x": 2.6018515422,
				"y": -1.8745873757,
				"z": 0.4847058418,
				"element": "C" 
			},
			{
				"x": 1.5593506611,
				"y": -1.2532014089,
				"z": -0.001321939,
				"element": "N" 
			},
			{
				"x": 1.8717503808,
				"y": 0.062136162,
				"z": 0.2689879962,
				"element": "C" 
			},
			{
				"x": 3.0225105342,
				"y": 0.2565441932,
				"z": 0.8736840883,
				"element": "N" 
			},
			{
				"x": 3.5268072252,
				"y": -1.0655498147,
				"z": 1.0240390569,
				"element": "O" 
			},
			{
				"x": 0.9811000981,
				"y": 1.1716255271,
				"z": -0.0960431904,
				"element": "C" 
			},
			{
				"x": 1.3240821677,
				"y": 2.5066437389,
				"z": 0.1749403759,
				"element": "C" 
			},
			{
				"x": 0.5487122056,
				"y": 3.5471676102,
				"z": -0.137597943,
				"element": "N" 
			},
			{
				"x": -0.6190189862,
				"y": 3.2876730375,
				"z": -0.7433611106,
				"element": "C" 
			},
			{
				"x": -1.0564369258,
				"y": 2.000479079,
				"z": -1.0582987411,
				"element": "C" 
			},
			{
				"x": -0.2415823276,
				"y": 0.9210418563,
				"z": -0.7288069315,
				"element": "C" 
			},
			{
				"x": 3.7704232355,
				"y": -3.5212255458,
				"z": 0.6903069851,
				"element": "H" 
			},
			{
				"x": 2.2457499611,
				"y": -3.7785871012,
				"z": -0.0612325935,
				"element": "H" 
			},
			{
				"x": 2.2682187552,
				"y": 2.7308323942,
				"z": 0.6657928186,
				"element": "H" 
			},
			{
				"x": -1.2330358264,
				"y": 4.1527856683,
				"z": -0.9877163772,
				"element": "H" 
			},
			{
				"x": -2.012716864,
				"y": 1.8503129153,
				"z": -1.5494188733,
				"element": "H" 
			},
			{
				"x": -0.5299091985,
				"y": -0.1013176434,
				"z": -0.948795931,
				"element": "H" 
			}
		],
		 "valence_orbital": [ 
			{
				"type": "occ",
				"energy": -0.29555,
				"method": "rhf"
			},
			{
				"type": "occ",
				"energy": -0.2848,
				"method": "rhf"
			},
			{
				"type": "occ",
				"energy": -0.26791,
				"method": "rhf"
			},
			{
				"type": "occ",
				"energy": -0.25382,
				"method": "rhf"
			},
			{
				"type": "occ",
				"energy": -0.241,
				"method": "rhf"
			},
			{
				"type": "unocc",
				"energy": -0.04582,
				"method": "rhf"
			},
			{
				"type": "unocc",
				"energy": -0.02249,
				"method": "rhf"
			},
			{
				"type": "unocc",
				"energy": 0.01952,
				"method": "rhf"
			},
			{
				"type": "unocc",
				"energy": 0.04969,
				"method": "rhf"
			},
			{
				"type": "unocc",
				"energy": 0.07164,
				"method": "rhf"
			}
		],
		"cosmo_sigma_profile": { 
			"-0.025": 0.0,
			"-0.024": 0.0,
			"-0.023": 0.0,
			"-0.022": 0.0,
			"-0.021": 0.0,
			"-0.02": 0.0,
			"-0.019": 0.0,
			"-0.018": 0.0,
			"-0.017": 0.0,
			"-0.016": 0.965086314743,
			"-0.015": 3.01939874237,
			"-0.014": 2.40900909277,
			"-0.013": 2.66047136317,
			"-0.012": 2.60556858206,
			"-0.011": 1.73976237689,
			"-0.01": 2.15946846226,
			"-0.009": 1.44268922495,
			"-0.008": 1.79272036502,
			"-0.007": 6.69302674478,
			"-0.006": 8.95321298662,
			"-0.005": 8.27027496879,
			"-0.004": 8.58197318612,
			"-0.003": 8.94583807647,
			"-0.002": 8.61727493594,
			"-0.001": 11.3521225267,
			"0.0": 19.0964963012,
			"0.001": 19.4883574819,
			"0.002": 13.776609642,
			"0.003": 6.89819090815,
			"0.004": 7.102488543,
			"0.005": 5.3283334909,
			"0.006": 4.9399584751,
			"0.007": 9.20467868607,
			"0.008": 4.97810040012,
			"0.009": 3.6817862236,
			"0.01": 3.54685932555,
			"0.011": 2.69481136781,
			"0.012": 3.26419480124,
			"0.013": 1.69033917261,
			"0.014": 1.11111756088,
			"0.015": 0.795015892681,
			"0.016": 0.660002294816,
			"0.017": 0.100696087689,
			"0.018": 0.0,
			"0.019": 0.0,
			"0.02": 0.0,
			"0.021": 0.0,
			"0.022": 0.0,
			"0.023": 0.0,
			"0.024": 0.0,
			"0.025": 0.0
		}
	}
}
