{
	 "smiles": "CC1=C(C=CC(=C1)C#N)N1C=NC=N1", 
	 "Tm": 413.15, 
	 "num_atms": 22, 
	 "gaussian": { 
		 "optdone": 1, 
		 "sigma_profile": "yes", 
		 "theory": "DFT", 
		 "functional": "B3LYP", 
		 "basiset": "6-31G**", 
		 "properties": { 
			 "R2extent": 3387.0884, 
			 "electric_dipole_moment_norm": 2.5377533706, 
			 "electric_quadrupole_moment_norm": 21.0303133013, 
			 "total_energy": -604.858952132, 
			 "HOMO_LUMO_gap": 0.18979, 
			 "cosmo_polarized_energy": -14.66, 
			 "cosmo_cavitation_energy": 27.64, 
			 "cosmo_dispersion_energy": -19.56, 
			 "cosmo_repulsion_energy": 1.5, 
			 "cosmo_total_nonelectrostatic_energy": 9.58, 
			 "SMD_solvation_energy": 4.29 
		},
		"coords": [
			{
				"x": -0.1036517621,
				"y": 2.1007653549,
				"z": 0.9057683451,
				"element": "C" 
			},
			{
				"x": -0.1648777093,
				"y": 0.6721350074,
				"z": 0.4174165742,
				"element": "C" 
			},
			{
				"x": -0.9536841931,
				"y": 0.2537980537,
				"z": -0.6732364055,
				"element": "C" 
			},
			{
				"x": -1.0253631108,
				"y": -1.0951182701,
				"z": -1.0450931093,
				"element": "C" 
			},
			{
				"x": -0.2965993152,
				"y": -2.0534575331,
				"z": -0.357575718,
				"element": "C" 
			},
			{
				"x": 0.5188289101,
				"y": -1.659531572,
				"z": 0.7155466821,
				"element": "C" 
			},
			{
				"x": 0.5697944313,
				"y": -0.3096674813,
				"z": 1.0897620438,
				"element": "C" 
			},
			{
				"x": 1.2876886026,
				"y": -2.6312229437,
				"z": 1.4367544049,
				"element": "C" 
			},
			{
				"x": 1.9132421171,
				"y": -3.4188993169,
				"z": 2.0210504118,
				"element": "N" 
			},
			{
				"x": -1.7298670104,
				"y": 1.1763451117,
				"z": -1.4295538242,
				"element": "N" 
			},
			{
				"x": -1.4215743497,
				"y": 2.4178430098,
				"z": -1.9019404844,
				"element": "C" 
			},
			{
				"x": -2.4006624447,
				"y": 2.8879151114,
				"z": -2.6476977465,
				"element": "N" 
			},
			{
				"x": -3.312720231,
				"y": 1.8730619533,
				"z": -2.6140764538,
				"element": "C" 
			},
			{
				"x": -2.9601477703,
				"y": 0.8151745708,
				"z": -1.9045837811,
				"element": "N" 
			},
			{
				"x": -1.073013406,
				"y": 2.6001653255,
				"z": 0.825628708,
				"element": "H" 
			},
			{
				"x": 0.6231075669,
				"y": 2.6977970361,
				"z": 0.3422097762,
				"element": "H" 
			},
			{
				"x": 0.2055379306,
				"y": 2.1265071363,
				"z": 1.9533517488,
				"element": "H" 
			},
			{
				"x": -1.6657642764,
				"y": -1.3702732106,
				"z": -1.8741737828,
				"element": "H" 
			},
			{
				"x": -0.3489928688,
				"y": -3.0971755562,
				"z": -0.6465626639,
				"element": "H" 
			},
			{
				"x": 1.1833776222,
				"y": -0.0211177405,
				"z": 1.937186093,
				"element": "H" 
			},
			{
				"x": -0.4842261382,
				"y": 2.9119985963,
				"z": -1.6975656354,
				"element": "H" 
			},
			{
				"x": -4.2652325949,
				"y": 1.9178573572,
				"z": -3.1239151831,
				"element": "H" 
			}
		],
		 "valence_orbital": [ 
			{
				"type": "occ",
				"energy": -0.31835,
				"method": "rhf"
			},
			{
				"type": "occ",
				"energy": -0.29246,
				"method": "rhf"
			},
			{
				"type": "occ",
				"energy": -0.28856,
				"method": "rhf"
			},
			{
				"type": "occ",
				"energy": -0.28179,
				"method": "rhf"
			},
			{
				"type": "occ",
				"energy": -0.25917,
				"method": "rhf"
			},
			{
				"type": "unocc",
				"energy": -0.06938,
				"method": "rhf"
			},
			{
				"type": "unocc",
				"energy": -0.03664,
				"method": "rhf"
			},
			{
				"type": "unocc",
				"energy": -0.00566,
				"method": "rhf"
			},
			{
				"type": "unocc",
				"energy": 0.02939,
				"method": "rhf"
			},
			{
				"type": "unocc",
				"energy": 0.03826,
				"method": "rhf"
			}
		],
		"cosmo_sigma_profile": { 
			"-0.025": 0.0,
			"-0.024": 0.0,
			"-0.023": 0.0,
			"-0.022": 0.0,
			"-0.021": 0.0,
			"-0.02": 0.0,
			"-0.019": 0.0,
			"-0.018": 0.0,
			"-0.017": 0.0,
			"-0.016": 0.0,
			"-0.015": 0.0,
			"-0.014": 0.0,
			"-0.013": 0.0,
			"-0.012": 0.000286794916695,
			"-0.011": 1.41176623255,
			"-0.01": 2.61322430913,
			"-0.009": 3.38425638441,
			"-0.008": 9.19194149691,
			"-0.007": 9.59516607627,
			"-0.006": 12.481727342,
			"-0.005": 14.303688275,
			"-0.004": 13.0914883415,
			"-0.003": 15.4871182123,
			"-0.002": 18.4069087628,
			"-0.001": 19.0482820557,
			"0.0": 17.3567086028,
			"0.001": 18.2420678156,
			"0.002": 9.26131975226,
			"0.003": 7.07922680824,
			"0.004": 4.71212961512,
			"0.005": 5.28542542814,
			"0.006": 5.83782941786,
			"0.007": 5.82138952211,
			"0.008": 5.55354829046,
			"0.009": 5.22018274616,
			"0.01": 5.79574121542,
			"0.011": 4.38731346701,
			"0.012": 4.11432704592,
			"0.013": 3.25021562482,
			"0.014": 1.18989089884,
			"0.015": 1.03897936374,
			"0.016": 0.614133497355,
			"0.017": 0.00279486975824,
			"0.018": 0.0,
			"0.019": 0.0,
			"0.02": 0.0,
			"0.021": 0.0,
			"0.022": 0.0,
			"0.023": 0.0,
			"0.024": 0.0,
			"0.025": 0.0
		}
	}
}
