{
	 "smiles": "CCCCCCCCCCCC#N", 
	 "Tm": 277.15, 
	 "num_atms": 36, 
	 "gaussian": { 
		 "optdone": 1, 
		 "sigma_profile": "yes", 
		 "theory": "DFT", 
		 "functional": "B3LYP", 
		 "basiset": "6-31G**", 
		 "properties": { 
			 "R2extent": 4733.9859, 
			 "electric_dipole_moment_norm": 4.41738018513, 
			 "electric_quadrupole_moment_norm": 26.7491775206, 
			 "total_energy": -525.903513879, 
			 "HOMO_LUMO_gap": 0.34303, 
			 "cosmo_polarized_energy": -8.54, 
			 "cosmo_cavitation_energy": 37.04, 
			 "cosmo_dispersion_energy": -24.56, 
			 "cosmo_repulsion_energy": 2.02, 
			 "cosmo_total_nonelectrostatic_energy": 14.5, 
			 "SMD_solvation_energy": 6.6 
		},
		"coords": [
			{
				"x": -2.4013715336,
				"y": -1.6787530905,
				"z": 2.4514761299,
				"element": "C" 
			},
			{
				"x": -1.7060157869,
				"y": -0.7527251347,
				"z": 3.4562685186,
				"element": "C" 
			},
			{
				"x": -1.3297447385,
				"y": 0.6289493644,
				"z": 2.89187933,
				"element": "C" 
			},
			{
				"x": -0.3132302509,
				"y": 0.6313972984,
				"z": 1.7358709637,
				"element": "C" 
			},
			{
				"x": 1.0806975235,
				"y": 0.108957372,
				"z": 2.1226772186,
				"element": "C" 
			},
			{
				"x": 2.1708929303,
				"y": 0.2519815884,
				"z": 1.0378543786,
				"element": "C" 
			},
			{
				"x": 2.3149465272,
				"y": -0.9230504152,
				"z": 0.050269135,
				"element": "C" 
			},
			{
				"x": 1.1432864503,
				"y": -1.2047109284,
				"z": -0.9075845218,
				"element": "C" 
			},
			{
				"x": 0.8380114027,
				"y": -0.0616191521,
				"z": -1.8867321545,
				"element": "C" 
			},
			{
				"x": -0.3273314791,
				"y": -0.3353000469,
				"z": -2.8506444032,
				"element": "C" 
			},
			{
				"x": -0.0322873615,
				"y": -1.4631982508,
				"z": -3.864634155,
				"element": "C" 
			},
			{
				"x": -1.1313944072,
				"y": -1.6695252032,
				"z": -4.811292631,
				"element": "C" 
			},
			{
				"x": -2.0116961427,
				"y": -1.8199974485,
				"z": -5.5529535166,
				"element": "N" 
			},
			{
				"x": -2.7037681769,
				"y": -2.6184588921,
				"z": 2.9252000873,
				"element": "H" 
			},
			{
				"x": -3.3025820052,
				"y": -1.2097664127,
				"z": 2.0393496548,
				"element": "H" 
			},
			{
				"x": -1.7488721059,
				"y": -1.9342866636,
				"z": 1.609588204,
				"element": "H" 
			},
			{
				"x": -0.8120490301,
				"y": -1.2499333217,
				"z": 3.853809347,
				"element": "H" 
			},
			{
				"x": -2.3691994401,
				"y": -0.6013541225,
				"z": 4.3175187322,
				"element": "H" 
			},
			{
				"x": -2.2470265723,
				"y": 1.1294845429,
				"z": 2.5524217978,
				"element": "H" 
			},
			{
				"x": -0.9323190013,
				"y": 1.2466909105,
				"z": 3.7091132188,
				"element": "H" 
			},
			{
				"x": -0.2078628736,
				"y": 1.6639379826,
				"z": 1.3753985437,
				"element": "H" 
			},
			{
				"x": -0.716695079,
				"y": 0.0612654415,
				"z": 0.8910255062,
				"element": "H" 
			},
			{
				"x": 1.0200388503,
				"y": -0.943030583,
				"z": 2.4327336715,
				"element": "H" 
			},
			{
				"x": 1.4046054402,
				"y": 0.6620580767,
				"z": 3.0148989716,
				"element": "H" 
			},
			{
				"x": 2.021903529,
				"y": 1.1933558795,
				"z": 0.4919527867,
				"element": "H" 
			},
			{
				"x": 3.1411822626,
				"y": 0.35824228,
				"z": 1.5389969341,
				"element": "H" 
			},
			{
				"x": 3.2173937104,
				"y": -0.7521379325,
				"z": -0.5533089719,
				"element": "H" 
			},
			{
				"x": 2.5122505676,
				"y": -1.8350655168,
				"z": 0.6297033626,
				"element": "H" 
			},
			{
				"x": 1.3894635452,
				"y": -2.1150082124,
				"z": -1.4700979437,
				"element": "H" 
			},
			{
				"x": 0.2374186081,
				"y": -1.4452592452,
				"z": -0.3361491335,
				"element": "H" 
			},
			{
				"x": 0.5967308569,
				"y": 0.8465418095,
				"z": -1.3227802531,
				"element": "H" 
			},
			{
				"x": 1.7427042036,
				"y": 0.1737738021,
				"z": -2.4659767696,
				"element": "H" 
			},
			{
				"x": -1.2295984885,
				"y": -0.5941128738,
				"z": -2.2837012204,
				"element": "H" 
			},
			{
				"x": -0.5622829101,
				"y": 0.5777388963,
				"z": -3.4084805506,
				"element": "H" 
			},
			{
				"x": 0.874587249,
				"y": -1.2289908129,
				"z": -4.4361459625,
				"element": "H" 
			},
			{
				"x": 0.1552137262,
				"y": -2.4125909853,
				"z": -3.3511243051,
				"element": "H" 
			}
		],
		 "valence_orbital": [ 
			{
				"type": "occ",
				"energy": -0.31748,
				"method": "rhf"
			},
			{
				"type": "occ",
				"energy": -0.31603,
				"method": "rhf"
			},
			{
				"type": "occ",
				"energy": -0.31131,
				"method": "rhf"
			},
			{
				"type": "occ",
				"energy": -0.30889,
				"method": "rhf"
			},
			{
				"type": "occ",
				"energy": -0.30498,
				"method": "rhf"
			},
			{
				"type": "unocc",
				"energy": 0.03805,
				"method": "rhf"
			},
			{
				"type": "unocc",
				"energy": 0.0427,
				"method": "rhf"
			},
			{
				"type": "unocc",
				"energy": 0.06053,
				"method": "rhf"
			},
			{
				"type": "unocc",
				"energy": 0.08108,
				"method": "rhf"
			},
			{
				"type": "unocc",
				"energy": 0.09232,
				"method": "rhf"
			}
		],
		"cosmo_sigma_profile": { 
			"-0.025": 0.0,
			"-0.024": 0.0,
			"-0.023": 0.0,
			"-0.022": 0.0,
			"-0.021": 0.0,
			"-0.02": 0.0,
			"-0.019": 0.0,
			"-0.018": 0.0,
			"-0.017": 0.0,
			"-0.016": 0.0,
			"-0.015": 0.0,
			"-0.014": 0.0,
			"-0.013": 0.0,
			"-0.012": 0.0,
			"-0.011": 0.0,
			"-0.01": 0.0,
			"-0.009": 0.0,
			"-0.008": 0.918572346051,
			"-0.007": 4.67986292666,
			"-0.006": 5.44504090397,
			"-0.005": 7.21628487428,
			"-0.004": 13.1308179912,
			"-0.003": 15.1759111468,
			"-0.002": 38.9408242647,
			"-0.001": 54.6424914455,
			"0.0": 54.2861873668,
			"0.001": 44.2469908574,
			"0.002": 17.1376587551,
			"0.003": 1.63209865199,
			"0.004": 2.41872515528,
			"0.005": 1.79357225336,
			"0.006": 2.72878281566,
			"0.007": 2.22663557411,
			"0.008": 3.43667440712,
			"0.009": 3.3877484458,
			"0.01": 3.61480352685,
			"0.011": 3.13082849366,
			"0.012": 2.67865075832,
			"0.013": 2.32080006902,
			"0.014": 0.887016643363,
			"0.015": 0.0,
			"0.016": 0.0,
			"0.017": 0.0,
			"0.018": 0.0,
			"0.019": 0.0,
			"0.02": 0.0,
			"0.021": 0.0,
			"0.022": 0.0,
			"0.023": 0.0,
			"0.024": 0.0,
			"0.025": 0.0
		}
	}
}
