{
	 "smiles": "ClC1=CC=C(C=C1)N1C=NC(OCC(=O)NNC(=S)NCC2=CC=CC=C2)=N1", 
	 "Tm": 407.15, 
	 "num_atms": 45, 
	 "gaussian": { 
		 "optdone": 1, 
		 "sigma_profile": "yes", 
		 "theory": "DFT", 
		 "functional": "B3LYP", 
		 "basiset": "6-31G**", 
		 "properties": { 
			 "R2extent": 18412.6335, 
			 "electric_dipole_moment_norm": 8.67768711409, 
			 "electric_quadrupole_moment_norm": 47.8047947017, 
			 "total_energy": -2033.46991494, 
			 "HOMO_LUMO_gap": 0.13713, 
			 "cosmo_polarized_energy": -28.72, 
			 "cosmo_cavitation_energy": 55.29, 
			 "cosmo_dispersion_energy": -37.71, 
			 "cosmo_repulsion_energy": 2.89, 
			 "cosmo_total_nonelectrostatic_energy": 20.47, 
			 "SMD_solvation_energy": 7.9 
		},
		"coords": [
			{
				"x": -7.534996289,
				"y": 3.3251735803,
				"z": 0.1701775426,
				"element": "Cl" 
			},
			{
				"x": -5.784968513,
				"y": 3.233684397,
				"z": 0.1412332586,
				"element": "C" 
			},
			{
				"x": -5.1456659362,
				"y": 2.5836432507,
				"z": -0.9153485699,
				"element": "C" 
			},
			{
				"x": -3.7558610047,
				"y": 2.505432772,
				"z": -0.9357862781,
				"element": "C" 
			},
			{
				"x": -3.0156041546,
				"y": 3.0854853922,
				"z": 0.0980714842,
				"element": "C" 
			},
			{
				"x": -3.6582679646,
				"y": 3.7544284501,
				"z": 1.1438968917,
				"element": "C" 
			},
			{
				"x": -5.0495008412,
				"y": 3.8200483173,
				"z": 1.1712900286,
				"element": "C" 
			},
			{
				"x": -1.5981857913,
				"y": 2.9866391042,
				"z": 0.0758557481,
				"element": "N" 
			},
			{
				"x": -0.71784203,
				"y": 3.0434908154,
				"z": 1.0994892406,
				"element": "C" 
			},
			{
				"x": 0.5186857914,
				"y": 2.880125741,
				"z": 0.651263143,
				"element": "N" 
			},
			{
				"x": 0.3279247632,
				"y": 2.719726592,
				"z": -0.6903213255,
				"element": "C" 
			},
			{
				"x": 1.3163133088,
				"y": 2.4762741443,
				"z": -1.5616335451,
				"element": "O" 
			},
			{
				"x": 2.6269492398,
				"y": 2.9767030513,
				"z": -1.2536825859,
				"element": "C" 
			},
			{
				"x": 3.5492774569,
				"y": 1.9897743385,
				"z": -0.5270259743,
				"element": "C" 
			},
			{
				"x": 4.7269619553,
				"y": 1.9001626227,
				"z": -0.8221466249,
				"element": "O" 
			},
			{
				"x": 2.9578448722,
				"y": 1.2636987832,
				"z": 0.4895120229,
				"element": "N" 
			},
			{
				"x": 3.7785150084,
				"y": 0.5016865771,
				"z": 1.3234996205,
				"element": "N" 
			},
			{
				"x": 3.8494825161,
				"y": -0.8795145447,
				"z": 1.1612134311,
				"element": "C" 
			},
			{
				"x": 5.0671643771,
				"y": -1.7267245444,
				"z": 1.9459862504,
				"element": "S" 
			},
			{
				"x": 2.8609741608,
				"y": -1.4111553462,
				"z": 0.4161359546,
				"element": "N" 
			},
			{
				"x": 2.6890873971,
				"y": -2.8305565717,
				"z": 0.1329047741,
				"element": "C" 
			},
			{
				"x": 1.245585891,
				"y": -3.2658908262,
				"z": 0.2851449553,
				"element": "C" 
			},
			{
				"x": 0.5700640864,
				"y": -3.0758183452,
				"z": 1.4997448555,
				"element": "C" 
			},
			{
				"x": -0.7507488026,
				"y": -3.4950532851,
				"z": 1.6488208992,
				"element": "C" 
			},
			{
				"x": -1.4166673793,
				"y": -4.1123641165,
				"z": 0.5857086892,
				"element": "C" 
			},
			{
				"x": -0.7530603637,
				"y": -4.3058283027,
				"z": -0.6255991036,
				"element": "C" 
			},
			{
				"x": 0.5698937926,
				"y": -3.881488996,
				"z": -0.7736676439,
				"element": "C" 
			},
			{
				"x": -0.9276835974,
				"y": 2.7775957877,
				"z": -1.1003632466,
				"element": "N" 
			},
			{
				"x": -5.7298015329,
				"y": 2.137481827,
				"z": -1.712141008,
				"element": "H" 
			},
			{
				"x": -3.2369319294,
				"y": 2.0047246327,
				"z": -1.7439060941,
				"element": "H" 
			},
			{
				"x": -3.0864915263,
				"y": 4.2438584874,
				"z": 1.9250898802,
				"element": "H" 
			},
			{
				"x": -5.5573113904,
				"y": 4.3367919989,
				"z": 1.9775263846,
				"element": "H" 
			},
			{
				"x": -1.0045006586,
				"y": 3.1730878245,
				"z": 2.1323905034,
				"element": "H" 
			},
			{
				"x": 2.5546043692,
				"y": 3.9004072461,
				"z": -0.6678836091,
				"element": "H" 
			},
			{
				"x": 3.1005265398,
				"y": 3.193327128,
				"z": -2.2111670448,
				"element": "H" 
			},
			{
				"x": 2.1390123465,
				"y": 1.6824280925,
				"z": 0.9355357689,
				"element": "H" 
			},
			{
				"x": 4.6768296776,
				"y": 0.9219189555,
				"z": 1.5367036073,
				"element": "H" 
			},
			{
				"x": 2.2476185268,
				"y": -0.7572530212,
				"z": -0.0557492825,
				"element": "H" 
			},
			{
				"x": 3.0443621931,
				"y": -3.0541317845,
				"z": -0.8811734524,
				"element": "H" 
			},
			{
				"x": 3.3434473523,
				"y": -3.3641089041,
				"z": 0.8287378891,
				"element": "H" 
			},
			{
				"x": 1.0882411276,
				"y": -2.6002634259,
				"z": 2.3282786866,
				"element": "H" 
			},
			{
				"x": -1.2606086359,
				"y": -3.3464817311,
				"z": 2.5967095243,
				"element": "H" 
			},
			{
				"x": -2.4454185829,
				"y": -4.4407177377,
				"z": 0.7033874526,
				"element": "H" 
			},
			{
				"x": -1.2632401222,
				"y": -4.7833365494,
				"z": -1.4573805281,
				"element": "H" 
			},
			{
				"x": 1.0831902963,
				"y": -4.0320118768,
				"z": -1.7204325707,
				"element": "H" 
			}
		],
		 "valence_orbital": [ 
			{
				"type": "occ",
				"energy": -0.25468,
				"method": "rhf"
			},
			{
				"type": "occ",
				"energy": -0.25154,
				"method": "rhf"
			},
			{
				"type": "occ",
				"energy": -0.24876,
				"method": "rhf"
			},
			{
				"type": "occ",
				"energy": -0.20863,
				"method": "rhf"
			},
			{
				"type": "occ",
				"energy": -0.20001,
				"method": "rhf"
			},
			{
				"type": "unocc",
				"energy": -0.06288,
				"method": "rhf"
			},
			{
				"type": "unocc",
				"energy": -0.04307,
				"method": "rhf"
			},
			{
				"type": "unocc",
				"energy": -0.01294,
				"method": "rhf"
			},
			{
				"type": "unocc",
				"energy": -0.00977,
				"method": "rhf"
			},
			{
				"type": "unocc",
				"energy": -0.00621,
				"method": "rhf"
			}
		],
		"cosmo_sigma_profile": { 
			"-0.025": 0.0,
			"-0.024": 0.0,
			"-0.023": 0.0,
			"-0.022": 0.0,
			"-0.021": 0.0,
			"-0.02": 0.0,
			"-0.019": 0.0,
			"-0.018": 0.0,
			"-0.017": 0.0,
			"-0.016": 0.0,
			"-0.015": 0.0,
			"-0.014": 0.0297869809297,
			"-0.013": 0.703927408998,
			"-0.012": 3.69704682704,
			"-0.011": 4.0849747023,
			"-0.01": 4.1579448395,
			"-0.009": 7.17679286686,
			"-0.008": 13.0932643921,
			"-0.007": 17.2706644087,
			"-0.006": 23.1383212914,
			"-0.005": 27.6274838122,
			"-0.004": 30.0817664066,
			"-0.003": 30.7455629917,
			"-0.002": 28.1788049333,
			"-0.001": 26.1208766407,
			"0.0": 27.9116541311,
			"0.001": 30.141386573,
			"0.002": 34.0474947071,
			"0.003": 23.5053362704,
			"0.004": 25.4150915326,
			"0.005": 20.6813491664,
			"0.006": 15.209511741,
			"0.007": 8.52233190277,
			"0.008": 8.86229309133,
			"0.009": 9.65286302682,
			"0.01": 9.94267301132,
			"0.011": 11.2112378146,
			"0.012": 6.53646585988,
			"0.013": 0.7906770093,
			"0.014": 0.0,
			"0.015": 0.0,
			"0.016": 0.0,
			"0.017": 0.0,
			"0.018": 0.0,
			"0.019": 0.0,
			"0.02": 0.0,
			"0.021": 0.0,
			"0.022": 0.0,
			"0.023": 0.0,
			"0.024": 0.0,
			"0.025": 0.0
		}
	}
}
