{
	 "smiles": "CCCCC1=CC=C(NC(=O)OC2=CC=C(OC)C=C2)C=C1", 
	 "Tm": 416.15, 
	 "num_atms": 43, 
	 "gaussian": { 
		 "optdone": 1, 
		 "sigma_profile": "yes", 
		 "theory": "DFT", 
		 "functional": "B3LYP", 
		 "basiset": "6-31G**", 
		 "properties": { 
			 "R2extent": 11878.9979, 
			 "electric_dipole_moment_norm": 2.75879339386, 
			 "electric_quadrupole_moment_norm": 23.7382505057, 
			 "total_energy": -979.014236732, 
			 "HOMO_LUMO_gap": 0.20305, 
			 "cosmo_polarized_energy": -13.43, 
			 "cosmo_cavitation_energy": 46.48, 
			 "cosmo_dispersion_energy": -32.38, 
			 "cosmo_repulsion_energy": 2.51, 
			 "cosmo_total_nonelectrostatic_energy": 16.61, 
			 "SMD_solvation_energy": 9.32 
		},
		"coords": [
			{
				"x": 3.8121698624,
				"y": -2.5517991683,
				"z": -0.4024310778,
				"element": "C" 
			},
			{
				"x": 3.9533011127,
				"y": -3.7857485794,
				"z": -1.3028397222,
				"element": "C" 
			},
			{
				"x": 2.7513206927,
				"y": -4.0925915084,
				"z": -2.2148143391,
				"element": "C" 
			},
			{
				"x": 1.5121835418,
				"y": -4.7190910015,
				"z": -1.534108235,
				"element": "C" 
			},
			{
				"x": 0.6842020511,
				"y": -3.8027960369,
				"z": -0.6552478588,
				"element": "C" 
			},
			{
				"x": 0.5365041112,
				"y": -4.0376556708,
				"z": 0.7169611472,
				"element": "C" 
			},
			{
				"x": -0.2314742434,
				"y": -3.1966517418,
				"z": 1.5184633947,
				"element": "C" 
			},
			{
				"x": -0.8933979732,
				"y": -2.0898166953,
				"z": 0.967398438,
				"element": "C" 
			},
			{
				"x": -1.6847379019,
				"y": -1.3128127434,
				"z": 1.8449849105,
				"element": "N" 
			},
			{
				"x": -2.1415979979,
				"y": -0.016789755,
				"z": 1.805077901,
				"element": "C" 
			},
			{
				"x": -2.7634022969,
				"y": 0.4868816235,
				"z": 2.7179344373,
				"element": "O" 
			},
			{
				"x": -1.813350365,
				"y": 0.6029415986,
				"z": 0.6354815087,
				"element": "O" 
			},
			{
				"x": -2.1778949019,
				"y": 1.940232925,
				"z": 0.4384176818,
				"element": "C" 
			},
			{
				"x": -3.4852734105,
				"y": 2.3985596299,
				"z": 0.619347069,
				"element": "C" 
			},
			{
				"x": -3.786745579,
				"y": 3.7202135482,
				"z": 0.3178067099,
				"element": "C" 
			},
			{
				"x": -2.7974028548,
				"y": 4.5876688754,
				"z": -0.1709337317,
				"element": "C" 
			},
			{
				"x": -3.2078475011,
				"y": 5.8630214457,
				"z": -0.4364323029,
				"element": "O" 
			},
			{
				"x": -2.2488616622,
				"y": 6.7868123677,
				"z": -0.9232534221,
				"element": "C" 
			},
			{
				"x": -1.4930975721,
				"y": 4.1157808285,
				"z": -0.3547838602,
				"element": "C" 
			},
			{
				"x": -1.1892025475,
				"y": 2.7868964156,
				"z": -0.04433947,
				"element": "C" 
			},
			{
				"x": -0.7758626278,
				"y": -1.8535854002,
				"z": -0.4103942045,
				"element": "C" 
			},
			{
				"x": 0.0066871987,
				"y": -2.6998350953,
				"z": -1.1928448801,
				"element": "C" 
			},
			{
				"x": 4.7406376858,
				"y": -2.3680430533,
				"z": 0.1492887485,
				"element": "H" 
			},
			{
				"x": 3.0060127419,
				"y": -2.6622284866,
				"z": 0.3264829975,
				"element": "H" 
			},
			{
				"x": 3.5975287153,
				"y": -1.6560832655,
				"z": -0.9967201713,
				"element": "H" 
			},
			{
				"x": 4.1690483321,
				"y": -4.6698833768,
				"z": -0.6864748298,
				"element": "H" 
			},
			{
				"x": 4.8343738584,
				"y": -3.6484758167,
				"z": -1.943342665,
				"element": "H" 
			},
			{
				"x": 3.0824697309,
				"y": -4.7969442358,
				"z": -2.9888134239,
				"element": "H" 
			},
			{
				"x": 2.4541667158,
				"y": -3.1789231268,
				"z": -2.747410616,
				"element": "H" 
			},
			{
				"x": 0.8639209905,
				"y": -5.1163328778,
				"z": -2.3271040081,
				"element": "H" 
			},
			{
				"x": 1.8339911618,
				"y": -5.5877875682,
				"z": -0.9459433297,
				"element": "H" 
			},
			{
				"x": 1.0358589219,
				"y": -4.8893414935,
				"z": 1.1722284263,
				"element": "H" 
			},
			{
				"x": -0.3168349609,
				"y": -3.3972700901,
				"z": 2.5840119164,
				"element": "H" 
			},
			{
				"x": -1.8815634045,
				"y": -1.7285279061,
				"z": 2.7445347596,
				"element": "H" 
			},
			{
				"x": -4.2476916885,
				"y": 1.7342378756,
				"z": 1.0054999074,
				"element": "H" 
			},
			{
				"x": -4.7913892733,
				"y": 4.1063792807,
				"z": 0.4536927191,
				"element": "H" 
			},
			{
				"x": -1.8290289742,
				"y": 6.4672145882,
				"z": -1.8861990775,
				"element": "H" 
			},
			{
				"x": -1.4292786464,
				"y": 6.9358875159,
				"z": -0.2080820704,
				"element": "H" 
			},
			{
				"x": -2.7801094932,
				"y": 7.7299743905,
				"z": -1.0603541487,
				"element": "H" 
			},
			{
				"x": -0.7099652993,
				"y": 4.7621059063,
				"z": -0.7319774087,
				"element": "H" 
			},
			{
				"x": -0.1830917421,
				"y": 2.4040368474,
				"z": -0.1801902507,
				"element": "H" 
			},
			{
				"x": -1.2937960288,
				"y": -1.020943455,
				"z": -0.8647928562,
				"element": "H" 
			},
			{
				"x": 0.0779215215,
				"y": -2.4974875142,
				"z": -2.2589847124,
				"element": "H" 
			}
		],
		 "valence_orbital": [ 
			{
				"type": "occ",
				"energy": -0.28018,
				"method": "rhf"
			},
			{
				"type": "occ",
				"energy": -0.25242,
				"method": "rhf"
			},
			{
				"type": "occ",
				"energy": -0.25195,
				"method": "rhf"
			},
			{
				"type": "occ",
				"energy": -0.21798,
				"method": "rhf"
			},
			{
				"type": "occ",
				"energy": -0.21053,
				"method": "rhf"
			},
			{
				"type": "unocc",
				"energy": -0.00748,
				"method": "rhf"
			},
			{
				"type": "unocc",
				"energy": -0.00374,
				"method": "rhf"
			},
			{
				"type": "unocc",
				"energy": -0.00356,
				"method": "rhf"
			},
			{
				"type": "unocc",
				"energy": 0.01546,
				"method": "rhf"
			},
			{
				"type": "unocc",
				"energy": 0.06131,
				"method": "rhf"
			}
		],
		"cosmo_sigma_profile": { 
			"-0.025": 0.0,
			"-0.024": 0.0,
			"-0.023": 0.0,
			"-0.022": 0.0,
			"-0.021": 0.0,
			"-0.02": 0.0,
			"-0.019": 0.0,
			"-0.018": 0.0,
			"-0.017": 0.0,
			"-0.016": 0.0,
			"-0.015": 0.40546794299,
			"-0.014": 1.00046245901,
			"-0.013": 1.23858278434,
			"-0.012": 1.625226744,
			"-0.011": 0.6625308551,
			"-0.01": 0.836404616945,
			"-0.009": 1.35642966198,
			"-0.008": 1.44096823796,
			"-0.007": 3.83119908771,
			"-0.006": 13.0576857321,
			"-0.005": 22.3143512921,
			"-0.004": 24.4357200613,
			"-0.003": 29.9369026687,
			"-0.002": 34.0524513574,
			"-0.001": 37.2101693265,
			"0.0": 37.3748083338,
			"0.001": 37.1558933456,
			"0.002": 27.5454853958,
			"0.003": 21.9338928954,
			"0.004": 24.3273998794,
			"0.005": 17.0916173424,
			"0.006": 6.21022026209,
			"0.007": 3.38834822597,
			"0.008": 2.79051943989,
			"0.009": 2.97468248218,
			"0.01": 2.88350874,
			"0.011": 3.1171499857,
			"0.012": 4.22290294687,
			"0.013": 2.94389095381,
			"0.014": 0.0,
			"0.015": 0.0,
			"0.016": 0.0,
			"0.017": 0.0,
			"0.018": 0.0,
			"0.019": 0.0,
			"0.02": 0.0,
			"0.021": 0.0,
			"0.022": 0.0,
			"0.023": 0.0,
			"0.024": 0.0,
			"0.025": 0.0
		}
	}
}
