{
	 "smiles": "CCCCN1C(=O)NC(=O)C2=C1N=CC(=C2)C(O)=O", 
	 "Tm": 490.15, 
	 "num_atms": 32, 
	 "gaussian": { 
		 "optdone": 1, 
		 "sigma_profile": "yes", 
		 "theory": "DFT", 
		 "functional": "B3LYP", 
		 "basiset": "6-31G**", 
		 "properties": { 
			 "R2extent": 6018.704, 
			 "electric_dipole_moment_norm": 4.8361121389, 
			 "electric_quadrupole_moment_norm": 29.6522098573, 
			 "total_energy": -930.33404185, 
			 "HOMO_LUMO_gap": 0.1772, 
			 "cosmo_polarized_energy": -22.94, 
			 "cosmo_cavitation_energy": 36.32, 
			 "cosmo_dispersion_energy": -25.8, 
			 "cosmo_repulsion_energy": 1.99, 
			 "cosmo_total_nonelectrostatic_energy": 12.51, 
			 "SMD_solvation_energy": 7.79 
		},
		"coords": [
			{
				"x": 2.4904877341,
				"y": -3.3301285537,
				"z": -0.2246611926,
				"element": "C" 
			},
			{
				"x": 1.8491398963,
				"y": -1.9436851287,
				"z": -0.3444155674,
				"element": "C" 
			},
			{
				"x": 2.782898429,
				"y": -0.8242582223,
				"z": 0.1325333777,
				"element": "C" 
			},
			{
				"x": 2.2237471126,
				"y": 0.5975753574,
				"z": -0.0036018789,
				"element": "C" 
			},
			{
				"x": 1.026985969,
				"y": 0.8488343017,
				"z": 0.8347133007,
				"element": "N" 
			},
			{
				"x": 1.263530353,
				"y": 1.0894903556,
				"z": 2.1916529021,
				"element": "C" 
			},
			{
				"x": 2.3813748573,
				"y": 1.096263872,
				"z": 2.6750390793,
				"element": "O" 
			},
			{
				"x": 0.1331861609,
				"y": 1.3249254962,
				"z": 2.9697787512,
				"element": "N" 
			},
			{
				"x": -1.1986015282,
				"y": 1.3726664826,
				"z": 2.5694484544,
				"element": "C" 
			},
			{
				"x": -2.1006133369,
				"y": 1.5956516635,
				"z": 3.3579441977,
				"element": "O" 
			},
			{
				"x": -1.3709861164,
				"y": 1.1324598439,
				"z": 1.12476645,
				"element": "C" 
			},
			{
				"x": -0.2515636371,
				"y": 0.8739590542,
				"z": 0.2961475572,
				"element": "C" 
			},
			{
				"x": -0.3765062866,
				"y": 0.6440516759,
				"z": -1.0192882522,
				"element": "N" 
			},
			{
				"x": -1.5976710458,
				"y": 0.682679035,
				"z": -1.5471264921,
				"element": "C" 
			},
			{
				"x": -2.7712320721,
				"y": 0.9461665182,
				"z": -0.8252976035,
				"element": "C" 
			},
			{
				"x": -2.6346001576,
				"y": 1.1538687375,
				"z": 0.5500242011,
				"element": "C" 
			},
			{
				"x": -4.1424774011,
				"y": 0.9554319202,
				"z": -1.4234064169,
				"element": "C" 
			},
			{
				"x": -4.2273016385,
				"y": 1.1050217556,
				"z": -2.7720419374,
				"element": "O" 
			},
			{
				"x": -5.14468427,
				"y": 0.8308655934,
				"z": -0.7617885886,
				"element": "O" 
			},
			{
				"x": 3.4018369264,
				"y": -3.3994165375,
				"z": -0.8294824045,
				"element": "H" 
			},
			{
				"x": 2.7659850856,
				"y": -3.5514822691,
				"z": 0.8126275348,
				"element": "H" 
			},
			{
				"x": 1.8070269847,
				"y": -4.1156921271,
				"z": -0.5622736234,
				"element": "H" 
			},
			{
				"x": 1.5553490899,
				"y": -1.757599996,
				"z": -1.3849733096,
				"element": "H" 
			},
			{
				"x": 0.9206556283,
				"y": -1.9238772762,
				"z": 0.2405318518,
				"element": "H" 
			},
			{
				"x": 3.0731182592,
				"y": -0.9906359208,
				"z": 1.1759903038,
				"element": "H" 
			},
			{
				"x": 3.7124483,
				"y": -0.8525988114,
				"z": -0.452218724,
				"element": "H" 
			},
			{
				"x": 1.9304231483,
				"y": 0.8071052465,
				"z": -1.0311467611,
				"element": "H" 
			},
			{
				"x": 2.9773838589,
				"y": 1.3208720462,
				"z": 0.312499194,
				"element": "H" 
			},
			{
				"x": 0.3225771632,
				"y": 1.4913793568,
				"z": 3.951243023,
				"element": "H" 
			},
			{
				"x": -1.637745462,
				"y": 0.4572240177,
				"z": -2.6131858997,
				"element": "H" 
			},
			{
				"x": -3.5049116716,
				"y": 1.3349511608,
				"z": 1.1719107155,
				"element": "H" 
			},
			{
				"x": -3.3759603328,
				"y": 1.3705313518,
				"z": -3.1458422425,
				"element": "H" 
			}
		],
		 "valence_orbital": [ 
			{
				"type": "occ",
				"energy": -0.30522,
				"method": "rhf"
			},
			{
				"type": "occ",
				"energy": -0.30066,
				"method": "rhf"
			},
			{
				"type": "occ",
				"energy": -0.2869,
				"method": "rhf"
			},
			{
				"type": "occ",
				"energy": -0.27759,
				"method": "rhf"
			},
			{
				"type": "occ",
				"energy": -0.25949,
				"method": "rhf"
			},
			{
				"type": "unocc",
				"energy": -0.08229,
				"method": "rhf"
			},
			{
				"type": "unocc",
				"energy": -0.07195,
				"method": "rhf"
			},
			{
				"type": "unocc",
				"energy": -0.00499,
				"method": "rhf"
			},
			{
				"type": "unocc",
				"energy": 0.00903,
				"method": "rhf"
			},
			{
				"type": "unocc",
				"energy": 0.04606,
				"method": "rhf"
			}
		],
		"cosmo_sigma_profile": { 
			"-0.025": 0.0,
			"-0.024": 0.0,
			"-0.023": 0.0,
			"-0.022": 0.0,
			"-0.021": 0.0,
			"-0.02": 0.241730093583,
			"-0.019": 1.20651889707,
			"-0.018": 1.08446595671,
			"-0.017": 1.64664437308,
			"-0.016": 1.64849400531,
			"-0.015": 1.39292588936,
			"-0.014": 1.7603475728,
			"-0.013": 2.39615600201,
			"-0.012": 2.26081137083,
			"-0.011": 1.94863346492,
			"-0.01": 2.22105439278,
			"-0.009": 2.17748113175,
			"-0.008": 3.72385760524,
			"-0.007": 4.62027125214,
			"-0.006": 5.81729670364,
			"-0.005": 10.8912490675,
			"-0.004": 19.2221865978,
			"-0.003": 30.8274345915,
			"-0.002": 35.7739538981,
			"-0.001": 25.800882657,
			"0.0": 21.16143099,
			"0.001": 19.5886633321,
			"0.002": 11.9442932404,
			"0.003": 6.51018349331,
			"0.004": 6.25728562507,
			"0.005": 8.36834845648,
			"0.006": 5.22293035547,
			"0.007": 6.03369717215,
			"0.008": 5.73358816995,
			"0.009": 6.92322970658,
			"0.01": 8.77926218952,
			"0.011": 12.7161600137,
			"0.012": 11.0518519107,
			"0.013": 1.15857389123,
			"0.014": 0.0,
			"0.015": 0.0,
			"0.016": 0.0,
			"0.017": 0.0,
			"0.018": 0.0,
			"0.019": 0.0,
			"0.02": 0.0,
			"0.021": 0.0,
			"0.022": 0.0,
			"0.023": 0.0,
			"0.024": 0.0,
			"0.025": 0.0
		}
	}
}
