{
	 "smiles": "CC1(C)OC[C@@H](O1)[C@@H](C#C)N(O)CC1=CC=CC=C1", 
	 "Tm": 388.0, 
	 "num_atms": 38, 
	 "gaussian": { 
		 "optdone": 1, 
		 "sigma_profile": "yes", 
		 "theory": "DFT", 
		 "functional": "B3LYP", 
		 "basiset": "6-31G**", 
		 "properties": { 
			 "R2extent": 5553.9308, 
			 "electric_dipole_moment_norm": 2.36040305245, 
			 "electric_quadrupole_moment_norm": 13.9804252739, 
			 "total_energy": -863.319298789, 
			 "HOMO_LUMO_gap": 0.23178, 
			 "cosmo_polarized_energy": -12.74, 
			 "cosmo_cavitation_energy": 39.87, 
			 "cosmo_dispersion_energy": -26.4, 
			 "cosmo_repulsion_energy": 2.04, 
			 "cosmo_total_nonelectrostatic_energy": 15.51, 
			 "SMD_solvation_energy": 7.15 
		},
		"coords": [
			{
				"x": -0.7681453768,
				"y": -2.4995915592,
				"z": -2.3099661569,
				"element": "C" 
			},
			{
				"x": -0.6261579796,
				"y": -0.983767433,
				"z": -2.1588387706,
				"element": "C" 
			},
			{
				"x": -0.7625424443,
				"y": -0.2359010805,
				"z": -3.4793880286,
				"element": "C" 
			},
			{
				"x": 0.6271597165,
				"y": -0.6374406949,
				"z": -1.5815161267,
				"element": "O" 
			},
			{
				"x": 0.4359515763,
				"y": -0.5296046014,
				"z": -0.176092236,
				"element": "C" 
			},
			{
				"x": -1.0003347251,
				"y": 0.00206255,
				"z": -0.0628558563,
				"element": "C" 
			},
			{
				"x": -1.6273668081,
				"y": -0.5178580744,
				"z": -1.2369864887,
				"element": "O" 
			},
			{
				"x": -1.8873160083,
				"y": -0.4427520004,
				"z": 1.1277486625,
				"element": "C" 
			},
			{
				"x": -1.755127486,
				"y": -1.870685559,
				"z": 1.477029595,
				"element": "C" 
			},
			{
				"x": -1.6790742368,
				"y": -3.0147044327,
				"z": 1.8640984639,
				"element": "C" 
			},
			{
				"x": -1.8115730706,
				"y": 0.4426102153,
				"z": 2.3136467103,
				"element": "N" 
			},
			{
				"x": -2.9918429639,
				"y": 0.1942428712,
				"z": 3.0832007147,
				"element": "O" 
			},
			{
				"x": -0.6555942902,
				"y": 0.2946740709,
				"z": 3.2135696485,
				"element": "C" 
			},
			{
				"x": 0.5744852051,
				"y": 1.0524513163,
				"z": 2.7576513223,
				"element": "C" 
			},
			{
				"x": 0.4659193624,
				"y": 2.3482404298,
				"z": 2.2333129273,
				"element": "C" 
			},
			{
				"x": 1.6074450103,
				"y": 3.0591320727,
				"z": 1.862951958,
				"element": "C" 
			},
			{
				"x": 2.8741211382,
				"y": 2.4905711098,
				"z": 2.0224974067,
				"element": "C" 
			},
			{
				"x": 2.9917750076,
				"y": 1.2060761324,
				"z": 2.5554716124,
				"element": "C" 
			},
			{
				"x": 1.8472780562,
				"y": 0.4918024181,
				"z": 2.9170833574,
				"element": "C" 
			},
			{
				"x": -0.649018826,
				"y": -2.988638632,
				"z": -1.3399893026,
				"element": "H" 
			},
			{
				"x": -0.0110329531,
				"y": -2.8845734088,
				"z": -2.9991479728,
				"element": "H" 
			},
			{
				"x": -1.7594765145,
				"y": -2.7501522403,
				"z": -2.6983746609,
				"element": "H" 
			},
			{
				"x": -0.672819258,
				"y": 0.8383101849,
				"z": -3.3022795488,
				"element": "H" 
			},
			{
				"x": -1.735000039,
				"y": -0.4425657162,
				"z": -3.934146085,
				"element": "H" 
			},
			{
				"x": 0.0239031498,
				"y": -0.5460281159,
				"z": -4.1732761878,
				"element": "H" 
			},
			{
				"x": 1.1871822101,
				"y": 0.1544187034,
				"z": 0.2163213217,
				"element": "H" 
			},
			{
				"x": 0.5379978745,
				"y": -1.5043717674,
				"z": 0.321345106,
				"element": "H" 
			},
			{
				"x": -1.0156399156,
				"y": 1.0992067149,
				"z": -0.0811364011,
				"element": "H" 
			},
			{
				"x": -2.9075103091,
				"y": -0.2860786754,
				"z": 0.7634912933,
				"element": "H" 
			},
			{
				"x": -1.6096846457,
				"y": -4.0337974424,
				"z": 2.1689937804,
				"element": "H" 
			},
			{
				"x": -2.9566492566,
				"y": -0.7495732988,
				"z": 3.3382161616,
				"element": "H" 
			},
			{
				"x": -1.0018281701,
				"y": 0.7161030832,
				"z": 4.1625472823,
				"element": "H" 
			},
			{
				"x": -0.4081419021,
				"y": -0.7634611447,
				"z": 3.4001719908,
				"element": "H" 
			},
			{
				"x": -0.5204738891,
				"y": 2.7846576856,
				"z": 2.1113227872,
				"element": "H" 
			},
			{
				"x": 1.5091925902,
				"y": 4.0598608716,
				"z": 1.4516030295,
				"element": "H" 
			},
			{
				"x": 3.7620921245,
				"y": 3.0451882126,
				"z": 1.7332834291,
				"element": "H" 
			},
			{
				"x": 3.97213678,
				"y": 0.7557133343,
				"z": 2.6825744334,
				"element": "H" 
			},
			{
				"x": 1.9430112671,
				"y": -0.5126760996,
				"z": 3.3224608284,
				"element": "H" 
			}
		],
		 "valence_orbital": [ 
			{
				"type": "occ",
				"energy": -0.26261,
				"method": "rhf"
			},
			{
				"type": "occ",
				"energy": -0.25499,
				"method": "rhf"
			},
			{
				"type": "occ",
				"energy": -0.25068,
				"method": "rhf"
			},
			{
				"type": "occ",
				"energy": -0.24677,
				"method": "rhf"
			},
			{
				"type": "occ",
				"energy": -0.2422,
				"method": "rhf"
			},
			{
				"type": "unocc",
				"energy": -0.01042,
				"method": "rhf"
			},
			{
				"type": "unocc",
				"energy": -0.00645,
				"method": "rhf"
			},
			{
				"type": "unocc",
				"energy": 0.0264,
				"method": "rhf"
			},
			{
				"type": "unocc",
				"energy": 0.0376,
				"method": "rhf"
			},
			{
				"type": "unocc",
				"energy": 0.07593,
				"method": "rhf"
			}
		],
		"cosmo_sigma_profile": { 
			"-0.025": 0.0,
			"-0.024": 0.0,
			"-0.023": 0.0,
			"-0.022": 0.0,
			"-0.021": 0.0,
			"-0.02": 0.0,
			"-0.019": 0.0,
			"-0.018": 0.0,
			"-0.017": 0.0,
			"-0.016": 0.0,
			"-0.015": 0.0,
			"-0.014": 0.0454491898681,
			"-0.013": 0.68500018597,
			"-0.012": 1.59857803257,
			"-0.011": 1.91381111378,
			"-0.01": 1.3081838171,
			"-0.009": 2.19649073532,
			"-0.008": 2.77102833069,
			"-0.007": 1.67887610992,
			"-0.006": 7.88362440605,
			"-0.005": 17.0409662214,
			"-0.004": 27.4159315937,
			"-0.003": 31.9386045771,
			"-0.002": 31.5641049941,
			"-0.001": 31.5640539801,
			"0.0": 31.6004574659,
			"0.001": 25.8301975376,
			"0.002": 19.1522175533,
			"0.003": 15.5770419542,
			"0.004": 14.5101939043,
			"0.005": 11.4208936012,
			"0.006": 8.26057452551,
			"0.007": 4.48981590971,
			"0.008": 4.34147764349,
			"0.009": 3.73207254883,
			"0.01": 3.65757508348,
			"0.011": 4.53020458983,
			"0.012": 5.55406569008,
			"0.013": 1.83544412389,
			"0.014": 0.0,
			"0.015": 0.0,
			"0.016": 0.0,
			"0.017": 0.0,
			"0.018": 0.0,
			"0.019": 0.0,
			"0.02": 0.0,
			"0.021": 0.0,
			"0.022": 0.0,
			"0.023": 0.0,
			"0.024": 0.0,
			"0.025": 0.0
		}
	}
}
