{
	 "smiles": "CC(C)(CN)S(=O)(=O)C1=CC=C(Br)C=C1", 
	 "Tm": 348.15, 
	 "num_atms": 29, 
	 "gaussian": { 
		 "optdone": 1, 
		 "sigma_profile": "yes", 
		 "theory": "DFT", 
		 "functional": "B3LYP", 
		 "basiset": "6-31G**", 
		 "properties": { 
			 "R2extent": 8123.4094, 
			 "electric_dipole_moment_norm": 4.3733675423, 
			 "electric_quadrupole_moment_norm": 8.67249871663, 
			 "total_energy": -3564.2328102, 
			 "HOMO_LUMO_gap": 0.18518, 
			 "cosmo_polarized_energy": -15.32, 
			 "cosmo_cavitation_energy": 34.01, 
			 "cosmo_dispersion_energy": -24.84, 
			 "cosmo_repulsion_energy": 1.89, 
			 "cosmo_total_nonelectrostatic_energy": 11.05, 
			 "SMD_solvation_energy": 3.0 
		},
		"coords": [
			{
				"x": 0.4512530502,
				"y": -2.436703113,
				"z": -0.3403526539,
				"element": "C" 
			},
			{
				"x": 0.4182069595,
				"y": -1.1404803497,
				"z": 0.4824446891,
				"element": "C" 
			},
			{
				"x": -0.5663326302,
				"y": -1.2542031157,
				"z": 1.6529874228,
				"element": "C" 
			},
			{
				"x": 1.8177396022,
				"y": -0.7330597415,
				"z": 0.9955712573,
				"element": "C" 
			},
			{
				"x": 2.8720747826,
				"y": -0.8905904225,
				"z": 0.0006796144,
				"element": "N" 
			},
			{
				"x": -0.2306243504,
				"y": 0.1669554215,
				"z": -0.695645316,
				"element": "S" 
			},
			{
				"x": 0.8288078867,
				"y": 0.4424426585,
				"z": -1.6915493024,
				"element": "O" 
			},
			{
				"x": -1.5759431733,
				"y": -0.25335564,
				"z": -1.129252643,
				"element": "O" 
			},
			{
				"x": -0.4444468866,
				"y": 1.6891842483,
				"z": 0.2565151836,
				"element": "C" 
			},
			{
				"x": 0.6085131423,
				"y": 2.6026614093,
				"z": 0.3432283698,
				"element": "C" 
			},
			{
				"x": 0.4298692525,
				"y": 3.7945586375,
				"z": 1.0442283606,
				"element": "C" 
			},
			{
				"x": -0.8052506092,
				"y": 4.054722311,
				"z": 1.6396223322,
				"element": "C" 
			},
			{
				"x": -1.0517859434,
				"y": 5.6830754282,
				"z": 2.6004826411,
				"element": "Br" 
			},
			{
				"x": -1.8673988197,
				"y": 3.1552710334,
				"z": 1.537583731,
				"element": "C" 
			},
			{
				"x": -1.6847118321,
				"y": 1.9640689002,
				"z": 0.8362828957,
				"element": "C" 
			},
			{
				"x": 1.1224263162,
				"y": -2.3480206336,
				"z": -1.194545164,
				"element": "H" 
			},
			{
				"x": -0.5506313137,
				"y": -2.7023539741,
				"z": -0.6849953466,
				"element": "H" 
			},
			{
				"x": 0.8307637487,
				"y": -3.2401454975,
				"z": 0.299192274,
				"element": "H" 
			},
			{
				"x": -1.5825753411,
				"y": -1.4353969028,
				"z": 1.2946622685,
				"element": "H" 
			},
			{
				"x": -0.2708839283,
				"y": -2.1024270488,
				"z": 2.2790745715,
				"element": "H" 
			},
			{
				"x": -0.5674578314,
				"y": -0.35839641,
				"z": 2.2811046346,
				"element": "H" 
			},
			{
				"x": 1.7416615315,
				"y": 0.2755240791,
				"z": 1.4414242259,
				"element": "H" 
			},
			{
				"x": 2.0386835114,
				"y": -1.4104705109,
				"z": 1.8309878442,
				"element": "H" 
			},
			{
				"x": 2.7008025078,
				"y": -0.2768693696,
				"z": -0.7918961462,
				"element": "H" 
			},
			{
				"x": 3.771130205,
				"y": -0.6478776647,
				"z": 0.4052814708,
				"element": "H" 
			},
			{
				"x": 1.5484486661,
				"y": 2.3930083636,
				"z": -0.1554242313,
				"element": "H" 
			},
			{
				"x": 1.2347128874,
				"y": 4.5165083927,
				"z": 1.1194375184,
				"element": "H" 
			},
			{
				"x": -2.8241215708,
				"y": 3.3871310229,
				"z": 1.9909997023,
				"element": "H" 
			},
			{
				"x": -2.5026298199,
				"y": 1.2621384883,
				"z": 0.7168697959,
				"element": "H" 
			}
		],
		 "valence_orbital": [ 
			{
				"type": "occ",
				"energy": -0.29851,
				"method": "rhf"
			},
			{
				"type": "occ",
				"energy": -0.28548,
				"method": "rhf"
			},
			{
				"type": "occ",
				"energy": -0.27815,
				"method": "rhf"
			},
			{
				"type": "occ",
				"energy": -0.26478,
				"method": "rhf"
			},
			{
				"type": "occ",
				"energy": -0.23755,
				"method": "rhf"
			},
			{
				"type": "unocc",
				"energy": -0.05237,
				"method": "rhf"
			},
			{
				"type": "unocc",
				"energy": -0.03654,
				"method": "rhf"
			},
			{
				"type": "unocc",
				"energy": -0.00845,
				"method": "rhf"
			},
			{
				"type": "unocc",
				"energy": 0.05054,
				"method": "rhf"
			},
			{
				"type": "unocc",
				"energy": 0.06701,
				"method": "rhf"
			}
		],
		"cosmo_sigma_profile": { 
			"-0.025": 0.0,
			"-0.024": 0.0,
			"-0.023": 0.0,
			"-0.022": 0.0,
			"-0.021": 0.0,
			"-0.02": 0.0,
			"-0.019": 0.0,
			"-0.018": 0.0,
			"-0.017": 0.0,
			"-0.016": 0.0,
			"-0.015": 0.0,
			"-0.014": 0.0,
			"-0.013": 0.0,
			"-0.012": 0.0,
			"-0.011": 0.0523659668509,
			"-0.01": 1.26371240135,
			"-0.009": 1.45686266874,
			"-0.008": 5.36587722516,
			"-0.007": 9.97830203105,
			"-0.006": 10.4068217635,
			"-0.005": 18.4855393663,
			"-0.004": 21.4828583737,
			"-0.003": 25.7062558017,
			"-0.002": 24.4988887082,
			"-0.001": 22.6915293548,
			"0.0": 24.6191625561,
			"0.001": 24.7426255271,
			"0.002": 13.5238795664,
			"0.003": 12.6550244468,
			"0.004": 14.8992262992,
			"0.005": 4.12977913342,
			"0.006": 3.069262473,
			"0.007": 3.00069213289,
			"0.008": 3.28916963324,
			"0.009": 4.62422586037,
			"0.01": 4.53342794061,
			"0.011": 6.66230613274,
			"0.012": 6.43235176566,
			"0.013": 1.31983197736,
			"0.014": 0.753870755538,
			"0.015": 0.357067707067,
			"0.016": 0.426527726999,
			"0.017": 0.732592484195,
			"0.018": 0.219580202807,
			"0.019": 0.0014886751929,
			"0.02": 0.0,
			"0.021": 0.0,
			"0.022": 0.0,
			"0.023": 0.0,
			"0.024": 0.0,
			"0.025": 0.0
		}
	}
}
