{
	 "smiles": "OC(C1CC1)C1=CC=C(Br)C=C1", 
	 "Tm": 330.35, 
	 "num_atms": 23, 
	 "gaussian": { 
		 "optdone": 1, 
		 "sigma_profile": "yes", 
		 "theory": "DFT", 
		 "functional": "B3LYP", 
		 "basiset": "6-31G**", 
		 "properties": { 
			 "R2extent": 6870.8654, 
			 "electric_dipole_moment_norm": 1.51018504164, 
			 "electric_quadrupole_moment_norm": 8.81975352547, 
			 "total_energy": -3034.28430787, 
			 "HOMO_LUMO_gap": 0.22076, 
			 "cosmo_polarized_energy": -8.2, 
			 "cosmo_cavitation_energy": 28.07, 
			 "cosmo_dispersion_energy": -20.63, 
			 "cosmo_repulsion_energy": 1.66, 
			 "cosmo_total_nonelectrostatic_energy": 9.11, 
			 "SMD_solvation_energy": 3.21 
		},
		"coords": [
			{
				"x": -0.3364243528,
				"y": 1.7503358901,
				"z": 0.9415669645,
				"element": "O" 
			},
			{
				"x": -0.4218642883,
				"y": 0.8992325078,
				"z": -0.2038621904,
				"element": "C" 
			},
			{
				"x": -0.7487909405,
				"y": -0.4857897798,
				"z": 0.3391067555,
				"element": "C" 
			},
			{
				"x": -0.5082617817,
				"y": -1.753096322,
				"z": -0.4417049634,
				"element": "C" 
			},
			{
				"x": 0.3050889435,
				"y": -1.4612484886,
				"z": 0.7959432283,
				"element": "C" 
			},
			{
				"x": 0.8348836987,
				"y": 0.9809531585,
				"z": -1.0581263098,
				"element": "C" 
			},
			{
				"x": 0.7736187201,
				"y": 0.7989068418,
				"z": -2.4453396756,
				"element": "C" 
			},
			{
				"x": 1.9221308837,
				"y": 0.8681214046,
				"z": -3.2345809458,
				"element": "C" 
			},
			{
				"x": 3.1471935087,
				"y": 1.1311894093,
				"z": -2.6241196685,
				"element": "C" 
			},
			{
				"x": 4.7278136881,
				"y": 1.2380491755,
				"z": -3.6955445582,
				"element": "Br" 
			},
			{
				"x": 3.2366876184,
				"y": 1.3269813258,
				"z": -1.2469980874,
				"element": "C" 
			},
			{
				"x": 2.0786083071,
				"y": 1.2510940634,
				"z": -0.4727271546,
				"element": "C" 
			},
			{
				"x": -0.2126203761,
				"y": 2.6552513007,
				"z": 0.6242775822,
				"element": "H" 
			},
			{
				"x": -1.2733326646,
				"y": 1.2087477215,
				"z": -0.8333962943,
				"element": "H" 
			},
			{
				"x": -1.6572007522,
				"y": -0.4602215674,
				"z": 0.9368863834,
				"element": "H" 
			},
			{
				"x": -1.2687203519,
				"y": -2.526972932,
				"z": -0.3986867328,
				"element": "H" 
			},
			{
				"x": -0.0006422964,
				"y": -1.6797985445,
				"z": -1.398729498,
				"element": "H" 
			},
			{
				"x": 0.1075701881,
				"y": -2.0321466586,
				"z": 1.6979455027,
				"element": "H" 
			},
			{
				"x": 1.3476735476,
				"y": -1.1944930589,
				"z": 0.6558648877,
				"element": "H" 
			},
			{
				"x": -0.1850114956,
				"y": 0.6070730186,
				"z": -2.9213131588,
				"element": "H" 
			},
			{
				"x": 1.865698247,
				"y": 0.7288672093,
				"z": -4.308237424,
				"element": "H" 
			},
			{
				"x": 4.1960048149,
				"y": 1.5376833612,
				"z": -0.7877334051,
				"element": "H" 
			},
			{
				"x": 2.128997134,
				"y": 1.4144809639,
				"z": 0.5990087624,
				"element": "H" 
			}
		],
		 "valence_orbital": [ 
			{
				"type": "occ",
				"energy": -0.29047,
				"method": "rhf"
			},
			{
				"type": "occ",
				"energy": -0.28731,
				"method": "rhf"
			},
			{
				"type": "occ",
				"energy": -0.27478,
				"method": "rhf"
			},
			{
				"type": "occ",
				"energy": -0.26508,
				"method": "rhf"
			},
			{
				"type": "occ",
				"energy": -0.23979,
				"method": "rhf"
			},
			{
				"type": "unocc",
				"energy": -0.01903,
				"method": "rhf"
			},
			{
				"type": "unocc",
				"energy": -0.01734,
				"method": "rhf"
			},
			{
				"type": "unocc",
				"energy": 0.00696,
				"method": "rhf"
			},
			{
				"type": "unocc",
				"energy": 0.07861,
				"method": "rhf"
			},
			{
				"type": "unocc",
				"energy": 0.09893,
				"method": "rhf"
			}
		],
		"cosmo_sigma_profile": { 
			"-0.025": 0.0,
			"-0.024": 0.0,
			"-0.023": 0.0,
			"-0.022": 0.0,
			"-0.021": 0.0,
			"-0.02": 0.0,
			"-0.019": 0.0,
			"-0.018": 0.0,
			"-0.017": 0.0,
			"-0.016": 0.310459186916,
			"-0.015": 0.828062269024,
			"-0.014": 0.791041257459,
			"-0.013": 1.03047453991,
			"-0.012": 1.04736958035,
			"-0.011": 0.490911716163,
			"-0.01": 0.479267738649,
			"-0.009": 0.421228731067,
			"-0.008": 1.4393970967,
			"-0.007": 3.98071933763,
			"-0.006": 7.49600708121,
			"-0.005": 11.3897717435,
			"-0.004": 17.1270664273,
			"-0.003": 19.7092875029,
			"-0.002": 19.7330930746,
			"-0.001": 17.3439193853,
			"0.0": 17.6824194136,
			"0.001": 17.3006035304,
			"0.002": 21.0303755424,
			"0.003": 21.1107102584,
			"0.004": 19.3247977303,
			"0.005": 11.642775143,
			"0.006": 2.45382118457,
			"0.007": 1.54931621472,
			"0.008": 1.31172262035,
			"0.009": 0.903429620852,
			"0.01": 1.65085761474,
			"0.011": 1.51293529559,
			"0.012": 1.52938001871,
			"0.013": 1.14986499971,
			"0.014": 1.71759047122,
			"0.015": 0.0309099745559,
			"0.016": 0.0,
			"0.017": 0.0,
			"0.018": 0.0,
			"0.019": 0.0,
			"0.02": 0.0,
			"0.021": 0.0,
			"0.022": 0.0,
			"0.023": 0.0,
			"0.024": 0.0,
			"0.025": 0.0
		}
	}
}
