{
	 "smiles": "[O-][N+](=O)C1=CC(=C(C=C1Cl)C1C(=O)C2=CC=CC=C2C1=O)[N+]([O-])=O", 
	 "Tm": 458.15, 
	 "num_atms": 31, 
	 "gaussian": { 
		 "optdone": 1, 
		 "sigma_profile": "yes", 
		 "theory": "DFT", 
		 "functional": "B3LYP", 
		 "basiset": "6-31G**", 
		 "properties": { 
			 "R2extent": 9952.8077, 
			 "electric_dipole_moment_norm": 6.66395658299, 
			 "electric_quadrupole_moment_norm": 10.533756134, 
			 "total_energy": -1596.62925411, 
			 "HOMO_LUMO_gap": 0.14041, 
			 "cosmo_polarized_energy": -19.55, 
			 "cosmo_cavitation_energy": 40.05, 
			 "cosmo_dispersion_energy": -27.86, 
			 "cosmo_repulsion_energy": 2.09, 
			 "cosmo_total_nonelectrostatic_energy": 14.28, 
			 "SMD_solvation_energy": 11.47 
		},
		"coords": [
			{
				"x": -2.1479766129,
				"y": 5.6818808741,
				"z": 1.6484215154,
				"element": "O" 
			},
			{
				"x": -1.6465261201,
				"y": 4.9235580981,
				"z": 2.4758305939,
				"element": "N" 
			},
			{
				"x": -1.4227250138,
				"y": 5.19492702,
				"z": 3.6495688443,
				"element": "O" 
			},
			{
				"x": -1.2548413092,
				"y": 3.5864681183,
				"z": 1.9901808301,
				"element": "C" 
			},
			{
				"x": -0.9015633228,
				"y": 3.4959586093,
				"z": 0.6508327272,
				"element": "C" 
			},
			{
				"x": -0.4884101907,
				"y": 2.2840831307,
				"z": 0.1113700854,
				"element": "C" 
			},
			{
				"x": -0.4236966773,
				"y": 1.1079523219,
				"z": 0.8879902062,
				"element": "C" 
			},
			{
				"x": -0.807429806,
				"y": 1.2342713066,
				"z": 2.2280503533,
				"element": "C" 
			},
			{
				"x": -1.2173877165,
				"y": 2.4406531318,
				"z": 2.7992531491,
				"element": "C" 
			},
			{
				"x": -1.709456905,
				"y": 2.4110411001,
				"z": 4.461167325,
				"element": "Cl" 
			},
			{
				"x": 0.0167118954,
				"y": -0.2513372713,
				"z": 0.4216568152,
				"element": "C" 
			},
			{
				"x": -0.8908758602,
				"y": -0.9970440704,
				"z": -0.595056324,
				"element": "C" 
			},
			{
				"x": -2.1013115114,
				"y": -0.9686465997,
				"z": -0.619959347,
				"element": "O" 
			},
			{
				"x": 0.0143605207,
				"y": -1.7929571425,
				"z": -1.4643715303,
				"element": "C" 
			},
			{
				"x": -0.3253323543,
				"y": -2.7507075196,
				"z": -2.4185058949,
				"element": "C" 
			},
			{
				"x": 0.7112257921,
				"y": -3.3602702255,
				"z": -3.1271444691,
				"element": "C" 
			},
			{
				"x": 2.0522275202,
				"y": -3.0138355904,
				"z": -2.8895546096,
				"element": "C" 
			},
			{
				"x": 2.3879705859,
				"y": -2.0496000636,
				"z": -1.9379209566,
				"element": "C" 
			},
			{
				"x": 1.3504059004,
				"y": -1.4476918839,
				"z": -1.2277929263,
				"element": "C" 
			},
			{
				"x": 1.4370904244,
				"y": -0.3902106816,
				"z": -0.1875344131,
				"element": "C" 
			},
			{
				"x": 2.4233423715,
				"y": 0.2187402315,
				"z": 0.1653401151,
				"element": "O" 
			},
			{
				"x": -0.1402229965,
				"y": 2.3094945216,
				"z": -1.3183974902,
				"element": "N" 
			},
			{
				"x": -0.0912222089,
				"y": 3.3994785341,
				"z": -1.8778014381,
				"element": "O" 
			},
			{
				"x": 0.0736651125,
				"y": 1.232108812,
				"z": -1.8784223118,
				"element": "O" 
			},
			{
				"x": -0.9494420881,
				"y": 4.3760816236,
				"z": 0.0242390986,
				"element": "H" 
			},
			{
				"x": -0.7905426044,
				"y": 0.3567494384,
				"z": 2.86402271,
				"element": "H" 
			},
			{
				"x": 0.0316635887,
				"y": -0.9054545398,
				"z": 1.3061386757,
				"element": "H" 
			},
			{
				"x": -1.365485555,
				"y": -3.0029477559,
				"z": -2.5978286398,
				"element": "H" 
			},
			{
				"x": 0.4817143954,
				"y": -4.1109025755,
				"z": -3.8776137644,
				"element": "H" 
			},
			{
				"x": 2.8360586368,
				"y": -3.5025132906,
				"z": -3.4606210219,
				"element": "H" 
			},
			{
				"x": 3.4187121092,
				"y": -1.7662276618,
				"z": -1.7509379075,
				"element": "H" 
			}
		],
		 "valence_orbital": [ 
			{
				"type": "occ",
				"energy": -0.29578,
				"method": "rhf"
			},
			{
				"type": "occ",
				"energy": -0.28832,
				"method": "rhf"
			},
			{
				"type": "occ",
				"energy": -0.28682,
				"method": "rhf"
			},
			{
				"type": "occ",
				"energy": -0.28652,
				"method": "rhf"
			},
			{
				"type": "occ",
				"energy": -0.2608,
				"method": "rhf"
			},
			{
				"type": "unocc",
				"energy": -0.12039,
				"method": "rhf"
			},
			{
				"type": "unocc",
				"energy": -0.10422,
				"method": "rhf"
			},
			{
				"type": "unocc",
				"energy": -0.08874,
				"method": "rhf"
			},
			{
				"type": "unocc",
				"energy": -0.06877,
				"method": "rhf"
			},
			{
				"type": "unocc",
				"energy": -0.04592,
				"method": "rhf"
			}
		],
		"cosmo_sigma_profile": { 
			"-0.025": 0.0,
			"-0.024": 0.0,
			"-0.023": 0.0,
			"-0.022": 0.0,
			"-0.021": 0.0,
			"-0.02": 0.0,
			"-0.019": 0.0,
			"-0.018": 0.0,
			"-0.017": 0.0,
			"-0.016": 0.0,
			"-0.015": 0.0,
			"-0.014": 0.0,
			"-0.013": 0.193429167275,
			"-0.012": 1.59370348702,
			"-0.011": 4.58374632185,
			"-0.01": 3.80880576201,
			"-0.009": 4.5314545759,
			"-0.008": 8.6085258371,
			"-0.007": 15.3839594815,
			"-0.006": 17.7210534285,
			"-0.005": 18.6063728329,
			"-0.004": 22.3599838714,
			"-0.003": 22.2455289863,
			"-0.002": 18.6519805573,
			"-0.001": 18.7225468808,
			"0.0": 19.3713417507,
			"0.001": 24.545000798,
			"0.002": 25.0370936911,
			"0.003": 12.1114800173,
			"0.004": 10.321627127,
			"0.005": 10.1216166953,
			"0.006": 16.1216929029,
			"0.007": 16.8721514702,
			"0.008": 11.2037404444,
			"0.009": 8.5795879218,
			"0.01": 7.28836791242,
			"0.011": 6.78020604726,
			"0.012": 0.457437666604,
			"0.013": 0.0,
			"0.014": 0.0,
			"0.015": 0.0,
			"0.016": 0.0,
			"0.017": 0.0,
			"0.018": 0.0,
			"0.019": 0.0,
			"0.02": 0.0,
			"0.021": 0.0,
			"0.022": 0.0,
			"0.023": 0.0,
			"0.024": 0.0,
			"0.025": 0.0
		}
	}
}
