{
	 "smiles": "OC(=O)CCC1=C(C=C(C=C1)[N+]([O-])=O)[N+]([O-])=O", 
	 "Tm": 398.15, 
	 "num_atms": 25, 
	 "gaussian": { 
		 "optdone": 1, 
		 "sigma_profile": "yes", 
		 "theory": "DFT", 
		 "functional": "B3LYP", 
		 "basiset": "6-31G**", 
		 "properties": { 
			 "R2extent": 5168.422, 
			 "electric_dipole_moment_norm": 6.19527376231, 
			 "electric_quadrupole_moment_norm": 20.3113257347, 
			 "total_energy": -908.435978204, 
			 "HOMO_LUMO_gap": 0.18055, 
			 "cosmo_polarized_energy": -19.25, 
			 "cosmo_cavitation_energy": 31.22, 
			 "cosmo_dispersion_energy": -21.97, 
			 "cosmo_repulsion_energy": 1.71, 
			 "cosmo_total_nonelectrostatic_energy": 10.95, 
			 "SMD_solvation_energy": 10.78 
		},
		"coords": [
			{
				"x": -3.8619475921,
				"y": -1.6878758325,
				"z": -2.2724966878,
				"element": "O" 
			},
			{
				"x": -2.5839387766,
				"y": -1.4853973862,
				"z": -1.8835570881,
				"element": "C" 
			},
			{
				"x": -1.8290368935,
				"y": -2.3919009814,
				"z": -1.6063874831,
				"element": "O" 
			},
			{
				"x": -2.2418638669,
				"y": -0.0105125054,
				"z": -1.8486360706,
				"element": "C" 
			},
			{
				"x": -0.7905144988,
				"y": 0.2578670508,
				"z": -1.413987076,
				"element": "C" 
			},
			{
				"x": -0.5265656792,
				"y": -0.1101256649,
				"z": 0.0342293876,
				"element": "C" 
			},
			{
				"x": 0.2223761364,
				"y": -1.2176348164,
				"z": 0.4734872156,
				"element": "C" 
			},
			{
				"x": 0.3583216363,
				"y": -1.5421387715,
				"z": 1.8207229355,
				"element": "C" 
			},
			{
				"x": -0.2397098961,
				"y": -0.7182986984,
				"z": 2.7630087734,
				"element": "C" 
			},
			{
				"x": -0.9799355843,
				"y": 0.4005901287,
				"z": 2.3899243837,
				"element": "C" 
			},
			{
				"x": -1.1176071113,
				"y": 0.6799598267,
				"z": 1.0357879858,
				"element": "C" 
			},
			{
				"x": -0.0857456562,
				"y": -1.0384077544,
				"z": 4.1917497947,
				"element": "N" 
			},
			{
				"x": -0.642349005,
				"y": -0.2954666498,
				"z": 4.9987982585,
				"element": "O" 
			},
			{
				"x": 0.5867103748,
				"y": -2.0242569377,
				"z": 4.4842437974,
				"element": "O" 
			},
			{
				"x": 0.9424704172,
				"y": -2.11467583,
				"z": -0.4574548175,
				"element": "N" 
			},
			{
				"x": 1.4574316864,
				"y": -1.6162819048,
				"z": -1.4569910622,
				"element": "O" 
			},
			{
				"x": 1.0262258026,
				"y": -3.2947765388,
				"z": -0.1370183217,
				"element": "O" 
			},
			{
				"x": -4.0000592257,
				"y": -2.6504235227,
				"z": -2.2743616794,
				"element": "H" 
			},
			{
				"x": -2.9687523467,
				"y": 0.4912737988,
				"z": -1.199255191,
				"element": "H" 
			},
			{
				"x": -2.4117153692,
				"y": 0.3948941678,
				"z": -2.8529848594,
				"element": "H" 
			},
			{
				"x": -0.5935386827,
				"y": 1.3293139987,
				"z": -1.5317437378,
				"element": "H" 
			},
			{
				"x": -0.1075693644,
				"y": -0.2708561113,
				"z": -2.0733892244,
				"element": "H" 
			},
			{
				"x": 0.9185833626,
				"y": -2.4158751149,
				"z": 2.1245063648,
				"element": "H" 
			},
			{
				"x": -1.4302537168,
				"y": 1.0236349291,
				"z": 3.1524154639,
				"element": "H" 
			},
			{
				"x": -1.7016161509,
				"y": 1.5450711208,
				"z": 0.7348889382,
				"element": "H" 
			}
		],
		 "valence_orbital": [ 
			{
				"type": "occ",
				"energy": -0.3095,
				"method": "rhf"
			},
			{
				"type": "occ",
				"energy": -0.30289,
				"method": "rhf"
			},
			{
				"type": "occ",
				"energy": -0.29861,
				"method": "rhf"
			},
			{
				"type": "occ",
				"energy": -0.29236,
				"method": "rhf"
			},
			{
				"type": "occ",
				"energy": -0.28527,
				"method": "rhf"
			},
			{
				"type": "unocc",
				"energy": -0.10472,
				"method": "rhf"
			},
			{
				"type": "unocc",
				"energy": -0.08992,
				"method": "rhf"
			},
			{
				"type": "unocc",
				"energy": -0.03583,
				"method": "rhf"
			},
			{
				"type": "unocc",
				"energy": -0.01342,
				"method": "rhf"
			},
			{
				"type": "unocc",
				"energy": -0.00578,
				"method": "rhf"
			}
		],
		"cosmo_sigma_profile": { 
			"-0.025": 0.0,
			"-0.024": 0.0,
			"-0.023": 0.0,
			"-0.022": 0.0,
			"-0.021": 0.0,
			"-0.02": 0.0,
			"-0.019": 0.135549726392,
			"-0.018": 0.667524004341,
			"-0.017": 1.14038481224,
			"-0.016": 1.01961220603,
			"-0.015": 0.788517165775,
			"-0.014": 0.26862085695,
			"-0.013": 0.552987970121,
			"-0.012": 0.61767812617,
			"-0.011": 1.02642221311,
			"-0.01": 1.05943838887,
			"-0.009": 2.19432927109,
			"-0.008": 8.15286645299,
			"-0.007": 14.7076516863,
			"-0.006": 15.3581449583,
			"-0.005": 16.2619164743,
			"-0.004": 14.5990339442,
			"-0.003": 17.8659049203,
			"-0.002": 20.2479663983,
			"-0.001": 14.4767897969,
			"0.0": 11.7609753486,
			"0.001": 7.31771372165,
			"0.002": 7.55381758432,
			"0.003": 6.86171967118,
			"0.004": 7.76030413636,
			"0.005": 11.5170587301,
			"0.006": 13.6406305334,
			"0.007": 22.8534480757,
			"0.008": 12.9144763435,
			"0.009": 10.248048504,
			"0.01": 3.37914845943,
			"0.011": 1.67024130112,
			"0.012": 0.52647372905,
			"0.013": 0.0,
			"0.014": 0.0,
			"0.015": 0.0,
			"0.016": 0.0,
			"0.017": 0.0,
			"0.018": 0.0,
			"0.019": 0.0,
			"0.02": 0.0,
			"0.021": 0.0,
			"0.022": 0.0,
			"0.023": 0.0,
			"0.024": 0.0,
			"0.025": 0.0
		}
	}
}
