{
	 "smiles": "CCCCC1=C(C)N=C(NC(=O)NS(=O)(=O)C2=CC=CS2)N=C1Cl", 
	 "Tm": 461.15, 
	 "num_atms": 41, 
	 "gaussian": { 
		 "optdone": 1, 
		 "sigma_profile": "yes", 
		 "theory": "DFT", 
		 "functional": "B3LYP", 
		 "basiset": "6-31G**", 
		 "properties": { 
			 "R2extent": 14003.7428, 
			 "electric_dipole_moment_norm": 5.56822542917, 
			 "electric_quadrupole_moment_norm": 31.6850786141, 
			 "total_energy": -2244.93711481, 
			 "HOMO_LUMO_gap": 0.18346, 
			 "cosmo_polarized_energy": -21.33, 
			 "cosmo_cavitation_energy": 50.05, 
			 "cosmo_dispersion_energy": -35.13, 
			 "cosmo_repulsion_energy": 2.64, 
			 "cosmo_total_nonelectrostatic_energy": 17.56, 
			 "SMD_solvation_energy": 5.81 
		},
		"coords": [
			{
				"x": 5.6716507276,
				"y": -3.4496199857,
				"z": -1.7839978443,
				"element": "C" 
			},
			{
				"x": 4.1715984246,
				"y": -3.4963150981,
				"z": -1.4751692479,
				"element": "C" 
			},
			{
				"x": 3.3074968612,
				"y": -3.3013694563,
				"z": -2.7270831561,
				"element": "C" 
			},
			{
				"x": 1.7795518891,
				"y": -3.3488990964,
				"z": -2.4840248718,
				"element": "C" 
			},
			{
				"x": 1.2313160628,
				"y": -2.214953859,
				"z": -1.6476257127,
				"element": "C" 
			},
			{
				"x": 0.9370343097,
				"y": -0.9460029294,
				"z": -2.1993271206,
				"element": "C" 
			},
			{
				"x": 1.0991490865,
				"y": -0.659291884,
				"z": -3.6711073004,
				"element": "C" 
			},
			{
				"x": 0.4709729468,
				"y": 0.0754860783,
				"z": -1.4666849176,
				"element": "N" 
			},
			{
				"x": 0.2946856018,
				"y": -0.151610586,
				"z": -0.1694078667,
				"element": "C" 
			},
			{
				"x": -0.1717972987,
				"y": 0.8602989236,
				"z": 0.6685269973,
				"element": "N" 
			},
			{
				"x": -0.3186850652,
				"y": 2.1996624957,
				"z": 0.3718775045,
				"element": "C" 
			},
			{
				"x": 0.0101371545,
				"y": 2.7757048932,
				"z": -0.6406206295,
				"element": "O" 
			},
			{
				"x": -0.8921440069,
				"y": 2.9518875602,
				"z": 1.4382719277,
				"element": "N" 
			},
			{
				"x": -1.8844973943,
				"y": 2.4705402947,
				"z": 2.7234552554,
				"element": "S" 
			},
			{
				"x": -1.3135456079,
				"y": 1.2259763777,
				"z": 3.2461289759,
				"element": "O" 
			},
			{
				"x": -2.0447511411,
				"y": 3.6747595139,
				"z": 3.5295903196,
				"element": "O" 
			},
			{
				"x": -3.4524428966,
				"y": 2.057635522,
				"z": 2.0260430969,
				"element": "C" 
			},
			{
				"x": -3.8646610762,
				"y": 0.7967904608,
				"z": 1.6699841205,
				"element": "C" 
			},
			{
				"x": -5.1701176769,
				"y": 0.8036972532,
				"z": 1.1047015879,
				"element": "C" 
			},
			{
				"x": -5.7117985069,
				"y": 2.0616947338,
				"z": 1.0446595706,
				"element": "C" 
			},
			{
				"x": -4.6548071476,
				"y": 3.2702510759,
				"z": 1.6859057162,
				"element": "S" 
			},
			{
				"x": 0.4899879197,
				"y": -1.315514111,
				"z": 0.4672621889,
				"element": "N" 
			},
			{
				"x": 0.9411176443,
				"y": -2.3066176814,
				"z": -0.2782394317,
				"element": "C" 
			},
			{
				"x": 1.1458155088,
				"y": -3.8343915346,
				"z": 0.5811336465,
				"element": "Cl" 
			},
			{
				"x": 5.9556848263,
				"y": -4.2316775889,
				"z": -2.4976221748,
				"element": "H" 
			},
			{
				"x": 5.9581318263,
				"y": -2.4855461018,
				"z": -2.2198309004,
				"element": "H" 
			},
			{
				"x": 6.2685372599,
				"y": -3.5942154718,
				"z": -0.8779389023,
				"element": "H" 
			},
			{
				"x": 3.9283966231,
				"y": -2.7244809454,
				"z": -0.7345248938,
				"element": "H" 
			},
			{
				"x": 3.9209062046,
				"y": -4.4561102038,
				"z": -1.0064455978,
				"element": "H" 
			},
			{
				"x": 3.5525040244,
				"y": -4.0833066086,
				"z": -3.4581820827,
				"element": "H" 
			},
			{
				"x": 3.5759707689,
				"y": -2.348895041,
				"z": -3.2025257912,
				"element": "H" 
			},
			{
				"x": 1.5244401935,
				"y": -4.3015817275,
				"z": -2.0120141978,
				"element": "H" 
			},
			{
				"x": 1.2749513059,
				"y": -3.3419379611,
				"z": -3.4567324823,
				"element": "H" 
			},
			{
				"x": 2.1313994282,
				"y": -0.809038759,
				"z": -4.0018609718,
				"element": "H" 
			},
			{
				"x": 0.8112417561,
				"y": 0.3743041493,
				"z": -3.8631820118,
				"element": "H" 
			},
			{
				"x": 0.4687306874,
				"y": -1.3230936579,
				"z": -4.274029944,
				"element": "H" 
			},
			{
				"x": -0.3137226413,
				"y": 0.5736785133,
				"z": 1.6346526402,
				"element": "H" 
			},
			{
				"x": -0.9793847837,
				"y": 3.9360577422,
				"z": 1.2062066185,
				"element": "H" 
			},
			{
				"x": -3.2583369568,
				"y": -0.0873140065,
				"z": 1.8227391944,
				"element": "H" 
			},
			{
				"x": -5.6856821104,
				"y": -0.0865640173,
				"z": 0.7648730489,
				"element": "H" 
			},
			{
				"x": -6.6866347317,
				"y": 2.3506227247,
				"z": 0.6751656401,
				"element": "H" 
			}
		],
		 "valence_orbital": [ 
			{
				"type": "occ",
				"energy": -0.28376,
				"method": "rhf"
			},
			{
				"type": "occ",
				"energy": -0.28346,
				"method": "rhf"
			},
			{
				"type": "occ",
				"energy": -0.26674,
				"method": "rhf"
			},
			{
				"type": "occ",
				"energy": -0.25785,
				"method": "rhf"
			},
			{
				"type": "occ",
				"energy": -0.24734,
				"method": "rhf"
			},
			{
				"type": "unocc",
				"energy": -0.06388,
				"method": "rhf"
			},
			{
				"type": "unocc",
				"energy": -0.04384,
				"method": "rhf"
			},
			{
				"type": "unocc",
				"energy": -0.03536,
				"method": "rhf"
			},
			{
				"type": "unocc",
				"energy": 5e-05,
				"method": "rhf"
			},
			{
				"type": "unocc",
				"energy": 0.01794,
				"method": "rhf"
			}
		],
		"cosmo_sigma_profile": { 
			"-0.025": 0.0,
			"-0.024": 0.0,
			"-0.023": 0.0,
			"-0.022": 0.0,
			"-0.021": 0.0,
			"-0.02": 0.0,
			"-0.019": 0.0,
			"-0.018": 0.0,
			"-0.017": 0.395429553436,
			"-0.016": 0.796748027821,
			"-0.015": 0.872475808126,
			"-0.014": 0.727070755628,
			"-0.013": 0.992814369491,
			"-0.012": 0.647567881438,
			"-0.011": 1.27608996369,
			"-0.01": 3.13097885513,
			"-0.009": 3.54829350257,
			"-0.008": 5.95517154071,
			"-0.007": 7.89449199589,
			"-0.006": 15.17651869,
			"-0.005": 15.3093951918,
			"-0.004": 19.5466044056,
			"-0.003": 31.2297597319,
			"-0.002": 50.2114127736,
			"-0.001": 49.0149587456,
			"0.0": 40.3505775948,
			"0.001": 39.0834459647,
			"0.002": 27.8343121744,
			"0.003": 15.6335425228,
			"0.004": 11.0995598301,
			"0.005": 8.72457933389,
			"0.006": 5.80899818093,
			"0.007": 6.71026658008,
			"0.008": 7.23111171574,
			"0.009": 10.0531291981,
			"0.01": 8.57419347538,
			"0.011": 4.7538511626,
			"0.012": 4.4107448461,
			"0.013": 1.68874764835,
			"0.014": 0.832950945416,
			"0.015": 1.40919991442,
			"0.016": 0.923282206315,
			"0.017": 0.661450319823,
			"0.018": 0.0759731616457,
			"0.019": 0.0,
			"0.02": 0.0,
			"0.021": 0.0,
			"0.022": 0.0,
			"0.023": 0.0,
			"0.024": 0.0,
			"0.025": 0.0
		}
	}
}
