{
	 "smiles": "ClC1=NC2=C(C=C1)C=C(Br)C=C2", 
	 "Tm": 433.15, 
	 "num_atms": 17, 
	 "gaussian": { 
		 "optdone": 1, 
		 "sigma_profile": "yes", 
		 "theory": "DFT", 
		 "functional": "B3LYP", 
		 "basiset": "6-31G**", 
		 "properties": { 
			 "R2extent": 5544.9869, 
			 "electric_dipole_moment_norm": 2.16045270487, 
			 "electric_quadrupole_moment_norm": 9.24671182529, 
			 "total_energy": -3432.32791566, 
			 "HOMO_LUMO_gap": 0.17155, 
			 "cosmo_polarized_energy": -7.23, 
			 "cosmo_cavitation_energy": 25.78, 
			 "cosmo_dispersion_energy": -19.88, 
			 "cosmo_repulsion_energy": 1.57, 
			 "cosmo_total_nonelectrostatic_energy": 7.46, 
			 "SMD_solvation_energy": 1.3 
		},
		"coords": [
			{
				"x": 0.2493439469,
				"y": 2.3147726265,
				"z": 2.4529691351,
				"element": "Cl" 
			},
			{
				"x": 0.0308352595,
				"y": 1.333134611,
				"z": 1.003541311,
				"element": "C" 
			},
			{
				"x": -0.7319486411,
				"y": 0.2854856932,
				"z": 1.1031590241,
				"element": "N" 
			},
			{
				"x": -0.9074114829,
				"y": -0.4813378052,
				"z": -0.0139456645,
				"element": "C" 
			},
			{
				"x": -0.2855151311,
				"y": -0.1651582457,
				"z": -1.2614391218,
				"element": "C" 
			},
			{
				"x": 0.5364344984,
				"y": 0.9931005368,
				"z": -1.3052860217,
				"element": "C" 
			},
			{
				"x": 0.7034000528,
				"y": 1.7536877985,
				"z": -0.1753491269,
				"element": "C" 
			},
			{
				"x": -0.506923177,
				"y": -1.0009221472,
				"z": -2.3850774543,
				"element": "C" 
			},
			{
				"x": -1.3178871281,
				"y": -2.1046201814,
				"z": -2.2571360626,
				"element": "C" 
			},
			{
				"x": -1.6230375743,
				"y": -3.2372741851,
				"z": -3.763476832,
				"element": "Br" 
			},
			{
				"x": -1.9401926446,
				"y": -2.4300118294,
				"z": -1.0284119603,
				"element": "C" 
			},
			{
				"x": -1.7359594278,
				"y": -1.629314905,
				"z": 0.0725713001,
				"element": "C" 
			},
			{
				"x": 1.0275686323,
				"y": 1.2686550024,
				"z": -2.2346215472,
				"element": "H" 
			},
			{
				"x": 1.3205073227,
				"y": 2.6437017618,
				"z": -0.164128709,
				"element": "H" 
			},
			{
				"x": -0.0371099159,
				"y": -0.765032417,
				"z": -3.3339397536,
				"element": "H" 
			},
			{
				"x": -2.5724609932,
				"y": -3.3082501073,
				"z": -0.9670261564,
				"element": "H" 
			},
			{
				"x": -2.1987435966,
				"y": -1.8521162071,
				"z": 1.02799764,
				"element": "H" 
			}
		],
		 "valence_orbital": [ 
			{
				"type": "occ",
				"energy": -0.29972,
				"method": "rhf"
			},
			{
				"type": "occ",
				"energy": -0.29729,
				"method": "rhf"
			},
			{
				"type": "occ",
				"energy": -0.28244,
				"method": "rhf"
			},
			{
				"type": "occ",
				"energy": -0.26248,
				"method": "rhf"
			},
			{
				"type": "occ",
				"energy": -0.24381,
				"method": "rhf"
			},
			{
				"type": "unocc",
				"energy": -0.07226,
				"method": "rhf"
			},
			{
				"type": "unocc",
				"energy": -0.03787,
				"method": "rhf"
			},
			{
				"type": "unocc",
				"energy": -0.0033,
				"method": "rhf"
			},
			{
				"type": "unocc",
				"energy": -0.00121,
				"method": "rhf"
			},
			{
				"type": "unocc",
				"energy": 0.02937,
				"method": "rhf"
			}
		],
		"cosmo_sigma_profile": { 
			"-0.025": 0.0,
			"-0.024": 0.0,
			"-0.023": 0.0,
			"-0.022": 0.0,
			"-0.021": 0.0,
			"-0.02": 0.0,
			"-0.019": 0.0,
			"-0.018": 0.0,
			"-0.017": 0.0,
			"-0.016": 0.0,
			"-0.015": 0.0,
			"-0.014": 0.0,
			"-0.013": 0.0,
			"-0.012": 0.0,
			"-0.011": 0.0,
			"-0.01": 0.0,
			"-0.009": 1.73504206882,
			"-0.008": 7.51800059291,
			"-0.007": 9.22067818856,
			"-0.006": 8.13209075912,
			"-0.005": 8.62911083127,
			"-0.004": 8.81974150051,
			"-0.003": 9.0881725993,
			"-0.002": 11.3022976107,
			"-0.001": 20.3597299015,
			"0.0": 23.5420497286,
			"0.001": 29.5324744458,
			"0.002": 21.1214884222,
			"0.003": 15.5939241706,
			"0.004": 21.0181357654,
			"0.005": 7.70926194396,
			"0.006": 3.01573453422,
			"0.007": 1.35650103267,
			"0.008": 1.28726517395,
			"0.009": 1.16237698341,
			"0.01": 1.2297730585,
			"0.011": 0.981683134354,
			"0.012": 0.776355491408,
			"0.013": 0.726496582451,
			"0.014": 0.233251090802,
			"0.015": 0.0,
			"0.016": 0.0,
			"0.017": 0.0,
			"0.018": 0.0,
			"0.019": 0.0,
			"0.02": 0.0,
			"0.021": 0.0,
			"0.022": 0.0,
			"0.023": 0.0,
			"0.024": 0.0,
			"0.025": 0.0
		}
	}
}
