{
	 "smiles": "CC1=C(C)C=C2N=C3C(=O)NC(=O)NC3=NC2=C1", 
	 "Tm": 573.15, 
	 "num_atms": 28, 
	 "gaussian": { 
		 "optdone": 1, 
		 "sigma_profile": "yes", 
		 "theory": "DFT", 
		 "functional": "B3LYP", 
		 "basiset": "6-31G**", 
		 "properties": { 
			 "R2extent": 5610.9744, 
			 "electric_dipole_moment_norm": 5.50251354019, 
			 "electric_quadrupole_moment_norm": 8.62836129923, 
			 "total_energy": -832.826348709, 
			 "HOMO_LUMO_gap": 0.14616, 
			 "cosmo_polarized_energy": -18.64, 
			 "cosmo_cavitation_energy": 32.86, 
			 "cosmo_dispersion_energy": -24.5, 
			 "cosmo_repulsion_energy": 1.85, 
			 "cosmo_total_nonelectrostatic_energy": 10.21, 
			 "SMD_solvation_energy": 3.98 
		},
		"coords": [
			{
				"x": -0.7389470921,
				"y": 4.8922290267,
				"z": -0.3727668756,
				"element": "C" 
			},
			{
				"x": -0.6627042729,
				"y": 3.4229875387,
				"z": -0.0414555776,
				"element": "C" 
			},
			{
				"x": -0.4423689894,
				"y": 3.0025027594,
				"z": 1.3184245531,
				"element": "C" 
			},
			{
				"x": -0.2872228445,
				"y": 4.0268590317,
				"z": 2.4152320218,
				"element": "C" 
			},
			{
				"x": -0.3750499283,
				"y": 1.6566943851,
				"z": 1.6056365392,
				"element": "C" 
			},
			{
				"x": -0.5181112656,
				"y": 0.6752546702,
				"z": 0.5909220757,
				"element": "C" 
			},
			{
				"x": -0.4459389513,
				"y": -0.6390354127,
				"z": 0.9129552714,
				"element": "N" 
			},
			{
				"x": -0.5856430621,
				"y": -1.5075416257,
				"z": -0.0676868994,
				"element": "C" 
			},
			{
				"x": -0.5131621779,
				"y": -2.9662082663,
				"z": 0.24167934,
				"element": "C" 
			},
			{
				"x": -0.3323728173,
				"y": -3.444837016,
				"z": 1.3424320805,
				"element": "O" 
			},
			{
				"x": -0.6771127527,
				"y": -3.7783039585,
				"z": -0.8877228496,
				"element": "N" 
			},
			{
				"x": -0.8914653412,
				"y": -3.4051743398,
				"z": -2.2139831231,
				"element": "C" 
			},
			{
				"x": -1.0197075666,
				"y": -4.2109771474,
				"z": -3.1154361012,
				"element": "O" 
			},
			{
				"x": -0.9443689796,
				"y": -2.0349888396,
				"z": -2.4078601921,
				"element": "N" 
			},
			{
				"x": -0.8044286068,
				"y": -1.0800872366,
				"z": -1.4166017118,
				"element": "C" 
			},
			{
				"x": -0.8799089828,
				"y": 0.1884624785,
				"z": -1.7647676548,
				"element": "N" 
			},
			{
				"x": -0.7372894879,
				"y": 1.0944900872,
				"z": -0.7614377156,
				"element": "C" 
			},
			{
				"x": -0.8039472221,
				"y": 2.4805727267,
				"z": -1.0406503397,
				"element": "C" 
			},
			{
				"x": 0.1856999765,
				"y": 5.4134743122,
				"z": -0.0978324348,
				"element": "H" 
			},
			{
				"x": -1.5515791908,
				"y": 5.3846805378,
				"z": 0.1743905907,
				"element": "H" 
			},
			{
				"x": -0.908830149,
				"y": 5.0473678325,
				"z": -1.4405095167,
				"element": "H" 
			},
			{
				"x": -0.1278013291,
				"y": 3.5433515916,
				"z": 3.381670562,
				"element": "H" 
			},
			{
				"x": -1.1750292483,
				"y": 4.6647335532,
				"z": 2.5006297461,
				"element": "H" 
			},
			{
				"x": 0.5632688511,
				"y": 4.6932301331,
				"z": 2.2281539358,
				"element": "H" 
			},
			{
				"x": -0.2101423793,
				"y": 1.30425024,
				"z": 2.6192908446,
				"element": "H" 
			},
			{
				"x": -0.6354296563,
				"y": -4.7776017489,
				"z": -0.7269997157,
				"element": "H" 
			},
			{
				"x": -1.0984274825,
				"y": -1.7174453984,
				"z": -3.3561504769,
				"element": "H" 
			},
			{
				"x": -0.9705790513,
				"y": 2.7800600851,
				"z": -2.0708563765,
				"element": "H" 
			}
		],
		 "valence_orbital": [ 
			{
				"type": "occ",
				"energy": -0.29105,
				"method": "rhf"
			},
			{
				"type": "occ",
				"energy": -0.27995,
				"method": "rhf"
			},
			{
				"type": "occ",
				"energy": -0.26034,
				"method": "rhf"
			},
			{
				"type": "occ",
				"energy": -0.25586,
				"method": "rhf"
			},
			{
				"type": "occ",
				"energy": -0.24021,
				"method": "rhf"
			},
			{
				"type": "unocc",
				"energy": -0.09405,
				"method": "rhf"
			},
			{
				"type": "unocc",
				"energy": -0.04148,
				"method": "rhf"
			},
			{
				"type": "unocc",
				"energy": -0.00395,
				"method": "rhf"
			},
			{
				"type": "unocc",
				"energy": 0.0109,
				"method": "rhf"
			},
			{
				"type": "unocc",
				"energy": 0.03471,
				"method": "rhf"
			}
		],
		"cosmo_sigma_profile": { 
			"-0.025": 0.0,
			"-0.024": 0.0,
			"-0.023": 0.0,
			"-0.022": 0.0,
			"-0.021": 0.0,
			"-0.02": 0.0,
			"-0.019": 0.0,
			"-0.018": 0.0,
			"-0.017": 0.330238342179,
			"-0.016": 1.99831932585,
			"-0.015": 1.12064236821,
			"-0.014": 1.68756735609,
			"-0.013": 1.83781789873,
			"-0.012": 1.29316461797,
			"-0.011": 1.71843463216,
			"-0.01": 1.2275616801,
			"-0.009": 2.12097089355,
			"-0.008": 2.92584426327,
			"-0.007": 4.11699890225,
			"-0.006": 8.8141933726,
			"-0.005": 21.7248987361,
			"-0.004": 22.7282294891,
			"-0.003": 21.3131631172,
			"-0.002": 23.8265482068,
			"-0.001": 24.3996666892,
			"0.0": 21.1028295828,
			"0.001": 16.0126538203,
			"0.002": 17.4368267651,
			"0.003": 9.92003530681,
			"0.004": 3.40848949888,
			"0.005": 5.05219881975,
			"0.006": 3.34490306125,
			"0.007": 3.40844336801,
			"0.008": 4.31644082795,
			"0.009": 4.01054409986,
			"0.01": 5.86574127635,
			"0.011": 7.71140170972,
			"0.012": 11.5218309467,
			"0.013": 3.23231296277,
			"0.014": 1.38075156797,
			"0.015": 1.17864496893,
			"0.016": 0.625836910465,
			"0.017": 0.0,
			"0.018": 0.0,
			"0.019": 0.0,
			"0.02": 0.0,
			"0.021": 0.0,
			"0.022": 0.0,
			"0.023": 0.0,
			"0.024": 0.0,
			"0.025": 0.0
		}
	}
}
