{
	 "smiles": "COC=C(/C(=O)OC)C1=CC=CC=C1OC1=CC(OC2=CC=CC=C2C#N)=NC=N1", 
	 "Tm": 389.15, 
	 "num_atms": 47, 
	 "gaussian": { 
		 "optdone": 1, 
		 "sigma_profile": "yes", 
		 "theory": "DFT", 
		 "functional": "B3LYP", 
		 "basiset": "6-31G**", 
		 "properties": { 
			 "R2extent": 15779.6761, 
			 "electric_dipole_moment_norm": 5.64694158904, 
			 "electric_quadrupole_moment_norm": 44.5697530826, 
			 "total_energy": -1388.90342457, 
			 "HOMO_LUMO_gap": 0.17958, 
			 "cosmo_polarized_energy": -25.01, 
			 "cosmo_cavitation_energy": 54.98, 
			 "cosmo_dispersion_energy": -36.06, 
			 "cosmo_repulsion_energy": 2.8, 
			 "cosmo_total_nonelectrostatic_energy": 21.71, 
			 "SMD_solvation_energy": 11.25 
		},
		"coords": [
			{
				"x": -4.4233193733,
				"y": 3.3056391562,
				"z": 3.4950361777,
				"element": "C" 
			},
			{
				"x": -3.3660313678,
				"y": 2.3907545267,
				"z": 3.2038704822,
				"element": "O" 
			},
			{
				"x": -2.6825761146,
				"y": 2.6351133818,
				"z": 2.0768519135,
				"element": "C" 
			},
			{
				"x": -1.7157060016,
				"y": 1.8462373397,
				"z": 1.5475902461,
				"element": "C" 
			},
			{
				"x": -1.2581236585,
				"y": 0.548669152,
				"z": 2.1008669601,
				"element": "C" 
			},
			{
				"x": -0.2843469711,
				"y": -0.0557695699,
				"z": 1.6837318859,
				"element": "O" 
			},
			{
				"x": -2.0168439579,
				"y": 0.0947439671,
				"z": 3.1204501732,
				"element": "O" 
			},
			{
				"x": -1.5944084948,
				"y": -1.1566185046,
				"z": 3.6791879435,
				"element": "C" 
			},
			{
				"x": -1.0100413323,
				"y": 2.3472269888,
				"z": 0.3358041844,
				"element": "C" 
			},
			{
				"x": -0.3893053009,
				"y": 3.6059403493,
				"z": 0.3304359487,
				"element": "C" 
			},
			{
				"x": 0.2428715072,
				"y": 4.1062429679,
				"z": -0.8078012311,
				"element": "C" 
			},
			{
				"x": 0.2678142211,
				"y": 3.345679287,
				"z": -1.9765438376,
				"element": "C" 
			},
			{
				"x": -0.3461163128,
				"y": 2.0934467334,
				"z": -2.0033053159,
				"element": "C" 
			},
			{
				"x": -0.9687814715,
				"y": 1.6035454831,
				"z": -0.8559344499,
				"element": "C" 
			},
			{
				"x": -1.6889614084,
				"y": 0.416148307,
				"z": -0.9030006137,
				"element": "O" 
			},
			{
				"x": -1.1030867719,
				"y": -0.7530768929,
				"z": -1.2641579562,
				"element": "C" 
			},
			{
				"x": 0.276582976,
				"y": -0.949568158,
				"z": -1.3128049575,
				"element": "C" 
			},
			{
				"x": 0.6718776235,
				"y": -2.2260667916,
				"z": -1.7051334345,
				"element": "C" 
			},
			{
				"x": 2.018633819,
				"y": -2.4335449268,
				"z": -1.7969054038,
				"element": "O" 
			},
			{
				"x": 2.5502464433,
				"y": -3.6855858478,
				"z": -2.0251731936,
				"element": "C" 
			},
			{
				"x": 2.2531762294,
				"y": -4.7894548331,
				"z": -1.2277870033,
				"element": "C" 
			},
			{
				"x": 2.9110751939,
				"y": -5.9963151563,
				"z": -1.4559779921,
				"element": "C" 
			},
			{
				"x": 3.8685301495,
				"y": -6.1093857493,
				"z": -2.4690735004,
				"element": "C" 
			},
			{
				"x": 4.170171434,
				"y": -5.0072102383,
				"z": -3.2603849131,
				"element": "C" 
			},
			{
				"x": 3.5101510678,
				"y": -3.7835391439,
				"z": -3.048198652,
				"element": "C" 
			},
			{
				"x": 3.8137242678,
				"y": -2.6485304415,
				"z": -3.8673040437,
				"element": "C" 
			},
			{
				"x": 4.0781814502,
				"y": -1.7457969611,
				"z": -4.5514088738,
				"element": "N" 
			},
			{
				"x": -0.1709866647,
				"y": -3.2094196822,
				"z": -2.0050267645,
				"element": "N" 
			},
			{
				"x": -1.4666207457,
				"y": -2.8906309365,
				"z": -1.8970039745,
				"element": "C" 
			},
			{
				"x": -1.9860289036,
				"y": -1.7180034553,
				"z": -1.5482643746,
				"element": "N" 
			},
			{
				"x": -5.2276373167,
				"y": 3.2255179092,
				"z": 2.7548180615,
				"element": "H" 
			},
			{
				"x": -4.8065427996,
				"y": 3.0277253854,
				"z": 4.4771614067,
				"element": "H" 
			},
			{
				"x": -4.0564601531,
				"y": 4.3388161017,
				"z": 3.5270168044,
				"element": "H" 
			},
			{
				"x": -2.9366649624,
				"y": 3.5636992703,
				"z": 1.5638322882,
				"element": "H" 
			},
			{
				"x": -2.2970799978,
				"y": -1.3681720915,
				"z": 4.4854255341,
				"element": "H" 
			},
			{
				"x": -0.5749235961,
				"y": -1.0850993361,
				"z": 4.0672741865,
				"element": "H" 
			},
			{
				"x": -1.6272546278,
				"y": -1.9475767161,
				"z": 2.9252675449,
				"element": "H" 
			},
			{
				"x": -0.3892974858,
				"y": 4.1848533246,
				"z": 1.2492850552,
				"element": "H" 
			},
			{
				"x": 0.7202942816,
				"y": 5.0808591937,
				"z": -0.7777166088,
				"element": "H" 
			},
			{
				"x": 0.7554477561,
				"y": 3.7233369147,
				"z": -2.8700100722,
				"element": "H" 
			},
			{
				"x": -0.3582950961,
				"y": 1.500044685,
				"z": -2.9115558346,
				"element": "H" 
			},
			{
				"x": 0.9960636141,
				"y": -0.190259417,
				"z": -1.0440851916,
				"element": "H" 
			},
			{
				"x": 1.5121860208,
				"y": -4.6972904489,
				"z": -0.4438154853,
				"element": "H" 
			},
			{
				"x": 2.6761293558,
				"y": -6.8543546255,
				"z": -0.8334903498,
				"element": "H" 
			},
			{
				"x": 4.3781036885,
				"y": -7.0524388215,
				"z": -2.6376303578,
				"element": "H" 
			},
			{
				"x": 4.9114976374,
				"y": -5.0733527284,
				"z": -4.0494100534,
				"element": "H" 
			},
			{
				"x": -2.1749178503,
				"y": -3.6836789506,
				"z": -2.1289023568,
				"element": "H" 
			}
		],
		 "valence_orbital": [ 
			{
				"type": "occ",
				"energy": -0.26578,
				"method": "rhf"
			},
			{
				"type": "occ",
				"energy": -0.2606,
				"method": "rhf"
			},
			{
				"type": "occ",
				"energy": -0.24781,
				"method": "rhf"
			},
			{
				"type": "occ",
				"energy": -0.24091,
				"method": "rhf"
			},
			{
				"type": "occ",
				"energy": -0.22636,
				"method": "rhf"
			},
			{
				"type": "unocc",
				"energy": -0.04678,
				"method": "rhf"
			},
			{
				"type": "unocc",
				"energy": -0.03779,
				"method": "rhf"
			},
			{
				"type": "unocc",
				"energy": -0.02314,
				"method": "rhf"
			},
			{
				"type": "unocc",
				"energy": -0.02218,
				"method": "rhf"
			},
			{
				"type": "unocc",
				"energy": -0.00956,
				"method": "rhf"
			}
		],
		"cosmo_sigma_profile": { 
			"-0.025": 0.0,
			"-0.024": 0.0,
			"-0.023": 0.0,
			"-0.022": 0.0,
			"-0.021": 0.0,
			"-0.02": 0.0,
			"-0.019": 0.0,
			"-0.018": 0.0,
			"-0.017": 0.0,
			"-0.016": 0.0,
			"-0.015": 0.0,
			"-0.014": 0.0,
			"-0.013": 0.0,
			"-0.012": 0.0,
			"-0.011": 0.0,
			"-0.01": 0.0,
			"-0.009": 1.04442927198,
			"-0.008": 9.0100460894,
			"-0.007": 19.5178088988,
			"-0.006": 35.6080759549,
			"-0.005": 35.9121994792,
			"-0.004": 35.4440353169,
			"-0.003": 34.4233655609,
			"-0.002": 28.9619445581,
			"-0.001": 30.8587859288,
			"0.0": 27.5576245518,
			"0.001": 27.6998656378,
			"0.002": 30.0642469116,
			"0.003": 23.2262778226,
			"0.004": 18.7248411047,
			"0.005": 15.4298064914,
			"0.006": 9.38599375526,
			"0.007": 9.0604424388,
			"0.008": 10.3174827779,
			"0.009": 10.1729310177,
			"0.01": 8.74456821128,
			"0.011": 7.63236542957,
			"0.012": 8.04802868314,
			"0.013": 4.10389815534,
			"0.014": 0.962864189798,
			"0.015": 0.595481127145,
			"0.016": 0.0,
			"0.017": 0.0,
			"0.018": 0.0,
			"0.019": 0.0,
			"0.02": 0.0,
			"0.021": 0.0,
			"0.022": 0.0,
			"0.023": 0.0,
			"0.024": 0.0,
			"0.025": 0.0
		}
	}
}
