{
	 "smiles": "ClC1=CC(Cl)=C(Cl)C2=C1C1=C(O2)C=CC(Cl)=C1Cl", 
	 "Tm": 483.15, 
	 "num_atms": 21, 
	 "gaussian": { 
		 "optdone": 1, 
		 "sigma_profile": "yes", 
		 "theory": "DFT", 
		 "functional": "B3LYP", 
		 "basiset": "6-31G**", 
		 "properties": { 
			 "R2extent": 8884.191, 
			 "electric_dipole_moment_norm": 1.52060161121, 
			 "electric_quadrupole_moment_norm": 10.3578320603, 
			 "total_energy": -2835.25372462, 
			 "HOMO_LUMO_gap": 0.17147, 
			 "cosmo_polarized_energy": -5.53, 
			 "cosmo_cavitation_energy": 34.38, 
			 "cosmo_dispersion_energy": -26.21, 
			 "cosmo_repulsion_energy": 1.98, 
			 "cosmo_total_nonelectrostatic_energy": 10.15, 
			 "SMD_solvation_energy": 4.59 
		},
		"coords": [
			{
				"x": 2.3974793299,
				"y": 1.021733772,
				"z": 2.9965856123,
				"element": "Cl" 
			},
			{
				"x": 2.0654215636,
				"y": 1.7718151853,
				"z": 1.4568766482,
				"element": "C" 
			},
			{
				"x": 2.9195137998,
				"y": 2.8166809082,
				"z": 1.110563438,
				"element": "C" 
			},
			{
				"x": 2.7819424435,
				"y": 3.5175607232,
				"z": -0.092373613,
				"element": "C" 
			},
			{
				"x": 3.8973163927,
				"y": 4.8080480198,
				"z": -0.4375897137,
				"element": "Cl" 
			},
			{
				"x": 1.7684183814,
				"y": 3.181958059,
				"z": -0.9908800116,
				"element": "C" 
			},
			{
				"x": 1.5206535117,
				"y": 3.991879379,
				"z": -2.5024716928,
				"element": "Cl" 
			},
			{
				"x": 0.930803806,
				"y": 2.1334848378,
				"z": -0.6167036018,
				"element": "C" 
			},
			{
				"x": 1.0214022152,
				"y": 1.3886444271,
				"z": 0.585570944,
				"element": "C" 
			},
			{
				"x": -0.0786059525,
				"y": 0.4131449467,
				"z": 0.4953580023,
				"element": "C" 
			},
			{
				"x": -0.6975141006,
				"y": 0.6860486673,
				"z": -0.7451568805,
				"element": "C" 
			},
			{
				"x": -0.0911905543,
				"y": 1.7158728006,
				"z": -1.4080522455,
				"element": "O" 
			},
			{
				"x": -1.7911308236,
				"y": 0.0128688296,
				"z": -1.2643967764,
				"element": "C" 
			},
			{
				"x": -2.3149597449,
				"y": -1.0135444363,
				"z": -0.4939580212,
				"element": "C" 
			},
			{
				"x": -1.745872723,
				"y": -1.3337145342,
				"z": 0.746858737,
				"element": "C" 
			},
			{
				"x": -2.4786710516,
				"y": -2.6443747754,
				"z": 1.6433546633,
				"element": "Cl" 
			},
			{
				"x": -0.6367893025,
				"y": -0.6403623144,
				"z": 1.2579921634,
				"element": "C" 
			},
			{
				"x": -0.0057212902,
				"y": -1.113207199,
				"z": 2.804221978,
				"element": "Cl" 
			},
			{
				"x": 3.7137550341,
				"y": 3.0961174353,
				"z": 1.7909429865,
				"element": "H" 
			},
			{
				"x": -2.206402528,
				"y": 0.2859861516,
				"z": -2.2270958503,
				"element": "H" 
			},
			{
				"x": -3.1702484066,
				"y": -1.5826408834,
				"z": -0.8383467663,
				"element": "H" 
			}
		],
		 "valence_orbital": [ 
			{
				"type": "occ",
				"energy": -0.30087,
				"method": "rhf"
			},
			{
				"type": "occ",
				"energy": -0.29848,
				"method": "rhf"
			},
			{
				"type": "occ",
				"energy": -0.26785,
				"method": "rhf"
			},
			{
				"type": "occ",
				"energy": -0.25051,
				"method": "rhf"
			},
			{
				"type": "occ",
				"energy": -0.24396,
				"method": "rhf"
			},
			{
				"type": "unocc",
				"energy": -0.07249,
				"method": "rhf"
			},
			{
				"type": "unocc",
				"energy": -0.03737,
				"method": "rhf"
			},
			{
				"type": "unocc",
				"energy": -0.0215,
				"method": "rhf"
			},
			{
				"type": "unocc",
				"energy": -0.01911,
				"method": "rhf"
			},
			{
				"type": "unocc",
				"energy": -0.00581,
				"method": "rhf"
			}
		],
		"cosmo_sigma_profile": { 
			"-0.025": 0.0,
			"-0.024": 0.0,
			"-0.023": 0.0,
			"-0.022": 0.0,
			"-0.021": 0.0,
			"-0.02": 0.0,
			"-0.019": 0.0,
			"-0.018": 0.0,
			"-0.017": 0.0,
			"-0.016": 0.0,
			"-0.015": 0.0,
			"-0.014": 0.0,
			"-0.013": 0.0,
			"-0.012": 0.0,
			"-0.011": 0.0,
			"-0.01": 0.0156032116186,
			"-0.009": 2.8763172559,
			"-0.008": 5.18349030497,
			"-0.007": 5.3646699345,
			"-0.006": 5.08258990286,
			"-0.005": 4.53153591925,
			"-0.004": 9.77671750116,
			"-0.003": 17.116648354,
			"-0.002": 28.5259541338,
			"-0.001": 42.4556603245,
			"0.0": 40.5047998575,
			"0.001": 27.5933825155,
			"0.002": 27.7290231743,
			"0.003": 35.7825135945,
			"0.004": 27.8227165069,
			"0.005": 7.44837043482,
			"0.006": 1.7780578614,
			"0.007": 0.174585265544,
			"0.008": 0.0,
			"0.009": 0.0,
			"0.01": 0.0,
			"0.011": 0.0,
			"0.012": 0.0,
			"0.013": 0.0,
			"0.014": 0.0,
			"0.015": 0.0,
			"0.016": 0.0,
			"0.017": 0.0,
			"0.018": 0.0,
			"0.019": 0.0,
			"0.02": 0.0,
			"0.021": 0.0,
			"0.022": 0.0,
			"0.023": 0.0,
			"0.024": 0.0,
			"0.025": 0.0
		}
	}
}
