{
	 "smiles": "CC1=CSC(SC2=C(Cl)C=C(N)C=C2)=N1", 
	 "Tm": 386.15, 
	 "num_atms": 24, 
	 "gaussian": { 
		 "optdone": 1, 
		 "sigma_profile": "yes", 
		 "theory": "DFT", 
		 "functional": "B3LYP", 
		 "basiset": "6-31G**", 
		 "properties": { 
			 "R2extent": 5686.7279, 
			 "electric_dipole_moment_norm": 4.31369021025, 
			 "electric_quadrupole_moment_norm": 20.0830398107, 
			 "total_energy": -1752.54932784, 
			 "HOMO_LUMO_gap": 0.18873, 
			 "cosmo_polarized_energy": -14.15, 
			 "cosmo_cavitation_energy": 33.7, 
			 "cosmo_dispersion_energy": -24.65, 
			 "cosmo_repulsion_energy": 1.89, 
			 "cosmo_total_nonelectrostatic_energy": 10.94, 
			 "SMD_solvation_energy": 3.77 
		},
		"coords": [
			{
				"x": 0.2965231379,
				"y": 1.8614895334,
				"z": 2.9612962469,
				"element": "C" 
			},
			{
				"x": -0.5356843068,
				"y": 1.6875348501,
				"z": 1.7252996527,
				"element": "C" 
			},
			{
				"x": -1.3986649231,
				"y": 2.6052536587,
				"z": 1.2007339659,
				"element": "C" 
			},
			{
				"x": -2.1633249033,
				"y": 1.9791439196,
				"z": -0.2334372898,
				"element": "S" 
			},
			{
				"x": -1.2229691334,
				"y": 0.5004200736,
				"z": -0.0145289888,
				"element": "C" 
			},
			{
				"x": -1.4100487629,
				"y": -0.8141636739,
				"z": -1.1972498276,
				"element": "S" 
			},
			{
				"x": -0.4802152824,
				"y": -2.1304121672,
				"z": -0.4384565491,
				"element": "C" 
			},
			{
				"x": -0.9915027346,
				"y": -2.9585027195,
				"z": 0.5765156797,
				"element": "C" 
			},
			{
				"x": -2.5876237625,
				"y": -2.6908390115,
				"z": 1.2475962098,
				"element": "Cl" 
			},
			{
				"x": -0.2493692251,
				"y": -4.0147468903,
				"z": 1.0925785313,
				"element": "C" 
			},
			{
				"x": 1.0392981509,
				"y": -4.2874896098,
				"z": 0.6008718747,
				"element": "C" 
			},
			{
				"x": 1.7562072901,
				"y": -5.3744028932,
				"z": 1.0779258363,
				"element": "N" 
			},
			{
				"x": 1.558834835,
				"y": -3.4694006502,
				"z": -0.4182406592,
				"element": "C" 
			},
			{
				"x": 0.8076470257,
				"y": -2.4144267437,
				"z": -0.9162700276,
				"element": "C" 
			},
			{
				"x": -0.4437366797,
				"y": 0.4968071974,
				"z": 1.0211148359,
				"element": "N" 
			},
			{
				"x": 1.3618818038,
				"y": 1.759642098,
				"z": 2.7279181225,
				"element": "H" 
			},
			{
				"x": 0.132457976,
				"y": 2.8425689502,
				"z": 3.4137737343,
				"element": "H" 
			},
			{
				"x": 0.0523613796,
				"y": 1.09192364,
				"z": 3.701502407,
				"element": "H" 
			},
			{
				"x": -1.6297490131,
				"y": 3.5965170784,
				"z": 1.5639216053,
				"element": "H" 
			},
			{
				"x": -0.675955242,
				"y": -4.6320029408,
				"z": 1.8763029806,
				"element": "H" 
			},
			{
				"x": 2.7560977081,
				"y": -5.3439351278,
				"z": 0.9411693953,
				"element": "H" 
			},
			{
				"x": 1.492336584,
				"y": -5.7224616058,
				"z": 1.9882484377,
				"element": "H" 
			},
			{
				"x": 2.5515680161,
				"y": -3.6641175837,
				"z": -0.8143027389,
				"element": "H" 
			},
			{
				"x": 1.2203300616,
				"y": -1.782999382,
				"z": -1.6960834351,
				"element": "H" 
			}
		],
		 "valence_orbital": [ 
			{
				"type": "occ",
				"energy": -0.26704,
				"method": "rhf"
			},
			{
				"type": "occ",
				"energy": -0.26508,
				"method": "rhf"
			},
			{
				"type": "occ",
				"energy": -0.24979,
				"method": "rhf"
			},
			{
				"type": "occ",
				"energy": -0.21986,
				"method": "rhf"
			},
			{
				"type": "occ",
				"energy": -0.20745,
				"method": "rhf"
			},
			{
				"type": "unocc",
				"energy": -0.01872,
				"method": "rhf"
			},
			{
				"type": "unocc",
				"energy": -0.01481,
				"method": "rhf"
			},
			{
				"type": "unocc",
				"energy": -0.00967,
				"method": "rhf"
			},
			{
				"type": "unocc",
				"energy": 0.0155,
				"method": "rhf"
			},
			{
				"type": "unocc",
				"energy": 0.0265,
				"method": "rhf"
			}
		],
		"cosmo_sigma_profile": { 
			"-0.025": 0.0,
			"-0.024": 0.0,
			"-0.023": 0.0,
			"-0.022": 0.0,
			"-0.021": 0.0,
			"-0.02": 0.0,
			"-0.019": 0.0,
			"-0.018": 0.0,
			"-0.017": 0.0,
			"-0.016": 0.0,
			"-0.015": 0.0,
			"-0.014": 0.351196200305,
			"-0.013": 2.78360247853,
			"-0.012": 2.66519018504,
			"-0.011": 3.51504353092,
			"-0.01": 3.49266719409,
			"-0.009": 4.61194680594,
			"-0.008": 5.00498972833,
			"-0.007": 7.58945986289,
			"-0.006": 8.03227426701,
			"-0.005": 10.9207897623,
			"-0.004": 13.5208256028,
			"-0.003": 12.7082869561,
			"-0.002": 16.321840503,
			"-0.001": 21.1073808764,
			"0.0": 21.2219610699,
			"0.001": 22.5522478814,
			"0.002": 26.760794596,
			"0.003": 31.1708109015,
			"0.004": 25.7175623224,
			"0.005": 11.4940213452,
			"0.006": 7.40064434188,
			"0.007": 5.00195910498,
			"0.008": 2.74668225378,
			"0.009": 2.33123481193,
			"0.01": 2.17990289677,
			"0.011": 1.32226977835,
			"0.012": 1.74374607754,
			"0.013": 1.05743161806,
			"0.014": 0.321428167596,
			"0.015": 0.0,
			"0.016": 0.0,
			"0.017": 0.0,
			"0.018": 0.0,
			"0.019": 0.0,
			"0.02": 0.0,
			"0.021": 0.0,
			"0.022": 0.0,
			"0.023": 0.0,
			"0.024": 0.0,
			"0.025": 0.0
		}
	}
}
