{
	 "smiles": "CN(C)C=NC1=C(C=NN1)C#N", 
	 "Tm": 433.15, 
	 "num_atms": 21, 
	 "gaussian": { 
		 "optdone": 1, 
		 "sigma_profile": "yes", 
		 "theory": "DFT", 
		 "functional": "B3LYP", 
		 "basiset": "6-31G**", 
		 "properties": { 
			 "R2extent": 2439.2415, 
			 "electric_dipole_moment_norm": 5.38340098544, 
			 "electric_quadrupole_moment_norm": 12.9639169814, 
			 "total_energy": -545.873660988, 
			 "HOMO_LUMO_gap": 0.18813, 
			 "cosmo_polarized_energy": -16.64, 
			 "cosmo_cavitation_energy": 25.8, 
			 "cosmo_dispersion_energy": -17.91, 
			 "cosmo_repulsion_energy": 1.43, 
			 "cosmo_total_nonelectrostatic_energy": 9.32, 
			 "SMD_solvation_energy": 3.93 
		},
		"coords": [
			{
				"x": -0.5608462392,
				"y": -2.7993222791,
				"z": -2.013394494,
				"element": "C" 
			},
			{
				"x": -0.4500448458,
				"y": -1.8135156432,
				"z": -0.9445379392,
				"element": "N" 
			},
			{
				"x": -0.2549574956,
				"y": -0.4311788468,
				"z": -1.3659025835,
				"element": "C" 
			},
			{
				"x": -0.4560977143,
				"y": -2.2223536617,
				"z": 0.3478804769,
				"element": "C" 
			},
			{
				"x": -0.1669694019,
				"y": -1.6124049208,
				"z": 1.4520810026,
				"element": "N" 
			},
			{
				"x": 0.6090192197,
				"y": -0.4971978089,
				"z": 1.5947880127,
				"element": "C" 
			},
			{
				"x": 1.8789778884,
				"y": -0.1173892115,
				"z": 1.1063333499,
				"element": "C" 
			},
			{
				"x": 2.1965190926,
				"y": 1.0789544172,
				"z": 1.8118815799,
				"element": "C" 
			},
			{
				"x": 1.2415786008,
				"y": 1.428368203,
				"z": 2.6557448952,
				"element": "N" 
			},
			{
				"x": 0.2971614736,
				"y": 0.4571532704,
				"z": 2.5108751586,
				"element": "N" 
			},
			{
				"x": 2.656037452,
				"y": -0.8138993209,
				"z": 0.1547940166,
				"element": "C" 
			},
			{
				"x": 3.2759996736,
				"y": -1.390914237,
				"z": -0.647551773,
				"element": "N" 
			},
			{
				"x": 0.3899870476,
				"y": -2.8983105467,
				"z": -2.5503495566,
				"element": "H" 
			},
			{
				"x": -1.3376636017,
				"y": -2.5021284502,
				"z": -2.7266832333,
				"element": "H" 
			},
			{
				"x": -0.8214522372,
				"y": -3.773676055,
				"z": -1.5949325377,
				"element": "H" 
			},
			{
				"x": 0.7833566529,
				"y": -0.2331120338,
				"z": -1.6507223124,
				"element": "H" 
			},
			{
				"x": -0.9009187406,
				"y": -0.2406421617,
				"z": -2.2287773768,
				"element": "H" 
			},
			{
				"x": -0.5402023899,
				"y": 0.2483018256,
				"z": -0.5636743046,
				"element": "H" 
			},
			{
				"x": -0.8283425056,
				"y": -3.2437674352,
				"z": 0.4562550874,
				"element": "H" 
			},
			{
				"x": 3.0921573695,
				"y": 1.6780441718,
				"z": 1.7180008156,
				"element": "H" 
			},
			{
				"x": -0.533199299,
				"y": 0.4693907248,
				"z": 3.0832917157,
				"element": "H" 
			}
		],
		 "valence_orbital": [ 
			{
				"type": "occ",
				"energy": -0.3159,
				"method": "rhf"
			},
			{
				"type": "occ",
				"energy": -0.29427,
				"method": "rhf"
			},
			{
				"type": "occ",
				"energy": -0.25967,
				"method": "rhf"
			},
			{
				"type": "occ",
				"energy": -0.25674,
				"method": "rhf"
			},
			{
				"type": "occ",
				"energy": -0.21422,
				"method": "rhf"
			},
			{
				"type": "unocc",
				"energy": -0.02609,
				"method": "rhf"
			},
			{
				"type": "unocc",
				"energy": 0.01599,
				"method": "rhf"
			},
			{
				"type": "unocc",
				"energy": 0.0338,
				"method": "rhf"
			},
			{
				"type": "unocc",
				"energy": 0.04283,
				"method": "rhf"
			},
			{
				"type": "unocc",
				"energy": 0.0707,
				"method": "rhf"
			}
		],
		"cosmo_sigma_profile": { 
			"-0.025": 0.0,
			"-0.024": 0.0,
			"-0.023": 0.0,
			"-0.022": 0.0,
			"-0.021": 0.0,
			"-0.02": 0.0,
			"-0.019": 0.0,
			"-0.018": 0.0,
			"-0.017": 0.458460727539,
			"-0.016": 1.31633486884,
			"-0.015": 1.09293969552,
			"-0.014": 1.00550035678,
			"-0.013": 0.650433509465,
			"-0.012": 0.663786411402,
			"-0.011": 1.2107559851,
			"-0.01": 0.781159436245,
			"-0.009": 2.76775206669,
			"-0.008": 5.94850724558,
			"-0.007": 6.95115825607,
			"-0.006": 11.4713185623,
			"-0.005": 14.5587311619,
			"-0.004": 17.7624535627,
			"-0.003": 21.4184153037,
			"-0.002": 14.5315847244,
			"-0.001": 9.51970371929,
			"0.0": 11.493663602,
			"0.001": 11.9703486552,
			"0.002": 9.57012370289,
			"0.003": 7.08310279627,
			"0.004": 5.86708365016,
			"0.005": 5.53252693746,
			"0.006": 4.70649621174,
			"0.007": 5.20638120187,
			"0.008": 4.16944703504,
			"0.009": 4.77560070125,
			"0.01": 5.81188870975,
			"0.011": 4.89142275694,
			"0.012": 4.68640003184,
			"0.013": 4.3124595619,
			"0.014": 3.19593732568,
			"0.015": 0.929648007673,
			"0.016": 0.121569523787,
			"0.017": 0.0,
			"0.018": 0.0,
			"0.019": 0.0,
			"0.02": 0.0,
			"0.021": 0.0,
			"0.022": 0.0,
			"0.023": 0.0,
			"0.024": 0.0,
			"0.025": 0.0
		}
	}
}
