{
	 "smiles": "OC(=O)C1=CC(Cl)=C(Cl)C=C1", 
	 "Tm": 481.15, 
	 "num_atms": 15, 
	 "gaussian": { 
		 "optdone": 1, 
		 "sigma_profile": "yes", 
		 "theory": "DFT", 
		 "functional": "B3LYP", 
		 "basiset": "6-31G**", 
		 "properties": { 
			 "R2extent": 3799.0536, 
			 "electric_dipole_moment_norm": 3.97409176291, 
			 "electric_quadrupole_moment_norm": 9.5768113801, 
			 "total_energy": -1339.99019073, 
			 "HOMO_LUMO_gap": 0.19931, 
			 "cosmo_polarized_energy": -14.0, 
			 "cosmo_cavitation_energy": 23.63, 
			 "cosmo_dispersion_energy": -17.8, 
			 "cosmo_repulsion_energy": 1.43, 
			 "cosmo_total_nonelectrostatic_energy": 7.26, 
			 "SMD_solvation_energy": 4.74 
		},
		"coords": [
			{
				"x": -2.1744902875,
				"y": 0.8662325049,
				"z": -1.2735844944,
				"element": "O" 
			},
			{
				"x": -1.4991232409,
				"y": -0.2952870184,
				"z": -1.4759983091,
				"element": "C" 
			},
			{
				"x": -1.5694434921,
				"y": -0.8620071103,
				"z": -2.539773655,
				"element": "O" 
			},
			{
				"x": -0.6825136517,
				"y": -0.8111319764,
				"z": -0.3263755159,
				"element": "C" 
			},
			{
				"x": -0.3284685743,
				"y": -2.1637430081,
				"z": -0.352621197,
				"element": "C" 
			},
			{
				"x": 0.4314637019,
				"y": -2.7174849469,
				"z": 0.6744062528,
				"element": "C" 
			},
			{
				"x": 0.8299447045,
				"y": -4.4129304,
				"z": 0.6071525523,
				"element": "Cl" 
			},
			{
				"x": 0.8630747134,
				"y": -1.9063593376,
				"z": 1.7370748594,
				"element": "C" 
			},
			{
				"x": 1.817876374,
				"y": -2.5501189563,
				"z": 3.0431261291,
				"element": "Cl" 
			},
			{
				"x": 0.5313475232,
				"y": -0.5493990844,
				"z": 1.752311289,
				"element": "C" 
			},
			{
				"x": -0.2375622375,
				"y": -0.0042827642,
				"z": 0.7288954643,
				"element": "C" 
			},
			{
				"x": -2.1686893925,
				"y": 1.1044420516,
				"z": -0.33635032,
				"element": "H" 
			},
			{
				"x": -0.6541084176,
				"y": -2.7765565912,
				"z": -1.1849735625,
				"element": "H" 
			},
			{
				"x": 0.8876322611,
				"y": 0.0702763829,
				"z": 2.5673222741,
				"element": "H" 
			},
			{
				"x": -0.4467399841,
				"y": 1.0617502544,
				"z": 0.748788233,
				"element": "H" 
			}
		],
		 "valence_orbital": [ 
			{
				"type": "occ",
				"energy": -0.32821,
				"method": "rhf"
			},
			{
				"type": "occ",
				"energy": -0.32384,
				"method": "rhf"
			},
			{
				"type": "occ",
				"energy": -0.29018,
				"method": "rhf"
			},
			{
				"type": "occ",
				"energy": -0.27986,
				"method": "rhf"
			},
			{
				"type": "occ",
				"energy": -0.27016,
				"method": "rhf"
			},
			{
				"type": "unocc",
				"energy": -0.07085,
				"method": "rhf"
			},
			{
				"type": "unocc",
				"energy": -0.04567,
				"method": "rhf"
			},
			{
				"type": "unocc",
				"energy": -0.01156,
				"method": "rhf"
			},
			{
				"type": "unocc",
				"energy": 0.02804,
				"method": "rhf"
			},
			{
				"type": "unocc",
				"energy": 0.04404,
				"method": "rhf"
			}
		],
		"cosmo_sigma_profile": { 
			"-0.025": 0.0,
			"-0.024": 0.0,
			"-0.023": 0.0,
			"-0.022": 0.0,
			"-0.021": 0.0,
			"-0.02": 0.00199526971056,
			"-0.019": 0.701338316108,
			"-0.018": 1.14437330882,
			"-0.017": 1.25120826495,
			"-0.016": 0.557411283977,
			"-0.015": 0.918164093487,
			"-0.014": 1.78004776977,
			"-0.013": 1.00865533104,
			"-0.012": 1.26387396399,
			"-0.011": 0.576036157213,
			"-0.01": 2.03071682075,
			"-0.009": 2.66318484243,
			"-0.008": 5.11939539699,
			"-0.007": 5.03511599449,
			"-0.006": 5.53463233001,
			"-0.005": 4.62543275569,
			"-0.004": 6.63024009893,
			"-0.003": 9.74377672503,
			"-0.002": 11.4900192748,
			"-0.001": 19.9984012033,
			"0.0": 23.8418122204,
			"0.001": 15.8643796883,
			"0.002": 12.9550290061,
			"0.003": 18.0464527096,
			"0.004": 12.0133444247,
			"0.005": 4.74109469205,
			"0.006": 1.97824624099,
			"0.007": 2.29559651965,
			"0.008": 3.00951319043,
			"0.009": 3.81891257884,
			"0.01": 5.33449937258,
			"0.011": 5.19247023374,
			"0.012": 2.99468555451,
			"0.013": 0.67528076863,
			"0.014": 0.0,
			"0.015": 0.0,
			"0.016": 0.0,
			"0.017": 0.0,
			"0.018": 0.0,
			"0.019": 0.0,
			"0.02": 0.0,
			"0.021": 0.0,
			"0.022": 0.0,
			"0.023": 0.0,
			"0.024": 0.0,
			"0.025": 0.0
		}
	}
}
