{
	 "smiles": "O=C(NC1(CCCC1)C#N)C1=CC=CC=C1", 
	 "Tm": 404.15, 
	 "num_atms": 30, 
	 "gaussian": { 
		 "optdone": 1, 
		 "sigma_profile": "yes", 
		 "theory": "DFT", 
		 "functional": "B3LYP", 
		 "basiset": "6-31G**", 
		 "properties": { 
			 "R2extent": 3794.4227, 
			 "electric_dipole_moment_norm": 4.48390043712, 
			 "electric_quadrupole_moment_norm": 16.2234923373, 
			 "total_energy": -688.536188375, 
			 "HOMO_LUMO_gap": 0.21175, 
			 "cosmo_polarized_energy": -15.85, 
			 "cosmo_cavitation_energy": 33.08, 
			 "cosmo_dispersion_energy": -22.55, 
			 "cosmo_repulsion_energy": 1.77, 
			 "cosmo_total_nonelectrostatic_energy": 12.3, 
			 "SMD_solvation_energy": 6.15 
		},
		"coords": [
			{
				"x": -0.2688986177,
				"y": 2.2013937792,
				"z": 1.9116220093,
				"element": "O" 
			},
			{
				"x": -0.0394793708,
				"y": 1.2078438392,
				"z": 1.2363567221,
				"element": "C" 
			},
			{
				"x": -0.4599523529,
				"y": 1.1703659874,
				"z": -0.0950772763,
				"element": "N" 
			},
			{
				"x": 0.2504734314,
				"y": 0.5796275622,
				"z": -1.242383714,
				"element": "C" 
			},
			{
				"x": -0.2567701709,
				"y": 1.2486958814,
				"z": -2.5512971585,
				"element": "C" 
			},
			{
				"x": 0.1820474249,
				"y": 0.3034889506,
				"z": -3.68522865,
				"element": "C" 
			},
			{
				"x": 0.3083978592,
				"y": -1.1052765908,
				"z": -3.0310159505,
				"element": "C" 
			},
			{
				"x": -0.0422305111,
				"y": -0.9166465497,
				"z": -1.538469157,
				"element": "C" 
			},
			{
				"x": 1.7148921778,
				"y": 0.794037058,
				"z": -1.1348499087,
				"element": "C" 
			},
			{
				"x": 2.8623121586,
				"y": 0.9627312588,
				"z": -1.0760509254,
				"element": "N" 
			},
			{
				"x": 0.6280547316,
				"y": 0.0040261169,
				"z": 1.8277597034,
				"element": "C" 
			},
			{
				"x": 1.7700825205,
				"y": 0.2016582553,
				"z": 2.6162983162,
				"element": "C" 
			},
			{
				"x": 2.3786208591,
				"y": -0.8788851079,
				"z": 3.2500517618,
				"element": "C" 
			},
			{
				"x": 1.8317303271,
				"y": -2.1596288756,
				"z": 3.1319022401,
				"element": "C" 
			},
			{
				"x": 0.6740018513,
				"y": -2.3564903364,
				"z": 2.3775766656,
				"element": "C" 
			},
			{
				"x": 0.0759273812,
				"y": -1.2793449274,
				"z": 1.7212853964,
				"element": "C" 
			},
			{
				"x": -0.8722566243,
				"y": 2.0716729859,
				"z": -0.3157344886,
				"element": "H" 
			},
			{
				"x": 0.1117152588,
				"y": 2.2723262724,
				"z": -2.6631255551,
				"element": "H" 
			},
			{
				"x": -1.3500536468,
				"y": 1.2859780978,
				"z": -2.476479393,
				"element": "H" 
			},
			{
				"x": -0.5358833474,
				"y": 0.3199496339,
				"z": -4.5095117314,
				"element": "H" 
			},
			{
				"x": 1.1449476551,
				"y": 0.6221453459,
				"z": -4.0939551015,
				"element": "H" 
			},
			{
				"x": 1.3289610682,
				"y": -1.4831343851,
				"z": -3.1390885679,
				"element": "H" 
			},
			{
				"x": -0.3528245288,
				"y": -1.8411632837,
				"z": -3.4965719257,
				"element": "H" 
			},
			{
				"x": 0.5035653835,
				"y": -1.5934793853,
				"z": -0.8807131804,
				"element": "H" 
			},
			{
				"x": -1.1136004575,
				"y": -1.0612032346,
				"z": -1.3623082932,
				"element": "H" 
			},
			{
				"x": 2.1720063748,
				"y": 1.2040201304,
				"z": 2.7192362661,
				"element": "H" 
			},
			{
				"x": 3.2748068668,
				"y": -0.7220687773,
				"z": 3.8428505832,
				"element": "H" 
			},
			{
				"x": 2.3018630645,
				"y": -2.9999120751,
				"z": 3.6346318181,
				"element": "H" 
			},
			{
				"x": 0.2322314801,
				"y": -3.3460728885,
				"z": 2.3045653915,
				"element": "H" 
			},
			{
				"x": -0.8374882463,
				"y": -1.427154738,
				"z": 1.1548241038,
				"element": "H" 
			}
		],
		 "valence_orbital": [ 
			{
				"type": "occ",
				"energy": -0.32189,
				"method": "rhf"
			},
			{
				"type": "occ",
				"energy": -0.27626,
				"method": "rhf"
			},
			{
				"type": "occ",
				"energy": -0.26644,
				"method": "rhf"
			},
			{
				"type": "occ",
				"energy": -0.25883,
				"method": "rhf"
			},
			{
				"type": "occ",
				"energy": -0.24687,
				"method": "rhf"
			},
			{
				"type": "unocc",
				"energy": -0.03512,
				"method": "rhf"
			},
			{
				"type": "unocc",
				"energy": -0.00962,
				"method": "rhf"
			},
			{
				"type": "unocc",
				"energy": 0.01379,
				"method": "rhf"
			},
			{
				"type": "unocc",
				"energy": 0.03342,
				"method": "rhf"
			},
			{
				"type": "unocc",
				"energy": 0.03622,
				"method": "rhf"
			}
		],
		"cosmo_sigma_profile": { 
			"-0.025": 0.0,
			"-0.024": 0.0,
			"-0.023": 0.0,
			"-0.022": 0.0,
			"-0.021": 0.0,
			"-0.02": 0.0,
			"-0.019": 0.0,
			"-0.018": 0.0,
			"-0.017": 0.0,
			"-0.016": 0.0,
			"-0.015": 0.0,
			"-0.014": 0.0,
			"-0.013": 0.894960843228,
			"-0.012": 1.06993552686,
			"-0.011": 1.00809786401,
			"-0.01": 1.53231394983,
			"-0.009": 1.20435325654,
			"-0.008": 1.31989500242,
			"-0.007": 3.02224746578,
			"-0.006": 13.9902034946,
			"-0.005": 20.2730671209,
			"-0.004": 24.987955804,
			"-0.003": 31.0728831315,
			"-0.002": 28.744729714,
			"-0.001": 20.7970569889,
			"0.0": 17.4865432193,
			"0.001": 10.2862467227,
			"0.002": 10.6495413047,
			"0.003": 11.6380336537,
			"0.004": 14.7431448814,
			"0.005": 7.94134996613,
			"0.006": 4.81369599352,
			"0.007": 3.31928191461,
			"0.008": 4.69669810505,
			"0.009": 4.42231421907,
			"0.01": 4.5737952028,
			"0.011": 4.65911483079,
			"0.012": 7.07676368573,
			"0.013": 5.04454568956,
			"0.014": 0.55530281534,
			"0.015": 0.0,
			"0.016": 0.0,
			"0.017": 0.0,
			"0.018": 0.0,
			"0.019": 0.0,
			"0.02": 0.0,
			"0.021": 0.0,
			"0.022": 0.0,
			"0.023": 0.0,
			"0.024": 0.0,
			"0.025": 0.0
		}
	}
}
