{
	 "smiles": "CS(=O)(=O)C1=CC(N)=C(O)C=C1", 
	 "Tm": 429.15, 
	 "num_atms": 21, 
	 "gaussian": { 
		 "optdone": 1, 
		 "sigma_profile": "yes", 
		 "theory": "DFT", 
		 "functional": "B3LYP", 
		 "basiset": "6-31G**", 
		 "properties": { 
			 "R2extent": 3032.7603, 
			 "electric_dipole_moment_norm": 5.01443220913, 
			 "electric_quadrupole_moment_norm": 22.6322048201, 
			 "total_energy": -950.716642129, 
			 "HOMO_LUMO_gap": 0.21252, 
			 "cosmo_polarized_energy": -19.17, 
			 "cosmo_cavitation_energy": 26.3, 
			 "cosmo_dispersion_energy": -19.87, 
			 "cosmo_repulsion_energy": 1.55, 
			 "cosmo_total_nonelectrostatic_energy": 7.98, 
			 "SMD_solvation_energy": 4.96 
		},
		"coords": [
			{
				"x": -3.3236840427,
				"y": -0.8384667292,
				"z": 0.3357355789,
				"element": "C" 
			},
			{
				"x": -2.4806269948,
				"y": -0.6081261738,
				"z": -1.249570034,
				"element": "S" 
			},
			{
				"x": -2.6947103197,
				"y": -1.8341224993,
				"z": -2.0372309017,
				"element": "O" 
			},
			{
				"x": -2.8840164865,
				"y": 0.7092552134,
				"z": -1.7666558424,
				"element": "O" 
			},
			{
				"x": -0.7455737318,
				"y": -0.531188466,
				"z": -0.8140894176,
				"element": "C" 
			},
			{
				"x": 0.022951375,
				"y": -1.6975141102,
				"z": -0.8729587525,
				"element": "C" 
			},
			{
				"x": 1.3708231133,
				"y": -1.6454478699,
				"z": -0.5344090871,
				"element": "C" 
			},
			{
				"x": 2.2815922015,
				"y": -2.7615304876,
				"z": -0.5515219922,
				"element": "N" 
			},
			{
				"x": 1.9429255793,
				"y": -0.4187909337,
				"z": -0.1293692533,
				"element": "C" 
			},
			{
				"x": 3.2433861973,
				"y": -0.3854107357,
				"z": 0.2170965171,
				"element": "O" 
			},
			{
				"x": 1.169290059,
				"y": 0.7485402767,
				"z": -0.0926915639,
				"element": "C" 
			},
			{
				"x": -0.1754843577,
				"y": 0.6910553458,
				"z": -0.4411733491,
				"element": "C" 
			},
			{
				"x": -2.9869310417,
				"y": -1.7712859982,
				"z": 0.7899804883,
				"element": "H" 
			},
			{
				"x": -4.3911367528,
				"y": -0.888351634,
				"z": 0.1109888883,
				"element": "H" 
			},
			{
				"x": -3.1114959636,
				"y": 0.0135296366,
				"z": 0.983002078,
				"element": "H" 
			},
			{
				"x": -0.4331257442,
				"y": -2.6255921042,
				"z": -1.2045806414,
				"element": "H" 
			},
			{
				"x": 1.890007378,
				"y": -3.5750908503,
				"z": -0.0859673565,
				"element": "H" 
			},
			{
				"x": 2.5143368831,
				"y": -3.0380390802,
				"z": -1.5027910795,
				"element": "H" 
			},
			{
				"x": 3.5363730757,
				"y": -1.3192873562,
				"z": 0.1502167824,
				"element": "H" 
			},
			{
				"x": 1.636846933,
				"y": 1.6808800509,
				"z": 0.2045596045,
				"element": "H" 
			},
			{
				"x": -0.7838473597,
				"y": 1.5894845048,
				"z": -0.4434706664,
				"element": "H" 
			}
		],
		 "valence_orbital": [ 
			{
				"type": "occ",
				"energy": -0.30029,
				"method": "rhf"
			},
			{
				"type": "occ",
				"energy": -0.29015,
				"method": "rhf"
			},
			{
				"type": "occ",
				"energy": -0.28033,
				"method": "rhf"
			},
			{
				"type": "occ",
				"energy": -0.2687,
				"method": "rhf"
			},
			{
				"type": "occ",
				"energy": -0.23875,
				"method": "rhf"
			},
			{
				"type": "unocc",
				"energy": -0.02623,
				"method": "rhf"
			},
			{
				"type": "unocc",
				"energy": -0.02362,
				"method": "rhf"
			},
			{
				"type": "unocc",
				"energy": 0.05708,
				"method": "rhf"
			},
			{
				"type": "unocc",
				"energy": 0.07157,
				"method": "rhf"
			},
			{
				"type": "unocc",
				"energy": 0.08564,
				"method": "rhf"
			}
		],
		"cosmo_sigma_profile": { 
			"-0.025": 0.0,
			"-0.024": 0.0,
			"-0.023": 0.0,
			"-0.022": 0.0,
			"-0.021": 0.0,
			"-0.02": 0.0,
			"-0.019": 0.0,
			"-0.018": 0.0,
			"-0.017": 0.0,
			"-0.016": 0.0,
			"-0.015": 0.0,
			"-0.014": 0.0,
			"-0.013": 0.281272540747,
			"-0.012": 2.8612802303,
			"-0.011": 3.45812369761,
			"-0.01": 3.58883111469,
			"-0.009": 4.61131969121,
			"-0.008": 9.2185307686,
			"-0.007": 12.0854664283,
			"-0.006": 13.6929583903,
			"-0.005": 13.2770985072,
			"-0.004": 14.583448121,
			"-0.003": 10.6444670998,
			"-0.002": 9.76601328546,
			"-0.001": 7.83600747127,
			"0.0": 7.98810426998,
			"0.001": 11.5316776335,
			"0.002": 14.2105712298,
			"0.003": 11.9502430277,
			"0.004": 6.94386538114,
			"0.005": 4.72211174586,
			"0.006": 3.87484749422,
			"0.007": 4.42798964405,
			"0.008": 4.98400720081,
			"0.009": 3.84343045818,
			"0.01": 5.63295510935,
			"0.011": 10.2001006224,
			"0.012": 9.92658689195,
			"0.013": 2.60080584954,
			"0.014": 0.0,
			"0.015": 0.0,
			"0.016": 0.0,
			"0.017": 0.0,
			"0.018": 0.0,
			"0.019": 0.0,
			"0.02": 0.0,
			"0.021": 0.0,
			"0.022": 0.0,
			"0.023": 0.0,
			"0.024": 0.0,
			"0.025": 0.0
		}
	}
}
