{
	 "smiles": "CC1=C(C)C2=CC=CC=C2C2=CC=CC=C12", 
	 "Tm": 417.15, 
	 "num_atms": 30, 
	 "gaussian": { 
		 "optdone": 1, 
		 "sigma_profile": "yes", 
		 "theory": "DFT", 
		 "functional": "B3LYP", 
		 "basiset": "6-31G**", 
		 "properties": { 
			 "R2extent": 3858.5919, 
			 "electric_dipole_moment_norm": 0.551853069213, 
			 "electric_quadrupole_moment_norm": 8.47685574196, 
			 "total_energy": -618.17330434, 
			 "HOMO_LUMO_gap": 0.17251, 
			 "cosmo_polarized_energy": -5.99, 
			 "cosmo_cavitation_energy": 31.07, 
			 "cosmo_dispersion_energy": -23.47, 
			 "cosmo_repulsion_energy": 1.75, 
			 "cosmo_total_nonelectrostatic_energy": 9.35, 
			 "SMD_solvation_energy": 4.75 
		},
		"coords": [
			{
				"x": 1.3389180129,
				"y": 0.547318511,
				"z": -2.0575544885,
				"element": "C" 
			},
			{
				"x": 0.2794991302,
				"y": 0.6291900709,
				"z": -0.9789258577,
				"element": "C" 
			},
			{
				"x": -0.6595583614,
				"y": 1.6336609265,
				"z": -0.9217179979,
				"element": "C" 
			},
			{
				"x": -0.7295472871,
				"y": 2.7596435481,
				"z": -1.931643512,
				"element": "C" 
			},
			{
				"x": -1.6497630596,
				"y": 1.6499792606,
				"z": 0.1449983266,
				"element": "C" 
			},
			{
				"x": -2.6249189106,
				"y": 2.6768247795,
				"z": 0.2204451876,
				"element": "C" 
			},
			{
				"x": -3.5728230821,
				"y": 2.7087962824,
				"z": 1.2259770165,
				"element": "C" 
			},
			{
				"x": -3.5831183105,
				"y": 1.7042803941,
				"z": 2.2064688123,
				"element": "C" 
			},
			{
				"x": -2.6447044678,
				"y": 0.6905413265,
				"z": 2.1585542919,
				"element": "C" 
			},
			{
				"x": -1.6631376997,
				"y": 0.6318973336,
				"z": 1.1418606401,
				"element": "C" 
			},
			{
				"x": -0.6704187637,
				"y": -0.4302495488,
				"z": 1.0812325426,
				"element": "C" 
			},
			{
				"x": -0.6222449487,
				"y": -1.4737196724,
				"z": 2.0348608414,
				"element": "C" 
			},
			{
				"x": 0.3253368677,
				"y": -2.4777891397,
				"z": 1.9676787668,
				"element": "C" 
			},
			{
				"x": 1.2710207708,
				"y": -2.4736386147,
				"z": 0.9302829185,
				"element": "C" 
			},
			{
				"x": 1.2476543992,
				"y": -1.4661749731,
				"z": -0.0158168726,
				"element": "C" 
			},
			{
				"x": 0.2879729687,
				"y": -0.4229901064,
				"z": 0.0267933613,
				"element": "C" 
			},
			{
				"x": 1.2815751532,
				"y": 1.3596757638,
				"z": -2.778382033,
				"element": "H" 
			},
			{
				"x": 1.2564743352,
				"y": -0.3900535195,
				"z": -2.6199748756,
				"element": "H" 
			},
			{
				"x": 2.3452772353,
				"y": 0.5710949118,
				"z": -1.6234398302,
				"element": "H" 
			},
			{
				"x": -1.7010456455,
				"y": 2.7731485063,
				"z": -2.4393674536,
				"element": "H" 
			},
			{
				"x": -0.611457952,
				"y": 3.7340927348,
				"z": -1.443495525,
				"element": "H" 
			},
			{
				"x": 0.0342446728,
				"y": 2.6929883537,
				"z": -2.7030203446,
				"element": "H" 
			},
			{
				"x": -2.6344335341,
				"y": 3.4613537975,
				"z": -0.5260471559,
				"element": "H" 
			},
			{
				"x": -4.3060879981,
				"y": 3.5096769386,
				"z": 1.2549374416,
				"element": "H" 
			},
			{
				"x": -4.3239111783,
				"y": 1.7207093052,
				"z": 3.0006190351,
				"element": "H" 
			},
			{
				"x": -2.6717452191,
				"y": -0.0740558554,
				"z": 2.9260492687,
				"element": "H" 
			},
			{
				"x": -1.3423092917,
				"y": -1.4973615361,
				"z": 2.8443851082,
				"element": "H" 
			},
			{
				"x": 0.335487706,
				"y": -3.2651105514,
				"z": 2.7158354159,
				"element": "H" 
			},
			{
				"x": 2.0197349112,
				"y": -3.2582238937,
				"z": 0.8688239439,
				"element": "H" 
			},
			{
				"x": 1.9861295471,
				"y": -1.4817053337,
				"z": -0.8078169725,
				"element": "H" 
			}
		],
		 "valence_orbital": [ 
			{
				"type": "occ",
				"energy": -0.29434,
				"method": "rhf"
			},
			{
				"type": "occ",
				"energy": -0.27449,
				"method": "rhf"
			},
			{
				"type": "occ",
				"energy": -0.25268,
				"method": "rhf"
			},
			{
				"type": "occ",
				"energy": -0.21764,
				"method": "rhf"
			},
			{
				"type": "occ",
				"energy": -0.20553,
				"method": "rhf"
			},
			{
				"type": "unocc",
				"energy": -0.03302,
				"method": "rhf"
			},
			{
				"type": "unocc",
				"energy": -0.02857,
				"method": "rhf"
			},
			{
				"type": "unocc",
				"energy": 0.01063,
				"method": "rhf"
			},
			{
				"type": "unocc",
				"energy": 0.04255,
				"method": "rhf"
			},
			{
				"type": "unocc",
				"energy": 0.0789,
				"method": "rhf"
			}
		],
		"cosmo_sigma_profile": { 
			"-0.025": 0.0,
			"-0.024": 0.0,
			"-0.023": 0.0,
			"-0.022": 0.0,
			"-0.021": 0.0,
			"-0.02": 0.0,
			"-0.019": 0.0,
			"-0.018": 0.0,
			"-0.017": 0.0,
			"-0.016": 0.0,
			"-0.015": 0.0,
			"-0.014": 0.0,
			"-0.013": 0.0,
			"-0.012": 0.0,
			"-0.011": 0.0,
			"-0.01": 0.0,
			"-0.009": 0.0,
			"-0.008": 0.855954075622,
			"-0.007": 1.98992695108,
			"-0.006": 6.0218825147,
			"-0.005": 17.0561874189,
			"-0.004": 27.2285912415,
			"-0.003": 25.5486243681,
			"-0.002": 19.6142725631,
			"-0.001": 18.8662244827,
			"0.0": 21.6674405932,
			"0.001": 17.7848645622,
			"0.002": 13.251567109,
			"0.003": 18.5922014897,
			"0.004": 27.117157991,
			"0.005": 23.1724691185,
			"0.006": 9.70751406164,
			"0.007": 0.0,
			"0.008": 0.0,
			"0.009": 0.0,
			"0.01": 0.0,
			"0.011": 0.0,
			"0.012": 0.0,
			"0.013": 0.0,
			"0.014": 0.0,
			"0.015": 0.0,
			"0.016": 0.0,
			"0.017": 0.0,
			"0.018": 0.0,
			"0.019": 0.0,
			"0.02": 0.0,
			"0.021": 0.0,
			"0.022": 0.0,
			"0.023": 0.0,
			"0.024": 0.0,
			"0.025": 0.0
		}
	}
}
