{
	 "smiles": "OC(=O)CC(NC(=O)OCC1=CC=CC=C1)C1=CC=CC=C1", 
	 "Tm": 398.15, 
	 "num_atms": 39, 
	 "gaussian": { 
		 "optdone": 1, 
		 "sigma_profile": "yes", 
		 "theory": "DFT", 
		 "functional": "B3LYP", 
		 "basiset": "6-31G**", 
		 "properties": { 
			 "R2extent": 8250.2184, 
			 "electric_dipole_moment_norm": 3.998737472, 
			 "electric_quadrupole_moment_norm": 14.4239271345, 
			 "total_energy": -1013.74423558, 
			 "HOMO_LUMO_gap": 0.22746, 
			 "cosmo_polarized_energy": -17.68, 
			 "cosmo_cavitation_energy": 43.98, 
			 "cosmo_dispersion_energy": -28.98, 
			 "cosmo_repulsion_energy": 2.25, 
			 "cosmo_total_nonelectrostatic_energy": 17.25, 
			 "SMD_solvation_energy": 8.86 
		},
		"coords": [
			{
				"x": 0.251007684,
				"y": -2.0205743442,
				"z": 4.463024457,
				"element": "O" 
			},
			{
				"x": -0.0077591452,
				"y": -0.9798158581,
				"z": 3.6471540629,
				"element": "C" 
			},
			{
				"x": -1.0773480446,
				"y": -0.3996824278,
				"z": 3.6560111806,
				"element": "O" 
			},
			{
				"x": 1.1865329453,
				"y": -0.617585131,
				"z": 2.789115383,
				"element": "C" 
			},
			{
				"x": 0.8248600283,
				"y": -0.0721476934,
				"z": 1.3872480032,
				"element": "C" 
			},
			{
				"x": 0.0319206099,
				"y": 1.1420118619,
				"z": 1.526761977,
				"element": "N" 
			},
			{
				"x": -0.056835347,
				"y": 2.1348212054,
				"z": 0.5913758552,
				"element": "C" 
			},
			{
				"x": -0.8506468524,
				"y": 3.0569747929,
				"z": 0.6350016047,
				"element": "O" 
			},
			{
				"x": 0.881966221,
				"y": 1.9774832464,
				"z": -0.3837397067,
				"element": "O" 
			},
			{
				"x": 0.8749786542,
				"y": 2.9889857293,
				"z": -1.4085113781,
				"element": "C" 
			},
			{
				"x": 1.7176219919,
				"y": 2.5164111576,
				"z": -2.5667819537,
				"element": "C" 
			},
			{
				"x": 1.6562575191,
				"y": 1.1891088878,
				"z": -3.0121756851,
				"element": "C" 
			},
			{
				"x": 2.4035674214,
				"y": 0.7811486074,
				"z": -4.1166491608,
				"element": "C" 
			},
			{
				"x": 3.2150604942,
				"y": 1.6937958102,
				"z": -4.795423549,
				"element": "C" 
			},
			{
				"x": 3.2804952836,
				"y": 3.0168929054,
				"z": -4.3576640419,
				"element": "C" 
			},
			{
				"x": 2.5396223025,
				"y": 3.4224159888,
				"z": -3.2458027299,
				"element": "C" 
			},
			{
				"x": 0.192311096,
				"y": -1.1530509143,
				"z": 0.5068172644,
				"element": "C" 
			},
			{
				"x": 1.0253205263,
				"y": -2.0009428491,
				"z": -0.2355208212,
				"element": "C" 
			},
			{
				"x": 0.4899413769,
				"y": -3.0225826604,
				"z": -1.0208824687,
				"element": "C" 
			},
			{
				"x": -0.8927813156,
				"y": -3.2078171605,
				"z": -1.0768493471,
				"element": "C" 
			},
			{
				"x": -1.7308181404,
				"y": -2.3646328355,
				"z": -0.3454696255,
				"element": "C" 
			},
			{
				"x": -1.1932580318,
				"y": -1.3440353447,
				"z": 0.4412035407,
				"element": "C" 
			},
			{
				"x": -0.5486248809,
				"y": -2.1556434814,
				"z": 5.0006087262,
				"element": "H" 
			},
			{
				"x": 1.8350651192,
				"y": -1.4911930461,
				"z": 2.6954400029,
				"element": "H" 
			},
			{
				"x": 1.7466343415,
				"y": 0.1512727321,
				"z": 3.3370066545,
				"element": "H" 
			},
			{
				"x": 1.7690805225,
				"y": 0.2162572472,
				"z": 0.9187237928,
				"element": "H" 
			},
			{
				"x": -0.7099414664,
				"y": 1.1318356717,
				"z": 2.2152640539,
				"element": "H" 
			},
			{
				"x": -0.1624961781,
				"y": 3.1720167041,
				"z": -1.7084053387,
				"element": "H" 
			},
			{
				"x": 1.2611929013,
				"y": 3.9275065579,
				"z": -0.9964027959,
				"element": "H" 
			},
			{
				"x": 1.0328116588,
				"y": 0.4764311924,
				"z": -2.4813582533,
				"element": "H" 
			},
			{
				"x": 2.3507096471,
				"y": -0.2516918268,
				"z": -4.4498348462,
				"element": "H" 
			},
			{
				"x": 3.7948522137,
				"y": 1.3741212511,
				"z": -5.6566618892,
				"element": "H" 
			},
			{
				"x": 3.9140191582,
				"y": 3.7323844936,
				"z": -4.8742996608,
				"element": "H" 
			},
			{
				"x": 2.6020745718,
				"y": 4.452201371,
				"z": -2.9020263596,
				"element": "H" 
			},
			{
				"x": 2.103048644,
				"y": -1.8544381932,
				"z": -0.2050777456,
				"element": "H" 
			},
			{
				"x": 1.1511296942,
				"y": -3.6667803544,
				"z": -1.5937180869,
				"element": "H" 
			},
			{
				"x": -1.3136733135,
				"y": -3.998696341,
				"z": -1.690980813,
				"element": "H" 
			},
			{
				"x": -2.8081609867,
				"y": -2.4976549844,
				"z": -0.3883269006,
				"element": "H" 
			},
			{
				"x": -1.853438924,
				"y": -0.691211968,
				"z": 1.0024065984,
				"element": "H" 
			}
		],
		 "valence_orbital": [ 
			{
				"type": "occ",
				"energy": -0.25598,
				"method": "rhf"
			},
			{
				"type": "occ",
				"energy": -0.2531,
				"method": "rhf"
			},
			{
				"type": "occ",
				"energy": -0.24796,
				"method": "rhf"
			},
			{
				"type": "occ",
				"energy": -0.24401,
				"method": "rhf"
			},
			{
				"type": "occ",
				"energy": -0.24,
				"method": "rhf"
			},
			{
				"type": "unocc",
				"energy": -0.01254,
				"method": "rhf"
			},
			{
				"type": "unocc",
				"energy": -0.00743,
				"method": "rhf"
			},
			{
				"type": "unocc",
				"energy": -0.00375,
				"method": "rhf"
			},
			{
				"type": "unocc",
				"energy": -0.00181,
				"method": "rhf"
			},
			{
				"type": "unocc",
				"energy": 0.00102,
				"method": "rhf"
			}
		],
		"cosmo_sigma_profile": { 
			"-0.025": 0.0,
			"-0.024": 0.0,
			"-0.023": 0.0,
			"-0.022": 0.0,
			"-0.021": 0.0,
			"-0.02": 0.0,
			"-0.019": 0.283526159487,
			"-0.018": 0.993320004642,
			"-0.017": 0.995980197339,
			"-0.016": 0.779018046349,
			"-0.015": 0.707473388192,
			"-0.014": 0.360715034572,
			"-0.013": 0.734004034251,
			"-0.012": 0.817449372881,
			"-0.011": 0.788517987086,
			"-0.01": 0.497060548386,
			"-0.009": 0.526874900804,
			"-0.008": 1.85940431512,
			"-0.007": 7.24070953047,
			"-0.006": 21.8222810361,
			"-0.005": 28.8440690467,
			"-0.004": 30.6175400976,
			"-0.003": 29.1063781034,
			"-0.002": 23.5320679436,
			"-0.001": 21.8345117821,
			"0.0": 23.0090317469,
			"0.001": 21.6289998268,
			"0.002": 21.6601232098,
			"0.003": 23.6307713223,
			"0.004": 21.3003332219,
			"0.005": 21.9492084369,
			"0.006": 15.3097143397,
			"0.007": 3.4759494326,
			"0.008": 4.30499163269,
			"0.009": 3.60670718168,
			"0.01": 3.27884326079,
			"0.011": 3.34982659483,
			"0.012": 2.94117502526,
			"0.013": 5.70703194437,
			"0.014": 2.03391404332,
			"0.015": 0.0,
			"0.016": 0.0,
			"0.017": 0.0,
			"0.018": 0.0,
			"0.019": 0.0,
			"0.02": 0.0,
			"0.021": 0.0,
			"0.022": 0.0,
			"0.023": 0.0,
			"0.024": 0.0,
			"0.025": 0.0
		}
	}
}
