{
	 "smiles": "COC1=CC2=C(NC3=C2CCC2=C3C=CC(OC)=C2)C=C1", 
	 "Tm": 468.15, 
	 "num_atms": 38, 
	 "gaussian": { 
		 "optdone": 1, 
		 "sigma_profile": "yes", 
		 "theory": "DFT", 
		 "functional": "B3LYP", 
		 "basiset": "6-31G**", 
		 "properties": { 
			 "R2extent": 8802.4738, 
			 "electric_dipole_moment_norm": 2.56173545473, 
			 "electric_quadrupole_moment_norm": 15.931467348, 
			 "total_energy": -901.362860438, 
			 "HOMO_LUMO_gap": 0.15178, 
			 "cosmo_polarized_energy": -13.53, 
			 "cosmo_cavitation_energy": 40.39, 
			 "cosmo_dispersion_energy": -29.76, 
			 "cosmo_repulsion_energy": 2.24, 
			 "cosmo_total_nonelectrostatic_energy": 12.87, 
			 "SMD_solvation_energy": 6.94 
		},
		"coords": [
			{
				"x": 5.7805570963,
				"y": -1.6756820891,
				"z": -0.2410506119,
				"element": "C" 
			},
			{
				"x": 4.8202614378,
				"y": -2.7118350327,
				"z": -0.1709917554,
				"element": "O" 
			},
			{
				"x": 3.4945874879,
				"y": -2.3567046556,
				"z": -0.1340285837,
				"element": "C" 
			},
			{
				"x": 3.02850202,
				"y": -1.046135445,
				"z": -0.162025961,
				"element": "C" 
			},
			{
				"x": 1.6356410012,
				"y": -0.8257466731,
				"z": -0.1153630045,
				"element": "C" 
			},
			{
				"x": 0.7511948516,
				"y": -1.9384480671,
				"z": -0.0565693497,
				"element": "C" 
			},
			{
				"x": -0.5445269718,
				"y": -1.4481891978,
				"z": -0.0466393118,
				"element": "N" 
			},
			{
				"x": -0.4986039261,
				"y": -0.0644464528,
				"z": -0.0566118894,
				"element": "C" 
			},
			{
				"x": 0.818346828,
				"y": 0.3502812071,
				"z": -0.1052141355,
				"element": "C" 
			},
			{
				"x": 1.148645217,
				"y": 1.8119820677,
				"z": -0.2022232175,
				"element": "C" 
			},
			{
				"x": 0.0499750047,
				"y": 2.6365022697,
				"z": 0.5002804153,
				"element": "C" 
			},
			{
				"x": -1.3621208894,
				"y": 2.2107786652,
				"z": 0.1328857129,
				"element": "C" 
			},
			{
				"x": -1.6352806123,
				"y": 0.8416433379,
				"z": -0.088854258,
				"element": "C" 
			},
			{
				"x": -2.9560018559,
				"y": 0.445874118,
				"z": -0.3576765312,
				"element": "C" 
			},
			{
				"x": -3.9887826169,
				"y": 1.3725282772,
				"z": -0.3977907585,
				"element": "C" 
			},
			{
				"x": -3.7165340911,
				"y": 2.729915352,
				"z": -0.1796385032,
				"element": "C" 
			},
			{
				"x": -4.7919946513,
				"y": 3.5693190757,
				"z": -0.2469291136,
				"element": "O" 
			},
			{
				"x": -4.5793322892,
				"y": 4.9552573091,
				"z": -0.0359834615,
				"element": "C" 
			},
			{
				"x": -2.4022058566,
				"y": 3.1410345622,
				"z": 0.0822024416,
				"element": "C" 
			},
			{
				"x": 1.2264625964,
				"y": -3.252864177,
				"z": -0.0246377975,
				"element": "C" 
			},
			{
				"x": 2.598491334,
				"y": -3.4504664979,
				"z": -0.0629703053,
				"element": "C" 
			},
			{
				"x": 5.6631723962,
				"y": -1.0715557018,
				"z": -1.1511825648,
				"element": "H" 
			},
			{
				"x": 5.7283424418,
				"y": -1.0112311614,
				"z": 0.6324170857,
				"element": "H" 
			},
			{
				"x": 6.7563495208,
				"y": -2.1647834297,
				"z": -0.2601524629,
				"element": "H" 
			},
			{
				"x": 3.7084651937,
				"y": -0.2041774376,
				"z": -0.2158899674,
				"element": "H" 
			},
			{
				"x": -1.3674118848,
				"y": -1.9988911078,
				"z": 0.1354011324,
				"element": "H" 
			},
			{
				"x": 2.1181069787,
				"y": 2.0333574185,
				"z": 0.2587009975,
				"element": "H" 
			},
			{
				"x": 1.2304613387,
				"y": 2.1197874281,
				"z": -1.256253878,
				"element": "H" 
			},
			{
				"x": 0.1831032611,
				"y": 3.7048362452,
				"z": 0.2986204301,
				"element": "H" 
			},
			{
				"x": 0.1684137884,
				"y": 2.5048739077,
				"z": 1.5864044487,
				"element": "H" 
			},
			{
				"x": -3.1792565593,
				"y": -0.5984967043,
				"z": -0.5605320861,
				"element": "H" 
			},
			{
				"x": -5.0099859133,
				"y": 1.0731115352,
				"z": -0.6085374704,
				"element": "H" 
			},
			{
				"x": -5.557663498,
				"y": 5.4287437008,
				"z": -0.1331250336,
				"element": "H" 
			},
			{
				"x": -4.17970297,
				"y": 5.1573589687,
				"z": 0.9663826356,
				"element": "H" 
			},
			{
				"x": -3.89792682,
				"y": 5.3805127976,
				"z": -0.7843726926,
				"element": "H" 
			},
			{
				"x": -2.1750979049,
				"y": 4.1873809759,
				"z": 0.2547415005,
				"element": "H" 
			},
			{
				"x": 0.5480873295,
				"y": -4.1001241205,
				"z": 0.0250103038,
				"element": "H" 
			},
			{
				"x": 3.019762187,
				"y": -4.4498012682,
				"z": -0.0422023989,
				"element": "H" 
			}
		],
		 "valence_orbital": [ 
			{
				"type": "occ",
				"energy": -0.26378,
				"method": "rhf"
			},
			{
				"type": "occ",
				"energy": -0.24599,
				"method": "rhf"
			},
			{
				"type": "occ",
				"energy": -0.23286,
				"method": "rhf"
			},
			{
				"type": "occ",
				"energy": -0.18992,
				"method": "rhf"
			},
			{
				"type": "occ",
				"energy": -0.17525,
				"method": "rhf"
			},
			{
				"type": "unocc",
				"energy": -0.02347,
				"method": "rhf"
			},
			{
				"type": "unocc",
				"energy": -0.00134,
				"method": "rhf"
			},
			{
				"type": "unocc",
				"energy": 0.02842,
				"method": "rhf"
			},
			{
				"type": "unocc",
				"energy": 0.04683,
				"method": "rhf"
			},
			{
				"type": "unocc",
				"energy": 0.07633,
				"method": "rhf"
			}
		],
		"cosmo_sigma_profile": { 
			"-0.025": 0.0,
			"-0.024": 0.0,
			"-0.023": 0.0,
			"-0.022": 0.0,
			"-0.021": 0.0,
			"-0.02": 0.0,
			"-0.019": 0.0,
			"-0.018": 0.0,
			"-0.017": 0.0,
			"-0.016": 0.0,
			"-0.015": 0.615493251245,
			"-0.014": 1.36192759108,
			"-0.013": 1.35258719883,
			"-0.012": 1.10095433917,
			"-0.011": 1.41106847174,
			"-0.01": 1.74433744093,
			"-0.009": 1.87907374885,
			"-0.008": 1.47115889582,
			"-0.007": 1.58121902886,
			"-0.006": 9.75427433726,
			"-0.005": 25.7271397072,
			"-0.004": 30.637786789,
			"-0.003": 35.1703545452,
			"-0.002": 27.7328071228,
			"-0.001": 23.1141948537,
			"0.0": 18.6500393385,
			"0.001": 14.8732353628,
			"0.002": 14.6964808312,
			"0.003": 15.8034885886,
			"0.004": 21.913801465,
			"0.005": 27.2007870669,
			"0.006": 22.6931902664,
			"0.007": 9.56562215616,
			"0.008": 2.77115468122,
			"0.009": 2.36959232316,
			"0.01": 3.12672769135,
			"0.011": 2.21277149282,
			"0.012": 0.186902187184,
			"0.013": 0.0,
			"0.014": 0.0,
			"0.015": 0.0,
			"0.016": 0.0,
			"0.017": 0.0,
			"0.018": 0.0,
			"0.019": 0.0,
			"0.02": 0.0,
			"0.021": 0.0,
			"0.022": 0.0,
			"0.023": 0.0,
			"0.024": 0.0,
			"0.025": 0.0
		}
	}
}
