{
	 "smiles": "COC1=CC=C(C=C(C#N)C(N)=O)C=C1", 
	 "Tm": 594.15, 
	 "num_atms": 25, 
	 "gaussian": { 
		 "optdone": 1, 
		 "sigma_profile": "yes", 
		 "theory": "DFT", 
		 "functional": "B3LYP", 
		 "basiset": "6-31G**", 
		 "properties": { 
			 "R2extent": 5117.0146, 
			 "electric_dipole_moment_norm": 3.87439650526, 
			 "electric_quadrupole_moment_norm": 23.0796297849, 
			 "total_energy": -685.129718598, 
			 "HOMO_LUMO_gap": 0.14793, 
			 "cosmo_polarized_energy": -16.27, 
			 "cosmo_cavitation_energy": 30.8, 
			 "cosmo_dispersion_energy": -22.02, 
			 "cosmo_repulsion_energy": 1.72, 
			 "cosmo_total_nonelectrostatic_energy": 10.49, 
			 "SMD_solvation_energy": 7.92 
		},
		"coords": [
			{
				"x": -2.4007116909,
				"y": -4.0350122057,
				"z": 1.3067194753,
				"element": "C" 
			},
			{
				"x": -1.4299084711,
				"y": -3.3156445012,
				"z": 2.057942906,
				"element": "O" 
			},
			{
				"x": -0.9544483308,
				"y": -2.1489084861,
				"z": 1.5588993464,
				"element": "C" 
			},
			{
				"x": -1.3488694089,
				"y": -1.5822078569,
				"z": 0.3383890546,
				"element": "C" 
			},
			{
				"x": -0.7849267416,
				"y": -0.3765433964,
				"z": -0.0643551516,
				"element": "C" 
			},
			{
				"x": 0.1745359829,
				"y": 0.3001328146,
				"z": 0.7149596267,
				"element": "C" 
			},
			{
				"x": 0.6918565118,
				"y": 1.5481164412,
				"z": 0.1937653142,
				"element": "C" 
			},
			{
				"x": 1.6053553671,
				"y": 2.433981976,
				"z": 0.6781623883,
				"element": "C" 
			},
			{
				"x": 2.3019705414,
				"y": 2.2985506359,
				"z": 1.9132659832,
				"element": "C" 
			},
			{
				"x": 2.9115204649,
				"y": 2.2612901146,
				"z": 2.9075797308,
				"element": "N" 
			},
			{
				"x": 1.8966381383,
				"y": 3.6545634029,
				"z": -0.168631356,
				"element": "C" 
			},
			{
				"x": 2.8148918529,
				"y": 4.5201492544,
				"z": 0.3423117291,
				"element": "N" 
			},
			{
				"x": 1.3352751525,
				"y": 3.8386173539,
				"z": -1.2422982401,
				"element": "O" 
			},
			{
				"x": 0.5556770882,
				"y": -0.293511781,
				"z": 1.9434751769,
				"element": "C" 
			},
			{
				"x": 0.0026830419,
				"y": -1.4912092579,
				"z": 2.3549247395,
				"element": "C" 
			},
			{
				"x": -2.0076528795,
				"y": -4.337283344,
				"z": 0.3284612144,
				"element": "H" 
			},
			{
				"x": -3.314905959,
				"y": -3.4461067934,
				"z": 1.164345203,
				"element": "H" 
			},
			{
				"x": -2.632426797,
				"y": -4.9247757146,
				"z": 1.8929933024,
				"element": "H" 
			},
			{
				"x": -2.0830241669,
				"y": -2.0668183435,
				"z": -0.2935280043,
				"element": "H" 
			},
			{
				"x": -1.0938295246,
				"y": 0.0584944945,
				"z": -1.0109813481,
				"element": "H" 
			},
			{
				"x": 0.2890158261,
				"y": 1.8596087269,
				"z": -0.7690986008,
				"element": "H" 
			},
			{
				"x": 3.0300559402,
				"y": 5.3444817554,
				"z": -0.1958420376,
				"element": "H" 
			},
			{
				"x": 3.2736653652,
				"y": 4.3689477433,
				"z": 1.2270016878,
				"element": "H" 
			},
			{
				"x": 1.2896097498,
				"y": 0.1871795865,
				"z": 2.5787265007,
				"element": "H" 
			},
			{
				"x": 0.2919529473,
				"y": -1.9489926195,
				"z": 3.2949113594,
				"element": "H" 
			}
		],
		 "valence_orbital": [ 
			{
				"type": "occ",
				"energy": -0.28886,
				"method": "rhf"
			},
			{
				"type": "occ",
				"energy": -0.27064,
				"method": "rhf"
			},
			{
				"type": "occ",
				"energy": -0.26953,
				"method": "rhf"
			},
			{
				"type": "occ",
				"energy": -0.25845,
				"method": "rhf"
			},
			{
				"type": "occ",
				"energy": -0.22595,
				"method": "rhf"
			},
			{
				"type": "unocc",
				"energy": -0.07802,
				"method": "rhf"
			},
			{
				"type": "unocc",
				"energy": -0.01779,
				"method": "rhf"
			},
			{
				"type": "unocc",
				"energy": 0.02356,
				"method": "rhf"
			},
			{
				"type": "unocc",
				"energy": 0.02417,
				"method": "rhf"
			},
			{
				"type": "unocc",
				"energy": 0.03445,
				"method": "rhf"
			}
		],
		"cosmo_sigma_profile": { 
			"-0.025": 0.0,
			"-0.024": 0.0,
			"-0.023": 0.0,
			"-0.022": 0.0,
			"-0.021": 0.0,
			"-0.02": 0.0,
			"-0.019": 0.0,
			"-0.018": 0.0,
			"-0.017": 0.0,
			"-0.016": 0.0,
			"-0.015": 0.302565579917,
			"-0.014": 1.53100233358,
			"-0.013": 1.72899778485,
			"-0.012": 1.94953518468,
			"-0.011": 2.31626152857,
			"-0.01": 1.5963737763,
			"-0.009": 2.09472841968,
			"-0.008": 3.99692782168,
			"-0.007": 9.68278760752,
			"-0.006": 15.9465324079,
			"-0.005": 16.819673731,
			"-0.004": 16.0214345161,
			"-0.003": 16.457388786,
			"-0.002": 15.1033611596,
			"-0.001": 15.646918809,
			"0.0": 18.3079796203,
			"0.001": 17.0988038839,
			"0.002": 19.0902289269,
			"0.003": 18.9826314222,
			"0.004": 7.61661880578,
			"0.005": 4.07561481039,
			"0.006": 4.27971025777,
			"0.007": 5.09810317048,
			"0.008": 4.71087409511,
			"0.009": 5.25772318205,
			"0.01": 4.13292372583,
			"0.011": 4.13771898839,
			"0.012": 4.85630545451,
			"0.013": 6.26241746806,
			"0.014": 2.13529590386,
			"0.015": 0.00493973620826,
			"0.016": 0.0,
			"0.017": 0.0,
			"0.018": 0.0,
			"0.019": 0.0,
			"0.02": 0.0,
			"0.021": 0.0,
			"0.022": 0.0,
			"0.023": 0.0,
			"0.024": 0.0,
			"0.025": 0.0
		}
	}
}
