{
	 "smiles": "CC(C)C1=CC2=C(CCC[C@H]2O)C=C1", 
	 "Tm": 353.15, 
	 "num_atms": 32, 
	 "gaussian": { 
		 "optdone": 1, 
		 "sigma_profile": "yes", 
		 "theory": "DFT", 
		 "functional": "B3LYP", 
		 "basiset": "6-31G**", 
		 "properties": { 
			 "R2extent": 3524.2957, 
			 "electric_dipole_moment_norm": 1.23165211809, 
			 "electric_quadrupole_moment_norm": 6.52023087168, 
			 "total_energy": -581.473362317, 
			 "HOMO_LUMO_gap": 0.23026, 
			 "cosmo_polarized_energy": -7.77, 
			 "cosmo_cavitation_energy": 32.38, 
			 "cosmo_dispersion_energy": -23.36, 
			 "cosmo_repulsion_energy": 1.86, 
			 "cosmo_total_nonelectrostatic_energy": 10.87, 
			 "SMD_solvation_energy": 4.82 
		},
		"coords": [
			{
				"x": -1.1216010206,
				"y": 3.4192628393,
				"z": -2.4406617899,
				"element": "C" 
			},
			{
				"x": -0.3744921895,
				"y": 2.0957394444,
				"z": -2.69194251,
				"element": "C" 
			},
			{
				"x": 0.6855709686,
				"y": 2.2617518963,
				"z": -3.7972172864,
				"element": "C" 
			},
			{
				"x": 0.2239161905,
				"y": 1.5288113714,
				"z": -1.4106146474,
				"element": "C" 
			},
			{
				"x": -0.2073940635,
				"y": 0.293178654,
				"z": -0.9096041273,
				"element": "C" 
			},
			{
				"x": 0.3287322349,
				"y": -0.2434347995,
				"z": 0.2607812513,
				"element": "C" 
			},
			{
				"x": 1.30412159,
				"y": 0.468254747,
				"z": 0.9803445862,
				"element": "C" 
			},
			{
				"x": 1.7934657703,
				"y": -0.1469230759,
				"z": 2.268227911,
				"element": "C" 
			},
			{
				"x": 0.6038707727,
				"y": -0.6337966552,
				"z": 3.1328029554,
				"element": "C" 
			},
			{
				"x": -0.462800149,
				"y": -1.4233179232,
				"z": 2.3226904668,
				"element": "C" 
			},
			{
				"x": -0.0933623075,
				"y": -1.58171189,
				"z": 0.837574314,
				"element": "C" 
			},
			{
				"x": -1.2105712442,
				"y": -2.1713690188,
				"z": 0.1842976981,
				"element": "O" 
			},
			{
				"x": 1.7336133082,
				"y": 1.7035046213,
				"z": 0.4908286878,
				"element": "C" 
			},
			{
				"x": 1.2080379873,
				"y": 2.222969106,
				"z": -0.6929934899,
				"element": "C" 
			},
			{
				"x": -1.9007325108,
				"y": 3.2956147316,
				"z": -1.6821673069,
				"element": "H" 
			},
			{
				"x": -1.5946299808,
				"y": 3.778779379,
				"z": -3.3613287713,
				"element": "H" 
			},
			{
				"x": -0.4378662208,
				"y": 4.2009516697,
				"z": -2.0915517245,
				"element": "H" 
			},
			{
				"x": -1.1121914486,
				"y": 1.3659132694,
				"z": -3.0511216456,
				"element": "H" 
			},
			{
				"x": 0.2251012328,
				"y": 2.614589405,
				"z": -4.7267596973,
				"element": "H" 
			},
			{
				"x": 1.4500108213,
				"y": 2.9914094738,
				"z": -3.5080595255,
				"element": "H" 
			},
			{
				"x": 1.1926583358,
				"y": 1.3144197923,
				"z": -4.0056906457,
				"element": "H" 
			},
			{
				"x": -0.9916475027,
				"y": -0.2510940464,
				"z": -1.4293172428,
				"element": "H" 
			},
			{
				"x": 2.4459617231,
				"y": -1.0042056849,
				"z": 2.0447275665,
				"element": "H" 
			},
			{
				"x": 2.4053824594,
				"y": 0.5644733301,
				"z": 2.832745142,
				"element": "H" 
			},
			{
				"x": 0.9874147781,
				"y": -1.2463559568,
				"z": 3.9555155318,
				"element": "H" 
			},
			{
				"x": 0.1336182735,
				"y": 0.2416207509,
				"z": 3.5921866566,
				"element": "H" 
			},
			{
				"x": -0.6264369273,
				"y": -2.4196703572,
				"z": 2.7447603732,
				"element": "H" 
			},
			{
				"x": -1.4274556426,
				"y": -0.9064590387,
				"z": 2.3521572581,
				"element": "H" 
			},
			{
				"x": 0.7721129534,
				"y": -2.2660450623,
				"z": 0.7765725285,
				"element": "H" 
			},
			{
				"x": -0.9259175029,
				"y": -2.4524048329,
				"z": -0.6946296513,
				"element": "H" 
			},
			{
				"x": 2.4821338957,
				"y": 2.2679502316,
				"z": 1.042623631,
				"element": "H" 
			},
			{
				"x": 1.5625754151,
				"y": 3.1856936285,
				"z": -1.0520764964,
				"element": "H" 
			}
		],
		 "valence_orbital": [ 
			{
				"type": "occ",
				"energy": -0.31489,
				"method": "rhf"
			},
			{
				"type": "occ",
				"energy": -0.30782,
				"method": "rhf"
			},
			{
				"type": "occ",
				"energy": -0.26732,
				"method": "rhf"
			},
			{
				"type": "occ",
				"energy": -0.23783,
				"method": "rhf"
			},
			{
				"type": "occ",
				"energy": -0.22456,
				"method": "rhf"
			},
			{
				"type": "unocc",
				"energy": 0.0057,
				"method": "rhf"
			},
			{
				"type": "unocc",
				"energy": 0.0081,
				"method": "rhf"
			},
			{
				"type": "unocc",
				"energy": 0.07731,
				"method": "rhf"
			},
			{
				"type": "unocc",
				"energy": 0.09161,
				"method": "rhf"
			},
			{
				"type": "unocc",
				"energy": 0.09371,
				"method": "rhf"
			}
		],
		"cosmo_sigma_profile": { 
			"-0.025": 0.0,
			"-0.024": 0.0,
			"-0.023": 0.0,
			"-0.022": 0.0,
			"-0.021": 0.0,
			"-0.02": 0.0,
			"-0.019": 0.0,
			"-0.018": 0.0,
			"-0.017": 0.0,
			"-0.016": 0.0860310815226,
			"-0.015": 1.22186328897,
			"-0.014": 0.466274459794,
			"-0.013": 0.739554246786,
			"-0.012": 1.14128912872,
			"-0.011": 0.921640497663,
			"-0.01": 1.0327070078,
			"-0.009": 0.943733253932,
			"-0.008": 0.88899455678,
			"-0.007": 1.28480008241,
			"-0.006": 1.30888510937,
			"-0.005": 3.41053845161,
			"-0.004": 15.0520828133,
			"-0.003": 28.5360781379,
			"-0.002": 35.3595215407,
			"-0.001": 33.0749821772,
			"0.0": 31.9804241647,
			"0.001": 29.4216197825,
			"0.002": 15.1670231242,
			"0.003": 8.77773549443,
			"0.004": 7.20331609348,
			"0.005": 8.23493208047,
			"0.006": 8.15718682477,
			"0.007": 6.53585210933,
			"0.008": 1.48777677812,
			"0.009": 1.16600575755,
			"0.01": 1.48127294084,
			"0.011": 1.60066963751,
			"0.012": 1.3236614743,
			"0.013": 1.47597666901,
			"0.014": 1.82282452755,
			"0.015": 0.108705544744,
			"0.016": 0.0,
			"0.017": 0.0,
			"0.018": 0.0,
			"0.019": 0.0,
			"0.02": 0.0,
			"0.021": 0.0,
			"0.022": 0.0,
			"0.023": 0.0,
			"0.024": 0.0,
			"0.025": 0.0
		}
	}
}
