{
	 "smiles": "CCOC(=O)CC(=O)CS", 
	 "Tm": 407.15, 
	 "num_atms": 20, 
	 "gaussian": { 
		 "optdone": 1, 
		 "sigma_profile": "yes", 
		 "theory": "DFT", 
		 "functional": "B3LYP", 
		 "basiset": "6-31G**", 
		 "properties": { 
			 "R2extent": 2814.6241, 
			 "electric_dipole_moment_norm": 2.28067948866, 
			 "electric_quadrupole_moment_norm": 9.43795167714, 
			 "total_energy": -858.531280149, 
			 "HOMO_LUMO_gap": 0.2045, 
			 "cosmo_polarized_energy": -10.04, 
			 "cosmo_cavitation_energy": 25.97, 
			 "cosmo_dispersion_energy": -18.92, 
			 "cosmo_repulsion_energy": 1.55, 
			 "cosmo_total_nonelectrostatic_energy": 8.6, 
			 "SMD_solvation_energy": 5.83 
		},
		"coords": [
			{
				"x": -2.6886600184,
				"y": -1.0303297362,
				"z": 1.2916962913,
				"element": "C" 
			},
			{
				"x": -1.6031523908,
				"y": -0.085912062,
				"z": 1.783267113,
				"element": "C" 
			},
			{
				"x": -0.293294554,
				"y": -0.5012813955,
				"z": 1.3114981051,
				"element": "O" 
			},
			{
				"x": 0.0745419589,
				"y": -0.0692910031,
				"z": 0.0932821012,
				"element": "C" 
			},
			{
				"x": -0.6131320281,
				"y": 0.6318749861,
				"z": -0.6228502675,
				"element": "O" 
			},
			{
				"x": 1.474503559,
				"y": -0.554485569,
				"z": -0.2517693855,
				"element": "C" 
			},
			{
				"x": 1.589468261,
				"y": -1.0282832498,
				"z": -1.7036948822,
				"element": "C" 
			},
			{
				"x": 1.7708686035,
				"y": -2.1996843993,
				"z": -1.966719698,
				"element": "O" 
			},
			{
				"x": 1.5050367776,
				"y": 0.0241049088,
				"z": -2.7976692462,
				"element": "C" 
			},
			{
				"x": 3.0790103148,
				"y": 0.9809041236,
				"z": -2.9069259814,
				"element": "S" 
			},
			{
				"x": -2.4723196197,
				"y": -2.0608833654,
				"z": 1.5874334124,
				"element": "H" 
			},
			{
				"x": -2.7763812215,
				"y": -0.9842188818,
				"z": 0.2035354047,
				"element": "H" 
			},
			{
				"x": -3.6520480516,
				"y": -0.7429060704,
				"z": 1.7256076917,
				"element": "H" 
			},
			{
				"x": -1.5130422553,
				"y": -0.1068669637,
				"z": 2.8715556875,
				"element": "H" 
			},
			{
				"x": -1.7868566181,
				"y": 0.9384533796,
				"z": 1.4514866417,
				"element": "H" 
			},
			{
				"x": 2.1553624645,
				"y": 0.2929856889,
				"z": -0.1029323117,
				"element": "H" 
			},
			{
				"x": 1.7678979735,
				"y": -1.368620706,
				"z": 0.4105262195,
				"element": "H" 
			},
			{
				"x": 1.2922401969,
				"y": -0.4607753436,
				"z": -3.7511025791,
				"element": "H" 
			},
			{
				"x": 0.7313825801,
				"y": 0.7575352258,
				"z": -2.5605268983,
				"element": "H" 
			},
			{
				"x": 3.8644740677,
				"y": -0.0610195671,
				"z": -3.2487974183,
				"element": "H" 
			}
		],
		 "valence_orbital": [ 
			{
				"type": "occ",
				"energy": -0.34099,
				"method": "rhf"
			},
			{
				"type": "occ",
				"energy": -0.31187,
				"method": "rhf"
			},
			{
				"type": "occ",
				"energy": -0.28677,
				"method": "rhf"
			},
			{
				"type": "occ",
				"energy": -0.2717,
				"method": "rhf"
			},
			{
				"type": "occ",
				"energy": -0.24494,
				"method": "rhf"
			},
			{
				"type": "unocc",
				"energy": -0.04044,
				"method": "rhf"
			},
			{
				"type": "unocc",
				"energy": -0.00028,
				"method": "rhf"
			},
			{
				"type": "unocc",
				"energy": 0.02709,
				"method": "rhf"
			},
			{
				"type": "unocc",
				"energy": 0.0674,
				"method": "rhf"
			},
			{
				"type": "unocc",
				"energy": 0.1001,
				"method": "rhf"
			}
		],
		"cosmo_sigma_profile": { 
			"-0.025": 0.0,
			"-0.024": 0.0,
			"-0.023": 0.0,
			"-0.022": 0.0,
			"-0.021": 0.0,
			"-0.02": 0.0,
			"-0.019": 0.0,
			"-0.018": 0.0,
			"-0.017": 0.0,
			"-0.016": 0.0,
			"-0.015": 0.0,
			"-0.014": 0.0,
			"-0.013": 0.0,
			"-0.012": 0.0,
			"-0.011": 0.00841918274245,
			"-0.01": 1.60982461789,
			"-0.009": 2.10399079804,
			"-0.008": 2.559000055,
			"-0.007": 5.83559436959,
			"-0.006": 9.99969217887,
			"-0.005": 14.8892104068,
			"-0.004": 23.0259456186,
			"-0.003": 22.6191435735,
			"-0.002": 16.9179798091,
			"-0.001": 16.3151077103,
			"0.0": 14.4068631939,
			"0.001": 9.74934700926,
			"0.002": 7.32940802255,
			"0.003": 6.81665052753,
			"0.004": 7.84227954199,
			"0.005": 7.14925115721,
			"0.006": 7.19480400707,
			"0.007": 5.28082496139,
			"0.008": 6.14534619794,
			"0.009": 4.77114539685,
			"0.01": 5.11479890689,
			"0.011": 6.8573213121,
			"0.012": 2.39592050948,
			"0.013": 0.0423143393127,
			"0.014": 0.0,
			"0.015": 0.0,
			"0.016": 0.0,
			"0.017": 0.0,
			"0.018": 0.0,
			"0.019": 0.0,
			"0.02": 0.0,
			"0.021": 0.0,
			"0.022": 0.0,
			"0.023": 0.0,
			"0.024": 0.0,
			"0.025": 0.0
		}
	}
}
