{
	 "smiles": "BrC1=CC=C(OC2=C(Br)C=CC=C2Br)C=C1Br", 
	 "Tm": 407.15, 
	 "num_atms": 23, 
	 "gaussian": { 
		 "optdone": 1, 
		 "sigma_profile": "yes", 
		 "theory": "DFT", 
		 "functional": "B3LYP", 
		 "basiset": "6-31G**", 
		 "properties": { 
			 "R2extent": 15184.5934, 
			 "electric_dipole_moment_norm": 4.43997966099, 
			 "electric_quadrupole_moment_norm": 2.64393488384, 
			 "total_energy": -10821.7105595, 
			 "HOMO_LUMO_gap": 0.1943, 
			 "cosmo_polarized_energy": -7.68, 
			 "cosmo_cavitation_energy": 37.25, 
			 "cosmo_dispersion_energy": -27.39, 
			 "cosmo_repulsion_energy": 2.15, 
			 "cosmo_total_nonelectrostatic_energy": 12.01, 
			 "SMD_solvation_energy": 2.15 
		},
		"coords": [
			{
				"x": 4.1602069471,
				"y": -1.5186507347,
				"z": -4.0988480991,
				"element": "Br" 
			},
			{
				"x": 2.8519900609,
				"y": -0.4770435888,
				"z": -3.1937159325,
				"element": "C" 
			},
			{
				"x": 2.3750789051,
				"y": -0.9323644605,
				"z": -1.9642051138,
				"element": "C" 
			},
			{
				"x": 1.4165120063,
				"y": -0.2153696208,
				"z": -1.251702418,
				"element": "C" 
			},
			{
				"x": 0.9308357481,
				"y": 0.9778606178,
				"z": -1.7851574132,
				"element": "C" 
			},
			{
				"x": -0.0180621131,
				"y": 1.7720793665,
				"z": -1.1718377209,
				"element": "O" 
			},
			{
				"x": -0.5445880049,
				"y": 1.4049624396,
				"z": 0.0403468507,
				"element": "C" 
			},
			{
				"x": 0.024245979,
				"y": 1.866896859,
				"z": 1.2362986312,
				"element": "C" 
			},
			{
				"x": 1.6085821245,
				"y": 2.9160782905,
				"z": 1.1786144492,
				"element": "Br" 
			},
			{
				"x": -0.5607361462,
				"y": 1.5754326578,
				"z": 2.4674785813,
				"element": "C" 
			},
			{
				"x": -1.7280686432,
				"y": 0.8148764096,
				"z": 2.511586384,
				"element": "C" 
			},
			{
				"x": -2.3135672983,
				"y": 0.3494785853,
				"z": 1.3352955466,
				"element": "C" 
			},
			{
				"x": -1.7219354527,
				"y": 0.6456994962,
				"z": 0.1084240691,
				"element": "C" 
			},
			{
				"x": -2.5307161607,
				"y": 0.0215453205,
				"z": -1.4948377883,
				"element": "Br" 
			},
			{
				"x": 1.3955189637,
				"y": 1.4492890418,
				"z": -3.0128023794,
				"element": "C" 
			},
			{
				"x": 2.3540154828,
				"y": 0.723898034,
				"z": -3.7160152159,
				"element": "C" 
			},
			{
				"x": 2.9454278542,
				"y": 1.421095224,
				"z": -5.3829568583,
				"element": "Br" 
			},
			{
				"x": 2.7612336295,
				"y": -1.8615710783,
				"z": -1.5613057851,
				"element": "H" 
			},
			{
				"x": 1.0587480597,
				"y": -0.5857395167,
				"z": -0.2984700548,
				"element": "H" 
			},
			{
				"x": -0.1026135935,
				"y": 1.9459299822,
				"z": 3.3769076188,
				"element": "H" 
			},
			{
				"x": -2.187597664,
				"y": 0.5883037635,
				"z": 3.4683562214,
				"element": "H" 
			},
			{
				"x": -3.2241896551,
				"y": -0.2373178702,
				"z": 1.3606394352,
				"element": "H" 
			},
			{
				"x": 1.0043789705,
				"y": 2.3784307818,
				"z": -3.4079930084,
				"element": "H" 
			}
		],
		 "valence_orbital": [ 
			{
				"type": "occ",
				"energy": -0.27616,
				"method": "rhf"
			},
			{
				"type": "occ",
				"energy": -0.26478,
				"method": "rhf"
			},
			{
				"type": "occ",
				"energy": -0.25793,
				"method": "rhf"
			},
			{
				"type": "occ",
				"energy": -0.25626,
				"method": "rhf"
			},
			{
				"type": "occ",
				"energy": -0.23411,
				"method": "rhf"
			},
			{
				"type": "unocc",
				"energy": -0.03981,
				"method": "rhf"
			},
			{
				"type": "unocc",
				"energy": -0.03628,
				"method": "rhf"
			},
			{
				"type": "unocc",
				"energy": -0.02737,
				"method": "rhf"
			},
			{
				"type": "unocc",
				"energy": -0.02559,
				"method": "rhf"
			},
			{
				"type": "unocc",
				"energy": -0.01866,
				"method": "rhf"
			}
		],
		"cosmo_sigma_profile": { 
			"-0.025": 0.0,
			"-0.024": 0.0,
			"-0.023": 0.0,
			"-0.022": 0.0,
			"-0.021": 0.0,
			"-0.02": 0.0,
			"-0.019": 0.0,
			"-0.018": 0.0,
			"-0.017": 0.0,
			"-0.016": 0.0,
			"-0.015": 0.0,
			"-0.014": 0.0,
			"-0.013": 0.0,
			"-0.012": 0.0,
			"-0.011": 0.0,
			"-0.01": 0.0,
			"-0.009": 0.174653324956,
			"-0.008": 7.43320952302,
			"-0.007": 11.2286681897,
			"-0.006": 11.7690671947,
			"-0.005": 15.0947967124,
			"-0.004": 14.3726523612,
			"-0.003": 16.0138643871,
			"-0.002": 16.4366946329,
			"-0.001": 18.6544022788,
			"0.0": 34.6653602221,
			"0.001": 41.4232100039,
			"0.002": 41.1880524989,
			"0.003": 39.0689587278,
			"0.004": 32.5683342118,
			"0.005": 9.33810817146,
			"0.006": 2.81938803406,
			"0.007": 1.12635643126,
			"0.008": 0.0623563669722,
			"0.009": 0.0,
			"0.01": 0.0,
			"0.011": 0.0,
			"0.012": 0.0,
			"0.013": 0.0,
			"0.014": 0.0,
			"0.015": 0.0,
			"0.016": 0.0,
			"0.017": 0.0,
			"0.018": 0.0,
			"0.019": 0.0,
			"0.02": 0.0,
			"0.021": 0.0,
			"0.022": 0.0,
			"0.023": 0.0,
			"0.024": 0.0,
			"0.025": 0.0
		}
	}
}
