{
	 "smiles": "NCCC(=O)NC1=CC=CC=C1", 
	 "Tm": 336.15, 
	 "num_atms": 24, 
	 "gaussian": { 
		 "optdone": 1, 
		 "sigma_profile": "yes", 
		 "theory": "DFT", 
		 "functional": "B3LYP", 
		 "basiset": "6-31G**", 
		 "properties": { 
			 "R2extent": 2925.4008, 
			 "electric_dipole_moment_norm": 3.28306908852, 
			 "electric_quadrupole_moment_norm": 13.1125611324, 
			 "total_energy": -534.925732142, 
			 "HOMO_LUMO_gap": 0.21129, 
			 "cosmo_polarized_energy": -14.9, 
			 "cosmo_cavitation_energy": 27.51, 
			 "cosmo_dispersion_energy": -19.8, 
			 "cosmo_repulsion_energy": 1.63, 
			 "cosmo_total_nonelectrostatic_energy": 9.34, 
			 "SMD_solvation_energy": 4.2 
		},
		"coords": [
			{
				"x": 2.7016191688,
				"y": -1.8714423625,
				"z": 0.9913208278,
				"element": "N" 
			},
			{
				"x": 3.1034350946,
				"y": -0.4624898357,
				"z": 0.9475092344,
				"element": "C" 
			},
			{
				"x": 2.0940203146,
				"y": 0.3435302113,
				"z": 0.1228442729,
				"element": "C" 
			},
			{
				"x": 2.2181696866,
				"y": 0.0007975675,
				"z": -1.3586633186,
				"element": "C" 
			},
			{
				"x": 3.3059179148,
				"y": -0.1855752575,
				"z": -1.8859999778,
				"element": "O" 
			},
			{
				"x": 1.0695959492,
				"y": -0.1071650421,
				"z": -2.1236629625,
				"element": "N" 
			},
			{
				"x": -0.2951071994,
				"y": 0.0796046624,
				"z": -1.8057379386,
				"element": "C" 
			},
			{
				"x": -0.7459643091,
				"y": 1.1872284148,
				"z": -1.0724681445,
				"element": "C" 
			},
			{
				"x": -2.1060190909,
				"y": 1.341702511,
				"z": -0.8028056147,
				"element": "C" 
			},
			{
				"x": -3.0358564657,
				"y": 0.4206530988,
				"z": -1.2871602692,
				"element": "C" 
			},
			{
				"x": -2.5923618598,
				"y": -0.6659516764,
				"z": -2.0443653377,
				"element": "C" 
			},
			{
				"x": -1.2333658,
				"y": -0.8418202817,
				"z": -2.2957937319,
				"element": "C" 
			},
			{
				"x": 1.9379593469,
				"y": -1.9995669517,
				"z": 1.651167754,
				"element": "H" 
			},
			{
				"x": 3.4704584856,
				"y": -2.4470430718,
				"z": 1.3223114584,
				"element": "H" 
			},
			{
				"x": 3.2081049005,
				"y": 0.0091032923,
				"z": 1.9396062359,
				"element": "H" 
			},
			{
				"x": 4.0730383909,
				"y": -0.399091109,
				"z": 0.4467192847,
				"element": "H" 
			},
			{
				"x": 1.0790400929,
				"y": 0.1736279634,
				"z": 0.4926216104,
				"element": "H" 
			},
			{
				"x": 2.3030818174,
				"y": 1.4154440926,
				"z": 0.2372062051,
				"element": "H" 
			},
			{
				"x": 1.2759457944,
				"y": -0.4694842161,
				"z": -3.0469162958,
				"element": "H" 
			},
			{
				"x": -0.0368638859,
				"y": 1.9356789431,
				"z": -0.7363909548,
				"element": "H" 
			},
			{
				"x": -2.4395820865,
				"y": 2.2018322613,
				"z": -0.229263837,
				"element": "H" 
			},
			{
				"x": -4.094272968,
				"y": 0.5521137783,
				"z": -1.0843853597,
				"element": "H" 
			},
			{
				"x": -3.3052023393,
				"y": -1.3880316344,
				"z": -2.4321096587,
				"element": "H" 
			},
			{
				"x": -0.8864909528,
				"y": -1.700555358,
				"z": -2.8639834821,
				"element": "H" 
			}
		],
		 "valence_orbital": [ 
			{
				"type": "occ",
				"energy": -0.29063,
				"method": "rhf"
			},
			{
				"type": "occ",
				"energy": -0.25797,
				"method": "rhf"
			},
			{
				"type": "occ",
				"energy": -0.24614,
				"method": "rhf"
			},
			{
				"type": "occ",
				"energy": -0.2312,
				"method": "rhf"
			},
			{
				"type": "occ",
				"energy": -0.22376,
				"method": "rhf"
			},
			{
				"type": "unocc",
				"energy": -0.01247,
				"method": "rhf"
			},
			{
				"type": "unocc",
				"energy": -0.00893,
				"method": "rhf"
			},
			{
				"type": "unocc",
				"energy": 0.03874,
				"method": "rhf"
			},
			{
				"type": "unocc",
				"energy": 0.08326,
				"method": "rhf"
			},
			{
				"type": "unocc",
				"energy": 0.08802,
				"method": "rhf"
			}
		],
		"cosmo_sigma_profile": { 
			"-0.025": 0.0,
			"-0.024": 0.0,
			"-0.023": 0.0,
			"-0.022": 0.0,
			"-0.021": 0.0,
			"-0.02": 0.0,
			"-0.019": 0.0,
			"-0.018": 0.0,
			"-0.017": 0.0,
			"-0.016": 0.0,
			"-0.015": 0.0,
			"-0.014": 0.478414072738,
			"-0.013": 0.920588974191,
			"-0.012": 1.06299538771,
			"-0.011": 1.06842744793,
			"-0.01": 2.00748739663,
			"-0.009": 4.23332255951,
			"-0.008": 3.67505098079,
			"-0.007": 5.67083547752,
			"-0.006": 15.1228080547,
			"-0.005": 15.9328338955,
			"-0.004": 16.4620488321,
			"-0.003": 17.5294315059,
			"-0.002": 19.4565999784,
			"-0.001": 15.6463744886,
			"0.0": 11.9577879503,
			"0.001": 10.1641833554,
			"0.002": 10.6639297607,
			"0.003": 11.6257777474,
			"0.004": 9.90708180464,
			"0.005": 11.8688307962,
			"0.006": 4.13895857249,
			"0.007": 1.88388857897,
			"0.008": 1.73633506877,
			"0.009": 2.37572479449,
			"0.01": 2.07746232729,
			"0.011": 1.98496539295,
			"0.012": 3.39520089854,
			"0.013": 5.77521608933,
			"0.014": 5.18926418751,
			"0.015": 1.44584553248,
			"0.016": 0.330587313938,
			"0.017": 0.506947248839,
			"0.018": 0.373971078954,
			"0.019": 0.0529660116965,
			"0.02": 0.0,
			"0.021": 0.0,
			"0.022": 0.0,
			"0.023": 0.0,
			"0.024": 0.0,
			"0.025": 0.0
		}
	}
}
