{
	 "smiles": "NC(=O)CN1CC(CC1=O)C(O)=O", 
	 "Tm": 443.15, 
	 "num_atms": 23, 
	 "gaussian": { 
		 "optdone": 1, 
		 "sigma_profile": "yes", 
		 "theory": "DFT", 
		 "functional": "B3LYP", 
		 "basiset": "6-31G**", 
		 "properties": { 
			 "R2extent": 2960.4634, 
			 "electric_dipole_moment_norm": 3.43928838279, 
			 "electric_quadrupole_moment_norm": 20.2046397167, 
			 "total_energy": -683.210034418, 
			 "HOMO_LUMO_gap": 0.22932, 
			 "cosmo_polarized_energy": -25.61, 
			 "cosmo_cavitation_energy": 27.05, 
			 "cosmo_dispersion_energy": -19.52, 
			 "cosmo_repulsion_energy": 1.58, 
			 "cosmo_total_nonelectrostatic_energy": 9.11, 
			 "SMD_solvation_energy": 6.51 
		},
		"coords": [
			{
				"x": -3.5038212676,
				"y": -0.5491127774,
				"z": 1.1571051994,
				"element": "N" 
			},
			{
				"x": -3.2586908469,
				"y": 0.4858315589,
				"z": 0.309468414,
				"element": "C" 
			},
			{
				"x": -3.9997261335,
				"y": 0.8281322374,
				"z": -0.6004596024,
				"element": "O" 
			},
			{
				"x": -1.9332921298,
				"y": 1.2186702946,
				"z": 0.6027981335,
				"element": "C" 
			},
			{
				"x": -0.7642807195,
				"y": 0.4140919047,
				"z": 0.2665379422,
				"element": "N" 
			},
			{
				"x": 0.0086582319,
				"y": 0.6028119407,
				"z": -0.9593315963,
				"element": "C" 
			},
			{
				"x": 0.9638428819,
				"y": -0.6099975606,
				"z": -0.9690218575,
				"element": "C" 
			},
			{
				"x": 1.0417172628,
				"y": -1.0490079208,
				"z": 0.5158306204,
				"element": "C" 
			},
			{
				"x": -0.2552220893,
				"y": -0.5135328457,
				"z": 1.1208679708,
				"element": "C" 
			},
			{
				"x": -0.7513164811,
				"y": -0.8406569806,
				"z": 2.1963137907,
				"element": "O" 
			},
			{
				"x": 2.3209403124,
				"y": -0.2912841866,
				"z": -1.5861293172,
				"element": "C" 
			},
			{
				"x": 3.1645416438,
				"y": -1.3497350229,
				"z": -1.6976079245,
				"element": "O" 
			},
			{
				"x": 2.6707196127,
				"y": 0.8037305335,
				"z": -1.9479671456,
				"element": "O" 
			},
			{
				"x": -2.7972304305,
				"y": -0.8440441358,
				"z": 1.8232865696,
				"element": "H" 
			},
			{
				"x": -4.3153185279,
				"y": -1.122850786,
				"z": 0.9828920921,
				"element": "H" 
			},
			{
				"x": -1.9217901665,
				"y": 2.1317197493,
				"z": 0.0071153558,
				"element": "H" 
			},
			{
				"x": -1.8775765499,
				"y": 1.4748792974,
				"z": 1.6663001955,
				"element": "H" 
			},
			{
				"x": 0.575661527,
				"y": 1.5405969978,
				"z": -0.9402556161,
				"element": "H" 
			},
			{
				"x": -0.6477565826,
				"y": 0.6178344025,
				"z": -1.8343580536,
				"element": "H" 
			},
			{
				"x": 0.5072755452,
				"y": -1.4215344516,
				"z": -1.5501939438,
				"element": "H" 
			},
			{
				"x": 1.1148466757,
				"y": -2.1281414642,
				"z": 0.6689924247,
				"element": "H" 
			},
			{
				"x": 1.8825879748,
				"y": -0.5798363091,
				"z": 1.0407538037,
				"element": "H" 
			},
			{
				"x": 2.7429302567,
				"y": -2.1588644755,
				"z": -1.3744374556,
				"element": "H" 
			}
		],
		 "valence_orbital": [ 
			{
				"type": "occ",
				"energy": -0.29616,
				"method": "rhf"
			},
			{
				"type": "occ",
				"energy": -0.27787,
				"method": "rhf"
			},
			{
				"type": "occ",
				"energy": -0.27377,
				"method": "rhf"
			},
			{
				"type": "occ",
				"energy": -0.26644,
				"method": "rhf"
			},
			{
				"type": "occ",
				"energy": -0.24091,
				"method": "rhf"
			},
			{
				"type": "unocc",
				"energy": -0.01159,
				"method": "rhf"
			},
			{
				"type": "unocc",
				"energy": -0.00205,
				"method": "rhf"
			},
			{
				"type": "unocc",
				"energy": 0.02184,
				"method": "rhf"
			},
			{
				"type": "unocc",
				"energy": 0.03422,
				"method": "rhf"
			},
			{
				"type": "unocc",
				"energy": 0.07709,
				"method": "rhf"
			}
		],
		"cosmo_sigma_profile": { 
			"-0.025": 0.0,
			"-0.024": 0.0,
			"-0.023": 0.0,
			"-0.022": 0.0,
			"-0.021": 0.0,
			"-0.02": 0.0381295899239,
			"-0.019": 0.713700878717,
			"-0.018": 0.934970052521,
			"-0.017": 1.3696925698,
			"-0.016": 1.20562197337,
			"-0.015": 1.47644417277,
			"-0.014": 1.497679726,
			"-0.013": 1.69097878313,
			"-0.012": 2.5631111473,
			"-0.011": 2.97710321967,
			"-0.01": 2.07477734871,
			"-0.009": 3.16053364397,
			"-0.008": 8.47255370783,
			"-0.007": 13.7538229057,
			"-0.006": 17.3158625484,
			"-0.005": 14.1236482127,
			"-0.004": 15.0593414109,
			"-0.003": 11.7190169306,
			"-0.002": 9.70135046753,
			"-0.001": 7.44851583005,
			"0.0": 5.90695681939,
			"0.001": 5.82753293144,
			"0.002": 7.0909132694,
			"0.003": 6.4819975303,
			"0.004": 5.49294529749,
			"0.005": 5.79060533849,
			"0.006": 4.50759435948,
			"0.007": 4.41125327856,
			"0.008": 5.02344148508,
			"0.009": 6.37511359471,
			"0.01": 7.83201692801,
			"0.011": 8.81918613166,
			"0.012": 7.02691954931,
			"0.013": 7.47991734717,
			"0.014": 6.4848352125,
			"0.015": 0.989758484465,
			"0.016": 0.0,
			"0.017": 0.0,
			"0.018": 0.0,
			"0.019": 0.0,
			"0.02": 0.0,
			"0.021": 0.0,
			"0.022": 0.0,
			"0.023": 0.0,
			"0.024": 0.0,
			"0.025": 0.0
		}
	}
}
