{
	 "smiles": "FC(F)OC(F)F", 
	 "Tm": 150.15, 
	 "num_atms": 9, 
	 "gaussian": { 
		 "optdone": 1, 
		 "sigma_profile": "yes", 
		 "theory": "DFT", 
		 "functional": "B3LYP", 
		 "basiset": "6-31G**", 
		 "properties": { 
			 "R2extent": 779.2409, 
			 "electric_dipole_moment_norm": 1.35801833935, 
			 "electric_quadrupole_moment_norm": 5.27297667357, 
			 "total_energy": -551.991369582, 
			 "HOMO_LUMO_gap": 0.4649, 
			 "cosmo_polarized_energy": -4.77, 
			 "cosmo_cavitation_energy": 15.14, 
			 "cosmo_dispersion_energy": -10.75, 
			 "cosmo_repulsion_energy": 0.86, 
			 "cosmo_total_nonelectrostatic_energy": 5.25, 
			 "SMD_solvation_energy": 5.11 
		},
		"coords": [
			{
				"x": 0.6118537116,
				"y": -1.114812144,
				"z": -1.5488775899,
				"element": "F" 
			},
			{
				"x": -0.2689639276,
				"y": -0.1635035719,
				"z": -1.1833909321,
				"element": "C" 
			},
			{
				"x": -0.8258186966,
				"y": 0.3373194987,
				"z": -2.3048314668,
				"element": "F" 
			},
			{
				"x": 0.4444862137,
				"y": 0.8541279252,
				"z": -0.5517969684,
				"element": "O" 
			},
			{
				"x": -0.0105044862,
				"y": 1.2396635318,
				"z": 0.6852696334,
				"element": "C" 
			},
			{
				"x": 0.0101565786,
				"y": 0.196532908,
				"z": 1.557060654,
				"element": "F" 
			},
			{
				"x": -1.3000758315,
				"y": 1.6619798262,
				"z": 0.621268039,
				"element": "F" 
			},
			{
				"x": -1.0436287539,
				"y": -0.596879963,
				"z": -0.5466000618,
				"element": "H" 
			},
			{
				"x": 0.632995192,
				"y": 2.043871989,
				"z": 1.0453986926,
				"element": "H" 
			}
		],
		 "valence_orbital": [ 
			{
				"type": "occ",
				"energy": -0.41891,
				"method": "rhf"
			},
			{
				"type": "occ",
				"energy": -0.40863,
				"method": "rhf"
			},
			{
				"type": "occ",
				"energy": -0.39904,
				"method": "rhf"
			},
			{
				"type": "occ",
				"energy": -0.36846,
				"method": "rhf"
			},
			{
				"type": "occ",
				"energy": -0.35503,
				"method": "rhf"
			},
			{
				"type": "unocc",
				"energy": 0.10987,
				"method": "rhf"
			},
			{
				"type": "unocc",
				"energy": 0.11302,
				"method": "rhf"
			},
			{
				"type": "unocc",
				"energy": 0.12715,
				"method": "rhf"
			},
			{
				"type": "unocc",
				"energy": 0.1423,
				"method": "rhf"
			},
			{
				"type": "unocc",
				"energy": 0.16291,
				"method": "rhf"
			}
		],
		"cosmo_sigma_profile": { 
			"-0.025": 0.0,
			"-0.024": 0.0,
			"-0.023": 0.0,
			"-0.022": 0.0,
			"-0.021": 0.0,
			"-0.02": 0.0,
			"-0.019": 0.0,
			"-0.018": 0.0,
			"-0.017": 0.0,
			"-0.016": 0.0,
			"-0.015": 0.0,
			"-0.014": 0.0,
			"-0.013": 0.0,
			"-0.012": 1.59455905736,
			"-0.011": 4.67048623513,
			"-0.01": 3.63500199446,
			"-0.009": 2.23457210662,
			"-0.008": 2.77850822663,
			"-0.007": 2.76589521455,
			"-0.006": 2.28936187631,
			"-0.005": 3.19951746957,
			"-0.004": 2.29060815547,
			"-0.003": 3.21142853809,
			"-0.002": 3.71536776445,
			"-0.001": 3.86443083535,
			"0.0": 7.60767748443,
			"0.001": 8.2432162955,
			"0.002": 14.2097352089,
			"0.003": 37.1918862831,
			"0.004": 13.2986988122,
			"0.005": 1.69783739036,
			"0.006": 1.77667852618,
			"0.007": 0.780841339348,
			"0.008": 0.0,
			"0.009": 0.0,
			"0.01": 0.0,
			"0.011": 0.0,
			"0.012": 0.0,
			"0.013": 0.0,
			"0.014": 0.0,
			"0.015": 0.0,
			"0.016": 0.0,
			"0.017": 0.0,
			"0.018": 0.0,
			"0.019": 0.0,
			"0.02": 0.0,
			"0.021": 0.0,
			"0.022": 0.0,
			"0.023": 0.0,
			"0.024": 0.0,
			"0.025": 0.0
		}
	}
}
