{
	 "smiles": "OC(=O)CNC(=O)C1=CC(F)=CC(F)=C1", 
	 "Tm": 428.15, 
	 "num_atms": 22, 
	 "gaussian": { 
		 "optdone": 1, 
		 "sigma_profile": "yes", 
		 "theory": "DFT", 
		 "functional": "B3LYP", 
		 "basiset": "6-31G**", 
		 "properties": { 
			 "R2extent": 3915.1803, 
			 "electric_dipole_moment_norm": 2.03385960184, 
			 "electric_quadrupole_moment_norm": 18.7462670695, 
			 "total_energy": -827.282601862, 
			 "HOMO_LUMO_gap": 0.19777, 
			 "cosmo_polarized_energy": -18.98, 
			 "cosmo_cavitation_energy": 28.32, 
			 "cosmo_dispersion_energy": -19.84, 
			 "cosmo_repulsion_energy": 1.52, 
			 "cosmo_total_nonelectrostatic_energy": 10.0, 
			 "SMD_solvation_energy": 7.94 
		},
		"coords": [
			{
				"x": 0.0670808729,
				"y": 0.6792082248,
				"z": 2.9675742284,
				"element": "O" 
			},
			{
				"x": 0.5655491141,
				"y": 1.4678650015,
				"z": 1.9932684449,
				"element": "C" 
			},
			{
				"x": 1.6502280845,
				"y": 1.9862878221,
				"z": 2.063010235,
				"element": "O" 
			},
			{
				"x": -0.3425966515,
				"y": 1.6356854809,
				"z": 0.7650023843,
				"element": "C" 
			},
			{
				"x": -1.6845935518,
				"y": 1.0753334998,
				"z": 0.9448565161,
				"element": "N" 
			},
			{
				"x": -2.2963466307,
				"y": 0.1402447704,
				"z": 0.1020919766,
				"element": "C" 
			},
			{
				"x": -3.5028710498,
				"y": 0.181418862,
				"z": -0.0770343388,
				"element": "O" 
			},
			{
				"x": -1.4489591929,
				"y": -0.9329245042,
				"z": -0.5190517101,
				"element": "C" 
			},
			{
				"x": -0.3258289274,
				"y": -1.4815061119,
				"z": 0.116733213,
				"element": "C" 
			},
			{
				"x": 0.3475501121,
				"y": -2.5254862092,
				"z": -0.5094202176,
				"element": "C" 
			},
			{
				"x": 1.4159231011,
				"y": -3.0651976385,
				"z": 0.1005620955,
				"element": "F" 
			},
			{
				"x": -0.0435728976,
				"y": -3.0358723564,
				"z": -1.7416055491,
				"element": "C" 
			},
			{
				"x": -1.166262521,
				"y": -2.4707816729,
				"z": -2.3391941291,
				"element": "C" 
			},
			{
				"x": -1.5682489915,
				"y": -2.9507574309,
				"z": -3.5282762847,
				"element": "F" 
			},
			{
				"x": -1.8845695589,
				"y": -1.4394591128,
				"z": -1.7504529008,
				"element": "C" 
			},
			{
				"x": -0.8376013034,
				"y": 0.426758664,
				"z": 2.6992756751,
				"element": "H" 
			},
			{
				"x": -0.3947494382,
				"y": 2.70420492,
				"z": 0.5357071952,
				"element": "H" 
			},
			{
				"x": 0.1585781123,
				"y": 1.1553646599,
				"z": -0.0780262352,
				"element": "H" 
			},
			{
				"x": -2.3851576367,
				"y": 1.7454041863,
				"z": 1.2469715586,
				"element": "H" 
			},
			{
				"x": 0.0167836612,
				"y": -1.1457217631,
				"z": 1.0878231316,
				"element": "H" 
			},
			{
				"x": 0.4993161699,
				"y": -3.8457297953,
				"z": -2.2133720481,
				"element": "H" 
			},
			{
				"x": -2.7717508765,
				"y": -1.0400394967,
				"z": -2.2260432409,
				"element": "H" 
			}
		],
		 "valence_orbital": [ 
			{
				"type": "occ",
				"energy": -0.31477,
				"method": "rhf"
			},
			{
				"type": "occ",
				"energy": -0.29722,
				"method": "rhf"
			},
			{
				"type": "occ",
				"energy": -0.28198,
				"method": "rhf"
			},
			{
				"type": "occ",
				"energy": -0.27154,
				"method": "rhf"
			},
			{
				"type": "occ",
				"energy": -0.26692,
				"method": "rhf"
			},
			{
				"type": "unocc",
				"energy": -0.06915,
				"method": "rhf"
			},
			{
				"type": "unocc",
				"energy": -0.02396,
				"method": "rhf"
			},
			{
				"type": "unocc",
				"energy": -0.00312,
				"method": "rhf"
			},
			{
				"type": "unocc",
				"energy": 0.02041,
				"method": "rhf"
			},
			{
				"type": "unocc",
				"energy": 0.04882,
				"method": "rhf"
			}
		],
		"cosmo_sigma_profile": { 
			"-0.025": 0.0,
			"-0.024": 0.0,
			"-0.023": 0.0,
			"-0.022": 0.0,
			"-0.021": 0.0,
			"-0.02": 0.0,
			"-0.019": 0.0,
			"-0.018": 0.0,
			"-0.017": 0.0,
			"-0.016": 0.0,
			"-0.015": 1.04420916993,
			"-0.014": 2.86112952258,
			"-0.013": 2.75273425671,
			"-0.012": 3.23026006224,
			"-0.011": 3.15693601145,
			"-0.01": 2.89029609789,
			"-0.009": 6.60889624232,
			"-0.008": 7.91542556085,
			"-0.007": 9.42195506135,
			"-0.006": 9.50908027502,
			"-0.005": 10.4830461025,
			"-0.004": 8.82692915243,
			"-0.003": 7.99688190281,
			"-0.002": 10.4745301823,
			"-0.001": 18.2962555388,
			"0.0": 20.7418559484,
			"0.001": 12.2941295831,
			"0.002": 8.98309086827,
			"0.003": 18.3597136576,
			"0.004": 15.396350677,
			"0.005": 3.19120438986,
			"0.006": 2.97493222937,
			"0.007": 3.09809024119,
			"0.008": 5.08442274513,
			"0.009": 5.6911819039,
			"0.01": 6.59763547479,
			"0.011": 7.6446946178,
			"0.012": 9.75169518252,
			"0.013": 1.96931970885,
			"0.014": 0.0,
			"0.015": 0.0,
			"0.016": 0.0,
			"0.017": 0.0,
			"0.018": 0.0,
			"0.019": 0.0,
			"0.02": 0.0,
			"0.021": 0.0,
			"0.022": 0.0,
			"0.023": 0.0,
			"0.024": 0.0,
			"0.025": 0.0
		}
	}
}
