{
	 "smiles": "FC1=C(CBr)C=CC=C1Cl", 
	 "Tm": 311.15, 
	 "num_atms": 15, 
	 "gaussian": { 
		 "optdone": 1, 
		 "sigma_profile": "yes", 
		 "theory": "DFT", 
		 "functional": "B3LYP", 
		 "basiset": "6-31G**", 
		 "properties": { 
			 "R2extent": 5422.6944, 
			 "electric_dipole_moment_norm": 3.12723887159, 
			 "electric_quadrupole_moment_norm": 9.53975679879, 
			 "total_energy": -3401.19114804, 
			 "HOMO_LUMO_gap": 0.20514, 
			 "cosmo_polarized_energy": -6.55, 
			 "cosmo_cavitation_energy": 23.79, 
			 "cosmo_dispersion_energy": -17.72, 
			 "cosmo_repulsion_energy": 1.43, 
			 "cosmo_total_nonelectrostatic_energy": 7.51, 
			 "SMD_solvation_energy": 3.0 
		},
		"coords": [
			{
				"x": 2.8783513007,
				"y": 2.9814359094,
				"z": -0.9111596697,
				"element": "F" 
			},
			{
				"x": 2.1780866731,
				"y": 1.905886791,
				"z": -1.3047748513,
				"element": "C" 
			},
			{
				"x": 1.3339406,
				"y": 1.275288176,
				"z": -0.3852792102,
				"element": "C" 
			},
			{
				"x": 1.2228470533,
				"y": 1.8005096692,
				"z": 1.0067604413,
				"element": "C" 
			},
			{
				"x": 2.566981574,
				"y": 0.9663533277,
				"z": 2.2347395783,
				"element": "Br" 
			},
			{
				"x": 0.6090056817,
				"y": 0.1571903567,
				"z": -0.8170889613,
				"element": "C" 
			},
			{
				"x": 0.7236986424,
				"y": -0.3077869395,
				"z": -2.1254074212,
				"element": "C" 
			},
			{
				"x": 1.5686945448,
				"y": 0.3363787076,
				"z": -3.0302466269,
				"element": "C" 
			},
			{
				"x": 2.2984466085,
				"y": 1.4511106203,
				"z": -2.6179545537,
				"element": "C" 
			},
			{
				"x": 3.3586438406,
				"y": 2.286010712,
				"z": -3.7242636882,
				"element": "Cl" 
			},
			{
				"x": 0.2602927304,
				"y": 1.5668774184,
				"z": 1.4564731545,
				"element": "H" 
			},
			{
				"x": 1.4247604018,
				"y": 2.8666212733,
				"z": 1.0685520407,
				"element": "H" 
			},
			{
				"x": -0.0451558342,
				"y": -0.3484807118,
				"z": -0.1129450223,
				"element": "H" 
			},
			{
				"x": 0.1552708369,
				"y": -1.1742043094,
				"z": -2.4472470102,
				"element": "H" 
			},
			{
				"x": 1.6676353461,
				"y": -0.0132910009,
				"z": -4.0518581999,
				"element": "H" 
			}
		],
		 "valence_orbital": [ 
			{
				"type": "occ",
				"energy": -0.32351,
				"method": "rhf"
			},
			{
				"type": "occ",
				"energy": -0.28128,
				"method": "rhf"
			},
			{
				"type": "occ",
				"energy": -0.27546,
				"method": "rhf"
			},
			{
				"type": "occ",
				"energy": -0.26253,
				"method": "rhf"
			},
			{
				"type": "occ",
				"energy": -0.25698,
				"method": "rhf"
			},
			{
				"type": "unocc",
				"energy": -0.05184,
				"method": "rhf"
			},
			{
				"type": "unocc",
				"energy": -0.02159,
				"method": "rhf"
			},
			{
				"type": "unocc",
				"energy": 0.01239,
				"method": "rhf"
			},
			{
				"type": "unocc",
				"energy": 0.02,
				"method": "rhf"
			},
			{
				"type": "unocc",
				"energy": 0.09066,
				"method": "rhf"
			}
		],
		"cosmo_sigma_profile": { 
			"-0.025": 0.0,
			"-0.024": 0.0,
			"-0.023": 0.0,
			"-0.022": 0.0,
			"-0.021": 0.0,
			"-0.02": 0.0,
			"-0.019": 0.0,
			"-0.018": 0.0,
			"-0.017": 0.0,
			"-0.016": 0.0,
			"-0.015": 0.0,
			"-0.014": 0.0,
			"-0.013": 0.0,
			"-0.012": 0.0,
			"-0.011": 0.0,
			"-0.01": 0.0,
			"-0.009": 0.840800495524,
			"-0.008": 5.94069341222,
			"-0.007": 10.3790487901,
			"-0.006": 10.5476190211,
			"-0.005": 9.53847694121,
			"-0.004": 8.13670867383,
			"-0.003": 8.56355279006,
			"-0.002": 10.1328482934,
			"-0.001": 13.5041849997,
			"0.0": 16.1933395125,
			"0.001": 18.8239379444,
			"0.002": 18.4462781746,
			"0.003": 24.2626948333,
			"0.004": 19.2095728188,
			"0.005": 10.0229187434,
			"0.006": 11.1588758046,
			"0.007": 0.957893955209,
			"0.008": 0.0,
			"0.009": 0.0,
			"0.01": 0.0,
			"0.011": 0.0,
			"0.012": 0.0,
			"0.013": 0.0,
			"0.014": 0.0,
			"0.015": 0.0,
			"0.016": 0.0,
			"0.017": 0.0,
			"0.018": 0.0,
			"0.019": 0.0,
			"0.02": 0.0,
			"0.021": 0.0,
			"0.022": 0.0,
			"0.023": 0.0,
			"0.024": 0.0,
			"0.025": 0.0
		}
	}
}
