{
	 "smiles": "CC(C)N1N=CC(C(N)=O)=C1N", 
	 "Tm": 468.15, 
	 "num_atms": 24, 
	 "gaussian": { 
		 "optdone": 1, 
		 "sigma_profile": "yes", 
		 "theory": "DFT", 
		 "functional": "B3LYP", 
		 "basiset": "6-31G**", 
		 "properties": { 
			 "R2extent": 2942.5294, 
			 "electric_dipole_moment_norm": 5.62072517474, 
			 "electric_quadrupole_moment_norm": 17.1536341138, 
			 "total_energy": -568.217529127, 
			 "HOMO_LUMO_gap": 0.21676, 
			 "cosmo_polarized_energy": -19.92, 
			 "cosmo_cavitation_energy": 27.23, 
			 "cosmo_dispersion_energy": -19.57, 
			 "cosmo_repulsion_energy": 1.58, 
			 "cosmo_total_nonelectrostatic_energy": 9.24, 
			 "SMD_solvation_energy": 5.17 
		},
		"coords": [
			{
				"x": 2.3310375989,
				"y": -0.0089274023,
				"z": -1.6806554805,
				"element": "C" 
			},
			{
				"x": 1.0444283794,
				"y": -0.836128809,
				"z": -1.7827709924,
				"element": "C" 
			},
			{
				"x": 0.8551353972,
				"y": -1.4569810074,
				"z": -3.1724719519,
				"element": "C" 
			},
			{
				"x": -0.1163904173,
				"y": -0.0105008636,
				"z": -1.4290670266,
				"element": "N" 
			},
			{
				"x": -0.3433478401,
				"y": 1.1525690479,
				"z": -2.1282540155,
				"element": "N" 
			},
			{
				"x": -1.4427343523,
				"y": 1.6543489138,
				"z": -1.5977812878,
				"element": "C" 
			},
			{
				"x": -1.9528911545,
				"y": 0.8533439219,
				"z": -0.5435791353,
				"element": "C" 
			},
			{
				"x": -3.16464147,
				"y": 1.1065687318,
				"z": 0.23831946,
				"element": "C" 
			},
			{
				"x": -3.2732202545,
				"y": 0.3646736437,
				"z": 1.4271600174,
				"element": "N" 
			},
			{
				"x": -4.0522378063,
				"y": 1.8720419067,
				"z": -0.1145953922,
				"element": "O" 
			},
			{
				"x": -1.0653255827,
				"y": -0.2303411641,
				"z": -0.4835888888,
				"element": "C" 
			},
			{
				"x": -1.0669178351,
				"y": -1.3302566787,
				"z": 0.3664436263,
				"element": "N" 
			},
			{
				"x": 2.4576541811,
				"y": 0.3911653111,
				"z": -0.6707173284,
				"element": "H" 
			},
			{
				"x": 2.2946918624,
				"y": 0.82902393,
				"z": -2.3802930779,
				"element": "H" 
			},
			{
				"x": 3.1977067744,
				"y": -0.6331984007,
				"z": -1.9187459966,
				"element": "H" 
			},
			{
				"x": 1.0881784281,
				"y": -1.6322436374,
				"z": -1.0309782299,
				"element": "H" 
			},
			{
				"x": -0.0493873259,
				"y": -2.0719715618,
				"z": -3.2113675247,
				"element": "H" 
			},
			{
				"x": 1.7127337164,
				"y": -2.0866711646,
				"z": -3.4289718084,
				"element": "H" 
			},
			{
				"x": 0.7621861031,
				"y": -0.6670847461,
				"z": -3.9221588415,
				"element": "H" 
			},
			{
				"x": -1.85775399,
				"y": 2.5839028556,
				"z": -1.9628366591,
				"element": "H" 
			},
			{
				"x": -4.0679550137,
				"y": 0.6636387973,
				"z": 1.9809457791,
				"element": "H" 
			},
			{
				"x": -2.4214949088,
				"y": 0.2776010847,
				"z": 1.9704298554,
				"element": "H" 
			},
			{
				"x": -1.9875976689,
				"y": -1.4775719479,
				"z": 0.7682509319,
				"element": "H" 
			},
			{
				"x": -0.7105568208,
				"y": -2.183000761,
				"z": -0.0471160324,
				"element": "H" 
			}
		],
		 "valence_orbital": [ 
			{
				"type": "occ",
				"energy": -0.28348,
				"method": "rhf"
			},
			{
				"type": "occ",
				"energy": -0.27568,
				"method": "rhf"
			},
			{
				"type": "occ",
				"energy": -0.24839,
				"method": "rhf"
			},
			{
				"type": "occ",
				"energy": -0.24005,
				"method": "rhf"
			},
			{
				"type": "occ",
				"energy": -0.21513,
				"method": "rhf"
			},
			{
				"type": "unocc",
				"energy": 0.00163,
				"method": "rhf"
			},
			{
				"type": "unocc",
				"energy": 0.02943,
				"method": "rhf"
			},
			{
				"type": "unocc",
				"energy": 0.05528,
				"method": "rhf"
			},
			{
				"type": "unocc",
				"energy": 0.08606,
				"method": "rhf"
			},
			{
				"type": "unocc",
				"energy": 0.10333,
				"method": "rhf"
			}
		],
		"cosmo_sigma_profile": { 
			"-0.025": 0.0,
			"-0.024": 0.0,
			"-0.023": 0.0,
			"-0.022": 0.0,
			"-0.021": 0.0,
			"-0.02": 0.0,
			"-0.019": 0.0,
			"-0.018": 0.0,
			"-0.017": 0.0,
			"-0.016": 0.0,
			"-0.015": 0.0,
			"-0.014": 0.930159767981,
			"-0.013": 2.56342154703,
			"-0.012": 4.21139133135,
			"-0.011": 5.0820846729,
			"-0.01": 5.32919704476,
			"-0.009": 4.10282313928,
			"-0.008": 4.46361679783,
			"-0.007": 6.21460045198,
			"-0.006": 5.46721561714,
			"-0.005": 5.48565299737,
			"-0.004": 15.6487180323,
			"-0.003": 15.7950571433,
			"-0.002": 16.5610816811,
			"-0.001": 16.2025463323,
			"0.0": 19.7644847566,
			"0.001": 12.1735378491,
			"0.002": 8.41573280094,
			"0.003": 8.76469857327,
			"0.004": 8.894441575,
			"0.005": 6.96920215647,
			"0.006": 5.49453617286,
			"0.007": 4.66952898712,
			"0.008": 5.17412723074,
			"0.009": 2.69608097202,
			"0.01": 3.86990616035,
			"0.011": 3.27111464683,
			"0.012": 3.1527663671,
			"0.013": 5.15000749891,
			"0.014": 6.29341006516,
			"0.015": 1.05915553996,
			"0.016": 0.0,
			"0.017": 0.0,
			"0.018": 0.0,
			"0.019": 0.0,
			"0.02": 0.0,
			"0.021": 0.0,
			"0.022": 0.0,
			"0.023": 0.0,
			"0.024": 0.0,
			"0.025": 0.0
		}
	}
}
