{
	 "smiles": "OC(=O)CNC(=O)C1=NC=CC(Cl)=C1", 
	 "Tm": 462.15, 
	 "num_atms": 21, 
	 "gaussian": { 
		 "optdone": 1, 
		 "sigma_profile": "yes", 
		 "theory": "DFT", 
		 "functional": "B3LYP", 
		 "basiset": "6-31G**", 
		 "properties": { 
			 "R2extent": 4328.8518, 
			 "electric_dipole_moment_norm": 6.56036597226, 
			 "electric_quadrupole_moment_norm": 22.2679908955, 
			 "total_energy": -1104.45266941, 
			 "HOMO_LUMO_gap": 0.18174, 
			 "cosmo_polarized_energy": -22.56, 
			 "cosmo_cavitation_energy": 28.41, 
			 "cosmo_dispersion_energy": -20.95, 
			 "cosmo_repulsion_energy": 1.67, 
			 "cosmo_total_nonelectrostatic_energy": 9.12, 
			 "SMD_solvation_energy": 4.64 
		},
		"coords": [
			{
				"x": -0.253024142,
				"y": -1.9423073666,
				"z": 3.5932657625,
				"element": "O" 
			},
			{
				"x": -0.4970482289,
				"y": -2.9501406597,
				"z": 2.7476508678,
				"element": "C" 
			},
			{
				"x": -0.169816814,
				"y": -4.0902746489,
				"z": 2.9769277522,
				"element": "O" 
			},
			{
				"x": -1.2600326117,
				"y": -2.5658783792,
				"z": 1.4626491096,
				"element": "C" 
			},
			{
				"x": -0.5938130246,
				"y": -1.5624662455,
				"z": 0.6326946761,
				"element": "N" 
			},
			{
				"x": -0.5549185584,
				"y": -0.2492080747,
				"z": 0.9846433619,
				"element": "C" 
			},
			{
				"x": -1.003498368,
				"y": 0.1557968495,
				"z": 2.060112806,
				"element": "O" 
			},
			{
				"x": 0.045607643,
				"y": 0.6926316988,
				"z": -0.0315800706,
				"element": "C" 
			},
			{
				"x": 0.7429133746,
				"y": 1.7177333998,
				"z": 0.4758243934,
				"element": "N" 
			},
			{
				"x": 1.2759358596,
				"y": 2.5837326194,
				"z": -0.3872045671,
				"element": "C" 
			},
			{
				"x": 1.140866483,
				"y": 2.4914545407,
				"z": -1.7761263833,
				"element": "C" 
			},
			{
				"x": 0.4022087187,
				"y": 1.4256258227,
				"z": -2.2797657633,
				"element": "C" 
			},
			{
				"x": 0.1693456345,
				"y": 1.2473807551,
				"z": -4.0021579368,
				"element": "Cl" 
			},
			{
				"x": -0.1603377459,
				"y": 0.4991417849,
				"z": -1.4028275889,
				"element": "C" 
			},
			{
				"x": -0.6044958158,
				"y": -1.0945691229,
				"z": 3.2273707848,
				"element": "H" 
			},
			{
				"x": -2.2451703289,
				"y": -2.1753875985,
				"z": 1.742115229,
				"element": "H" 
			},
			{
				"x": -1.3915758298,
				"y": -3.4729197675,
				"z": 0.8739795383,
				"element": "H" 
			},
			{
				"x": -0.0285095109,
				"y": -1.8811915628,
				"z": -0.1404446405,
				"element": "H" 
			},
			{
				"x": 1.8449761093,
				"y": 3.4041664278,
				"z": 0.0449865963,
				"element": "H" 
			},
			{
				"x": 1.5897628903,
				"y": 3.2262414802,
				"z": -2.4342219215,
				"element": "H" 
			},
			{
				"x": -0.7624757341,
				"y": -0.3208619527,
				"z": -1.776492006,
				"element": "H" 
			}
		],
		 "valence_orbital": [ 
			{
				"type": "occ",
				"energy": -0.30197,
				"method": "rhf"
			},
			{
				"type": "occ",
				"energy": -0.30025,
				"method": "rhf"
			},
			{
				"type": "occ",
				"energy": -0.29327,
				"method": "rhf"
			},
			{
				"type": "occ",
				"energy": -0.2831,
				"method": "rhf"
			},
			{
				"type": "occ",
				"energy": -0.25821,
				"method": "rhf"
			},
			{
				"type": "unocc",
				"energy": -0.07647,
				"method": "rhf"
			},
			{
				"type": "unocc",
				"energy": -0.05762,
				"method": "rhf"
			},
			{
				"type": "unocc",
				"energy": -0.00167,
				"method": "rhf"
			},
			{
				"type": "unocc",
				"energy": 0.00359,
				"method": "rhf"
			},
			{
				"type": "unocc",
				"energy": 0.01998,
				"method": "rhf"
			}
		],
		"cosmo_sigma_profile": { 
			"-0.025": 0.0,
			"-0.024": 0.0,
			"-0.023": 0.0,
			"-0.022": 0.0,
			"-0.021": 0.0,
			"-0.02": 0.0,
			"-0.019": 0.0,
			"-0.018": 0.0,
			"-0.017": 0.161067734262,
			"-0.016": 1.31509306285,
			"-0.015": 1.87439960603,
			"-0.014": 1.03277323469,
			"-0.013": 1.55754308828,
			"-0.012": 1.79981087979,
			"-0.011": 1.88094575782,
			"-0.01": 1.99746544636,
			"-0.009": 5.42309631065,
			"-0.008": 10.1890159735,
			"-0.007": 10.7399935384,
			"-0.006": 10.3271497841,
			"-0.005": 12.9223293983,
			"-0.004": 11.8617053202,
			"-0.003": 12.1478971397,
			"-0.002": 15.6035346665,
			"-0.001": 22.2395131611,
			"0.0": 15.111092284,
			"0.001": 8.48743842835,
			"0.002": 11.0808798988,
			"0.003": 13.1456528216,
			"0.004": 7.63463440365,
			"0.005": 3.87597583414,
			"0.006": 3.21082136041,
			"0.007": 3.71422839674,
			"0.008": 4.86390525666,
			"0.009": 4.90651636302,
			"0.01": 6.9405479786,
			"0.011": 8.39784974335,
			"0.012": 7.54768642091,
			"0.013": 4.03767849739,
			"0.014": 2.19556008535,
			"0.015": 1.52490581144,
			"0.016": 0.486011942895,
			"0.017": 0.0,
			"0.018": 0.0,
			"0.019": 0.0,
			"0.02": 0.0,
			"0.021": 0.0,
			"0.022": 0.0,
			"0.023": 0.0,
			"0.024": 0.0,
			"0.025": 0.0
		}
	}
}
