{
	 "smiles": "CC1=CC=C(C[C@H](NC(=O)OC(C)(C)C)C(O)=O)C=C1", 
	 "Tm": 359.15, 
	 "num_atms": 41, 
	 "gaussian": { 
		 "optdone": 1, 
		 "sigma_profile": "yes", 
		 "theory": "DFT", 
		 "functional": "B3LYP", 
		 "basiset": "6-31G**", 
		 "properties": { 
			 "R2extent": 7742.7445, 
			 "electric_dipole_moment_norm": 3.29341605328, 
			 "electric_quadrupole_moment_norm": 17.8608144672, 
			 "total_energy": -939.967060762, 
			 "HOMO_LUMO_gap": 0.22404, 
			 "cosmo_polarized_energy": -15.21, 
			 "cosmo_cavitation_energy": 43.8, 
			 "cosmo_dispersion_energy": -28.7, 
			 "cosmo_repulsion_energy": 2.24, 
			 "cosmo_total_nonelectrostatic_energy": 17.34, 
			 "SMD_solvation_energy": 9.4 
		},
		"coords": [
			{
				"x": -4.8514443174,
				"y": 0.3041131771,
				"z": -3.5789037616,
				"element": "C" 
			},
			{
				"x": -3.493092401,
				"y": 0.5798698351,
				"z": -2.9780804935,
				"element": "C" 
			},
			{
				"x": -2.9716866604,
				"y": -0.2384462601,
				"z": -1.9666988582,
				"element": "C" 
			},
			{
				"x": -1.7299879998,
				"y": 0.026379118,
				"z": -1.3918187672,
				"element": "C" 
			},
			{
				"x": -0.9623599788,
				"y": 1.1235593368,
				"z": -1.8077616353,
				"element": "C" 
			},
			{
				"x": 0.3759624134,
				"y": 1.4288917687,
				"z": -1.1737136529,
				"element": "C" 
			},
			{
				"x": 0.2943640532,
				"y": 2.2270223191,
				"z": 0.1646669175,
				"element": "C" 
			},
			{
				"x": -0.3623085591,
				"y": 1.5063579561,
				"z": 1.2346048662,
				"element": "N" 
			},
			{
				"x": 0.219255557,
				"y": 0.5909109574,
				"z": 2.0673420853,
				"element": "C" 
			},
			{
				"x": -0.358611835,
				"y": 0.0811975235,
				"z": 3.0128512803,
				"element": "O" 
			},
			{
				"x": 1.4964094813,
				"y": 0.3387034514,
				"z": 1.676517772,
				"element": "O" 
			},
			{
				"x": 2.3386248039,
				"y": -0.6096728188,
				"z": 2.4239569731,
				"element": "C" 
			},
			{
				"x": 3.6592931511,
				"y": -0.5645461929,
				"z": 1.6509684322,
				"element": "C" 
			},
			{
				"x": 2.5340272122,
				"y": -0.1175500989,
				"z": 3.8620174511,
				"element": "C" 
			},
			{
				"x": 1.7234144082,
				"y": -2.0120645476,
				"z": 2.3686467309,
				"element": "C" 
			},
			{
				"x": -0.4447170783,
				"y": 3.5452794389,
				"z": -0.0215330949,
				"element": "C" 
			},
			{
				"x": 0.1800316115,
				"y": 4.3449931228,
				"z": -0.912984581,
				"element": "O" 
			},
			{
				"x": -1.4694439574,
				"y": 3.8580585849,
				"z": 0.5426900673,
				"element": "O" 
			},
			{
				"x": -1.4792348666,
				"y": 1.9378779507,
				"z": -2.8241363096,
				"element": "C" 
			},
			{
				"x": -2.7214840818,
				"y": 1.6694901575,
				"z": -3.399327549,
				"element": "C" 
			},
			{
				"x": -5.6510178925,
				"y": 0.7452235886,
				"z": -2.9703980675,
				"element": "H" 
			},
			{
				"x": -5.0507906763,
				"y": -0.7701843506,
				"z": -3.6434536811,
				"element": "H" 
			},
			{
				"x": -4.9379631102,
				"y": 0.7254834957,
				"z": -4.5848742585,
				"element": "H" 
			},
			{
				"x": -3.5436212179,
				"y": -1.0991598843,
				"z": -1.6279656025,
				"element": "H" 
			},
			{
				"x": -1.3487592199,
				"y": -0.6299706923,
				"z": -0.6146981112,
				"element": "H" 
			},
			{
				"x": 1.000149062,
				"y": 2.0031081768,
				"z": -1.8653038687,
				"element": "H" 
			},
			{
				"x": 0.9130569591,
				"y": 0.5054090609,
				"z": -0.9387625786,
				"element": "H" 
			},
			{
				"x": 1.3225730573,
				"y": 2.4649703141,
				"z": 0.4595813774,
				"element": "H" 
			},
			{
				"x": -1.2842086384,
				"y": 1.8220514539,
				"z": 1.5042978793,
				"element": "H" 
			},
			{
				"x": 3.5119754163,
				"y": -0.8767249823,
				"z": 0.612774589,
				"element": "H" 
			},
			{
				"x": 4.3879612168,
				"y": -1.2368790403,
				"z": 2.1134519194,
				"element": "H" 
			},
			{
				"x": 4.0740681382,
				"y": 0.447815707,
				"z": 1.6519343842,
				"element": "H" 
			},
			{
				"x": 1.5910140895,
				"y": -0.126960764,
				"z": 4.4086436616,
				"element": "H" 
			},
			{
				"x": 2.9360489772,
				"y": 0.9007263151,
				"z": 3.8637243013,
				"element": "H" 
			},
			{
				"x": 3.2501953824,
				"y": -0.765682931,
				"z": 4.3775745773,
				"element": "H" 
			},
			{
				"x": 0.7704439472,
				"y": -2.0398385567,
				"z": 2.8971014986,
				"element": "H" 
			},
			{
				"x": 1.5633889758,
				"y": -2.3161502821,
				"z": 1.3290987239,
				"element": "H" 
			},
			{
				"x": 2.407263815,
				"y": -2.731745778,
				"z": 2.830383436,
				"element": "H" 
			},
			{
				"x": -0.3633955601,
				"y": 5.1477173397,
				"z": -0.9869536301,
				"element": "H" 
			},
			{
				"x": -0.898403915,
				"y": 2.787707824,
				"z": -3.1742538249,
				"element": "H" 
			},
			{
				"x": -3.0942897627,
				"y": 2.3137592064,
				"z": -4.1922065975,
				"element": "H" 
			}
		],
		 "valence_orbital": [ 
			{
				"type": "occ",
				"energy": -0.2877,
				"method": "rhf"
			},
			{
				"type": "occ",
				"energy": -0.26017,
				"method": "rhf"
			},
			{
				"type": "occ",
				"energy": -0.25419,
				"method": "rhf"
			},
			{
				"type": "occ",
				"energy": -0.2447,
				"method": "rhf"
			},
			{
				"type": "occ",
				"energy": -0.23164,
				"method": "rhf"
			},
			{
				"type": "unocc",
				"energy": -0.0076,
				"method": "rhf"
			},
			{
				"type": "unocc",
				"energy": 0.0002,
				"method": "rhf"
			},
			{
				"type": "unocc",
				"energy": 0.00432,
				"method": "rhf"
			},
			{
				"type": "unocc",
				"energy": 0.05571,
				"method": "rhf"
			},
			{
				"type": "unocc",
				"energy": 0.06536,
				"method": "rhf"
			}
		],
		"cosmo_sigma_profile": { 
			"-0.025": 0.0,
			"-0.024": 0.0,
			"-0.023": 0.0,
			"-0.022": 0.0,
			"-0.021": 0.0,
			"-0.02": 0.0,
			"-0.019": 0.395291087184,
			"-0.018": 1.18836495003,
			"-0.017": 0.706221371285,
			"-0.016": 0.529406473039,
			"-0.015": 0.87617484417,
			"-0.014": 0.649700728837,
			"-0.013": 0.681211551844,
			"-0.012": 0.978539965425,
			"-0.011": 1.32245517095,
			"-0.01": 1.01377102022,
			"-0.009": 0.699400808094,
			"-0.008": 1.24610543162,
			"-0.007": 3.28058237503,
			"-0.006": 3.34817836203,
			"-0.005": 10.3669843823,
			"-0.004": 31.0606770734,
			"-0.003": 40.2069667378,
			"-0.002": 34.7138995483,
			"-0.001": 37.2731044534,
			"0.0": 44.2897511198,
			"0.001": 32.4199756466,
			"0.002": 16.0581394015,
			"0.003": 13.0332893267,
			"0.004": 14.0855446975,
			"0.005": 11.7890890224,
			"0.006": 10.7730850122,
			"0.007": 5.49941755868,
			"0.008": 4.62204750739,
			"0.009": 2.67361373945,
			"0.01": 5.27184008563,
			"0.011": 4.04079934876,
			"0.012": 2.35683488067,
			"0.013": 3.15112258745,
			"0.014": 2.21200153753,
			"0.015": 0.0316460086983,
			"0.016": 0.0,
			"0.017": 0.0,
			"0.018": 0.0,
			"0.019": 0.0,
			"0.02": 0.0,
			"0.021": 0.0,
			"0.022": 0.0,
			"0.023": 0.0,
			"0.024": 0.0,
			"0.025": 0.0
		}
	}
}
