{
	 "smiles": "O=C1NC=CC2=C1C=CO2", 
	 "Tm": 467.15, 
	 "num_atms": 15, 
	 "gaussian": { 
		 "optdone": 1, 
		 "sigma_profile": "yes", 
		 "theory": "DFT", 
		 "functional": "B3LYP", 
		 "basiset": "6-31G**", 
		 "properties": { 
			 "R2extent": 1567.5403, 
			 "electric_dipole_moment_norm": 3.14920581417, 
			 "electric_quadrupole_moment_norm": 16.5111340689, 
			 "total_energy": -474.949078689, 
			 "HOMO_LUMO_gap": 0.1786, 
			 "cosmo_polarized_energy": -13.26, 
			 "cosmo_cavitation_energy": 19.61, 
			 "cosmo_dispersion_energy": -15.0, 
			 "cosmo_repulsion_energy": 1.2, 
			 "cosmo_total_nonelectrostatic_energy": 5.81, 
			 "SMD_solvation_energy": 5.25 
		},
		"coords": [
			{
				"x": -0.5519710031,
				"y": -0.3898468984,
				"z": -2.7492727414,
				"element": "O" 
			},
			{
				"x": 0.0513436229,
				"y": -0.1742874433,
				"z": -1.7041635213,
				"element": "C" 
			},
			{
				"x": 0.4741241391,
				"y": -1.2482442764,
				"z": -0.8831354795,
				"element": "N" 
			},
			{
				"x": 1.1540354522,
				"y": -1.157137788,
				"z": 0.306828517,
				"element": "C" 
			},
			{
				"x": 1.5047997352,
				"y": 0.050206224,
				"z": 0.8377746897,
				"element": "C" 
			},
			{
				"x": 1.1129712194,
				"y": 1.1740005052,
				"z": 0.0682981436,
				"element": "C" 
			},
			{
				"x": 0.4264354717,
				"y": 1.102604818,
				"z": -1.1346585528,
				"element": "C" 
			},
			{
				"x": 0.2335239865,
				"y": 2.4560864528,
				"z": -1.5698073305,
				"element": "C" 
			},
			{
				"x": 0.8072539993,
				"y": 3.2332061744,
				"z": -0.6161621022,
				"element": "C" 
			},
			{
				"x": 1.3516482336,
				"y": 2.4688141877,
				"z": 0.3960264075,
				"element": "O" 
			},
			{
				"x": 0.2285331167,
				"y": -2.1589302662,
				"z": -1.2500800261,
				"element": "H" 
			},
			{
				"x": 1.3891993324,
				"y": -2.0991518936,
				"z": 0.7880253748,
				"element": "H" 
			},
			{
				"x": 2.0399614079,
				"y": 0.1355958946,
				"z": 1.7733998796,
				"element": "H" 
			},
			{
				"x": -0.2646351277,
				"y": 2.7847323337,
				"z": -2.4693942326,
				"element": "H" 
			},
			{
				"x": 0.9189764139,
				"y": 4.2991519754,
				"z": -0.4955790258,
				"element": "H" 
			}
		],
		 "valence_orbital": [ 
			{
				"type": "occ",
				"energy": -0.34424,
				"method": "rhf"
			},
			{
				"type": "occ",
				"energy": -0.28777,
				"method": "rhf"
			},
			{
				"type": "occ",
				"energy": -0.27374,
				"method": "rhf"
			},
			{
				"type": "occ",
				"energy": -0.25164,
				"method": "rhf"
			},
			{
				"type": "occ",
				"energy": -0.20639,
				"method": "rhf"
			},
			{
				"type": "unocc",
				"energy": -0.02779,
				"method": "rhf"
			},
			{
				"type": "unocc",
				"energy": 0.00567,
				"method": "rhf"
			},
			{
				"type": "unocc",
				"energy": 0.04591,
				"method": "rhf"
			},
			{
				"type": "unocc",
				"energy": 0.06873,
				"method": "rhf"
			},
			{
				"type": "unocc",
				"energy": 0.11466,
				"method": "rhf"
			}
		],
		"cosmo_sigma_profile": { 
			"-0.025": 0.0,
			"-0.024": 0.0,
			"-0.023": 0.0,
			"-0.022": 0.0,
			"-0.021": 0.0,
			"-0.02": 0.0,
			"-0.019": 0.0,
			"-0.018": 0.0,
			"-0.017": 0.0,
			"-0.016": 0.567230566695,
			"-0.015": 1.52825272357,
			"-0.014": 0.987127653126,
			"-0.013": 1.46936470241,
			"-0.012": 1.26001413494,
			"-0.011": 1.27021299381,
			"-0.01": 2.11023875675,
			"-0.009": 5.28860116073,
			"-0.008": 5.99384504455,
			"-0.007": 7.79087488958,
			"-0.006": 6.35707265531,
			"-0.005": 6.96340118277,
			"-0.004": 5.36295418913,
			"-0.003": 5.73409908687,
			"-0.002": 6.29151605662,
			"-0.001": 7.15313869104,
			"0.0": 13.5783873971,
			"0.001": 17.7336274303,
			"0.002": 14.4880204644,
			"0.003": 12.2351464199,
			"0.004": 6.36346216285,
			"0.005": 3.1236240936,
			"0.006": 2.87015989522,
			"0.007": 2.530812339,
			"0.008": 2.21103099899,
			"0.009": 1.07189349416,
			"0.01": 1.26087657259,
			"0.011": 1.85654947334,
			"0.012": 1.47675276167,
			"0.013": 2.62727882343,
			"0.014": 6.77561486578,
			"0.015": 1.9199436648,
			"0.016": 0.0,
			"0.017": 0.0,
			"0.018": 0.0,
			"0.019": 0.0,
			"0.02": 0.0,
			"0.021": 0.0,
			"0.022": 0.0,
			"0.023": 0.0,
			"0.024": 0.0,
			"0.025": 0.0
		}
	}
}
