{
	 "smiles": "NC1=NC=NC2=C1C=NN2CCO", 
	 "Tm": 491.15, 
	 "num_atms": 22, 
	 "gaussian": { 
		 "optdone": 1, 
		 "sigma_profile": "yes", 
		 "theory": "DFT", 
		 "functional": "B3LYP", 
		 "basiset": "6-31G**", 
		 "properties": { 
			 "R2extent": 3154.6857, 
			 "electric_dipole_moment_norm": 3.70413607066, 
			 "electric_quadrupole_moment_norm": 14.8756398024, 
			 "total_energy": -621.143655883, 
			 "HOMO_LUMO_gap": 0.19223, 
			 "cosmo_polarized_energy": -15.85, 
			 "cosmo_cavitation_energy": 25.85, 
			 "cosmo_dispersion_energy": -19.63, 
			 "cosmo_repulsion_energy": 1.56, 
			 "cosmo_total_nonelectrostatic_energy": 7.79, 
			 "SMD_solvation_energy": 0.96 
		},
		"coords": [
			{
				"x": -0.4417779074,
				"y": -1.6439239484,
				"z": 3.3707142133,
				"element": "N" 
			},
			{
				"x": -0.6396713021,
				"y": -2.0349479779,
				"z": 2.083743087,
				"element": "C" 
			},
			{
				"x": -1.0150901819,
				"y": -3.3046423156,
				"z": 1.8774463891,
				"element": "N" 
			},
			{
				"x": -1.1878474395,
				"y": -3.7190032836,
				"z": 0.6070191355,
				"element": "C" 
			},
			{
				"x": -1.0463141338,
				"y": -3.0292020118,
				"z": -0.5211757701,
				"element": "N" 
			},
			{
				"x": -0.6711132534,
				"y": -1.7590833079,
				"z": -0.2878568055,
				"element": "C" 
			},
			{
				"x": -0.4386123092,
				"y": -1.1732902938,
				"z": 0.975086159,
				"element": "C" 
			},
			{
				"x": -0.0581166831,
				"y": 0.1648057127,
				"z": 0.6847434461,
				"element": "C" 
			},
			{
				"x": -0.0636367822,
				"y": 0.3811333334,
				"z": -0.6217513516,
				"element": "N" 
			},
			{
				"x": -0.4362165677,
				"y": -0.7925306354,
				"z": -1.2159279347,
				"element": "N" 
			},
			{
				"x": -0.5357594335,
				"y": -0.8965938069,
				"z": -2.6680812129,
				"element": "C" 
			},
			{
				"x": 0.7073225802,
				"y": -0.3359686872,
				"z": -3.3661912336,
				"element": "C" 
			},
			{
				"x": 0.806343313,
				"y": 1.0675823377,
				"z": -3.2616700876,
				"element": "O" 
			},
			{
				"x": -0.7368770121,
				"y": -2.2875409699,
				"z": 4.0894126566,
				"element": "H" 
			},
			{
				"x": -0.3738655914,
				"y": -0.6674965929,
				"z": 3.6047813255,
				"element": "H" 
			},
			{
				"x": -1.4885354862,
				"y": -4.7593092351,
				"z": 0.4978641131,
				"element": "H" 
			},
			{
				"x": 0.2197332979,
				"y": 0.9678478794,
				"z": 1.3546111124,
				"element": "H" 
			},
			{
				"x": -0.672909435,
				"y": -1.958908802,
				"z": -2.8858421598,
				"element": "H" 
			},
			{
				"x": -1.421385902,
				"y": -0.3487714744,
				"z": -3.0095265394,
				"element": "H" 
			},
			{
				"x": 0.6380411992,
				"y": -0.5738971037,
				"z": -4.4334260293,
				"element": "H" 
			},
			{
				"x": 1.6000290234,
				"y": -0.8484664663,
				"z": -2.9703610427,
				"element": "H" 
			},
			{
				"x": 0.7263600067,
				"y": 1.2756076497,
				"z": -2.3152114703,
				"element": "H" 
			}
		],
		 "valence_orbital": [ 
			{
				"type": "occ",
				"energy": -0.28593,
				"method": "rhf"
			},
			{
				"type": "occ",
				"energy": -0.26917,
				"method": "rhf"
			},
			{
				"type": "occ",
				"energy": -0.26283,
				"method": "rhf"
			},
			{
				"type": "occ",
				"energy": -0.25488,
				"method": "rhf"
			},
			{
				"type": "occ",
				"energy": -0.23154,
				"method": "rhf"
			},
			{
				"type": "unocc",
				"energy": -0.03931,
				"method": "rhf"
			},
			{
				"type": "unocc",
				"energy": 0.00058,
				"method": "rhf"
			},
			{
				"type": "unocc",
				"energy": 0.03616,
				"method": "rhf"
			},
			{
				"type": "unocc",
				"energy": 0.06098,
				"method": "rhf"
			},
			{
				"type": "unocc",
				"energy": 0.11125,
				"method": "rhf"
			}
		],
		"cosmo_sigma_profile": { 
			"-0.025": 0.0,
			"-0.024": 0.0,
			"-0.023": 0.0,
			"-0.022": 0.0,
			"-0.021": 0.0,
			"-0.02": 0.0,
			"-0.019": 0.0,
			"-0.018": 0.0,
			"-0.017": 0.0,
			"-0.016": 0.0,
			"-0.015": 0.753229794957,
			"-0.014": 2.33269965705,
			"-0.013": 2.77273886383,
			"-0.012": 2.21588540905,
			"-0.011": 3.19817956999,
			"-0.01": 2.53577487081,
			"-0.009": 3.80289025772,
			"-0.008": 3.23938170041,
			"-0.007": 4.05383772596,
			"-0.006": 9.41841691392,
			"-0.005": 11.4993273961,
			"-0.004": 15.8465201989,
			"-0.003": 13.6007276626,
			"-0.002": 10.8280214869,
			"-0.001": 12.5059493372,
			"0.0": 17.3567644424,
			"0.001": 15.826573632,
			"0.002": 13.3313256848,
			"0.003": 8.93545195753,
			"0.004": 7.3042584545,
			"0.005": 6.50096098348,
			"0.006": 6.02910436892,
			"0.007": 5.26070621876,
			"0.008": 4.50190113605,
			"0.009": 3.95119226931,
			"0.01": 3.09442199361,
			"0.011": 2.36913257662,
			"0.012": 2.98795823954,
			"0.013": 3.71013935513,
			"0.014": 3.57842397385,
			"0.015": 2.27753400861,
			"0.016": 0.127864659646,
			"0.017": 0.0,
			"0.018": 0.0,
			"0.019": 0.0,
			"0.02": 0.0,
			"0.021": 0.0,
			"0.022": 0.0,
			"0.023": 0.0,
			"0.024": 0.0,
			"0.025": 0.0
		}
	}
}
