{
	 "smiles": "CCCC(=O)C1=CC=C(O)C=C1", 
	 "Tm": 364.15, 
	 "num_atms": 24, 
	 "gaussian": { 
		 "optdone": 1, 
		 "sigma_profile": "yes", 
		 "theory": "DFT", 
		 "functional": "B3LYP", 
		 "basiset": "6-31G**", 
		 "properties": { 
			 "R2extent": 3709.7907, 
			 "electric_dipole_moment_norm": 2.48181215043, 
			 "electric_quadrupole_moment_norm": 17.0043066077, 
			 "total_energy": -538.753528176, 
			 "HOMO_LUMO_gap": 0.18742, 
			 "cosmo_polarized_energy": -12.13, 
			 "cosmo_cavitation_energy": 27.4, 
			 "cosmo_dispersion_energy": -20.06, 
			 "cosmo_repulsion_energy": 1.61, 
			 "cosmo_total_nonelectrostatic_energy": 8.95, 
			 "SMD_solvation_energy": 5.4 
		},
		"coords": [
			{
				"x": 1.6337107487,
				"y": 2.3922210912,
				"z": 0.2854848269,
				"element": "C" 
			},
			{
				"x": 1.0937608617,
				"y": 1.3754964634,
				"z": 1.2971405237,
				"element": "C" 
			},
			{
				"x": 0.4382008428,
				"y": 0.1517128664,
				"z": 0.6468279384,
				"element": "C" 
			},
			{
				"x": -0.9198291182,
				"y": 0.4415026408,
				"z": 0.0084812781,
				"element": "C" 
			},
			{
				"x": -1.4494040854,
				"y": 1.5389884832,
				"z": 0.1321047917,
				"element": "O" 
			},
			{
				"x": -1.6038635946,
				"y": -0.6473710809,
				"z": -0.7528663464,
				"element": "C" 
			},
			{
				"x": -1.0705734068,
				"y": -1.9386954606,
				"z": -0.9104168363,
				"element": "C" 
			},
			{
				"x": -1.7532388461,
				"y": -2.9156918609,
				"z": -1.6247061317,
				"element": "C" 
			},
			{
				"x": -2.9937464249,
				"y": -2.6138114038,
				"z": -2.2011043826,
				"element": "C" 
			},
			{
				"x": -3.6206661892,
				"y": -3.6044675847,
				"z": -2.8916946708,
				"element": "O" 
			},
			{
				"x": -3.5413549116,
				"y": -1.331060025,
				"z": -2.0540406838,
				"element": "C" 
			},
			{
				"x": -2.8497771962,
				"y": -0.3649922046,
				"z": -1.3363330472,
				"element": "C" 
			},
			{
				"x": 2.3828796628,
				"y": 1.9369394489,
				"z": -0.3735901166,
				"element": "H" 
			},
			{
				"x": 0.826319371,
				"y": 2.7879950611,
				"z": -0.3357459917,
				"element": "H" 
			},
			{
				"x": 2.1108367561,
				"y": 3.2359314722,
				"z": 0.794797646,
				"element": "H" 
			},
			{
				"x": 1.9115031182,
				"y": 1.0280666881,
				"z": 1.9402300906,
				"element": "H" 
			},
			{
				"x": 0.3598964885,
				"y": 1.8626348909,
				"z": 1.9474615792,
				"element": "H" 
			},
			{
				"x": 0.2849790998,
				"y": -0.6417453501,
				"z": 1.3923871445,
				"element": "H" 
			},
			{
				"x": 1.1041403004,
				"y": -0.2830251854,
				"z": -0.1110194707,
				"element": "H" 
			},
			{
				"x": -0.1117732832,
				"y": -2.1927042208,
				"z": -0.4706917939,
				"element": "H" 
			},
			{
				"x": -1.3472510571,
				"y": -3.9139373417,
				"z": -1.748881133,
				"element": "H" 
			},
			{
				"x": -4.4605201963,
				"y": -3.2727259632,
				"z": -3.2360197225,
				"element": "H" 
			},
			{
				"x": -4.5053180638,
				"y": -1.0977365159,
				"z": -2.501967405,
				"element": "H" 
			},
			{
				"x": -3.2574108766,
				"y": 0.6323750913,
				"z": -1.2096380869,
				"element": "H" 
			}
		],
		 "valence_orbital": [ 
			{
				"type": "occ",
				"energy": -0.32923,
				"method": "rhf"
			},
			{
				"type": "occ",
				"energy": -0.32557,
				"method": "rhf"
			},
			{
				"type": "occ",
				"energy": -0.26331,
				"method": "rhf"
			},
			{
				"type": "occ",
				"energy": -0.24203,
				"method": "rhf"
			},
			{
				"type": "occ",
				"energy": -0.23267,
				"method": "rhf"
			},
			{
				"type": "unocc",
				"energy": -0.04525,
				"method": "rhf"
			},
			{
				"type": "unocc",
				"energy": -0.01131,
				"method": "rhf"
			},
			{
				"type": "unocc",
				"energy": 0.05014,
				"method": "rhf"
			},
			{
				"type": "unocc",
				"energy": 0.06098,
				"method": "rhf"
			},
			{
				"type": "unocc",
				"energy": 0.09065,
				"method": "rhf"
			}
		],
		"cosmo_sigma_profile": { 
			"-0.025": 0.0,
			"-0.024": 0.0,
			"-0.023": 0.0,
			"-0.022": 0.0,
			"-0.021": 0.0,
			"-0.02": 0.0,
			"-0.019": 0.0529666427008,
			"-0.018": 1.04868973038,
			"-0.017": 1.03164039608,
			"-0.016": 1.12905649605,
			"-0.015": 1.30104021725,
			"-0.014": 1.09041147,
			"-0.013": 0.853610290611,
			"-0.012": 0.599617709054,
			"-0.011": 0.848297073461,
			"-0.01": 1.40023333915,
			"-0.009": 0.981591043506,
			"-0.008": 1.43799913963,
			"-0.007": 3.17669473877,
			"-0.006": 7.08380718816,
			"-0.005": 12.3147152412,
			"-0.004": 11.6540766197,
			"-0.003": 14.3324841771,
			"-0.002": 18.563355479,
			"-0.001": 19.0869968166,
			"0.0": 20.5873876092,
			"0.001": 19.4554276325,
			"0.002": 16.9093957215,
			"0.003": 15.2188984159,
			"0.004": 15.4301847293,
			"0.005": 4.87696398773,
			"0.006": 3.76576215715,
			"0.007": 3.40294276718,
			"0.008": 3.00634478612,
			"0.009": 3.10704208258,
			"0.01": 3.54845018433,
			"0.011": 3.70874262587,
			"0.012": 2.93025158345,
			"0.013": 2.14825850938,
			"0.014": 0.0151159204023,
			"0.015": 0.0,
			"0.016": 0.0,
			"0.017": 0.0,
			"0.018": 0.0,
			"0.019": 0.0,
			"0.02": 0.0,
			"0.021": 0.0,
			"0.022": 0.0,
			"0.023": 0.0,
			"0.024": 0.0,
			"0.025": 0.0
		}
	}
}
