{
	 "smiles": "O=CC1=CC=C2N=CC=CC2=C1", 
	 "Tm": 347.65, 
	 "num_atms": 19, 
	 "gaussian": { 
		 "optdone": 1, 
		 "sigma_profile": "yes", 
		 "theory": "DFT", 
		 "functional": "B3LYP", 
		 "basiset": "6-31G**", 
		 "properties": { 
			 "R2extent": 2503.5125, 
			 "electric_dipole_moment_norm": 1.98877102503, 
			 "electric_quadrupole_moment_norm": 14.9535080239, 
			 "total_energy": -515.254271547, 
			 "HOMO_LUMO_gap": 0.16463, 
			 "cosmo_polarized_energy": -9.92, 
			 "cosmo_cavitation_energy": 23.77, 
			 "cosmo_dispersion_energy": -17.59, 
			 "cosmo_repulsion_energy": 1.36, 
			 "cosmo_total_nonelectrostatic_energy": 7.54, 
			 "SMD_solvation_energy": 3.53 
		},
		"coords": [
			{
				"x": 2.2264496182,
				"y": -1.5956635175,
				"z": 3.353774316,
				"element": "O" 
			},
			{
				"x": 1.0133743109,
				"y": -1.6633253095,
				"z": 3.2929781287,
				"element": "C" 
			},
			{
				"x": 0.2180732602,
				"y": -1.4382439624,
				"z": 2.0631076633,
				"element": "C" 
			},
			{
				"x": -1.198570624,
				"y": -1.5433040497,
				"z": 2.1072408306,
				"element": "C" 
			},
			{
				"x": -1.9522887943,
				"y": -1.3378594647,
				"z": 0.9762612767,
				"element": "C" 
			},
			{
				"x": -1.3232041497,
				"y": -1.0164480216,
				"z": -0.2570914074,
				"element": "C" 
			},
			{
				"x": -2.1098941584,
				"y": -0.820716346,
				"z": -1.3551291209,
				"element": "N" 
			},
			{
				"x": -1.511599481,
				"y": -0.5234001011,
				"z": -2.4913145929,
				"element": "C" 
			},
			{
				"x": -0.1067380526,
				"y": -0.3934096887,
				"z": -2.648988234,
				"element": "C" 
			},
			{
				"x": 0.7001434966,
				"y": -0.5869386274,
				"z": -1.5546574043,
				"element": "C" 
			},
			{
				"x": 0.1067978726,
				"y": -0.9096388467,
				"z": -0.3049163085,
				"element": "C" 
			},
			{
				"x": 0.854959664,
				"y": -1.12628679,
				"z": 0.8739389759,
				"element": "C" 
			},
			{
				"x": 0.4104091886,
				"y": -1.9082054511,
				"z": 4.1957338757,
				"element": "H" 
			},
			{
				"x": -1.6798527393,
				"y": -1.7892489711,
				"z": 3.0509774387,
				"element": "H" 
			},
			{
				"x": -3.0345698418,
				"y": -1.4122075051,
				"z": 0.9838091548,
				"element": "H" 
			},
			{
				"x": -2.1614752899,
				"y": -0.3720624768,
				"z": -3.3527351205,
				"element": "H" 
			},
			{
				"x": 0.3063116446,
				"y": -0.1455712365,
				"z": -3.6214460268,
				"element": "H" 
			},
			{
				"x": 1.7810934427,
				"y": -0.4983302714,
				"z": -1.6255908756,
				"element": "H" 
			},
			{
				"x": 1.9389806327,
				"y": -1.0511393626,
				"z": 0.8633474305,
				"element": "H" 
			}
		],
		 "valence_orbital": [ 
			{
				"type": "occ",
				"energy": -0.31854,
				"method": "rhf"
			},
			{
				"type": "occ",
				"energy": -0.26531,
				"method": "rhf"
			},
			{
				"type": "occ",
				"energy": -0.26522,
				"method": "rhf"
			},
			{
				"type": "occ",
				"energy": -0.25888,
				"method": "rhf"
			},
			{
				"type": "occ",
				"energy": -0.2456,
				"method": "rhf"
			},
			{
				"type": "unocc",
				"energy": -0.08097,
				"method": "rhf"
			},
			{
				"type": "unocc",
				"energy": -0.04837,
				"method": "rhf"
			},
			{
				"type": "unocc",
				"energy": -0.00421,
				"method": "rhf"
			},
			{
				"type": "unocc",
				"energy": 0.02472,
				"method": "rhf"
			},
			{
				"type": "unocc",
				"energy": 0.09272,
				"method": "rhf"
			}
		],
		"cosmo_sigma_profile": { 
			"-0.025": 0.0,
			"-0.024": 0.0,
			"-0.023": 0.0,
			"-0.022": 0.0,
			"-0.021": 0.0,
			"-0.02": 0.0,
			"-0.019": 0.0,
			"-0.018": 0.0,
			"-0.017": 0.0,
			"-0.016": 0.0,
			"-0.015": 0.0,
			"-0.014": 0.0,
			"-0.013": 0.0,
			"-0.012": 0.0,
			"-0.011": 0.0,
			"-0.01": 0.0,
			"-0.009": 0.00507176840217,
			"-0.008": 4.60250377281,
			"-0.007": 12.860696533,
			"-0.006": 14.8098727189,
			"-0.005": 13.7846565684,
			"-0.004": 11.5868888326,
			"-0.003": 10.099323455,
			"-0.002": 9.06290609,
			"-0.001": 11.2411492974,
			"0.0": 16.8310065884,
			"0.001": 25.1854936236,
			"0.002": 18.0917941743,
			"0.003": 9.01573950416,
			"0.004": 4.33961794751,
			"0.005": 3.22090917895,
			"0.006": 2.03170118901,
			"0.007": 3.56933741299,
			"0.008": 2.97590190862,
			"0.009": 2.69526298473,
			"0.01": 4.04059037792,
			"0.011": 5.56137762867,
			"0.012": 2.91545638383,
			"0.013": 1.27771540422,
			"0.014": 0.980501941204,
			"0.015": 0.767278015603,
			"0.016": 0.305979749807,
			"0.017": 0.0,
			"0.018": 0.0,
			"0.019": 0.0,
			"0.02": 0.0,
			"0.021": 0.0,
			"0.022": 0.0,
			"0.023": 0.0,
			"0.024": 0.0,
			"0.025": 0.0
		}
	}
}
