{
	 "smiles": "CC1=NN(C2=C1C=C(S2)C(=O)NN)C1=CC=CC=C1", 
	 "Tm": 538.15, 
	 "num_atms": 31, 
	 "gaussian": { 
		 "optdone": 1, 
		 "sigma_profile": "yes", 
		 "theory": "DFT", 
		 "functional": "B3LYP", 
		 "basiset": "6-31G**", 
		 "properties": { 
			 "R2extent": 7157.0719, 
			 "electric_dipole_moment_norm": 2.03421211038, 
			 "electric_quadrupole_moment_norm": 10.0013954241, 
			 "total_energy": -1194.98830257, 
			 "HOMO_LUMO_gap": 0.16839, 
			 "cosmo_polarized_energy": -14.53, 
			 "cosmo_cavitation_energy": 37.18, 
			 "cosmo_dispersion_energy": -27.58, 
			 "cosmo_repulsion_energy": 2.08, 
			 "cosmo_total_nonelectrostatic_energy": 11.67, 
			 "SMD_solvation_energy": 6.3 
		},
		"coords": [
			{
				"x": 1.5785059526,
				"y": 3.8771088007,
				"z": -0.295162774,
				"element": "C" 
			},
			{
				"x": 1.0211069511,
				"y": 2.4979560478,
				"z": -0.1375457878,
				"element": "C" 
			},
			{
				"x": 0.0988599887,
				"y": 2.0421953762,
				"z": -0.973292507,
				"element": "N" 
			},
			{
				"x": -0.2114265091,
				"y": 0.7568472007,
				"z": -0.5787756671,
				"element": "N" 
			},
			{
				"x": 0.5309125199,
				"y": 0.4197517641,
				"z": 0.5113018512,
				"element": "C" 
			},
			{
				"x": 1.3418824275,
				"y": 1.5067561564,
				"z": 0.8406299072,
				"element": "C" 
			},
			{
				"x": 2.1345901881,
				"y": 1.2610616005,
				"z": 1.9983247329,
				"element": "C" 
			},
			{
				"x": 1.9202396266,
				"y": 0.0153354418,
				"z": 2.524857855,
				"element": "C" 
			},
			{
				"x": 0.6878248257,
				"y": -0.9105097929,
				"z": 1.6191187369,
				"element": "S" 
			},
			{
				"x": 2.6156297117,
				"y": -0.5190856051,
				"z": 3.7160677809,
				"element": "C" 
			},
			{
				"x": 3.2752639616,
				"y": 0.2020673362,
				"z": 4.4599780992,
				"element": "O" 
			},
			{
				"x": 2.4805273044,
				"y": -1.8720102863,
				"z": 3.9471962433,
				"element": "N" 
			},
			{
				"x": 3.2361893671,
				"y": -2.4813049899,
				"z": 4.9741157063,
				"element": "N" 
			},
			{
				"x": -1.1896562915,
				"y": 0.0150286213,
				"z": -1.2846854698,
				"element": "C" 
			},
			{
				"x": -1.2688188062,
				"y": -1.3747163416,
				"z": -1.1378098009,
				"element": "C" 
			},
			{
				"x": -2.2515832643,
				"y": -2.0855117974,
				"z": -1.8269761492,
				"element": "C" 
			},
			{
				"x": -3.1454642722,
				"y": -1.4247284901,
				"z": -2.669343014,
				"element": "C" 
			},
			{
				"x": -3.04846843,
				"y": -0.0389949402,
				"z": -2.8208074365,
				"element": "C" 
			},
			{
				"x": -2.0795221533,
				"y": 0.6865952313,
				"z": -2.1330461955,
				"element": "C" 
			},
			{
				"x": 1.1094708804,
				"y": 4.371664066,
				"z": -1.147976186,
				"element": "H" 
			},
			{
				"x": 1.3988376286,
				"y": 4.480777468,
				"z": 0.6013881127,
				"element": "H" 
			},
			{
				"x": 2.6614248892,
				"y": 3.8501064937,
				"z": -0.4593662983,
				"element": "H" 
			},
			{
				"x": 2.8419279426,
				"y": 1.9453612495,
				"z": 2.4502908181,
				"element": "H" 
			},
			{
				"x": 2.3073751889,
				"y": -2.4848297801,
				"z": 3.1611574579,
				"element": "H" 
			},
			{
				"x": 2.7076465148,
				"y": -2.3758470613,
				"z": 5.8394237499,
				"element": "H" 
			},
			{
				"x": 4.072985319,
				"y": -1.90834729,
				"z": 5.097687936,
				"element": "H" 
			},
			{
				"x": -0.5580602512,
				"y": -1.9078883684,
				"z": -0.5162313709,
				"element": "H" 
			},
			{
				"x": -2.3071143932,
				"y": -3.1634288242,
				"z": -1.7079458902,
				"element": "H" 
			},
			{
				"x": -3.9072495228,
				"y": -1.9827900696,
				"z": -3.2047814637,
				"element": "H" 
			},
			{
				"x": -3.7368512125,
				"y": 0.4860968128,
				"z": -3.4764877802,
				"element": "H" 
			},
			{
				"x": -1.994286082,
				"y": 1.7604839702,
				"z": -2.239805196,
				"element": "H" 
			}
		],
		 "valence_orbital": [ 
			{
				"type": "occ",
				"energy": -0.26432,
				"method": "rhf"
			},
			{
				"type": "occ",
				"energy": -0.26154,
				"method": "rhf"
			},
			{
				"type": "occ",
				"energy": -0.25689,
				"method": "rhf"
			},
			{
				"type": "occ",
				"energy": -0.24274,
				"method": "rhf"
			},
			{
				"type": "occ",
				"energy": -0.21651,
				"method": "rhf"
			},
			{
				"type": "unocc",
				"energy": -0.04812,
				"method": "rhf"
			},
			{
				"type": "unocc",
				"energy": -0.02661,
				"method": "rhf"
			},
			{
				"type": "unocc",
				"energy": -0.01351,
				"method": "rhf"
			},
			{
				"type": "unocc",
				"energy": 0.00393,
				"method": "rhf"
			},
			{
				"type": "unocc",
				"energy": 0.03221,
				"method": "rhf"
			}
		],
		"cosmo_sigma_profile": { 
			"-0.025": 0.0,
			"-0.024": 0.0,
			"-0.023": 0.0,
			"-0.022": 0.0,
			"-0.021": 0.0,
			"-0.02": 0.0,
			"-0.019": 0.0,
			"-0.018": 0.0,
			"-0.017": 0.0,
			"-0.016": 0.0,
			"-0.015": 0.0,
			"-0.014": 0.500233801102,
			"-0.013": 0.860583060646,
			"-0.012": 1.91416911437,
			"-0.011": 2.53283584549,
			"-0.01": 2.98606057155,
			"-0.009": 3.58276381666,
			"-0.008": 3.87735971774,
			"-0.007": 4.7470205415,
			"-0.006": 12.362916813,
			"-0.005": 20.9753560434,
			"-0.004": 23.1336328213,
			"-0.003": 21.5374580952,
			"-0.002": 19.6061472419,
			"-0.001": 22.9762700607,
			"0.0": 24.8908670932,
			"0.001": 25.7603886882,
			"0.002": 26.123490239,
			"0.003": 20.4216883398,
			"0.004": 17.3158193668,
			"0.005": 10.9257042413,
			"0.006": 4.08381832731,
			"0.007": 4.24181078629,
			"0.008": 2.35806518116,
			"0.009": 3.42235441445,
			"0.01": 3.30751232271,
			"0.011": 3.42827384286,
			"0.012": 4.15049978693,
			"0.013": 5.10071538798,
			"0.014": 1.16676272016,
			"0.015": 0.700983900194,
			"0.016": 0.458104735705,
			"0.017": 0.201171771512,
			"0.018": 0.0,
			"0.019": 0.0,
			"0.02": 0.0,
			"0.021": 0.0,
			"0.022": 0.0,
			"0.023": 0.0,
			"0.024": 0.0,
			"0.025": 0.0
		}
	}
}
