{
	 "smiles": "CC(C)C(=O)NC1=CC(O)=CC=C1", 
	 "Tm": 453.15, 
	 "num_atms": 26, 
	 "gaussian": { 
		 "optdone": 1, 
		 "sigma_profile": "yes", 
		 "theory": "DFT", 
		 "functional": "B3LYP", 
		 "basiset": "6-31G**", 
		 "properties": { 
			 "R2extent": 3151.8826, 
			 "electric_dipole_moment_norm": 4.41236298824, 
			 "electric_quadrupole_moment_norm": 5.57127265443, 
			 "total_energy": -594.117626368, 
			 "HOMO_LUMO_gap": 0.20752, 
			 "cosmo_polarized_energy": -14.7, 
			 "cosmo_cavitation_energy": 29.27, 
			 "cosmo_dispersion_energy": -20.8, 
			 "cosmo_repulsion_energy": 1.67, 
			 "cosmo_total_nonelectrostatic_energy": 10.15, 
			 "SMD_solvation_energy": 6.04 
		},
		"coords": [
			{
				"x": 3.4060134862,
				"y": -2.1157547237,
				"z": -1.4898222506,
				"element": "C" 
			},
			{
				"x": 2.3587649079,
				"y": -0.9973285639,
				"z": -1.6330699602,
				"element": "C" 
			},
			{
				"x": 2.4995957772,
				"y": -0.2819995469,
				"z": -2.9890754264,
				"element": "C" 
			},
			{
				"x": 2.5707374915,
				"y": 0.0128208707,
				"z": -0.5048034116,
				"element": "C" 
			},
			{
				"x": 3.6683947765,
				"y": 0.517102574,
				"z": -0.3019543966,
				"element": "O" 
			},
			{
				"x": 1.5200705696,
				"y": 0.3377256032,
				"z": 0.3384721836,
				"element": "N" 
			},
			{
				"x": 0.1531273323,
				"y": -0.0244453149,
				"z": 0.3493596455,
				"element": "C" 
			},
			{
				"x": -0.6188935082,
				"y": -0.0349897211,
				"z": -0.8166778537,
				"element": "C" 
			},
			{
				"x": -1.9724783667,
				"y": -0.3814928212,
				"z": -0.7523424185,
				"element": "C" 
			},
			{
				"x": -2.6613297088,
				"y": -0.3856292907,
				"z": -1.9312489887,
				"element": "O" 
			},
			{
				"x": -2.5731404548,
				"y": -0.6791967515,
				"z": 0.4749119472,
				"element": "C" 
			},
			{
				"x": -1.8019428024,
				"y": -0.6323658067,
				"z": 1.63697757,
				"element": "C" 
			},
			{
				"x": -0.4475705504,
				"y": -0.3167518102,
				"z": 1.5855837083,
				"element": "C" 
			},
			{
				"x": 4.4135199134,
				"y": -1.6929147476,
				"z": -1.5076826311,
				"element": "H" 
			},
			{
				"x": 3.2830835525,
				"y": -2.6604534598,
				"z": -0.5480412821,
				"element": "H" 
			},
			{
				"x": 3.307815551,
				"y": -2.832964136,
				"z": -2.3110193746,
				"element": "H" 
			},
			{
				"x": 1.361588154,
				"y": -1.4390247329,
				"z": -1.5598676818,
				"element": "H" 
			},
			{
				"x": 1.7373993845,
				"y": 0.49266225,
				"z": -3.127124275,
				"element": "H" 
			},
			{
				"x": 2.4036890919,
				"y": -0.998855679,
				"z": -3.8106108394,
				"element": "H" 
			},
			{
				"x": 3.4802695969,
				"y": 0.1978582272,
				"z": -3.0566478052,
				"element": "H" 
			},
			{
				"x": 1.8408862087,
				"y": 0.8982756629,
				"z": 1.1193941605,
				"element": "H" 
			},
			{
				"x": -0.2003875258,
				"y": 0.2484703415,
				"z": -1.7744242003,
				"element": "H" 
			},
			{
				"x": -3.5861269267,
				"y": -0.6034688092,
				"z": -1.7572671886,
				"element": "H" 
			},
			{
				"x": -3.6283563505,
				"y": -0.9376673703,
				"z": 0.5211145196,
				"element": "H" 
			},
			{
				"x": -2.2638704322,
				"y": -0.8589324812,
				"z": 2.5933792558,
				"element": "H" 
			},
			{
				"x": 0.1534408323,
				"y": -0.3084797628,
				"z": 2.4895869938,
				"element": "H" 
			}
		],
		 "valence_orbital": [ 
			{
				"type": "occ",
				"energy": -0.33254,
				"method": "rhf"
			},
			{
				"type": "occ",
				"energy": -0.28954,
				"method": "rhf"
			},
			{
				"type": "occ",
				"energy": -0.24692,
				"method": "rhf"
			},
			{
				"type": "occ",
				"energy": -0.23856,
				"method": "rhf"
			},
			{
				"type": "occ",
				"energy": -0.22292,
				"method": "rhf"
			},
			{
				"type": "unocc",
				"energy": -0.0154,
				"method": "rhf"
			},
			{
				"type": "unocc",
				"energy": -0.00053,
				"method": "rhf"
			},
			{
				"type": "unocc",
				"energy": 0.03591,
				"method": "rhf"
			},
			{
				"type": "unocc",
				"energy": 0.06346,
				"method": "rhf"
			},
			{
				"type": "unocc",
				"energy": 0.08371,
				"method": "rhf"
			}
		],
		"cosmo_sigma_profile": { 
			"-0.025": 0.0,
			"-0.024": 0.0,
			"-0.023": 0.0,
			"-0.022": 0.0,
			"-0.021": 0.0,
			"-0.02": 0.0,
			"-0.019": 0.0303455774981,
			"-0.018": 0.636112469575,
			"-0.017": 0.937534542511,
			"-0.016": 1.01145434806,
			"-0.015": 0.8602553236,
			"-0.014": 1.69027752893,
			"-0.013": 1.77883991405,
			"-0.012": 1.28202051585,
			"-0.011": 2.03753310549,
			"-0.01": 2.24456982184,
			"-0.009": 2.82587377709,
			"-0.008": 2.31174199276,
			"-0.007": 3.73529424998,
			"-0.006": 8.46226824056,
			"-0.005": 8.56348606033,
			"-0.004": 12.318114729,
			"-0.003": 20.2908241096,
			"-0.002": 20.8435836049,
			"-0.001": 20.0152153888,
			"0.0": 20.697088055,
			"0.001": 19.6305947313,
			"0.002": 11.1579228845,
			"0.003": 12.5038540477,
			"0.004": 12.3573093098,
			"0.005": 11.4310922869,
			"0.006": 5.06633655926,
			"0.007": 2.91024886369,
			"0.008": 3.03465721127,
			"0.009": 2.95607151807,
			"0.01": 2.69827066928,
			"0.011": 3.15983759646,
			"0.012": 2.68703378973,
			"0.013": 3.85055882354,
			"0.014": 4.1821764627,
			"0.015": 0.327764476318,
			"0.016": 0.0,
			"0.017": 0.0,
			"0.018": 0.0,
			"0.019": 0.0,
			"0.02": 0.0,
			"0.021": 0.0,
			"0.022": 0.0,
			"0.023": 0.0,
			"0.024": 0.0,
			"0.025": 0.0
		}
	}
}
