{
	 "smiles": "CCOC(CN=CC1=CC(C=NCC(OCC)OCC)=CC=C1)OCC", 
	 "Tm": 334.15, 
	 "num_atms": 58, 
	 "gaussian": { 
		 "optdone": 1, 
		 "sigma_profile": "yes", 
		 "theory": "DFT", 
		 "functional": "B3LYP", 
		 "basiset": "6-31G**", 
		 "properties": { 
			 "R2extent": 14978.5241, 
			 "electric_dipole_moment_norm": 1.10056607253, 
			 "electric_quadrupole_moment_norm": 15.245200594, 
			 "total_energy": -1191.77188828, 
			 "HOMO_LUMO_gap": 0.18828, 
			 "cosmo_polarized_energy": -17.74, 
			 "cosmo_cavitation_energy": 61.49, 
			 "cosmo_dispersion_energy": -38.58, 
			 "cosmo_repulsion_energy": 3.13, 
			 "cosmo_total_nonelectrostatic_energy": 26.04, 
			 "SMD_solvation_energy": 7.33 
		},
		"coords": [
			{
				"x": 2.5815545917,
				"y": -4.7918488745,
				"z": -2.2769902358,
				"element": "C" 
			},
			{
				"x": 1.5766247091,
				"y": -4.123732814,
				"z": -3.1997219319,
				"element": "C" 
			},
			{
				"x": 1.8153376321,
				"y": -2.716853402,
				"z": -3.1727084187,
				"element": "O" 
			},
			{
				"x": 0.9509422557,
				"y": -1.9702962565,
				"z": -3.992612987,
				"element": "C" 
			},
			{
				"x": 1.5619017787,
				"y": -0.560421208,
				"z": -4.1324483825,
				"element": "C" 
			},
			{
				"x": 1.8015601404,
				"y": 0.0947903259,
				"z": -2.8636675237,
				"element": "N" 
			},
			{
				"x": 3.0102295899,
				"y": 0.2298050818,
				"z": -2.4848588543,
				"element": "C" 
			},
			{
				"x": 3.3876621747,
				"y": 0.8597517364,
				"z": -1.2064131645,
				"element": "C" 
			},
			{
				"x": 2.4237025704,
				"y": 1.3651008791,
				"z": -0.3261393751,
				"element": "C" 
			},
			{
				"x": 2.8052555994,
				"y": 1.9595144616,
				"z": 0.8824066039,
				"element": "C" 
			},
			{
				"x": 1.8052685854,
				"y": 2.4995442334,
				"z": 1.8227054492,
				"element": "C" 
			},
			{
				"x": 0.55238576,
				"y": 2.4610890217,
				"z": 1.5970584008,
				"element": "N" 
			},
			{
				"x": -0.3357182576,
				"y": 3.0040673688,
				"z": 2.6032561261,
				"element": "C" 
			},
			{
				"x": -1.2131517412,
				"y": 1.8990293691,
				"z": 3.2054169158,
				"element": "C" 
			},
			{
				"x": -2.2184050331,
				"y": 2.4731418346,
				"z": 4.0309942564,
				"element": "O" 
			},
			{
				"x": -3.4674292669,
				"y": 2.7275138281,
				"z": 3.3898478139,
				"element": "C" 
			},
			{
				"x": -4.4044899561,
				"y": 1.5230483646,
				"z": 3.4321740293,
				"element": "C" 
			},
			{
				"x": -0.3829241131,
				"y": 1.0979652749,
				"z": 3.9838852891,
				"element": "O" 
			},
			{
				"x": -0.9876079984,
				"y": -0.0989919281,
				"z": 4.470185403,
				"element": "C" 
			},
			{
				"x": 0.0588946827,
				"y": -0.8670068576,
				"z": 5.2592970421,
				"element": "C" 
			},
			{
				"x": 4.1696315581,
				"y": 2.0457319512,
				"z": 1.2062906558,
				"element": "C" 
			},
			{
				"x": 5.1364909303,
				"y": 1.5454511234,
				"z": 0.3357206042,
				"element": "C" 
			},
			{
				"x": 4.7476151696,
				"y": 0.9559246748,
				"z": -0.8658319009,
				"element": "C" 
			},
			{
				"x": -0.3929080072,
				"y": -2.0157489233,
				"z": -3.579744444,
				"element": "O" 
			},
			{
				"x": -0.6988264422,
				"y": -1.5472805325,
				"z": -2.2569414972,
				"element": "C" 
			},
			{
				"x": -2.1123295016,
				"y": -2.0030805271,
				"z": -1.9331411959,
				"element": "C" 
			},
			{
				"x": 2.4653765062,
				"y": -4.4262795558,
				"z": -1.2524925023,
				"element": "H" 
			},
			{
				"x": 2.4353825489,
				"y": -5.8767200108,
				"z": -2.2764034009,
				"element": "H" 
			},
			{
				"x": 3.6047616062,
				"y": -4.5796870979,
				"z": -2.6009581464,
				"element": "H" 
			},
			{
				"x": 1.6855577882,
				"y": -4.4965983531,
				"z": -4.2315131692,
				"element": "H" 
			},
			{
				"x": 0.5476338146,
				"y": -4.3371389852,
				"z": -2.883235988,
				"element": "H" 
			},
			{
				"x": 0.9168959193,
				"y": -2.409162697,
				"z": -5.0031697576,
				"element": "H" 
			},
			{
				"x": 0.8494902207,
				"y": 0.0382318091,
				"z": -4.7120146706,
				"element": "H" 
			},
			{
				"x": 2.4836207611,
				"y": -0.6716582986,
				"z": -4.7286373529,
				"element": "H" 
			},
			{
				"x": 3.8522646513,
				"y": -0.1190599794,
				"z": -3.1056308384,
				"element": "H" 
			},
			{
				"x": 1.3724994601,
				"y": 1.2982073121,
				"z": -0.5814830965,
				"element": "H" 
			},
			{
				"x": 2.2154058127,
				"y": 2.9465535253,
				"z": 2.7431678471,
				"element": "H" 
			},
			{
				"x": 0.1840448473,
				"y": 3.5039000723,
				"z": 3.4361432447,
				"element": "H" 
			},
			{
				"x": -1.0004908611,
				"y": 3.733497,
				"z": 2.1244518342,
				"element": "H" 
			},
			{
				"x": -1.6809415774,
				"y": 1.3083294813,
				"z": 2.3977217965,
				"element": "H" 
			},
			{
				"x": -3.3118021032,
				"y": 3.0574077853,
				"z": 2.3519311017,
				"element": "H" 
			},
			{
				"x": -3.9123211588,
				"y": 3.5704515962,
				"z": 3.9290717581,
				"element": "H" 
			},
			{
				"x": -4.5822720496,
				"y": 1.2151271983,
				"z": 4.4668371523,
				"element": "H" 
			},
			{
				"x": -3.9867706506,
				"y": 0.6697552463,
				"z": 2.8883459281,
				"element": "H" 
			},
			{
				"x": -5.3687481505,
				"y": 1.7724745537,
				"z": 2.9756557191,
				"element": "H" 
			},
			{
				"x": -1.8509436727,
				"y": 0.1497821953,
				"z": 5.0999223979,
				"element": "H" 
			},
			{
				"x": -1.3530086408,
				"y": -0.6996478645,
				"z": 3.6211359175,
				"element": "H" 
			},
			{
				"x": -0.3655122477,
				"y": -1.7980620337,
				"z": 5.6482651318,
				"element": "H" 
			},
			{
				"x": 0.9163678404,
				"y": -1.1132784211,
				"z": 4.6262694209,
				"element": "H" 
			},
			{
				"x": 0.4158911838,
				"y": -0.2700468672,
				"z": 6.1035464625,
				"element": "H" 
			},
			{
				"x": 4.4678450772,
				"y": 2.5067389431,
				"z": 2.1448813996,
				"element": "H" 
			},
			{
				"x": 6.1893000826,
				"y": 1.6151744764,
				"z": 0.5926610534,
				"element": "H" 
			},
			{
				"x": 5.498132069,
				"y": 0.5638504648,
				"z": -1.5480454603,
				"element": "H" 
			},
			{
				"x": -0.6145428952,
				"y": -0.4558951345,
				"z": -2.2155475318,
				"element": "H" 
			},
			{
				"x": 0.0232917804,
				"y": -1.9567090579,
				"z": -1.5410166711,
				"element": "H" 
			},
			{
				"x": -2.4043575397,
				"y": -1.6522420259,
				"z": -0.9378601922,
				"element": "H" 
			},
			{
				"x": -2.185490095,
				"y": -3.0949731551,
				"z": -1.9511998434,
				"element": "H" 
			},
			{
				"x": -2.8240277388,
				"y": -1.6031303277,
				"z": -2.6619182217,
				"element": "H" 
			}
		],
		 "valence_orbital": [ 
			{
				"type": "occ",
				"energy": -0.25602,
				"method": "rhf"
			},
			{
				"type": "occ",
				"energy": -0.24902,
				"method": "rhf"
			},
			{
				"type": "occ",
				"energy": -0.24605,
				"method": "rhf"
			},
			{
				"type": "occ",
				"energy": -0.23738,
				"method": "rhf"
			},
			{
				"type": "occ",
				"energy": -0.23288,
				"method": "rhf"
			},
			{
				"type": "unocc",
				"energy": -0.0446,
				"method": "rhf"
			},
			{
				"type": "unocc",
				"energy": -0.03897,
				"method": "rhf"
			},
			{
				"type": "unocc",
				"energy": 0.03602,
				"method": "rhf"
			},
			{
				"type": "unocc",
				"energy": 0.07024,
				"method": "rhf"
			},
			{
				"type": "unocc",
				"energy": 0.0847,
				"method": "rhf"
			}
		],
		"cosmo_sigma_profile": { 
			"-0.025": 0.0,
			"-0.024": 0.0,
			"-0.023": 0.0,
			"-0.022": 0.0,
			"-0.021": 0.0,
			"-0.02": 0.0,
			"-0.019": 0.0,
			"-0.018": 0.0,
			"-0.017": 0.0,
			"-0.016": 0.0,
			"-0.015": 0.0,
			"-0.014": 0.0,
			"-0.013": 0.0,
			"-0.012": 0.0,
			"-0.011": 0.0,
			"-0.01": 0.0,
			"-0.009": 0.0,
			"-0.008": 0.113825684627,
			"-0.007": 5.59480169942,
			"-0.006": 12.3512067558,
			"-0.005": 25.5840328249,
			"-0.004": 42.6807088193,
			"-0.003": 57.1585080944,
			"-0.002": 60.3039793938,
			"-0.001": 54.0954153194,
			"0.0": 50.8068382204,
			"0.001": 39.9269452521,
			"0.002": 23.7886356339,
			"0.003": 24.4563664295,
			"0.004": 19.2225416397,
			"0.005": 9.89447742272,
			"0.006": 9.92712339589,
			"0.007": 10.1568858784,
			"0.008": 8.00240798088,
			"0.009": 7.95447053073,
			"0.01": 6.62656661739,
			"0.011": 4.50215977076,
			"0.012": 3.7051469431,
			"0.013": 3.14650532232,
			"0.014": 0.450877717593,
			"0.015": 0.0,
			"0.016": 0.0,
			"0.017": 0.0,
			"0.018": 0.0,
			"0.019": 0.0,
			"0.02": 0.0,
			"0.021": 0.0,
			"0.022": 0.0,
			"0.023": 0.0,
			"0.024": 0.0,
			"0.025": 0.0
		}
	}
}
