{
	 "smiles": "BrC1=CC=C2C(=O)OCC2=C1", 
	 "Tm": 437.15, 
	 "num_atms": 16, 
	 "gaussian": { 
		 "optdone": 1, 
		 "sigma_profile": "yes", 
		 "theory": "DFT", 
		 "functional": "B3LYP", 
		 "basiset": "6-31G**", 
		 "properties": { 
			 "R2extent": 5133.5051, 
			 "electric_dipole_moment_norm": 3.50028790959, 
			 "electric_quadrupole_moment_norm": 11.1152272275, 
			 "total_energy": -3029.72324255, 
			 "HOMO_LUMO_gap": 0.20175, 
			 "cosmo_polarized_energy": -11.03, 
			 "cosmo_cavitation_energy": 23.02, 
			 "cosmo_dispersion_energy": -17.72, 
			 "cosmo_repulsion_energy": 1.42, 
			 "cosmo_total_nonelectrostatic_energy": 6.72, 
			 "SMD_solvation_energy": 3.76 
		},
		"coords": [
			{
				"x": -1.692177676,
				"y": 1.44133392,
				"z": 4.7250331833,
				"element": "Br" 
			},
			{
				"x": -1.342702009,
				"y": 0.5996863449,
				"z": 3.0481700774,
				"element": "C" 
			},
			{
				"x": -2.0255052349,
				"y": 1.0548767853,
				"z": 1.910796284,
				"element": "C" 
			},
			{
				"x": -1.7846330539,
				"y": 0.4541268581,
				"z": 0.6769321394,
				"element": "C" 
			},
			{
				"x": -0.8621223259,
				"y": -0.5886434091,
				"z": 0.6248007579,
				"element": "C" 
			},
			{
				"x": -0.4191179802,
				"y": -1.3949946516,
				"z": -0.5359355485,
				"element": "C" 
			},
			{
				"x": -0.7516468768,
				"y": -1.3347509799,
				"z": -1.6919027756,
				"element": "O" 
			},
			{
				"x": 0.5078763469,
				"y": -2.3040131543,
				"z": -0.0727078496,
				"element": "O" 
			},
			{
				"x": 0.7187305677,
				"y": -2.1585758668,
				"z": 1.3420116972,
				"element": "C" 
			},
			{
				"x": -0.1911187043,
				"y": -1.0316518453,
				"z": 1.7590252799,
				"element": "C" 
			},
			{
				"x": -0.4170378011,
				"y": -0.4455198259,
				"z": 3.00045652,
				"element": "C" 
			},
			{
				"x": -2.7339757862,
				"y": 1.8697026771,
				"z": 2.0028719951,
				"element": "H" 
			},
			{
				"x": -2.2969097672,
				"y": 0.7835441224,
				"z": -0.2214235145,
				"element": "H" 
			},
			{
				"x": 1.7784172921,
				"y": -1.9401797544,
				"z": 1.5176287241,
				"element": "H" 
			},
			{
				"x": 0.4754112009,
				"y": -3.1084472358,
				"z": 1.8319205362,
				"element": "H" 
			},
			{
				"x": 0.092511808,
				"y": -0.7714939848,
				"z": 3.9004224937,
				"element": "H" 
			}
		],
		 "valence_orbital": [ 
			{
				"type": "occ",
				"energy": -0.30379,
				"method": "rhf"
			},
			{
				"type": "occ",
				"energy": -0.30317,
				"method": "rhf"
			},
			{
				"type": "occ",
				"energy": -0.28147,
				"method": "rhf"
			},
			{
				"type": "occ",
				"energy": -0.27747,
				"method": "rhf"
			},
			{
				"type": "occ",
				"energy": -0.26286,
				"method": "rhf"
			},
			{
				"type": "unocc",
				"energy": -0.06111,
				"method": "rhf"
			},
			{
				"type": "unocc",
				"energy": -0.03707,
				"method": "rhf"
			},
			{
				"type": "unocc",
				"energy": -0.00917,
				"method": "rhf"
			},
			{
				"type": "unocc",
				"energy": 0.04132,
				"method": "rhf"
			},
			{
				"type": "unocc",
				"energy": 0.09258,
				"method": "rhf"
			}
		],
		"cosmo_sigma_profile": { 
			"-0.025": 0.0,
			"-0.024": 0.0,
			"-0.023": 0.0,
			"-0.022": 0.0,
			"-0.021": 0.0,
			"-0.02": 0.0,
			"-0.019": 0.0,
			"-0.018": 0.0,
			"-0.017": 0.0,
			"-0.016": 0.0,
			"-0.015": 0.0,
			"-0.014": 0.0,
			"-0.013": 0.0,
			"-0.012": 0.0,
			"-0.011": 0.0,
			"-0.01": 0.0,
			"-0.009": 0.480517837698,
			"-0.008": 10.8850242407,
			"-0.007": 12.1460431384,
			"-0.006": 11.0540161057,
			"-0.005": 10.6701352636,
			"-0.004": 10.1556729175,
			"-0.003": 9.35080808064,
			"-0.002": 10.4592162155,
			"-0.001": 12.4683798335,
			"0.0": 14.9177264529,
			"0.001": 21.6738392524,
			"0.002": 13.8859753183,
			"0.003": 9.27165912669,
			"0.004": 12.0745359543,
			"0.005": 2.56177378604,
			"0.006": 2.48094746228,
			"0.007": 2.51714962533,
			"0.008": 2.66281623291,
			"0.009": 4.00366219666,
			"0.01": 4.35509311448,
			"0.011": 5.31361822254,
			"0.012": 4.49122399376,
			"0.013": 0.909776863121,
			"0.014": 0.0,
			"0.015": 0.0,
			"0.016": 0.0,
			"0.017": 0.0,
			"0.018": 0.0,
			"0.019": 0.0,
			"0.02": 0.0,
			"0.021": 0.0,
			"0.022": 0.0,
			"0.023": 0.0,
			"0.024": 0.0,
			"0.025": 0.0
		}
	}
}
