{
	 "smiles": "CC(C)N1C=C(C#N)C(=O)NC1=O", 
	 "Tm": 539.15, 
	 "num_atms": 22, 
	 "gaussian": { 
		 "optdone": 1, 
		 "sigma_profile": "yes", 
		 "theory": "DFT", 
		 "functional": "B3LYP", 
		 "basiset": "6-31G**", 
		 "properties": { 
			 "R2extent": 3176.9187, 
			 "electric_dipole_moment_norm": 6.54572287681, 
			 "electric_quadrupole_moment_norm": 27.7521357733, 
			 "total_energy": -625.000796804, 
			 "HOMO_LUMO_gap": 0.18636, 
			 "cosmo_polarized_energy": -20.95, 
			 "cosmo_cavitation_energy": 27.33, 
			 "cosmo_dispersion_energy": -18.88, 
			 "cosmo_repulsion_energy": 1.51, 
			 "cosmo_total_nonelectrostatic_energy": 9.96, 
			 "SMD_solvation_energy": 8.15 
		},
		"coords": [
			{
				"x": 1.6666426341,
				"y": -0.6875185446,
				"z": -0.6798455277,
				"element": "C" 
			},
			{
				"x": 0.7659901103,
				"y": -0.6421905171,
				"z": 0.5581779456,
				"element": "C" 
			},
			{
				"x": 0.651906808,
				"y": -1.9924557259,
				"z": 1.2721611532,
				"element": "C" 
			},
			{
				"x": -0.5842569362,
				"y": -0.1079140504,
				"z": 0.213401124,
				"element": "N" 
			},
			{
				"x": -1.3996340722,
				"y": -0.7699110829,
				"z": -0.6534087282,
				"element": "C" 
			},
			{
				"x": -2.644913994,
				"y": -0.3372565861,
				"z": -1.0115364246,
				"element": "C" 
			},
			{
				"x": -3.4392150089,
				"y": -1.0858638961,
				"z": -1.9260211162,
				"element": "C" 
			},
			{
				"x": -4.0688952921,
				"y": -1.7154645394,
				"z": -2.6747219561,
				"element": "N" 
			},
			{
				"x": -3.1674602843,
				"y": 0.9141631917,
				"z": -0.4450594798,
				"element": "C" 
			},
			{
				"x": -4.2499051398,
				"y": 1.417307412,
				"z": -0.6729022744,
				"element": "O" 
			},
			{
				"x": -2.2532868899,
				"y": 1.5216455337,
				"z": 0.4357500946,
				"element": "N" 
			},
			{
				"x": -0.9900842958,
				"y": 1.103540003,
				"z": 0.8124908698,
				"element": "C" 
			},
			{
				"x": -0.2917053165,
				"y": 1.7256059689,
				"z": 1.5917098009,
				"element": "O" 
			},
			{
				"x": 1.731733373,
				"y": 0.2954507066,
				"z": -1.1543372982,
				"element": "H" 
			},
			{
				"x": 1.3100524193,
				"y": -1.4082534145,
				"z": -1.4239685642,
				"element": "H" 
			},
			{
				"x": 2.6756619668,
				"y": -0.991620445,
				"z": -0.3866007204,
				"element": "H" 
			},
			{
				"x": 1.159891131,
				"y": 0.0966512671,
				"z": 1.256869093,
				"element": "H" 
			},
			{
				"x": 1.6439687061,
				"y": -2.318328682,
				"z": 1.5980669079,
				"element": "H" 
			},
			{
				"x": 0.0113202585,
				"y": -1.916971462,
				"z": 2.1550876182,
				"element": "H" 
			},
			{
				"x": 0.2488008799,
				"y": -2.7731162839,
				"z": 0.6176229654,
				"element": "H" 
			},
			{
				"x": -1.0019828288,
				"y": -1.6910522564,
				"z": -1.0630930704,
				"element": "H" 
			},
			{
				"x": -2.5591282285,
				"y": 2.3908534035,
				"z": 0.8578575877,
				"element": "H" 
			}
		],
		 "valence_orbital": [ 
			{
				"type": "occ",
				"energy": -0.33757,
				"method": "rhf"
			},
			{
				"type": "occ",
				"energy": -0.31396,
				"method": "rhf"
			},
			{
				"type": "occ",
				"energy": -0.30377,
				"method": "rhf"
			},
			{
				"type": "occ",
				"energy": -0.28246,
				"method": "rhf"
			},
			{
				"type": "occ",
				"energy": -0.25879,
				"method": "rhf"
			},
			{
				"type": "unocc",
				"energy": -0.07243,
				"method": "rhf"
			},
			{
				"type": "unocc",
				"energy": -0.02004,
				"method": "rhf"
			},
			{
				"type": "unocc",
				"energy": 0.02339,
				"method": "rhf"
			},
			{
				"type": "unocc",
				"energy": 0.04882,
				"method": "rhf"
			},
			{
				"type": "unocc",
				"energy": 0.05107,
				"method": "rhf"
			}
		],
		"cosmo_sigma_profile": { 
			"-0.025": 0.0,
			"-0.024": 0.0,
			"-0.023": 0.0,
			"-0.022": 0.0,
			"-0.021": 0.0,
			"-0.02": 0.0,
			"-0.019": 0.0,
			"-0.018": 0.0,
			"-0.017": 0.239637057224,
			"-0.016": 1.09318398431,
			"-0.015": 0.982740776572,
			"-0.014": 0.484210069069,
			"-0.013": 1.0216564768,
			"-0.012": 1.59796610816,
			"-0.011": 3.70661876329,
			"-0.01": 3.25473112005,
			"-0.009": 2.4440191546,
			"-0.008": 4.25898219733,
			"-0.007": 5.17274647999,
			"-0.006": 6.6597975538,
			"-0.005": 18.1574032232,
			"-0.004": 22.6088721946,
			"-0.003": 23.6483566268,
			"-0.002": 18.7758515093,
			"-0.001": 18.2093251159,
			"0.0": 9.95159945208,
			"0.001": 4.13068557663,
			"0.002": 4.33475004576,
			"0.003": 3.57570838163,
			"0.004": 4.25817704819,
			"0.005": 4.39700947826,
			"0.006": 6.42975766778,
			"0.007": 5.47898889884,
			"0.008": 7.22084069175,
			"0.009": 5.78548354003,
			"0.01": 7.84826449645,
			"0.011": 11.0514467413,
			"0.012": 9.54822952511,
			"0.013": 1.63686652792,
			"0.014": 0.0309890023111,
			"0.015": 0.0,
			"0.016": 0.0,
			"0.017": 0.0,
			"0.018": 0.0,
			"0.019": 0.0,
			"0.02": 0.0,
			"0.021": 0.0,
			"0.022": 0.0,
			"0.023": 0.0,
			"0.024": 0.0,
			"0.025": 0.0
		}
	}
}
