{
	 "smiles": "CC1=C(C(=O)N2C=CN=C2)C(=CC=C1)[N+]([O-])=O", 
	 "Tm": 378.15, 
	 "num_atms": 26, 
	 "gaussian": { 
		 "optdone": 1, 
		 "sigma_profile": "yes", 
		 "theory": "DFT", 
		 "functional": "B3LYP", 
		 "basiset": "6-31G**", 
		 "properties": { 
			 "R2extent": 3733.7907, 
			 "electric_dipole_moment_norm": 6.76791860914, 
			 "electric_quadrupole_moment_norm": 10.6716226339, 
			 "total_energy": -814.4087303, 
			 "HOMO_LUMO_gap": 0.1401, 
			 "cosmo_polarized_energy": -16.2, 
			 "cosmo_cavitation_energy": 31.53, 
			 "cosmo_dispersion_energy": -21.58, 
			 "cosmo_repulsion_energy": 1.64, 
			 "cosmo_total_nonelectrostatic_energy": 11.59, 
			 "SMD_solvation_energy": 7.32 
		},
		"coords": [
			{
				"x": 2.1583563621,
				"y": -1.491629733,
				"z": 1.981133781,
				"element": "C" 
			},
			{
				"x": 2.3309845175,
				"y": -0.7229702266,
				"z": 0.6914624753,
				"element": "C" 
			},
			{
				"x": 1.2996301993,
				"y": -0.6785879248,
				"z": -0.2694855265,
				"element": "C" 
			},
			{
				"x": 0.0515921473,
				"y": -1.4933564037,
				"z": 0.0012057096,
				"element": "C" 
			},
			{
				"x": 0.0067602477,
				"y": -2.6843822721,
				"z": -0.2170549436,
				"element": "O" 
			},
			{
				"x": -0.9931135683,
				"y": -0.8288893649,
				"z": 0.6693648077,
				"element": "N" 
			},
			{
				"x": -1.0964204097,
				"y": 0.5171792976,
				"z": 1.0267689023,
				"element": "C" 
			},
			{
				"x": -2.3088071921,
				"y": 0.6358522698,
				"z": 1.6382971277,
				"element": "C" 
			},
			{
				"x": -2.971246905,
				"y": -0.5847709421,
				"z": 1.6732120055,
				"element": "N" 
			},
			{
				"x": -2.1706642412,
				"y": -1.432634542,
				"z": 1.0889305196,
				"element": "C" 
			},
			{
				"x": 1.5219015834,
				"y": 0.0232058322,
				"z": -1.4610256311,
				"element": "C" 
			},
			{
				"x": 2.7166898678,
				"y": 0.6891336075,
				"z": -1.7257901686,
				"element": "C" 
			},
			{
				"x": 3.7237004054,
				"y": 0.6535943782,
				"z": -0.7685287084,
				"element": "C" 
			},
			{
				"x": 3.5269881312,
				"y": -0.0451857268,
				"z": 0.4228200699,
				"element": "C" 
			},
			{
				"x": 0.4678804321,
				"y": 0.08251117,
				"z": -2.4901492058,
				"element": "N" 
			},
			{
				"x": 0.7271355125,
				"y": 0.6543019324,
				"z": -3.5452434061,
				"element": "O" 
			},
			{
				"x": -0.6140501763,
				"y": -0.4424807221,
				"z": -2.2250237292,
				"element": "O" 
			},
			{
				"x": 1.3220098028,
				"y": -1.1017413886,
				"z": 2.5717008766,
				"element": "H" 
			},
			{
				"x": 3.0599719494,
				"y": -1.4285900301,
				"z": 2.5940536845,
				"element": "H" 
			},
			{
				"x": 1.9507181287,
				"y": -2.5474240228,
				"z": 1.7822055729,
				"element": "H" 
			},
			{
				"x": -0.3162593137,
				"y": 1.2280556152,
				"z": 0.8093999054,
				"element": "H" 
			},
			{
				"x": -2.7548516316,
				"y": 1.5263557114,
				"z": 2.0585399121,
				"element": "H" 
			},
			{
				"x": -2.3439010317,
				"y": -2.4849650148,
				"z": 0.9215009463,
				"element": "H" 
			},
			{
				"x": 2.8293349104,
				"y": 1.2129620028,
				"z": -2.6661307227,
				"element": "H" 
			},
			{
				"x": 4.6622529866,
				"y": 1.1667154408,
				"z": -0.9512732544,
				"element": "H" 
			},
			{
				"x": 4.3204072857,
				"y": -0.0739589433,
				"z": 1.1642089999,
				"element": "H" 
			}
		],
		 "valence_orbital": [ 
			{
				"type": "occ",
				"energy": -0.29298,
				"method": "rhf"
			},
			{
				"type": "occ",
				"energy": -0.29257,
				"method": "rhf"
			},
			{
				"type": "occ",
				"energy": -0.27965,
				"method": "rhf"
			},
			{
				"type": "occ",
				"energy": -0.2749,
				"method": "rhf"
			},
			{
				"type": "occ",
				"energy": -0.24496,
				"method": "rhf"
			},
			{
				"type": "unocc",
				"energy": -0.10486,
				"method": "rhf"
			},
			{
				"type": "unocc",
				"energy": -0.05224,
				"method": "rhf"
			},
			{
				"type": "unocc",
				"energy": -0.04554,
				"method": "rhf"
			},
			{
				"type": "unocc",
				"energy": -0.01448,
				"method": "rhf"
			},
			{
				"type": "unocc",
				"energy": 0.04581,
				"method": "rhf"
			}
		],
		"cosmo_sigma_profile": { 
			"-0.025": 0.0,
			"-0.024": 0.0,
			"-0.023": 0.0,
			"-0.022": 0.0,
			"-0.021": 0.0,
			"-0.02": 0.0,
			"-0.019": 0.0,
			"-0.018": 0.0,
			"-0.017": 0.0,
			"-0.016": 0.0,
			"-0.015": 0.0,
			"-0.014": 0.0,
			"-0.013": 0.0,
			"-0.012": 0.0,
			"-0.011": 0.0,
			"-0.01": 0.518827234794,
			"-0.009": 2.18170677109,
			"-0.008": 8.11217864043,
			"-0.007": 15.3147354855,
			"-0.006": 14.3357773356,
			"-0.005": 16.390955297,
			"-0.004": 18.4845124906,
			"-0.003": 17.5240992934,
			"-0.002": 20.8517554127,
			"-0.001": 21.4377465819,
			"0.0": 16.1288463007,
			"0.001": 17.8069597127,
			"0.002": 10.8882608101,
			"0.003": 9.56766495995,
			"0.004": 9.25371528809,
			"0.005": 7.68106622035,
			"0.006": 8.34537061157,
			"0.007": 9.10397462897,
			"0.008": 8.66404402738,
			"0.009": 7.10945000274,
			"0.01": 5.37728741155,
			"0.011": 2.77911424312,
			"0.012": 1.03251895436,
			"0.013": 0.673338987185,
			"0.014": 1.50136175342,
			"0.015": 1.15094747371,
			"0.016": 0.818933331421,
			"0.017": 0.385329471791,
			"0.018": 0.0,
			"0.019": 0.0,
			"0.02": 0.0,
			"0.021": 0.0,
			"0.022": 0.0,
			"0.023": 0.0,
			"0.024": 0.0,
			"0.025": 0.0
		}
	}
}
