{
	 "smiles": "BrC1=CC=C(OCC2CO2)C=C1", 
	 "Tm": 323.15, 
	 "num_atms": 21, 
	 "gaussian": { 
		 "optdone": 1, 
		 "sigma_profile": "yes", 
		 "theory": "DFT", 
		 "functional": "B3LYP", 
		 "basiset": "6-31G**", 
		 "properties": { 
			 "R2extent": 5084.1886, 
			 "electric_dipole_moment_norm": 4.42446485578, 
			 "electric_quadrupole_moment_norm": 4.18716932545, 
			 "total_energy": -3070.17254968, 
			 "HOMO_LUMO_gap": 0.20782, 
			 "cosmo_polarized_energy": -8.57, 
			 "cosmo_cavitation_energy": 27.21, 
			 "cosmo_dispersion_energy": -20.53, 
			 "cosmo_repulsion_energy": 1.65, 
			 "cosmo_total_nonelectrostatic_energy": 8.32, 
			 "SMD_solvation_energy": 3.81 
		},
		"coords": [
			{
				"x": 0.985669738,
				"y": -3.7987554851,
				"z": 2.8736035943,
				"element": "Br" 
			},
			{
				"x": 0.0931203385,
				"y": -2.3894673508,
				"z": 1.9353892985,
				"element": "C" 
			},
			{
				"x": -1.201503375,
				"y": -2.0253004755,
				"z": 2.3091482031,
				"element": "C" 
			},
			{
				"x": -1.8487681458,
				"y": -1.0048432466,
				"z": 1.6212980103,
				"element": "C" 
			},
			{
				"x": -1.2061534981,
				"y": -0.3423270976,
				"z": 0.566121485,
				"element": "C" 
			},
			{
				"x": -1.9416464792,
				"y": 0.645728798,
				"z": -0.0367516741,
				"element": "O" 
			},
			{
				"x": -1.5423614764,
				"y": 1.1582415046,
				"z": -1.3047207608,
				"element": "C" 
			},
			{
				"x": -0.5373611183,
				"y": 2.2840961767,
				"z": -1.2187336589,
				"element": "C" 
			},
			{
				"x": 0.2240243933,
				"y": 2.6921001722,
				"z": -2.4090380503,
				"element": "C" 
			},
			{
				"x": 0.8534658883,
				"y": 1.9582977699,
				"z": -1.3528785484,
				"element": "O" 
			},
			{
				"x": 0.0960969088,
				"y": -0.7040657138,
				"z": 0.2044903346,
				"element": "C" 
			},
			{
				"x": 0.7413291456,
				"y": -1.7353476473,
				"z": 0.8931542312,
				"element": "C" 
			},
			{
				"x": -1.7001152442,
				"y": -2.5382708751,
				"z": 3.123716979,
				"element": "H" 
			},
			{
				"x": -2.8586527866,
				"y": -0.7088644448,
				"z": 1.8853231907,
				"element": "H" 
			},
			{
				"x": -1.1563633964,
				"y": 0.360465329,
				"z": -1.9523998219,
				"element": "H" 
			},
			{
				"x": -2.4668763408,
				"y": 1.5465926919,
				"z": -1.746332918,
				"element": "H" 
			},
			{
				"x": -0.7531645778,
				"y": 3.0307184964,
				"z": -0.452900877,
				"element": "H" 
			},
			{
				"x": 0.5419488041,
				"y": 3.7283977177,
				"z": -2.5171200446,
				"element": "H" 
			},
			{
				"x": 0.0958239755,
				"y": 2.1470789532,
				"z": -3.3448418495,
				"element": "H" 
			},
			{
				"x": 0.6263400203,
				"y": -0.1729287132,
				"z": -0.5770539943,
				"element": "H" 
			},
			{
				"x": 1.751947226,
				"y": -2.0158465598,
				"z": 0.6185268711,
				"element": "H" 
			}
		],
		 "valence_orbital": [ 
			{
				"type": "occ",
				"energy": -0.29117,
				"method": "rhf"
			},
			{
				"type": "occ",
				"energy": -0.28058,
				"method": "rhf"
			},
			{
				"type": "occ",
				"energy": -0.27826,
				"method": "rhf"
			},
			{
				"type": "occ",
				"energy": -0.25786,
				"method": "rhf"
			},
			{
				"type": "occ",
				"energy": -0.21701,
				"method": "rhf"
			},
			{
				"type": "unocc",
				"energy": -0.00919,
				"method": "rhf"
			},
			{
				"type": "unocc",
				"energy": 0.0037,
				"method": "rhf"
			},
			{
				"type": "unocc",
				"energy": 0.01556,
				"method": "rhf"
			},
			{
				"type": "unocc",
				"energy": 0.07194,
				"method": "rhf"
			},
			{
				"type": "unocc",
				"energy": 0.09645,
				"method": "rhf"
			}
		],
		"cosmo_sigma_profile": { 
			"-0.025": 0.0,
			"-0.024": 0.0,
			"-0.023": 0.0,
			"-0.022": 0.0,
			"-0.021": 0.0,
			"-0.02": 0.0,
			"-0.019": 0.0,
			"-0.018": 0.0,
			"-0.017": 0.0,
			"-0.016": 0.0,
			"-0.015": 0.0,
			"-0.014": 0.0,
			"-0.013": 0.0,
			"-0.012": 0.0,
			"-0.011": 0.0,
			"-0.01": 0.0,
			"-0.009": 0.0,
			"-0.008": 0.0500994242307,
			"-0.007": 10.3386978552,
			"-0.006": 17.8603561919,
			"-0.005": 18.0525036709,
			"-0.004": 17.4858938089,
			"-0.003": 14.4173638808,
			"-0.002": 13.3019654374,
			"-0.001": 11.0123607841,
			"0.0": 11.9277288122,
			"0.001": 11.8996779515,
			"0.002": 16.5824802957,
			"0.003": 23.4531109386,
			"0.004": 23.4133966434,
			"0.005": 14.0996745688,
			"0.006": 3.8051570765,
			"0.007": 2.33909521889,
			"0.008": 2.38213914025,
			"0.009": 3.21548866267,
			"0.01": 2.35771412711,
			"0.011": 1.49622562339,
			"0.012": 0.95562925112,
			"0.013": 0.0824065383975,
			"0.014": 0.0,
			"0.015": 0.0,
			"0.016": 0.0,
			"0.017": 0.0,
			"0.018": 0.0,
			"0.019": 0.0,
			"0.02": 0.0,
			"0.021": 0.0,
			"0.022": 0.0,
			"0.023": 0.0,
			"0.024": 0.0,
			"0.025": 0.0
		}
	}
}
