{
	 "smiles": "C[Si]12OCCN(CCO1)CCO2", 
	 "Tm": 425.15, 
	 "num_atms": 27, 
	 "gaussian": { 
		 "optdone": 1, 
		 "sigma_profile": "yes", 
		 "theory": "DFT", 
		 "functional": "B3LYP", 
		 "basiset": "6-31G**", 
		 "properties": { 
			 "R2extent": 2143.4945, 
			 "electric_dipole_moment_norm": 4.18139297125, 
			 "electric_quadrupole_moment_norm": 4.99061980419, 
			 "total_energy": -845.817107688, 
			 "HOMO_LUMO_gap": 0.29846, 
			 "cosmo_polarized_energy": -10.86, 
			 "cosmo_cavitation_energy": 27.01, 
			 "cosmo_dispersion_energy": -19.29, 
			 "cosmo_repulsion_energy": 1.61, 
			 "cosmo_total_nonelectrostatic_energy": 9.32, 
			 "SMD_solvation_energy": 4.71 
		},
		"coords": [
			{
				"x": 1.1048431572,
				"y": -0.3486999677,
				"z": 2.8910284633,
				"element": "C" 
			},
			{
				"x": 0.1040587566,
				"y": 0.0805260062,
				"z": 1.3770042999,
				"element": "Si" 
			},
			{
				"x": -1.2014434596,
				"y": 0.9238052153,
				"z": 2.0018190245,
				"element": "O" 
			},
			{
				"x": -2.4732662111,
				"y": 1.0762417033,
				"z": 1.4093029981,
				"element": "C" 
			},
			{
				"x": -2.3635185679,
				"y": 1.502516899,
				"z": -0.0693252094,
				"element": "C" 
			},
			{
				"x": -1.2931859949,
				"y": 0.778509485,
				"z": -0.7380152997,
				"element": "N" 
			},
			{
				"x": -0.2458970739,
				"y": 1.5346849865,
				"z": -1.418169627,
				"element": "C" 
			},
			{
				"x": 1.1266929105,
				"y": 1.0219568732,
				"z": -0.9655358471,
				"element": "C" 
			},
			{
				"x": 1.1882987426,
				"y": 0.9518935146,
				"z": 0.4432615515,
				"element": "O" 
			},
			{
				"x": -1.5792059062,
				"y": -0.5545307265,
				"z": -1.250545719,
				"element": "C" 
			},
			{
				"x": -1.4416237612,
				"y": -1.6199126348,
				"z": -0.1420467248,
				"element": "C" 
			},
			{
				"x": -0.3108886855,
				"y": -1.382044906,
				"z": 0.6696027214,
				"element": "O" 
			},
			{
				"x": 1.9655486781,
				"y": -0.9687777792,
				"z": 2.6234279334,
				"element": "H" 
			},
			{
				"x": 1.4811193853,
				"y": 0.5576554488,
				"z": 3.3754000009,
				"element": "H" 
			},
			{
				"x": 0.4988062706,
				"y": -0.8956856747,
				"z": 3.6190194667,
				"element": "H" 
			},
			{
				"x": -3.0245579334,
				"y": 1.8416908931,
				"z": 1.9689462094,
				"element": "H" 
			},
			{
				"x": -3.0466471063,
				"y": 0.1428552335,
				"z": 1.4989693434,
				"element": "H" 
			},
			{
				"x": -2.125443865,
				"y": 2.5688487246,
				"z": -0.1081286715,
				"element": "H" 
			},
			{
				"x": -3.3365211566,
				"y": 1.3648019879,
				"z": -0.5691890316,
				"element": "H" 
			},
			{
				"x": -0.3302448525,
				"y": 1.4858633344,
				"z": -2.516082315,
				"element": "H" 
			},
			{
				"x": -0.3397376311,
				"y": 2.5839641227,
				"z": -1.1261056291,
				"element": "H" 
			},
			{
				"x": 1.9150633376,
				"y": 1.6990240282,
				"z": -1.315175273,
				"element": "H" 
			},
			{
				"x": 1.3250754373,
				"y": 0.032387263,
				"z": -1.4042355559,
				"element": "H" 
			},
			{
				"x": -0.8546306733,
				"y": -0.7753987673,
				"z": -2.0405599824,
				"element": "H" 
			},
			{
				"x": -2.5825896173,
				"y": -0.6148093091,
				"z": -1.7029537052,
				"element": "H" 
			},
			{
				"x": -1.3345274845,
				"y": -2.6110715139,
				"z": -0.5993243781,
				"element": "H" 
			},
			{
				"x": -2.3514766954,
				"y": -1.6496944402,
				"z": 0.4733109565,
				"element": "H" 
			}
		],
		 "valence_orbital": [ 
			{
				"type": "occ",
				"energy": -0.29151,
				"method": "rhf"
			},
			{
				"type": "occ",
				"energy": -0.2769,
				"method": "rhf"
			},
			{
				"type": "occ",
				"energy": -0.27302,
				"method": "rhf"
			},
			{
				"type": "occ",
				"energy": -0.2586,
				"method": "rhf"
			},
			{
				"type": "occ",
				"energy": -0.22969,
				"method": "rhf"
			},
			{
				"type": "unocc",
				"energy": 0.06877,
				"method": "rhf"
			},
			{
				"type": "unocc",
				"energy": 0.08484,
				"method": "rhf"
			},
			{
				"type": "unocc",
				"energy": 0.09543,
				"method": "rhf"
			},
			{
				"type": "unocc",
				"energy": 0.09671,
				"method": "rhf"
			},
			{
				"type": "unocc",
				"energy": 0.11329,
				"method": "rhf"
			}
		],
		"cosmo_sigma_profile": { 
			"-0.025": 0.0,
			"-0.024": 0.0,
			"-0.023": 0.0,
			"-0.022": 0.0,
			"-0.021": 0.0,
			"-0.02": 0.0,
			"-0.019": 0.0,
			"-0.018": 0.0,
			"-0.017": 0.0,
			"-0.016": 0.0,
			"-0.015": 0.0,
			"-0.014": 0.0,
			"-0.013": 0.0,
			"-0.012": 0.0,
			"-0.011": 0.0,
			"-0.01": 0.0,
			"-0.009": 0.0,
			"-0.008": 0.0,
			"-0.007": 0.00905585354047,
			"-0.006": 2.84018019545,
			"-0.005": 13.5040547498,
			"-0.004": 38.0708464962,
			"-0.003": 32.7955058881,
			"-0.002": 23.0559172044,
			"-0.001": 18.3849218495,
			"0.0": 11.4529138307,
			"0.001": 10.8824578787,
			"0.002": 9.38583041782,
			"0.003": 5.67323098615,
			"0.004": 5.39379609258,
			"0.005": 4.03143650322,
			"0.006": 4.02535123463,
			"0.007": 3.58861649499,
			"0.008": 3.96076657377,
			"0.009": 4.11999765097,
			"0.01": 2.44254178846,
			"0.011": 4.73126960189,
			"0.012": 3.16990548086,
			"0.013": 2.91142568684,
			"0.014": 2.69160680759,
			"0.015": 0.0899945968648,
			"0.016": 0.0,
			"0.017": 0.0,
			"0.018": 0.0,
			"0.019": 0.0,
			"0.02": 0.0,
			"0.021": 0.0,
			"0.022": 0.0,
			"0.023": 0.0,
			"0.024": 0.0,
			"0.025": 0.0
		}
	}
}
