{
	 "smiles": "NS(=O)(=O)N1CCC(CC1)OC(=O)C(F)(F)F", 
	 "Tm": 400.15, 
	 "num_atms": 28, 
	 "gaussian": { 
		 "optdone": 1, 
		 "sigma_profile": "yes", 
		 "theory": "DFT", 
		 "functional": "B3LYP", 
		 "basiset": "6-31G**", 
		 "properties": { 
			 "R2extent": 6747.8543, 
			 "electric_dipole_moment_norm": 3.51515771766, 
			 "electric_quadrupole_moment_norm": 23.731220544, 
			 "total_energy": -1381.40717975, 
			 "HOMO_LUMO_gap": 0.22555, 
			 "cosmo_polarized_energy": -18.11, 
			 "cosmo_cavitation_energy": 34.15, 
			 "cosmo_dispersion_energy": -24.32, 
			 "cosmo_repulsion_energy": 1.8, 
			 "cosmo_total_nonelectrostatic_energy": 11.64, 
			 "SMD_solvation_energy": 5.95 
		},
		"coords": [
			{
				"x": 0.1927303573,
				"y": -4.3914388441,
				"z": -0.4859842449,
				"element": "N" 
			},
			{
				"x": -1.2191226186,
				"y": -3.4375573815,
				"z": -0.6473497699,
				"element": "S" 
			},
			{
				"x": -1.6766000291,
				"y": -3.6188616455,
				"z": -2.0215523771,
				"element": "O" 
			},
			{
				"x": -2.0491239441,
				"y": -3.7154034598,
				"z": 0.5219338694,
				"element": "O" 
			},
			{
				"x": -0.7107773967,
				"y": -1.855058526,
				"z": -0.5251524906,
				"element": "N" 
			},
			{
				"x": 0.1129457239,
				"y": -1.3772678402,
				"z": -1.6603979002,
				"element": "C" 
			},
			{
				"x": 0.6560697059,
				"y": 0.0161465166,
				"z": -1.3409548011,
				"element": "C" 
			},
			{
				"x": 1.5983053132,
				"y": -0.0180031672,
				"z": -0.1254045965,
				"element": "C" 
			},
			{
				"x": 1.1722415033,
				"y": -1.0781724948,
				"z": 0.8992212502,
				"element": "C" 
			},
			{
				"x": -0.330360019,
				"y": -1.357662299,
				"z": 0.8195510178,
				"element": "C" 
			},
			{
				"x": 1.5523399152,
				"y": 1.2767147601,
				"z": 0.5576792652,
				"element": "O" 
			},
			{
				"x": 2.2863178162,
				"y": 2.2575334449,
				"z": 0.0304231333,
				"element": "C" 
			},
			{
				"x": 2.9781603853,
				"y": 2.203395617,
				"z": -0.9556892772,
				"element": "O" 
			},
			{
				"x": 2.1355283778,
				"y": 3.5317024974,
				"z": 0.8915452584,
				"element": "C" 
			},
			{
				"x": 0.8457263943,
				"y": 3.9097984291,
				"z": 0.9427519292,
				"element": "F" 
			},
			{
				"x": 2.8550653973,
				"y": 4.528491968,
				"z": 0.3741719862,
				"element": "F" 
			},
			{
				"x": 2.5576777895,
				"y": 3.3000171823,
				"z": 2.1475716341,
				"element": "F" 
			},
			{
				"x": 0.29395542,
				"y": -4.9685737396,
				"z": -1.3169619998,
				"element": "H" 
			},
			{
				"x": 0.0961653798,
				"y": -4.9770481222,
				"z": 0.3396368554,
				"element": "H" 
			},
			{
				"x": -0.5139688881,
				"y": -1.3509435233,
				"z": -2.5528795532,
				"element": "H" 
			},
			{
				"x": 0.9487855711,
				"y": -2.0662671431,
				"z": -1.8579652485,
				"element": "H" 
			},
			{
				"x": -0.1816739541,
				"y": 0.6853798519,
				"z": -1.1162891946,
				"element": "H" 
			},
			{
				"x": 1.1743692647,
				"y": 0.4229271261,
				"z": -2.2124902966,
				"element": "H" 
			},
			{
				"x": 2.6323475836,
				"y": -0.1727270412,
				"z": -0.4430431957,
				"element": "H" 
			},
			{
				"x": 1.4493435283,
				"y": -0.7433784755,
				"z": 1.9033334469,
				"element": "H" 
			},
			{
				"x": 1.7196373264,
				"y": -2.0053883198,
				"z": 0.6994872127,
				"element": "H" 
			},
			{
				"x": -0.6439803764,
				"y": -2.0898437797,
				"z": 1.5641530378,
				"element": "H" 
			},
			{
				"x": -0.8995055272,
				"y": -0.4429115909,
				"z": 1.0203550493,
				"element": "H" 
			}
		],
		 "valence_orbital": [ 
			{
				"type": "occ",
				"energy": -0.32589,
				"method": "rhf"
			},
			{
				"type": "occ",
				"energy": -0.3127,
				"method": "rhf"
			},
			{
				"type": "occ",
				"energy": -0.30713,
				"method": "rhf"
			},
			{
				"type": "occ",
				"energy": -0.30267,
				"method": "rhf"
			},
			{
				"type": "occ",
				"energy": -0.2606,
				"method": "rhf"
			},
			{
				"type": "unocc",
				"energy": -0.03505,
				"method": "rhf"
			},
			{
				"type": "unocc",
				"energy": 0.03738,
				"method": "rhf"
			},
			{
				"type": "unocc",
				"energy": 0.06593,
				"method": "rhf"
			},
			{
				"type": "unocc",
				"energy": 0.07335,
				"method": "rhf"
			},
			{
				"type": "unocc",
				"energy": 0.0849,
				"method": "rhf"
			}
		],
		"cosmo_sigma_profile": { 
			"-0.025": 0.0,
			"-0.024": 0.0,
			"-0.023": 0.0,
			"-0.022": 0.0,
			"-0.021": 0.0,
			"-0.02": 0.0,
			"-0.019": 0.0,
			"-0.018": 0.0,
			"-0.017": 0.0,
			"-0.016": 0.0,
			"-0.015": 0.354464806997,
			"-0.014": 2.42696951686,
			"-0.013": 2.35926594395,
			"-0.012": 2.9546643897,
			"-0.011": 2.32025409565,
			"-0.01": 1.34100331149,
			"-0.009": 1.76714234723,
			"-0.008": 1.77159969963,
			"-0.007": 6.52894908294,
			"-0.006": 13.9323539285,
			"-0.005": 24.4511805726,
			"-0.004": 22.5828350888,
			"-0.003": 19.8205144011,
			"-0.002": 15.8493506713,
			"-0.001": 10.2075013183,
			"0.0": 11.6293285076,
			"0.001": 20.3965915433,
			"0.002": 32.7536834434,
			"0.003": 12.000490425,
			"0.004": 8.67886919692,
			"0.005": 7.40528997241,
			"0.006": 5.23742459642,
			"0.007": 5.79162152316,
			"0.008": 7.05545147428,
			"0.009": 6.29876015508,
			"0.01": 12.4637971287,
			"0.011": 8.70416225613,
			"0.012": 1.96676478652,
			"0.013": 0.0,
			"0.014": 0.0,
			"0.015": 0.0,
			"0.016": 0.0,
			"0.017": 0.0,
			"0.018": 0.0,
			"0.019": 0.0,
			"0.02": 0.0,
			"0.021": 0.0,
			"0.022": 0.0,
			"0.023": 0.0,
			"0.024": 0.0,
			"0.025": 0.0
		}
	}
}
