{
	 "smiles": "FC1=C(F)C(F)=C(I)C(I)=C1F", 
	 "Tm": 322.65, 
	 "num_atms": 12, 
	 "gaussian": { 
		 "optdone": 1, 
		 "sigma_profile": "no", 
		 "theory": "DFT", 
		 "functional": "B3LYP", 
		 "basiset": "6-31G**", 
		 "properties": { 
			 "R2extent": 3321.9925, 
			 "electric_dipole_moment_norm": 0.911604711484, 
			 "electric_quadrupole_moment_norm": 3.88963040018, 
			 "total_energy": -650.705056493, 
			 "HOMO_LUMO_gap": 0.17405, 
			 "cosmo_polarized_energy": -277418.5, 
			 "cosmo_cavitation_energy": 25.09, 
			 "cosmo_dispersion_energy": -20.58, 
			 "cosmo_repulsion_energy": 1.48, 
			 "cosmo_total_nonelectrostatic_energy": 6.0, 
			 "SMD_solvation_energy": 4.63 
		},
		"coords": [
			{
				"x": -2.7224355625,
				"y": -1.8005854099,
				"z": 3.1614732,
				"element": "F" 
			},
			{
				"x": -2.1131125825,
				"y": -0.9818175345,
				"z": 2.3027728608,
				"element": "C" 
			},
			{
				"x": -0.8750796671,
				"y": -1.3220053351,
				"z": 1.7723136498,
				"element": "C" 
			},
			{
				"x": -0.2894302552,
				"y": -2.46909243,
				"z": 2.1190311278,
				"element": "F" 
			},
			{
				"x": -0.2490257372,
				"y": -0.4575986961,
				"z": 0.8759563525,
				"element": "C" 
			},
			{
				"x": 0.9407709785,
				"y": -0.8282784721,
				"z": 0.3927045703,
				"element": "F" 
			},
			{
				"x": -0.842032532,
				"y": 0.7487021536,
				"z": 0.4976728279,
				"element": "C" 
			},
			{
				"x": 0.2234159869,
				"y": 1.9451862163,
				"z": -0.8615229915,
				"element": "I" 
			},
			{
				"x": -2.0962713375,
				"y": 1.0933748046,
				"z": 1.0351014107,
				"element": "C" 
			},
			{
				"x": -3.125946556,
				"y": 2.8656139346,
				"z": 0.573585548,
				"element": "I" 
			},
			{
				"x": -2.7142685767,
				"y": 0.2198222093,
				"z": 1.932259813,
				"element": "C" 
			},
			{
				"x": -3.9050841587,
				"y": 0.5032785594,
				"z": 2.4690516308,
				"element": "F" 
			}
		],
		 "valence_orbital": [ 
			{
				"type": "occ",
				"energy": -0.3074,
				"method": "rhf"
			},
			{
				"type": "occ",
				"energy": -0.3043,
				"method": "rhf"
			},
			{
				"type": "occ",
				"energy": -0.27022,
				"method": "rhf"
			},
			{
				"type": "occ",
				"energy": -0.26083,
				"method": "rhf"
			},
			{
				"type": "occ",
				"energy": -0.25871,
				"method": "rhf"
			},
			{
				"type": "unocc",
				"energy": -0.08466,
				"method": "rhf"
			},
			{
				"type": "unocc",
				"energy": -0.04873,
				"method": "rhf"
			},
			{
				"type": "unocc",
				"energy": -0.03595,
				"method": "rhf"
			},
			{
				"type": "unocc",
				"energy": -0.03316,
				"method": "rhf"
			},
			{
				"type": "unocc",
				"energy": 0.01442,
				"method": "rhf"
			}
		],
		"cosmo_sigma_profile": { 
			"0.0": 0.0,
			"0.0": 0.0,
			"0.0": 0.0,
			"0.0": 0.0,
			"0.0": 0.0,
			"0.0": 0.0,
			"0.0": 0.0,
			"0.0": 0.0,
			"0.0": 0.0,
			"0.0": 0.0,
			"0.0": 0.0,
			"0.0": 0.0,
			"0.0": 0.0,
			"0.0": 0.0,
			"0.0": 0.0,
			"0.0": 0.0,
			"0.0": 0.0,
			"0.0": 0.0,
			"0.0": 0.0,
			"0.0": 0.0,
			"0.0": 0.0,
			"0.0": 0.0,
			"0.0": 0.0,
			"0.0": 0.0,
			"0.0": 0.0,
			"0.0": 0.0,
			"0.0": 0.0,
			"0.0": 0.0,
			"0.0": 0.0,
			"0.0": 0.0,
			"0.0": 0.0,
			"0.0": 0.0,
			"0.0": 0.0,
			"0.0": 0.0,
			"0.0": 0.0,
			"0.0": 0.0,
			"0.0": 0.0,
			"0.0": 0.0,
			"0.0": 0.0,
			"0.0": 0.0,
			"0.0": 0.0,
			"0.0": 0.0,
			"0.0": 0.0,
			"0.0": 0.0,
			"0.0": 0.0,
			"0.0": 0.0,
			"0.0": 0.0,
			"0.0": 0.0,
			"0.0": 0.0,
			"0.0": 0.0,
			"0.0": 0.0
		}
	}
}
