{
	 "smiles": "CC1(CO1)C1=CC=C(C=C1)S(C)(=O)=O", 
	 "Tm": 370.15, 
	 "num_atms": 26, 
	 "gaussian": { 
		 "optdone": 1, 
		 "sigma_profile": "yes", 
		 "theory": "DFT", 
		 "functional": "B3LYP", 
		 "basiset": "6-31G**", 
		 "properties": { 
			 "R2extent": 4075.2644, 
			 "electric_dipole_moment_norm": 4.83373782595, 
			 "electric_quadrupole_moment_norm": 23.9016991204, 
			 "total_energy": -1012.05514501, 
			 "HOMO_LUMO_gap": 0.21994, 
			 "cosmo_polarized_energy": -16.88, 
			 "cosmo_cavitation_energy": 30.9, 
			 "cosmo_dispersion_energy": -22.54, 
			 "cosmo_repulsion_energy": 1.71, 
			 "cosmo_total_nonelectrostatic_energy": 10.07, 
			 "SMD_solvation_energy": 5.19 
		},
		"coords": [
			{
				"x": -1.9557786086,
				"y": -0.6490121209,
				"z": -3.636154958,
				"element": "C" 
			},
			{
				"x": -1.219969982,
				"y": -1.5429551157,
				"z": -2.6569890627,
				"element": "C" 
			},
			{
				"x": -1.5743643923,
				"y": -2.979610469,
				"z": -2.5865273925,
				"element": "C" 
			},
			{
				"x": -0.3980358523,
				"y": -2.5494511633,
				"z": -3.2773268526,
				"element": "O" 
			},
			{
				"x": -0.6054387124,
				"y": -0.8973292362,
				"z": -1.4430847669,
				"element": "C" 
			},
			{
				"x": 0.6130828187,
				"y": -1.3777819943,
				"z": -0.9412092709,
				"element": "C" 
			},
			{
				"x": 1.188894192,
				"y": -0.8097362306,
				"z": 0.1926122743,
				"element": "C" 
			},
			{
				"x": 0.5424072738,
				"y": 0.253758779,
				"z": 0.8251768531,
				"element": "C" 
			},
			{
				"x": -0.6736981134,
				"y": 0.7440013654,
				"z": 0.3482321679,
				"element": "C" 
			},
			{
				"x": -1.2402529904,
				"y": 0.1682556567,
				"z": -0.7876649764,
				"element": "C" 
			},
			{
				"x": 1.2822981047,
				"y": 0.9989684204,
				"z": 2.2858614331,
				"element": "S" 
			},
			{
				"x": 2.3581956663,
				"y": 2.2871831513,
				"z": 1.6094389437,
				"element": "C" 
			},
			{
				"x": 2.1477916615,
				"y": -0.007665483,
				"z": 2.9200574305,
				"element": "O" 
			},
			{
				"x": 0.2133466721,
				"y": 1.6710430126,
				"z": 3.0416533673,
				"element": "O" 
			},
			{
				"x": -2.2641926693,
				"y": -1.2342170696,
				"z": -4.5054181762,
				"element": "H" 
			},
			{
				"x": -1.308439766,
				"y": 0.1641485918,
				"z": -3.9788873086,
				"element": "H" 
			},
			{
				"x": -2.8499618789,
				"y": -0.2065072229,
				"z": -3.1864315193,
				"element": "H" 
			},
			{
				"x": -2.3752949842,
				"y": -3.3657846387,
				"z": -3.2178286894,
				"element": "H" 
			},
			{
				"x": -1.4007246986,
				"y": -3.5271386016,
				"z": -1.6605861945,
				"element": "H" 
			},
			{
				"x": 1.1014923094,
				"y": -2.1970508103,
				"z": -1.4571594425,
				"element": "H" 
			},
			{
				"x": 2.1204303052,
				"y": -1.1924019755,
				"z": 0.5965981474,
				"element": "H" 
			},
			{
				"x": -1.1731662167,
				"y": 1.5503901966,
				"z": 0.8747896149,
				"element": "H" 
			},
			{
				"x": -2.1887034366,
				"y": 0.5483967782,
				"z": -1.1529277933,
				"element": "H" 
			},
			{
				"x": 2.8326643321,
				"y": 2.7692220179,
				"z": 2.4667555632,
				"element": "H" 
			},
			{
				"x": 1.7533865766,
				"y": 3.0064149561,
				"z": 1.055554549,
				"element": "H" 
			},
			{
				"x": 3.1107323891,
				"y": 1.8269592054,
				"z": 0.9677660596,
				"element": "H" 
			}
		],
		 "valence_orbital": [ 
			{
				"type": "occ",
				"energy": -0.29346,
				"method": "rhf"
			},
			{
				"type": "occ",
				"energy": -0.28656,
				"method": "rhf"
			},
			{
				"type": "occ",
				"energy": -0.28393,
				"method": "rhf"
			},
			{
				"type": "occ",
				"energy": -0.27332,
				"method": "rhf"
			},
			{
				"type": "occ",
				"energy": -0.26362,
				"method": "rhf"
			},
			{
				"type": "unocc",
				"energy": -0.04368,
				"method": "rhf"
			},
			{
				"type": "unocc",
				"energy": -0.02474,
				"method": "rhf"
			},
			{
				"type": "unocc",
				"energy": 0.06551,
				"method": "rhf"
			},
			{
				"type": "unocc",
				"energy": 0.07192,
				"method": "rhf"
			},
			{
				"type": "unocc",
				"energy": 0.086,
				"method": "rhf"
			}
		],
		"cosmo_sigma_profile": { 
			"-0.025": 0.0,
			"-0.024": 0.0,
			"-0.023": 0.0,
			"-0.022": 0.0,
			"-0.021": 0.0,
			"-0.02": 0.0,
			"-0.019": 0.0,
			"-0.018": 0.0,
			"-0.017": 0.0,
			"-0.016": 0.0,
			"-0.015": 0.0,
			"-0.014": 0.0,
			"-0.013": 0.0,
			"-0.012": 0.0,
			"-0.011": 0.0,
			"-0.01": 0.0,
			"-0.009": 1.46419506101,
			"-0.008": 6.99048057573,
			"-0.007": 12.9181220253,
			"-0.006": 16.6272349628,
			"-0.005": 21.7842711507,
			"-0.004": 21.7475232378,
			"-0.003": 21.7198533919,
			"-0.002": 16.8818346606,
			"-0.001": 17.5160062432,
			"0.0": 13.7676377983,
			"0.001": 12.7243443708,
			"0.002": 15.5014860122,
			"0.003": 11.3331689196,
			"0.004": 4.57073258603,
			"0.005": 4.27379187597,
			"0.006": 4.00780172444,
			"0.007": 3.34693291965,
			"0.008": 4.34292566134,
			"0.009": 4.64569127589,
			"0.01": 6.71759094822,
			"0.011": 10.793627688,
			"0.012": 10.3370014996,
			"0.013": 1.42849298508,
			"0.014": 0.0,
			"0.015": 0.0,
			"0.016": 0.0,
			"0.017": 0.0,
			"0.018": 0.0,
			"0.019": 0.0,
			"0.02": 0.0,
			"0.021": 0.0,
			"0.022": 0.0,
			"0.023": 0.0,
			"0.024": 0.0,
			"0.025": 0.0
		}
	}
}
