{
	 "smiles": "CCOC(=O)C1=NC(S)=C(C=C1)C#N", 
	 "Tm": 443.15, 
	 "num_atms": 22, 
	 "gaussian": { 
		 "optdone": 1, 
		 "sigma_profile": "yes", 
		 "theory": "DFT", 
		 "functional": "B3LYP", 
		 "basiset": "6-31G**", 
		 "properties": { 
			 "R2extent": 4348.3148, 
			 "electric_dipole_moment_norm": 4.08512795026, 
			 "electric_quadrupole_moment_norm": 19.9857084716, 
			 "total_energy": -1005.90565026, 
			 "HOMO_LUMO_gap": 0.15948, 
			 "cosmo_polarized_energy": -13.13, 
			 "cosmo_cavitation_energy": 30.14, 
			 "cosmo_dispersion_energy": -21.65, 
			 "cosmo_repulsion_energy": 1.7, 
			 "cosmo_total_nonelectrostatic_energy": 10.19, 
			 "SMD_solvation_energy": 6.19 
		},
		"coords": [
			{
				"x": 2.5806026204,
				"y": -2.9120673234,
				"z": 0.9974479385,
				"element": "C" 
			},
			{
				"x": 1.6977545711,
				"y": -1.9457986885,
				"z": 1.7720238313,
				"element": "C" 
			},
			{
				"x": 1.1135148855,
				"y": -0.9497207828,
				"z": 0.8935504895,
				"element": "O" 
			},
			{
				"x": -0.0211575117,
				"y": -1.2944380901,
				"z": 0.2758845022,
				"element": "C" 
			},
			{
				"x": -0.589831604,
				"y": -2.362772157,
				"z": 0.4011357357,
				"element": "O" 
			},
			{
				"x": -0.5574711228,
				"y": -0.2027890216,
				"z": -0.615851392,
				"element": "C" 
			},
			{
				"x": 0.1282143371,
				"y": 0.9432854755,
				"z": -0.7126600806,
				"element": "N" 
			},
			{
				"x": -0.3442295804,
				"y": 1.9062308682,
				"z": -1.4994211908,
				"element": "C" 
			},
			{
				"x": 0.5817391024,
				"y": 3.4188851385,
				"z": -1.6135309146,
				"element": "S" 
			},
			{
				"x": -1.5480510448,
				"y": 1.7598719577,
				"z": -2.2377214925,
				"element": "C" 
			},
			{
				"x": -2.2500469549,
				"y": 0.5529669095,
				"z": -2.1227176543,
				"element": "C" 
			},
			{
				"x": -1.7511577613,
				"y": -0.4491451136,
				"z": -1.2999394398,
				"element": "C" 
			},
			{
				"x": -2.0372353553,
				"y": 2.8081949285,
				"z": -3.0769494748,
				"element": "C" 
			},
			{
				"x": -2.4371788713,
				"y": 3.6604242433,
				"z": -3.7608597136,
				"element": "N" 
			},
			{
				"x": 3.0709288527,
				"y": -3.6010535632,
				"z": 1.6930236423,
				"element": "H" 
			},
			{
				"x": 1.9854149151,
				"y": -3.5012161597,
				"z": 0.2955548631,
				"element": "H" 
			},
			{
				"x": 3.3548449973,
				"y": -2.3737079359,
				"z": 0.4434392524,
				"element": "H" 
			},
			{
				"x": 0.89342631,
				"y": -2.472027545,
				"z": 2.2913073954,
				"element": "H" 
			},
			{
				"x": 2.2753684753,
				"y": -1.3601772144,
				"z": 2.4903522233,
				"element": "H" 
			},
			{
				"x": 1.5333342042,
				"y": 2.9907565105,
				"z": -0.7623386213,
				"element": "H" 
			},
			{
				"x": -3.172545182,
				"y": 0.4175724556,
				"z": -2.677404523,
				"element": "H" 
			},
			{
				"x": -2.2521382829,
				"y": -1.4006748923,
				"z": -1.1746253765,
				"element": "H" 
			}
		],
		 "valence_orbital": [ 
			{
				"type": "occ",
				"energy": -0.31192,
				"method": "rhf"
			},
			{
				"type": "occ",
				"energy": -0.30342,
				"method": "rhf"
			},
			{
				"type": "occ",
				"energy": -0.30259,
				"method": "rhf"
			},
			{
				"type": "occ",
				"energy": -0.28034,
				"method": "rhf"
			},
			{
				"type": "occ",
				"energy": -0.25273,
				"method": "rhf"
			},
			{
				"type": "unocc",
				"energy": -0.09325,
				"method": "rhf"
			},
			{
				"type": "unocc",
				"energy": -0.04973,
				"method": "rhf"
			},
			{
				"type": "unocc",
				"energy": -0.00741,
				"method": "rhf"
			},
			{
				"type": "unocc",
				"energy": 0.00499,
				"method": "rhf"
			},
			{
				"type": "unocc",
				"energy": 0.03007,
				"method": "rhf"
			}
		],
		"cosmo_sigma_profile": { 
			"-0.025": 0.0,
			"-0.024": 0.0,
			"-0.023": 0.0,
			"-0.022": 0.0,
			"-0.021": 0.0,
			"-0.02": 0.0,
			"-0.019": 0.0,
			"-0.018": 0.0,
			"-0.017": 0.0,
			"-0.016": 0.0,
			"-0.015": 0.0,
			"-0.014": 0.0,
			"-0.013": 0.00211371757604,
			"-0.012": 0.857305713015,
			"-0.011": 1.50174778006,
			"-0.01": 3.03236078018,
			"-0.009": 3.9496531279,
			"-0.008": 5.1361721098,
			"-0.007": 5.1767720853,
			"-0.006": 6.48246119613,
			"-0.005": 12.9625806618,
			"-0.004": 21.8828692064,
			"-0.003": 29.3086144563,
			"-0.002": 23.1043310133,
			"-0.001": 20.7568071357,
			"0.0": 18.712918977,
			"0.001": 11.9539432226,
			"0.002": 11.2191934129,
			"0.003": 9.86528249813,
			"0.004": 8.54020380589,
			"0.005": 8.10216858739,
			"0.006": 7.34743263336,
			"0.007": 5.77486144511,
			"0.008": 6.44468171496,
			"0.009": 5.31641520139,
			"0.01": 5.53839646613,
			"0.011": 7.3258408636,
			"0.012": 2.91184935504,
			"0.013": 0.849880837116,
			"0.014": 0.650446559665,
			"0.015": 0.104922803237,
			"0.016": 0.0,
			"0.017": 0.0,
			"0.018": 0.0,
			"0.019": 0.0,
			"0.02": 0.0,
			"0.021": 0.0,
			"0.022": 0.0,
			"0.023": 0.0,
			"0.024": 0.0,
			"0.025": 0.0
		}
	}
}
