{
	 "smiles": "CC1=CC=NC(=C1)C#N", 
	 "Tm": 360.15, 
	 "num_atms": 15, 
	 "gaussian": { 
		 "optdone": 1, 
		 "sigma_profile": "yes", 
		 "theory": "DFT", 
		 "functional": "B3LYP", 
		 "basiset": "6-31G**", 
		 "properties": { 
			 "R2extent": 1379.4135, 
			 "electric_dipole_moment_norm": 6.1729107737, 
			 "electric_quadrupole_moment_norm": 13.4911864326, 
			 "total_energy": -379.843882638, 
			 "HOMO_LUMO_gap": 0.21397, 
			 "cosmo_polarized_energy": -10.96, 
			 "cosmo_cavitation_energy": 20.41, 
			 "cosmo_dispersion_energy": -14.51, 
			 "cosmo_repulsion_energy": 1.19, 
			 "cosmo_total_nonelectrostatic_energy": 7.1, 
			 "SMD_solvation_energy": 3.72 
		},
		"coords": [
			{
				"x": 1.677384515,
				"y": -0.3504718664,
				"z": -1.6572655603,
				"element": "C" 
			},
			{
				"x": 0.8752804171,
				"y": 0.2422513041,
				"z": -0.5270358353,
				"element": "C" 
			},
			{
				"x": 1.4845629968,
				"y": 0.7198146151,
				"z": 0.6382559996,
				"element": "C" 
			},
			{
				"x": 0.7006366338,
				"y": 1.2852890169,
				"z": 1.6464191659,
				"element": "C" 
			},
			{
				"x": -0.6271124811,
				"y": 1.405391449,
				"z": 1.5792924256,
				"element": "N" 
			},
			{
				"x": -1.2113521705,
				"y": 0.9436234165,
				"z": 0.4607347015,
				"element": "C" 
			},
			{
				"x": -0.5163480466,
				"y": 0.3607059433,
				"z": -0.605769298,
				"element": "C" 
			},
			{
				"x": -2.6488998882,
				"y": 1.066610837,
				"z": 0.3823411828,
				"element": "C" 
			},
			{
				"x": -3.8039523316,
				"y": 1.1502075338,
				"z": 0.2858060691,
				"element": "N" 
			},
			{
				"x": 1.0987863005,
				"y": -1.0953227093,
				"z": -2.2103884217,
				"element": "H" 
			},
			{
				"x": 2.5918376237,
				"y": -0.8247362658,
				"z": -1.2907307068,
				"element": "H" 
			},
			{
				"x": 1.9740086109,
				"y": 0.4294059618,
				"z": -2.3689896636,
				"element": "H" 
			},
			{
				"x": 2.5612090229,
				"y": 0.6519116204,
				"z": 0.7655114779,
				"element": "H" 
			},
			{
				"x": 1.1661575729,
				"y": 1.6579630788,
				"z": 2.5565781108,
				"element": "H" 
			},
			{
				"x": -1.0603987756,
				"y": 0.0069560647,
				"z": -1.4758596474,
				"element": "H" 
			}
		],
		 "valence_orbital": [ 
			{
				"type": "occ",
				"energy": -0.35077,
				"method": "rhf"
			},
			{
				"type": "occ",
				"energy": -0.33504,
				"method": "rhf"
			},
			{
				"type": "occ",
				"energy": -0.29724,
				"method": "rhf"
			},
			{
				"type": "occ",
				"energy": -0.28081,
				"method": "rhf"
			},
			{
				"type": "occ",
				"energy": -0.27668,
				"method": "rhf"
			},
			{
				"type": "unocc",
				"energy": -0.06271,
				"method": "rhf"
			},
			{
				"type": "unocc",
				"energy": -0.04015,
				"method": "rhf"
			},
			{
				"type": "unocc",
				"energy": 0.03503,
				"method": "rhf"
			},
			{
				"type": "unocc",
				"energy": 0.06664,
				"method": "rhf"
			},
			{
				"type": "unocc",
				"energy": 0.08375,
				"method": "rhf"
			}
		],
		"cosmo_sigma_profile": { 
			"-0.025": 0.0,
			"-0.024": 0.0,
			"-0.023": 0.0,
			"-0.022": 0.0,
			"-0.021": 0.0,
			"-0.02": 0.0,
			"-0.019": 0.0,
			"-0.018": 0.0,
			"-0.017": 0.0,
			"-0.016": 0.0,
			"-0.015": 0.0,
			"-0.014": 0.0,
			"-0.013": 0.0,
			"-0.012": 0.0,
			"-0.011": 0.0,
			"-0.01": 0.0,
			"-0.009": 0.333145345574,
			"-0.008": 3.90072672856,
			"-0.007": 7.72335712121,
			"-0.006": 10.2964868056,
			"-0.005": 12.1968989482,
			"-0.004": 11.3160490569,
			"-0.003": 12.9028555065,
			"-0.002": 16.5988326204,
			"-0.001": 16.4543543638,
			"0.0": 15.62214334,
			"0.001": 10.330268394,
			"0.002": 4.36032144433,
			"0.003": 4.13613234036,
			"0.004": 4.67661960177,
			"0.005": 4.00950590693,
			"0.006": 4.40792223512,
			"0.007": 4.97576724322,
			"0.008": 4.1489562508,
			"0.009": 3.74981290635,
			"0.01": 3.87116793634,
			"0.011": 3.60173751818,
			"0.012": 3.0308652409,
			"0.013": 1.35694628409,
			"0.014": 0.631618922102,
			"0.015": 0.198476722692,
			"0.016": 0.0,
			"0.017": 0.0,
			"0.018": 0.0,
			"0.019": 0.0,
			"0.02": 0.0,
			"0.021": 0.0,
			"0.022": 0.0,
			"0.023": 0.0,
			"0.024": 0.0,
			"0.025": 0.0
		}
	}
}
