{
	 "smiles": "CCOCCO", 
	 "Tm": 203.15, 
	 "num_atms": 16, 
	 "gaussian": { 
		 "optdone": 1, 
		 "sigma_profile": "yes", 
		 "theory": "DFT", 
		 "functional": "B3LYP", 
		 "basiset": "6-31G**", 
		 "properties": { 
			 "R2extent": 1179.6568, 
			 "electric_dipole_moment_norm": 2.57518768442, 
			 "electric_quadrupole_moment_norm": 6.73025741038, 
			 "total_energy": -308.878555225, 
			 "HOMO_LUMO_gap": 0.3261, 
			 "cosmo_polarized_energy": -7.03, 
			 "cosmo_cavitation_energy": 18.34, 
			 "cosmo_dispersion_energy": -13.73, 
			 "cosmo_repulsion_energy": 1.21, 
			 "cosmo_total_nonelectrostatic_energy": 5.83, 
			 "SMD_solvation_energy": 3.51 
		},
		"coords": [
			{
				"x": 1.6698655221,
				"y": -2.9724080831,
				"z": -0.1332115137,
				"element": "C" 
			},
			{
				"x": 0.5720311696,
				"y": -2.5118006084,
				"z": -1.0881217919,
				"element": "C" 
			},
			{
				"x": -0.4709864914,
				"y": -1.8099591137,
				"z": -0.410768092,
				"element": "O" 
			},
			{
				"x": -0.2339735332,
				"y": -0.4149310792,
				"z": -0.2129491088,
				"element": "C" 
			},
			{
				"x": -0.7924043192,
				"y": 0.3766841884,
				"z": -1.3923709396,
				"element": "C" 
			},
			{
				"x": -2.1602122457,
				"y": 0.0769315658,
				"z": -1.5926775399,
				"element": "O" 
			},
			{
				"x": 1.2475257732,
				"y": -3.6015887835,
				"z": 0.6554853154,
				"element": "H" 
			},
			{
				"x": 2.1731822147,
				"y": -2.1236919712,
				"z": 0.3412082472,
				"element": "H" 
			},
			{
				"x": 2.4272629235,
				"y": -3.5517984506,
				"z": -0.6724624966,
				"element": "H" 
			},
			{
				"x": 0.9943785007,
				"y": -1.8972677675,
				"z": -1.8968203252,
				"element": "H" 
			},
			{
				"x": 0.0928959759,
				"y": -3.3778878614,
				"z": -1.5569478968,
				"element": "H" 
			},
			{
				"x": 0.8332565291,
				"y": -0.201327938,
				"z": -0.0593074758,
				"element": "H" 
			},
			{
				"x": -0.7739119437,
				"y": -0.1414855322,
				"z": 0.6997942001,
				"element": "H" 
			},
			{
				"x": -0.1974016193,
				"y": 0.1664192274,
				"z": -2.2982594614,
				"element": "H" 
			},
			{
				"x": -0.7133429082,
				"y": 1.4518043427,
				"z": -1.1937983647,
				"element": "H" 
			},
			{
				"x": -2.2222655481,
				"y": -0.8868921354,
				"z": -1.5111927564,
				"element": "H" 
			}
		],
		 "valence_orbital": [ 
			{
				"type": "occ",
				"energy": -0.35878,
				"method": "rhf"
			},
			{
				"type": "occ",
				"energy": -0.32539,
				"method": "rhf"
			},
			{
				"type": "occ",
				"energy": -0.31399,
				"method": "rhf"
			},
			{
				"type": "occ",
				"energy": -0.27514,
				"method": "rhf"
			},
			{
				"type": "occ",
				"energy": -0.2485,
				"method": "rhf"
			},
			{
				"type": "unocc",
				"energy": 0.0776,
				"method": "rhf"
			},
			{
				"type": "unocc",
				"energy": 0.10692,
				"method": "rhf"
			},
			{
				"type": "unocc",
				"energy": 0.11947,
				"method": "rhf"
			},
			{
				"type": "unocc",
				"energy": 0.13219,
				"method": "rhf"
			},
			{
				"type": "unocc",
				"energy": 0.13826,
				"method": "rhf"
			}
		],
		"cosmo_sigma_profile": { 
			"-0.025": 0.0,
			"-0.024": 0.0,
			"-0.023": 0.0,
			"-0.022": 0.0,
			"-0.021": 0.0,
			"-0.02": 0.0,
			"-0.019": 0.0,
			"-0.018": 0.0,
			"-0.017": 0.0,
			"-0.016": 0.0,
			"-0.015": 0.0,
			"-0.014": 0.0,
			"-0.013": 0.0,
			"-0.012": 0.118182400776,
			"-0.011": 0.558257699029,
			"-0.01": 0.819991243192,
			"-0.009": 0.480368715006,
			"-0.008": 0.584790042049,
			"-0.007": 0.365168189941,
			"-0.006": 0.367968273675,
			"-0.005": 7.7038547415,
			"-0.004": 21.2930035518,
			"-0.003": 21.2122903716,
			"-0.002": 19.9834477216,
			"-0.001": 14.7669223602,
			"0.0": 11.2220232557,
			"0.001": 8.69299555909,
			"0.002": 4.24724785606,
			"0.003": 3.00594535896,
			"0.004": 2.98988941062,
			"0.005": 2.69310539676,
			"0.006": 2.11596036914,
			"0.007": 1.83991940702,
			"0.008": 1.80929847315,
			"0.009": 2.6449998382,
			"0.01": 1.89980597416,
			"0.011": 1.90678233869,
			"0.012": 2.28438798158,
			"0.013": 2.24883813371,
			"0.014": 2.5252279263,
			"0.015": 1.52132323165,
			"0.016": 0.0,
			"0.017": 0.0,
			"0.018": 0.0,
			"0.019": 0.0,
			"0.02": 0.0,
			"0.021": 0.0,
			"0.022": 0.0,
			"0.023": 0.0,
			"0.024": 0.0,
			"0.025": 0.0
		}
	}
}
