{
	 "smiles": "NC1=C(C=CC(=C1)C(F)(F)F)C1CCNCC1", 
	 "Tm": 360.15, 
	 "num_atms": 32, 
	 "gaussian": { 
		 "optdone": 1, 
		 "sigma_profile": "yes", 
		 "theory": "DFT", 
		 "functional": "B3LYP", 
		 "basiset": "6-31G**", 
		 "properties": { 
			 "R2extent": 5851.2509, 
			 "electric_dipole_moment_norm": 4.05980004557, 
			 "electric_quadrupole_moment_norm": 13.9641597581, 
			 "total_energy": -875.343975073, 
			 "HOMO_LUMO_gap": 0.19522, 
			 "cosmo_polarized_energy": -11.53, 
			 "cosmo_cavitation_energy": 34.27, 
			 "cosmo_dispersion_energy": -24.59, 
			 "cosmo_repulsion_energy": 1.84, 
			 "cosmo_total_nonelectrostatic_energy": 11.51, 
			 "SMD_solvation_energy": 3.72 
		},
		"coords": [
			{
				"x": -2.1390322,
				"y": 0.9550627854,
				"z": 1.9620369146,
				"element": "N" 
			},
			{
				"x": -1.7405214396,
				"y": 0.042626884,
				"z": 0.9770407667,
				"element": "C" 
			},
			{
				"x": -0.43494566,
				"y": 0.0847891833,
				"z": 0.4259356892,
				"element": "C" 
			},
			{
				"x": -0.0968552158,
				"y": -0.8720127821,
				"z": -0.5369513448,
				"element": "C" 
			},
			{
				"x": -0.9804443278,
				"y": -1.870516625,
				"z": -0.9426083924,
				"element": "C" 
			},
			{
				"x": -2.2509915374,
				"y": -1.9170546129,
				"z": -0.3688986675,
				"element": "C" 
			},
			{
				"x": -2.6280970453,
				"y": -0.9675070854,
				"z": 0.5778668071,
				"element": "C" 
			},
			{
				"x": -3.2022419623,
				"y": -3.0228613306,
				"z": -0.7313761687,
				"element": "C" 
			},
			{
				"x": -3.0449784181,
				"y": -4.104231638,
				"z": 0.0696032062,
				"element": "F" 
			},
			{
				"x": -3.0208054831,
				"y": -3.4504995144,
				"z": -2.0011113578,
				"element": "F" 
			},
			{
				"x": -4.4957611614,
				"y": -2.6403907427,
				"z": -0.6148796149,
				"element": "F" 
			},
			{
				"x": 0.5429508437,
				"y": 1.170192819,
				"z": 0.8543829633,
				"element": "C" 
			},
			{
				"x": 2.0426655494,
				"y": 0.7391441613,
				"z": 0.8694596787,
				"element": "C" 
			},
			{
				"x": 2.8311725445,
				"y": 1.3562238043,
				"z": -0.2965706562,
				"element": "C" 
			},
			{
				"x": 2.7885843895,
				"y": 2.8263446523,
				"z": -0.3301079351,
				"element": "N" 
			},
			{
				"x": 1.5411137293,
				"y": 3.4160083685,
				"z": 0.1854368903,
				"element": "C" 
			},
			{
				"x": 0.373617852,
				"y": 2.4485913926,
				"z": -0.0178918499,
				"element": "C" 
			},
			{
				"x": -3.1345822274,
				"y": 0.9639442975,
				"z": 2.1383016375,
				"element": "H" 
			},
			{
				"x": -1.7784323808,
				"y": 1.8929595691,
				"z": 1.8619740509,
				"element": "H" 
			},
			{
				"x": 0.8918914057,
				"y": -0.8418209005,
				"z": -0.9843072413,
				"element": "H" 
			},
			{
				"x": -0.6898992576,
				"y": -2.5959479749,
				"z": -1.6936658408,
				"element": "H" 
			},
			{
				"x": -3.6264326055,
				"y": -1.0021426652,
				"z": 1.0038326851,
				"element": "H" 
			},
			{
				"x": 0.2868760228,
				"y": 1.4431404447,
				"z": 1.8852823538,
				"element": "H" 
			},
			{
				"x": 2.4975743431,
				"y": 1.0746394676,
				"z": 1.8092057765,
				"element": "H" 
			},
			{
				"x": 2.1328191287,
				"y": -0.3520554647,
				"z": 0.8597188254,
				"element": "H" 
			},
			{
				"x": 2.4435389221,
				"y": 0.9654946983,
				"z": -1.2477760189,
				"element": "H" 
			},
			{
				"x": 3.8806447969,
				"y": 1.0470729045,
				"z": -0.2519133539,
				"element": "H" 
			},
			{
				"x": 3.5780790686,
				"y": 3.2020919264,
				"z": 0.1836574662,
				"element": "H" 
			},
			{
				"x": 1.344163944,
				"y": 4.3589142548,
				"z": -0.3414074216,
				"element": "H" 
			},
			{
				"x": 1.6007335853,
				"y": 3.6647454153,
				"z": 1.2606732048,
				"element": "H" 
			},
			{
				"x": 0.3175700828,
				"y": 2.1694071801,
				"z": -1.0762947964,
				"element": "H" 
			},
			{
				"x": -0.5720752864,
				"y": 2.9527471275,
				"z": 0.214351744,
				"element": "H" 
			}
		],
		 "valence_orbital": [ 
			{
				"type": "occ",
				"energy": -0.31443,
				"method": "rhf"
			},
			{
				"type": "occ",
				"energy": -0.31155,
				"method": "rhf"
			},
			{
				"type": "occ",
				"energy": -0.25164,
				"method": "rhf"
			},
			{
				"type": "occ",
				"energy": -0.2135,
				"method": "rhf"
			},
			{
				"type": "occ",
				"energy": -0.21198,
				"method": "rhf"
			},
			{
				"type": "unocc",
				"energy": -0.01676,
				"method": "rhf"
			},
			{
				"type": "unocc",
				"energy": 0.00394,
				"method": "rhf"
			},
			{
				"type": "unocc",
				"energy": 0.05427,
				"method": "rhf"
			},
			{
				"type": "unocc",
				"energy": 0.08339,
				"method": "rhf"
			},
			{
				"type": "unocc",
				"energy": 0.09561,
				"method": "rhf"
			}
		],
		"cosmo_sigma_profile": { 
			"-0.025": 0.0,
			"-0.024": 0.0,
			"-0.023": 0.0,
			"-0.022": 0.0,
			"-0.021": 0.0,
			"-0.02": 0.0,
			"-0.019": 0.0,
			"-0.018": 0.0,
			"-0.017": 0.0,
			"-0.016": 0.0,
			"-0.015": 0.0,
			"-0.014": 0.0,
			"-0.013": 0.374904174423,
			"-0.012": 1.59457870393,
			"-0.011": 3.04432703802,
			"-0.01": 3.38481695033,
			"-0.009": 5.00382287163,
			"-0.008": 4.10920834439,
			"-0.007": 5.08991665984,
			"-0.006": 4.75406480179,
			"-0.005": 9.28827666133,
			"-0.004": 11.8953743125,
			"-0.003": 21.4427224775,
			"-0.002": 28.5298569333,
			"-0.001": 25.0444313025,
			"0.0": 23.3241303635,
			"0.001": 17.2648507594,
			"0.002": 20.197640803,
			"0.003": 40.2506011061,
			"0.004": 18.110406281,
			"0.005": 10.2031240039,
			"0.006": 2.89151319733,
			"0.007": 1.11787772763,
			"0.008": 1.98045094672,
			"0.009": 1.27891738086,
			"0.01": 1.64177517081,
			"0.011": 1.14974642079,
			"0.012": 0.891504969289,
			"0.013": 1.50147804205,
			"0.014": 1.19577324759,
			"0.015": 0.196130599498,
			"0.016": 0.489148007722,
			"0.017": 0.721730901496,
			"0.018": 0.435094908098,
			"0.019": 0.43604969162,
			"0.02": 0.0,
			"0.021": 0.0,
			"0.022": 0.0,
			"0.023": 0.0,
			"0.024": 0.0,
			"0.025": 0.0
		}
	}
}
