{
	 "smiles": "CC1=C(C)C=C(NC(=O)NC(=O)CCl)C=C1", 
	 "Tm": 418.15, 
	 "num_atms": 29, 
	 "gaussian": { 
		 "optdone": 1, 
		 "sigma_profile": "yes", 
		 "theory": "DFT", 
		 "functional": "B3LYP", 
		 "basiset": "6-31G**", 
		 "properties": { 
			 "R2extent": 5429.3446, 
			 "electric_dipole_moment_norm": 3.2730504518, 
			 "electric_quadrupole_moment_norm": 14.2741457005, 
			 "total_energy": -1147.19186108, 
			 "HOMO_LUMO_gap": 0.19608, 
			 "cosmo_polarized_energy": -16.05, 
			 "cosmo_cavitation_energy": 34.85, 
			 "cosmo_dispersion_energy": -24.38, 
			 "cosmo_repulsion_energy": 1.95, 
			 "cosmo_total_nonelectrostatic_energy": 12.42, 
			 "SMD_solvation_energy": 7.27 
		},
		"coords": [
			{
				"x": -2.6696258444,
				"y": 0.8590240545,
				"z": -3.5491940166,
				"element": "C" 
			},
			{
				"x": -1.3916985041,
				"y": 0.3206241007,
				"z": -2.9523015149,
				"element": "C" 
			},
			{
				"x": -1.0781385374,
				"y": -1.0544359775,
				"z": -3.0234916603,
				"element": "C" 
			},
			{
				"x": -2.0158269999,
				"y": -2.0278290866,
				"z": -3.696914132,
				"element": "C" 
			},
			{
				"x": 0.1081122931,
				"y": -1.5144779816,
				"z": -2.4486069773,
				"element": "C" 
			},
			{
				"x": 1.0005354196,
				"y": -0.6431257874,
				"z": -1.8169498983,
				"element": "C" 
			},
			{
				"x": 2.221802057,
				"y": -1.1742161731,
				"z": -1.3159736493,
				"element": "N" 
			},
			{
				"x": 2.9926038925,
				"y": -0.7903318084,
				"z": -0.2543895585,
				"element": "C" 
			},
			{
				"x": 4.1861315712,
				"y": -1.0325517686,
				"z": -0.1760724934,
				"element": "O" 
			},
			{
				"x": 2.3580681526,
				"y": -0.0686088629,
				"z": 0.7959581079,
				"element": "N" 
			},
			{
				"x": 1.1500198057,
				"y": -0.3585201274,
				"z": 1.390509353,
				"element": "C" 
			},
			{
				"x": 0.326095527,
				"y": -1.152722126,
				"z": 0.9806334762,
				"element": "O" 
			},
			{
				"x": 0.8067057306,
				"y": 0.4120693813,
				"z": 2.6712439078,
				"element": "C" 
			},
			{
				"x": 2.0897569294,
				"y": 1.4896782333,
				"z": 3.3625635041,
				"element": "Cl" 
			},
			{
				"x": 0.705323316,
				"y": 0.7200519423,
				"z": -1.764700548,
				"element": "C" 
			},
			{
				"x": -0.4893925159,
				"y": 1.1794635429,
				"z": -2.3170714305,
				"element": "C" 
			},
			{
				"x": -2.7431761586,
				"y": 1.9409601491,
				"z": -3.4111072484,
				"element": "H" 
			},
			{
				"x": -3.5556046647,
				"y": 0.4038568666,
				"z": -3.0896193641,
				"element": "H" 
			},
			{
				"x": -2.7343537829,
				"y": 0.6552326794,
				"z": -4.6250923977,
				"element": "H" 
			},
			{
				"x": -2.1793885726,
				"y": -1.7685425793,
				"z": -4.7499865196,
				"element": "H" 
			},
			{
				"x": -3.0019757554,
				"y": -2.0338682034,
				"z": -3.2173032466,
				"element": "H" 
			},
			{
				"x": -1.6222561493,
				"y": -3.0467936307,
				"z": -3.6607330675,
				"element": "H" 
			},
			{
				"x": 0.340353685,
				"y": -2.5759412404,
				"z": -2.4752317522,
				"element": "H" 
			},
			{
				"x": 2.7360951453,
				"y": -1.7881076308,
				"z": -1.9343334108,
				"element": "H" 
			},
			{
				"x": 3.0372738249,
				"y": 0.4149322737,
				"z": 1.373208176,
				"element": "H" 
			},
			{
				"x": -0.0622239393,
				"y": 1.0378141074,
				"z": 2.4628920489,
				"element": "H" 
			},
			{
				"x": 0.5419210444,
				"y": -0.3143514718,
				"z": 3.4392394612,
				"element": "H" 
			},
			{
				"x": 1.4002113765,
				"y": 1.4151721756,
				"z": -1.3063763263,
				"element": "H" 
			},
			{
				"x": -0.7164483465,
				"y": 2.2416449492,
				"z": -2.2697988226,
				"element": "H" 
			}
		],
		 "valence_orbital": [ 
			{
				"type": "occ",
				"energy": -0.29515,
				"method": "rhf"
			},
			{
				"type": "occ",
				"energy": -0.27197,
				"method": "rhf"
			},
			{
				"type": "occ",
				"energy": -0.26736,
				"method": "rhf"
			},
			{
				"type": "occ",
				"energy": -0.24745,
				"method": "rhf"
			},
			{
				"type": "occ",
				"energy": -0.2227,
				"method": "rhf"
			},
			{
				"type": "unocc",
				"energy": -0.02662,
				"method": "rhf"
			},
			{
				"type": "unocc",
				"energy": -0.00246,
				"method": "rhf"
			},
			{
				"type": "unocc",
				"energy": 0.00215,
				"method": "rhf"
			},
			{
				"type": "unocc",
				"energy": 0.0097,
				"method": "rhf"
			},
			{
				"type": "unocc",
				"energy": 0.0501,
				"method": "rhf"
			}
		],
		"cosmo_sigma_profile": { 
			"-0.025": 0.0,
			"-0.024": 0.0,
			"-0.023": 0.0,
			"-0.022": 0.0,
			"-0.021": 0.0,
			"-0.02": 0.0,
			"-0.019": 0.0,
			"-0.018": 0.0,
			"-0.017": 0.0,
			"-0.016": 0.0,
			"-0.015": 0.456983356892,
			"-0.014": 1.22038364744,
			"-0.013": 1.18753194876,
			"-0.012": 0.595090655857,
			"-0.011": 1.10595114729,
			"-0.01": 3.59397648453,
			"-0.009": 6.69259704531,
			"-0.008": 6.42142636385,
			"-0.007": 6.74960809681,
			"-0.006": 9.28707741553,
			"-0.005": 15.5859931672,
			"-0.004": 22.7994974772,
			"-0.003": 21.7833125704,
			"-0.002": 22.9694844381,
			"-0.001": 20.4636665114,
			"0.0": 25.6790737407,
			"0.001": 18.3023212283,
			"0.002": 12.1769762823,
			"0.003": 12.4707177682,
			"0.004": 12.0705766638,
			"0.005": 15.16972447,
			"0.006": 6.35039852896,
			"0.007": 3.79977877218,
			"0.008": 3.03432737676,
			"0.009": 4.06108819469,
			"0.01": 4.09745581862,
			"0.011": 6.98760989439,
			"0.012": 8.10063753699,
			"0.013": 4.4998649147,
			"0.014": 0.184644482827,
			"0.015": 0.0,
			"0.016": 0.0,
			"0.017": 0.0,
			"0.018": 0.0,
			"0.019": 0.0,
			"0.02": 0.0,
			"0.021": 0.0,
			"0.022": 0.0,
			"0.023": 0.0,
			"0.024": 0.0,
			"0.025": 0.0
		}
	}
}
