{
	 "smiles": "CC1=C(SC(=N1)C1=NC=CC=C1)C(O)=O", 
	 "Tm": 509.15, 
	 "num_atms": 23, 
	 "gaussian": { 
		 "optdone": 1, 
		 "sigma_profile": "yes", 
		 "theory": "DFT", 
		 "functional": "B3LYP", 
		 "basiset": "6-31G**", 
		 "properties": { 
			 "R2extent": 4493.5067, 
			 "electric_dipole_moment_norm": 5.98814993884, 
			 "electric_quadrupole_moment_norm": 6.47325399625, 
			 "total_energy": -1044.03414223, 
			 "HOMO_LUMO_gap": 0.15441, 
			 "cosmo_polarized_energy": -14.39, 
			 "cosmo_cavitation_energy": 29.67, 
			 "cosmo_dispersion_energy": -22.46, 
			 "cosmo_repulsion_energy": 1.7, 
			 "cosmo_total_nonelectrostatic_energy": 8.91, 
			 "SMD_solvation_energy": 3.64 
		},
		"coords": [
			{
				"x": 0.1021500854,
				"y": 2.5092501,
				"z": 1.8398497052,
				"element": "C" 
			},
			{
				"x": -0.0304605438,
				"y": 1.4684824162,
				"z": 0.7682232083,
				"element": "C" 
			},
			{
				"x": 0.9913177816,
				"y": 0.9679149836,
				"z": -0.026518453,
				"element": "C" 
			},
			{
				"x": 0.3575861938,
				"y": -0.228356391,
				"z": -1.134043938,
				"element": "S" 
			},
			{
				"x": -1.2271350146,
				"y": 0.0378201604,
				"z": -0.4438018346,
				"element": "C" 
			},
			{
				"x": -1.2638411717,
				"y": 0.9298227443,
				"z": 0.5132345971,
				"element": "N" 
			},
			{
				"x": -2.3848270957,
				"y": -0.7122286497,
				"z": -0.9429103908,
				"element": "C" 
			},
			{
				"x": -2.1388846459,
				"y": -1.5861544069,
				"z": -1.9337536468,
				"element": "N" 
			},
			{
				"x": -3.1666671662,
				"y": -2.28757778,
				"z": -2.4145675836,
				"element": "C" 
			},
			{
				"x": -4.4750893991,
				"y": -2.1572446711,
				"z": -1.9404218064,
				"element": "C" 
			},
			{
				"x": -4.720301222,
				"y": -1.247209027,
				"z": -0.9114646435,
				"element": "C" 
			},
			{
				"x": -3.6599775001,
				"y": -0.5065914402,
				"z": -0.3973814876,
				"element": "C" 
			},
			{
				"x": 2.4086166808,
				"y": 1.3771977682,
				"z": 0.0436754944,
				"element": "C" 
			},
			{
				"x": 3.2828808861,
				"y": 0.7824817158,
				"z": -0.8120650418,
				"element": "O" 
			},
			{
				"x": 2.8132053261,
				"y": 2.2096672021,
				"z": 0.8257180392,
				"element": "O" 
			},
			{
				"x": 0.5030876264,
				"y": 3.4418331498,
				"z": 1.4334711598,
				"element": "H" 
			},
			{
				"x": -0.8771178541,
				"y": 2.6910580226,
				"z": 2.2853702902,
				"element": "H" 
			},
			{
				"x": 0.8068918147,
				"y": 2.1893534755,
				"z": 2.6122500055,
				"element": "H" 
			},
			{
				"x": -2.9367425619,
				"y": -2.986855688,
				"z": -3.2158875381,
				"element": "H" 
			},
			{
				"x": -5.2738446845,
				"y": -2.7538153334,
				"z": -2.3687257917,
				"element": "H" 
			},
			{
				"x": -5.7229614816,
				"y": -1.1164152591,
				"z": -0.5153058958,
				"element": "H" 
			},
			{
				"x": -3.7879952563,
				"y": 0.2147798636,
				"z": 0.4012458268,
				"element": "H" 
			},
			{
				"x": 2.8470092025,
				"y": 0.1368870443,
				"z": -1.3863902747,
				"element": "H" 
			}
		],
		 "valence_orbital": [ 
			{
				"type": "occ",
				"energy": -0.29212,
				"method": "rhf"
			},
			{
				"type": "occ",
				"energy": -0.28771,
				"method": "rhf"
			},
			{
				"type": "occ",
				"energy": -0.27923,
				"method": "rhf"
			},
			{
				"type": "occ",
				"energy": -0.27494,
				"method": "rhf"
			},
			{
				"type": "occ",
				"energy": -0.24064,
				"method": "rhf"
			},
			{
				"type": "unocc",
				"energy": -0.08623,
				"method": "rhf"
			},
			{
				"type": "unocc",
				"energy": -0.03803,
				"method": "rhf"
			},
			{
				"type": "unocc",
				"energy": -0.02261,
				"method": "rhf"
			},
			{
				"type": "unocc",
				"energy": -0.00524,
				"method": "rhf"
			},
			{
				"type": "unocc",
				"energy": 0.03351,
				"method": "rhf"
			}
		],
		"cosmo_sigma_profile": { 
			"-0.025": 0.0,
			"-0.024": 0.0,
			"-0.023": 0.0,
			"-0.022": 0.0,
			"-0.021": 0.0,
			"-0.02": 0.0,
			"-0.019": 0.0277875903044,
			"-0.018": 0.783417478114,
			"-0.017": 0.676003875808,
			"-0.016": 0.493854443243,
			"-0.015": 0.830189677376,
			"-0.014": 0.920407229703,
			"-0.013": 1.45868052132,
			"-0.012": 1.46395736828,
			"-0.011": 0.666105891254,
			"-0.01": 0.73317346124,
			"-0.009": 1.10096195969,
			"-0.008": 3.31208742663,
			"-0.007": 9.41020316086,
			"-0.006": 11.2355571536,
			"-0.005": 10.9817395551,
			"-0.004": 13.0391607599,
			"-0.003": 12.8346462585,
			"-0.002": 17.4459880047,
			"-0.001": 26.2010317544,
			"0.0": 27.0966474442,
			"0.001": 24.3281747128,
			"0.002": 16.9830479195,
			"0.003": 8.2352190839,
			"0.004": 5.65634443862,
			"0.005": 5.98506689739,
			"0.006": 4.81147579553,
			"0.007": 5.62030442571,
			"0.008": 5.60958280767,
			"0.009": 5.48410413763,
			"0.01": 6.93064455795,
			"0.011": 5.14422192537,
			"0.012": 3.63308378426,
			"0.013": 1.42228537801,
			"0.014": 0.0280889785642,
			"0.015": 0.0,
			"0.016": 0.0,
			"0.017": 0.0,
			"0.018": 0.0,
			"0.019": 0.0,
			"0.02": 0.0,
			"0.021": 0.0,
			"0.022": 0.0,
			"0.023": 0.0,
			"0.024": 0.0,
			"0.025": 0.0
		}
	}
}
