{
	 "smiles": "COC1=C(C=CC=C1)C1=NOC(N)=C1", 
	 "Tm": 367.15, 
	 "num_atms": 24, 
	 "gaussian": { 
		 "optdone": 1, 
		 "sigma_profile": "yes", 
		 "theory": "DFT", 
		 "functional": "B3LYP", 
		 "basiset": "6-31G**", 
		 "properties": { 
			 "R2extent": 3400.3733, 
			 "electric_dipole_moment_norm": 4.3243093807, 
			 "electric_quadrupole_moment_norm": 20.0391812959, 
			 "total_energy": -646.980454745, 
			 "HOMO_LUMO_gap": 0.18312, 
			 "cosmo_polarized_energy": -15.66, 
			 "cosmo_cavitation_energy": 28.19, 
			 "cosmo_dispersion_energy": -21.01, 
			 "cosmo_repulsion_energy": 1.65, 
			 "cosmo_total_nonelectrostatic_energy": 8.82, 
			 "SMD_solvation_energy": 5.74 
		},
		"coords": [
			{
				"x": 3.0321949616,
				"y": 1.4343280206,
				"z": -0.717594685,
				"element": "C" 
			},
			{
				"x": 1.7978958872,
				"y": 0.773333825,
				"z": -0.9452564034,
				"element": "O" 
			},
			{
				"x": 1.0439373403,
				"y": 0.3972309776,
				"z": 0.1314762812,
				"element": "C" 
			},
			{
				"x": -0.2059269257,
				"y": -0.2085612183,
				"z": -0.1395976538,
				"element": "C" 
			},
			{
				"x": -1.0016704577,
				"y": -0.5963929659,
				"z": 0.9494571925,
				"element": "C" 
			},
			{
				"x": -0.5930601432,
				"y": -0.3974503657,
				"z": 2.2653224655,
				"element": "C" 
			},
			{
				"x": 0.6417761464,
				"y": 0.1982131623,
				"z": 2.5146370634,
				"element": "C" 
			},
			{
				"x": 1.4580543075,
				"y": 0.5941089116,
				"z": 1.4549357806,
				"element": "C" 
			},
			{
				"x": -0.7114530129,
				"y": -0.4385867475,
				"z": -1.5092882344,
				"element": "C" 
			},
			{
				"x": -2.0006626866,
				"y": -0.7001876111,
				"z": -1.6634353789,
				"element": "N" 
			},
			{
				"x": -2.1735464363,
				"y": -0.9151865693,
				"z": -3.0475121273,
				"element": "O" 
			},
			{
				"x": -0.987859693,
				"y": -0.7686449643,
				"z": -3.6630293671,
				"element": "C" 
			},
			{
				"x": -1.0005519542,
				"y": -0.8913830262,
				"z": -5.0347098655,
				"element": "N" 
			},
			{
				"x": -0.0120994171,
				"y": -0.4638388782,
				"z": -2.753652962,
				"element": "C" 
			},
			{
				"x": 3.7420659022,
				"y": 0.7960261806,
				"z": -0.1761104843,
				"element": "H" 
			},
			{
				"x": 3.4367401376,
				"y": 1.6618116417,
				"z": -1.7052073969,
				"element": "H" 
			},
			{
				"x": 2.8933598776,
				"y": 2.3698115263,
				"z": -0.1614203103,
				"element": "H" 
			},
			{
				"x": -1.9569514043,
				"y": -1.0625136396,
				"z": 0.7351428065,
				"element": "H" 
			},
			{
				"x": -1.2310983911,
				"y": -0.7101701768,
				"z": 3.0858513816,
				"element": "H" 
			},
			{
				"x": 0.980794298,
				"y": 0.3573130133,
				"z": 3.5343630862,
				"element": "H" 
			},
			{
				"x": 2.414487736,
				"y": 1.0564231312,
				"z": 1.665580801,
				"element": "H" 
			},
			{
				"x": -1.7803652477,
				"y": -1.4269670429,
				"z": -5.3932001839,
				"element": "H" 
			},
			{
				"x": -0.1164455665,
				"y": -1.1609689503,
				"z": -5.4418273301,
				"element": "H" 
			},
			{
				"x": 1.0325847419,
				"y": -0.2807482341,
				"z": -2.9283244757,
				"element": "H" 
			}
		],
		 "valence_orbital": [ 
			{
				"type": "occ",
				"energy": -0.29711,
				"method": "rhf"
			},
			{
				"type": "occ",
				"energy": -0.2847,
				"method": "rhf"
			},
			{
				"type": "occ",
				"energy": -0.23764,
				"method": "rhf"
			},
			{
				"type": "occ",
				"energy": -0.21785,
				"method": "rhf"
			},
			{
				"type": "occ",
				"energy": -0.20646,
				"method": "rhf"
			},
			{
				"type": "unocc",
				"energy": -0.02334,
				"method": "rhf"
			},
			{
				"type": "unocc",
				"energy": 0.01402,
				"method": "rhf"
			},
			{
				"type": "unocc",
				"energy": 0.03922,
				"method": "rhf"
			},
			{
				"type": "unocc",
				"energy": 0.06753,
				"method": "rhf"
			},
			{
				"type": "unocc",
				"energy": 0.09142,
				"method": "rhf"
			}
		],
		"cosmo_sigma_profile": { 
			"-0.025": 0.0,
			"-0.024": 0.0,
			"-0.023": 0.0,
			"-0.022": 0.0,
			"-0.021": 0.0,
			"-0.02": 0.0,
			"-0.019": 0.0,
			"-0.018": 0.0,
			"-0.017": 0.0,
			"-0.016": 0.0,
			"-0.015": 0.238604199808,
			"-0.014": 2.62667453697,
			"-0.013": 2.46771844689,
			"-0.012": 3.19710267053,
			"-0.011": 2.63706724445,
			"-0.01": 2.02655311742,
			"-0.009": 1.97763460618,
			"-0.008": 1.74806380832,
			"-0.007": 3.61903345403,
			"-0.006": 12.5368050965,
			"-0.005": 17.3526384357,
			"-0.004": 18.0421422092,
			"-0.003": 16.6168616021,
			"-0.002": 10.620688941,
			"-0.001": 9.92908845079,
			"0.0": 9.34887181317,
			"0.001": 8.41276444786,
			"0.002": 15.2857770333,
			"0.003": 20.189973018,
			"0.004": 18.7556883697,
			"0.005": 16.1986360046,
			"0.006": 6.30300331136,
			"0.007": 5.09008789244,
			"0.008": 4.42211990265,
			"0.009": 5.48285254333,
			"0.01": 2.85866311646,
			"0.011": 2.52336430111,
			"0.012": 1.56856204831,
			"0.013": 1.65064432737,
			"0.014": 1.17714977474,
			"0.015": 0.219414487805,
			"0.016": 0.0,
			"0.017": 0.0,
			"0.018": 0.0,
			"0.019": 0.0,
			"0.02": 0.0,
			"0.021": 0.0,
			"0.022": 0.0,
			"0.023": 0.0,
			"0.024": 0.0,
			"0.025": 0.0
		}
	}
}
