{
	 "smiles": "CC=CC=CC", 
	 "Tm": 194.15, 
	 "num_atms": 16, 
	 "gaussian": { 
		 "optdone": 1, 
		 "sigma_profile": "yes", 
		 "theory": "DFT", 
		 "functional": "B3LYP", 
		 "basiset": "6-31G**", 
		 "properties": { 
			 "R2extent": 1265.3745, 
			 "electric_dipole_moment_norm": 0.23901548067, 
			 "electric_quadrupole_moment_norm": 2.94105402535, 
			 "total_energy": -234.636259619, 
			 "HOMO_LUMO_gap": 0.20023, 
			 "cosmo_polarized_energy": -2.34, 
			 "cosmo_cavitation_energy": 19.39, 
			 "cosmo_dispersion_energy": -14.05, 
			 "cosmo_repulsion_energy": 1.24, 
			 "cosmo_total_nonelectrostatic_energy": 6.58, 
			 "SMD_solvation_energy": 4.03 
		},
		"coords": [
			{
				"x": 3.0633386803,
				"y": 0.5429031555,
				"z": 0.83054569,
				"element": "C" 
			},
			{
				"x": 1.8226663888,
				"y": -0.2999423838,
				"z": 0.8389010836,
				"element": "C" 
			},
			{
				"x": 1.4773411124,
				"y": -1.1675682048,
				"z": -0.1252638926,
				"element": "C" 
			},
			{
				"x": 0.2565672564,
				"y": -1.9814160057,
				"z": -0.1643695975,
				"element": "C" 
			},
			{
				"x": -0.9305052007,
				"y": -1.6585404025,
				"z": 0.3725171815,
				"element": "C" 
			},
			{
				"x": -2.1506427994,
				"y": -2.5304297138,
				"z": 0.3441017716,
				"element": "C" 
			},
			{
				"x": 3.6845740191,
				"y": 0.3504829886,
				"z": 1.7150819914,
				"element": "H" 
			},
			{
				"x": 2.8178148489,
				"y": 1.6131089516,
				"z": 0.851771045,
				"element": "H" 
			},
			{
				"x": 3.6717775078,
				"y": 0.3555778352,
				"z": -0.0596387437,
				"element": "H" 
			},
			{
				"x": 1.1703565038,
				"y": -0.191321034,
				"z": 1.7057996784,
				"element": "H" 
			},
			{
				"x": 2.1674018543,
				"y": -1.309257509,
				"z": -0.9587842515,
				"element": "H" 
			},
			{
				"x": 0.3356529144,
				"y": -2.9275397576,
				"z": -0.7025360936,
				"element": "H" 
			},
			{
				"x": -1.0392607564,
				"y": -0.6907761986,
				"z": 0.8628467228,
				"element": "H" 
			},
			{
				"x": -1.96266702,
				"y": -3.469366651,
				"z": -0.1857692452,
				"element": "H" 
			},
			{
				"x": -2.4867709065,
				"y": -2.7781672271,
				"z": 1.359834798,
				"element": "H" 
			},
			{
				"x": -2.9931444031,
				"y": -2.0249478431,
				"z": -0.1458381381,
				"element": "H" 
			}
		],
		 "valence_orbital": [ 
			{
				"type": "occ",
				"energy": -0.36556,
				"method": "rhf"
			},
			{
				"type": "occ",
				"energy": -0.34047,
				"method": "rhf"
			},
			{
				"type": "occ",
				"energy": -0.33532,
				"method": "rhf"
			},
			{
				"type": "occ",
				"energy": -0.28851,
				"method": "rhf"
			},
			{
				"type": "occ",
				"energy": -0.21081,
				"method": "rhf"
			},
			{
				"type": "unocc",
				"energy": -0.01058,
				"method": "rhf"
			},
			{
				"type": "unocc",
				"energy": 0.08697,
				"method": "rhf"
			},
			{
				"type": "unocc",
				"energy": 0.11571,
				"method": "rhf"
			},
			{
				"type": "unocc",
				"energy": 0.12002,
				"method": "rhf"
			},
			{
				"type": "unocc",
				"energy": 0.12308,
				"method": "rhf"
			}
		],
		"cosmo_sigma_profile": { 
			"-0.025": 0.0,
			"-0.024": 0.0,
			"-0.023": 0.0,
			"-0.022": 0.0,
			"-0.021": 0.0,
			"-0.02": 0.0,
			"-0.019": 0.0,
			"-0.018": 0.0,
			"-0.017": 0.0,
			"-0.016": 0.0,
			"-0.015": 0.0,
			"-0.014": 0.0,
			"-0.013": 0.0,
			"-0.012": 0.0,
			"-0.011": 0.0,
			"-0.01": 0.0,
			"-0.009": 0.0,
			"-0.008": 0.0,
			"-0.007": 0.0,
			"-0.006": 0.0,
			"-0.005": 0.34059700841,
			"-0.004": 12.6399069716,
			"-0.003": 22.5458501293,
			"-0.002": 19.7641271263,
			"-0.001": 21.6754474737,
			"0.0": 22.0568670126,
			"0.001": 15.5624397147,
			"0.002": 7.14825569998,
			"0.003": 6.91230775539,
			"0.004": 6.61817189693,
			"0.005": 4.69790761435,
			"0.006": 6.58273033279,
			"0.007": 5.2327331085,
			"0.008": 0.418441103421,
			"0.009": 0.0,
			"0.01": 0.0,
			"0.011": 0.0,
			"0.012": 0.0,
			"0.013": 0.0,
			"0.014": 0.0,
			"0.015": 0.0,
			"0.016": 0.0,
			"0.017": 0.0,
			"0.018": 0.0,
			"0.019": 0.0,
			"0.02": 0.0,
			"0.021": 0.0,
			"0.022": 0.0,
			"0.023": 0.0,
			"0.024": 0.0,
			"0.025": 0.0
		}
	}
}
