{
	 "smiles": "CCCCCCCCCCCCCCCCCC(=O)OCCC(C)C", 
	 "Tm": 298.65, 
	 "num_atms": 71, 
	 "gaussian": { 
		 "optdone": 1, 
		 "sigma_profile": "yes", 
		 "theory": "DFT", 
		 "functional": "B3LYP", 
		 "basiset": "6-31G**", 
		 "properties": { 
			 "R2extent": 25209.0817, 
			 "electric_dipole_moment_norm": 1.51068435154, 
			 "electric_quadrupole_moment_norm": 8.00432291952, 
			 "total_energy": -1054.70405594, 
			 "HOMO_LUMO_gap": 0.28265, 
			 "cosmo_polarized_energy": -6.94, 
			 "cosmo_cavitation_energy": 68.83, 
			 "cosmo_dispersion_energy": -46.22, 
			 "cosmo_repulsion_energy": 3.73, 
			 "cosmo_total_nonelectrostatic_energy": 26.34, 
			 "SMD_solvation_energy": 9.86 
		},
		"coords": [
			{
				"x": -6.6191381337,
				"y": -5.1582710997,
				"z": 3.2250569165,
				"element": "C" 
			},
			{
				"x": -5.0884070638,
				"y": -5.1157141693,
				"z": 3.3073367845,
				"element": "C" 
			},
			{
				"x": -4.3691366642,
				"y": -5.4702591574,
				"z": 1.9951654513,
				"element": "C" 
			},
			{
				"x": -4.5866364701,
				"y": -4.4691938766,
				"z": 0.851924717,
				"element": "C" 
			},
			{
				"x": -3.8033182057,
				"y": -4.8212993627,
				"z": -0.4199920889,
				"element": "C" 
			},
			{
				"x": -4.0186647591,
				"y": -3.8181106732,
				"z": -1.5616505499,
				"element": "C" 
			},
			{
				"x": -3.3215158116,
				"y": -4.1880621862,
				"z": -2.8830833804,
				"element": "C" 
			},
			{
				"x": -1.7839414981,
				"y": -4.2464049247,
				"z": -2.8436729637,
				"element": "C" 
			},
			{
				"x": -1.0994013133,
				"y": -2.9099681105,
				"z": -2.5248811532,
				"element": "C" 
			},
			{
				"x": 0.4318640563,
				"y": -2.9836322718,
				"z": -2.5881817763,
				"element": "C" 
			},
			{
				"x": 1.1253713172,
				"y": -1.6530397512,
				"z": -2.2676461288,
				"element": "C" 
			},
			{
				"x": 2.65659683,
				"y": -1.7360203555,
				"z": -2.3369004128,
				"element": "C" 
			},
			{
				"x": 3.3833902701,
				"y": -0.398618923,
				"z": -2.1071345538,
				"element": "C" 
			},
			{
				"x": 3.2082116426,
				"y": 0.2395068471,
				"z": -0.7164489329,
				"element": "C" 
			},
			{
				"x": 3.8304702514,
				"y": -0.5735203308,
				"z": 0.4286307985,
				"element": "C" 
			},
			{
				"x": 3.6221249572,
				"y": 0.0088397537,
				"z": 1.8372715175,
				"element": "C" 
			},
			{
				"x": 4.2121115764,
				"y": 1.4131099806,
				"z": 2.0499252498,
				"element": "C" 
			},
			{
				"x": 3.3037293472,
				"y": 2.529295703,
				"z": 1.5672345793,
				"element": "C" 
			},
			{
				"x": 2.0917680755,
				"y": 2.5152728456,
				"z": 1.6334185749,
				"element": "O" 
			},
			{
				"x": 4.0206039236,
				"y": 3.5692491518,
				"z": 1.0810336507,
				"element": "O" 
			},
			{
				"x": 3.2695488578,
				"y": 4.7309280288,
				"z": 0.6519008915,
				"element": "C" 
			},
			{
				"x": 3.0213341512,
				"y": 5.6831611234,
				"z": 1.8188542566,
				"element": "C" 
			},
			{
				"x": 2.4093297015,
				"y": 7.0362764644,
				"z": 1.4043267864,
				"element": "C" 
			},
			{
				"x": 2.36271923,
				"y": 7.9879070001,
				"z": 2.6090806255,
				"element": "C" 
			},
			{
				"x": 1.012310068,
				"y": 6.8840288885,
				"z": 0.781204378,
				"element": "C" 
			},
			{
				"x": -7.0722404147,
				"y": -4.9483304255,
				"z": 4.1996745985,
				"element": "H" 
			},
			{
				"x": -6.9689050703,
				"y": -6.1461753804,
				"z": 2.9026075647,
				"element": "H" 
			},
			{
				"x": -7.0115913427,
				"y": -4.4216442078,
				"z": 2.5165919961,
				"element": "H" 
			},
			{
				"x": -4.7678739867,
				"y": -4.1172637321,
				"z": 3.6355733234,
				"element": "H" 
			},
			{
				"x": -4.7557052355,
				"y": -5.811441074,
				"z": 4.0884313991,
				"element": "H" 
			},
			{
				"x": -3.2913887603,
				"y": -5.5483623322,
				"z": 2.1939348385,
				"element": "H" 
			},
			{
				"x": -4.6889969053,
				"y": -6.4701254441,
				"z": 1.6671877384,
				"element": "H" 
			},
			{
				"x": -5.6550480539,
				"y": -4.4062871391,
				"z": 0.6064183668,
				"element": "H" 
			},
			{
				"x": -4.2938441411,
				"y": -3.4649835586,
				"z": 1.1918252876,
				"element": "H" 
			},
			{
				"x": -2.7348994405,
				"y": -4.8863052421,
				"z": -0.1739703378,
				"element": "H" 
			},
			{
				"x": -4.0966637595,
				"y": -5.8251384258,
				"z": -0.7606318237,
				"element": "H" 
			},
			{
				"x": -3.694901814,
				"y": -2.8212357494,
				"z": -1.2336963319,
				"element": "H" 
			},
			{
				"x": -5.0966998838,
				"y": -3.7307927446,
				"z": -1.7546720756,
				"element": "H" 
			},
			{
				"x": -3.6249089976,
				"y": -3.4656425613,
				"z": -3.6533498791,
				"element": "H" 
			},
			{
				"x": -3.7007204179,
				"y": -5.1633139602,
				"z": -3.2183449779,
				"element": "H" 
			},
			{
				"x": -1.4562758025,
				"y": -5.0032565076,
				"z": -2.1183428787,
				"element": "H" 
			},
			{
				"x": -1.4283466618,
				"y": -4.5997001178,
				"z": -3.8213346625,
				"element": "H" 
			},
			{
				"x": -1.3985722922,
				"y": -2.5639397603,
				"z": -1.5264863228,
				"element": "H" 
			},
			{
				"x": -1.4553280664,
				"y": -2.1441140628,
				"z": -3.2294108954,
				"element": "H" 
			},
			{
				"x": 0.7378953192,
				"y": -3.3209747086,
				"z": -3.5889960986,
				"element": "H" 
			},
			{
				"x": 0.7866926397,
				"y": -3.7548940496,
				"z": -1.8892243481,
				"element": "H" 
			},
			{
				"x": 0.8121542594,
				"y": -1.3187411703,
				"z": -1.2697063435,
				"element": "H" 
			},
			{
				"x": 0.7735163868,
				"y": -0.8820824677,
				"z": -2.9685861245,
				"element": "H" 
			},
			{
				"x": 2.9440696683,
				"y": -2.1167849753,
				"z": -3.3265593991,
				"element": "H" 
			},
			{
				"x": 3.0116753279,
				"y": -2.4866774467,
				"z": -1.6179582043,
				"element": "H" 
			},
			{
				"x": 4.4563387048,
				"y": -0.5445917305,
				"z": -2.2945720126,
				"element": "H" 
			},
			{
				"x": 3.0404002824,
				"y": 0.3184263471,
				"z": -2.8654947204,
				"element": "H" 
			},
			{
				"x": 3.6712276015,
				"y": 1.2343304384,
				"z": -0.7458015802,
				"element": "H" 
			},
			{
				"x": 2.1453709407,
				"y": 0.412288766,
				"z": -0.50783035,
				"element": "H" 
			},
			{
				"x": 4.9087846742,
				"y": -0.685047474,
				"z": 0.2411749773,
				"element": "H" 
			},
			{
				"x": 3.4182611384,
				"y": -1.5903003236,
				"z": 0.4237642849,
				"element": "H" 
			},
			{
				"x": 2.5527522654,
				"y": 0.0502506967,
				"z": 2.0730871643,
				"element": "H" 
			},
			{
				"x": 4.0798768284,
				"y": -0.6724992024,
				"z": 2.5638538893,
				"element": "H" 
			},
			{
				"x": 4.3522786199,
				"y": 1.5918190809,
				"z": 3.1245831749,
				"element": "H" 
			},
			{
				"x": 5.1979596862,
				"y": 1.5192234413,
				"z": 1.5868023334,
				"element": "H" 
			},
			{
				"x": 2.3356577732,
				"y": 4.3932399839,
				"z": 0.1985304438,
				"element": "H" 
			},
			{
				"x": 3.8982921628,
				"y": 5.1983296255,
				"z": -0.1114992822,
				"element": "H" 
			},
			{
				"x": 2.3627136774,
				"y": 5.188290265,
				"z": 2.543424478,
				"element": "H" 
			},
			{
				"x": 3.9801358256,
				"y": 5.8591485686,
				"z": 2.3225188318,
				"element": "H" 
			},
			{
				"x": 3.0710695461,
				"y": 7.4861895043,
				"z": 0.6481623865,
				"element": "H" 
			},
			{
				"x": 1.9655583382,
				"y": 8.9678584986,
				"z": 2.3234887739,
				"element": "H" 
			},
			{
				"x": 1.7174904935,
				"y": 7.5857163365,
				"z": 3.3994520371,
				"element": "H" 
			},
			{
				"x": 3.3589885938,
				"y": 8.1407720864,
				"z": 3.0380584279,
				"element": "H" 
			},
			{
				"x": 1.0271810254,
				"y": 6.2800523725,
				"z": -0.131442379,
				"element": "H" 
			},
			{
				"x": 0.5944506435,
				"y": 7.8622136543,
				"z": 0.5198997888,
				"element": "H" 
			},
			{
				"x": 0.3222942877,
				"y": 6.4039357141,
				"z": 1.4853916854,
				"element": "H" 
			}
		],
		 "valence_orbital": [ 
			{
				"type": "occ",
				"energy": -0.30313,
				"method": "rhf"
			},
			{
				"type": "occ",
				"energy": -0.2934,
				"method": "rhf"
			},
			{
				"type": "occ",
				"energy": -0.29123,
				"method": "rhf"
			},
			{
				"type": "occ",
				"energy": -0.28828,
				"method": "rhf"
			},
			{
				"type": "occ",
				"energy": -0.26564,
				"method": "rhf"
			},
			{
				"type": "unocc",
				"energy": 0.01701,
				"method": "rhf"
			},
			{
				"type": "unocc",
				"energy": 0.08113,
				"method": "rhf"
			},
			{
				"type": "unocc",
				"energy": 0.08186,
				"method": "rhf"
			},
			{
				"type": "unocc",
				"energy": 0.08644,
				"method": "rhf"
			},
			{
				"type": "unocc",
				"energy": 0.09562,
				"method": "rhf"
			}
		],
		"cosmo_sigma_profile": { 
			"-0.025": 0.0,
			"-0.024": 0.0,
			"-0.023": 0.0,
			"-0.022": 0.0,
			"-0.021": 0.0,
			"-0.02": 0.0,
			"-0.019": 0.0,
			"-0.018": 0.0,
			"-0.017": 0.0,
			"-0.016": 0.0,
			"-0.015": 0.0,
			"-0.014": 0.0,
			"-0.013": 0.0,
			"-0.012": 0.0,
			"-0.011": 0.0,
			"-0.01": 0.0,
			"-0.009": 0.0,
			"-0.008": 0.0,
			"-0.007": 0.108257018241,
			"-0.006": 2.29740584614,
			"-0.005": 6.11880453937,
			"-0.004": 10.0065851026,
			"-0.003": 23.2833305051,
			"-0.002": 74.6817992065,
			"-0.001": 116.518068287,
			"0.0": 119.148703479,
			"0.001": 97.8293757332,
			"0.002": 43.5014477858,
			"0.003": 5.0402574103,
			"0.004": 3.06340336062,
			"0.005": 4.03088741406,
			"0.006": 3.83781942557,
			"0.007": 2.33405040846,
			"0.008": 3.2655019575,
			"0.009": 2.33420560433,
			"0.01": 1.38007080654,
			"0.011": 2.08663028026,
			"0.012": 3.43879330104,
			"0.013": 1.93061457753,
			"0.014": 0.0,
			"0.015": 0.0,
			"0.016": 0.0,
			"0.017": 0.0,
			"0.018": 0.0,
			"0.019": 0.0,
			"0.02": 0.0,
			"0.021": 0.0,
			"0.022": 0.0,
			"0.023": 0.0,
			"0.024": 0.0,
			"0.025": 0.0
		}
	}
}
