{
	 "smiles": "CC(=O)C1=CC=C(C=O)C=C1", 
	 "Tm": 306.15, 
	 "num_atms": 19, 
	 "gaussian": { 
		 "optdone": 1, 
		 "sigma_profile": "yes", 
		 "theory": "DFT", 
		 "functional": "B3LYP", 
		 "basiset": "6-31G**", 
		 "properties": { 
			 "R2extent": 2647.6602, 
			 "electric_dipole_moment_norm": 1.1424240106, 
			 "electric_quadrupole_moment_norm": 21.7132786331, 
			 "total_energy": -498.220955652, 
			 "HOMO_LUMO_gap": 0.16947, 
			 "cosmo_polarized_energy": -11.0, 
			 "cosmo_cavitation_energy": 23.9, 
			 "cosmo_dispersion_energy": -17.23, 
			 "cosmo_repulsion_energy": 1.37, 
			 "cosmo_total_nonelectrostatic_energy": 8.04, 
			 "SMD_solvation_energy": 5.93 
		},
		"coords": [
			{
				"x": 0.4128148408,
				"y": 2.2256342706,
				"z": 1.5155475692,
				"element": "C" 
			},
			{
				"x": 1.1672898236,
				"y": 1.7055996923,
				"z": 0.3055691433,
				"element": "C" 
			},
			{
				"x": 1.7855380208,
				"y": 2.4672129519,
				"z": -0.4213562647,
				"element": "O" 
			},
			{
				"x": 1.1423074054,
				"y": 0.2302556383,
				"z": 0.0108718181,
				"element": "C" 
			},
			{
				"x": 1.8469136568,
				"y": -0.2262525494,
				"z": -1.1138516931,
				"element": "C" 
			},
			{
				"x": 1.8567665396,
				"y": -1.5793395651,
				"z": -1.4316253592,
				"element": "C" 
			},
			{
				"x": 1.16228647,
				"y": -2.4961190892,
				"z": -0.6295421981,
				"element": "C" 
			},
			{
				"x": 1.1751595042,
				"y": -3.939389452,
				"z": -0.9718264054,
				"element": "C" 
			},
			{
				"x": 0.6023222796,
				"y": -4.801674709,
				"z": -0.3342616115,
				"element": "O" 
			},
			{
				"x": 0.4566367989,
				"y": -2.0457286547,
				"z": 0.4953722524,
				"element": "C" 
			},
			{
				"x": 0.4472869174,
				"y": -0.6924294657,
				"z": 0.8124174149,
				"element": "C" 
			},
			{
				"x": 0.5427070656,
				"y": 3.3066976881,
				"z": 1.5693451928,
				"element": "H" 
			},
			{
				"x": 0.7865891363,
				"y": 1.768158018,
				"z": 2.438271633,
				"element": "H" 
			},
			{
				"x": -0.6549700757,
				"y": 1.9908900391,
				"z": 1.4437278775,
				"element": "H" 
			},
			{
				"x": 2.3758361517,
				"y": 0.5031446133,
				"z": -1.717621842,
				"element": "H" 
			},
			{
				"x": 2.4025592631,
				"y": -1.9338039291,
				"z": -2.3030132081,
				"element": "H" 
			},
			{
				"x": 1.7622333458,
				"y": -4.1951144301,
				"z": -1.8813896832,
				"element": "H" 
			},
			{
				"x": -0.0733305878,
				"y": -2.7737599339,
				"z": 1.1011299247,
				"element": "H" 
			},
			{
				"x": -0.1018465561,
				"y": -0.3544811334,
				"z": 1.6850354393,
				"element": "H" 
			}
		],
		 "valence_orbital": [ 
			{
				"type": "occ",
				"energy": -0.35875,
				"method": "rhf"
			},
			{
				"type": "occ",
				"energy": -0.27833,
				"method": "rhf"
			},
			{
				"type": "occ",
				"energy": -0.27196,
				"method": "rhf"
			},
			{
				"type": "occ",
				"energy": -0.26478,
				"method": "rhf"
			},
			{
				"type": "occ",
				"energy": -0.25988,
				"method": "rhf"
			},
			{
				"type": "unocc",
				"energy": -0.09041,
				"method": "rhf"
			},
			{
				"type": "unocc",
				"energy": -0.02617,
				"method": "rhf"
			},
			{
				"type": "unocc",
				"energy": -0.01952,
				"method": "rhf"
			},
			{
				"type": "unocc",
				"energy": 0.05537,
				"method": "rhf"
			},
			{
				"type": "unocc",
				"energy": 0.08517,
				"method": "rhf"
			}
		],
		"cosmo_sigma_profile": { 
			"-0.025": 0.0,
			"-0.024": 0.0,
			"-0.023": 0.0,
			"-0.022": 0.0,
			"-0.021": 0.0,
			"-0.02": 0.0,
			"-0.019": 0.0,
			"-0.018": 0.0,
			"-0.017": 0.0,
			"-0.016": 0.0,
			"-0.015": 0.0,
			"-0.014": 0.0,
			"-0.013": 0.0,
			"-0.012": 0.0,
			"-0.011": 0.0,
			"-0.01": 0.0,
			"-0.009": 0.00847625767944,
			"-0.008": 2.75722499709,
			"-0.007": 10.6215054901,
			"-0.006": 17.3926783052,
			"-0.005": 15.5034781977,
			"-0.004": 13.485815807,
			"-0.003": 12.8057844751,
			"-0.002": 13.6253218033,
			"-0.001": 14.6340565196,
			"0.0": 12.2328425408,
			"0.001": 15.9666796103,
			"0.002": 17.3927327887,
			"0.003": 5.38196468035,
			"0.004": 3.40978322721,
			"0.005": 3.59127818112,
			"0.006": 2.79873688834,
			"0.007": 2.97672494684,
			"0.008": 3.79769031943,
			"0.009": 3.72769117029,
			"0.01": 5.57510243894,
			"0.011": 7.70880348267,
			"0.012": 4.88661692041,
			"0.013": 0.999451988813,
			"0.014": 0.0,
			"0.015": 0.0,
			"0.016": 0.0,
			"0.017": 0.0,
			"0.018": 0.0,
			"0.019": 0.0,
			"0.02": 0.0,
			"0.021": 0.0,
			"0.022": 0.0,
			"0.023": 0.0,
			"0.024": 0.0,
			"0.025": 0.0
		}
	}
}
