{
	 "smiles": "NC(=O)C1=CC(=CN1)S(=O)(=O)NCC(O)=O", 
	 "Tm": 553.15, 
	 "num_atms": 25, 
	 "gaussian": { 
		 "optdone": 1, 
		 "sigma_profile": "yes", 
		 "theory": "DFT", 
		 "functional": "B3LYP", 
		 "basiset": "6-31G**", 
		 "properties": { 
			 "R2extent": 5596.9433, 
			 "electric_dipole_moment_norm": 8.09460067144, 
			 "electric_quadrupole_moment_norm": 22.1924737235, 
			 "total_energy": -1210.67564452, 
			 "HOMO_LUMO_gap": 0.20894, 
			 "cosmo_polarized_energy": -33.08, 
			 "cosmo_cavitation_energy": 32.76, 
			 "cosmo_dispersion_energy": -23.79, 
			 "cosmo_repulsion_energy": 1.86, 
			 "cosmo_total_nonelectrostatic_energy": 10.83, 
			 "SMD_solvation_energy": 6.54 
		},
		"coords": [
			{
				"x": -4.4735145453,
				"y": -1.0713794051,
				"z": 0.3356396102,
				"element": "N" 
			},
			{
				"x": -3.338394294,
				"y": -1.8365079923,
				"z": 0.0902811886,
				"element": "C" 
			},
			{
				"x": -3.3958612575,
				"y": -3.0089055362,
				"z": -0.246446305,
				"element": "O" 
			},
			{
				"x": -2.0561034999,
				"y": -1.1415991916,
				"z": 0.3187045678,
				"element": "C" 
			},
			{
				"x": -0.7972490648,
				"y": -1.4893629864,
				"z": -0.1273547933,
				"element": "C" 
			},
			{
				"x": 0.0913841066,
				"y": -0.4869419921,
				"z": 0.3421665067,
				"element": "C" 
			},
			{
				"x": -0.6353136233,
				"y": 0.4340886254,
				"z": 1.0787625693,
				"element": "C" 
			},
			{
				"x": -1.9373941557,
				"y": 0.0388146013,
				"z": 1.0425135614,
				"element": "N" 
			},
			{
				"x": 1.8390321498,
				"y": -0.4040569331,
				"z": 0.1431295022,
				"element": "S" 
			},
			{
				"x": 2.4428028149,
				"y": -1.686436794,
				"z": 0.5049794109,
				"element": "O" 
			},
			{
				"x": 2.2640875317,
				"y": 0.8502917204,
				"z": 0.7827687815,
				"element": "O" 
			},
			{
				"x": 2.0240154913,
				"y": -0.3006714108,
				"z": -1.5310934902,
				"element": "N" 
			},
			{
				"x": 2.0598197909,
				"y": 1.0220551428,
				"z": -2.1432703461,
				"element": "C" 
			},
			{
				"x": 3.0371568339,
				"y": 1.0029702455,
				"z": -3.3014487159,
				"element": "C" 
			},
			{
				"x": 2.9580099187,
				"y": 2.1332347935,
				"z": -4.0285274965,
				"element": "O" 
			},
			{
				"x": 3.8053018448,
				"y": 0.0982088108,
				"z": -3.5423114588,
				"element": "O" 
			},
			{
				"x": -5.3318015358,
				"y": -1.5429326023,
				"z": 0.0790533495,
				"element": "H" 
			},
			{
				"x": -4.4469983895,
				"y": -0.093087773,
				"z": 0.0798436651,
				"element": "H" 
			},
			{
				"x": -0.5604438306,
				"y": -2.351010372,
				"z": -0.7323739315,
				"element": "H" 
			},
			{
				"x": -0.2985358654,
				"y": 1.3066903983,
				"z": 1.6164903861,
				"element": "H" 
			},
			{
				"x": -2.6775631179,
				"y": 0.4364162251,
				"z": 1.6015444848,
				"element": "H" 
			},
			{
				"x": 2.8184884758,
				"y": -0.875745376,
				"z": -1.814294238,
				"element": "H" 
			},
			{
				"x": 1.0730293869,
				"y": 1.3168751787,
				"z": -2.5178170539,
				"element": "H" 
			},
			{
				"x": 2.3891697415,
				"y": 1.7956716323,
				"z": -1.4360154289,
				"element": "H" 
			},
			{
				"x": 3.6261750927,
				"y": 2.0615209908,
				"z": -4.731124326,
				"element": "H" 
			}
		],
		 "valence_orbital": [ 
			{
				"type": "occ",
				"energy": -0.29405,
				"method": "rhf"
			},
			{
				"type": "occ",
				"energy": -0.2917,
				"method": "rhf"
			},
			{
				"type": "occ",
				"energy": -0.26827,
				"method": "rhf"
			},
			{
				"type": "occ",
				"energy": -0.26476,
				"method": "rhf"
			},
			{
				"type": "occ",
				"energy": -0.24733,
				"method": "rhf"
			},
			{
				"type": "unocc",
				"energy": -0.03839,
				"method": "rhf"
			},
			{
				"type": "unocc",
				"energy": -0.01007,
				"method": "rhf"
			},
			{
				"type": "unocc",
				"energy": 0.00232,
				"method": "rhf"
			},
			{
				"type": "unocc",
				"energy": 0.03729,
				"method": "rhf"
			},
			{
				"type": "unocc",
				"energy": 0.057,
				"method": "rhf"
			}
		],
		"cosmo_sigma_profile": { 
			"-0.025": 0.0,
			"-0.024": 0.0,
			"-0.023": 0.0,
			"-0.022": 0.0,
			"-0.021": 0.0,
			"-0.02": 0.0,
			"-0.019": 0.736579275643,
			"-0.018": 1.07814184667,
			"-0.017": 2.06605800681,
			"-0.016": 2.68669471319,
			"-0.015": 3.02401730552,
			"-0.014": 3.58143183484,
			"-0.013": 3.99860083739,
			"-0.012": 4.63329907775,
			"-0.011": 4.49332896641,
			"-0.01": 6.08440386693,
			"-0.009": 5.47734623517,
			"-0.008": 9.29114297329,
			"-0.007": 10.4028049786,
			"-0.006": 9.4852802716,
			"-0.005": 10.0854412383,
			"-0.004": 11.6368166909,
			"-0.003": 8.57935441213,
			"-0.002": 11.705313002,
			"-0.001": 13.1659380816,
			"0.0": 12.0424364161,
			"0.001": 14.7292431373,
			"0.002": 10.974273191,
			"0.003": 10.5440949813,
			"0.004": 10.2999103051,
			"0.005": 8.87357638118,
			"0.006": 7.37604211964,
			"0.007": 7.74424325941,
			"0.008": 8.08489432482,
			"0.009": 8.70772413893,
			"0.01": 12.4257534393,
			"0.011": 13.2994708071,
			"0.012": 6.11734600904,
			"0.013": 5.58808428973,
			"0.014": 1.56835043636,
			"0.015": 0.0,
			"0.016": 0.0,
			"0.017": 0.0,
			"0.018": 0.0,
			"0.019": 0.0,
			"0.02": 0.0,
			"0.021": 0.0,
			"0.022": 0.0,
			"0.023": 0.0,
			"0.024": 0.0,
			"0.025": 0.0
		}
	}
}
