{
	 "smiles": "OCN1C(=O)C(=O)C2=C1C=CC=C2", 
	 "Tm": 431.15, 
	 "num_atms": 20, 
	 "gaussian": { 
		 "optdone": 1, 
		 "sigma_profile": "yes", 
		 "theory": "DFT", 
		 "functional": "B3LYP", 
		 "basiset": "6-31G**", 
		 "properties": { 
			 "R2extent": 2402.9095, 
			 "electric_dipole_moment_norm": 5.95835108902, 
			 "electric_quadrupole_moment_norm": 17.4408291595, 
			 "total_energy": -627.58650908, 
			 "HOMO_LUMO_gap": 0.14155, 
			 "cosmo_polarized_energy": -16.71, 
			 "cosmo_cavitation_energy": 25.1, 
			 "cosmo_dispersion_energy": -18.27, 
			 "cosmo_repulsion_energy": 1.44, 
			 "cosmo_total_nonelectrostatic_energy": 8.27, 
			 "SMD_solvation_energy": 5.72 
		},
		"coords": [
			{
				"x": 0.7808642802,
				"y": 3.1912761897,
				"z": -1.7276224353,
				"element": "O" 
			},
			{
				"x": 1.6075424993,
				"y": 2.0412307939,
				"z": -1.7843080525,
				"element": "C" 
			},
			{
				"x": 0.8189156375,
				"y": 0.8930843672,
				"z": -1.436955326,
				"element": "N" 
			},
			{
				"x": 0.490421511,
				"y": -0.1173665553,
				"z": -2.3390932077,
				"element": "C" 
			},
			{
				"x": 0.826381197,
				"y": -0.1846205305,
				"z": -3.5002354088,
				"element": "O" 
			},
			{
				"x": -0.3648255008,
				"y": -1.1459262484,
				"z": -1.5239683068,
				"element": "C" 
			},
			{
				"x": -0.8202387716,
				"y": -2.1717984865,
				"z": -1.9810078157,
				"element": "O" 
			},
			{
				"x": -0.4519672327,
				"y": -0.5762043917,
				"z": -0.1723592887,
				"element": "C" 
			},
			{
				"x": 0.2507671896,
				"y": 0.6445244566,
				"z": -0.1712183764,
				"element": "C" 
			},
			{
				"x": 0.3191221525,
				"y": 1.431885221,
				"z": 0.9719286505,
				"element": "C" 
			},
			{
				"x": -0.3181126189,
				"y": 0.9519977702,
				"z": 2.1240321358,
				"element": "C" 
			},
			{
				"x": -1.0104596449,
				"y": -0.2657650335,
				"z": 2.1385385714,
				"element": "C" 
			},
			{
				"x": -1.0860600314,
				"y": -1.0385369824,
				"z": 0.9779198312,
				"element": "C" 
			},
			{
				"x": 1.3050807528,
				"y": 3.949795996,
				"z": -2.0169964766,
				"element": "H" 
			},
			{
				"x": 1.9938346904,
				"y": 1.848231252,
				"z": -2.7921388775,
				"element": "H" 
			},
			{
				"x": 2.4493838732,
				"y": 2.1249681643,
				"z": -1.0791738798,
				"element": "H" 
			},
			{
				"x": 0.8185371561,
				"y": 2.3936294901,
				"z": 0.9651527425,
				"element": "H" 
			},
			{
				"x": -0.2784526175,
				"y": 1.5505309091,
				"z": 3.0297289635,
				"element": "H" 
			},
			{
				"x": -1.4935964561,
				"y": -0.6006066385,
				"z": 3.0506151365,
				"element": "H" 
			},
			{
				"x": -1.6235380657,
				"y": -1.9816297433,
				"z": 0.9545614206,
				"element": "H" 
			}
		],
		 "valence_orbital": [ 
			{
				"type": "occ",
				"energy": -0.3105,
				"method": "rhf"
			},
			{
				"type": "occ",
				"energy": -0.29376,
				"method": "rhf"
			},
			{
				"type": "occ",
				"energy": -0.27474,
				"method": "rhf"
			},
			{
				"type": "occ",
				"energy": -0.24651,
				"method": "rhf"
			},
			{
				"type": "occ",
				"energy": -0.23716,
				"method": "rhf"
			},
			{
				"type": "unocc",
				"energy": -0.09561,
				"method": "rhf"
			},
			{
				"type": "unocc",
				"energy": -0.01944,
				"method": "rhf"
			},
			{
				"type": "unocc",
				"energy": 0.00468,
				"method": "rhf"
			},
			{
				"type": "unocc",
				"energy": 0.05664,
				"method": "rhf"
			},
			{
				"type": "unocc",
				"energy": 0.08698,
				"method": "rhf"
			}
		],
		"cosmo_sigma_profile": { 
			"-0.025": 0.0,
			"-0.024": 0.0,
			"-0.023": 0.0,
			"-0.022": 0.0,
			"-0.021": 0.0,
			"-0.02": 0.0,
			"-0.019": 0.0,
			"-0.018": 0.00427525368674,
			"-0.017": 0.749853204054,
			"-0.016": 1.56833255448,
			"-0.015": 0.822194142072,
			"-0.014": 0.745343470165,
			"-0.013": 0.963114770016,
			"-0.012": 1.47428250776,
			"-0.011": 0.725042245827,
			"-0.01": 0.822886779063,
			"-0.009": 1.13119268781,
			"-0.008": 2.91116632483,
			"-0.007": 11.9338212288,
			"-0.006": 17.2723868602,
			"-0.005": 16.8873689406,
			"-0.004": 11.3381556329,
			"-0.003": 9.85177204747,
			"-0.002": 10.304799873,
			"-0.001": 9.86981562065,
			"0.0": 10.8680851439,
			"0.001": 11.8996616443,
			"0.002": 14.4508012484,
			"0.003": 13.3624547754,
			"0.004": 4.95616240098,
			"0.005": 3.09593845829,
			"0.006": 4.53208444526,
			"0.007": 4.6853930009,
			"0.008": 4.36543234269,
			"0.009": 6.93861275059,
			"0.01": 9.24574687411,
			"0.011": 9.02853120223,
			"0.012": 3.68069190183,
			"0.013": 0.710986648793,
			"0.014": 0.0,
			"0.015": 0.0,
			"0.016": 0.0,
			"0.017": 0.0,
			"0.018": 0.0,
			"0.019": 0.0,
			"0.02": 0.0,
			"0.021": 0.0,
			"0.022": 0.0,
			"0.023": 0.0,
			"0.024": 0.0,
			"0.0": 0.0
		}
	}
}
