{
	 "smiles": "OC(=O)C1CC(=O)C1", 
	 "Tm": 332.15, 
	 "num_atms": 14, 
	 "gaussian": { 
		 "optdone": 1, 
		 "sigma_profile": "yes", 
		 "theory": "DFT", 
		 "functional": "B3LYP", 
		 "basiset": "6-31G**", 
		 "properties": { 
			 "R2extent": 1924.3152, 
			 "electric_dipole_moment_norm": 3.8633318237, 
			 "electric_quadrupole_moment_norm": 14.717101133, 
			 "total_energy": -419.791609258, 
			 "HOMO_LUMO_gap": 0.2261, 
			 "cosmo_polarized_energy": -17.74, 
			 "cosmo_cavitation_energy": 18.45, 
			 "cosmo_dispersion_energy": -13.58, 
			 "cosmo_repulsion_energy": 1.17, 
			 "cosmo_total_nonelectrostatic_energy": 6.04, 
			 "SMD_solvation_energy": 5.05 
		},
		"coords": [
			{
				"x": -1.501819813,
				"y": -1.9365420507,
				"z": -1.6447537999,
				"element": "O" 
			},
			{
				"x": -0.7664049391,
				"y": -2.3839374868,
				"z": -0.5964765467,
				"element": "C" 
			},
			{
				"x": -0.3834320975,
				"y": -3.5285267611,
				"z": -0.5668010124,
				"element": "O" 
			},
			{
				"x": -0.4603611889,
				"y": -1.3886159527,
				"z": 0.5091865384,
				"element": "C" 
			},
			{
				"x": 1.0513736436,
				"y": -1.3009361575,
				"z": 0.9087135693,
				"element": "C" 
			},
			{
				"x": 0.6124707023,
				"y": -1.4631547193,
				"z": 2.3698979535,
				"element": "C" 
			},
			{
				"x": 1.138837603,
				"y": -1.2433875652,
				"z": 3.427768563,
				"element": "O" 
			},
			{
				"x": -0.8006268568,
				"y": -1.8913202774,
				"z": 1.952897791,
				"element": "C" 
			},
			{
				"x": -1.730807011,
				"y": -1.0049269968,
				"z": -1.5224740211,
				"element": "H" 
			},
			{
				"x": -0.8837044585,
				"y": -0.3973392505,
				"z": 0.3188598021,
				"element": "H" 
			},
			{
				"x": 1.5979837558,
				"y": -2.1855008199,
				"z": 0.5634636882,
				"element": "H" 
			},
			{
				"x": 1.6074961789,
				"y": -0.3969721027,
				"z": 0.6479106776,
				"element": "H" 
			},
			{
				"x": -0.9012133933,
				"y": -2.9821537153,
				"z": 1.9726527932,
				"element": "H" 
			},
			{
				"x": -1.6411921256,
				"y": -1.4324861439,
				"z": 2.4795540038,
				"element": "H" 
			}
		],
		 "valence_orbital": [ 
			{
				"type": "occ",
				"energy": -0.36091,
				"method": "rhf"
			},
			{
				"type": "occ",
				"energy": -0.35639,
				"method": "rhf"
			},
			{
				"type": "occ",
				"energy": -0.32462,
				"method": "rhf"
			},
			{
				"type": "occ",
				"energy": -0.28462,
				"method": "rhf"
			},
			{
				"type": "occ",
				"energy": -0.25736,
				"method": "rhf"
			},
			{
				"type": "unocc",
				"energy": -0.03126,
				"method": "rhf"
			},
			{
				"type": "unocc",
				"energy": -0.00783,
				"method": "rhf"
			},
			{
				"type": "unocc",
				"energy": 0.03814,
				"method": "rhf"
			},
			{
				"type": "unocc",
				"energy": 0.0937,
				"method": "rhf"
			},
			{
				"type": "unocc",
				"energy": 0.10855,
				"method": "rhf"
			}
		],
		"cosmo_sigma_profile": { 
			"-0.025": 0.0,
			"-0.024": 0.0,
			"-0.023": 0.0,
			"-0.022": 0.0,
			"-0.021": 0.0,
			"-0.02": 0.0687740742568,
			"-0.019": 0.855382382059,
			"-0.018": 1.53038308805,
			"-0.017": 1.2220236692,
			"-0.016": 1.15531358001,
			"-0.015": 0.789044544669,
			"-0.014": 1.20179749361,
			"-0.013": 1.03877949241,
			"-0.012": 1.12027516913,
			"-0.011": 1.12563897076,
			"-0.01": 0.875807247665,
			"-0.009": 1.46815073684,
			"-0.008": 2.49542349996,
			"-0.007": 6.53572923077,
			"-0.006": 13.8899065227,
			"-0.005": 12.9391800761,
			"-0.004": 11.8044697062,
			"-0.003": 10.2700050775,
			"-0.002": 6.56545057385,
			"-0.001": 4.04270713027,
			"0.0": 3.5595833774,
			"0.001": 3.54666133465,
			"0.002": 3.73750816747,
			"0.003": 3.3132854228,
			"0.004": 3.36898706314,
			"0.005": 3.48315704357,
			"0.006": 3.32651252334,
			"0.007": 3.8703684842,
			"0.008": 4.21275450231,
			"0.009": 6.25737924395,
			"0.01": 7.72132205855,
			"0.011": 9.753792056,
			"0.012": 7.23461858302,
			"0.013": 1.59326190278,
			"0.014": 0.032831145876,
			"0.015": 0.0,
			"0.016": 0.0,
			"0.017": 0.0,
			"0.018": 0.0,
			"0.019": 0.0,
			"0.02": 0.0,
			"0.021": 0.0,
			"0.022": 0.0,
			"0.023": 0.0,
			"0.024": 0.0,
			"0.025": 0.0
		}
	}
}
