{
	 "smiles": "CC1(C)OC(=O)C2(CC2)C(=O)O1", 
	 "Tm": 338.15, 
	 "num_atms": 22, 
	 "gaussian": { 
		 "optdone": 1, 
		 "sigma_profile": "yes", 
		 "theory": "DFT", 
		 "functional": "B3LYP", 
		 "basiset": "6-31G**", 
		 "properties": { 
			 "R2extent": 2055.6798, 
			 "electric_dipole_moment_norm": 2.15413195743, 
			 "electric_quadrupole_moment_norm": 14.5919087799, 
			 "total_energy": -611.772916783, 
			 "HOMO_LUMO_gap": 0.25857, 
			 "cosmo_polarized_energy": -12.04, 
			 "cosmo_cavitation_energy": 25.2, 
			 "cosmo_dispersion_energy": -18.07, 
			 "cosmo_repulsion_energy": 1.43, 
			 "cosmo_total_nonelectrostatic_energy": 8.56, 
			 "SMD_solvation_energy": 6.25 
		},
		"coords": [
			{
				"x": -0.4043744255,
				"y": -0.9744146196,
				"z": 2.1597963179,
				"element": "C" 
			},
			{
				"x": -1.3358696208,
				"y": -0.4632281152,
				"z": 1.0624778428,
				"element": "C" 
			},
			{
				"x": -2.6696381098,
				"y": -1.1864621822,
				"z": 1.0137482537,
				"element": "C" 
			},
			{
				"x": -0.7272256397,
				"y": -0.66711218,
				"z": -0.223772947,
				"element": "O" 
			},
			{
				"x": 0.2688063348,
				"y": 0.161894772,
				"z": -0.6427465988,
				"element": "C" 
			},
			{
				"x": 0.987508101,
				"y": -0.172511226,
				"z": -1.5540738236,
				"element": "O" 
			},
			{
				"x": 0.3554938461,
				"y": 1.4806912959,
				"z": 0.0498037116,
				"element": "C" 
			},
			{
				"x": 0.9926792216,
				"y": 2.6200036368,
				"z": -0.7578473451,
				"element": "C" 
			},
			{
				"x": 1.7714434606,
				"y": 2.0187257137,
				"z": 0.3423020755,
				"element": "C" 
			},
			{
				"x": -0.7237947693,
				"y": 1.8809695451,
				"z": 0.999201875,
				"element": "C" 
			},
			{
				"x": -0.8368309931,
				"y": 2.9886158176,
				"z": 1.4674097721,
				"element": "O" 
			},
			{
				"x": -1.6442034745,
				"y": 0.9215199413,
				"z": 1.2945199248,
				"element": "O" 
			},
			{
				"x": 0.5426312531,
				"y": -0.4269541439,
				"z": 2.1586849557,
				"element": "H" 
			},
			{
				"x": -0.8764867638,
				"y": -0.8456446714,
				"z": 3.1366283622,
				"element": "H" 
			},
			{
				"x": -0.1908084245,
				"y": -2.0340473865,
				"z": 2.0009250978,
				"element": "H" 
			},
			{
				"x": -2.5087551902,
				"y": -2.25034232,
				"z": 0.8264811564,
				"element": "H" 
			},
			{
				"x": -3.1950709277,
				"y": -1.0612112684,
				"z": 1.962974598,
				"element": "H" 
			},
			{
				"x": -3.2812213632,
				"y": -0.7712739373,
				"z": 0.2100084155,
				"element": "H" 
			},
			{
				"x": 1.2547912345,
				"y": 2.3552608234,
				"z": -1.7758185235,
				"element": "H" 
			},
			{
				"x": 0.5409941454,
				"y": 3.5918175399,
				"z": -0.5947096502,
				"element": "H" 
			},
			{
				"x": 1.8669403103,
				"y": 2.5723473134,
				"z": 1.2702793367,
				"element": "H" 
			},
			{
				"x": 2.5789917945,
				"y": 1.3389556512,
				"z": 0.0922271927,
				"element": "H" 
			}
		],
		 "valence_orbital": [ 
			{
				"type": "occ",
				"energy": -0.31842,
				"method": "rhf"
			},
			{
				"type": "occ",
				"energy": -0.31832,
				"method": "rhf"
			},
			{
				"type": "occ",
				"energy": -0.3064,
				"method": "rhf"
			},
			{
				"type": "occ",
				"energy": -0.29633,
				"method": "rhf"
			},
			{
				"type": "occ",
				"energy": -0.27647,
				"method": "rhf"
			},
			{
				"type": "unocc",
				"energy": -0.0179,
				"method": "rhf"
			},
			{
				"type": "unocc",
				"energy": -0.00582,
				"method": "rhf"
			},
			{
				"type": "unocc",
				"energy": 0.0813,
				"method": "rhf"
			},
			{
				"type": "unocc",
				"energy": 0.08528,
				"method": "rhf"
			},
			{
				"type": "unocc",
				"energy": 0.10428,
				"method": "rhf"
			}
		],
		"cosmo_sigma_profile": { 
			"-0.025": 0.0,
			"-0.024": 0.0,
			"-0.023": 0.0,
			"-0.022": 0.0,
			"-0.021": 0.0,
			"-0.02": 0.0,
			"-0.019": 0.0,
			"-0.018": 0.0,
			"-0.017": 0.0,
			"-0.016": 0.0,
			"-0.015": 0.0,
			"-0.014": 0.0,
			"-0.013": 0.0,
			"-0.012": 0.0,
			"-0.011": 0.0,
			"-0.01": 0.0,
			"-0.009": 0.0,
			"-0.008": 0.191926855129,
			"-0.007": 4.7595412924,
			"-0.006": 16.3963047818,
			"-0.005": 22.6905651624,
			"-0.004": 19.4990313214,
			"-0.003": 21.0637113156,
			"-0.002": 24.1835234208,
			"-0.001": 15.8620613232,
			"0.0": 8.46791822405,
			"0.001": 8.05566401214,
			"0.002": 4.08934297645,
			"0.003": 4.53479712117,
			"0.004": 4.06666985855,
			"0.005": 4.01041383361,
			"0.006": 3.98149276794,
			"0.007": 4.27017853651,
			"0.008": 5.20548632237,
			"0.009": 6.37079487162,
			"0.01": 6.21540490143,
			"0.011": 9.91452234146,
			"0.012": 4.41816683289,
			"0.013": 0.623202089993,
			"0.014": 0.0,
			"0.015": 0.0,
			"0.016": 0.0,
			"0.017": 0.0,
			"0.018": 0.0,
			"0.019": 0.0,
			"0.02": 0.0,
			"0.021": 0.0,
			"0.022": 0.0,
			"0.023": 0.0,
			"0.024": 0.0,
			"0.025": 0.0
		}
	}
}
