{
	 "smiles": "CC1=C(C=CC=C1N)N1C(=O)CCC1=O", 
	 "Tm": 456.15, 
	 "num_atms": 27, 
	 "gaussian": { 
		 "optdone": 1, 
		 "sigma_profile": "yes", 
		 "theory": "DFT", 
		 "functional": "B3LYP", 
		 "basiset": "6-31G**", 
		 "properties": { 
			 "R2extent": 3554.0426, 
			 "electric_dipole_moment_norm": 1.7275699407, 
			 "electric_quadrupole_moment_norm": 21.6851945548, 
			 "total_energy": -686.392661406, 
			 "HOMO_LUMO_gap": 0.18779, 
			 "cosmo_polarized_energy": -18.45, 
			 "cosmo_cavitation_energy": 30.16, 
			 "cosmo_dispersion_energy": -21.59, 
			 "cosmo_repulsion_energy": 1.7, 
			 "cosmo_total_nonelectrostatic_energy": 10.27, 
			 "SMD_solvation_energy": 6.48 
		},
		"coords": [
			{
				"x": -1.5421105552,
				"y": -2.079846231,
				"z": 2.1239541653,
				"element": "C" 
			},
			{
				"x": -1.7978753755,
				"y": -1.4294739429,
				"z": 0.7886124405,
				"element": "C" 
			},
			{
				"x": -0.8799451548,
				"y": -0.5642355808,
				"z": 0.17677426,
				"element": "C" 
			},
			{
				"x": -1.1571850123,
				"y": 0.0879132771,
				"z": -1.0275733924,
				"element": "C" 
			},
			{
				"x": -2.3795647072,
				"y": -0.1383472781,
				"z": -1.651841441,
				"element": "C" 
			},
			{
				"x": -3.296720221,
				"y": -1.0243615298,
				"z": -1.0949181154,
				"element": "C" 
			},
			{
				"x": -3.0158066573,
				"y": -1.6793554424,
				"z": 0.1129338887,
				"element": "C" 
			},
			{
				"x": -3.9668272399,
				"y": -2.5310710236,
				"z": 0.6893230278,
				"element": "N" 
			},
			{
				"x": 0.3966038991,
				"y": -0.3274881295,
				"z": 0.7906585916,
				"element": "N" 
			},
			{
				"x": 1.3665056086,
				"y": -1.3293761024,
				"z": 0.9600240749,
				"element": "C" 
			},
			{
				"x": 1.22469114,
				"y": -2.4944870193,
				"z": 0.6605934534,
				"element": "O" 
			},
			{
				"x": 2.6028180967,
				"y": -0.6869968837,
				"z": 1.5826981981,
				"element": "C" 
			},
			{
				"x": 2.254935884,
				"y": 0.7979686513,
				"z": 1.7429792049,
				"element": "C" 
			},
			{
				"x": 0.838035238,
				"y": 0.9465576205,
				"z": 1.1947854016,
				"element": "C" 
			},
			{
				"x": 0.193530561,
				"y": 1.9671883482,
				"z": 1.1135666482,
				"element": "O" 
			},
			{
				"x": -1.1870897071,
				"y": -3.1123719177,
				"z": 2.0140636239,
				"element": "H" 
			},
			{
				"x": -0.7824007841,
				"y": -1.5408403916,
				"z": 2.6929022562,
				"element": "H" 
			},
			{
				"x": -2.4584351571,
				"y": -2.0924336408,
				"z": 2.723273797,
				"element": "H" 
			},
			{
				"x": -0.4240572976,
				"y": 0.7606042573,
				"z": -1.4566319544,
				"element": "H" 
			},
			{
				"x": -2.6128812969,
				"y": 0.363598258,
				"z": -2.585905518,
				"element": "H" 
			},
			{
				"x": -4.2429356172,
				"y": -1.2162737264,
				"z": -1.5952555154,
				"element": "H" 
			},
			{
				"x": -4.6972080358,
				"y": -2.8221529687,
				"z": 0.0534929176,
				"element": "H" 
			},
			{
				"x": -3.5865772495,
				"y": -3.3209446945,
				"z": 1.1927505425,
				"element": "H" 
			},
			{
				"x": 3.4560088272,
				"y": -0.8684274278,
				"z": 0.9229335138,
				"element": "H" 
			},
			{
				"x": 2.8199017486,
				"y": -1.191493313,
				"z": 2.5286333767,
				"element": "H" 
			},
			{
				"x": 2.2621007604,
				"y": 1.1396685803,
				"z": 2.7819952985,
				"element": "H" 
			},
			{
				"x": 2.9158883049,
				"y": 1.4664782513,
				"z": 1.1841772552,
				"element": "H" 
			}
		],
		 "valence_orbital": [ 
			{
				"type": "occ",
				"energy": -0.28206,
				"method": "rhf"
			},
			{
				"type": "occ",
				"energy": -0.27973,
				"method": "rhf"
			},
			{
				"type": "occ",
				"energy": -0.25566,
				"method": "rhf"
			},
			{
				"type": "occ",
				"energy": -0.23815,
				"method": "rhf"
			},
			{
				"type": "occ",
				"energy": -0.20359,
				"method": "rhf"
			},
			{
				"type": "unocc",
				"energy": -0.0158,
				"method": "rhf"
			},
			{
				"type": "unocc",
				"energy": -0.00575,
				"method": "rhf"
			},
			{
				"type": "unocc",
				"energy": 0.01388,
				"method": "rhf"
			},
			{
				"type": "unocc",
				"energy": 0.03268,
				"method": "rhf"
			},
			{
				"type": "unocc",
				"energy": 0.07464,
				"method": "rhf"
			}
		],
		"cosmo_sigma_profile": { 
			"-0.025": 0.0,
			"-0.024": 0.0,
			"-0.023": 0.0,
			"-0.022": 0.0,
			"-0.021": 0.0,
			"-0.02": 0.0,
			"-0.019": 0.0,
			"-0.018": 0.0,
			"-0.017": 0.0,
			"-0.016": 0.0,
			"-0.015": 0.0,
			"-0.014": 0.0,
			"-0.013": 0.0902193281357,
			"-0.012": 1.9201288429,
			"-0.011": 2.70263525962,
			"-0.01": 2.87828437864,
			"-0.009": 3.25712040988,
			"-0.008": 3.94384182653,
			"-0.007": 16.2494731516,
			"-0.006": 21.4924649217,
			"-0.005": 16.8813928363,
			"-0.004": 18.1533226392,
			"-0.003": 16.3494294589,
			"-0.002": 14.5442501091,
			"-0.001": 12.2097692832,
			"0.0": 11.6127954791,
			"0.001": 7.65029163303,
			"0.002": 8.73320119163,
			"0.003": 7.85433779581,
			"0.004": 8.31771491979,
			"0.005": 11.2837825325,
			"0.006": 11.3989786002,
			"0.007": 4.59090454617,
			"0.008": 4.82957863284,
			"0.009": 4.49973936521,
			"0.01": 4.8176207069,
			"0.011": 8.33710720171,
			"0.012": 10.0288737462,
			"0.013": 3.56087348146,
			"0.014": 0.387349870711,
			"0.015": 0.147767351015,
			"0.016": 0.0,
			"0.017": 0.0,
			"0.018": 0.0,
			"0.019": 0.0,
			"0.02": 0.0,
			"0.021": 0.0,
			"0.022": 0.0,
			"0.023": 0.0,
			"0.024": 0.0,
			"0.025": 0.0
		}
	}
}
