{
	 "smiles": "COC1=CC=C(C=C1)C(=O)C1=NOC(=C1S(=O)(=O)C1=CC=CC=C1)C1=CC=C(C)C=C1", 
	 "Tm": 429.15, 
	 "num_atms": 50, 
	 "gaussian": { 
		 "optdone": 1, 
		 "sigma_profile": "yes", 
		 "theory": "DFT", 
		 "functional": "B3LYP", 
		 "basiset": "6-31G**", 
		 "properties": { 
			 "R2extent": 17316.0944, 
			 "electric_dipole_moment_norm": 3.38254552815, 
			 "electric_quadrupole_moment_norm": 41.6983307026, 
			 "total_energy": -1754.93511012, 
			 "HOMO_LUMO_gap": 0.17052, 
			 "cosmo_polarized_energy": -19.9, 
			 "cosmo_cavitation_energy": 56.36, 
			 "cosmo_dispersion_energy": -38.65, 
			 "cosmo_repulsion_energy": 2.86, 
			 "cosmo_total_nonelectrostatic_energy": 20.57, 
			 "SMD_solvation_energy": 9.75 
		},
		"coords": [
			{
				"x": 2.3597691047,
				"y": 6.6918868607,
				"z": -3.1064689743,
				"element": "C" 
			},
			{
				"x": 1.6680805347,
				"y": 5.8145421779,
				"z": -3.9869821771,
				"element": "O" 
			},
			{
				"x": 1.2531809653,
				"y": 4.6129282919,
				"z": -3.5159842312,
				"element": "C" 
			},
			{
				"x": 0.5698459606,
				"y": 3.8015592935,
				"z": -4.4431276974,
				"element": "C" 
			},
			{
				"x": 0.1056147165,
				"y": 2.5585694227,
				"z": -4.061598577,
				"element": "C" 
			},
			{
				"x": 0.3085323021,
				"y": 2.0845560537,
				"z": -2.7483901644,
				"element": "C" 
			},
			{
				"x": 0.9881226487,
				"y": 2.9009808795,
				"z": -1.8336303042,
				"element": "C" 
			},
			{
				"x": 1.4614163358,
				"y": 4.1568218598,
				"z": -2.2063363786,
				"element": "C" 
			},
			{
				"x": -0.2187931219,
				"y": 0.7552064717,
				"z": -2.3982473722,
				"element": "C" 
			},
			{
				"x": -0.8020002378,
				"y": 0.0336627201,
				"z": -3.1968976692,
				"element": "O" 
			},
			{
				"x": 0.00994893,
				"y": 0.212357659,
				"z": -0.9976410129,
				"element": "C" 
			},
			{
				"x": 1.2318081114,
				"y": -0.1073429315,
				"z": -0.646569545,
				"element": "N" 
			},
			{
				"x": 1.114592389,
				"y": -0.7192824649,
				"z": 0.6048411397,
				"element": "O" 
			},
			{
				"x": -0.1780490152,
				"y": -0.75711842,
				"z": 0.9992461537,
				"element": "C" 
			},
			{
				"x": -0.9395857099,
				"y": -0.1598729332,
				"z": 0.0096368087,
				"element": "C" 
			},
			{
				"x": -2.6949722502,
				"y": 0.1389295401,
				"z": -0.116468563,
				"element": "S" 
			},
			{
				"x": -2.8476103017,
				"y": 1.1090123945,
				"z": -1.2072040707,
				"element": "O" 
			},
			{
				"x": -3.223879133,
				"y": 0.4471026516,
				"z": 1.2230625291,
				"element": "O" 
			},
			{
				"x": -3.3895953694,
				"y": -1.4394100187,
				"z": -0.6230990047,
				"element": "C" 
			},
			{
				"x": -3.1263288055,
				"y": -1.9211082627,
				"z": -1.9091003367,
				"element": "C" 
			},
			{
				"x": -3.6934220264,
				"y": -3.1361009795,
				"z": -2.2918800846,
				"element": "C" 
			},
			{
				"x": -4.5106385567,
				"y": -3.8445343416,
				"z": -1.4060591223,
				"element": "C" 
			},
			{
				"x": -4.765581095,
				"y": -3.3450149608,
				"z": -0.1274696291,
				"element": "C" 
			},
			{
				"x": -4.2019950001,
				"y": -2.1331994864,
				"z": 0.2749624802,
				"element": "C" 
			},
			{
				"x": -0.4005967772,
				"y": -1.4318151467,
				"z": 2.2821271395,
				"element": "C" 
			},
			{
				"x": -1.4380885942,
				"y": -1.0767971311,
				"z": 3.1595314111,
				"element": "C" 
			},
			{
				"x": -1.5794905903,
				"y": -1.7424116194,
				"z": 4.3749207333,
				"element": "C" 
			},
			{
				"x": -0.7075670863,
				"y": -2.7701486311,
				"z": 4.7559703656,
				"element": "C" 
			},
			{
				"x": -0.8903955868,
				"y": -3.5056975897,
				"z": 6.0608368183,
				"element": "C" 
			},
			{
				"x": 0.3324623093,
				"y": -3.1096351946,
				"z": 3.8775670617,
				"element": "C" 
			},
			{
				"x": 0.4904785401,
				"y": -2.4542816993,
				"z": 2.6628518514,
				"element": "C" 
			},
			{
				"x": 3.2939064832,
				"y": 6.2444383917,
				"z": -2.7457948004,
				"element": "H" 
			},
			{
				"x": 1.7370637526,
				"y": 6.9722789894,
				"z": -2.2483417348,
				"element": "H" 
			},
			{
				"x": 2.5891885832,
				"y": 7.5827774197,
				"z": -3.6921516849,
				"element": "H" 
			},
			{
				"x": 0.4207338942,
				"y": 4.1809605934,
				"z": -5.4484673216,
				"element": "H" 
			},
			{
				"x": -0.4259543147,
				"y": 1.9236447334,
				"z": -4.7620452253,
				"element": "H" 
			},
			{
				"x": 1.160099179,
				"y": 2.5536827938,
				"z": -0.8212337782,
				"element": "H" 
			},
			{
				"x": 1.9841085932,
				"y": 4.7661528348,
				"z": -1.4794175,
				"element": "H" 
			},
			{
				"x": -2.4839512354,
				"y": -1.3628093354,
				"z": -2.5836912076,
				"element": "H" 
			},
			{
				"x": -3.4987941783,
				"y": -3.5279421258,
				"z": -3.2856047952,
				"element": "H" 
			},
			{
				"x": -4.9506032483,
				"y": -4.7885299831,
				"z": -1.714635282,
				"element": "H" 
			},
			{
				"x": -5.4037540267,
				"y": -3.8954685346,
				"z": 0.5571949683,
				"element": "H" 
			},
			{
				"x": -4.3901307472,
				"y": -1.71922751,
				"z": 1.2589279688,
				"element": "H" 
			},
			{
				"x": -2.1176709195,
				"y": -0.2773392036,
				"z": 2.8939694245,
				"element": "H" 
			},
			{
				"x": -2.3822472484,
				"y": -1.4476419675,
				"z": 5.0458641831,
				"element": "H" 
			},
			{
				"x": -1.4661167628,
				"y": -4.4282342283,
				"z": 5.9138355099,
				"element": "H" 
			},
			{
				"x": -1.4306059023,
				"y": -2.8969926791,
				"z": 6.7913697961,
				"element": "H" 
			},
			{
				"x": 0.0713164005,
				"y": -3.791377121,
				"z": 6.4978463918,
				"element": "H" 
			},
			{
				"x": 1.0281617369,
				"y": -3.8990279676,
				"z": 4.1502847308,
				"element": "H" 
			},
			{
				"x": 1.3015863699,
				"y": -2.7319895658,
				"z": 1.9987907789,
				"element": "H" 
			}
		],
		 "valence_orbital": [ 
			{
				"type": "occ",
				"energy": -0.26238,
				"method": "rhf"
			},
			{
				"type": "occ",
				"energy": -0.26198,
				"method": "rhf"
			},
			{
				"type": "occ",
				"energy": -0.2606,
				"method": "rhf"
			},
			{
				"type": "occ",
				"energy": -0.24075,
				"method": "rhf"
			},
			{
				"type": "occ",
				"energy": -0.23271,
				"method": "rhf"
			},
			{
				"type": "unocc",
				"energy": -0.06219,
				"method": "rhf"
			},
			{
				"type": "unocc",
				"energy": -0.05866,
				"method": "rhf"
			},
			{
				"type": "unocc",
				"energy": -0.03398,
				"method": "rhf"
			},
			{
				"type": "unocc",
				"energy": -0.01522,
				"method": "rhf"
			},
			{
				"type": "unocc",
				"energy": -0.01135,
				"method": "rhf"
			}
		],
		"cosmo_sigma_profile": { 
			"-0.025": 0.0,
			"-0.024": 0.0,
			"-0.023": 0.0,
			"-0.022": 0.0,
			"-0.021": 0.0,
			"-0.02": 0.0,
			"-0.019": 0.0,
			"-0.018": 0.0,
			"-0.017": 0.0,
			"-0.016": 0.0,
			"-0.015": 0.0,
			"-0.014": 0.0,
			"-0.013": 0.0,
			"-0.012": 0.0,
			"-0.011": 0.0,
			"-0.01": 0.0,
			"-0.009": 0.0,
			"-0.008": 0.571767292468,
			"-0.007": 12.5747826129,
			"-0.006": 31.7489785121,
			"-0.005": 34.648094163,
			"-0.004": 38.5951555311,
			"-0.003": 33.9503470052,
			"-0.002": 31.2966845579,
			"-0.001": 36.7009962894,
			"0.0": 32.3250280272,
			"0.001": 36.0370521006,
			"0.002": 40.8061990658,
			"0.003": 43.1095712528,
			"0.004": 20.7775842497,
			"0.005": 9.51857699106,
			"0.006": 8.12785444262,
			"0.007": 8.26215235893,
			"0.008": 8.54696402149,
			"0.009": 9.18179405509,
			"0.01": 7.68784335732,
			"0.011": 7.44799173766,
			"0.012": 1.57111134367,
			"0.013": 0.0,
			"0.014": 0.0,
			"0.015": 0.0,
			"0.016": 0.0,
			"0.017": 0.0,
			"0.018": 0.0,
			"0.019": 0.0,
			"0.02": 0.0,
			"0.021": 0.0,
			"0.022": 0.0,
			"0.023": 0.0,
			"0.024": 0.0,
			"0.025": 0.0
		}
	}
}
