{
	 "smiles": "CCCC1=CC=CC=C1C=NNC1=CC=C(C=C1[N+]([O-])=O)[N+]([O-])=O", 
	 "Tm": 501.15, 
	 "num_atms": 40, 
	 "gaussian": { 
		 "optdone": 1, 
		 "sigma_profile": "yes", 
		 "theory": "DFT", 
		 "functional": "B3LYP", 
		 "basiset": "6-31G**", 
		 "properties": { 
			 "R2extent": 12475.9618, 
			 "electric_dipole_moment_norm": 7.85812936137, 
			 "electric_quadrupole_moment_norm": 39.1495209851, 
			 "total_energy": -1139.02875313, 
			 "HOMO_LUMO_gap": 0.12931, 
			 "cosmo_polarized_energy": -14.27, 
			 "cosmo_cavitation_energy": 45.1, 
			 "cosmo_dispersion_energy": -30.92, 
			 "cosmo_repulsion_energy": 2.35, 
			 "cosmo_total_nonelectrostatic_energy": 16.53, 
			 "SMD_solvation_energy": 10.94 
		},
		"coords": [
			{
				"x": -1.6345274452,
				"y": 3.5959513498,
				"z": 1.3109854997,
				"element": "C" 
			},
			{
				"x": -2.292916812,
				"y": 2.2164927429,
				"z": 1.4027895244,
				"element": "C" 
			},
			{
				"x": -1.7148598244,
				"y": 1.318697559,
				"z": 2.52102169,
				"element": "C" 
			},
			{
				"x": -0.2572707042,
				"y": 0.9419765153,
				"z": 2.3403253735,
				"element": "C" 
			},
			{
				"x": 0.721621366,
				"y": 1.5651315655,
				"z": 3.1230719811,
				"element": "C" 
			},
			{
				"x": 2.0770773413,
				"y": 1.2672666566,
				"z": 2.9796497054,
				"element": "C" 
			},
			{
				"x": 2.4830610054,
				"y": 0.3200199674,
				"z": 2.0407202412,
				"element": "C" 
			},
			{
				"x": 1.5288584645,
				"y": -0.3126675631,
				"z": 1.2480907151,
				"element": "C" 
			},
			{
				"x": 0.1606143437,
				"y": -0.0087168935,
				"z": 1.3743064627,
				"element": "C" 
			},
			{
				"x": -0.8468491646,
				"y": -0.7334946149,
				"z": 0.5694800645,
				"element": "C" 
			},
			{
				"x": -0.8480414651,
				"y": -1.0515681702,
				"z": -0.680902605,
				"element": "N" 
			},
			{
				"x": 0.1820716807,
				"y": -0.6324179227,
				"z": -1.4703375893,
				"element": "N" 
			},
			{
				"x": 0.1842769383,
				"y": -0.9419693453,
				"z": -2.7979671008,
				"element": "C" 
			},
			{
				"x": -0.8356452418,
				"y": -1.7681204298,
				"z": -3.343532566,
				"element": "C" 
			},
			{
				"x": -0.8537838536,
				"y": -2.099829525,
				"z": -4.6790306711,
				"element": "C" 
			},
			{
				"x": 0.1541752321,
				"y": -1.6189361815,
				"z": -5.5314051674,
				"element": "C" 
			},
			{
				"x": 1.1689396501,
				"y": -0.8149976631,
				"z": -5.0506816665,
				"element": "C" 
			},
			{
				"x": 1.1934074325,
				"y": -0.4755054129,
				"z": -3.6966040893,
				"element": "C" 
			},
			{
				"x": 2.2954562985,
				"y": 0.3693991154,
				"z": -3.2646972489,
				"element": "N" 
			},
			{
				"x": 2.3721318527,
				"y": 0.6769598883,
				"z": -2.0593626718,
				"element": "O" 
			},
			{
				"x": 3.1118254267,
				"y": 0.7441549513,
				"z": -4.1015538082,
				"element": "O" 
			},
			{
				"x": 0.1327075546,
				"y": -1.9730516626,
				"z": -6.9482174793,
				"element": "N" 
			},
			{
				"x": 1.0323278932,
				"y": -1.5332153548,
				"z": -7.6648973642,
				"element": "O" 
			},
			{
				"x": -0.7891645925,
				"y": -2.6928747363,
				"z": -7.337759673,
				"element": "O" 
			},
			{
				"x": -1.745282534,
				"y": 4.1507396403,
				"z": 2.2500258589,
				"element": "H" 
			},
			{
				"x": -0.5640755279,
				"y": 3.5177551335,
				"z": 1.0962981421,
				"element": "H" 
			},
			{
				"x": -2.0911755728,
				"y": 4.1948411353,
				"z": 0.5167721893,
				"element": "H" 
			},
			{
				"x": -3.3679076142,
				"y": 2.3354037322,
				"z": 1.5868138394,
				"element": "H" 
			},
			{
				"x": -2.2031962319,
				"y": 1.6988034292,
				"z": 0.440007078,
				"element": "H" 
			},
			{
				"x": -2.3304785858,
				"y": 0.4133615493,
				"z": 2.5953526075,
				"element": "H" 
			},
			{
				"x": -1.8236814543,
				"y": 1.8364222373,
				"z": 3.4812801545,
				"element": "H" 
			},
			{
				"x": 0.4103614319,
				"y": 2.2983012539,
				"z": 3.8624603568,
				"element": "H" 
			},
			{
				"x": 2.8106116835,
				"y": 1.7692228742,
				"z": 3.6036604489,
				"element": "H" 
			},
			{
				"x": 3.5328958858,
				"y": 0.0683187221,
				"z": 1.9281143078,
				"element": "H" 
			},
			{
				"x": 1.8464954179,
				"y": -1.0746972399,
				"z": 0.5431646506,
				"element": "H" 
			},
			{
				"x": -1.7443037463,
				"y": -1.0685964667,
				"z": 1.0871787625,
				"element": "H" 
			},
			{
				"x": 0.9109939887,
				"y": 0.0003416518,
				"z": -1.1432399663,
				"element": "H" 
			},
			{
				"x": -1.601492608,
				"y": -2.1258916357,
				"z": -2.6693041036,
				"element": "H" 
			},
			{
				"x": -1.6344838074,
				"y": -2.7283996275,
				"z": -5.0893624924,
				"element": "H" 
			},
			{
				"x": 1.9434258979,
				"y": -0.4471112253,
				"z": -5.7093133908,
				"element": "H" 
			}
		],
		 "valence_orbital": [ 
			{
				"type": "occ",
				"energy": -0.29157,
				"method": "rhf"
			},
			{
				"type": "occ",
				"energy": -0.2897,
				"method": "rhf"
			},
			{
				"type": "occ",
				"energy": -0.27493,
				"method": "rhf"
			},
			{
				"type": "occ",
				"energy": -0.26304,
				"method": "rhf"
			},
			{
				"type": "occ",
				"energy": -0.23205,
				"method": "rhf"
			},
			{
				"type": "unocc",
				"energy": -0.10274,
				"method": "rhf"
			},
			{
				"type": "unocc",
				"energy": -0.08998,
				"method": "rhf"
			},
			{
				"type": "unocc",
				"energy": -0.0549,
				"method": "rhf"
			},
			{
				"type": "unocc",
				"energy": -0.02182,
				"method": "rhf"
			},
			{
				"type": "unocc",
				"energy": -0.01833,
				"method": "rhf"
			}
		],
		"cosmo_sigma_profile": { 
			"-0.025": 0.0,
			"-0.024": 0.0,
			"-0.023": 0.0,
			"-0.022": 0.0,
			"-0.021": 0.0,
			"-0.02": 0.0,
			"-0.019": 0.0,
			"-0.018": 0.0,
			"-0.017": 0.0,
			"-0.016": 0.0,
			"-0.015": 0.0,
			"-0.014": 0.0,
			"-0.013": 0.0,
			"-0.012": 0.0,
			"-0.011": 0.0,
			"-0.01": 0.0,
			"-0.009": 0.254037920567,
			"-0.008": 3.40311670935,
			"-0.007": 9.04218365463,
			"-0.006": 17.3801175282,
			"-0.005": 21.5634727238,
			"-0.004": 24.3352708232,
			"-0.003": 31.5957471717,
			"-0.002": 41.5473509956,
			"-0.001": 37.3176357775,
			"0.0": 34.8871018896,
			"0.001": 30.6250480766,
			"0.002": 17.5805395049,
			"0.003": 14.2984915049,
			"0.004": 14.3406668773,
			"0.005": 10.7830651602,
			"0.006": 9.21734184319,
			"0.007": 13.7070283351,
			"0.008": 13.8001530078,
			"0.009": 8.96101806086,
			"0.01": 5.19810741312,
			"0.011": 0.372821860793,
			"0.012": 0.0,
			"0.013": 0.0,
			"0.014": 0.0,
			"0.015": 0.0,
			"0.016": 0.0,
			"0.017": 0.0,
			"0.018": 0.0,
			"0.019": 0.0,
			"0.02": 0.0,
			"0.021": 0.0,
			"0.022": 0.0,
			"0.023": 0.0,
			"0.024": 0.0,
			"0.025": 0.0
		}
	}
}
