{
	 "smiles": "CCOC(=O)C1CCC(=O)N1", 
	 "Tm": 324.15, 
	 "num_atms": 22, 
	 "gaussian": { 
		 "optdone": 1, 
		 "sigma_profile": "yes", 
		 "theory": "DFT", 
		 "functional": "B3LYP", 
		 "basiset": "6-31G**", 
		 "properties": { 
			 "R2extent": 2862.1484, 
			 "electric_dipole_moment_norm": 5.25241621066, 
			 "electric_quadrupole_moment_norm": 14.5071858346, 
			 "total_energy": -553.828289771, 
			 "HOMO_LUMO_gap": 0.23788, 
			 "cosmo_polarized_energy": -14.67, 
			 "cosmo_cavitation_energy": 25.58, 
			 "cosmo_dispersion_energy": -18.47, 
			 "cosmo_repulsion_energy": 1.54, 
			 "cosmo_total_nonelectrostatic_energy": 8.65, 
			 "SMD_solvation_energy": 5.34 
		},
		"coords": [
			{
				"x": 2.6493311704,
				"y": 1.716436494,
				"z": 1.5732202466,
				"element": "C" 
			},
			{
				"x": 1.1479602196,
				"y": 1.5836159996,
				"z": 1.3719460776,
				"element": "C" 
			},
			{
				"x": 0.7861035685,
				"y": 1.7689107319,
				"z": -0.0215893983,
				"element": "O" 
			},
			{
				"x": 0.8517519067,
				"y": 0.680007145,
				"z": -0.8146399155,
				"element": "C" 
			},
			{
				"x": 1.1894632559,
				"y": -0.4240778675,
				"z": -0.4486965342,
				"element": "O" 
			},
			{
				"x": 0.4510944904,
				"y": 1.0447124488,
				"z": -2.2492606346,
				"element": "C" 
			},
			{
				"x": -1.0549153245,
				"y": 1.4219974997,
				"z": -2.3832666449,
				"element": "C" 
			},
			{
				"x": -1.7326506037,
				"y": 0.1015254768,
				"z": -2.7781811856,
				"element": "C" 
			},
			{
				"x": -0.6131263923,
				"y": -0.7424716105,
				"z": -3.3961168236,
				"element": "C" 
			},
			{
				"x": -0.7244146419,
				"y": -1.798563236,
				"z": -3.9869569487,
				"element": "O" 
			},
			{
				"x": 0.5735907388,
				"y": -0.0801111032,
				"z": -3.1492692063,
				"element": "N" 
			},
			{
				"x": 2.8870565716,
				"y": 1.6487051722,
				"z": 2.6399554276,
				"element": "H" 
			},
			{
				"x": 3.0095129644,
				"y": 2.6803852045,
				"z": 1.202059511,
				"element": "H" 
			},
			{
				"x": 3.1797225895,
				"y": 0.9143943348,
				"z": 1.0540247311,
				"element": "H" 
			},
			{
				"x": 0.6000976578,
				"y": 2.3673841893,
				"z": 1.9000069226,
				"element": "H" 
			},
			{
				"x": 0.7900023947,
				"y": 0.6047047099,
				"z": 1.6990983634,
				"element": "H" 
			},
			{
				"x": 1.0854436858,
				"y": 1.8849422846,
				"z": -2.5550537685,
				"element": "H" 
			},
			{
				"x": -1.1595149348,
				"y": 2.1597432794,
				"z": -3.1835290604,
				"element": "H" 
			},
			{
				"x": -1.4400078561,
				"y": 1.8678130888,
				"z": -1.464871899,
				"element": "H" 
			},
			{
				"x": -2.1142869372,
				"y": -0.4472661544,
				"z": -1.9094306155,
				"element": "H" 
			},
			{
				"x": -2.5600653644,
				"y": 0.21570754,
				"z": -3.4814979246,
				"element": "H" 
			},
			{
				"x": 1.4358508407,
				"y": -0.6024956274,
				"z": -3.2238507202,
				"element": "H" 
			}
		],
		 "valence_orbital": [ 
			{
				"type": "occ",
				"energy": -0.34339,
				"method": "rhf"
			},
			{
				"type": "occ",
				"energy": -0.31082,
				"method": "rhf"
			},
			{
				"type": "occ",
				"energy": -0.28411,
				"method": "rhf"
			},
			{
				"type": "occ",
				"energy": -0.25812,
				"method": "rhf"
			},
			{
				"type": "occ",
				"energy": -0.24115,
				"method": "rhf"
			},
			{
				"type": "unocc",
				"energy": -0.00327,
				"method": "rhf"
			},
			{
				"type": "unocc",
				"energy": 0.03051,
				"method": "rhf"
			},
			{
				"type": "unocc",
				"energy": 0.08084,
				"method": "rhf"
			},
			{
				"type": "unocc",
				"energy": 0.10213,
				"method": "rhf"
			},
			{
				"type": "unocc",
				"energy": 0.10413,
				"method": "rhf"
			}
		],
		"cosmo_sigma_profile": { 
			"-0.025": 0.0,
			"-0.024": 0.0,
			"-0.023": 0.0,
			"-0.022": 0.0,
			"-0.021": 0.0,
			"-0.02": 0.0,
			"-0.019": 0.0,
			"-0.018": 0.0,
			"-0.017": 0.0,
			"-0.016": 0.0,
			"-0.015": 0.0439296950841,
			"-0.014": 0.666609730195,
			"-0.013": 0.88284334185,
			"-0.012": 1.29196805463,
			"-0.011": 0.932670272427,
			"-0.01": 0.367271227397,
			"-0.009": 0.951586950055,
			"-0.008": 1.77880066282,
			"-0.007": 5.06502006508,
			"-0.006": 9.38489376668,
			"-0.005": 17.9011224838,
			"-0.004": 24.2360595813,
			"-0.003": 21.7940642209,
			"-0.002": 19.0216996262,
			"-0.001": 17.0589420037,
			"0.0": 13.4700933117,
			"0.001": 6.70814812678,
			"0.002": 4.77208856657,
			"0.003": 6.47898214732,
			"0.004": 5.95620664681,
			"0.005": 3.72194962541,
			"0.006": 4.17150276568,
			"0.007": 3.68329611423,
			"0.008": 3.44086412692,
			"0.009": 3.14518219154,
			"0.01": 2.87480987903,
			"0.011": 5.35823972174,
			"0.012": 4.4923241818,
			"0.013": 5.38696083348,
			"0.014": 4.76754882052,
			"0.015": 0.619235275427,
			"0.016": 0.0,
			"0.017": 0.0,
			"0.018": 0.0,
			"0.019": 0.0,
			"0.02": 0.0,
			"0.021": 0.0,
			"0.022": 0.0,
			"0.023": 0.0,
			"0.024": 0.0,
			"0.025": 0.0
		}
	}
}
