{
	 "smiles": "CCOC(=O)NC(=S)NC1=C(C(=O)OCC)C2=C(CN(CC3=CC=CC=C3)CC2)S1", 
	 "Tm": 479.15, 
	 "num_atms": 55, 
	 "gaussian": { 
		 "optdone": 1, 
		 "sigma_profile": "yes", 
		 "theory": "DFT", 
		 "functional": "B3LYP", 
		 "basiset": "6-31G**", 
		 "properties": { 
			 "R2extent": 16094.4057, 
			 "electric_dipole_moment_norm": 4.17720754931, 
			 "electric_quadrupole_moment_norm": 26.77225394, 
			 "total_energy": -2076.85999665, 
			 "HOMO_LUMO_gap": 0.13928, 
			 "cosmo_polarized_energy": -19.91, 
			 "cosmo_cavitation_energy": 59.53, 
			 "cosmo_dispersion_energy": -38.17, 
			 "cosmo_repulsion_energy": 2.84, 
			 "cosmo_total_nonelectrostatic_energy": 24.21, 
			 "SMD_solvation_energy": 7.81 
		},
		"coords": [
			{
				"x": -2.1858054621,
				"y": -4.0947673961,
				"z": -3.1854537526,
				"element": "C" 
			},
			{
				"x": -0.8088511265,
				"y": -4.4595846743,
				"z": -3.7050408799,
				"element": "C" 
			},
			{
				"x": -0.0202758628,
				"y": -3.2394976391,
				"z": -3.7501867044,
				"element": "O" 
			},
			{
				"x": 1.0442278313,
				"y": -3.2541537373,
				"z": -4.5767638826,
				"element": "C" 
			},
			{
				"x": 1.4103903939,
				"y": -4.204823043,
				"z": -5.2337622781,
				"element": "O" 
			},
			{
				"x": 1.7104992622,
				"y": -2.0316410403,
				"z": -4.6189745515,
				"element": "N" 
			},
			{
				"x": 1.4124280714,
				"y": -0.7502402168,
				"z": -4.1306122398,
				"element": "C" 
			},
			{
				"x": 2.0381394828,
				"y": 0.5675453989,
				"z": -4.9419865338,
				"element": "S" 
			},
			{
				"x": 0.6698020021,
				"y": -0.7214209666,
				"z": -2.9963862222,
				"element": "N" 
			},
			{
				"x": 0.1627669206,
				"y": 0.3622580066,
				"z": -2.2905540934,
				"element": "C" 
			},
			{
				"x": -0.4719201756,
				"y": 0.2763587077,
				"z": -1.0471094818,
				"element": "C" 
			},
			{
				"x": -0.5851712521,
				"y": -0.9192823501,
				"z": -0.1980349891,
				"element": "C" 
			},
			{
				"x": -1.0901668622,
				"y": -0.9460910313,
				"z": 0.9088319601,
				"element": "O" 
			},
			{
				"x": -0.0409935889,
				"y": -2.044333934,
				"z": -0.765268556,
				"element": "O" 
			},
			{
				"x": -0.0018220592,
				"y": -3.2319784949,
				"z": 0.0654501098,
				"element": "C" 
			},
			{
				"x": 1.2038319775,
				"y": -3.2211785292,
				"z": 0.9925033341,
				"element": "C" 
			},
			{
				"x": -0.9802670495,
				"y": 1.5572471064,
				"z": -0.6065490178,
				"element": "C" 
			},
			{
				"x": -0.7072286687,
				"y": 2.556430055,
				"z": -1.4941527286,
				"element": "C" 
			},
			{
				"x": -1.1142911954,
				"y": 4.0018085489,
				"z": -1.3132821276,
				"element": "C" 
			},
			{
				"x": -1.4703075449,
				"y": 4.3155954557,
				"z": 0.0653921933,
				"element": "N" 
			},
			{
				"x": -0.4295849326,
				"y": 4.9096610859,
				"z": 0.9106378779,
				"element": "C" 
			},
			{
				"x": 0.7612189074,
				"y": 4.0646629059,
				"z": 1.3589043134,
				"element": "C" 
			},
			{
				"x": 0.7922678591,
				"y": 3.5007137206,
				"z": 2.6415318288,
				"element": "C" 
			},
			{
				"x": 1.8776177396,
				"y": 2.7309149078,
				"z": 3.0646654681,
				"element": "C" 
			},
			{
				"x": 2.9580305934,
				"y": 2.5177387411,
				"z": 2.2072611433,
				"element": "C" 
			},
			{
				"x": 2.9485477985,
				"y": 3.0854074444,
				"z": 0.9311871483,
				"element": "C" 
			},
			{
				"x": 1.8619810115,
				"y": 3.8555724367,
				"z": 0.5159586298,
				"element": "C" 
			},
			{
				"x": -2.3103179448,
				"y": 3.2758495571,
				"z": 0.6566313895,
				"element": "C" 
			},
			{
				"x": -1.7038251805,
				"y": 1.8535043165,
				"z": 0.6844440957,
				"element": "C" 
			},
			{
				"x": 0.1720836496,
				"y": 1.9985778776,
				"z": -2.8968328615,
				"element": "S" 
			},
			{
				"x": -2.6877532697,
				"y": -3.4028161314,
				"z": -3.8672434298,
				"element": "H" 
			},
			{
				"x": -2.7964913296,
				"y": -4.9988881029,
				"z": -3.1008822499,
				"element": "H" 
			},
			{
				"x": -2.1258731999,
				"y": -3.624303345,
				"z": -2.2005367255,
				"element": "H" 
			},
			{
				"x": -0.295120441,
				"y": -5.1723430152,
				"z": -3.0512970711,
				"element": "H" 
			},
			{
				"x": -0.8403554505,
				"y": -4.887254495,
				"z": -4.7088876269,
				"element": "H" 
			},
			{
				"x": 2.4053514991,
				"y": -2.0112443205,
				"z": -5.3544863957,
				"element": "H" 
			},
			{
				"x": 0.4357359709,
				"y": -1.6153979816,
				"z": -2.5663819166,
				"element": "H" 
			},
			{
				"x": -0.9349008734,
				"y": -3.2938122508,
				"z": 0.6291210254,
				"element": "H" 
			},
			{
				"x": 0.0498136004,
				"y": -4.0574996272,
				"z": -0.6480965154,
				"element": "H" 
			},
			{
				"x": 2.1332074726,
				"y": -3.1179586185,
				"z": 0.4248189311,
				"element": "H" 
			},
			{
				"x": 1.1305970074,
				"y": -2.3979581517,
				"z": 1.7067358092,
				"element": "H" 
			},
			{
				"x": 1.2463108561,
				"y": -4.160521083,
				"z": 1.5538613321,
				"element": "H" 
			},
			{
				"x": -0.3190122964,
				"y": 4.6794633299,
				"z": -1.6429692551,
				"element": "H" 
			},
			{
				"x": -1.9837051619,
				"y": 4.212971089,
				"z": -1.9574616602,
				"element": "H" 
			},
			{
				"x": -0.9374792136,
				"y": 5.2903314071,
				"z": 1.8054552087,
				"element": "H" 
			},
			{
				"x": -0.0519415386,
				"y": 5.7873226482,
				"z": 0.371282969,
				"element": "H" 
			},
			{
				"x": -0.0412309086,
				"y": 3.6725701183,
				"z": 3.319356992,
				"element": "H" 
			},
			{
				"x": 1.8814910437,
				"y": 2.3042760229,
				"z": 4.0639285156,
				"element": "H" 
			},
			{
				"x": 3.8058294347,
				"y": 1.9221391553,
				"z": 2.533758065,
				"element": "H" 
			},
			{
				"x": 3.7903545512,
				"y": 2.9346568077,
				"z": 0.2611889888,
				"element": "H" 
			},
			{
				"x": 1.8753493521,
				"y": 4.3054159439,
				"z": -0.4736603813,
				"element": "H" 
			},
			{
				"x": -3.2414028533,
				"y": 3.2460252781,
				"z": 0.0728078312,
				"element": "H" 
			},
			{
				"x": -2.5839022788,
				"y": 3.5850214432,
				"z": 1.6713191208,
				"element": "H" 
			},
			{
				"x": -2.496651182,
				"y": 1.1192583641,
				"z": 0.856404462,
				"element": "H" 
			},
			{
				"x": -1.0087253863,
				"y": 1.737192295,
				"z": 1.5223153851,
				"element": "H" 
			}
		],
		 "valence_orbital": [ 
			{
				"type": "occ",
				"energy": -0.24372,
				"method": "rhf"
			},
			{
				"type": "occ",
				"energy": -0.24283,
				"method": "rhf"
			},
			{
				"type": "occ",
				"energy": -0.22271,
				"method": "rhf"
			},
			{
				"type": "occ",
				"energy": -0.20769,
				"method": "rhf"
			},
			{
				"type": "occ",
				"energy": -0.20393,
				"method": "rhf"
			},
			{
				"type": "unocc",
				"energy": -0.06465,
				"method": "rhf"
			},
			{
				"type": "unocc",
				"energy": -0.01229,
				"method": "rhf"
			},
			{
				"type": "unocc",
				"energy": -0.00232,
				"method": "rhf"
			},
			{
				"type": "unocc",
				"energy": 0.00092,
				"method": "rhf"
			},
			{
				"type": "unocc",
				"energy": 0.0172,
				"method": "rhf"
			}
		],
		"cosmo_sigma_profile": { 
			"-0.025": 0.0,
			"-0.024": 0.0,
			"-0.023": 0.0,
			"-0.022": 0.0,
			"-0.021": 0.0,
			"-0.02": 0.0,
			"-0.019": 0.0,
			"-0.018": 0.0,
			"-0.017": 0.0,
			"-0.016": 0.0,
			"-0.015": 0.449610296544,
			"-0.014": 0.551644521347,
			"-0.013": 0.637584106665,
			"-0.012": 0.644173041715,
			"-0.011": 0.969014417762,
			"-0.01": 0.606893639588,
			"-0.009": 1.34938753741,
			"-0.008": 1.42426175969,
			"-0.007": 2.29255268241,
			"-0.006": 13.2510649256,
			"-0.005": 32.174332925,
			"-0.004": 54.0206182332,
			"-0.003": 54.703538651,
			"-0.002": 46.7118207629,
			"-0.001": 49.3965276352,
			"0.0": 40.0383403825,
			"0.001": 26.0209866489,
			"0.002": 24.2362362059,
			"0.003": 22.6818696914,
			"0.004": 19.2886951432,
			"0.005": 18.3840119698,
			"0.006": 18.358881559,
			"0.007": 11.1863388527,
			"0.008": 10.1723411293,
			"0.009": 7.16523229121,
			"0.01": 4.91887771215,
			"0.011": 7.44534796639,
			"0.012": 5.17364712731,
			"0.013": 0.304178376014,
			"0.014": 0.490818058444,
			"0.015": 0.0688863696271,
			"0.016": 0.0,
			"0.017": 0.0,
			"0.018": 0.0,
			"0.019": 0.0,
			"0.02": 0.0,
			"0.021": 0.0,
			"0.022": 0.0,
			"0.023": 0.0,
			"0.024": 0.0,
			"0.025": 0.0
		}
	}
}
