{
	 "smiles": "CC(=O)C1=CC(=C(C)C=C1)S(N)(=O)=O", 
	 "Tm": 418.15, 
	 "num_atms": 25, 
	 "gaussian": { 
		 "optdone": 1, 
		 "sigma_profile": "yes", 
		 "theory": "DFT", 
		 "functional": "B3LYP", 
		 "basiset": "6-31G**", 
		 "properties": { 
			 "R2extent": 3827.9535, 
			 "electric_dipole_moment_norm": 7.56982682827, 
			 "electric_quadrupole_moment_norm": 17.7785301696, 
			 "total_energy": -1028.13495008, 
			 "HOMO_LUMO_gap": 0.18673, 
			 "cosmo_polarized_energy": -23.51, 
			 "cosmo_cavitation_energy": 29.88, 
			 "cosmo_dispersion_energy": -22.2, 
			 "cosmo_repulsion_energy": 1.69, 
			 "cosmo_total_nonelectrostatic_energy": 9.36, 
			 "SMD_solvation_energy": 5.48 
		},
		"coords": [
			{
				"x": 0.3771453132,
				"y": -3.3603468188,
				"z": -1.5224079711,
				"element": "C" 
			},
			{
				"x": -0.5332351219,
				"y": -2.1987054933,
				"z": -1.1642983747,
				"element": "C" 
			},
			{
				"x": -1.7466218248,
				"y": -2.3271219087,
				"z": -1.1755239815,
				"element": "O" 
			},
			{
				"x": 0.0878855719,
				"y": -0.8824614872,
				"z": -0.7932346998,
				"element": "C" 
			},
			{
				"x": -0.7647329591,
				"y": 0.1921876664,
				"z": -0.5044921225,
				"element": "C" 
			},
			{
				"x": -0.2447796407,
				"y": 1.4332416352,
				"z": -0.1503450586,
				"element": "C" 
			},
			{
				"x": 1.1492284356,
				"y": 1.6578202849,
				"z": -0.0743749597,
				"element": "C" 
			},
			{
				"x": 1.7682003536,
				"y": 2.9795764214,
				"z": 0.310213593,
				"element": "C" 
			},
			{
				"x": 1.9812286348,
				"y": 0.5701592949,
				"z": -0.368993896,
				"element": "C" 
			},
			{
				"x": 1.4700712261,
				"y": -0.6770592715,
				"z": -0.723029567,
				"element": "C" 
			},
			{
				"x": -1.4572657754,
				"y": 2.7430857427,
				"z": 0.1687384566,
				"element": "S" 
			},
			{
				"x": -1.3926470051,
				"y": 3.0861298575,
				"z": 1.8102907963,
				"element": "N" 
			},
			{
				"x": -1.0102210716,
				"y": 3.9601680769,
				"z": -0.5087634312,
				"element": "O" 
			},
			{
				"x": -2.7782585826,
				"y": 2.1647350141,
				"z": -0.0597861607,
				"element": "O" 
			},
			{
				"x": 1.037324451,
				"y": -3.6158021298,
				"z": -0.6859318904,
				"element": "H" 
			},
			{
				"x": -0.2409419298,
				"y": -4.22345706,
				"z": -1.7702202134,
				"element": "H" 
			},
			{
				"x": 1.0144290333,
				"y": -3.1114281051,
				"z": -2.3781980063,
				"element": "H" 
			},
			{
				"x": -1.8369499733,
				"y": 0.0456996376,
				"z": -0.5682777109,
				"element": "H" 
			},
			{
				"x": 2.8507035258,
				"y": 2.9498668943,
				"z": 0.1676067263,
				"element": "H" 
			},
			{
				"x": 1.3502974702,
				"y": 3.8017476312,
				"z": -0.2739307184,
				"element": "H" 
			},
			{
				"x": 1.590719389,
				"y": 3.208606507,
				"z": 1.3692782177,
				"element": "H" 
			},
			{
				"x": 3.0574007015,
				"y": 0.7117044564,
				"z": -0.3228412945,
				"element": "H" 
			},
			{
				"x": 2.1595770041,
				"y": -1.4852811831,
				"z": -0.9443114404,
				"element": "H" 
			},
			{
				"x": -1.6686000848,
				"y": 2.3061365652,
				"z": 2.397470305,
				"element": "H" 
			},
			{
				"x": -0.537657141,
				"y": 3.5450977721,
				"z": 2.1036634022,
				"element": "H" 
			}
		],
		 "valence_orbital": [ 
			{
				"type": "occ",
				"energy": -0.30716,
				"method": "rhf"
			},
			{
				"type": "occ",
				"energy": -0.30443,
				"method": "rhf"
			},
			{
				"type": "occ",
				"energy": -0.27689,
				"method": "rhf"
			},
			{
				"type": "occ",
				"energy": -0.27032,
				"method": "rhf"
			},
			{
				"type": "occ",
				"energy": -0.25803,
				"method": "rhf"
			},
			{
				"type": "unocc",
				"energy": -0.0713,
				"method": "rhf"
			},
			{
				"type": "unocc",
				"energy": -0.04022,
				"method": "rhf"
			},
			{
				"type": "unocc",
				"energy": 0.0148,
				"method": "rhf"
			},
			{
				"type": "unocc",
				"energy": 0.04442,
				"method": "rhf"
			},
			{
				"type": "unocc",
				"energy": 0.06588,
				"method": "rhf"
			}
		],
		"cosmo_sigma_profile": { 
			"-0.025": 0.0,
			"-0.024": 0.0,
			"-0.023": 0.0,
			"-0.022": 0.0,
			"-0.021": 0.0,
			"-0.02": 0.0,
			"-0.019": 0.0,
			"-0.018": 0.0,
			"-0.017": 0.0,
			"-0.016": 0.238646685752,
			"-0.015": 2.09231539767,
			"-0.014": 1.99349471216,
			"-0.013": 3.26553046661,
			"-0.012": 3.14109284047,
			"-0.011": 3.01490687309,
			"-0.01": 2.18467188119,
			"-0.009": 1.97830048731,
			"-0.008": 3.2883316013,
			"-0.007": 10.3784203152,
			"-0.006": 15.4748557151,
			"-0.005": 11.8939010432,
			"-0.004": 12.4859617388,
			"-0.003": 13.2047559798,
			"-0.002": 18.0895462332,
			"-0.001": 21.8931549555,
			"0.0": 15.3860341012,
			"0.001": 15.6433341085,
			"0.002": 13.2818290928,
			"0.003": 5.30409856431,
			"0.004": 4.4905568444,
			"0.005": 4.51193830814,
			"0.006": 5.5765648684,
			"0.007": 5.91650554897,
			"0.008": 5.39469189883,
			"0.009": 7.34070358797,
			"0.01": 9.7804239706,
			"0.011": 12.3213438036,
			"0.012": 6.93258438989,
			"0.013": 0.966147854986,
			"0.014": 0.0,
			"0.015": 0.0,
			"0.016": 0.0,
			"0.017": 0.0,
			"0.018": 0.0,
			"0.019": 0.0,
			"0.02": 0.0,
			"0.021": 0.0,
			"0.022": 0.0,
			"0.023": 0.0,
			"0.024": 0.0,
			"0.025": 0.0
		}
	}
}
