{
	 "smiles": "ClC1=CC2=C(C3=C(O2)C(Cl)=C(Cl)C=C3)C(Cl)=C1Cl", 
	 "Tm": 479.15, 
	 "num_atms": 21, 
	 "gaussian": { 
		 "optdone": 1, 
		 "sigma_profile": "yes", 
		 "theory": "DFT", 
		 "functional": "B3LYP", 
		 "basiset": "6-31G**", 
		 "properties": { 
			 "R2extent": 9718.4735, 
			 "electric_dipole_moment_norm": 0.786158590871, 
			 "electric_quadrupole_moment_norm": 12.3252508526, 
			 "total_energy": -2835.26105022, 
			 "HOMO_LUMO_gap": 0.17254, 
			 "cosmo_polarized_energy": -5.26, 
			 "cosmo_cavitation_energy": 34.7, 
			 "cosmo_dispersion_energy": -26.4, 
			 "cosmo_repulsion_energy": 2.0, 
			 "cosmo_total_nonelectrostatic_energy": 10.3, 
			 "SMD_solvation_energy": 4.57 
		},
		"coords": [
			{
				"x": -3.0361202388,
				"y": 5.1993688039,
				"z": -1.4283892945,
				"element": "Cl" 
			},
			{
				"x": -2.3716234299,
				"y": 3.5913781084,
				"z": -1.3190778855,
				"element": "C" 
			},
			{
				"x": -1.1962068612,
				"y": 3.4241224821,
				"z": -0.5876752312,
				"element": "C" 
			},
			{
				"x": -0.6867394591,
				"y": 2.1403599622,
				"z": -0.5141347685,
				"element": "C" 
			},
			{
				"x": -1.2821967038,
				"y": 1.0229990054,
				"z": -1.1262842614,
				"element": "C" 
			},
			{
				"x": -0.4279443256,
				"y": -0.1039073624,
				"z": -0.7967288358,
				"element": "C" 
			},
			{
				"x": 0.6047208506,
				"y": 0.4462855623,
				"z": -0.0140016567,
				"element": "C" 
			},
			{
				"x": 0.4565533741,
				"y": 1.7966066915,
				"z": 0.1609220943,
				"element": "O" 
			},
			{
				"x": 1.6498923226,
				"y": -0.3062725946,
				"z": 0.5151069001,
				"element": "C" 
			},
			{
				"x": 2.8780586866,
				"y": 0.4618435299,
				"z": 1.4688310078,
				"element": "Cl" 
			},
			{
				"x": 1.6367866589,
				"y": -1.6790878721,
				"z": 0.2307984731,
				"element": "C" 
			},
			{
				"x": 2.896736768,
				"y": -2.7177183532,
				"z": 0.8423000731,
				"element": "Cl" 
			},
			{
				"x": 0.6160213377,
				"y": -2.2499220697,
				"z": -0.5483137214,
				"element": "C" 
			},
			{
				"x": -0.4175885405,
				"y": -1.4778872513,
				"z": -1.0660219293,
				"element": "C" 
			},
			{
				"x": -2.4613739137,
				"y": 1.2162407041,
				"z": -1.8549452207,
				"element": "C" 
			},
			{
				"x": -3.2223710923,
				"y": -0.148326661,
				"z": -2.6246134337,
				"element": "Cl" 
			},
			{
				"x": -3.0135365144,
				"y": 2.5034247345,
				"z": -1.9555862182,
				"element": "C" 
			},
			{
				"x": -4.477115606,
				"y": 2.7575446778,
				"z": -2.8571824747,
				"element": "Cl" 
			},
			{
				"x": -0.7110936004,
				"y": 4.2618858834,
				"z": -0.1035433797,
				"element": "H" 
			},
			{
				"x": 0.6507708437,
				"y": -3.3160869951,
				"z": -0.7398792471,
				"element": "H" 
			},
			{
				"x": -1.1953305567,
				"y": -1.9354509859,
				"z": -1.6641809902,
				"element": "H" 
			}
		],
		 "valence_orbital": [ 
			{
				"type": "occ",
				"energy": -0.31565,
				"method": "rhf"
			},
			{
				"type": "occ",
				"energy": -0.29238,
				"method": "rhf"
			},
			{
				"type": "occ",
				"energy": -0.27485,
				"method": "rhf"
			},
			{
				"type": "occ",
				"energy": -0.25175,
				"method": "rhf"
			},
			{
				"type": "occ",
				"energy": -0.244,
				"method": "rhf"
			},
			{
				"type": "unocc",
				"energy": -0.07146,
				"method": "rhf"
			},
			{
				"type": "unocc",
				"energy": -0.0388,
				"method": "rhf"
			},
			{
				"type": "unocc",
				"energy": -0.02858,
				"method": "rhf"
			},
			{
				"type": "unocc",
				"energy": -0.02241,
				"method": "rhf"
			},
			{
				"type": "unocc",
				"energy": -0.01107,
				"method": "rhf"
			}
		],
		"cosmo_sigma_profile": { 
			"-0.025": 0.0,
			"-0.024": 0.0,
			"-0.023": 0.0,
			"-0.022": 0.0,
			"-0.021": 0.0,
			"-0.02": 0.0,
			"-0.019": 0.0,
			"-0.018": 0.0,
			"-0.017": 0.0,
			"-0.016": 0.0,
			"-0.015": 0.0,
			"-0.014": 0.0,
			"-0.013": 0.0,
			"-0.012": 0.0,
			"-0.011": 0.0,
			"-0.01": 0.952593832862,
			"-0.009": 1.62671829826,
			"-0.008": 3.6303689944,
			"-0.007": 4.48892790398,
			"-0.006": 5.45947797547,
			"-0.005": 4.11514013299,
			"-0.004": 10.9661887519,
			"-0.003": 16.6441685019,
			"-0.002": 32.1478475011,
			"-0.001": 48.2527754552,
			"0.0": 35.5632973357,
			"0.001": 27.1630796257,
			"0.002": 29.8645482429,
			"0.003": 38.9141251056,
			"0.004": 26.0528077752,
			"0.005": 4.47714664241,
			"0.006": 1.87263013057,
			"0.007": 0.512825388767,
			"0.008": 0.0,
			"0.009": 0.0,
			"0.01": 0.0,
			"0.011": 0.0,
			"0.012": 0.0,
			"0.013": 0.0,
			"0.014": 0.0,
			"0.015": 0.0,
			"0.016": 0.0,
			"0.017": 0.0,
			"0.018": 0.0,
			"0.019": 0.0,
			"0.02": 0.0,
			"0.021": 0.0,
			"0.022": 0.0,
			"0.023": 0.0,
			"0.024": 0.0,
			"0.025": 0.0
		}
	}
}
