{
	 "smiles": "O=C(OC(=O)C1=CC=CS1)C1=CC=CS1", 
	 "Tm": 332.65, 
	 "num_atms": 21, 
	 "gaussian": { 
		 "optdone": 1, 
		 "sigma_profile": "yes", 
		 "theory": "DFT", 
		 "functional": "B3LYP", 
		 "basiset": "6-31G**", 
		 "properties": { 
			 "R2extent": 5005.275, 
			 "electric_dipole_moment_norm": 4.83106390043, 
			 "electric_quadrupole_moment_norm": 22.3226254601, 
			 "total_energy": -1406.71002264, 
			 "HOMO_LUMO_gap": 0.18036, 
			 "cosmo_polarized_energy": -13.45, 
			 "cosmo_cavitation_energy": 30.87, 
			 "cosmo_dispersion_energy": -22.96, 
			 "cosmo_repulsion_energy": 1.7, 
			 "cosmo_total_nonelectrostatic_energy": 9.61, 
			 "SMD_solvation_energy": 7.13 
		},
		"coords": [
			{
				"x": -1.8045786376,
				"y": 0.8660461219,
				"z": -1.9625297045,
				"element": "O" 
			},
			{
				"x": -1.363610747,
				"y": 0.022398861,
				"z": -1.2239958101,
				"element": "C" 
			},
			{
				"x": -0.2266369811,
				"y": 0.2094137463,
				"z": -0.4343489738,
				"element": "O" 
			},
			{
				"x": 0.8038567642,
				"y": 1.0399053092,
				"z": -0.8762270835,
				"element": "C" 
			},
			{
				"x": 1.0535483862,
				"y": 1.2359566863,
				"z": -2.0376037791,
				"element": "O" 
			},
			{
				"x": 1.5629500302,
				"y": 1.5714022155,
				"z": 0.2569362001,
				"element": "C" 
			},
			{
				"x": 2.6894146395,
				"y": 2.3582219836,
				"z": 0.1539376637,
				"element": "C" 
			},
			{
				"x": 3.2138656013,
				"y": 2.7373987071,
				"z": 1.4161615677,
				"element": "C" 
			},
			{
				"x": 2.4791713792,
				"y": 2.2332769015,
				"z": 2.4617654851,
				"element": "C" 
			},
			{
				"x": 1.1366462357,
				"y": 1.2899274003,
				"z": 1.9257933958,
				"element": "S" 
			},
			{
				"x": -1.9541888515,
				"y": -1.2900808214,
				"z": -0.9705196386,
				"element": "C" 
			},
			{
				"x": -1.4998935181,
				"y": -2.3186577027,
				"z": -0.1724678011,
				"element": "C" 
			},
			{
				"x": -2.3592942132,
				"y": -3.4475582351,
				"z": -0.1924795176,
				"element": "C" 
			},
			{
				"x": -3.4519054797,
				"y": -3.2581450169,
				"z": -1.0037723338,
				"element": "C" 
			},
			{
				"x": -3.4537879203,
				"y": -1.706523004,
				"z": -1.7571523191,
				"element": "S" 
			},
			{
				"x": 3.1036564756,
				"y": 2.6414713017,
				"z": -0.8061088671,
				"element": "H" 
			},
			{
				"x": 4.0940074037,
				"y": 3.3556248983,
				"z": 1.54782126,
				"element": "H" 
			},
			{
				"x": 2.6542305515,
				"y": 2.3670021106,
				"z": 3.5209146473,
				"element": "H" 
			},
			{
				"x": -0.5827064481,
				"y": -2.2516580333,
				"z": 0.3991384818,
				"element": "H" 
			},
			{
				"x": -2.178888439,
				"y": -4.3585522784,
				"z": 0.3659335058,
				"element": "H" 
			},
			{
				"x": -4.2580562315,
				"y": -3.9521711516,
				"z": -1.2005963789,
				"element": "H" 
			}
		],
		 "valence_orbital": [ 
			{
				"type": "occ",
				"energy": -0.27914,
				"method": "rhf"
			},
			{
				"type": "occ",
				"energy": -0.26981,
				"method": "rhf"
			},
			{
				"type": "occ",
				"energy": -0.26867,
				"method": "rhf"
			},
			{
				"type": "occ",
				"energy": -0.25568,
				"method": "rhf"
			},
			{
				"type": "occ",
				"energy": -0.25388,
				"method": "rhf"
			},
			{
				"type": "unocc",
				"energy": -0.07352,
				"method": "rhf"
			},
			{
				"type": "unocc",
				"energy": -0.05832,
				"method": "rhf"
			},
			{
				"type": "unocc",
				"energy": 0.01568,
				"method": "rhf"
			},
			{
				"type": "unocc",
				"energy": 0.01942,
				"method": "rhf"
			},
			{
				"type": "unocc",
				"energy": 0.02202,
				"method": "rhf"
			}
		],
		"cosmo_sigma_profile": { 
			"-0.025": 0.0,
			"-0.024": 0.0,
			"-0.023": 0.0,
			"-0.022": 0.0,
			"-0.021": 0.0,
			"-0.02": 0.0,
			"-0.019": 0.0,
			"-0.018": 0.0,
			"-0.017": 0.0,
			"-0.016": 0.0,
			"-0.015": 0.0,
			"-0.014": 0.0,
			"-0.013": 0.0,
			"-0.012": 0.0,
			"-0.011": 0.0,
			"-0.01": 2.1464096744,
			"-0.009": 4.52172046991,
			"-0.008": 7.43018052397,
			"-0.007": 12.2580132899,
			"-0.006": 10.5823005065,
			"-0.005": 11.9369198557,
			"-0.004": 10.4999520164,
			"-0.003": 14.8949937938,
			"-0.002": 16.1696021506,
			"-0.001": 18.0154786415,
			"0.0": 21.1004280354,
			"0.001": 35.4665314071,
			"0.002": 34.4153835973,
			"0.003": 17.9012240233,
			"0.004": 4.26583474344,
			"0.005": 3.01039477432,
			"0.006": 2.07166713603,
			"0.007": 2.60677089515,
			"0.008": 3.39874562443,
			"0.009": 4.7371217761,
			"0.01": 8.43906992895,
			"0.011": 6.5855658073,
			"0.012": 1.78018149354,
			"0.013": 0.0179068889562,
			"0.014": 0.0,
			"0.015": 0.0,
			"0.016": 0.0,
			"0.017": 0.0,
			"0.018": 0.0,
			"0.019": 0.0,
			"0.02": 0.0,
			"0.021": 0.0,
			"0.022": 0.0,
			"0.023": 0.0,
			"0.024": 0.0,
			"0.025": 0.0
		}
	}
}
