{
	 "smiles": "CCN1N=CC(C#N)=C1N", 
	 "Tm": 433.15, 
	 "num_atms": 18, 
	 "gaussian": { 
		 "optdone": 1, 
		 "sigma_profile": "yes", 
		 "theory": "DFT", 
		 "functional": "B3LYP", 
		 "basiset": "6-31G**", 
		 "properties": { 
			 "R2extent": 1788.0925, 
			 "electric_dipole_moment_norm": 5.61824617118, 
			 "electric_quadrupole_moment_norm": 16.453190259, 
			 "total_energy": -452.43612133, 
			 "HOMO_LUMO_gap": 0.2285, 
			 "cosmo_polarized_energy": -16.61, 
			 "cosmo_cavitation_energy": 23.08, 
			 "cosmo_dispersion_energy": -16.16, 
			 "cosmo_repulsion_energy": 1.33, 
			 "cosmo_total_nonelectrostatic_energy": 8.25, 
			 "SMD_solvation_energy": 4.65 
		},
		"coords": [
			{
				"x": -1.8465124152,
				"y": 0.0206214249,
				"z": 1.9969085899,
				"element": "C" 
			},
			{
				"x": -0.9503230197,
				"y": -0.7460289076,
				"z": 1.0221640015,
				"element": "C" 
			},
			{
				"x": 0.0740693035,
				"y": 0.0957122457,
				"z": 0.4163775594,
				"element": "N" 
			},
			{
				"x": 1.3249705431,
				"y": 0.1461043965,
				"z": 0.9826941346,
				"element": "N" 
			},
			{
				"x": 1.975848087,
				"y": 1.0624187056,
				"z": 0.291971483,
				"element": "C" 
			},
			{
				"x": 1.1699556525,
				"y": 1.6274828021,
				"z": -0.7365816293,
				"element": "C" 
			},
			{
				"x": 1.4814350785,
				"y": 2.6022518501,
				"z": -1.7102686609,
				"element": "C" 
			},
			{
				"x": 1.7003453236,
				"y": 3.3999157075,
				"z": -2.5323254237,
				"element": "N" 
			},
			{
				"x": -0.061472739,
				"y": 0.9697886877,
				"z": -0.6099953109,
				"element": "C" 
			},
			{
				"x": -1.245975798,
				"y": 1.1696489907,
				"z": -1.2927282708,
				"element": "N" 
			},
			{
				"x": -1.2452834931,
				"y": 0.4536353961,
				"z": 2.8006948791,
				"element": "H" 
			},
			{
				"x": -2.5840331431,
				"y": -0.6556443705,
				"z": 2.440371262,
				"element": "H" 
			},
			{
				"x": -2.3800102139,
				"y": 0.8285781973,
				"z": 1.4882899233,
				"element": "H" 
			},
			{
				"x": -1.5433726402,
				"y": -1.2077087598,
				"z": 0.2235963093,
				"element": "H" 
			},
			{
				"x": -0.4098020204,
				"y": -1.547569476,
				"z": 1.5292209538,
				"element": "H" 
			},
			{
				"x": 3.0048693467,
				"y": 1.2986029528,
				"z": 0.5256245559,
				"element": "H" 
			},
			{
				"x": -1.134665589,
				"y": 1.7485925833,
				"z": -2.1159792742,
				"element": "H" 
			},
			{
				"x": -1.7848422633,
				"y": 0.3357975736,
				"z": -1.490235082,
				"element": "H" 
			}
		],
		 "valence_orbital": [ 
			{
				"type": "occ",
				"energy": -0.34527,
				"method": "rhf"
			},
			{
				"type": "occ",
				"energy": -0.33017,
				"method": "rhf"
			},
			{
				"type": "occ",
				"energy": -0.29639,
				"method": "rhf"
			},
			{
				"type": "occ",
				"energy": -0.25778,
				"method": "rhf"
			},
			{
				"type": "occ",
				"energy": -0.22635,
				"method": "rhf"
			},
			{
				"type": "unocc",
				"energy": 0.00215,
				"method": "rhf"
			},
			{
				"type": "unocc",
				"energy": 0.01732,
				"method": "rhf"
			},
			{
				"type": "unocc",
				"energy": 0.02736,
				"method": "rhf"
			},
			{
				"type": "unocc",
				"energy": 0.04816,
				"method": "rhf"
			},
			{
				"type": "unocc",
				"energy": 0.09937,
				"method": "rhf"
			}
		],
		"cosmo_sigma_profile": { 
			"-0.025": 0.0,
			"-0.024": 0.0,
			"-0.023": 0.0,
			"-0.022": 0.0,
			"-0.021": 0.0,
			"-0.02": 0.0,
			"-0.019": 0.0,
			"-0.018": 0.0,
			"-0.017": 0.0,
			"-0.016": 0.0,
			"-0.015": 0.289383208604,
			"-0.014": 2.80934662445,
			"-0.013": 3.05361558781,
			"-0.012": 3.03438644668,
			"-0.011": 3.08108581386,
			"-0.01": 1.92754618732,
			"-0.009": 3.28869315981,
			"-0.008": 4.72089048128,
			"-0.007": 4.92309458358,
			"-0.006": 5.79923828281,
			"-0.005": 7.52045998378,
			"-0.004": 12.219264787,
			"-0.003": 13.6415396915,
			"-0.002": 12.4056498066,
			"-0.001": 12.6732233872,
			"0.0": 14.7660279297,
			"0.001": 12.6535538068,
			"0.002": 10.1318931791,
			"0.003": 6.80150341598,
			"0.004": 5.46647896106,
			"0.005": 4.6750083614,
			"0.006": 3.97868086048,
			"0.007": 4.99887115451,
			"0.008": 4.369977281,
			"0.009": 4.77143099793,
			"0.01": 5.25193249003,
			"0.011": 4.92560124812,
			"0.012": 3.62465369546,
			"0.013": 3.4949889479,
			"0.014": 2.10160437937,
			"0.015": 0.749924229879,
			"0.016": 0.0,
			"0.017": 0.0,
			"0.018": 0.0,
			"0.019": 0.0,
			"0.02": 0.0,
			"0.021": 0.0,
			"0.022": 0.0,
			"0.023": 0.0,
			"0.024": 0.0,
			"0.025": 0.0
		}
	}
}
