{
	 "smiles": "CC(=NO)C1=CC(=CNC1=O)C(O)=O", 
	 "Tm": 555.15, 
	 "num_atms": 22, 
	 "gaussian": { 
		 "optdone": 1, 
		 "sigma_profile": "yes", 
		 "theory": "DFT", 
		 "functional": "B3LYP", 
		 "basiset": "6-31G**", 
		 "properties": { 
			 "R2extent": 3862.8087, 
			 "electric_dipole_moment_norm": 1.14745327574, 
			 "electric_quadrupole_moment_norm": 27.3527007147, 
			 "total_energy": -720.028083143, 
			 "HOMO_LUMO_gap": 0.1602, 
			 "cosmo_polarized_energy": -23.52, 
			 "cosmo_cavitation_energy": 27.22, 
			 "cosmo_dispersion_energy": -19.91, 
			 "cosmo_repulsion_energy": 1.58, 
			 "cosmo_total_nonelectrostatic_energy": 8.9, 
			 "SMD_solvation_energy": 6.89 
		},
		"coords": [
			{
				"x": -0.5384317519,
				"y": 2.6976768776,
				"z": 0.406996747,
				"element": "C" 
			},
			{
				"x": 0.1894953545,
				"y": 1.4690341757,
				"z": 0.8955920168,
				"element": "C" 
			},
			{
				"x": -0.1827627883,
				"y": 1.0549077802,
				"z": 2.0580734863,
				"element": "N" 
			},
			{
				"x": 0.4939070652,
				"y": -0.0979741907,
				"z": 2.5082030185,
				"element": "O" 
			},
			{
				"x": 1.2093619277,
				"y": 0.8256375821,
				"z": 0.0256161885,
				"element": "C" 
			},
			{
				"x": 1.2983929733,
				"y": -0.5407480609,
				"z": -0.1009450194,
				"element": "C" 
			},
			{
				"x": 2.2385365358,
				"y": -1.1831237142,
				"z": -0.9586473042,
				"element": "C" 
			},
			{
				"x": 3.0673642775,
				"y": -0.3821426067,
				"z": -1.7060933919,
				"element": "C" 
			},
			{
				"x": 2.9975332233,
				"y": 0.9591795348,
				"z": -1.5889334477,
				"element": "N" 
			},
			{
				"x": 2.1261005057,
				"y": 1.6806346925,
				"z": -0.7343598229,
				"element": "C" 
			},
			{
				"x": 2.2175468223,
				"y": 2.9024822518,
				"z": -0.7059439601,
				"element": "O" 
			},
			{
				"x": 2.3827843049,
				"y": -2.6556423333,
				"z": -1.1287800443,
				"element": "C" 
			},
			{
				"x": 1.7722535986,
				"y": -3.444779274,
				"z": -0.2080129081,
				"element": "O" 
			},
			{
				"x": 3.0135834125,
				"y": -3.1561476914,
				"z": -2.0330734916,
				"element": "O" 
			},
			{
				"x": -1.2866770801,
				"y": 2.9896766867,
				"z": 1.1457262874,
				"element": "H" 
			},
			{
				"x": -1.0390842555,
				"y": 2.4910785752,
				"z": -0.5463065528,
				"element": "H" 
			},
			{
				"x": 0.1642225813,
				"y": 3.5151412546,
				"z": 0.236256061,
				"element": "H" 
			},
			{
				"x": 0.1426396212,
				"y": -0.1852989692,
				"z": 3.4042074357,
				"element": "H" 
			},
			{
				"x": 0.5953177583,
				"y": -1.1371550835,
				"z": 0.4695897836,
				"element": "H" 
			},
			{
				"x": 3.7902515879,
				"y": -0.8011527651,
				"z": -2.3967224911,
				"element": "H" 
			},
			{
				"x": 3.6212393728,
				"y": 1.5548216382,
				"z": -2.1219254594,
				"element": "H" 
			},
			{
				"x": 1.4444249532,
				"y": -2.9205063604,
				"z": 0.5358828687,
				"element": "H" 
			}
		],
		 "valence_orbital": [ 
			{
				"type": "occ",
				"energy": -0.28718,
				"method": "rhf"
			},
			{
				"type": "occ",
				"energy": -0.28341,
				"method": "rhf"
			},
			{
				"type": "occ",
				"energy": -0.27552,
				"method": "rhf"
			},
			{
				"type": "occ",
				"energy": -0.26361,
				"method": "rhf"
			},
			{
				"type": "occ",
				"energy": -0.23522,
				"method": "rhf"
			},
			{
				"type": "unocc",
				"energy": -0.07502,
				"method": "rhf"
			},
			{
				"type": "unocc",
				"energy": -0.0456,
				"method": "rhf"
			},
			{
				"type": "unocc",
				"energy": -0.00092,
				"method": "rhf"
			},
			{
				"type": "unocc",
				"energy": 0.04609,
				"method": "rhf"
			},
			{
				"type": "unocc",
				"energy": 0.05577,
				"method": "rhf"
			}
		],
		"cosmo_sigma_profile": { 
			"-0.025": 0.0,
			"-0.024": 0.0,
			"-0.023": 0.0,
			"-0.022": 0.0,
			"-0.021": 0.0,
			"-0.02": 0.0,
			"-0.019": 0.0,
			"-0.018": 0.360638896992,
			"-0.017": 3.39391384371,
			"-0.016": 3.48611450758,
			"-0.015": 3.60000747705,
			"-0.014": 2.85927659036,
			"-0.013": 3.09723777755,
			"-0.012": 2.67008922431,
			"-0.011": 4.27176422843,
			"-0.01": 3.96001362983,
			"-0.009": 3.33137942017,
			"-0.008": 3.52794954323,
			"-0.007": 2.8187046355,
			"-0.006": 4.8862995832,
			"-0.005": 5.61949574124,
			"-0.004": 10.4894895086,
			"-0.003": 16.5257781174,
			"-0.002": 16.7621760368,
			"-0.001": 16.3065187503,
			"0.0": 14.9014305748,
			"0.001": 8.66551873497,
			"0.002": 7.81718965325,
			"0.003": 7.63960906378,
			"0.004": 6.81391201296,
			"0.005": 7.24935486637,
			"0.006": 7.27345637378,
			"0.007": 5.99753735585,
			"0.008": 6.89524149079,
			"0.009": 5.92726962043,
			"0.01": 7.59615541833,
			"0.011": 7.98029525298,
			"0.012": 8.36339556998,
			"0.013": 5.57080280291,
			"0.014": 0.361032533477,
			"0.015": 0.0,
			"0.016": 0.0,
			"0.017": 0.0,
			"0.018": 0.0,
			"0.019": 0.0,
			"0.02": 0.0,
			"0.021": 0.0,
			"0.022": 0.0,
			"0.023": 0.0,
			"0.024": 0.0,
			"0.025": 0.0
		}
	}
}
