{
	 "smiles": "CCCCCCCCCCCCCC=CC(O)C(N)CO", 
	 "Tm": 354.65, 
	 "num_atms": 58, 
	 "gaussian": { 
		 "optdone": 1, 
		 "sigma_profile": "yes", 
		 "theory": "DFT", 
		 "functional": "B3LYP", 
		 "basiset": "6-31G**", 
		 "properties": { 
			 "R2extent": 10448.1256, 
			 "electric_dipole_moment_norm": 3.10321037153, 
			 "electric_quadrupole_moment_norm": 10.116671203, 
			 "total_energy": -913.406668131, 
			 "HOMO_LUMO_gap": 0.25057, 
			 "cosmo_polarized_energy": -12.35, 
			 "cosmo_cavitation_energy": 55.49, 
			 "cosmo_dispersion_energy": -34.9, 
			 "cosmo_repulsion_energy": 2.78, 
			 "cosmo_total_nonelectrostatic_energy": 23.36, 
			 "SMD_solvation_energy": 6.88 
		},
		"coords": [
			{
				"x": 1.9164224897,
				"y": -5.0191939075,
				"z": -0.3407217593,
				"element": "C" 
			},
			{
				"x": 1.8891880602,
				"y": -3.4860424689,
				"z": -0.3318239423,
				"element": "C" 
			},
			{
				"x": 1.5095938848,
				"y": -2.8697023008,
				"z": 1.0262733016,
				"element": "C" 
			},
			{
				"x": 2.4907521157,
				"y": -3.1267068549,
				"z": 2.1856142722,
				"element": "C" 
			},
			{
				"x": 3.9257562874,
				"y": -2.610386269,
				"z": 1.9719740331,
				"element": "C" 
			},
			{
				"x": 4.1082170646,
				"y": -1.0937833654,
				"z": 1.7612452348,
				"element": "C" 
			},
			{
				"x": 3.8162812531,
				"y": -0.2071805361,
				"z": 2.9949429216,
				"element": "C" 
			},
			{
				"x": 2.3657222893,
				"y": 0.2914978653,
				"z": 3.1936435014,
				"element": "C" 
			},
			{
				"x": 2.019131323,
				"y": 1.6276584151,
				"z": 2.5097134569,
				"element": "C" 
			},
			{
				"x": 2.000016454,
				"y": 1.6200788123,
				"z": 0.9750397317,
				"element": "C" 
			},
			{
				"x": 1.5751302083,
				"y": 2.9703642432,
				"z": 0.3755423208,
				"element": "C" 
			},
			{
				"x": 1.4719529303,
				"y": 2.987905414,
				"z": -1.1652065248,
				"element": "C" 
			},
			{
				"x": 0.0710653098,
				"y": 2.6853542071,
				"z": -1.7474823885,
				"element": "C" 
			},
			{
				"x": -0.5057223611,
				"y": 1.3368260432,
				"z": -1.4084892038,
				"element": "C" 
			},
			{
				"x": -0.7611453003,
				"y": 0.3677629718,
				"z": -2.292461115,
				"element": "C" 
			},
			{
				"x": -1.3937642234,
				"y": -0.9537829973,
				"z": -1.9638813964,
				"element": "C" 
			},
			{
				"x": -0.6026983452,
				"y": -1.9889195883,
				"z": -2.5361967998,
				"element": "O" 
			},
			{
				"x": -2.8481547983,
				"y": -1.0597776952,
				"z": -2.5184401028,
				"element": "C" 
			},
			{
				"x": -3.2051524649,
				"y": -2.4848428895,
				"z": -2.6494600281,
				"element": "N" 
			},
			{
				"x": -3.8303071805,
				"y": -0.3681172588,
				"z": -1.5815780622,
				"element": "C" 
			},
			{
				"x": -5.1361458746,
				"y": -0.4964052284,
				"z": -2.139866274,
				"element": "O" 
			},
			{
				"x": 2.6753676616,
				"y": -5.4229084968,
				"z": 0.3384923253,
				"element": "H" 
			},
			{
				"x": 0.9481426425,
				"y": -5.4331667082,
				"z": -0.0337868749,
				"element": "H" 
			},
			{
				"x": 2.1374526231,
				"y": -5.4035471252,
				"z": -1.3422851554,
				"element": "H" 
			},
			{
				"x": 1.1729165426,
				"y": -3.1271296695,
				"z": -1.0801318921,
				"element": "H" 
			},
			{
				"x": 2.8674203018,
				"y": -3.1041649729,
				"z": -0.652106607,
				"element": "H" 
			},
			{
				"x": 1.3811940215,
				"y": -1.7885228531,
				"z": 0.8899804086,
				"element": "H" 
			},
			{
				"x": 0.521491119,
				"y": -3.2511905957,
				"z": 1.3209008408,
				"element": "H" 
			},
			{
				"x": 2.0752411558,
				"y": -2.687949477,
				"z": 3.1018866535,
				"element": "H" 
			},
			{
				"x": 2.5445186072,
				"y": -4.2059054927,
				"z": 2.3800086192,
				"element": "H" 
			},
			{
				"x": 4.3630719137,
				"y": -3.1290387698,
				"z": 1.108993533,
				"element": "H" 
			},
			{
				"x": 4.5334869123,
				"y": -2.9133297372,
				"z": 2.8362542828,
				"element": "H" 
			},
			{
				"x": 3.5127347632,
				"y": -0.7634178686,
				"z": 0.9032630605,
				"element": "H" 
			},
			{
				"x": 5.154733484,
				"y": -0.9360199878,
				"z": 1.4697656066,
				"element": "H" 
			},
			{
				"x": 4.4722045109,
				"y": 0.6736900341,
				"z": 2.9632886951,
				"element": "H" 
			},
			{
				"x": 4.1249866043,
				"y": -0.7646015664,
				"z": 3.8897239031,
				"element": "H" 
			},
			{
				"x": 1.6515183181,
				"y": -0.475021145,
				"z": 2.870549201,
				"element": "H" 
			},
			{
				"x": 2.1926548151,
				"y": 0.4238990314,
				"z": 4.2695146872,
				"element": "H" 
			},
			{
				"x": 1.0296916078,
				"y": 1.9481522305,
				"z": 2.8663106293,
				"element": "H" 
			},
			{
				"x": 2.7243473602,
				"y": 2.3974095341,
				"z": 2.8566843618,
				"element": "H" 
			},
			{
				"x": 1.3311208188,
				"y": 0.8251276608,
				"z": 0.6215426492,
				"element": "H" 
			},
			{
				"x": 2.9953701357,
				"y": 1.3703259655,
				"z": 0.5869446997,
				"element": "H" 
			},
			{
				"x": 2.3033323095,
				"y": 3.7275778154,
				"z": 0.6948865257,
				"element": "H" 
			},
			{
				"x": 0.6154671056,
				"y": 3.2842735543,
				"z": 0.8119572066,
				"element": "H" 
			},
			{
				"x": 1.7611193646,
				"y": 3.9798103691,
				"z": -1.5339142916,
				"element": "H" 
			},
			{
				"x": 2.1974702054,
				"y": 2.2818759126,
				"z": -1.5892848566,
				"element": "H" 
			},
			{
				"x": -0.6179837058,
				"y": 3.4648306466,
				"z": -1.3886046233,
				"element": "H" 
			},
			{
				"x": 0.1156675053,
				"y": 2.7909464469,
				"z": -2.838310829,
				"element": "H" 
			},
			{
				"x": -0.7386503057,
				"y": 1.1565931,
				"z": -0.3580366644,
				"element": "H" 
			},
			{
				"x": -0.5300309633,
				"y": 0.517445028,
				"z": -3.348074652,
				"element": "H" 
			},
			{
				"x": -1.4385311157,
				"y": -1.0761007214,
				"z": -0.8674221672,
				"element": "H" 
			},
			{
				"x": -1.1526632141,
				"y": -2.7853740491,
				"z": -2.4306992266,
				"element": "H" 
			},
			{
				"x": -2.8902490145,
				"y": -0.5445626464,
				"z": -3.4896665432,
				"element": "H" 
			},
			{
				"x": -3.0682650797,
				"y": -2.7817979979,
				"z": -3.6113987916,
				"element": "H" 
			},
			{
				"x": -4.2016062166,
				"y": -2.5855068375,
				"z": -2.4696818642,
				"element": "H" 
			},
			{
				"x": -3.5380592034,
				"y": 0.6846234931,
				"z": -1.4651122557,
				"element": "H" 
			},
			{
				"x": -3.778329834,
				"y": -0.8483588727,
				"z": -0.5908073408,
				"element": "H" 
			},
			{
				"x": -5.7705928789,
				"y": -0.1352718436,
				"z": -1.5090044306,
				"element": "H" 
			}
		],
		 "valence_orbital": [ 
			{
				"type": "occ",
				"energy": -0.28719,
				"method": "rhf"
			},
			{
				"type": "occ",
				"energy": -0.27977,
				"method": "rhf"
			},
			{
				"type": "occ",
				"energy": -0.26479,
				"method": "rhf"
			},
			{
				"type": "occ",
				"energy": -0.25467,
				"method": "rhf"
			},
			{
				"type": "occ",
				"energy": -0.234,
				"method": "rhf"
			},
			{
				"type": "unocc",
				"energy": 0.01657,
				"method": "rhf"
			},
			{
				"type": "unocc",
				"energy": 0.06402,
				"method": "rhf"
			},
			{
				"type": "unocc",
				"energy": 0.07487,
				"method": "rhf"
			},
			{
				"type": "unocc",
				"energy": 0.09085,
				"method": "rhf"
			},
			{
				"type": "unocc",
				"energy": 0.0942,
				"method": "rhf"
			}
		],
		"cosmo_sigma_profile": { 
			"-0.025": 0.0,
			"-0.024": 0.0,
			"-0.023": 0.0,
			"-0.022": 0.0,
			"-0.021": 0.0,
			"-0.02": 0.0,
			"-0.019": 0.0,
			"-0.018": 0.0,
			"-0.017": 0.0,
			"-0.016": 0.413733290697,
			"-0.015": 1.3443261189,
			"-0.014": 0.854008531499,
			"-0.013": 1.15215917656,
			"-0.012": 0.537547677507,
			"-0.011": 1.28935956687,
			"-0.01": 1.9809299875,
			"-0.009": 2.86309000121,
			"-0.008": 3.18415760605,
			"-0.007": 4.01762581435,
			"-0.006": 4.16350669587,
			"-0.005": 3.79716079185,
			"-0.004": 12.3585086034,
			"-0.003": 22.7029047188,
			"-0.002": 47.0782232416,
			"-0.001": 82.9564705587,
			"0.0": 79.7938444047,
			"0.001": 66.8267842003,
			"0.002": 36.3177969096,
			"0.003": 9.15812402244,
			"0.004": 6.67944576826,
			"0.005": 4.53201385212,
			"0.006": 4.3885629045,
			"0.007": 4.29296072085,
			"0.008": 3.6702541364,
			"0.009": 3.09257284244,
			"0.01": 3.40686220984,
			"0.011": 3.29523746009,
			"0.012": 2.24823239922,
			"0.013": 2.53807084081,
			"0.014": 2.7633836335,
			"0.015": 0.88670759971,
			"0.016": 0.00568239087547,
			"0.017": 0.0,
			"0.018": 0.0,
			"0.019": 0.0,
			"0.02": 0.0,
			"0.021": 0.0,
			"0.022": 0.0,
			"0.023": 0.0,
			"0.024": 0.0,
			"0.025": 0.0
		}
	}
}
