{
	 "smiles": "NC(=O)NCC1=CC=C(C=C1)[N+]([O-])=O", 
	 "Tm": 473.15, 
	 "num_atms": 23, 
	 "gaussian": { 
		 "optdone": 1, 
		 "sigma_profile": "yes", 
		 "theory": "DFT", 
		 "functional": "B3LYP", 
		 "basiset": "6-31G**", 
		 "properties": { 
			 "R2extent": 4673.2325, 
			 "electric_dipole_moment_norm": 5.88046882995, 
			 "electric_quadrupole_moment_norm": 21.9058906824, 
			 "total_energy": -700.124985241, 
			 "HOMO_LUMO_gap": 0.16496, 
			 "cosmo_polarized_energy": -20.41, 
			 "cosmo_cavitation_energy": 28.34, 
			 "cosmo_dispersion_energy": -20.49, 
			 "cosmo_repulsion_energy": 1.63, 
			 "cosmo_total_nonelectrostatic_energy": 9.48, 
			 "SMD_solvation_energy": 7.27 
		},
		"coords": [
			{
				"x": 2.1225127846,
				"y": 3.8502707487,
				"z": 2.3000772766,
				"element": "N" 
			},
			{
				"x": 2.8693181745,
				"y": 3.8197516037,
				"z": 1.1228732401,
				"element": "C" 
			},
			{
				"x": 4.090832563,
				"y": 3.7927445423,
				"z": 1.1240425295,
				"element": "O" 
			},
			{
				"x": 2.1397960774,
				"y": 3.8127609925,
				"z": -0.0565727975,
				"element": "N" 
			},
			{
				"x": 0.7697790748,
				"y": 3.3343259767,
				"z": -0.2272762905,
				"element": "C" 
			},
			{
				"x": 0.6533938743,
				"y": 1.8362660188,
				"z": -0.468097553,
				"element": "C" 
			},
			{
				"x": 0.1990580464,
				"y": 1.3508281397,
				"z": -1.7006300711,
				"element": "C" 
			},
			{
				"x": 0.0973266329,
				"y": -0.0184742672,
				"z": -1.9391959294,
				"element": "C" 
			},
			{
				"x": 0.4594893548,
				"y": -0.8972558395,
				"z": -0.9226663054,
				"element": "C" 
			},
			{
				"x": 0.9168754212,
				"y": -0.4473937167,
				"z": 0.3161643936,
				"element": "C" 
			},
			{
				"x": 1.0113955885,
				"y": 0.9222827596,
				"z": 0.5365214177,
				"element": "C" 
			},
			{
				"x": 0.3525492106,
				"y": -2.3457206235,
				"z": -1.1615971953,
				"element": "N" 
			},
			{
				"x": 0.6718262483,
				"y": -3.1001956953,
				"z": -0.2436607728,
				"element": "O" 
			},
			{
				"x": -0.0506878577,
				"y": -2.7138169589,
				"z": -2.2645578647,
				"element": "O" 
			},
			{
				"x": 1.262033228,
				"y": 4.3816274763,
				"z": 2.294984178,
				"element": "H" 
			},
			{
				"x": 2.7127036834,
				"y": 4.0532244897,
				"z": 3.0958488379,
				"element": "H" 
			},
			{
				"x": 2.7559434495,
				"y": 3.6637764118,
				"z": -0.8457056876,
				"element": "H" 
			},
			{
				"x": 0.3218424271,
				"y": 3.8737732551,
				"z": -1.06860816,
				"element": "H" 
			},
			{
				"x": 0.1878402852,
				"y": 3.6088703591,
				"z": 0.656573581,
				"element": "H" 
			},
			{
				"x": -0.0807391002,
				"y": 2.0497816311,
				"z": -2.4843881529,
				"element": "H" 
			},
			{
				"x": -0.2520892177,
				"y": -0.4115714747,
				"z": -2.8856211557,
				"element": "H" 
			},
			{
				"x": 1.1845774646,
				"y": -1.1685801614,
				"z": 1.0781707488,
				"element": "H" 
			},
			{
				"x": 1.3637225865,
				"y": 1.2911243322,
				"z": 1.4952217326,
				"element": "H" 
			}
		],
		 "valence_orbital": [ 
			{
				"type": "occ",
				"energy": -0.28849,
				"method": "rhf"
			},
			{
				"type": "occ",
				"energy": -0.28681,
				"method": "rhf"
			},
			{
				"type": "occ",
				"energy": -0.28184,
				"method": "rhf"
			},
			{
				"type": "occ",
				"energy": -0.2659,
				"method": "rhf"
			},
			{
				"type": "occ",
				"energy": -0.25643,
				"method": "rhf"
			},
			{
				"type": "unocc",
				"energy": -0.09147,
				"method": "rhf"
			},
			{
				"type": "unocc",
				"energy": -0.03209,
				"method": "rhf"
			},
			{
				"type": "unocc",
				"energy": -0.00729,
				"method": "rhf"
			},
			{
				"type": "unocc",
				"energy": 0.04037,
				"method": "rhf"
			},
			{
				"type": "unocc",
				"energy": 0.05887,
				"method": "rhf"
			}
		],
		"cosmo_sigma_profile": { 
			"-0.025": 0.0,
			"-0.024": 0.0,
			"-0.023": 0.0,
			"-0.022": 0.0,
			"-0.021": 0.0,
			"-0.02": 0.0,
			"-0.019": 0.0,
			"-0.018": 0.0,
			"-0.017": 0.0,
			"-0.016": 0.0,
			"-0.015": 0.0955549820191,
			"-0.014": 1.09707886499,
			"-0.013": 3.42078750318,
			"-0.012": 3.59362154238,
			"-0.011": 3.02001184089,
			"-0.01": 3.53792809186,
			"-0.009": 4.76605934147,
			"-0.008": 4.79227065724,
			"-0.007": 10.7949487721,
			"-0.006": 12.8300645071,
			"-0.005": 12.6956454605,
			"-0.004": 12.1592191862,
			"-0.003": 11.4624497791,
			"-0.002": 13.0525206453,
			"-0.001": 14.3983410691,
			"0.0": 14.2314749094,
			"0.001": 15.9659721263,
			"0.002": 15.3284780351,
			"0.003": 6.17578509841,
			"0.004": 5.50997029903,
			"0.005": 6.31100053095,
			"0.006": 6.13071524421,
			"0.007": 9.91138976191,
			"0.008": 9.68216376863,
			"0.009": 6.04928097217,
			"0.01": 3.54491175348,
			"0.011": 2.14465577537,
			"0.012": 1.07807411905,
			"0.013": 2.77789988409,
			"0.014": 6.87686711565,
			"0.015": 2.03554432491,
			"0.016": 0.0,
			"0.017": 0.0,
			"0.018": 0.0,
			"0.019": 0.0,
			"0.02": 0.0,
			"0.021": 0.0,
			"0.022": 0.0,
			"0.023": 0.0,
			"0.024": 0.0,
			"0.025": 0.0
		}
	}
}
