{
	 "smiles": "NS(=O)(=O)C1=C(Cl)C=CC(=C1)[N+]([O-])=O", 
	 "Tm": 429.15, 
	 "num_atms": 19, 
	 "gaussian": { 
		 "optdone": 1, 
		 "sigma_profile": "yes", 
		 "theory": "DFT", 
		 "functional": "B3LYP", 
		 "basiset": "6-31G**", 
		 "properties": { 
			 "R2extent": 5032.3645, 
			 "electric_dipole_moment_norm": 6.03282665009, 
			 "electric_quadrupole_moment_norm": 23.2601949947, 
			 "total_energy": -1500.24686849, 
			 "HOMO_LUMO_gap": 0.18471, 
			 "cosmo_polarized_energy": -20.54, 
			 "cosmo_cavitation_energy": 27.48, 
			 "cosmo_dispersion_energy": -20.84, 
			 "cosmo_repulsion_energy": 1.58, 
			 "cosmo_total_nonelectrostatic_energy": 8.23, 
			 "SMD_solvation_energy": 6.4 
		},
		"coords": [
			{
				"x": -3.254650574,
				"y": -2.1831252373,
				"z": 0.7997110011,
				"element": "N" 
			},
			{
				"x": -3.5706368499,
				"y": -0.6346495418,
				"z": 0.2759206182,
				"element": "S" 
			},
			{
				"x": -4.5497671269,
				"y": -0.0634139707,
				"z": 1.1908379052,
				"element": "O" 
			},
			{
				"x": -3.7937961694,
				"y": -0.7351270435,
				"z": -1.1632430834,
				"element": "O" 
			},
			{
				"x": -2.0295314189,
				"y": 0.3167602045,
				"z": 0.4638697221,
				"element": "C" 
			},
			{
				"x": -1.382674592,
				"y": 0.5414220485,
				"z": 1.6898717498,
				"element": "C" 
			},
			{
				"x": -1.9609770136,
				"y": -0.1631235459,
				"z": 3.1821219723,
				"element": "Cl" 
			},
			{
				"x": -0.2299170446,
				"y": 1.3291382188,
				"z": 1.7530131632,
				"element": "C" 
			},
			{
				"x": 0.2846303208,
				"y": 1.9044964002,
				"z": 0.5961261624,
				"element": "C" 
			},
			{
				"x": -0.365669967,
				"y": 1.6729415089,
				"z": -0.6125875572,
				"element": "C" 
			},
			{
				"x": -1.5123306557,
				"y": 0.8915444217,
				"z": -0.6969736691,
				"element": "C" 
			},
			{
				"x": 0.1796595811,
				"y": 2.2733006737,
				"z": -1.843807621,
				"element": "N" 
			},
			{
				"x": 1.190877324,
				"y": 2.9639441382,
				"z": -1.7323127758,
				"element": "O" 
			},
			{
				"x": -0.4093568561,
				"y": 2.04189696,
				"z": -2.8960049735,
				"element": "O" 
			},
			{
				"x": -3.0554216692,
				"y": -2.2568883367,
				"z": 1.7914829202,
				"element": "H" 
			},
			{
				"x": -2.6266014414,
				"y": -2.701445691,
				"z": 0.1952884734,
				"element": "H" 
			},
			{
				"x": 0.2548728984,
				"y": 1.4871851758,
				"z": 2.7094968881,
				"element": "H" 
			},
			{
				"x": 1.1744882596,
				"y": 2.5209150247,
				"z": 0.6171990136,
				"element": "H" 
			},
			{
				"x": -2.002297005,
				"y": 0.7296285918,
				"z": -1.6491099098,
				"element": "H" 
			}
		],
		 "valence_orbital": [ 
			{
				"type": "occ",
				"energy": -0.32365,
				"method": "rhf"
			},
			{
				"type": "occ",
				"energy": -0.31721,
				"method": "rhf"
			},
			{
				"type": "occ",
				"energy": -0.30944,
				"method": "rhf"
			},
			{
				"type": "occ",
				"energy": -0.30318,
				"method": "rhf"
			},
			{
				"type": "occ",
				"energy": -0.29645,
				"method": "rhf"
			},
			{
				"type": "unocc",
				"energy": -0.11174,
				"method": "rhf"
			},
			{
				"type": "unocc",
				"energy": -0.06883,
				"method": "rhf"
			},
			{
				"type": "unocc",
				"energy": -0.03408,
				"method": "rhf"
			},
			{
				"type": "unocc",
				"energy": -0.01583,
				"method": "rhf"
			},
			{
				"type": "unocc",
				"energy": 0.0438,
				"method": "rhf"
			}
		],
		"cosmo_sigma_profile": { 
			"-0.025": 0.0,
			"-0.024": 0.0,
			"-0.023": 0.0,
			"-0.022": 0.0,
			"-0.021": 0.0,
			"-0.02": 0.0,
			"-0.019": 0.0,
			"-0.018": 0.0,
			"-0.017": 0.0261621525302,
			"-0.016": 1.07417073263,
			"-0.015": 1.71640479789,
			"-0.014": 2.07896904826,
			"-0.013": 2.45025058642,
			"-0.012": 2.74512685278,
			"-0.011": 2.23004577369,
			"-0.01": 2.6671210911,
			"-0.009": 6.14287441307,
			"-0.008": 7.09557950857,
			"-0.007": 6.94435352505,
			"-0.006": 6.47175475757,
			"-0.005": 8.63146163406,
			"-0.004": 13.7337297938,
			"-0.003": 20.5478566534,
			"-0.002": 19.7832848917,
			"-0.001": 12.6958111854,
			"0.0": 8.45621127227,
			"0.001": 9.41094651526,
			"0.002": 8.43446826113,
			"0.003": 6.52089751643,
			"0.004": 6.54540864405,
			"0.005": 7.61103399407,
			"0.006": 10.7186286837,
			"0.007": 12.3795766359,
			"0.008": 9.43154622135,
			"0.009": 10.2301028822,
			"0.01": 10.9448899814,
			"0.011": 5.41646395639,
			"0.012": 0.0,
			"0.013": 0.0,
			"0.014": 0.0,
			"0.015": 0.0,
			"0.016": 0.0,
			"0.017": 0.0,
			"0.018": 0.0,
			"0.019": 0.0,
			"0.02": 0.0,
			"0.021": 0.0,
			"0.022": 0.0,
			"0.023": 0.0,
			"0.024": 0.0,
			"0.0": 0.0
		}
	}
}
