{
	 "smiles": "BrC1=CC=C(C=C1)C1=NN=C(O1)C1=CC=CC2=CC=CC=C12", 
	 "Tm": 420.65, 
	 "num_atms": 33, 
	 "gaussian": { 
		 "optdone": 1, 
		 "sigma_profile": "yes", 
		 "theory": "DFT", 
		 "functional": "B3LYP", 
		 "basiset": "6-31G**", 
		 "properties": { 
			 "R2extent": 15602.9609, 
			 "electric_dipole_moment_norm": 3.06600529191, 
			 "electric_quadrupole_moment_norm": 12.2251877319, 
			 "total_energy": -3448.67055343, 
			 "HOMO_LUMO_gap": 0.14373, 
			 "cosmo_polarized_energy": -11.11, 
			 "cosmo_cavitation_energy": 40.53, 
			 "cosmo_dispersion_energy": -30.32, 
			 "cosmo_repulsion_energy": 2.23, 
			 "cosmo_total_nonelectrostatic_energy": 12.45, 
			 "SMD_solvation_energy": 3.98 
		},
		"coords": [
			{
				"x": -1.3275263063,
				"y": 6.5191888891,
				"z": -3.2046080664,
				"element": "Br" 
			},
			{
				"x": -1.1933250953,
				"y": 5.0337110482,
				"z": -2.015133726,
				"element": "C" 
			},
			{
				"x": -0.9979616409,
				"y": 3.7549775509,
				"z": -2.5357914112,
				"element": "C" 
			},
			{
				"x": -0.9005633312,
				"y": 2.6724367161,
				"z": -1.664989573,
				"element": "C" 
			},
			{
				"x": -0.9978851398,
				"y": 2.8658839861,
				"z": -0.2789420702,
				"element": "C" 
			},
			{
				"x": -1.1946871554,
				"y": 4.1620439326,
				"z": 0.2263295468,
				"element": "C" 
			},
			{
				"x": -1.2926026707,
				"y": 5.246164231,
				"z": -0.6384702758,
				"element": "C" 
			},
			{
				"x": -0.8992878259,
				"y": 1.7501126595,
				"z": 0.6517452082,
				"element": "C" 
			},
			{
				"x": -0.9697592672,
				"y": 1.7754823977,
				"z": 1.9513673871,
				"element": "N" 
			},
			{
				"x": -0.8201509113,
				"y": 0.4683972126,
				"z": 2.3812362755,
				"element": "N" 
			},
			{
				"x": -0.6674054699,
				"y": -0.276327251,
				"z": 1.3192678592,
				"element": "C" 
			},
			{
				"x": -0.7086877309,
				"y": 0.4865351533,
				"z": 0.1772189809,
				"element": "O" 
			},
			{
				"x": -0.470668785,
				"y": -1.7175004992,
				"z": 1.1751645938,
				"element": "C" 
			},
			{
				"x": -0.3377117296,
				"y": -2.2238544386,
				"z": -0.112424867,
				"element": "C" 
			},
			{
				"x": -0.1451554552,
				"y": -3.5986097988,
				"z": -0.3473323448,
				"element": "C" 
			},
			{
				"x": -0.0849670534,
				"y": -4.474205722,
				"z": 0.7115170514,
				"element": "C" 
			},
			{
				"x": -0.2148174058,
				"y": -4.0102106874,
				"z": 2.0466662726,
				"element": "C" 
			},
			{
				"x": -0.1516139786,
				"y": -4.9206717469,
				"z": 3.1358681404,
				"element": "C" 
			},
			{
				"x": -0.276187668,
				"y": -4.4818430673,
				"z": 4.4330451473,
				"element": "C" 
			},
			{
				"x": -0.4700316959,
				"y": -3.1055672652,
				"z": 4.6901273696,
				"element": "C" 
			},
			{
				"x": -0.5366771436,
				"y": -2.1918819756,
				"z": 3.6596302235,
				"element": "C" 
			},
			{
				"x": -0.4118600505,
				"y": -2.6106124681,
				"z": 2.3061583159,
				"element": "C" 
			},
			{
				"x": -0.9230900172,
				"y": 3.6078585591,
				"z": -3.6069374954,
				"element": "H" 
			},
			{
				"x": -0.7485967362,
				"y": 1.6748665386,
				"z": -2.062531134,
				"element": "H" 
			},
			{
				"x": -1.2691150193,
				"y": 4.3050354167,
				"z": 1.2989067251,
				"element": "H" 
			},
			{
				"x": -1.4444509414,
				"y": 6.2469611798,
				"z": -0.2511805715,
				"element": "H" 
			},
			{
				"x": -0.3832898247,
				"y": -1.5449845104,
				"z": -0.9559428475,
				"element": "H" 
			},
			{
				"x": -0.0454195632,
				"y": -3.9571364339,
				"z": -1.3670902719,
				"element": "H" 
			},
			{
				"x": 0.0633358733,
				"y": -5.5373909612,
				"z": 0.5415025875,
				"element": "H" 
			},
			{
				"x": -0.0020775041,
				"y": -5.9753909709,
				"z": 2.9201605923,
				"element": "H" 
			},
			{
				"x": -0.2263198279,
				"y": -5.1866766446,
				"z": 5.2578435832,
				"element": "H" 
			},
			{
				"x": -0.5682958638,
				"y": -2.7601297721,
				"z": 5.7152564434,
				"element": "H" 
			},
			{
				"x": -0.6854470653,
				"y": -1.1409612581,
				"z": 3.8708623507,
				"element": "H" 
			}
		],
		 "valence_orbital": [ 
			{
				"type": "occ",
				"energy": -0.27776,
				"method": "rhf"
			},
			{
				"type": "occ",
				"energy": -0.27627,
				"method": "rhf"
			},
			{
				"type": "occ",
				"energy": -0.25249,
				"method": "rhf"
			},
			{
				"type": "occ",
				"energy": -0.24388,
				"method": "rhf"
			},
			{
				"type": "occ",
				"energy": -0.21697,
				"method": "rhf"
			},
			{
				"type": "unocc",
				"energy": -0.07324,
				"method": "rhf"
			},
			{
				"type": "unocc",
				"energy": -0.04885,
				"method": "rhf"
			},
			{
				"type": "unocc",
				"energy": -0.02536,
				"method": "rhf"
			},
			{
				"type": "unocc",
				"energy": -0.01704,
				"method": "rhf"
			},
			{
				"type": "unocc",
				"energy": -0.00059,
				"method": "rhf"
			}
		],
		"cosmo_sigma_profile": { 
			"-0.025": 0.0,
			"-0.024": 0.0,
			"-0.023": 0.0,
			"-0.022": 0.0,
			"-0.021": 0.0,
			"-0.02": 0.0,
			"-0.019": 0.0,
			"-0.018": 0.0,
			"-0.017": 0.0,
			"-0.016": 0.0,
			"-0.015": 0.0,
			"-0.014": 0.0,
			"-0.013": 0.0,
			"-0.012": 0.0,
			"-0.011": 0.0,
			"-0.01": 0.0,
			"-0.009": 0.0,
			"-0.008": 2.05879200183,
			"-0.007": 10.5421508397,
			"-0.006": 19.3892231747,
			"-0.005": 20.1389128884,
			"-0.004": 22.6093409367,
			"-0.003": 22.4959335776,
			"-0.002": 22.6599282676,
			"-0.001": 25.0929851343,
			"0.0": 28.1589408229,
			"0.001": 33.3578569664,
			"0.002": 38.0509967208,
			"0.003": 33.69569285,
			"0.004": 26.6686250162,
			"0.005": 8.09546287827,
			"0.006": 2.40737494485,
			"0.007": 1.96254997144,
			"0.008": 2.85922618637,
			"0.009": 1.77319390686,
			"0.01": 2.30098635463,
			"0.011": 3.9425822507,
			"0.012": 1.78055455932,
			"0.013": 1.07213182739,
			"0.014": 0.575100324958,
			"0.015": 0.0,
			"0.016": 0.0,
			"0.017": 0.0,
			"0.018": 0.0,
			"0.019": 0.0,
			"0.02": 0.0,
			"0.021": 0.0,
			"0.022": 0.0,
			"0.023": 0.0,
			"0.024": 0.0,
			"0.025": 0.0
		}
	}
}
