{
	 "smiles": "OC1=CC=C(C=C1)C1=NC2=C(S1)C=CC(Cl)=C2", 
	 "Tm": 537.15, 
	 "num_atms": 25, 
	 "gaussian": { 
		 "optdone": 1, 
		 "sigma_profile": "yes", 
		 "theory": "DFT", 
		 "functional": "B3LYP", 
		 "basiset": "6-31G**", 
		 "properties": { 
			 "R2extent": 7451.3498, 
			 "electric_dipole_moment_norm": 2.94523896484, 
			 "electric_quadrupole_moment_norm": 25.0576751318, 
			 "total_energy": -1488.57369246, 
			 "HOMO_LUMO_gap": 0.15676, 
			 "cosmo_polarized_energy": -11.74, 
			 "cosmo_cavitation_energy": 33.3, 
			 "cosmo_dispersion_energy": -25.48, 
			 "cosmo_repulsion_energy": 1.89, 
			 "cosmo_total_nonelectrostatic_energy": 9.72, 
			 "SMD_solvation_energy": 3.68 
		},
		"coords": [
			{
				"x": -3.9648661777,
				"y": -4.3011152574,
				"z": 0.4002603452,
				"element": "O" 
			},
			{
				"x": -3.0139946458,
				"y": -3.3578600858,
				"z": 0.1598489583,
				"element": "C" 
			},
			{
				"x": -1.6875317374,
				"y": -3.7936314697,
				"z": 0.0463488501,
				"element": "C" 
			},
			{
				"x": -0.678290966,
				"y": -2.8728109208,
				"z": -0.1985731343,
				"element": "C" 
			},
			{
				"x": -0.9614477439,
				"y": -1.5022764433,
				"z": -0.3360976047,
				"element": "C" 
			},
			{
				"x": -2.2981278913,
				"y": -1.0807448076,
				"z": -0.2195441392,
				"element": "C" 
			},
			{
				"x": -3.3138885424,
				"y": -1.9951710573,
				"z": 0.0253976205,
				"element": "C" 
			},
			{
				"x": 0.0789722023,
				"y": -0.5052583851,
				"z": -0.5945015779,
				"element": "C" 
			},
			{
				"x": -0.15106704,
				"y": 0.7681026896,
				"z": -0.7267783766,
				"element": "N" 
			},
			{
				"x": 1.0080666329,
				"y": 1.4776293431,
				"z": -0.9636778593,
				"element": "C" 
			},
			{
				"x": 2.1958306998,
				"y": 0.7068956246,
				"z": -1.0164886007,
				"element": "C" 
			},
			{
				"x": 1.8007015344,
				"y": -0.9770335358,
				"z": -0.7529308727,
				"element": "S" 
			},
			{
				"x": 3.4363848601,
				"y": 1.3023683381,
				"z": -1.2492663432,
				"element": "C" 
			},
			{
				"x": 3.4904756425,
				"y": 2.681874087,
				"z": -1.431086411,
				"element": "C" 
			},
			{
				"x": 2.3112556861,
				"y": 3.4423473433,
				"z": -1.3780671981,
				"element": "C" 
			},
			{
				"x": 2.4193371108,
				"y": 5.1832020218,
				"z": -1.6125616856,
				"element": "Cl" 
			},
			{
				"x": 1.0695199636,
				"y": 2.8676585213,
				"z": -1.1477697531,
				"element": "C" 
			},
			{
				"x": -4.8312312428,
				"y": -3.8767959644,
				"z": 0.4567515453,
				"element": "H" 
			},
			{
				"x": -1.471694274,
				"y": -4.8511425515,
				"z": 0.1528139515,
				"element": "H" 
			},
			{
				"x": 0.3441190422,
				"y": -3.2300970236,
				"z": -0.2833444143,
				"element": "H" 
			},
			{
				"x": -2.5207095548,
				"y": -0.0248967838,
				"z": -0.3249252733,
				"element": "H" 
			},
			{
				"x": -4.3432328326,
				"y": -1.6539252573,
				"z": 0.1130563083,
				"element": "H" 
			},
			{
				"x": 4.3462232586,
				"y": 0.7126015575,
				"z": -1.2897870709,
				"element": "H" 
			},
			{
				"x": 4.4385745557,
				"y": 3.1744265545,
				"z": -1.6137245854,
				"element": "H" 
			},
			{
				"x": 0.1646214594,
				"y": 3.4618534627,
				"z": -1.1084526789,
				"element": "H" 
			}
		],
		 "valence_orbital": [ 
			{
				"type": "occ",
				"energy": -0.27997,
				"method": "rhf"
			},
			{
				"type": "occ",
				"energy": -0.26765,
				"method": "rhf"
			},
			{
				"type": "occ",
				"energy": -0.26216,
				"method": "rhf"
			},
			{
				"type": "occ",
				"energy": -0.23651,
				"method": "rhf"
			},
			{
				"type": "occ",
				"energy": -0.21694,
				"method": "rhf"
			},
			{
				"type": "unocc",
				"energy": -0.06018,
				"method": "rhf"
			},
			{
				"type": "unocc",
				"energy": -0.01758,
				"method": "rhf"
			},
			{
				"type": "unocc",
				"energy": -0.01284,
				"method": "rhf"
			},
			{
				"type": "unocc",
				"energy": 0.00546,
				"method": "rhf"
			},
			{
				"type": "unocc",
				"energy": 0.00609,
				"method": "rhf"
			}
		],
		"cosmo_sigma_profile": { 
			"-0.025": 0.0,
			"-0.024": 0.0,
			"-0.023": 0.0,
			"-0.022": 0.0,
			"-0.021": 0.0,
			"-0.02": 0.0,
			"-0.019": 0.172043610266,
			"-0.018": 0.80296313419,
			"-0.017": 1.30141111982,
			"-0.016": 1.41001810432,
			"-0.015": 0.862731825918,
			"-0.014": 0.854444153232,
			"-0.013": 0.63632051623,
			"-0.012": 1.15048083047,
			"-0.011": 1.27330752104,
			"-0.01": 1.29257449301,
			"-0.009": 0.789647741329,
			"-0.008": 4.10089162314,
			"-0.007": 10.2939917529,
			"-0.006": 12.2476626631,
			"-0.005": 13.0340746151,
			"-0.004": 11.1237850705,
			"-0.003": 10.2592019904,
			"-0.002": 11.7937259297,
			"-0.001": 16.4550192129,
			"0.0": 21.5867877278,
			"0.001": 26.7539129007,
			"0.002": 38.7057259932,
			"0.003": 34.4443887196,
			"0.004": 25.233336618,
			"0.005": 10.2705378495,
			"0.006": 2.78086102171,
			"0.007": 2.56474639484,
			"0.008": 3.26422031956,
			"0.009": 2.34083513861,
			"0.01": 3.02541420811,
			"0.011": 2.18380470829,
			"0.012": 0.0774382025616,
			"0.013": 0.0,
			"0.014": 0.0,
			"0.015": 0.0,
			"0.016": 0.0,
			"0.017": 0.0,
			"0.018": 0.0,
			"0.019": 0.0,
			"0.02": 0.0,
			"0.021": 0.0,
			"0.022": 0.0,
			"0.023": 0.0,
			"0.024": 0.0,
			"0.025": 0.0
		}
	}
}
