{
	 "smiles": "CC(Br)C(=O)C1=CC=C(Br)C=C1", 
	 "Tm": 359.65, 
	 "num_atms": 20, 
	 "gaussian": { 
		 "optdone": 1, 
		 "sigma_profile": "yes", 
		 "theory": "DFT", 
		 "functional": "B3LYP", 
		 "basiset": "6-31G**", 
		 "properties": { 
			 "R2extent": 8168.6562, 
			 "electric_dipole_moment_norm": 2.06406493115, 
			 "electric_quadrupole_moment_norm": 9.09546781425, 
			 "total_energy": -5565.8174071, 
			 "HOMO_LUMO_gap": 0.17463, 
			 "cosmo_polarized_energy": -8.17, 
			 "cosmo_cavitation_energy": 28.6, 
			 "cosmo_dispersion_energy": -21.43, 
			 "cosmo_repulsion_energy": 1.71, 
			 "cosmo_total_nonelectrostatic_energy": 8.88, 
			 "SMD_solvation_energy": 3.14 
		},
		"coords": [
			{
				"x": 1.26651208,
				"y": -2.1868709377,
				"z": 2.6138184654,
				"element": "C" 
			},
			{
				"x": 0.0902478564,
				"y": -1.9306518397,
				"z": 1.6921720205,
				"element": "C" 
			},
			{
				"x": -1.465305889,
				"y": -3.0743656995,
				"z": 2.2387583061,
				"element": "Br" 
			},
			{
				"x": 0.3904891982,
				"y": -2.2661798644,
				"z": 0.2247191126,
				"element": "C" 
			},
			{
				"x": 1.3615431343,
				"y": -2.956655526,
				"z": -0.0394752978,
				"element": "O" 
			},
			{
				"x": -0.4732460999,
				"y": -1.7022737227,
				"z": -0.8583148365,
				"element": "C" 
			},
			{
				"x": -0.0767493355,
				"y": -1.9331099874,
				"z": -2.1857759762,
				"element": "C" 
			},
			{
				"x": -0.8081923905,
				"y": -1.4200452157,
				"z": -3.2506488897,
				"element": "C" 
			},
			{
				"x": -1.9540413567,
				"y": -0.6677743077,
				"z": -2.9842379717,
				"element": "C" 
			},
			{
				"x": -2.9645391262,
				"y": 0.0445477651,
				"z": -4.4356366221,
				"element": "Br" 
			},
			{
				"x": -2.3747638981,
				"y": -0.4288180842,
				"z": -1.676162046,
				"element": "C" 
			},
			{
				"x": -1.6318740684,
				"y": -0.947377624,
				"z": -0.6178242176,
				"element": "C" 
			},
			{
				"x": 2.0884085942,
				"y": -1.5147777683,
				"z": 2.3419732456,
				"element": "H" 
			},
			{
				"x": 0.9892347068,
				"y": -1.9994153855,
				"z": 3.6529339411,
				"element": "H" 
			},
			{
				"x": 1.623603435,
				"y": -3.2118727662,
				"z": 2.5086291733,
				"element": "H" 
			},
			{
				"x": -0.2925116485,
				"y": -0.9149511646,
				"z": 1.7942734521,
				"element": "H" 
			},
			{
				"x": 0.8181423153,
				"y": -2.5203852208,
				"z": -2.3610612652,
				"element": "H" 
			},
			{
				"x": -0.4979917802,
				"y": -1.5973899488,
				"z": -4.2739718663,
				"element": "H" 
			},
			{
				"x": -3.2718347535,
				"y": 0.149808311,
				"z": -1.4891514497,
				"element": "H" 
			},
			{
				"x": -1.9838309737,
				"y": -0.7782410126,
				"z": 0.3935827222,
				"element": "H" 
			}
		],
		 "valence_orbital": [ 
			{
				"type": "occ",
				"energy": -0.29433,
				"method": "rhf"
			},
			{
				"type": "occ",
				"energy": -0.28675,
				"method": "rhf"
			},
			{
				"type": "occ",
				"energy": -0.2764,
				"method": "rhf"
			},
			{
				"type": "occ",
				"energy": -0.26446,
				"method": "rhf"
			},
			{
				"type": "occ",
				"energy": -0.25616,
				"method": "rhf"
			},
			{
				"type": "unocc",
				"energy": -0.08153,
				"method": "rhf"
			},
			{
				"type": "unocc",
				"energy": -0.02694,
				"method": "rhf"
			},
			{
				"type": "unocc",
				"energy": -0.02106,
				"method": "rhf"
			},
			{
				"type": "unocc",
				"energy": -0.00288,
				"method": "rhf"
			},
			{
				"type": "unocc",
				"energy": 0.03849,
				"method": "rhf"
			}
		],
		"cosmo_sigma_profile": { 
			"-0.025": 0.0,
			"-0.024": 0.0,
			"-0.023": 0.0,
			"-0.022": 0.0,
			"-0.021": 0.0,
			"-0.02": 0.0,
			"-0.019": 0.0,
			"-0.018": 0.0,
			"-0.017": 0.0,
			"-0.016": 0.0,
			"-0.015": 0.0,
			"-0.014": 0.0,
			"-0.013": 0.0,
			"-0.012": 0.0,
			"-0.011": 0.0,
			"-0.01": 0.533853003594,
			"-0.009": 2.6261196475,
			"-0.008": 5.35555477892,
			"-0.007": 8.41116515768,
			"-0.006": 9.61748129031,
			"-0.005": 12.879505737,
			"-0.004": 12.3699663775,
			"-0.003": 14.1160463993,
			"-0.002": 15.2873013931,
			"-0.001": 17.9936844302,
			"0.0": 19.9089886566,
			"0.001": 25.9098698844,
			"0.002": 27.4350331058,
			"0.003": 17.371821275,
			"0.004": 20.7191252311,
			"0.005": 9.52809997395,
			"0.006": 3.36950624888,
			"0.007": 1.51459100982,
			"0.008": 1.81556583367,
			"0.009": 2.10934750946,
			"0.01": 2.72637411787,
			"0.011": 3.25096858947,
			"0.012": 0.120922151969,
			"0.013": 0.0,
			"0.014": 0.0,
			"0.015": 0.0,
			"0.016": 0.0,
			"0.017": 0.0,
			"0.018": 0.0,
			"0.019": 0.0,
			"0.02": 0.0,
			"0.021": 0.0,
			"0.022": 0.0,
			"0.023": 0.0,
			"0.024": 0.0,
			"0.025": 0.0
		}
	}
}
