{
	 "smiles": "OC(=O)C1=CSC=C1", 
	 "Tm": 411.15, 
	 "num_atms": 12, 
	 "gaussian": { 
		 "optdone": 1, 
		 "sigma_profile": "yes", 
		 "theory": "DFT", 
		 "functional": "B3LYP", 
		 "basiset": "6-31G**", 
		 "properties": { 
			 "R2extent": 2711.9894, 
			 "electric_dipole_moment_norm": 4.57513302102, 
			 "electric_quadrupole_moment_norm": 19.0092979589, 
			 "total_energy": -741.565764985, 
			 "HOMO_LUMO_gap": 0.20889, 
			 "cosmo_polarized_energy": -13.78, 
			 "cosmo_cavitation_energy": 18.28, 
			 "cosmo_dispersion_energy": -14.36, 
			 "cosmo_repulsion_energy": 1.13, 
			 "cosmo_total_nonelectrostatic_energy": 5.06, 
			 "SMD_solvation_energy": 4.65 
		},
		"coords": [
			{
				"x": 1.3058187813,
				"y": -2.536837463,
				"z": 2.5685590799,
				"element": "O" 
			},
			{
				"x": 0.0605982778,
				"y": -2.1137944189,
				"z": 2.2174337878,
				"element": "C" 
			},
			{
				"x": -0.712450604,
				"y": -2.8810065876,
				"z": 1.6937864791,
				"element": "O" 
			},
			{
				"x": -0.2667235681,
				"y": -0.6905809412,
				"z": 2.5120400118,
				"element": "C" 
			},
			{
				"x": -1.3950815723,
				"y": -0.1151496519,
				"z": 1.9779583671,
				"element": "C" 
			},
			{
				"x": -1.564874375,
				"y": 1.529558431,
				"z": 2.4531789546,
				"element": "S" 
			},
			{
				"x": -0.1093716413,
				"y": 1.4629811297,
				"z": 3.3972208176,
				"element": "C" 
			},
			{
				"x": 0.4694468884,
				"y": 0.2280129498,
				"z": 3.3351746151,
				"element": "C" 
			},
			{
				"x": 1.8473957539,
				"y": -1.7930607827,
				"z": 2.8651661254,
				"element": "H" 
			},
			{
				"x": -2.1144182484,
				"y": -0.5977422548,
				"z": 1.3319605904,
				"element": "H" 
			},
			{
				"x": 0.2231184953,
				"y": 2.3321822369,
				"z": 3.9471676853,
				"element": "H" 
			},
			{
				"x": 1.3712418124,
				"y": -0.0153626472,
				"z": 3.8881534859,
				"element": "H" 
			}
		],
		 "valence_orbital": [ 
			{
				"type": "occ",
				"energy": -0.3603,
				"method": "rhf"
			},
			{
				"type": "occ",
				"energy": -0.31651,
				"method": "rhf"
			},
			{
				"type": "occ",
				"energy": -0.27707,
				"method": "rhf"
			},
			{
				"type": "occ",
				"energy": -0.27342,
				"method": "rhf"
			},
			{
				"type": "occ",
				"energy": -0.25742,
				"method": "rhf"
			},
			{
				"type": "unocc",
				"energy": -0.04853,
				"method": "rhf"
			},
			{
				"type": "unocc",
				"energy": -0.00756,
				"method": "rhf"
			},
			{
				"type": "unocc",
				"energy": 0.01227,
				"method": "rhf"
			},
			{
				"type": "unocc",
				"energy": 0.05658,
				"method": "rhf"
			},
			{
				"type": "unocc",
				"energy": 0.08609,
				"method": "rhf"
			}
		],
		"cosmo_sigma_profile": { 
			"-0.025": 0.0,
			"-0.024": 0.0,
			"-0.023": 0.0,
			"-0.022": 0.0,
			"-0.021": 0.0,
			"-0.02": 0.0,
			"-0.019": 0.117258294882,
			"-0.018": 1.12140254368,
			"-0.017": 1.01835770217,
			"-0.016": 0.802917738234,
			"-0.015": 1.29109798261,
			"-0.014": 0.978191075014,
			"-0.013": 1.08658631483,
			"-0.012": 1.20937452621,
			"-0.011": 1.46523388094,
			"-0.01": 1.78782346744,
			"-0.009": 4.58438409175,
			"-0.008": 4.62870577411,
			"-0.007": 5.83587414857,
			"-0.006": 5.30332081058,
			"-0.005": 5.89240991969,
			"-0.004": 5.07576754288,
			"-0.003": 6.75257872564,
			"-0.002": 6.58131035319,
			"-0.001": 8.83622753062,
			"0.0": 8.63213522336,
			"0.001": 12.4517368197,
			"0.002": 17.0285534246,
			"0.003": 12.4451881529,
			"0.004": 4.72154377409,
			"0.005": 1.77605591675,
			"0.006": 2.45183412667,
			"0.007": 2.17385051166,
			"0.008": 3.14855455929,
			"0.009": 3.03415127802,
			"0.01": 4.53491125791,
			"0.011": 5.0532920135,
			"0.012": 5.45652148533,
			"0.013": 1.85511005597,
			"0.014": 0.237251862196,
			"0.015": 0.0,
			"0.016": 0.0,
			"0.017": 0.0,
			"0.018": 0.0,
			"0.019": 0.0,
			"0.02": 0.0,
			"0.021": 0.0,
			"0.022": 0.0,
			"0.023": 0.0,
			"0.024": 0.0,
			"0.025": 0.0
		}
	}
}
