{
	 "smiles": "BrC1=CC=C(OC2=CC=CC=C2)C=C1Br", 
	 "Tm": 293.15, 
	 "num_atms": 23, 
	 "gaussian": { 
		 "optdone": 1, 
		 "sigma_profile": "yes", 
		 "theory": "DFT", 
		 "functional": "B3LYP", 
		 "basiset": "6-31G**", 
		 "properties": { 
			 "R2extent": 10434.9311, 
			 "electric_dipole_moment_norm": 3.40071541297, 
			 "electric_quadrupole_moment_norm": 7.30263355646, 
			 "total_energy": -5680.11537596, 
			 "HOMO_LUMO_gap": 0.1983, 
			 "cosmo_polarized_energy": -6.22, 
			 "cosmo_cavitation_energy": 32.31, 
			 "cosmo_dispersion_energy": -24.23, 
			 "cosmo_repulsion_energy": 1.9, 
			 "cosmo_total_nonelectrostatic_energy": 9.97, 
			 "SMD_solvation_energy": 3.52 
		},
		"coords": [
			{
				"x": 3.0570260466,
				"y": -4.5889368902,
				"z": -1.7083792864,
				"element": "Br" 
			},
			{
				"x": 2.0418678127,
				"y": -3.0365123583,
				"z": -1.2890463217,
				"element": "C" 
			},
			{
				"x": 2.418881023,
				"y": -2.2760197987,
				"z": -0.1800603381,
				"element": "C" 
			},
			{
				"x": 1.7167259337,
				"y": -1.1293800576,
				"z": 0.1800308122,
				"element": "C" 
			},
			{
				"x": 0.6189410714,
				"y": -0.7317642584,
				"z": -0.5893535134,
				"element": "C" 
			},
			{
				"x": -0.1743629853,
				"y": 0.3477638223,
				"z": -0.2874999832,
				"element": "O" 
			},
			{
				"x": 0.3390281683,
				"y": 1.4259379181,
				"z": 0.4190299149,
				"element": "C" 
			},
			{
				"x": -0.4050411976,
				"y": 1.8890326649,
				"z": 1.5039001838,
				"element": "C" 
			},
			{
				"x": 0.0250355456,
				"y": 3.0238689847,
				"z": 2.1929993228,
				"element": "C" 
			},
			{
				"x": 1.1924423439,
				"y": 3.6847319164,
				"z": 1.805723395,
				"element": "C" 
			},
			{
				"x": 1.9272816325,
				"y": 3.2103594304,
				"z": 0.7163727573,
				"element": "C" 
			},
			{
				"x": 1.5037253472,
				"y": 2.0824828996,
				"z": 0.0127709006,
				"element": "C" 
			},
			{
				"x": 0.2305593215,
				"y": -1.4827284615,
				"z": -1.7007324292,
				"element": "C" 
			},
			{
				"x": 0.9366353493,
				"y": -2.633007439,
				"z": -2.048008863,
				"element": "C" 
			},
			{
				"x": 0.3501513743,
				"y": -3.6061665041,
				"z": -3.5730905808,
				"element": "Br" 
			},
			{
				"x": 3.2703201734,
				"y": -2.5944295085,
				"z": 0.4105344853,
				"element": "H" 
			},
			{
				"x": 2.0173626091,
				"y": -0.5558425719,
				"z": 1.0487289622,
				"element": "H" 
			},
			{
				"x": -1.3088807527,
				"y": 1.3598415207,
				"z": 1.7868814187,
				"element": "H" 
			},
			{
				"x": -0.5535968901,
				"y": 3.3878859993,
				"z": 3.0368710284,
				"element": "H" 
			},
			{
				"x": 1.5259845754,
				"y": 4.5652990907,
				"z": 2.3460008973,
				"element": "H" 
			},
			{
				"x": 2.8313773229,
				"y": 3.7246434096,
				"z": 0.403711137,
				"element": "H" 
			},
			{
				"x": 2.0615336049,
				"y": 1.7165851518,
				"z": -0.8429299771,
				"element": "H" 
			},
			{
				"x": -0.6238974301,
				"y": -1.1626449601,
				"z": -2.2840539226,
				"element": "H" 
			}
		],
		 "valence_orbital": [ 
			{
				"type": "occ",
				"energy": -0.27638,
				"method": "rhf"
			},
			{
				"type": "occ",
				"energy": -0.26429,
				"method": "rhf"
			},
			{
				"type": "occ",
				"energy": -0.25781,
				"method": "rhf"
			},
			{
				"type": "occ",
				"energy": -0.25316,
				"method": "rhf"
			},
			{
				"type": "occ",
				"energy": -0.22709,
				"method": "rhf"
			},
			{
				"type": "unocc",
				"energy": -0.02879,
				"method": "rhf"
			},
			{
				"type": "unocc",
				"energy": -0.02227,
				"method": "rhf"
			},
			{
				"type": "unocc",
				"energy": -0.01919,
				"method": "rhf"
			},
			{
				"type": "unocc",
				"energy": -0.01181,
				"method": "rhf"
			},
			{
				"type": "unocc",
				"energy": -0.00233,
				"method": "rhf"
			}
		],
		"cosmo_sigma_profile": { 
			"-0.025": 0.0,
			"-0.024": 0.0,
			"-0.023": 0.0,
			"-0.022": 0.0,
			"-0.021": 0.0,
			"-0.02": 0.0,
			"-0.019": 0.0,
			"-0.018": 0.0,
			"-0.017": 0.0,
			"-0.016": 0.0,
			"-0.015": 0.0,
			"-0.014": 0.0,
			"-0.013": 0.0,
			"-0.012": 0.0,
			"-0.011": 0.0,
			"-0.01": 0.0,
			"-0.009": 0.0,
			"-0.008": 2.25084655896,
			"-0.007": 6.09690710101,
			"-0.006": 13.7874774386,
			"-0.005": 16.4993437871,
			"-0.004": 18.5830032456,
			"-0.003": 16.9074641799,
			"-0.002": 15.038047887,
			"-0.001": 17.359664611,
			"0.0": 22.0285100212,
			"0.001": 33.3039611325,
			"0.002": 29.1225099596,
			"0.003": 26.4574416159,
			"0.004": 28.6337428265,
			"0.005": 15.2765260402,
			"0.006": 2.83078316128,
			"0.007": 1.18405271805,
			"0.008": 1.03252274345,
			"0.009": 0.212156883216,
			"0.01": 0.0,
			"0.011": 0.0,
			"0.012": 0.0,
			"0.013": 0.0,
			"0.014": 0.0,
			"0.015": 0.0,
			"0.016": 0.0,
			"0.017": 0.0,
			"0.018": 0.0,
			"0.019": 0.0,
			"0.02": 0.0,
			"0.021": 0.0,
			"0.022": 0.0,
			"0.023": 0.0,
			"0.024": 0.0,
			"0.025": 0.0
		}
	}
}
