{
	 "smiles": "COC1=C(C=C(O)C=C1)C(C)=O", 
	 "Tm": 352.15, 
	 "num_atms": 22, 
	 "gaussian": { 
		 "optdone": 1, 
		 "sigma_profile": "yes", 
		 "theory": "DFT", 
		 "functional": "B3LYP", 
		 "basiset": "6-31G**", 
		 "properties": { 
			 "R2extent": 2649.1082, 
			 "electric_dipole_moment_norm": 5.74105764298, 
			 "electric_quadrupole_moment_norm": 15.7948819619, 
			 "total_energy": -574.637033841, 
			 "HOMO_LUMO_gap": 0.16249, 
			 "cosmo_polarized_energy": -14.55, 
			 "cosmo_cavitation_energy": 25.79, 
			 "cosmo_dispersion_energy": -18.89, 
			 "cosmo_repulsion_energy": 1.49, 
			 "cosmo_total_nonelectrostatic_energy": 8.4, 
			 "SMD_solvation_energy": 6.28 
		},
		"coords": [
			{
				"x": -1.7127040612,
				"y": 0.3923777184,
				"z": 2.8298936195,
				"element": "C" 
			},
			{
				"x": -0.3867681172,
				"y": 0.6176637932,
				"z": 2.3787558569,
				"element": "O" 
			},
			{
				"x": -0.1547866324,
				"y": 0.7129843477,
				"z": 1.0341897533,
				"element": "C" 
			},
			{
				"x": 1.1769842983,
				"y": 0.9387927375,
				"z": 0.6034306349,
				"element": "C" 
			},
			{
				"x": 1.4292522853,
				"y": 1.0385688295,
				"z": -0.7704348244,
				"element": "C" 
			},
			{
				"x": 0.4129710782,
				"y": 0.9224475394,
				"z": -1.715274004,
				"element": "C" 
			},
			{
				"x": 0.753669719,
				"y": 1.0335996528,
				"z": -3.036568759,
				"element": "O" 
			},
			{
				"x": -0.8948562696,
				"y": 0.7002045261,
				"z": -1.2802624142,
				"element": "C" 
			},
			{
				"x": -1.1743748763,
				"y": 0.596683497,
				"z": 0.0825023803,
				"element": "C" 
			},
			{
				"x": 2.3862365009,
				"y": 1.0872820909,
				"z": 1.4959188252,
				"element": "C" 
			},
			{
				"x": 2.2694448396,
				"y": 1.0031786609,
				"z": 3.0041640181,
				"element": "C" 
			},
			{
				"x": 3.4821439687,
				"y": 1.2795835386,
				"z": 0.9869785259,
				"element": "O" 
			},
			{
				"x": -2.3858792887,
				"y": 1.2068450595,
				"z": 2.5334463168,
				"element": "H" 
			},
			{
				"x": -2.1122502568,
				"y": -0.558903816,
				"z": 2.4559229975,
				"element": "H" 
			},
			{
				"x": -1.6551246757,
				"y": 0.3534675163,
				"z": 3.9187491615,
				"element": "H" 
			},
			{
				"x": 2.4508999539,
				"y": 1.2112924674,
				"z": -1.0883743065,
				"element": "H" 
			},
			{
				"x": -0.0393559825,
				"y": 0.9350162525,
				"z": -3.5785100018,
				"element": "H" 
			},
			{
				"x": -1.7056250568,
				"y": 0.6060639077,
				"z": -1.9999515605,
				"element": "H" 
			},
			{
				"x": -2.1979395041,
				"y": 0.4241660521,
				"z": 0.3906456822,
				"element": "H" 
			},
			{
				"x": 1.8545814565,
				"y": 0.0391772037,
				"z": 3.3121465006,
				"element": "H" 
			},
			{
				"x": 1.5866552255,
				"y": 1.7667029678,
				"z": 3.3876834505,
				"element": "H" 
			},
			{
				"x": 3.2661253956,
				"y": 1.139305457,
				"z": 3.4262481471,
				"element": "H" 
			}
		],
		 "valence_orbital": [ 
			{
				"type": "occ",
				"energy": -0.32876,
				"method": "rhf"
			},
			{
				"type": "occ",
				"energy": -0.30247,
				"method": "rhf"
			},
			{
				"type": "occ",
				"energy": -0.2563,
				"method": "rhf"
			},
			{
				"type": "occ",
				"energy": -0.23908,
				"method": "rhf"
			},
			{
				"type": "occ",
				"energy": -0.20984,
				"method": "rhf"
			},
			{
				"type": "unocc",
				"energy": -0.04735,
				"method": "rhf"
			},
			{
				"type": "unocc",
				"energy": 0.01346,
				"method": "rhf"
			},
			{
				"type": "unocc",
				"energy": 0.04845,
				"method": "rhf"
			},
			{
				"type": "unocc",
				"energy": 0.06747,
				"method": "rhf"
			},
			{
				"type": "unocc",
				"energy": 0.08608,
				"method": "rhf"
			}
		],
		"cosmo_sigma_profile": { 
			"-0.025": 0.0,
			"-0.024": 0.0,
			"-0.023": 0.0,
			"-0.022": 0.0,
			"-0.021": 0.0,
			"-0.02": 0.0,
			"-0.019": 0.0,
			"-0.018": 0.367477622253,
			"-0.017": 1.16010226303,
			"-0.016": 1.01822674147,
			"-0.015": 1.43511642219,
			"-0.014": 0.55551334128,
			"-0.013": 1.29659690607,
			"-0.012": 0.944660911689,
			"-0.011": 0.944506711261,
			"-0.01": 0.724191860899,
			"-0.009": 1.8054482274,
			"-0.008": 1.32333666412,
			"-0.007": 4.2079973145,
			"-0.006": 9.02641928786,
			"-0.005": 13.7622516376,
			"-0.004": 16.8488547693,
			"-0.003": 17.0485866941,
			"-0.002": 13.1306866432,
			"-0.001": 13.1001061454,
			"0.0": 13.9641406821,
			"0.001": 11.6149971007,
			"0.002": 12.43561721,
			"0.003": 18.1281003587,
			"0.004": 16.7520520118,
			"0.005": 4.88520482155,
			"0.006": 3.50801295275,
			"0.007": 3.49803958458,
			"0.008": 1.80363374515,
			"0.009": 3.54903791959,
			"0.01": 3.85862076967,
			"0.011": 4.45266060199,
			"0.012": 4.82404730591,
			"0.013": 2.21716291749,
			"0.014": 0.422132671336,
			"0.015": 0.0,
			"0.016": 0.0,
			"0.017": 0.0,
			"0.018": 0.0,
			"0.019": 0.0,
			"0.02": 0.0,
			"0.021": 0.0,
			"0.022": 0.0,
			"0.023": 0.0,
			"0.024": 0.0,
			"0.025": 0.0
		}
	}
}
