{
	 "smiles": "CCCC(=O)N(CSP(=S)(OC)OC)C1=C(Cl)C=CC=C1", 
	 "Tm": 315.15, 
	 "num_atms": 40, 
	 "gaussian": { 
		 "optdone": 1, 
		 "sigma_profile": "yes", 
		 "theory": "DFT", 
		 "functional": "B3LYP", 
		 "basiset": "6-31G**", 
		 "properties": { 
			 "R2extent": 9348.4383, 
			 "electric_dipole_moment_norm": 3.54947025343, 
			 "electric_quadrupole_moment_norm": 23.0548861856, 
			 "total_energy": -2385.23717532, 
			 "HOMO_LUMO_gap": 0.21773, 
			 "cosmo_polarized_energy": -18.09, 
			 "cosmo_cavitation_energy": 49.57, 
			 "cosmo_dispersion_energy": -32.12, 
			 "cosmo_repulsion_energy": 2.42, 
			 "cosmo_total_nonelectrostatic_energy": 19.87, 
			 "SMD_solvation_energy": 9.41 
		},
		"coords": [
			{
				"x": -3.5077047062,
				"y": 2.0176630651,
				"z": -2.5281005299,
				"element": "C" 
			},
			{
				"x": -3.1305339216,
				"y": 0.5905135785,
				"z": -2.122349018,
				"element": "C" 
			},
			{
				"x": -1.6177891693,
				"y": 0.3199516972,
				"z": -2.2668762348,
				"element": "C" 
			},
			{
				"x": -1.2755802481,
				"y": -1.1304870564,
				"z": -1.9634459173,
				"element": "C" 
			},
			{
				"x": -1.3698637413,
				"y": -2.0014838611,
				"z": -2.8102369902,
				"element": "O" 
			},
			{
				"x": -0.8921681617,
				"y": -1.4607224499,
				"z": -0.653203781,
				"element": "N" 
			},
			{
				"x": -0.84493525,
				"y": -0.5286945595,
				"z": 0.435988376,
				"element": "C" 
			},
			{
				"x": 0.8327589135,
				"y": 0.3495016367,
				"z": 0.6128537484,
				"element": "S" 
			},
			{
				"x": 0.2572949821,
				"y": 2.3314706832,
				"z": 1.0264542164,
				"element": "P" 
			},
			{
				"x": -1.5636768111,
				"y": 2.6378558522,
				"z": 1.6614392564,
				"element": "S" 
			},
			{
				"x": 0.6802423517,
				"y": 3.0785430191,
				"z": -0.3438154556,
				"element": "O" 
			},
			{
				"x": 0.5811637542,
				"y": 4.5163484032,
				"z": -0.4351717513,
				"element": "C" 
			},
			{
				"x": 1.447227964,
				"y": 2.8617181157,
				"z": 1.9966046501,
				"element": "O" 
			},
			{
				"x": 1.4331298828,
				"y": 2.5661192776,
				"z": 3.405027869,
				"element": "C" 
			},
			{
				"x": -0.5573639278,
				"y": -2.8297871879,
				"z": -0.3797281009,
				"element": "C" 
			},
			{
				"x": 0.6511200874,
				"y": -3.4061101828,
				"z": -0.8009175261,
				"element": "C" 
			},
			{
				"x": 1.8229071059,
				"y": -2.4714973982,
				"z": -1.7023998121,
				"element": "Cl" 
			},
			{
				"x": 0.9471027713,
				"y": -4.7363639718,
				"z": -0.4999088331,
				"element": "C" 
			},
			{
				"x": 0.043323601,
				"y": -5.501300578,
				"z": 0.2356590606,
				"element": "C" 
			},
			{
				"x": -1.1597860919,
				"y": -4.9412579198,
				"z": 0.6660241175,
				"element": "C" 
			},
			{
				"x": -1.4539704842,
				"y": -3.6164116489,
				"z": 0.351458827,
				"element": "C" 
			},
			{
				"x": -3.0073025614,
				"y": 2.7539803825,
				"z": -1.8901391996,
				"element": "H" 
			},
			{
				"x": -4.5868875216,
				"y": 2.1786096855,
				"z": -2.4399955231,
				"element": "H" 
			},
			{
				"x": -3.2227870199,
				"y": 2.2212142002,
				"z": -3.5664025508,
				"element": "H" 
			},
			{
				"x": -3.4467983516,
				"y": 0.4109801813,
				"z": -1.0865830504,
				"element": "H" 
			},
			{
				"x": -3.6698099861,
				"y": -0.1350180567,
				"z": -2.7420749789,
				"element": "H" 
			},
			{
				"x": -1.3271905925,
				"y": 0.4708603559,
				"z": -3.3105492373,
				"element": "H" 
			},
			{
				"x": -1.0385076589,
				"y": 1.0249689165,
				"z": -1.664406834,
				"element": "H" 
			},
			{
				"x": -0.9944323549,
				"y": -1.0645864842,
				"z": 1.3714841482,
				"element": "H" 
			},
			{
				"x": -1.5988966759,
				"y": 0.2529170372,
				"z": 0.3564381754,
				"element": "H" 
			},
			{
				"x": -0.4403764761,
				"y": 4.8440651658,
				"z": -0.2230739955,
				"element": "H" 
			},
			{
				"x": 0.8489143462,
				"y": 4.768901471,
				"z": -1.4614588626,
				"element": "H" 
			},
			{
				"x": 1.2794058124,
				"y": 4.9877110847,
				"z": 0.2610617392,
				"element": "H" 
			},
			{
				"x": 1.5325954356,
				"y": 1.4886931986,
				"z": 3.5697467445,
				"element": "H" 
			},
			{
				"x": 2.2939719028,
				"y": 3.0835567196,
				"z": 3.8300151286,
				"element": "H" 
			},
			{
				"x": 0.5098947186,
				"y": 2.9292800854,
				"z": 3.8644167417,
				"element": "H" 
			},
			{
				"x": 1.8855401987,
				"y": -5.1594930159,
				"z": -0.8404187255,
				"element": "H" 
			},
			{
				"x": 0.2824876411,
				"y": -6.5345586249,
				"z": 0.4679189426,
				"element": "H" 
			},
			{
				"x": -1.870811427,
				"y": -5.5338097438,
				"z": 1.2329531739,
				"element": "H" 
			},
			{
				"x": -2.3965083303,
				"y": -3.1730410732,
				"z": 0.6587119928,
				"element": "H" 
			}
		],
		 "valence_orbital": [ 
			{
				"type": "occ",
				"energy": -0.25399,
				"method": "rhf"
			},
			{
				"type": "occ",
				"energy": -0.25236,
				"method": "rhf"
			},
			{
				"type": "occ",
				"energy": -0.25165,
				"method": "rhf"
			},
			{
				"type": "occ",
				"energy": -0.24687,
				"method": "rhf"
			},
			{
				"type": "occ",
				"energy": -0.24275,
				"method": "rhf"
			},
			{
				"type": "unocc",
				"energy": -0.02502,
				"method": "rhf"
			},
			{
				"type": "unocc",
				"energy": -0.01863,
				"method": "rhf"
			},
			{
				"type": "unocc",
				"energy": -0.01723,
				"method": "rhf"
			},
			{
				"type": "unocc",
				"energy": -0.0033,
				"method": "rhf"
			},
			{
				"type": "unocc",
				"energy": 0.02766,
				"method": "rhf"
			}
		],
		"cosmo_sigma_profile": { 
			"-0.025": 0.0,
			"-0.024": 0.0,
			"-0.023": 0.0,
			"-0.022": 0.0,
			"-0.021": 0.0,
			"-0.02": 0.0,
			"-0.019": 0.0,
			"-0.018": 0.0,
			"-0.017": 0.0,
			"-0.016": 0.0,
			"-0.015": 0.0,
			"-0.014": 0.0,
			"-0.013": 0.0,
			"-0.012": 0.0,
			"-0.011": 0.0249207085691,
			"-0.01": 0.047147776926,
			"-0.009": 0.607397560072,
			"-0.008": 2.75013906066,
			"-0.007": 14.6942849488,
			"-0.006": 21.5112513046,
			"-0.005": 27.0105422922,
			"-0.004": 33.8756183718,
			"-0.003": 30.7574139062,
			"-0.002": 29.9235525831,
			"-0.001": 32.1245411054,
			"0.0": 33.5213506602,
			"0.001": 32.1907185468,
			"0.002": 27.0950309098,
			"0.003": 24.8260889913,
			"0.004": 23.172261634,
			"0.005": 16.1471855679,
			"0.006": 12.0959811704,
			"0.007": 10.5067388547,
			"0.008": 6.40989477783,
			"0.009": 3.97906551341,
			"0.01": 2.63955785971,
			"0.011": 1.98986451046,
			"0.012": 3.53294524589,
			"0.013": 4.08497475979,
			"0.014": 1.04737112551,
			"0.015": 0.0,
			"0.016": 0.0,
			"0.017": 0.0,
			"0.018": 0.0,
			"0.019": 0.0,
			"0.02": 0.0,
			"0.021": 0.0,
			"0.022": 0.0,
			"0.023": 0.0,
			"0.024": 0.0,
			"0.025": 0.0
		}
	}
}
