{
	 "smiles": "NC1=CC=C(C2=C1C(=O)C1=C(C(Cl)=CC=C1Cl)C2=O)[N+]([O-])=O", 
	 "Tm": 580.15, 
	 "num_atms": 28, 
	 "gaussian": { 
		 "optdone": 1, 
		 "sigma_profile": "yes", 
		 "theory": "DFT", 
		 "functional": "B3LYP", 
		 "basiset": "6-31G**", 
		 "properties": { 
			 "R2extent": 7527.4097, 
			 "electric_dipole_moment_norm": 6.02944954784, 
			 "electric_quadrupole_moment_norm": 28.293533038, 
			 "total_energy": -1867.7792274, 
			 "HOMO_LUMO_gap": 0.12354, 
			 "cosmo_polarized_energy": -20.61, 
			 "cosmo_cavitation_energy": 36.84, 
			 "cosmo_dispersion_energy": -27.0, 
			 "cosmo_repulsion_energy": 2.0, 
			 "cosmo_total_nonelectrostatic_energy": 11.84, 
			 "SMD_solvation_energy": 8.2 
		},
		"coords": [
			{
				"x": 0.7167126821,
				"y": 3.1860927369,
				"z": -1.3516634697,
				"element": "N" 
			},
			{
				"x": 1.0612727221,
				"y": 2.0855859207,
				"z": -0.649463137,
				"element": "C" 
			},
			{
				"x": 2.3956524321,
				"y": 1.9223770612,
				"z": -0.1985629662,
				"element": "C" 
			},
			{
				"x": 2.7756816643,
				"y": 0.8107912831,
				"z": 0.5200841586,
				"element": "C" 
			},
			{
				"x": 1.838938667,
				"y": -0.1823557856,
				"z": 0.8339593233,
				"element": "C" 
			},
			{
				"x": 0.5092408055,
				"y": -0.0528014894,
				"z": 0.4361036071,
				"element": "C" 
			},
			{
				"x": 0.1121414851,
				"y": 1.0532492619,
				"z": -0.3421890469,
				"element": "C" 
			},
			{
				"x": -1.2676372041,
				"y": 1.1242813337,
				"z": -0.8665300002,
				"element": "C" 
			},
			{
				"x": -1.7000107915,
				"y": 2.1512563775,
				"z": -1.3954682803,
				"element": "O" 
			},
			{
				"x": -2.1180116324,
				"y": -0.1153357002,
				"z": -0.8067307099,
				"element": "C" 
			},
			{
				"x": -1.7724743214,
				"y": -1.1372108774,
				"z": 0.1165452945,
				"element": "C" 
			},
			{
				"x": -2.5562413782,
				"y": -2.2964521606,
				"z": 0.2118760907,
				"element": "C" 
			},
			{
				"x": -2.181327706,
				"y": -3.6081847802,
				"z": 1.2981954551,
				"element": "Cl" 
			},
			{
				"x": -3.6657578268,
				"y": -2.4599980029,
				"z": -0.6196233076,
				"element": "C" 
			},
			{
				"x": -4.0076107409,
				"y": -1.4686269813,
				"z": -1.5265264851,
				"element": "C" 
			},
			{
				"x": -3.2501650724,
				"y": -0.298217157,
				"z": -1.6237171739,
				"element": "C" 
			},
			{
				"x": -3.783789771,
				"y": 0.8443741365,
				"z": -2.8343979237,
				"element": "Cl" 
			},
			{
				"x": -0.5884963537,
				"y": -0.9077997137,
				"z": 1.0020711079,
				"element": "C" 
			},
			{
				"x": -0.5438595556,
				"y": -1.2967489077,
				"z": 2.1524501336,
				"element": "O" 
			},
			{
				"x": 2.342294017,
				"y": -1.3882187087,
				"z": 1.4969278218,
				"element": "N" 
			},
			{
				"x": 3.307885024,
				"y": -1.2482463122,
				"z": 2.2499549598,
				"element": "O" 
			},
			{
				"x": 1.8150939817,
				"y": -2.4611149356,
				"z": 1.2146360646,
				"element": "O" 
			},
			{
				"x": 1.4049977963,
				"y": 3.8917720169,
				"z": -1.5555910967,
				"element": "H" 
			},
			{
				"x": -0.2553199007,
				"y": 3.3012521996,
				"z": -1.6145516921,
				"element": "H" 
			},
			{
				"x": 3.1260201054,
				"y": 2.6904913025,
				"z": -0.435640417,
				"element": "H" 
			},
			{
				"x": 3.7990002259,
				"y": 0.6807177728,
				"z": 0.8516129421,
				"element": "H" 
			},
			{
				"x": -4.2538315967,
				"y": -3.3682803319,
				"z": -0.5528167683,
				"element": "H" 
			},
			{
				"x": -4.8677977569,
				"y": -1.595249559,
				"z": -2.1739444843,
				"element": "H" 
			}
		],
		 "valence_orbital": [ 
			{
				"type": "occ",
				"energy": -0.28726,
				"method": "rhf"
			},
			{
				"type": "occ",
				"energy": -0.27776,
				"method": "rhf"
			},
			{
				"type": "occ",
				"energy": -0.26768,
				"method": "rhf"
			},
			{
				"type": "occ",
				"energy": -0.26064,
				"method": "rhf"
			},
			{
				"type": "occ",
				"energy": -0.23886,
				"method": "rhf"
			},
			{
				"type": "unocc",
				"energy": -0.11532,
				"method": "rhf"
			},
			{
				"type": "unocc",
				"energy": -0.08309,
				"method": "rhf"
			},
			{
				"type": "unocc",
				"energy": -0.06286,
				"method": "rhf"
			},
			{
				"type": "unocc",
				"energy": -0.04376,
				"method": "rhf"
			},
			{
				"type": "unocc",
				"energy": -0.017,
				"method": "rhf"
			}
		],
		"cosmo_sigma_profile": { 
			"-0.025": 0.0,
			"-0.024": 0.0,
			"-0.023": 0.0,
			"-0.022": 0.0,
			"-0.021": 0.0,
			"-0.02": 0.0,
			"-0.019": 0.0,
			"-0.018": 0.0,
			"-0.017": 0.0,
			"-0.016": 0.0571364484197,
			"-0.015": 1.51341572082,
			"-0.014": 1.68795321593,
			"-0.013": 1.61640310761,
			"-0.012": 1.57181632388,
			"-0.011": 1.82436831492,
			"-0.01": 2.30842195541,
			"-0.009": 7.0480690184,
			"-0.008": 9.5990879451,
			"-0.007": 9.57653701816,
			"-0.006": 8.58172660685,
			"-0.005": 10.8479793248,
			"-0.004": 12.3627309551,
			"-0.003": 16.0490898964,
			"-0.002": 26.3441494407,
			"-0.001": 36.727301283,
			"0.0": 26.4189395029,
			"0.001": 19.847136375,
			"0.002": 15.4738115667,
			"0.003": 20.035059302,
			"0.004": 11.8186684253,
			"0.005": 7.36114709393,
			"0.006": 8.01356386046,
			"0.007": 11.067312421,
			"0.008": 14.1674893083,
			"0.009": 9.82374557486,
			"0.01": 8.86173392569,
			"0.011": 1.75667556041,
			"0.012": 0.0,
			"0.013": 0.0,
			"0.014": 0.0,
			"0.015": 0.0,
			"0.016": 0.0,
			"0.017": 0.0,
			"0.018": 0.0,
			"0.019": 0.0,
			"0.02": 0.0,
			"0.021": 0.0,
			"0.022": 0.0,
			"0.023": 0.0,
			"0.024": 0.0,
			"0.025": 0.0
		}
	}
}
