{
	 "smiles": "CC1=C(N)C=C(NC(=O)C2CC2)C=C1", 
	 "Tm": 437.15, 
	 "num_atms": 28, 
	 "gaussian": { 
		 "optdone": 1, 
		 "sigma_profile": "yes", 
		 "theory": "DFT", 
		 "functional": "B3LYP", 
		 "basiset": "6-31G**", 
		 "properties": { 
			 "R2extent": 4965.1422, 
			 "electric_dipole_moment_norm": 2.08584885598, 
			 "electric_quadrupole_moment_norm": 12.7621977927, 
			 "total_energy": -612.339744485, 
			 "HOMO_LUMO_gap": 0.18946, 
			 "cosmo_polarized_energy": -15.52, 
			 "cosmo_cavitation_energy": 31.08, 
			 "cosmo_dispersion_energy": -22.91, 
			 "cosmo_repulsion_energy": 1.8, 
			 "cosmo_total_nonelectrostatic_energy": 9.97, 
			 "SMD_solvation_energy": 5.2 
		},
		"coords": [
			{
				"x": -1.5338119251,
				"y": -5.5031753978,
				"z": 2.4864441723,
				"element": "C" 
			},
			{
				"x": -1.4335678924,
				"y": -4.191677367,
				"z": 1.7491313418,
				"element": "C" 
			},
			{
				"x": -0.2475783742,
				"y": -3.4244020436,
				"z": 1.8045103882,
				"element": "C" 
			},
			{
				"x": 0.8601006792,
				"y": -3.9015971895,
				"z": 2.5110636819,
				"element": "N" 
			},
			{
				"x": -0.1473033882,
				"y": -2.2108079721,
				"z": 1.107705331,
				"element": "C" 
			},
			{
				"x": -1.2239070432,
				"y": -1.7487872582,
				"z": 0.3452765558,
				"element": "C" 
			},
			{
				"x": -1.1859098446,
				"y": -0.537482907,
				"z": -0.380730515,
				"element": "N" 
			},
			{
				"x": -0.1776877331,
				"y": 0.3937909573,
				"z": -0.4719136042,
				"element": "C" 
			},
			{
				"x": 0.9040309902,
				"y": 0.3002031122,
				"z": 0.1021107169,
				"element": "O" 
			},
			{
				"x": -0.5053107518,
				"y": 1.5660866394,
				"z": -1.3483833889,
				"element": "C" 
			},
			{
				"x": 0.0824992235,
				"y": 2.9078972289,
				"z": -0.9472156402,
				"element": "C" 
			},
			{
				"x": 0.6441257329,
				"y": 2.1827331822,
				"z": -2.1265200323,
				"element": "C" 
			},
			{
				"x": -2.4076533436,
				"y": -2.4990674641,
				"z": 0.2844227515,
				"element": "C" 
			},
			{
				"x": -2.4920142251,
				"y": -3.6998891845,
				"z": 0.9831814645,
				"element": "C" 
			},
			{
				"x": -1.4570390182,
				"y": -5.3754115826,
				"z": 3.5764090571,
				"element": "H" 
			},
			{
				"x": -0.7351080564,
				"y": -6.1947926569,
				"z": 2.1897288321,
				"element": "H" 
			},
			{
				"x": -2.4914251439,
				"y": -5.9920692595,
				"z": 2.2888892937,
				"element": "H" 
			},
			{
				"x": 1.5592348749,
				"y": -3.2014391493,
				"z": 2.7182058719,
				"element": "H" 
			},
			{
				"x": 0.6499000377,
				"y": -4.4735440864,
				"z": 3.3170852141,
				"element": "H" 
			},
			{
				"x": 0.7601264014,
				"y": -1.6235050529,
				"z": 1.1513724197,
				"element": "H" 
			},
			{
				"x": -2.0264436967,
				"y": -0.332597069,
				"z": -0.9010321148,
				"element": "H" 
			},
			{
				"x": -1.4844985796,
				"y": 1.575543304,
				"z": -1.8209345982,
				"element": "H" 
			},
			{
				"x": -0.5296319724,
				"y": 3.7888618148,
				"z": -1.1125479399,
				"element": "H" 
			},
			{
				"x": 0.6717542882,
				"y": 2.9084200595,
				"z": -0.0363151965,
				"element": "H" 
			},
			{
				"x": 1.6076127265,
				"y": 1.6999972413,
				"z": -2.0017018273,
				"element": "H" 
			},
			{
				"x": 0.4279838287,
				"y": 2.5518352472,
				"z": -3.1240981811,
				"element": "H" 
			},
			{
				"x": -3.2517113203,
				"y": -2.1470498345,
				"z": -0.3034454513,
				"element": "H" 
			},
			{
				"x": -3.4115664744,
				"y": -4.2778733118,
				"z": 0.9305013971,
				"element": "H" 
			}
		],
		 "valence_orbital": [ 
			{
				"type": "occ",
				"energy": -0.29008,
				"method": "rhf"
			},
			{
				"type": "occ",
				"energy": -0.27657,
				"method": "rhf"
			},
			{
				"type": "occ",
				"energy": -0.24872,
				"method": "rhf"
			},
			{
				"type": "occ",
				"energy": -0.21467,
				"method": "rhf"
			},
			{
				"type": "occ",
				"energy": -0.19113,
				"method": "rhf"
			},
			{
				"type": "unocc",
				"energy": -0.00167,
				"method": "rhf"
			},
			{
				"type": "unocc",
				"energy": 0.02062,
				"method": "rhf"
			},
			{
				"type": "unocc",
				"energy": 0.05468,
				"method": "rhf"
			},
			{
				"type": "unocc",
				"energy": 0.06808,
				"method": "rhf"
			},
			{
				"type": "unocc",
				"energy": 0.08272,
				"method": "rhf"
			}
		],
		"cosmo_sigma_profile": { 
			"-0.025": 0.0,
			"-0.024": 0.0,
			"-0.023": 0.0,
			"-0.022": 0.0,
			"-0.021": 0.0,
			"-0.02": 0.0,
			"-0.019": 0.0,
			"-0.018": 0.0,
			"-0.017": 0.0,
			"-0.016": 0.0,
			"-0.015": 0.644105577679,
			"-0.014": 1.61649616664,
			"-0.013": 0.905677007544,
			"-0.012": 2.66584730691,
			"-0.011": 3.79414873332,
			"-0.01": 4.1014360153,
			"-0.009": 4.46017895341,
			"-0.008": 4.54016727463,
			"-0.007": 4.64368437805,
			"-0.006": 6.06036906468,
			"-0.005": 13.0234790902,
			"-0.004": 19.1773205077,
			"-0.003": 16.6970396689,
			"-0.002": 15.8323497225,
			"-0.001": 16.9568499699,
			"0.0": 18.8531303666,
			"0.001": 18.3734973122,
			"0.002": 14.7853370077,
			"0.003": 14.6111065158,
			"0.004": 11.0937042433,
			"0.005": 12.4952022006,
			"0.006": 12.21672743,
			"0.007": 9.69966537623,
			"0.008": 3.08915820679,
			"0.009": 1.77616035032,
			"0.01": 2.35117191285,
			"0.011": 2.4418662911,
			"0.012": 2.95285157058,
			"0.013": 3.19023680497,
			"0.014": 1.9058194362,
			"0.015": 0.361693467511,
			"0.016": 0.0,
			"0.017": 0.0,
			"0.018": 0.0,
			"0.019": 0.0,
			"0.02": 0.0,
			"0.021": 0.0,
			"0.022": 0.0,
			"0.023": 0.0,
			"0.024": 0.0,
			"0.025": 0.0
		}
	}
}
