{
	 "smiles": "NC1=C(C=CC=C1)N1C(=O)C2=C(C=C(Br)C=C2)C1=O", 
	 "Tm": 493.15, 
	 "num_atms": 28, 
	 "gaussian": { 
		 "optdone": 1, 
		 "sigma_profile": "yes", 
		 "theory": "DFT", 
		 "functional": "B3LYP", 
		 "basiset": "6-31G**", 
		 "properties": { 
			 "R2extent": 9643.9186, 
			 "electric_dipole_moment_norm": 1.04853612718, 
			 "electric_quadrupole_moment_norm": 18.7963682535, 
			 "total_energy": -3370.30041545, 
			 "HOMO_LUMO_gap": 0.11482, 
			 "cosmo_polarized_energy": -13.59, 
			 "cosmo_cavitation_energy": 35.35, 
			 "cosmo_dispersion_energy": -25.99, 
			 "cosmo_repulsion_energy": 1.97, 
			 "cosmo_total_nonelectrostatic_energy": 11.33, 
			 "SMD_solvation_energy": 5.71 
		},
		"coords": [
			{
				"x": 2.4266678615,
				"y": 1.6763639152,
				"z": 0.6199617234,
				"element": "N" 
			},
			{
				"x": 2.6226567274,
				"y": 0.3166936061,
				"z": 0.3765064567,
				"element": "C" 
			},
			{
				"x": 1.5364799358,
				"y": -0.5846111426,
				"z": 0.2906998225,
				"element": "C" 
			},
			{
				"x": 1.7535605482,
				"y": -1.9351253342,
				"z": 0.0013055582,
				"element": "C" 
			},
			{
				"x": 3.0368588974,
				"y": -2.4187758016,
				"z": -0.2332761813,
				"element": "C" 
			},
			{
				"x": 4.1171450647,
				"y": -1.5360727743,
				"z": -0.1681364752,
				"element": "C" 
			},
			{
				"x": 3.9115535,
				"y": -0.1967774949,
				"z": 0.1421826577,
				"element": "C" 
			},
			{
				"x": 0.184815355,
				"y": -0.1309459689,
				"z": 0.4337337254,
				"element": "N" 
			},
			{
				"x": -0.8305238554,
				"y": -0.4018807203,
				"z": -0.5316581292,
				"element": "C" 
			},
			{
				"x": -0.6819590158,
				"y": -1.0170761507,
				"z": -1.5630050291,
				"element": "O" 
			},
			{
				"x": -2.0746521648,
				"y": 0.213635652,
				"z": 0.0075942638,
				"element": "C" 
			},
			{
				"x": -1.7762964149,
				"y": 0.8083947157,
				"z": 1.2313558236,
				"element": "C" 
			},
			{
				"x": -2.7376048042,
				"y": 1.4636583952,
				"z": 1.9852648886,
				"element": "C" 
			},
			{
				"x": -4.0313465245,
				"y": 1.4984440688,
				"z": 1.4516387138,
				"element": "C" 
			},
			{
				"x": -5.4101344369,
				"y": 2.3795301433,
				"z": 2.4296703451,
				"element": "Br" 
			},
			{
				"x": -4.347086375,
				"y": 0.9071742101,
				"z": 0.2219063999,
				"element": "C" 
			},
			{
				"x": -3.3576931559,
				"y": 0.2509718973,
				"z": -0.5194614869,
				"element": "C" 
			},
			{
				"x": -0.3271509149,
				"y": 0.5993731805,
				"z": 1.5159730145,
				"element": "C" 
			},
			{
				"x": 0.3066115269,
				"y": 0.9941564312,
				"z": 2.4803182206,
				"element": "O" 
			},
			{
				"x": 3.2956529933,
				"y": 2.1808165594,
				"z": 0.7413049171,
				"element": "H" 
			},
			{
				"x": 1.7915778271,
				"y": 1.8596354674,
				"z": 1.390645325,
				"element": "H" 
			},
			{
				"x": 0.8990704283,
				"y": -2.5998239805,
				"z": -0.0556726304,
				"element": "H" 
			},
			{
				"x": 3.1892727376,
				"y": -3.4680622475,
				"z": -0.4628554627,
				"element": "H" 
			},
			{
				"x": 5.1271988309,
				"y": -1.8935730173,
				"z": -0.3467618194,
				"element": "H" 
			},
			{
				"x": 4.7585621209,
				"y": 0.4819106564,
				"z": 0.2083101195,
				"element": "H" 
			},
			{
				"x": -2.4994502853,
				"y": 1.9240183828,
				"z": 2.9368702695,
				"element": "H" 
			},
			{
				"x": -5.3639411586,
				"y": 0.9624774107,
				"z": -0.1493235546,
				"element": "H" 
			},
			{
				"x": -3.585345249,
				"y": -0.2122300594,
				"z": -1.4738914759,
				"element": "H" 
			}
		],
		 "valence_orbital": [ 
			{
				"type": "occ",
				"energy": -0.29151,
				"method": "rhf"
			},
			{
				"type": "occ",
				"energy": -0.278,
				"method": "rhf"
			},
			{
				"type": "occ",
				"energy": -0.2678,
				"method": "rhf"
			},
			{
				"type": "occ",
				"energy": -0.24305,
				"method": "rhf"
			},
			{
				"type": "occ",
				"energy": -0.2081,
				"method": "rhf"
			},
			{
				"type": "unocc",
				"energy": -0.09328,
				"method": "rhf"
			},
			{
				"type": "unocc",
				"energy": -0.05602,
				"method": "rhf"
			},
			{
				"type": "unocc",
				"energy": -0.01098,
				"method": "rhf"
			},
			{
				"type": "unocc",
				"energy": -0.00435,
				"method": "rhf"
			},
			{
				"type": "unocc",
				"energy": 0.01057,
				"method": "rhf"
			}
		],
		"cosmo_sigma_profile": { 
			"-0.025": 0.0,
			"-0.024": 0.0,
			"-0.023": 0.0,
			"-0.022": 0.0,
			"-0.021": 0.0,
			"-0.02": 0.0,
			"-0.019": 0.0,
			"-0.018": 0.0,
			"-0.017": 0.0,
			"-0.016": 0.0,
			"-0.015": 0.0,
			"-0.014": 0.0,
			"-0.013": 0.262486948734,
			"-0.012": 1.27552324864,
			"-0.011": 1.74594810385,
			"-0.01": 1.57794713328,
			"-0.009": 3.15354463406,
			"-0.008": 7.52799086792,
			"-0.007": 9.10171853546,
			"-0.006": 14.9064484197,
			"-0.005": 17.8052969255,
			"-0.004": 19.1682729849,
			"-0.003": 18.901072782,
			"-0.002": 19.9353722332,
			"-0.001": 24.9965841241,
			"0.0": 27.2291052533,
			"0.001": 16.3482700415,
			"0.002": 15.4681252706,
			"0.003": 17.6990997899,
			"0.004": 19.6639882015,
			"0.005": 13.7605260278,
			"0.006": 7.4896311729,
			"0.007": 4.57640817069,
			"0.008": 4.39183333607,
			"0.009": 5.72375263215,
			"0.01": 7.95586748601,
			"0.011": 5.6156412899,
			"0.012": 0.730371384803,
			"0.013": 0.856669984212,
			"0.014": 0.433720376907,
			"0.015": 0.0753102014061,
			"0.016": 0.0,
			"0.017": 0.0,
			"0.018": 0.0,
			"0.019": 0.0,
			"0.02": 0.0,
			"0.021": 0.0,
			"0.022": 0.0,
			"0.023": 0.0,
			"0.024": 0.0,
			"0.025": 0.0
		}
	}
}
