{
	 "smiles": "O=C1CC(=O)NCCNCCNCCNC(=O)CC(=O)NCCNCCNCCN1", 
	 "Tm": 473.15, 
	 "num_atms": 66, 
	 "gaussian": { 
		 "optdone": 1, 
		 "sigma_profile": "yes", 
		 "theory": "DFT", 
		 "functional": "B3LYP", 
		 "basiset": "6-31G**", 
		 "properties": { 
			 "R2extent": 15073.4749, 
			 "electric_dipole_moment_norm": 5.16681652374, 
			 "electric_quadrupole_moment_norm": 35.2297090415, 
			 "total_energy": -1446.55518199, 
			 "HOMO_LUMO_gap": 0.20727, 
			 "cosmo_polarized_energy": -37.16, 
			 "cosmo_cavitation_energy": 62.18, 
			 "cosmo_dispersion_energy": -39.84, 
			 "cosmo_repulsion_energy": 2.99, 
			 "cosmo_total_nonelectrostatic_energy": 25.33, 
			 "SMD_solvation_energy": 5.23 
		},
		"coords": [
			{
				"x": -0.2515603565,
				"y": -5.2147292914,
				"z": 0.9345334325,
				"element": "O" 
			},
			{
				"x": -0.4373745932,
				"y": -4.0465321158,
				"z": 1.2732312941,
				"element": "C" 
			},
			{
				"x": -1.8026138965,
				"y": -3.378881296,
				"z": 1.0520568312,
				"element": "C" 
			},
			{
				"x": -1.7946398696,
				"y": -2.2997594488,
				"z": -0.0324518761,
				"element": "C" 
			},
			{
				"x": -1.9830540291,
				"y": -1.1145260571,
				"z": 0.2811214668,
				"element": "O" 
			},
			{
				"x": -1.5517432575,
				"y": -2.6576928673,
				"z": -1.3108956937,
				"element": "N" 
			},
			{
				"x": -1.3936110153,
				"y": -3.9804934621,
				"z": -1.897597592,
				"element": "C" 
			},
			{
				"x": -2.4951958711,
				"y": -4.297000603,
				"z": -2.9290719244,
				"element": "C" 
			},
			{
				"x": -2.7743676392,
				"y": -3.1693495158,
				"z": -3.8201188712,
				"element": "N" 
			},
			{
				"x": -1.6871668336,
				"y": -2.71618117,
				"z": -4.6911599987,
				"element": "C" 
			},
			{
				"x": -1.7467043469,
				"y": -1.1947597437,
				"z": -4.8870162393,
				"element": "C" 
			},
			{
				"x": -1.8624882825,
				"y": -0.5199926808,
				"z": -3.591058576,
				"element": "N" 
			},
			{
				"x": -1.6232923332,
				"y": 0.9211793477,
				"z": -3.6424395788,
				"element": "C" 
			},
			{
				"x": -1.8020082667,
				"y": 1.5844341455,
				"z": -2.2663742386,
				"element": "C" 
			},
			{
				"x": -0.9073110037,
				"y": 1.0944127964,
				"z": -1.2344746467,
				"element": "N" 
			},
			{
				"x": 0.3203797353,
				"y": 1.5645163734,
				"z": -0.8906319506,
				"element": "C" 
			},
			{
				"x": 1.0193114741,
				"y": 0.9920497355,
				"z": -0.0539113747,
				"element": "O" 
			},
			{
				"x": 0.7824867101,
				"y": 2.8742238249,
				"z": -1.5425322522,
				"element": "C" 
			},
			{
				"x": 2.2635367814,
				"y": 3.1732846584,
				"z": -1.3058627576,
				"element": "C" 
			},
			{
				"x": 3.0800033792,
				"y": 2.9965238645,
				"z": -2.2027262298,
				"element": "O" 
			},
			{
				"x": 2.6338139464,
				"y": 3.7194274892,
				"z": -0.105952416,
				"element": "N" 
			},
			{
				"x": 1.9084460719,
				"y": 3.754652011,
				"z": 1.1571040291,
				"element": "C" 
			},
			{
				"x": 2.4954860576,
				"y": 2.7837798672,
				"z": 2.2062188946,
				"element": "C" 
			},
			{
				"x": 1.7814496683,
				"y": 2.7551978551,
				"z": 3.4816797129,
				"element": "N" 
			},
			{
				"x": 0.4885421143,
				"y": 2.0511843965,
				"z": 3.4648137608,
				"element": "C" 
			},
			{
				"x": 0.589370116,
				"y": 0.6622677353,
				"z": 4.1106153248,
				"element": "C" 
			},
			{
				"x": 1.6489554648,
				"y": -0.1274394031,
				"z": 3.4887233552,
				"element": "N" 
			},
			{
				"x": 1.4342439536,
				"y": -1.5600341543,
				"z": 3.3660356077,
				"element": "C" 
			},
			{
				"x": 0.6082066994,
				"y": -1.8665680821,
				"z": 2.1060472993,
				"element": "C" 
			},
			{
				"x": 0.5434507465,
				"y": -3.3095623024,
				"z": 1.8647288958,
				"element": "N" 
			},
			{
				"x": -2.4914696871,
				"y": -4.1882090862,
				"z": 0.8015291776,
				"element": "H" 
			},
			{
				"x": -2.1563057945,
				"y": -2.8895056811,
				"z": 1.9612720898,
				"element": "H" 
			},
			{
				"x": -1.5320730968,
				"y": -1.8775174554,
				"z": -1.9733174801,
				"element": "H" 
			},
			{
				"x": -1.3834121908,
				"y": -4.7455330775,
				"z": -1.1197843231,
				"element": "H" 
			},
			{
				"x": -0.4066186914,
				"y": -4.0336114088,
				"z": -2.3738561543,
				"element": "H" 
			},
			{
				"x": -3.4277966108,
				"y": -4.5166464271,
				"z": -2.3966626246,
				"element": "H" 
			},
			{
				"x": -2.1964397539,
				"y": -5.2224557685,
				"z": -3.4552206342,
				"element": "H" 
			},
			{
				"x": -3.6123554265,
				"y": -3.3573147678,
				"z": -4.3602407241,
				"element": "H" 
			},
			{
				"x": -1.6740707326,
				"y": -3.2179836773,
				"z": -5.6726718647,
				"element": "H" 
			},
			{
				"x": -0.7343400012,
				"y": -2.9517961628,
				"z": -4.2094116149,
				"element": "H" 
			},
			{
				"x": -2.5724117263,
				"y": -0.9281036708,
				"z": -5.572192971,
				"element": "H" 
			},
			{
				"x": -0.8209193428,
				"y": -0.8648852983,
				"z": -5.3733817409,
				"element": "H" 
			},
			{
				"x": -2.7961616402,
				"y": -0.7094498369,
				"z": -3.2314305345,
				"element": "H" 
			},
			{
				"x": -2.286588195,
				"y": 1.43995386,
				"z": -4.3603961191,
				"element": "H" 
			},
			{
				"x": -0.5948844147,
				"y": 1.0818315111,
				"z": -3.989054281,
				"element": "H" 
			},
			{
				"x": -1.6926886276,
				"y": 2.6668258106,
				"z": -2.3855808729,
				"element": "H" 
			},
			{
				"x": -2.8288581903,
				"y": 1.4165020026,
				"z": -1.9172123493,
				"element": "H" 
			},
			{
				"x": -1.2120690639,
				"y": 0.2680398015,
				"z": -0.709269124,
				"element": "H" 
			},
			{
				"x": 0.1499071331,
				"y": 3.6936099385,
				"z": -1.1771443649,
				"element": "H" 
			},
			{
				"x": 0.6663092287,
				"y": 2.8316462791,
				"z": -2.6278275854,
				"element": "H" 
			},
			{
				"x": 3.6367590647,
				"y": 3.8559537283,
				"z": -0.0552299127,
				"element": "H" 
			},
			{
				"x": 1.9237888974,
				"y": 4.7807549953,
				"z": 1.5549999404,
				"element": "H" 
			},
			{
				"x": 0.8646878947,
				"y": 3.4998746277,
				"z": 0.9707501996,
				"element": "H" 
			},
			{
				"x": 2.4881156274,
				"y": 1.7769960464,
				"z": 1.7855951095,
				"element": "H" 
			},
			{
				"x": 3.5420641463,
				"y": 3.0634734904,
				"z": 2.3964870322,
				"element": "H" 
			},
			{
				"x": 1.6746197604,
				"y": 3.6952634728,
				"z": 3.8487409147,
				"element": "H" 
			},
			{
				"x": 0.1191290468,
				"y": 1.9184555622,
				"z": 2.4396111709,
				"element": "H" 
			},
			{
				"x": -0.2592261973,
				"y": 2.6401347453,
				"z": 4.0117546542,
				"element": "H" 
			},
			{
				"x": -0.3684779443,
				"y": 0.1466406419,
				"z": 3.9686394637,
				"element": "H" 
			},
			{
				"x": 0.7341423926,
				"y": 0.7698368863,
				"z": 5.1994189075,
				"element": "H" 
			},
			{
				"x": 2.5398123949,
				"y": 0.0882547532,
				"z": 3.91663741,
				"element": "H" 
			},
			{
				"x": 2.4164403564,
				"y": -2.0397411915,
				"z": 3.2624315898,
				"element": "H" 
			},
			{
				"x": 0.9505359558,
				"y": -2.0227929073,
				"z": 4.2460356084,
				"element": "H" 
			},
			{
				"x": -0.4059736162,
				"y": -1.476268724,
				"z": 2.2072942492,
				"element": "H" 
			},
			{
				"x": 1.0552053776,
				"y": -1.3330676992,
				"z": 1.258957232,
				"element": "H" 
			},
			{
				"x": 1.4208723433,
				"y": -3.8160972195,
				"z": 1.9015968383,
				"element": "H" 
			}
		],
		 "valence_orbital": [ 
			{
				"type": "occ",
				"energy": -0.23605,
				"method": "rhf"
			},
			{
				"type": "occ",
				"energy": -0.23244,
				"method": "rhf"
			},
			{
				"type": "occ",
				"energy": -0.22848,
				"method": "rhf"
			},
			{
				"type": "occ",
				"energy": -0.21243,
				"method": "rhf"
			},
			{
				"type": "occ",
				"energy": -0.19647,
				"method": "rhf"
			},
			{
				"type": "unocc",
				"energy": 0.0108,
				"method": "rhf"
			},
			{
				"type": "unocc",
				"energy": 0.03378,
				"method": "rhf"
			},
			{
				"type": "unocc",
				"energy": 0.03756,
				"method": "rhf"
			},
			{
				"type": "unocc",
				"energy": 0.03955,
				"method": "rhf"
			},
			{
				"type": "unocc",
				"energy": 0.06817,
				"method": "rhf"
			}
		],
		"cosmo_sigma_profile": { 
			"-0.025": 0.0,
			"-0.024": 0.0,
			"-0.023": 0.0,
			"-0.022": 0.0,
			"-0.021": 0.0,
			"-0.02": 0.0,
			"-0.019": 0.0,
			"-0.018": 0.0,
			"-0.017": 0.0,
			"-0.016": 0.0,
			"-0.015": 0.0,
			"-0.014": 0.0269800586075,
			"-0.013": 1.05988974369,
			"-0.012": 2.03596688302,
			"-0.011": 2.43992379511,
			"-0.01": 4.07416859696,
			"-0.009": 6.68803549918,
			"-0.008": 7.762413769,
			"-0.007": 14.2643790593,
			"-0.006": 23.6835170988,
			"-0.005": 29.6403439296,
			"-0.004": 38.8636796689,
			"-0.003": 53.371596954,
			"-0.002": 58.7189532389,
			"-0.001": 49.0951832111,
			"0.0": 30.7108918944,
			"0.001": 18.4491600093,
			"0.002": 14.7855596983,
			"0.003": 13.7787856948,
			"0.004": 13.0511487015,
			"0.005": 10.9192966495,
			"0.006": 9.30400526471,
			"0.007": 11.4258317786,
			"0.008": 9.57612221856,
			"0.009": 7.8914752833,
			"0.01": 8.46404876373,
			"0.011": 6.98802499357,
			"0.012": 7.25264142058,
			"0.013": 10.3733120438,
			"0.014": 12.4466394975,
			"0.015": 3.93523337782,
			"0.016": 0.320969048899,
			"0.017": 0.0,
			"0.018": 0.0,
			"0.019": 0.0,
			"0.02": 0.0,
			"0.021": 0.0,
			"0.022": 0.0,
			"0.023": 0.0,
			"0.024": 0.0,
			"0.025": 0.0
		}
	}
}
