{
	 "smiles": "O=C(CC1CCCCC1)NC1=C2CCCNC2=CC=C1", 
	 "Tm": 466.15, 
	 "num_atms": 44, 
	 "gaussian": { 
		 "optdone": 1, 
		 "sigma_profile": "yes", 
		 "theory": "DFT", 
		 "functional": "B3LYP", 
		 "basiset": "6-31G**", 
		 "properties": { 
			 "R2extent": 7692.1823, 
			 "electric_dipole_moment_norm": 4.40624381872, 
			 "electric_quadrupole_moment_norm": 20.6357723066, 
			 "total_energy": -847.038759511, 
			 "HOMO_LUMO_gap": 0.18818, 
			 "cosmo_polarized_energy": -13.14, 
			 "cosmo_cavitation_energy": 42.65, 
			 "cosmo_dispersion_energy": -29.78, 
			 "cosmo_repulsion_energy": 2.33, 
			 "cosmo_total_nonelectrostatic_energy": 15.2, 
			 "SMD_solvation_energy": 5.18 
		},
		"coords": [
			{
				"x": 2.8516348339,
				"y": 2.1325376884,
				"z": 1.4482025941,
				"element": "O" 
			},
			{
				"x": 1.9768785464,
				"y": 1.376653853,
				"z": 1.0416487987,
				"element": "C" 
			},
			{
				"x": 1.4336785006,
				"y": 1.4526758535,
				"z": -0.3818278616,
				"element": "C" 
			},
			{
				"x": 1.5271105853,
				"y": 2.882530996,
				"z": -0.9482941871,
				"element": "C" 
			},
			{
				"x": 0.550114626,
				"y": 3.8667813904,
				"z": -0.2285904851,
				"element": "C" 
			},
			{
				"x": -0.6426985669,
				"y": 4.2998378708,
				"z": -1.1052407789,
				"element": "C" 
			},
			{
				"x": -1.2111241432,
				"y": 3.1143262943,
				"z": -1.896473633,
				"element": "C" 
			},
			{
				"x": -0.1560048497,
				"y": 2.525295326,
				"z": -2.869998402,
				"element": "C" 
			},
			{
				"x": 1.2879201519,
				"y": 2.9002663624,
				"z": -2.4699426904,
				"element": "C" 
			},
			{
				"x": 1.4457949288,
				"y": 0.4354956078,
				"z": 1.9055009067,
				"element": "N" 
			},
			{
				"x": 0.475577701,
				"y": -0.5817580209,
				"z": 1.706133153,
				"element": "C" 
			},
			{
				"x": -0.5341798259,
				"y": -0.7336102749,
				"z": 2.6766176336,
				"element": "C" 
			},
			{
				"x": -0.6205767592,
				"y": 0.2017814298,
				"z": 3.8691597259,
				"element": "C" 
			},
			{
				"x": -1.9890182949,
				"y": 0.1393801648,
				"z": 4.5628167965,
				"element": "C" 
			},
			{
				"x": -2.4264949642,
				"y": -1.3137556451,
				"z": 4.7449401488,
				"element": "C" 
			},
			{
				"x": -2.5083280908,
				"y": -1.9440619786,
				"z": 3.4360942864,
				"element": "N" 
			},
			{
				"x": -1.4732805937,
				"y": -1.7778604173,
				"z": 2.5192631358,
				"element": "C" 
			},
			{
				"x": -1.3989646761,
				"y": -2.6226136752,
				"z": 1.3964644045,
				"element": "C" 
			},
			{
				"x": -0.3940599824,
				"y": -2.4500553765,
				"z": 0.4537576082,
				"element": "C" 
			},
			{
				"x": 0.5589344887,
				"y": -1.443691604,
				"z": 0.6055483256,
				"element": "C" 
			},
			{
				"x": 0.4120438939,
				"y": 1.063811001,
				"z": -0.4204592964,
				"element": "H" 
			},
			{
				"x": 2.0430662591,
				"y": 0.7787553958,
				"z": -1.0002666144,
				"element": "H" 
			},
			{
				"x": 2.5514161934,
				"y": 3.214208135,
				"z": -0.7554164431,
				"element": "H" 
			},
			{
				"x": 0.1640164783,
				"y": 3.3944895087,
				"z": 0.6835418553,
				"element": "H" 
			},
			{
				"x": 1.0982907814,
				"y": 4.7533386851,
				"z": 0.107391528,
				"element": "H" 
			},
			{
				"x": -0.3294747348,
				"y": 5.085459596,
				"z": -1.8056851221,
				"element": "H" 
			},
			{
				"x": -1.4198267555,
				"y": 4.7488589862,
				"z": -0.4755295136,
				"element": "H" 
			},
			{
				"x": -1.5355886153,
				"y": 2.3440901186,
				"z": -1.1842566761,
				"element": "H" 
			},
			{
				"x": -2.1104040842,
				"y": 3.4135899131,
				"z": -2.446703779,
				"element": "H" 
			},
			{
				"x": -0.2637623754,
				"y": 1.4352031889,
				"z": -2.9134600591,
				"element": "H" 
			},
			{
				"x": -0.3417689827,
				"y": 2.8855852873,
				"z": -3.8887672292,
				"element": "H" 
			},
			{
				"x": 1.5122930919,
				"y": 3.9097321884,
				"z": -2.8363107068,
				"element": "H" 
			},
			{
				"x": 2.0007545249,
				"y": 2.2345495094,
				"z": -2.9723706567,
				"element": "H" 
			},
			{
				"x": 1.8206529704,
				"y": 0.5433997214,
				"z": 2.8403911909,
				"element": "H" 
			},
			{
				"x": -0.4106374416,
				"y": 1.2287451839,
				"z": 3.5490829393,
				"element": "H" 
			},
			{
				"x": 0.1624373428,
				"y": -0.0494527872,
				"z": 4.601995788,
				"element": "H" 
			},
			{
				"x": -2.7397078555,
				"y": 0.6555890501,
				"z": 3.9538649191,
				"element": "H" 
			},
			{
				"x": -1.9463685684,
				"y": 0.6448035372,
				"z": 5.5329755077,
				"element": "H" 
			},
			{
				"x": -3.4142399326,
				"y": -1.3651900301,
				"z": 5.2148051744,
				"element": "H" 
			},
			{
				"x": -1.7163689634,
				"y": -1.8313283281,
				"z": 5.4139451407,
				"element": "H" 
			},
			{
				"x": -2.9450908795,
				"y": -2.8545640385,
				"z": 3.4159914354,
				"element": "H" 
			},
			{
				"x": -2.1354857454,
				"y": -3.4133869146,
				"z": 1.2768398419,
				"element": "H" 
			},
			{
				"x": -0.3370313636,
				"y": -3.1206834071,
				"z": -0.3988240185,
				"element": "H" 
			},
			{
				"x": 1.3753711462,
				"y": -1.3436593453,
				"z": -0.0994546855,
				"element": "H" 
			}
		],
		 "valence_orbital": [ 
			{
				"type": "occ",
				"energy": -0.2833,
				"method": "rhf"
			},
			{
				"type": "occ",
				"energy": -0.27,
				"method": "rhf"
			},
			{
				"type": "occ",
				"energy": -0.24311,
				"method": "rhf"
			},
			{
				"type": "occ",
				"energy": -0.22174,
				"method": "rhf"
			},
			{
				"type": "occ",
				"energy": -0.1954,
				"method": "rhf"
			},
			{
				"type": "unocc",
				"energy": -0.00722,
				"method": "rhf"
			},
			{
				"type": "unocc",
				"energy": 0.01311,
				"method": "rhf"
			},
			{
				"type": "unocc",
				"energy": 0.03932,
				"method": "rhf"
			},
			{
				"type": "unocc",
				"energy": 0.07465,
				"method": "rhf"
			},
			{
				"type": "unocc",
				"energy": 0.08123,
				"method": "rhf"
			}
		],
		"cosmo_sigma_profile": { 
			"-0.025": 0.0,
			"-0.024": 0.0,
			"-0.023": 0.0,
			"-0.022": 0.0,
			"-0.021": 0.0,
			"-0.02": 0.0,
			"-0.019": 0.0,
			"-0.018": 0.0,
			"-0.017": 0.0,
			"-0.016": 0.0,
			"-0.015": 0.0,
			"-0.014": 0.0,
			"-0.013": 0.372689636685,
			"-0.012": 1.77938876943,
			"-0.011": 2.50263025077,
			"-0.01": 2.12185875249,
			"-0.009": 2.49063211991,
			"-0.008": 2.89370260792,
			"-0.007": 3.01232886304,
			"-0.006": 5.70118596066,
			"-0.005": 9.83390714357,
			"-0.004": 15.5416520193,
			"-0.003": 27.6806645239,
			"-0.002": 49.8066763428,
			"-0.001": 47.7950257443,
			"0.0": 45.4051362372,
			"0.001": 33.1039003356,
			"0.002": 17.7623597645,
			"0.003": 9.84665193966,
			"0.004": 8.73994538862,
			"0.005": 8.16802049908,
			"0.006": 9.75505367072,
			"0.007": 6.63093341361,
			"0.008": 2.10474489727,
			"0.009": 2.2914766935,
			"0.01": 2.32411184161,
			"0.011": 2.29991788137,
			"0.012": 2.27107224366,
			"0.013": 2.97234647577,
			"0.014": 5.26240702426,
			"0.015": 0.675083349884,
			"0.016": 0.0,
			"0.017": 0.0,
			"0.018": 0.0,
			"0.019": 0.0,
			"0.02": 0.0,
			"0.021": 0.0,
			"0.022": 0.0,
			"0.023": 0.0,
			"0.024": 0.0,
			"0.025": 0.0
		}
	}
}
