{
	 "smiles": "ClC1=CC(Cl)=C(NN=C(C#N)C2=NC3=C(C=CC=C3)C(=O)N2)C=C1Cl", 
	 "Tm": 422.15, 
	 "num_atms": 33, 
	 "gaussian": { 
		 "optdone": 1, 
		 "sigma_profile": "yes", 
		 "theory": "DFT", 
		 "functional": "B3LYP", 
		 "basiset": "6-31G**", 
		 "properties": { 
			 "R2extent": 17857.797, 
			 "electric_dipole_moment_norm": 4.28383802682, 
			 "electric_quadrupole_moment_norm": 23.3419081821, 
			 "total_energy": -2344.04294848, 
			 "HOMO_LUMO_gap": 0.1371, 
			 "cosmo_polarized_energy": -22.2, 
			 "cosmo_cavitation_energy": 46.33, 
			 "cosmo_dispersion_energy": -32.27, 
			 "cosmo_repulsion_energy": 2.43, 
			 "cosmo_total_nonelectrostatic_energy": 16.5, 
			 "SMD_solvation_energy": 7.18 
		},
		"coords": [
			{
				"x": -2.5683781328,
				"y": 5.3372767722,
				"z": 6.1946146846,
				"element": "Cl" 
			},
			{
				"x": -2.2784855499,
				"y": 4.2920475148,
				"z": 4.8319232804,
				"element": "C" 
			},
			{
				"x": -0.9693709053,
				"y": 3.8964180461,
				"z": 4.5564281344,
				"element": "C" 
			},
			{
				"x": -0.7029527706,
				"y": 3.0648712688,
				"z": 3.4759752004,
				"element": "C" 
			},
			{
				"x": 0.9564177384,
				"y": 2.5880228302,
				"z": 3.1525710183,
				"element": "Cl" 
			},
			{
				"x": -1.7393850047,
				"y": 2.6064917037,
				"z": 2.6455529536,
				"element": "C" 
			},
			{
				"x": -1.4462707492,
				"y": 1.7777742039,
				"z": 1.5563572849,
				"element": "N" 
			},
			{
				"x": -2.4340029503,
				"y": 1.2754602694,
				"z": 0.8222538719,
				"element": "N" 
			},
			{
				"x": -2.2072179983,
				"y": 0.4462019578,
				"z": -0.1553207357,
				"element": "C" 
			},
			{
				"x": -3.3732550205,
				"y": -0.069800036,
				"z": -0.8149027603,
				"element": "C" 
			},
			{
				"x": -4.3127322682,
				"y": -0.4808110677,
				"z": -1.3630000802,
				"element": "N" 
			},
			{
				"x": -0.889892317,
				"y": -0.0486176136,
				"z": -0.6491685509,
				"element": "C" 
			},
			{
				"x": -0.7723425184,
				"y": -1.2946595778,
				"z": -0.9703833713,
				"element": "N" 
			},
			{
				"x": 0.4663401135,
				"y": -1.7331132843,
				"z": -1.420386891,
				"element": "C" 
			},
			{
				"x": 1.5860531963,
				"y": -0.8716383023,
				"z": -1.5344150033,
				"element": "C" 
			},
			{
				"x": 2.8171847545,
				"y": -1.3633963408,
				"z": -1.9913690915,
				"element": "C" 
			},
			{
				"x": 2.9418437213,
				"y": -2.7033074592,
				"z": -2.3299221518,
				"element": "C" 
			},
			{
				"x": 1.8345280297,
				"y": -3.563032354,
				"z": -2.2193837102,
				"element": "C" 
			},
			{
				"x": 0.6103409187,
				"y": -3.0886282026,
				"z": -1.7715212234,
				"element": "C" 
			},
			{
				"x": 1.4388852862,
				"y": 0.5488433932,
				"z": -1.1999264283,
				"element": "C" 
			},
			{
				"x": 2.2899340874,
				"y": 1.4181025114,
				"z": -1.2935675356,
				"element": "O" 
			},
			{
				"x": 0.1442766197,
				"y": 0.8677040174,
				"z": -0.7367238993,
				"element": "N" 
			},
			{
				"x": -3.0501982493,
				"y": 3.0069992402,
				"z": 2.9259110486,
				"element": "C" 
			},
			{
				"x": -3.3206388133,
				"y": 3.8409722813,
				"z": 4.0071148852,
				"element": "C" 
			},
			{
				"x": -4.9735984729,
				"y": 4.3028899261,
				"z": 4.3033772227,
				"element": "Cl" 
			},
			{
				"x": -0.1581150393,
				"y": 4.2393742045,
				"z": 5.1866685306,
				"element": "H" 
			},
			{
				"x": -0.4922141581,
				"y": 1.4336579582,
				"z": 1.4765671604,
				"element": "H" 
			},
			{
				"x": 3.6507585885,
				"y": -0.673657934,
				"z": -2.0715896468,
				"element": "H" 
			},
			{
				"x": 3.8933519265,
				"y": -3.0890701242,
				"z": -2.6822838139,
				"element": "H" 
			},
			{
				"x": 1.9383309796,
				"y": -4.6101144431,
				"z": -2.4882367538,
				"element": "H" 
			},
			{
				"x": -0.2552984481,
				"y": -3.7358272811,
				"z": -1.6804204579,
				"element": "H" 
			},
			{
				"x": -0.0291856399,
				"y": 1.8606065047,
				"z": -0.6226161072,
				"element": "H" 
			},
			{
				"x": -3.8540109543,
				"y": 2.6574594169,
				"z": 2.2913229364,
				"element": "H" 
			}
		],
		 "valence_orbital": [ 
			{
				"type": "occ",
				"energy": -0.28501,
				"method": "rhf"
			},
			{
				"type": "occ",
				"energy": -0.27872,
				"method": "rhf"
			},
			{
				"type": "occ",
				"energy": -0.27529,
				"method": "rhf"
			},
			{
				"type": "occ",
				"energy": -0.2564,
				"method": "rhf"
			},
			{
				"type": "occ",
				"energy": -0.23848,
				"method": "rhf"
			},
			{
				"type": "unocc",
				"energy": -0.10138,
				"method": "rhf"
			},
			{
				"type": "unocc",
				"energy": -0.06144,
				"method": "rhf"
			},
			{
				"type": "unocc",
				"energy": -0.04968,
				"method": "rhf"
			},
			{
				"type": "unocc",
				"energy": -0.0467,
				"method": "rhf"
			},
			{
				"type": "unocc",
				"energy": -0.02377,
				"method": "rhf"
			}
		],
		"cosmo_sigma_profile": { 
			"-0.025": 0.0,
			"-0.024": 0.0,
			"-0.023": 0.0,
			"-0.022": 0.0,
			"-0.021": 0.0,
			"-0.02": 0.0,
			"-0.019": 0.0,
			"-0.018": 0.0243825869003,
			"-0.017": 0.657636445833,
			"-0.016": 1.1095444687,
			"-0.015": 1.65387433135,
			"-0.014": 2.28897159534,
			"-0.013": 1.90007038229,
			"-0.012": 1.97280313609,
			"-0.011": 2.14939541383,
			"-0.01": 3.10422354264,
			"-0.009": 3.41462282868,
			"-0.008": 4.22661778935,
			"-0.007": 11.5497218759,
			"-0.006": 15.5100590118,
			"-0.005": 18.3555601223,
			"-0.004": 17.1632692254,
			"-0.003": 20.3603555765,
			"-0.002": 27.5757400119,
			"-0.001": 37.8927602244,
			"0.0": 38.1692346282,
			"0.001": 31.4466951925,
			"0.002": 35.1260190811,
			"0.003": 37.6755626191,
			"0.004": 16.6136141473,
			"0.005": 7.99696740729,
			"0.006": 5.44841515529,
			"0.007": 6.77805339217,
			"0.008": 5.47459863078,
			"0.009": 5.96514965197,
			"0.01": 5.51973754546,
			"0.011": 5.77928039172,
			"0.012": 8.02796202074,
			"0.013": 1.95726877306,
			"0.014": 0.0,
			"0.015": 0.0,
			"0.016": 0.0,
			"0.017": 0.0,
			"0.018": 0.0,
			"0.019": 0.0,
			"0.02": 0.0,
			"0.021": 0.0,
			"0.022": 0.0,
			"0.023": 0.0,
			"0.024": 0.0,
			"0.025": 0.0
		}
	}
}
