{
	 "smiles": "CCOC1=CC=C(NS(=O)(=O)C2=CC(N)=C(OC)C=C2)C=C1", 
	 "Tm": 367.65, 
	 "num_atms": 40, 
	 "gaussian": { 
		 "optdone": 1, 
		 "sigma_profile": "yes", 
		 "theory": "DFT", 
		 "functional": "B3LYP", 
		 "basiset": "6-31G**", 
		 "properties": { 
			 "R2extent": 9654.1215, 
			 "electric_dipole_moment_norm": 8.05274107742, 
			 "electric_quadrupole_moment_norm": 33.4904851161, 
			 "total_energy": -1390.94830077, 
			 "HOMO_LUMO_gap": 0.18084, 
			 "cosmo_polarized_energy": -23.27, 
			 "cosmo_cavitation_energy": 44.99, 
			 "cosmo_dispersion_energy": -31.14, 
			 "cosmo_repulsion_energy": 2.39, 
			 "cosmo_total_nonelectrostatic_energy": 16.23, 
			 "SMD_solvation_energy": 7.75 
		},
		"coords": [
			{
				"x": 0.4680473002,
				"y": -2.9090806418,
				"z": -4.070250591,
				"element": "C" 
			},
			{
				"x": 1.7868616423,
				"y": -3.4225443962,
				"z": -3.5004658455,
				"element": "C" 
			},
			{
				"x": 1.6471655699,
				"y": -3.9493224702,
				"z": -2.1794545905,
				"element": "O" 
			},
			{
				"x": 1.6085102511,
				"y": -3.1024468862,
				"z": -1.1083500641,
				"element": "C" 
			},
			{
				"x": 1.4342366837,
				"y": -3.7197891568,
				"z": 0.1409875661,
				"element": "C" 
			},
			{
				"x": 1.4165008062,
				"y": -2.9701883058,
				"z": 1.3085793056,
				"element": "C" 
			},
			{
				"x": 1.539052135,
				"y": -1.5724910726,
				"z": 1.2503721029,
				"element": "C" 
			},
			{
				"x": 1.5531110072,
				"y": -0.8037350898,
				"z": 2.4516043812,
				"element": "N" 
			},
			{
				"x": 0.1862495046,
				"y": -0.6963290105,
				"z": 3.4655609792,
				"element": "S" 
			},
			{
				"x": 0.592142745,
				"y": 0.2552568712,
				"z": 4.5020706603,
				"element": "O" 
			},
			{
				"x": -0.2117935494,
				"y": -2.0707270784,
				"z": 3.7733928485,
				"element": "O" 
			},
			{
				"x": -1.1256294862,
				"y": 0.052293566,
				"z": 2.5063609765,
				"element": "C" 
			},
			{
				"x": -1.9068773169,
				"y": -0.756098261,
				"z": 1.6727652759,
				"element": "C" 
			},
			{
				"x": -2.9129858046,
				"y": -0.1864480041,
				"z": 0.8908889528,
				"element": "C" 
			},
			{
				"x": -3.6833964,
				"y": -0.9320236575,
				"z": 0.0081079472,
				"element": "N" 
			},
			{
				"x": -3.1209999846,
				"y": 1.2157381153,
				"z": 0.9746020446,
				"element": "C" 
			},
			{
				"x": -4.1429637448,
				"y": 1.6762310815,
				"z": 0.1904247464,
				"element": "O" 
			},
			{
				"x": -4.4558938959,
				"y": 3.0606544775,
				"z": 0.2335323885,
				"element": "C" 
			},
			{
				"x": -2.3375251976,
				"y": 2.005404199,
				"z": 1.8133544608,
				"element": "C" 
			},
			{
				"x": -1.3245606242,
				"y": 1.4273766978,
				"z": 2.5857651702,
				"element": "C" 
			},
			{
				"x": 1.6963186103,
				"y": -0.9575348071,
				"z": 0.0063340181,
				"element": "C" 
			},
			{
				"x": 1.7474617844,
				"y": -1.7107499791,
				"z": -1.1691332288,
				"element": "C" 
			},
			{
				"x": -0.2811391783,
				"y": -3.7058955495,
				"z": -4.0651223088,
				"element": "H" 
			},
			{
				"x": 0.6102261584,
				"y": -2.5758792424,
				"z": -5.1038857161,
				"element": "H" 
			},
			{
				"x": 0.0750767264,
				"y": -2.0692368439,
				"z": -3.4910010631,
				"element": "H" 
			},
			{
				"x": 2.5651362809,
				"y": -2.6487780029,
				"z": -3.5223846669,
				"element": "H" 
			},
			{
				"x": 2.1512434187,
				"y": -4.2668623906,
				"z": -4.092632651,
				"element": "H" 
			},
			{
				"x": 1.3399609881,
				"y": -4.800318404,
				"z": 0.1718867965,
				"element": "H" 
			},
			{
				"x": 1.3039369615,
				"y": -3.4507633066,
				"z": 2.2730338088,
				"element": "H" 
			},
			{
				"x": 1.965664767,
				"y": 0.1196990931,
				"z": 2.3602763834,
				"element": "H" 
			},
			{
				"x": -1.7417158613,
				"y": -1.8278335867,
				"z": 1.6479511575,
				"element": "H" 
			},
			{
				"x": -4.5572983492,
				"y": -0.4981959818,
				"z": -0.2538233038,
				"element": "H" 
			},
			{
				"x": -3.7678875094,
				"y": -1.914090073,
				"z": 0.2277216739,
				"element": "H" 
			},
			{
				"x": -4.7528634547,
				"y": 3.3744057105,
				"z": 1.2420627661,
				"element": "H" 
			},
			{
				"x": -5.2938042251,
				"y": 3.2027813278,
				"z": -0.4503855045,
				"element": "H" 
			},
			{
				"x": -3.6090466493,
				"y": 3.6730627526,
				"z": -0.1000144849,
				"element": "H" 
			},
			{
				"x": -2.5139899983,
				"y": 3.0722036049,
				"z": 1.8828732139,
				"element": "H" 
			},
			{
				"x": -0.7237761097,
				"y": 2.0286532313,
				"z": 3.2576890083,
				"element": "H" 
			},
			{
				"x": 1.7809597598,
				"y": 0.1246799094,
				"z": -0.0527551141,
				"element": "H" 
			},
			{
				"x": 1.8778842387,
				"y": -1.1981784394,
				"z": -2.1144395001,
				"element": "H" 
			}
		],
		 "valence_orbital": [ 
			{
				"type": "occ",
				"energy": -0.28363,
				"method": "rhf"
			},
			{
				"type": "occ",
				"energy": -0.25292,
				"method": "rhf"
			},
			{
				"type": "occ",
				"energy": -0.2454,
				"method": "rhf"
			},
			{
				"type": "occ",
				"energy": -0.21126,
				"method": "rhf"
			},
			{
				"type": "occ",
				"energy": -0.20192,
				"method": "rhf"
			},
			{
				"type": "unocc",
				"energy": -0.02108,
				"method": "rhf"
			},
			{
				"type": "unocc",
				"energy": -0.00461,
				"method": "rhf"
			},
			{
				"type": "unocc",
				"energy": -0.00046,
				"method": "rhf"
			},
			{
				"type": "unocc",
				"energy": 0.00994,
				"method": "rhf"
			},
			{
				"type": "unocc",
				"energy": 0.07131,
				"method": "rhf"
			}
		],
		"cosmo_sigma_profile": { 
			"-0.025": 0.0,
			"-0.024": 0.0,
			"-0.023": 0.0,
			"-0.022": 0.0,
			"-0.021": 0.0,
			"-0.02": 0.0,
			"-0.019": 0.0,
			"-0.018": 0.0,
			"-0.017": 0.0,
			"-0.016": 0.0115281260041,
			"-0.015": 0.589238199817,
			"-0.014": 1.37474911948,
			"-0.013": 1.77960513566,
			"-0.012": 2.64713312726,
			"-0.011": 3.97115327528,
			"-0.01": 3.92517707745,
			"-0.009": 3.2600543403,
			"-0.008": 4.43536190381,
			"-0.007": 9.31530591762,
			"-0.006": 18.5917970047,
			"-0.005": 24.8013623185,
			"-0.004": 29.6981220416,
			"-0.003": 28.4134326543,
			"-0.002": 21.2820106074,
			"-0.001": 21.2150333768,
			"0.0": 20.8865817896,
			"0.001": 18.3489629619,
			"0.002": 19.914735367,
			"0.003": 26.0761692994,
			"0.004": 28.3258215661,
			"0.005": 16.2379953574,
			"0.006": 8.10884097275,
			"0.007": 6.94796890019,
			"0.008": 6.95069537963,
			"0.009": 6.60274785646,
			"0.01": 8.16933838246,
			"0.011": 9.03356459405,
			"0.012": 5.11598499068,
			"0.013": 0.669047656874,
			"0.014": 0.190727013598,
			"0.015": 0.0,
			"0.016": 0.0,
			"0.017": 0.0,
			"0.018": 0.0,
			"0.019": 0.0,
			"0.02": 0.0,
			"0.021": 0.0,
			"0.022": 0.0,
			"0.023": 0.0,
			"0.024": 0.0,
			"0.025": 0.0
		}
	}
}
