{
	 "smiles": "O=CNC1=CC2=C(OCO2)C=C1", 
	 "Tm": 370.15, 
	 "num_atms": 19, 
	 "gaussian": { 
		 "optdone": 1, 
		 "sigma_profile": "yes", 
		 "theory": "DFT", 
		 "functional": "B3LYP", 
		 "basiset": "6-31G**", 
		 "properties": { 
			 "R2extent": 2911.6006, 
			 "electric_dipole_moment_norm": 3.79049182297, 
			 "electric_quadrupole_moment_norm": 19.3725541122, 
			 "total_energy": -589.467776289, 
			 "HOMO_LUMO_gap": 0.18325, 
			 "cosmo_polarized_energy": -13.24, 
			 "cosmo_cavitation_energy": 23.66, 
			 "cosmo_dispersion_energy": -18.08, 
			 "cosmo_repulsion_energy": 1.43, 
			 "cosmo_total_nonelectrostatic_energy": 7.01, 
			 "SMD_solvation_energy": 6.28 
		},
		"coords": [
			{
				"x": 4.7180993178,
				"y": -0.2740013294,
				"z": -2.3403288734,
				"element": "O" 
			},
			{
				"x": 3.7422288398,
				"y": 0.1524280501,
				"z": -1.7489759874,
				"element": "C" 
			},
			{
				"x": 3.0779729242,
				"y": -0.5615962092,
				"z": -0.7858508532,
				"element": "N" 
			},
			{
				"x": 1.9463869861,
				"y": -0.2087836002,
				"z": -0.0224655766,
				"element": "C" 
			},
			{
				"x": 1.3020332755,
				"y": 1.0413517895,
				"z": -0.1741739838,
				"element": "C" 
			},
			{
				"x": 0.2039671827,
				"y": 1.2731188502,
				"z": 0.6283417115,
				"element": "C" 
			},
			{
				"x": -0.2698392522,
				"y": 0.3435651161,
				"z": 1.550011062,
				"element": "C" 
			},
			{
				"x": -1.3707698642,
				"y": 0.8515032212,
				"z": 2.2005132599,
				"element": "O" 
			},
			{
				"x": -1.5853130317,
				"y": 2.1563849415,
				"z": 1.6531043124,
				"element": "C" 
			},
			{
				"x": -0.5763133342,
				"y": 2.399003833,
				"z": 0.6613212781,
				"element": "O" 
			},
			{
				"x": 0.3467032928,
				"y": -0.8793047038,
				"z": 1.7101004727,
				"element": "C" 
			},
			{
				"x": 1.468143772,
				"y": -1.1429490059,
				"z": 0.9055413991,
				"element": "C" 
			},
			{
				"x": 3.3126486504,
				"y": 1.1493185489,
				"z": -1.9425825044,
				"element": "H" 
			},
			{
				"x": 3.4791223787,
				"y": -1.4759938696,
				"z": -0.6153016453,
				"element": "H" 
			},
			{
				"x": 1.632259156,
				"y": 1.7954015602,
				"z": -0.8759516137,
				"element": "H" 
			},
			{
				"x": -2.5748430803,
				"y": 2.1998631092,
				"z": 1.1817628265,
				"element": "H" 
			},
			{
				"x": -1.5005722531,
				"y": 2.9076479863,
				"z": 2.4478648639,
				"element": "H" 
			},
			{
				"x": -0.0162941811,
				"y": -1.6081186863,
				"z": 2.4254825874,
				"element": "H" 
			},
			{
				"x": 1.9773792207,
				"y": -2.0969396018,
				"z": 1.0063872642,
				"element": "H" 
			}
		],
		 "valence_orbital": [ 
			{
				"type": "occ",
				"energy": -0.34501,
				"method": "rhf"
			},
			{
				"type": "occ",
				"energy": -0.28501,
				"method": "rhf"
			},
			{
				"type": "occ",
				"energy": -0.26078,
				"method": "rhf"
			},
			{
				"type": "occ",
				"energy": -0.25003,
				"method": "rhf"
			},
			{
				"type": "occ",
				"energy": -0.20263,
				"method": "rhf"
			},
			{
				"type": "unocc",
				"energy": -0.01938,
				"method": "rhf"
			},
			{
				"type": "unocc",
				"energy": -0.00395,
				"method": "rhf"
			},
			{
				"type": "unocc",
				"energy": 0.04265,
				"method": "rhf"
			},
			{
				"type": "unocc",
				"energy": 0.07384,
				"method": "rhf"
			},
			{
				"type": "unocc",
				"energy": 0.08337,
				"method": "rhf"
			}
		],
		"cosmo_sigma_profile": { 
			"-0.025": 0.0,
			"-0.024": 0.0,
			"-0.023": 0.0,
			"-0.022": 0.0,
			"-0.021": 0.0,
			"-0.02": 0.0,
			"-0.019": 0.0,
			"-0.018": 0.0,
			"-0.017": 0.0,
			"-0.016": 0.0,
			"-0.015": 0.311131055556,
			"-0.014": 1.63087628408,
			"-0.013": 0.854732152744,
			"-0.012": 1.46614991438,
			"-0.011": 1.07280084979,
			"-0.01": 2.47973683319,
			"-0.009": 3.83679240238,
			"-0.008": 6.56644681283,
			"-0.007": 12.8692505525,
			"-0.006": 12.7695185823,
			"-0.005": 10.1800732162,
			"-0.004": 8.65958130824,
			"-0.003": 9.74576793772,
			"-0.002": 8.36733653219,
			"-0.001": 8.25156493394,
			"0.0": 10.4310630501,
			"0.001": 11.4319795362,
			"0.002": 14.1666247657,
			"0.003": 15.3656111328,
			"0.004": 10.4001118319,
			"0.005": 6.89395592408,
			"0.006": 3.16364058862,
			"0.007": 3.83035188886,
			"0.008": 4.07195670672,
			"0.009": 4.88424281971,
			"0.01": 2.84370264498,
			"0.011": 2.12763878878,
			"0.012": 3.35000240732,
			"0.013": 5.65772569555,
			"0.014": 2.06770391479,
			"0.015": 0.15523392082,
			"0.016": 0.0,
			"0.017": 0.0,
			"0.018": 0.0,
			"0.019": 0.0,
			"0.02": 0.0,
			"0.021": 0.0,
			"0.022": 0.0,
			"0.023": 0.0,
			"0.024": 0.0,
			"0.025": 0.0
		}
	}
}
