{
	 "smiles": "NC1=C(SC2=NC=CC=C2)C(Cl)=CC=C1", 
	 "Tm": 361.15, 
	 "num_atms": 24, 
	 "gaussian": { 
		 "optdone": 1, 
		 "sigma_profile": "yes", 
		 "theory": "DFT", 
		 "functional": "B3LYP", 
		 "basiset": "6-31G**", 
		 "properties": { 
			 "R2extent": 3970.4773, 
			 "electric_dipole_moment_norm": 2.9669174761, 
			 "electric_quadrupole_moment_norm": 12.6940479927, 
			 "total_energy": -1392.47120678, 
			 "HOMO_LUMO_gap": 0.18309, 
			 "cosmo_polarized_energy": -13.29, 
			 "cosmo_cavitation_energy": 31.65, 
			 "cosmo_dispersion_energy": -22.95, 
			 "cosmo_repulsion_energy": 1.78, 
			 "cosmo_total_nonelectrostatic_energy": 10.47, 
			 "SMD_solvation_energy": 3.84 
		},
		"coords": [
			{
				"x": 2.8736617194,
				"y": -1.6117594998,
				"z": -0.4489194378,
				"element": "N" 
			},
			{
				"x": 2.0414982851,
				"y": -1.2305329343,
				"z": -1.481645422,
				"element": "C" 
			},
			{
				"x": 1.143376668,
				"y": -0.1394556592,
				"z": -1.338326239,
				"element": "C" 
			},
			{
				"x": 1.2107265654,
				"y": 0.8561037442,
				"z": 0.1371236521,
				"element": "S" 
			},
			{
				"x": 0.0197110597,
				"y": 0.0591696333,
				"z": 1.2319421322,
				"element": "C" 
			},
			{
				"x": -0.6251065607,
				"y": -1.023905029,
				"z": 0.8134563226,
				"element": "N" 
			},
			{
				"x": -1.5057984953,
				"y": -1.586143312,
				"z": 1.6540982402,
				"element": "C" 
			},
			{
				"x": -1.7748691765,
				"y": -1.0985434715,
				"z": 2.9300669979,
				"element": "C" 
			},
			{
				"x": -1.0874674594,
				"y": 0.0426992011,
				"z": 3.3543169453,
				"element": "C" 
			},
			{
				"x": -0.1720847056,
				"y": 0.6398858638,
				"z": 2.4962762921,
				"element": "C" 
			},
			{
				"x": 0.2735612781,
				"y": 0.1614584887,
				"z": -2.4015380883,
				"element": "C" 
			},
			{
				"x": -0.872627977,
				"y": 1.484816321,
				"z": -2.2713994744,
				"element": "Cl" 
			},
			{
				"x": 0.2802562212,
				"y": -0.5638021224,
				"z": -3.5894088093,
				"element": "C" 
			},
			{
				"x": 1.1809000331,
				"y": -1.6231354075,
				"z": -3.7188129679,
				"element": "C" 
			},
			{
				"x": 2.0477058291,
				"y": -1.9559491265,
				"z": -2.6892646519,
				"element": "C" 
			},
			{
				"x": 3.6981638115,
				"y": -2.1335752587,
				"z": -0.7047694467,
				"element": "H" 
			},
			{
				"x": 3.0105513336,
				"y": -0.9295975953,
				"z": 0.2844875192,
				"element": "H" 
			},
			{
				"x": -2.0173029883,
				"y": -2.4707505387,
				"z": 1.2791624169,
				"element": "H" 
			},
			{
				"x": -2.4987507872,
				"y": -1.5936776226,
				"z": 3.5687073976,
				"element": "H" 
			},
			{
				"x": -1.2650591762,
				"y": 0.4625884376,
				"z": 4.3404061242,
				"element": "H" 
			},
			{
				"x": 0.3769883793,
				"y": 1.5300086701,
				"z": 2.7874100459,
				"element": "H" 
			},
			{
				"x": -0.4047002318,
				"y": -0.3042418009,
				"z": -4.3871705817,
				"element": "H" 
			},
			{
				"x": 1.2007742484,
				"y": -2.1961841735,
				"z": -4.641393116,
				"element": "H" 
			},
			{
				"x": 2.7343921259,
				"y": -2.790876808,
				"z": -2.7985058514,
				"element": "H" 
			}
		],
		 "valence_orbital": [ 
			{
				"type": "occ",
				"energy": -0.28271,
				"method": "rhf"
			},
			{
				"type": "occ",
				"energy": -0.25628,
				"method": "rhf"
			},
			{
				"type": "occ",
				"energy": -0.24309,
				"method": "rhf"
			},
			{
				"type": "occ",
				"energy": -0.22311,
				"method": "rhf"
			},
			{
				"type": "occ",
				"energy": -0.20665,
				"method": "rhf"
			},
			{
				"type": "unocc",
				"energy": -0.02356,
				"method": "rhf"
			},
			{
				"type": "unocc",
				"energy": -0.0202,
				"method": "rhf"
			},
			{
				"type": "unocc",
				"energy": -0.01051,
				"method": "rhf"
			},
			{
				"type": "unocc",
				"energy": 0.00901,
				"method": "rhf"
			},
			{
				"type": "unocc",
				"energy": 0.02646,
				"method": "rhf"
			}
		],
		"cosmo_sigma_profile": { 
			"-0.025": 0.0,
			"-0.024": 0.0,
			"-0.023": 0.0,
			"-0.022": 0.0,
			"-0.021": 0.0,
			"-0.02": 0.0,
			"-0.019": 0.0,
			"-0.018": 0.0,
			"-0.017": 0.0,
			"-0.016": 0.0,
			"-0.015": 0.0,
			"-0.014": 0.188060364497,
			"-0.013": 1.32356531324,
			"-0.012": 1.40037324316,
			"-0.011": 1.75984105285,
			"-0.01": 2.41325839851,
			"-0.009": 3.03140239088,
			"-0.008": 3.0749062107,
			"-0.007": 10.0203720825,
			"-0.006": 17.9513159889,
			"-0.005": 16.2666574592,
			"-0.004": 14.5612715358,
			"-0.003": 10.9945933413,
			"-0.002": 12.3995461655,
			"-0.001": 13.7533955817,
			"0.0": 15.4956979732,
			"0.001": 19.0863085115,
			"0.002": 25.9881771985,
			"0.003": 25.1897615077,
			"0.004": 22.2378354474,
			"0.005": 17.4012837867,
			"0.006": 5.6357522228,
			"0.007": 3.80206096886,
			"0.008": 3.7449294722,
			"0.009": 2.68389613811,
			"0.01": 2.85935211673,
			"0.011": 1.72093054083,
			"0.012": 1.87481769977,
			"0.013": 0.981984152148,
			"0.014": 0.0914304577656,
			"0.015": 0.0,
			"0.016": 0.0,
			"0.017": 0.0,
			"0.018": 0.0,
			"0.019": 0.0,
			"0.02": 0.0,
			"0.021": 0.0,
			"0.022": 0.0,
			"0.023": 0.0,
			"0.024": 0.0,
			"0.025": 0.0
		}
	}
}
