{
	 "smiles": "ClC(Cl)=CNC(=O)C1=CC(Br)=CC=C1", 
	 "Tm": 365.15, 
	 "num_atms": 20, 
	 "gaussian": { 
		 "optdone": 1, 
		 "sigma_profile": "yes", 
		 "theory": "DFT", 
		 "functional": "B3LYP", 
		 "basiset": "6-31G**", 
		 "properties": { 
			 "R2extent": 5755.8359, 
			 "electric_dipole_moment_norm": 0.929235755877, 
			 "electric_quadrupole_moment_norm": 18.1499718206, 
			 "total_energy": -3968.31325401, 
			 "HOMO_LUMO_gap": 0.1935, 
			 "cosmo_polarized_energy": -11.2, 
			 "cosmo_cavitation_energy": 31.11, 
			 "cosmo_dispersion_energy": -21.96, 
			 "cosmo_repulsion_energy": 1.77, 
			 "cosmo_total_nonelectrostatic_energy": 10.93, 
			 "SMD_solvation_energy": 4.47 
		},
		"coords": [
			{
				"x": 1.0130175282,
				"y": -0.8491178411,
				"z": 2.0480092384,
				"element": "Cl" 
			},
			{
				"x": 0.6543697262,
				"y": -2.388111846,
				"z": 1.3390775662,
				"element": "C" 
			},
			{
				"x": -0.3453046425,
				"y": -3.4349037314,
				"z": 2.3064781947,
				"element": "Cl" 
			},
			{
				"x": 1.078150133,
				"y": -2.7825700524,
				"z": 0.1282647236,
				"element": "C" 
			},
			{
				"x": 1.8430452816,
				"y": -2.0163551652,
				"z": -0.767597818,
				"element": "N" 
			},
			{
				"x": 1.6587508738,
				"y": -0.7183112972,
				"z": -1.2361894727,
				"element": "C" 
			},
			{
				"x": 2.6091662711,
				"y": -0.1057058524,
				"z": -1.6998287474,
				"element": "O" 
			},
			{
				"x": 0.2777419078,
				"y": -0.1326568911,
				"z": -1.2352383601,
				"element": "C" 
			},
			{
				"x": -0.8747676452,
				"y": -0.9078468779,
				"z": -1.416454401,
				"element": "C" 
			},
			{
				"x": -2.1141234344,
				"y": -0.276930443,
				"z": -1.489984175,
				"element": "C" 
			},
			{
				"x": -3.6843943187,
				"y": -1.3348147623,
				"z": -1.7557095666,
				"element": "Br" 
			},
			{
				"x": -2.2323704083,
				"y": 1.107549653,
				"z": -1.3813533187,
				"element": "C" 
			},
			{
				"x": -1.0765202973,
				"y": 1.8735382255,
				"z": -1.2133153259,
				"element": "C" 
			},
			{
				"x": 0.1727191847,
				"y": 1.262193079,
				"z": -1.1533249316,
				"element": "C" 
			},
			{
				"x": 0.8421687282,
				"y": -3.7989703722,
				"z": -0.1783482214,
				"element": "H" 
			},
			{
				"x": 2.7754138916,
				"y": -2.3570163775,
				"z": -0.9785568422,
				"element": "H" 
			},
			{
				"x": -0.8138261166,
				"y": -1.983825624,
				"z": -1.5198209129,
				"element": "H" 
			},
			{
				"x": -3.2081060902,
				"y": 1.5766989303,
				"z": -1.4357130073,
				"element": "H" 
			},
			{
				"x": -1.158023964,
				"y": 2.9535038949,
				"z": -1.1368608266,
				"element": "H" 
			},
			{
				"x": 1.0798933909,
				"y": 1.8466533508,
				"z": -1.0489337956,
				"element": "H" 
			}
		],
		 "valence_orbital": [ 
			{
				"type": "occ",
				"energy": -0.29444,
				"method": "rhf"
			},
			{
				"type": "occ",
				"energy": -0.27778,
				"method": "rhf"
			},
			{
				"type": "occ",
				"energy": -0.26745,
				"method": "rhf"
			},
			{
				"type": "occ",
				"energy": -0.25327,
				"method": "rhf"
			},
			{
				"type": "occ",
				"energy": -0.24843,
				"method": "rhf"
			},
			{
				"type": "unocc",
				"energy": -0.05493,
				"method": "rhf"
			},
			{
				"type": "unocc",
				"energy": -0.02932,
				"method": "rhf"
			},
			{
				"type": "unocc",
				"energy": -0.02187,
				"method": "rhf"
			},
			{
				"type": "unocc",
				"energy": -0.01017,
				"method": "rhf"
			},
			{
				"type": "unocc",
				"energy": 0.00019,
				"method": "rhf"
			}
		],
		"cosmo_sigma_profile": { 
			"-0.025": 0.0,
			"-0.024": 0.0,
			"-0.023": 0.0,
			"-0.022": 0.0,
			"-0.021": 0.0,
			"-0.02": 0.0,
			"-0.019": 0.0,
			"-0.018": 0.0,
			"-0.017": 0.0,
			"-0.016": 0.129480267906,
			"-0.015": 1.12605069764,
			"-0.014": 1.09613797415,
			"-0.013": 1.17312969864,
			"-0.012": 1.11281698642,
			"-0.011": 0.464443405207,
			"-0.01": 1.62175726985,
			"-0.009": 3.17087077154,
			"-0.008": 4.76248942934,
			"-0.007": 8.95301959079,
			"-0.006": 9.93819049526,
			"-0.005": 9.58992470181,
			"-0.004": 11.5637917282,
			"-0.003": 13.9765048641,
			"-0.002": 13.7541844161,
			"-0.001": 19.2311757688,
			"0.0": 26.1289076619,
			"0.001": 27.2992696347,
			"0.002": 33.6231088526,
			"0.003": 32.2355666396,
			"0.004": 14.2708444333,
			"0.005": 4.90684301208,
			"0.006": 1.7896966276,
			"0.007": 1.35284424459,
			"0.008": 1.76010173119,
			"0.009": 0.945260807293,
			"0.01": 1.69546997282,
			"0.011": 2.09747785391,
			"0.012": 4.82070460118,
			"0.013": 3.00780735823,
			"0.014": 0.0438057991234,
			"0.015": 0.0,
			"0.016": 0.0,
			"0.017": 0.0,
			"0.018": 0.0,
			"0.019": 0.0,
			"0.02": 0.0,
			"0.021": 0.0,
			"0.022": 0.0,
			"0.023": 0.0,
			"0.024": 0.0,
			"0.025": 0.0
		}
	}
}
