{
	 "smiles": "CCCCCCCCCCCCC1=CC=C(N)C=C1", 
	 "Tm": 313.65, 
	 "num_atms": 50, 
	 "gaussian": { 
		 "optdone": 1, 
		 "sigma_profile": "yes", 
		 "theory": "DFT", 
		 "functional": "B3LYP", 
		 "basiset": "6-31G**", 
		 "properties": { 
			 "R2extent": 7354.2208, 
			 "electric_dipole_moment_norm": 1.29896822902, 
			 "electric_quadrupole_moment_norm": 10.1763083011, 
			 "total_energy": -759.391875424, 
			 "HOMO_LUMO_gap": 0.19829, 
			 "cosmo_polarized_energy": -7.65, 
			 "cosmo_cavitation_energy": 49.0, 
			 "cosmo_dispersion_energy": -30.78, 
			 "cosmo_repulsion_energy": 2.42, 
			 "cosmo_total_nonelectrostatic_energy": 20.64, 
			 "SMD_solvation_energy": 6.39 
		},
		"coords": [
			{
				"x": -4.3285065348,
				"y": -2.7677681162,
				"z": -0.9258136533,
				"element": "C" 
			},
			{
				"x": -3.8962596925,
				"y": -2.2138644339,
				"z": 0.4370135275,
				"element": "C" 
			},
			{
				"x": -2.3890259087,
				"y": -1.9270586442,
				"z": 0.5568629066,
				"element": "C" 
			},
			{
				"x": -1.8302749074,
				"y": -0.8585750559,
				"z": -0.4013752793,
				"element": "C" 
			},
			{
				"x": -2.4439693863,
				"y": 0.547399412,
				"z": -0.2654896442,
				"element": "C" 
			},
			{
				"x": -2.3086442196,
				"y": 1.2062283874,
				"z": 1.1201932384,
				"element": "C" 
			},
			{
				"x": -0.8722226188,
				"y": 1.4115826838,
				"z": 1.6327638276,
				"element": "C" 
			},
			{
				"x": -0.0083810605,
				"y": 2.347368698,
				"z": 0.7748379352,
				"element": "C" 
			},
			{
				"x": 1.369208344,
				"y": 2.6164263627,
				"z": 1.3968095714,
				"element": "C" 
			},
			{
				"x": 2.240969696,
				"y": 3.6198638059,
				"z": 0.61963436,
				"element": "C" 
			},
			{
				"x": 2.7076948649,
				"y": 3.2143186847,
				"z": -0.7919546987,
				"element": "C" 
			},
			{
				"x": 3.8235090178,
				"y": 2.1455797863,
				"z": -0.8639512938,
				"element": "C" 
			},
			{
				"x": 3.4156879831,
				"y": 0.714916623,
				"z": -0.5693076238,
				"element": "C" 
			},
			{
				"x": 3.9348125723,
				"y": 0.009894132,
				"z": 0.5239500136,
				"element": "C" 
			},
			{
				"x": 3.5697953426,
				"y": -1.3089219879,
				"z": 0.7897747179,
				"element": "C" 
			},
			{
				"x": 2.6639166446,
				"y": -1.9812065912,
				"z": -0.0454561073,
				"element": "C" 
			},
			{
				"x": 2.334603781,
				"y": -3.3227069693,
				"z": 0.1781811873,
				"element": "N" 
			},
			{
				"x": 2.1468153706,
				"y": -1.2879890669,
				"z": -1.154022129,
				"element": "C" 
			},
			{
				"x": 2.5204461922,
				"y": 0.0297553521,
				"z": -1.4040384522,
				"element": "C" 
			},
			{
				"x": -3.7791303844,
				"y": -3.6843407579,
				"z": -1.1720479883,
				"element": "H" 
			},
			{
				"x": -4.1511581704,
				"y": -2.0504467868,
				"z": -1.7338297308,
				"element": "H" 
			},
			{
				"x": -5.3963786929,
				"y": -3.0101883651,
				"z": -0.9323866994,
				"element": "H" 
			},
			{
				"x": -4.1736738111,
				"y": -2.9334324734,
				"z": 1.2182008929,
				"element": "H" 
			},
			{
				"x": -4.4664334216,
				"y": -1.3021507877,
				"z": 0.656797416,
				"element": "H" 
			},
			{
				"x": -1.8405849286,
				"y": -2.8648259026,
				"z": 0.3861161236,
				"element": "H" 
			},
			{
				"x": -2.167440896,
				"y": -1.6385068583,
				"z": 1.5923381877,
				"element": "H" 
			},
			{
				"x": -0.7446027127,
				"y": -0.7968590362,
				"z": -0.2557684584,
				"element": "H" 
			},
			{
				"x": -1.9670636704,
				"y": -1.1937272322,
				"z": -1.4378732081,
				"element": "H" 
			},
			{
				"x": -3.5103877314,
				"y": 0.5070979971,
				"z": -0.5233040218,
				"element": "H" 
			},
			{
				"x": -1.9853626845,
				"y": 1.1959694373,
				"z": -1.0225693059,
				"element": "H" 
			},
			{
				"x": -2.8625958568,
				"y": 0.6130873148,
				"z": 1.859506944,
				"element": "H" 
			},
			{
				"x": -2.8127344851,
				"y": 2.182008545,
				"z": 1.0864112004,
				"element": "H" 
			},
			{
				"x": -0.3646004728,
				"y": 0.4423222247,
				"z": 1.7276355307,
				"element": "H" 
			},
			{
				"x": -0.9275031905,
				"y": 1.8188033815,
				"z": 2.6518818554,
				"element": "H" 
			},
			{
				"x": 0.1176852335,
				"y": 1.9158952414,
				"z": -0.2252723887,
				"element": "H" 
			},
			{
				"x": -0.5374603419,
				"y": 3.3021185857,
				"z": 0.6344803412,
				"element": "H" 
			},
			{
				"x": 1.9026419974,
				"y": 1.6671552389,
				"z": 1.5167559559,
				"element": "H" 
			},
			{
				"x": 1.2211469355,
				"y": 3.0137149356,
				"z": 2.4110070467,
				"element": "H" 
			},
			{
				"x": 1.6821438096,
				"y": 4.5625311932,
				"z": 0.5336678293,
				"element": "H" 
			},
			{
				"x": 3.1298824855,
				"y": 3.8560133174,
				"z": 1.2214574746,
				"element": "H" 
			},
			{
				"x": 1.8513852005,
				"y": 2.8899302936,
				"z": -1.3964805219,
				"element": "H" 
			},
			{
				"x": 3.0915793716,
				"y": 4.1170231734,
				"z": -1.2849344072,
				"element": "H" 
			},
			{
				"x": 4.6344787355,
				"y": 2.4358482251,
				"z": -0.1836489802,
				"element": "H" 
			},
			{
				"x": 4.252856543,
				"y": 2.1842949542,
				"z": -1.8746672526,
				"element": "H" 
			},
			{
				"x": 4.6396198237,
				"y": 0.5039228748,
				"z": 1.189042492,
				"element": "H" 
			},
			{
				"x": 3.9936422329,
				"y": -1.8260808727,
				"z": 1.6475842864,
				"element": "H" 
			},
			{
				"x": 2.4421206159,
				"y": -3.6298653869,
				"z": 1.1355043905,
				"element": "H" 
			},
			{
				"x": 1.4418362288,
				"y": -3.6073722619,
				"z": -0.2018166538,
				"element": "H" 
			},
			{
				"x": 1.4581953021,
				"y": -1.7933334545,
				"z": -1.8271564023,
				"element": "H" 
			},
			{
				"x": 2.1072214549,
				"y": 0.53395018,
				"z": -2.2749443516,
				"element": "H" 
			}
		],
		 "valence_orbital": [ 
			{
				"type": "occ",
				"energy": -0.29463,
				"method": "rhf"
			},
			{
				"type": "occ",
				"energy": -0.29208,
				"method": "rhf"
			},
			{
				"type": "occ",
				"energy": -0.2869,
				"method": "rhf"
			},
			{
				"type": "occ",
				"energy": -0.24131,
				"method": "rhf"
			},
			{
				"type": "occ",
				"energy": -0.19365,
				"method": "rhf"
			},
			{
				"type": "unocc",
				"energy": 0.00464,
				"method": "rhf"
			},
			{
				"type": "unocc",
				"energy": 0.02083,
				"method": "rhf"
			},
			{
				"type": "unocc",
				"energy": 0.06741,
				"method": "rhf"
			},
			{
				"type": "unocc",
				"energy": 0.08133,
				"method": "rhf"
			},
			{
				"type": "unocc",
				"energy": 0.09301,
				"method": "rhf"
			}
		],
		"cosmo_sigma_profile": { 
			"-0.025": 0.0,
			"-0.024": 0.0,
			"-0.023": 0.0,
			"-0.022": 0.0,
			"-0.021": 0.0,
			"-0.02": 0.0,
			"-0.019": 0.0,
			"-0.018": 0.0,
			"-0.017": 0.0,
			"-0.016": 0.0,
			"-0.015": 0.0,
			"-0.014": 0.0,
			"-0.013": 0.0,
			"-0.012": 0.704348372957,
			"-0.011": 2.59061245967,
			"-0.01": 2.9377795006,
			"-0.009": 2.70239325478,
			"-0.008": 3.301483213,
			"-0.007": 3.1754715131,
			"-0.006": 3.12517173896,
			"-0.005": 5.72910392823,
			"-0.004": 9.07821768411,
			"-0.003": 14.2440360678,
			"-0.002": 37.4284073612,
			"-0.001": 66.1302745418,
			"0.0": 72.4119479295,
			"0.001": 70.139449795,
			"0.002": 38.1515064277,
			"0.003": 10.6468545152,
			"0.004": 7.11975108924,
			"0.005": 7.84999032629,
			"0.006": 7.50213990033,
			"0.007": 5.91603560975,
			"0.008": 1.63496988219,
			"0.009": 1.26550507573,
			"0.01": 0.471339094739,
			"0.011": 0.681174101229,
			"0.012": 0.934652712033,
			"0.013": 0.527644454245,
			"0.014": 0.596426635315,
			"0.015": 0.487444835282,
			"0.016": 0.117055081006,
			"0.017": 0.0,
			"0.018": 0.0,
			"0.019": 0.0,
			"0.02": 0.0,
			"0.021": 0.0,
			"0.022": 0.0,
			"0.023": 0.0,
			"0.024": 0.0,
			"0.025": 0.0
		}
	}
}
