{
	 "smiles": "NC1CCN(C1=O)C1=CC(Cl)=C(F)C=C1", 
	 "Tm": 384.15, 
	 "num_atms": 25, 
	 "gaussian": { 
		 "optdone": 1, 
		 "sigma_profile": "yes", 
		 "theory": "DFT", 
		 "functional": "B3LYP", 
		 "basiset": "6-31G**", 
		 "properties": { 
			 "R2extent": 5105.3586, 
			 "electric_dipole_moment_norm": 4.75406963664, 
			 "electric_quadrupole_moment_norm": 12.9673364821, 
			 "total_energy": -1131.85595888, 
			 "HOMO_LUMO_gap": 0.20335, 
			 "cosmo_polarized_energy": -13.5, 
			 "cosmo_cavitation_energy": 30.47, 
			 "cosmo_dispersion_energy": -22.51, 
			 "cosmo_repulsion_energy": 1.74, 
			 "cosmo_total_nonelectrostatic_energy": 9.7, 
			 "SMD_solvation_energy": 4.03 
		},
		"coords": [
			{
				"x": 0.3337983975,
				"y": -1.1379234603,
				"z": -3.4211319611,
				"element": "N" 
			},
			{
				"x": 0.3409159039,
				"y": -1.3064719906,
				"z": -1.9786100105,
				"element": "C" 
			},
			{
				"x": -0.9011778777,
				"y": -1.9976406777,
				"z": -1.4113605865,
				"element": "C" 
			},
			{
				"x": -0.95106006,
				"y": -1.5123735666,
				"z": 0.0459599228,
				"element": "C" 
			},
			{
				"x": -0.3204315398,
				"y": -0.1830439778,
				"z": 0.0006933065,
				"element": "N" 
			},
			{
				"x": 0.4140449011,
				"y": -0.0040331026,
				"z": -1.1611570969,
				"element": "C" 
			},
			{
				"x": 1.0263435038,
				"y": 0.9959426978,
				"z": -1.5034007123,
				"element": "O" 
			},
			{
				"x": -0.3962094759,
				"y": 0.7105905309,
				"z": 1.0938314427,
				"element": "C" 
			},
			{
				"x": 0.0484249844,
				"y": 2.0406589057,
				"z": 0.9783633752,
				"element": "C" 
			},
			{
				"x": -0.0484373321,
				"y": 2.8986171532,
				"z": 2.0691525504,
				"element": "C" 
			},
			{
				"x": 0.4997036009,
				"y": 4.5516660923,
				"z": 1.9340794959,
				"element": "Cl" 
			},
			{
				"x": -0.5867369459,
				"y": 2.45314802,
				"z": 3.2774942085,
				"element": "C" 
			},
			{
				"x": -0.6803436921,
				"y": 3.287600751,
				"z": 4.3252297268,
				"element": "F" 
			},
			{
				"x": -1.0258708684,
				"y": 1.1432001095,
				"z": 3.4004208618,
				"element": "C" 
			},
			{
				"x": -0.9309383105,
				"y": 0.2721211868,
				"z": 2.3170721875,
				"element": "C" 
			},
			{
				"x": -0.4629244441,
				"y": -0.5606691622,
				"z": -3.6867477977,
				"element": "H" 
			},
			{
				"x": 1.1563975389,
				"y": -0.5976504052,
				"z": -3.6841861665,
				"element": "H" 
			},
			{
				"x": 1.2380900199,
				"y": -1.8855074714,
				"z": -1.712969475,
				"element": "H" 
			},
			{
				"x": -0.8691291358,
				"y": -3.0858780165,
				"z": -1.4908495557,
				"element": "H" 
			},
			{
				"x": -1.7886865993,
				"y": -1.6464637225,
				"z": -1.9509333842,
				"element": "H" 
			},
			{
				"x": -1.9735325061,
				"y": -1.43307219,
				"z": 0.426281998,
				"element": "H" 
			},
			{
				"x": -0.3920470179,
				"y": -2.1810051501,
				"z": 0.7150633526,
				"element": "H" 
			},
			{
				"x": 0.473707579,
				"y": 2.3882621246,
				"z": 0.0482048085,
				"element": "H" 
			},
			{
				"x": -1.4358935831,
				"y": 0.8149021984,
				"z": 4.3492709037,
				"element": "H" 
			},
			{
				"x": -1.2673070407,
				"y": -0.7494768766,
				"z": 2.4418286055,
				"element": "H" 
			}
		],
		 "valence_orbital": [ 
			{
				"type": "occ",
				"energy": -0.29915,
				"method": "rhf"
			},
			{
				"type": "occ",
				"energy": -0.27872,
				"method": "rhf"
			},
			{
				"type": "occ",
				"energy": -0.25702,
				"method": "rhf"
			},
			{
				"type": "occ",
				"energy": -0.24193,
				"method": "rhf"
			},
			{
				"type": "occ",
				"energy": -0.22656,
				"method": "rhf"
			},
			{
				"type": "unocc",
				"energy": -0.02321,
				"method": "rhf"
			},
			{
				"type": "unocc",
				"energy": -0.02257,
				"method": "rhf"
			},
			{
				"type": "unocc",
				"energy": 0.02576,
				"method": "rhf"
			},
			{
				"type": "unocc",
				"energy": 0.03044,
				"method": "rhf"
			},
			{
				"type": "unocc",
				"energy": 0.076,
				"method": "rhf"
			}
		],
		"cosmo_sigma_profile": { 
			"-0.025": 0.0,
			"-0.024": 0.0,
			"-0.023": 0.0,
			"-0.022": 0.0,
			"-0.021": 0.0,
			"-0.02": 0.0,
			"-0.019": 0.0,
			"-0.018": 0.0,
			"-0.017": 0.0,
			"-0.016": 0.0,
			"-0.015": 0.0,
			"-0.014": 0.0,
			"-0.013": 0.0,
			"-0.012": 0.0,
			"-0.011": 0.176009498522,
			"-0.01": 1.66096369995,
			"-0.009": 3.38091949025,
			"-0.008": 5.07106033841,
			"-0.007": 9.12962081244,
			"-0.006": 15.7778860733,
			"-0.005": 20.7145020105,
			"-0.004": 15.9875266114,
			"-0.003": 14.6234054288,
			"-0.002": 12.0840930661,
			"-0.001": 13.803430563,
			"0.0": 17.8579100016,
			"0.001": 21.6602915939,
			"0.002": 21.3747028082,
			"0.003": 19.1907553628,
			"0.004": 20.272426361,
			"0.005": 6.81675829995,
			"0.006": 3.04445542686,
			"0.007": 3.48868754156,
			"0.008": 1.65395444179,
			"0.009": 2.09158751419,
			"0.01": 2.27624297824,
			"0.011": 2.17067790651,
			"0.012": 3.65657051664,
			"0.013": 3.17592347153,
			"0.014": 0.396522233365,
			"0.015": 0.933437894094,
			"0.016": 0.583587968491,
			"0.017": 0.199791157517,
			"0.018": 0.96339385173,
			"0.019": 0.125743628176,
			"0.02": 0.0,
			"0.021": 0.0,
			"0.022": 0.0,
			"0.023": 0.0,
			"0.024": 0.0,
			"0.025": 0.0
		}
	}
}
