{
	 "smiles": "CCOC(=O)C1=C(N)N(N=C1)C1=NC2=C(S1)C=CC=C2", 
	 "Tm": 411.15, 
	 "num_atms": 32, 
	 "gaussian": { 
		 "optdone": 1, 
		 "sigma_profile": "yes", 
		 "theory": "DFT", 
		 "functional": "B3LYP", 
		 "basiset": "6-31G**", 
		 "properties": { 
			 "R2extent": 9264.9749, 
			 "electric_dipole_moment_norm": 1.08293292036, 
			 "electric_quadrupole_moment_norm": 20.6555475079, 
			 "total_energy": -1270.27899099, 
			 "HOMO_LUMO_gap": 0.16955, 
			 "cosmo_polarized_energy": -10.61, 
			 "cosmo_cavitation_energy": 38.23, 
			 "cosmo_dispersion_energy": -28.87, 
			 "cosmo_repulsion_energy": 2.16, 
			 "cosmo_total_nonelectrostatic_energy": 11.52, 
			 "SMD_solvation_energy": 5.3 
		},
		"coords": [
			{
				"x": -1.6581407184,
				"y": -2.4504511415,
				"z": 4.9031576245,
				"element": "C" 
			},
			{
				"x": -0.3696260553,
				"y": -2.8595175857,
				"z": 4.2048038577,
				"element": "C" 
			},
			{
				"x": 0.1699620391,
				"y": -1.7749130529,
				"z": 3.4146154362,
				"element": "O" 
			},
			{
				"x": -0.3148307974,
				"y": -1.6413639468,
				"z": 2.1583688806,
				"element": "C" 
			},
			{
				"x": -1.1637049727,
				"y": -2.3877750645,
				"z": 1.674650038,
				"element": "O" 
			},
			{
				"x": 0.274729404,
				"y": -0.5302612438,
				"z": 1.4433345054,
				"element": "C" 
			},
			{
				"x": -0.0763907074,
				"y": -0.2027999598,
				"z": 0.1250196359,
				"element": "C" 
			},
			{
				"x": -0.954162264,
				"y": -0.7842752771,
				"z": -0.7028653503,
				"element": "N" 
			},
			{
				"x": 0.687895921,
				"y": 0.8977321588,
				"z": -0.2006660688,
				"element": "N" 
			},
			{
				"x": 1.5150551207,
				"y": 1.2953358781,
				"z": 0.8470319282,
				"element": "N" 
			},
			{
				"x": 1.25423793,
				"y": 0.4369954355,
				"z": 1.8082050428,
				"element": "C" 
			},
			{
				"x": 0.7052840999,
				"y": 1.5929349693,
				"z": -1.3921884067,
				"element": "C" 
			},
			{
				"x": -0.0358868883,
				"y": 1.2805777707,
				"z": -2.4119840787,
				"element": "N" 
			},
			{
				"x": 0.2020453018,
				"y": 2.1598920549,
				"z": -3.4610706563,
				"element": "C" 
			},
			{
				"x": 1.1636476917,
				"y": 3.1640428113,
				"z": -3.1962989798,
				"element": "C" 
			},
			{
				"x": 1.7844852497,
				"y": 2.9816748122,
				"z": -1.5577242489,
				"element": "S" 
			},
			{
				"x": 1.5038489308,
				"y": 4.1163769282,
				"z": -4.1575548433,
				"element": "C" 
			},
			{
				"x": 0.8688273409,
				"y": 4.0558816508,
				"z": -5.3970696814,
				"element": "C" 
			},
			{
				"x": -0.0867124706,
				"y": 3.0638669636,
				"z": -5.670401675,
				"element": "C" 
			},
			{
				"x": -0.4261622684,
				"y": 2.1142458835,
				"z": -4.7123877803,
				"element": "C" 
			},
			{
				"x": -2.4418913224,
				"y": -2.2446504603,
				"z": 4.1701610955,
				"element": "H" 
			},
			{
				"x": -2.0012987067,
				"y": -3.2605380144,
				"z": 5.5555427289,
				"element": "H" 
			},
			{
				"x": -1.5026995689,
				"y": -1.5578837995,
				"z": 5.5163918865,
				"element": "H" 
			},
			{
				"x": 0.4200131805,
				"y": -3.0887128193,
				"z": 4.9246168611,
				"element": "H" 
			},
			{
				"x": -0.5310765916,
				"y": -3.7237026884,
				"z": 3.5562035,
				"element": "H" 
			},
			{
				"x": -1.0772488844,
				"y": -0.4101799812,
				"z": -1.6346140485,
				"element": "H" 
			},
			{
				"x": -1.443889341,
				"y": -1.5891237344,
				"z": -0.334222127,
				"element": "H" 
			},
			{
				"x": 1.7695518888,
				"y": 0.517375153,
				"z": 2.7556559618,
				"element": "H" 
			},
			{
				"x": 2.2420154398,
				"y": 4.8843316252,
				"z": -3.9492970915,
				"element": "H" 
			},
			{
				"x": 1.1184455412,
				"y": 4.7871364315,
				"z": -6.1597583778,
				"element": "H" 
			},
			{
				"x": -0.5672120624,
				"y": 3.0381112171,
				"z": -6.6437103046,
				"element": "H" 
			},
			{
				"x": -1.1630114597,
				"y": 1.3432370258,
				"z": -4.9125452638,
				"element": "H" 
			}
		],
		 "valence_orbital": [ 
			{
				"type": "occ",
				"energy": -0.28996,
				"method": "rhf"
			},
			{
				"type": "occ",
				"energy": -0.27184,
				"method": "rhf"
			},
			{
				"type": "occ",
				"energy": -0.24131,
				"method": "rhf"
			},
			{
				"type": "occ",
				"energy": -0.23047,
				"method": "rhf"
			},
			{
				"type": "occ",
				"energy": -0.21636,
				"method": "rhf"
			},
			{
				"type": "unocc",
				"energy": -0.04681,
				"method": "rhf"
			},
			{
				"type": "unocc",
				"energy": -0.0114,
				"method": "rhf"
			},
			{
				"type": "unocc",
				"energy": -0.00799,
				"method": "rhf"
			},
			{
				"type": "unocc",
				"energy": 0.00655,
				"method": "rhf"
			},
			{
				"type": "unocc",
				"energy": 0.01488,
				"method": "rhf"
			}
		],
		"cosmo_sigma_profile": { 
			"-0.025": 0.0,
			"-0.024": 0.0,
			"-0.023": 0.0,
			"-0.022": 0.0,
			"-0.021": 0.0,
			"-0.02": 0.0,
			"-0.019": 0.0,
			"-0.018": 0.0,
			"-0.017": 0.0,
			"-0.016": 0.0,
			"-0.015": 0.0,
			"-0.014": 0.0,
			"-0.013": 0.0,
			"-0.012": 0.279352559451,
			"-0.011": 1.27562187847,
			"-0.01": 1.54665242784,
			"-0.009": 2.42947323452,
			"-0.008": 3.83994359527,
			"-0.007": 6.27385863057,
			"-0.006": 11.813433171,
			"-0.005": 14.8700606186,
			"-0.004": 20.5008111561,
			"-0.003": 23.3783333271,
			"-0.002": 26.3088090946,
			"-0.001": 26.1567416883,
			"0.0": 33.8465932677,
			"0.001": 30.0749351576,
			"0.002": 25.5452264807,
			"0.003": 24.4848644224,
			"0.004": 20.2106023257,
			"0.005": 10.56706792,
			"0.006": 5.97419115177,
			"0.007": 3.93893636357,
			"0.008": 3.16069582111,
			"0.009": 3.62383489368,
			"0.01": 2.68668469929,
			"0.011": 3.522168872,
			"0.012": 2.1346513203,
			"0.013": 0.411832465488,
			"0.014": 0.0,
			"0.015": 0.0,
			"0.016": 0.0,
			"0.017": 0.0,
			"0.018": 0.0,
			"0.019": 0.0,
			"0.02": 0.0,
			"0.021": 0.0,
			"0.022": 0.0,
			"0.023": 0.0,
			"0.024": 0.0,
			"0.025": 0.0
		}
	}
}
