{
	 "smiles": "COC1=CC=C(C=C1)C1=NOC(CCl)=N1", 
	 "Tm": 325.65, 
	 "num_atms": 24, 
	 "gaussian": { 
		 "optdone": 1, 
		 "sigma_profile": "yes", 
		 "theory": "DFT", 
		 "functional": "B3LYP", 
		 "basiset": "6-31G**", 
		 "properties": { 
			 "R2extent": 6071.811, 
			 "electric_dipole_moment_norm": 2.83907633923, 
			 "electric_quadrupole_moment_norm": 15.9367038233, 
			 "total_energy": -1106.58421163, 
			 "HOMO_LUMO_gap": 0.16785, 
			 "cosmo_polarized_energy": -11.11, 
			 "cosmo_cavitation_energy": 31.12, 
			 "cosmo_dispersion_energy": -23.14, 
			 "cosmo_repulsion_energy": 1.82, 
			 "cosmo_total_nonelectrostatic_energy": 9.8, 
			 "SMD_solvation_energy": 4.2 
		},
		"coords": [
			{
				"x": -0.1669351254,
				"y": -3.4529313256,
				"z": 4.1506663282,
				"element": "C" 
			},
			{
				"x": -1.1683649955,
				"y": -2.5592662887,
				"z": 3.6850412318,
				"element": "O" 
			},
			{
				"x": -0.9648961375,
				"y": -1.9133208696,
				"z": 2.5053699602,
				"element": "C" 
			},
			{
				"x": 0.1739912602,
				"y": -2.0654028707,
				"z": 1.7003814679,
				"element": "C" 
			},
			{
				"x": 0.27599573,
				"y": -1.3518977489,
				"z": 0.508845521,
				"element": "C" 
			},
			{
				"x": -0.7437751308,
				"y": -0.4823019472,
				"z": 0.1004470489,
				"element": "C" 
			},
			{
				"x": -1.8803698065,
				"y": -0.3370526867,
				"z": 0.9149848413,
				"element": "C" 
			},
			{
				"x": -1.990871963,
				"y": -1.0432227686,
				"z": 2.1025179745,
				"element": "C" 
			},
			{
				"x": -0.6383485553,
				"y": 0.2692617422,
				"z": -1.1518496598,
				"element": "C" 
			},
			{
				"x": 0.3995996288,
				"y": 0.1846445942,
				"z": -1.9601565505,
				"element": "N" 
			},
			{
				"x": 0.0715692428,
				"y": 1.054156714,
				"z": -3.0108948873,
				"element": "O" 
			},
			{
				"x": -1.1307530342,
				"y": 1.5698405417,
				"z": -2.7141209368,
				"element": "C" 
			},
			{
				"x": -1.7413213565,
				"y": 2.5378089662,
				"z": -3.6625709608,
				"element": "C" 
			},
			{
				"x": -1.0342201293,
				"y": 4.2014976881,
				"z": -3.4764133949,
				"element": "Cl" 
			},
			{
				"x": -1.6251231539,
				"y": 1.1339583003,
				"z": -1.5959958708,
				"element": "N" 
			},
			{
				"x": -0.5356546714,
				"y": -3.8492109109,
				"z": 5.0977097829,
				"element": "H" 
			},
			{
				"x": -0.0078225373,
				"y": -4.281863659,
				"z": 3.4496248073,
				"element": "H" 
			},
			{
				"x": 0.7864977759,
				"y": -2.9374957588,
				"z": 4.3213796863,
				"element": "H" 
			},
			{
				"x": 0.9782783965,
				"y": -2.7303354881,
				"z": 1.9908244961,
				"element": "H" 
			},
			{
				"x": 1.1570101223,
				"y": -1.4691421354,
				"z": -0.1137066517,
				"element": "H" 
			},
			{
				"x": -2.6713078646,
				"y": 0.3362710126,
				"z": 0.6031657917,
				"element": "H" 
			},
			{
				"x": -2.8621121294,
				"y": -0.9401895912,
				"z": 2.7406195547,
				"element": "H" 
			},
			{
				"x": -2.8078083276,
				"y": 2.6144064645,
				"z": -3.4604609709,
				"element": "H" 
			},
			{
				"x": -1.5655572384,
				"y": 2.2375880255,
				"z": -4.6954086094,
				"element": "H" 
			}
		],
		 "valence_orbital": [ 
			{
				"type": "occ",
				"energy": -0.31142,
				"method": "rhf"
			},
			{
				"type": "occ",
				"energy": -0.30083,
				"method": "rhf"
			},
			{
				"type": "occ",
				"energy": -0.29324,
				"method": "rhf"
			},
			{
				"type": "occ",
				"energy": -0.26084,
				"method": "rhf"
			},
			{
				"type": "occ",
				"energy": -0.22304,
				"method": "rhf"
			},
			{
				"type": "unocc",
				"energy": -0.05519,
				"method": "rhf"
			},
			{
				"type": "unocc",
				"energy": -0.02643,
				"method": "rhf"
			},
			{
				"type": "unocc",
				"energy": -0.00829,
				"method": "rhf"
			},
			{
				"type": "unocc",
				"energy": 0.03872,
				"method": "rhf"
			},
			{
				"type": "unocc",
				"energy": 0.07158,
				"method": "rhf"
			}
		],
		"cosmo_sigma_profile": { 
			"-0.025": 0.0,
			"-0.024": 0.0,
			"-0.023": 0.0,
			"-0.022": 0.0,
			"-0.021": 0.0,
			"-0.02": 0.0,
			"-0.019": 0.0,
			"-0.018": 0.0,
			"-0.017": 0.0,
			"-0.016": 0.0,
			"-0.015": 0.0,
			"-0.014": 0.0,
			"-0.013": 0.0,
			"-0.012": 0.0,
			"-0.011": 0.387385403915,
			"-0.01": 4.14066587355,
			"-0.009": 3.55495723366,
			"-0.008": 4.10853585098,
			"-0.007": 7.30617018946,
			"-0.006": 15.6390005408,
			"-0.005": 18.068610216,
			"-0.004": 17.8626398942,
			"-0.003": 15.3073655796,
			"-0.002": 12.8550225013,
			"-0.001": 12.533204619,
			"0.0": 16.7708378356,
			"0.001": 18.7206497436,
			"0.002": 18.0514179738,
			"0.003": 23.1146126017,
			"0.004": 21.9426691783,
			"0.005": 16.1047426787,
			"0.006": 7.3033280128,
			"0.007": 4.0578491534,
			"0.008": 4.06377744351,
			"0.009": 4.07310821602,
			"0.01": 3.09114055666,
			"0.011": 1.90842658915,
			"0.012": 0.908407570681,
			"0.013": 0.0452134085167,
			"0.014": 0.0,
			"0.015": 0.0,
			"0.016": 0.0,
			"0.017": 0.0,
			"0.018": 0.0,
			"0.019": 0.0,
			"0.02": 0.0,
			"0.021": 0.0,
			"0.022": 0.0,
			"0.023": 0.0,
			"0.024": 0.0,
			"0.025": 0.0
		}
	}
}
