{
	 "smiles": "CC(C)C(=O)NC1=C(C=C2C=CC=CC2=C1)C(O)=O", 
	 "Tm": 477.15, 
	 "num_atms": 34, 
	 "gaussian": { 
		 "optdone": 1, 
		 "sigma_profile": "yes", 
		 "theory": "DFT", 
		 "functional": "B3LYP", 
		 "basiset": "6-31G**", 
		 "properties": { 
			 "R2extent": 6755.4082, 
			 "electric_dipole_moment_norm": 3.15427004709, 
			 "electric_quadrupole_moment_norm": 6.38000577508, 
			 "total_energy": -861.112411317, 
			 "HOMO_LUMO_gap": 0.15061, 
			 "cosmo_polarized_energy": -15.41, 
			 "cosmo_cavitation_energy": 37.46, 
			 "cosmo_dispersion_energy": -26.28, 
			 "cosmo_repulsion_energy": 2.02, 
			 "cosmo_total_nonelectrostatic_energy": 13.19, 
			 "SMD_solvation_energy": 7.81 
		},
		"coords": [
			{
				"x": 1.5370564701,
				"y": -2.9805059171,
				"z": -1.3237290022,
				"element": "C" 
			},
			{
				"x": 1.2388069337,
				"y": -1.508651844,
				"z": -0.9847307104,
				"element": "C" 
			},
			{
				"x": 1.4486397975,
				"y": -0.6100217459,
				"z": -2.2168275928,
				"element": "C" 
			},
			{
				"x": 2.1876249763,
				"y": -1.0717370785,
				"z": 0.1329504134,
				"element": "C" 
			},
			{
				"x": 3.3974575739,
				"y": -1.2236302454,
				"z": 0.0236786636,
				"element": "O" 
			},
			{
				"x": 1.6920703928,
				"y": -0.5554389067,
				"z": 1.3246373058,
				"element": "N" 
			},
			{
				"x": 0.3955609106,
				"y": -0.2014077846,
				"z": 1.7313882227,
				"element": "C" 
			},
			{
				"x": -0.0571295429,
				"y": -0.4807878597,
				"z": 3.0731697194,
				"element": "C" 
			},
			{
				"x": -1.354927664,
				"y": -0.1579255587,
				"z": 3.4335656875,
				"element": "C" 
			},
			{
				"x": -2.2602901005,
				"y": 0.4578429112,
				"z": 2.5427534716,
				"element": "C" 
			},
			{
				"x": -3.5916244593,
				"y": 0.7876081267,
				"z": 2.9159308145,
				"element": "C" 
			},
			{
				"x": -4.4340284049,
				"y": 1.4082048974,
				"z": 2.0224500101,
				"element": "C" 
			},
			{
				"x": -3.9768319192,
				"y": 1.7285444445,
				"z": 0.718676017,
				"element": "C" 
			},
			{
				"x": -2.6930054058,
				"y": 1.4206387587,
				"z": 0.3277397569,
				"element": "C" 
			},
			{
				"x": -1.8007252146,
				"y": 0.7724684019,
				"z": 1.224577726,
				"element": "C" 
			},
			{
				"x": -0.4709697005,
				"y": 0.444574124,
				"z": 0.864632971,
				"element": "C" 
			},
			{
				"x": 0.7538722639,
				"y": -1.0970386854,
				"z": 4.1616206143,
				"element": "C" 
			},
			{
				"x": 2.0959209177,
				"y": -1.1075333491,
				"z": 3.9324952419,
				"element": "O" 
			},
			{
				"x": 0.2967527121,
				"y": -1.5314312179,
				"z": 5.1995552734,
				"element": "O" 
			},
			{
				"x": 1.350125835,
				"y": -3.6340315307,
				"z": -0.4654975596,
				"element": "H" 
			},
			{
				"x": 0.8992135159,
				"y": -3.3142920073,
				"z": -2.1484286075,
				"element": "H" 
			},
			{
				"x": 2.583496477,
				"y": -3.0958500465,
				"z": -1.6162150554,
				"element": "H" 
			},
			{
				"x": 0.200728485,
				"y": -1.4319448569,
				"z": -0.6517107184,
				"element": "H" 
			},
			{
				"x": 1.2027755158,
				"y": 0.4379734584,
				"z": -2.0119921709,
				"element": "H" 
			},
			{
				"x": 2.4954607067,
				"y": -0.6503668902,
				"z": -2.5313522244,
				"element": "H" 
			},
			{
				"x": 0.820965632,
				"y": -0.9475010101,
				"z": -3.0476096927,
				"element": "H" 
			},
			{
				"x": 2.4028948964,
				"y": -0.5504303844,
				"z": 2.0466439659,
				"element": "H" 
			},
			{
				"x": -1.6700753456,
				"y": -0.393018523,
				"z": 4.4451655726,
				"element": "H" 
			},
			{
				"x": -3.9302125684,
				"y": 0.5414065202,
				"z": 3.9187357574,
				"element": "H" 
			},
			{
				"x": -5.45046765,
				"y": 1.6574379464,
				"z": 2.311433539,
				"element": "H" 
			},
			{
				"x": -4.6499776569,
				"y": 2.2217219597,
				"z": 0.0233238334,
				"element": "H" 
			},
			{
				"x": -2.3475448503,
				"y": 1.6669301097,
				"z": -0.6726773271,
				"element": "H" 
			},
			{
				"x": -0.1182015183,
				"y": 0.7308966149,
				"z": -0.1196089525,
				"element": "H" 
			},
			{
				"x": 2.4982879889,
				"y": -1.5221028311,
				"z": 4.7139550362,
				"element": "H" 
			}
		],
		 "valence_orbital": [ 
			{
				"type": "occ",
				"energy": -0.28952,
				"method": "rhf"
			},
			{
				"type": "occ",
				"energy": -0.2831,
				"method": "rhf"
			},
			{
				"type": "occ",
				"energy": -0.25037,
				"method": "rhf"
			},
			{
				"type": "occ",
				"energy": -0.24682,
				"method": "rhf"
			},
			{
				"type": "occ",
				"energy": -0.21875,
				"method": "rhf"
			},
			{
				"type": "unocc",
				"energy": -0.06814,
				"method": "rhf"
			},
			{
				"type": "unocc",
				"energy": -0.04074,
				"method": "rhf"
			},
			{
				"type": "unocc",
				"energy": 0.01058,
				"method": "rhf"
			},
			{
				"type": "unocc",
				"energy": 0.02262,
				"method": "rhf"
			},
			{
				"type": "unocc",
				"energy": 0.0338,
				"method": "rhf"
			}
		],
		"cosmo_sigma_profile": { 
			"-0.025": 0.0,
			"-0.024": 0.0,
			"-0.023": 0.0,
			"-0.022": 0.0,
			"-0.021": 0.0,
			"-0.02": 0.0,
			"-0.019": 0.214194633388,
			"-0.018": 0.929401927248,
			"-0.017": 1.28954520857,
			"-0.016": 0.367357444794,
			"-0.015": 0.515023229728,
			"-0.014": 0.668420827919,
			"-0.013": 1.22442333399,
			"-0.012": 0.775868639378,
			"-0.011": 0.640816238509,
			"-0.01": 0.660634246812,
			"-0.009": 0.532264765862,
			"-0.008": 0.846040152974,
			"-0.007": 7.23241215972,
			"-0.006": 14.8035822321,
			"-0.005": 14.5864504556,
			"-0.004": 17.6209809809,
			"-0.003": 27.9823799258,
			"-0.002": 27.2883006871,
			"-0.001": 27.5303474797,
			"0.0": 27.4520368266,
			"0.001": 27.8802799438,
			"0.002": 24.8039250247,
			"0.003": 19.1025606712,
			"0.004": 14.2381005138,
			"0.005": 5.40739002737,
			"0.006": 2.46322619211,
			"0.007": 2.58231508388,
			"0.008": 3.39488451343,
			"0.009": 2.77779492566,
			"0.01": 3.91794565645,
			"0.011": 5.97304864174,
			"0.012": 4.43537434668,
			"0.013": 4.41132074622,
			"0.014": 3.07233536905,
			"0.015": 0.0179217222491,
			"0.016": 0.0,
			"0.017": 0.0,
			"0.018": 0.0,
			"0.019": 0.0,
			"0.02": 0.0,
			"0.021": 0.0,
			"0.022": 0.0,
			"0.023": 0.0,
			"0.024": 0.0,
			"0.025": 0.0
		}
	}
}
