{
	 "smiles": "ClCC(=O)NCCC1=C2C=CC=CC2=CC=C1", 
	 "Tm": 378.15, 
	 "num_atms": 31, 
	 "gaussian": { 
		 "optdone": 1, 
		 "sigma_profile": "yes", 
		 "theory": "DFT", 
		 "functional": "B3LYP", 
		 "basiset": "6-31G**", 
		 "properties": { 
			 "R2extent": 5920.0644, 
			 "electric_dipole_moment_norm": 2.27295673738, 
			 "electric_quadrupole_moment_norm": 10.5482988733, 
			 "total_energy": -1132.13154031, 
			 "HOMO_LUMO_gap": 0.17375, 
			 "cosmo_polarized_energy": -11.9, 
			 "cosmo_cavitation_energy": 35.97, 
			 "cosmo_dispersion_energy": -25.2, 
			 "cosmo_repulsion_energy": 1.96, 
			 "cosmo_total_nonelectrostatic_energy": 12.73, 
			 "SMD_solvation_energy": 5.46 
		},
		"coords": [
			{
				"x": 0.7324798956,
				"y": -3.4051797542,
				"z": -3.4154823539,
				"element": "Cl" 
			},
			{
				"x": -0.7064380105,
				"y": -4.2419961033,
				"z": -2.6847215579,
				"element": "C" 
			},
			{
				"x": -1.3134642419,
				"y": -3.6133721962,
				"z": -1.4271163023,
				"element": "C" 
			},
			{
				"x": -2.3138553388,
				"y": -4.155316533,
				"z": -0.9702542656,
				"element": "O" 
			},
			{
				"x": -0.7056210781,
				"y": -2.525367744,
				"z": -0.9005782939,
				"element": "N" 
			},
			{
				"x": -1.2168122644,
				"y": -1.8457509028,
				"z": 0.2804424082,
				"element": "C" 
			},
			{
				"x": -1.6544221283,
				"y": -0.3943150903,
				"z": -0.013933781,
				"element": "C" 
			},
			{
				"x": -0.5236068634,
				"y": 0.5000763513,
				"z": -0.4801074877,
				"element": "C" 
			},
			{
				"x": 0.4135245489,
				"y": 1.0722589122,
				"z": 0.4463366115,
				"element": "C" 
			},
			{
				"x": 0.3237085104,
				"y": 0.8874485262,
				"z": 1.8550019166,
				"element": "C" 
			},
			{
				"x": 1.241394439,
				"y": 1.4542531053,
				"z": 2.7125806359,
				"element": "C" 
			},
			{
				"x": 2.30387937,
				"y": 2.2401962721,
				"z": 2.2091184749,
				"element": "C" 
			},
			{
				"x": 2.4210607489,
				"y": 2.4450786929,
				"z": 0.8535002789,
				"element": "C" 
			},
			{
				"x": 1.4920319701,
				"y": 1.8755405157,
				"z": -0.0584708007,
				"element": "C" 
			},
			{
				"x": 1.6114591384,
				"y": 2.0882100678,
				"z": -1.4583801712,
				"element": "C" 
			},
			{
				"x": 0.7022514204,
				"y": 1.5354438527,
				"z": -2.3272571371,
				"element": "C" 
			},
			{
				"x": -0.3615097747,
				"y": 0.7444778994,
				"z": -1.831937539,
				"element": "C" 
			},
			{
				"x": -0.3959311366,
				"y": -5.2591451432,
				"z": -2.4443648546,
				"element": "H" 
			},
			{
				"x": -1.4788789701,
				"y": -4.2822749386,
				"z": -3.4524520482,
				"element": "H" 
			},
			{
				"x": 0.0992031455,
				"y": -2.1402300455,
				"z": -1.3760032624,
				"element": "H" 
			},
			{
				"x": -0.4492348324,
				"y": -1.8565292642,
				"z": 1.063029922,
				"element": "H" 
			},
			{
				"x": -2.0683657655,
				"y": -2.4337066776,
				"z": 0.6292414709,
				"element": "H" 
			},
			{
				"x": -2.433905697,
				"y": -0.4220614606,
				"z": -0.7821981929,
				"element": "H" 
			},
			{
				"x": -2.1235989784,
				"y": 0.0090298489,
				"z": 0.8906146615,
				"element": "H" 
			},
			{
				"x": -0.4847001863,
				"y": 0.2934081217,
				"z": 2.2673095171,
				"element": "H" 
			},
			{
				"x": 1.1476685984,
				"y": 1.2986076536,
				"z": 3.78348182,
				"element": "H" 
			},
			{
				"x": 3.0216023503,
				"y": 2.681907485,
				"z": 2.8941579317,
				"element": "H" 
			},
			{
				"x": 3.2317225896,
				"y": 3.0508245342,
				"z": 0.456471417,
				"element": "H" 
			},
			{
				"x": 2.4327562637,
				"y": 2.6970884562,
				"z": -1.827170103,
				"element": "H" 
			},
			{
				"x": 0.7919413883,
				"y": 1.7013759902,
				"z": -3.3967616429,
				"element": "H" 
			},
			{
				"x": -1.0744391113,
				"y": 0.3205195683,
				"z": -2.534397272,
				"element": "H" 
			}
		],
		 "valence_orbital": [ 
			{
				"type": "occ",
				"energy": -0.2842,
				"method": "rhf"
			},
			{
				"type": "occ",
				"energy": -0.25888,
				"method": "rhf"
			},
			{
				"type": "occ",
				"energy": -0.25737,
				"method": "rhf"
			},
			{
				"type": "occ",
				"energy": -0.24781,
				"method": "rhf"
			},
			{
				"type": "occ",
				"energy": -0.21817,
				"method": "rhf"
			},
			{
				"type": "unocc",
				"energy": -0.04442,
				"method": "rhf"
			},
			{
				"type": "unocc",
				"energy": -0.01438,
				"method": "rhf"
			},
			{
				"type": "unocc",
				"energy": 0.01558,
				"method": "rhf"
			},
			{
				"type": "unocc",
				"energy": 0.02143,
				"method": "rhf"
			},
			{
				"type": "unocc",
				"energy": 0.02629,
				"method": "rhf"
			}
		],
		"cosmo_sigma_profile": { 
			"-0.025": 0.0,
			"-0.024": 0.0,
			"-0.023": 0.0,
			"-0.022": 0.0,
			"-0.021": 0.0,
			"-0.02": 0.0,
			"-0.019": 0.0,
			"-0.018": 0.0,
			"-0.017": 0.0,
			"-0.016": 0.0,
			"-0.015": 0.0,
			"-0.014": 0.0,
			"-0.013": 0.0,
			"-0.012": 0.0,
			"-0.011": 0.0,
			"-0.01": 0.0976412331666,
			"-0.009": 3.25476676224,
			"-0.008": 4.28332069364,
			"-0.007": 5.95986501238,
			"-0.006": 13.4051632827,
			"-0.005": 23.7805846075,
			"-0.004": 27.7903375521,
			"-0.003": 27.7086708026,
			"-0.002": 21.7565599814,
			"-0.001": 19.65016741,
			"0.0": 16.778870605,
			"0.001": 16.8358610345,
			"0.002": 16.6903864894,
			"0.003": 16.0419739809,
			"0.004": 25.2053699696,
			"0.005": 24.7051326429,
			"0.006": 7.52619979806,
			"0.007": 1.81597868347,
			"0.008": 1.49123102602,
			"0.009": 0.656473458415,
			"0.01": 1.0938710913,
			"0.011": 1.6543320731,
			"0.012": 2.47222787181,
			"0.013": 4.8379653163,
			"0.014": 2.9035435498,
			"0.015": 0.0585403845654,
			"0.016": 0.0,
			"0.017": 0.0,
			"0.018": 0.0,
			"0.019": 0.0,
			"0.02": 0.0,
			"0.021": 0.0,
			"0.022": 0.0,
			"0.023": 0.0,
			"0.024": 0.0,
			"0.025": 0.0
		}
	}
}
