{
	 "smiles": "CCNC1=C(N)C=C(C=C1)S(=O)(=O)N(C)C", 
	 "Tm": 435.15, 
	 "num_atms": 33, 
	 "gaussian": { 
		 "optdone": 1, 
		 "sigma_profile": "yes", 
		 "theory": "DFT", 
		 "functional": "B3LYP", 
		 "basiset": "6-31G**", 
		 "properties": { 
			 "R2extent": 5073.6498, 
			 "electric_dipole_moment_norm": 6.72019851567, 
			 "electric_quadrupole_moment_norm": 12.8589117028, 
			 "total_energy": -1104.13357783, 
			 "HOMO_LUMO_gap": 0.18397, 
			 "cosmo_polarized_energy": -18.79, 
			 "cosmo_cavitation_energy": 36.03, 
			 "cosmo_dispersion_energy": -25.57, 
			 "cosmo_repulsion_energy": 1.97, 
			 "cosmo_total_nonelectrostatic_energy": 12.44, 
			 "SMD_solvation_energy": 3.75 
		},
		"coords": [
			{
				"x": -0.9024594143,
				"y": -1.741492385,
				"z": -4.9833789758,
				"element": "C" 
			},
			{
				"x": -0.8225702736,
				"y": -0.2170482266,
				"z": -4.8558551106,
				"element": "C" 
			},
			{
				"x": -1.6486482351,
				"y": 0.3573923396,
				"z": -3.7710038172,
				"element": "N" 
			},
			{
				"x": -1.2583749567,
				"y": 0.0798291019,
				"z": -2.436610145,
				"element": "C" 
			},
			{
				"x": -0.1179404167,
				"y": 0.7487245925,
				"z": -1.9157771478,
				"element": "C" 
			},
			{
				"x": 0.5932655319,
				"y": 1.6213845653,
				"z": -2.741202525,
				"element": "N" 
			},
			{
				"x": 0.2682847293,
				"y": 0.5080865227,
				"z": -0.5935735426,
				"element": "C" 
			},
			{
				"x": -0.4851469785,
				"y": -0.348289011,
				"z": 0.2138774726,
				"element": "C" 
			},
			{
				"x": -1.6356693634,
				"y": -0.9732879868,
				"z": -0.2677331674,
				"element": "C" 
			},
			{
				"x": -2.0023972673,
				"y": -0.75444437,
				"z": -1.5960268533,
				"element": "C" 
			},
			{
				"x": 0.0598777627,
				"y": -0.6640027016,
				"z": 1.893182091,
				"element": "S" 
			},
			{
				"x": 0.9028891284,
				"y": 0.4617727546,
				"z": 2.3055441896,
				"element": "O" 
			},
			{
				"x": -1.1104542226,
				"y": -1.0822596312,
				"z": 2.6684620909,
				"element": "O" 
			},
			{
				"x": 1.0847169451,
				"y": -2.0134216721,
				"z": 1.832229608,
				"element": "N" 
			},
			{
				"x": 2.3790554894,
				"y": -1.8062481452,
				"z": 1.1804286769,
				"element": "C" 
			},
			{
				"x": 0.4411452248,
				"y": -3.2925948502,
				"z": 1.5281797894,
				"element": "C" 
			},
			{
				"x": -0.5742882626,
				"y": -2.2319366179,
				"z": -4.0618055948,
				"element": "H" 
			},
			{
				"x": -1.9268197404,
				"y": -2.0696364225,
				"z": -5.1962266477,
				"element": "H" 
			},
			{
				"x": -0.2640392485,
				"y": -2.0936178964,
				"z": -5.8009489389,
				"element": "H" 
			},
			{
				"x": -1.1464004112,
				"y": 0.2556152457,
				"z": -5.7903720818,
				"element": "H" 
			},
			{
				"x": 0.2123726839,
				"y": 0.091164931,
				"z": -4.6837809636,
				"element": "H" 
			},
			{
				"x": -2.6231054383,
				"y": 0.1081305901,
				"z": -3.91225205,
				"element": "H" 
			},
			{
				"x": -0.0043460206,
				"y": 2.0641695998,
				"z": -3.4318985063,
				"element": "H" 
			},
			{
				"x": 1.160341721,
				"y": 2.2939862312,
				"z": -2.241357179,
				"element": "H" 
			},
			{
				"x": 1.1188115784,
				"y": 1.032201016,
				"z": -0.1693114573,
				"element": "H" 
			},
			{
				"x": -2.2336512093,
				"y": -1.5982270802,
				"z": 0.3847166347,
				"element": "H" 
			},
			{
				"x": -2.8903876162,
				"y": -1.2392640338,
				"z": -1.9946116365,
				"element": "H" 
			},
			{
				"x": 3.0434988587,
				"y": -2.6219299995,
				"z": 1.4809094212,
				"element": "H" 
			},
			{
				"x": 2.8087602033,
				"y": -0.8655345866,
				"z": 1.5236173942,
				"element": "H" 
			},
			{
				"x": 2.3086724581,
				"y": -1.8002364703,
				"z": 0.0814051278,
				"element": "H" 
			},
			{
				"x": 1.1243785302,
				"y": -4.0939883239,
				"z": 1.824868131,
				"element": "H" 
			},
			{
				"x": -0.4740230934,
				"y": -3.3834219478,
				"z": 2.1126623691,
				"element": "H" 
			},
			{
				"x": 0.2082513236,
				"y": -3.4102751313,
				"z": 0.4582433439,
				"element": "H" 
			}
		],
		 "valence_orbital": [ 
			{
				"type": "occ",
				"energy": -0.28954,
				"method": "rhf"
			},
			{
				"type": "occ",
				"energy": -0.28235,
				"method": "rhf"
			},
			{
				"type": "occ",
				"energy": -0.25284,
				"method": "rhf"
			},
			{
				"type": "occ",
				"energy": -0.23717,
				"method": "rhf"
			},
			{
				"type": "occ",
				"energy": -0.20744,
				"method": "rhf"
			},
			{
				"type": "unocc",
				"energy": -0.02347,
				"method": "rhf"
			},
			{
				"type": "unocc",
				"energy": -0.0022,
				"method": "rhf"
			},
			{
				"type": "unocc",
				"energy": 0.06867,
				"method": "rhf"
			},
			{
				"type": "unocc",
				"energy": 0.07538,
				"method": "rhf"
			},
			{
				"type": "unocc",
				"energy": 0.08401,
				"method": "rhf"
			}
		],
		"cosmo_sigma_profile": { 
			"-0.025": 0.0,
			"-0.024": 0.0,
			"-0.023": 0.0,
			"-0.022": 0.0,
			"-0.021": 0.0,
			"-0.02": 0.0,
			"-0.019": 0.0,
			"-0.018": 0.0,
			"-0.017": 0.0,
			"-0.016": 0.0,
			"-0.015": 0.0,
			"-0.014": 0.0,
			"-0.013": 0.602724128275,
			"-0.012": 1.68588193696,
			"-0.011": 2.9655342396,
			"-0.01": 4.23878474535,
			"-0.009": 4.6381752218,
			"-0.008": 4.32269941423,
			"-0.007": 4.31294786402,
			"-0.006": 10.4769643956,
			"-0.005": 12.7279306686,
			"-0.004": 20.818465686,
			"-0.003": 29.6818073745,
			"-0.002": 34.867627462,
			"-0.001": 23.7934822249,
			"0.0": 18.0784682564,
			"0.001": 18.4202898377,
			"0.002": 10.2324889377,
			"0.003": 13.5884921988,
			"0.004": 13.2791900039,
			"0.005": 8.21493448522,
			"0.006": 5.67854143152,
			"0.007": 4.84587521561,
			"0.008": 6.14990819034,
			"0.009": 5.59109422157,
			"0.01": 7.07439053686,
			"0.011": 8.8134620871,
			"0.012": 6.90361347498,
			"0.013": 0.799035969425,
			"0.014": 0.0,
			"0.015": 0.0,
			"0.016": 0.0,
			"0.017": 0.0,
			"0.018": 0.0,
			"0.019": 0.0,
			"0.02": 0.0,
			"0.021": 0.0,
			"0.022": 0.0,
			"0.023": 0.0,
			"0.024": 0.0,
			"0.025": 0.0
		}
	}
}
