{
	 "smiles": "NC1=NC(=CS1)C1=CC2=C(O1)C=CC=C2", 
	 "Tm": 517.15, 
	 "num_atms": 23, 
	 "gaussian": { 
		 "optdone": 1, 
		 "sigma_profile": "yes", 
		 "theory": "DFT", 
		 "functional": "B3LYP", 
		 "basiset": "6-31G**", 
		 "properties": { 
			 "R2extent": 5700.1594, 
			 "electric_dipole_moment_norm": 2.19903096158, 
			 "electric_quadrupole_moment_norm": 18.7692007667, 
			 "total_energy": -1006.89372638, 
			 "HOMO_LUMO_gap": 0.15539, 
			 "cosmo_polarized_energy": -14.05, 
			 "cosmo_cavitation_energy": 29.74, 
			 "cosmo_dispersion_energy": -22.85, 
			 "cosmo_repulsion_energy": 1.73, 
			 "cosmo_total_nonelectrostatic_energy": 8.61, 
			 "SMD_solvation_energy": 3.62 
		},
		"coords": [
			{
				"x": 2.3525405634,
				"y": -0.3762176509,
				"z": 4.3296167712,
				"element": "N" 
			},
			{
				"x": 1.0639850809,
				"y": -0.3009097916,
				"z": 3.8530687311,
				"element": "C" 
			},
			{
				"x": 0.7393478467,
				"y": 0.2453658882,
				"z": 2.7204851293,
				"element": "N" 
			},
			{
				"x": -0.6155946605,
				"y": 0.0963153904,
				"z": 2.4705809356,
				"element": "C" 
			},
			{
				"x": -1.3317401526,
				"y": -0.5610309485,
				"z": 3.436961202,
				"element": "C" 
			},
			{
				"x": -0.2770122307,
				"y": -1.0618743117,
				"z": 4.7292720109,
				"element": "S" 
			},
			{
				"x": -1.1829911715,
				"y": 0.633145326,
				"z": 1.2428855126,
				"element": "C" 
			},
			{
				"x": -2.417255679,
				"y": 0.5026000942,
				"z": 0.6680485099,
				"element": "C" 
			},
			{
				"x": -2.3906877223,
				"y": 1.2764600346,
				"z": -0.5419194622,
				"element": "C" 
			},
			{
				"x": -1.0942382516,
				"y": 1.8264972698,
				"z": -0.6018439477,
				"element": "C" 
			},
			{
				"x": -0.3611889196,
				"y": 1.4357660626,
				"z": 0.4824512654,
				"element": "O" 
			},
			{
				"x": -0.6515692537,
				"y": 2.6467254107,
				"z": -1.6323994175,
				"element": "C" 
			},
			{
				"x": -1.5688675951,
				"y": 2.9199299737,
				"z": -2.646712441,
				"element": "C" 
			},
			{
				"x": -2.8718738559,
				"y": 2.3857419184,
				"z": -2.6174822144,
				"element": "C" 
			},
			{
				"x": -3.2960350786,
				"y": 1.565245803,
				"z": -1.576668074,
				"element": "C" 
			},
			{
				"x": 2.4715247101,
				"y": -0.3658748337,
				"z": 5.3325251454,
				"element": "H" 
			},
			{
				"x": 2.98835724,
				"y": 0.2355649807,
				"z": 3.834119088,
				"element": "H" 
			},
			{
				"x": -2.3918807862,
				"y": -0.7608113445,
				"z": 3.478244571,
				"element": "H" 
			},
			{
				"x": -3.2396151184,
				"y": -0.0837418818,
				"z": 1.0521925632,
				"element": "H" 
			},
			{
				"x": 0.3558828606,
				"y": 3.0482368922,
				"z": -1.6389467049,
				"element": "H" 
			},
			{
				"x": -1.2721169294,
				"y": 3.5564003281,
				"z": -3.474880701,
				"element": "H" 
			},
			{
				"x": -3.5576344573,
				"y": 2.6209557858,
				"z": -3.4261913442,
				"element": "H" 
			},
			{
				"x": -4.3029364393,
				"y": 1.1585096043,
				"z": -1.5647071287,
				"element": "H" 
			}
		],
		 "valence_orbital": [ 
			{
				"type": "occ",
				"energy": -0.27901,
				"method": "rhf"
			},
			{
				"type": "occ",
				"energy": -0.27606,
				"method": "rhf"
			},
			{
				"type": "occ",
				"energy": -0.2365,
				"method": "rhf"
			},
			{
				"type": "occ",
				"energy": -0.22936,
				"method": "rhf"
			},
			{
				"type": "occ",
				"energy": -0.19395,
				"method": "rhf"
			},
			{
				"type": "unocc",
				"energy": -0.03856,
				"method": "rhf"
			},
			{
				"type": "unocc",
				"energy": 0.00202,
				"method": "rhf"
			},
			{
				"type": "unocc",
				"energy": 0.00894,
				"method": "rhf"
			},
			{
				"type": "unocc",
				"energy": 0.01904,
				"method": "rhf"
			},
			{
				"type": "unocc",
				"energy": 0.04308,
				"method": "rhf"
			}
		],
		"cosmo_sigma_profile": { 
			"-0.025": 0.0,
			"-0.024": 0.0,
			"-0.023": 0.0,
			"-0.022": 0.0,
			"-0.021": 0.0,
			"-0.02": 0.0,
			"-0.019": 0.0,
			"-0.018": 0.0,
			"-0.017": 0.0,
			"-0.016": 0.0,
			"-0.015": 0.478575587639,
			"-0.014": 2.20522704734,
			"-0.013": 2.50960005214,
			"-0.012": 3.03366769993,
			"-0.011": 2.80592308729,
			"-0.01": 2.23395814802,
			"-0.009": 3.74089190409,
			"-0.008": 4.83538182284,
			"-0.007": 6.40069760798,
			"-0.006": 10.5905469162,
			"-0.005": 12.1210701063,
			"-0.004": 14.1465028291,
			"-0.003": 12.9191740057,
			"-0.002": 11.3853598803,
			"-0.001": 9.93090791195,
			"0.0": 12.3926339846,
			"0.001": 18.7207748641,
			"0.002": 25.1003432208,
			"0.003": 26.1851441387,
			"0.004": 22.3493773161,
			"0.005": 12.6154309924,
			"0.006": 6.81572552681,
			"0.007": 4.04250777615,
			"0.008": 1.76697896274,
			"0.009": 2.46381478285,
			"0.01": 2.71520001565,
			"0.011": 1.69751941042,
			"0.012": 1.30321034646,
			"0.013": 1.53039761518,
			"0.014": 1.35302096572,
			"0.015": 0.904124082534,
			"0.016": 0.395662689945,
			"0.017": 0.0,
			"0.018": 0.0,
			"0.019": 0.0,
			"0.02": 0.0,
			"0.021": 0.0,
			"0.022": 0.0,
			"0.023": 0.0,
			"0.024": 0.0,
			"0.025": 0.0
		}
	}
}
