{
	 "smiles": "NC1=CC(F)=C(C=C1)N1CCOCC1", 
	 "Tm": 395.15, 
	 "num_atms": 27, 
	 "gaussian": { 
		 "optdone": 1, 
		 "sigma_profile": "yes", 
		 "theory": "DFT", 
		 "functional": "B3LYP", 
		 "basiset": "6-31G**", 
		 "properties": { 
			 "R2extent": 4149.1229, 
			 "electric_dipole_moment_norm": 2.78786684044, 
			 "electric_quadrupole_moment_norm": 13.7926017303, 
			 "total_energy": -673.428427906, 
			 "HOMO_LUMO_gap": 0.17953, 
			 "cosmo_polarized_energy": -11.49, 
			 "cosmo_cavitation_energy": 29.1, 
			 "cosmo_dispersion_energy": -21.77, 
			 "cosmo_repulsion_energy": 1.69, 
			 "cosmo_total_nonelectrostatic_energy": 9.02, 
			 "SMD_solvation_energy": 3.88 
		},
		"coords": [
			{
				"x": -2.9617711326,
				"y": 3.4563628849,
				"z": 2.8591629891,
				"element": "N" 
			},
			{
				"x": -2.0610608825,
				"y": 2.4794058427,
				"z": 2.4099244389,
				"element": "C" 
			},
			{
				"x": -1.935286257,
				"y": 1.255126251,
				"z": 3.0863210001,
				"element": "C" 
			},
			{
				"x": -1.0989804111,
				"y": 0.2714896472,
				"z": 2.5889428237,
				"element": "C" 
			},
			{
				"x": -1.0476379711,
				"y": -0.9091596844,
				"z": 3.2594818035,
				"element": "F" 
			},
			{
				"x": -0.3108711207,
				"y": 0.4273041672,
				"z": 1.4333304366,
				"element": "C" 
			},
			{
				"x": -0.4554178496,
				"y": 1.6602970088,
				"z": 0.7730459975,
				"element": "C" 
			},
			{
				"x": -1.3118049344,
				"y": 2.6578920123,
				"z": 1.2399327091,
				"element": "C" 
			},
			{
				"x": 0.5034191771,
				"y": -0.6128228787,
				"z": 0.9621672801,
				"element": "N" 
			},
			{
				"x": 1.0339388067,
				"y": -0.5245621216,
				"z": -0.3911070197,
				"element": "C" 
			},
			{
				"x": 1.6968359659,
				"y": -1.8475314801,
				"z": -0.7620296585,
				"element": "C" 
			},
			{
				"x": 2.7910613009,
				"y": -2.1811330016,
				"z": 0.0911613026,
				"element": "O" 
			},
			{
				"x": 2.7512984082,
				"y": -1.5457147847,
				"z": 1.3640768224,
				"element": "C" 
			},
			{
				"x": 1.3323934985,
				"y": -1.3857217902,
				"z": 1.9056679981,
				"element": "C" 
			},
			{
				"x": -3.1453792309,
				"y": 3.4287507901,
				"z": 3.8534082043,
				"element": "H" 
			},
			{
				"x": -2.7347377754,
				"y": 4.3957907374,
				"z": 2.560619928,
				"element": "H" 
			},
			{
				"x": -2.5067196182,
				"y": 1.0414098115,
				"z": 3.9843506944,
				"element": "H" 
			},
			{
				"x": 0.119442291,
				"y": 1.8530812755,
				"z": -0.125552262,
				"element": "H" 
			},
			{
				"x": -1.3919882023,
				"y": 3.5905663678,
				"z": 0.6874745689,
				"element": "H" 
			},
			{
				"x": 0.2106656077,
				"y": -0.3297941467,
				"z": -1.0888607711,
				"element": "H" 
			},
			{
				"x": 1.7646328335,
				"y": 0.2950346831,
				"z": -0.5188995889,
				"element": "H" 
			},
			{
				"x": 0.9414990284,
				"y": -2.6470229168,
				"z": -0.7275503367,
				"element": "H" 
			},
			{
				"x": 2.086691551,
				"y": -1.794337965,
				"z": -1.7848332996,
				"element": "H" 
			},
			{
				"x": 3.3393858501,
				"y": -2.1715957897,
				"z": 2.043466143,
				"element": "H" 
			},
			{
				"x": 3.2395741916,
				"y": -0.5591755175,
				"z": 1.3155617145,
				"element": "H" 
			},
			{
				"x": 1.3826128044,
				"y": -0.8698923388,
				"z": 2.8687603343,
				"element": "H" 
			},
			{
				"x": 0.893604071,
				"y": -2.3749470638,
				"z": 2.0901757475,
				"element": "H" 
			}
		],
		 "valence_orbital": [ 
			{
				"type": "occ",
				"energy": -0.29957,
				"method": "rhf"
			},
			{
				"type": "occ",
				"energy": -0.24892,
				"method": "rhf"
			},
			{
				"type": "occ",
				"energy": -0.23993,
				"method": "rhf"
			},
			{
				"type": "occ",
				"energy": -0.239,
				"method": "rhf"
			},
			{
				"type": "occ",
				"energy": -0.17335,
				"method": "rhf"
			},
			{
				"type": "unocc",
				"energy": 0.00618,
				"method": "rhf"
			},
			{
				"type": "unocc",
				"energy": 0.02691,
				"method": "rhf"
			},
			{
				"type": "unocc",
				"energy": 0.0807,
				"method": "rhf"
			},
			{
				"type": "unocc",
				"energy": 0.087,
				"method": "rhf"
			},
			{
				"type": "unocc",
				"energy": 0.09456,
				"method": "rhf"
			}
		],
		"cosmo_sigma_profile": { 
			"-0.025": 0.0,
			"-0.024": 0.0,
			"-0.023": 0.0,
			"-0.022": 0.0,
			"-0.021": 0.0,
			"-0.02": 0.0,
			"-0.019": 0.0,
			"-0.018": 0.0,
			"-0.017": 0.0,
			"-0.016": 0.0,
			"-0.015": 0.0,
			"-0.014": 0.0,
			"-0.013": 0.0428288086649,
			"-0.012": 1.89784324859,
			"-0.011": 2.49910905337,
			"-0.01": 2.97715886291,
			"-0.009": 2.9425434195,
			"-0.008": 3.12729767438,
			"-0.007": 4.30363635023,
			"-0.006": 5.08679840172,
			"-0.005": 15.578492037,
			"-0.004": 23.7983664723,
			"-0.003": 28.9828016227,
			"-0.002": 18.4228713006,
			"-0.001": 12.5186434806,
			"0.0": 9.97222915438,
			"0.001": 8.80124853132,
			"0.002": 10.6342388917,
			"0.003": 11.8978277263,
			"0.004": 13.7862510779,
			"0.005": 17.3933407122,
			"0.006": 11.179685737,
			"0.007": 6.29364041994,
			"0.008": 3.1582362067,
			"0.009": 2.1493975908,
			"0.01": 1.78447583204,
			"0.011": 2.32110591144,
			"0.012": 1.867673811,
			"0.013": 2.66288994183,
			"0.014": 1.67849954392,
			"0.015": 0.486182179828,
			"0.016": 0.207558407079,
			"0.017": 0.0,
			"0.018": 0.0,
			"0.019": 0.0,
			"0.02": 0.0,
			"0.021": 0.0,
			"0.022": 0.0,
			"0.023": 0.0,
			"0.024": 0.0,
			"0.025": 0.0
		}
	}
}
