{
	 "smiles": "FC(F)(F)C1=CC=C(C=C1)C(F)(F)F", 
	 "Tm": 272.15, 
	 "num_atms": 18, 
	 "gaussian": { 
		 "optdone": 1, 
		 "sigma_profile": "yes", 
		 "theory": "DFT", 
		 "functional": "B3LYP", 
		 "basiset": "6-31G**", 
		 "properties": { 
			 "R2extent": 3717.5468, 
			 "electric_dipole_moment_norm": 0.0, 
			 "electric_quadrupole_moment_norm": 12.7162393313, 
			 "total_energy": -906.317791778, 
			 "HOMO_LUMO_gap": 0.23155, 
			 "cosmo_polarized_energy": -3.97, 
			 "cosmo_cavitation_energy": 25.51, 
			 "cosmo_dispersion_energy": -17.73, 
			 "cosmo_repulsion_energy": 1.27, 
			 "cosmo_total_nonelectrostatic_energy": 9.05, 
			 "SMD_solvation_energy": 6.74 
		},
		"coords": [
			{
				"x": 1.8690244273,
				"y": 1.2413276776,
				"z": 2.6824019298,
				"element": "F" 
			},
			{
				"x": 1.1304044112,
				"y": 0.1268501023,
				"z": 2.4923189699,
				"element": "C" 
			},
			{
				"x": -0.0584134644,
				"y": 0.33101496,
				"z": 3.1033975346,
				"element": "F" 
			},
			{
				"x": 1.7412886072,
				"y": -0.8856097059,
				"z": 3.1445950914,
				"element": "F" 
			},
			{
				"x": 0.949687647,
				"y": -0.1804795922,
				"z": 1.0281816305,
				"element": "C" 
			},
			{
				"x": 0.910185547,
				"y": 0.8622265433,
				"z": 0.0989314471,
				"element": "C" 
			},
			{
				"x": 0.690171988,
				"y": 0.5828987217,
				"z": -1.2475258024,
				"element": "C" 
			},
			{
				"x": 0.5065025686,
				"y": -0.7385325258,
				"z": -1.6627372844,
				"element": "C" 
			},
			{
				"x": 0.5460091812,
				"y": -1.7812375668,
				"z": -0.7334884371,
				"element": "C" 
			},
			{
				"x": 0.7660178524,
				"y": -1.5019094196,
				"z": 0.6129711345,
				"element": "C" 
			},
			{
				"x": 0.3257828718,
				"y": -1.0458614664,
				"z": -3.126873255,
				"element": "C" 
			},
			{
				"x": -0.2850807156,
				"y": -0.0333876383,
				"z": -3.7791539305,
				"element": "F" 
			},
			{
				"x": -0.4128574351,
				"y": -2.1603235647,
				"z": -3.3169577909,
				"element": "F" 
			},
			{
				"x": 1.5145969103,
				"y": -1.2500497064,
				"z": -3.7379498893,
				"element": "F" 
			},
			{
				"x": 1.0576428701,
				"y": 1.8849147944,
				"z": 0.4276364646,
				"element": "H" 
			},
			{
				"x": 0.6542168256,
				"y": 1.3874833939,
				"z": -1.9735050433,
				"element": "H" 
			},
			{
				"x": 0.3985514474,
				"y": -2.8039275826,
				"z": -1.0621902861,
				"element": "H" 
			},
			{
				"x": 0.80196846,
				"y": -2.3064974243,
				"z": 1.3389475167,
				"element": "H" 
			}
		],
		 "valence_orbital": [ 
			{
				"type": "occ",
				"energy": -0.39065,
				"method": "rhf"
			},
			{
				"type": "occ",
				"energy": -0.37747,
				"method": "rhf"
			},
			{
				"type": "occ",
				"energy": -0.36793,
				"method": "rhf"
			},
			{
				"type": "occ",
				"energy": -0.28743,
				"method": "rhf"
			},
			{
				"type": "occ",
				"energy": -0.28404,
				"method": "rhf"
			},
			{
				"type": "unocc",
				"energy": -0.05249,
				"method": "rhf"
			},
			{
				"type": "unocc",
				"energy": -0.03356,
				"method": "rhf"
			},
			{
				"type": "unocc",
				"energy": 0.08522,
				"method": "rhf"
			},
			{
				"type": "unocc",
				"energy": 0.09425,
				"method": "rhf"
			},
			{
				"type": "unocc",
				"energy": 0.12357,
				"method": "rhf"
			}
		],
		"cosmo_sigma_profile": { 
			"-0.025": 0.0,
			"-0.024": 0.0,
			"-0.023": 0.0,
			"-0.022": 0.0,
			"-0.021": 0.0,
			"-0.02": 0.0,
			"-0.019": 0.0,
			"-0.018": 0.0,
			"-0.017": 0.0,
			"-0.016": 0.0,
			"-0.015": 0.0,
			"-0.014": 0.0,
			"-0.013": 0.0,
			"-0.012": 0.0,
			"-0.011": 0.0,
			"-0.01": 0.0,
			"-0.009": 3.66067384715e-05,
			"-0.008": 3.67939082201,
			"-0.007": 7.05854114052,
			"-0.006": 8.97234148936,
			"-0.005": 7.34522921997,
			"-0.004": 7.30841680806,
			"-0.003": 8.23096937425,
			"-0.002": 10.1298388962,
			"-0.001": 14.3274161611,
			"0.0": 19.0508405312,
			"0.001": 28.4471709777,
			"0.002": 46.9414873715,
			"0.003": 43.4565698091,
			"0.004": 0.704706229321,
			"0.005": 0.0,
			"0.006": 0.0,
			"0.007": 0.0,
			"0.008": 0.0,
			"0.009": 0.0,
			"0.01": 0.0,
			"0.011": 0.0,
			"0.012": 0.0,
			"0.013": 0.0,
			"0.014": 0.0,
			"0.015": 0.0,
			"0.016": 0.0,
			"0.017": 0.0,
			"0.018": 0.0,
			"0.019": 0.0,
			"0.02": 0.0,
			"0.021": 0.0,
			"0.022": 0.0,
			"0.023": 0.0,
			"0.024": 0.0,
			"0.025": 0.0
		}
	}
}
