{
	 "smiles": "COC1=C(OC)C=C(C=C1)C1=NC(CC(O)=O)=CS1", 
	 "Tm": 436.15, 
	 "num_atms": 32, 
	 "gaussian": { 
		 "optdone": 1, 
		 "sigma_profile": "yes", 
		 "theory": "DFT", 
		 "functional": "B3LYP", 
		 "basiset": "6-31G**", 
		 "properties": { 
			 "R2extent": 7590.2867, 
			 "electric_dipole_moment_norm": 2.10447763115, 
			 "electric_quadrupole_moment_norm": 21.7756191108, 
			 "total_energy": -1257.03333734, 
			 "HOMO_LUMO_gap": 0.16278, 
			 "cosmo_polarized_energy": -15.78, 
			 "cosmo_cavitation_energy": 38.78, 
			 "cosmo_dispersion_energy": -27.76, 
			 "cosmo_repulsion_energy": 2.14, 
			 "cosmo_total_nonelectrostatic_energy": 13.16, 
			 "SMD_solvation_energy": 7.92 
		},
		"coords": [
			{
				"x": 0.0267182596,
				"y": 5.3754201132,
				"z": 0.9708973208,
				"element": "C" 
			},
			{
				"x": 1.116335124,
				"y": 4.5366792711,
				"z": 1.3801040922,
				"element": "O" 
			},
			{
				"x": 0.9398927428,
				"y": 3.1932368299,
				"z": 1.1559934866,
				"element": "C" 
			},
			{
				"x": 0.8786198785,
				"y": 2.6556660132,
				"z": -0.1468573928,
				"element": "C" 
			},
			{
				"x": 0.9411211809,
				"y": 3.4680467648,
				"z": -1.2572945742,
				"element": "O" 
			},
			{
				"x": 2.232007267,
				"y": 4.0383667705,
				"z": -1.5069489944,
				"element": "C" 
			},
			{
				"x": 0.7150170086,
				"y": 1.2864762879,
				"z": -0.3247189354,
				"element": "C" 
			},
			{
				"x": 0.6261516103,
				"y": 0.4205212562,
				"z": 0.7791766143,
				"element": "C" 
			},
			{
				"x": 0.717892084,
				"y": 0.9602280755,
				"z": 2.0713448833,
				"element": "C" 
			},
			{
				"x": 0.8681885559,
				"y": 2.3319711457,
				"z": 2.2528329888,
				"element": "C" 
			},
			{
				"x": 0.4535888122,
				"y": -1.016868409,
				"z": 0.5378612519,
				"element": "C" 
			},
			{
				"x": 0.3717979721,
				"y": -1.5564028583,
				"z": -0.649800349,
				"element": "N" 
			},
			{
				"x": 0.210830969,
				"y": -2.9207803705,
				"z": -0.5905548974,
				"element": "C" 
			},
			{
				"x": 0.1096744147,
				"y": -3.6936230984,
				"z": -1.877043128,
				"element": "C" 
			},
			{
				"x": -1.0903830419,
				"y": -3.320793644,
				"z": -2.73546552,
				"element": "C" 
			},
			{
				"x": -2.2357908676,
				"y": -3.2769217213,
				"z": -2.0158534049,
				"element": "O" 
			},
			{
				"x": -1.0555275961,
				"y": -3.12094185,
				"z": -3.9278366493,
				"element": "O" 
			},
			{
				"x": 0.1702013488,
				"y": -3.4499344852,
				"z": 0.6694152572,
				"element": "C" 
			},
			{
				"x": 0.3384500388,
				"y": -2.1965574422,
				"z": 1.8523996545,
				"element": "S" 
			},
			{
				"x": -0.8810347596,
				"y": 5.1291271823,
				"z": 1.535505704,
				"element": "H" 
			},
			{
				"x": 0.3286959123,
				"y": 6.3986228942,
				"z": 1.2023881861,
				"element": "H" 
			},
			{
				"x": -0.1717435402,
				"y": 5.278294638,
				"z": -0.1001288959,
				"element": "H" 
			},
			{
				"x": 2.562323306,
				"y": 4.6605767164,
				"z": -0.668940145,
				"element": "H" 
			},
			{
				"x": 2.9734740251,
				"y": 3.2514345524,
				"z": -1.6923163657,
				"element": "H" 
			},
			{
				"x": 2.1263959503,
				"y": 4.652430733,
				"z": -2.4034627199,
				"element": "H" 
			},
			{
				"x": 0.6589941568,
				"y": 0.886460389,
				"z": -1.3305133396,
				"element": "H" 
			},
			{
				"x": 0.6604034044,
				"y": 0.3148382061,
				"z": 2.9430135651,
				"element": "H" 
			},
			{
				"x": 0.9291679074,
				"y": 2.7626402216,
				"z": 3.2470100517,
				"element": "H" 
			},
			{
				"x": 0.9954605117,
				"y": -3.533221184,
				"z": -2.4965022025,
				"element": "H" 
			},
			{
				"x": 0.0384510425,
				"y": -4.7653068268,
				"z": -1.6596402468,
				"element": "H" 
			},
			{
				"x": -2.9377377683,
				"y": -3.0398699679,
				"z": -2.6450034559,
				"element": "H" 
			},
			{
				"x": 0.04746409,
				"y": -4.4829162035,
				"z": 0.9619381607,
				"element": "H" 
			}
		],
		 "valence_orbital": [ 
			{
				"type": "occ",
				"energy": -0.27495,
				"method": "rhf"
			},
			{
				"type": "occ",
				"energy": -0.26825,
				"method": "rhf"
			},
			{
				"type": "occ",
				"energy": -0.25968,
				"method": "rhf"
			},
			{
				"type": "occ",
				"energy": -0.24602,
				"method": "rhf"
			},
			{
				"type": "occ",
				"energy": -0.21549,
				"method": "rhf"
			},
			{
				"type": "unocc",
				"energy": -0.05271,
				"method": "rhf"
			},
			{
				"type": "unocc",
				"energy": -0.00597,
				"method": "rhf"
			},
			{
				"type": "unocc",
				"energy": 0.00799,
				"method": "rhf"
			},
			{
				"type": "unocc",
				"energy": 0.01884,
				"method": "rhf"
			},
			{
				"type": "unocc",
				"energy": 0.02353,
				"method": "rhf"
			}
		],
		"cosmo_sigma_profile": { 
			"-0.025": 0.0,
			"-0.024": 0.0,
			"-0.023": 0.0,
			"-0.022": 0.0,
			"-0.021": 0.0,
			"-0.02": 0.0,
			"-0.019": 0.0534120556419,
			"-0.018": 0.790939153863,
			"-0.017": 1.08024410721,
			"-0.016": 0.50858912684,
			"-0.015": 0.681081204919,
			"-0.014": 1.31473122039,
			"-0.013": 0.607184173587,
			"-0.012": 0.734415898713,
			"-0.011": 0.362147676247,
			"-0.01": 1.12863075986,
			"-0.009": 2.98187399737,
			"-0.008": 5.76566573238,
			"-0.007": 7.08465612593,
			"-0.006": 13.0469416488,
			"-0.005": 18.1097751725,
			"-0.004": 20.6625872613,
			"-0.003": 29.2125462748,
			"-0.002": 24.9860100668,
			"-0.001": 20.7458244902,
			"0.0": 21.7253647123,
			"0.001": 21.1048952811,
			"0.002": 27.7309034321,
			"0.003": 25.3182933151,
			"0.004": 12.8886054383,
			"0.005": 8.86838757936,
			"0.006": 7.8598672142,
			"0.007": 6.15871821514,
			"0.008": 6.6516946155,
			"0.009": 5.73148234297,
			"0.01": 5.96061666183,
			"0.011": 6.27422169784,
			"0.012": 4.59686052784,
			"0.013": 0.483906964176,
			"0.014": 0.0,
			"0.015": 0.0,
			"0.016": 0.0,
			"0.017": 0.0,
			"0.018": 0.0,
			"0.019": 0.0,
			"0.02": 0.0,
			"0.021": 0.0,
			"0.022": 0.0,
			"0.023": 0.0,
			"0.024": 0.0,
			"0.025": 0.0
		}
	}
}
