{
	 "smiles": "CC1CC1C(=O)NN", 
	 "Tm": 359.15, 
	 "num_atms": 18, 
	 "gaussian": { 
		 "optdone": 1, 
		 "sigma_profile": "yes", 
		 "theory": "DFT", 
		 "functional": "B3LYP", 
		 "basiset": "6-31G**", 
		 "properties": { 
			 "R2extent": 1264.4231, 
			 "electric_dipole_moment_norm": 3.49817173964, 
			 "electric_quadrupole_moment_norm": 5.48069172185, 
			 "total_energy": -381.241354255, 
			 "HOMO_LUMO_gap": 0.26448, 
			 "cosmo_polarized_energy": -13.14, 
			 "cosmo_cavitation_energy": 21.3, 
			 "cosmo_dispersion_energy": -15.44, 
			 "cosmo_repulsion_energy": 1.33, 
			 "cosmo_total_nonelectrostatic_energy": 7.18, 
			 "SMD_solvation_energy": 4.7 
		},
		"coords": [
			{
				"x": 2.0481098142,
				"y": 0.9348574705,
				"z": 0.0979706198,
				"element": "C" 
			},
			{
				"x": 0.5696545184,
				"y": 1.2132591049,
				"z": 0.2564373285,
				"element": "C" 
			},
			{
				"x": -0.2736810796,
				"y": 1.6151497823,
				"z": -0.9081770456,
				"element": "C" 
			},
			{
				"x": -0.4537379851,
				"y": 0.2302802054,
				"z": -0.3006719706,
				"element": "C" 
			},
			{
				"x": -1.6893115184,
				"y": 0.0125088687,
				"z": 0.5111611143,
				"element": "C" 
			},
			{
				"x": -2.2094356416,
				"y": 0.908477517,
				"z": 1.1707520917,
				"element": "O" 
			},
			{
				"x": -2.2398893791,
				"y": -1.2479285638,
				"z": 0.506853413,
				"element": "N" 
			},
			{
				"x": -1.8078921749,
				"y": -2.3920972722,
				"z": -0.177908761,
				"element": "N" 
			},
			{
				"x": 2.4131099486,
				"y": 0.2522599171,
				"z": 0.8735606561,
				"element": "H" 
			},
			{
				"x": 2.6285353661,
				"y": 1.8615961098,
				"z": 0.169671857,
				"element": "H" 
			},
			{
				"x": 2.2667303534,
				"y": 0.4835531052,
				"z": -0.8763254412,
				"element": "H" 
			},
			{
				"x": 0.26786064,
				"y": 1.6476599143,
				"z": 1.2065327649,
				"element": "H" 
			},
			{
				"x": -1.0834972486,
				"y": 2.3148695636,
				"z": -0.7302161528,
				"element": "H" 
			},
			{
				"x": 0.1861225795,
				"y": 1.6639765814,
				"z": -1.8914326766,
				"element": "H" 
			},
			{
				"x": -0.065151768,
				"y": -0.610021053,
				"z": -0.8665243125,
				"element": "H" 
			},
			{
				"x": -3.0751387397,
				"y": -1.3606607543,
				"z": 1.0657032802,
				"element": "H" 
			},
			{
				"x": -1.8078625113,
				"y": -2.231389978,
				"z": -1.181842269,
				"element": "H" 
			},
			{
				"x": -0.8701251738,
				"y": -2.6529505189,
				"z": 0.1153555039,
				"element": "H" 
			}
		],
		 "valence_orbital": [ 
			{
				"type": "occ",
				"energy": -0.29652,
				"method": "rhf"
			},
			{
				"type": "occ",
				"energy": -0.28753,
				"method": "rhf"
			},
			{
				"type": "occ",
				"energy": -0.2819,
				"method": "rhf"
			},
			{
				"type": "occ",
				"energy": -0.25148,
				"method": "rhf"
			},
			{
				"type": "occ",
				"energy": -0.24156,
				"method": "rhf"
			},
			{
				"type": "unocc",
				"energy": 0.02292,
				"method": "rhf"
			},
			{
				"type": "unocc",
				"energy": 0.06517,
				"method": "rhf"
			},
			{
				"type": "unocc",
				"energy": 0.10343,
				"method": "rhf"
			},
			{
				"type": "unocc",
				"energy": 0.1093,
				"method": "rhf"
			},
			{
				"type": "unocc",
				"energy": 0.12101,
				"method": "rhf"
			}
		],
		"cosmo_sigma_profile": { 
			"-0.025": 0.0,
			"-0.024": 0.0,
			"-0.023": 0.0,
			"-0.022": 0.0,
			"-0.021": 0.0,
			"-0.02": 0.0,
			"-0.019": 0.0,
			"-0.018": 0.0,
			"-0.017": 0.0,
			"-0.016": 0.0,
			"-0.015": 0.0,
			"-0.014": 0.0189006552161,
			"-0.013": 0.721123302632,
			"-0.012": 2.30411786197,
			"-0.011": 3.61694144072,
			"-0.01": 4.97191258851,
			"-0.009": 3.84981392246,
			"-0.008": 3.33300280116,
			"-0.007": 3.48286070269,
			"-0.006": 3.77523058347,
			"-0.005": 5.7051907562,
			"-0.004": 10.4938950409,
			"-0.003": 13.1604078076,
			"-0.002": 12.0088734567,
			"-0.001": 16.2160827461,
			"0.0": 16.0913277204,
			"0.001": 15.9611639623,
			"0.002": 8.97690779523,
			"0.003": 8.38338776525,
			"0.004": 4.21548634696,
			"0.005": 2.16460551006,
			"0.006": 2.35115904461,
			"0.007": 2.5501091632,
			"0.008": 2.27840994209,
			"0.009": 1.42021350388,
			"0.01": 1.10216420125,
			"0.011": 2.60049391431,
			"0.012": 2.47713220755,
			"0.013": 2.51290863917,
			"0.014": 5.57466550003,
			"0.015": 3.11845275432,
			"0.016": 0.503300650276,
			"0.017": 0.00660498691637,
			"0.018": 0.0,
			"0.019": 0.0,
			"0.02": 0.0,
			"0.021": 0.0,
			"0.022": 0.0,
			"0.023": 0.0,
			"0.024": 0.0,
			"0.025": 0.0
		}
	}
}
