{
	 "smiles": "NC1=C(Cl)C=CC(=C1)C(=O)NC1=CC=CC=C1", 
	 "Tm": 473.15, 
	 "num_atms": 28, 
	 "gaussian": { 
		 "optdone": 1, 
		 "sigma_profile": "yes", 
		 "theory": "DFT", 
		 "functional": "B3LYP", 
		 "basiset": "6-31G**", 
		 "properties": { 
			 "R2extent": 7245.4037, 
			 "electric_dipole_moment_norm": 3.78850818529, 
			 "electric_quadrupole_moment_norm": 8.31904923895, 
			 "total_energy": -1146.95881653, 
			 "HOMO_LUMO_gap": 0.17268, 
			 "cosmo_polarized_energy": -16.69, 
			 "cosmo_cavitation_energy": 34.23, 
			 "cosmo_dispersion_energy": -25.42, 
			 "cosmo_repulsion_energy": 1.95, 
			 "cosmo_total_nonelectrostatic_energy": 10.76, 
			 "SMD_solvation_energy": 5.8 
		},
		"coords": [
			{
				"x": -1.0783683977,
				"y": -3.7938511858,
				"z": 1.1529858337,
				"element": "N" 
			},
			{
				"x": -0.9833875894,
				"y": -2.5339442396,
				"z": 1.7208042312,
				"element": "C" 
			},
			{
				"x": -1.1949282616,
				"y": -2.3178926831,
				"z": 3.097062159,
				"element": "C" 
			},
			{
				"x": -1.5288094012,
				"y": -3.7004760222,
				"z": 4.1363790464,
				"element": "Cl" 
			},
			{
				"x": -1.1251584123,
				"y": -1.0460452378,
				"z": 3.6595969219,
				"element": "C" 
			},
			{
				"x": -0.8485620742,
				"y": 0.057043531,
				"z": 2.8590958881,
				"element": "C" 
			},
			{
				"x": -0.6577186286,
				"y": -0.1179699582,
				"z": 1.4827834859,
				"element": "C" 
			},
			{
				"x": -0.715045472,
				"y": -1.4010845126,
				"z": 0.9310635696,
				"element": "C" 
			},
			{
				"x": -0.3603316481,
				"y": 1.1112480944,
				"z": 0.6669420557,
				"element": "C" 
			},
			{
				"x": 0.175540872,
				"y": 2.0936990991,
				"z": 1.1676985517,
				"element": "O" 
			},
			{
				"x": -0.7541030575,
				"y": 1.0367363412,
				"z": -0.6525058834,
				"element": "N" 
			},
			{
				"x": -0.6081740073,
				"y": 1.9965446363,
				"z": -1.6765948266,
				"element": "C" 
			},
			{
				"x": -1.1902329021,
				"y": 1.6993543075,
				"z": -2.9199914291,
				"element": "C" 
			},
			{
				"x": -1.0792085314,
				"y": 2.5907041793,
				"z": -3.9831113043,
				"element": "C" 
			},
			{
				"x": -0.3847783159,
				"y": 3.7916333135,
				"z": -3.8242575086,
				"element": "C" 
			},
			{
				"x": 0.1928545829,
				"y": 4.084409694,
				"z": -2.5882187897,
				"element": "C" 
			},
			{
				"x": 0.0902587424,
				"y": 3.2030731551,
				"z": -1.5114714542,
				"element": "C" 
			},
			{
				"x": -0.9739260844,
				"y": -4.5724244699,
				"z": 1.7882559602,
				"element": "H" 
			},
			{
				"x": -0.5890804524,
				"y": -3.9191907098,
				"z": 0.2788803348,
				"element": "H" 
			},
			{
				"x": -1.2845643761,
				"y": -0.9314006361,
				"z": 4.726255084,
				"element": "H" 
			},
			{
				"x": -0.7753794145,
				"y": 1.0528578036,
				"z": 3.2796148392,
				"element": "H" 
			},
			{
				"x": -0.5098377337,
				"y": -1.5575343243,
				"z": -0.1252086643,
				"element": "H" 
			},
			{
				"x": -1.3153888465,
				"y": 0.2346425197,
				"z": -0.898761329,
				"element": "H" 
			},
			{
				"x": -1.7322824165,
				"y": 0.7649088327,
				"z": -3.0509832054,
				"element": "H" 
			},
			{
				"x": -1.5371851598,
				"y": 2.3436535256,
				"z": -4.9365782874,
				"element": "H" 
			},
			{
				"x": -0.2969680578,
				"y": 4.4885914398,
				"z": -4.6520312364,
				"element": "H" 
			},
			{
				"x": 0.734429457,
				"y": 5.0161548967,
				"z": -2.4509183661,
				"element": "H" 
			},
			{
				"x": 0.5303355867,
				"y": 3.4343586097,
				"z": -0.552285677,
				"element": "H" 
			}
		],
		 "valence_orbital": [ 
			{
				"type": "occ",
				"energy": -0.26244,
				"method": "rhf"
			},
			{
				"type": "occ",
				"energy": -0.25483,
				"method": "rhf"
			},
			{
				"type": "occ",
				"energy": -0.25032,
				"method": "rhf"
			},
			{
				"type": "occ",
				"energy": -0.22131,
				"method": "rhf"
			},
			{
				"type": "occ",
				"energy": -0.21841,
				"method": "rhf"
			},
			{
				"type": "unocc",
				"energy": -0.04573,
				"method": "rhf"
			},
			{
				"type": "unocc",
				"energy": -0.00896,
				"method": "rhf"
			},
			{
				"type": "unocc",
				"energy": -0.00088,
				"method": "rhf"
			},
			{
				"type": "unocc",
				"energy": 0.00836,
				"method": "rhf"
			},
			{
				"type": "unocc",
				"energy": 0.02335,
				"method": "rhf"
			}
		],
		"cosmo_sigma_profile": { 
			"-0.025": 0.0,
			"-0.024": 0.0,
			"-0.023": 0.0,
			"-0.022": 0.0,
			"-0.021": 0.0,
			"-0.02": 0.0,
			"-0.019": 0.0,
			"-0.018": 0.0,
			"-0.017": 0.0,
			"-0.016": 0.0,
			"-0.015": 0.19555960509,
			"-0.014": 1.6927432817,
			"-0.013": 2.77139031734,
			"-0.012": 4.01675275847,
			"-0.011": 3.84955681994,
			"-0.01": 4.59220795083,
			"-0.009": 4.46408044741,
			"-0.008": 5.03947525662,
			"-0.007": 4.99025189988,
			"-0.006": 9.38521333437,
			"-0.005": 14.704326666,
			"-0.004": 14.8566259519,
			"-0.003": 15.4719714018,
			"-0.002": 14.6265004364,
			"-0.001": 16.8455410897,
			"0.0": 15.5147448623,
			"0.001": 19.5085882778,
			"0.002": 25.1252645568,
			"0.003": 27.4518005163,
			"0.004": 26.5990134874,
			"0.005": 16.8383816577,
			"0.006": 9.11862410099,
			"0.007": 2.0962110392,
			"0.008": 2.85566604215,
			"0.009": 2.72157861318,
			"0.01": 2.3565833224,
			"0.011": 2.64125196778,
			"0.012": 3.39191782951,
			"0.013": 2.60716940898,
			"0.014": 0.321812375025,
			"0.015": 0.0,
			"0.016": 0.0,
			"0.017": 0.0,
			"0.018": 0.0,
			"0.019": 0.0,
			"0.02": 0.0,
			"0.021": 0.0,
			"0.022": 0.0,
			"0.023": 0.0,
			"0.024": 0.0,
			"0.025": 0.0
		}
	}
}
