{
	 "smiles": "CC1=C(OCC2=NN=C(S)N2)C=CC=C1", 
	 "Tm": 384.15, 
	 "num_atms": 26, 
	 "gaussian": { 
		 "optdone": 1, 
		 "sigma_profile": "yes", 
		 "theory": "DFT", 
		 "functional": "B3LYP", 
		 "basiset": "6-31G**", 
		 "properties": { 
			 "R2extent": 4803.1429, 
			 "electric_dipole_moment_norm": 4.04598289047, 
			 "electric_quadrupole_moment_norm": 8.15529527792, 
			 "total_energy": -1025.32529033, 
			 "HOMO_LUMO_gap": 0.21449, 
			 "cosmo_polarized_energy": -17.74, 
			 "cosmo_cavitation_energy": 31.83, 
			 "cosmo_dispersion_energy": -23.4, 
			 "cosmo_repulsion_energy": 1.81, 
			 "cosmo_total_nonelectrostatic_energy": 10.24, 
			 "SMD_solvation_energy": 2.92 
		},
		"coords": [
			{
				"x": 2.652373869,
				"y": -0.1482411058,
				"z": -2.5269516581,
				"element": "C" 
			},
			{
				"x": 2.716714821,
				"y": 0.7232182434,
				"z": -1.2990179003,
				"element": "C" 
			},
			{
				"x": 1.5522720966,
				"y": 0.9470662295,
				"z": -0.531856321,
				"element": "C" 
			},
			{
				"x": 0.4262910217,
				"y": 0.322938137,
				"z": -1.0075139089,
				"element": "O" 
			},
			{
				"x": -0.7903913121,
				"y": 0.3761644709,
				"z": -0.2620130149,
				"element": "C" 
			},
			{
				"x": -0.8548763204,
				"y": -0.6397234658,
				"z": 0.836803866,
				"element": "C" 
			},
			{
				"x": -1.8331081909,
				"y": -1.4974559386,
				"z": 0.9979996513,
				"element": "N" 
			},
			{
				"x": -1.55687815,
				"y": -2.2555630459,
				"z": 2.1216924993,
				"element": "N" 
			},
			{
				"x": -0.4066125541,
				"y": -1.8331683297,
				"z": 2.5939606599,
				"element": "C" 
			},
			{
				"x": 0.4449966588,
				"y": -2.4581122049,
				"z": 4.0081572139,
				"element": "S" 
			},
			{
				"x": 0.0814785276,
				"y": -0.8064581876,
				"z": 1.8324975441,
				"element": "N" 
			},
			{
				"x": 1.5939988457,
				"y": 1.7567717275,
				"z": 0.6098433767,
				"element": "C" 
			},
			{
				"x": 2.8013945807,
				"y": 2.3509457117,
				"z": 0.9991471585,
				"element": "C" 
			},
			{
				"x": 3.9580759189,
				"y": 2.138809288,
				"z": 0.2579082606,
				"element": "C" 
			},
			{
				"x": 3.9014685461,
				"y": 1.3299420963,
				"z": -0.8823661901,
				"element": "C" 
			},
			{
				"x": 1.9492567534,
				"y": 0.2550643052,
				"z": -3.26383058,
				"element": "H" 
			},
			{
				"x": 2.2998148853,
				"y": -1.155848588,
				"z": -2.2819147587,
				"element": "H" 
			},
			{
				"x": 3.63561657,
				"y": -0.2298720184,
				"z": -2.9970751758,
				"element": "H" 
			},
			{
				"x": -1.5864927755,
				"y": 0.1270056356,
				"z": -0.9650786947,
				"element": "H" 
			},
			{
				"x": -0.9728176902,
				"y": 1.3931464164,
				"z": 0.1070528018,
				"element": "H" 
			},
			{
				"x": -0.4798361814,
				"y": -3.4111850804,
				"z": 4.2304679177,
				"element": "H" 
			},
			{
				"x": 0.962247008,
				"y": -0.3176813483,
				"z": 1.9241424013,
				"element": "H" 
			},
			{
				"x": 0.6990640383,
				"y": 1.9542149151,
				"z": 1.1900418214,
				"element": "H" 
			},
			{
				"x": 2.8210233217,
				"y": 2.9807022733,
				"z": 1.8838410727,
				"element": "H" 
			},
			{
				"x": 4.8963375355,
				"y": 2.594861658,
				"z": 0.5574775526,
				"element": "H" 
			},
			{
				"x": 4.8024881764,
				"y": 1.1615582057,
				"z": -1.4668155954,
				"element": "H" 
			}
		],
		 "valence_orbital": [ 
			{
				"type": "occ",
				"energy": -0.30802,
				"method": "rhf"
			},
			{
				"type": "occ",
				"energy": -0.26251,
				"method": "rhf"
			},
			{
				"type": "occ",
				"energy": -0.25829,
				"method": "rhf"
			},
			{
				"type": "occ",
				"energy": -0.23711,
				"method": "rhf"
			},
			{
				"type": "occ",
				"energy": -0.2292,
				"method": "rhf"
			},
			{
				"type": "unocc",
				"energy": -0.01471,
				"method": "rhf"
			},
			{
				"type": "unocc",
				"energy": -0.00529,
				"method": "rhf"
			},
			{
				"type": "unocc",
				"energy": -0.00082,
				"method": "rhf"
			},
			{
				"type": "unocc",
				"energy": 0.00907,
				"method": "rhf"
			},
			{
				"type": "unocc",
				"energy": 0.03594,
				"method": "rhf"
			}
		],
		"cosmo_sigma_profile": { 
			"-0.025": 0.0,
			"-0.024": 0.0,
			"-0.023": 0.0,
			"-0.022": 0.0,
			"-0.021": 0.0,
			"-0.02": 0.0,
			"-0.019": 0.0,
			"-0.018": 0.093263069093,
			"-0.017": 0.231449502075,
			"-0.016": 0.829627263425,
			"-0.015": 0.756328658572,
			"-0.014": 0.765385226505,
			"-0.013": 0.943695689816,
			"-0.012": 2.9943129593,
			"-0.011": 1.54929635542,
			"-0.01": 2.72529802093,
			"-0.009": 4.72269317981,
			"-0.008": 6.81329322568,
			"-0.007": 7.70648077081,
			"-0.006": 9.21195425858,
			"-0.005": 15.4672814754,
			"-0.004": 16.3944125206,
			"-0.003": 17.0874287016,
			"-0.002": 16.6073332828,
			"-0.001": 17.2614704722,
			"0.0": 19.9628516649,
			"0.001": 19.5657693375,
			"0.002": 17.126119944,
			"0.003": 13.7740587471,
			"0.004": 13.8512425348,
			"0.005": 12.9441077524,
			"0.006": 10.1467128755,
			"0.007": 4.41788443619,
			"0.008": 2.70018628588,
			"0.009": 2.19767710762,
			"0.01": 2.01502332908,
			"0.011": 2.12617543451,
			"0.012": 2.70923721428,
			"0.013": 3.69023537773,
			"0.014": 2.64200537525,
			"0.015": 2.73118668387,
			"0.016": 1.60405483473,
			"0.017": 0.342461090117,
			"0.018": 0.0,
			"0.019": 0.0,
			"0.02": 0.0,
			"0.021": 0.0,
			"0.022": 0.0,
			"0.023": 0.0,
			"0.024": 0.0,
			"0.025": 0.0
		}
	}
}
