{
	 "smiles": "CN(C)C(=O)C1=CNC2=C1C=CC=C2", 
	 "Tm": 508.15, 
	 "num_atms": 26, 
	 "gaussian": { 
		 "optdone": 1, 
		 "sigma_profile": "yes", 
		 "theory": "DFT", 
		 "functional": "B3LYP", 
		 "basiset": "6-31G**", 
		 "properties": { 
			 "R2extent": 3058.1705, 
			 "electric_dipole_moment_norm": 5.05583290962, 
			 "electric_quadrupole_moment_norm": 12.8252357663, 
			 "total_energy": -611.143384221, 
			 "HOMO_LUMO_gap": 0.18958, 
			 "cosmo_polarized_energy": -17.08, 
			 "cosmo_cavitation_energy": 28.96, 
			 "cosmo_dispersion_energy": -21.44, 
			 "cosmo_repulsion_energy": 1.67, 
			 "cosmo_total_nonelectrostatic_energy": 9.18, 
			 "SMD_solvation_energy": 5.13 
		},
		"coords": [
			{
				"x": 1.0963881751,
				"y": 3.7755882057,
				"z": -0.7839190641,
				"element": "C" 
			},
			{
				"x": 0.2803577918,
				"y": 2.6864894777,
				"z": -0.2661709379,
				"element": "N" 
			},
			{
				"x": -0.6775250821,
				"y": 3.0670416968,
				"z": 0.7588645412,
				"element": "C" 
			},
			{
				"x": 0.66234837,
				"y": 1.3912947212,
				"z": -0.5699253132,
				"element": "C" 
			},
			{
				"x": 1.7118529498,
				"y": 1.1656299398,
				"z": -1.1768231827,
				"element": "O" 
			},
			{
				"x": -0.2272201086,
				"y": 0.2645829175,
				"z": -0.1950056774,
				"element": "C" 
			},
			{
				"x": -1.6045043186,
				"y": 0.2166564486,
				"z": -0.1199284476,
				"element": "C" 
			},
			{
				"x": -2.013358159,
				"y": -1.0693957582,
				"z": 0.1412763979,
				"element": "N" 
			},
			{
				"x": -0.9061917975,
				"y": -1.8960062867,
				"z": 0.2383645142,
				"element": "C" 
			},
			{
				"x": 0.2390149014,
				"y": -1.0901573177,
				"z": 0.0150313192,
				"element": "C" 
			},
			{
				"x": 1.5096571285,
				"y": -1.6901279319,
				"z": 0.0399020771,
				"element": "C" 
			},
			{
				"x": 1.5984174816,
				"y": -3.052274372,
				"z": 0.2966907655,
				"element": "C" 
			},
			{
				"x": 0.4461744419,
				"y": -3.8331904031,
				"z": 0.5252425483,
				"element": "C" 
			},
			{
				"x": -0.8232640294,
				"y": -3.268009244,
				"z": 0.4981093098,
				"element": "C" 
			},
			{
				"x": 1.7176789657,
				"y": 3.3948531579,
				"z": -1.5923795926,
				"element": "H" 
			},
			{
				"x": 0.4497093007,
				"y": 4.5797467607,
				"z": -1.1544522899,
				"element": "H" 
			},
			{
				"x": 1.7503656306,
				"y": 4.1914570011,
				"z": -0.0044441318,
				"element": "H" 
			},
			{
				"x": -1.5592886658,
				"y": 3.5665606176,
				"z": 0.3326017695,
				"element": "H" 
			},
			{
				"x": -0.2074513418,
				"y": 3.768170672,
				"z": 1.461029006,
				"element": "H" 
			},
			{
				"x": -1.0037314887,
				"y": 2.1943765158,
				"z": 1.3219943224,
				"element": "H" 
			},
			{
				"x": -2.3347850321,
				"y": 0.9984696271,
				"z": -0.268866573,
				"element": "H" 
			},
			{
				"x": -2.9725494424,
				"y": -1.3669884766,
				"z": 0.2171715618,
				"element": "H" 
			},
			{
				"x": 2.3890158363,
				"y": -1.0886488033,
				"z": -0.1580327804,
				"element": "H" 
			},
			{
				"x": 2.5733375982,
				"y": -3.5306525777,
				"z": 0.3162754424,
				"element": "H" 
			},
			{
				"x": 0.5515925686,
				"y": -4.8962845143,
				"z": 0.7213091465,
				"element": "H" 
			},
			{
				"x": -1.7127416742,
				"y": -3.8678820739,
				"z": 0.6692852689,
				"element": "H" 
			}
		],
		 "valence_orbital": [ 
			{
				"type": "occ",
				"energy": -0.27383,
				"method": "rhf"
			},
			{
				"type": "occ",
				"energy": -0.23983,
				"method": "rhf"
			},
			{
				"type": "occ",
				"energy": -0.22713,
				"method": "rhf"
			},
			{
				"type": "occ",
				"energy": -0.22183,
				"method": "rhf"
			},
			{
				"type": "occ",
				"energy": -0.20597,
				"method": "rhf"
			},
			{
				"type": "unocc",
				"energy": -0.01639,
				"method": "rhf"
			},
			{
				"type": "unocc",
				"energy": 0.01607,
				"method": "rhf"
			},
			{
				"type": "unocc",
				"energy": 0.0302,
				"method": "rhf"
			},
			{
				"type": "unocc",
				"energy": 0.07233,
				"method": "rhf"
			},
			{
				"type": "unocc",
				"energy": 0.09201,
				"method": "rhf"
			}
		],
		"cosmo_sigma_profile": { 
			"-0.025": 0.0,
			"-0.024": 0.0,
			"-0.023": 0.0,
			"-0.022": 0.0,
			"-0.021": 0.0,
			"-0.02": 0.0,
			"-0.019": 0.0,
			"-0.018": 0.0,
			"-0.017": 0.113872356534,
			"-0.016": 1.34904659236,
			"-0.015": 1.74250262733,
			"-0.014": 0.973423351265,
			"-0.013": 1.41132187724,
			"-0.012": 1.19135879706,
			"-0.011": 1.30398602368,
			"-0.01": 1.59818971523,
			"-0.009": 2.43264866668,
			"-0.008": 3.34291893945,
			"-0.007": 3.43308666683,
			"-0.006": 4.89751799651,
			"-0.005": 10.5655373627,
			"-0.004": 22.5420563758,
			"-0.003": 23.8412769711,
			"-0.002": 22.4816661722,
			"-0.001": 18.2313713774,
			"0.0": 12.7067268187,
			"0.001": 11.7243339718,
			"0.002": 11.0653115206,
			"0.003": 13.6359644606,
			"0.004": 13.0655671468,
			"0.005": 10.3683942218,
			"0.006": 12.0625887526,
			"0.007": 6.773075356,
			"0.008": 1.84091574076,
			"0.009": 1.86267805948,
			"0.01": 2.05227544779,
			"0.011": 1.96696021198,
			"0.012": 1.57364525966,
			"0.013": 2.33611188451,
			"0.014": 3.66236641807,
			"0.015": 2.14291069942,
			"0.016": 0.0347929382769,
			"0.017": 0.0,
			"0.018": 0.0,
			"0.019": 0.0,
			"0.02": 0.0,
			"0.021": 0.0,
			"0.022": 0.0,
			"0.023": 0.0,
			"0.024": 0.0,
			"0.025": 0.0
		}
	}
}
