{
	 "smiles": "NC1=CC(=NO1)C1CCOCC1", 
	 "Tm": 433.15, 
	 "num_atms": 24, 
	 "gaussian": { 
		 "optdone": 1, 
		 "sigma_profile": "yes", 
		 "theory": "DFT", 
		 "functional": "B3LYP", 
		 "basiset": "6-31G**", 
		 "properties": { 
			 "R2extent": 2305.0418, 
			 "electric_dipole_moment_norm": 4.33049580764, 
			 "electric_quadrupole_moment_norm": 13.6402467261, 
			 "total_energy": -571.977444374, 
			 "HOMO_LUMO_gap": 0.23087, 
			 "cosmo_polarized_energy": -14.55, 
			 "cosmo_cavitation_energy": 25.94, 
			 "cosmo_dispersion_energy": -19.58, 
			 "cosmo_repulsion_energy": 1.58, 
			 "cosmo_total_nonelectrostatic_energy": 7.94, 
			 "SMD_solvation_energy": 4.33 
		},
		"coords": [
			{
				"x": -1.7695772455,
				"y": -1.415437616,
				"z": -3.6029168851,
				"element": "N" 
			},
			{
				"x": -1.0263695396,
				"y": -0.8874730367,
				"z": -2.5747490435,
				"element": "C" 
			},
			{
				"x": -1.0260495133,
				"y": 0.3242713587,
				"z": -1.935645892,
				"element": "C" 
			},
			{
				"x": 0.0651591852,
				"y": 0.2191312953,
				"z": -1.0224848062,
				"element": "C" 
			},
			{
				"x": 0.666490186,
				"y": -0.9486246381,
				"z": -1.0981950174,
				"element": "N" 
			},
			{
				"x": -0.0404594103,
				"y": -1.6666289806,
				"z": -2.0998532619,
				"element": "O" 
			},
			{
				"x": 0.5586677907,
				"y": 1.2899690863,
				"z": -0.073392786,
				"element": "C" 
			},
			{
				"x": -0.5623079299,
				"y": 1.7787479394,
				"z": 0.8783089476,
				"element": "C" 
			},
			{
				"x": -0.8140853433,
				"y": 0.7693041078,
				"z": 2.0013526176,
				"element": "C" 
			},
			{
				"x": 0.3697691329,
				"y": 0.510034371,
				"z": 2.7409946194,
				"element": "O" 
			},
			{
				"x": 1.3843861406,
				"y": -0.0681515768,
				"z": 1.9216218928,
				"element": "C" 
			},
			{
				"x": 1.7805697268,
				"y": 0.8600325776,
				"z": 0.768514024,
				"element": "C" 
			},
			{
				"x": -2.6985111068,
				"y": -1.0331433664,
				"z": -3.703706935,
				"element": "H" 
			},
			{
				"x": -1.7399350058,
				"y": -2.424315476,
				"z": -3.6658903796,
				"element": "H" 
			},
			{
				"x": -1.6819662031,
				"y": 1.1639220235,
				"z": -2.1039641527,
				"element": "H" 
			},
			{
				"x": 0.8547882081,
				"y": 2.1379773935,
				"z": -0.7060726251,
				"element": "H" 
			},
			{
				"x": -1.4914581114,
				"y": 1.9694024118,
				"z": 0.328735069,
				"element": "H" 
			},
			{
				"x": -0.2480202444,
				"y": 2.7277154468,
				"z": 1.3285458085,
				"element": "H" 
			},
			{
				"x": -1.2171195137,
				"y": -0.1695559963,
				"z": 1.5843841607,
				"element": "H" 
			},
			{
				"x": -1.5449819717,
				"y": 1.1597769345,
				"z": 2.7165565332,
				"element": "H" 
			},
			{
				"x": 1.045815797,
				"y": -1.0362713065,
				"z": 1.5255904589,
				"element": "H" 
			},
			{
				"x": 2.2386067846,
				"y": -0.247574903,
				"z": 2.581524789,
				"element": "H" 
			},
			{
				"x": 2.5272059951,
				"y": 0.3673273652,
				"z": 0.1383810566,
				"element": "H" 
			},
			{
				"x": 2.2382821917,
				"y": 1.7631645851,
				"z": 1.1892618069,
				"element": "H" 
			}
		],
		 "valence_orbital": [ 
			{
				"type": "occ",
				"energy": -0.29579,
				"method": "rhf"
			},
			{
				"type": "occ",
				"energy": -0.28719,
				"method": "rhf"
			},
			{
				"type": "occ",
				"energy": -0.27962,
				"method": "rhf"
			},
			{
				"type": "occ",
				"energy": -0.23604,
				"method": "rhf"
			},
			{
				"type": "occ",
				"energy": -0.21861,
				"method": "rhf"
			},
			{
				"type": "unocc",
				"energy": 0.01226,
				"method": "rhf"
			},
			{
				"type": "unocc",
				"energy": 0.05521,
				"method": "rhf"
			},
			{
				"type": "unocc",
				"energy": 0.07465,
				"method": "rhf"
			},
			{
				"type": "unocc",
				"energy": 0.09345,
				"method": "rhf"
			},
			{
				"type": "unocc",
				"energy": 0.10745,
				"method": "rhf"
			}
		],
		"cosmo_sigma_profile": { 
			"-0.025": 0.0,
			"-0.024": 0.0,
			"-0.023": 0.0,
			"-0.022": 0.0,
			"-0.021": 0.0,
			"-0.02": 0.0,
			"-0.019": 0.0,
			"-0.018": 0.0,
			"-0.017": 0.0,
			"-0.016": 0.0,
			"-0.015": 0.392813493829,
			"-0.014": 2.45778943123,
			"-0.013": 2.9605117573,
			"-0.012": 2.43517019693,
			"-0.011": 2.58464890944,
			"-0.01": 2.23394837156,
			"-0.009": 2.70989407433,
			"-0.008": 1.91718326837,
			"-0.007": 2.92124466658,
			"-0.006": 3.68804348793,
			"-0.005": 6.48344232176,
			"-0.004": 14.0943352621,
			"-0.003": 21.1937333765,
			"-0.002": 25.313672384,
			"-0.001": 21.3839370517,
			"0.0": 13.7700966943,
			"0.001": 8.09446774959,
			"0.002": 8.01048440212,
			"0.003": 9.24329017853,
			"0.004": 8.01317204473,
			"0.005": 5.67636749758,
			"0.006": 4.63137493794,
			"0.007": 5.05320128449,
			"0.008": 4.6538620522,
			"0.009": 7.10168568468,
			"0.01": 3.98319614776,
			"0.011": 2.81882199927,
			"0.012": 3.92878193229,
			"0.013": 2.43100360399,
			"0.014": 2.34901787965,
			"0.015": 0.295144379423,
			"0.016": 0.0,
			"0.017": 0.0,
			"0.018": 0.0,
			"0.019": 0.0,
			"0.02": 0.0,
			"0.021": 0.0,
			"0.022": 0.0,
			"0.023": 0.0,
			"0.024": 0.0,
			"0.025": 0.0
		}
	}
}
