{
	 "smiles": "CC1=C(C)C=C(C=C1)N1C(S)=NN=C1C1=CC=NC=C1", 
	 "Tm": 534.15, 
	 "num_atms": 34, 
	 "gaussian": { 
		 "optdone": 1, 
		 "sigma_profile": "yes", 
		 "theory": "DFT", 
		 "functional": "B3LYP", 
		 "basiset": "6-31G**", 
		 "properties": { 
			 "R2extent": 7279.0539, 
			 "electric_dipole_moment_norm": 6.18465046062, 
			 "electric_quadrupole_moment_norm": 9.90702564799, 
			 "total_energy": -1197.21031066, 
			 "HOMO_LUMO_gap": 0.17715, 
			 "cosmo_polarized_energy": -16.34, 
			 "cosmo_cavitation_energy": 39.8, 
			 "cosmo_dispersion_energy": -27.64, 
			 "cosmo_repulsion_energy": 2.09, 
			 "cosmo_total_nonelectrostatic_energy": 14.25, 
			 "SMD_solvation_energy": 3.12 
		},
		"coords": [
			{
				"x": -3.5783337126,
				"y": -2.0498906828,
				"z": -2.119081215,
				"element": "C" 
			},
			{
				"x": -2.3449167266,
				"y": -2.0248281333,
				"z": -1.2498093112,
				"element": "C" 
			},
			{
				"x": -1.0551432844,
				"y": -1.9697917572,
				"z": -1.8265816813,
				"element": "C" 
			},
			{
				"x": -0.8768742203,
				"y": -1.9371205646,
				"z": -3.325146844,
				"element": "C" 
			},
			{
				"x": 0.0636756456,
				"y": -1.9523178806,
				"z": -0.9903076977,
				"element": "C" 
			},
			{
				"x": -0.0795375946,
				"y": -1.9767278403,
				"z": 0.3992739486,
				"element": "C" 
			},
			{
				"x": -1.3469766138,
				"y": -2.0316976533,
				"z": 0.9771602837,
				"element": "C" 
			},
			{
				"x": -2.4651946191,
				"y": -2.0583246428,
				"z": 0.14386406,
				"element": "C" 
			},
			{
				"x": 1.0883101656,
				"y": -1.9636053548,
				"z": 1.2330651121,
				"element": "N" 
			},
			{
				"x": 1.610480184,
				"y": -3.0449930367,
				"z": 1.9028275476,
				"element": "C" 
			},
			{
				"x": 0.8239528381,
				"y": -4.6251034808,
				"z": 1.9228629327,
				"element": "S" 
			},
			{
				"x": 2.7471899086,
				"y": -2.7401975338,
				"z": 2.4873983393,
				"element": "N" 
			},
			{
				"x": 3.0018748371,
				"y": -1.4225692826,
				"z": 2.2012288766,
				"element": "N" 
			},
			{
				"x": 2.0216413858,
				"y": -0.9552178038,
				"z": 1.4552384838,
				"element": "C" 
			},
			{
				"x": 1.9641422343,
				"y": 0.4312055885,
				"z": 0.9764320191,
				"element": "C" 
			},
			{
				"x": 0.7851589987,
				"y": 1.0908952066,
				"z": 0.6002611707,
				"element": "C" 
			},
			{
				"x": 0.8631445348,
				"y": 2.4212176505,
				"z": 0.1870703449,
				"element": "C" 
			},
			{
				"x": 1.9980873868,
				"y": 3.1263973114,
				"z": 0.1265474269,
				"element": "N" 
			},
			{
				"x": 3.1188705929,
				"y": 2.4912088434,
				"z": 0.5005949286,
				"element": "C" 
			},
			{
				"x": 3.1596595012,
				"y": 1.1670390065,
				"z": 0.9249569497,
				"element": "C" 
			},
			{
				"x": -3.6384533586,
				"y": -1.1619585063,
				"z": -2.7595970846,
				"element": "H" 
			},
			{
				"x": -3.5827656158,
				"y": -2.920133571,
				"z": -2.7861628314,
				"element": "H" 
			},
			{
				"x": -4.4873804921,
				"y": -2.0881970608,
				"z": -1.5140113764,
				"element": "H" 
			},
			{
				"x": -1.369082003,
				"y": -1.0639222604,
				"z": -3.7694515719,
				"element": "H" 
			},
			{
				"x": 0.1805749141,
				"y": -1.8986490655,
				"z": -3.5971215982,
				"element": "H" 
			},
			{
				"x": -1.3140126701,
				"y": -2.8226963593,
				"z": -3.8013289786,
				"element": "H" 
			},
			{
				"x": 1.0611543992,
				"y": -1.9177943941,
				"z": -1.4179634722,
				"element": "H" 
			},
			{
				"x": -1.4530941767,
				"y": -2.0485285178,
				"z": 2.0568798725,
				"element": "H" 
			},
			{
				"x": -3.4554995125,
				"y": -2.1020710731,
				"z": 0.5886166238,
				"element": "H" 
			},
			{
				"x": 1.8266068521,
				"y": -5.1727042941,
				"z": 2.6364429605,
				"element": "H" 
			},
			{
				"x": -0.1780549546,
				"y": 0.5976236389,
				"z": 0.6369972718,
				"element": "H" 
			},
			{
				"x": -0.0439428736,
				"y": 2.946465939,
				"z": -0.1078408995,
				"element": "H" 
			},
			{
				"x": 4.0371929527,
				"y": 3.0737784579,
				"z": 0.4541195645,
				"element": "H" 
			},
			{
				"x": 4.0923450969,
				"y": 0.6995091071,
				"z": 1.2184658447,
				"element": "H" 
			}
		],
		 "valence_orbital": [ 
			{
				"type": "occ",
				"energy": -0.26791,
				"method": "rhf"
			},
			{
				"type": "occ",
				"energy": -0.26179,
				"method": "rhf"
			},
			{
				"type": "occ",
				"energy": -0.25354,
				"method": "rhf"
			},
			{
				"type": "occ",
				"energy": -0.25012,
				"method": "rhf"
			},
			{
				"type": "occ",
				"energy": -0.2266,
				"method": "rhf"
			},
			{
				"type": "unocc",
				"energy": -0.04945,
				"method": "rhf"
			},
			{
				"type": "unocc",
				"energy": -0.03049,
				"method": "rhf"
			},
			{
				"type": "unocc",
				"energy": -0.0266,
				"method": "rhf"
			},
			{
				"type": "unocc",
				"energy": -0.00899,
				"method": "rhf"
			},
			{
				"type": "unocc",
				"energy": 0.01002,
				"method": "rhf"
			}
		],
		"cosmo_sigma_profile": { 
			"-0.025": 0.0,
			"-0.024": 0.0,
			"-0.023": 0.0,
			"-0.022": 0.0,
			"-0.021": 0.0,
			"-0.02": 0.0,
			"-0.019": 0.0,
			"-0.018": 0.0,
			"-0.017": 0.0,
			"-0.016": 0.0,
			"-0.015": 0.0,
			"-0.014": 0.0,
			"-0.013": 0.0886573669114,
			"-0.012": 1.36072986243,
			"-0.011": 1.5821053583,
			"-0.01": 1.23323508183,
			"-0.009": 1.22275714556,
			"-0.008": 1.21511580871,
			"-0.007": 6.26187657928,
			"-0.006": 18.0917546679,
			"-0.005": 22.2302010523,
			"-0.004": 30.8818830486,
			"-0.003": 23.4029184426,
			"-0.002": 24.8952740836,
			"-0.001": 29.345938644,
			"0.0": 29.2141774863,
			"0.001": 29.5532395411,
			"0.002": 29.9332206823,
			"0.003": 16.3574391609,
			"0.004": 9.79856006449,
			"0.005": 7.14079044342,
			"0.006": 4.74879866615,
			"0.007": 4.02131096376,
			"0.008": 3.15682905223,
			"0.009": 3.22013547333,
			"0.01": 2.73961427695,
			"0.011": 3.33249104857,
			"0.012": 4.68345121295,
			"0.013": 3.90718687212,
			"0.014": 2.85830780428,
			"0.015": 2.85585364766,
			"0.016": 1.3735219268,
			"0.017": 0.0437295607379,
			"0.018": 0.0,
			"0.019": 0.0,
			"0.02": 0.0,
			"0.021": 0.0,
			"0.022": 0.0,
			"0.023": 0.0,
			"0.024": 0.0,
			"0.025": 0.0
		}
	}
}
