{
	 "smiles": "[O-][N+](=O)C1=C(C=C(Br)C=C1)C(F)(F)F", 
	 "Tm": 307.15, 
	 "num_atms": 17, 
	 "gaussian": { 
		 "optdone": 1, 
		 "sigma_profile": "yes", 
		 "theory": "DFT", 
		 "functional": "B3LYP", 
		 "basiset": "6-31G**", 
		 "properties": { 
			 "R2extent": 5272.1334, 
			 "electric_dipole_moment_norm": 4.09344383618, 
			 "electric_quadrupole_moment_norm": 3.54639177475, 
			 "total_energy": -3344.56673784, 
			 "HOMO_LUMO_gap": 0.1747, 
			 "cosmo_polarized_energy": -8.32, 
			 "cosmo_cavitation_energy": 26.04, 
			 "cosmo_dispersion_energy": -19.07, 
			 "cosmo_repulsion_energy": 1.44, 
			 "cosmo_total_nonelectrostatic_energy": 8.41, 
			 "SMD_solvation_energy": 6.54 
		},
		"coords": [
			{
				"x": 0.5859643416,
				"y": -1.0006657251,
				"z": 2.088959234,
				"element": "O" 
			},
			{
				"x": -0.190842045,
				"y": -0.3727560142,
				"z": 1.3784326839,
				"element": "N" 
			},
			{
				"x": -1.2906578036,
				"y": 0.053566607,
				"z": 1.726580537,
				"element": "O" 
			},
			{
				"x": 0.2398982452,
				"y": -0.0564355353,
				"z": 0.0021024987,
				"element": "C" 
			},
			{
				"x": 1.0894242884,
				"y": -0.8925338658,
				"z": -0.7422640623,
				"element": "C" 
			},
			{
				"x": 1.4659671796,
				"y": -0.4715602201,
				"z": -2.0193961893,
				"element": "C" 
			},
			{
				"x": 1.0205566021,
				"y": 0.7493200681,
				"z": -2.5254364835,
				"element": "C" 
			},
			{
				"x": 1.5741501928,
				"y": 1.2924237961,
				"z": -4.260135283,
				"element": "Br" 
			},
			{
				"x": 0.1684570538,
				"y": 1.5654836219,
				"z": -1.7857253836,
				"element": "C" 
			},
			{
				"x": -0.2285342699,
				"y": 1.147219836,
				"z": -0.5197851471,
				"element": "C" 
			},
			{
				"x": 1.5921587353,
				"y": -2.252960241,
				"z": -0.276967202,
				"element": "C" 
			},
			{
				"x": 0.607535291,
				"y": -2.9846620039,
				"z": 0.272190172,
				"element": "F" 
			},
			{
				"x": 2.0636985593,
				"y": -2.9591865145,
				"z": -1.3322935925,
				"element": "F" 
			},
			{
				"x": 2.5996887457,
				"y": -2.1505539472,
				"z": 0.6015211388,
				"element": "F" 
			},
			{
				"x": 2.099388686,
				"y": -1.1077189311,
				"z": -2.6223301015,
				"element": "H" 
			},
			{
				"x": -0.1814399975,
				"y": 2.5081715547,
				"z": -2.1892204636,
				"element": "H" 
			},
			{
				"x": -0.9007138048,
				"y": 1.7467475145,
				"z": 0.0814676439,
				"element": "H" 
			}
		],
		 "valence_orbital": [ 
			{
				"type": "occ",
				"energy": -0.32194,
				"method": "rhf"
			},
			{
				"type": "occ",
				"energy": -0.31634,
				"method": "rhf"
			},
			{
				"type": "occ",
				"energy": -0.30826,
				"method": "rhf"
			},
			{
				"type": "occ",
				"energy": -0.30648,
				"method": "rhf"
			},
			{
				"type": "occ",
				"energy": -0.27921,
				"method": "rhf"
			},
			{
				"type": "unocc",
				"energy": -0.10451,
				"method": "rhf"
			},
			{
				"type": "unocc",
				"energy": -0.06023,
				"method": "rhf"
			},
			{
				"type": "unocc",
				"energy": -0.03348,
				"method": "rhf"
			},
			{
				"type": "unocc",
				"energy": -0.02155,
				"method": "rhf"
			},
			{
				"type": "unocc",
				"energy": 0.07576,
				"method": "rhf"
			}
		],
		"cosmo_sigma_profile": { 
			"-0.025": 0.0,
			"-0.024": 0.0,
			"-0.023": 0.0,
			"-0.022": 0.0,
			"-0.021": 0.0,
			"-0.02": 0.0,
			"-0.019": 0.0,
			"-0.018": 0.0,
			"-0.017": 0.0,
			"-0.016": 0.0,
			"-0.015": 0.0,
			"-0.014": 0.0,
			"-0.013": 0.0,
			"-0.012": 0.0,
			"-0.011": 0.0,
			"-0.01": 0.341165543729,
			"-0.009": 3.6176622128,
			"-0.008": 6.30010993657,
			"-0.007": 5.88833094766,
			"-0.006": 8.1110262871,
			"-0.005": 8.80819146176,
			"-0.004": 9.98384648023,
			"-0.003": 13.6094886078,
			"-0.002": 19.9881368022,
			"-0.001": 21.9788872618,
			"0.0": 13.2444350757,
			"0.001": 15.5366086019,
			"0.002": 30.1381428813,
			"0.003": 21.2935268622,
			"0.004": 5.89061085828,
			"0.005": 4.71408634817,
			"0.006": 7.24228186479,
			"0.007": 9.57341722109,
			"0.008": 4.330721367,
			"0.009": 2.86824172774,
			"0.01": 0.263848724295,
			"0.011": 0.0,
			"0.012": 0.0,
			"0.013": 0.0,
			"0.014": 0.0,
			"0.015": 0.0,
			"0.016": 0.0,
			"0.017": 0.0,
			"0.018": 0.0,
			"0.019": 0.0,
			"0.02": 0.0,
			"0.021": 0.0,
			"0.022": 0.0,
			"0.023": 0.0,
			"0.024": 0.0,
			"0.025": 0.0
		}
	}
}
