{
	 "smiles": "CC1CN(C(=O)OC(C)(C)C)C2=C(N1)N(C)N=C2C", 
	 "Tm": 403.15, 
	 "num_atms": 41, 
	 "gaussian": { 
		 "optdone": 1, 
		 "sigma_profile": "yes", 
		 "theory": "DFT", 
		 "functional": "B3LYP", 
		 "basiset": "6-31G**", 
		 "properties": { 
			 "R2extent": 5769.9228, 
			 "electric_dipole_moment_norm": 4.88555914814, 
			 "electric_quadrupole_moment_norm": 20.0101820012, 
			 "total_energy": -878.113999394, 
			 "HOMO_LUMO_gap": 0.22225, 
			 "cosmo_polarized_energy": -16.32, 
			 "cosmo_cavitation_energy": 41.09, 
			 "cosmo_dispersion_energy": -27.89, 
			 "cosmo_repulsion_energy": 2.16, 
			 "cosmo_total_nonelectrostatic_energy": 15.35, 
			 "SMD_solvation_energy": 5.42 
		},
		"coords": [
			{
				"x": -1.6828685402,
				"y": 1.6006677467,
				"z": -1.1524292345,
				"element": "C" 
			},
			{
				"x": -1.5756145565,
				"y": 1.7735812941,
				"z": 0.3686489979,
				"element": "C" 
			},
			{
				"x": -0.1883711818,
				"y": 1.3558429832,
				"z": 0.9077671937,
				"element": "C" 
			},
			{
				"x": 0.0555551082,
				"y": -0.0767819955,
				"z": 0.6968597636,
				"element": "N" 
			},
			{
				"x": 0.9705257133,
				"y": -0.5765825685,
				"z": -0.2039030857,
				"element": "C" 
			},
			{
				"x": 1.0079780559,
				"y": -1.7447177075,
				"z": -0.5577686936,
				"element": "O" 
			},
			{
				"x": 1.830364445,
				"y": 0.3942814054,
				"z": -0.6081509156,
				"element": "O" 
			},
			{
				"x": 2.9352442569,
				"y": 0.0842475133,
				"z": -1.5283967386,
				"element": "C" 
			},
			{
				"x": 3.6234926851,
				"y": 1.442826537,
				"z": -1.6885197125,
				"element": "C" 
			},
			{
				"x": 2.383553571,
				"y": -0.4051352363,
				"z": -2.872023005,
				"element": "C" 
			},
			{
				"x": 3.8859996312,
				"y": -0.9315082036,
				"z": -0.8857141749,
				"element": "C" 
			},
			{
				"x": -1.0088134418,
				"y": -0.8763703329,
				"z": 1.1914326787,
				"element": "C" 
			},
			{
				"x": -2.2620464355,
				"y": -0.3069323504,
				"z": 1.352615529,
				"element": "C" 
			},
			{
				"x": -2.6122640571,
				"y": 1.0223292569,
				"z": 1.1081950688,
				"element": "N" 
			},
			{
				"x": -3.0447961667,
				"y": -1.239944986,
				"z": 1.9494818677,
				"element": "N" 
			},
			{
				"x": -4.439166121,
				"y": -1.1330024204,
				"z": 2.3103341887,
				"element": "C" 
			},
			{
				"x": -2.3596554569,
				"y": -2.4052801173,
				"z": 2.1665807258,
				"element": "N" 
			},
			{
				"x": -1.1157853957,
				"y": -2.1851741134,
				"z": 1.7376274357,
				"element": "C" 
			},
			{
				"x": -0.0767099295,
				"y": -3.2519925074,
				"z": 1.8794618104,
				"element": "C" 
			},
			{
				"x": -1.559104553,
				"y": 0.5521312854,
				"z": -1.4387743252,
				"element": "H" 
			},
			{
				"x": -2.6613520592,
				"y": 1.937578374,
				"z": -1.5125070387,
				"element": "H" 
			},
			{
				"x": -0.9174264735,
				"y": 2.1909458434,
				"z": -1.6672611624,
				"element": "H" 
			},
			{
				"x": -1.7103438284,
				"y": 2.8344194923,
				"z": 0.6172931774,
				"element": "H" 
			},
			{
				"x": -0.14581047,
				"y": 1.563322586,
				"z": 1.983005633,
				"element": "H" 
			},
			{
				"x": 0.5896726536,
				"y": 1.9280788487,
				"z": 0.4088205792,
				"element": "H" 
			},
			{
				"x": 4.4824864685,
				"y": 1.3521903877,
				"z": -2.3599332129,
				"element": "H" 
			},
			{
				"x": 2.9327974752,
				"y": 2.1796310688,
				"z": -2.1096626261,
				"element": "H" 
			},
			{
				"x": 3.9771992013,
				"y": 1.8133470959,
				"z": -0.7219095265,
				"element": "H" 
			},
			{
				"x": 1.8750419131,
				"y": -1.3625618705,
				"z": -2.7595794841,
				"element": "H" 
			},
			{
				"x": 1.6791099285,
				"y": 0.3258280969,
				"z": -3.2821564654,
				"element": "H" 
			},
			{
				"x": 3.2054776089,
				"y": -0.5206945406,
				"z": -3.5861601204,
				"element": "H" 
			},
			{
				"x": 4.2279681859,
				"y": -0.5672956271,
				"z": 0.088293851,
				"element": "H" 
			},
			{
				"x": 4.7644391138,
				"y": -1.0675584008,
				"z": -1.5250232859,
				"element": "H" 
			},
			{
				"x": 3.3941669936,
				"y": -1.8947631814,
				"z": -0.7508680102,
				"element": "H" 
			},
			{
				"x": -3.5363919694,
				"y": 1.1413954198,
				"z": 0.7061503672,
				"element": "H" 
			},
			{
				"x": -4.6320287259,
				"y": -0.1632105942,
				"z": 2.7805093944,
				"element": "H" 
			},
			{
				"x": -4.6528686137,
				"y": -1.9288724125,
				"z": 3.0238765776,
				"element": "H" 
			},
			{
				"x": -5.102388284,
				"y": -1.2496090394,
				"z": 1.4432791311,
				"element": "H" 
			},
			{
				"x": 0.3160143184,
				"y": -3.5481391482,
				"z": 0.9042976167,
				"element": "H" 
			},
			{
				"x": 0.7741853034,
				"y": -2.8965665119,
				"z": 2.4726960416,
				"element": "H" 
			},
			{
				"x": -0.5141663711,
				"y": -4.1165513693,
				"z": 2.3840131891,
				"element": "H" 
			}
		],
		 "valence_orbital": [ 
			{
				"type": "occ",
				"energy": -0.27505,
				"method": "rhf"
			},
			{
				"type": "occ",
				"energy": -0.26676,
				"method": "rhf"
			},
			{
				"type": "occ",
				"energy": -0.2562,
				"method": "rhf"
			},
			{
				"type": "occ",
				"energy": -0.21081,
				"method": "rhf"
			},
			{
				"type": "occ",
				"energy": -0.1817,
				"method": "rhf"
			},
			{
				"type": "unocc",
				"energy": 0.04055,
				"method": "rhf"
			},
			{
				"type": "unocc",
				"energy": 0.05204,
				"method": "rhf"
			},
			{
				"type": "unocc",
				"energy": 0.06449,
				"method": "rhf"
			},
			{
				"type": "unocc",
				"energy": 0.08451,
				"method": "rhf"
			},
			{
				"type": "unocc",
				"energy": 0.09574,
				"method": "rhf"
			}
		],
		"cosmo_sigma_profile": { 
			"-0.025": 0.0,
			"-0.024": 0.0,
			"-0.023": 0.0,
			"-0.022": 0.0,
			"-0.021": 0.0,
			"-0.02": 0.0,
			"-0.019": 0.0,
			"-0.018": 0.0,
			"-0.017": 0.0,
			"-0.016": 0.0,
			"-0.015": 0.0,
			"-0.014": 0.0,
			"-0.013": 0.533287352626,
			"-0.012": 1.43309532105,
			"-0.011": 1.25462299343,
			"-0.01": 1.68763462516,
			"-0.009": 1.82593414259,
			"-0.008": 1.52698118021,
			"-0.007": 1.92617793416,
			"-0.006": 6.32359959168,
			"-0.005": 15.0011826228,
			"-0.004": 30.2702092187,
			"-0.003": 35.9739449033,
			"-0.002": 32.6744541468,
			"-0.001": 32.1846563926,
			"0.0": 40.2398275542,
			"0.001": 34.61749676,
			"0.002": 14.6101736093,
			"0.003": 11.1065912361,
			"0.004": 10.7778579874,
			"0.005": 8.95572927073,
			"0.006": 6.88641655002,
			"0.007": 5.66577721391,
			"0.008": 4.23871898485,
			"0.009": 4.99311474807,
			"0.01": 3.25530529633,
			"0.011": 3.09986849225,
			"0.012": 3.09645807099,
			"0.013": 2.94511478981,
			"0.014": 0.974499482878,
			"0.015": 0.79264235287,
			"0.016": 1.04341167035,
			"0.017": 0.512457484945,
			"0.018": 0.0,
			"0.019": 0.0,
			"0.02": 0.0,
			"0.021": 0.0,
			"0.022": 0.0,
			"0.023": 0.0,
			"0.024": 0.0,
			"0.025": 0.0
		}
	}
}
