{
	 "smiles": "OC(=O)CCCSC1=CC=C(Cl)C=C1", 
	 "Tm": 380.15, 
	 "num_atms": 25, 
	 "gaussian": { 
		 "optdone": 1, 
		 "sigma_profile": "yes", 
		 "theory": "DFT", 
		 "functional": "B3LYP", 
		 "basiset": "6-31G**", 
		 "properties": { 
			 "R2extent": 6529.6425, 
			 "electric_dipole_moment_norm": 4.2766603571, 
			 "electric_quadrupole_moment_norm": 14.7528064513, 
			 "total_energy": -1396.54496803, 
			 "HOMO_LUMO_gap": 0.19761, 
			 "cosmo_polarized_energy": -11.65, 
			 "cosmo_cavitation_energy": 31.93, 
			 "cosmo_dispersion_energy": -23.6, 
			 "cosmo_repulsion_energy": 1.83, 
			 "cosmo_total_nonelectrostatic_energy": 10.15, 
			 "SMD_solvation_energy": 5.54 
		},
		"coords": [
			{
				"x": -0.1579909511,
				"y": 3.5704717666,
				"z": 2.1559478653,
				"element": "O" 
			},
			{
				"x": -0.393704024,
				"y": 2.4217406198,
				"z": 1.4838052078,
				"element": "C" 
			},
			{
				"x": -1.4959387475,
				"y": 2.130971442,
				"z": 1.0653542666,
				"element": "O" 
			},
			{
				"x": 0.8685412943,
				"y": 1.5989958455,
				"z": 1.3295330045,
				"element": "C" 
			},
			{
				"x": 0.6469653354,
				"y": 0.2561014259,
				"z": 0.6240053364,
				"element": "C" 
			},
			{
				"x": -0.1516357872,
				"y": -0.7380638801,
				"z": 1.4756140064,
				"element": "C" 
			},
			{
				"x": -0.4572897083,
				"y": -2.3550496244,
				"z": 0.6726372314,
				"element": "S" 
			},
			{
				"x": -1.702042686,
				"y": -2.0163100434,
				"z": -0.5636793964,
				"element": "C" 
			},
			{
				"x": -2.4125698176,
				"y": -0.8136316549,
				"z": -0.6792286238,
				"element": "C" 
			},
			{
				"x": -3.3901160884,
				"y": -0.6666922828,
				"z": -1.6663794386,
				"element": "C" 
			},
			{
				"x": -3.6644404285,
				"y": -1.7204595544,
				"z": -2.5332226992,
				"element": "C" 
			},
			{
				"x": -4.8979849911,
				"y": -1.5321885763,
				"z": -3.7741879511,
				"element": "Cl" 
			},
			{
				"x": -2.9677478096,
				"y": -2.9249318891,
				"z": -2.4317919945,
				"element": "C" 
			},
			{
				"x": -1.9887119907,
				"y": -3.0654605491,
				"z": -1.4527957991,
				"element": "C" 
			},
			{
				"x": -1.0076577706,
				"y": 4.040881175,
				"z": 2.2028163113,
				"element": "H" 
			},
			{
				"x": 1.5860226674,
				"y": 2.2147850354,
				"z": 0.7731799924,
				"element": "H" 
			},
			{
				"x": 1.3086134145,
				"y": 1.468079654,
				"z": 2.3262868247,
				"element": "H" 
			},
			{
				"x": 1.6197510856,
				"y": -0.1834477095,
				"z": 0.3818871245,
				"element": "H" 
			},
			{
				"x": 0.1318129227,
				"y": 0.4291253653,
				"z": -0.3250154146,
				"element": "H" 
			},
			{
				"x": -1.1028873553,
				"y": -0.3124323996,
				"z": 1.8026458254,
				"element": "H" 
			},
			{
				"x": 0.4092464996,
				"y": -1.0063858973,
				"z": 2.3776235012,
				"element": "H" 
			},
			{
				"x": -2.2179853645,
				"y": 0.0268605967,
				"z": -0.0224913824,
				"element": "H" 
			},
			{
				"x": -3.9343603906,
				"y": 0.2673143403,
				"z": -1.7544295693,
				"element": "H" 
			},
			{
				"x": -3.1847936294,
				"y": -3.7402194562,
				"z": -3.1132103013,
				"element": "H" 
			},
			{
				"x": -1.4417956793,
				"y": -4.0012537493,
				"z": -1.3797039276,
				"element": "H" 
			}
		],
		 "valence_orbital": [ 
			{
				"type": "occ",
				"energy": -0.3059,
				"method": "rhf"
			},
			{
				"type": "occ",
				"energy": -0.29194,
				"method": "rhf"
			},
			{
				"type": "occ",
				"energy": -0.2727,
				"method": "rhf"
			},
			{
				"type": "occ",
				"energy": -0.25848,
				"method": "rhf"
			},
			{
				"type": "occ",
				"energy": -0.20764,
				"method": "rhf"
			},
			{
				"type": "unocc",
				"energy": -0.01003,
				"method": "rhf"
			},
			{
				"type": "unocc",
				"energy": -0.00684,
				"method": "rhf"
			},
			{
				"type": "unocc",
				"energy": -0.00608,
				"method": "rhf"
			},
			{
				"type": "unocc",
				"energy": 0.0303,
				"method": "rhf"
			},
			{
				"type": "unocc",
				"energy": 0.04216,
				"method": "rhf"
			}
		],
		"cosmo_sigma_profile": { 
			"-0.025": 0.0,
			"-0.024": 0.0,
			"-0.023": 0.0,
			"-0.022": 0.0,
			"-0.021": 0.0,
			"-0.02": 0.0,
			"-0.019": 0.0,
			"-0.018": 0.648613153154,
			"-0.017": 1.22266695725,
			"-0.016": 0.533124484566,
			"-0.015": 0.8328150152,
			"-0.014": 0.82001346176,
			"-0.013": 0.629621238648,
			"-0.012": 0.873696831984,
			"-0.011": 0.526890809853,
			"-0.01": 0.867166637461,
			"-0.009": 0.418955092876,
			"-0.008": 1.02526167765,
			"-0.007": 7.24466966112,
			"-0.006": 17.6027439793,
			"-0.005": 14.7296214746,
			"-0.004": 18.4701023049,
			"-0.003": 19.666097394,
			"-0.002": 16.2038881759,
			"-0.001": 14.6902808552,
			"0.0": 15.4333910446,
			"0.001": 15.5698820142,
			"0.002": 18.8965289202,
			"0.003": 22.9419075116,
			"0.004": 26.8854996444,
			"0.005": 15.5030910667,
			"0.006": 4.82508866757,
			"0.007": 5.42654631582,
			"0.008": 5.57205817858,
			"0.009": 4.96678788108,
			"0.01": 1.7235806421,
			"0.011": 1.69541836656,
			"0.012": 1.31293609159,
			"0.013": 0.0344225096167,
			"0.014": 0.0,
			"0.015": 0.0,
			"0.016": 0.0,
			"0.017": 0.0,
			"0.018": 0.0,
			"0.019": 0.0,
			"0.02": 0.0,
			"0.021": 0.0,
			"0.022": 0.0,
			"0.023": 0.0,
			"0.024": 0.0,
			"0.0": 0.0
		}
	}
}
