{
	 "smiles": "COCC(=O)C1=CC=CC=C1", 
	 "Tm": 281.15, 
	 "num_atms": 21, 
	 "gaussian": { 
		 "optdone": 1, 
		 "sigma_profile": "yes", 
		 "theory": "DFT", 
		 "functional": "B3LYP", 
		 "basiset": "6-31G**", 
		 "properties": { 
			 "R2extent": 2470.3529, 
			 "electric_dipole_moment_norm": 3.30941869971, 
			 "electric_quadrupole_moment_norm": 8.53556416237, 
			 "total_energy": -499.408919125, 
			 "HOMO_LUMO_gap": 0.17844, 
			 "cosmo_polarized_energy": -10.38, 
			 "cosmo_cavitation_energy": 24.78, 
			 "cosmo_dispersion_energy": -18.24, 
			 "cosmo_repulsion_energy": 1.46, 
			 "cosmo_total_nonelectrostatic_energy": 7.99, 
			 "SMD_solvation_energy": 5.35 
		},
		"coords": [
			{
				"x": 0.272068088,
				"y": 1.929522525,
				"z": -3.4942712366,
				"element": "C" 
			},
			{
				"x": -0.1490874859,
				"y": 2.4961799268,
				"z": -2.26222864,
				"element": "O" 
			},
			{
				"x": -0.0473899359,
				"y": 1.632895253,
				"z": -1.1663580668,
				"element": "C" 
			},
			{
				"x": -1.1369409558,
				"y": 0.5503476978,
				"z": -1.1159999348,
				"element": "C" 
			},
			{
				"x": -1.9535599268,
				"y": 0.4488145193,
				"z": -2.0167845178,
				"element": "O" 
			},
			{
				"x": -1.1646900715,
				"y": -0.372770909,
				"z": 0.0651919732,
				"element": "C" 
			},
			{
				"x": -0.2397659142,
				"y": -0.294635513,
				"z": 1.1187858099,
				"element": "C" 
			},
			{
				"x": -0.3190613805,
				"y": -1.1815149863,
				"z": 2.1924203407,
				"element": "C" 
			},
			{
				"x": -1.3216497228,
				"y": -2.1526750766,
				"z": 2.2245601297,
				"element": "C" 
			},
			{
				"x": -2.247231705,
				"y": -2.237201545,
				"z": 1.17981119,
				"element": "C" 
			},
			{
				"x": -2.1685083185,
				"y": -1.3534695003,
				"z": 0.1081164038,
				"element": "C" 
			},
			{
				"x": 1.3104511143,
				"y": 1.5662813179,
				"z": -3.4300637843,
				"element": "H" 
			},
			{
				"x": -0.3801620645,
				"y": 1.1089289771,
				"z": -3.8096499748,
				"element": "H" 
			},
			{
				"x": 0.226906139,
				"y": 2.729872629,
				"z": -4.2364257398,
				"element": "H" 
			},
			{
				"x": -0.1309450217,
				"y": 2.2526835794,
				"z": -0.2646994159,
				"element": "H" 
			},
			{
				"x": 0.9407387093,
				"y": 1.1387907435,
				"z": -1.1252649854,
				"element": "H" 
			},
			{
				"x": 0.546418105,
				"y": 0.4534746736,
				"z": 1.1109345559,
				"element": "H" 
			},
			{
				"x": 0.4005581174,
				"y": -1.114383108,
				"z": 3.0029908847,
				"element": "H" 
			},
			{
				"x": -1.3820546143,
				"y": -2.8421778944,
				"z": 3.0618334966,
				"element": "H" 
			},
			{
				"x": -3.0276627656,
				"y": -2.9921827826,
				"z": 1.2045572413,
				"element": "H" 
			},
			{
				"x": -2.8744303901,
				"y": -1.3976805271,
				"z": -0.7145557296,
				"element": "H" 
			}
		],
		 "valence_orbital": [ 
			{
				"type": "occ",
				"energy": -0.31696,
				"method": "rhf"
			},
			{
				"type": "occ",
				"energy": -0.27719,
				"method": "rhf"
			},
			{
				"type": "occ",
				"energy": -0.26473,
				"method": "rhf"
			},
			{
				"type": "occ",
				"energy": -0.26141,
				"method": "rhf"
			},
			{
				"type": "occ",
				"energy": -0.23736,
				"method": "rhf"
			},
			{
				"type": "unocc",
				"energy": -0.05892,
				"method": "rhf"
			},
			{
				"type": "unocc",
				"energy": -0.01321,
				"method": "rhf"
			},
			{
				"type": "unocc",
				"energy": 0.03654,
				"method": "rhf"
			},
			{
				"type": "unocc",
				"energy": 0.08344,
				"method": "rhf"
			},
			{
				"type": "unocc",
				"energy": 0.09597,
				"method": "rhf"
			}
		],
		"cosmo_sigma_profile": { 
			"-0.025": 0.0,
			"-0.024": 0.0,
			"-0.023": 0.0,
			"-0.022": 0.0,
			"-0.021": 0.0,
			"-0.02": 0.0,
			"-0.019": 0.0,
			"-0.018": 0.0,
			"-0.017": 0.0,
			"-0.016": 0.0,
			"-0.015": 0.0,
			"-0.014": 0.0,
			"-0.013": 0.0,
			"-0.012": 0.0,
			"-0.011": 0.0,
			"-0.01": 0.0,
			"-0.009": 0.0,
			"-0.008": 1.54520618048,
			"-0.007": 7.76443808229,
			"-0.006": 15.3116596734,
			"-0.005": 16.7992084689,
			"-0.004": 18.5205543229,
			"-0.003": 16.4689210474,
			"-0.002": 17.2347254671,
			"-0.001": 11.4103618057,
			"0.0": 11.2354556824,
			"0.001": 10.9160715531,
			"0.002": 11.8932794957,
			"0.003": 13.1515981947,
			"0.004": 13.6659039001,
			"0.005": 5.11549384367,
			"0.006": 2.80766176239,
			"0.007": 1.81601310749,
			"0.008": 3.14891837633,
			"0.009": 2.32568841925,
			"0.01": 3.60625503934,
			"0.011": 4.32631899328,
			"0.012": 5.48256130271,
			"0.013": 2.4405740062,
			"0.014": 0.0267310221708,
			"0.015": 0.0,
			"0.016": 0.0,
			"0.017": 0.0,
			"0.018": 0.0,
			"0.019": 0.0,
			"0.02": 0.0,
			"0.021": 0.0,
			"0.022": 0.0,
			"0.023": 0.0,
			"0.024": 0.0,
			"0.025": 0.0
		}
	}
}
