{
	 "smiles": "CCNC(=O)CC#N", 
	 "Tm": 346.65, 
	 "num_atms": 16, 
	 "gaussian": { 
		 "optdone": 1, 
		 "sigma_profile": "yes", 
		 "theory": "DFT", 
		 "functional": "B3LYP", 
		 "basiset": "6-31G**", 
		 "properties": { 
			 "R2extent": 1577.639, 
			 "electric_dipole_moment_norm": 7.33530872288, 
			 "electric_quadrupole_moment_norm": 16.7316278694, 
			 "total_energy": -380.072271801, 
			 "HOMO_LUMO_gap": 0.27343, 
			 "cosmo_polarized_energy": -19.63, 
			 "cosmo_cavitation_energy": 20.93, 
			 "cosmo_dispersion_energy": -14.53, 
			 "cosmo_repulsion_energy": 1.25, 
			 "cosmo_total_nonelectrostatic_energy": 7.65, 
			 "SMD_solvation_energy": 5.56 
		},
		"coords": [
			{
				"x": -0.9444848786,
				"y": 0.868641867,
				"z": 1.4196372246,
				"element": "C" 
			},
			{
				"x": 0.0494985333,
				"y": -0.2593398557,
				"z": 1.7190194574,
				"element": "C" 
			},
			{
				"x": -0.1853411688,
				"y": -1.4727312321,
				"z": 0.9429488912,
				"element": "N" 
			},
			{
				"x": 0.3346495062,
				"y": -1.8348099245,
				"z": -0.2693725496,
				"element": "C" 
			},
			{
				"x": -0.0557122671,
				"y": -2.8131197429,
				"z": -0.8822805845,
				"element": "O" 
			},
			{
				"x": 1.4807563809,
				"y": -0.9432117009,
				"z": -0.7941613612,
				"element": "C" 
			},
			{
				"x": 1.9483728302,
				"y": -1.3629011716,
				"z": -2.1133228612,
				"element": "C" 
			},
			{
				"x": 2.3555260154,
				"y": -1.650267685,
				"z": -3.1600082509,
				"element": "N" 
			},
			{
				"x": -0.7345007282,
				"y": 1.7409714284,
				"z": 2.0471932285,
				"element": "H" 
			},
			{
				"x": -0.8894560713,
				"y": 1.1792974415,
				"z": 0.3714256598,
				"element": "H" 
			},
			{
				"x": -1.9714771512,
				"y": 0.5468091129,
				"z": 1.6189339618,
				"element": "H" 
			},
			{
				"x": -0.000912871,
				"y": -0.5294423415,
				"z": 2.7795864761,
				"element": "H" 
			},
			{
				"x": 1.0744683081,
				"y": 0.0796681368,
				"z": 1.5453930053,
				"element": "H" 
			},
			{
				"x": -0.9558446855,
				"y": -2.0668022681,
				"z": 1.2234963293,
				"element": "H" 
			},
			{
				"x": 1.1607762879,
				"y": 0.1038401902,
				"z": -0.8505442206,
				"element": "H" 
			},
			{
				"x": 2.3244819597,
				"y": -0.9760022546,
				"z": -0.0937444059,
				"element": "H" 
			}
		],
		 "valence_orbital": [ 
			{
				"type": "occ",
				"energy": -0.35425,
				"method": "rhf"
			},
			{
				"type": "occ",
				"energy": -0.32487,
				"method": "rhf"
			},
			{
				"type": "occ",
				"energy": -0.3234,
				"method": "rhf"
			},
			{
				"type": "occ",
				"energy": -0.27005,
				"method": "rhf"
			},
			{
				"type": "occ",
				"energy": -0.26595,
				"method": "rhf"
			},
			{
				"type": "unocc",
				"energy": 0.00748,
				"method": "rhf"
			},
			{
				"type": "unocc",
				"energy": 0.03152,
				"method": "rhf"
			},
			{
				"type": "unocc",
				"energy": 0.03917,
				"method": "rhf"
			},
			{
				"type": "unocc",
				"energy": 0.05774,
				"method": "rhf"
			},
			{
				"type": "unocc",
				"energy": 0.08238,
				"method": "rhf"
			}
		],
		"cosmo_sigma_profile": { 
			"-0.025": 0.0,
			"-0.024": 0.0,
			"-0.023": 0.0,
			"-0.022": 0.0,
			"-0.021": 0.0,
			"-0.02": 0.0,
			"-0.019": 0.0,
			"-0.018": 0.0,
			"-0.017": 0.0,
			"-0.016": 0.0,
			"-0.015": 0.0,
			"-0.014": 0.706590563743,
			"-0.013": 1.14699514047,
			"-0.012": 0.946116313924,
			"-0.011": 1.29352037448,
			"-0.01": 5.1602093649,
			"-0.009": 8.00284254993,
			"-0.008": 8.24465256794,
			"-0.007": 6.12016742741,
			"-0.006": 7.06227014407,
			"-0.005": 8.62884056219,
			"-0.004": 11.9496396492,
			"-0.003": 13.211456722,
			"-0.002": 10.5387937307,
			"-0.001": 8.9899966369,
			"0.0": 10.4164148902,
			"0.001": 7.25679968772,
			"0.002": 3.94210498151,
			"0.003": 2.98213796808,
			"0.004": 2.79171359664,
			"0.005": 3.45552416666,
			"0.006": 2.79811424867,
			"0.007": 4.74347206839,
			"0.008": 5.29965166233,
			"0.009": 5.31849899218,
			"0.01": 5.38582479008,
			"0.011": 4.65033518943,
			"0.012": 5.57777473473,
			"0.013": 7.68650402318,
			"0.014": 1.39303323535,
			"0.015": 0.0,
			"0.016": 0.0,
			"0.017": 0.0,
			"0.018": 0.0,
			"0.019": 0.0,
			"0.02": 0.0,
			"0.021": 0.0,
			"0.022": 0.0,
			"0.023": 0.0,
			"0.024": 0.0,
			"0.025": 0.0
		}
	}
}
