{
	 "smiles": "OC1=C(C2=CC=CC=C2)S(=O)(=O)C(C1=O)C1=CC=CC=C1", 
	 "Tm": 512.65, 
	 "num_atms": 33, 
	 "gaussian": { 
		 "optdone": 1, 
		 "sigma_profile": "yes", 
		 "theory": "DFT", 
		 "functional": "B3LYP", 
		 "basiset": "6-31G**", 
		 "properties": { 
			 "R2extent": 7153.8567, 
			 "electric_dipole_moment_norm": 2.13297929198, 
			 "electric_quadrupole_moment_norm": 18.5635716485, 
			 "total_energy": -1315.9342209, 
			 "HOMO_LUMO_gap": 0.14219, 
			 "cosmo_polarized_energy": -18.26, 
			 "cosmo_cavitation_energy": 38.7, 
			 "cosmo_dispersion_energy": -27.74, 
			 "cosmo_repulsion_energy": 2.06, 
			 "cosmo_total_nonelectrostatic_energy": 13.02, 
			 "SMD_solvation_energy": 6.47 
		},
		"coords": [
			{
				"x": 0.6816553453,
				"y": -0.1656597389,
				"z": -3.4306296379,
				"element": "O" 
			},
			{
				"x": 0.1604613312,
				"y": -0.1302181192,
				"z": -2.1933402259,
				"element": "C" 
			},
			{
				"x": -0.5630932549,
				"y": 0.8800321409,
				"z": -1.6428851861,
				"element": "C" 
			},
			{
				"x": -1.0008082174,
				"y": 2.1464313099,
				"z": -2.2221903874,
				"element": "C" 
			},
			{
				"x": -1.026806081,
				"y": 2.3184534599,
				"z": -3.6225154991,
				"element": "C" 
			},
			{
				"x": -1.4539180122,
				"y": 3.5221649011,
				"z": -4.174397283,
				"element": "C" 
			},
			{
				"x": -1.858629152,
				"y": 4.5740808456,
				"z": -3.3488557681,
				"element": "C" 
			},
			{
				"x": -1.8311035638,
				"y": 4.4159359196,
				"z": -1.9616768238,
				"element": "C" 
			},
			{
				"x": -1.4067992985,
				"y": 3.2164346115,
				"z": -1.3984199082,
				"element": "C" 
			},
			{
				"x": -0.9953798096,
				"y": 0.4462292414,
				"z": 0.0596156487,
				"element": "S" 
			},
			{
				"x": -0.2314326335,
				"y": 1.2963648956,
				"z": 0.9852252578,
				"element": "O" 
			},
			{
				"x": -2.4559479664,
				"y": 0.3466157035,
				"z": 0.1987464432,
				"element": "O" 
			},
			{
				"x": -0.2704658223,
				"y": -1.276209719,
				"z": -0.0012920508,
				"element": "C" 
			},
			{
				"x": 0.4277043056,
				"y": -1.3118831903,
				"z": -1.3523234887,
				"element": "C" 
			},
			{
				"x": 1.1297832227,
				"y": -2.2208136389,
				"z": -1.7719454192,
				"element": "O" 
			},
			{
				"x": 0.5579910767,
				"y": -1.6401192688,
				"z": 1.1978462762,
				"element": "C" 
			},
			{
				"x": 1.8429360558,
				"y": -1.1115447734,
				"z": 1.3832452788,
				"element": "C" 
			},
			{
				"x": 2.5903040494,
				"y": -1.4614518418,
				"z": 2.5053840989,
				"element": "C" 
			},
			{
				"x": 2.0622426623,
				"y": -2.3374758916,
				"z": 3.4565655967,
				"element": "C" 
			},
			{
				"x": 0.781564738,
				"y": -2.8627694195,
				"z": 3.2814617074,
				"element": "C" 
			},
			{
				"x": 0.0331249135,
				"y": -2.5145121921,
				"z": 2.1573578896,
				"element": "C" 
			},
			{
				"x": 1.1674256535,
				"y": -1.0141946152,
				"z": -3.4782621209,
				"element": "H" 
			},
			{
				"x": -0.7158954704,
				"y": 1.5067057407,
				"z": -4.2684848896,
				"element": "H" 
			},
			{
				"x": -1.472769706,
				"y": 3.6383844561,
				"z": -5.2539588924,
				"element": "H" 
			},
			{
				"x": -2.1912305751,
				"y": 5.5117868896,
				"z": -3.7842899791,
				"element": "H" 
			},
			{
				"x": -2.1379294835,
				"y": 5.231018998,
				"z": -1.313378702,
				"element": "H" 
			},
			{
				"x": -1.368863223,
				"y": 3.1163835998,
				"z": -0.3196287421,
				"element": "H" 
			},
			{
				"x": -1.1577335558,
				"y": -1.9148424942,
				"z": -0.0672089816,
				"element": "H" 
			},
			{
				"x": 2.2576661847,
				"y": -0.4220490184,
				"z": 0.6545549133,
				"element": "H" 
			},
			{
				"x": 3.5850059527,
				"y": -1.0470583028,
				"z": 2.6388341601,
				"element": "H" 
			},
			{
				"x": 2.6472588473,
				"y": -2.6083936827,
				"z": 4.3305260042,
				"element": "H" 
			},
			{
				"x": 0.3640822728,
				"y": -3.5436561663,
				"z": 4.0170986168,
				"element": "H" 
			},
			{
				"x": -0.9640007863,
				"y": -2.92517064,
				"z": 2.0226220944,
				"element": "H" 
			}
		],
		 "valence_orbital": [ 
			{
				"type": "occ",
				"energy": -0.28973,
				"method": "rhf"
			},
			{
				"type": "occ",
				"energy": -0.263,
				"method": "rhf"
			},
			{
				"type": "occ",
				"energy": -0.25991,
				"method": "rhf"
			},
			{
				"type": "occ",
				"energy": -0.2538,
				"method": "rhf"
			},
			{
				"type": "occ",
				"energy": -0.24005,
				"method": "rhf"
			},
			{
				"type": "unocc",
				"energy": -0.09786,
				"method": "rhf"
			},
			{
				"type": "unocc",
				"energy": -0.02752,
				"method": "rhf"
			},
			{
				"type": "unocc",
				"energy": -0.0129,
				"method": "rhf"
			},
			{
				"type": "unocc",
				"energy": -0.01193,
				"method": "rhf"
			},
			{
				"type": "unocc",
				"energy": -0.00872,
				"method": "rhf"
			}
		],
		"cosmo_sigma_profile": { 
			"-0.025": 0.0,
			"-0.024": 0.0,
			"-0.023": 0.0,
			"-0.022": 0.0,
			"-0.021": 0.0,
			"-0.02": 0.0,
			"-0.019": 0.0,
			"-0.018": 0.0,
			"-0.017": 0.0,
			"-0.016": 0.515484996205,
			"-0.015": 0.465437288396,
			"-0.014": 0.23571700549,
			"-0.013": 0.922473727181,
			"-0.012": 2.08614285098,
			"-0.011": 3.07572612422,
			"-0.01": 3.59766948178,
			"-0.009": 4.02954332814,
			"-0.008": 4.93579815057,
			"-0.007": 10.052049367,
			"-0.006": 20.1700632181,
			"-0.005": 25.1385996569,
			"-0.004": 22.1735195237,
			"-0.003": 16.3468070316,
			"-0.002": 16.0245834428,
			"-0.001": 16.2483310029,
			"0.0": 16.858727211,
			"0.001": 18.0185944734,
			"0.002": 21.1724834094,
			"0.003": 25.6382795381,
			"0.004": 26.3215934335,
			"0.005": 10.891089733,
			"0.006": 5.92194493271,
			"0.007": 6.77086776664,
			"0.008": 5.49425680623,
			"0.009": 7.94521438125,
			"0.01": 12.0832379369,
			"0.011": 7.34555720488,
			"0.012": 0.626319995093,
			"0.013": 0.0,
			"0.014": 0.0,
			"0.015": 0.0,
			"0.016": 0.0,
			"0.017": 0.0,
			"0.018": 0.0,
			"0.019": 0.0,
			"0.02": 0.0,
			"0.021": 0.0,
			"0.022": 0.0,
			"0.023": 0.0,
			"0.024": 0.0,
			"0.025": 0.0
		}
	}
}
