{
	 "smiles": "BrC1=CN=C(NCC2=CC=NC=C2)N=C1", 
	 "Tm": 396.15, 
	 "num_atms": 24, 
	 "gaussian": { 
		 "optdone": 1, 
		 "sigma_profile": "yes", 
		 "theory": "DFT", 
		 "functional": "B3LYP", 
		 "basiset": "6-31G**", 
		 "properties": { 
			 "R2extent": 8286.072, 
			 "electric_dipole_moment_norm": 1.71773624576, 
			 "electric_quadrupole_moment_norm": 15.8629828053, 
			 "total_energy": -3176.89550468, 
			 "HOMO_LUMO_gap": 0.17734, 
			 "cosmo_polarized_energy": -11.33, 
			 "cosmo_cavitation_energy": 31.53, 
			 "cosmo_dispersion_energy": -23.52, 
			 "cosmo_repulsion_energy": 1.84, 
			 "cosmo_total_nonelectrostatic_energy": 9.85, 
			 "SMD_solvation_energy": 0.24 
		},
		"coords": [
			{
				"x": 1.5187040081,
				"y": -4.5646286077,
				"z": -3.2376231697,
				"element": "Br" 
			},
			{
				"x": 0.7456783105,
				"y": -2.9623420228,
				"z": -2.5683168028,
				"element": "C" 
			},
			{
				"x": 0.1809937877,
				"y": -2.0129585594,
				"z": -3.4232926062,
				"element": "C" 
			},
			{
				"x": -0.3644012013,
				"y": -0.8894432348,
				"z": -2.9702442126,
				"element": "N" 
			},
			{
				"x": -0.344030601,
				"y": -0.7105040556,
				"z": -1.6289939323,
				"element": "C" 
			},
			{
				"x": -0.88972226,
				"y": 0.4570043315,
				"z": -1.1838865441,
				"element": "N" 
			},
			{
				"x": -1.0779426377,
				"y": 0.8122097264,
				"z": 0.2085399984,
				"element": "C" 
			},
			{
				"x": -0.6143960319,
				"y": 2.2191050415,
				"z": 0.5366048199,
				"element": "C" 
			},
			{
				"x": -1.2682530886,
				"y": 2.9720259308,
				"z": 1.5166323198,
				"element": "C" 
			},
			{
				"x": -0.7928225512,
				"y": 4.2466435316,
				"z": 1.8254330249,
				"element": "C" 
			},
			{
				"x": 0.2641359071,
				"y": 4.8124727654,
				"z": 1.2297532295,
				"element": "N" 
			},
			{
				"x": 0.8827033812,
				"y": 4.0872780249,
				"z": 0.2889038312,
				"element": "C" 
			},
			{
				"x": 0.4902580712,
				"y": 2.8034611299,
				"z": -0.0904860141,
				"element": "C" 
			},
			{
				"x": 0.1683305035,
				"y": -1.5663064083,
				"z": -0.722998046,
				"element": "N" 
			},
			{
				"x": 0.7108677195,
				"y": -2.6840716721,
				"z": -1.2041001491,
				"element": "C" 
			},
			{
				"x": 0.1707546184,
				"y": -2.169656614,
				"z": -4.4998225849,
				"element": "H" 
			},
			{
				"x": -1.3143031774,
				"y": 1.0261322755,
				"z": -1.9019839562,
				"element": "H" 
			},
			{
				"x": -0.5095695363,
				"y": 0.0839158178,
				"z": 0.7948519599,
				"element": "H" 
			},
			{
				"x": -2.1316819415,
				"y": 0.700759218,
				"z": 0.5014378124,
				"element": "H" 
			},
			{
				"x": -2.1389046743,
				"y": 2.5760540766,
				"z": 2.0329534397,
				"element": "H" 
			},
			{
				"x": -1.2922389659,
				"y": 4.8450163988,
				"z": 2.585791244,
				"element": "H" 
			},
			{
				"x": 1.7403104893,
				"y": 4.5571072619,
				"z": -0.1900163231,
				"element": "H" 
			},
			{
				"x": 1.0321480047,
				"y": 2.269042148,
				"z": -0.8642200633,
				"element": "H" 
			},
			{
				"x": 1.1291818659,
				"y": -3.381216504,
				"z": -0.4814172756,
				"element": "H" 
			}
		],
		 "valence_orbital": [ 
			{
				"type": "occ",
				"energy": -0.2805,
				"method": "rhf"
			},
			{
				"type": "occ",
				"energy": -0.26532,
				"method": "rhf"
			},
			{
				"type": "occ",
				"energy": -0.25975,
				"method": "rhf"
			},
			{
				"type": "occ",
				"energy": -0.2557,
				"method": "rhf"
			},
			{
				"type": "occ",
				"energy": -0.22661,
				"method": "rhf"
			},
			{
				"type": "unocc",
				"energy": -0.04927,
				"method": "rhf"
			},
			{
				"type": "unocc",
				"energy": -0.02779,
				"method": "rhf"
			},
			{
				"type": "unocc",
				"energy": -0.01671,
				"method": "rhf"
			},
			{
				"type": "unocc",
				"energy": -0.01294,
				"method": "rhf"
			},
			{
				"type": "unocc",
				"energy": 0.00187,
				"method": "rhf"
			}
		],
		"cosmo_sigma_profile": { 
			"-0.025": 0.0,
			"-0.024": 0.0,
			"-0.023": 0.0,
			"-0.022": 0.0,
			"-0.021": 0.0,
			"-0.02": 0.0,
			"-0.019": 0.0,
			"-0.018": 0.0,
			"-0.017": 0.0,
			"-0.016": 0.0,
			"-0.015": 0.0,
			"-0.014": 0.543051020798,
			"-0.013": 0.814338214527,
			"-0.012": 0.940203339177,
			"-0.011": 1.28499710362,
			"-0.01": 0.530770675373,
			"-0.009": 1.18917739087,
			"-0.008": 4.37189726864,
			"-0.007": 6.39860381596,
			"-0.006": 15.020628426,
			"-0.005": 18.1047624737,
			"-0.004": 17.1991690837,
			"-0.003": 14.9032142924,
			"-0.002": 19.5853135446,
			"-0.001": 22.4067251985,
			"0.0": 20.554912028,
			"0.001": 18.7367131992,
			"0.002": 21.2273594963,
			"0.003": 22.5890478391,
			"0.004": 16.0599392037,
			"0.005": 7.26082969665,
			"0.006": 3.63191553096,
			"0.007": 4.17990660453,
			"0.008": 3.6855203167,
			"0.009": 3.43370993497,
			"0.01": 2.56507281075,
			"0.011": 2.28600271689,
			"0.012": 1.86896959583,
			"0.013": 1.89379164381,
			"0.014": 1.067769824,
			"0.015": 0.964156040204,
			"0.016": 0.946148138215,
			"0.017": 0.514039948259,
			"0.018": 0.0,
			"0.019": 0.0,
			"0.02": 0.0,
			"0.021": 0.0,
			"0.022": 0.0,
			"0.023": 0.0,
			"0.024": 0.0,
			"0.025": 0.0
		}
	}
}
