{
	 "smiles": "OC(=O)C1=CC(=CC=C1)S(=O)(=O)N1CCC2=C(C1)C=CS2", 
	 "Tm": 481.15, 
	 "num_atms": 34, 
	 "gaussian": { 
		 "optdone": 1, 
		 "sigma_profile": "yes", 
		 "theory": "DFT", 
		 "functional": "B3LYP", 
		 "basiset": "6-31G**", 
		 "properties": { 
			 "R2extent": 8357.9279, 
			 "electric_dipole_moment_norm": 5.37295953456, 
			 "electric_quadrupole_moment_norm": 38.3794423465, 
			 "total_energy": -1693.26688086, 
			 "HOMO_LUMO_gap": 0.16116, 
			 "cosmo_polarized_energy": -24.55, 
			 "cosmo_cavitation_energy": 40.69, 
			 "cosmo_dispersion_energy": -29.34, 
			 "cosmo_repulsion_energy": 2.15, 
			 "cosmo_total_nonelectrostatic_energy": 13.5, 
			 "SMD_solvation_energy": 6.0 
		},
		"coords": [
			{
				"x": 0.1999054645,
				"y": -3.1575178445,
				"z": 4.1564827745,
				"element": "O" 
			},
			{
				"x": -0.4066989759,
				"y": -2.895335548,
				"z": 2.9692666858,
				"element": "C" 
			},
			{
				"x": -0.6493836079,
				"y": -3.7936669565,
				"z": 2.2004225874,
				"element": "O" 
			},
			{
				"x": -0.7445594396,
				"y": -1.4591538473,
				"z": 2.6814944513,
				"element": "C" 
			},
			{
				"x": -0.9885904465,
				"y": -1.1144330236,
				"z": 1.3479043612,
				"element": "C" 
			},
			{
				"x": -1.2990580744,
				"y": 0.2060968096,
				"z": 1.0312765424,
				"element": "C" 
			},
			{
				"x": -1.4055014755,
				"y": 1.1879648182,
				"z": 2.0178715292,
				"element": "C" 
			},
			{
				"x": -1.1897428253,
				"y": 0.8343409116,
				"z": 3.3509726896,
				"element": "C" 
			},
			{
				"x": -0.859490182,
				"y": -0.479229375,
				"z": 3.6802151156,
				"element": "C" 
			},
			{
				"x": -1.6655552011,
				"y": 0.6467787375,
				"z": -0.6770972908,
				"element": "S" 
			},
			{
				"x": -1.8895529759,
				"y": 2.0995795435,
				"z": -0.7031176289,
				"element": "O" 
			},
			{
				"x": -2.6802777731,
				"y": -0.2723566765,
				"z": -1.1974922643,
				"element": "O" 
			},
			{
				"x": -0.2125747641,
				"y": 0.2288770253,
				"z": -1.4425118389,
				"element": "N" 
			},
			{
				"x": 0.8900137657,
				"y": 1.1913282328,
				"z": -1.2488814625,
				"element": "C" 
			},
			{
				"x": 2.2274154856,
				"y": 0.4774971065,
				"z": -1.4914924207,
				"element": "C" 
			},
			{
				"x": 2.1428996816,
				"y": -0.2939936731,
				"z": -2.7760155683,
				"element": "C" 
			},
			{
				"x": 0.9688657363,
				"y": -0.6341828195,
				"z": -3.3931797418,
				"element": "C" 
			},
			{
				"x": -0.3747529737,
				"y": -0.2363662799,
				"z": -2.8395322843,
				"element": "C" 
			},
			{
				"x": 1.1680756599,
				"y": -1.3730177988,
				"z": -4.6047870749,
				"element": "C" 
			},
			{
				"x": 2.4876904457,
				"y": -1.5848119959,
				"z": -4.8813423016,
				"element": "C" 
			},
			{
				"x": 3.5181141038,
				"y": -0.8850985878,
				"z": -3.6685304313,
				"element": "S" 
			},
			{
				"x": 0.4785715292,
				"y": -2.3373060463,
				"z": 4.5860040114,
				"element": "H" 
			},
			{
				"x": -0.9275516518,
				"y": -1.8809556942,
				"z": 0.5838324559,
				"element": "H" 
			},
			{
				"x": -1.6626099691,
				"y": 2.2025116926,
				"z": 1.7339987285,
				"element": "H" 
			},
			{
				"x": -1.2871726443,
				"y": 1.5817950538,
				"z": 4.1318278113,
				"element": "H" 
			},
			{
				"x": -0.7305570104,
				"y": -0.7388576647,
				"z": 4.7281377551,
				"element": "H" 
			},
			{
				"x": 0.8495292033,
				"y": 1.5704289284,
				"z": -0.2248987119,
				"element": "H" 
			},
			{
				"x": 0.7815536629,
				"y": 2.0504594007,
				"z": -1.9252580106,
				"element": "H" 
			},
			{
				"x": 3.0300343244,
				"y": 1.2237770906,
				"z": -1.5217650136,
				"element": "H" 
			},
			{
				"x": 2.442220133,
				"y": -0.1936378877,
				"z": -0.6497973902,
				"element": "H" 
			},
			{
				"x": -1.0642597206,
				"y": -1.0831152207,
				"z": -2.8334747568,
				"element": "H" 
			},
			{
				"x": -0.8250068982,
				"y": 0.5462313005,
				"z": -3.471871395,
				"element": "H" 
			},
			{
				"x": 0.3606049523,
				"y": -1.7306036316,
				"z": -5.2345793644,
				"element": "H" 
			},
			{
				"x": 2.921102461,
				"y": -2.11192608,
				"z": -5.7196825484,
				"element": "H" 
			}
		],
		 "valence_orbital": [ 
			{
				"type": "occ",
				"energy": -0.29261,
				"method": "rhf"
			},
			{
				"type": "occ",
				"energy": -0.28136,
				"method": "rhf"
			},
			{
				"type": "occ",
				"energy": -0.26281,
				"method": "rhf"
			},
			{
				"type": "occ",
				"energy": -0.24826,
				"method": "rhf"
			},
			{
				"type": "occ",
				"energy": -0.23175,
				"method": "rhf"
			},
			{
				"type": "unocc",
				"energy": -0.07059,
				"method": "rhf"
			},
			{
				"type": "unocc",
				"energy": -0.05444,
				"method": "rhf"
			},
			{
				"type": "unocc",
				"energy": -0.01506,
				"method": "rhf"
			},
			{
				"type": "unocc",
				"energy": 0.02186,
				"method": "rhf"
			},
			{
				"type": "unocc",
				"energy": 0.02436,
				"method": "rhf"
			}
		],
		"cosmo_sigma_profile": { 
			"-0.025": 0.0,
			"-0.024": 0.0,
			"-0.023": 0.0,
			"-0.022": 0.0,
			"-0.021": 0.0,
			"-0.02": 0.0195883493459,
			"-0.019": 0.820547601272,
			"-0.018": 0.793870082093,
			"-0.017": 1.35179193636,
			"-0.016": 1.1958586819,
			"-0.015": 1.00629763071,
			"-0.014": 0.825369726105,
			"-0.013": 0.935678894485,
			"-0.012": 1.42880921836,
			"-0.011": 1.58449438324,
			"-0.01": 0.834398807297,
			"-0.009": 1.79712905144,
			"-0.008": 6.79615079934,
			"-0.007": 10.9790402156,
			"-0.006": 16.8455849598,
			"-0.005": 27.8015814861,
			"-0.004": 26.5697402422,
			"-0.003": 26.0151900804,
			"-0.002": 18.7227941011,
			"-0.001": 17.495577399,
			"0.0": 23.418140919,
			"0.001": 21.4304431182,
			"0.002": 13.5502907079,
			"0.003": 14.6828791318,
			"0.004": 16.8933684796,
			"0.005": 15.3108359671,
			"0.006": 7.11823144065,
			"0.007": 6.30904018168,
			"0.008": 6.43214393266,
			"0.009": 7.06007977505,
			"0.01": 12.9375368266,
			"0.011": 12.8775295119,
			"0.012": 4.65581462741,
			"0.013": 0.663281413182,
			"0.014": 0.0,
			"0.015": 0.0,
			"0.016": 0.0,
			"0.017": 0.0,
			"0.018": 0.0,
			"0.019": 0.0,
			"0.02": 0.0,
			"0.021": 0.0,
			"0.022": 0.0,
			"0.023": 0.0,
			"0.024": 0.0,
			"0.025": 0.0
		}
	}
}
