{
	 "smiles": "S1C2=C(C=CC=C2)N=C1C1=CC=CC=C1", 
	 "Tm": 387.15, 
	 "num_atms": 24, 
	 "gaussian": { 
		 "optdone": 1, 
		 "sigma_profile": "yes", 
		 "theory": "DFT", 
		 "functional": "B3LYP", 
		 "basiset": "6-31G**", 
		 "properties": { 
			 "R2extent": 4352.0418, 
			 "electric_dipole_moment_norm": 0.658306349658, 
			 "electric_quadrupole_moment_norm": 13.1879390808, 
			 "total_energy": -953.762863107, 
			 "HOMO_LUMO_gap": 0.16365, 
			 "cosmo_polarized_energy": -6.76, 
			 "cosmo_cavitation_energy": 29.65, 
			 "cosmo_dispersion_energy": -22.74, 
			 "cosmo_repulsion_energy": 1.69, 
			 "cosmo_total_nonelectrostatic_energy": 8.6, 
			 "SMD_solvation_energy": 3.02 
		},
		"coords": [
			{
				"x": -1.2449348927,
				"y": -0.4082708316,
				"z": 0.768103249,
				"element": "S" 
			},
			{
				"x": -0.7957145455,
				"y": -0.9634257877,
				"z": -0.8299457956,
				"element": "C" 
			},
			{
				"x": 0.1837362404,
				"y": -0.0914971669,
				"z": -1.3676558828,
				"element": "C" 
			},
			{
				"x": 0.6997547906,
				"y": -0.3380625566,
				"z": -2.6496048557,
				"element": "C" 
			},
			{
				"x": 0.2354428568,
				"y": -1.4359130204,
				"z": -3.3631164193,
				"element": "C" 
			},
			{
				"x": -0.7367373511,
				"y": -2.2929640813,
				"z": -2.8176070376,
				"element": "C" 
			},
			{
				"x": -1.2623454492,
				"y": -2.0670472713,
				"z": -1.5474877748,
				"element": "C" 
			},
			{
				"x": 0.5538251869,
				"y": 0.9588508938,
				"z": -0.5508798448,
				"element": "N" 
			},
			{
				"x": -0.0842586666,
				"y": 0.9427546879,
				"z": 0.5803707928,
				"element": "C" 
			},
			{
				"x": 0.1072637443,
				"y": 1.9388558052,
				"z": 1.6434660829,
				"element": "C" 
			},
			{
				"x": 1.0315298316,
				"y": 2.9799034723,
				"z": 1.4411607685,
				"element": "C" 
			},
			{
				"x": 1.2362110254,
				"y": 3.9390575242,
				"z": 2.4280081575,
				"element": "C" 
			},
			{
				"x": 0.5254703958,
				"y": 3.877649173,
				"z": 3.6302114759,
				"element": "C" 
			},
			{
				"x": -0.3936611554,
				"y": 2.8476722504,
				"z": 3.8390042083,
				"element": "C" 
			},
			{
				"x": -0.6022473809,
				"y": 1.8846974565,
				"z": 2.8537943001,
				"element": "C" 
			},
			{
				"x": 1.4493990599,
				"y": 0.3324333206,
				"z": -3.0566185574,
				"element": "H" 
			},
			{
				"x": 0.6272651694,
				"y": -1.6366918218,
				"z": -4.3556862185,
				"element": "H" 
			},
			{
				"x": -1.0848649333,
				"y": -3.1451299693,
				"z": -3.3936590042,
				"element": "H" 
			},
			{
				"x": -2.0125068226,
				"y": -2.7316011722,
				"z": -1.1310505684,
				"element": "H" 
			},
			{
				"x": 1.575432311,
				"y": 3.014688037,
				"z": 0.5039062052,
				"element": "H" 
			},
			{
				"x": 1.9525532392,
				"y": 4.7380482779,
				"z": 2.260040724,
				"element": "H" 
			},
			{
				"x": 0.6871642534,
				"y": 4.6276584729,
				"z": 4.3989558527,
				"element": "H" 
			},
			{
				"x": -0.9497029593,
				"y": 2.7929580119,
				"z": 4.7701859437,
				"element": "H" 
			},
			{
				"x": -1.3206739481,
				"y": 1.0891762956,
				"z": 3.0307041984,
				"element": "H" 
			}
		],
		 "valence_orbital": [ 
			{
				"type": "occ",
				"energy": -0.27465,
				"method": "rhf"
			},
			{
				"type": "occ",
				"energy": -0.27425,
				"method": "rhf"
			},
			{
				"type": "occ",
				"energy": -0.2581,
				"method": "rhf"
			},
			{
				"type": "occ",
				"energy": -0.23405,
				"method": "rhf"
			},
			{
				"type": "occ",
				"energy": -0.22217,
				"method": "rhf"
			},
			{
				"type": "unocc",
				"energy": -0.05852,
				"method": "rhf"
			},
			{
				"type": "unocc",
				"energy": -0.00889,
				"method": "rhf"
			},
			{
				"type": "unocc",
				"energy": -0.00387,
				"method": "rhf"
			},
			{
				"type": "unocc",
				"energy": 0.01083,
				"method": "rhf"
			},
			{
				"type": "unocc",
				"energy": 0.0132,
				"method": "rhf"
			}
		],
		"cosmo_sigma_profile": { 
			"-0.025": 0.0,
			"-0.024": 0.0,
			"-0.023": 0.0,
			"-0.022": 0.0,
			"-0.021": 0.0,
			"-0.02": 0.0,
			"-0.019": 0.0,
			"-0.018": 0.0,
			"-0.017": 0.0,
			"-0.016": 0.0,
			"-0.015": 0.0,
			"-0.014": 0.0,
			"-0.013": 0.0,
			"-0.012": 0.0,
			"-0.011": 0.0,
			"-0.01": 0.0,
			"-0.009": 0.0,
			"-0.008": 0.170097205943,
			"-0.007": 4.92919950579,
			"-0.006": 16.7588588712,
			"-0.005": 18.9388529313,
			"-0.004": 19.3361726364,
			"-0.003": 14.6495545941,
			"-0.002": 12.7090547182,
			"-0.001": 14.8176890753,
			"0.0": 18.5241926222,
			"0.001": 21.2522095982,
			"0.002": 24.0629328852,
			"0.003": 28.3073593989,
			"0.004": 27.197739976,
			"0.005": 11.3884931882,
			"0.006": 1.7244909495,
			"0.007": 1.51087240985,
			"0.008": 1.70112834265,
			"0.009": 1.24151488446,
			"0.01": 0.865656085298,
			"0.011": 1.36747806807,
			"0.012": 0.189463434174,
			"0.013": 0.0,
			"0.014": 0.0,
			"0.015": 0.0,
			"0.016": 0.0,
			"0.017": 0.0,
			"0.018": 0.0,
			"0.019": 0.0,
			"0.02": 0.0,
			"0.021": 0.0,
			"0.022": 0.0,
			"0.023": 0.0,
			"0.024": 0.0,
			"0.025": 0.0
		}
	}
}
