{
	 "smiles": "CC(C)C1=CC=CC=C1", 
	 "Tm": 177.15, 
	 "num_atms": 21, 
	 "gaussian": { 
		 "optdone": 1, 
		 "sigma_profile": "yes", 
		 "theory": "DFT", 
		 "functional": "B3LYP", 
		 "basiset": "6-31G**", 
		 "properties": { 
			 "R2extent": 1551.77, 
			 "electric_dipole_moment_norm": 0.282675874457, 
			 "electric_quadrupole_moment_norm": 4.06530647307, 
			 "total_energy": -350.203706359, 
			 "HOMO_LUMO_gap": 0.23955, 
			 "cosmo_polarized_energy": -3.12, 
			 "cosmo_cavitation_energy": 23.24, 
			 "cosmo_dispersion_energy": -16.81, 
			 "cosmo_repulsion_energy": 1.39, 
			 "cosmo_total_nonelectrostatic_energy": 7.81, 
			 "SMD_solvation_energy": 4.12 
		},
		"coords": [
			{
				"x": 1.4271705472,
				"y": -1.9520786578,
				"z": 1.5621266093,
				"element": "C" 
			},
			{
				"x": 2.0320012385,
				"y": -0.6010182698,
				"z": 1.1360612531,
				"element": "C" 
			},
			{
				"x": 3.3800120787,
				"y": -0.8008532175,
				"z": 0.4179585362,
				"element": "C" 
			},
			{
				"x": 1.0582380637,
				"y": 0.2178231932,
				"z": 0.2978870413,
				"element": "C" 
			},
			{
				"x": 0.5996520978,
				"y": -0.2418350995,
				"z": -0.946243801,
				"element": "C" 
			},
			{
				"x": -0.2918707531,
				"y": 0.5134556271,
				"z": -1.7079782954,
				"element": "C" 
			},
			{
				"x": -0.7454284634,
				"y": 1.7489252617,
				"z": -1.2401807629,
				"element": "C" 
			},
			{
				"x": -0.2987031981,
				"y": 2.2195420007,
				"z": -0.0053267125,
				"element": "C" 
			},
			{
				"x": 0.5939200234,
				"y": 1.4586857906,
				"z": 0.7527189304,
				"element": "C" 
			},
			{
				"x": 1.218524618,
				"y": -2.5856585954,
				"z": 0.6930014727,
				"element": "H" 
			},
			{
				"x": 0.4872726094,
				"y": -1.8119633327,
				"z": 2.1050163411,
				"element": "H" 
			},
			{
				"x": 2.1193350183,
				"y": -2.4985007272,
				"z": 2.2123292652,
				"element": "H" 
			},
			{
				"x": 2.2292209463,
				"y": -0.0264254204,
				"z": 2.0507914067,
				"element": "H" 
			},
			{
				"x": 4.0849761313,
				"y": -1.3399751484,
				"z": 1.0604607707,
				"element": "H" 
			},
			{
				"x": 3.830599877,
				"y": 0.1588903299,
				"z": 0.1466046227,
				"element": "H" 
			},
			{
				"x": 3.257590464,
				"y": -1.3832312809,
				"z": -0.501932666,
				"element": "H" 
			},
			{
				"x": 0.9417859048,
				"y": -1.2010264925,
				"z": -1.3264829604,
				"element": "H" 
			},
			{
				"x": -0.6331439975,
				"y": 0.136865344,
				"z": -2.6685151225,
				"element": "H" 
			},
			{
				"x": -1.4397318515,
				"y": 2.3376111612,
				"z": -1.8329580098,
				"element": "H" 
			},
			{
				"x": -0.6438302403,
				"y": 3.1790797353,
				"z": 0.3701285902,
				"element": "H" 
			},
			{
				"x": 0.9368088856,
				"y": 1.8336877985,
				"z": 1.7144334908,
				"element": "H" 
			}
		],
		 "valence_orbital": [ 
			{
				"type": "occ",
				"energy": -0.33449,
				"method": "rhf"
			},
			{
				"type": "occ",
				"energy": -0.32079,
				"method": "rhf"
			},
			{
				"type": "occ",
				"energy": -0.31752,
				"method": "rhf"
			},
			{
				"type": "occ",
				"energy": -0.24396,
				"method": "rhf"
			},
			{
				"type": "occ",
				"energy": -0.236,
				"method": "rhf"
			},
			{
				"type": "unocc",
				"energy": 0.00355,
				"method": "rhf"
			},
			{
				"type": "unocc",
				"energy": 0.00648,
				"method": "rhf"
			},
			{
				"type": "unocc",
				"energy": 0.08811,
				"method": "rhf"
			},
			{
				"type": "unocc",
				"energy": 0.1093,
				"method": "rhf"
			},
			{
				"type": "unocc",
				"energy": 0.11691,
				"method": "rhf"
			}
		],
		"cosmo_sigma_profile": { 
			"-0.025": 0.0,
			"-0.024": 0.0,
			"-0.023": 0.0,
			"-0.022": 0.0,
			"-0.021": 0.0,
			"-0.02": 0.0,
			"-0.019": 0.0,
			"-0.018": 0.0,
			"-0.017": 0.0,
			"-0.016": 0.0,
			"-0.015": 0.0,
			"-0.014": 0.0,
			"-0.013": 0.0,
			"-0.012": 0.0,
			"-0.011": 0.0,
			"-0.01": 0.0,
			"-0.009": 0.0,
			"-0.008": 0.0,
			"-0.007": 0.0,
			"-0.006": 0.822114698532,
			"-0.005": 8.62387370664,
			"-0.004": 13.2525582859,
			"-0.003": 21.4407934456,
			"-0.002": 22.8200315496,
			"-0.001": 20.4858573589,
			"0.0": 21.9900227845,
			"0.001": 22.0586564914,
			"0.002": 12.7904372486,
			"0.003": 9.26234038239,
			"0.004": 7.20367984499,
			"0.005": 8.77297058796,
			"0.006": 7.89272339003,
			"0.007": 5.08663894751,
			"0.008": 0.00884030142809,
			"0.009": 0.0,
			"0.01": 0.0,
			"0.011": 0.0,
			"0.012": 0.0,
			"0.013": 0.0,
			"0.014": 0.0,
			"0.015": 0.0,
			"0.016": 0.0,
			"0.017": 0.0,
			"0.018": 0.0,
			"0.019": 0.0,
			"0.02": 0.0,
			"0.021": 0.0,
			"0.022": 0.0,
			"0.023": 0.0,
			"0.024": 0.0,
			"0.025": 0.0
		}
	}
}
