{
	 "smiles": "CC1(O)CCC2C3CCC4CC(=O)CCC4(C)C3CCC12C", 
	 "Tm": 465.15, 
	 "num_atms": 54, 
	 "gaussian": { 
		 "optdone": 1, 
		 "sigma_profile": "yes", 
		 "theory": "DFT", 
		 "functional": "B3LYP", 
		 "basiset": "6-31G**", 
		 "properties": { 
			 "R2extent": 7871.4734, 
			 "electric_dipole_moment_norm": 2.73319949327, 
			 "electric_quadrupole_moment_norm": 21.2057505326, 
			 "total_energy": -931.877665213, 
			 "HOMO_LUMO_gap": 0.22032, 
			 "cosmo_polarized_energy": -12.69, 
			 "cosmo_cavitation_energy": 45.0, 
			 "cosmo_dispersion_energy": -31.57, 
			 "cosmo_repulsion_energy": 2.29, 
			 "cosmo_total_nonelectrostatic_energy": 15.72, 
			 "SMD_solvation_energy": 6.56 
		},
		"coords": [
			{
				"x": -3.9513567822,
				"y": 0.3630891908,
				"z": 3.8769366032,
				"element": "C" 
			},
			{
				"x": -2.5866633871,
				"y": 0.9888252642,
				"z": 3.5656033349,
				"element": "C" 
			},
			{
				"x": -2.6751783673,
				"y": 2.2999723926,
				"z": 4.125273306,
				"element": "O" 
			},
			{
				"x": -1.4474132745,
				"y": 0.1384151137,
				"z": 4.1897428968,
				"element": "C" 
			},
			{
				"x": -1.0068628151,
				"y": -0.8731780254,
				"z": 3.1021330779,
				"element": "C" 
			},
			{
				"x": -1.7503657257,
				"y": -0.4643722817,
				"z": 1.7936527601,
				"element": "C" 
			},
			{
				"x": -0.9820463065,
				"y": -0.6489052577,
				"z": 0.4668290596,
				"element": "C" 
			},
			{
				"x": -0.5781330964,
				"y": -2.119436903,
				"z": 0.1711766088,
				"element": "C" 
			},
			{
				"x": 0.9287533121,
				"y": -2.3649929268,
				"z": 0.3135028834,
				"element": "C" 
			},
			{
				"x": 1.8364468967,
				"y": -1.3917303983,
				"z": -0.500098332,
				"element": "C" 
			},
			{
				"x": 2.4831406086,
				"y": -2.0723172747,
				"z": -1.7399306992,
				"element": "C" 
			},
			{
				"x": 1.6052822826,
				"y": -2.0709195553,
				"z": -2.9774856307,
				"element": "C" 
			},
			{
				"x": 1.3221011157,
				"y": -3.0801556498,
				"z": -3.5963202835,
				"element": "O" 
			},
			{
				"x": 1.10723367,
				"y": -0.6898645025,
				"z": -3.3629294748,
				"element": "C" 
			},
			{
				"x": 0.3510730626,
				"y": -0.0572059049,
				"z": -2.1761080612,
				"element": "C" 
			},
			{
				"x": 1.153269909,
				"y": -0.013291717,
				"z": -0.8432496837,
				"element": "C" 
			},
			{
				"x": 2.268745667,
				"y": 1.0485054667,
				"z": -0.9657172301,
				"element": "C" 
			},
			{
				"x": 0.2159433947,
				"y": 0.3278437699,
				"z": 0.3604599553,
				"element": "C" 
			},
			{
				"x": -0.3282900401,
				"y": 1.7653624835,
				"z": 0.4334183413,
				"element": "C" 
			},
			{
				"x": -1.0737360186,
				"y": 1.9940594048,
				"z": 1.7615505783,
				"element": "C" 
			},
			{
				"x": -2.2353980894,
				"y": 0.9952414041,
				"z": 2.029333021,
				"element": "C" 
			},
			{
				"x": -3.4373798668,
				"y": 1.38581676,
				"z": 1.1557157935,
				"element": "C" 
			},
			{
				"x": -4.7630300508,
				"y": 0.959379416,
				"z": 3.454298265,
				"element": "H" 
			},
			{
				"x": -4.0873460348,
				"y": 0.334961925,
				"z": 4.9618272629,
				"element": "H" 
			},
			{
				"x": -4.0306620799,
				"y": -0.6585763985,
				"z": 3.4949406982,
				"element": "H" 
			},
			{
				"x": -1.8045865382,
				"y": 2.7125957926,
				"z": 4.060672082,
				"element": "H" 
			},
			{
				"x": -1.7747885911,
				"y": -0.3437789709,
				"z": 5.1156172256,
				"element": "H" 
			},
			{
				"x": -0.6146532003,
				"y": 0.7957370832,
				"z": 4.4667689534,
				"element": "H" 
			},
			{
				"x": -1.2559606551,
				"y": -1.9013984479,
				"z": 3.381391184,
				"element": "H" 
			},
			{
				"x": 0.0795192129,
				"y": -0.8464099282,
				"z": 2.9753588607,
				"element": "H" 
			},
			{
				"x": -2.6471528249,
				"y": -1.0937700449,
				"z": 1.7165174728,
				"element": "H" 
			},
			{
				"x": -1.6950403845,
				"y": -0.3497977296,
				"z": -0.312638114,
				"element": "H" 
			},
			{
				"x": -0.8901613375,
				"y": -2.3935628494,
				"z": -0.8434357087,
				"element": "H" 
			},
			{
				"x": -1.1190165578,
				"y": -2.8026438324,
				"z": 0.8369580082,
				"element": "H" 
			},
			{
				"x": 1.1565565701,
				"y": -3.3999283059,
				"z": 0.0349801326,
				"element": "H" 
			},
			{
				"x": 1.1950606104,
				"y": -2.2792924457,
				"z": 1.3733481504,
				"element": "H" 
			},
			{
				"x": 2.6732134784,
				"y": -1.1437179202,
				"z": 0.1651111717,
				"element": "H" 
			},
			{
				"x": 2.7785104988,
				"y": -3.0999037892,
				"z": -1.5115843588,
				"element": "H" 
			},
			{
				"x": 3.3967504694,
				"y": -1.5235229499,
				"z": -2.0089380281,
				"element": "H" 
			},
			{
				"x": 1.9731157668,
				"y": -0.0719802767,
				"z": -3.6362494564,
				"element": "H" 
			},
			{
				"x": 0.4627284753,
				"y": -0.7734787205,
				"z": -4.2419303449,
				"element": "H" 
			},
			{
				"x": -0.574126172,
				"y": -0.6237797899,
				"z": -2.0462915185,
				"element": "H" 
			},
			{
				"x": 0.0462177747,
				"y": 0.9610427877,
				"z": -2.4448700064,
				"element": "H" 
			},
			{
				"x": 3.0481061807,
				"y": 0.7390581595,
				"z": -1.6693179959,
				"element": "H" 
			},
			{
				"x": 2.7547870675,
				"y": 1.2168481952,
				"z": 0.0020834049,
				"element": "H" 
			},
			{
				"x": 1.8810527651,
				"y": 2.0092347754,
				"z": -1.3177377456,
				"element": "H" 
			},
			{
				"x": 0.8474178387,
				"y": 0.1966518465,
				"z": 1.2534121298,
				"element": "H" 
			},
			{
				"x": -0.9941447829,
				"y": 1.9606600774,
				"z": -0.4170039952,
				"element": "H" 
			},
			{
				"x": 0.4826446405,
				"y": 2.4980151472,
				"z": 0.3646115694,
				"element": "H" 
			},
			{
				"x": -1.4675331481,
				"y": 3.0171654744,
				"z": 1.7927645312,
				"element": "H" 
			},
			{
				"x": -0.3250856406,
				"y": 1.9250258932,
				"z": 2.5632063038,
				"element": "H" 
			},
			{
				"x": -3.8679441015,
				"y": 2.328520849,
				"z": 1.5110658459,
				"element": "H" 
			},
			{
				"x": -3.1525396417,
				"y": 1.527533434,
				"z": 0.1086817597,
				"element": "H" 
			},
			{
				"x": -4.2231757572,
				"y": 0.6249506909,
				"z": 1.1769934353,
				"element": "H" 
			}
		],
		 "valence_orbital": [ 
			{
				"type": "occ",
				"energy": -0.2904,
				"method": "rhf"
			},
			{
				"type": "occ",
				"energy": -0.28282,
				"method": "rhf"
			},
			{
				"type": "occ",
				"energy": -0.27976,
				"method": "rhf"
			},
			{
				"type": "occ",
				"energy": -0.25025,
				"method": "rhf"
			},
			{
				"type": "occ",
				"energy": -0.23216,
				"method": "rhf"
			},
			{
				"type": "unocc",
				"energy": -0.01184,
				"method": "rhf"
			},
			{
				"type": "unocc",
				"energy": 0.06127,
				"method": "rhf"
			},
			{
				"type": "unocc",
				"energy": 0.06945,
				"method": "rhf"
			},
			{
				"type": "unocc",
				"energy": 0.07391,
				"method": "rhf"
			},
			{
				"type": "unocc",
				"energy": 0.0874,
				"method": "rhf"
			}
		],
		"cosmo_sigma_profile": { 
			"-0.025": 0.0,
			"-0.024": 0.0,
			"-0.023": 0.0,
			"-0.022": 0.0,
			"-0.021": 0.0,
			"-0.02": 0.0,
			"-0.019": 0.0,
			"-0.018": 0.0,
			"-0.017": 0.0,
			"-0.016": 0.0,
			"-0.015": 0.0,
			"-0.014": 0.0644231337068,
			"-0.013": 0.460237662929,
			"-0.012": 1.05461332611,
			"-0.011": 0.95756453219,
			"-0.01": 1.08685105468,
			"-0.009": 0.97272716062,
			"-0.008": 0.991960309549,
			"-0.007": 1.28712714167,
			"-0.006": 4.16366003191,
			"-0.005": 7.17634167649,
			"-0.004": 11.3095938852,
			"-0.003": 31.3574267884,
			"-0.002": 66.1510107339,
			"-0.001": 66.2198822969,
			"0.0": 51.8852601927,
			"0.001": 37.52552274,
			"0.002": 16.4823990491,
			"0.003": 4.50400531088,
			"0.004": 3.8540267499,
			"0.005": 2.66022711579,
			"0.006": 2.40382202182,
			"0.007": 3.18883070493,
			"0.008": 3.38222326571,
			"0.009": 2.51830949199,
			"0.01": 3.18373916128,
			"0.011": 3.87467854085,
			"0.012": 4.76604357077,
			"0.013": 5.94770176046,
			"0.014": 3.13123354548,
			"0.015": 0.900827082204,
			"0.016": 0.0,
			"0.017": 0.0,
			"0.018": 0.0,
			"0.019": 0.0,
			"0.02": 0.0,
			"0.021": 0.0,
			"0.022": 0.0,
			"0.023": 0.0,
			"0.024": 0.0,
			"0.025": 0.0
		}
	}
}
