{
	 "smiles": "COC(=O)C1=NC2=C(C=C(Cl)C=C2)C(Cl)=C1", 
	 "Tm": 431.15, 
	 "num_atms": 23, 
	 "gaussian": { 
		 "optdone": 1, 
		 "sigma_profile": "yes", 
		 "theory": "DFT", 
		 "functional": "B3LYP", 
		 "basiset": "6-31G**", 
		 "properties": { 
			 "R2extent": 6872.5749, 
			 "electric_dipole_moment_norm": 1.75689376173, 
			 "electric_quadrupole_moment_norm": 11.6810576405, 
			 "total_energy": -1548.98419477, 
			 "HOMO_LUMO_gap": 0.1633, 
			 "cosmo_polarized_energy": -10.74, 
			 "cosmo_cavitation_energy": 32.02, 
			 "cosmo_dispersion_energy": -23.75, 
			 "cosmo_repulsion_energy": 1.85, 
			 "cosmo_total_nonelectrostatic_energy": 10.12, 
			 "SMD_solvation_energy": 5.07 
		},
		"coords": [
			{
				"x": -4.0384016482,
				"y": -0.702668216,
				"z": 1.4883105311,
				"element": "C" 
			},
			{
				"x": -2.773824709,
				"y": -1.0408012068,
				"z": 0.8952170185,
				"element": "O" 
			},
			{
				"x": -2.1830133965,
				"y": -0.0422718069,
				"z": 0.197390416,
				"element": "C" 
			},
			{
				"x": -2.6591613729,
				"y": 1.0604776576,
				"z": 0.0658862176,
				"element": "O" 
			},
			{
				"x": -0.8648532992,
				"y": -0.491047435,
				"z": -0.3858271571,
				"element": "C" 
			},
			{
				"x": -0.2128823148,
				"y": 0.4171094392,
				"z": -1.0856507907,
				"element": "N" 
			},
			{
				"x": 0.9781052985,
				"y": 0.0684908589,
				"z": -1.6333708346,
				"element": "C" 
			},
			{
				"x": 1.5641731903,
				"y": -1.2350365405,
				"z": -1.4908759634,
				"element": "C" 
			},
			{
				"x": 2.8140049747,
				"y": -1.5105803853,
				"z": -2.0985450827,
				"element": "C" 
			},
			{
				"x": 3.446717798,
				"y": -0.5220771295,
				"z": -2.816797898,
				"element": "C" 
			},
			{
				"x": 4.9933723744,
				"y": -0.8557008861,
				"z": -3.5714877389,
				"element": "Cl" 
			},
			{
				"x": 2.8866995605,
				"y": 0.7701627787,
				"z": -2.9699672435,
				"element": "C" 
			},
			{
				"x": 1.675787313,
				"y": 1.0525295953,
				"z": -2.3867856961,
				"element": "C" 
			},
			{
				"x": 0.813886416,
				"y": -2.1703694076,
				"z": -0.725491032,
				"element": "C" 
			},
			{
				"x": 1.4201735241,
				"y": -3.7948816202,
				"z": -0.4777227484,
				"element": "Cl" 
			},
			{
				"x": -0.3913965406,
				"y": -1.813114229,
				"z": -0.172825442,
				"element": "C" 
			},
			{
				"x": -3.9217223975,
				"y": 0.1251729005,
				"z": 2.1919903485,
				"element": "H" 
			},
			{
				"x": -4.3717960632,
				"y": -1.6024949349,
				"z": 2.0046250734,
				"element": "H" 
			},
			{
				"x": -4.7565181526,
				"y": -0.4113663414,
				"z": 0.7178865445,
				"element": "H" 
			},
			{
				"x": 3.2625412445,
				"y": -2.4906554535,
				"z": -1.9958781863,
				"element": "H" 
			},
			{
				"x": 3.4206244463,
				"y": 1.5183839814,
				"z": -3.5448069143,
				"element": "H" 
			},
			{
				"x": 1.2132339869,
				"y": 2.0290471993,
				"z": -2.4802142129,
				"element": "H" 
			},
			{
				"x": -0.9724502328,
				"y": -2.5135088181,
				"z": 0.4111407912,
				"element": "H" 
			}
		],
		 "valence_orbital": [ 
			{
				"type": "occ",
				"energy": -0.30476,
				"method": "rhf"
			},
			{
				"type": "occ",
				"energy": -0.28236,
				"method": "rhf"
			},
			{
				"type": "occ",
				"energy": -0.27727,
				"method": "rhf"
			},
			{
				"type": "occ",
				"energy": -0.27016,
				"method": "rhf"
			},
			{
				"type": "occ",
				"energy": -0.249,
				"method": "rhf"
			},
			{
				"type": "unocc",
				"energy": -0.0857,
				"method": "rhf"
			},
			{
				"type": "unocc",
				"energy": -0.05465,
				"method": "rhf"
			},
			{
				"type": "unocc",
				"energy": -0.00609,
				"method": "rhf"
			},
			{
				"type": "unocc",
				"energy": 0.01291,
				"method": "rhf"
			},
			{
				"type": "unocc",
				"energy": 0.01998,
				"method": "rhf"
			}
		],
		"cosmo_sigma_profile": { 
			"-0.025": 0.0,
			"-0.024": 0.0,
			"-0.023": 0.0,
			"-0.022": 0.0,
			"-0.021": 0.0,
			"-0.02": 0.0,
			"-0.019": 0.0,
			"-0.018": 0.0,
			"-0.017": 0.0,
			"-0.016": 0.0,
			"-0.015": 0.0,
			"-0.014": 0.0,
			"-0.013": 0.0,
			"-0.012": 0.0,
			"-0.011": 0.0,
			"-0.01": 0.0,
			"-0.009": 0.147678330852,
			"-0.008": 2.76009964186,
			"-0.007": 7.94678296645,
			"-0.006": 11.884296968,
			"-0.005": 13.5262571709,
			"-0.004": 18.073921496,
			"-0.003": 20.8470658978,
			"-0.002": 25.9314092342,
			"-0.001": 31.152264912,
			"0.0": 28.5427004427,
			"0.001": 25.0462362661,
			"0.002": 17.2149708952,
			"0.003": 19.4836684221,
			"0.004": 14.1336872607,
			"0.005": 2.8461477719,
			"0.006": 1.71131578394,
			"0.007": 1.51855007181,
			"0.008": 2.42612106888,
			"0.009": 2.08302439058,
			"0.01": 2.89715161443,
			"0.011": 4.11549160625,
			"0.012": 3.17900061816,
			"0.013": 1.75680691389,
			"0.014": 1.24546822716,
			"0.015": 0.623684342984,
			"0.016": 1.42061366459,
			"0.017": 0.185077944587,
			"0.018": 0.0,
			"0.019": 0.0,
			"0.02": 0.0,
			"0.021": 0.0,
			"0.022": 0.0,
			"0.023": 0.0,
			"0.024": 0.0,
			"0.025": 0.0
		}
	}
}
