{
	 "smiles": "CCN(CC)C(=O)C1=CC=C(NC(=O)CCl)C=C1", 
	 "Tm": 389.15, 
	 "num_atms": 35, 
	 "gaussian": { 
		 "optdone": 1, 
		 "sigma_profile": "yes", 
		 "theory": "DFT", 
		 "functional": "B3LYP", 
		 "basiset": "6-31G**", 
		 "properties": { 
			 "R2extent": 8778.5352, 
			 "electric_dipole_moment_norm": 2.76315349736, 
			 "electric_quadrupole_moment_norm": 15.9476758269, 
			 "total_energy": -1225.81141912, 
			 "HOMO_LUMO_gap": 0.1907, 
			 "cosmo_polarized_energy": -16.89, 
			 "cosmo_cavitation_energy": 39.58, 
			 "cosmo_dispersion_energy": -27.96, 
			 "cosmo_repulsion_energy": 2.19, 
			 "cosmo_total_nonelectrostatic_energy": 13.81, 
			 "SMD_solvation_energy": 7.12 
		},
		"coords": [
			{
				"x": -3.0261573185,
				"y": -1.7590473518,
				"z": 3.9882844211,
				"element": "C" 
			},
			{
				"x": -3.2703018054,
				"y": -0.8470705354,
				"z": 2.7808625399,
				"element": "C" 
			},
			{
				"x": -2.0611387257,
				"y": -0.4260853313,
				"z": 2.056253644,
				"element": "N" 
			},
			{
				"x": -1.3091877667,
				"y": 0.7319119675,
				"z": 2.5633091852,
				"element": "C" 
			},
			{
				"x": -0.15702765,
				"y": 0.383534075,
				"z": 3.5144204258,
				"element": "C" 
			},
			{
				"x": -1.555101053,
				"y": -1.3227863253,
				"z": 1.1418041606,
				"element": "C" 
			},
			{
				"x": -2.0284858401,
				"y": -2.4523256616,
				"z": 1.0126795765,
				"element": "O" 
			},
			{
				"x": -0.4184804726,
				"y": -0.8966254099,
				"z": 0.249768906,
				"element": "C" 
			},
			{
				"x": -0.4405641366,
				"y": 0.2779871997,
				"z": -0.5126359917,
				"element": "C" 
			},
			{
				"x": 0.5779678558,
				"y": 0.5838344439,
				"z": -1.4139085459,
				"element": "C" 
			},
			{
				"x": 1.656373271,
				"y": -0.3013857583,
				"z": -1.5570947755,
				"element": "C" 
			},
			{
				"x": 2.7371361037,
				"y": -0.0696137007,
				"z": -2.4347100089,
				"element": "N" 
			},
			{
				"x": 2.954607839,
				"y": 1.0033029119,
				"z": -3.2442378269,
				"element": "C" 
			},
			{
				"x": 2.233058545,
				"y": 1.9843856978,
				"z": -3.359756859,
				"element": "O" 
			},
			{
				"x": 4.2257738743,
				"y": 0.9850934697,
				"z": -4.1022930717,
				"element": "C" 
			},
			{
				"x": 5.3322083705,
				"y": -0.4442142006,
				"z": -3.9223176134,
				"element": "Cl" 
			},
			{
				"x": 1.6791166389,
				"y": -1.4911482764,
				"z": -0.8113830426,
				"element": "C" 
			},
			{
				"x": 0.6455794816,
				"y": -1.7901603222,
				"z": 0.066345149,
				"element": "C" 
			},
			{
				"x": -3.9849996692,
				"y": -2.0632980411,
				"z": 4.4222261281,
				"element": "H" 
			},
			{
				"x": -2.4927650361,
				"y": -2.6588645429,
				"z": 3.6740363588,
				"element": "H" 
			},
			{
				"x": -2.4501260514,
				"y": -1.2595763163,
				"z": 4.7730646768,
				"element": "H" 
			},
			{
				"x": -3.901549352,
				"y": -1.3738028997,
				"z": 2.0620516564,
				"element": "H" 
			},
			{
				"x": -3.7965224668,
				"y": 0.0634040623,
				"z": 3.088756985,
				"element": "H" 
			},
			{
				"x": -0.9144190245,
				"y": 1.3082215643,
				"z": 1.7251899928,
				"element": "H" 
			},
			{
				"x": -2.0313991922,
				"y": 1.3789934861,
				"z": 3.0710849415,
				"element": "H" 
			},
			{
				"x": 0.345713971,
				"y": 1.2999705542,
				"z": 3.8425418713,
				"element": "H" 
			},
			{
				"x": 0.5836212659,
				"y": -0.244659846,
				"z": 3.01056865,
				"element": "H" 
			},
			{
				"x": -0.5078475039,
				"y": -0.1484227576,
				"z": 4.4024297808,
				"element": "H" 
			},
			{
				"x": -1.2825462891,
				"y": 0.9588011226,
				"z": -0.4286591634,
				"element": "H" 
			},
			{
				"x": 0.5465690057,
				"y": 1.4878213488,
				"z": -2.0053061773,
				"element": "H" 
			},
			{
				"x": 3.4440772523,
				"y": -0.7934920379,
				"z": -2.4651538261,
				"element": "H" 
			},
			{
				"x": 4.8084696038,
				"y": 1.8746147578,
				"z": -3.8626198579,
				"element": "H" 
			},
			{
				"x": 3.9287955245,
				"y": 1.0300845018,
				"z": -5.150410671,
				"element": "H" 
			},
			{
				"x": 2.5051420275,
				"y": -2.1882299112,
				"z": -0.9317492227,
				"element": "H" 
			},
			{
				"x": 0.6469087235,
				"y": -2.7276519372,
				"z": 0.6125576045,
				"element": "H" 
			}
		],
		 "valence_orbital": [ 
			{
				"type": "occ",
				"energy": -0.27163,
				"method": "rhf"
			},
			{
				"type": "occ",
				"energy": -0.26191,
				"method": "rhf"
			},
			{
				"type": "occ",
				"energy": -0.25115,
				"method": "rhf"
			},
			{
				"type": "occ",
				"energy": -0.23365,
				"method": "rhf"
			},
			{
				"type": "occ",
				"energy": -0.22722,
				"method": "rhf"
			},
			{
				"type": "unocc",
				"energy": -0.03652,
				"method": "rhf"
			},
			{
				"type": "unocc",
				"energy": -0.01245,
				"method": "rhf"
			},
			{
				"type": "unocc",
				"energy": 0.00407,
				"method": "rhf"
			},
			{
				"type": "unocc",
				"energy": 0.01472,
				"method": "rhf"
			},
			{
				"type": "unocc",
				"energy": 0.05353,
				"method": "rhf"
			}
		],
		"cosmo_sigma_profile": { 
			"-0.025": 0.0,
			"-0.024": 0.0,
			"-0.023": 0.0,
			"-0.022": 0.0,
			"-0.021": 0.0,
			"-0.02": 0.0,
			"-0.019": 0.0,
			"-0.018": 0.0,
			"-0.017": 0.0,
			"-0.016": 0.0,
			"-0.015": 0.0,
			"-0.014": 0.198866310508,
			"-0.013": 0.766843282683,
			"-0.012": 1.01924827978,
			"-0.011": 1.57687492098,
			"-0.01": 1.66942252724,
			"-0.009": 4.87676452005,
			"-0.008": 5.19622795576,
			"-0.007": 7.05858800549,
			"-0.006": 12.1552317383,
			"-0.005": 17.6568898029,
			"-0.004": 22.0589229529,
			"-0.003": 25.5214283402,
			"-0.002": 29.9579400162,
			"-0.001": 29.1551280944,
			"0.0": 30.3912006244,
			"0.001": 28.369372305,
			"0.002": 16.9025944421,
			"0.003": 17.2526767421,
			"0.004": 16.4846406613,
			"0.005": 11.665173606,
			"0.006": 4.97603565904,
			"0.007": 2.62575204688,
			"0.008": 2.75704835011,
			"0.009": 3.57234869686,
			"0.01": 3.1894235775,
			"0.011": 4.08504797301,
			"0.012": 4.70550902899,
			"0.013": 4.01462076306,
			"0.014": 4.06507644133,
			"0.015": 1.38421682593,
			"0.016": 0.00758551314378,
			"0.017": 0.0,
			"0.018": 0.0,
			"0.019": 0.0,
			"0.02": 0.0,
			"0.021": 0.0,
			"0.022": 0.0,
			"0.023": 0.0,
			"0.024": 0.0,
			"0.025": 0.0
		}
	}
}
