{
	 "smiles": "O=CC1=CN2C=CC=NC2=N1", 
	 "Tm": 463.15, 
	 "num_atms": 16, 
	 "gaussian": { 
		 "optdone": 1, 
		 "sigma_profile": "yes", 
		 "theory": "DFT", 
		 "functional": "B3LYP", 
		 "basiset": "6-31G**", 
		 "properties": { 
			 "R2extent": 2118.7099, 
			 "electric_dipole_moment_norm": 5.87359801399, 
			 "electric_quadrupole_moment_norm": 16.1663914325, 
			 "total_energy": -509.206628703, 
			 "HOMO_LUMO_gap": 0.16112, 
			 "cosmo_polarized_energy": -17.22, 
			 "cosmo_cavitation_energy": 21.44, 
			 "cosmo_dispersion_energy": -15.97, 
			 "cosmo_repulsion_energy": 1.25, 
			 "cosmo_total_nonelectrostatic_energy": 6.72, 
			 "SMD_solvation_energy": 2.16 
		},
		"coords": [
			{
				"x": -0.1066754727,
				"y": 0.2970795215,
				"z": -4.5227156767,
				"element": "O" 
			},
			{
				"x": -0.689093631,
				"y": 0.5722618667,
				"z": -3.4894397782,
				"element": "C" 
			},
			{
				"x": -0.0371015523,
				"y": 0.5971825976,
				"z": -2.1699234068,
				"element": "C" 
			},
			{
				"x": 1.2986117567,
				"y": 0.3191292716,
				"z": -1.9144282046,
				"element": "C" 
			},
			{
				"x": 1.437481868,
				"y": 0.4684891187,
				"z": -0.5621313203,
				"element": "N" 
			},
			{
				"x": 2.5066609001,
				"y": 0.3321915635,
				"z": 0.2833490536,
				"element": "C" 
			},
			{
				"x": 2.3023934495,
				"y": 0.5590142142,
				"z": 1.6136466818,
				"element": "C" 
			},
			{
				"x": 0.9956399155,
				"y": 0.9244666019,
				"z": 2.0579749924,
				"element": "C" 
			},
			{
				"x": -0.0416304993,
				"y": 1.0598739802,
				"z": 1.2614760719,
				"element": "N" 
			},
			{
				"x": 0.1512292857,
				"y": 0.837833056,
				"z": -0.0533297184,
				"element": "C" 
			},
			{
				"x": -0.7312950341,
				"y": 0.9123303736,
				"z": -1.0344472893,
				"element": "N" 
			},
			{
				"x": -1.7675628174,
				"y": 0.8276323365,
				"z": -3.464573653,
				"element": "H" 
			},
			{
				"x": 2.109977855,
				"y": 0.0413729246,
				"z": -2.5685529745,
				"element": "H" 
			},
			{
				"x": 3.4557259926,
				"y": 0.0507689852,
				"z": -0.1584393838,
				"element": "H" 
			},
			{
				"x": 3.1206055356,
				"y": 0.4622752439,
				"z": 2.3166756889,
				"element": "H" 
			},
			{
				"x": 0.8238324482,
				"y": 1.1071983443,
				"z": 3.1169589169,
				"element": "H" 
			}
		],
		 "valence_orbital": [ 
			{
				"type": "occ",
				"energy": -0.30028,
				"method": "rhf"
			},
			{
				"type": "occ",
				"energy": -0.28333,
				"method": "rhf"
			},
			{
				"type": "occ",
				"energy": -0.2732,
				"method": "rhf"
			},
			{
				"type": "occ",
				"energy": -0.25651,
				"method": "rhf"
			},
			{
				"type": "occ",
				"energy": -0.24124,
				"method": "rhf"
			},
			{
				"type": "unocc",
				"energy": -0.08012,
				"method": "rhf"
			},
			{
				"type": "unocc",
				"energy": -0.04217,
				"method": "rhf"
			},
			{
				"type": "unocc",
				"energy": -0.00943,
				"method": "rhf"
			},
			{
				"type": "unocc",
				"energy": 0.07156,
				"method": "rhf"
			},
			{
				"type": "unocc",
				"energy": 0.0951,
				"method": "rhf"
			}
		],
		"cosmo_sigma_profile": { 
			"-0.025": 0.0,
			"-0.024": 0.0,
			"-0.023": 0.0,
			"-0.022": 0.0,
			"-0.021": 0.0,
			"-0.02": 0.0,
			"-0.019": 0.0,
			"-0.018": 0.0,
			"-0.017": 0.0,
			"-0.016": 0.0,
			"-0.015": 0.0,
			"-0.014": 0.0,
			"-0.013": 0.0667064617551,
			"-0.012": 1.43067376494,
			"-0.011": 3.62552675156,
			"-0.01": 3.92708401866,
			"-0.009": 4.24015973051,
			"-0.008": 8.53427538521,
			"-0.007": 8.10066359549,
			"-0.006": 8.59173001043,
			"-0.005": 8.9612798212,
			"-0.004": 11.6212563578,
			"-0.003": 12.4516807343,
			"-0.002": 11.367266393,
			"-0.001": 12.2076403667,
			"0.0": 13.7727562689,
			"0.001": 9.18925560955,
			"0.002": 4.58662119854,
			"0.003": 3.8043394056,
			"0.004": 4.33787847001,
			"0.005": 3.74333814719,
			"0.006": 3.19644799674,
			"0.007": 3.69617761458,
			"0.008": 3.832866899,
			"0.009": 4.14697644135,
			"0.01": 4.31488367818,
			"0.011": 6.73441456597,
			"0.012": 5.1654533445,
			"0.013": 3.54362384638,
			"0.014": 2.26611079738,
			"0.015": 1.70781265393,
			"0.016": 0.731425694619,
			"0.017": 0.0470905960684,
			"0.018": 0.0,
			"0.019": 0.0,
			"0.02": 0.0,
			"0.021": 0.0,
			"0.022": 0.0,
			"0.023": 0.0,
			"0.024": 0.0,
			"0.025": 0.0
		}
	}
}
