{
	 "smiles": "COC1=C(OC)C(=CC=C1)C(O)=O", 
	 "Tm": 396.15, 
	 "num_atms": 23, 
	 "gaussian": { 
		 "optdone": 1, 
		 "sigma_profile": "yes", 
		 "theory": "DFT", 
		 "functional": "B3LYP", 
		 "basiset": "6-31G**", 
		 "properties": { 
			 "R2extent": 2559.9817, 
			 "electric_dipole_moment_norm": 7.14175576592, 
			 "electric_quadrupole_moment_norm": 13.448480168, 
			 "total_energy": -649.86408766, 
			 "HOMO_LUMO_gap": 0.19115, 
			 "cosmo_polarized_energy": -14.39, 
			 "cosmo_cavitation_energy": 26.7, 
			 "cosmo_dispersion_energy": -19.53, 
			 "cosmo_repulsion_energy": 1.53, 
			 "cosmo_total_nonelectrostatic_energy": 8.7, 
			 "SMD_solvation_energy": 7.26 
		},
		"coords": [
			{
				"x": -2.1779742887,
				"y": 2.2011265672,
				"z": -0.891615635,
				"element": "C" 
			},
			{
				"x": -0.9250277955,
				"y": 1.7049155579,
				"z": -0.4402091508,
				"element": "O" 
			},
			{
				"x": -0.7246282452,
				"y": 0.3552582568,
				"z": -0.4534679423,
				"element": "C" 
			},
			{
				"x": 0.5547106971,
				"y": -0.0800540216,
				"z": -0.0432057341,
				"element": "C" 
			},
			{
				"x": 1.5152638863,
				"y": 0.861447361,
				"z": 0.2986455432,
				"element": "O" 
			},
			{
				"x": 1.2968466761,
				"y": 1.551080543,
				"z": 1.5468813289,
				"element": "C" 
			},
			{
				"x": 0.8754096321,
				"y": -1.4450244333,
				"z": -0.040295149,
				"element": "C" 
			},
			{
				"x": -0.0975277587,
				"y": -2.3763840815,
				"z": -0.437653482,
				"element": "C" 
			},
			{
				"x": -1.3576810557,
				"y": -1.9509971173,
				"z": -0.8293809344,
				"element": "C" 
			},
			{
				"x": -1.6776197402,
				"y": -0.588867294,
				"z": -0.8408501894,
				"element": "C" 
			},
			{
				"x": 2.2221402791,
				"y": -2.0045925615,
				"z": 0.3612541783,
				"element": "C" 
			},
			{
				"x": 3.2128129108,
				"y": -1.1241022642,
				"z": 0.5861525208,
				"element": "O" 
			},
			{
				"x": 2.4080529256,
				"y": -3.1971248868,
				"z": 0.4689958679,
				"element": "O" 
			},
			{
				"x": -2.369815639,
				"y": 1.9167245569,
				"z": -1.9334492071,
				"element": "H" 
			},
			{
				"x": -3.0042551242,
				"y": 1.8471612969,
				"z": -0.26230833,
				"element": "H" 
			},
			{
				"x": -2.1117868361,
				"y": 3.2875468889,
				"z": -0.821494215,
				"element": "H" 
			},
			{
				"x": 0.3695418745,
				"y": 2.1246381011,
				"z": 1.5057081559,
				"element": "H" 
			},
			{
				"x": 2.1458638948,
				"y": 2.2253294557,
				"z": 1.6686105241,
				"element": "H" 
			},
			{
				"x": 1.2676099531,
				"y": 0.8381508974,
				"z": 2.378246484,
				"element": "H" 
			},
			{
				"x": 0.1746026441,
				"y": -3.4251634891,
				"z": -0.4214489453,
				"element": "H" 
			},
			{
				"x": -2.1065727491,
				"y": -2.6747404813,
				"z": -1.1358114311,
				"element": "H" 
			},
			{
				"x": -2.6640440633,
				"y": -0.271880202,
				"z": -1.1577038432,
				"element": "H" 
			},
			{
				"x": 2.8661779218,
				"y": -0.2190486503,
				"z": 0.4347995857,
				"element": "H" 
			}
		],
		 "valence_orbital": [ 
			{
				"type": "occ",
				"energy": -0.30317,
				"method": "rhf"
			},
			{
				"type": "occ",
				"energy": -0.29625,
				"method": "rhf"
			},
			{
				"type": "occ",
				"energy": -0.26208,
				"method": "rhf"
			},
			{
				"type": "occ",
				"energy": -0.2591,
				"method": "rhf"
			},
			{
				"type": "occ",
				"energy": -0.23417,
				"method": "rhf"
			},
			{
				"type": "unocc",
				"energy": -0.04302,
				"method": "rhf"
			},
			{
				"type": "unocc",
				"energy": -0.00715,
				"method": "rhf"
			},
			{
				"type": "unocc",
				"energy": 0.06229,
				"method": "rhf"
			},
			{
				"type": "unocc",
				"energy": 0.06648,
				"method": "rhf"
			},
			{
				"type": "unocc",
				"energy": 0.08378,
				"method": "rhf"
			}
		],
		"cosmo_sigma_profile": { 
			"-0.025": 0.0,
			"-0.024": 0.0,
			"-0.023": 0.0,
			"-0.022": 0.0,
			"-0.021": 0.0,
			"-0.02": 0.0,
			"-0.019": 0.0,
			"-0.018": 0.0,
			"-0.017": 0.0,
			"-0.016": 0.0,
			"-0.015": 0.0,
			"-0.014": 0.0,
			"-0.013": 0.0,
			"-0.012": 0.0,
			"-0.011": 0.0,
			"-0.01": 0.0,
			"-0.009": 0.294951954697,
			"-0.008": 1.81803682846,
			"-0.007": 6.67320989803,
			"-0.006": 19.1816032416,
			"-0.005": 23.1382877865,
			"-0.004": 22.5136332903,
			"-0.003": 20.6981049712,
			"-0.002": 10.2845022313,
			"-0.001": 10.4979664738,
			"0.0": 11.6102641646,
			"0.001": 12.5765534451,
			"0.002": 12.9910564662,
			"0.003": 12.0230138412,
			"0.004": 8.83193713627,
			"0.005": 3.96847144075,
			"0.006": 3.79068659939,
			"0.007": 3.55283184539,
			"0.008": 4.576674766,
			"0.009": 3.67853470459,
			"0.01": 5.23839197308,
			"0.011": 5.6736589318,
			"0.012": 5.97375191748,
			"0.013": 2.67768663602,
			"0.014": 0.606039785323,
			"0.015": 0.0,
			"0.016": 0.0,
			"0.017": 0.0,
			"0.018": 0.0,
			"0.019": 0.0,
			"0.02": 0.0,
			"0.021": 0.0,
			"0.022": 0.0,
			"0.023": 0.0,
			"0.024": 0.0,
			"0.025": 0.0
		}
	}
}
