{
	 "smiles": "COC1=CC=C(C=C1)C(=O)NC(C(C)C)C(O)=O", 
	 "Tm": 437.15, 
	 "num_atms": 35, 
	 "gaussian": { 
		 "optdone": 1, 
		 "sigma_profile": "yes", 
		 "theory": "DFT", 
		 "functional": "B3LYP", 
		 "basiset": "6-31G**", 
		 "properties": { 
			 "R2extent": 6059.4963, 
			 "electric_dipole_moment_norm": 4.43947586208, 
			 "electric_quadrupole_moment_norm": 27.4464288172, 
			 "total_energy": -861.300682685, 
			 "HOMO_LUMO_gap": 0.19941, 
			 "cosmo_polarized_energy": -18.52, 
			 "cosmo_cavitation_energy": 38.26, 
			 "cosmo_dispersion_energy": -26.13, 
			 "cosmo_repulsion_energy": 2.04, 
			 "cosmo_total_nonelectrostatic_energy": 14.17, 
			 "SMD_solvation_energy": 8.85 
		},
		"coords": [
			{
				"x": -1.0306705512,
				"y": -5.4031217004,
				"z": -2.7833499984,
				"element": "C" 
			},
			{
				"x": -1.5902018768,
				"y": -4.1136057743,
				"z": -2.5786745044,
				"element": "O" 
			},
			{
				"x": -1.1873858654,
				"y": -3.397057491,
				"z": -1.4939401625,
				"element": "C" 
			},
			{
				"x": -1.7943700481,
				"y": -2.1414241182,
				"z": -1.3347143295,
				"element": "C" 
			},
			{
				"x": -1.4424597385,
				"y": -1.3269224135,
				"z": -0.2669970567,
				"element": "C" 
			},
			{
				"x": -0.4838030402,
				"y": -1.7445296396,
				"z": 0.67240421,
				"element": "C" 
			},
			{
				"x": 0.0885696718,
				"y": -3.0127403186,
				"z": 0.5202385115,
				"element": "C" 
			},
			{
				"x": -0.2407992474,
				"y": -3.8337075172,
				"z": -0.5562006798,
				"element": "C" 
			},
			{
				"x": -0.1057680054,
				"y": -0.960861491,
				"z": 1.8911524203,
				"element": "C" 
			},
			{
				"x": 0.1335220099,
				"y": -1.525454728,
				"z": 2.9521718284,
				"element": "O" 
			},
			{
				"x": -0.0760143021,
				"y": 0.4302437755,
				"z": 1.8246728822,
				"element": "N" 
			},
			{
				"x": 0.3759372447,
				"y": 1.2150585052,
				"z": 0.6828400927,
				"element": "C" 
			},
			{
				"x": -0.3339265305,
				"y": 2.6022578914,
				"z": 0.5919938848,
				"element": "C" 
			},
			{
				"x": -0.1477668833,
				"y": 3.4371167456,
				"z": 1.8688714122,
				"element": "C" 
			},
			{
				"x": -1.8207591621,
				"y": 2.4415621123,
				"z": 0.2519604859,
				"element": "C" 
			},
			{
				"x": 1.8904660068,
				"y": 1.4244815122,
				"z": 0.7538502061,
				"element": "C" 
			},
			{
				"x": 2.4020200649,
				"y": 1.7616392434,
				"z": -0.4528000966,
				"element": "O" 
			},
			{
				"x": 2.5632493007,
				"y": 1.3418918981,
				"z": 1.7569152705,
				"element": "O" 
			},
			{
				"x": -1.2561536383,
				"y": -6.0784042619,
				"z": -1.9485016969,
				"element": "H" 
			},
			{
				"x": 0.0566345693,
				"y": -5.3544918845,
				"z": -2.9229762523,
				"element": "H" 
			},
			{
				"x": -1.4924433809,
				"y": -5.7896045359,
				"z": -3.6929599437,
				"element": "H" 
			},
			{
				"x": -2.5448131698,
				"y": -1.8344047094,
				"z": -2.0556919451,
				"element": "H" 
			},
			{
				"x": -1.9443218825,
				"y": -0.3737648932,
				"z": -0.14213996,
				"element": "H" 
			},
			{
				"x": 0.7983469247,
				"y": -3.3523353963,
				"z": 1.2672717363,
				"element": "H" 
			},
			{
				"x": 0.231850813,
				"y": -4.8040352264,
				"z": -0.6502012142,
				"element": "H" 
			},
			{
				"x": 0.2807491185,
				"y": 0.7823013122,
				"z": 2.7082509002,
				"element": "H" 
			},
			{
				"x": 0.1677281257,
				"y": 0.6630030341,
				"z": -0.2351935562,
				"element": "H" 
			},
			{
				"x": 0.15331827,
				"y": 3.1296252442,
				"z": -0.2378261223,
				"element": "H" 
			},
			{
				"x": 0.9060201032,
				"y": 3.5492354256,
				"z": 2.1422143287,
				"element": "H" 
			},
			{
				"x": -0.6706343893,
				"y": 2.9817798591,
				"z": 2.7170335033,
				"element": "H" 
			},
			{
				"x": -0.5660121855,
				"y": 4.4386260081,
				"z": 1.7285125962,
				"element": "H" 
			},
			{
				"x": -1.9616874452,
				"y": 1.942162929,
				"z": -0.7126750187,
				"element": "H" 
			},
			{
				"x": -2.334801028,
				"y": 1.8578216428,
				"z": 1.0223368854,
				"element": "H" 
			},
			{
				"x": -2.3071575589,
				"y": 3.4205506297,
				"z": 0.191708074,
				"element": "H" 
			},
			{
				"x": 3.3527377062,
				"y": 1.9138083308,
				"z": -0.3159566912,
				"element": "H" 
			}
		],
		 "valence_orbital": [ 
			{
				"type": "occ",
				"energy": -0.28606,
				"method": "rhf"
			},
			{
				"type": "occ",
				"energy": -0.26155,
				"method": "rhf"
			},
			{
				"type": "occ",
				"energy": -0.25878,
				"method": "rhf"
			},
			{
				"type": "occ",
				"energy": -0.24149,
				"method": "rhf"
			},
			{
				"type": "occ",
				"energy": -0.22382,
				"method": "rhf"
			},
			{
				"type": "unocc",
				"energy": -0.02441,
				"method": "rhf"
			},
			{
				"type": "unocc",
				"energy": -0.01079,
				"method": "rhf"
			},
			{
				"type": "unocc",
				"energy": 0.0017,
				"method": "rhf"
			},
			{
				"type": "unocc",
				"energy": 0.05389,
				"method": "rhf"
			},
			{
				"type": "unocc",
				"energy": 0.07025,
				"method": "rhf"
			}
		],
		"cosmo_sigma_profile": { 
			"-0.025": 0.0,
			"-0.024": 0.0,
			"-0.023": 0.0,
			"-0.022": 0.0,
			"-0.021": 0.0,
			"-0.02": 0.0,
			"-0.019": 0.206692065366,
			"-0.018": 0.936487631101,
			"-0.017": 0.77567751557,
			"-0.016": 0.849265658802,
			"-0.015": 0.978835965295,
			"-0.014": 0.598257507389,
			"-0.013": 0.63610101367,
			"-0.012": 0.620558367455,
			"-0.011": 1.492921711,
			"-0.01": 0.911598257976,
			"-0.009": 0.774532513938,
			"-0.008": 1.3210987623,
			"-0.007": 4.5910352083,
			"-0.006": 15.6505984114,
			"-0.005": 20.0209913011,
			"-0.004": 25.9898960675,
			"-0.003": 30.696408844,
			"-0.002": 26.3975113734,
			"-0.001": 25.9902889192,
			"0.0": 23.2859163935,
			"0.001": 20.0286721894,
			"0.002": 14.3976392765,
			"0.003": 16.430936129,
			"0.004": 15.4993570423,
			"0.005": 8.17199380839,
			"0.006": 5.45659143809,
			"0.007": 4.81466857304,
			"0.008": 5.86412835217,
			"0.009": 5.28625205097,
			"0.01": 5.05625317798,
			"0.011": 5.616808885,
			"0.012": 4.05994886242,
			"0.013": 5.10785397358,
			"0.014": 2.67151094806,
			"0.015": 0.00670139365986,
			"0.016": 0.0,
			"0.017": 0.0,
			"0.018": 0.0,
			"0.019": 0.0,
			"0.02": 0.0,
			"0.021": 0.0,
			"0.022": 0.0,
			"0.023": 0.0,
			"0.024": 0.0,
			"0.0": 0.0
		}
	}
}
