{
	 "smiles": "S1N=CC2=CC=CC=C12", 
	 "Tm": 311.15, 
	 "num_atms": 14, 
	 "gaussian": { 
		 "optdone": 1, 
		 "sigma_profile": "yes", 
		 "theory": "DFT", 
		 "functional": "B3LYP", 
		 "basiset": "6-31G**", 
		 "properties": { 
			 "R2extent": 1672.4827, 
			 "electric_dipole_moment_norm": 2.91631346395, 
			 "electric_quadrupole_moment_norm": 7.51041019785, 
			 "total_energy": -722.687017624, 
			 "HOMO_LUMO_gap": 0.18575, 
			 "cosmo_polarized_energy": -6.46, 
			 "cosmo_cavitation_energy": 19.55, 
			 "cosmo_dispersion_energy": -15.47, 
			 "cosmo_repulsion_energy": 1.19, 
			 "cosmo_total_nonelectrostatic_energy": 5.26, 
			 "SMD_solvation_energy": 1.78 
		},
		"coords": [
			{
				"x": -2.8046100137,
				"y": -0.7324262408,
				"z": 0.6849569099,
				"element": "S" 
			},
			{
				"x": -1.9104547066,
				"y": -0.3480770134,
				"z": 2.0786088317,
				"element": "N" 
			},
			{
				"x": -0.8863218794,
				"y": 0.3969534979,
				"z": 1.7608319865,
				"element": "C" 
			},
			{
				"x": -0.714862256,
				"y": 0.734480815,
				"z": 0.3712036142,
				"element": "C" 
			},
			{
				"x": 0.2743316203,
				"y": 1.5066093909,
				"z": -0.2657317334,
				"element": "C" 
			},
			{
				"x": 0.2093298615,
				"y": 1.6812503743,
				"z": -1.639367887,
				"element": "C" 
			},
			{
				"x": -0.8306012584,
				"y": 1.0957669432,
				"z": -2.3906769676,
				"element": "C" 
			},
			{
				"x": -1.8175184603,
				"y": 0.3298528047,
				"z": -1.7830884327,
				"element": "C" 
			},
			{
				"x": -1.7527306973,
				"y": 0.1526330723,
				"z": -0.3942023073,
				"element": "C" 
			},
			{
				"x": -0.2184599789,
				"y": 0.7233204885,
				"z": 2.5550297825,
				"element": "H" 
			},
			{
				"x": 1.074150251,
				"y": 1.9563280205,
				"z": 0.3157073626,
				"element": "H" 
			},
			{
				"x": 0.9645810527,
				"y": 2.274018108,
				"z": -2.1461813319,
				"element": "H" 
			},
			{
				"x": -0.8604181803,
				"y": 1.246749225,
				"z": -3.4658615243,
				"element": "H" 
			},
			{
				"x": -2.6137153545,
				"y": -0.1164594861,
				"z": -2.3705283032,
				"element": "H" 
			}
		],
		 "valence_orbital": [ 
			{
				"type": "occ",
				"energy": -0.34337,
				"method": "rhf"
			},
			{
				"type": "occ",
				"energy": -0.29586,
				"method": "rhf"
			},
			{
				"type": "occ",
				"energy": -0.29088,
				"method": "rhf"
			},
			{
				"type": "occ",
				"energy": -0.25782,
				"method": "rhf"
			},
			{
				"type": "occ",
				"energy": -0.23287,
				"method": "rhf"
			},
			{
				"type": "unocc",
				"energy": -0.04712,
				"method": "rhf"
			},
			{
				"type": "unocc",
				"energy": -0.01242,
				"method": "rhf"
			},
			{
				"type": "unocc",
				"energy": 0.00636,
				"method": "rhf"
			},
			{
				"type": "unocc",
				"energy": 0.03797,
				"method": "rhf"
			},
			{
				"type": "unocc",
				"energy": 0.08055,
				"method": "rhf"
			}
		],
		"cosmo_sigma_profile": { 
			"-0.025": 0.0,
			"-0.024": 0.0,
			"-0.023": 0.0,
			"-0.022": 0.0,
			"-0.021": 0.0,
			"-0.02": 0.0,
			"-0.019": 0.0,
			"-0.018": 0.0,
			"-0.017": 0.0,
			"-0.016": 0.0,
			"-0.015": 0.0,
			"-0.014": 0.0,
			"-0.013": 0.0,
			"-0.012": 0.0,
			"-0.011": 0.0,
			"-0.01": 0.0,
			"-0.009": 0.200300238197,
			"-0.008": 3.40567912038,
			"-0.007": 8.28407671142,
			"-0.006": 11.3653954904,
			"-0.005": 11.3127860608,
			"-0.004": 9.45174069265,
			"-0.003": 7.81110261873,
			"-0.002": 7.24682560655,
			"-0.001": 8.6909620077,
			"0.0": 13.1106217812,
			"0.001": 15.5414119348,
			"0.002": 16.0861322399,
			"0.003": 16.9913794923,
			"0.004": 15.6789561487,
			"0.005": 3.24363571948,
			"0.006": 1.98364806813,
			"0.007": 1.4888238749,
			"0.008": 0.918687097625,
			"0.009": 1.33477106143,
			"0.01": 1.51515636344,
			"0.011": 0.911596137388,
			"0.012": 1.20944238405,
			"0.013": 1.15740780509,
			"0.014": 1.00782015706,
			"0.015": 0.446556933778,
			"0.016": 0.0,
			"0.017": 0.0,
			"0.018": 0.0,
			"0.019": 0.0,
			"0.02": 0.0,
			"0.021": 0.0,
			"0.022": 0.0,
			"0.023": 0.0,
			"0.024": 0.0,
			"0.025": 0.0
		}
	}
}
