{
	 "smiles": "CC1=CC(I)=CN=C1NCC(=O)OC(C)(C)C", 
	 "Tm": 372.15, 
	 "num_atms": 34, 
	 "gaussian": { 
		 "optdone": 1, 
		 "sigma_profile": "no", 
		 "theory": "DFT", 
		 "functional": "B3LYP", 
		 "basiset": "6-31G**", 
		 "properties": { 
			 "R2extent": 7123.1238, 
			 "electric_dipole_moment_norm": 4.36680759709, 
			 "electric_quadrupole_moment_norm": 9.06190158024, 
			 "total_energy": -738.899504138, 
			 "HOMO_LUMO_gap": 0.17171, 
			 "cosmo_polarized_energy": -104979.68, 
			 "cosmo_cavitation_energy": 40.13, 
			 "cosmo_dispersion_energy": -29.83, 
			 "cosmo_repulsion_energy": 2.32, 
			 "cosmo_total_nonelectrostatic_energy": 12.62, 
			 "SMD_solvation_energy": 5.01 
		},
		"coords": [
			{
				"x": 2.1626321799,
				"y": -1.76331722,
				"z": -3.2533436678,
				"element": "C" 
			},
			{
				"x": 2.1088425635,
				"y": -0.2777893742,
				"z": -3.0116864547,
				"element": "C" 
			},
			{
				"x": 2.7308493269,
				"y": 0.6300875769,
				"z": -3.8551906744,
				"element": "C" 
			},
			{
				"x": 2.6561724163,
				"y": 2.004129596,
				"z": -3.5858507122,
				"element": "C" 
			},
			{
				"x": 3.5992060887,
				"y": 3.410514464,
				"z": -4.8573581133,
				"element": "I" 
			},
			{
				"x": 1.9511326236,
				"y": 2.426842664,
				"z": -2.4662453762,
				"element": "C" 
			},
			{
				"x": 1.3394128116,
				"y": 1.5744928072,
				"z": -1.635471944,
				"element": "N" 
			},
			{
				"x": 1.4104713467,
				"y": 0.2588989686,
				"z": -1.8908147963,
				"element": "C" 
			},
			{
				"x": 0.7847906987,
				"y": -0.5742504788,
				"z": -1.0038763189,
				"element": "N" 
			},
			{
				"x": -0.0251604271,
				"y": -0.0830715594,
				"z": 0.0816407067,
				"element": "C" 
			},
			{
				"x": -0.756514896,
				"y": -1.2563322948,
				"z": 0.7168811486,
				"element": "C" 
			},
			{
				"x": -0.6934877096,
				"y": -2.3937148181,
				"z": 0.2872054709,
				"element": "O" 
			},
			{
				"x": -1.4560462951,
				"y": -0.8436865924,
				"z": 1.7772080035,
				"element": "O" 
			},
			{
				"x": -2.2828531344,
				"y": -1.7725523179,
				"z": 2.583293148,
				"element": "C" 
			},
			{
				"x": -2.8725024069,
				"y": -0.8482070641,
				"z": 3.6501324553,
				"element": "C" 
			},
			{
				"x": -1.3884341044,
				"y": -2.8422607219,
				"z": 3.2165762748,
				"element": "C" 
			},
			{
				"x": -3.3855678683,
				"y": -2.3747546494,
				"z": 1.7076947034,
				"element": "C" 
			},
			{
				"x": 1.1608522321,
				"y": -2.1873090002,
				"z": -3.4042512029,
				"element": "H" 
			},
			{
				"x": 2.7547046278,
				"y": -1.9952457987,
				"z": -4.1420572488,
				"element": "H" 
			},
			{
				"x": 2.6125460567,
				"y": -2.2930225533,
				"z": -2.4038938514,
				"element": "H" 
			},
			{
				"x": 3.2748077382,
				"y": 0.2678699583,
				"z": -4.7220744153,
				"element": "H" 
			},
			{
				"x": 1.8688083344,
				"y": 3.482845677,
				"z": -2.2211702313,
				"element": "H" 
			},
			{
				"x": 0.6729114224,
				"y": -1.5564858063,
				"z": -1.2102397567,
				"element": "H" 
			},
			{
				"x": 0.5748054825,
				"y": 0.4240844532,
				"z": 0.8477475707,
				"element": "H" 
			},
			{
				"x": -0.7637610978,
				"y": 0.6577842851,
				"z": -0.2545027876,
				"element": "H" 
			},
			{
				"x": -3.516229839,
				"y": -1.4195869118,
				"z": 4.3252899034,
				"element": "H" 
			},
			{
				"x": -2.0782638574,
				"y": -0.3820091933,
				"z": 4.2400160068,
				"element": "H" 
			},
			{
				"x": -3.4695551239,
				"y": -0.0563356986,
				"z": 3.1890540784,
				"element": "H" 
			},
			{
				"x": -0.9553849384,
				"y": -3.4959552816,
				"z": 2.4588745486,
				"element": "H" 
			},
			{
				"x": -0.580332284,
				"y": -2.3747615462,
				"z": 3.7876496986,
				"element": "H" 
			},
			{
				"x": -1.9823940636,
				"y": -3.450410646,
				"z": 3.9062883775,
				"element": "H" 
			},
			{
				"x": -4.0649289619,
				"y": -2.9630106322,
				"z": 2.3327659746,
				"element": "H" 
			},
			{
				"x": -2.9693354995,
				"y": -3.0246506401,
				"z": 0.9373676237,
				"element": "H" 
			},
			{
				"x": -3.9680934426,
				"y": -1.5818296512,
				"z": 1.2284418583,
				"element": "H" 
			}
		],
		 "valence_orbital": [ 
			{
				"type": "occ",
				"energy": -0.27783,
				"method": "rhf"
			},
			{
				"type": "occ",
				"energy": -0.26558,
				"method": "rhf"
			},
			{
				"type": "occ",
				"energy": -0.25987,
				"method": "rhf"
			},
			{
				"type": "occ",
				"energy": -0.25458,
				"method": "rhf"
			},
			{
				"type": "occ",
				"energy": -0.20172,
				"method": "rhf"
			},
			{
				"type": "unocc",
				"energy": -0.03001,
				"method": "rhf"
			},
			{
				"type": "unocc",
				"energy": -0.01696,
				"method": "rhf"
			},
			{
				"type": "unocc",
				"energy": -0.00169,
				"method": "rhf"
			},
			{
				"type": "unocc",
				"energy": 0.00546,
				"method": "rhf"
			},
			{
				"type": "unocc",
				"energy": 0.04788,
				"method": "rhf"
			}
		],
		"cosmo_sigma_profile": { 
			"0.0": 0.0,
			"0.0": 0.0,
			"0.0": 0.0,
			"0.0": 0.0,
			"0.0": 0.0,
			"0.0": 0.0,
			"0.0": 0.0,
			"0.0": 0.0,
			"0.0": 0.0,
			"0.0": 0.0,
			"0.0": 0.0,
			"0.0": 0.0,
			"0.0": 0.0,
			"0.0": 0.0,
			"0.0": 0.0,
			"0.0": 0.0,
			"0.0": 0.0,
			"0.0": 0.0,
			"0.0": 0.0,
			"0.0": 0.0,
			"0.0": 0.0,
			"0.0": 0.0,
			"0.0": 0.0,
			"0.0": 0.0,
			"0.0": 0.0,
			"0.0": 0.0,
			"0.0": 0.0,
			"0.0": 0.0,
			"0.0": 0.0,
			"0.0": 0.0,
			"0.0": 0.0,
			"0.0": 0.0,
			"0.0": 0.0,
			"0.0": 0.0,
			"0.0": 0.0,
			"0.0": 0.0,
			"0.0": 0.0,
			"0.0": 0.0,
			"0.0": 0.0,
			"0.0": 0.0,
			"0.0": 0.0,
			"0.0": 0.0,
			"0.0": 0.0,
			"0.0": 0.0,
			"0.0": 0.0,
			"0.0": 0.0,
			"0.0": 0.0,
			"0.0": 0.0,
			"0.0": 0.0,
			"0.0": 0.0,
			"0.0": 0.0
		}
	}
}
