{
	 "smiles": "CC(C)COC1=CC=C(C=C1)C(C)(C)C(O)=O", 
	 "Tm": 381.15, 
	 "num_atms": 37, 
	 "gaussian": { 
		 "optdone": 1, 
		 "sigma_profile": "yes", 
		 "theory": "DFT", 
		 "functional": "B3LYP", 
		 "basiset": "6-31G**", 
		 "properties": { 
			 "R2extent": 6868.5683, 
			 "electric_dipole_moment_norm": 4.97374921161, 
			 "electric_quadrupole_moment_norm": 21.0291673, 
			 "total_energy": -771.238146444, 
			 "HOMO_LUMO_gap": 0.20946, 
			 "cosmo_polarized_energy": -13.37, 
			 "cosmo_cavitation_energy": 38.73, 
			 "cosmo_dispersion_energy": -26.91, 
			 "cosmo_repulsion_energy": 2.1, 
			 "cosmo_total_nonelectrostatic_energy": 13.92, 
			 "SMD_solvation_energy": 7.86 
		},
		"coords": [
			{
				"x": 1.5696176759,
				"y": 4.6564847866,
				"z": -2.4140995331,
				"element": "C" 
			},
			{
				"x": 2.2242118737,
				"y": 3.5184164889,
				"z": -1.6181269055,
				"element": "C" 
			},
			{
				"x": 2.9443777729,
				"y": 4.041814308,
				"z": -0.3684497505,
				"element": "C" 
			},
			{
				"x": 1.1724968916,
				"y": 2.4681805615,
				"z": -1.2609727471,
				"element": "C" 
			},
			{
				"x": 1.830898247,
				"y": 1.3629000662,
				"z": -0.6404799885,
				"element": "O" 
			},
			{
				"x": 1.0877173941,
				"y": 0.3060602581,
				"z": -0.2132222882,
				"element": "C" 
			},
			{
				"x": -0.3040124277,
				"y": 0.2009310645,
				"z": -0.3443183748,
				"element": "C" 
			},
			{
				"x": -0.9576318152,
				"y": -0.9341510226,
				"z": 0.1343175999,
				"element": "C" 
			},
			{
				"x": -0.2684682329,
				"y": -1.992983574,
				"z": 0.7473373719,
				"element": "C" 
			},
			{
				"x": 1.1268459059,
				"y": -1.8669182097,
				"z": 0.8600160165,
				"element": "C" 
			},
			{
				"x": 1.7959458573,
				"y": -0.7408458086,
				"z": 0.3915022215,
				"element": "C" 
			},
			{
				"x": -1.0543843181,
				"y": -3.1989386343,
				"z": 1.2834078489,
				"element": "C" 
			},
			{
				"x": -1.9725019487,
				"y": -2.7703534713,
				"z": 2.4463442832,
				"element": "C" 
			},
			{
				"x": -0.1372336555,
				"y": -4.3476126007,
				"z": 1.7696484392,
				"element": "C" 
			},
			{
				"x": -1.927662757,
				"y": -3.8229586474,
				"z": 0.1641171549,
				"element": "C" 
			},
			{
				"x": -1.3733909739,
				"y": -3.8504284793,
				"z": -1.0735882359,
				"element": "O" 
			},
			{
				"x": -3.0060952839,
				"y": -4.3292999192,
				"z": 0.3579338455,
				"element": "O" 
			},
			{
				"x": 0.8068857878,
				"y": 5.1699022135,
				"z": -1.8161958402,
				"element": "H" 
			},
			{
				"x": 1.0895239463,
				"y": 4.2898862936,
				"z": -3.3280895667,
				"element": "H" 
			},
			{
				"x": 2.3154110556,
				"y": 5.4023868602,
				"z": -2.7054411129,
				"element": "H" 
			},
			{
				"x": 2.9626675767,
				"y": 3.0223177479,
				"z": -2.2625893587,
				"element": "H" 
			},
			{
				"x": 3.3987996877,
				"y": 3.2232698357,
				"z": 0.1951698685,
				"element": "H" 
			},
			{
				"x": 3.7330134502,
				"y": 4.7503258879,
				"z": -0.6418790397,
				"element": "H" 
			},
			{
				"x": 2.2437433863,
				"y": 4.5631092429,
				"z": 0.2956629009,
				"element": "H" 
			},
			{
				"x": 0.646945151,
				"y": 2.1272978946,
				"z": -2.1644608708,
				"element": "H" 
			},
			{
				"x": 0.4256565002,
				"y": 2.8936974494,
				"z": -0.573502723,
				"element": "H" 
			},
			{
				"x": -0.8824451009,
				"y": 0.9877305858,
				"z": -0.8132063626,
				"element": "H" 
			},
			{
				"x": -2.0372378259,
				"y": -0.9931673988,
				"z": 0.0191788436,
				"element": "H" 
			},
			{
				"x": 1.7109203881,
				"y": -2.6539764407,
				"z": 1.3240946941,
				"element": "H" 
			},
			{
				"x": 2.8733925809,
				"y": -0.6513793975,
				"z": 0.4846866196,
				"element": "H" 
			},
			{
				"x": -2.5740027252,
				"y": -3.6168963637,
				"z": 2.7839155905,
				"element": "H" 
			},
			{
				"x": -2.6576169806,
				"y": -1.9746298629,
				"z": 2.1429968321,
				"element": "H" 
			},
			{
				"x": -1.368137503,
				"y": -2.4003456434,
				"z": 3.2799913116,
				"element": "H" 
			},
			{
				"x": 0.4690467497,
				"y": -4.024665718,
				"z": 2.6212881995,
				"element": "H" 
			},
			{
				"x": -0.751619285,
				"y": -5.1913377928,
				"z": 2.0944894488,
				"element": "H" 
			},
			{
				"x": 0.5335690835,
				"y": -4.7019452467,
				"z": 0.9808321854,
				"element": "H" 
			},
			{
				"x": -0.5643461289,
				"y": -3.3135773138,
				"z": -1.0677085779,
				"element": "H" 
			}
		],
		 "valence_orbital": [ 
			{
				"type": "occ",
				"energy": -0.32063,
				"method": "rhf"
			},
			{
				"type": "occ",
				"energy": -0.3053,
				"method": "rhf"
			},
			{
				"type": "occ",
				"energy": -0.26347,
				"method": "rhf"
			},
			{
				"type": "occ",
				"energy": -0.26207,
				"method": "rhf"
			},
			{
				"type": "occ",
				"energy": -0.22558,
				"method": "rhf"
			},
			{
				"type": "unocc",
				"energy": -0.01612,
				"method": "rhf"
			},
			{
				"type": "unocc",
				"energy": -0.00401,
				"method": "rhf"
			},
			{
				"type": "unocc",
				"energy": 0.01684,
				"method": "rhf"
			},
			{
				"type": "unocc",
				"energy": 0.07624,
				"method": "rhf"
			},
			{
				"type": "unocc",
				"energy": 0.07843,
				"method": "rhf"
			}
		],
		"cosmo_sigma_profile": { 
			"-0.025": 0.0,
			"-0.024": 0.0,
			"-0.023": 0.0,
			"-0.022": 0.0,
			"-0.021": 0.0,
			"-0.02": 0.0,
			"-0.019": 0.0,
			"-0.018": 0.0,
			"-0.017": 0.0,
			"-0.016": 0.0,
			"-0.015": 0.177365268053,
			"-0.014": 0.554440273833,
			"-0.013": 0.323441475842,
			"-0.012": 0.91205879539,
			"-0.011": 0.888649158731,
			"-0.01": 1.26351208505,
			"-0.009": 1.11560127004,
			"-0.008": 1.0809168284,
			"-0.007": 2.44322755359,
			"-0.006": 8.64556109205,
			"-0.005": 15.5929167965,
			"-0.004": 25.7762990522,
			"-0.003": 33.3664815207,
			"-0.002": 35.1365507389,
			"-0.001": 33.0806750468,
			"0.0": 29.533819246,
			"0.001": 28.5620814945,
			"0.002": 14.8934446207,
			"0.003": 12.5970542293,
			"0.004": 12.164570644,
			"0.005": 10.0676681071,
			"0.006": 5.51276471217,
			"0.007": 3.20850228526,
			"0.008": 2.98883629271,
			"0.009": 4.69629279403,
			"0.01": 4.83157183211,
			"0.011": 4.91639921289,
			"0.012": 5.7085292387,
			"0.013": 2.15767818498,
			"0.014": 0.183200145503,
			"0.015": 0.0,
			"0.016": 0.0,
			"0.017": 0.0,
			"0.018": 0.0,
			"0.019": 0.0,
			"0.02": 0.0,
			"0.021": 0.0,
			"0.022": 0.0,
			"0.023": 0.0,
			"0.024": 0.0,
			"0.025": 0.0
		}
	}
}
