{
	 "smiles": "NCCCNC(=O)C1=CC(Br)=CC=C1", 
	 "Tm": 326.15, 
	 "num_atms": 27, 
	 "gaussian": { 
		 "optdone": 1, 
		 "sigma_profile": "yes", 
		 "theory": "DFT", 
		 "functional": "B3LYP", 
		 "basiset": "6-31G**", 
		 "properties": { 
			 "R2extent": 6753.4787, 
			 "electric_dipole_moment_norm": 5.97611733988, 
			 "electric_quadrupole_moment_norm": 17.0239311012, 
			 "total_energy": -3145.03877446, 
			 "HOMO_LUMO_gap": 0.20337, 
			 "cosmo_polarized_energy": -16.19, 
			 "cosmo_cavitation_energy": 33.08, 
			 "cosmo_dispersion_energy": -23.72, 
			 "cosmo_repulsion_energy": 1.94, 
			 "cosmo_total_nonelectrostatic_energy": 11.3, 
			 "SMD_solvation_energy": 3.07 
		},
		"coords": [
			{
				"x": 1.7578003166,
				"y": 0.6341311187,
				"z": -2.7276090728,
				"element": "N" 
			},
			{
				"x": 0.7442592346,
				"y": 0.32968739,
				"z": -3.7444434522,
				"element": "C" 
			},
			{
				"x": -0.6743984634,
				"y": 0.4857684894,
				"z": -3.184163601,
				"element": "C" 
			},
			{
				"x": -0.9824981838,
				"y": -0.4958632795,
				"z": -2.0460747314,
				"element": "C" 
			},
			{
				"x": -2.3656496338,
				"y": -0.3818308062,
				"z": -1.587629788,
				"element": "N" 
			},
			{
				"x": -2.8383005492,
				"y": 0.0136375815,
				"z": -0.3588920631,
				"element": "C" 
			},
			{
				"x": -3.9625163425,
				"y": 0.490844548,
				"z": -0.2372169838,
				"element": "O" 
			},
			{
				"x": -1.9665696959,
				"y": -0.2007850757,
				"z": 0.850525298,
				"element": "C" 
			},
			{
				"x": -2.0618221948,
				"y": 0.7468973438,
				"z": 1.8783713601,
				"element": "C" 
			},
			{
				"x": -1.3275355975,
				"y": 0.5659859383,
				"z": 3.0446946881,
				"element": "C" 
			},
			{
				"x": -1.4345246854,
				"y": 1.8746862606,
				"z": 4.4345355722,
				"element": "Br" 
			},
			{
				"x": -0.5194355835,
				"y": -0.5569217404,
				"z": 3.2283616156,
				"element": "C" 
			},
			{
				"x": -0.453532334,
				"y": -1.5128827212,
				"z": 2.2146593114,
				"element": "C" 
			},
			{
				"x": -1.1673232575,
				"y": -1.3376220674,
				"z": 1.0283586928,
				"element": "C" 
			},
			{
				"x": 1.8869453664,
				"y": -0.1579229433,
				"z": -2.103512644,
				"element": "H" 
			},
			{
				"x": 2.659218949,
				"y": 0.7901490461,
				"z": -3.1698785971,
				"element": "H" 
			},
			{
				"x": 0.8688405925,
				"y": 1.046028118,
				"z": -4.5636412698,
				"element": "H" 
			},
			{
				"x": 0.8480231777,
				"y": -0.6756193656,
				"z": -4.1924844329,
				"element": "H" 
			},
			{
				"x": -0.8057184635,
				"y": 1.5098973224,
				"z": -2.8182774459,
				"element": "H" 
			},
			{
				"x": -1.3930965365,
				"y": 0.3299800669,
				"z": -4.0008329438,
				"element": "H" 
			},
			{
				"x": -0.7811519961,
				"y": -1.5247778584,
				"z": -2.3817063368,
				"element": "H" 
			},
			{
				"x": -0.3225745336,
				"y": -0.2920918183,
				"z": -1.2012234121,
				"element": "H" 
			},
			{
				"x": -3.058012304,
				"y": -0.2158807425,
				"z": -2.3094439986,
				"element": "H" 
			},
			{
				"x": -2.7151263172,
				"y": 1.6015964043,
				"z": 1.7515323213,
				"element": "H" 
			},
			{
				"x": 0.0383780969,
				"y": -0.6827653051,
				"z": 4.1492948994,
				"element": "H" 
			},
			{
				"x": 0.1550278583,
				"y": -2.4011002651,
				"z": 2.3566797836,
				"element": "H" 
			},
			{
				"x": -1.1256069197,
				"y": -2.0977256394,
				"z": 0.2551172308,
				"element": "H" 
			}
		],
		 "valence_orbital": [ 
			{
				"type": "occ",
				"energy": -0.27063,
				"method": "rhf"
			},
			{
				"type": "occ",
				"energy": -0.25602,
				"method": "rhf"
			},
			{
				"type": "occ",
				"energy": -0.24603,
				"method": "rhf"
			},
			{
				"type": "occ",
				"energy": -0.24465,
				"method": "rhf"
			},
			{
				"type": "occ",
				"energy": -0.24234,
				"method": "rhf"
			},
			{
				"type": "unocc",
				"energy": -0.03897,
				"method": "rhf"
			},
			{
				"type": "unocc",
				"energy": -0.0182,
				"method": "rhf"
			},
			{
				"type": "unocc",
				"energy": 0.00709,
				"method": "rhf"
			},
			{
				"type": "unocc",
				"energy": 0.04897,
				"method": "rhf"
			},
			{
				"type": "unocc",
				"energy": 0.06505,
				"method": "rhf"
			}
		],
		"cosmo_sigma_profile": { 
			"-0.025": 0.0,
			"-0.024": 0.0,
			"-0.023": 0.0,
			"-0.022": 0.0,
			"-0.021": 0.0,
			"-0.02": 0.0,
			"-0.019": 0.0,
			"-0.018": 0.0,
			"-0.017": 0.0,
			"-0.016": 0.0,
			"-0.015": 0.0,
			"-0.014": 0.0,
			"-0.013": 0.340828372107,
			"-0.012": 0.782995410966,
			"-0.011": 1.45143865536,
			"-0.01": 2.05890679072,
			"-0.009": 3.76182928766,
			"-0.008": 4.44920381802,
			"-0.007": 9.52892074883,
			"-0.006": 11.0778792618,
			"-0.005": 13.7680053606,
			"-0.004": 19.7527316054,
			"-0.003": 23.4840261808,
			"-0.002": 25.3249613697,
			"-0.001": 22.1906413765,
			"0.0": 18.5690060716,
			"0.001": 17.0871142113,
			"0.002": 21.2062502514,
			"0.003": 17.6640752129,
			"0.004": 15.0488763327,
			"0.005": 7.70983494861,
			"0.006": 2.4816888524,
			"0.007": 1.78370823905,
			"0.008": 2.17106249066,
			"0.009": 2.46901556349,
			"0.01": 2.70777302947,
			"0.011": 1.52937742083,
			"0.012": 2.06785989685,
			"0.013": 4.56379788055,
			"0.014": 5.66139030041,
			"0.015": 1.18766584592,
			"0.016": 0.396088813266,
			"0.017": 0.664502916797,
			"0.018": 0.449147129379,
			"0.019": 0.401360058276,
			"0.02": 0.229209145724,
			"0.021": 0.0,
			"0.022": 0.0,
			"0.023": 0.0,
			"0.024": 0.0,
			"0.025": 0.0
		}
	}
}
