{
	 "smiles": "COCCOC", 
	 "Tm": 215.15, 
	 "num_atms": 16, 
	 "gaussian": { 
		 "optdone": 1, 
		 "sigma_profile": "yes", 
		 "theory": "DFT", 
		 "functional": "B3LYP", 
		 "basiset": "6-31G**", 
		 "properties": { 
			 "R2extent": 952.0615, 
			 "electric_dipole_moment_norm": 1.56423126807, 
			 "electric_quadrupole_moment_norm": 4.17980784606, 
			 "total_energy": -308.863400945, 
			 "HOMO_LUMO_gap": 0.33065, 
			 "cosmo_polarized_energy": -5.31, 
			 "cosmo_cavitation_energy": 18.5, 
			 "cosmo_dispersion_energy": -13.76, 
			 "cosmo_repulsion_energy": 1.21, 
			 "cosmo_total_nonelectrostatic_energy": 5.95, 
			 "SMD_solvation_energy": 4.55 
		},
		"coords": [
			{
				"x": 1.2682477428,
				"y": 1.9430924615,
				"z": 2.6397291372,
				"element": "C" 
			},
			{
				"x": 1.2644472658,
				"y": 1.2921892558,
				"z": 1.3871047583,
				"element": "O" 
			},
			{
				"x": 0.8452414125,
				"y": -0.0586288942,
				"z": 1.4719872593,
				"element": "C" 
			},
			{
				"x": 0.8322072636,
				"y": -0.6889774596,
				"z": 0.0850223377,
				"element": "C" 
			},
			{
				"x": -0.2569056438,
				"y": -0.2952133135,
				"z": -0.7258854321,
				"element": "O" 
			},
			{
				"x": -0.0948674745,
				"y": 0.9583517152,
				"z": -1.3701559135,
				"element": "C" 
			},
			{
				"x": 1.949973756,
				"y": 1.4516867075,
				"z": 3.352405391,
				"element": "H" 
			},
			{
				"x": 0.2637424404,
				"y": 1.9713146144,
				"z": 3.0906583736,
				"element": "H" 
			},
			{
				"x": 1.6103918067,
				"y": 2.9676572245,
				"z": 2.4746824816,
				"element": "H" 
			},
			{
				"x": -0.1639823712,
				"y": -0.1279798196,
				"z": 1.9104460349,
				"element": "H" 
			},
			{
				"x": 1.5317840992,
				"y": -0.6312591321,
				"z": 2.1217198579,
				"element": "H" 
			},
			{
				"x": 0.7402824751,
				"y": -1.7746476049,
				"z": 0.2078885583,
				"element": "H" 
			},
			{
				"x": 1.7936419666,
				"y": -0.4829258557,
				"z": -0.4126835657,
				"element": "H" 
			},
			{
				"x": -0.0521483174,
				"y": 1.7892996138,
				"z": -0.6574979563,
				"element": "H" 
			},
			{
				"x": -0.9571137652,
				"y": 1.0850480812,
				"z": -2.0303967204,
				"element": "H" 
			},
			{
				"x": 0.8222573435,
				"y": 0.9789924055,
				"z": -1.9798246019,
				"element": "H" 
			}
		],
		 "valence_orbital": [ 
			{
				"type": "occ",
				"energy": -0.36921,
				"method": "rhf"
			},
			{
				"type": "occ",
				"energy": -0.32362,
				"method": "rhf"
			},
			{
				"type": "occ",
				"energy": -0.303,
				"method": "rhf"
			},
			{
				"type": "occ",
				"energy": -0.25959,
				"method": "rhf"
			},
			{
				"type": "occ",
				"energy": -0.24207,
				"method": "rhf"
			},
			{
				"type": "unocc",
				"energy": 0.08858,
				"method": "rhf"
			},
			{
				"type": "unocc",
				"energy": 0.11063,
				"method": "rhf"
			},
			{
				"type": "unocc",
				"energy": 0.13314,
				"method": "rhf"
			},
			{
				"type": "unocc",
				"energy": 0.13772,
				"method": "rhf"
			},
			{
				"type": "unocc",
				"energy": 0.14689,
				"method": "rhf"
			}
		],
		"cosmo_sigma_profile": { 
			"-0.025": 0.0,
			"-0.024": 0.0,
			"-0.023": 0.0,
			"-0.022": 0.0,
			"-0.021": 0.0,
			"-0.02": 0.0,
			"-0.019": 0.0,
			"-0.018": 0.0,
			"-0.017": 0.0,
			"-0.016": 0.0,
			"-0.015": 0.0,
			"-0.014": 0.0,
			"-0.013": 0.0,
			"-0.012": 0.0,
			"-0.011": 0.0,
			"-0.01": 0.0,
			"-0.009": 0.0,
			"-0.008": 0.0,
			"-0.007": 0.0,
			"-0.006": 0.141970010387,
			"-0.005": 4.93343715997,
			"-0.004": 17.0740334287,
			"-0.003": 28.8538028505,
			"-0.002": 27.2896087552,
			"-0.001": 15.6327240978,
			"0.0": 7.17203558562,
			"0.001": 5.24690169908,
			"0.002": 4.38116000445,
			"0.003": 4.85888343892,
			"0.004": 4.50664206758,
			"0.005": 3.07283298537,
			"0.006": 3.56343273161,
			"0.007": 3.14564246194,
			"0.008": 2.57981721525,
			"0.009": 1.73924231743,
			"0.01": 2.36078288548,
			"0.011": 2.12360760493,
			"0.012": 1.78656055472,
			"0.013": 2.04896800592,
			"0.014": 1.0299003592,
			"0.015": 0.0,
			"0.016": 0.0,
			"0.017": 0.0,
			"0.018": 0.0,
			"0.019": 0.0,
			"0.02": 0.0,
			"0.021": 0.0,
			"0.022": 0.0,
			"0.023": 0.0,
			"0.024": 0.0,
			"0.025": 0.0
		}
	}
}
