{
	 "smiles": "OC(=O)CCC1=NC=C(O1)C1=C(F)C=C(F)C=C1", 
	 "Tm": 443.15, 
	 "num_atms": 27, 
	 "gaussian": { 
		 "optdone": 1, 
		 "sigma_profile": "yes", 
		 "theory": "DFT", 
		 "functional": "B3LYP", 
		 "basiset": "6-31G**", 
		 "properties": { 
			 "R2extent": 7048.3513, 
			 "electric_dipole_moment_norm": 1.79038673476, 
			 "electric_quadrupole_moment_norm": 7.22952268411, 
			 "total_energy": -942.807164318, 
			 "HOMO_LUMO_gap": 0.17561, 
			 "cosmo_polarized_energy": -13.2, 
			 "cosmo_cavitation_energy": 33.74, 
			 "cosmo_dispersion_energy": -24.11, 
			 "cosmo_repulsion_energy": 1.83, 
			 "cosmo_total_nonelectrostatic_energy": 11.46, 
			 "SMD_solvation_energy": 6.62 
		},
		"coords": [
			{
				"x": 2.7852344196,
				"y": 2.5384853952,
				"z": 3.1861803855,
				"element": "O" 
			},
			{
				"x": 1.5952695081,
				"y": 2.2576168751,
				"z": 2.6085750855,
				"element": "C" 
			},
			{
				"x": 1.0473010467,
				"y": 3.0106549749,
				"z": 1.8336998739,
				"element": "O" 
			},
			{
				"x": 1.0473245552,
				"y": 0.9279549395,
				"z": 3.0853739436,
				"element": "C" 
			},
			{
				"x": -0.1402723806,
				"y": 0.460942368,
				"z": 2.2435457833,
				"element": "C" 
			},
			{
				"x": 0.2864708044,
				"y": 0.0030960535,
				"z": 0.8870849434,
				"element": "C" 
			},
			{
				"x": 1.47940043,
				"y": -0.2963968183,
				"z": 0.4711030583,
				"element": "N" 
			},
			{
				"x": 1.3080662558,
				"y": -0.6838228423,
				"z": -0.8486467353,
				"element": "C" 
			},
			{
				"x": -0.0143501549,
				"y": -0.6020534936,
				"z": -1.1834370784,
				"element": "C" 
			},
			{
				"x": -0.6794161731,
				"y": -0.1567010883,
				"z": -0.0576843755,
				"element": "O" 
			},
			{
				"x": -0.8121846289,
				"y": -0.8563331365,
				"z": -2.3703972206,
				"element": "C" 
			},
			{
				"x": -0.2290578079,
				"y": -1.3269353943,
				"z": -3.5570201842,
				"element": "C" 
			},
			{
				"x": 1.1030970706,
				"y": -1.5455621862,
				"z": -3.5876564726,
				"element": "F" 
			},
			{
				"x": -0.955888368,
				"y": -1.5818492447,
				"z": -4.7096585087,
				"element": "C" 
			},
			{
				"x": -2.3274779125,
				"y": -1.3556141785,
				"z": -4.6727107911,
				"element": "C" 
			},
			{
				"x": -3.051845305,
				"y": -1.5969538731,
				"z": -5.7812788169,
				"element": "F" 
			},
			{
				"x": -2.965524045,
				"y": -0.8895614199,
				"z": -3.527947669,
				"element": "C" 
			},
			{
				"x": -2.203612561,
				"y": -0.6443700264,
				"z": -2.3893358526,
				"element": "C" 
			},
			{
				"x": 3.0556060589,
				"y": 3.4062079813,
				"z": 2.8415493639,
				"element": "H" 
			},
			{
				"x": 0.7457180609,
				"y": 1.0528291436,
				"z": 4.132177888,
				"element": "H" 
			},
			{
				"x": 1.8561296962,
				"y": 0.1929202266,
				"z": 3.0719667213,
				"element": "H" 
			},
			{
				"x": -0.6570440606,
				"y": -0.3608323683,
				"z": 2.7556760058,
				"element": "H" 
			},
			{
				"x": -0.8632148659,
				"y": 1.2744535266,
				"z": 2.129484379,
				"element": "H" 
			},
			{
				"x": 2.1364388683,
				"y": -0.9895510652,
				"z": -1.466484151,
				"element": "H" 
			},
			{
				"x": -0.4659754983,
				"y": -1.944567832,
				"z": -5.6048224614,
				"element": "H" 
			},
			{
				"x": -4.0367175186,
				"y": -0.7244764043,
				"z": -3.5390613998,
				"element": "H" 
			},
			{
				"x": -2.6839754946,
				"y": -0.2792801124,
				"z": -1.4890757143,
				"element": "H" 
			}
		],
		 "valence_orbital": [ 
			{
				"type": "occ",
				"energy": -0.28898,
				"method": "rhf"
			},
			{
				"type": "occ",
				"energy": -0.28836,
				"method": "rhf"
			},
			{
				"type": "occ",
				"energy": -0.2779,
				"method": "rhf"
			},
			{
				"type": "occ",
				"energy": -0.26582,
				"method": "rhf"
			},
			{
				"type": "occ",
				"energy": -0.21622,
				"method": "rhf"
			},
			{
				"type": "unocc",
				"energy": -0.04061,
				"method": "rhf"
			},
			{
				"type": "unocc",
				"energy": -0.01632,
				"method": "rhf"
			},
			{
				"type": "unocc",
				"energy": 0.01001,
				"method": "rhf"
			},
			{
				"type": "unocc",
				"energy": 0.0248,
				"method": "rhf"
			},
			{
				"type": "unocc",
				"energy": 0.0728,
				"method": "rhf"
			}
		],
		"cosmo_sigma_profile": { 
			"-0.025": 0.0,
			"-0.024": 0.0,
			"-0.023": 0.0,
			"-0.022": 0.0,
			"-0.021": 0.0,
			"-0.02": 0.0,
			"-0.019": 0.0360296360542,
			"-0.018": 0.782134905682,
			"-0.017": 0.818632497062,
			"-0.016": 1.13580492308,
			"-0.015": 0.73337944133,
			"-0.014": 0.677592356582,
			"-0.013": 0.544169196592,
			"-0.012": 0.419200185135,
			"-0.011": 0.982911711134,
			"-0.01": 0.903755024186,
			"-0.009": 1.93592635351,
			"-0.008": 3.39785995906,
			"-0.007": 9.58914114193,
			"-0.006": 14.8763690166,
			"-0.005": 16.1659426237,
			"-0.004": 13.4358523341,
			"-0.003": 15.8153472017,
			"-0.002": 11.4480016517,
			"-0.001": 18.792935235,
			"0.0": 31.6912963219,
			"0.001": 28.9617583888,
			"0.002": 20.5026656644,
			"0.003": 21.7519635385,
			"0.004": 18.4585851163,
			"0.005": 4.96803397023,
			"0.006": 4.92462489843,
			"0.007": 4.89192265866,
			"0.008": 3.56417649633,
			"0.009": 4.35739882513,
			"0.01": 3.98144474379,
			"0.011": 4.48871452169,
			"0.012": 3.74722074707,
			"0.013": 1.09402287966,
			"0.014": 0.569144176887,
			"0.015": 0.018720980918,
			"0.016": 0.0,
			"0.017": 0.0,
			"0.018": 0.0,
			"0.019": 0.0,
			"0.02": 0.0,
			"0.021": 0.0,
			"0.022": 0.0,
			"0.023": 0.0,
			"0.024": 0.0,
			"0.025": 0.0
		}
	}
}
