{
	 "smiles": "CC(C)(C)OC(=O)NC1CCCCC1(C)C(O)=O", 
	 "Tm": 423.15, 
	 "num_atms": 41, 
	 "gaussian": { 
		 "optdone": 1, 
		 "sigma_profile": "yes", 
		 "theory": "DFT", 
		 "functional": "B3LYP", 
		 "basiset": "6-31G**", 
		 "properties": { 
			 "R2extent": 5459.5594, 
			 "electric_dipole_moment_norm": 2.44128766638, 
			 "electric_quadrupole_moment_norm": 29.9650194403, 
			 "total_energy": -864.942244718, 
			 "HOMO_LUMO_gap": 0.25675, 
			 "cosmo_polarized_energy": -18.03, 
			 "cosmo_cavitation_energy": 38.88, 
			 "cosmo_dispersion_energy": -26.13, 
			 "cosmo_repulsion_energy": 1.98, 
			 "cosmo_total_nonelectrostatic_energy": 14.73, 
			 "SMD_solvation_energy": 7.78 
		},
		"coords": [
			{
				"x": 2.303426879,
				"y": 1.9527957135,
				"z": 0.9030009905,
				"element": "C" 
			},
			{
				"x": 1.1619871607,
				"y": 1.071143977,
				"z": 1.4203469487,
				"element": "C" 
			},
			{
				"x": 0.1429895397,
				"y": 1.9108210207,
				"z": 2.1945662444,
				"element": "C" 
			},
			{
				"x": 1.6677438403,
				"y": -0.0904569848,
				"z": 2.2822749903,
				"element": "C" 
			},
			{
				"x": 0.3701303986,
				"y": 0.5514025036,
				"z": 0.2820952191,
				"element": "O" 
			},
			{
				"x": 0.9484742735,
				"y": -0.2603205879,
				"z": -0.629762505,
				"element": "C" 
			},
			{
				"x": 2.120545237,
				"y": -0.6069776242,
				"z": -0.6309055695,
				"element": "O" 
			},
			{
				"x": 0.0959624371,
				"y": -0.6514876681,
				"z": -1.6366230501,
				"element": "N" 
			},
			{
				"x": -1.3674455407,
				"y": -0.6768918661,
				"z": -1.8276480295,
				"element": "C" 
			},
			{
				"x": -2.1289035184,
				"y": -1.6215732378,
				"z": -0.8683850842,
				"element": "C" 
			},
			{
				"x": -2.499051833,
				"y": -1.0022482605,
				"z": 0.4839034289,
				"element": "C" 
			},
			{
				"x": -3.315330809,
				"y": 0.2797664089,
				"z": 0.2799089788,
				"element": "C" 
			},
			{
				"x": -2.5788519812,
				"y": 1.2910608305,
				"z": -0.6127440448,
				"element": "C" 
			},
			{
				"x": -2.073563379,
				"y": 0.7290645925,
				"z": -1.965783101,
				"element": "C" 
			},
			{
				"x": -1.1270881715,
				"y": 1.7615718779,
				"z": -2.6196082864,
				"element": "C" 
			},
			{
				"x": -3.2926229951,
				"y": 0.5276370232,
				"z": -2.9025779886,
				"element": "C" 
			},
			{
				"x": -3.0125425371,
				"y": 0.2082553027,
				"z": -4.1994485612,
				"element": "O" 
			},
			{
				"x": -4.4473373613,
				"y": 0.6324498288,
				"z": -2.5696524763,
				"element": "O" 
			},
			{
				"x": 3.0271136054,
				"y": 1.3655564618,
				"z": 0.3384647352,
				"element": "H" 
			},
			{
				"x": 2.8115402746,
				"y": 2.4244745334,
				"z": 1.7503842295,
				"element": "H" 
			},
			{
				"x": 1.9097750741,
				"y": 2.7479366158,
				"z": 0.2615007519,
				"element": "H" 
			},
			{
				"x": -0.7017253044,
				"y": 1.2985670053,
				"z": 2.5228301449,
				"element": "H" 
			},
			{
				"x": -0.2397542845,
				"y": 2.7299884778,
				"z": 1.5789306544,
				"element": "H" 
			},
			{
				"x": 0.618343459,
				"y": 2.3428597629,
				"z": 3.0801203408,
				"element": "H" 
			},
			{
				"x": 2.3815002451,
				"y": -0.7044976962,
				"z": 1.733764764,
				"element": "H" 
			},
			{
				"x": 0.831505831,
				"y": -0.7179648794,
				"z": 2.6068432648,
				"element": "H" 
			},
			{
				"x": 2.1571630079,
				"y": 0.3078373133,
				"z": 3.1769310819,
				"element": "H" 
			},
			{
				"x": 0.6001563916,
				"y": -1.274346816,
				"z": -2.251049467,
				"element": "H" 
			},
			{
				"x": -1.4405046562,
				"y": -1.1420171512,
				"z": -2.8169257908,
				"element": "H" 
			},
			{
				"x": -3.0547333435,
				"y": -1.9226488323,
				"z": -1.3770351001,
				"element": "H" 
			},
			{
				"x": -1.5330992174,
				"y": -2.5321933625,
				"z": -0.7395822236,
				"element": "H" 
			},
			{
				"x": -3.0766084332,
				"y": -1.730469844,
				"z": 1.0656883593,
				"element": "H" 
			},
			{
				"x": -1.5906000392,
				"y": -0.7852822047,
				"z": 1.0542549944,
				"element": "H" 
			},
			{
				"x": -3.5284122605,
				"y": 0.7510252187,
				"z": 1.2470625292,
				"element": "H" 
			},
			{
				"x": -4.2803403725,
				"y": 0.0341620301,
				"z": -0.1737965534,
				"element": "H" 
			},
			{
				"x": -3.2364867381,
				"y": 2.1408117632,
				"z": -0.8230774964,
				"element": "H" 
			},
			{
				"x": -1.7098693149,
				"y": 1.6725280639,
				"z": -0.0743305817,
				"element": "H" 
			},
			{
				"x": -0.6516638899,
				"y": 1.3944452123,
				"z": -3.5375671726,
				"element": "H" 
			},
			{
				"x": -1.6685167753,
				"y": 2.6816155899,
				"z": -2.8613843082,
				"element": "H" 
			},
			{
				"x": -0.3190370607,
				"y": 2.0093950912,
				"z": -1.9297346267,
				"element": "H" 
			},
			{
				"x": -2.0597678379,
				"y": 0.2502047966,
				"z": -4.3607506338,
				"element": "H" 
			}
		],
		 "valence_orbital": [ 
			{
				"type": "occ",
				"energy": -0.30555,
				"method": "rhf"
			},
			{
				"type": "occ",
				"energy": -0.29495,
				"method": "rhf"
			},
			{
				"type": "occ",
				"energy": -0.27264,
				"method": "rhf"
			},
			{
				"type": "occ",
				"energy": -0.26609,
				"method": "rhf"
			},
			{
				"type": "occ",
				"energy": -0.25318,
				"method": "rhf"
			},
			{
				"type": "unocc",
				"energy": 0.00357,
				"method": "rhf"
			},
			{
				"type": "unocc",
				"energy": 0.03481,
				"method": "rhf"
			},
			{
				"type": "unocc",
				"energy": 0.04428,
				"method": "rhf"
			},
			{
				"type": "unocc",
				"energy": 0.06433,
				"method": "rhf"
			},
			{
				"type": "unocc",
				"energy": 0.07521,
				"method": "rhf"
			}
		],
		"cosmo_sigma_profile": { 
			"-0.025": 0.0,
			"-0.024": 0.0,
			"-0.023": 0.0,
			"-0.022": 0.0,
			"-0.021": 0.0,
			"-0.02": 0.0,
			"-0.019": 0.0,
			"-0.018": 0.397676187499,
			"-0.017": 1.01894492418,
			"-0.016": 1.30887587179,
			"-0.015": 0.801116882064,
			"-0.014": 0.855318394152,
			"-0.013": 2.16709758118,
			"-0.012": 2.66577102012,
			"-0.011": 2.40191519615,
			"-0.01": 2.29820021838,
			"-0.009": 1.40070975255,
			"-0.008": 1.97329522255,
			"-0.007": 2.74574657644,
			"-0.006": 3.04221565901,
			"-0.005": 6.13142480222,
			"-0.004": 17.4505177257,
			"-0.003": 27.1631849765,
			"-0.002": 33.6038273691,
			"-0.001": 43.3361331863,
			"0.0": 50.5036577351,
			"0.001": 32.5748215289,
			"0.002": 10.0074613753,
			"0.003": 5.43816226432,
			"0.004": 4.56724340255,
			"0.005": 4.46460211082,
			"0.006": 4.02993722295,
			"0.007": 3.79338328066,
			"0.008": 4.74608154485,
			"0.009": 4.85811466019,
			"0.01": 5.53796997798,
			"0.011": 6.53000424814,
			"0.012": 5.94673360399,
			"0.013": 4.44282365417,
			"0.014": 2.37098999741,
			"0.015": 0.0119393138137,
			"0.016": 0.0,
			"0.017": 0.0,
			"0.018": 0.0,
			"0.019": 0.0,
			"0.02": 0.0,
			"0.021": 0.0,
			"0.022": 0.0,
			"0.023": 0.0,
			"0.024": 0.0,
			"0.025": 0.0
		}
	}
}
