{
	 "smiles": "NC1=CN=C(C=C1)N1CCOCC1", 
	 "Tm": 403.15, 
	 "num_atms": 26, 
	 "gaussian": { 
		 "optdone": 1, 
		 "sigma_profile": "yes", 
		 "theory": "DFT", 
		 "functional": "B3LYP", 
		 "basiset": "6-31G**", 
		 "properties": { 
			 "R2extent": 3236.8659, 
			 "electric_dipole_moment_norm": 1.95281142459, 
			 "electric_quadrupole_moment_norm": 13.13960369, 
			 "total_energy": -590.245396721, 
			 "HOMO_LUMO_gap": 0.16264, 
			 "cosmo_polarized_energy": -12.53, 
			 "cosmo_cavitation_energy": 27.86, 
			 "cosmo_dispersion_energy": -21.25, 
			 "cosmo_repulsion_energy": 1.69, 
			 "cosmo_total_nonelectrostatic_energy": 8.3, 
			 "SMD_solvation_energy": 2.88 
		},
		"coords": [
			{
				"x": -1.321950751,
				"y": 2.0131462772,
				"z": -4.7159166954,
				"element": "N" 
			},
			{
				"x": -0.9992763218,
				"y": 1.4958846497,
				"z": -3.4476563518,
				"element": "C" 
			},
			{
				"x": -0.3397877564,
				"y": 2.2652255556,
				"z": -2.4822947249,
				"element": "C" 
			},
			{
				"x": 0.0535296721,
				"y": 1.809909631,
				"z": -1.2911255057,
				"element": "N" 
			},
			{
				"x": -0.1960101883,
				"y": 0.5316143637,
				"z": -0.9644881597,
				"element": "C" 
			},
			{
				"x": -0.8618933561,
				"y": -0.3313850724,
				"z": -1.865554776,
				"element": "C" 
			},
			{
				"x": -1.2547741993,
				"y": 0.1603490556,
				"z": -3.1018058162,
				"element": "C" 
			},
			{
				"x": 0.2120268965,
				"y": 0.1006790138,
				"z": 0.2881030093,
				"element": "N" 
			},
			{
				"x": 0.92512307,
				"y": 0.9794275591,
				"z": 1.2029525132,
				"element": "C" 
			},
			{
				"x": 0.3937796298,
				"y": 0.7981518242,
				"z": 2.626316538,
				"element": "C" 
			},
			{
				"x": 0.2352961498,
				"y": -0.5754841841,
				"z": 3.0077700311,
				"element": "O" 
			},
			{
				"x": 0.7238270725,
				"y": -1.5003164271,
				"z": 2.0548192202,
				"element": "C" 
			},
			{
				"x": 0.0749184912,
				"y": -1.2934427786,
				"z": 0.6848939163,
				"element": "C" 
			},
			{
				"x": -1.3970929008,
				"y": 3.0228664291,
				"z": -4.7311604452,
				"element": "H" 
			},
			{
				"x": -2.1496570367,
				"y": 1.5980412107,
				"z": -5.1254986432,
				"element": "H" 
			},
			{
				"x": -0.1115080417,
				"y": 3.3117188219,
				"z": -2.6906103606,
				"element": "H" 
			},
			{
				"x": -1.074933319,
				"y": -1.3611287275,
				"z": -1.6062621803,
				"element": "H" 
			},
			{
				"x": -1.7614180341,
				"y": -0.4955596615,
				"z": -3.8062712035,
				"element": "H" 
			},
			{
				"x": 0.7719899919,
				"y": 2.0077186939,
				"z": 0.8746906693,
				"element": "H" 
			},
			{
				"x": 2.0102438855,
				"y": 0.7936973228,
				"z": 1.1702710607,
				"element": "H" 
			},
			{
				"x": -0.5919706325,
				"y": 1.2712772278,
				"z": 2.7155885209,
				"element": "H" 
			},
			{
				"x": 1.0734644227,
				"y": 1.2916368365,
				"z": 3.3361850171,
				"element": "H" 
			},
			{
				"x": 1.8206406572,
				"y": -1.4486288479,
				"z": 1.9671765555,
				"element": "H" 
			},
			{
				"x": 0.4733155363,
				"y": -2.4954643313,
				"z": 2.4329903277,
				"element": "H" 
			},
			{
				"x": 0.550121146,
				"y": -1.9692546812,
				"z": -0.0454486849,
				"element": "H" 
			},
			{
				"x": -0.9877040838,
				"y": -1.5737797614,
				"z": 0.7455361682,
				"element": "H" 
			}
		],
		 "valence_orbital": [ 
			{
				"type": "occ",
				"energy": -0.26746,
				"method": "rhf"
			},
			{
				"type": "occ",
				"energy": -0.24871,
				"method": "rhf"
			},
			{
				"type": "occ",
				"energy": -0.24677,
				"method": "rhf"
			},
			{
				"type": "occ",
				"energy": -0.24422,
				"method": "rhf"
			},
			{
				"type": "occ",
				"energy": -0.1723,
				"method": "rhf"
			},
			{
				"type": "unocc",
				"energy": -0.00966,
				"method": "rhf"
			},
			{
				"type": "unocc",
				"energy": 0.03091,
				"method": "rhf"
			},
			{
				"type": "unocc",
				"energy": 0.08337,
				"method": "rhf"
			},
			{
				"type": "unocc",
				"energy": 0.09072,
				"method": "rhf"
			},
			{
				"type": "unocc",
				"energy": 0.10972,
				"method": "rhf"
			}
		],
		"cosmo_sigma_profile": { 
			"-0.025": 0.0,
			"-0.024": 0.0,
			"-0.023": 0.0,
			"-0.022": 0.0,
			"-0.021": 0.0,
			"-0.02": 0.0,
			"-0.019": 0.0,
			"-0.018": 0.0,
			"-0.017": 0.0,
			"-0.016": 0.0,
			"-0.015": 0.0,
			"-0.014": 0.0,
			"-0.013": 0.00276769156324,
			"-0.012": 1.5237876667,
			"-0.011": 3.03926937527,
			"-0.01": 2.76133354486,
			"-0.009": 2.90695234397,
			"-0.008": 3.51125307125,
			"-0.007": 3.53658046345,
			"-0.006": 6.38186978452,
			"-0.005": 12.7098649852,
			"-0.004": 30.9762852155,
			"-0.003": 26.6960201679,
			"-0.002": 14.7705177726,
			"-0.001": 12.2361552597,
			"0.0": 9.45375671335,
			"0.001": 7.30583635287,
			"0.002": 8.49196923888,
			"0.003": 10.6485084127,
			"0.004": 12.9658514576,
			"0.005": 14.6325453207,
			"0.006": 6.26739891235,
			"0.007": 4.86630332413,
			"0.008": 4.25189296122,
			"0.009": 2.91905709227,
			"0.01": 4.02935584474,
			"0.011": 2.94845804062,
			"0.012": 3.01694122294,
			"0.013": 3.28887377974,
			"0.014": 1.56257585455,
			"0.015": 0.585619883644,
			"0.016": 0.463642777028,
			"0.017": 0.0525416870606,
			"0.018": 0.0,
			"0.019": 0.0,
			"0.02": 0.0,
			"0.021": 0.0,
			"0.022": 0.0,
			"0.023": 0.0,
			"0.024": 0.0,
			"0.025": 0.0
		}
	}
}
