{
	 "smiles": "CS(=O)(=O)CC1=CC(=CC=C1)C(O)=O", 
	 "Tm": 462.15, 
	 "num_atms": 24, 
	 "gaussian": { 
		 "optdone": 1, 
		 "sigma_profile": "yes", 
		 "theory": "DFT", 
		 "functional": "B3LYP", 
		 "basiset": "6-31G**", 
		 "properties": { 
			 "R2extent": 3925.9344, 
			 "electric_dipole_moment_norm": 3.22522186679, 
			 "electric_quadrupole_moment_norm": 21.9107115606, 
			 "total_energy": -1048.02996042, 
			 "HOMO_LUMO_gap": 0.2015, 
			 "cosmo_polarized_energy": -20.83, 
			 "cosmo_cavitation_energy": 29.95, 
			 "cosmo_dispersion_energy": -21.66, 
			 "cosmo_repulsion_energy": 1.66, 
			 "cosmo_total_nonelectrostatic_energy": 9.95, 
			 "SMD_solvation_energy": 5.95 
		},
		"coords": [
			{
				"x": -1.401802771,
				"y": 0.0325260942,
				"z": -2.2728648818,
				"element": "C" 
			},
			{
				"x": -2.0333032785,
				"y": -1.4883659481,
				"z": -1.528772737,
				"element": "S" 
			},
			{
				"x": -3.4829163788,
				"y": -1.5527191065,
				"z": -1.7696412723,
				"element": "O" 
			},
			{
				"x": -1.1565701505,
				"y": -2.5942340421,
				"z": -1.9482288309,
				"element": "O" 
			},
			{
				"x": -1.8107589073,
				"y": -1.2389696767,
				"z": 0.2784053892,
				"element": "C" 
			},
			{
				"x": -0.3918495762,
				"y": -1.0050599832,
				"z": 0.7197140635,
				"element": "C" 
			},
			{
				"x": -0.0059510131,
				"y": 0.2470852566,
				"z": 1.2089949838,
				"element": "C" 
			},
			{
				"x": 1.311968014,
				"y": 0.4719777589,
				"z": 1.6276478604,
				"element": "C" 
			},
			{
				"x": 2.2543195644,
				"y": -0.560845416,
				"z": 1.553388279,
				"element": "C" 
			},
			{
				"x": 1.8759383553,
				"y": -1.8084210879,
				"z": 1.0623472818,
				"element": "C" 
			},
			{
				"x": 0.5628130766,
				"y": -2.0327377164,
				"z": 0.6483800122,
				"element": "C" 
			},
			{
				"x": 1.7570095295,
				"y": 1.7880279554,
				"z": 2.1599839969,
				"element": "C" 
			},
			{
				"x": 0.7661714592,
				"y": 2.7152995285,
				"z": 2.1813402176,
				"element": "O" 
			},
			{
				"x": 2.8829074091,
				"y": 2.0368211476,
				"z": 2.5414985238,
				"element": "O" 
			},
			{
				"x": -1.4966607255,
				"y": -0.1032724945,
				"z": -3.3516870092,
				"element": "H" 
			},
			{
				"x": -2.0109456269,
				"y": 0.8759353263,
				"z": -1.9442796122,
				"element": "H" 
			},
			{
				"x": -0.3551981721,
				"y": 0.1641052399,
				"z": -1.9970164999,
				"element": "H" 
			},
			{
				"x": -2.2307339706,
				"y": -2.1646198978,
				"z": 0.6851480702,
				"element": "H" 
			},
			{
				"x": -2.4754235292,
				"y": -0.4160841176,
				"z": 0.5524943661,
				"element": "H" 
			},
			{
				"x": -0.729121839,
				"y": 1.0530367385,
				"z": 1.2784542672,
				"element": "H" 
			},
			{
				"x": 3.2683322345,
				"y": -0.3651656423,
				"z": 1.8848635657,
				"element": "H" 
			},
			{
				"x": 2.6039028381,
				"y": -2.6114918007,
				"z": 1.0020393388,
				"element": "H" 
			},
			{
				"x": 0.2732447132,
				"y": -3.0001442085,
				"z": 0.2512665249,
				"element": "H" 
			},
			{
				"x": 1.166828745,
				"y": 3.5217160924,
				"z": 2.5455241023,
				"element": "H" 
			}
		],
		 "valence_orbital": [ 
			{
				"type": "occ",
				"energy": -0.30098,
				"method": "rhf"
			},
			{
				"type": "occ",
				"energy": -0.29716,
				"method": "rhf"
			},
			{
				"type": "occ",
				"energy": -0.28744,
				"method": "rhf"
			},
			{
				"type": "occ",
				"energy": -0.27568,
				"method": "rhf"
			},
			{
				"type": "occ",
				"energy": -0.26391,
				"method": "rhf"
			},
			{
				"type": "unocc",
				"energy": -0.06241,
				"method": "rhf"
			},
			{
				"type": "unocc",
				"energy": -0.03182,
				"method": "rhf"
			},
			{
				"type": "unocc",
				"energy": 0.03492,
				"method": "rhf"
			},
			{
				"type": "unocc",
				"energy": 0.06146,
				"method": "rhf"
			},
			{
				"type": "unocc",
				"energy": 0.06418,
				"method": "rhf"
			}
		],
		"cosmo_sigma_profile": { 
			"-0.025": 0.0,
			"-0.024": 0.0,
			"-0.023": 0.0,
			"-0.022": 0.0,
			"-0.021": 0.0,
			"-0.02": 0.0,
			"-0.019": 0.136987828215,
			"-0.018": 0.785387315862,
			"-0.017": 0.681966655999,
			"-0.016": 0.964121277196,
			"-0.015": 1.24832641389,
			"-0.014": 0.379837575086,
			"-0.013": 0.428596077679,
			"-0.012": 0.550394009643,
			"-0.011": 1.70980909562,
			"-0.01": 2.68166023269,
			"-0.009": 7.95780270293,
			"-0.008": 9.28998629854,
			"-0.007": 10.3529438387,
			"-0.006": 15.7587322001,
			"-0.005": 15.9952567673,
			"-0.004": 15.1334944898,
			"-0.003": 14.1765246722,
			"-0.002": 12.2053472458,
			"-0.001": 10.7033979416,
			"0.0": 12.7265604478,
			"0.001": 13.1794476507,
			"0.002": 14.0347444985,
			"0.003": 14.0298395482,
			"0.004": 4.65141843804,
			"0.005": 4.86294815018,
			"0.006": 5.36692544441,
			"0.007": 5.74006355884,
			"0.008": 4.01087313331,
			"0.009": 4.02443418813,
			"0.01": 6.6840399415,
			"0.011": 12.7225900535,
			"0.012": 13.215151637,
			"0.013": 1.83655454934,
			"0.014": 0.0,
			"0.015": 0.0,
			"0.016": 0.0,
			"0.017": 0.0,
			"0.018": 0.0,
			"0.019": 0.0,
			"0.02": 0.0,
			"0.021": 0.0,
			"0.022": 0.0,
			"0.023": 0.0,
			"0.024": 0.0,
			"0.025": 0.0
		}
	}
}
