{
	 "smiles": "OC1=CC=C(C=C1)N1CCNCC1", 
	 "Tm": 494.15, 
	 "num_atms": 27, 
	 "gaussian": { 
		 "optdone": 1, 
		 "sigma_profile": "yes", 
		 "theory": "DFT", 
		 "functional": "B3LYP", 
		 "basiset": "6-31G**", 
		 "properties": { 
			 "R2extent": 3404.5085, 
			 "electric_dipole_moment_norm": 1.45786425294, 
			 "electric_quadrupole_moment_norm": 13.1924200896, 
			 "total_energy": -574.19937481, 
			 "HOMO_LUMO_gap": 0.1818, 
			 "cosmo_polarized_energy": -11.89, 
			 "cosmo_cavitation_energy": 28.31, 
			 "cosmo_dispersion_energy": -21.32, 
			 "cosmo_repulsion_energy": 1.67, 
			 "cosmo_total_nonelectrostatic_energy": 8.66, 
			 "SMD_solvation_energy": 1.13 
		},
		"coords": [
			{
				"x": -3.7429505499,
				"y": 2.4450600983,
				"z": -0.1652499508,
				"element": "O" 
			},
			{
				"x": -2.5291949308,
				"y": 1.8917239293,
				"z": 0.1559868907,
				"element": "C" 
			},
			{
				"x": -2.3012981588,
				"y": 0.5617126521,
				"z": -0.2166904332,
				"element": "C" 
			},
			{
				"x": -1.0895724189,
				"y": -0.0505373198,
				"z": 0.0721407912,
				"element": "C" 
			},
			{
				"x": -0.0626218612,
				"y": 0.6285694439,
				"z": 0.7633156026,
				"element": "C" 
			},
			{
				"x": -0.3094354101,
				"y": 1.9621918784,
				"z": 1.1301516502,
				"element": "C" 
			},
			{
				"x": -1.5223215678,
				"y": 2.5862733289,
				"z": 0.8226463185,
				"element": "C" 
			},
			{
				"x": 1.1743798586,
				"y": -0.0017181709,
				"z": 1.0085897672,
				"element": "N" 
			},
			{
				"x": 2.2622662534,
				"y": 0.7966220435,
				"z": 1.5649491087,
				"element": "C" 
			},
			{
				"x": 3.5515683873,
				"y": -0.0654461538,
				"z": 1.66019436,
				"element": "C" 
			},
			{
				"x": 3.5903695154,
				"y": -1.1539079041,
				"z": 0.6873127878,
				"element": "N" 
			},
			{
				"x": 2.4736573241,
				"y": -2.0833900761,
				"z": 0.9149779265,
				"element": "C" 
			},
			{
				"x": 1.2126617832,
				"y": -1.3838148719,
				"z": 1.4851873277,
				"element": "C" 
			},
			{
				"x": -3.7614631067,
				"y": 3.3580858993,
				"z": 0.1483774447,
				"element": "H" 
			},
			{
				"x": -3.0800805774,
				"y": 0.0253541447,
				"z": -0.7493423677,
				"element": "H" 
			},
			{
				"x": -0.9293879955,
				"y": -1.0690591903,
				"z": -0.2663988192,
				"element": "H" 
			},
			{
				"x": 0.4385788669,
				"y": 2.5313497987,
				"z": 1.6686271005,
				"element": "H" 
			},
			{
				"x": -1.6790705358,
				"y": 3.6215557612,
				"z": 1.1204324413,
				"element": "H" 
			},
			{
				"x": 2.4291302541,
				"y": 1.653934363,
				"z": 0.9012560861,
				"element": "H" 
			},
			{
				"x": 2.018812689,
				"y": 1.2049883507,
				"z": 2.5648122223,
				"element": "H" 
			},
			{
				"x": 3.6351606655,
				"y": -0.5096765063,
				"z": 2.6593891844,
				"element": "H" 
			},
			{
				"x": 4.4301333477,
				"y": 0.5748405063,
				"z": 1.5308308303,
				"element": "H" 
			},
			{
				"x": 3.4835440932,
				"y": -0.751902829,
				"z": -0.2406776686,
				"element": "H" 
			},
			{
				"x": 2.7918939499,
				"y": -2.8716353739,
				"z": 1.6109377049,
				"element": "H" 
			},
			{
				"x": 2.2405501962,
				"y": -2.5699083701,
				"z": -0.0375506069,
				"element": "H" 
			},
			{
				"x": 0.3103731609,
				"y": -1.9136726214,
				"z": 1.1795864934,
				"element": "H" 
			},
			{
				"x": 1.2269167674,
				"y": -1.4092928108,
				"z": 2.5898078073,
				"element": "H" 
			}
		],
		 "valence_orbital": [ 
			{
				"type": "occ",
				"energy": -0.32524,
				"method": "rhf"
			},
			{
				"type": "occ",
				"energy": -0.25544,
				"method": "rhf"
			},
			{
				"type": "occ",
				"energy": -0.24426,
				"method": "rhf"
			},
			{
				"type": "occ",
				"energy": -0.22016,
				"method": "rhf"
			},
			{
				"type": "occ",
				"energy": -0.17872,
				"method": "rhf"
			},
			{
				"type": "unocc",
				"energy": 0.00308,
				"method": "rhf"
			},
			{
				"type": "unocc",
				"energy": 0.02921,
				"method": "rhf"
			},
			{
				"type": "unocc",
				"energy": 0.0744,
				"method": "rhf"
			},
			{
				"type": "unocc",
				"energy": 0.07945,
				"method": "rhf"
			},
			{
				"type": "unocc",
				"energy": 0.10032,
				"method": "rhf"
			}
		],
		"cosmo_sigma_profile": { 
			"-0.025": 0.0,
			"-0.024": 0.0,
			"-0.023": 0.0,
			"-0.022": 0.0,
			"-0.021": 0.0,
			"-0.02": 0.0,
			"-0.019": 0.0,
			"-0.018": 0.00249942518994,
			"-0.017": 0.845424915907,
			"-0.016": 0.8937942258,
			"-0.015": 1.17934158722,
			"-0.014": 1.18868184358,
			"-0.013": 0.408325598756,
			"-0.012": 1.07394839482,
			"-0.011": 1.10570076262,
			"-0.01": 1.36170391885,
			"-0.009": 1.65842014879,
			"-0.008": 2.5712865204,
			"-0.007": 2.20958739429,
			"-0.006": 5.90052408417,
			"-0.005": 10.1698802458,
			"-0.004": 17.9403457698,
			"-0.003": 29.6772197542,
			"-0.002": 27.9009601927,
			"-0.001": 19.6024246507,
			"0.0": 10.8308740221,
			"0.001": 9.01614723533,
			"0.002": 9.10074027483,
			"0.003": 6.98330349215,
			"0.004": 9.60873008101,
			"0.005": 11.3153614394,
			"0.006": 13.1518190652,
			"0.007": 8.62804647815,
			"0.008": 3.49568794233,
			"0.009": 2.26561292931,
			"0.01": 2.27695719151,
			"0.011": 2.34216396187,
			"0.012": 2.99761604804,
			"0.013": 1.13551798314,
			"0.014": 0.425311565641,
			"0.015": 0.435180421946,
			"0.016": 0.433305594954,
			"0.017": 0.87934301298,
			"0.018": 0.48503397704,
			"0.019": 0.221732184508,
			"0.02": 0.0,
			"0.021": 0.0,
			"0.022": 0.0,
			"0.023": 0.0,
			"0.024": 0.0,
			"0.025": 0.0
		}
	}
}
