{
	 "smiles": "OC1=CC2=C(OC(=O)C2)C=C1", 
	 "Tm": 465.15, 
	 "num_atms": 17, 
	 "gaussian": { 
		 "optdone": 1, 
		 "sigma_profile": "yes", 
		 "theory": "DFT", 
		 "functional": "B3LYP", 
		 "basiset": "6-31G**", 
		 "properties": { 
			 "R2extent": 3732.5182, 
			 "electric_dipole_moment_norm": 4.14000927294, 
			 "electric_quadrupole_moment_norm": 21.7663801106, 
			 "total_energy": -534.138936322, 
			 "HOMO_LUMO_gap": 0.19366, 
			 "cosmo_polarized_energy": -13.44, 
			 "cosmo_cavitation_energy": 21.62, 
			 "cosmo_dispersion_energy": -16.48, 
			 "cosmo_repulsion_energy": 1.32, 
			 "cosmo_total_nonelectrostatic_energy": 6.46, 
			 "SMD_solvation_energy": 5.05 
		},
		"coords": [
			{
				"x": 1.7869041282,
				"y": 0.5043002869,
				"z": 0.4071707161,
				"element": "O" 
			},
			{
				"x": 0.9559348128,
				"y": 0.7642423169,
				"z": -0.6478124614,
				"element": "C" 
			},
			{
				"x": 0.0308873381,
				"y": 1.8079004421,
				"z": -0.4825759903,
				"element": "C" 
			},
			{
				"x": -0.8281249375,
				"y": 2.1000390227,
				"z": -1.5314527298,
				"element": "C" 
			},
			{
				"x": -0.7614414966,
				"y": 1.3644445862,
				"z": -2.7162160695,
				"element": "C" 
			},
			{
				"x": -1.6892704415,
				"y": 1.7866097891,
				"z": -3.6596322924,
				"element": "O" 
			},
			{
				"x": -2.4197912583,
				"y": 2.8371959159,
				"z": -3.1265401343,
				"element": "C" 
			},
			{
				"x": -3.2898663067,
				"y": 3.3840051588,
				"z": -3.7436024715,
				"element": "O" 
			},
			{
				"x": -1.9160188333,
				"y": 3.1199012535,
				"z": -1.7055209864,
				"element": "C" 
			},
			{
				"x": 0.1400761055,
				"y": 0.3325212875,
				"z": -2.9036574575,
				"element": "C" 
			},
			{
				"x": 1.0073477623,
				"y": 0.037806635,
				"z": -1.8442150033,
				"element": "C" 
			},
			{
				"x": 2.3736982665,
				"y": -0.2277369515,
				"z": 0.1782168915,
				"element": "H" 
			},
			{
				"x": 0.011744343,
				"y": 2.3549954165,
				"z": 0.4541592618,
				"element": "H" 
			},
			{
				"x": -1.5742368476,
				"y": 4.1592833461,
				"z": -1.6458438261,
				"element": "H" 
			},
			{
				"x": -2.749395939,
				"y": 3.0156767468,
				"z": -1.0017382012,
				"element": "H" 
			},
			{
				"x": 0.1730676494,
				"y": -0.2246287788,
				"z": -3.8330305544,
				"element": "H" 
			},
			{
				"x": 1.7305856546,
				"y": -0.7670564738,
				"z": -1.9537086915,
				"element": "H" 
			}
		],
		 "valence_orbital": [ 
			{
				"type": "occ",
				"energy": -0.35248,
				"method": "rhf"
			},
			{
				"type": "occ",
				"energy": -0.31367,
				"method": "rhf"
			},
			{
				"type": "occ",
				"energy": -0.2802,
				"method": "rhf"
			},
			{
				"type": "occ",
				"energy": -0.26521,
				"method": "rhf"
			},
			{
				"type": "occ",
				"energy": -0.21972,
				"method": "rhf"
			},
			{
				"type": "unocc",
				"energy": -0.02606,
				"method": "rhf"
			},
			{
				"type": "unocc",
				"energy": -0.0053,
				"method": "rhf"
			},
			{
				"type": "unocc",
				"energy": 0.02,
				"method": "rhf"
			},
			{
				"type": "unocc",
				"energy": 0.0611,
				"method": "rhf"
			},
			{
				"type": "unocc",
				"energy": 0.08862,
				"method": "rhf"
			}
		],
		"cosmo_sigma_profile": { 
			"-0.025": 0.0,
			"-0.024": 0.0,
			"-0.023": 0.0,
			"-0.022": 0.0,
			"-0.021": 0.0,
			"-0.02": 0.0,
			"-0.019": 0.0,
			"-0.018": 0.332582561669,
			"-0.017": 1.25227768475,
			"-0.016": 1.21395366994,
			"-0.015": 0.943690808379,
			"-0.014": 0.97761106743,
			"-0.013": 1.05979779133,
			"-0.012": 0.968791941727,
			"-0.011": 1.0686834759,
			"-0.01": 0.949794607462,
			"-0.009": 1.61396024185,
			"-0.008": 6.86180039392,
			"-0.007": 10.3377484741,
			"-0.006": 10.8046700466,
			"-0.005": 10.3798711774,
			"-0.004": 11.2028748349,
			"-0.003": 7.89230990229,
			"-0.002": 6.33688557846,
			"-0.001": 6.10759623675,
			"0.0": 7.4599569115,
			"0.001": 8.02541529627,
			"0.002": 10.6936615792,
			"0.003": 13.3558440298,
			"0.004": 13.6517365905,
			"0.005": 5.29602871952,
			"0.006": 4.17906059834,
			"0.007": 3.84215088665,
			"0.008": 4.80773462039,
			"0.009": 5.77188420517,
			"0.01": 5.78578723199,
			"0.011": 7.68318279569,
			"0.012": 2.389649458,
			"0.013": 0.0,
			"0.014": 0.0,
			"0.015": 0.0,
			"0.016": 0.0,
			"0.017": 0.0,
			"0.018": 0.0,
			"0.019": 0.0,
			"0.02": 0.0,
			"0.021": 0.0,
			"0.022": 0.0,
			"0.023": 0.0,
			"0.024": 0.0,
			"0.025": 0.0
		}
	}
}
