{
	 "smiles": "FC1=C2N=CC(I)=CC2=CC=C1", 
	 "Tm": 351.15, 
	 "num_atms": 17, 
	 "gaussian": { 
		 "optdone": 1, 
		 "sigma_profile": "yes", 
		 "theory": "DFT", 
		 "functional": "B3LYP", 
		 "basiset": "6-31G**", 
		 "properties": { 
			 "R2extent": 2220.9927, 
			 "electric_dipole_moment_norm": 2.96197256908, 
			 "electric_quadrupole_moment_norm": 5.66227737752, 
			 "total_energy": -511.941907132, 
			 "HOMO_LUMO_gap": 0.16903, 
			 "cosmo_polarized_energy": -7.4, 
			 "cosmo_cavitation_energy": 25.17, 
			 "cosmo_dispersion_energy": -20.12, 
			 "cosmo_repulsion_energy": 1.52, 
			 "cosmo_total_nonelectrostatic_energy": 6.58, 
			 "SMD_solvation_energy": 2.39 
		},
		"coords": [
			{
				"x": -1.343322188,
				"y": 0.8446013362,
				"z": 1.4570028324,
				"element": "F" 
			},
			{
				"x": -0.8736889561,
				"y": 0.9202697503,
				"z": 0.2048720187,
				"element": "C" 
			},
			{
				"x": 0.0667215285,
				"y": -0.0578797252,
				"z": -0.2224208533,
				"element": "C" 
			},
			{
				"x": 0.4559254646,
				"y": -1.0301212265,
				"z": 0.6455618005,
				"element": "N" 
			},
			{
				"x": 1.3256064366,
				"y": -1.924496195,
				"z": 0.2315906932,
				"element": "C" 
			},
			{
				"x": 1.8754120824,
				"y": -1.9195431428,
				"z": -1.0803053719,
				"element": "C" 
			},
			{
				"x": 3.2675046509,
				"y": -3.4182546483,
				"z": -1.6189066104,
				"element": "I" 
			},
			{
				"x": 1.496881136,
				"y": -0.9470209641,
				"z": -1.9741300663,
				"element": "C" 
			},
			{
				"x": 0.5588783968,
				"y": 0.0365444995,
				"z": -1.5625615627,
				"element": "C" 
			},
			{
				"x": 0.107319606,
				"y": 1.0796072889,
				"z": -2.4131710021,
				"element": "C" 
			},
			{
				"x": -0.8046054273,
				"y": 2.0006401289,
				"z": -1.9480722967,
				"element": "C" 
			},
			{
				"x": -1.304211242,
				"y": 1.9255563708,
				"z": -0.6259251032,
				"element": "C" 
			},
			{
				"x": 1.6235076494,
				"y": -2.6931992646,
				"z": 0.9411465212,
				"element": "H" 
			},
			{
				"x": 1.8975782889,
				"y": -0.9152094412,
				"z": -2.9821696137,
				"element": "H" 
			},
			{
				"x": 0.489640897,
				"y": 1.1387050708,
				"z": -3.4279887822,
				"element": "H" 
			},
			{
				"x": -1.1514824084,
				"y": 2.7992031592,
				"z": -2.596496077,
				"element": "H" 
			},
			{
				"x": -2.0224659154,
				"y": 2.6476970032,
				"z": -0.2536265266,
				"element": "H" 
			}
		],
		 "valence_orbital": [ 
			{
				"type": "occ",
				"energy": -0.28897,
				"method": "rhf"
			},
			{
				"type": "occ",
				"energy": -0.28139,
				"method": "rhf"
			},
			{
				"type": "occ",
				"energy": -0.26897,
				"method": "rhf"
			},
			{
				"type": "occ",
				"energy": -0.25583,
				"method": "rhf"
			},
			{
				"type": "occ",
				"energy": -0.23715,
				"method": "rhf"
			},
			{
				"type": "unocc",
				"energy": -0.06812,
				"method": "rhf"
			},
			{
				"type": "unocc",
				"energy": -0.04754,
				"method": "rhf"
			},
			{
				"type": "unocc",
				"energy": -0.03633,
				"method": "rhf"
			},
			{
				"type": "unocc",
				"energy": 0.01066,
				"method": "rhf"
			},
			{
				"type": "unocc",
				"energy": 0.03916,
				"method": "rhf"
			}
		],
		"cosmo_sigma_profile": { 
			"-0.025": 0.0,
			"-0.024": 0.0,
			"-0.023": 0.0,
			"-0.022": 0.0,
			"-0.021": 0.0,
			"-0.02": 0.0,
			"-0.019": 0.0,
			"-0.018": 0.0,
			"-0.017": 0.0,
			"-0.016": 0.0,
			"-0.015": 0.0,
			"-0.014": 0.0,
			"-0.013": 0.0,
			"-0.012": 0.0,
			"-0.011": 0.0,
			"-0.01": 0.0,
			"-0.009": 0.84637762825,
			"-0.008": 4.01900212623,
			"-0.007": 10.7289972268,
			"-0.006": 11.0931370285,
			"-0.005": 10.9027220323,
			"-0.004": 10.0810012173,
			"-0.003": 8.99761367219,
			"-0.002": 9.48843363766,
			"-0.001": 15.3359798765,
			"0.0": 29.0353740574,
			"0.001": 24.6084624816,
			"0.002": 16.0996576117,
			"0.003": 20.4645098556,
			"0.004": 21.8046269933,
			"0.005": 3.43942562979,
			"0.006": 1.51049847114,
			"0.007": 2.03619457618,
			"0.008": 1.72836309648,
			"0.009": 1.03563367949,
			"0.01": 0.926600229836,
			"0.011": 1.47981395565,
			"0.012": 1.12139369998,
			"0.013": 0.78513549429,
			"0.014": 1.09426300668,
			"0.015": 0.15000056613,
			"0.016": 0.0,
			"0.017": 0.0,
			"0.018": 0.0,
			"0.019": 0.0,
			"0.02": 0.0,
			"0.021": 0.0,
			"0.022": 0.0,
			"0.023": 0.0,
			"0.024": 0.0,
			"0.025": 0.0
		}
	}
}
