{
	 "smiles": "CNC(=O)NC(=O)CCl", 
	 "Tm": 429.15, 
	 "num_atms": 16, 
	 "gaussian": { 
		 "optdone": 1, 
		 "sigma_profile": "yes", 
		 "theory": "DFT", 
		 "functional": "B3LYP", 
		 "basiset": "6-31G**", 
		 "properties": { 
			 "R2extent": 2408.3838, 
			 "electric_dipole_moment_norm": 4.57175881472, 
			 "electric_quadrupole_moment_norm": 10.3863449952, 
			 "total_energy": -876.813442928, 
			 "HOMO_LUMO_gap": 0.24142, 
			 "cosmo_polarized_energy": -20.85, 
			 "cosmo_cavitation_energy": 22.46, 
			 "cosmo_dispersion_energy": -16.69, 
			 "cosmo_repulsion_energy": 1.42, 
			 "cosmo_total_nonelectrostatic_energy": 7.19, 
			 "SMD_solvation_energy": 4.89 
		},
		"coords": [
			{
				"x": -1.3133026665,
				"y": -2.457108079,
				"z": 0.1576666485,
				"element": "C" 
			},
			{
				"x": -1.0738422073,
				"y": -1.052154236,
				"z": 0.4501088554,
				"element": "N" 
			},
			{
				"x": 0.1880991547,
				"y": -0.6286461953,
				"z": 0.7981904943,
				"element": "C" 
			},
			{
				"x": 1.1370816306,
				"y": -1.3629543839,
				"z": 0.9731057198,
				"element": "O" 
			},
			{
				"x": 0.2278214391,
				"y": 0.7816399096,
				"z": 0.9830023438,
				"element": "N" 
			},
			{
				"x": 1.3666900932,
				"y": 1.5458013705,
				"z": 1.1048640934,
				"element": "C" 
			},
			{
				"x": 2.5114232349,
				"y": 1.1716438551,
				"z": 0.9686826116,
				"element": "O" 
			},
			{
				"x": 1.157644917,
				"y": 3.0323721903,
				"z": 1.4371522911,
				"element": "C" 
			},
			{
				"x": -0.556374362,
				"y": 3.6290893305,
				"z": 1.5673497798,
				"element": "Cl" 
			},
			{
				"x": -1.1322113251,
				"y": -2.7019936277,
				"z": -0.8965189775,
				"element": "H" 
			},
			{
				"x": -0.6312780761,
				"y": -3.0502679149,
				"z": 0.7668743186,
				"element": "H" 
			},
			{
				"x": -2.3445686562,
				"y": -2.7152499002,
				"z": 0.4122819088,
				"element": "H" 
			},
			{
				"x": -1.7077257542,
				"y": -0.3795302958,
				"z": 0.0431534917,
				"element": "H" 
			},
			{
				"x": -0.6495216217,
				"y": 1.2678129213,
				"z": 1.1201053123,
				"element": "H" 
			},
			{
				"x": 1.6382168751,
				"y": 3.2354744983,
				"z": 2.3945203993,
				"element": "H" 
			},
			{
				"x": 1.6449473245,
				"y": 3.6245705572,
				"z": 0.6630607092,
				"element": "H" 
			}
		],
		 "valence_orbital": [ 
			{
				"type": "occ",
				"energy": -0.32206,
				"method": "rhf"
			},
			{
				"type": "occ",
				"energy": -0.29143,
				"method": "rhf"
			},
			{
				"type": "occ",
				"energy": -0.28523,
				"method": "rhf"
			},
			{
				"type": "occ",
				"energy": -0.26465,
				"method": "rhf"
			},
			{
				"type": "occ",
				"energy": -0.25728,
				"method": "rhf"
			},
			{
				"type": "unocc",
				"energy": -0.01586,
				"method": "rhf"
			},
			{
				"type": "unocc",
				"energy": 0.00352,
				"method": "rhf"
			},
			{
				"type": "unocc",
				"energy": 0.05399,
				"method": "rhf"
			},
			{
				"type": "unocc",
				"energy": 0.0633,
				"method": "rhf"
			},
			{
				"type": "unocc",
				"energy": 0.09631,
				"method": "rhf"
			}
		],
		"cosmo_sigma_profile": { 
			"-0.025": 0.0,
			"-0.024": 0.0,
			"-0.023": 0.0,
			"-0.022": 0.0,
			"-0.021": 0.0,
			"-0.02": 0.0,
			"-0.019": 0.0,
			"-0.018": 0.0833190019706,
			"-0.017": 0.827023799502,
			"-0.016": 0.882516759569,
			"-0.015": 1.83149332426,
			"-0.014": 1.68292551124,
			"-0.013": 1.65746551688,
			"-0.012": 1.38190008422,
			"-0.011": 1.54312013633,
			"-0.01": 2.37200209159,
			"-0.009": 6.19576580033,
			"-0.008": 5.47505573181,
			"-0.007": 5.98838972186,
			"-0.006": 6.52606796026,
			"-0.005": 13.0916538897,
			"-0.004": 11.4238412983,
			"-0.003": 10.9912295469,
			"-0.002": 14.6861422349,
			"-0.001": 11.4113009088,
			"0.0": 7.99892381847,
			"0.001": 7.29175656888,
			"0.002": 6.26464711802,
			"0.003": 6.78740146683,
			"0.004": 7.92596660963,
			"0.005": 9.52512371836,
			"0.006": 3.34767084839,
			"0.007": 2.20064359124,
			"0.008": 1.83804546357,
			"0.009": 2.62026933165,
			"0.01": 2.64118047458,
			"0.011": 4.61648530115,
			"0.012": 7.24639504045,
			"0.013": 6.18006219392,
			"0.014": 1.91240353921,
			"0.015": 1.80394927319,
			"0.016": 1.43039249259,
			"0.017": 0.501536680493,
			"0.018": 0.0,
			"0.019": 0.0,
			"0.02": 0.0,
			"0.021": 0.0,
			"0.022": 0.0,
			"0.023": 0.0,
			"0.024": 0.0,
			"0.025": 0.0
		}
	}
}
