{
	 "smiles": "ClCC1=CC=C(C=C1)C1=NC2=C(S1)C=CC(Cl)=C2", 
	 "Tm": 438.15, 
	 "num_atms": 27, 
	 "gaussian": { 
		 "optdone": 1, 
		 "sigma_profile": "yes", 
		 "theory": "DFT", 
		 "functional": "B3LYP", 
		 "basiset": "6-31G**", 
		 "properties": { 
			 "R2extent": 10666.5601, 
			 "electric_dipole_moment_norm": 2.72329663092, 
			 "electric_quadrupole_moment_norm": 22.0017372369, 
			 "total_energy": -1912.26069765, 
			 "HOMO_LUMO_gap": 0.15619, 
			 "cosmo_polarized_energy": -9.99, 
			 "cosmo_cavitation_energy": 37.04, 
			 "cosmo_dispersion_energy": -27.85, 
			 "cosmo_repulsion_energy": 2.09, 
			 "cosmo_total_nonelectrostatic_energy": 11.28, 
			 "SMD_solvation_energy": 3.5 
		},
		"coords": [
			{
				"x": -5.7781534164,
				"y": 1.436299995,
				"z": 0.5973538995,
				"element": "Cl" 
			},
			{
				"x": -4.3396206686,
				"y": 1.421689106,
				"z": 1.7398095078,
				"element": "C" 
			},
			{
				"x": -3.0899896818,
				"y": 0.9332950299,
				"z": 1.0718410193,
				"element": "C" 
			},
			{
				"x": -2.7670218801,
				"y": -0.4297089687,
				"z": 1.071834185,
				"element": "C" 
			},
			{
				"x": -1.6060671372,
				"y": -0.8849874608,
				"z": 0.4557953118,
				"element": "C" 
			},
			{
				"x": -0.7359045256,
				"y": 0.0155196027,
				"z": -0.1790520813,
				"element": "C" 
			},
			{
				"x": -1.0596116679,
				"y": 1.3843882968,
				"z": -0.1810009735,
				"element": "C" 
			},
			{
				"x": -2.2209871088,
				"y": 1.8317152734,
				"z": 0.435793746,
				"element": "C" 
			},
			{
				"x": 0.5012121976,
				"y": -0.4236398738,
				"z": -0.8366881837,
				"element": "C" 
			},
			{
				"x": 1.3381208641,
				"y": 0.3859809553,
				"z": -1.4142760701,
				"element": "N" 
			},
			{
				"x": 2.4144549032,
				"y": -0.2882336328,
				"z": -1.9526277814,
				"element": "C" 
			},
			{
				"x": 2.4014915047,
				"y": -1.6942794438,
				"z": -1.7773285153,
				"element": "C" 
			},
			{
				"x": 0.9621313708,
				"y": -2.1514312344,
				"z": -0.8964927939,
				"element": "S" 
			},
			{
				"x": 3.4320190322,
				"y": -2.4949672365,
				"z": -2.2738443554,
				"element": "C" 
			},
			{
				"x": 4.4829109401,
				"y": -1.882959221,
				"z": -2.9504180909,
				"element": "C" 
			},
			{
				"x": 4.4925011793,
				"y": -0.488245676,
				"z": -3.1221513204,
				"element": "C" 
			},
			{
				"x": 5.838769306,
				"y": 0.2454426101,
				"z": -3.9825380102,
				"element": "Cl" 
			},
			{
				"x": 3.4775627538,
				"y": 0.3225800603,
				"z": -2.6360084744,
				"element": "C" 
			},
			{
				"x": -4.6369346505,
				"y": 0.7809340602,
				"z": 2.5700553118,
				"element": "H" 
			},
			{
				"x": -4.239797912,
				"y": 2.4484800995,
				"z": 2.0918286058,
				"element": "H" 
			},
			{
				"x": -3.4313403287,
				"y": -1.1397129253,
				"z": 1.5566573046,
				"element": "H" 
			},
			{
				"x": -1.3782780148,
				"y": -1.9468486842,
				"z": 0.4747448385,
				"element": "H" 
			},
			{
				"x": -0.3850348476,
				"y": 2.0776754199,
				"z": -0.6702071537,
				"element": "H" 
			},
			{
				"x": -2.4604700952,
				"y": 2.8916521108,
				"z": 0.4239835918,
				"element": "H" 
			},
			{
				"x": 3.4240095293,
				"y": -3.571716734,
				"z": -2.1411220358,
				"element": "H" 
			},
			{
				"x": 5.2980520582,
				"y": -2.4766090052,
				"z": -3.3480068047,
				"element": "H" 
			},
			{
				"x": 3.4908762959,
				"y": 1.3971874766,
				"z": -2.7720346774,
				"element": "H" 
			}
		],
		 "valence_orbital": [ 
			{
				"type": "occ",
				"energy": -0.28814,
				"method": "rhf"
			},
			{
				"type": "occ",
				"energy": -0.27957,
				"method": "rhf"
			},
			{
				"type": "occ",
				"energy": -0.27114,
				"method": "rhf"
			},
			{
				"type": "occ",
				"energy": -0.24408,
				"method": "rhf"
			},
			{
				"type": "occ",
				"energy": -0.23306,
				"method": "rhf"
			},
			{
				"type": "unocc",
				"energy": -0.07687,
				"method": "rhf"
			},
			{
				"type": "unocc",
				"energy": -0.02334,
				"method": "rhf"
			},
			{
				"type": "unocc",
				"energy": -0.02023,
				"method": "rhf"
			},
			{
				"type": "unocc",
				"energy": -0.01407,
				"method": "rhf"
			},
			{
				"type": "unocc",
				"energy": -0.00097,
				"method": "rhf"
			}
		],
		"cosmo_sigma_profile": { 
			"-0.025": 0.0,
			"-0.024": 0.0,
			"-0.023": 0.0,
			"-0.022": 0.0,
			"-0.021": 0.0,
			"-0.02": 0.0,
			"-0.019": 0.0,
			"-0.018": 0.0,
			"-0.017": 0.0,
			"-0.016": 0.0,
			"-0.015": 0.0,
			"-0.014": 0.0,
			"-0.013": 0.0,
			"-0.012": 0.0,
			"-0.011": 0.0,
			"-0.01": 0.0,
			"-0.009": 0.0884521242997,
			"-0.008": 8.7386939478,
			"-0.007": 17.5805801939,
			"-0.006": 15.8083805344,
			"-0.005": 16.7090981523,
			"-0.004": 13.4929723976,
			"-0.003": 14.1223097694,
			"-0.002": 14.0245790583,
			"-0.001": 20.2816589777,
			"0.0": 23.4989555164,
			"0.001": 32.3212702204,
			"0.002": 39.0067933391,
			"0.003": 33.4465816493,
			"0.004": 21.3491073224,
			"0.005": 12.90660224,
			"0.006": 10.6776056728,
			"0.007": 6.93088819942,
			"0.008": 1.19209967439,
			"0.009": 1.72697496172,
			"0.01": 0.83523139301,
			"0.011": 0.517932868285,
			"0.012": 0.0,
			"0.013": 0.0,
			"0.014": 0.0,
			"0.015": 0.0,
			"0.016": 0.0,
			"0.017": 0.0,
			"0.018": 0.0,
			"0.019": 0.0,
			"0.02": 0.0,
			"0.021": 0.0,
			"0.022": 0.0,
			"0.023": 0.0,
			"0.024": 0.0,
			"0.025": 0.0
		}
	}
}
