{
	 "smiles": "COC1=CC(NC2=NC(C)(C)CS2)=CC=C1", 
	 "Tm": 379.15, 
	 "num_atms": 32, 
	 "gaussian": { 
		 "optdone": 1, 
		 "sigma_profile": "yes", 
		 "theory": "DFT", 
		 "functional": "B3LYP", 
		 "basiset": "6-31G**", 
		 "properties": { 
			 "R2extent": 5693.7903, 
			 "electric_dipole_moment_norm": 1.39819049847, 
			 "electric_quadrupole_moment_norm": 10.3171379747, 
			 "total_energy": -1049.83248482, 
			 "HOMO_LUMO_gap": 0.19449, 
			 "cosmo_polarized_energy": -10.47, 
			 "cosmo_cavitation_energy": 35.74, 
			 "cosmo_dispersion_energy": -25.94, 
			 "cosmo_repulsion_energy": 1.98, 
			 "cosmo_total_nonelectrostatic_energy": 11.78, 
			 "SMD_solvation_energy": 4.16 
		},
		"coords": [
			{
				"x": -2.4174581056,
				"y": -2.1424162969,
				"z": 3.8828229814,
				"element": "C" 
			},
			{
				"x": -3.5232240341,
				"y": -2.2610711854,
				"z": 3.0008122629,
				"element": "O" 
			},
			{
				"x": -3.3824700041,
				"y": -1.8203167752,
				"z": 1.7178579176,
				"element": "C" 
			},
			{
				"x": -2.193042223,
				"y": -1.2915035209,
				"z": 1.2045475668,
				"element": "C" 
			},
			{
				"x": -2.1508194024,
				"y": -0.8510114263,
				"z": -0.1284831659,
				"element": "C" 
			},
			{
				"x": -0.9843699708,
				"y": -0.3209117109,
				"z": -0.7112711076,
				"element": "N" 
			},
			{
				"x": 0.0791233153,
				"y": 0.3671304084,
				"z": -0.1792537273,
				"element": "C" 
			},
			{
				"x": 1.1228318536,
				"y": 0.6121996703,
				"z": -0.8758190628,
				"element": "N" 
			},
			{
				"x": 2.0593532735,
				"y": 1.5330300899,
				"z": -0.2263496196,
				"element": "C" 
			},
			{
				"x": 1.8387034316,
				"y": 2.9410615541,
				"z": -0.8127728402,
				"element": "C" 
			},
			{
				"x": 3.4973411861,
				"y": 1.0637077418,
				"z": -0.4909269055,
				"element": "C" 
			},
			{
				"x": 1.7669915297,
				"y": 1.5274491818,
				"z": 1.3091301491,
				"element": "C" 
			},
			{
				"x": 0.0036491389,
				"y": 1.0604124682,
				"z": 1.4942827482,
				"element": "S" 
			},
			{
				"x": -3.2830630518,
				"y": -0.9801445664,
				"z": -0.9441997083,
				"element": "C" 
			},
			{
				"x": -4.4507447419,
				"y": -1.5354547884,
				"z": -0.4206213203,
				"element": "C" 
			},
			{
				"x": -4.5176594599,
				"y": -1.9488146174,
				"z": 0.9046127828,
				"element": "C" 
			},
			{
				"x": -2.7627463282,
				"y": -2.5141038884,
				"z": 4.84887756,
				"element": "H" 
			},
			{
				"x": -2.0941479309,
				"y": -1.0993496092,
				"z": 3.9893813525,
				"element": "H" 
			},
			{
				"x": -1.5652076619,
				"y": -2.7481321155,
				"z": 3.5484763495,
				"element": "H" 
			},
			{
				"x": -1.3028649699,
				"y": -1.2357091118,
				"z": 1.8139519758,
				"element": "H" 
			},
			{
				"x": -0.906251925,
				"y": -0.4123636585,
				"z": -1.7152432355,
				"element": "H" 
			},
			{
				"x": 0.8357175803,
				"y": 3.3073617662,
				"z": -0.5722471211,
				"element": "H" 
			},
			{
				"x": 2.5726240651,
				"y": 3.6511107811,
				"z": -0.4154117669,
				"element": "H" 
			},
			{
				"x": 1.9385842782,
				"y": 2.9106475357,
				"z": -1.9012525719,
				"element": "H" 
			},
			{
				"x": 3.7062535885,
				"y": 1.0733102128,
				"z": -1.5645147087,
				"element": "H" 
			},
			{
				"x": 3.6414706629,
				"y": 0.0418821058,
				"z": -0.1271423645,
				"element": "H" 
			},
			{
				"x": 4.2214535202,
				"y": 1.7175204967,
				"z": 0.0074280312,
				"element": "H" 
			},
			{
				"x": 1.9298078496,
				"y": 2.5057479381,
				"z": 1.7668239074,
				"element": "H" 
			},
			{
				"x": 2.3802043407,
				"y": 0.7871372524,
				"z": 1.8302950112,
				"element": "H" 
			},
			{
				"x": -3.2490618652,
				"y": -0.6346352337,
				"z": -1.9733542355,
				"element": "H" 
			},
			{
				"x": -5.3254556277,
				"y": -1.6339921723,
				"z": -1.0569551245,
				"element": "H" 
			},
			{
				"x": -5.421422312,
				"y": -2.3715785263,
				"z": 1.3290179898,
				"element": "H" 
			}
		],
		 "valence_orbital": [ 
			{
				"type": "occ",
				"energy": -0.27716,
				"method": "rhf"
			},
			{
				"type": "occ",
				"energy": -0.25856,
				"method": "rhf"
			},
			{
				"type": "occ",
				"energy": -0.2319,
				"method": "rhf"
			},
			{
				"type": "occ",
				"energy": -0.22512,
				"method": "rhf"
			},
			{
				"type": "occ",
				"energy": -0.20136,
				"method": "rhf"
			},
			{
				"type": "unocc",
				"energy": -0.00687,
				"method": "rhf"
			},
			{
				"type": "unocc",
				"energy": 0.00523,
				"method": "rhf"
			},
			{
				"type": "unocc",
				"energy": 0.02196,
				"method": "rhf"
			},
			{
				"type": "unocc",
				"energy": 0.04834,
				"method": "rhf"
			},
			{
				"type": "unocc",
				"energy": 0.07036,
				"method": "rhf"
			}
		],
		"cosmo_sigma_profile": { 
			"-0.025": 0.0,
			"-0.024": 0.0,
			"-0.023": 0.0,
			"-0.022": 0.0,
			"-0.021": 0.0,
			"-0.02": 0.0,
			"-0.019": 0.0,
			"-0.018": 0.0,
			"-0.017": 0.0,
			"-0.016": 0.0,
			"-0.015": 0.013400921472,
			"-0.014": 0.919209045338,
			"-0.013": 0.606658024175,
			"-0.012": 1.15257470599,
			"-0.011": 0.913956833525,
			"-0.01": 1.3948990226,
			"-0.009": 0.856575479571,
			"-0.008": 1.24307629246,
			"-0.007": 1.66483235532,
			"-0.006": 8.25467871826,
			"-0.005": 17.077896447,
			"-0.004": 24.2814619524,
			"-0.003": 33.6097525184,
			"-0.002": 27.672825362,
			"-0.001": 20.867921034,
			"0.0": 22.974972787,
			"0.001": 23.0187304157,
			"0.002": 17.9638151048,
			"0.003": 18.3296705264,
			"0.004": 17.8097689445,
			"0.005": 14.8731317936,
			"0.006": 10.1490039785,
			"0.007": 4.30410064612,
			"0.008": 3.3646206045,
			"0.009": 2.71386670437,
			"0.01": 2.4164447868,
			"0.011": 1.30824635176,
			"0.012": 1.01383246512,
			"0.013": 0.675808271108,
			"0.014": 1.12121682119,
			"0.015": 0.515764136884,
			"0.016": 0.563537146428,
			"0.017": 0.00310637952647,
			"0.018": 0.0,
			"0.019": 0.0,
			"0.02": 0.0,
			"0.021": 0.0,
			"0.022": 0.0,
			"0.023": 0.0,
			"0.024": 0.0,
			"0.025": 0.0
		}
	}
}
