{
	 "smiles": "FC(F)(F)CNC(=O)C1=CC=C(C=C1)S(Cl)(=O)=O", 
	 "Tm": 413.15, 
	 "num_atms": 25, 
	 "gaussian": { 
		 "optdone": 1, 
		 "sigma_profile": "yes", 
		 "theory": "DFT", 
		 "functional": "B3LYP", 
		 "basiset": "6-31G**", 
		 "properties": { 
			 "R2extent": 8941.6324, 
			 "electric_dipole_moment_norm": 4.38817788723, 
			 "electric_quadrupole_moment_norm": 18.539745173, 
			 "total_energy": -1785.45443974, 
			 "HOMO_LUMO_gap": 0.17987, 
			 "cosmo_polarized_energy": -17.07, 
			 "cosmo_cavitation_energy": 35.53, 
			 "cosmo_dispersion_energy": -25.35, 
			 "cosmo_repulsion_energy": 1.86, 
			 "cosmo_total_nonelectrostatic_energy": 12.05, 
			 "SMD_solvation_energy": 5.89 
		},
		"coords": [
			{
				"x": 2.9165433919,
				"y": -3.9764824855,
				"z": 1.4799822892,
				"element": "F" 
			},
			{
				"x": 3.5710684099,
				"y": -3.5847927578,
				"z": 0.3574191837,
				"element": "C" 
			},
			{
				"x": 4.2611175872,
				"y": -2.4731555973,
				"z": 0.6632435195,
				"element": "F" 
			},
			{
				"x": 4.4472260969,
				"y": -4.5531825954,
				"z": 0.0326213469,
				"element": "F" 
			},
			{
				"x": 2.5855032828,
				"y": -3.3541758109,
				"z": -0.7770713392,
				"element": "C" 
			},
			{
				"x": 1.5854287292,
				"y": -2.372411251,
				"z": -0.4227493148,
				"element": "N" 
			},
			{
				"x": 1.6407526734,
				"y": -1.0946648777,
				"z": -0.9284602743,
				"element": "C" 
			},
			{
				"x": 2.4571930629,
				"y": -0.7539759494,
				"z": -1.7742311242,
				"element": "O" 
			},
			{
				"x": 0.6157939515,
				"y": -0.1282991696,
				"z": -0.3948121902,
				"element": "C" 
			},
			{
				"x": 0.9008059132,
				"y": 1.2367298755,
				"z": -0.5366092958,
				"element": "C" 
			},
			{
				"x": 0.0080783379,
				"y": 2.1972734094,
				"z": -0.0721749858,
				"element": "C" 
			},
			{
				"x": -1.1801660406,
				"y": 1.7669642869,
				"z": 0.5205924825,
				"element": "C" 
			},
			{
				"x": -1.5040029685,
				"y": 0.417249107,
				"z": 0.6525712986,
				"element": "C" 
			},
			{
				"x": -0.5940816279,
				"y": -0.5306026616,
				"z": 0.1889490066,
				"element": "C" 
			},
			{
				"x": -2.3504526154,
				"y": 2.9907517358,
				"z": 1.1010899933,
				"element": "S" 
			},
			{
				"x": -1.6918849048,
				"y": 3.2625359405,
				"z": 3.1108749751,
				"element": "Cl" 
			},
			{
				"x": -3.6742928181,
				"y": 2.3874466127,
				"z": 1.1836581894,
				"element": "O" 
			},
			{
				"x": -2.1064894551,
				"y": 4.2531407265,
				"z": 0.4164204329,
				"element": "O" 
			},
			{
				"x": 2.1249021626,
				"y": -4.316866951,
				"z": -1.019977806,
				"element": "H" 
			},
			{
				"x": 3.1269872921,
				"y": -2.9823304708,
				"z": -1.6479675547,
				"element": "H" 
			},
			{
				"x": 1.0483181172,
				"y": -2.545527588,
				"z": 0.414197317,
				"element": "H" 
			},
			{
				"x": 1.8277901482,
				"y": 1.5229586295,
				"z": -1.0205732146,
				"element": "H" 
			},
			{
				"x": 0.2165604555,
				"y": 3.2561696133,
				"z": -0.1749578988,
				"element": "H" 
			},
			{
				"x": -2.4502307318,
				"y": 0.1214818351,
				"z": 1.0909820081,
				"element": "H" 
			},
			{
				"x": -0.8565684502,
				"y": -1.5818336064,
				"z": 0.2539829555,
				"element": "H" 
			}
		],
		 "valence_orbital": [ 
			{
				"type": "occ",
				"energy": -0.31995,
				"method": "rhf"
			},
			{
				"type": "occ",
				"energy": -0.30225,
				"method": "rhf"
			},
			{
				"type": "occ",
				"energy": -0.29989,
				"method": "rhf"
			},
			{
				"type": "occ",
				"energy": -0.29309,
				"method": "rhf"
			},
			{
				"type": "occ",
				"energy": -0.28259,
				"method": "rhf"
			},
			{
				"type": "unocc",
				"energy": -0.10272,
				"method": "rhf"
			},
			{
				"type": "unocc",
				"energy": -0.06821,
				"method": "rhf"
			},
			{
				"type": "unocc",
				"energy": -0.0498,
				"method": "rhf"
			},
			{
				"type": "unocc",
				"energy": 0.01041,
				"method": "rhf"
			},
			{
				"type": "unocc",
				"energy": 0.04339,
				"method": "rhf"
			}
		],
		"cosmo_sigma_profile": { 
			"-0.025": 0.0,
			"-0.024": 0.0,
			"-0.023": 0.0,
			"-0.022": 0.0,
			"-0.021": 0.0,
			"-0.02": 0.0,
			"-0.019": 0.0,
			"-0.018": 0.0,
			"-0.017": 0.0,
			"-0.016": 0.123772471853,
			"-0.015": 0.930239229216,
			"-0.014": 1.10285640887,
			"-0.013": 1.02400559581,
			"-0.012": 1.39073169956,
			"-0.011": 2.08203256336,
			"-0.01": 1.19478681848,
			"-0.009": 5.53002617623,
			"-0.008": 11.284466864,
			"-0.007": 12.1097767539,
			"-0.006": 10.7125871082,
			"-0.005": 11.4284583874,
			"-0.004": 11.5851736014,
			"-0.003": 12.9554047158,
			"-0.002": 15.9658243957,
			"-0.001": 20.4740055917,
			"0.0": 26.9250223517,
			"0.001": 19.8349470932,
			"0.002": 31.6727083461,
			"0.003": 38.0833790385,
			"0.004": 9.30443107195,
			"0.005": 5.19303234471,
			"0.006": 4.51364651599,
			"0.007": 8.47591604216,
			"0.008": 10.1586551344,
			"0.009": 4.91604895184,
			"0.01": 1.67881140057,
			"0.011": 1.91404514341,
			"0.012": 4.02271355664,
			"0.013": 1.34149600847,
			"0.014": 0.0,
			"0.015": 0.0,
			"0.016": 0.0,
			"0.017": 0.0,
			"0.018": 0.0,
			"0.019": 0.0,
			"0.02": 0.0,
			"0.021": 0.0,
			"0.022": 0.0,
			"0.023": 0.0,
			"0.024": 0.0,
			"0.025": 0.0
		}
	}
}
