{
	 "smiles": "BrCCOC1=CC=C(C=C1)S(=O)(=O)N1CCOCC1", 
	 "Tm": 411.15, 
	 "num_atms": 35, 
	 "gaussian": { 
		 "optdone": 1, 
		 "sigma_profile": "yes", 
		 "theory": "DFT", 
		 "functional": "B3LYP", 
		 "basiset": "6-31G**", 
		 "properties": { 
			 "R2extent": 16110.3536, 
			 "electric_dipole_moment_norm": 3.99054443654, 
			 "electric_quadrupole_moment_norm": 5.7300220846, 
			 "total_energy": -3792.06506838, 
			 "HOMO_LUMO_gap": 0.19806, 
			 "cosmo_polarized_energy": -17.31, 
			 "cosmo_cavitation_energy": 40.95, 
			 "cosmo_dispersion_energy": -30.36, 
			 "cosmo_repulsion_energy": 2.32, 
			 "cosmo_total_nonelectrostatic_energy": 12.91, 
			 "SMD_solvation_energy": 4.22 
		},
		"coords": [
			{
				"x": -1.2889350342,
				"y": 8.0718121997,
				"z": -0.4771170249,
				"element": "Br" 
			},
			{
				"x": -0.4756047062,
				"y": 6.5064001956,
				"z": -1.3494659556,
				"element": "C" 
			},
			{
				"x": -0.5581442676,
				"y": 5.3074653969,
				"z": -0.4198786174,
				"element": "C" 
			},
			{
				"x": 0.055455716,
				"y": 4.2285252378,
				"z": -1.1239511418,
				"element": "O" 
			},
			{
				"x": 0.1197782444,
				"y": 3.0062851468,
				"z": -0.5275166449,
				"element": "C" 
			},
			{
				"x": -0.3721688135,
				"y": 2.7226497669,
				"z": 0.7520368192,
				"element": "C" 
			},
			{
				"x": -0.250691961,
				"y": 1.4284832686,
				"z": 1.2639008758,
				"element": "C" 
			},
			{
				"x": 0.3617839585,
				"y": 0.4347556038,
				"z": 0.5054025061,
				"element": "C" 
			},
			{
				"x": 0.8492457791,
				"y": 0.713481129,
				"z": -0.7790570949,
				"element": "C" 
			},
			{
				"x": 0.7308563706,
				"y": 1.9948295647,
				"z": -1.2908307968,
				"element": "C" 
			},
			{
				"x": 0.4520378223,
				"y": -1.2320549287,
				"z": 1.1476306911,
				"element": "S" 
			},
			{
				"x": -0.1343021591,
				"y": -1.2036874338,
				"z": 2.4978654938,
				"element": "O" 
			},
			{
				"x": -0.0596816406,
				"y": -2.169365401,
				"z": 0.1408904843,
				"element": "O" 
			},
			{
				"x": 2.1288689199,
				"y": -1.4801414396,
				"z": 1.1989949983,
				"element": "N" 
			},
			{
				"x": 2.619855786,
				"y": -2.8446414773,
				"z": 0.9145097955,
				"element": "C" 
			},
			{
				"x": 2.7277354644,
				"y": -3.6829332601,
				"z": 2.1892568778,
				"element": "C" 
			},
			{
				"x": 3.5173492823,
				"y": -3.0186899062,
				"z": 3.1699093438,
				"element": "O" 
			},
			{
				"x": 2.9437799431,
				"y": -1.7673124801,
				"z": 3.5337658898,
				"element": "C" 
			},
			{
				"x": 2.8500189088,
				"y": -0.8408853122,
				"z": 2.3186712463,
				"element": "C" 
			},
			{
				"x": 0.5566139479,
				"y": 6.7710363335,
				"z": -1.5737233768,
				"element": "H" 
			},
			{
				"x": -1.0269216122,
				"y": 6.3379420986,
				"z": -2.2732802301,
				"element": "H" 
			},
			{
				"x": -0.0272347668,
				"y": 5.5109315442,
				"z": 0.5181546565,
				"element": "H" 
			},
			{
				"x": -1.6037661157,
				"y": 5.0736723559,
				"z": -0.1855050676,
				"element": "H" 
			},
			{
				"x": -0.8498416145,
				"y": 3.4870859373,
				"z": 1.3525690433,
				"element": "H" 
			},
			{
				"x": -0.6344151232,
				"y": 1.185736801,
				"z": 2.2486329872,
				"element": "H" 
			},
			{
				"x": 1.3161476993,
				"y": -0.0703989689,
				"z": -1.3653424018,
				"element": "H" 
			},
			{
				"x": 1.0987912238,
				"y": 2.2432420459,
				"z": -2.2805075321,
				"element": "H" 
			},
			{
				"x": 3.6150947332,
				"y": -2.7310419263,
				"z": 0.4672430422,
				"element": "H" 
			},
			{
				"x": 1.9591337818,
				"y": -3.3110307804,
				"z": 0.1822471453,
				"element": "H" 
			},
			{
				"x": 1.722344012,
				"y": -3.895710215,
				"z": 2.586516887,
				"element": "H" 
			},
			{
				"x": 3.2263827156,
				"y": -4.6345157594,
				"z": 1.9799926979,
				"element": "H" 
			},
			{
				"x": 1.9428042869,
				"y": -1.9116949145,
				"z": 3.9652175132,
				"element": "H" 
			},
			{
				"x": 3.6001195079,
				"y": -1.3339380342,
				"z": 4.2949501712,
				"element": "H" 
			},
			{
				"x": 2.3613568614,
				"y": 0.1020582109,
				"z": 2.5784143941,
				"element": "H" 
			},
			{
				"x": 3.8577528491,
				"y": -0.6075505995,
				"z": 1.954002325,
				"element": "H" 
			}
		],
		 "valence_orbital": [ 
			{
				"type": "occ",
				"energy": -0.28941,
				"method": "rhf"
			},
			{
				"type": "occ",
				"energy": -0.28277,
				"method": "rhf"
			},
			{
				"type": "occ",
				"energy": -0.27592,
				"method": "rhf"
			},
			{
				"type": "occ",
				"energy": -0.25013,
				"method": "rhf"
			},
			{
				"type": "occ",
				"energy": -0.23011,
				"method": "rhf"
			},
			{
				"type": "unocc",
				"energy": -0.03205,
				"method": "rhf"
			},
			{
				"type": "unocc",
				"energy": -0.02551,
				"method": "rhf"
			},
			{
				"type": "unocc",
				"energy": -0.01509,
				"method": "rhf"
			},
			{
				"type": "unocc",
				"energy": 0.05911,
				"method": "rhf"
			},
			{
				"type": "unocc",
				"energy": 0.0834,
				"method": "rhf"
			}
		],
		"cosmo_sigma_profile": { 
			"-0.025": 0.0,
			"-0.024": 0.0,
			"-0.023": 0.0,
			"-0.022": 0.0,
			"-0.021": 0.0,
			"-0.02": 0.0,
			"-0.019": 0.0,
			"-0.018": 0.0,
			"-0.017": 0.0,
			"-0.016": 0.0,
			"-0.015": 0.0,
			"-0.014": 0.0,
			"-0.013": 0.0,
			"-0.012": 0.0,
			"-0.011": 0.0,
			"-0.01": 0.0,
			"-0.009": 0.0,
			"-0.008": 4.96800387689,
			"-0.007": 13.2253608502,
			"-0.006": 23.6207309514,
			"-0.005": 32.8888711133,
			"-0.004": 29.0560569561,
			"-0.003": 24.5200188028,
			"-0.002": 23.2753575809,
			"-0.001": 18.1403284181,
			"0.0": 15.9327006094,
			"0.001": 21.1704203003,
			"0.002": 23.019064467,
			"0.003": 20.2156237942,
			"0.004": 11.7947419988,
			"0.005": 16.5097111598,
			"0.006": 11.3989156461,
			"0.007": 5.88745380236,
			"0.008": 3.85037874495,
			"0.009": 4.4883797609,
			"0.01": 7.15611224444,
			"0.011": 7.99758030768,
			"0.012": 5.97194195948,
			"0.013": 1.83288905273,
			"0.014": 0.0351719941647,
			"0.015": 0.0,
			"0.016": 0.0,
			"0.017": 0.0,
			"0.018": 0.0,
			"0.019": 0.0,
			"0.02": 0.0,
			"0.021": 0.0,
			"0.022": 0.0,
			"0.023": 0.0,
			"0.024": 0.0,
			"0.025": 0.0
		}
	}
}
