{
	 "smiles": "CC1=NN(CN2CCCCC2)C(=O)C1=N/NC1=CC(O)=CC=C1", 
	 "Tm": 477.15, 
	 "num_atms": 44, 
	 "gaussian": { 
		 "optdone": 1, 
		 "sigma_profile": "yes", 
		 "theory": "DFT", 
		 "functional": "B3LYP", 
		 "basiset": "6-31G**", 
		 "properties": { 
			 "R2extent": 12630.5616, 
			 "electric_dipole_moment_norm": 0.40927840158, 
			 "electric_quadrupole_moment_norm": 7.03751981383, 
			 "total_energy": -1046.5194427, 
			 "HOMO_LUMO_gap": 0.12356, 
			 "cosmo_polarized_energy": -16.29, 
			 "cosmo_cavitation_energy": 46.76, 
			 "cosmo_dispersion_energy": -33.06, 
			 "cosmo_repulsion_energy": 2.55, 
			 "cosmo_total_nonelectrostatic_energy": 16.25, 
			 "SMD_solvation_energy": 4.69 
		},
		"coords": [
			{
				"x": -1.4962393781,
				"y": -1.112784683,
				"z": 3.8684239253,
				"element": "C" 
			},
			{
				"x": -0.5275713981,
				"y": -1.2055689081,
				"z": 2.7358637525,
				"element": "C" 
			},
			{
				"x": 0.7051406634,
				"y": -0.7863467635,
				"z": 2.8395160769,
				"element": "N" 
			},
			{
				"x": 1.3383956075,
				"y": -1.0226224033,
				"z": 1.6149679533,
				"element": "N" 
			},
			{
				"x": 2.7123425942,
				"y": -0.6158335234,
				"z": 1.3944767086,
				"element": "C" 
			},
			{
				"x": 2.8308859718,
				"y": 0.7420461906,
				"z": 0.9025732786,
				"element": "N" 
			},
			{
				"x": 2.5706958272,
				"y": 1.7531411777,
				"z": 1.9387015242,
				"element": "C" 
			},
			{
				"x": 2.950149183,
				"y": 3.1670618228,
				"z": 1.4462232416,
				"element": "C" 
			},
			{
				"x": 2.8757686174,
				"y": 3.2476967412,
				"z": -0.0823108328,
				"element": "C" 
			},
			{
				"x": 3.8870804555,
				"y": 2.2660804818,
				"z": -0.7128525243,
				"element": "C" 
			},
			{
				"x": 4.0688930012,
				"y": 1.0103541325,
				"z": 0.1704011485,
				"element": "C" 
			},
			{
				"x": 0.5091307267,
				"y": -1.6008828819,
				"z": 0.6894414411,
				"element": "C" 
			},
			{
				"x": 0.7764176365,
				"y": -1.943241235,
				"z": -0.4739789416,
				"element": "O" 
			},
			{
				"x": -0.7682657626,
				"y": -1.7460813543,
				"z": 1.4134947848,
				"element": "C" 
			},
			{
				"x": -1.8829412178,
				"y": -2.2640740251,
				"z": 0.9549526589,
				"element": "N" 
			},
			{
				"x": -1.8675387797,
				"y": -2.7014888772,
				"z": -0.2854649026,
				"element": "N" 
			},
			{
				"x": -2.9996839754,
				"y": -3.2719576466,
				"z": -0.8824096199,
				"element": "C" 
			},
			{
				"x": -2.8778857267,
				"y": -3.7052891375,
				"z": -2.2105040017,
				"element": "C" 
			},
			{
				"x": -3.9765206269,
				"y": -4.281000279,
				"z": -2.8517798923,
				"element": "C" 
			},
			{
				"x": -3.9195645042,
				"y": -4.7213229564,
				"z": -4.1420824807,
				"element": "O" 
			},
			{
				"x": -5.193420362,
				"y": -4.4259410945,
				"z": -2.1751141005,
				"element": "C" 
			},
			{
				"x": -5.2922684594,
				"y": -3.9883459551,
				"z": -0.8556336683,
				"element": "C" 
			},
			{
				"x": -4.2104762651,
				"y": -3.4104040165,
				"z": -0.1932835203,
				"element": "C" 
			},
			{
				"x": -1.8683949266,
				"y": -2.1043877637,
				"z": 4.1482464436,
				"element": "H" 
			},
			{
				"x": -1.0103954669,
				"y": -0.6586009945,
				"z": 4.7342965493,
				"element": "H" 
			},
			{
				"x": -2.3671590247,
				"y": -0.5089931715,
				"z": 3.5908968345,
				"element": "H" 
			},
			{
				"x": 3.2415704613,
				"y": -0.7830509717,
				"z": 2.3487592378,
				"element": "H" 
			},
			{
				"x": 3.1155699322,
				"y": -1.2951870223,
				"z": 0.6388792026,
				"element": "H" 
			},
			{
				"x": 3.1236922712,
				"y": 1.5196401762,
				"z": 2.8690761785,
				"element": "H" 
			},
			{
				"x": 1.5070882204,
				"y": 1.7077740291,
				"z": 2.193756446,
				"element": "H" 
			},
			{
				"x": 2.2922586684,
				"y": 3.9061508562,
				"z": 1.9156073942,
				"element": "H" 
			},
			{
				"x": 3.9699675549,
				"y": 3.4147013201,
				"z": 1.7673865733,
				"element": "H" 
			},
			{
				"x": 1.8616684872,
				"y": 2.9887381296,
				"z": -0.4056686847,
				"element": "H" 
			},
			{
				"x": 3.0694204496,
				"y": 4.2693280465,
				"z": -0.4274386904,
				"element": "H" 
			},
			{
				"x": 4.861414834,
				"y": 2.7525932779,
				"z": -0.8431860543,
				"element": "H" 
			},
			{
				"x": 3.5416814039,
				"y": 1.9726461652,
				"z": -1.7097219318,
				"element": "H" 
			},
			{
				"x": 4.930890355,
				"y": 1.1442060693,
				"z": 0.8526943819,
				"element": "H" 
			},
			{
				"x": 4.3015139594,
				"y": 0.1417151877,
				"z": -0.4541063128,
				"element": "H" 
			},
			{
				"x": -0.9864223056,
				"y": -2.6107444128,
				"z": -0.8090693385,
				"element": "H" 
			},
			{
				"x": -1.9311423853,
				"y": -3.5914008266,
				"z": -2.7346576356,
				"element": "H" 
			},
			{
				"x": -3.0345163911,
				"y": -4.5660025988,
				"z": -4.4965213581,
				"element": "H" 
			},
			{
				"x": -6.0335770001,
				"y": -4.8756331396,
				"z": -2.6922635053,
				"element": "H" 
			},
			{
				"x": -6.2358335477,
				"y": -4.1001489629,
				"z": -0.3295406979,
				"element": "H" 
			},
			{
				"x": -4.2862193777,
				"y": -3.0702381997,
				"z": 0.8313529585,
				"element": "H" 
			}
		],
		 "valence_orbital": [ 
			{
				"type": "occ",
				"energy": -0.24726,
				"method": "rhf"
			},
			{
				"type": "occ",
				"energy": -0.24264,
				"method": "rhf"
			},
			{
				"type": "occ",
				"energy": -0.2293,
				"method": "rhf"
			},
			{
				"type": "occ",
				"energy": -0.21027,
				"method": "rhf"
			},
			{
				"type": "occ",
				"energy": -0.20595,
				"method": "rhf"
			},
			{
				"type": "unocc",
				"energy": -0.08239,
				"method": "rhf"
			},
			{
				"type": "unocc",
				"energy": -0.00317,
				"method": "rhf"
			},
			{
				"type": "unocc",
				"energy": 0.01926,
				"method": "rhf"
			},
			{
				"type": "unocc",
				"energy": 0.03751,
				"method": "rhf"
			},
			{
				"type": "unocc",
				"energy": 0.06414,
				"method": "rhf"
			}
		],
		"cosmo_sigma_profile": { 
			"-0.025": 0.0,
			"-0.024": 0.0,
			"-0.023": 0.0,
			"-0.022": 0.0,
			"-0.021": 0.0,
			"-0.02": 0.0,
			"-0.019": 0.0110426914901,
			"-0.018": 0.740479256532,
			"-0.017": 1.36276808407,
			"-0.016": 1.05483796539,
			"-0.015": 1.25409232217,
			"-0.014": 1.09413853948,
			"-0.013": 0.556380234137,
			"-0.012": 0.898836867134,
			"-0.011": 1.94638794222,
			"-0.01": 2.98372849376,
			"-0.009": 2.56713882534,
			"-0.008": 1.88306749415,
			"-0.007": 2.72977406314,
			"-0.006": 8.12344543259,
			"-0.005": 14.5371904011,
			"-0.004": 20.4199625516,
			"-0.003": 27.402398092,
			"-0.002": 46.1167561317,
			"-0.001": 52.3677545002,
			"0.0": 40.6699814305,
			"0.001": 29.7429897979,
			"0.002": 18.3194318461,
			"0.003": 18.8965674881,
			"0.004": 17.803805657,
			"0.005": 14.2621133183,
			"0.006": 6.92267362244,
			"0.007": 4.61501397536,
			"0.008": 4.92755123731,
			"0.009": 5.60687502291,
			"0.01": 4.53581608803,
			"0.011": 6.13989388298,
			"0.012": 3.95628589528,
			"0.013": 2.93798065463,
			"0.014": 0.908966316128,
			"0.015": 0.0843334808281,
			"0.016": 0.0,
			"0.017": 0.0,
			"0.018": 0.0,
			"0.019": 0.0,
			"0.02": 0.0,
			"0.021": 0.0,
			"0.022": 0.0,
			"0.023": 0.0,
			"0.024": 0.0,
			"0.025": 0.0
		}
	}
}
