{
	 "smiles": "CC(C)(C)OC(=O)N1CC2(C1)CNC(=O)C2", 
	 "Tm": 437.15, 
	 "num_atms": 34, 
	 "gaussian": { 
		 "optdone": 1, 
		 "sigma_profile": "yes", 
		 "theory": "DFT", 
		 "functional": "B3LYP", 
		 "basiset": "6-31G**", 
		 "properties": { 
			 "R2extent": 5653.4519, 
			 "electric_dipole_moment_norm": 2.41283360595, 
			 "electric_quadrupole_moment_norm": 30.807899827, 
			 "total_energy": -765.215254323, 
			 "HOMO_LUMO_gap": 0.26608, 
			 "cosmo_polarized_energy": -17.83, 
			 "cosmo_cavitation_energy": 35.86, 
			 "cosmo_dispersion_energy": -25.01, 
			 "cosmo_repulsion_energy": 1.99, 
			 "cosmo_total_nonelectrostatic_energy": 12.84, 
			 "SMD_solvation_energy": 5.55 
		},
		"coords": [
			{
				"x": 0.9948175272,
				"y": -2.6406003646,
				"z": 1.4791628079,
				"element": "C" 
			},
			{
				"x": 1.4324824611,
				"y": -2.3453001291,
				"z": 0.040469236,
				"element": "C" 
			},
			{
				"x": 0.9182559199,
				"y": -3.4230260441,
				"z": -0.9172046401,
				"element": "C" 
			},
			{
				"x": 2.9515474725,
				"y": -2.1859579919,
				"z": -0.0825195891,
				"element": "C" 
			},
			{
				"x": 0.7592429572,
				"y": -1.1320713597,
				"z": -0.4508677165,
				"element": "O" 
			},
			{
				"x": 0.969884835,
				"y": 0.0668239991,
				"z": 0.1416064178,
				"element": "C" 
			},
			{
				"x": 1.6734295455,
				"y": 0.2956003122,
				"z": 1.1133958027,
				"element": "O" 
			},
			{
				"x": 0.2795068018,
				"y": 1.0403530168,
				"z": -0.5271060982,
				"element": "N" 
			},
			{
				"x": -0.9290450514,
				"y": 0.9346732764,
				"z": -1.3551187102,
				"element": "C" 
			},
			{
				"x": -1.2658426258,
				"y": 2.4120494736,
				"z": -0.9672940308,
				"element": "C" 
			},
			{
				"x": -0.0687504433,
				"y": 2.3517345571,
				"z": 0.0252674853,
				"element": "C" 
			},
			{
				"x": -1.1309200662,
				"y": 3.4200351038,
				"z": -2.1302145191,
				"element": "C" 
			},
			{
				"x": -2.502262493,
				"y": 3.5364376351,
				"z": -2.6004744701,
				"element": "N" 
			},
			{
				"x": -3.4510678642,
				"y": 3.2057306391,
				"z": -1.6621602256,
				"element": "C" 
			},
			{
				"x": -4.6553898528,
				"y": 3.3304829635,
				"z": -1.7839164682,
				"element": "O" 
			},
			{
				"x": -2.681905173,
				"y": 2.6767438306,
				"z": -0.4446288848,
				"element": "C" 
			},
			{
				"x": 1.4109408804,
				"y": -3.6009773208,
				"z": 1.8005375045,
				"element": "H" 
			},
			{
				"x": -0.0963337129,
				"y": -2.7074963797,
				"z": 1.5381252672,
				"element": "H" 
			},
			{
				"x": 1.3394696506,
				"y": -1.8612152123,
				"z": 2.1591717309,
				"element": "H" 
			},
			{
				"x": 1.194595857,
				"y": -3.1867829018,
				"z": -1.9488944895,
				"element": "H" 
			},
			{
				"x": 1.3490418563,
				"y": -4.3942779142,
				"z": -0.6563586654,
				"element": "H" 
			},
			{
				"x": -0.1714849499,
				"y": -3.5013992497,
				"z": -0.8616481598,
				"element": "H" 
			},
			{
				"x": 3.3162026636,
				"y": -1.4014986565,
				"z": 0.5811348108,
				"element": "H" 
			},
			{
				"x": 3.2249220843,
				"y": -1.9358932822,
				"z": -1.1125597198,
				"element": "H" 
			},
			{
				"x": 3.4425495293,
				"y": -3.1287173612,
				"z": 0.1799467908,
				"element": "H" 
			},
			{
				"x": -0.7372305066,
				"y": 0.7423039469,
				"z": -2.4162899096,
				"element": "H" 
			},
			{
				"x": -1.6477451365,
				"y": 0.1936953782,
				"z": -0.9853902661,
				"element": "H" 
			},
			{
				"x": 0.7055632478,
				"y": 3.1165941759,
				"z": -0.1052250753,
				"element": "H" 
			},
			{
				"x": -0.3514867953,
				"y": 2.3152691452,
				"z": 1.0844763838,
				"element": "H" 
			},
			{
				"x": -0.7380714076,
				"y": 4.382383367,
				"z": -1.766241377,
				"element": "H" 
			},
			{
				"x": -0.4592798188,
				"y": 3.0592406075,
				"z": -2.916288106,
				"element": "H" 
			},
			{
				"x": -2.7698739928,
				"y": 4.0507817317,
				"z": -3.4274627833,
				"element": "H" 
			},
			{
				"x": -2.6846772153,
				"y": 3.4649939779,
				"z": 0.3199555095,
				"element": "H" 
			},
			{
				"x": -3.177686184,
				"y": 1.8029870304,
				"z": -0.0158858425,
				"element": "H" 
			}
		],
		 "valence_orbital": [ 
			{
				"type": "occ",
				"energy": -0.28787,
				"method": "rhf"
			},
			{
				"type": "occ",
				"energy": -0.26301,
				"method": "rhf"
			},
			{
				"type": "occ",
				"energy": -0.25985,
				"method": "rhf"
			},
			{
				"type": "occ",
				"energy": -0.24944,
				"method": "rhf"
			},
			{
				"type": "occ",
				"energy": -0.2423,
				"method": "rhf"
			},
			{
				"type": "unocc",
				"energy": 0.02378,
				"method": "rhf"
			},
			{
				"type": "unocc",
				"energy": 0.04341,
				"method": "rhf"
			},
			{
				"type": "unocc",
				"energy": 0.06657,
				"method": "rhf"
			},
			{
				"type": "unocc",
				"energy": 0.0813,
				"method": "rhf"
			},
			{
				"type": "unocc",
				"energy": 0.09379,
				"method": "rhf"
			}
		],
		"cosmo_sigma_profile": { 
			"-0.025": 0.0,
			"-0.024": 0.0,
			"-0.023": 0.0,
			"-0.022": 0.0,
			"-0.021": 0.0,
			"-0.02": 0.0,
			"-0.019": 0.0,
			"-0.018": 0.0,
			"-0.017": 0.0,
			"-0.016": 0.0,
			"-0.015": 0.0714938334952,
			"-0.014": 1.00715088143,
			"-0.013": 1.439456103,
			"-0.012": 0.962262184707,
			"-0.011": 0.983641041986,
			"-0.01": 0.735544878994,
			"-0.009": 0.842136298852,
			"-0.008": 1.1780490151,
			"-0.007": 1.16990254284,
			"-0.006": 10.0304295875,
			"-0.005": 27.9380325559,
			"-0.004": 32.4475696523,
			"-0.003": 30.8599176056,
			"-0.002": 24.8511490495,
			"-0.001": 21.5098784977,
			"0.0": 28.979568328,
			"0.001": 20.9655325753,
			"0.002": 8.75763212003,
			"0.003": 6.7177148583,
			"0.004": 7.89101035561,
			"0.005": 6.86778570515,
			"0.006": 4.61567082879,
			"0.007": 5.48238374562,
			"0.008": 3.42966979992,
			"0.009": 3.10259941258,
			"0.01": 2.52795509821,
			"0.011": 2.76307232093,
			"0.012": 4.05013355535,
			"0.013": 6.86458785196,
			"0.014": 8.18502959657,
			"0.015": 1.96211164349,
			"0.016": 0.0252959013208,
			"0.017": 0.0,
			"0.018": 0.0,
			"0.019": 0.0,
			"0.02": 0.0,
			"0.021": 0.0,
			"0.022": 0.0,
			"0.023": 0.0,
			"0.024": 0.0,
			"0.025": 0.0
		}
	}
}
