{
	 "smiles": "COC(=O)CNS(=O)(=O)C1=CN=C(Cl)C=C1", 
	 "Tm": 398.15, 
	 "num_atms": 25, 
	 "gaussian": { 
		 "optdone": 1, 
		 "sigma_profile": "yes", 
		 "theory": "DFT", 
		 "functional": "B3LYP", 
		 "basiset": "6-31G**", 
		 "properties": { 
			 "R2extent": 7220.1102, 
			 "electric_dipole_moment_norm": 5.49742554565, 
			 "electric_quadrupole_moment_norm": 15.1936229175, 
			 "total_energy": -1578.97820406, 
			 "HOMO_LUMO_gap": 0.21092, 
			 "cosmo_polarized_energy": -16.82, 
			 "cosmo_cavitation_energy": 33.91, 
			 "cosmo_dispersion_energy": -24.95, 
			 "cosmo_repulsion_energy": 1.93, 
			 "cosmo_total_nonelectrostatic_energy": 10.89, 
			 "SMD_solvation_energy": 4.44 
		},
		"coords": [
			{
				"x": -1.0128684627,
				"y": -2.3939055728,
				"z": 4.9060306095,
				"element": "C" 
			},
			{
				"x": -0.0959590054,
				"y": -2.1295121251,
				"z": 3.824265102,
				"element": "O" 
			},
			{
				"x": -0.5553823728,
				"y": -1.3205134262,
				"z": 2.8620850918,
				"element": "C" 
			},
			{
				"x": -1.6627626131,
				"y": -0.8263612897,
				"z": 2.8388150146,
				"element": "O" 
			},
			{
				"x": 0.5050185644,
				"y": -1.0870863327,
				"z": 1.7977752859,
				"element": "C" 
			},
			{
				"x": -0.109795051,
				"y": -0.3772216451,
				"z": 0.679751646,
				"element": "N" 
			},
			{
				"x": 0.775661884,
				"y": 0.8027111494,
				"z": -0.1269530416,
				"element": "S" 
			},
			{
				"x": -0.2177316946,
				"y": 1.7408471057,
				"z": -0.6495830696,
				"element": "O" 
			},
			{
				"x": 1.9075386075,
				"y": 1.2430894185,
				"z": 0.6982881824,
				"element": "O" 
			},
			{
				"x": 1.4781358705,
				"y": -0.0993170756,
				"z": -1.5078743707,
				"element": "C" 
			},
			{
				"x": 0.6596598118,
				"y": -0.5412777374,
				"z": -2.5492347078,
				"element": "C" 
			},
			{
				"x": 1.1398324431,
				"y": -1.2046680267,
				"z": -3.6059188122,
				"element": "N" 
			},
			{
				"x": 2.4442933209,
				"y": -1.4299095942,
				"z": -3.6447994722,
				"element": "C" 
			},
			{
				"x": 3.0467757259,
				"y": -2.3075502733,
				"z": -5.0404934549,
				"element": "Cl" 
			},
			{
				"x": 3.3572897683,
				"y": -1.0205277568,
				"z": -2.6679180918,
				"element": "C" 
			},
			{
				"x": 2.8521500911,
				"y": -0.3341089204,
				"z": -1.5682301615,
				"element": "C" 
			},
			{
				"x": -1.2849672939,
				"y": -1.4637249057,
				"z": 5.4096967067,
				"element": "H" 
			},
			{
				"x": -0.4783950446,
				"y": -3.0574328092,
				"z": 5.5844705266,
				"element": "H" 
			},
			{
				"x": -1.9177281995,
				"y": -2.8746427626,
				"z": 4.5278571804,
				"element": "H" 
			},
			{
				"x": 0.9121786672,
				"y": -2.0541785633,
				"z": 1.4827644754,
				"element": "H" 
			},
			{
				"x": 1.3239283309,
				"y": -0.5116946719,
				"z": 2.2480865001,
				"element": "H" 
			},
			{
				"x": -1.0287829511,
				"y": -0.0041689512,
				"z": 0.9253286531,
				"element": "H" 
			},
			{
				"x": -0.4101752818,
				"y": -0.3523416302,
				"z": -2.5361861391,
				"element": "H" 
			},
			{
				"x": 4.414624076,
				"y": -1.2309078432,
				"z": -2.7729408692,
				"element": "H" 
			},
			{
				"x": 3.4992608089,
				"y": 0.0239042398,
				"z": -0.7747827841,
				"element": "H" 
			}
		],
		 "valence_orbital": [ 
			{
				"type": "occ",
				"energy": -0.31701,
				"method": "rhf"
			},
			{
				"type": "occ",
				"energy": -0.30457,
				"method": "rhf"
			},
			{
				"type": "occ",
				"energy": -0.29561,
				"method": "rhf"
			},
			{
				"type": "occ",
				"energy": -0.29002,
				"method": "rhf"
			},
			{
				"type": "occ",
				"energy": -0.27149,
				"method": "rhf"
			},
			{
				"type": "unocc",
				"energy": -0.06057,
				"method": "rhf"
			},
			{
				"type": "unocc",
				"energy": -0.05382,
				"method": "rhf"
			},
			{
				"type": "unocc",
				"energy": -0.01305,
				"method": "rhf"
			},
			{
				"type": "unocc",
				"energy": 0.02137,
				"method": "rhf"
			},
			{
				"type": "unocc",
				"energy": 0.05463,
				"method": "rhf"
			}
		],
		"cosmo_sigma_profile": { 
			"-0.025": 0.0,
			"-0.024": 0.0,
			"-0.023": 0.0,
			"-0.022": 0.0,
			"-0.021": 0.0,
			"-0.02": 0.0,
			"-0.019": 0.0,
			"-0.018": 0.0,
			"-0.017": 0.0,
			"-0.016": 0.0,
			"-0.015": 0.0,
			"-0.014": 0.0,
			"-0.013": 0.0,
			"-0.012": 0.0,
			"-0.011": 0.0,
			"-0.01": 0.92414025836,
			"-0.009": 4.76006761629,
			"-0.008": 8.8805503576,
			"-0.007": 13.3587205538,
			"-0.006": 18.0992348554,
			"-0.005": 18.673111816,
			"-0.004": 20.3416075483,
			"-0.003": 19.6664230609,
			"-0.002": 24.5264203771,
			"-0.001": 19.6176678924,
			"0.0": 13.6380117908,
			"0.001": 12.8513261884,
			"0.002": 12.3458098474,
			"0.003": 14.4261389864,
			"0.004": 12.2801990209,
			"0.005": 7.50734140193,
			"0.006": 7.86086732031,
			"0.007": 7.23343436399,
			"0.008": 6.85397187539,
			"0.009": 7.52515762677,
			"0.01": 12.4040752482,
			"0.011": 8.24058958796,
			"0.012": 1.04387098219,
			"0.013": 0.748937379012,
			"0.014": 0.0494895842324,
			"0.015": 0.0,
			"0.016": 0.0,
			"0.017": 0.0,
			"0.018": 0.0,
			"0.019": 0.0,
			"0.02": 0.0,
			"0.021": 0.0,
			"0.022": 0.0,
			"0.023": 0.0,
			"0.024": 0.0,
			"0.025": 0.0
		}
	}
}
