{
	 "smiles": "CS(=O)(=O)C1=CC=C(C=C1)C#N", 
	 "Tm": 413.15, 
	 "num_atms": 19, 
	 "gaussian": { 
		 "optdone": 1, 
		 "sigma_profile": "yes", 
		 "theory": "DFT", 
		 "functional": "B3LYP", 
		 "basiset": "6-31G**", 
		 "properties": { 
			 "R2extent": 2781.2187, 
			 "electric_dipole_moment_norm": 3.69699645388, 
			 "electric_quadrupole_moment_norm": 27.9349275116, 
			 "total_energy": -912.372131417, 
			 "HOMO_LUMO_gap": 0.20566, 
			 "cosmo_polarized_energy": -18.41, 
			 "cosmo_cavitation_energy": 26.11, 
			 "cosmo_dispersion_energy": -18.8, 
			 "cosmo_repulsion_energy": 1.45, 
			 "cosmo_total_nonelectrostatic_energy": 8.76, 
			 "SMD_solvation_energy": 5.72 
		},
		"coords": [
			{
				"x": -2.2162711521,
				"y": 1.0006605106,
				"z": 1.3324321294,
				"element": "C" 
			},
			{
				"x": -0.5435365182,
				"y": 0.4167315613,
				"z": 1.6941177811,
				"element": "S" 
			},
			{
				"x": 0.2695893889,
				"y": 1.5871313762,
				"z": 2.0542687371,
				"element": "O" 
			},
			{
				"x": -0.6598476495,
				"y": -0.744767249,
				"z": 2.5874844751,
				"element": "O" 
			},
			{
				"x": 0.046600017,
				"y": -0.1840813626,
				"z": 0.0949013601,
				"element": "C" 
			},
			{
				"x": -0.1637150275,
				"y": -1.5206030613,
				"z": -0.2493641148,
				"element": "C" 
			},
			{
				"x": 0.2901094649,
				"y": -1.9838534395,
				"z": -1.4809649856,
				"element": "C" 
			},
			{
				"x": 0.9552468929,
				"y": -1.1060630591,
				"z": -2.3545486866,
				"element": "C" 
			},
			{
				"x": 1.1747157711,
				"y": 0.2329546587,
				"z": -1.9872187031,
				"element": "C" 
			},
			{
				"x": 0.7202985778,
				"y": 0.6947431936,
				"z": -0.7552931671,
				"element": "C" 
			},
			{
				"x": 1.4193039639,
				"y": -1.5817158729,
				"z": -3.6265177778,
				"element": "C" 
			},
			{
				"x": 1.7919012489,
				"y": -1.966119801,
				"z": -4.658794452,
				"element": "N" 
			},
			{
				"x": -2.6157586809,
				"y": 1.3758472512,
				"z": 2.2770605262,
				"element": "H" 
			},
			{
				"x": -2.8190347615,
				"y": 0.1667205376,
				"z": 0.970340974,
				"element": "H" 
			},
			{
				"x": -2.1667068743,
				"y": 1.803839026,
				"z": 0.5959953337,
				"element": "H" 
			},
			{
				"x": -0.6569217715,
				"y": -2.1867767128,
				"z": 0.4503459318,
				"element": "H" 
			},
			{
				"x": 0.1410829919,
				"y": -3.0185850117,
				"z": -1.7697009114,
				"element": "H" 
			},
			{
				"x": 1.7031361206,
				"y": 0.8958688687,
				"z": -2.6636523979,
				"element": "H" 
			},
			{
				"x": 0.9009079975,
				"y": 1.7171685858,
				"z": -0.4411920521,
				"element": "H" 
			}
		],
		 "valence_orbital": [ 
			{
				"type": "occ",
				"energy": -0.32634,
				"method": "rhf"
			},
			{
				"type": "occ",
				"energy": -0.31013,
				"method": "rhf"
			},
			{
				"type": "occ",
				"energy": -0.30383,
				"method": "rhf"
			},
			{
				"type": "occ",
				"energy": -0.29872,
				"method": "rhf"
			},
			{
				"type": "occ",
				"energy": -0.28984,
				"method": "rhf"
			},
			{
				"type": "unocc",
				"energy": -0.08418,
				"method": "rhf"
			},
			{
				"type": "unocc",
				"energy": -0.04808,
				"method": "rhf"
			},
			{
				"type": "unocc",
				"energy": 0.02019,
				"method": "rhf"
			},
			{
				"type": "unocc",
				"energy": 0.03468,
				"method": "rhf"
			},
			{
				"type": "unocc",
				"energy": 0.04574,
				"method": "rhf"
			}
		],
		"cosmo_sigma_profile": { 
			"-0.025": 0.0,
			"-0.024": 0.0,
			"-0.023": 0.0,
			"-0.022": 0.0,
			"-0.021": 0.0,
			"-0.02": 0.0,
			"-0.019": 0.0,
			"-0.018": 0.0,
			"-0.017": 0.0,
			"-0.016": 0.0,
			"-0.015": 0.0,
			"-0.014": 0.0,
			"-0.013": 0.0,
			"-0.012": 0.0,
			"-0.011": 0.0,
			"-0.01": 0.226745295813,
			"-0.009": 7.99806220577,
			"-0.008": 16.4056267753,
			"-0.007": 14.3929175914,
			"-0.006": 12.1741420602,
			"-0.005": 12.0777779227,
			"-0.004": 14.0757739701,
			"-0.003": 12.5495720486,
			"-0.002": 11.625888727,
			"-0.001": 14.4213329775,
			"0.0": 17.371209327,
			"0.001": 7.3082180103,
			"0.002": 4.11271577787,
			"0.003": 4.34598977282,
			"0.004": 4.37943087858,
			"0.005": 4.21951234587,
			"0.006": 5.53722140523,
			"0.007": 5.47121734956,
			"0.008": 6.53282540503,
			"0.009": 6.22961089835,
			"0.01": 8.57700001425,
			"0.011": 12.5581613349,
			"0.012": 7.5652325247,
			"0.013": 0.544994264019,
			"0.014": 0.0,
			"0.015": 0.0,
			"0.016": 0.0,
			"0.017": 0.0,
			"0.018": 0.0,
			"0.019": 0.0,
			"0.02": 0.0,
			"0.021": 0.0,
			"0.022": 0.0,
			"0.023": 0.0,
			"0.024": 0.0,
			"0.025": 0.0
		}
	}
}
