{
	 "smiles": "C1CN(CCO1)SC1=NC2=C(S1)C=CC=C2", 
	 "Tm": 358.15, 
	 "num_atms": 28, 
	 "gaussian": { 
		 "optdone": 1, 
		 "sigma_profile": "yes", 
		 "theory": "DFT", 
		 "functional": "B3LYP", 
		 "basiset": "6-31G**", 
		 "properties": { 
			 "R2extent": 5212.637, 
			 "electric_dipole_moment_norm": 1.36405780303, 
			 "electric_quadrupole_moment_norm": 7.48242740292, 
			 "total_energy": -1407.46339729, 
			 "HOMO_LUMO_gap": 0.1894, 
			 "cosmo_polarized_energy": -7.67, 
			 "cosmo_cavitation_energy": 33.46, 
			 "cosmo_dispersion_energy": -25.42, 
			 "cosmo_repulsion_energy": 1.88, 
			 "cosmo_total_nonelectrostatic_energy": 9.93, 
			 "SMD_solvation_energy": 2.73 
		},
		"coords": [
			{
				"x": 0.8445407603,
				"y": 1.7864537028,
				"z": -1.8675198045,
				"element": "C" 
			},
			{
				"x": 1.9588107297,
				"y": 0.9567100872,
				"z": -1.2333403742,
				"element": "C" 
			},
			{
				"x": 1.5806243821,
				"y": -0.4776650247,
				"z": -1.1989093987,
				"element": "N" 
			},
			{
				"x": 0.4377581138,
				"y": -0.8385459089,
				"z": -2.0558479563,
				"element": "C" 
			},
			{
				"x": 0.5472722156,
				"y": -0.0625465839,
				"z": -3.3657067322,
				"element": "C" 
			},
			{
				"x": 0.522934086,
				"y": 1.3525380432,
				"z": -3.1864396096,
				"element": "O" 
			},
			{
				"x": 1.793124333,
				"y": -1.3484187513,
				"z": 0.2245498771,
				"element": "S" 
			},
			{
				"x": 0.4961127556,
				"y": -0.7812221902,
				"z": 1.3161934662,
				"element": "C" 
			},
			{
				"x": -0.3479212958,
				"y": 0.1599503351,
				"z": 1.0472768563,
				"element": "N" 
			},
			{
				"x": -1.2230226686,
				"y": 0.3656580953,
				"z": 2.1080936028,
				"element": "C" 
			},
			{
				"x": -1.0174065257,
				"y": -0.4668506843,
				"z": 3.2339785947,
				"element": "C" 
			},
			{
				"x": 0.331992051,
				"y": -1.5509401315,
				"z": 2.9216379475,
				"element": "S" 
			},
			{
				"x": -1.8195927397,
				"y": -0.3674496851,
				"z": 4.3716877515,
				"element": "C" 
			},
			{
				"x": -2.8411417961,
				"y": 0.5811253461,
				"z": 4.3731245125,
				"element": "C" 
			},
			{
				"x": -3.056334607,
				"y": 1.4125721503,
				"z": 3.2620785893,
				"element": "C" 
			},
			{
				"x": -2.2556801428,
				"y": 1.3128988935,
				"z": 2.1290582785,
				"element": "C" 
			},
			{
				"x": -0.0393864673,
				"y": 1.7517193019,
				"z": -1.2166890334,
				"element": "H" 
			},
			{
				"x": 1.1657252851,
				"y": 2.8294575584,
				"z": -1.9559030491,
				"element": "H" 
			},
			{
				"x": 2.1457363057,
				"y": 1.3215814798,
				"z": -0.2204097613,
				"element": "H" 
			},
			{
				"x": 2.884631685,
				"y": 1.070118237,
				"z": -1.8128114422,
				"element": "H" 
			},
			{
				"x": 0.4823385175,
				"y": -1.9120537798,
				"z": -2.2643244127,
				"element": "H" 
			},
			{
				"x": -0.5214635006,
				"y": -0.624471356,
				"z": -1.5658504392,
				"element": "H" 
			},
			{
				"x": 1.4773543125,
				"y": -0.3529060994,
				"z": -3.8776104545,
				"element": "H" 
			},
			{
				"x": -0.2927605014,
				"y": -0.3281009013,
				"z": -4.0182881526,
				"element": "H" 
			},
			{
				"x": -1.6564882655,
				"y": -1.008664178,
				"z": 5.2318719088,
				"element": "H" 
			},
			{
				"x": -3.4782074558,
				"y": 0.6758674389,
				"z": 5.2472713559,
				"element": "H" 
			},
			{
				"x": -3.8591511775,
				"y": 2.1431421161,
				"z": 3.2886867067,
				"element": "H" 
			},
			{
				"x": -2.4114983892,
				"y": 1.9491424887,
				"z": 1.2640411725,
				"element": "H" 
			}
		],
		 "valence_orbital": [ 
			{
				"type": "occ",
				"energy": -0.28017,
				"method": "rhf"
			},
			{
				"type": "occ",
				"energy": -0.24852,
				"method": "rhf"
			},
			{
				"type": "occ",
				"energy": -0.23897,
				"method": "rhf"
			},
			{
				"type": "occ",
				"energy": -0.23374,
				"method": "rhf"
			},
			{
				"type": "occ",
				"energy": -0.22423,
				"method": "rhf"
			},
			{
				"type": "unocc",
				"energy": -0.03483,
				"method": "rhf"
			},
			{
				"type": "unocc",
				"energy": -0.00934,
				"method": "rhf"
			},
			{
				"type": "unocc",
				"energy": -0.0046,
				"method": "rhf"
			},
			{
				"type": "unocc",
				"energy": 0.01099,
				"method": "rhf"
			},
			{
				"type": "unocc",
				"energy": 0.02956,
				"method": "rhf"
			}
		],
		"cosmo_sigma_profile": { 
			"-0.025": 0.0,
			"-0.024": 0.0,
			"-0.023": 0.0,
			"-0.022": 0.0,
			"-0.021": 0.0,
			"-0.02": 0.0,
			"-0.019": 0.0,
			"-0.018": 0.0,
			"-0.017": 0.0,
			"-0.016": 0.0,
			"-0.015": 0.0,
			"-0.014": 0.0,
			"-0.013": 0.0,
			"-0.012": 0.0,
			"-0.011": 0.0,
			"-0.01": 0.0,
			"-0.009": 0.0,
			"-0.008": 0.338568266107,
			"-0.007": 3.22427221259,
			"-0.006": 10.2471271946,
			"-0.005": 22.18447866,
			"-0.004": 25.5582900757,
			"-0.003": 22.7892230064,
			"-0.002": 22.6782858758,
			"-0.001": 19.7942771978,
			"0.0": 23.0287631827,
			"0.001": 23.496347436,
			"0.002": 23.6933725278,
			"0.003": 23.5138514908,
			"0.004": 21.0016286314,
			"0.005": 13.2916901585,
			"0.006": 4.24157667905,
			"0.007": 1.95037485738,
			"0.008": 1.88117513219,
			"0.009": 1.53936061181,
			"0.01": 0.866862983045,
			"0.011": 0.958708666769,
			"0.012": 1.17867385325,
			"0.013": 2.08101614875,
			"0.014": 0.74956031852,
			"0.015": 0.0,
			"0.016": 0.0,
			"0.017": 0.0,
			"0.018": 0.0,
			"0.019": 0.0,
			"0.02": 0.0,
			"0.021": 0.0,
			"0.022": 0.0,
			"0.023": 0.0,
			"0.024": 0.0,
			"0.025": 0.0
		}
	}
}
