{
	 "smiles": "FC(F)(F)C(F)(F)C(F)(F)C(F)(F)C(F)(F)C(F)(F)F", 
	 "Tm": 269.15, 
	 "num_atms": 20, 
	 "gaussian": { 
		 "optdone": 1, 
		 "sigma_profile": "yes", 
		 "theory": "DFT", 
		 "functional": "B3LYP", 
		 "basiset": "6-31G**", 
		 "properties": { 
			 "R2extent": 5999.0488, 
			 "electric_dipole_moment_norm": 0.0556641716008, 
			 "electric_quadrupole_moment_norm": 0.770292035529, 
			 "total_energy": -1626.35648811, 
			 "HOMO_LUMO_gap": 0.36816, 
			 "cosmo_polarized_energy": -1.09, 
			 "cosmo_cavitation_energy": 29.73, 
			 "cosmo_dispersion_energy": -19.67, 
			 "cosmo_repulsion_energy": 1.25, 
			 "cosmo_total_nonelectrostatic_energy": 11.3, 
			 "SMD_solvation_energy": 9.76 
		},
		"coords": [
			{
				"x": 0.5683660666,
				"y": 1.1018536909,
				"z": -4.7707681963,
				"element": "F" 
			},
			{
				"x": -0.4025795675,
				"y": 0.7184446751,
				"z": -3.9365261149,
				"element": "C" 
			},
			{
				"x": -1.1967500841,
				"y": 1.7643242583,
				"z": -3.6735017475,
				"element": "F" 
			},
			{
				"x": -1.1270831121,
				"y": -0.2391899621,
				"z": -4.5265306074,
				"element": "F" 
			},
			{
				"x": 0.1997956951,
				"y": 0.1505187943,
				"z": -2.6237413029,
				"element": "C" 
			},
			{
				"x": -0.8028684591,
				"y": -0.4396189461,
				"z": -1.9329212891,
				"element": "F" 
			},
			{
				"x": 1.1178755822,
				"y": -0.7816899777,
				"z": -2.9649639266,
				"element": "F" 
			},
			{
				"x": 0.859310805,
				"y": 1.2153505875,
				"z": -1.7104867814,
				"element": "C" 
			},
			{
				"x": -0.1121822962,
				"y": 1.9802950194,
				"z": -1.1696411223,
				"element": "F" 
			},
			{
				"x": 1.6568056834,
				"y": 1.9974192915,
				"z": -2.4794847979,
				"element": "F" 
			},
			{
				"x": 1.7696060572,
				"y": 0.6836760258,
				"z": -0.5577513487,
				"element": "C" 
			},
			{
				"x": 2.1549886218,
				"y": 1.778979919,
				"z": 0.1428356362,
				"element": "F" 
			},
			{
				"x": 2.8610549513,
				"y": 0.1090621082,
				"z": -1.1054566483,
				"element": "F" 
			},
			{
				"x": 1.1249827127,
				"y": -0.3212568564,
				"z": 0.4309331971,
				"element": "C" 
			},
			{
				"x": 1.0069898535,
				"y": -1.5156481674,
				"z": -0.1937992819,
				"element": "F" 
			},
			{
				"x": -0.1020641918,
				"y": 0.1209531429,
				"z": 0.7874886876,
				"element": "F" 
			},
			{
				"x": 1.9385911381,
				"y": -0.5484162178,
				"z": 1.7329886296,
				"element": "C" 
			},
			{
				"x": 3.2172507696,
				"y": -0.8233212792,
				"z": 1.4444549222,
				"element": "F" 
			},
			{
				"x": 1.4105022288,
				"y": -1.5844556822,
				"z": 2.394667437,
				"element": "F" 
			},
			{
				"x": 1.8866075453,
				"y": 0.534919576,
				"z": 2.5136046555,
				"element": "F" 
			}
		],
		 "valence_orbital": [ 
			{
				"type": "occ",
				"energy": -0.42932,
				"method": "rhf"
			},
			{
				"type": "occ",
				"energy": -0.42506,
				"method": "rhf"
			},
			{
				"type": "occ",
				"energy": -0.41792,
				"method": "rhf"
			},
			{
				"type": "occ",
				"energy": -0.37536,
				"method": "rhf"
			},
			{
				"type": "occ",
				"energy": -0.35425,
				"method": "rhf"
			},
			{
				"type": "unocc",
				"energy": 0.01391,
				"method": "rhf"
			},
			{
				"type": "unocc",
				"energy": 0.01687,
				"method": "rhf"
			},
			{
				"type": "unocc",
				"energy": 0.05784,
				"method": "rhf"
			},
			{
				"type": "unocc",
				"energy": 0.058,
				"method": "rhf"
			},
			{
				"type": "unocc",
				"energy": 0.1092,
				"method": "rhf"
			}
		],
		"cosmo_sigma_profile": { 
			"-0.025": 0.0,
			"-0.024": 0.0,
			"-0.023": 0.0,
			"-0.022": 0.0,
			"-0.021": 0.0,
			"-0.02": 0.0,
			"-0.019": 0.0,
			"-0.018": 0.0,
			"-0.017": 0.0,
			"-0.016": 0.0,
			"-0.015": 0.0,
			"-0.014": 0.0,
			"-0.013": 0.0,
			"-0.012": 0.0,
			"-0.011": 0.0,
			"-0.01": 0.0,
			"-0.009": 0.0,
			"-0.008": 0.0,
			"-0.007": 0.0,
			"-0.006": 0.0,
			"-0.005": 0.277300270375,
			"-0.004": 3.02184287357,
			"-0.003": 11.0835468783,
			"-0.002": 17.8117641941,
			"-0.001": 29.1955931473,
			"0.0": 68.7935888521,
			"0.001": 105.529487444,
			"0.002": 3.68927351893,
			"0.003": 0.0,
			"0.004": 0.0,
			"0.005": 0.0,
			"0.006": 0.0,
			"0.007": 0.0,
			"0.008": 0.0,
			"0.009": 0.0,
			"0.01": 0.0,
			"0.011": 0.0,
			"0.012": 0.0,
			"0.013": 0.0,
			"0.014": 0.0,
			"0.015": 0.0,
			"0.016": 0.0,
			"0.017": 0.0,
			"0.018": 0.0,
			"0.019": 0.0,
			"0.02": 0.0,
			"0.021": 0.0,
			"0.022": 0.0,
			"0.023": 0.0,
			"0.024": 0.0,
			"0.025": 0.0
		}
	}
}
