{
	 "smiles": "C=CCSC1=NC2=C(N1)C=CC=C2", 
	 "Tm": 413.15, 
	 "num_atms": 23, 
	 "gaussian": { 
		 "optdone": 1, 
		 "sigma_profile": "yes", 
		 "theory": "DFT", 
		 "functional": "B3LYP", 
		 "basiset": "6-31G**", 
		 "properties": { 
			 "R2extent": 3598.145, 
			 "electric_dipole_moment_norm": 1.67022339524, 
			 "electric_quadrupole_moment_norm": 7.21074154231, 
			 "total_energy": -894.768165593, 
			 "HOMO_LUMO_gap": 0.19555, 
			 "cosmo_polarized_energy": -11.41, 
			 "cosmo_cavitation_energy": 28.88, 
			 "cosmo_dispersion_energy": -21.53, 
			 "cosmo_repulsion_energy": 1.66, 
			 "cosmo_total_nonelectrostatic_energy": 9.02, 
			 "SMD_solvation_energy": 3.65 
		},
		"coords": [
			{
				"x": -3.8921232681,
				"y": -2.4418212522,
				"z": -2.2005685135,
				"element": "C" 
			},
			{
				"x": -2.943553478,
				"y": -2.075797354,
				"z": -1.3378161381,
				"element": "C" 
			},
			{
				"x": -1.625817154,
				"y": -2.7720741298,
				"z": -1.1999726879,
				"element": "C" 
			},
			{
				"x": -0.1773669749,
				"y": -1.7122053069,
				"z": -1.6692049685,
				"element": "S" 
			},
			{
				"x": -0.0158505515,
				"y": -0.7731881214,
				"z": -0.1852280339,
				"element": "C" 
			},
			{
				"x": -0.7352944299,
				"y": -0.9004793029,
				"z": 0.9026645482,
				"element": "N" 
			},
			{
				"x": -0.222034121,
				"y": 0.0485871652,
				"z": 1.7821149681,
				"element": "C" 
			},
			{
				"x": 0.8419574068,
				"y": 0.7589847248,
				"z": 1.1767355242,
				"element": "C" 
			},
			{
				"x": 0.9498473646,
				"y": 0.2073968238,
				"z": -0.0932050599,
				"element": "N" 
			},
			{
				"x": 1.5409656528,
				"y": 1.7706898433,
				"z": 1.8332285481,
				"element": "C" 
			},
			{
				"x": 1.1420601243,
				"y": 2.0627764629,
				"z": 3.1376393645,
				"element": "C" 
			},
			{
				"x": 0.0860223578,
				"y": 1.3674579005,
				"z": 3.7559458097,
				"element": "C" 
			},
			{
				"x": -0.6062908948,
				"y": 0.35750256,
				"z": 3.0914563637,
				"element": "C" 
			},
			{
				"x": -4.8427253229,
				"y": -1.9200229803,
				"z": -2.2548916872,
				"element": "H" 
			},
			{
				"x": -3.7565837832,
				"y": -3.2795242958,
				"z": -2.8812416445,
				"element": "H" 
			},
			{
				"x": -3.0992131467,
				"y": -1.2375947241,
				"z": -0.662803966,
				"element": "H" 
			},
			{
				"x": -1.551516871,
				"y": -3.640371254,
				"z": -1.8598368567,
				"element": "H" 
			},
			{
				"x": -1.4400512266,
				"y": -3.0804778361,
				"z": -0.1684400776,
				"element": "H" 
			},
			{
				"x": 1.603690173,
				"y": 0.4679790707,
				"z": -0.8148424919,
				"element": "H" 
			},
			{
				"x": 2.3561426498,
				"y": 2.3083879884,
				"z": 1.358375708,
				"element": "H" 
			},
			{
				"x": 1.6586821006,
				"y": 2.8441801041,
				"z": 3.6869195071,
				"element": "H" 
			},
			{
				"x": -0.1925405017,
				"y": 1.6261075749,
				"z": 4.7732215083,
				"element": "H" 
			},
			{
				"x": -1.4208061052,
				"y": -0.181893661,
				"z": 3.5638502756,
				"element": "H" 
			}
		],
		 "valence_orbital": [ 
			{
				"type": "occ",
				"energy": -0.27796,
				"method": "rhf"
			},
			{
				"type": "occ",
				"energy": -0.27033,
				"method": "rhf"
			},
			{
				"type": "occ",
				"energy": -0.25863,
				"method": "rhf"
			},
			{
				"type": "occ",
				"energy": -0.22649,
				"method": "rhf"
			},
			{
				"type": "occ",
				"energy": -0.20769,
				"method": "rhf"
			},
			{
				"type": "unocc",
				"energy": -0.01214,
				"method": "rhf"
			},
			{
				"type": "unocc",
				"energy": -0.00589,
				"method": "rhf"
			},
			{
				"type": "unocc",
				"energy": 0.02264,
				"method": "rhf"
			},
			{
				"type": "unocc",
				"energy": 0.0381,
				"method": "rhf"
			},
			{
				"type": "unocc",
				"energy": 0.05423,
				"method": "rhf"
			}
		],
		"cosmo_sigma_profile": { 
			"-0.025": 0.0,
			"-0.024": 0.0,
			"-0.023": 0.0,
			"-0.022": 0.0,
			"-0.021": 0.0,
			"-0.02": 0.0,
			"-0.019": 0.0,
			"-0.018": 0.0,
			"-0.017": 0.664714876298,
			"-0.016": 1.75105852037,
			"-0.015": 1.07565821594,
			"-0.014": 1.21358536417,
			"-0.013": 0.833114997167,
			"-0.012": 1.64116300918,
			"-0.011": 1.17237390306,
			"-0.01": 1.22974457976,
			"-0.009": 0.821289223058,
			"-0.008": 1.46457752487,
			"-0.007": 4.57730274034,
			"-0.006": 9.16495960034,
			"-0.005": 15.7470643234,
			"-0.004": 15.8575693403,
			"-0.003": 17.7580873268,
			"-0.002": 14.9686046884,
			"-0.001": 14.4880611659,
			"0.0": 12.1101860994,
			"0.001": 17.3435699385,
			"0.002": 19.1498571153,
			"0.003": 15.9748188085,
			"0.004": 17.4529258709,
			"0.005": 17.0391792651,
			"0.006": 15.7523219072,
			"0.007": 6.7999112232,
			"0.008": 2.05029619094,
			"0.009": 0.820965566022,
			"0.01": 1.39995502866,
			"0.011": 0.987289186233,
			"0.012": 0.795351377191,
			"0.013": 0.707517365794,
			"0.014": 0.329566357783,
			"0.015": 0.0,
			"0.016": 0.0,
			"0.017": 0.0,
			"0.018": 0.0,
			"0.019": 0.0,
			"0.02": 0.0,
			"0.021": 0.0,
			"0.022": 0.0,
			"0.023": 0.0,
			"0.024": 0.0,
			"0.025": 0.0
		}
	}
}
