{
	 "smiles": "OC(=O)C1(CCC1)C1=CC(Cl)=C(Cl)C=C1", 
	 "Tm": 390.15, 
	 "num_atms": 25, 
	 "gaussian": { 
		 "optdone": 1, 
		 "sigma_profile": "yes", 
		 "theory": "DFT", 
		 "functional": "B3LYP", 
		 "basiset": "6-31G**", 
		 "properties": { 
			 "R2extent": 5821.6862, 
			 "electric_dipole_moment_norm": 2.60772477651, 
			 "electric_quadrupole_moment_norm": 17.8977169195, 
			 "total_energy": -1496.01178556, 
			 "HOMO_LUMO_gap": 0.2109, 
			 "cosmo_polarized_energy": -12.91, 
			 "cosmo_cavitation_energy": 31.66, 
			 "cosmo_dispersion_energy": -22.76, 
			 "cosmo_repulsion_energy": 1.79, 
			 "cosmo_total_nonelectrostatic_energy": 10.7, 
			 "SMD_solvation_energy": 5.5 
		},
		"coords": [
			{
				"x": 1.5889905781,
				"y": 2.0438645944,
				"z": 1.0426010526,
				"element": "O" 
			},
			{
				"x": 0.3887018293,
				"y": 2.3079400263,
				"z": 0.4739672411,
				"element": "C" 
			},
			{
				"x": -0.1581453475,
				"y": 3.3653539658,
				"z": 0.6748927088,
				"element": "O" 
			},
			{
				"x": -0.2369205418,
				"y": 1.1642047332,
				"z": -0.3505649888,
				"element": "C" 
			},
			{
				"x": -1.1798299051,
				"y": 0.3276862723,
				"z": 0.5943956949,
				"element": "C" 
			},
			{
				"x": -2.3747521513,
				"y": 1.1880114066,
				"z": 0.1123649501,
				"element": "C" 
			},
			{
				"x": -1.5186589255,
				"y": 1.6635592519,
				"z": -1.08832326,
				"element": "C" 
			},
			{
				"x": 0.8078600141,
				"y": 0.427709886,
				"z": -1.1650076748,
				"element": "C" 
			},
			{
				"x": 1.3671044346,
				"y": -0.775584331,
				"z": -0.7193872263,
				"element": "C" 
			},
			{
				"x": 2.3539716878,
				"y": -1.4338901214,
				"z": -1.4618031283,
				"element": "C" 
			},
			{
				"x": 2.9999152516,
				"y": -2.934003327,
				"z": -0.8461112264,
				"element": "Cl" 
			},
			{
				"x": 2.7945967733,
				"y": -0.8894479055,
				"z": -2.6730750575,
				"element": "C" 
			},
			{
				"x": 4.0163181706,
				"y": -1.6727148728,
				"z": -3.6400862498,
				"element": "Cl" 
			},
			{
				"x": 2.240470782,
				"y": 0.3132519177,
				"z": -3.1245172362,
				"element": "C" 
			},
			{
				"x": 1.263882907,
				"y": 0.9637724337,
				"z": -2.380091061,
				"element": "C" 
			},
			{
				"x": 1.9293827116,
				"y": 1.19407342,
				"z": 0.7214958618,
				"element": "H" 
			},
			{
				"x": -0.9445333923,
				"y": 0.3249304527,
				"z": 1.6625865258,
				"element": "H" 
			},
			{
				"x": -1.2514266669,
				"y": -0.706410497,
				"z": 0.2452688715,
				"element": "H" 
			},
			{
				"x": -3.3008693774,
				"y": 0.6547644508,
				"z": -0.114645321,
				"element": "H" 
			},
			{
				"x": -2.5901622643,
				"y": 2.0089861985,
				"z": 0.7985582375,
				"element": "H" 
			},
			{
				"x": -1.7019097993,
				"y": 1.0741619622,
				"z": -1.9907693506,
				"element": "H" 
			},
			{
				"x": -1.5444157618,
				"y": 2.7285277841,
				"z": -1.3239275285,
				"element": "H" 
			},
			{
				"x": 1.0295240937,
				"y": -1.2326874181,
				"z": 0.2050765802,
				"element": "H" 
			},
			{
				"x": 2.5869642792,
				"y": 0.7294080751,
				"z": -4.0640832123,
				"element": "H" 
			},
			{
				"x": 0.8484406204,
				"y": 1.8973316416,
				"z": -2.7474152026,
				"element": "H" 
			}
		],
		 "valence_orbital": [ 
			{
				"type": "occ",
				"energy": -0.31907,
				"method": "rhf"
			},
			{
				"type": "occ",
				"energy": -0.31683,
				"method": "rhf"
			},
			{
				"type": "occ",
				"energy": -0.28433,
				"method": "rhf"
			},
			{
				"type": "occ",
				"energy": -0.27453,
				"method": "rhf"
			},
			{
				"type": "occ",
				"energy": -0.255,
				"method": "rhf"
			},
			{
				"type": "unocc",
				"energy": -0.0441,
				"method": "rhf"
			},
			{
				"type": "unocc",
				"energy": -0.04168,
				"method": "rhf"
			},
			{
				"type": "unocc",
				"energy": -0.00979,
				"method": "rhf"
			},
			{
				"type": "unocc",
				"energy": 0.00564,
				"method": "rhf"
			},
			{
				"type": "unocc",
				"energy": 0.05045,
				"method": "rhf"
			}
		],
		"cosmo_sigma_profile": { 
			"-0.025": 0.0,
			"-0.024": 0.0,
			"-0.023": 0.0,
			"-0.022": 0.0,
			"-0.021": 0.0,
			"-0.02": 0.0,
			"-0.019": 0.0,
			"-0.018": 0.0,
			"-0.017": 0.0,
			"-0.016": 0.0,
			"-0.015": 0.272574207122,
			"-0.014": 0.709190284219,
			"-0.013": 1.32124265533,
			"-0.012": 1.31927766506,
			"-0.011": 1.4938909731,
			"-0.01": 1.36695006899,
			"-0.009": 0.83123202862,
			"-0.008": 3.64811038562,
			"-0.007": 7.91195156059,
			"-0.006": 8.42961283521,
			"-0.005": 11.611282884,
			"-0.004": 15.2564555199,
			"-0.003": 21.4828690798,
			"-0.002": 21.68352438,
			"-0.001": 21.6075316155,
			"0.0": 28.446036734,
			"0.001": 24.2453522187,
			"0.002": 17.1803983878,
			"0.003": 16.7178806007,
			"0.004": 17.2230535766,
			"0.005": 6.78307251907,
			"0.006": 2.27383447603,
			"0.007": 2.94203691477,
			"0.008": 3.00873839101,
			"0.009": 3.00617733855,
			"0.01": 4.78682448732,
			"0.011": 4.82407607585,
			"0.012": 4.42666461426,
			"0.013": 1.22504481125,
			"0.014": 0.0,
			"0.015": 0.0,
			"0.016": 0.0,
			"0.017": 0.0,
			"0.018": 0.0,
			"0.019": 0.0,
			"0.02": 0.0,
			"0.021": 0.0,
			"0.022": 0.0,
			"0.023": 0.0,
			"0.024": 0.0,
			"0.025": 0.0
		}
	}
}
