{
	 "smiles": "[O-][N+](=O)C1=C(C=CC2=CC=CC=C2)C=C2C(=O)C(C3=CC=CC=C3)=[N+]([O-])C2=C1", 
	 "Tm": 506.15, 
	 "num_atms": 42, 
	 "gaussian": { 
		 "optdone": 1, 
		 "sigma_profile": "yes", 
		 "theory": "DFT", 
		 "functional": "B3LYP", 
		 "basiset": "6-31G**", 
		 "properties": { 
			 "R2extent": 16430.391, 
			 "electric_dipole_moment_norm": 3.9362136032, 
			 "electric_quadrupole_moment_norm": 29.8358310824, 
			 "total_energy": -1256.99769226, 
			 "HOMO_LUMO_gap": 0.09308, 
			 "cosmo_polarized_energy": -14.66, 
			 "cosmo_cavitation_energy": 48.5, 
			 "cosmo_dispersion_energy": -34.82, 
			 "cosmo_repulsion_energy": 2.52, 
			 "cosmo_total_nonelectrostatic_energy": 16.2, 
			 "SMD_solvation_energy": 11.2 
		},
		"coords": [
			{
				"x": -0.2913495165,
				"y": -1.4503730521,
				"z": -4.3697565006,
				"element": "O" 
			},
			{
				"x": 0.2086299962,
				"y": -2.0142932845,
				"z": -3.3954383565,
				"element": "N" 
			},
			{
				"x": 0.7440198801,
				"y": -3.1208124091,
				"z": -3.4372039076,
				"element": "O" 
			},
			{
				"x": 0.2091915936,
				"y": -1.3233619925,
				"z": -2.0909439547,
				"element": "C" 
			},
			{
				"x": -0.8125442687,
				"y": -0.4125837743,
				"z": -1.710424138,
				"element": "C" 
			},
			{
				"x": -1.9688030317,
				"y": -0.0787194648,
				"z": -2.5437648333,
				"element": "C" 
			},
			{
				"x": -3.1450933908,
				"y": 0.3777424964,
				"z": -2.0556339062,
				"element": "C" 
			},
			{
				"x": -4.3306012638,
				"y": 0.7374065221,
				"z": -2.8330639412,
				"element": "C" 
			},
			{
				"x": -5.4946604449,
				"y": 1.1253030229,
				"z": -2.1421699548,
				"element": "C" 
			},
			{
				"x": -6.6552501836,
				"y": 1.4779362077,
				"z": -2.8270438857,
				"element": "C" 
			},
			{
				"x": -6.6763030844,
				"y": 1.4511635218,
				"z": -4.2221855018,
				"element": "C" 
			},
			{
				"x": -5.5279019124,
				"y": 1.0702471322,
				"z": -4.9249947411,
				"element": "C" 
			},
			{
				"x": -4.3689083238,
				"y": 0.7184800241,
				"z": -4.2423603567,
				"element": "C" 
			},
			{
				"x": -0.6831201881,
				"y": 0.1805858804,
				"z": -0.4198989134,
				"element": "C" 
			},
			{
				"x": 0.3780912771,
				"y": -0.1485875756,
				"z": 0.3884725557,
				"element": "C" 
			},
			{
				"x": 0.796092179,
				"y": 0.3064482845,
				"z": 1.7541550407,
				"element": "C" 
			},
			{
				"x": 0.1977470999,
				"y": 1.1126190579,
				"z": 2.4468816162,
				"element": "O" 
			},
			{
				"x": 2.0619716474,
				"y": -0.4264937751,
				"z": 2.0593879138,
				"element": "C" 
			},
			{
				"x": 2.8679168642,
				"y": -0.3408048566,
				"z": 3.268576451,
				"element": "C" 
			},
			{
				"x": 2.4587884687,
				"y": 0.5242197698,
				"z": 4.3102024092,
				"element": "C" 
			},
			{
				"x": 3.2085300255,
				"y": 0.6267698629,
				"z": 5.4765835655,
				"element": "C" 
			},
			{
				"x": 4.3767964452,
				"y": -0.122430297,
				"z": 5.6381717162,
				"element": "C" 
			},
			{
				"x": 4.7900586325,
				"y": -0.9794275378,
				"z": 4.6169447604,
				"element": "C" 
			},
			{
				"x": 4.0518156015,
				"y": -1.0945243007,
				"z": 3.4421721015,
				"element": "C" 
			},
			{
				"x": 2.3416709072,
				"y": -1.2066292328,
				"z": 0.9916447738,
				"element": "N" 
			},
			{
				"x": 3.3074017513,
				"y": -1.9924618413,
				"z": 0.7998176639,
				"element": "O" 
			},
			{
				"x": 1.3359024778,
				"y": -1.0573558647,
				"z": -0.0381396471,
				"element": "C" 
			},
			{
				"x": 1.2904983742,
				"y": -1.6740262828,
				"z": -1.2600585112,
				"element": "C" 
			},
			{
				"x": -1.8543732581,
				"y": -0.2441981389,
				"z": -3.6047345809,
				"element": "H" 
			},
			{
				"x": -3.2704391458,
				"y": 0.4780254835,
				"z": -0.9788050195,
				"element": "H" 
			},
			{
				"x": -5.4821697472,
				"y": 1.1470666939,
				"z": -1.0553147866,
				"element": "H" 
			},
			{
				"x": -7.5411501463,
				"y": 1.7732890963,
				"z": -2.2726843454,
				"element": "H" 
			},
			{
				"x": -7.5786295983,
				"y": 1.7254697978,
				"z": -4.7605899116,
				"element": "H" 
			},
			{
				"x": -5.5382205128,
				"y": 1.049647942,
				"z": -6.0107988216,
				"element": "H" 
			},
			{
				"x": -3.4878721488,
				"y": 0.4299296132,
				"z": -4.8065338421,
				"element": "H" 
			},
			{
				"x": -1.4056811948,
				"y": 0.9154967956,
				"z": -0.0856624436,
				"element": "H" 
			},
			{
				"x": 1.5548920447,
				"y": 1.1072196428,
				"z": 4.1917178732,
				"element": "H" 
			},
			{
				"x": 2.8776175388,
				"y": 1.2967823539,
				"z": 6.2647857552,
				"element": "H" 
			},
			{
				"x": 4.9587112932,
				"y": -0.0384123702,
				"z": 6.5515118724,
				"element": "H" 
			},
			{
				"x": 5.6966694556,
				"y": -1.5663211082,
				"z": 4.7325120839,
				"element": "H" 
			},
			{
				"x": 4.3772990886,
				"y": -1.759570953,
				"z": 2.6553692417,
				"element": "H" 
			},
			{
				"x": 2.0348587186,
				"y": -2.3910610896,
				"z": -1.5783025932,
				"element": "H" 
			}
		],
		 "valence_orbital": [ 
			{
				"type": "occ",
				"energy": -0.27345,
				"method": "rhf"
			},
			{
				"type": "occ",
				"energy": -0.26581,
				"method": "rhf"
			},
			{
				"type": "occ",
				"energy": -0.25645,
				"method": "rhf"
			},
			{
				"type": "occ",
				"energy": -0.23862,
				"method": "rhf"
			},
			{
				"type": "occ",
				"energy": -0.22097,
				"method": "rhf"
			},
			{
				"type": "unocc",
				"energy": -0.12789,
				"method": "rhf"
			},
			{
				"type": "unocc",
				"energy": -0.09323,
				"method": "rhf"
			},
			{
				"type": "unocc",
				"energy": -0.07431,
				"method": "rhf"
			},
			{
				"type": "unocc",
				"energy": -0.04088,
				"method": "rhf"
			},
			{
				"type": "unocc",
				"energy": -0.01503,
				"method": "rhf"
			}
		],
		"cosmo_sigma_profile": { 
			"-0.025": 0.0,
			"-0.024": 0.0,
			"-0.023": 0.0,
			"-0.022": 0.0,
			"-0.021": 0.0,
			"-0.02": 0.0,
			"-0.019": 0.0,
			"-0.018": 0.0,
			"-0.017": 0.0,
			"-0.016": 0.0,
			"-0.015": 0.0,
			"-0.014": 0.0,
			"-0.013": 0.0,
			"-0.012": 0.0,
			"-0.011": 0.0,
			"-0.01": 0.573255845253,
			"-0.009": 2.19937262589,
			"-0.008": 4.87476060587,
			"-0.007": 11.0609831734,
			"-0.006": 24.5731917545,
			"-0.005": 25.1049447379,
			"-0.004": 31.6995048646,
			"-0.003": 30.1308042415,
			"-0.002": 32.3117911587,
			"-0.001": 31.5556284524,
			"0.0": 25.2401189733,
			"0.001": 26.2249281321,
			"0.002": 27.1879599565,
			"0.003": 28.3381946459,
			"0.004": 28.76986876,
			"0.005": 18.2098624593,
			"0.006": 7.46293260437,
			"0.007": 11.6664260702,
			"0.008": 8.68766800896,
			"0.009": 10.8396232588,
			"0.01": 5.28599358468,
			"0.011": 0.668174139078,
			"0.012": 0.0,
			"0.013": 0.0,
			"0.014": 0.0,
			"0.015": 0.0,
			"0.016": 0.0,
			"0.017": 0.0,
			"0.018": 0.0,
			"0.019": 0.0,
			"0.02": 0.0,
			"0.021": 0.0,
			"0.022": 0.0,
			"0.023": 0.0,
			"0.024": 0.0,
			"0.025": 0.0
		}
	}
}
