{
	 "smiles": "COCCN1C=NN=C1S", 
	 "Tm": 353.15, 
	 "num_atms": 19, 
	 "gaussian": { 
		 "optdone": 1, 
		 "sigma_profile": "yes", 
		 "theory": "DFT", 
		 "functional": "B3LYP", 
		 "basiset": "6-31G**", 
		 "properties": { 
			 "R2extent": 2499.6393, 
			 "electric_dipole_moment_norm": 6.15015153228, 
			 "electric_quadrupole_moment_norm": 20.4427144401, 
			 "total_energy": -833.567419079, 
			 "HOMO_LUMO_gap": 0.23361, 
			 "cosmo_polarized_energy": -17.5, 
			 "cosmo_cavitation_energy": 24.23, 
			 "cosmo_dispersion_energy": -18.22, 
			 "cosmo_repulsion_energy": 1.43, 
			 "cosmo_total_nonelectrostatic_energy": 7.44, 
			 "SMD_solvation_energy": 2.72 
		},
		"coords": [
			{
				"x": -2.7473641547,
				"y": 0.4839658673,
				"z": 0.5516066134,
				"element": "C" 
			},
			{
				"x": -1.9346489459,
				"y": 0.0499149794,
				"z": -0.5265730837,
				"element": "O" 
			},
			{
				"x": -0.6509915112,
				"y": 0.6446843086,
				"z": -0.5719496236,
				"element": "C" 
			},
			{
				"x": 0.3553417699,
				"y": 0.0464627035,
				"z": 0.4167388628,
				"element": "C" 
			},
			{
				"x": 0.7227609596,
				"y": -1.3324300156,
				"z": 0.1012987843,
				"element": "N" 
			},
			{
				"x": -0.072077314,
				"y": -2.3528793115,
				"z": -0.3777894683,
				"element": "C" 
			},
			{
				"x": 0.6143596738,
				"y": -3.4587145885,
				"z": -0.5044807518,
				"element": "N" 
			},
			{
				"x": 1.9089809536,
				"y": -3.1969255632,
				"z": -0.0877909451,
				"element": "N" 
			},
			{
				"x": 1.9460241469,
				"y": -1.9343940814,
				"z": 0.2675110165,
				"element": "C" 
			},
			{
				"x": 3.3622538844,
				"y": -1.0732570958,
				"z": 0.8879143802,
				"element": "S" 
			},
			{
				"x": -2.3485629987,
				"y": 0.1850915769,
				"z": 1.5315464376,
				"element": "H" 
			},
			{
				"x": -3.7241954812,
				"y": 0.0147750291,
				"z": 0.4185517924,
				"element": "H" 
			},
			{
				"x": -2.8713640275,
				"y": 1.5770298041,
				"z": 0.5429427996,
				"element": "H" 
			},
			{
				"x": -0.2832192006,
				"y": 0.504313776,
				"z": -1.5931160137,
				"element": "H" 
			},
			{
				"x": -0.7181772594,
				"y": 1.7267127925,
				"z": -0.3776705485,
				"element": "H" 
			},
			{
				"x": 1.2676825885,
				"y": 0.6503195475,
				"z": 0.3806233878,
				"element": "H" 
			},
			{
				"x": -0.0296030842,
				"y": 0.100874923,
				"z": 1.4419391962,
				"element": "H" 
			},
			{
				"x": -1.1141928839,
				"y": -2.2077614178,
				"z": -0.6164149865,
				"element": "H" 
			},
			{
				"x": 4.1824928847,
				"y": -2.1109832341,
				"z": 0.6386121507,
				"element": "H" 
			}
		],
		 "valence_orbital": [ 
			{
				"type": "occ",
				"energy": -0.30169,
				"method": "rhf"
			},
			{
				"type": "occ",
				"energy": -0.29518,
				"method": "rhf"
			},
			{
				"type": "occ",
				"energy": -0.27736,
				"method": "rhf"
			},
			{
				"type": "occ",
				"energy": -0.25016,
				"method": "rhf"
			},
			{
				"type": "occ",
				"energy": -0.22979,
				"method": "rhf"
			},
			{
				"type": "unocc",
				"energy": 0.00382,
				"method": "rhf"
			},
			{
				"type": "unocc",
				"energy": 0.01895,
				"method": "rhf"
			},
			{
				"type": "unocc",
				"energy": 0.04669,
				"method": "rhf"
			},
			{
				"type": "unocc",
				"energy": 0.05637,
				"method": "rhf"
			},
			{
				"type": "unocc",
				"energy": 0.07192,
				"method": "rhf"
			}
		],
		"cosmo_sigma_profile": { 
			"-0.025": 0.0,
			"-0.024": 0.0,
			"-0.023": 0.0,
			"-0.022": 0.0,
			"-0.021": 0.0,
			"-0.02": 0.0,
			"-0.019": 0.0,
			"-0.018": 0.0,
			"-0.017": 0.0,
			"-0.016": 0.0,
			"-0.015": 0.0,
			"-0.014": 0.0,
			"-0.013": 0.0700351083044,
			"-0.012": 1.07621887587,
			"-0.011": 1.77835998656,
			"-0.01": 1.07190063547,
			"-0.009": 1.17113023676,
			"-0.008": 2.81840691406,
			"-0.007": 10.5588278103,
			"-0.006": 16.9929078377,
			"-0.005": 17.9433042742,
			"-0.004": 16.9122545658,
			"-0.003": 16.4527927036,
			"-0.002": 15.0491849046,
			"-0.001": 11.2665686987,
			"0.0": 9.35307436764,
			"0.001": 7.99550248295,
			"0.002": 8.37090530839,
			"0.003": 7.66059148705,
			"0.004": 6.69411912269,
			"0.005": 4.53336344321,
			"0.006": 5.0057404566,
			"0.007": 4.10182850224,
			"0.008": 2.29451523599,
			"0.009": 2.3208440382,
			"0.01": 3.09615839939,
			"0.011": 3.59743669326,
			"0.012": 2.83728861018,
			"0.013": 4.15728685793,
			"0.014": 3.17353140766,
			"0.015": 2.57891192953,
			"0.016": 2.47929191274,
			"0.017": 1.19229655814,
			"0.018": 0.0117241382859,
			"0.019": 0.0,
			"0.02": 0.0,
			"0.021": 0.0,
			"0.022": 0.0,
			"0.023": 0.0,
			"0.024": 0.0,
			"0.025": 0.0
		}
	}
}
