{
	 "smiles": "CCN(CC)C1=CC(C)=NC2=NC=NN12", 
	 "Tm": 373.15, 
	 "num_atms": 30, 
	 "gaussian": { 
		 "optdone": 1, 
		 "sigma_profile": "yes", 
		 "theory": "DFT", 
		 "functional": "B3LYP", 
		 "basiset": "6-31G**", 
		 "properties": { 
			 "R2extent": 3484.1182, 
			 "electric_dipole_moment_norm": 6.27223832934, 
			 "electric_quadrupole_moment_norm": 14.0235822328, 
			 "total_energy": -663.855365433, 
			 "HOMO_LUMO_gap": 0.18173, 
			 "cosmo_polarized_energy": -15.28, 
			 "cosmo_cavitation_energy": 31.93, 
			 "cosmo_dispersion_energy": -22.94, 
			 "cosmo_repulsion_energy": 1.79, 
			 "cosmo_total_nonelectrostatic_energy": 10.77, 
			 "SMD_solvation_energy": 1.84 
		},
		"coords": [
			{
				"x": -2.0620009248,
				"y": 2.7438672511,
				"z": 1.085849525,
				"element": "C" 
			},
			{
				"x": -1.5569478183,
				"y": 1.8875853216,
				"z": -0.0732818679,
				"element": "C" 
			},
			{
				"x": -0.2901427388,
				"y": 1.1880650949,
				"z": 0.2317369378,
				"element": "N" 
			},
			{
				"x": 0.9317710772,
				"y": 1.9992800587,
				"z": 0.1287574602,
				"element": "C" 
			},
			{
				"x": 1.7695131806,
				"y": 2.0167493282,
				"z": 1.4099746754,
				"element": "C" 
			},
			{
				"x": -0.1736784714,
				"y": -0.1713481968,
				"z": 0.2845470035,
				"element": "C" 
			},
			{
				"x": 0.9881899228,
				"y": -0.889469265,
				"z": -0.0170008342,
				"element": "C" 
			},
			{
				"x": 1.0212021323,
				"y": -2.2965453038,
				"z": 0.083187985,
				"element": "C" 
			},
			{
				"x": 2.2794315798,
				"y": -3.04950574,
				"z": -0.2719246873,
				"element": "C" 
			},
			{
				"x": -0.0154636216,
				"y": -3.034510885,
				"z": 0.4702002909,
				"element": "N" 
			},
			{
				"x": -1.1294229703,
				"y": -2.3615058752,
				"z": 0.7806044017,
				"element": "C" 
			},
			{
				"x": -2.2894506752,
				"y": -2.8381349581,
				"z": 1.2401441104,
				"element": "N" 
			},
			{
				"x": -3.0270917262,
				"y": -1.72659348,
				"z": 1.4271144342,
				"element": "C" 
			},
			{
				"x": -2.4606785379,
				"y": -0.5580750783,
				"z": 1.1307119339,
				"element": "N" 
			},
			{
				"x": -1.226173376,
				"y": -0.9595297585,
				"z": 0.6938411284,
				"element": "N" 
			},
			{
				"x": -1.3185547338,
				"y": 3.4838041347,
				"z": 1.4017511158,
				"element": "H" 
			},
			{
				"x": -2.3097727732,
				"y": 2.1040953745,
				"z": 1.9356472946,
				"element": "H" 
			},
			{
				"x": -2.9641225026,
				"y": 3.2858909891,
				"z": 0.7830345401,
				"element": "H" 
			},
			{
				"x": -1.3753378163,
				"y": 2.506986477,
				"z": -0.9617168713,
				"element": "H" 
			},
			{
				"x": -2.3106972584,
				"y": 1.1494324603,
				"z": -0.3344496376,
				"element": "H" 
			},
			{
				"x": 0.6064175628,
				"y": 3.0160944661,
				"z": -0.1023523842,
				"element": "H" 
			},
			{
				"x": 1.537623981,
				"y": 1.6737811335,
				"z": -0.7282472848,
				"element": "H" 
			},
			{
				"x": 1.1890559702,
				"y": 2.4225835072,
				"z": 2.2431840351,
				"element": "H" 
			},
			{
				"x": 2.656046181,
				"y": 2.6433721739,
				"z": 1.2678633442,
				"element": "H" 
			},
			{
				"x": 2.104732795,
				"y": 1.0142468276,
				"z": 1.6875949495,
				"element": "H" 
			},
			{
				"x": 1.8678157946,
				"y": -0.3642074365,
				"z": -0.358724028,
				"element": "H" 
			},
			{
				"x": 2.6032528646,
				"y": -3.6560356839,
				"z": 0.5795020995,
				"element": "H" 
			},
			{
				"x": 2.0815283089,
				"y": -3.7399103867,
				"z": -1.0979854246,
				"element": "H" 
			},
			{
				"x": 3.0939419783,
				"y": -2.3804375383,
				"z": -0.5597043948,
				"element": "H" 
			},
			{
				"x": -4.0407873843,
				"y": -1.7547250124,
				"z": 1.8064401498,
				"element": "H" 
			}
		],
		 "valence_orbital": [ 
			{
				"type": "occ",
				"energy": -0.27408,
				"method": "rhf"
			},
			{
				"type": "occ",
				"energy": -0.26744,
				"method": "rhf"
			},
			{
				"type": "occ",
				"energy": -0.25939,
				"method": "rhf"
			},
			{
				"type": "occ",
				"energy": -0.25316,
				"method": "rhf"
			},
			{
				"type": "occ",
				"energy": -0.21283,
				"method": "rhf"
			},
			{
				"type": "unocc",
				"energy": -0.0311,
				"method": "rhf"
			},
			{
				"type": "unocc",
				"energy": -0.00365,
				"method": "rhf"
			},
			{
				"type": "unocc",
				"energy": 0.0616,
				"method": "rhf"
			},
			{
				"type": "unocc",
				"energy": 0.07355,
				"method": "rhf"
			},
			{
				"type": "unocc",
				"energy": 0.08798,
				"method": "rhf"
			}
		],
		"cosmo_sigma_profile": { 
			"-0.025": 0.0,
			"-0.024": 0.0,
			"-0.023": 0.0,
			"-0.022": 0.0,
			"-0.021": 0.0,
			"-0.02": 0.0,
			"-0.019": 0.0,
			"-0.018": 0.0,
			"-0.017": 0.0,
			"-0.016": 0.0,
			"-0.015": 0.0,
			"-0.014": 0.0,
			"-0.013": 0.0,
			"-0.012": 0.0,
			"-0.011": 0.0,
			"-0.01": 0.0,
			"-0.009": 0.463818015033,
			"-0.008": 2.82353889663,
			"-0.007": 4.16238736495,
			"-0.006": 8.15394640463,
			"-0.005": 14.922499075,
			"-0.004": 22.2028424759,
			"-0.003": 33.1099003389,
			"-0.002": 30.6629620247,
			"-0.001": 28.4383392621,
			"0.0": 27.5206472939,
			"0.001": 19.8900008797,
			"0.002": 10.1306061268,
			"0.003": 6.35207105623,
			"0.004": 6.02157790354,
			"0.005": 3.68758374204,
			"0.006": 4.70989551208,
			"0.007": 4.51177723435,
			"0.008": 3.98458174485,
			"0.009": 2.60927530766,
			"0.01": 2.19107778396,
			"0.011": 2.34656403087,
			"0.012": 2.04595058462,
			"0.013": 2.52551321144,
			"0.014": 2.9655028752,
			"0.015": 2.74948158277,
			"0.016": 2.40867277876,
			"0.017": 0.811686292934,
			"0.018": 0.00117060764801,
			"0.019": 0.0,
			"0.02": 0.0,
			"0.021": 0.0,
			"0.022": 0.0,
			"0.023": 0.0,
			"0.024": 0.0,
			"0.025": 0.0
		}
	}
}
