{
	 "smiles": "[O-][N+](=O)C1=C(CC#N)C=C(F)C=C1", 
	 "Tm": 344.15, 
	 "num_atms": 18, 
	 "gaussian": { 
		 "optdone": 1, 
		 "sigma_profile": "yes", 
		 "theory": "DFT", 
		 "functional": "B3LYP", 
		 "basiset": "6-31G**", 
		 "properties": { 
			 "R2extent": 2759.4421, 
			 "electric_dipole_moment_norm": 5.57438021308, 
			 "electric_quadrupole_moment_norm": 14.7484825877, 
			 "total_energy": -667.522857519, 
			 "HOMO_LUMO_gap": 0.1869, 
			 "cosmo_polarized_energy": -15.15, 
			 "cosmo_cavitation_energy": 24.72, 
			 "cosmo_dispersion_energy": -17.28, 
			 "cosmo_repulsion_energy": 1.34, 
			 "cosmo_total_nonelectrostatic_energy": 8.78, 
			 "SMD_solvation_energy": 8.09 
		},
		"coords": [
			{
				"x": 3.1159773948,
				"y": 2.039968936,
				"z": -1.5722878236,
				"element": "O" 
			},
			{
				"x": 1.9949984314,
				"y": 2.147482937,
				"z": -1.0794726521,
				"element": "N" 
			},
			{
				"x": 1.2825387942,
				"y": 3.1456432465,
				"z": -1.1958257962,
				"element": "O" 
			},
			{
				"x": 1.4805070018,
				"y": 1.0072869428,
				"z": -0.2999745976,
				"element": "C" 
			},
			{
				"x": 0.2511729956,
				"y": 1.0560416362,
				"z": 0.3895347224,
				"element": "C" 
			},
			{
				"x": -0.7026771123,
				"y": 2.2453072421,
				"z": 0.4259043303,
				"element": "C" 
			},
			{
				"x": -1.5127192661,
				"y": 2.3524631192,
				"z": -0.7940495572,
				"element": "C" 
			},
			{
				"x": -2.1803324374,
				"y": 2.4127346178,
				"z": -1.7407671852,
				"element": "N" 
			},
			{
				"x": -0.1244084231,
				"y": -0.0860086467,
				"z": 1.1022593646,
				"element": "C" 
			},
			{
				"x": 0.68843124,
				"y": -1.2142045319,
				"z": 1.1163323365,
				"element": "C" 
			},
			{
				"x": 0.2866437601,
				"y": -2.2866154742,
				"z": 1.8118381905,
				"element": "F" 
			},
			{
				"x": 1.8999655484,
				"y": -1.2596093655,
				"z": 0.4359951081,
				"element": "C" 
			},
			{
				"x": 2.29076975,
				"y": -0.1319332093,
				"z": -0.2724171392,
				"element": "C" 
			},
			{
				"x": -0.1625830248,
				"y": 3.1832236391,
				"z": 0.5641199516,
				"element": "H" 
			},
			{
				"x": -1.386313164,
				"y": 2.1167555391,
				"z": 1.2716395498,
				"element": "H" 
			},
			{
				"x": -1.0593254445,
				"y": -0.109681105,
				"z": 1.6515358966,
				"element": "H" 
			},
			{
				"x": 2.5107902125,
				"y": -2.1542579203,
				"z": 0.4675962268,
				"element": "H" 
			},
			{
				"x": 3.2259637437,
				"y": -0.108997603,
				"z": -0.8163609261,
				"element": "H" 
			}
		],
		 "valence_orbital": [ 
			{
				"type": "occ",
				"energy": -0.32168,
				"method": "rhf"
			},
			{
				"type": "occ",
				"energy": -0.31931,
				"method": "rhf"
			},
			{
				"type": "occ",
				"energy": -0.30492,
				"method": "rhf"
			},
			{
				"type": "occ",
				"energy": -0.30055,
				"method": "rhf"
			},
			{
				"type": "occ",
				"energy": -0.29048,
				"method": "rhf"
			},
			{
				"type": "unocc",
				"energy": -0.10358,
				"method": "rhf"
			},
			{
				"type": "unocc",
				"energy": -0.05418,
				"method": "rhf"
			},
			{
				"type": "unocc",
				"energy": -0.01784,
				"method": "rhf"
			},
			{
				"type": "unocc",
				"energy": 0.02693,
				"method": "rhf"
			},
			{
				"type": "unocc",
				"energy": 0.03785,
				"method": "rhf"
			}
		],
		"cosmo_sigma_profile": { 
			"-0.025": 0.0,
			"-0.024": 0.0,
			"-0.023": 0.0,
			"-0.022": 0.0,
			"-0.021": 0.0,
			"-0.02": 0.0,
			"-0.019": 0.0,
			"-0.018": 0.0,
			"-0.017": 0.0,
			"-0.016": 0.0,
			"-0.015": 0.0,
			"-0.014": 0.0,
			"-0.013": 0.0,
			"-0.012": 0.0444731840606,
			"-0.011": 1.45925993948,
			"-0.01": 3.18799217637,
			"-0.009": 6.09637334885,
			"-0.008": 10.5618861937,
			"-0.007": 10.1066764555,
			"-0.006": 11.2342008702,
			"-0.005": 8.18821601712,
			"-0.004": 8.64693112747,
			"-0.003": 8.91526532432,
			"-0.002": 19.8960541445,
			"-0.001": 18.3285566091,
			"0.0": 11.443178904,
			"0.001": 6.93062507147,
			"0.002": 6.72332726541,
			"0.003": 13.1326070169,
			"0.004": 5.15831064079,
			"0.005": 5.60124311857,
			"0.006": 7.27816244422,
			"0.007": 9.35262724149,
			"0.008": 8.75736822146,
			"0.009": 7.47939003107,
			"0.01": 4.96467502713,
			"0.011": 2.63019507911,
			"0.012": 2.5126250651,
			"0.013": 1.50464171317,
			"0.014": 0.0458692805286,
			"0.015": 0.0,
			"0.016": 0.0,
			"0.017": 0.0,
			"0.018": 0.0,
			"0.019": 0.0,
			"0.02": 0.0,
			"0.021": 0.0,
			"0.022": 0.0,
			"0.023": 0.0,
			"0.024": 0.0,
			"0.025": 0.0
		}
	}
}
