{
	 "smiles": "OCCCC1=CC=CC=C1", 
	 "Tm": 255.15, 
	 "num_atms": 22, 
	 "gaussian": { 
		 "optdone": 1, 
		 "sigma_profile": "yes", 
		 "theory": "DFT", 
		 "functional": "B3LYP", 
		 "basiset": "6-31G**", 
		 "properties": { 
			 "R2extent": 2098.5375, 
			 "electric_dipole_moment_norm": 1.7123576116, 
			 "electric_quadrupole_moment_norm": 9.49309391821, 
			 "total_energy": -425.411997075, 
			 "HOMO_LUMO_gap": 0.23973, 
			 "cosmo_polarized_energy": -7.66, 
			 "cosmo_cavitation_energy": 24.46, 
			 "cosmo_dispersion_energy": -17.73, 
			 "cosmo_repulsion_energy": 1.45, 
			 "cosmo_total_nonelectrostatic_energy": 8.18, 
			 "SMD_solvation_energy": 3.96 
		},
		"coords": [
			{
				"x": 0.8369931836,
				"y": 1.3621723971,
				"z": -3.6282250151,
				"element": "O" 
			},
			{
				"x": -0.0822588897,
				"y": 1.6064959736,
				"z": -2.5664435561,
				"element": "C" 
			},
			{
				"x": 0.5939821514,
				"y": 2.1032776377,
				"z": -1.286135015,
				"element": "C" 
			},
			{
				"x": 1.7299697293,
				"y": 1.188276975,
				"z": -0.7774822058,
				"element": "C" 
			},
			{
				"x": 1.2712271249,
				"y": -0.1953471014,
				"z": -0.3669774454,
				"element": "C" 
			},
			{
				"x": 0.8609122369,
				"y": -0.4547274132,
				"z": 0.9482635502,
				"element": "C" 
			},
			{
				"x": 0.4180795,
				"y": -1.7231184987,
				"z": 1.3262501689,
				"element": "C" 
			},
			{
				"x": 0.3780522543,
				"y": -2.7582336264,
				"z": 0.3900725918,
				"element": "C" 
			},
			{
				"x": 0.7835509777,
				"y": -2.5140816257,
				"z": -0.9234019168,
				"element": "C" 
			},
			{
				"x": 1.2264653953,
				"y": -1.2441989208,
				"z": -1.2976812482,
				"element": "C" 
			},
			{
				"x": 1.2764041589,
				"y": 2.1972156271,
				"z": -3.8364859323,
				"element": "H" 
			},
			{
				"x": -0.8618159893,
				"y": 2.3213459941,
				"z": -2.8735894523,
				"element": "H" 
			},
			{
				"x": -0.5747129892,
				"y": 0.6469154575,
				"z": -2.38480992,
				"element": "H" 
			},
			{
				"x": 1.0059876648,
				"y": 3.1078537578,
				"z": -1.4629421561,
				"element": "H" 
			},
			{
				"x": -0.1733145966,
				"y": 2.2170172947,
				"z": -0.509029979,
				"element": "H" 
			},
			{
				"x": 2.2156939321,
				"y": 1.6796606585,
				"z": 0.0736209222,
				"element": "H" 
			},
			{
				"x": 2.4819268122,
				"y": 1.1036756474,
				"z": -1.5688386685,
				"element": "H" 
			},
			{
				"x": 0.8964072671,
				"y": 0.3447016678,
				"z": 1.6853729991,
				"element": "H" 
			},
			{
				"x": 0.1098145422,
				"y": -1.9043700121,
				"z": 2.3524131955,
				"element": "H" 
			},
			{
				"x": 0.0372478455,
				"y": -3.7473342114,
				"z": 0.6828474645,
				"element": "H" 
			},
			{
				"x": 0.7584774879,
				"y": -3.3140754337,
				"z": -1.6583845944,
				"element": "H" 
			},
			{
				"x": 1.5376102005,
				"y": -1.0546222448,
				"z": -2.3217137871,
				"element": "H" 
			}
		],
		 "valence_orbital": [ 
			{
				"type": "occ",
				"energy": -0.32278,
				"method": "rhf"
			},
			{
				"type": "occ",
				"energy": -0.31381,
				"method": "rhf"
			},
			{
				"type": "occ",
				"energy": -0.26748,
				"method": "rhf"
			},
			{
				"type": "occ",
				"energy": -0.24201,
				"method": "rhf"
			},
			{
				"type": "occ",
				"energy": -0.2342,
				"method": "rhf"
			},
			{
				"type": "unocc",
				"energy": 0.00553,
				"method": "rhf"
			},
			{
				"type": "unocc",
				"energy": 0.00596,
				"method": "rhf"
			},
			{
				"type": "unocc",
				"energy": 0.07151,
				"method": "rhf"
			},
			{
				"type": "unocc",
				"energy": 0.10324,
				"method": "rhf"
			},
			{
				"type": "unocc",
				"energy": 0.12058,
				"method": "rhf"
			}
		],
		"cosmo_sigma_profile": { 
			"-0.025": 0.0,
			"-0.024": 0.0,
			"-0.023": 0.0,
			"-0.022": 0.0,
			"-0.021": 0.0,
			"-0.02": 0.0,
			"-0.019": 0.0,
			"-0.018": 0.0,
			"-0.017": 0.0,
			"-0.016": 0.054580392531,
			"-0.015": 0.772661355185,
			"-0.014": 1.2018939746,
			"-0.013": 0.606636739674,
			"-0.012": 0.86208631271,
			"-0.011": 0.833603665892,
			"-0.01": 0.873079620823,
			"-0.009": 1.0078453745,
			"-0.008": 0.585470284302,
			"-0.007": 1.69704269344,
			"-0.006": 2.06130974152,
			"-0.005": 8.38634231116,
			"-0.004": 13.10900782,
			"-0.003": 23.3553740647,
			"-0.002": 23.7171809653,
			"-0.001": 22.0182588144,
			"0.0": 16.8722452735,
			"0.001": 12.5916312354,
			"0.002": 9.50060322201,
			"0.003": 10.0049477182,
			"0.004": 8.37891802909,
			"0.005": 9.52071795019,
			"0.006": 9.25920024805,
			"0.007": 5.64144088933,
			"0.008": 1.24800893333,
			"0.009": 1.04809363083,
			"0.01": 1.16380718133,
			"0.011": 1.38272397684,
			"0.012": 1.26585145595,
			"0.013": 0.845933760572,
			"0.014": 1.32824924452,
			"0.015": 0.6054957122,
			"0.016": 0.0,
			"0.017": 0.0,
			"0.018": 0.0,
			"0.019": 0.0,
			"0.02": 0.0,
			"0.021": 0.0,
			"0.022": 0.0,
			"0.023": 0.0,
			"0.024": 0.0,
			"0.025": 0.0
		}
	}
}
