{
	 "smiles": "CC(C)NC(=O)CC#N", 
	 "Tm": 336.65, 
	 "num_atms": 19, 
	 "gaussian": { 
		 "optdone": 1, 
		 "sigma_profile": "yes", 
		 "theory": "DFT", 
		 "functional": "B3LYP", 
		 "basiset": "6-31G**", 
		 "properties": { 
			 "R2extent": 1848.2396, 
			 "electric_dipole_moment_norm": 3.95261084475, 
			 "electric_quadrupole_moment_norm": 15.517363856, 
			 "total_energy": -419.393377847, 
			 "HOMO_LUMO_gap": 0.2644, 
			 "cosmo_polarized_energy": -14.84, 
			 "cosmo_cavitation_energy": 23.23, 
			 "cosmo_dispersion_energy": -15.74, 
			 "cosmo_repulsion_energy": 1.32, 
			 "cosmo_total_nonelectrostatic_energy": 8.81, 
			 "SMD_solvation_energy": 6.08 
		},
		"coords": [
			{
				"x": -1.0666842218,
				"y": 0.7059947812,
				"z": 0.9532411938,
				"element": "C" 
			},
			{
				"x": 0.4526886383,
				"y": 0.5012393332,
				"z": 0.8837635626,
				"element": "C" 
			},
			{
				"x": 1.188869096,
				"y": 1.2440244664,
				"z": 2.0068193768,
				"element": "C" 
			},
			{
				"x": 0.9489589103,
				"y": 0.9216118415,
				"z": -0.432692149,
				"element": "N" 
			},
			{
				"x": 1.6787791736,
				"y": 0.2531995508,
				"z": -1.3677584105,
				"element": "C" 
			},
			{
				"x": 1.9972006203,
				"y": 0.7525976569,
				"z": -2.4360301038,
				"element": "O" 
			},
			{
				"x": 2.0830093922,
				"y": -1.2101002349,
				"z": -1.0579654097,
				"element": "C" 
			},
			{
				"x": 2.9447943013,
				"y": -1.3567768865,
				"z": 0.1144332087,
				"element": "C" 
			},
			{
				"x": 3.6246219792,
				"y": -1.4502337075,
				"z": 1.0511405447,
				"element": "N" 
			},
			{
				"x": -1.5768481493,
				"y": 0.1496309675,
				"z": 0.1616186724,
				"element": "H" 
			},
			{
				"x": -1.4552530748,
				"y": 0.371305385,
				"z": 1.9198229067,
				"element": "H" 
			},
			{
				"x": -1.3214781119,
				"y": 1.7665507119,
				"z": 0.8419866652,
				"element": "H" 
			},
			{
				"x": 0.6618269088,
				"y": -0.5670327687,
				"z": 0.9842367818,
				"element": "H" 
			},
			{
				"x": 1.0329017659,
				"y": 2.3256496834,
				"z": 1.9217743194,
				"element": "H" 
			},
			{
				"x": 2.2619090855,
				"y": 1.0425742352,
				"z": 1.9668331294,
				"element": "H" 
			},
			{
				"x": 0.8150273884,
				"y": 0.9265173764,
				"z": 2.9853210765,
				"element": "H" 
			},
			{
				"x": 0.7402882152,
				"y": 1.8724973594,
				"z": -0.7159786089,
				"element": "H" 
			},
			{
				"x": 1.1912427894,
				"y": -1.8343566279,
				"z": -0.9260280644,
				"element": "H" 
			},
			{
				"x": 2.6120452936,
				"y": -1.5614931233,
				"z": -1.9464386917,
				"element": "H" 
			}
		],
		 "valence_orbital": [ 
			{
				"type": "occ",
				"energy": -0.36026,
				"method": "rhf"
			},
			{
				"type": "occ",
				"energy": -0.34075,
				"method": "rhf"
			},
			{
				"type": "occ",
				"energy": -0.33309,
				"method": "rhf"
			},
			{
				"type": "occ",
				"energy": -0.26402,
				"method": "rhf"
			},
			{
				"type": "occ",
				"energy": -0.26287,
				"method": "rhf"
			},
			{
				"type": "unocc",
				"energy": 0.00153,
				"method": "rhf"
			},
			{
				"type": "unocc",
				"energy": 0.02577,
				"method": "rhf"
			},
			{
				"type": "unocc",
				"energy": 0.0393,
				"method": "rhf"
			},
			{
				"type": "unocc",
				"energy": 0.06262,
				"method": "rhf"
			},
			{
				"type": "unocc",
				"energy": 0.08578,
				"method": "rhf"
			}
		],
		"cosmo_sigma_profile": { 
			"-0.025": 0.0,
			"-0.024": 0.0,
			"-0.023": 0.0,
			"-0.022": 0.0,
			"-0.021": 0.0,
			"-0.02": 0.0,
			"-0.019": 0.0,
			"-0.018": 0.0,
			"-0.017": 0.0,
			"-0.016": 0.0,
			"-0.015": 0.0,
			"-0.014": 0.226044928179,
			"-0.013": 0.837853310817,
			"-0.012": 1.23883696846,
			"-0.011": 1.35573043973,
			"-0.01": 4.55945622377,
			"-0.009": 5.73079889621,
			"-0.008": 5.97105506992,
			"-0.007": 5.83913363056,
			"-0.006": 6.45503971805,
			"-0.005": 6.56347137145,
			"-0.004": 13.8193120311,
			"-0.003": 15.7427640597,
			"-0.002": 14.5546186842,
			"-0.001": 15.2263569364,
			"0.0": 19.4790921534,
			"0.001": 12.5849152733,
			"0.002": 4.49543021881,
			"0.003": 4.63398265433,
			"0.004": 2.62000946909,
			"0.005": 3.55913846159,
			"0.006": 3.70614503094,
			"0.007": 3.39914273216,
			"0.008": 3.71965981281,
			"0.009": 3.78670655274,
			"0.01": 4.62002692247,
			"0.011": 3.96133037549,
			"0.012": 4.70324013235,
			"0.013": 7.54907305004,
			"0.014": 2.04939971693,
			"0.015": 0.0,
			"0.016": 0.0,
			"0.017": 0.0,
			"0.018": 0.0,
			"0.019": 0.0,
			"0.02": 0.0,
			"0.021": 0.0,
			"0.022": 0.0,
			"0.023": 0.0,
			"0.024": 0.0,
			"0.025": 0.0
		}
	}
}
