{
	 "smiles": "ClC1=CC(Cl)=C2C=CC=CC2=N1", 
	 "Tm": 340.65, 
	 "num_atms": 17, 
	 "gaussian": { 
		 "optdone": 1, 
		 "sigma_profile": "yes", 
		 "theory": "DFT", 
		 "functional": "B3LYP", 
		 "basiset": "6-31G**", 
		 "properties": { 
			 "R2extent": 3850.4773, 
			 "electric_dipole_moment_norm": 2.74146520496, 
			 "electric_quadrupole_moment_norm": 9.0034774493, 
			 "total_energy": -1321.11580636, 
			 "HOMO_LUMO_gap": 0.17495, 
			 "cosmo_polarized_energy": -5.71, 
			 "cosmo_cavitation_energy": 24.92, 
			 "cosmo_dispersion_energy": -19.04, 
			 "cosmo_repulsion_energy": 1.5, 
			 "cosmo_total_nonelectrostatic_energy": 7.38, 
			 "SMD_solvation_energy": 2.08 
		},
		"coords": [
			{
				"x": -3.6890220751,
				"y": -0.0075617441,
				"z": 2.9903806382,
				"element": "Cl" 
			},
			{
				"x": -2.0604554549,
				"y": -0.167237715,
				"z": 2.3349243416,
				"element": "C" 
			},
			{
				"x": -1.6096968606,
				"y": -1.4813831992,
				"z": 2.0500101519,
				"element": "C" 
			},
			{
				"x": -0.3415418121,
				"y": -1.6073599111,
				"z": 1.5393331581,
				"element": "C" 
			},
			{
				"x": 0.262714906,
				"y": -3.2087381871,
				"z": 1.1704457589,
				"element": "Cl" 
			},
			{
				"x": 0.4742042255,
				"y": -0.461522608,
				"z": 1.3107501611,
				"element": "C" 
			},
			{
				"x": 1.7913448239,
				"y": -0.4937299668,
				"z": 0.7882749177,
				"element": "C" 
			},
			{
				"x": 2.4951228001,
				"y": 0.6764979544,
				"z": 0.6057918327,
				"element": "C" 
			},
			{
				"x": 1.9156656236,
				"y": 1.9248154992,
				"z": 0.9362037983,
				"element": "C" 
			},
			{
				"x": 0.6381870027,
				"y": 1.9876438747,
				"z": 1.445562958,
				"element": "C" 
			},
			{
				"x": -0.1147210272,
				"y": 0.8024770237,
				"z": 1.6461448881,
				"element": "C" 
			},
			{
				"x": -1.3775306676,
				"y": 0.9223388833,
				"z": 2.1542199827,
				"element": "N" 
			},
			{
				"x": -2.2423628647,
				"y": -2.3403292263,
				"z": 2.2296617836,
				"element": "H" 
			},
			{
				"x": 2.235126977,
				"y": -1.4498874276,
				"z": 0.5352398509,
				"element": "H" 
			},
			{
				"x": 3.5035237431,
				"y": 0.6422785665,
				"z": 0.2049924938,
				"element": "H" 
			},
			{
				"x": 2.4856400018,
				"y": 2.8367333345,
				"z": 0.7855269683,
				"element": "H" 
			},
			{
				"x": 0.1672006584,
				"y": 2.9287648491,
				"z": 1.7081363158,
				"element": "H" 
			}
		],
		 "valence_orbital": [ 
			{
				"type": "occ",
				"energy": -0.31904,
				"method": "rhf"
			},
			{
				"type": "occ",
				"energy": -0.30181,
				"method": "rhf"
			},
			{
				"type": "occ",
				"energy": -0.2838,
				"method": "rhf"
			},
			{
				"type": "occ",
				"energy": -0.26387,
				"method": "rhf"
			},
			{
				"type": "occ",
				"energy": -0.24712,
				"method": "rhf"
			},
			{
				"type": "unocc",
				"energy": -0.07217,
				"method": "rhf"
			},
			{
				"type": "unocc",
				"energy": -0.03646,
				"method": "rhf"
			},
			{
				"type": "unocc",
				"energy": 0.00328,
				"method": "rhf"
			},
			{
				"type": "unocc",
				"energy": 0.0042,
				"method": "rhf"
			},
			{
				"type": "unocc",
				"energy": 0.04494,
				"method": "rhf"
			}
		],
		"cosmo_sigma_profile": { 
			"-0.025": 0.0,
			"-0.024": 0.0,
			"-0.023": 0.0,
			"-0.022": 0.0,
			"-0.021": 0.0,
			"-0.02": 0.0,
			"-0.019": 0.0,
			"-0.018": 0.0,
			"-0.017": 0.0,
			"-0.016": 0.0,
			"-0.015": 0.0,
			"-0.014": 0.0,
			"-0.013": 0.0,
			"-0.012": 0.0,
			"-0.011": 0.0,
			"-0.01": 0.0924648968628,
			"-0.009": 1.35147562438,
			"-0.008": 1.16041169098,
			"-0.007": 5.71564189008,
			"-0.006": 9.6466952216,
			"-0.005": 9.70388810389,
			"-0.004": 8.95518290986,
			"-0.003": 12.0159846185,
			"-0.002": 17.0452520297,
			"-0.001": 24.5250302533,
			"0.0": 21.4316358726,
			"0.001": 21.0416092625,
			"0.002": 22.1133749811,
			"0.003": 24.6505765627,
			"0.004": 12.5616883188,
			"0.005": 4.48116350907,
			"0.006": 1.87163141177,
			"0.007": 1.70150685929,
			"0.008": 1.52622093442,
			"0.009": 1.19972405937,
			"0.01": 1.06707042932,
			"0.011": 0.464026054418,
			"0.012": 1.00398962002,
			"0.013": 0.747019916496,
			"0.014": 0.129019556995,
			"0.015": 0.0,
			"0.016": 0.0,
			"0.017": 0.0,
			"0.018": 0.0,
			"0.019": 0.0,
			"0.02": 0.0,
			"0.021": 0.0,
			"0.022": 0.0,
			"0.023": 0.0,
			"0.024": 0.0,
			"0.025": 0.0
		}
	}
}
