{
	 "smiles": "CCN(C)S(=O)(=O)C1=C(C)NN=C1C", 
	 "Tm": 335.15, 
	 "num_atms": 29, 
	 "gaussian": { 
		 "optdone": 1, 
		 "sigma_profile": "yes", 
		 "theory": "DFT", 
		 "functional": "B3LYP", 
		 "basiset": "6-31G**", 
		 "properties": { 
			 "R2extent": 2972.4113, 
			 "electric_dipole_moment_norm": 4.1098689675, 
			 "electric_quadrupole_moment_norm": 19.7015177697, 
			 "total_energy": -1026.70513621, 
			 "HOMO_LUMO_gap": 0.24549, 
			 "cosmo_polarized_energy": -17.32, 
			 "cosmo_cavitation_energy": 32.43, 
			 "cosmo_dispersion_energy": -22.63, 
			 "cosmo_repulsion_energy": 1.74, 
			 "cosmo_total_nonelectrostatic_energy": 11.55, 
			 "SMD_solvation_energy": 4.23 
		},
		"coords": [
			{
				"x": 1.6787322851,
				"y": -0.3998207771,
				"z": -2.7327725395,
				"element": "C" 
			},
			{
				"x": 1.6822130246,
				"y": 0.0714243196,
				"z": -1.2786049092,
				"element": "C" 
			},
			{
				"x": 1.0340259688,
				"y": -0.9053654125,
				"z": -0.3805497029,
				"element": "N" 
			},
			{
				"x": 1.786884036,
				"y": -2.1554998283,
				"z": -0.1907392262,
				"element": "C" 
			},
			{
				"x": 0.4770557836,
				"y": -0.2173113527,
				"z": 1.0821885378,
				"element": "S" 
			},
			{
				"x": 1.4508213698,
				"y": 0.7477166727,
				"z": 1.6220720318,
				"element": "O" 
			},
			{
				"x": 0.0347803529,
				"y": -1.3440206028,
				"z": 1.9114533141,
				"element": "O" 
			},
			{
				"x": -0.9163024552,
				"y": 0.6984607756,
				"z": 0.5373012819,
				"element": "C" 
			},
			{
				"x": -1.1016387087,
				"y": 2.073138523,
				"z": 0.6796814599,
				"element": "C" 
			},
			{
				"x": -0.2496365173,
				"y": 3.1739102454,
				"z": 1.2244644783,
				"element": "C" 
			},
			{
				"x": -2.3472507672,
				"y": 2.28984714,
				"z": 0.1997540582,
				"element": "N" 
			},
			{
				"x": -2.9874890651,
				"y": 1.1712591405,
				"z": -0.2329272495,
				"element": "N" 
			},
			{
				"x": -2.1237270929,
				"y": 0.1846774695,
				"z": -0.0254291662,
				"element": "C" 
			},
			{
				"x": -2.4640842269,
				"y": -1.230653895,
				"z": -0.3643418366,
				"element": "C" 
			},
			{
				"x": 0.6602036992,
				"y": -0.6188118019,
				"z": -3.0663300682,
				"element": "H" 
			},
			{
				"x": 2.2896302435,
				"y": -1.2949123792,
				"z": -2.8802292016,
				"element": "H" 
			},
			{
				"x": 2.0908307928,
				"y": 0.3860353068,
				"z": -3.373723647,
				"element": "H" 
			},
			{
				"x": 1.1184779231,
				"y": 1.0061426691,
				"z": -1.2107056767,
				"element": "H" 
			},
			{
				"x": 2.7071535938,
				"y": 0.285771644,
				"z": -0.9414258616,
				"element": "H" 
			},
			{
				"x": 1.266183763,
				"y": -2.7790619871,
				"z": 0.5346704704,
				"element": "H" 
			},
			{
				"x": 1.82262126,
				"y": -2.6858371675,
				"z": -1.1448849986,
				"element": "H" 
			},
			{
				"x": 2.8154612374,
				"y": -1.978845389,
				"z": 0.1562621439,
				"element": "H" 
			},
			{
				"x": -0.038995526,
				"y": 3.0135577785,
				"z": 2.2848424061,
				"element": "H" 
			},
			{
				"x": -0.7480710339,
				"y": 4.140759744,
				"z": 1.1056240985,
				"element": "H" 
			},
			{
				"x": 0.7172153045,
				"y": 3.2101210791,
				"z": 0.7173659998,
				"element": "H" 
			},
			{
				"x": -2.8265558508,
				"y": 3.176221861,
				"z": 0.1474865679,
				"element": "H" 
			},
			{
				"x": -3.4780718271,
				"y": -1.2784585619,
				"z": -0.7658222222,
				"element": "H" 
			},
			{
				"x": -1.7631866973,
				"y": -1.6319700619,
				"z": -1.1031001172,
				"element": "H" 
			},
			{
				"x": -2.3945808697,
				"y": -1.8659751521,
				"z": 0.5237195747,
				"element": "H" 
			}
		],
		 "valence_orbital": [ 
			{
				"type": "occ",
				"energy": -0.29868,
				"method": "rhf"
			},
			{
				"type": "occ",
				"energy": -0.28484,
				"method": "rhf"
			},
			{
				"type": "occ",
				"energy": -0.26723,
				"method": "rhf"
			},
			{
				"type": "occ",
				"energy": -0.25642,
				"method": "rhf"
			},
			{
				"type": "occ",
				"energy": -0.24423,
				"method": "rhf"
			},
			{
				"type": "unocc",
				"energy": 0.00126,
				"method": "rhf"
			},
			{
				"type": "unocc",
				"energy": 0.02519,
				"method": "rhf"
			},
			{
				"type": "unocc",
				"energy": 0.06249,
				"method": "rhf"
			},
			{
				"type": "unocc",
				"energy": 0.06977,
				"method": "rhf"
			},
			{
				"type": "unocc",
				"energy": 0.08855,
				"method": "rhf"
			}
		],
		"cosmo_sigma_profile": { 
			"-0.025": 0.0,
			"-0.024": 0.0,
			"-0.023": 0.0,
			"-0.022": 0.0,
			"-0.021": 0.0,
			"-0.02": 0.0,
			"-0.019": 0.0,
			"-0.018": 0.0,
			"-0.017": 0.72515071157,
			"-0.016": 1.76825186241,
			"-0.015": 1.26326105595,
			"-0.014": 1.07779506092,
			"-0.013": 1.38741771468,
			"-0.012": 1.33949600142,
			"-0.011": 1.34177376488,
			"-0.01": 0.789561229081,
			"-0.009": 1.13592996598,
			"-0.008": 1.29110750837,
			"-0.007": 1.92728122794,
			"-0.006": 3.45520245769,
			"-0.005": 11.9314354574,
			"-0.004": 26.2510920065,
			"-0.003": 29.3607434795,
			"-0.002": 34.0944891312,
			"-0.001": 26.8164578954,
			"0.0": 19.1620219781,
			"0.001": 14.3444348324,
			"0.002": 9.86863278184,
			"0.003": 9.49869829067,
			"0.004": 8.7915011975,
			"0.005": 5.23026453272,
			"0.006": 3.94798302103,
			"0.007": 3.96765713657,
			"0.008": 4.57144120424,
			"0.009": 5.1131493316,
			"0.01": 6.17684327901,
			"0.011": 7.59099900941,
			"0.012": 6.46325212172,
			"0.013": 1.64484952588,
			"0.014": 1.2379525966,
			"0.015": 0.86877868732,
			"0.016": 0.0557023375675,
			"0.017": 0.0,
			"0.018": 0.0,
			"0.019": 0.0,
			"0.02": 0.0,
			"0.021": 0.0,
			"0.022": 0.0,
			"0.023": 0.0,
			"0.024": 0.0,
			"0.025": 0.0
		}
	}
}
