{
	 "smiles": "CN(C)S(=O)(=O)C1=CC(N)=CC=C1", 
	 "Tm": 399.15, 
	 "num_atms": 25, 
	 "gaussian": { 
		 "optdone": 1, 
		 "sigma_profile": "yes", 
		 "theory": "DFT", 
		 "functional": "B3LYP", 
		 "basiset": "6-31G**", 
		 "properties": { 
			 "R2extent": 3170.5198, 
			 "electric_dipole_moment_norm": 6.94935214966, 
			 "electric_quadrupole_moment_norm": 11.12877317, 
			 "total_energy": -970.150647459, 
			 "HOMO_LUMO_gap": 0.18863, 
			 "cosmo_polarized_energy": -18.33, 
			 "cosmo_cavitation_energy": 29.07, 
			 "cosmo_dispersion_energy": -21.29, 
			 "cosmo_repulsion_energy": 1.64, 
			 "cosmo_total_nonelectrostatic_energy": 9.42, 
			 "SMD_solvation_energy": 3.43 
		},
		"coords": [
			{
				"x": -3.5048722647,
				"y": -1.1925568922,
				"z": 0.0946636374,
				"element": "C" 
			},
			{
				"x": -2.8535985339,
				"y": -0.8531946928,
				"z": 1.3612240644,
				"element": "N" 
			},
			{
				"x": -2.4868487614,
				"y": -1.9994403527,
				"z": 2.1940355729,
				"element": "C" 
			},
			{
				"x": -1.7369519613,
				"y": 0.4192009195,
				"z": 1.3109275906,
				"element": "S" 
			},
			{
				"x": -1.3125614398,
				"y": 0.6394308901,
				"z": 2.6957763787,
				"element": "O" 
			},
			{
				"x": -2.3608059233,
				"y": 1.4749745122,
				"z": 0.511097767,
				"element": "O" 
			},
			{
				"x": -0.3108801535,
				"y": -0.1872158412,
				"z": 0.3948503564,
				"element": "C" 
			},
			{
				"x": 0.7322163221,
				"y": -0.781894614,
				"z": 1.102759476,
				"element": "C" 
			},
			{
				"x": 1.8351016584,
				"y": -1.306692391,
				"z": 0.4065573856,
				"element": "C" 
			},
			{
				"x": 2.9175007704,
				"y": -1.8405773484,
				"z": 1.0955907136,
				"element": "N" 
			},
			{
				"x": 1.8449187542,
				"y": -1.2224800898,
				"z": -0.9986970947,
				"element": "C" 
			},
			{
				"x": 0.793888919,
				"y": -0.6187169565,
				"z": -1.6834353194,
				"element": "C" 
			},
			{
				"x": -0.302499067,
				"y": -0.0905882021,
				"z": -0.9989824874,
				"element": "C" 
			},
			{
				"x": -4.4048640179,
				"y": -1.7717218345,
				"z": 0.3218447676,
				"element": "H" 
			},
			{
				"x": -3.8023134819,
				"y": -0.276198462,
				"z": -0.4143944556,
				"element": "H" 
			},
			{
				"x": -2.8618695515,
				"y": -1.7911388261,
				"z": -0.5691234293,
				"element": "H" 
			},
			{
				"x": -1.7540022064,
				"y": -2.6630465885,
				"z": 1.7086841723,
				"element": "H" 
			},
			{
				"x": -2.0849577821,
				"y": -1.6423352813,
				"z": 3.1418537778,
				"element": "H" 
			},
			{
				"x": -3.3948958196,
				"y": -2.575143735,
				"z": 2.3964799902,
				"element": "H" 
			},
			{
				"x": 0.7024669809,
				"y": -0.7995567837,
				"z": 2.1874293752,
				"element": "H" 
			},
			{
				"x": 3.5050143826,
				"y": -2.4787836775,
				"z": 0.5789446505,
				"element": "H" 
			},
			{
				"x": 2.7379113731,
				"y": -2.1476763713,
				"z": 2.0405006837,
				"element": "H" 
			},
			{
				"x": 2.6937992024,
				"y": -1.6197544164,
				"z": -1.549468798,
				"element": "H" 
			},
			{
				"x": 0.8336731246,
				"y": -0.5532567261,
				"z": -2.7668907655,
				"element": "H" 
			},
			{
				"x": -1.1098705235,
				"y": 0.410263761,
				"z": -1.5191280102,
				"element": "H" 
			}
		],
		 "valence_orbital": [ 
			{
				"type": "occ",
				"energy": -0.29623,
				"method": "rhf"
			},
			{
				"type": "occ",
				"energy": -0.29328,
				"method": "rhf"
			},
			{
				"type": "occ",
				"energy": -0.27116,
				"method": "rhf"
			},
			{
				"type": "occ",
				"energy": -0.24943,
				"method": "rhf"
			},
			{
				"type": "occ",
				"energy": -0.21894,
				"method": "rhf"
			},
			{
				"type": "unocc",
				"energy": -0.03031,
				"method": "rhf"
			},
			{
				"type": "unocc",
				"energy": -0.00336,
				"method": "rhf"
			},
			{
				"type": "unocc",
				"energy": 0.06473,
				"method": "rhf"
			},
			{
				"type": "unocc",
				"energy": 0.07039,
				"method": "rhf"
			},
			{
				"type": "unocc",
				"energy": 0.08848,
				"method": "rhf"
			}
		],
		"cosmo_sigma_profile": { 
			"-0.025": 0.0,
			"-0.024": 0.0,
			"-0.023": 0.0,
			"-0.022": 0.0,
			"-0.021": 0.0,
			"-0.02": 0.0,
			"-0.019": 0.0,
			"-0.018": 0.0,
			"-0.017": 0.0,
			"-0.016": 0.0,
			"-0.015": 0.0,
			"-0.014": 0.0273731934737,
			"-0.013": 1.71144384289,
			"-0.012": 3.1167599054,
			"-0.011": 3.31249423541,
			"-0.01": 3.50718722434,
			"-0.009": 3.04667283757,
			"-0.008": 2.64196030897,
			"-0.007": 4.65124444856,
			"-0.006": 12.0040223567,
			"-0.005": 13.732446669,
			"-0.004": 20.2179333445,
			"-0.003": 21.2509861166,
			"-0.002": 24.4375684813,
			"-0.001": 12.3975776219,
			"0.0": 8.69758626525,
			"0.001": 7.94832659423,
			"0.002": 10.0725298345,
			"0.003": 11.5959414129,
			"0.004": 14.4359586076,
			"0.005": 8.5198941014,
			"0.006": 5.01640463974,
			"0.007": 5.25518619599,
			"0.008": 5.00532889647,
			"0.009": 4.6749487941,
			"0.01": 7.35750195289,
			"0.011": 8.43468314777,
			"0.012": 6.03710817577,
			"0.013": 0.496161341133,
			"0.014": 0.0870342926226,
			"0.015": 0.0,
			"0.016": 0.0,
			"0.017": 0.0,
			"0.018": 0.0,
			"0.019": 0.0,
			"0.02": 0.0,
			"0.021": 0.0,
			"0.022": 0.0,
			"0.023": 0.0,
			"0.024": 0.0,
			"0.025": 0.0
		}
	}
}
