{
	 "smiles": "OC(=O)CN1C=CC2=C1C=CC(=C2)[N+]([O-])=O", 
	 "Tm": 466.15, 
	 "num_atms": 24, 
	 "gaussian": { 
		 "optdone": 1, 
		 "sigma_profile": "yes", 
		 "theory": "DFT", 
		 "functional": "B3LYP", 
		 "basiset": "6-31G**", 
		 "properties": { 
			 "R2extent": 4924.8837, 
			 "electric_dipole_moment_norm": 8.73425600781, 
			 "electric_quadrupole_moment_norm": 26.1148451581, 
			 "total_energy": -796.185578405, 
			 "HOMO_LUMO_gap": 0.1549, 
			 "cosmo_polarized_energy": -26.99, 
			 "cosmo_cavitation_energy": 30.06, 
			 "cosmo_dispersion_energy": -21.37, 
			 "cosmo_repulsion_energy": 1.65, 
			 "cosmo_total_nonelectrostatic_energy": 10.34, 
			 "SMD_solvation_energy": 8.65 
		},
		"coords": [
			{
				"x": 3.456180378,
				"y": -0.5254859162,
				"z": 1.4550754175,
				"element": "O" 
			},
			{
				"x": 2.2227213644,
				"y": -0.0969911183,
				"z": 1.0839797017,
				"element": "C" 
			},
			{
				"x": 2.0643722547,
				"y": 0.967430436,
				"z": 0.5543263425,
				"element": "O" 
			},
			{
				"x": 1.0841931779,
				"y": -1.0793239694,
				"z": 1.4193299751,
				"element": "C" 
			},
			{
				"x": -0.2042634496,
				"y": -0.6404705598,
				"z": 0.9594815331,
				"element": "N" 
			},
			{
				"x": -1.0853224983,
				"y": 0.1580162322,
				"z": 1.6826557974,
				"element": "C" 
			},
			{
				"x": -2.1764235399,
				"y": 0.4626877462,
				"z": 0.9214887125,
				"element": "C" 
			},
			{
				"x": -1.977201053,
				"y": -0.1569197013,
				"z": -0.3596776068,
				"element": "C" 
			},
			{
				"x": -0.7210066109,
				"y": -0.8297590464,
				"z": -0.3059768345,
				"element": "C" 
			},
			{
				"x": -0.2051054244,
				"y": -1.5380708627,
				"z": -1.3998105431,
				"element": "C" 
			},
			{
				"x": -0.9642390032,
				"y": -1.5838204162,
				"z": -2.5580851836,
				"element": "C" 
			},
			{
				"x": -2.2085630564,
				"y": -0.926958596,
				"z": -2.6062798347,
				"element": "C" 
			},
			{
				"x": -2.7323223859,
				"y": -0.2131158702,
				"z": -1.5354856392,
				"element": "C" 
			},
			{
				"x": -2.9861936642,
				"y": -0.9989817699,
				"z": -3.8474600778,
				"element": "N" 
			},
			{
				"x": -2.5097098999,
				"y": -1.6368620523,
				"z": -4.7884345775,
				"element": "O" 
			},
			{
				"x": -4.0735511982,
				"y": -0.4200477995,
				"z": -3.8808568486,
				"element": "O" 
			},
			{
				"x": 3.417776652,
				"y": -1.4040808108,
				"z": 1.860838611,
				"element": "H" 
			},
			{
				"x": 1.3134705459,
				"y": -2.0614210431,
				"z": 0.9879108878,
				"element": "H" 
			},
			{
				"x": 1.049927227,
				"y": -1.2148714641,
				"z": 2.5071383091,
				"element": "H" 
			},
			{
				"x": -0.8461529463,
				"y": 0.4373342283,
				"z": 2.6991165773,
				"element": "H" 
			},
			{
				"x": -3.0248456378,
				"y": 1.0549407517,
				"z": 1.2315036248,
				"element": "H" 
			},
			{
				"x": 0.7611840758,
				"y": -2.0304502419,
				"z": -1.3614647024,
				"element": "H" 
			},
			{
				"x": -0.6208810081,
				"y": -2.1122282386,
				"z": -3.437667295,
				"element": "H" 
			},
			{
				"x": -3.6934442993,
				"y": 0.2759500822,
				"z": -1.6337463466,
				"element": "H" 
			}
		],
		 "valence_orbital": [ 
			{
				"type": "occ",
				"energy": -0.2954,
				"method": "rhf"
			},
			{
				"type": "occ",
				"energy": -0.29409,
				"method": "rhf"
			},
			{
				"type": "occ",
				"energy": -0.27757,
				"method": "rhf"
			},
			{
				"type": "occ",
				"energy": -0.24912,
				"method": "rhf"
			},
			{
				"type": "occ",
				"energy": -0.22895,
				"method": "rhf"
			},
			{
				"type": "unocc",
				"energy": -0.07405,
				"method": "rhf"
			},
			{
				"type": "unocc",
				"energy": -0.03215,
				"method": "rhf"
			},
			{
				"type": "unocc",
				"energy": -0.01704,
				"method": "rhf"
			},
			{
				"type": "unocc",
				"energy": 0.01885,
				"method": "rhf"
			},
			{
				"type": "unocc",
				"energy": 0.02781,
				"method": "rhf"
			}
		],
		"cosmo_sigma_profile": { 
			"-0.025": 0.0,
			"-0.024": 0.0,
			"-0.023": 0.0,
			"-0.022": 0.0,
			"-0.021": 0.105364066778,
			"-0.02": 0.837272113933,
			"-0.019": 1.23075850811,
			"-0.018": 1.73782701732,
			"-0.017": 0.965457490124,
			"-0.016": 1.21690982995,
			"-0.015": 1.41283969294,
			"-0.014": 0.82915799654,
			"-0.013": 1.53691943165,
			"-0.012": 2.22286210415,
			"-0.011": 4.71329989538,
			"-0.01": 6.51286975082,
			"-0.009": 6.63992556592,
			"-0.008": 6.08147606203,
			"-0.007": 8.56797901223,
			"-0.006": 9.38137577989,
			"-0.005": 10.7753778641,
			"-0.004": 9.14763139274,
			"-0.003": 10.1755279636,
			"-0.002": 9.53744535824,
			"-0.001": 9.83717586224,
			"0.0": 13.7853022649,
			"0.001": 13.5879596296,
			"0.002": 18.40652878,
			"0.003": 16.5779983541,
			"0.004": 9.03039516905,
			"0.005": 9.7549157563,
			"0.006": 5.40113913475,
			"0.007": 8.14374802925,
			"0.008": 13.8494757735,
			"0.009": 10.167826075,
			"0.01": 9.53182732673,
			"0.011": 6.83429386478,
			"0.012": 2.35516976636,
			"0.013": 0.210214465096,
			"0.014": 0.0,
			"0.015": 0.0,
			"0.016": 0.0,
			"0.017": 0.0,
			"0.018": 0.0,
			"0.019": 0.0,
			"0.02": 0.0,
			"0.021": 0.0,
			"0.022": 0.0,
			"0.023": 0.0,
			"0.024": 0.0,
			"0.025": 0.0
		}
	}
}
