{
	 "smiles": "COC(=O)C1=C(O)C(OC)=CC=C1", 
	 "Tm": 339.65, 
	 "num_atms": 23, 
	 "gaussian": { 
		 "optdone": 1, 
		 "sigma_profile": "yes", 
		 "theory": "DFT", 
		 "functional": "B3LYP", 
		 "basiset": "6-31G**", 
		 "properties": { 
			 "R2extent": 3773.9082, 
			 "electric_dipole_moment_norm": 2.54632923244, 
			 "electric_quadrupole_moment_norm": 11.3007247299, 
			 "total_energy": -649.870353672, 
			 "HOMO_LUMO_gap": 0.16207, 
			 "cosmo_polarized_energy": -8.82, 
			 "cosmo_cavitation_energy": 26.82, 
			 "cosmo_dispersion_energy": -20.11, 
			 "cosmo_repulsion_energy": 1.59, 
			 "cosmo_total_nonelectrostatic_energy": 8.3, 
			 "SMD_solvation_energy": 7.19 
		},
		"coords": [
			{
				"x": -4.7432955847,
				"y": 1.1518742314,
				"z": -1.0821346512,
				"element": "C" 
			},
			{
				"x": -3.4584638175,
				"y": 0.515487825,
				"z": -0.947281778,
				"element": "O" 
			},
			{
				"x": -3.4740394876,
				"y": -0.7506712914,
				"z": -0.408451291,
				"element": "C" 
			},
			{
				"x": -4.5180170717,
				"y": -1.2717544626,
				"z": -0.0777165333,
				"element": "O" 
			},
			{
				"x": -2.1289908732,
				"y": -1.3641193499,
				"z": -0.2896104773,
				"element": "C" 
			},
			{
				"x": -0.9238623625,
				"y": -0.7289510118,
				"z": -0.685962704,
				"element": "C" 
			},
			{
				"x": -0.88330874,
				"y": 0.5185632314,
				"z": -1.2199592698,
				"element": "O" 
			},
			{
				"x": 0.3001031097,
				"y": -1.4246266406,
				"z": -0.5192765351,
				"element": "C" 
			},
			{
				"x": 1.5480252152,
				"y": -0.9742931604,
				"z": -0.8415271185,
				"element": "O" 
			},
			{
				"x": 1.8089271215,
				"y": 0.307525731,
				"z": -1.4123948144,
				"element": "C" 
			},
			{
				"x": 0.2837552195,
				"y": -2.7094332497,
				"z": 0.0276602936,
				"element": "C" 
			},
			{
				"x": -0.9043825777,
				"y": -3.3302980789,
				"z": 0.4159875801,
				"element": "C" 
			},
			{
				"x": -2.1052291485,
				"y": -2.6605455695,
				"z": 0.25805317,
				"element": "C" 
			},
			{
				"x": -4.5422027937,
				"y": 2.1301281331,
				"z": -1.5181625383,
				"element": "H" 
			},
			{
				"x": -5.3907728836,
				"y": 0.5631307037,
				"z": -1.7350250413,
				"element": "H" 
			},
			{
				"x": -5.2194251003,
				"y": 1.2544660597,
				"z": -0.1049526933,
				"element": "H" 
			},
			{
				"x": -1.7979641422,
				"y": 0.8538781642,
				"z": -1.2660562644,
				"element": "H" 
			},
			{
				"x": 2.8934379666,
				"y": 0.3370996861,
				"z": -1.539340379,
				"element": "H" 
			},
			{
				"x": 1.3235271442,
				"y": 0.4295445202,
				"z": -2.3838724991,
				"element": "H" 
			},
			{
				"x": 1.4956496659,
				"y": 1.1208216616,
				"z": -0.7530585968,
				"element": "H" 
			},
			{
				"x": 1.2414844448,
				"y": -3.2079017844,
				"z": 0.1385351943,
				"element": "H" 
			},
			{
				"x": -0.8805447841,
				"y": -4.3298328028,
				"z": 0.8376026373,
				"element": "H" 
			},
			{
				"x": -3.0502105202,
				"y": -3.1054925454,
				"z": 0.5462443095,
				"element": "H" 
			}
		],
		 "valence_orbital": [ 
			{
				"type": "occ",
				"energy": -0.31558,
				"method": "rhf"
			},
			{
				"type": "occ",
				"energy": -0.31052,
				"method": "rhf"
			},
			{
				"type": "occ",
				"energy": -0.28446,
				"method": "rhf"
			},
			{
				"type": "occ",
				"energy": -0.24226,
				"method": "rhf"
			},
			{
				"type": "occ",
				"energy": -0.20518,
				"method": "rhf"
			},
			{
				"type": "unocc",
				"energy": -0.04311,
				"method": "rhf"
			},
			{
				"type": "unocc",
				"energy": 0.01518,
				"method": "rhf"
			},
			{
				"type": "unocc",
				"energy": 0.05876,
				"method": "rhf"
			},
			{
				"type": "unocc",
				"energy": 0.08758,
				"method": "rhf"
			},
			{
				"type": "unocc",
				"energy": 0.09571,
				"method": "rhf"
			}
		],
		"cosmo_sigma_profile": { 
			"-0.025": 0.0,
			"-0.024": 0.0,
			"-0.023": 0.0,
			"-0.022": 0.0,
			"-0.021": 0.0,
			"-0.02": 0.0,
			"-0.019": 0.0,
			"-0.018": 0.0,
			"-0.017": 0.0,
			"-0.016": 0.0,
			"-0.015": 0.0,
			"-0.014": 0.0,
			"-0.013": 0.0,
			"-0.012": 0.0,
			"-0.011": 0.0,
			"-0.01": 0.225859661713,
			"-0.009": 0.741410799718,
			"-0.008": 0.542382191103,
			"-0.007": 3.46246935807,
			"-0.006": 11.536019238,
			"-0.005": 16.5321674426,
			"-0.004": 23.0711781347,
			"-0.003": 23.71948092,
			"-0.002": 17.1145561397,
			"-0.001": 14.2627423492,
			"0.0": 11.560578769,
			"0.001": 13.9508429453,
			"0.002": 15.5109806983,
			"0.003": 13.6136351009,
			"0.004": 12.8964237999,
			"0.005": 8.90511379185,
			"0.006": 6.81006100134,
			"0.007": 4.59623045782,
			"0.008": 2.04813880502,
			"0.009": 2.84849384333,
			"0.01": 3.46641777974,
			"0.011": 4.05885856786,
			"0.012": 2.22660234085,
			"0.013": 0.0,
			"0.014": 0.0,
			"0.015": 0.0,
			"0.016": 0.0,
			"0.017": 0.0,
			"0.018": 0.0,
			"0.019": 0.0,
			"0.02": 0.0,
			"0.021": 0.0,
			"0.022": 0.0,
			"0.023": 0.0,
			"0.024": 0.0,
			"0.025": 0.0
		}
	}
}
