{
	 "smiles": "OCC1=CC=C(Br)C=C1", 
	 "Tm": 350.15, 
	 "num_atms": 16, 
	 "gaussian": { 
		 "optdone": 1, 
		 "sigma_profile": "yes", 
		 "theory": "DFT", 
		 "functional": "B3LYP", 
		 "basiset": "6-31G**", 
		 "properties": { 
			 "R2extent": 3252.2949, 
			 "electric_dipole_moment_norm": 3.46892595049, 
			 "electric_quadrupole_moment_norm": 10.9333044941, 
			 "total_energy": -2917.57924162, 
			 "HOMO_LUMO_gap": 0.2212, 
			 "cosmo_polarized_energy": -8.27, 
			 "cosmo_cavitation_energy": 22.1, 
			 "cosmo_dispersion_energy": -17.04, 
			 "cosmo_repulsion_energy": 1.41, 
			 "cosmo_total_nonelectrostatic_energy": 6.47, 
			 "SMD_solvation_energy": 2.75 
		},
		"coords": [
			{
				"x": 2.3727839848,
				"y": 1.4312843959,
				"z": 2.5222669753,
				"element": "O" 
			},
			{
				"x": 0.9857409041,
				"y": 1.6219981539,
				"z": 2.7502406731,
				"element": "C" 
			},
			{
				"x": 0.2322808337,
				"y": 1.5026503038,
				"z": 1.4437757363,
				"element": "C" 
			},
			{
				"x": -1.1603164107,
				"y": 1.3580351035,
				"z": 1.4527979826,
				"element": "C" 
			},
			{
				"x": -1.8832426813,
				"y": 1.2808957912,
				"z": 0.2636877589,
				"element": "C" 
			},
			{
				"x": -1.1977767805,
				"y": 1.342691796,
				"z": -0.9489860977,
				"element": "C" 
			},
			{
				"x": -2.1786105628,
				"y": 1.231613647,
				"z": -2.5889264861,
				"element": "Br" 
			},
			{
				"x": 0.1873273748,
				"y": 1.4794185606,
				"z": -0.9843027828,
				"element": "C" 
			},
			{
				"x": 0.8966547325,
				"y": 1.5611506046,
				"z": 0.2156683071,
				"element": "C" 
			},
			{
				"x": 2.8414496765,
				"y": 1.6302479632,
				"z": 3.3412213681,
				"element": "H" 
			},
			{
				"x": 0.5900829593,
				"y": 0.8810294329,
				"z": 3.4642070339,
				"element": "H" 
			},
			{
				"x": 0.7910646433,
				"y": 2.6168153334,
				"z": 3.1861269266,
				"element": "H" 
			},
			{
				"x": -1.6935670188,
				"y": 1.3017905036,
				"z": 2.3992926677,
				"element": "H" 
			},
			{
				"x": -2.9613588704,
				"y": 1.1683227797,
				"z": 0.2771998482,
				"element": "H" 
			},
			{
				"x": 0.7068981286,
				"y": 1.5212798158,
				"z": -1.9350122391,
				"element": "H" 
			},
			{
				"x": 1.975589087,
				"y": 1.6636758151,
				"z": 0.2039423279,
				"element": "H" 
			}
		],
		 "valence_orbital": [ 
			{
				"type": "occ",
				"energy": -0.30708,
				"method": "rhf"
			},
			{
				"type": "occ",
				"energy": -0.28192,
				"method": "rhf"
			},
			{
				"type": "occ",
				"energy": -0.28079,
				"method": "rhf"
			},
			{
				"type": "occ",
				"energy": -0.25779,
				"method": "rhf"
			},
			{
				"type": "occ",
				"energy": -0.23255,
				"method": "rhf"
			},
			{
				"type": "unocc",
				"energy": -0.01135,
				"method": "rhf"
			},
			{
				"type": "unocc",
				"energy": -0.007,
				"method": "rhf"
			},
			{
				"type": "unocc",
				"energy": 0.01263,
				"method": "rhf"
			},
			{
				"type": "unocc",
				"energy": 0.06717,
				"method": "rhf"
			},
			{
				"type": "unocc",
				"energy": 0.11463,
				"method": "rhf"
			}
		],
		"cosmo_sigma_profile": { 
			"-0.025": 0.0,
			"-0.024": 0.0,
			"-0.023": 0.0,
			"-0.022": 0.0,
			"-0.021": 0.0,
			"-0.02": 0.0,
			"-0.019": 0.0,
			"-0.018": 0.0,
			"-0.017": 0.039787018338,
			"-0.016": 0.873228319577,
			"-0.015": 1.22294703119,
			"-0.014": 0.799780584518,
			"-0.013": 0.939604936339,
			"-0.012": 1.17271115633,
			"-0.011": 0.763745254774,
			"-0.01": 0.597588936376,
			"-0.009": 1.15880089786,
			"-0.008": 0.67476255999,
			"-0.007": 3.54428619488,
			"-0.006": 7.86724733096,
			"-0.005": 13.591648016,
			"-0.004": 14.9201119843,
			"-0.003": 10.6655812388,
			"-0.002": 10.4139955514,
			"-0.001": 8.15456058639,
			"0.0": 10.5491238603,
			"0.001": 9.91052566926,
			"0.002": 14.88853575,
			"0.003": 17.3344276804,
			"0.004": 23.6380760513,
			"0.005": 13.6219040072,
			"0.006": 2.02954712323,
			"0.007": 2.04319203168,
			"0.008": 1.42189927987,
			"0.009": 1.44072131234,
			"0.01": 1.74552215939,
			"0.011": 1.0889076697,
			"0.012": 1.13163736342,
			"0.013": 0.606218771294,
			"0.014": 0.249695744524,
			"0.015": 0.0,
			"0.016": 0.0,
			"0.017": 0.0,
			"0.018": 0.0,
			"0.019": 0.0,
			"0.02": 0.0,
			"0.021": 0.0,
			"0.022": 0.0,
			"0.023": 0.0,
			"0.024": 0.0,
			"0.025": 0.0
		}
	}
}
