{
	 "smiles": "CCCC1=CN=C(N=C1)C1=CC=C(CC)C=C1", 
	 "Tm": 315.15, 
	 "num_atms": 35, 
	 "gaussian": { 
		 "optdone": 1, 
		 "sigma_profile": "yes", 
		 "theory": "DFT", 
		 "functional": "B3LYP", 
		 "basiset": "6-31G**", 
		 "properties": { 
			 "R2extent": 7223.0507, 
			 "electric_dipole_moment_norm": 1.72262876152, 
			 "electric_quadrupole_moment_norm": 11.3900833144, 
			 "total_energy": -691.977679786, 
			 "HOMO_LUMO_gap": 0.17763, 
			 "cosmo_polarized_energy": -7.89, 
			 "cosmo_cavitation_energy": 37.94, 
			 "cosmo_dispersion_energy": -27.03, 
			 "cosmo_repulsion_energy": 2.11, 
			 "cosmo_total_nonelectrostatic_energy": 13.02, 
			 "SMD_solvation_energy": 3.89 
		},
		"coords": [
			{
				"x": -3.7123246928,
				"y": 0.0372384932,
				"z": -2.8484732241,
				"element": "C" 
			},
			{
				"x": -3.9618265032,
				"y": -1.1963344055,
				"z": -1.9764736005,
				"element": "C" 
			},
			{
				"x": -2.6950553563,
				"y": -2.0390309325,
				"z": -1.7023940846,
				"element": "C" 
			},
			{
				"x": -1.6493398558,
				"y": -1.329229007,
				"z": -0.8780191543,
				"element": "C" 
			},
			{
				"x": -0.5070835272,
				"y": -0.7397404806,
				"z": -1.4290589089,
				"element": "C" 
			},
			{
				"x": 0.4106783739,
				"y": -0.0944832118,
				"z": -0.7088586074,
				"element": "N" 
			},
			{
				"x": 0.2058080833,
				"y": -0.020941847,
				"z": 0.6190799488,
				"element": "C" 
			},
			{
				"x": -0.8500831367,
				"y": -0.5602336467,
				"z": 1.259414184,
				"element": "N" 
			},
			{
				"x": -1.7493642908,
				"y": -1.1978477188,
				"z": 0.5124905178,
				"element": "C" 
			},
			{
				"x": 1.2124068388,
				"y": 0.6992069982,
				"z": 1.4348376733,
				"element": "C" 
			},
			{
				"x": 1.0605949854,
				"y": 0.8095129375,
				"z": 2.8258676997,
				"element": "C" 
			},
			{
				"x": 2.0097584279,
				"y": 1.4848608517,
				"z": 3.5872726478,
				"element": "C" 
			},
			{
				"x": 3.1363525222,
				"y": 2.0709530948,
				"z": 2.9921546538,
				"element": "C" 
			},
			{
				"x": 4.1435091445,
				"y": 2.8399078106,
				"z": 3.8193534818,
				"element": "C" 
			},
			{
				"x": 3.7930520942,
				"y": 4.3338824193,
				"z": 3.9483723313,
				"element": "C" 
			},
			{
				"x": 3.2818518913,
				"y": 1.9543253675,
				"z": 1.6020888775,
				"element": "C" 
			},
			{
				"x": 2.3384679161,
				"y": 1.2810930312,
				"z": 0.8318012912,
				"element": "C" 
			},
			{
				"x": -3.3095069145,
				"y": -0.2458152473,
				"z": -3.8279592921,
				"element": "H" 
			},
			{
				"x": -4.6409146605,
				"y": 0.5909224146,
				"z": -3.0193890062,
				"element": "H" 
			},
			{
				"x": -2.9983915017,
				"y": 0.7230312768,
				"z": -2.3810205095,
				"element": "H" 
			},
			{
				"x": -4.7040264078,
				"y": -1.8432191794,
				"z": -2.4604855286,
				"element": "H" 
			},
			{
				"x": -4.4000941469,
				"y": -0.8889481871,
				"z": -1.0182440677,
				"element": "H" 
			},
			{
				"x": -2.2541990141,
				"y": -2.3454780808,
				"z": -2.6595249458,
				"element": "H" 
			},
			{
				"x": -2.9915923356,
				"y": -2.9617290118,
				"z": -1.1882589523,
				"element": "H" 
			},
			{
				"x": -0.3238496714,
				"y": -0.7982003843,
				"z": -2.5026684368,
				"element": "H" 
			},
			{
				"x": -2.5941948625,
				"y": -1.6360463993,
				"z": 1.0460649171,
				"element": "H" 
			},
			{
				"x": 0.194427893,
				"y": 0.3557252976,
				"z": 3.2940793174,
				"element": "H" 
			},
			{
				"x": 1.8782830304,
				"y": 1.5561739242,
				"z": 4.6646438111,
				"element": "H" 
			},
			{
				"x": 4.2084434047,
				"y": 2.3976581555,
				"z": 4.820749454,
				"element": "H" 
			},
			{
				"x": 5.1385032672,
				"y": 2.7411861488,
				"z": 3.3689835497,
				"element": "H" 
			},
			{
				"x": 3.7505729401,
				"y": 4.8126582349,
				"z": 2.9647270217,
				"element": "H" 
			},
			{
				"x": 4.5398872758,
				"y": 4.8610048088,
				"z": 4.5515153149,
				"element": "H" 
			},
			{
				"x": 2.8159409101,
				"y": 4.4673854967,
				"z": 4.4237901862,
				"element": "H" 
			},
			{
				"x": 4.1507919206,
				"y": 2.3948204475,
				"z": 1.118346173,
				"element": "H" 
			},
			{
				"x": 2.4602159581,
				"y": 1.1918305305,
				"z": -0.2418047334,
				"element": "H" 
			}
		],
		 "valence_orbital": [ 
			{
				"type": "occ",
				"energy": -0.29693,
				"method": "rhf"
			},
			{
				"type": "occ",
				"energy": -0.28013,
				"method": "rhf"
			},
			{
				"type": "occ",
				"energy": -0.24237,
				"method": "rhf"
			},
			{
				"type": "occ",
				"energy": -0.2408,
				"method": "rhf"
			},
			{
				"type": "occ",
				"energy": -0.22167,
				"method": "rhf"
			},
			{
				"type": "unocc",
				"energy": -0.04404,
				"method": "rhf"
			},
			{
				"type": "unocc",
				"energy": -0.03509,
				"method": "rhf"
			},
			{
				"type": "unocc",
				"energy": 0.00929,
				"method": "rhf"
			},
			{
				"type": "unocc",
				"energy": 0.03351,
				"method": "rhf"
			},
			{
				"type": "unocc",
				"energy": 0.08717,
				"method": "rhf"
			}
		],
		"cosmo_sigma_profile": { 
			"-0.025": 0.0,
			"-0.024": 0.0,
			"-0.023": 0.0,
			"-0.022": 0.0,
			"-0.021": 0.0,
			"-0.02": 0.0,
			"-0.019": 0.0,
			"-0.018": 0.0,
			"-0.017": 0.0,
			"-0.016": 0.0,
			"-0.015": 0.0,
			"-0.014": 0.0,
			"-0.013": 0.0,
			"-0.012": 0.0,
			"-0.011": 0.0,
			"-0.01": 0.0,
			"-0.009": 0.0,
			"-0.008": 0.0,
			"-0.007": 2.22488603191,
			"-0.006": 5.53492266718,
			"-0.005": 11.2488188389,
			"-0.004": 19.5325298712,
			"-0.003": 31.462310894,
			"-0.002": 38.2137609454,
			"-0.001": 41.5655379967,
			"0.0": 40.1363117453,
			"0.001": 30.0257127901,
			"0.002": 16.7488107403,
			"0.003": 14.6797779386,
			"0.004": 13.8839378985,
			"0.005": 13.455946516,
			"0.006": 6.40324369369,
			"0.007": 4.00125234712,
			"0.008": 2.40290083949,
			"0.009": 2.25805175784,
			"0.01": 2.53727745164,
			"0.011": 2.2801393281,
			"0.012": 0.849153823006,
			"0.013": 0.0,
			"0.014": 0.0,
			"0.015": 0.0,
			"0.016": 0.0,
			"0.017": 0.0,
			"0.018": 0.0,
			"0.019": 0.0,
			"0.02": 0.0,
			"0.021": 0.0,
			"0.022": 0.0,
			"0.023": 0.0,
			"0.024": 0.0,
			"0.025": 0.0
		}
	}
}
