{
	 "smiles": "N#CCC1=CC(OCC2=CC=CC=C2)=CC=C1", 
	 "Tm": 321.65, 
	 "num_atms": 30, 
	 "gaussian": { 
		 "optdone": 1, 
		 "sigma_profile": "yes", 
		 "theory": "DFT", 
		 "functional": "B3LYP", 
		 "basiset": "6-31G**", 
		 "properties": { 
			 "R2extent": 4820.6929, 
			 "electric_dipole_moment_norm": 2.708944215, 
			 "electric_quadrupole_moment_norm": 15.5678059244, 
			 "total_energy": -709.382106879, 
			 "HOMO_LUMO_gap": 0.21215, 
			 "cosmo_polarized_energy": -12.48, 
			 "cosmo_cavitation_energy": 35.04, 
			 "cosmo_dispersion_energy": -23.52, 
			 "cosmo_repulsion_energy": 1.85, 
			 "cosmo_total_nonelectrostatic_energy": 13.37, 
			 "SMD_solvation_energy": 7.31 
		},
		"coords": [
			{
				"x": -2.8927767743,
				"y": 0.8759195301,
				"z": -3.2033601353,
				"element": "N" 
			},
			{
				"x": -2.9320745152,
				"y": 0.478698207,
				"z": -2.1135213509,
				"element": "C" 
			},
			{
				"x": -2.9630862029,
				"y": -0.012288843,
				"z": -0.7321691454,
				"element": "C" 
			},
			{
				"x": -1.7774792773,
				"y": -0.8954507949,
				"z": -0.3559265541,
				"element": "C" 
			},
			{
				"x": -0.5112328482,
				"y": -0.6561750551,
				"z": -0.903594696,
				"element": "C" 
			},
			{
				"x": 0.5759520404,
				"y": -1.4448506269,
				"z": -0.51231095,
				"element": "C" 
			},
			{
				"x": 1.8456378702,
				"y": -1.3136404174,
				"z": -1.0004506659,
				"element": "O" 
			},
			{
				"x": 2.0955848694,
				"y": -0.3941224392,
				"z": -2.0661324502,
				"element": "C" 
			},
			{
				"x": 2.1823266919,
				"y": 1.0543233811,
				"z": -1.6259097383,
				"element": "C" 
			},
			{
				"x": 2.7605623259,
				"y": 1.3911636321,
				"z": -0.3958330396,
				"element": "C" 
			},
			{
				"x": 2.8850386763,
				"y": 2.7278321483,
				"z": -0.018098171,
				"element": "C" 
			},
			{
				"x": 2.439929151,
				"y": 3.7433928877,
				"z": -0.8681996994,
				"element": "C" 
			},
			{
				"x": 1.863593287,
				"y": 3.4145663223,
				"z": -2.0958031035,
				"element": "C" 
			},
			{
				"x": 1.7321290318,
				"y": 2.0756986742,
				"z": -2.4700516593,
				"element": "C" 
			},
			{
				"x": 0.3982926298,
				"y": -2.4616800262,
				"z": 0.4376018473,
				"element": "C" 
			},
			{
				"x": -0.861786064,
				"y": -2.688083864,
				"z": 0.977265477,
				"element": "C" 
			},
			{
				"x": -1.9565818295,
				"y": -1.9135020998,
				"z": 0.581698696,
				"element": "C" 
			},
			{
				"x": -3.9007566187,
				"y": -0.5590326448,
				"z": -0.5836363394,
				"element": "H" 
			},
			{
				"x": -3.0085196659,
				"y": 0.8641012154,
				"z": -0.0709875146,
				"element": "H" 
			},
			{
				"x": -0.3858361706,
				"y": 0.1453261353,
				"z": -1.6207993786,
				"element": "H" 
			},
			{
				"x": 3.0588730854,
				"y": -0.7222141556,
				"z": -2.4711903989,
				"element": "H" 
			},
			{
				"x": 1.347224447,
				"y": -0.5149418108,
				"z": -2.859731656,
				"element": "H" 
			},
			{
				"x": 3.1016574381,
				"y": 0.5998396762,
				"z": 0.2648432754,
				"element": "H" 
			},
			{
				"x": 3.3311186907,
				"y": 2.9778635269,
				"z": 0.9404642625,
				"element": "H" 
			},
			{
				"x": 2.5379827356,
				"y": 4.7840926823,
				"z": -0.5729254559,
				"element": "H" 
			},
			{
				"x": 1.5067311332,
				"y": 4.1972192165,
				"z": -2.7590618003,
				"element": "H" 
			},
			{
				"x": 1.270688263,
				"y": 1.8247815473,
				"z": -3.4225354917,
				"element": "H" 
			},
			{
				"x": 1.2557597488,
				"y": -3.0618045017,
				"z": 0.7232204296,
				"element": "H" 
			},
			{
				"x": -0.9975796345,
				"y": -3.4822293658,
				"z": 1.7056654319,
				"element": "H" 
			},
			{
				"x": -2.9399725145,
				"y": -2.1020021374,
				"z": 1.0031699748,
				"element": "H" 
			}
		],
		 "valence_orbital": [ 
			{
				"type": "occ",
				"energy": -0.31647,
				"method": "rhf"
			},
			{
				"type": "occ",
				"energy": -0.25618,
				"method": "rhf"
			},
			{
				"type": "occ",
				"energy": -0.25327,
				"method": "rhf"
			},
			{
				"type": "occ",
				"energy": -0.24716,
				"method": "rhf"
			},
			{
				"type": "occ",
				"energy": -0.2261,
				"method": "rhf"
			},
			{
				"type": "unocc",
				"energy": -0.01395,
				"method": "rhf"
			},
			{
				"type": "unocc",
				"energy": -0.00716,
				"method": "rhf"
			},
			{
				"type": "unocc",
				"energy": -0.00391,
				"method": "rhf"
			},
			{
				"type": "unocc",
				"energy": 0.00212,
				"method": "rhf"
			},
			{
				"type": "unocc",
				"energy": 0.03226,
				"method": "rhf"
			}
		],
		"cosmo_sigma_profile": { 
			"-0.025": 0.0,
			"-0.024": 0.0,
			"-0.023": 0.0,
			"-0.022": 0.0,
			"-0.021": 0.0,
			"-0.02": 0.0,
			"-0.019": 0.0,
			"-0.018": 0.0,
			"-0.017": 0.0,
			"-0.016": 0.0,
			"-0.015": 0.0,
			"-0.014": 0.0,
			"-0.013": 0.0,
			"-0.012": 0.0,
			"-0.011": 0.0,
			"-0.01": 0.0,
			"-0.009": 3.20693331204,
			"-0.008": 6.33833551128,
			"-0.007": 7.72114931729,
			"-0.006": 20.0868286113,
			"-0.005": 24.7099260793,
			"-0.004": 23.050321045,
			"-0.003": 22.4699607482,
			"-0.002": 16.4365988566,
			"-0.001": 16.2571016308,
			"0.0": 13.5022772817,
			"0.001": 14.2638348877,
			"0.002": 17.9292393363,
			"0.003": 19.2420305231,
			"0.004": 21.8512889637,
			"0.005": 20.568425681,
			"0.006": 10.1093964427,
			"0.007": 3.65818902422,
			"0.008": 3.6479901903,
			"0.009": 4.57649277325,
			"0.01": 3.82747323799,
			"0.011": 2.92350540061,
			"0.012": 2.43726233688,
			"0.013": 2.02751704719,
			"0.014": 0.197641125498,
			"0.015": 0.0,
			"0.016": 0.0,
			"0.017": 0.0,
			"0.018": 0.0,
			"0.019": 0.0,
			"0.02": 0.0,
			"0.021": 0.0,
			"0.022": 0.0,
			"0.023": 0.0,
			"0.024": 0.0,
			"0.025": 0.0
		}
	}
}
