{
	 "smiles": "BrC1=CN=C(C=C1)C#N", 
	 "Tm": 398.65, 
	 "num_atms": 12, 
	 "gaussian": { 
		 "optdone": 1, 
		 "sigma_profile": "yes", 
		 "theory": "DFT", 
		 "functional": "B3LYP", 
		 "basiset": "6-31G**", 
		 "properties": { 
			 "R2extent": 2416.2699, 
			 "electric_dipole_moment_norm": 4.40393013909, 
			 "electric_quadrupole_moment_norm": 13.1847811662, 
			 "total_energy": -2911.32106672, 
			 "HOMO_LUMO_gap": 0.19523, 
			 "cosmo_polarized_energy": -9.81, 
			 "cosmo_cavitation_energy": 20.45, 
			 "cosmo_dispersion_energy": -15.06, 
			 "cosmo_repulsion_energy": 1.23, 
			 "cosmo_total_nonelectrostatic_energy": 6.63, 
			 "SMD_solvation_energy": 2.5 
		},
		"coords": [
			{
				"x": 2.0359221368,
				"y": 2.6351903953,
				"z": -0.0314829437,
				"element": "Br" 
			},
			{
				"x": 0.9365969674,
				"y": 1.0950414696,
				"z": 0.1257907073,
				"element": "C" 
			},
			{
				"x": 0.8692213502,
				"y": 0.412357976,
				"z": 1.3465066966,
				"element": "C" 
			},
			{
				"x": 0.1182519042,
				"y": -0.6728162509,
				"z": 1.5214690911,
				"element": "N" 
			},
			{
				"x": -0.5967907134,
				"y": -1.115967945,
				"z": 0.4732187837,
				"element": "C" 
			},
			{
				"x": -0.5913989172,
				"y": -0.4977504209,
				"z": -0.7845614217,
				"element": "C" 
			},
			{
				"x": 0.1961764838,
				"y": 0.6367604882,
				"z": -0.9607200335,
				"element": "C" 
			},
			{
				"x": -1.4029293558,
				"y": -2.2933054035,
				"z": 0.6862513501,
				"element": "C" 
			},
			{
				"x": -2.0634786172,
				"y": -3.2395552333,
				"z": 0.8226854368,
				"element": "N" 
			},
			{
				"x": 1.4416838154,
				"y": 0.7589582719,
				"z": 2.2025321779,
				"element": "H" 
			},
			{
				"x": -1.188320033,
				"y": -0.8983453456,
				"z": -1.5965426264,
				"element": "H" 
			},
			{
				"x": 0.2336649788,
				"y": 1.1501319981,
				"z": -1.9147472181,
				"element": "H" 
			}
		],
		 "valence_orbital": [ 
			{
				"type": "occ",
				"energy": -0.33943,
				"method": "rhf"
			},
			{
				"type": "occ",
				"energy": -0.3189,
				"method": "rhf"
			},
			{
				"type": "occ",
				"energy": -0.3185,
				"method": "rhf"
			},
			{
				"type": "occ",
				"energy": -0.29452,
				"method": "rhf"
			},
			{
				"type": "occ",
				"energy": -0.27406,
				"method": "rhf"
			},
			{
				"type": "unocc",
				"energy": -0.07883,
				"method": "rhf"
			},
			{
				"type": "unocc",
				"energy": -0.05807,
				"method": "rhf"
			},
			{
				"type": "unocc",
				"energy": -0.0184,
				"method": "rhf"
			},
			{
				"type": "unocc",
				"energy": 0.0241,
				"method": "rhf"
			},
			{
				"type": "unocc",
				"energy": 0.05436,
				"method": "rhf"
			}
		],
		"cosmo_sigma_profile": { 
			"-0.025": 0.0,
			"-0.024": 0.0,
			"-0.023": 0.0,
			"-0.022": 0.0,
			"-0.021": 0.0,
			"-0.02": 0.0,
			"-0.019": 0.0,
			"-0.018": 0.0,
			"-0.017": 0.0,
			"-0.016": 0.0,
			"-0.015": 0.0,
			"-0.014": 0.0,
			"-0.013": 0.0,
			"-0.012": 0.0,
			"-0.011": 0.0,
			"-0.01": 1.64965847714,
			"-0.009": 6.09519968887,
			"-0.008": 6.83240682182,
			"-0.007": 4.43795164336,
			"-0.006": 6.08441086778,
			"-0.005": 6.34267641088,
			"-0.004": 8.86737640422,
			"-0.003": 13.474203538,
			"-0.002": 18.4053955675,
			"-0.001": 17.3683541059,
			"0.0": 9.99670951608,
			"0.001": 8.74270340084,
			"0.002": 10.1086833507,
			"0.003": 15.2231530079,
			"0.004": 6.31334669213,
			"0.005": 3.9501253472,
			"0.006": 3.56424189398,
			"0.007": 4.36387000415,
			"0.008": 4.27339557467,
			"0.009": 3.92463348949,
			"0.01": 3.77861871636,
			"0.011": 3.42026390846,
			"0.012": 2.22789027811,
			"0.013": 0.742643732441,
			"0.014": 0.0,
			"0.015": 0.0,
			"0.016": 0.0,
			"0.017": 0.0,
			"0.018": 0.0,
			"0.019": 0.0,
			"0.02": 0.0,
			"0.021": 0.0,
			"0.022": 0.0,
			"0.023": 0.0,
			"0.024": 0.0,
			"0.025": 0.0
		}
	}
}
