{
	 "smiles": "CC12CCC3C(C1CCC2OC(=O)C1=CC=CC=C1)C(=C)CC1CC(CCC31C)OC(=O)C1=CC=CC=C1", 
	 "Tm": 465.15, 
	 "num_atms": 78, 
	 "gaussian": { 
		 "optdone": 1, 
		 "sigma_profile": "yes", 
		 "theory": "DFT", 
		 "functional": "B3LYP", 
		 "basiset": "6-31G**", 
		 "properties": { 
			 "R2extent": 29927.7927, 
			 "electric_dipole_moment_norm": 1.97366426223, 
			 "electric_quadrupole_moment_norm": 21.6707641785, 
			 "total_energy": -1620.65911425, 
			 "HOMO_LUMO_gap": 0.19171, 
			 "cosmo_polarized_energy": -15.01, 
			 "cosmo_cavitation_energy": 72.09, 
			 "cosmo_dispersion_energy": -47.33, 
			 "cosmo_repulsion_energy": 3.42, 
			 "cosmo_total_nonelectrostatic_energy": 28.17, 
			 "SMD_solvation_energy": 12.32 
		},
		"coords": [
			{
				"x": 2.601069583,
				"y": -0.4702873771,
				"z": 3.9722994972,
				"element": "C" 
			},
			{
				"x": 2.8653582713,
				"y": -0.2268978881,
				"z": 2.4685003173,
				"element": "C" 
			},
			{
				"x": 2.4030767122,
				"y": -1.4652792222,
				"z": 1.6726644199,
				"element": "C" 
			},
			{
				"x": 0.9001032508,
				"y": -1.4069261406,
				"z": 1.3965586037,
				"element": "C" 
			},
			{
				"x": 0.5591645588,
				"y": -0.2785342665,
				"z": 0.4021550154,
				"element": "C" 
			},
			{
				"x": 1.4716415275,
				"y": 1.0005925811,
				"z": 0.6285100811,
				"element": "C" 
			},
			{
				"x": 2.1351864017,
				"y": 1.1042085428,
				"z": 2.0242208015,
				"element": "C" 
			},
			{
				"x": 3.2461371774,
				"y": 2.2083971346,
				"z": 2.084006347,
				"element": "C" 
			},
			{
				"x": 4.5055504407,
				"y": 1.5535332978,
				"z": 2.6844867602,
				"element": "C" 
			},
			{
				"x": 4.3734579263,
				"y": 0.0808226811,
				"z": 2.3042044197,
				"element": "C" 
			},
			{
				"x": 4.7351557149,
				"y": -0.074231655,
				"z": 0.900784998,
				"element": "O" 
			},
			{
				"x": 6.040163064,
				"y": -0.3124373672,
				"z": 0.6315097993,
				"element": "C" 
			},
			{
				"x": 6.8975404881,
				"y": -0.409719723,
				"z": 1.4892698327,
				"element": "O" 
			},
			{
				"x": 6.3085348868,
				"y": -0.4488123265,
				"z": -0.8304411074,
				"element": "C" 
			},
			{
				"x": 7.623399692,
				"y": -0.7326353577,
				"z": -1.2252127049,
				"element": "C" 
			},
			{
				"x": 7.9339773513,
				"y": -0.871205731,
				"z": -2.5756093538,
				"element": "C" 
			},
			{
				"x": 6.9338308558,
				"y": -0.7253569096,
				"z": -3.5408001246,
				"element": "C" 
			},
			{
				"x": 5.6226443133,
				"y": -0.4404296454,
				"z": -3.1519909641,
				"element": "C" 
			},
			{
				"x": 5.3077091547,
				"y": -0.3020542504,
				"z": -1.8009763454,
				"element": "C" 
			},
			{
				"x": 0.7371816768,
				"y": 2.2412106152,
				"z": 0.1412964134,
				"element": "C" 
			},
			{
				"x": 0.6849155314,
				"y": 3.4379299209,
				"z": 0.7365218392,
				"element": "C" 
			},
			{
				"x": -0.0221427816,
				"y": 1.9716677991,
				"z": -1.133602645,
				"element": "C" 
			},
			{
				"x": -1.2308805903,
				"y": 1.0331619469,
				"z": -0.8822989102,
				"element": "C" 
			},
			{
				"x": -1.6299346703,
				"y": 0.3288274236,
				"z": -2.1888038287,
				"element": "C" 
			},
			{
				"x": -2.9265345984,
				"y": -0.4762446587,
				"z": -2.0728971662,
				"element": "C" 
			},
			{
				"x": -3.0932336806,
				"y": -1.0894667374,
				"z": -0.6715013401,
				"element": "C" 
			},
			{
				"x": -1.7285020166,
				"y": -1.3169282738,
				"z": -0.007005075,
				"element": "C" 
			},
			{
				"x": -0.9738230239,
				"y": 0.0142653034,
				"z": 0.2951397312,
				"element": "C" 
			},
			{
				"x": -1.5420955826,
				"y": 0.6054962855,
				"z": 1.6057011569,
				"element": "C" 
			},
			{
				"x": -4.0236566645,
				"y": 0.4415032209,
				"z": -2.3520745864,
				"element": "O" 
			},
			{
				"x": -5.1850806669,
				"y": -0.109952113,
				"z": -2.7688962726,
				"element": "C" 
			},
			{
				"x": -5.3496408933,
				"y": -1.3081071427,
				"z": -2.9090508049,
				"element": "O" 
			},
			{
				"x": -6.2365137637,
				"y": 0.9132708812,
				"z": -3.041904482,
				"element": "C" 
			},
			{
				"x": -6.0120227163,
				"y": 2.2865103458,
				"z": -2.8712405144,
				"element": "C" 
			},
			{
				"x": -7.0328415386,
				"y": 3.1964944419,
				"z": -3.1419322025,
				"element": "C" 
			},
			{
				"x": -8.2783362924,
				"y": 2.7424496485,
				"z": -3.5829844505,
				"element": "C" 
			},
			{
				"x": -8.5045501958,
				"y": 1.3739010806,
				"z": -3.7539105399,
				"element": "C" 
			},
			{
				"x": -7.4875022552,
				"y": 0.461575139,
				"z": -3.4841593638,
				"element": "C" 
			},
			{
				"x": 1.5474598551,
				"y": -0.7136727625,
				"z": 4.141654229,
				"element": "H" 
			},
			{
				"x": 3.2009380093,
				"y": -1.3068713033,
				"z": 4.3476963764,
				"element": "H" 
			},
			{
				"x": 2.8290032521,
				"y": 0.4088421875,
				"z": 4.5823377723,
				"element": "H" 
			},
			{
				"x": 2.9419535168,
				"y": -1.528323404,
				"z": 0.7224422622,
				"element": "H" 
			},
			{
				"x": 2.655159871,
				"y": -2.3739438555,
				"z": 2.2334358133,
				"element": "H" 
			},
			{
				"x": 0.5592898974,
				"y": -2.3662960423,
				"z": 0.9944954817,
				"element": "H" 
			},
			{
				"x": 0.3616940859,
				"y": -1.2668125376,
				"z": 2.3411266121,
				"element": "H" 
			},
			{
				"x": 0.8426933869,
				"y": -0.6648525718,
				"z": -0.5880081348,
				"element": "H" 
			},
			{
				"x": 2.3089983081,
				"y": 0.8769097064,
				"z": -0.0767781762,
				"element": "H" 
			},
			{
				"x": 1.3522529117,
				"y": 1.3300110096,
				"z": 2.7581586412,
				"element": "H" 
			},
			{
				"x": 3.461008751,
				"y": 2.5696003474,
				"z": 1.0737473961,
				"element": "H" 
			},
			{
				"x": 2.9393546101,
				"y": 3.0801545954,
				"z": 2.6676743701,
				"element": "H" 
			},
			{
				"x": 4.5197114354,
				"y": 1.6418480692,
				"z": 3.7757215924,
				"element": "H" 
			},
			{
				"x": 5.4400682322,
				"y": 1.9863774782,
				"z": 2.3190140516,
				"element": "H" 
			},
			{
				"x": 5.0162286358,
				"y": -0.5823690356,
				"z": 2.8862022649,
				"element": "H" 
			},
			{
				"x": 8.3816982512,
				"y": -0.8399976286,
				"z": -0.4571086698,
				"element": "H" 
			},
			{
				"x": 8.953656266,
				"y": -1.0921510698,
				"z": -2.8770704117,
				"element": "H" 
			},
			{
				"x": 7.1758865309,
				"y": -0.8328216341,
				"z": -4.5944031684,
				"element": "H" 
			},
			{
				"x": 4.8458363991,
				"y": -0.3254202968,
				"z": -3.9023176804,
				"element": "H" 
			},
			{
				"x": 4.2925239939,
				"y": -0.0792742743,
				"z": -1.493701816,
				"element": "H" 
			},
			{
				"x": 1.1697419683,
				"y": 3.6565417068,
				"z": 1.6793687099,
				"element": "H" 
			},
			{
				"x": 0.1283070179,
				"y": 4.2539293227,
				"z": 0.2826072788,
				"element": "H" 
			},
			{
				"x": -0.3675963472,
				"y": 2.903721237,
				"z": -1.5926526712,
				"element": "H" 
			},
			{
				"x": 0.6534276655,
				"y": 1.495437077,
				"z": -1.8600544664,
				"element": "H" 
			},
			{
				"x": -2.0744705361,
				"y": 1.6669437382,
				"z": -0.5814826818,
				"element": "H" 
			},
			{
				"x": -1.7366652382,
				"y": 1.0578770074,
				"z": -2.9998273097,
				"element": "H" 
			},
			{
				"x": -0.8245659168,
				"y": -0.3524547045,
				"z": -2.4927783797,
				"element": "H" 
			},
			{
				"x": -2.963208057,
				"y": -1.2576349567,
				"z": -2.8364646536,
				"element": "H" 
			},
			{
				"x": -3.6646659571,
				"y": -2.0190906295,
				"z": -0.7368604283,
				"element": "H" 
			},
			{
				"x": -3.6893524573,
				"y": -0.3968010514,
				"z": -0.0664469071,
				"element": "H" 
			},
			{
				"x": -1.8642662309,
				"y": -1.8811882079,
				"z": 0.9217243546,
				"element": "H" 
			},
			{
				"x": -1.118863712,
				"y": -1.9556593949,
				"z": -0.6605887694,
				"element": "H" 
			},
			{
				"x": -1.112815308,
				"y": 1.5839070425,
				"z": 1.8286194151,
				"element": "H" 
			},
			{
				"x": -2.6268884239,
				"y": 0.7369939111,
				"z": 1.5268664466,
				"element": "H" 
			},
			{
				"x": -1.3600586633,
				"y": -0.0531983028,
				"z": 2.4607402974,
				"element": "H" 
			},
			{
				"x": -5.0428778942,
				"y": 2.6300339742,
				"z": -2.5285681576,
				"element": "H" 
			},
			{
				"x": -6.8575472582,
				"y": 4.2601139416,
				"z": -3.0091057944,
				"element": "H" 
			},
			{
				"x": -9.0717353551,
				"y": 3.4542828245,
				"z": -3.793043536,
				"element": "H" 
			},
			{
				"x": -9.4726812988,
				"y": 1.0206085542,
				"z": -4.0965832352,
				"element": "H" 
			},
			{
				"x": -7.6375408448,
				"y": -0.6055115711,
				"z": -3.6085255692,
				"element": "H" 
			}
		],
		 "valence_orbital": [ 
			{
				"type": "occ",
				"energy": -0.25958,
				"method": "rhf"
			},
			{
				"type": "occ",
				"energy": -0.25833,
				"method": "rhf"
			},
			{
				"type": "occ",
				"energy": -0.25753,
				"method": "rhf"
			},
			{
				"type": "occ",
				"energy": -0.25646,
				"method": "rhf"
			},
			{
				"type": "occ",
				"energy": -0.23643,
				"method": "rhf"
			},
			{
				"type": "unocc",
				"energy": -0.04472,
				"method": "rhf"
			},
			{
				"type": "unocc",
				"energy": -0.04257,
				"method": "rhf"
			},
			{
				"type": "unocc",
				"energy": -0.00834,
				"method": "rhf"
			},
			{
				"type": "unocc",
				"energy": -0.00615,
				"method": "rhf"
			},
			{
				"type": "unocc",
				"energy": 0.02051,
				"method": "rhf"
			}
		],
		"cosmo_sigma_profile": { 
			"-0.025": 0.0,
			"-0.024": 0.0,
			"-0.023": 0.0,
			"-0.022": 0.0,
			"-0.021": 0.0,
			"-0.02": 0.0,
			"-0.019": 0.0,
			"-0.018": 0.0,
			"-0.017": 0.0,
			"-0.016": 0.0,
			"-0.015": 0.0,
			"-0.014": 0.0,
			"-0.013": 0.0,
			"-0.012": 0.0,
			"-0.011": 0.0,
			"-0.01": 0.0,
			"-0.009": 0.0,
			"-0.008": 0.0,
			"-0.007": 2.11679757806,
			"-0.006": 14.1886225476,
			"-0.005": 20.6328978283,
			"-0.004": 38.4228564028,
			"-0.003": 58.1372119293,
			"-0.002": 73.2864713958,
			"-0.001": 74.7337399059,
			"0.0": 67.4736372229,
			"0.001": 59.2724477057,
			"0.002": 42.5610523192,
			"0.003": 32.9126444329,
			"0.004": 34.9688541562,
			"0.005": 12.0745040224,
			"0.006": 5.94522101544,
			"0.007": 3.2801595338,
			"0.008": 2.62516822281,
			"0.009": 3.49188703142,
			"0.01": 3.78933414165,
			"0.011": 4.41574691816,
			"0.012": 8.32852646958,
			"0.013": 1.10795405599,
			"0.014": 0.0,
			"0.015": 0.0,
			"0.016": 0.0,
			"0.017": 0.0,
			"0.018": 0.0,
			"0.019": 0.0,
			"0.02": 0.0,
			"0.021": 0.0,
			"0.022": 0.0,
			"0.023": 0.0,
			"0.024": 0.0,
			"0.025": 0.0
		}
	}
}
