{
	 "smiles": "NC1=C(Cl)C(Cl)=CN=C1", 
	 "Tm": 371.15, 
	 "num_atms": 13, 
	 "gaussian": { 
		 "optdone": 1, 
		 "sigma_profile": "yes", 
		 "theory": "DFT", 
		 "functional": "B3LYP", 
		 "basiset": "6-31G**", 
		 "properties": { 
			 "R2extent": 1644.9749, 
			 "electric_dipole_moment_norm": 3.14420048184, 
			 "electric_quadrupole_moment_norm": 8.83586305632, 
			 "total_energy": -1222.82214232, 
			 "HOMO_LUMO_gap": 0.19227, 
			 "cosmo_polarized_energy": -9.27, 
			 "cosmo_cavitation_energy": 20.63, 
			 "cosmo_dispersion_energy": -15.96, 
			 "cosmo_repulsion_energy": 1.3, 
			 "cosmo_total_nonelectrostatic_energy": 5.97, 
			 "SMD_solvation_energy": 1.69 
		},
		"coords": [
			{
				"x": 1.0849883403,
				"y": -0.5937987696,
				"z": -2.0432012404,
				"element": "N" 
			},
			{
				"x": 0.4639934065,
				"y": -0.9854393572,
				"z": -0.875373234,
				"element": "C" 
			},
			{
				"x": -0.1923036465,
				"y": -0.0710016987,
				"z": -0.0279556367,
				"element": "C" 
			},
			{
				"x": -0.1550736841,
				"y": 1.6297516396,
				"z": -0.4229302495,
				"element": "Cl" 
			},
			{
				"x": -0.8498871785,
				"y": -0.549602849,
				"z": 1.1082196188,
				"element": "C" 
			},
			{
				"x": -1.6817285733,
				"y": 0.523289015,
				"z": 2.2032219744,
				"element": "Cl" 
			},
			{
				"x": -0.8382020896,
				"y": -1.9204540064,
				"z": 1.3776425843,
				"element": "C" 
			},
			{
				"x": -0.2147346015,
				"y": -2.795581483,
				"z": 0.5857713728,
				"element": "N" 
			},
			{
				"x": 0.410612182,
				"y": -2.3426356108,
				"z": -0.4954859896,
				"element": "C" 
			},
			{
				"x": 1.349671806,
				"y": 0.3781300085,
				"z": -2.1131879146,
				"element": "H" 
			},
			{
				"x": 1.7644035629,
				"y": -1.236572338,
				"z": -2.4226241205,
				"element": "H" 
			},
			{
				"x": -1.3472797352,
				"y": -2.3030193214,
				"z": 2.2573211176,
				"element": "H" 
			},
			{
				"x": 0.9078402111,
				"y": -3.0822652291,
				"z": -1.1225182826,
				"element": "H" 
			}
		],
		 "valence_orbital": [ 
			{
				"type": "occ",
				"energy": -0.33307,
				"method": "rhf"
			},
			{
				"type": "occ",
				"energy": -0.32097,
				"method": "rhf"
			},
			{
				"type": "occ",
				"energy": -0.26789,
				"method": "rhf"
			},
			{
				"type": "occ",
				"energy": -0.26641,
				"method": "rhf"
			},
			{
				"type": "occ",
				"energy": -0.22879,
				"method": "rhf"
			},
			{
				"type": "unocc",
				"energy": -0.03652,
				"method": "rhf"
			},
			{
				"type": "unocc",
				"energy": -0.01344,
				"method": "rhf"
			},
			{
				"type": "unocc",
				"energy": -0.00372,
				"method": "rhf"
			},
			{
				"type": "unocc",
				"energy": 0.05664,
				"method": "rhf"
			},
			{
				"type": "unocc",
				"energy": 0.07032,
				"method": "rhf"
			}
		],
		"cosmo_sigma_profile": { 
			"-0.025": 0.0,
			"-0.024": 0.0,
			"-0.023": 0.0,
			"-0.022": 0.0,
			"-0.021": 0.0,
			"-0.02": 0.0,
			"-0.019": 0.0,
			"-0.018": 0.0,
			"-0.017": 0.0,
			"-0.016": 0.0,
			"-0.015": 0.0369215143088,
			"-0.014": 1.15444663458,
			"-0.013": 2.25841472556,
			"-0.012": 2.60209501798,
			"-0.011": 2.47305747248,
			"-0.01": 2.84459455907,
			"-0.009": 2.59331402876,
			"-0.008": 3.24726440353,
			"-0.007": 4.63173313803,
			"-0.006": 3.89320754674,
			"-0.005": 4.22035740998,
			"-0.004": 4.86592813429,
			"-0.003": 7.55049356053,
			"-0.002": 8.12653760369,
			"-0.001": 12.8908706802,
			"0.0": 22.5201351149,
			"0.001": 18.1915631875,
			"0.002": 14.0395114987,
			"0.003": 16.8273742177,
			"0.004": 15.3762707647,
			"0.005": 4.3932532452,
			"0.006": 2.51087541529,
			"0.007": 2.09196494066,
			"0.008": 1.23301991065,
			"0.009": 1.64161850553,
			"0.01": 2.403506979,
			"0.011": 1.35873215742,
			"0.012": 1.08913643006,
			"0.013": 0.866345837742,
			"0.014": 0.91731871367,
			"0.015": 0.946526344308,
			"0.016": 0.18155958026,
			"0.017": 0.0,
			"0.018": 0.0,
			"0.019": 0.0,
			"0.02": 0.0,
			"0.021": 0.0,
			"0.022": 0.0,
			"0.023": 0.0,
			"0.024": 0.0,
			"0.025": 0.0
		}
	}
}
