{
	 "smiles": "BrCC(=O)C1=CC=C(S1)C1=CC=CC=C1", 
	 "Tm": 389.15, 
	 "num_atms": 24, 
	 "gaussian": { 
		 "optdone": 1, 
		 "sigma_profile": "yes", 
		 "theory": "DFT", 
		 "functional": "B3LYP", 
		 "basiset": "6-31G**", 
		 "properties": { 
			 "R2extent": 7642.6926, 
			 "electric_dipole_moment_norm": 4.11137285344, 
			 "electric_quadrupole_moment_norm": 12.4963754925, 
			 "total_energy": -3507.5077908, 
			 "HOMO_LUMO_gap": 0.14529, 
			 "cosmo_polarized_energy": -10.23, 
			 "cosmo_cavitation_energy": 32.44, 
			 "cosmo_dispersion_energy": -24.22, 
			 "cosmo_repulsion_energy": 1.84, 
			 "cosmo_total_nonelectrostatic_energy": 10.07, 
			 "SMD_solvation_energy": 4.6 
		},
		"coords": [
			{
				"x": -0.4625505201,
				"y": -0.4242221622,
				"z": -5.3061251415,
				"element": "Br" 
			},
			{
				"x": 0.8186743139,
				"y": 0.9245382038,
				"z": -4.6274653185,
				"element": "C" 
			},
			{
				"x": 0.1593223149,
				"y": 1.8331095595,
				"z": -3.595437069,
				"element": "C" 
			},
			{
				"x": -0.1206430348,
				"y": 2.9831059346,
				"z": -3.9047826759,
				"element": "O" 
			},
			{
				"x": -0.0874702064,
				"y": 1.3311937874,
				"z": -2.2358768364,
				"element": "C" 
			},
			{
				"x": -0.6058600216,
				"y": 2.0929062588,
				"z": -1.2067776345,
				"element": "C" 
			},
			{
				"x": -0.6978520741,
				"y": 1.3968611219,
				"z": 0.0167879714,
				"element": "C" 
			},
			{
				"x": -0.2474376845,
				"y": 0.0895326868,
				"z": -0.0556916129,
				"element": "C" 
			},
			{
				"x": 0.2757714936,
				"y": -0.2864072959,
				"z": -1.6773359588,
				"element": "S" 
			},
			{
				"x": -0.201139609,
				"y": -0.9126039378,
				"z": 1.0158071798,
				"element": "C" 
			},
			{
				"x": 0.7358971098,
				"y": -1.961738522,
				"z": 1.0015948066,
				"element": "C" 
			},
			{
				"x": 0.769216636,
				"y": -2.9007253559,
				"z": 2.0298414655,
				"element": "C" 
			},
			{
				"x": -0.126450993,
				"y": -2.808268054,
				"z": 3.0970397153,
				"element": "C" 
			},
			{
				"x": -1.0614398859,
				"y": -1.7708737491,
				"z": 3.1240682044,
				"element": "C" 
			},
			{
				"x": -1.1035502225,
				"y": -0.8355271456,
				"z": 2.0933633837,
				"element": "C" 
			},
			{
				"x": 1.1143272402,
				"y": 1.523825411,
				"z": -5.4849083983,
				"element": "H" 
			},
			{
				"x": 1.6618758003,
				"y": 0.3608334366,
				"z": -4.227186408,
				"element": "H" 
			},
			{
				"x": -0.8862657473,
				"y": 3.1283934746,
				"z": -1.357342405,
				"element": "H" 
			},
			{
				"x": -1.0522009847,
				"y": 1.8442297616,
				"z": 0.93791046,
				"element": "H" 
			},
			{
				"x": 1.4550693985,
				"y": -2.0288656145,
				"z": 0.1903766504,
				"element": "H" 
			},
			{
				"x": 1.5025895781,
				"y": -3.7012114399,
				"z": 2.001331633,
				"element": "H" 
			},
			{
				"x": -0.0979672316,
				"y": -3.5393353367,
				"z": 3.8994422281,
				"element": "H" 
			},
			{
				"x": -1.7685785245,
				"y": -1.6960373777,
				"z": 3.9450221954,
				"element": "H" 
			},
			{
				"x": -1.8546371455,
				"y": -0.0521136453,
				"z": 2.107543565,
				"element": "H" 
			}
		],
		 "valence_orbital": [ 
			{
				"type": "occ",
				"energy": -0.28196,
				"method": "rhf"
			},
			{
				"type": "occ",
				"energy": -0.26666,
				"method": "rhf"
			},
			{
				"type": "occ",
				"energy": -0.26338,
				"method": "rhf"
			},
			{
				"type": "occ",
				"energy": -0.25828,
				"method": "rhf"
			},
			{
				"type": "occ",
				"energy": -0.22787,
				"method": "rhf"
			},
			{
				"type": "unocc",
				"energy": -0.08258,
				"method": "rhf"
			},
			{
				"type": "unocc",
				"energy": -0.03344,
				"method": "rhf"
			},
			{
				"type": "unocc",
				"energy": -0.01668,
				"method": "rhf"
			},
			{
				"type": "unocc",
				"energy": 0.00125,
				"method": "rhf"
			},
			{
				"type": "unocc",
				"energy": 0.01797,
				"method": "rhf"
			}
		],
		"cosmo_sigma_profile": { 
			"-0.025": 0.0,
			"-0.024": 0.0,
			"-0.023": 0.0,
			"-0.022": 0.0,
			"-0.021": 0.0,
			"-0.02": 0.0,
			"-0.019": 0.0,
			"-0.018": 0.0,
			"-0.017": 0.0,
			"-0.016": 0.0,
			"-0.015": 0.0,
			"-0.014": 0.0,
			"-0.013": 0.0,
			"-0.012": 0.0,
			"-0.011": 0.0,
			"-0.01": 0.00357632791466,
			"-0.009": 2.00335657962,
			"-0.008": 5.63904071466,
			"-0.007": 9.61450158651,
			"-0.006": 17.4233377256,
			"-0.005": 19.261089265,
			"-0.004": 17.5858756858,
			"-0.003": 14.8050766115,
			"-0.002": 13.0410393073,
			"-0.001": 14.7873061256,
			"0.0": 18.6214634842,
			"0.001": 23.9429339337,
			"0.002": 28.8455767819,
			"0.003": 23.9672454019,
			"0.004": 22.1366388003,
			"0.005": 18.5232445969,
			"0.006": 1.52036301463,
			"0.007": 1.40868487066,
			"0.008": 1.27922373127,
			"0.009": 1.89499484734,
			"0.01": 2.70610884369,
			"0.011": 4.09859209394,
			"0.012": 2.50253583024,
			"0.013": 0.086156786868,
			"0.014": 0.0,
			"0.015": 0.0,
			"0.016": 0.0,
			"0.017": 0.0,
			"0.018": 0.0,
			"0.019": 0.0,
			"0.02": 0.0,
			"0.021": 0.0,
			"0.022": 0.0,
			"0.023": 0.0,
			"0.024": 0.0,
			"0.025": 0.0
		}
	}
}
