{
	 "smiles": "CN(CCOC1=CC=C(CC2SC(=O)NC2=O)C=C1)C1=CC=CC=N1", 
	 "Tm": 395.65, 
	 "num_atms": 44, 
	 "gaussian": { 
		 "optdone": 1, 
		 "sigma_profile": "yes", 
		 "theory": "DFT", 
		 "functional": "B3LYP", 
		 "basiset": "6-31G**", 
		 "properties": { 
			 "R2extent": 13407.9097, 
			 "electric_dipole_moment_norm": 4.23194256341, 
			 "electric_quadrupole_moment_norm": 10.1155221393, 
			 "total_energy": -1485.49908626, 
			 "HOMO_LUMO_gap": 0.1643, 
			 "cosmo_polarized_energy": -21.92, 
			 "cosmo_cavitation_energy": 49.58, 
			 "cosmo_dispersion_energy": -33.07, 
			 "cosmo_repulsion_energy": 2.47, 
			 "cosmo_total_nonelectrostatic_energy": 18.98, 
			 "SMD_solvation_energy": 8.39 
		},
		"coords": [
			{
				"x": 4.2555176819,
				"y": 1.6981830304,
				"z": 0.8953593474,
				"element": "C" 
			},
			{
				"x": 3.0981313215,
				"y": 0.8654526505,
				"z": 1.1612937391,
				"element": "N" 
			},
			{
				"x": 1.929578893,
				"y": 1.4922201978,
				"z": 1.7605138009,
				"element": "C" 
			},
			{
				"x": 1.2249215126,
				"y": 2.5011648358,
				"z": 0.8412699542,
				"element": "C" 
			},
			{
				"x": 0.7506312955,
				"y": 1.9263604493,
				"z": -0.3719920615,
				"element": "O" 
			},
			{
				"x": -0.4356317597,
				"y": 1.2491051324,
				"z": -0.3955785797,
				"element": "C" 
			},
			{
				"x": -1.2990497482,
				"y": 1.0879188458,
				"z": 0.6951726325,
				"element": "C" 
			},
			{
				"x": -2.4999461933,
				"y": 0.3963171248,
				"z": 0.5278153262,
				"element": "C" 
			},
			{
				"x": -2.8692246187,
				"y": -0.1507643603,
				"z": -0.705260133,
				"element": "C" 
			},
			{
				"x": -4.157592813,
				"y": -0.9288171195,
				"z": -0.8531727754,
				"element": "C" 
			},
			{
				"x": -4.0483606844,
				"y": -2.3920011439,
				"z": -0.3706668524,
				"element": "C" 
			},
			{
				"x": -2.9247030938,
				"y": -3.4432782498,
				"z": -1.3920741705,
				"element": "S" 
			},
			{
				"x": -4.2030004349,
				"y": -4.6725213939,
				"z": -1.6880870041,
				"element": "C" 
			},
			{
				"x": -4.0701822409,
				"y": -5.6843396268,
				"z": -2.330236042,
				"element": "O" 
			},
			{
				"x": -5.3829404783,
				"y": -4.2718875245,
				"z": -1.0604648688,
				"element": "N" 
			},
			{
				"x": -5.4164497979,
				"y": -3.0812430345,
				"z": -0.3578019816,
				"element": "C" 
			},
			{
				"x": -6.4006876385,
				"y": -2.6347629031,
				"z": 0.19366042,
				"element": "O" 
			},
			{
				"x": -1.9917616676,
				"y": 0.0221241071,
				"z": -1.7868505894,
				"element": "C" 
			},
			{
				"x": -0.7935630968,
				"y": 0.7104503827,
				"z": -1.6392243601,
				"element": "C" 
			},
			{
				"x": 3.0152360534,
				"y": -0.4063471658,
				"z": 0.616564682,
				"element": "C" 
			},
			{
				"x": 4.0572941881,
				"y": -0.9409127674,
				"z": -0.1797841588,
				"element": "C" 
			},
			{
				"x": 3.9268622885,
				"y": -2.2369659054,
				"z": -0.659681336,
				"element": "C" 
			},
			{
				"x": 2.782538167,
				"y": -2.9809379946,
				"z": -0.3613569322,
				"element": "C" 
			},
			{
				"x": 1.8092782938,
				"y": -2.3617571576,
				"z": 0.4185587361,
				"element": "C" 
			},
			{
				"x": 1.9098630928,
				"y": -1.1202492115,
				"z": 0.8989800942,
				"element": "N" 
			},
			{
				"x": 5.1827349214,
				"y": 1.1724953338,
				"z": 1.1496428283,
				"element": "H" 
			},
			{
				"x": 4.3249282495,
				"y": 2.0247975287,
				"z": -0.1531882187,
				"element": "H" 
			},
			{
				"x": 4.2020848716,
				"y": 2.5898953636,
				"z": 1.5247337958,
				"element": "H" 
			},
			{
				"x": 1.2451587804,
				"y": 0.6947121165,
				"z": 2.0478517397,
				"element": "H" 
			},
			{
				"x": 2.2348012412,
				"y": 2.028180712,
				"z": 2.6706237643,
				"element": "H" 
			},
			{
				"x": 0.4141414308,
				"y": 3.0024392444,
				"z": 1.3869223541,
				"element": "H" 
			},
			{
				"x": 1.9268746785,
				"y": 3.2769417385,
				"z": 0.5196260368,
				"element": "H" 
			},
			{
				"x": -1.0527511313,
				"y": 1.4865725789,
				"z": 1.6718320778,
				"element": "H" 
			},
			{
				"x": -3.1620639468,
				"y": 0.2859790373,
				"z": 1.3840453623,
				"element": "H" 
			},
			{
				"x": -4.9559183894,
				"y": -0.4731716218,
				"z": -0.2564886269,
				"element": "H" 
			},
			{
				"x": -4.4905710434,
				"y": -0.9242511871,
				"z": -1.8964938461,
				"element": "H" 
			},
			{
				"x": -3.6718953233,
				"y": -2.4002571288,
				"z": 0.6572404789,
				"element": "H" 
			},
			{
				"x": -6.2118034927,
				"y": -4.8482621605,
				"z": -1.1457309391,
				"element": "H" 
			},
			{
				"x": -2.2526826586,
				"y": -0.3860336994,
				"z": -2.7597001647,
				"element": "H" 
			},
			{
				"x": -0.1163582291,
				"y": 0.8473389555,
				"z": -2.4756816709,
				"element": "H" 
			},
			{
				"x": 4.9348033355,
				"y": -0.357347781,
				"z": -0.4273321884,
				"element": "H" 
			},
			{
				"x": 4.7165669797,
				"y": -2.6617163259,
				"z": -1.2737789107,
				"element": "H" 
			},
			{
				"x": 2.6453352979,
				"y": -3.9931868717,
				"z": -0.7249645924,
				"element": "H" 
			},
			{
				"x": 0.8915559061,
				"y": -2.8902370312,
				"z": 0.6736838329,
				"element": "H" 
			}
		],
		 "valence_orbital": [ 
			{
				"type": "occ",
				"energy": -0.26355,
				"method": "rhf"
			},
			{
				"type": "occ",
				"energy": -0.25221,
				"method": "rhf"
			},
			{
				"type": "occ",
				"energy": -0.2469,
				"method": "rhf"
			},
			{
				"type": "occ",
				"energy": -0.21737,
				"method": "rhf"
			},
			{
				"type": "occ",
				"energy": -0.19697,
				"method": "rhf"
			},
			{
				"type": "unocc",
				"energy": -0.03267,
				"method": "rhf"
			},
			{
				"type": "unocc",
				"energy": -0.01034,
				"method": "rhf"
			},
			{
				"type": "unocc",
				"energy": -0.00805,
				"method": "rhf"
			},
			{
				"type": "unocc",
				"energy": 0.00402,
				"method": "rhf"
			},
			{
				"type": "unocc",
				"energy": 0.00979,
				"method": "rhf"
			}
		],
		"cosmo_sigma_profile": { 
			"-0.025": 0.0,
			"-0.024": 0.0,
			"-0.023": 0.0,
			"-0.022": 0.0,
			"-0.021": 0.0,
			"-0.02": 0.0,
			"-0.019": 0.0,
			"-0.018": 0.0914010035897,
			"-0.017": 1.12163449537,
			"-0.016": 1.28785001485,
			"-0.015": 0.864775113383,
			"-0.014": 1.103139072,
			"-0.013": 0.520285937972,
			"-0.012": 0.756252758663,
			"-0.011": 0.960790563736,
			"-0.01": 0.839754124297,
			"-0.009": 2.43634051996,
			"-0.008": 5.31329073461,
			"-0.007": 8.13966578585,
			"-0.006": 22.4017110687,
			"-0.005": 37.7298083622,
			"-0.004": 36.4728368238,
			"-0.003": 34.769625487,
			"-0.002": 27.0270896307,
			"-0.001": 21.016075229,
			"0.0": 17.6567593203,
			"0.001": 22.0569067807,
			"0.002": 21.1278595329,
			"0.003": 21.0475336589,
			"0.004": 26.5142687564,
			"0.005": 26.3498045367,
			"0.006": 12.1569067277,
			"0.007": 7.74958368815,
			"0.008": 6.94293230095,
			"0.009": 7.45217675305,
			"0.01": 10.3265651147,
			"0.011": 11.1933760311,
			"0.012": 2.54707610578,
			"0.013": 0.0,
			"0.014": 0.0,
			"0.015": 0.0,
			"0.016": 0.0,
			"0.017": 0.0,
			"0.018": 0.0,
			"0.019": 0.0,
			"0.02": 0.0,
			"0.021": 0.0,
			"0.022": 0.0,
			"0.023": 0.0,
			"0.024": 0.0,
			"0.025": 0.0
		}
	}
}
