{
	 "smiles": "FC(F)(F)C1=C(Cl)C=CC(=C1)N=C=S", 
	 "Tm": 308.15, 
	 "num_atms": 17, 
	 "gaussian": { 
		 "optdone": 1, 
		 "sigma_profile": "yes", 
		 "theory": "DFT", 
		 "functional": "B3LYP", 
		 "basiset": "6-31G**", 
		 "properties": { 
			 "R2extent": 5019.8305, 
			 "electric_dipole_moment_norm": 2.10483221659, 
			 "electric_quadrupole_moment_norm": 13.9729753542, 
			 "total_energy": -1519.30574649, 
			 "HOMO_LUMO_gap": 0.17336, 
			 "cosmo_polarized_energy": -6.32, 
			 "cosmo_cavitation_energy": 28.24, 
			 "cosmo_dispersion_energy": -20.61, 
			 "cosmo_repulsion_energy": 1.53, 
			 "cosmo_total_nonelectrostatic_energy": 9.17, 
			 "SMD_solvation_energy": 6.3 
		},
		"coords": [
			{
				"x": 0.3926572536,
				"y": -2.7389614485,
				"z": 2.9912638595,
				"element": "F" 
			},
			{
				"x": -0.6261477763,
				"y": -2.317113182,
				"z": 2.2176913613,
				"element": "C" 
			},
			{
				"x": -1.2802968301,
				"y": -1.3571388662,
				"z": 2.9071338268,
				"element": "F" 
			},
			{
				"x": -1.478602404,
				"y": -3.3487657766,
				"z": 2.0648336393,
				"element": "F" 
			},
			{
				"x": -0.1354697215,
				"y": -1.795246531,
				"z": 0.8829570887,
				"element": "C" 
			},
			{
				"x": 0.5746396773,
				"y": -2.604340829,
				"z": -0.0198499984,
				"element": "C" 
			},
			{
				"x": 0.943725792,
				"y": -4.2755565243,
				"z": 0.3339395401,
				"element": "Cl" 
			},
			{
				"x": 1.0088676975,
				"y": -2.0833209577,
				"z": -1.2403287372,
				"element": "C" 
			},
			{
				"x": 0.7448953887,
				"y": -0.7613883782,
				"z": -1.5768057357,
				"element": "C" 
			},
			{
				"x": 0.0363092829,
				"y": 0.0551809397,
				"z": -0.6820820786,
				"element": "C" 
			},
			{
				"x": -0.3993076758,
				"y": -0.4692704599,
				"z": 0.5436573162,
				"element": "C" 
			},
			{
				"x": -0.2304189917,
				"y": 1.3590659359,
				"z": -1.0005447624,
				"element": "N" 
			},
			{
				"x": -0.4630412141,
				"y": 2.4909422179,
				"z": -1.2779995939,
				"element": "C" 
			},
			{
				"x": -0.7726650741,
				"y": 4.0054664215,
				"z": -1.6503237865,
				"element": "S" 
			},
			{
				"x": 1.5554404829,
				"y": -2.7218894942,
				"z": -1.9247773369,
				"element": "H" 
			},
			{
				"x": 1.0812628056,
				"y": -0.3548690068,
				"z": -2.5240778753,
				"element": "H" 
			},
			{
				"x": -0.9454486929,
				"y": 0.1628059395,
				"z": 1.2317132731,
				"element": "H" 
			}
		],
		 "valence_orbital": [ 
			{
				"type": "occ",
				"energy": -0.33231,
				"method": "rhf"
			},
			{
				"type": "occ",
				"energy": -0.30166,
				"method": "rhf"
			},
			{
				"type": "occ",
				"energy": -0.29762,
				"method": "rhf"
			},
			{
				"type": "occ",
				"energy": -0.26511,
				"method": "rhf"
			},
			{
				"type": "occ",
				"energy": -0.24437,
				"method": "rhf"
			},
			{
				"type": "unocc",
				"energy": -0.07101,
				"method": "rhf"
			},
			{
				"type": "unocc",
				"energy": -0.05225,
				"method": "rhf"
			},
			{
				"type": "unocc",
				"energy": -0.0094,
				"method": "rhf"
			},
			{
				"type": "unocc",
				"energy": 0.00818,
				"method": "rhf"
			},
			{
				"type": "unocc",
				"energy": 0.0201,
				"method": "rhf"
			}
		],
		"cosmo_sigma_profile": { 
			"-0.025": 0.0,
			"-0.024": 0.0,
			"-0.023": 0.0,
			"-0.022": 0.0,
			"-0.021": 0.0,
			"-0.02": 0.0,
			"-0.019": 0.0,
			"-0.018": 0.0,
			"-0.017": 0.0,
			"-0.016": 0.0,
			"-0.015": 0.0,
			"-0.014": 0.0,
			"-0.013": 0.0,
			"-0.012": 0.0,
			"-0.011": 0.0,
			"-0.01": 0.0,
			"-0.009": 2.91873294963,
			"-0.008": 6.5638165374,
			"-0.007": 6.30841510003,
			"-0.006": 5.13133044771,
			"-0.005": 5.78698118268,
			"-0.004": 9.34067932537,
			"-0.003": 12.6851544627,
			"-0.002": 19.2879250856,
			"-0.001": 30.7360260944,
			"0.0": 22.8003051945,
			"0.001": 19.3155098216,
			"0.002": 32.5286847914,
			"0.003": 28.9802874687,
			"0.004": 13.3152308106,
			"0.005": 12.3161350602,
			"0.006": 6.64235550257,
			"0.007": 0.0,
			"0.008": 0.0,
			"0.009": 0.0,
			"0.01": 0.0,
			"0.011": 0.0,
			"0.012": 0.0,
			"0.013": 0.0,
			"0.014": 0.0,
			"0.015": 0.0,
			"0.016": 0.0,
			"0.017": 0.0,
			"0.018": 0.0,
			"0.019": 0.0,
			"0.02": 0.0,
			"0.021": 0.0,
			"0.022": 0.0,
			"0.023": 0.0,
			"0.024": 0.0,
			"0.025": 0.0
		}
	}
}
