{
	 "smiles": "FC1(F)C(Cl)=C(Cl)C(F)(F)C(F)(F)C1(F)F", 
	 "Tm": 203.15, 
	 "num_atms": 16, 
	 "gaussian": { 
		 "optdone": 1, 
		 "sigma_profile": "yes", 
		 "theory": "DFT", 
		 "functional": "B3LYP", 
		 "basiset": "6-31G**", 
		 "properties": { 
			 "R2extent": 4914.8946, 
			 "electric_dipole_moment_norm": 1.0928912892, 
			 "electric_quadrupole_moment_norm": 4.54482834439, 
			 "total_energy": -1947.67975878, 
			 "HOMO_LUMO_gap": 0.22113, 
			 "cosmo_polarized_energy": -1.95, 
			 "cosmo_cavitation_energy": 26.78, 
			 "cosmo_dispersion_energy": -18.58, 
			 "cosmo_repulsion_energy": 1.29, 
			 "cosmo_total_nonelectrostatic_energy": 9.48, 
			 "SMD_solvation_energy": 6.86 
		},
		"coords": [
			{
				"x": -2.0299358092,
				"y": -2.8074480899,
				"z": -0.2098811279,
				"element": "F" 
			},
			{
				"x": -1.8284266639,
				"y": -1.8033211283,
				"z": 0.6763696472,
				"element": "C" 
			},
			{
				"x": -3.0237873165,
				"y": -1.514356283,
				"z": 1.2539965169,
				"element": "F" 
			},
			{
				"x": -0.8410457818,
				"y": -2.2373845137,
				"z": 1.7448141392,
				"element": "C" 
			},
			{
				"x": -1.1369496433,
				"y": -3.818505264,
				"z": 2.3716564291,
				"element": "Cl" 
			},
			{
				"x": 0.1402772193,
				"y": -1.4419638177,
				"z": 2.2032620341,
				"element": "C" 
			},
			{
				"x": 1.2454953291,
				"y": -1.9309362976,
				"z": 3.4360634373,
				"element": "Cl" 
			},
			{
				"x": 0.417511282,
				"y": -0.0596696946,
				"z": 1.6399610649,
				"element": "C" 
			},
			{
				"x": 1.5176090028,
				"y": -0.1065281871,
				"z": 0.8439358907,
				"element": "F" 
			},
			{
				"x": 0.6713477299,
				"y": 0.8125316116,
				"z": 2.6445186185,
				"element": "F" 
			},
			{
				"x": -0.7645068583,
				"y": 0.5030448441,
				"z": 0.815918533,
				"element": "C" 
			},
			{
				"x": -0.346100447,
				"y": 1.5620719558,
				"z": 0.0959865966,
				"element": "F" 
			},
			{
				"x": -1.7332421619,
				"y": 0.9030378091,
				"z": 1.6754479156,
				"element": "F" 
			},
			{
				"x": -1.3512097382,
				"y": -0.5641531193,
				"z": -0.1171745913,
				"element": "C" 
			},
			{
				"x": -2.3853138888,
				"y": -0.049154616,
				"z": -0.8102328709,
				"element": "F" 
			},
			{
				"x": -0.385422254,
				"y": -0.9566652095,
				"z": -0.983442233,
				"element": "F" 
			}
		],
		 "valence_orbital": [ 
			{
				"type": "occ",
				"energy": -0.37418,
				"method": "rhf"
			},
			{
				"type": "occ",
				"energy": -0.36752,
				"method": "rhf"
			},
			{
				"type": "occ",
				"energy": -0.35137,
				"method": "rhf"
			},
			{
				"type": "occ",
				"energy": -0.34493,
				"method": "rhf"
			},
			{
				"type": "occ",
				"energy": -0.29876,
				"method": "rhf"
			},
			{
				"type": "unocc",
				"energy": -0.07763,
				"method": "rhf"
			},
			{
				"type": "unocc",
				"energy": -0.03796,
				"method": "rhf"
			},
			{
				"type": "unocc",
				"energy": 0.02116,
				"method": "rhf"
			},
			{
				"type": "unocc",
				"energy": 0.02879,
				"method": "rhf"
			},
			{
				"type": "unocc",
				"energy": 0.05752,
				"method": "rhf"
			}
		],
		"cosmo_sigma_profile": { 
			"-0.025": 0.0,
			"-0.024": 0.0,
			"-0.023": 0.0,
			"-0.022": 0.0,
			"-0.021": 0.0,
			"-0.02": 0.0,
			"-0.019": 0.0,
			"-0.018": 0.0,
			"-0.017": 0.0,
			"-0.016": 0.0,
			"-0.015": 0.0,
			"-0.014": 0.0,
			"-0.013": 0.0,
			"-0.012": 0.0,
			"-0.011": 0.0,
			"-0.01": 0.0,
			"-0.009": 0.0,
			"-0.008": 0.0,
			"-0.007": 0.0390191251154,
			"-0.006": 3.93943113349,
			"-0.005": 7.50977489922,
			"-0.004": 7.55044269633,
			"-0.003": 8.86735123614,
			"-0.002": 14.11213575,
			"-0.001": 20.8581423315,
			"0.0": 34.6661041895,
			"0.001": 77.9808203219,
			"0.002": 43.4831675363,
			"0.003": 1.30725777043,
			"0.004": 0.0,
			"0.005": 0.0,
			"0.006": 0.0,
			"0.007": 0.0,
			"0.008": 0.0,
			"0.009": 0.0,
			"0.01": 0.0,
			"0.011": 0.0,
			"0.012": 0.0,
			"0.013": 0.0,
			"0.014": 0.0,
			"0.015": 0.0,
			"0.016": 0.0,
			"0.017": 0.0,
			"0.018": 0.0,
			"0.019": 0.0,
			"0.02": 0.0,
			"0.021": 0.0,
			"0.022": 0.0,
			"0.023": 0.0,
			"0.024": 0.0,
			"0.025": 0.0
		}
	}
}
