{
	 "smiles": "CN1C=CC(=N1)C(O)=O", 
	 "Tm": 427.15, 
	 "num_atms": 15, 
	 "gaussian": { 
		 "optdone": 1, 
		 "sigma_profile": "yes", 
		 "theory": "DFT", 
		 "functional": "B3LYP", 
		 "basiset": "6-31G**", 
		 "properties": { 
			 "R2extent": 1737.9737, 
			 "electric_dipole_moment_norm": 7.03235656733, 
			 "electric_quadrupole_moment_norm": 10.8060441296, 
			 "total_energy": -454.08938856, 
			 "HOMO_LUMO_gap": 0.23256, 
			 "cosmo_polarized_energy": -14.4, 
			 "cosmo_cavitation_energy": 19.8, 
			 "cosmo_dispersion_energy": -14.78, 
			 "cosmo_repulsion_energy": 1.22, 
			 "cosmo_total_nonelectrostatic_energy": 6.24, 
			 "SMD_solvation_energy": 4.65 
		},
		"coords": [
			{
				"x": 2.955831991,
				"y": -2.6462112122,
				"z": -0.2714903376,
				"element": "C" 
			},
			{
				"x": 2.0774371004,
				"y": -1.4897198414,
				"z": -0.2203675349,
				"element": "N" 
			},
			{
				"x": 1.7767818385,
				"y": -0.7089010745,
				"z": 0.8580224215,
				"element": "C" 
			},
			{
				"x": 0.9023373062,
				"y": 0.2656910967,
				"z": 0.4223529097,
				"element": "C" 
			},
			{
				"x": 0.7322470207,
				"y": -0.0118320384,
				"z": -0.9496167935,
				"element": "C" 
			},
			{
				"x": 1.4487044694,
				"y": -1.078166762,
				"z": -1.3303846878,
				"element": "N" 
			},
			{
				"x": -0.1029874729,
				"y": 0.7103100519,
				"z": -1.9411584578,
				"element": "C" 
			},
			{
				"x": -0.0549435671,
				"y": 0.1944271132,
				"z": -3.1908782643,
				"element": "O" 
			},
			{
				"x": -0.7743288769,
				"y": 1.6787134621,
				"z": -1.6697483316,
				"element": "O" 
			},
			{
				"x": 2.394819807,
				"y": -3.5280015468,
				"z": -0.5903281103,
				"element": "H" 
			},
			{
				"x": 3.3682760138,
				"y": -2.8191991418,
				"z": 0.7233844929,
				"element": "H" 
			},
			{
				"x": 3.7711526852,
				"y": -2.465571953,
				"z": -0.9761647085,
				"element": "H" 
			},
			{
				"x": 2.2033689641,
				"y": -0.9086915766,
				"z": 1.8301720586,
				"element": "H" 
			},
			{
				"x": 0.4470544794,
				"y": 1.0614482622,
				"z": 0.9899273529,
				"element": "H" 
			},
			{
				"x": 0.5424482412,
				"y": -0.5739948395,
				"z": -3.1754220091,
				"element": "H" 
			}
		],
		 "valence_orbital": [ 
			{
				"type": "occ",
				"energy": -0.32268,
				"method": "rhf"
			},
			{
				"type": "occ",
				"energy": -0.30411,
				"method": "rhf"
			},
			{
				"type": "occ",
				"energy": -0.27246,
				"method": "rhf"
			},
			{
				"type": "occ",
				"energy": -0.26569,
				"method": "rhf"
			},
			{
				"type": "occ",
				"energy": -0.26465,
				"method": "rhf"
			},
			{
				"type": "unocc",
				"energy": -0.03209,
				"method": "rhf"
			},
			{
				"type": "unocc",
				"energy": 0.01598,
				"method": "rhf"
			},
			{
				"type": "unocc",
				"energy": 0.07731,
				"method": "rhf"
			},
			{
				"type": "unocc",
				"energy": 0.0987,
				"method": "rhf"
			},
			{
				"type": "unocc",
				"energy": 0.11125,
				"method": "rhf"
			}
		],
		"cosmo_sigma_profile": { 
			"-0.025": 0.0,
			"-0.024": 0.0,
			"-0.023": 0.0,
			"-0.022": 0.0,
			"-0.021": 0.0,
			"-0.02": 0.0,
			"-0.019": 0.0,
			"-0.018": 0.0,
			"-0.017": 0.0,
			"-0.016": 0.0,
			"-0.015": 0.107932368696,
			"-0.014": 0.274596052338,
			"-0.013": 0.864142855555,
			"-0.012": 0.299456351032,
			"-0.011": 0.732754466247,
			"-0.01": 2.58744981251,
			"-0.009": 4.09473259144,
			"-0.008": 4.45632465823,
			"-0.007": 8.66011053499,
			"-0.006": 9.64181970359,
			"-0.005": 11.2206372254,
			"-0.004": 12.8866925628,
			"-0.003": 11.8089749097,
			"-0.002": 7.86102964357,
			"-0.001": 6.23722593295,
			"0.0": 6.53759573316,
			"0.001": 9.81757422758,
			"0.002": 10.050905207,
			"0.003": 8.52635465748,
			"0.004": 5.19722904633,
			"0.005": 4.01211603396,
			"0.006": 3.39953713973,
			"0.007": 4.22701383723,
			"0.008": 3.43008898847,
			"0.009": 3.14624165693,
			"0.01": 5.06805902704,
			"0.011": 5.35582350212,
			"0.012": 5.48595694918,
			"0.013": 2.18128931641,
			"0.014": 0.189976448418,
			"0.015": 0.0,
			"0.016": 0.0,
			"0.017": 0.0,
			"0.018": 0.0,
			"0.019": 0.0,
			"0.02": 0.0,
			"0.021": 0.0,
			"0.022": 0.0,
			"0.023": 0.0,
			"0.024": 0.0,
			"0.025": 0.0
		}
	}
}
