{
	 "smiles": "NC1=CC=C(C=C1)S(=O)(=O)NC1=CC=CC=N1", 
	 "Tm": 464.15, 
	 "num_atms": 28, 
	 "gaussian": { 
		 "optdone": 1, 
		 "sigma_profile": "yes", 
		 "theory": "DFT", 
		 "functional": "B3LYP", 
		 "basiset": "6-31G**", 
		 "properties": { 
			 "R2extent": 5343.5952, 
			 "electric_dipole_moment_norm": 7.00569372297, 
			 "electric_quadrupole_moment_norm": 26.5723746483, 
			 "total_energy": -1138.62682347, 
			 "HOMO_LUMO_gap": 0.19208, 
			 "cosmo_polarized_energy": -20.43, 
			 "cosmo_cavitation_energy": 33.86, 
			 "cosmo_dispersion_energy": -24.54, 
			 "cosmo_repulsion_energy": 1.87, 
			 "cosmo_total_nonelectrostatic_energy": 11.19, 
			 "SMD_solvation_energy": 3.6 
		},
		"coords": [
			{
				"x": 3.3533410653,
				"y": 0.2644660084,
				"z": 3.6346096807,
				"element": "N" 
			},
			{
				"x": 2.0799401532,
				"y": 0.0753742813,
				"z": 3.1292473383,
				"element": "C" 
			},
			{
				"x": 1.5474263288,
				"y": -1.2219676603,
				"z": 2.9902563548,
				"element": "C" 
			},
			{
				"x": 0.2881205865,
				"y": -1.4152773356,
				"z": 2.4388986081,
				"element": "C" 
			},
			{
				"x": -0.4620648201,
				"y": -0.3129667306,
				"z": 2.0154809602,
				"element": "C" 
			},
			{
				"x": 0.0481394491,
				"y": 0.98323208,
				"z": 2.1525683209,
				"element": "C" 
			},
			{
				"x": 1.3060126884,
				"y": 1.1752022671,
				"z": 2.7047801868,
				"element": "C" 
			},
			{
				"x": -2.0674235246,
				"y": -0.5515130187,
				"z": 1.2826369571,
				"element": "S" 
			},
			{
				"x": -2.5615789443,
				"y": -1.8644707536,
				"z": 1.7009868185,
				"element": "O" 
			},
			{
				"x": -2.8434260298,
				"y": 0.6746887324,
				"z": 1.4651571304,
				"element": "O" 
			},
			{
				"x": -1.8405395088,
				"y": -0.6249407158,
				"z": -0.4034041249,
				"element": "N" 
			},
			{
				"x": -1.0671045372,
				"y": -1.5904997559,
				"z": -1.0823438276,
				"element": "C" 
			},
			{
				"x": -1.1180881632,
				"y": -2.9575958246,
				"z": -0.765619446,
				"element": "C" 
			},
			{
				"x": -0.340943144,
				"y": -3.8229835677,
				"z": -1.5273353737,
				"element": "C" 
			},
			{
				"x": 0.4292879087,
				"y": -3.3197391396,
				"z": -2.5788943089,
				"element": "C" 
			},
			{
				"x": 0.3831740261,
				"y": -1.9487275175,
				"z": -2.8193044047,
				"element": "C" 
			},
			{
				"x": -0.335218767,
				"y": -1.0905529505,
				"z": -2.084839905,
				"element": "N" 
			},
			{
				"x": 3.7423634765,
				"y": -0.4853694119,
				"z": 4.1868654614,
				"element": "H" 
			},
			{
				"x": 3.5729972806,
				"y": 1.1835154546,
				"z": 3.9891486383,
				"element": "H" 
			},
			{
				"x": 2.1283330459,
				"y": -2.0777638706,
				"z": 3.3236299404,
				"element": "H" 
			},
			{
				"x": -0.1275012693,
				"y": -2.412933097,
				"z": 2.3558641431,
				"element": "H" 
			},
			{
				"x": -0.5527743095,
				"y": 1.8338055654,
				"z": 1.8487346848,
				"element": "H" 
			},
			{
				"x": 1.6994743767,
				"y": 2.1819663125,
				"z": 2.8168126659,
				"element": "H" 
			},
			{
				"x": -1.7072156492,
				"y": 0.303759774,
				"z": -0.7952560373,
				"element": "H" 
			},
			{
				"x": -1.757715409,
				"y": -3.3085176227,
				"z": 0.0340287869,
				"element": "H" 
			},
			{
				"x": -0.35125016,
				"y": -4.887587122,
				"z": -1.311411868,
				"element": "H" 
			},
			{
				"x": 1.0387606576,
				"y": -3.9691544474,
				"z": -3.1981297663,
				"element": "H" 
			},
			{
				"x": 0.9543731926,
				"y": -1.5090499338,
				"z": -3.6348676142,
				"element": "H" 
			}
		],
		 "valence_orbital": [ 
			{
				"type": "occ",
				"energy": -0.28621,
				"method": "rhf"
			},
			{
				"type": "occ",
				"energy": -0.26947,
				"method": "rhf"
			},
			{
				"type": "occ",
				"energy": -0.2669,
				"method": "rhf"
			},
			{
				"type": "occ",
				"energy": -0.2395,
				"method": "rhf"
			},
			{
				"type": "occ",
				"energy": -0.22173,
				"method": "rhf"
			},
			{
				"type": "unocc",
				"energy": -0.02965,
				"method": "rhf"
			},
			{
				"type": "unocc",
				"energy": -0.02487,
				"method": "rhf"
			},
			{
				"type": "unocc",
				"energy": -0.01621,
				"method": "rhf"
			},
			{
				"type": "unocc",
				"energy": -0.00554,
				"method": "rhf"
			},
			{
				"type": "unocc",
				"energy": 0.0594,
				"method": "rhf"
			}
		],
		"cosmo_sigma_profile": { 
			"-0.025": 0.0,
			"-0.024": 0.0,
			"-0.023": 0.0,
			"-0.022": 0.0,
			"-0.021": 0.0,
			"-0.02": 0.0,
			"-0.019": 0.0,
			"-0.018": 0.0,
			"-0.017": 0.0,
			"-0.016": 0.0,
			"-0.015": 0.112876552465,
			"-0.014": 1.14665282632,
			"-0.013": 3.4943074947,
			"-0.012": 3.81044430417,
			"-0.011": 3.82925315595,
			"-0.01": 4.65714390736,
			"-0.009": 3.59218194742,
			"-0.008": 4.46273646712,
			"-0.007": 10.889258882,
			"-0.006": 16.3323601986,
			"-0.005": 17.4035718951,
			"-0.004": 14.4861027646,
			"-0.003": 11.779375448,
			"-0.002": 12.6327740501,
			"-0.001": 11.9185543576,
			"0.0": 14.1879333462,
			"0.001": 19.9011156318,
			"0.002": 23.0626147936,
			"0.003": 23.7352149598,
			"0.004": 17.8745783874,
			"0.005": 7.21094634609,
			"0.006": 5.33654978025,
			"0.007": 6.31672519587,
			"0.008": 5.7725962592,
			"0.009": 4.70893835513,
			"0.01": 8.77224540835,
			"0.011": 9.68768289698,
			"0.012": 2.80515051821,
			"0.013": 0.682030385482,
			"0.014": 0.491697565053,
			"0.015": 0.0,
			"0.016": 0.0,
			"0.017": 0.0,
			"0.018": 0.0,
			"0.019": 0.0,
			"0.02": 0.0,
			"0.021": 0.0,
			"0.022": 0.0,
			"0.023": 0.0,
			"0.024": 0.0,
			"0.025": 0.0
		}
	}
}
