{
	 "smiles": "OCC1=NN=C(O1)C1=CC=CC=C1", 
	 "Tm": 403.15, 
	 "num_atms": 21, 
	 "gaussian": { 
		 "optdone": 1, 
		 "sigma_profile": "yes", 
		 "theory": "DFT", 
		 "functional": "B3LYP", 
		 "basiset": "6-31G**", 
		 "properties": { 
			 "R2extent": 3486.539, 
			 "electric_dipole_moment_norm": 3.99742006424, 
			 "electric_quadrupole_moment_norm": 5.98430076701, 
			 "total_energy": -607.69138914, 
			 "HOMO_LUMO_gap": 0.1895, 
			 "cosmo_polarized_energy": -11.5, 
			 "cosmo_cavitation_energy": 25.96, 
			 "cosmo_dispersion_energy": -19.58, 
			 "cosmo_repulsion_energy": 1.55, 
			 "cosmo_total_nonelectrostatic_energy": 7.92, 
			 "SMD_solvation_energy": 3.17 
		},
		"coords": [
			{
				"x": 1.2219170395,
				"y": -4.5943000617,
				"z": 0.0874584347,
				"element": "O" 
			},
			{
				"x": 1.121557261,
				"y": -3.3728591433,
				"z": 0.777709374,
				"element": "C" 
			},
			{
				"x": 1.146834356,
				"y": -2.214827277,
				"z": -0.1690009309,
				"element": "C" 
			},
			{
				"x": 1.4344581824,
				"y": -2.2664306273,
				"z": -1.4285485756,
				"element": "N" 
			},
			{
				"x": 1.3846578669,
				"y": -0.9544421085,
				"z": -1.8998106586,
				"element": "N" 
			},
			{
				"x": 1.0705761809,
				"y": -0.2089137718,
				"z": -0.8821064558,
				"element": "C" 
			},
			{
				"x": 0.9042032755,
				"y": -0.9511191854,
				"z": 0.2635480419,
				"element": "O" 
			},
			{
				"x": 0.8854085898,
				"y": 1.2365513911,
				"z": -0.831827873,
				"element": "C" 
			},
			{
				"x": 0.544044296,
				"y": 1.8825169688,
				"z": 0.3661149289,
				"element": "C" 
			},
			{
				"x": 0.3741743595,
				"y": 3.2655720852,
				"z": 0.3849316697,
				"element": "C" 
			},
			{
				"x": 0.5425997214,
				"y": 4.0103157496,
				"z": -0.7841242131,
				"element": "C" 
			},
			{
				"x": 0.8826302058,
				"y": 3.3675192299,
				"z": -1.9783516915,
				"element": "C" 
			},
			{
				"x": 1.0542808331,
				"y": 1.9871127419,
				"z": -2.0074143456,
				"element": "C" 
			},
			{
				"x": 1.6238542618,
				"y": -4.4110966754,
				"z": -0.7752587267,
				"element": "H" 
			},
			{
				"x": 1.9389249042,
				"y": -3.244133965,
				"z": 1.5083741946,
				"element": "H" 
			},
			{
				"x": 0.1838887159,
				"y": -3.3603274685,
				"z": 1.3486827287,
				"element": "H" 
			},
			{
				"x": 0.4134999701,
				"y": 1.3019057347,
				"z": 1.273074458,
				"element": "H" 
			},
			{
				"x": 0.1098626678,
				"y": 3.7617200047,
				"z": 1.3139242995,
				"element": "H" 
			},
			{
				"x": 0.4093572655,
				"y": 5.0879662713,
				"z": -0.7657419966,
				"element": "H" 
			},
			{
				"x": 1.013885428,
				"y": 3.9444784649,
				"z": -2.8887974108,
				"element": "H" 
			},
			{
				"x": 1.3176846189,
				"y": 1.4746916418,
				"z": -2.9264352517,
				"element": "H" 
			}
		],
		 "valence_orbital": [ 
			{
				"type": "occ",
				"energy": -0.31128,
				"method": "rhf"
			},
			{
				"type": "occ",
				"energy": -0.28638,
				"method": "rhf"
			},
			{
				"type": "occ",
				"energy": -0.28088,
				"method": "rhf"
			},
			{
				"type": "occ",
				"energy": -0.26751,
				"method": "rhf"
			},
			{
				"type": "occ",
				"energy": -0.24517,
				"method": "rhf"
			},
			{
				"type": "unocc",
				"energy": -0.05567,
				"method": "rhf"
			},
			{
				"type": "unocc",
				"energy": -0.01693,
				"method": "rhf"
			},
			{
				"type": "unocc",
				"energy": 0.00798,
				"method": "rhf"
			},
			{
				"type": "unocc",
				"energy": 0.05357,
				"method": "rhf"
			},
			{
				"type": "unocc",
				"energy": 0.07904,
				"method": "rhf"
			}
		],
		"cosmo_sigma_profile": { 
			"-0.025": 0.0,
			"-0.024": 0.0,
			"-0.023": 0.0,
			"-0.022": 0.0,
			"-0.021": 0.0,
			"-0.02": 0.0,
			"-0.019": 0.0,
			"-0.018": 0.0,
			"-0.017": 0.0,
			"-0.016": 0.0,
			"-0.015": 0.0,
			"-0.014": 0.0,
			"-0.013": 0.0990069125714,
			"-0.012": 0.99485786221,
			"-0.011": 0.33684625959,
			"-0.01": 0.341679536622,
			"-0.009": 0.791458146514,
			"-0.008": 2.631445851,
			"-0.007": 9.73008212006,
			"-0.006": 16.1869432961,
			"-0.005": 19.7792281433,
			"-0.004": 16.127288603,
			"-0.003": 12.5341960658,
			"-0.002": 14.2025975156,
			"-0.001": 11.6986774436,
			"0.0": 14.5540813559,
			"0.001": 13.5086077835,
			"0.002": 13.4135410035,
			"0.003": 14.8623395487,
			"0.004": 13.4924689925,
			"0.005": 2.36893398325,
			"0.006": 3.32184893221,
			"0.007": 4.02953756389,
			"0.008": 2.92605643096,
			"0.009": 3.08805444539,
			"0.01": 4.10514135178,
			"0.011": 4.09801416836,
			"0.012": 4.88278196808,
			"0.013": 3.32338073501,
			"0.014": 1.00425141194,
			"0.015": 0.0,
			"0.016": 0.0,
			"0.017": 0.0,
			"0.018": 0.0,
			"0.019": 0.0,
			"0.02": 0.0,
			"0.021": 0.0,
			"0.022": 0.0,
			"0.023": 0.0,
			"0.024": 0.0,
			"0.025": 0.0
		}
	}
}
