{
	 "smiles": "CN1N=CC=C1N", 
	 "Tm": 347.65, 
	 "num_atms": 14, 
	 "gaussian": { 
		 "optdone": 1, 
		 "sigma_profile": "yes", 
		 "theory": "DFT", 
		 "functional": "B3LYP", 
		 "basiset": "6-31G**", 
		 "properties": { 
			 "R2extent": 883.253, 
			 "electric_dipole_moment_norm": 3.32258195234, 
			 "electric_quadrupole_moment_norm": 7.47121673491, 
			 "total_energy": -320.870770525, 
			 "HOMO_LUMO_gap": 0.24403, 
			 "cosmo_polarized_energy": -11.58, 
			 "cosmo_cavitation_energy": 17.53, 
			 "cosmo_dispersion_energy": -13.21, 
			 "cosmo_repulsion_energy": 1.12, 
			 "cosmo_total_nonelectrostatic_energy": 5.44, 
			 "SMD_solvation_energy": 2.67 
		},
		"coords": [
			{
				"x": -2.4545390317,
				"y": 1.1852533161,
				"z": -0.3846180449,
				"element": "C" 
			},
			{
				"x": -1.1327455825,
				"y": 0.6218039666,
				"z": -0.5557441185,
				"element": "N" 
			},
			{
				"x": -0.9575896733,
				"y": -0.7281599803,
				"z": -0.5742776712,
				"element": "N" 
			},
			{
				"x": 0.3511274927,
				"y": -0.8886223734,
				"z": -0.75103061,
				"element": "C" 
			},
			{
				"x": 1.0397446568,
				"y": 0.3418360032,
				"z": -0.8223397703,
				"element": "C" 
			},
			{
				"x": 0.0441347944,
				"y": 1.2985109055,
				"z": -0.6853158466,
				"element": "C" 
			},
			{
				"x": 0.062959471,
				"y": 2.7012094948,
				"z": -0.7365371708,
				"element": "N" 
			},
			{
				"x": -2.5203314493,
				"y": 2.121937219,
				"z": -0.9439221664,
				"element": "H" 
			},
			{
				"x": -2.684528081,
				"y": 1.3786505291,
				"z": 0.6706274698,
				"element": "H" 
			},
			{
				"x": -3.1778594251,
				"y": 0.4690443165,
				"z": -0.7750651834,
				"element": "H" 
			},
			{
				"x": 0.7605249291,
				"y": -1.8884644399,
				"z": -0.8161274516,
				"element": "H" 
			},
			{
				"x": 2.098284246,
				"y": 0.5158309932,
				"z": -0.9482737699,
				"element": "H" 
			},
			{
				"x": 0.9890799827,
				"y": 3.046941898,
				"z": -0.9563583579,
				"element": "H" 
			},
			{
				"x": -0.2545623299,
				"y": 3.1381281516,
				"z": 0.1238826918,
				"element": "H" 
			}
		],
		 "valence_orbital": [ 
			{
				"type": "occ",
				"energy": -0.37939,
				"method": "rhf"
			},
			{
				"type": "occ",
				"energy": -0.31006,
				"method": "rhf"
			},
			{
				"type": "occ",
				"energy": -0.26994,
				"method": "rhf"
			},
			{
				"type": "occ",
				"energy": -0.23371,
				"method": "rhf"
			},
			{
				"type": "occ",
				"energy": -0.20625,
				"method": "rhf"
			},
			{
				"type": "unocc",
				"energy": 0.03778,
				"method": "rhf"
			},
			{
				"type": "unocc",
				"energy": 0.06971,
				"method": "rhf"
			},
			{
				"type": "unocc",
				"energy": 0.08816,
				"method": "rhf"
			},
			{
				"type": "unocc",
				"energy": 0.11684,
				"method": "rhf"
			},
			{
				"type": "unocc",
				"energy": 0.1353,
				"method": "rhf"
			}
		],
		"cosmo_sigma_profile": { 
			"-0.025": 0.0,
			"-0.024": 0.0,
			"-0.023": 0.0,
			"-0.022": 0.0,
			"-0.021": 0.0,
			"-0.02": 0.0,
			"-0.019": 0.0,
			"-0.018": 0.0,
			"-0.017": 0.0,
			"-0.016": 0.0,
			"-0.015": 0.0,
			"-0.014": 0.0,
			"-0.013": 1.11976792848,
			"-0.012": 3.22394023519,
			"-0.011": 2.02588147977,
			"-0.01": 3.2071578649,
			"-0.009": 3.48414449921,
			"-0.008": 1.87919101591,
			"-0.007": 2.77328180059,
			"-0.006": 7.75556203304,
			"-0.005": 11.5922275462,
			"-0.004": 9.67326351253,
			"-0.003": 12.0967677456,
			"-0.002": 9.96225355244,
			"-0.001": 5.17043793062,
			"0.0": 5.71691352371,
			"0.001": 5.36589998819,
			"0.002": 5.0865616031,
			"0.003": 4.77988790448,
			"0.004": 5.59838432735,
			"0.005": 7.46575573277,
			"0.006": 6.0828312745,
			"0.007": 7.13546427019,
			"0.008": 2.78924750294,
			"0.009": 1.96685233411,
			"0.01": 2.88637461376,
			"0.011": 1.75295960324,
			"0.012": 1.99922058351,
			"0.013": 1.49505502434,
			"0.014": 1.55320305308,
			"0.015": 1.26123221786,
			"0.016": 1.18761855891,
			"0.017": 0.540861635745,
			"0.018": 0.0544863326995,
			"0.019": 0.0,
			"0.02": 0.0,
			"0.021": 0.0,
			"0.022": 0.0,
			"0.023": 0.0,
			"0.024": 0.0,
			"0.025": 0.0
		}
	}
}
