{
	 "smiles": "NC(C#N)C1=C(Cl)C(Cl)=CC=C1", 
	 "Tm": 388.15, 
	 "num_atms": 18, 
	 "gaussian": { 
		 "optdone": 1, 
		 "sigma_profile": "yes", 
		 "theory": "DFT", 
		 "functional": "B3LYP", 
		 "basiset": "6-31G**", 
		 "properties": { 
			 "R2extent": 2916.1833, 
			 "electric_dipole_moment_norm": 3.40412847877, 
			 "electric_quadrupole_moment_norm": 17.1279327515, 
			 "total_energy": -1338.3212109, 
			 "HOMO_LUMO_gap": 0.21766, 
			 "cosmo_polarized_energy": -12.01, 
			 "cosmo_cavitation_energy": 26.33, 
			 "cosmo_dispersion_energy": -18.93, 
			 "cosmo_repulsion_energy": 1.51, 
			 "cosmo_total_nonelectrostatic_energy": 8.91, 
			 "SMD_solvation_energy": 4.11 
		},
		"coords": [
			{
				"x": -2.9001710947,
				"y": 0.8874032265,
				"z": 0.1801108917,
				"element": "N" 
			},
			{
				"x": -1.7218459913,
				"y": 1.6167390439,
				"z": 0.6638941592,
				"element": "C" 
			},
			{
				"x": -1.9974219795,
				"y": 2.1054300033,
				"z": 2.0302198874,
				"element": "C" 
			},
			{
				"x": -2.2103240123,
				"y": 2.4764080031,
				"z": 3.108565616,
				"element": "N" 
			},
			{
				"x": -0.4003100494,
				"y": 0.8356076468,
				"z": 0.6113011295,
				"element": "C" 
			},
			{
				"x": 0.2741449592,
				"y": 0.6683318107,
				"z": -0.6120051552,
				"element": "C" 
			},
			{
				"x": -0.3657350565,
				"y": 1.4087468856,
				"z": -2.0688813785,
				"element": "Cl" 
			},
			{
				"x": 1.4514008187,
				"y": -0.0896078107,
				"z": -0.6767843365,
				"element": "C" 
			},
			{
				"x": 2.3124527273,
				"y": -0.3067195598,
				"z": -2.1805645417,
				"element": "Cl" 
			},
			{
				"x": 1.9626946912,
				"y": -0.6897157971,
				"z": 0.4757266852,
				"element": "C" 
			},
			{
				"x": 1.2999876732,
				"y": -0.5287109192,
				"z": 1.6880127988,
				"element": "C" 
			},
			{
				"x": 0.1315328104,
				"y": 0.2281349957,
				"z": 1.7536064894,
				"element": "C" 
			},
			{
				"x": -2.9532421742,
				"y": -0.0237394111,
				"z": 0.62869221,
				"element": "H" 
			},
			{
				"x": -2.8087057214,
				"y": 0.7328229627,
				"z": -0.8201356243,
				"element": "H" 
			},
			{
				"x": -1.6212295851,
				"y": 2.5073785607,
				"z": 0.0341856181,
				"element": "H" 
			},
			{
				"x": 2.8743667266,
				"y": -1.2722218124,
				"z": 0.4070347775,
				"element": "H" 
			},
			{
				"x": 1.6988678545,
				"y": -0.9905298182,
				"z": 2.5854218553,
				"element": "H" 
			},
			{
				"x": -0.3720625967,
				"y": 0.3655419896,
				"z": 2.7050989181,
				"element": "H" 
			}
		],
		 "valence_orbital": [ 
			{
				"type": "occ",
				"energy": -0.33345,
				"method": "rhf"
			},
			{
				"type": "occ",
				"energy": -0.32304,
				"method": "rhf"
			},
			{
				"type": "occ",
				"energy": -0.28645,
				"method": "rhf"
			},
			{
				"type": "occ",
				"energy": -0.26619,
				"method": "rhf"
			},
			{
				"type": "occ",
				"energy": -0.26248,
				"method": "rhf"
			},
			{
				"type": "unocc",
				"energy": -0.04482,
				"method": "rhf"
			},
			{
				"type": "unocc",
				"energy": -0.03846,
				"method": "rhf"
			},
			{
				"type": "unocc",
				"energy": -0.01526,
				"method": "rhf"
			},
			{
				"type": "unocc",
				"energy": 0.02219,
				"method": "rhf"
			},
			{
				"type": "unocc",
				"energy": 0.03393,
				"method": "rhf"
			}
		],
		"cosmo_sigma_profile": { 
			"-0.025": 0.0,
			"-0.024": 0.0,
			"-0.023": 0.0,
			"-0.022": 0.0,
			"-0.021": 0.0,
			"-0.02": 0.0,
			"-0.019": 0.0,
			"-0.018": 0.0,
			"-0.017": 0.0,
			"-0.016": 0.0,
			"-0.015": 0.0,
			"-0.014": 0.0,
			"-0.013": 0.0,
			"-0.012": 0.514380662876,
			"-0.011": 1.87062029173,
			"-0.01": 3.25801625694,
			"-0.009": 4.7760482364,
			"-0.008": 6.64159641688,
			"-0.007": 9.25728951621,
			"-0.006": 12.5958744707,
			"-0.005": 10.4935142096,
			"-0.004": 7.73983189194,
			"-0.003": 11.8722332091,
			"-0.002": 9.75367360284,
			"-0.001": 17.0074766503,
			"0.0": 19.1564996676,
			"0.001": 19.6611322177,
			"0.002": 17.88675974,
			"0.003": 14.9961085918,
			"0.004": 14.944354854,
			"0.005": 6.27232007972,
			"0.006": 3.2206122081,
			"0.007": 4.08754992752,
			"0.008": 3.77973887207,
			"0.009": 3.98941566602,
			"0.01": 3.34687851168,
			"0.011": 3.05969064051,
			"0.012": 2.47192815548,
			"0.013": 1.34334637455,
			"0.014": 0.833004089461,
			"0.015": 0.520379779249,
			"0.016": 0.460523284703,
			"0.017": 0.117335125212,
			"0.018": 0.0,
			"0.019": 0.0,
			"0.02": 0.0,
			"0.021": 0.0,
			"0.022": 0.0,
			"0.023": 0.0,
			"0.024": 0.0,
			"0.025": 0.0
		}
	}
}
