{
	 "smiles": "CCOC(=O)C(C#N)=C(SC)SC1=NC=CC=N1", 
	 "Tm": 377.15, 
	 "num_atms": 29, 
	 "gaussian": { 
		 "optdone": 1, 
		 "sigma_profile": "yes", 
		 "theory": "DFT", 
		 "functional": "B3LYP", 
		 "basiset": "6-31G**", 
		 "properties": { 
			 "R2extent": 6010.8443, 
			 "electric_dipole_moment_norm": 7.98639317026, 
			 "electric_quadrupole_moment_norm": 38.5150307128, 
			 "total_energy": -1536.82533106, 
			 "HOMO_LUMO_gap": 0.15659, 
			 "cosmo_polarized_energy": -19.29, 
			 "cosmo_cavitation_energy": 38.37, 
			 "cosmo_dispersion_energy": -26.28, 
			 "cosmo_repulsion_energy": 2.02, 
			 "cosmo_total_nonelectrostatic_energy": 14.1, 
			 "SMD_solvation_energy": 6.76 
		},
		"coords": [
			{
				"x": -1.6005181059,
				"y": 4.3872553698,
				"z": 1.6862263775,
				"element": "C" 
			},
			{
				"x": -0.1644344802,
				"y": 4.0074320374,
				"z": 1.9895144171,
				"element": "C" 
			},
			{
				"x": 0.2727746346,
				"y": 3.0959001821,
				"z": 0.9493010206,
				"element": "O" 
			},
			{
				"x": 1.5450702005,
				"y": 2.6771602225,
				"z": 1.0424560409,
				"element": "C" 
			},
			{
				"x": 2.3327843516,
				"y": 3.0607682973,
				"z": 1.8811937196,
				"element": "O" 
			},
			{
				"x": 1.9358359188,
				"y": 1.7242509922,
				"z": -0.0507035643,
				"element": "C" 
			},
			{
				"x": 3.2861096599,
				"y": 1.901095175,
				"z": -0.4904370482,
				"element": "C" 
			},
			{
				"x": 4.3773483015,
				"y": 2.0382067487,
				"z": -0.8724699006,
				"element": "N" 
			},
			{
				"x": 1.1856236127,
				"y": 0.7156140545,
				"z": -0.5996377015,
				"element": "C" 
			},
			{
				"x": 1.9271964594,
				"y": -0.260363235,
				"z": -1.8780842858,
				"element": "S" 
			},
			{
				"x": 0.6191460721,
				"y": -1.390223649,
				"z": -2.4513761431,
				"element": "C" 
			},
			{
				"x": -0.5147534846,
				"y": 0.4546556995,
				"z": -0.108680376,
				"element": "S" 
			},
			{
				"x": -0.4478954779,
				"y": -1.1243151595,
				"z": 0.7312156012,
				"element": "C" 
			},
			{
				"x": -1.6640453256,
				"y": -1.5535478522,
				"z": 1.0888341465,
				"element": "N" 
			},
			{
				"x": -1.6936822473,
				"y": -2.6997441822,
				"z": 1.774525569,
				"element": "C" 
			},
			{
				"x": -0.5365912118,
				"y": -3.4131074484,
				"z": 2.0907613645,
				"element": "C" 
			},
			{
				"x": 0.6653742376,
				"y": -2.865078096,
				"z": 1.6497972886,
				"element": "C" 
			},
			{
				"x": 0.7234489794,
				"y": -1.7125973323,
				"z": 0.9688510479,
				"element": "N" 
			},
			{
				"x": -1.6779136476,
				"y": 4.876084066,
				"z": 0.7109621477,
				"element": "H" 
			},
			{
				"x": -2.2475185296,
				"y": 3.5057486538,
				"z": 1.6836034916,
				"element": "H" 
			},
			{
				"x": -1.9659297489,
				"y": 5.0819162758,
				"z": 2.4489428172,
				"element": "H" 
			},
			{
				"x": 0.5031189777,
				"y": 4.8741303127,
				"z": 1.9936202009,
				"element": "H" 
			},
			{
				"x": -0.0634103785,
				"y": 3.5070899334,
				"z": 2.9575488709,
				"element": "H" 
			},
			{
				"x": 1.0439017506,
				"y": -1.8576595014,
				"z": -3.3430595155,
				"element": "H" 
			},
			{
				"x": -0.2881959104,
				"y": -0.8512693888,
				"z": -2.7241000781,
				"element": "H" 
			},
			{
				"x": 0.4040594396,
				"y": -2.1610721186,
				"z": -1.7113130192,
				"element": "H" 
			},
			{
				"x": -2.6773732321,
				"y": -3.0553743875,
				"z": 2.0751666224,
				"element": "H" 
			},
			{
				"x": -0.5717409506,
				"y": -4.342477718,
				"z": 2.6471156667,
				"element": "H" 
			},
			{
				"x": 1.617810135,
				"y": -3.3536779518,
				"z": 1.8453252214,
				"element": "H" 
			}
		],
		 "valence_orbital": [ 
			{
				"type": "occ",
				"energy": -0.3053,
				"method": "rhf"
			},
			{
				"type": "occ",
				"energy": -0.28232,
				"method": "rhf"
			},
			{
				"type": "occ",
				"energy": -0.27558,
				"method": "rhf"
			},
			{
				"type": "occ",
				"energy": -0.25447,
				"method": "rhf"
			},
			{
				"type": "occ",
				"energy": -0.23411,
				"method": "rhf"
			},
			{
				"type": "unocc",
				"energy": -0.07752,
				"method": "rhf"
			},
			{
				"type": "unocc",
				"energy": -0.06354,
				"method": "rhf"
			},
			{
				"type": "unocc",
				"energy": -0.04641,
				"method": "rhf"
			},
			{
				"type": "unocc",
				"energy": -0.0092,
				"method": "rhf"
			},
			{
				"type": "unocc",
				"energy": 0.01347,
				"method": "rhf"
			}
		],
		"cosmo_sigma_profile": { 
			"-0.025": 0.0,
			"-0.024": 0.0,
			"-0.023": 0.0,
			"-0.022": 0.0,
			"-0.021": 0.0,
			"-0.02": 0.0,
			"-0.019": 0.0,
			"-0.018": 0.0,
			"-0.017": 0.0,
			"-0.016": 0.0,
			"-0.015": 0.0,
			"-0.014": 0.0,
			"-0.013": 0.0,
			"-0.012": 0.0,
			"-0.011": 0.0,
			"-0.01": 0.0,
			"-0.009": 2.36661709967,
			"-0.008": 10.7525767946,
			"-0.007": 10.2955356715,
			"-0.006": 14.8353547631,
			"-0.005": 20.5187283778,
			"-0.004": 27.8360353001,
			"-0.003": 28.7905503878,
			"-0.002": 27.517933822,
			"-0.001": 26.4750347211,
			"0.0": 21.2174558211,
			"0.001": 15.3293195083,
			"0.002": 15.5010563113,
			"0.003": 13.4839312354,
			"0.004": 13.6723638455,
			"0.005": 11.176582511,
			"0.006": 9.0245310673,
			"0.007": 7.1080858671,
			"0.008": 7.33021679851,
			"0.009": 7.32459375733,
			"0.01": 7.41607070577,
			"0.011": 8.56440923439,
			"0.012": 3.91748851762,
			"0.013": 0.718401575853,
			"0.014": 0.0366495957529,
			"0.015": 0.0,
			"0.016": 0.0,
			"0.017": 0.0,
			"0.018": 0.0,
			"0.019": 0.0,
			"0.02": 0.0,
			"0.021": 0.0,
			"0.022": 0.0,
			"0.023": 0.0,
			"0.024": 0.0,
			"0.025": 0.0
		}
	}
}
