{
	 "smiles": "FC(F)(F)CNC(=O)NC(=O)CCCl", 
	 "Tm": 419.15, 
	 "num_atms": 22, 
	 "gaussian": { 
		 "optdone": 1, 
		 "sigma_profile": "yes", 
		 "theory": "DFT", 
		 "functional": "B3LYP", 
		 "basiset": "6-31G**", 
		 "properties": { 
			 "R2extent": 5038.9842, 
			 "electric_dipole_moment_norm": 5.32867270997, 
			 "electric_quadrupole_moment_norm": 12.7089412281, 
			 "total_energy": -1253.16678863, 
			 "HOMO_LUMO_gap": 0.24046, 
			 "cosmo_polarized_energy": -18.11, 
			 "cosmo_cavitation_energy": 29.96, 
			 "cosmo_dispersion_energy": -20.73, 
			 "cosmo_repulsion_energy": 1.62, 
			 "cosmo_total_nonelectrostatic_energy": 10.85, 
			 "SMD_solvation_energy": 6.41 
		},
		"coords": [
			{
				"x": 0.3415208374,
				"y": 1.867049017,
				"z": 1.2356217672,
				"element": "F" 
			},
			{
				"x": -0.4373783094,
				"y": 1.1796200241,
				"z": 2.0925720713,
				"element": "C" 
			},
			{
				"x": 0.0716050365,
				"y": 1.3196139208,
				"z": 3.3315070443,
				"element": "F" 
			},
			{
				"x": -1.6636617384,
				"y": 1.7420556305,
				"z": 2.0751212264,
				"element": "F" 
			},
			{
				"x": -0.5150538079,
				"y": -0.2970748574,
				"z": 1.7157056058,
				"element": "C" 
			},
			{
				"x": -1.0647846664,
				"y": -0.5147202462,
				"z": 0.3941400754,
				"element": "N" 
			},
			{
				"x": -0.4043981195,
				"y": -0.3515204008,
				"z": -0.8164260575,
				"element": "C" 
			},
			{
				"x": -1.0089230016,
				"y": -0.043068507,
				"z": -1.8304070009,
				"element": "O" 
			},
			{
				"x": 0.960251064,
				"y": -0.642728446,
				"z": -0.7822429757,
				"element": "N" 
			},
			{
				"x": 1.9302492945,
				"y": -0.4735750612,
				"z": -1.7835260594,
				"element": "C" 
			},
			{
				"x": 3.0380067834,
				"y": -0.937903214,
				"z": -1.5857308607,
				"element": "O" 
			},
			{
				"x": 1.5771746024,
				"y": 0.2832955833,
				"z": -3.0537503082,
				"element": "C" 
			},
			{
				"x": 1.0480926333,
				"y": -0.677033959,
				"z": -4.1218113315,
				"element": "C" 
			},
			{
				"x": 0.8268897767,
				"y": 0.1850392148,
				"z": -5.7029834668,
				"element": "Cl" 
			},
			{
				"x": -1.1446605727,
				"y": -0.7959723861,
				"z": 2.4574843866,
				"element": "H" 
			},
			{
				"x": 0.4867896389,
				"y": -0.7198063924,
				"z": 1.8114093964,
				"element": "H" 
			},
			{
				"x": -2.0412420719,
				"y": -0.2670433169,
				"z": 0.2888208699,
				"element": "H" 
			},
			{
				"x": 1.3423227241,
				"y": -1.1351276358,
				"z": 0.0152716961,
				"element": "H" 
			},
			{
				"x": 2.5114496736,
				"y": 0.7329546537,
				"z": -3.3967879507,
				"element": "H" 
			},
			{
				"x": 0.8339497195,
				"y": 1.0584079293,
				"z": -2.8664976417,
				"element": "H" 
			},
			{
				"x": 1.7503506283,
				"y": -1.4905928284,
				"z": -4.3081701518,
				"element": "H" 
			},
			{
				"x": 0.0718498752,
				"y": -1.0691687223,
				"z": -3.8414203346,
				"element": "H" 
			}
		],
		 "valence_orbital": [ 
			{
				"type": "occ",
				"energy": -0.29896,
				"method": "rhf"
			},
			{
				"type": "occ",
				"energy": -0.29786,
				"method": "rhf"
			},
			{
				"type": "occ",
				"energy": -0.29373,
				"method": "rhf"
			},
			{
				"type": "occ",
				"energy": -0.28714,
				"method": "rhf"
			},
			{
				"type": "occ",
				"energy": -0.27586,
				"method": "rhf"
			},
			{
				"type": "unocc",
				"energy": -0.0354,
				"method": "rhf"
			},
			{
				"type": "unocc",
				"energy": 0.02175,
				"method": "rhf"
			},
			{
				"type": "unocc",
				"energy": 0.03983,
				"method": "rhf"
			},
			{
				"type": "unocc",
				"energy": 0.05323,
				"method": "rhf"
			},
			{
				"type": "unocc",
				"energy": 0.06569,
				"method": "rhf"
			}
		],
		"cosmo_sigma_profile": { 
			"-0.025": 0.0,
			"-0.024": 0.0,
			"-0.023": 0.0,
			"-0.022": 0.0,
			"-0.021": 0.0,
			"-0.02": 0.0,
			"-0.019": 0.0,
			"-0.018": 0.0,
			"-0.017": 0.803315904995,
			"-0.016": 1.27690376862,
			"-0.015": 1.15807742433,
			"-0.014": 1.80342434396,
			"-0.013": 2.31445882956,
			"-0.012": 2.04920428397,
			"-0.011": 2.63346252065,
			"-0.01": 2.60092112614,
			"-0.009": 5.85649817195,
			"-0.008": 5.89586751054,
			"-0.007": 6.21523231668,
			"-0.006": 10.0315888857,
			"-0.005": 13.9114820358,
			"-0.004": 13.3858534271,
			"-0.003": 11.0911031259,
			"-0.002": 9.72706762747,
			"-0.001": 12.174204701,
			"0.0": 11.5383057225,
			"0.001": 15.3545784336,
			"0.002": 29.9165049749,
			"0.003": 23.1802877202,
			"0.004": 7.32249892726,
			"0.005": 10.2135618172,
			"0.006": 12.2686522077,
			"0.007": 4.18682640275,
			"0.008": 2.93480145716,
			"0.009": 2.03895981909,
			"0.01": 3.70523152536,
			"0.011": 5.2743597224,
			"0.012": 6.75513075449,
			"0.013": 2.06774025117,
			"0.014": 0.0,
			"0.015": 0.0,
			"0.016": 0.0,
			"0.017": 0.0,
			"0.018": 0.0,
			"0.019": 0.0,
			"0.02": 0.0,
			"0.021": 0.0,
			"0.022": 0.0,
			"0.023": 0.0,
			"0.024": 0.0,
			"0.025": 0.0
		}
	}
}
