{
	 "smiles": "CCN1C2=C(C=CC=C2)C2=C1C=CC(C=O)=C2", 
	 "Tm": 361.15, 
	 "num_atms": 30, 
	 "gaussian": { 
		 "optdone": 1, 
		 "sigma_profile": "yes", 
		 "theory": "DFT", 
		 "functional": "B3LYP", 
		 "basiset": "6-31G**", 
		 "properties": { 
			 "R2extent": 5438.1158, 
			 "electric_dipole_moment_norm": 5.2712622587, 
			 "electric_quadrupole_moment_norm": 31.2106166946, 
			 "total_energy": -709.431583115, 
			 "HOMO_LUMO_gap": 0.16494, 
			 "cosmo_polarized_energy": -11.72, 
			 "cosmo_cavitation_energy": 33.7, 
			 "cosmo_dispersion_energy": -23.92, 
			 "cosmo_repulsion_energy": 1.81, 
			 "cosmo_total_nonelectrostatic_energy": 11.59, 
			 "SMD_solvation_energy": 6.08 
		},
		"coords": [
			{
				"x": 2.6315434424,
				"y": -0.5962756246,
				"z": 0.8258556243,
				"element": "C" 
			},
			{
				"x": 1.8597742096,
				"y": -1.7690216606,
				"z": 0.2115979092,
				"element": "C" 
			},
			{
				"x": 0.5497576378,
				"y": -1.3935625787,
				"z": -0.301866183,
				"element": "N" 
			},
			{
				"x": -0.6294573363,
				"y": -1.3550489555,
				"z": 0.4432579348,
				"element": "C" 
			},
			{
				"x": -1.6844030624,
				"y": -0.8853377019,
				"z": -0.3819844835,
				"element": "C" 
			},
			{
				"x": -2.9758400531,
				"y": -0.7740116568,
				"z": 0.1451368763,
				"element": "C" 
			},
			{
				"x": -3.1964724256,
				"y": -1.124728806,
				"z": 1.4745049854,
				"element": "C" 
			},
			{
				"x": -2.1400552616,
				"y": -1.584192309,
				"z": 2.2795744281,
				"element": "C" 
			},
			{
				"x": -0.8446119668,
				"y": -1.7045004394,
				"z": 1.7794449501,
				"element": "C" 
			},
			{
				"x": -1.1019750259,
				"y": -0.6174994055,
				"z": -1.6808950341,
				"element": "C" 
			},
			{
				"x": 0.2822904966,
				"y": -0.938926839,
				"z": -1.580337814,
				"element": "C" 
			},
			{
				"x": 1.1547474768,
				"y": -0.7866762557,
				"z": -2.6704429168,
				"element": "C" 
			},
			{
				"x": 0.6266978104,
				"y": -0.318684236,
				"z": -3.8626440304,
				"element": "C" 
			},
			{
				"x": -0.745279964,
				"y": 0.001670071,
				"z": -3.9849724542,
				"element": "C" 
			},
			{
				"x": -1.272061065,
				"y": 0.4985919968,
				"z": -5.2671660488,
				"element": "C" 
			},
			{
				"x": -0.6120142737,
				"y": 0.6681010014,
				"z": -6.2779384205,
				"element": "O" 
			},
			{
				"x": -1.6071757329,
				"y": -0.1485694671,
				"z": -2.8924250135,
				"element": "C" 
			},
			{
				"x": 2.0772128883,
				"y": -0.1587205799,
				"z": 1.6611111713,
				"element": "H" 
			},
			{
				"x": 2.8033339643,
				"y": 0.1890978992,
				"z": 0.0841363228,
				"element": "H" 
			},
			{
				"x": 3.6033918223,
				"y": -0.9357577985,
				"z": 1.1983857683,
				"element": "H" 
			},
			{
				"x": 1.7132923889,
				"y": -2.5630172398,
				"z": 0.95069017,
				"element": "H" 
			},
			{
				"x": 2.4270451903,
				"y": -2.214602954,
				"z": -0.6112876588,
				"element": "H" 
			},
			{
				"x": -3.7946414058,
				"y": -0.417887938,
				"z": -0.4736861165,
				"element": "H" 
			},
			{
				"x": -4.193434739,
				"y": -1.0418671114,
				"z": 1.8961477705,
				"element": "H" 
			},
			{
				"x": -2.3341061239,
				"y": -1.849400653,
				"z": 3.3147351571,
				"element": "H" 
			},
			{
				"x": -0.0372052827,
				"y": -2.0550533527,
				"z": 2.4143310866,
				"element": "H" 
			},
			{
				"x": 2.2108808748,
				"y": -1.0225171362,
				"z": -2.5881454906,
				"element": "H" 
			},
			{
				"x": 1.2564615322,
				"y": -0.1830203032,
				"z": -4.7359812682,
				"element": "H" 
			},
			{
				"x": -2.3636787527,
				"y": 0.7214858074,
				"z": -5.2585917665,
				"element": "H" 
			},
			{
				"x": -2.6605172636,
				"y": 0.102634227,
				"z": -2.9970454551,
				"element": "H" 
			}
		],
		 "valence_orbital": [ 
			{
				"type": "occ",
				"energy": -0.28751,
				"method": "rhf"
			},
			{
				"type": "occ",
				"energy": -0.26092,
				"method": "rhf"
			},
			{
				"type": "occ",
				"energy": -0.2423,
				"method": "rhf"
			},
			{
				"type": "occ",
				"energy": -0.22225,
				"method": "rhf"
			},
			{
				"type": "occ",
				"energy": -0.21077,
				"method": "rhf"
			},
			{
				"type": "unocc",
				"energy": -0.04583,
				"method": "rhf"
			},
			{
				"type": "unocc",
				"energy": -0.03646,
				"method": "rhf"
			},
			{
				"type": "unocc",
				"energy": 0.00755,
				"method": "rhf"
			},
			{
				"type": "unocc",
				"energy": 0.02907,
				"method": "rhf"
			},
			{
				"type": "unocc",
				"energy": 0.06392,
				"method": "rhf"
			}
		],
		"cosmo_sigma_profile": { 
			"-0.025": 0.0,
			"-0.024": 0.0,
			"-0.023": 0.0,
			"-0.022": 0.0,
			"-0.021": 0.0,
			"-0.02": 0.0,
			"-0.019": 0.0,
			"-0.018": 0.0,
			"-0.017": 0.0,
			"-0.016": 0.0,
			"-0.015": 0.0,
			"-0.014": 0.0,
			"-0.013": 0.0,
			"-0.012": 0.0,
			"-0.011": 0.0,
			"-0.01": 0.0,
			"-0.009": 0.0,
			"-0.008": 0.473237790735,
			"-0.007": 7.66227289875,
			"-0.006": 16.4158103652,
			"-0.005": 20.1991698853,
			"-0.004": 23.8463938293,
			"-0.003": 27.7842572498,
			"-0.002": 20.7128769248,
			"-0.001": 18.0370468234,
			"0.0": 19.8828249376,
			"0.001": 18.164991406,
			"0.002": 17.6306531647,
			"0.003": 20.1947062772,
			"0.004": 20.6033874221,
			"0.005": 12.0978702147,
			"0.006": 8.26537423794,
			"0.007": 1.88827988246,
			"0.008": 1.29996534484,
			"0.009": 1.66165653547,
			"0.01": 2.0744019617,
			"0.011": 2.85679305535,
			"0.012": 4.76408568194,
			"0.013": 2.4217133186,
			"0.014": 0.463082795151,
			"0.015": 0.0,
			"0.016": 0.0,
			"0.017": 0.0,
			"0.018": 0.0,
			"0.019": 0.0,
			"0.02": 0.0,
			"0.021": 0.0,
			"0.022": 0.0,
			"0.023": 0.0,
			"0.024": 0.0,
			"0.025": 0.0
		}
	}
}
