{
	 "smiles": "COC(=O)C1=CN=C(Br)S1", 
	 "Tm": 336.15, 
	 "num_atms": 14, 
	 "gaussian": { 
		 "optdone": 1, 
		 "sigma_profile": "yes", 
		 "theory": "DFT", 
		 "functional": "B3LYP", 
		 "basiset": "6-31G**", 
		 "properties": { 
			 "R2extent": 3911.6494, 
			 "electric_dipole_moment_norm": 2.02107779167, 
			 "electric_quadrupole_moment_norm": 11.8807315928, 
			 "total_energy": -3367.71824409, 
			 "HOMO_LUMO_gap": 0.18522, 
			 "cosmo_polarized_energy": -7.29, 
			 "cosmo_cavitation_energy": 23.46, 
			 "cosmo_dispersion_energy": -18.28, 
			 "cosmo_repulsion_energy": 1.45, 
			 "cosmo_total_nonelectrostatic_energy": 6.62, 
			 "SMD_solvation_energy": 2.73 
		},
		"coords": [
			{
				"x": -1.8945454391,
				"y": -2.543545157,
				"z": -2.2009964093,
				"element": "C" 
			},
			{
				"x": -1.58536696,
				"y": -1.2162268182,
				"z": -1.7393719266,
				"element": "O" 
			},
			{
				"x": -0.3622530265,
				"y": -1.0723707653,
				"z": -1.1886579955,
				"element": "C" 
			},
			{
				"x": 0.4488425384,
				"y": -1.9702910266,
				"z": -1.0717533841,
				"element": "O" 
			},
			{
				"x": -0.1321743741,
				"y": 0.3117104985,
				"z": -0.7461398385,
				"element": "C" 
			},
			{
				"x": -0.9518471983,
				"y": 1.410540788,
				"z": -0.8167121272,
				"element": "C" 
			},
			{
				"x": -0.4447441755,
				"y": 2.5797804548,
				"z": -0.3109694346,
				"element": "N" 
			},
			{
				"x": 0.7542058335,
				"y": 2.3764032364,
				"z": 0.1430616828,
				"element": "C" 
			},
			{
				"x": 1.8055367812,
				"y": 3.7328418352,
				"z": 0.9254661049,
				"element": "Br" 
			},
			{
				"x": 1.380665052,
				"y": 0.7545539702,
				"z": 0.0015352262,
				"element": "S" 
			},
			{
				"x": -1.856939627,
				"y": -3.2555135875,
				"z": -1.3730065415,
				"element": "H" 
			},
			{
				"x": -2.902520184,
				"y": -2.4821465844,
				"z": -2.6097531582,
				"element": "H" 
			},
			{
				"x": -1.1847945472,
				"y": -2.8564809077,
				"z": -2.9705407144,
				"element": "H" 
			},
			{
				"x": -1.9488646733,
				"y": 1.3996440635,
				"z": -1.239261484,
				"element": "H" 
			}
		],
		 "valence_orbital": [ 
			{
				"type": "occ",
				"energy": -0.31229,
				"method": "rhf"
			},
			{
				"type": "occ",
				"energy": -0.31044,
				"method": "rhf"
			},
			{
				"type": "occ",
				"energy": -0.30418,
				"method": "rhf"
			},
			{
				"type": "occ",
				"energy": -0.28442,
				"method": "rhf"
			},
			{
				"type": "occ",
				"energy": -0.25943,
				"method": "rhf"
			},
			{
				"type": "unocc",
				"energy": -0.07421,
				"method": "rhf"
			},
			{
				"type": "unocc",
				"energy": -0.02325,
				"method": "rhf"
			},
			{
				"type": "unocc",
				"energy": -0.00103,
				"method": "rhf"
			},
			{
				"type": "unocc",
				"energy": 0.00788,
				"method": "rhf"
			},
			{
				"type": "unocc",
				"energy": 0.07724,
				"method": "rhf"
			}
		],
		"cosmo_sigma_profile": { 
			"-0.025": 0.0,
			"-0.024": 0.0,
			"-0.023": 0.0,
			"-0.022": 0.0,
			"-0.021": 0.0,
			"-0.02": 0.0,
			"-0.019": 0.0,
			"-0.018": 0.0,
			"-0.017": 0.0,
			"-0.016": 0.0,
			"-0.015": 0.0,
			"-0.014": 0.0,
			"-0.013": 0.0,
			"-0.012": 0.0,
			"-0.011": 0.0,
			"-0.01": 0.148104479707,
			"-0.009": 1.26736722053,
			"-0.008": 1.03721003817,
			"-0.007": 4.16971441685,
			"-0.006": 8.63906472647,
			"-0.005": 10.0976182118,
			"-0.004": 15.0239253897,
			"-0.003": 20.9884727477,
			"-0.002": 18.3271811979,
			"-0.001": 21.3002136524,
			"0.0": 19.827871798,
			"0.001": 15.6462111398,
			"0.002": 14.9631317882,
			"0.003": 9.85076382601,
			"0.004": 5.20779249233,
			"0.005": 4.88522840689,
			"0.006": 2.78099206017,
			"0.007": 3.66456181404,
			"0.008": 2.79365847973,
			"0.009": 2.28384028783,
			"0.01": 3.251446577,
			"0.011": 5.82268262319,
			"0.012": 1.8658112427,
			"0.013": 0.590883409047,
			"0.014": 0.0,
			"0.015": 0.0,
			"0.016": 0.0,
			"0.017": 0.0,
			"0.018": 0.0,
			"0.019": 0.0,
			"0.02": 0.0,
			"0.021": 0.0,
			"0.022": 0.0,
			"0.023": 0.0,
			"0.024": 0.0,
			"0.025": 0.0
		}
	}
}
