{
	 "smiles": "OCC1=CC=CC=C1N1CCOCC1", 
	 "Tm": 328.65, 
	 "num_atms": 29, 
	 "gaussian": { 
		 "optdone": 1, 
		 "sigma_profile": "yes", 
		 "theory": "DFT", 
		 "functional": "B3LYP", 
		 "basiset": "6-31G**", 
		 "properties": { 
			 "R2extent": 3243.5562, 
			 "electric_dipole_moment_norm": 2.45568586957, 
			 "electric_quadrupole_moment_norm": 9.41841893473, 
			 "total_energy": -633.365994682, 
			 "HOMO_LUMO_gap": 0.21489, 
			 "cosmo_polarized_energy": -11.08, 
			 "cosmo_cavitation_energy": 29.59, 
			 "cosmo_dispersion_energy": -21.74, 
			 "cosmo_repulsion_energy": 1.69, 
			 "cosmo_total_nonelectrostatic_energy": 9.54, 
			 "SMD_solvation_energy": 4.71 
		},
		"coords": [
			{
				"x": -0.9426513156,
				"y": -2.6368535691,
				"z": 1.0650631773,
				"element": "O" 
			},
			{
				"x": -0.9803250134,
				"y": -1.4305422648,
				"z": 1.8001482777,
				"element": "C" 
			},
			{
				"x": -0.7702171524,
				"y": -0.1789070195,
				"z": 0.9603246721,
				"element": "C" 
			},
			{
				"x": -1.5861080734,
				"y": 0.9388121112,
				"z": 1.167729067,
				"element": "C" 
			},
			{
				"x": -1.4320319377,
				"y": 2.107889393,
				"z": 0.4229575904,
				"element": "C" 
			},
			{
				"x": -0.4432838007,
				"y": 2.1706540097,
				"z": -0.5576744592,
				"element": "C" 
			},
			{
				"x": 0.3871315097,
				"y": 1.0712828798,
				"z": -0.7741264041,
				"element": "C" 
			},
			{
				"x": 0.2353693173,
				"y": -0.1056893519,
				"z": -0.0276643734,
				"element": "C" 
			},
			{
				"x": 1.0935676065,
				"y": -1.2480344619,
				"z": -0.2297231201,
				"element": "N" 
			},
			{
				"x": 2.2389780882,
				"y": -1.2882215755,
				"z": 0.7091904476,
				"element": "C" 
			},
			{
				"x": 3.2313563681,
				"y": -2.3561178626,
				"z": 0.2663897734,
				"element": "C" 
			},
			{
				"x": 3.8101273505,
				"y": -2.0753224413,
				"z": -1.0067561877,
				"element": "O" 
			},
			{
				"x": 2.9790411445,
				"y": -1.309784676,
				"z": -1.875930752,
				"element": "C" 
			},
			{
				"x": 1.4945602859,
				"y": -1.5643561203,
				"z": -1.6214317602,
				"element": "C" 
			},
			{
				"x": -0.1767013975,
				"y": -2.5326687938,
				"z": 0.4677198078,
				"element": "H" 
			},
			{
				"x": -1.9632134149,
				"y": -1.374184568,
				"z": 2.2807737894,
				"element": "H" 
			},
			{
				"x": -0.2382281367,
				"y": -1.4386553287,
				"z": 2.6216901234,
				"element": "H" 
			},
			{
				"x": -2.3698971815,
				"y": 0.8808543293,
				"z": 1.9192910723,
				"element": "H" 
			},
			{
				"x": -2.0860496515,
				"y": 2.9566679145,
				"z": 0.5996498213,
				"element": "H" 
			},
			{
				"x": -0.3107151631,
				"y": 3.0718959344,
				"z": -1.1492599534,
				"element": "H" 
			},
			{
				"x": 1.1667390748,
				"y": 1.133030108,
				"z": -1.5275028009,
				"element": "H" 
			},
			{
				"x": 1.8779610922,
				"y": -1.519749178,
				"z": 1.7174477379,
				"element": "H" 
			},
			{
				"x": 2.749283179,
				"y": -0.3135131589,
				"z": 0.7599031133,
				"element": "H" 
			},
			{
				"x": 4.0561765683,
				"y": -2.4179050066,
				"z": 0.9836619716,
				"element": "H" 
			},
			{
				"x": 2.7287783216,
				"y": -3.3359747214,
				"z": 0.2492285161,
				"element": "H" 
			},
			{
				"x": 3.2405705607,
				"y": -1.5986906769,
				"z": -2.8998681805,
				"element": "H" 
			},
			{
				"x": 3.2048486802,
				"y": -0.2370712951,
				"z": -1.7664956228,
				"element": "H" 
			},
			{
				"x": 1.2842673318,
				"y": -2.6236538805,
				"z": -1.8192143755,
				"element": "H" 
			},
			{
				"x": 0.8835657593,
				"y": -0.9856907291,
				"z": -2.3182209689,
				"element": "H" 
			}
		],
		 "valence_orbital": [ 
			{
				"type": "occ",
				"energy": -0.26291,
				"method": "rhf"
			},
			{
				"type": "occ",
				"energy": -0.2538,
				"method": "rhf"
			},
			{
				"type": "occ",
				"energy": -0.25082,
				"method": "rhf"
			},
			{
				"type": "occ",
				"energy": -0.24463,
				"method": "rhf"
			},
			{
				"type": "occ",
				"energy": -0.2222,
				"method": "rhf"
			},
			{
				"type": "unocc",
				"energy": -0.00731,
				"method": "rhf"
			},
			{
				"type": "unocc",
				"energy": -0.0066,
				"method": "rhf"
			},
			{
				"type": "unocc",
				"energy": 0.07114,
				"method": "rhf"
			},
			{
				"type": "unocc",
				"energy": 0.08294,
				"method": "rhf"
			},
			{
				"type": "unocc",
				"energy": 0.1021,
				"method": "rhf"
			}
		],
		"cosmo_sigma_profile": { 
			"-0.025": 0.0,
			"-0.024": 0.0,
			"-0.023": 0.0,
			"-0.022": 0.0,
			"-0.021": 0.0,
			"-0.02": 0.0,
			"-0.019": 0.0,
			"-0.018": 0.0,
			"-0.017": 0.0,
			"-0.016": 0.0,
			"-0.015": 0.0,
			"-0.014": 0.0,
			"-0.013": 0.0,
			"-0.012": 0.0,
			"-0.011": 0.0,
			"-0.01": 0.0,
			"-0.009": 0.0,
			"-0.008": 0.0,
			"-0.007": 0.464401712725,
			"-0.006": 8.04824832053,
			"-0.005": 25.0489233172,
			"-0.004": 36.3253020578,
			"-0.003": 31.9062501704,
			"-0.002": 23.0385474324,
			"-0.001": 16.1704915943,
			"0.0": 9.89857567128,
			"0.001": 10.0840820783,
			"0.002": 9.03168070082,
			"0.003": 8.90077871417,
			"0.004": 8.87493381603,
			"0.005": 11.3376615116,
			"0.006": 8.30012281572,
			"0.007": 2.77825680284,
			"0.008": 2.73457482655,
			"0.009": 2.07148753525,
			"0.01": 2.22738149832,
			"0.011": 3.07038526337,
			"0.012": 2.60886301792,
			"0.013": 2.85281562393,
			"0.014": 2.94486626521,
			"0.015": 2.56150851852,
			"0.016": 0.905422780887,
			"0.017": 0.0,
			"0.018": 0.0,
			"0.019": 0.0,
			"0.02": 0.0,
			"0.021": 0.0,
			"0.022": 0.0,
			"0.023": 0.0,
			"0.024": 0.0,
			"0.025": 0.0
		}
	}
}
