{
	 "smiles": "CC(C)(C)OC(=O)NC1=CC=C(CC2=NC(=CS2)C(O)=O)C=C1", 
	 "Tm": 438.15, 
	 "num_atms": 41, 
	 "gaussian": { 
		 "optdone": 1, 
		 "sigma_profile": "yes", 
		 "theory": "DFT", 
		 "functional": "B3LYP", 
		 "basiset": "6-31G**", 
		 "properties": { 
			 "R2extent": 16124.675, 
			 "electric_dipole_moment_norm": 6.31153125081, 
			 "electric_quadrupole_moment_norm": 54.6219787299, 
			 "total_energy": -1429.18944748, 
			 "HOMO_LUMO_gap": 0.17195, 
			 "cosmo_polarized_energy": -19.39, 
			 "cosmo_cavitation_energy": 47.16, 
			 "cosmo_dispersion_energy": -33.02, 
			 "cosmo_repulsion_energy": 2.48, 
			 "cosmo_total_nonelectrostatic_energy": 16.62, 
			 "SMD_solvation_energy": 8.88 
		},
		"coords": [
			{
				"x": -1.1324099678,
				"y": 3.0033472662,
				"z": -2.9447931279,
				"element": "C" 
			},
			{
				"x": -2.0347697943,
				"y": 1.9316112158,
				"z": -3.5607172512,
				"element": "C" 
			},
			{
				"x": -3.5114702008,
				"y": 2.303400803,
				"z": -3.398298842,
				"element": "C" 
			},
			{
				"x": -1.6523352252,
				"y": 1.6701640763,
				"z": -5.0203879507,
				"element": "C" 
			},
			{
				"x": -1.7230505866,
				"y": 0.74066174,
				"z": -2.7383239148,
				"element": "O" 
			},
			{
				"x": -2.3319780564,
				"y": -0.4329279845,
				"z": -2.9771324063,
				"element": "C" 
			},
			{
				"x": -3.1617961309,
				"y": -0.6589990017,
				"z": -3.8419382457,
				"element": "O" 
			},
			{
				"x": -1.925047047,
				"y": -1.4363952893,
				"z": -2.1153161466,
				"element": "N" 
			},
			{
				"x": -1.0194371854,
				"y": -1.5045875466,
				"z": -1.041963318,
				"element": "C" 
			},
			{
				"x": -0.2335157172,
				"y": -0.4384020072,
				"z": -0.5821203176,
				"element": "C" 
			},
			{
				"x": 0.6338880052,
				"y": -0.6313379576,
				"z": 0.493872584,
				"element": "C" 
			},
			{
				"x": 0.7512666593,
				"y": -1.8640874461,
				"z": 1.1415289599,
				"element": "C" 
			},
			{
				"x": 1.696938824,
				"y": -2.0534499548,
				"z": 2.3109944193,
				"element": "C" 
			},
			{
				"x": 1.0213635582,
				"y": -2.2239482239,
				"z": 3.6484861922,
				"element": "C" 
			},
			{
				"x": 1.4154176936,
				"y": -3.0530051476,
				"z": 4.5723198157,
				"element": "N" 
			},
			{
				"x": 0.6407093872,
				"y": -2.9549187655,
				"z": 5.7113002899,
				"element": "C" 
			},
			{
				"x": -0.3693060393,
				"y": -2.0365121322,
				"z": 5.6643764086,
				"element": "C" 
			},
			{
				"x": -0.3728143559,
				"y": -1.2521959958,
				"z": 4.1274618763,
				"element": "S" 
			},
			{
				"x": 0.9459911746,
				"y": -3.8371642055,
				"z": 6.8743027353,
				"element": "C" 
			},
			{
				"x": 1.993697178,
				"y": -4.6616397325,
				"z": 6.6672302844,
				"element": "O" 
			},
			{
				"x": 0.3208778132,
				"y": -3.8227574928,
				"z": 7.9095301293,
				"element": "O" 
			},
			{
				"x": -0.0375592238,
				"y": -2.9245824934,
				"z": 0.6729066688,
				"element": "C" 
			},
			{
				"x": -0.9049616532,
				"y": -2.7509461665,
				"z": -0.3964195117,
				"element": "C" 
			},
			{
				"x": -1.3759991514,
				"y": 3.1564474016,
				"z": -1.8892945127,
				"element": "H" 
			},
			{
				"x": -0.079577228,
				"y": 2.716185852,
				"z": -3.0223224628,
				"element": "H" 
			},
			{
				"x": -1.2693845271,
				"y": 3.9526969233,
				"z": -3.4705901625,
				"element": "H" 
			},
			{
				"x": -3.7065165633,
				"y": 3.2499322032,
				"z": -3.9125576072,
				"element": "H" 
			},
			{
				"x": -4.1586400671,
				"y": 1.534039218,
				"z": -3.8193624004,
				"element": "H" 
			},
			{
				"x": -3.7566608638,
				"y": 2.4358756233,
				"z": -2.3398395395,
				"element": "H" 
			},
			{
				"x": -2.2810601603,
				"y": 0.8948658707,
				"z": -5.458146841,
				"element": "H" 
			},
			{
				"x": -1.7733744675,
				"y": 2.5919575142,
				"z": -5.5983940764,
				"element": "H" 
			},
			{
				"x": -0.6045554526,
				"y": 1.3614343328,
				"z": -5.0901614635,
				"element": "H" 
			},
			{
				"x": -2.4119495029,
				"y": -2.2949302404,
				"z": -2.3321522051,
				"element": "H" 
			},
			{
				"x": -0.297417499,
				"y": 0.5269119223,
				"z": -1.0607261402,
				"element": "H" 
			},
			{
				"x": 1.2383837932,
				"y": 0.2081271491,
				"z": 0.8293224276,
				"element": "H" 
			},
			{
				"x": 2.3260644509,
				"y": -2.9392947924,
				"z": 2.1728076544,
				"element": "H" 
			},
			{
				"x": 2.3776314045,
				"y": -1.1947682933,
				"z": 2.3719536404,
				"element": "H" 
			},
			{
				"x": -1.0891042798,
				"y": -1.8140585189,
				"z": 6.4384238117,
				"element": "H" 
			},
			{
				"x": 2.3297202669,
				"y": -4.4876567756,
				"z": 5.7678125934,
				"element": "H" 
			},
			{
				"x": 0.0276966236,
				"y": -3.8991835214,
				"z": 1.1500191694,
				"element": "H" 
			},
			{
				"x": -1.5040558858,
				"y": -3.5897094266,
				"z": -0.7429912168,
				"element": "H" 
			}
		],
		 "valence_orbital": [ 
			{
				"type": "occ",
				"energy": -0.27908,
				"method": "rhf"
			},
			{
				"type": "occ",
				"energy": -0.26859,
				"method": "rhf"
			},
			{
				"type": "occ",
				"energy": -0.26753,
				"method": "rhf"
			},
			{
				"type": "occ",
				"energy": -0.26012,
				"method": "rhf"
			},
			{
				"type": "occ",
				"energy": -0.2261,
				"method": "rhf"
			},
			{
				"type": "unocc",
				"energy": -0.05415,
				"method": "rhf"
			},
			{
				"type": "unocc",
				"energy": -0.02371,
				"method": "rhf"
			},
			{
				"type": "unocc",
				"energy": -0.02216,
				"method": "rhf"
			},
			{
				"type": "unocc",
				"energy": -0.00894,
				"method": "rhf"
			},
			{
				"type": "unocc",
				"energy": 0.00802,
				"method": "rhf"
			}
		],
		"cosmo_sigma_profile": { 
			"-0.025": 0.0,
			"-0.024": 0.0,
			"-0.023": 0.0,
			"-0.022": 0.0,
			"-0.021": 0.0,
			"-0.02": 0.0,
			"-0.019": 0.0,
			"-0.018": 0.0,
			"-0.017": 0.0,
			"-0.016": 0.0,
			"-0.015": 0.3399072944,
			"-0.014": 1.3900854102,
			"-0.013": 1.43405004778,
			"-0.012": 2.12256226549,
			"-0.011": 1.8929012069,
			"-0.01": 2.74964451299,
			"-0.009": 3.42662499247,
			"-0.008": 3.62278643088,
			"-0.007": 5.71566244101,
			"-0.006": 15.4800398125,
			"-0.005": 16.5932866633,
			"-0.004": 27.2857180329,
			"-0.003": 30.6090370218,
			"-0.002": 29.970635229,
			"-0.001": 38.7105935503,
			"0.0": 48.064888527,
			"0.001": 35.2703038573,
			"0.002": 22.2339330449,
			"0.003": 16.387099702,
			"0.004": 15.0209983276,
			"0.005": 13.3868093541,
			"0.006": 6.60186938193,
			"0.007": 3.59535183025,
			"0.008": 3.3691511065,
			"0.009": 4.88061601274,
			"0.01": 6.62249635448,
			"0.011": 6.52421702302,
			"0.012": 7.33151714012,
			"0.013": 5.06677463807,
			"0.014": 0.430495922011,
			"0.015": 0.0,
			"0.016": 0.0,
			"0.017": 0.0,
			"0.018": 0.0,
			"0.019": 0.0,
			"0.02": 0.0,
			"0.021": 0.0,
			"0.022": 0.0,
			"0.023": 0.0,
			"0.024": 0.0,
			"0.025": 0.0
		}
	}
}
