{
	 "smiles": "ClC1=CC(Cl)=C(C=C1)N=C=S", 
	 "Tm": 311.15, 
	 "num_atms": 14, 
	 "gaussian": { 
		 "optdone": 1, 
		 "sigma_profile": "yes", 
		 "theory": "DFT", 
		 "functional": "B3LYP", 
		 "basiset": "6-31G**", 
		 "properties": { 
			 "R2extent": 3807.2995, 
			 "electric_dipole_moment_norm": 2.56484844192, 
			 "electric_quadrupole_moment_norm": 13.8495823536, 
			 "total_energy": -1641.8666781, 
			 "HOMO_LUMO_gap": 0.17367, 
			 "cosmo_polarized_energy": -5.51, 
			 "cosmo_cavitation_energy": 25.73, 
			 "cosmo_dispersion_energy": -19.27, 
			 "cosmo_repulsion_energy": 1.53, 
			 "cosmo_total_nonelectrostatic_energy": 7.99, 
			 "SMD_solvation_energy": 4.45 
		},
		"coords": [
			{
				"x": 1.9226915724,
				"y": 0.8157967616,
				"z": 2.7878577076,
				"element": "Cl" 
			},
			{
				"x": 1.3100948128,
				"y": 0.2875718527,
				"z": 1.2353060897,
				"element": "C" 
			},
			{
				"x": -0.058666744,
				"y": 0.3689296069,
				"z": 0.9822484235,
				"element": "C" 
			},
			{
				"x": -0.5489843924,
				"y": -0.0503492264,
				"z": -0.2516292584,
				"element": "C" 
			},
			{
				"x": -2.2593890889,
				"y": 0.050181242,
				"z": -0.5709399102,
				"element": "Cl" 
			},
			{
				"x": 0.3238227378,
				"y": -0.5535926674,
				"z": -1.2402761573,
				"element": "C" 
			},
			{
				"x": 1.6989028075,
				"y": -0.6225482379,
				"z": -0.9541272905,
				"element": "C" 
			},
			{
				"x": 2.1947711891,
				"y": -0.2059364325,
				"z": 0.2748371842,
				"element": "C" 
			},
			{
				"x": -0.1456841369,
				"y": -0.9659025483,
				"z": -2.4510705457,
				"element": "N" 
			},
			{
				"x": -0.5600005187,
				"y": -1.3346636871,
				"z": -3.5023317,
				"element": "C" 
			},
			{
				"x": -1.1036341653,
				"y": -1.8275540934,
				"z": -4.9118877159,
				"element": "S" 
			},
			{
				"x": -0.7387487019,
				"y": 0.752959135,
				"z": 1.7324782954,
				"element": "H" 
			},
			{
				"x": 2.3671677946,
				"y": -1.0092526482,
				"z": -1.7155307961,
				"element": "H" 
			},
			{
				"x": 3.2558568338,
				"y": -0.262439057,
				"z": 0.4876656739,
				"element": "H" 
			}
		],
		 "valence_orbital": [ 
			{
				"type": "occ",
				"energy": -0.33065,
				"method": "rhf"
			},
			{
				"type": "occ",
				"energy": -0.29587,
				"method": "rhf"
			},
			{
				"type": "occ",
				"energy": -0.27983,
				"method": "rhf"
			},
			{
				"type": "occ",
				"energy": -0.26232,
				"method": "rhf"
			},
			{
				"type": "occ",
				"energy": -0.23931,
				"method": "rhf"
			},
			{
				"type": "unocc",
				"energy": -0.06564,
				"method": "rhf"
			},
			{
				"type": "unocc",
				"energy": -0.04309,
				"method": "rhf"
			},
			{
				"type": "unocc",
				"energy": -0.0086,
				"method": "rhf"
			},
			{
				"type": "unocc",
				"energy": -0.00619,
				"method": "rhf"
			},
			{
				"type": "unocc",
				"energy": 0.02916,
				"method": "rhf"
			}
		],
		"cosmo_sigma_profile": { 
			"-0.025": 0.0,
			"-0.024": 0.0,
			"-0.023": 0.0,
			"-0.022": 0.0,
			"-0.021": 0.0,
			"-0.02": 0.0,
			"-0.019": 0.0,
			"-0.018": 0.0,
			"-0.017": 0.0,
			"-0.016": 0.0,
			"-0.015": 0.0,
			"-0.014": 0.0,
			"-0.013": 0.0,
			"-0.012": 0.0,
			"-0.011": 0.0,
			"-0.01": 0.0190287196524,
			"-0.009": 3.14959392393,
			"-0.008": 5.89633006706,
			"-0.007": 5.73185038664,
			"-0.006": 5.60223756867,
			"-0.005": 4.78044480144,
			"-0.004": 6.2265020636,
			"-0.003": 10.8735983988,
			"-0.002": 20.1590127917,
			"-0.001": 23.8625667998,
			"0.0": 30.3102966897,
			"0.001": 23.9259742939,
			"0.002": 18.9881586595,
			"0.003": 21.6226557519,
			"0.004": 17.6296468633,
			"0.005": 12.8785290652,
			"0.006": 5.05897565626,
			"0.007": 0.0,
			"0.008": 0.0,
			"0.009": 0.0,
			"0.01": 0.0,
			"0.011": 0.0,
			"0.012": 0.0,
			"0.013": 0.0,
			"0.014": 0.0,
			"0.015": 0.0,
			"0.016": 0.0,
			"0.017": 0.0,
			"0.018": 0.0,
			"0.019": 0.0,
			"0.02": 0.0,
			"0.021": 0.0,
			"0.022": 0.0,
			"0.023": 0.0,
			"0.024": 0.0,
			"0.025": 0.0
		}
	}
}
