{
	 "smiles": "[O-][N+](=O)C1=CC=C(C=C1)C1=CSN=N1", 
	 "Tm": 482.15, 
	 "num_atms": 19, 
	 "gaussian": { 
		 "optdone": 1, 
		 "sigma_profile": "yes", 
		 "theory": "DFT", 
		 "functional": "B3LYP", 
		 "basiset": "6-31G**", 
		 "properties": { 
			 "R2extent": 5022.649, 
			 "electric_dipole_moment_norm": 4.67660819077, 
			 "electric_quadrupole_moment_norm": 13.6851280549, 
			 "total_energy": -1020.6115181, 
			 "HOMO_LUMO_gap": 0.15933, 
			 "cosmo_polarized_energy": -13.05, 
			 "cosmo_cavitation_energy": 26.72, 
			 "cosmo_dispersion_energy": -20.43, 
			 "cosmo_repulsion_energy": 1.52, 
			 "cosmo_total_nonelectrostatic_energy": 7.8, 
			 "SMD_solvation_energy": 5.17 
		},
		"coords": [
			{
				"x": 4.6228029375,
				"y": 0.2151532304,
				"z": 0.0742297796,
				"element": "O" 
			},
			{
				"x": 3.5946971177,
				"y": -0.4538065078,
				"z": 0.1718633726,
				"element": "N" 
			},
			{
				"x": 3.5607754672,
				"y": -1.6563727138,
				"z": 0.4331570055,
				"element": "O" 
			},
			{
				"x": 2.312404854,
				"y": 0.2332145425,
				"z": -0.0389514988,
				"element": "C" 
			},
			{
				"x": 2.3110253915,
				"y": 1.5944706328,
				"z": -0.3365355883,
				"element": "C" 
			},
			{
				"x": 1.0951694348,
				"y": 2.2379655665,
				"z": -0.5345921182,
				"element": "C" 
			},
			{
				"x": -0.1169649723,
				"y": 1.5300438058,
				"z": -0.4371057029,
				"element": "C" 
			},
			{
				"x": -0.0797227099,
				"y": 0.1567729186,
				"z": -0.1351475522,
				"element": "C" 
			},
			{
				"x": 1.1294141673,
				"y": -0.4968404832,
				"z": 0.0647719913,
				"element": "C" 
			},
			{
				"x": -1.3912683841,
				"y": 2.2345003966,
				"z": -0.6512989241,
				"element": "C" 
			},
			{
				"x": -2.672596425,
				"y": 1.7256065814,
				"z": -0.6018248984,
				"element": "C" 
			},
			{
				"x": -3.7964835628,
				"y": 2.958935212,
				"z": -0.9239228624,
				"element": "S" 
			},
			{
				"x": -2.5043802529,
				"y": 4.1370057227,
				"z": -1.1185412285,
				"element": "N" 
			},
			{
				"x": -1.3776032306,
				"y": 3.5857129673,
				"z": -0.9447335525,
				"element": "N" 
			},
			{
				"x": 3.2520796282,
				"y": 2.1251800379,
				"z": -0.4080820134,
				"element": "H" 
			},
			{
				"x": 1.0693669666,
				"y": 3.295948425,
				"z": -0.7670335696,
				"element": "H" 
			},
			{
				"x": -1.000058343,
				"y": -0.4121513786,
				"z": -0.054098035,
				"element": "H" 
			},
			{
				"x": 1.174262621,
				"y": -1.5531262888,
				"z": 0.2978127703,
				"element": "H" 
			},
			{
				"x": -2.9744207052,
				"y": 0.7091873328,
				"z": -0.395167375,
				"element": "H" 
			}
		],
		 "valence_orbital": [ 
			{
				"type": "occ",
				"energy": -0.31066,
				"method": "rhf"
			},
			{
				"type": "occ",
				"energy": -0.29422,
				"method": "rhf"
			},
			{
				"type": "occ",
				"energy": -0.2864,
				"method": "rhf"
			},
			{
				"type": "occ",
				"energy": -0.2807,
				"method": "rhf"
			},
			{
				"type": "occ",
				"energy": -0.26007,
				"method": "rhf"
			},
			{
				"type": "unocc",
				"energy": -0.10074,
				"method": "rhf"
			},
			{
				"type": "unocc",
				"energy": -0.07542,
				"method": "rhf"
			},
			{
				"type": "unocc",
				"energy": -0.03327,
				"method": "rhf"
			},
			{
				"type": "unocc",
				"energy": -0.03024,
				"method": "rhf"
			},
			{
				"type": "unocc",
				"energy": -0.02932,
				"method": "rhf"
			}
		],
		"cosmo_sigma_profile": { 
			"-0.025": 0.0,
			"-0.024": 0.0,
			"-0.023": 0.0,
			"-0.022": 0.0,
			"-0.021": 0.0,
			"-0.02": 0.0,
			"-0.019": 0.0,
			"-0.018": 0.0,
			"-0.017": 0.0,
			"-0.016": 0.0,
			"-0.015": 0.0,
			"-0.014": 0.0,
			"-0.013": 0.122556285098,
			"-0.012": 2.26879944294,
			"-0.011": 3.07264610638,
			"-0.01": 1.88492936854,
			"-0.009": 2.74337193945,
			"-0.008": 4.06663672284,
			"-0.007": 7.24242737053,
			"-0.006": 9.0010972964,
			"-0.005": 9.15988310599,
			"-0.004": 10.1747911172,
			"-0.003": 13.942362532,
			"-0.002": 17.7536588269,
			"-0.001": 29.6544802611,
			"0.0": 23.4637173131,
			"0.001": 19.2855308645,
			"0.002": 9.64815640687,
			"0.003": 4.8946347136,
			"0.004": 3.18499342443,
			"0.005": 5.04944963373,
			"0.006": 6.24792244823,
			"0.007": 10.1008607253,
			"0.008": 10.7297050133,
			"0.009": 8.01353952436,
			"0.01": 4.96154428295,
			"0.011": 1.59129447398,
			"0.012": 0.796170642259,
			"0.013": 0.0234079430607,
			"0.014": 0.0,
			"0.015": 0.0,
			"0.016": 0.0,
			"0.017": 0.0,
			"0.018": 0.0,
			"0.019": 0.0,
			"0.02": 0.0,
			"0.021": 0.0,
			"0.022": 0.0,
			"0.023": 0.0,
			"0.024": 0.0,
			"0.025": 0.0
		}
	}
}
