{
	 "smiles": "NC(CCS(O)(=O)=O)C(O)=O", 
	 "Tm": 546.15, 
	 "num_atms": 20, 
	 "gaussian": { 
		 "optdone": 1, 
		 "sigma_profile": "yes", 
		 "theory": "DFT", 
		 "functional": "B3LYP", 
		 "basiset": "6-31G**", 
		 "properties": { 
			 "R2extent": 3199.5664, 
			 "electric_dipole_moment_norm": 3.43801283447, 
			 "electric_quadrupole_moment_norm": 33.052242599, 
			 "total_energy": -986.855690833, 
			 "HOMO_LUMO_gap": 0.26437, 
			 "cosmo_polarized_energy": -25.89, 
			 "cosmo_cavitation_energy": 25.23, 
			 "cosmo_dispersion_energy": -19.03, 
			 "cosmo_repulsion_energy": 1.52, 
			 "cosmo_total_nonelectrostatic_energy": 7.72, 
			 "SMD_solvation_energy": 3.92 
		},
		"coords": [
			{
				"x": -0.8633194876,
				"y": -3.5585551695,
				"z": 0.5728833051,
				"element": "N" 
			},
			{
				"x": 0.0839972964,
				"y": -2.4395268502,
				"z": 0.4474794267,
				"element": "C" 
			},
			{
				"x": 0.0010538832,
				"y": -1.5774323481,
				"z": -0.8260705247,
				"element": "C" 
			},
			{
				"x": -1.2886423665,
				"y": -0.7608846934,
				"z": -0.9239895536,
				"element": "C" 
			},
			{
				"x": -1.4559407332,
				"y": 0.0940189585,
				"z": -2.5068333025,
				"element": "S" 
			},
			{
				"x": -0.1297157879,
				"y": 1.064912227,
				"z": -2.4798697748,
				"element": "O" 
			},
			{
				"x": -2.6292081027,
				"y": 0.9654744733,
				"z": -2.4558692619,
				"element": "O" 
			},
			{
				"x": -1.2623782272,
				"y": -0.8694335455,
				"z": -3.5816368876,
				"element": "O" 
			},
			{
				"x": 0.0079137681,
				"y": -1.582292209,
				"z": 1.7320144264,
				"element": "C" 
			},
			{
				"x": -0.4708275958,
				"y": -2.2482551606,
				"z": 2.7901999397,
				"element": "O" 
			},
			{
				"x": 0.3745957954,
				"y": -0.4303648206,
				"z": 1.7805749686,
				"element": "O" 
			},
			{
				"x": -1.8026956261,
				"y": -3.2901932172,
				"z": 0.2892609018,
				"element": "H" 
			},
			{
				"x": -0.5873226163,
				"y": -4.346351948,
				"z": -0.0050423708,
				"element": "H" 
			},
			{
				"x": 1.0877154732,
				"y": -2.8842169602,
				"z": 0.4670320244,
				"element": "H" 
			},
			{
				"x": 0.8493211749,
				"y": -0.8888237919,
				"z": -0.8279299606,
				"element": "H" 
			},
			{
				"x": 0.0937333472,
				"y": -2.2267656974,
				"z": -1.7021830088,
				"element": "H" 
			},
			{
				"x": -1.3442187403,
				"y": 0.0041591926,
				"z": -0.1468806677,
				"element": "H" 
			},
			{
				"x": -2.1919499687,
				"y": -1.3794190067,
				"z": -0.8781219281,
				"element": "H" 
			},
			{
				"x": -0.4524610897,
				"y": 1.9776035895,
				"z": -2.3917770446,
				"element": "H" 
			},
			{
				"x": -0.7430503966,
				"y": -3.1272530224,
				"z": 2.4376592929,
				"element": "H" 
			}
		],
		 "valence_orbital": [ 
			{
				"type": "occ",
				"energy": -0.32699,
				"method": "rhf"
			},
			{
				"type": "occ",
				"energy": -0.31817,
				"method": "rhf"
			},
			{
				"type": "occ",
				"energy": -0.31395,
				"method": "rhf"
			},
			{
				"type": "occ",
				"energy": -0.30563,
				"method": "rhf"
			},
			{
				"type": "occ",
				"energy": -0.27107,
				"method": "rhf"
			},
			{
				"type": "unocc",
				"energy": -0.0067,
				"method": "rhf"
			},
			{
				"type": "unocc",
				"energy": 0.02461,
				"method": "rhf"
			},
			{
				"type": "unocc",
				"energy": 0.04875,
				"method": "rhf"
			},
			{
				"type": "unocc",
				"energy": 0.05895,
				"method": "rhf"
			},
			{
				"type": "unocc",
				"energy": 0.07505,
				"method": "rhf"
			}
		],
		"cosmo_sigma_profile": { 
			"-0.025": 0.0,
			"-0.024": 0.0,
			"-0.023": 0.0,
			"-0.022": 0.0,
			"-0.021": 0.0,
			"-0.02": 0.555479589508,
			"-0.019": 1.00120728042,
			"-0.018": 0.749178837371,
			"-0.017": 0.689050194332,
			"-0.016": 0.268373420764,
			"-0.015": 1.20004885234,
			"-0.014": 1.09285352934,
			"-0.013": 3.15847630615,
			"-0.012": 4.28798470741,
			"-0.011": 5.06655432915,
			"-0.01": 7.08856715264,
			"-0.009": 7.08802295104,
			"-0.008": 10.0446955239,
			"-0.007": 10.1398249737,
			"-0.006": 9.76893539703,
			"-0.005": 9.1773697199,
			"-0.004": 7.4351800373,
			"-0.003": 6.29264514182,
			"-0.002": 6.07691726957,
			"-0.001": 6.17123903975,
			"0.0": 6.26157396875,
			"0.001": 6.07368968687,
			"0.002": 5.58553752754,
			"0.003": 5.71536078442,
			"0.004": 5.43973761806,
			"0.005": 6.13963941537,
			"0.006": 6.766448908,
			"0.007": 6.77512473371,
			"0.008": 6.82704879939,
			"0.009": 10.6108196538,
			"0.01": 17.101979362,
			"0.011": 10.1414123729,
			"0.012": 4.6947400016,
			"0.013": 2.1215441057,
			"0.014": 0.231929123481,
			"0.015": 0.0,
			"0.016": 0.0,
			"0.017": 0.0,
			"0.018": 0.0,
			"0.019": 0.0,
			"0.02": 0.0,
			"0.021": 0.0,
			"0.022": 0.0,
			"0.023": 0.0,
			"0.024": 0.0,
			"0.025": 0.0
		}
	}
}
