{
	 "smiles": "CCC(C)C1(CC)C(=O)NC(=S)NC1=O", 
	 "Tm": 442.15, 
	 "num_atms": 31, 
	 "gaussian": { 
		 "optdone": 1, 
		 "sigma_profile": "yes", 
		 "theory": "DFT", 
		 "functional": "B3LYP", 
		 "basiset": "6-31G**", 
		 "properties": { 
			 "R2extent": 4346.1308, 
			 "electric_dipole_moment_norm": 1.87188056243, 
			 "electric_quadrupole_moment_norm": 10.360173681, 
			 "total_energy": -1048.89636183, 
			 "HOMO_LUMO_gap": 0.16131, 
			 "cosmo_polarized_energy": -13.71, 
			 "cosmo_cavitation_energy": 32.99, 
			 "cosmo_dispersion_energy": -23.77, 
			 "cosmo_repulsion_energy": 1.81, 
			 "cosmo_total_nonelectrostatic_energy": 11.03, 
			 "SMD_solvation_energy": 5.46 
		},
		"coords": [
			{
				"x": 2.9594502729,
				"y": 1.5632842556,
				"z": -0.479877807,
				"element": "C" 
			},
			{
				"x": 2.4223208707,
				"y": 0.7427766379,
				"z": 0.7015416072,
				"element": "C" 
			},
			{
				"x": 1.8701123105,
				"y": -0.6846023756,
				"z": 0.4302142612,
				"element": "C" 
			},
			{
				"x": 2.731416559,
				"y": -1.4522910837,
				"z": -0.5872448514,
				"element": "C" 
			},
			{
				"x": 0.3281652659,
				"y": -0.8223292828,
				"z": 0.0997277085,
				"element": "C" 
			},
			{
				"x": -0.5926497409,
				"y": -0.0142503389,
				"z": 1.0860374218,
				"element": "C" 
			},
			{
				"x": -0.3829479069,
				"y": -0.2443373352,
				"z": 2.5852833546,
				"element": "C" 
			},
			{
				"x": -0.0086646208,
				"y": -0.2789601251,
				"z": -1.2922944469,
				"element": "C" 
			},
			{
				"x": 0.121875072,
				"y": 0.8904751155,
				"z": -1.6024477432,
				"element": "O" 
			},
			{
				"x": -0.5243158306,
				"y": -1.1667021501,
				"z": -2.238078498,
				"element": "N" 
			},
			{
				"x": -0.8690671884,
				"y": -2.4847584509,
				"z": -2.0668801793,
				"element": "C" 
			},
			{
				"x": -1.5386852247,
				"y": -3.4057397593,
				"z": -3.2711722691,
				"element": "S" 
			},
			{
				"x": -0.6139336617,
				"y": -2.9702610533,
				"z": -0.8084740608,
				"element": "N" 
			},
			{
				"x": -0.0043307491,
				"y": -2.3121229638,
				"z": 0.2612055607,
				"element": "C" 
			},
			{
				"x": 0.2279904356,
				"y": -2.9400165498,
				"z": 1.2779508017,
				"element": "O" 
			},
			{
				"x": 3.3631284506,
				"y": 2.5111630929,
				"z": -0.108159265,
				"element": "H" 
			},
			{
				"x": 2.1804016639,
				"y": 1.7912205895,
				"z": -1.2073631309,
				"element": "H" 
			},
			{
				"x": 3.7760153497,
				"y": 1.0475324043,
				"z": -0.9951733942,
				"element": "H" 
			},
			{
				"x": 1.6738147426,
				"y": 1.3359229912,
				"z": 1.2355453599,
				"element": "H" 
			},
			{
				"x": 3.2462061395,
				"y": 0.6062330153,
				"z": 1.4148675606,
				"element": "H" 
			},
			{
				"x": 1.9494710458,
				"y": -1.2227490673,
				"z": 1.3796215128,
				"element": "H" 
			},
			{
				"x": 3.7851231195,
				"y": -1.4112448316,
				"z": -0.2943519536,
				"element": "H" 
			},
			{
				"x": 2.6577831629,
				"y": -1.0311646231,
				"z": -1.5951411565,
				"element": "H" 
			},
			{
				"x": 2.4537020711,
				"y": -2.5099896501,
				"z": -0.6387049159,
				"element": "H" 
			},
			{
				"x": -1.6351796629,
				"y": -0.2453496634,
				"z": 0.8298936439,
				"element": "H" 
			},
			{
				"x": -0.4516571918,
				"y": 1.0412017647,
				"z": 0.839029811,
				"element": "H" 
			},
			{
				"x": -1.1035966152,
				"y": 0.3641078058,
				"z": 3.1413754499,
				"element": "H" 
			},
			{
				"x": -0.5281473386,
				"y": -1.2895649347,
				"z": 2.8627018792,
				"element": "H" 
			},
			{
				"x": 0.6175670378,
				"y": 0.0533496853,
				"z": 2.910528411,
				"element": "H" 
			},
			{
				"x": -0.7370754475,
				"y": -0.7627498189,
				"z": -3.1433546773,
				"element": "H" 
			},
			{
				"x": -0.8328923908,
				"y": -3.9476833005,
				"z": -0.6518059948,
				"element": "H" 
			}
		],
		 "valence_orbital": [ 
			{
				"type": "occ",
				"energy": -0.30897,
				"method": "rhf"
			},
			{
				"type": "occ",
				"energy": -0.29399,
				"method": "rhf"
			},
			{
				"type": "occ",
				"energy": -0.28693,
				"method": "rhf"
			},
			{
				"type": "occ",
				"energy": -0.25696,
				"method": "rhf"
			},
			{
				"type": "occ",
				"energy": -0.24101,
				"method": "rhf"
			},
			{
				"type": "unocc",
				"energy": -0.0797,
				"method": "rhf"
			},
			{
				"type": "unocc",
				"energy": -0.01736,
				"method": "rhf"
			},
			{
				"type": "unocc",
				"energy": 0.02001,
				"method": "rhf"
			},
			{
				"type": "unocc",
				"energy": 0.0481,
				"method": "rhf"
			},
			{
				"type": "unocc",
				"energy": 0.0749,
				"method": "rhf"
			}
		],
		"cosmo_sigma_profile": { 
			"-0.025": 0.0,
			"-0.024": 0.0,
			"-0.023": 0.0,
			"-0.022": 0.0,
			"-0.021": 0.0,
			"-0.02": 0.0,
			"-0.019": 0.0,
			"-0.018": 0.0,
			"-0.017": 0.0734239559755,
			"-0.016": 1.09255154577,
			"-0.015": 1.99853695964,
			"-0.014": 1.24795735786,
			"-0.013": 1.39412220028,
			"-0.012": 1.39228550574,
			"-0.011": 2.11071604432,
			"-0.01": 2.59249950244,
			"-0.009": 1.79096266111,
			"-0.008": 3.06856431275,
			"-0.007": 4.50160991612,
			"-0.006": 4.67941396974,
			"-0.005": 7.6181127214,
			"-0.004": 15.4220317696,
			"-0.003": 26.8312636854,
			"-0.002": 30.0004443472,
			"-0.001": 26.3743877664,
			"0.0": 26.6346511433,
			"0.001": 19.4353490021,
			"0.002": 13.6596193701,
			"0.003": 8.40622344987,
			"0.004": 7.50967820421,
			"0.005": 7.45412378808,
			"0.006": 9.56633395781,
			"0.007": 8.79850870203,
			"0.008": 8.2283639088,
			"0.009": 7.03828522965,
			"0.01": 4.97293448019,
			"0.011": 6.02403122903,
			"0.012": 0.910646124094,
			"0.013": 0.0,
			"0.014": 0.0,
			"0.015": 0.0,
			"0.016": 0.0,
			"0.017": 0.0,
			"0.018": 0.0,
			"0.019": 0.0,
			"0.02": 0.0,
			"0.021": 0.0,
			"0.022": 0.0,
			"0.023": 0.0,
			"0.024": 0.0,
			"0.025": 0.0
		}
	}
}
