{
	 "smiles": "CCCCCCCCC(=O)C1=CC=C(C=C1)N=NC1=CC=C(OCC)C=C1", 
	 "Tm": 358.65, 
	 "num_atms": 57, 
	 "gaussian": { 
		 "optdone": 1, 
		 "sigma_profile": "yes", 
		 "theory": "DFT", 
		 "functional": "B3LYP", 
		 "basiset": "6-31G**", 
		 "properties": { 
			 "R2extent": 31149.222, 
			 "electric_dipole_moment_norm": 5.71709545836, 
			 "electric_quadrupole_moment_norm": 30.0811207635, 
			 "total_energy": -1154.46708178, 
			 "HOMO_LUMO_gap": 0.12841, 
			 "cosmo_polarized_energy": -12.56, 
			 "cosmo_cavitation_energy": 60.21, 
			 "cosmo_dispersion_energy": -42.45, 
			 "cosmo_repulsion_energy": 3.28, 
			 "cosmo_total_nonelectrostatic_energy": 21.04, 
			 "SMD_solvation_energy": 8.72 
		},
		"coords": [
			{
				"x": -5.0645586801,
				"y": -3.1041274817,
				"z": -6.2857288984,
				"element": "C" 
			},
			{
				"x": -4.3197890873,
				"y": -4.2054092255,
				"z": -5.5236169146,
				"element": "C" 
			},
			{
				"x": -4.708949379,
				"y": -4.2747193846,
				"z": -4.040345726,
				"element": "C" 
			},
			{
				"x": -4.051105952,
				"y": -5.423022382,
				"z": -3.2547159518,
				"element": "C" 
			},
			{
				"x": -2.5170747434,
				"y": -5.37244981,
				"z": -3.1395925728,
				"element": "C" 
			},
			{
				"x": -1.9741369714,
				"y": -4.1608520547,
				"z": -2.3697241496,
				"element": "C" 
			},
			{
				"x": -0.4483049528,
				"y": -4.1987260633,
				"z": -2.2050422553,
				"element": "C" 
			},
			{
				"x": 0.1259135945,
				"y": -2.991435956,
				"z": -1.4555251658,
				"element": "C" 
			},
			{
				"x": -0.1496346961,
				"y": -3.0051134267,
				"z": 0.0464857389,
				"element": "C" 
			},
			{
				"x": -0.6915514893,
				"y": -3.964528486,
				"z": 0.5785162173,
				"element": "O" 
			},
			{
				"x": 0.2760621903,
				"y": -1.8261643647,
				"z": 0.8709776514,
				"element": "C" 
			},
			{
				"x": 0.0073310236,
				"y": -1.8528055476,
				"z": 2.2487487086,
				"element": "C" 
			},
			{
				"x": 0.3815086974,
				"y": -0.7902572932,
				"z": 3.0604555669,
				"element": "C" 
			},
			{
				"x": 1.035649179,
				"y": 0.3243842348,
				"z": 2.5130188258,
				"element": "C" 
			},
			{
				"x": 1.3112168548,
				"y": 0.3593495146,
				"z": 1.1347044775,
				"element": "C" 
			},
			{
				"x": 0.9331143235,
				"y": -0.7052871069,
				"z": 0.3281937531,
				"element": "C" 
			},
			{
				"x": 1.3713000652,
				"y": 1.3488957599,
				"z": 3.4319684864,
				"element": "N" 
			},
			{
				"x": 1.9563632752,
				"y": 2.344151925,
				"z": 2.9167994649,
				"element": "N" 
			},
			{
				"x": 2.2968794755,
				"y": 3.3702457339,
				"z": 3.8173347845,
				"element": "C" 
			},
			{
				"x": 2.0346183504,
				"y": 3.3515663406,
				"z": 5.2041879846,
				"element": "C" 
			},
			{
				"x": 2.4147840744,
				"y": 4.4175971008,
				"z": 5.9950989112,
				"element": "C" 
			},
			{
				"x": 3.0669665422,
				"y": 5.5329021452,
				"z": 5.4277975421,
				"element": "C" 
			},
			{
				"x": 3.3942144034,
				"y": 6.5208668731,
				"z": 6.2980182731,
				"element": "O" 
			},
			{
				"x": 4.0584554222,
				"y": 7.6892261128,
				"z": 5.8077273094,
				"element": "C" 
			},
			{
				"x": 4.2952196711,
				"y": 8.6103355924,
				"z": 6.9911073568,
				"element": "C" 
			},
			{
				"x": 3.3318972005,
				"y": 5.5607583995,
				"z": 4.0510601131,
				"element": "C" 
			},
			{
				"x": 2.9444431941,
				"y": 4.4802530793,
				"z": 3.2615617846,
				"element": "C" 
			},
			{
				"x": -4.7706962642,
				"y": -3.0751736682,
				"z": -7.3402917878,
				"element": "H" 
			},
			{
				"x": -4.8587278311,
				"y": -2.116658224,
				"z": -5.8564733626,
				"element": "H" 
			},
			{
				"x": -6.1489783094,
				"y": -3.259121115,
				"z": -6.2466036848,
				"element": "H" 
			},
			{
				"x": -3.238886797,
				"y": -4.0413989138,
				"z": -5.6194308325,
				"element": "H" 
			},
			{
				"x": -4.5212425337,
				"y": -5.1776389054,
				"z": -5.9946942875,
				"element": "H" 
			},
			{
				"x": -5.7994925116,
				"y": -4.388608348,
				"z": -3.9691524044,
				"element": "H" 
			},
			{
				"x": -4.4803748573,
				"y": -3.3128891968,
				"z": -3.5615450779,
				"element": "H" 
			},
			{
				"x": -4.4766153593,
				"y": -5.4446506307,
				"z": -2.2423057833,
				"element": "H" 
			},
			{
				"x": -4.3362521537,
				"y": -6.3754707992,
				"z": -3.7225742317,
				"element": "H" 
			},
			{
				"x": -2.0646236729,
				"y": -5.402248281,
				"z": -4.1403624246,
				"element": "H" 
			},
			{
				"x": -2.1807837272,
				"y": -6.2873509927,
				"z": -2.6335638856,
				"element": "H" 
			},
			{
				"x": -2.4405413974,
				"y": -4.1224418547,
				"z": -1.3783640717,
				"element": "H" 
			},
			{
				"x": -2.2538952766,
				"y": -3.2322143317,
				"z": -2.8865422886,
				"element": "H" 
			},
			{
				"x": -0.163792503,
				"y": -5.1126821137,
				"z": -1.6718934557,
				"element": "H" 
			},
			{
				"x": 0.0214104689,
				"y": -4.2476558549,
				"z": -3.1959719939,
				"element": "H" 
			},
			{
				"x": -0.2592458186,
				"y": -2.0542166474,
				"z": -1.8797854976,
				"element": "H" 
			},
			{
				"x": 1.2166677662,
				"y": -2.9433724132,
				"z": -1.5849731774,
				"element": "H" 
			},
			{
				"x": -0.4973106858,
				"y": -2.7225045298,
				"z": 2.6553620093,
				"element": "H" 
			},
			{
				"x": 0.1805725155,
				"y": -0.7937501679,
				"z": 4.1270736359,
				"element": "H" 
			},
			{
				"x": 1.8180722023,
				"y": 1.2254196151,
				"z": 0.7255907738,
				"element": "H" 
			},
			{
				"x": 1.1541724194,
				"y": -0.6633133246,
				"z": -0.7333622035,
				"element": "H" 
			},
			{
				"x": 1.5330453241,
				"y": 2.4893344126,
				"z": 5.6281774003,
				"element": "H" 
			},
			{
				"x": 2.2240917183,
				"y": 4.4261111063,
				"z": 7.063405658,
				"element": "H" 
			},
			{
				"x": 3.4344734627,
				"y": 8.1778680867,
				"z": 5.0468790613,
				"element": "H" 
			},
			{
				"x": 5.008004432,
				"y": 7.4039613039,
				"z": 5.3344400324,
				"element": "H" 
			},
			{
				"x": 4.9175487885,
				"y": 8.1190081654,
				"z": 7.7440370087,
				"element": "H" 
			},
			{
				"x": 4.8035375675,
				"y": 9.5212179707,
				"z": 6.6606970382,
				"element": "H" 
			},
			{
				"x": 3.3468025259,
				"y": 8.891449818,
				"z": 7.4570238868,
				"element": "H" 
			},
			{
				"x": 3.8311589766,
				"y": 6.4063098006,
				"z": 3.5943444869,
				"element": "H" 
			},
			{
				"x": 3.1379699451,
				"y": 4.4774458043,
				"z": 2.1934881437,
				"element": "H" 
			}
		],
		 "valence_orbital": [ 
			{
				"type": "occ",
				"energy": -0.2622,
				"method": "rhf"
			},
			{
				"type": "occ",
				"energy": -0.25758,
				"method": "rhf"
			},
			{
				"type": "occ",
				"energy": -0.24492,
				"method": "rhf"
			},
			{
				"type": "occ",
				"energy": -0.22624,
				"method": "rhf"
			},
			{
				"type": "occ",
				"energy": -0.21612,
				"method": "rhf"
			},
			{
				"type": "unocc",
				"energy": -0.08771,
				"method": "rhf"
			},
			{
				"type": "unocc",
				"energy": -0.03098,
				"method": "rhf"
			},
			{
				"type": "unocc",
				"energy": -0.00982,
				"method": "rhf"
			},
			{
				"type": "unocc",
				"energy": -0.00595,
				"method": "rhf"
			},
			{
				"type": "unocc",
				"energy": 0.0314,
				"method": "rhf"
			}
		],
		"cosmo_sigma_profile": { 
			"-0.025": 0.0,
			"-0.024": 0.0,
			"-0.023": 0.0,
			"-0.022": 0.0,
			"-0.021": 0.0,
			"-0.02": 0.0,
			"-0.019": 0.0,
			"-0.018": 0.0,
			"-0.017": 0.0,
			"-0.016": 0.0,
			"-0.015": 0.0,
			"-0.014": 0.0,
			"-0.013": 0.0,
			"-0.012": 0.0,
			"-0.011": 0.0,
			"-0.01": 0.0,
			"-0.009": 0.0,
			"-0.008": 0.00273231060226,
			"-0.007": 4.52310673012,
			"-0.006": 16.0793515032,
			"-0.005": 26.8006289752,
			"-0.004": 29.5340753898,
			"-0.003": 27.8865332007,
			"-0.002": 47.1976978238,
			"-0.001": 57.2859061361,
			"0.0": 61.1716372705,
			"0.001": 62.1688675987,
			"0.002": 52.597112652,
			"0.003": 35.4602740726,
			"0.004": 15.5813087068,
			"0.005": 8.6336243641,
			"0.006": 5.03510720196,
			"0.007": 6.34129772182,
			"0.008": 5.2327986268,
			"0.009": 3.18154531903,
			"0.01": 1.87074458978,
			"0.011": 2.51600731909,
			"0.012": 3.26315555792,
			"0.013": 0.69901081734,
			"0.014": 0.0,
			"0.015": 0.0,
			"0.016": 0.0,
			"0.017": 0.0,
			"0.018": 0.0,
			"0.019": 0.0,
			"0.02": 0.0,
			"0.021": 0.0,
			"0.022": 0.0,
			"0.023": 0.0,
			"0.024": 0.0,
			"0.025": 0.0
		}
	}
}
