{
	 "smiles": "COC(=O)C=C(CCl)OC", 
	 "Tm": 298.15, 
	 "num_atms": 19, 
	 "gaussian": { 
		 "optdone": 1, 
		 "sigma_profile": "yes", 
		 "theory": "DFT", 
		 "functional": "B3LYP", 
		 "basiset": "6-31G**", 
		 "properties": { 
			 "R2extent": 2697.792, 
			 "electric_dipole_moment_norm": 3.79541931017, 
			 "electric_quadrupole_moment_norm": 13.3818948012, 
			 "total_energy": -919.897628044, 
			 "HOMO_LUMO_gap": 0.19411, 
			 "cosmo_polarized_energy": -13.26, 
			 "cosmo_cavitation_energy": 25.11, 
			 "cosmo_dispersion_energy": -18.12, 
			 "cosmo_repulsion_energy": 1.51, 
			 "cosmo_total_nonelectrostatic_energy": 8.5, 
			 "SMD_solvation_energy": 6.77 
		},
		"coords": [
			{
				"x": 2.3186747175,
				"y": 1.7387747531,
				"z": 2.7079352201,
				"element": "C" 
			},
			{
				"x": 1.7601880786,
				"y": 1.0483259288,
				"z": 1.5817005776,
				"element": "O" 
			},
			{
				"x": 2.5715922086,
				"y": 0.9778323041,
				"z": 0.5027542645,
				"element": "C" 
			},
			{
				"x": 3.6893830783,
				"y": 1.4643691567,
				"z": 0.4786196085,
				"element": "O" 
			},
			{
				"x": 1.9990751688,
				"y": 0.2726281492,
				"z": -0.6561006299,
				"element": "C" 
			},
			{
				"x": 0.7926098981,
				"y": -0.3249114849,
				"z": -0.7998990126,
				"element": "C" 
			},
			{
				"x": 0.4330984601,
				"y": -0.9281778445,
				"z": -2.12905686,
				"element": "C" 
			},
			{
				"x": 0.3645627441,
				"y": -2.7575377485,
				"z": -2.0694761533,
				"element": "Cl" 
			},
			{
				"x": -0.0773558075,
				"y": -0.4104299145,
				"z": 0.2256183884,
				"element": "O" 
			},
			{
				"x": -1.4620703362,
				"y": -0.6653077626,
				"z": -0.018851587,
				"element": "C" 
			},
			{
				"x": 1.5525863748,
				"y": 1.7024670778,
				"z": 3.4828345615,
				"element": "H" 
			},
			{
				"x": 3.2333067424,
				"y": 1.2475342403,
				"z": 3.050268632,
				"element": "H" 
			},
			{
				"x": 2.5557931421,
				"y": 2.7748343464,
				"z": 2.4513414077,
				"element": "H" 
			},
			{
				"x": 2.6804511486,
				"y": 0.2410005548,
				"z": -1.4971720612,
				"element": "H" 
			},
			{
				"x": 1.181371183,
				"y": -0.673798544,
				"z": -2.8758929229,
				"element": "H" 
			},
			{
				"x": -0.5483354854,
				"y": -0.6097068028,
				"z": -2.4827267705,
				"element": "H" 
			},
			{
				"x": -1.6205931043,
				"y": -1.6281290618,
				"z": -0.512986025,
				"element": "H" 
			},
			{
				"x": -1.9169162421,
				"y": 0.1398887307,
				"z": -0.6083008147,
				"element": "H" 
			},
			{
				"x": -1.9279219695,
				"y": -0.6862560782,
				"z": 0.9666901766,
				"element": "H" 
			}
		],
		 "valence_orbital": [ 
			{
				"type": "occ",
				"energy": -0.31024,
				"method": "rhf"
			},
			{
				"type": "occ",
				"energy": -0.30793,
				"method": "rhf"
			},
			{
				"type": "occ",
				"energy": -0.28979,
				"method": "rhf"
			},
			{
				"type": "occ",
				"energy": -0.26292,
				"method": "rhf"
			},
			{
				"type": "occ",
				"energy": -0.24512,
				"method": "rhf"
			},
			{
				"type": "unocc",
				"energy": -0.05101,
				"method": "rhf"
			},
			{
				"type": "unocc",
				"energy": 0.02529,
				"method": "rhf"
			},
			{
				"type": "unocc",
				"energy": 0.07152,
				"method": "rhf"
			},
			{
				"type": "unocc",
				"energy": 0.08528,
				"method": "rhf"
			},
			{
				"type": "unocc",
				"energy": 0.09789,
				"method": "rhf"
			}
		],
		"cosmo_sigma_profile": { 
			"-0.025": 0.0,
			"-0.024": 0.0,
			"-0.023": 0.0,
			"-0.022": 0.0,
			"-0.021": 0.0,
			"-0.02": 0.0,
			"-0.019": 0.0,
			"-0.018": 0.0,
			"-0.017": 0.0,
			"-0.016": 0.0,
			"-0.015": 0.0,
			"-0.014": 0.0,
			"-0.013": 0.0,
			"-0.012": 0.0,
			"-0.011": 0.0,
			"-0.01": 1.45014063794,
			"-0.009": 5.79364373904,
			"-0.008": 5.70603973066,
			"-0.007": 7.68545465732,
			"-0.006": 12.828808731,
			"-0.005": 16.4052264133,
			"-0.004": 17.4345171467,
			"-0.003": 15.1898013366,
			"-0.002": 10.8331279823,
			"-0.001": 10.4005780654,
			"0.0": 10.0004438401,
			"0.001": 10.5524172838,
			"0.002": 12.4658352132,
			"0.003": 10.4870686149,
			"0.004": 9.61386730922,
			"0.005": 10.9706453359,
			"0.006": 7.96215804593,
			"0.007": 2.11480080495,
			"0.008": 3.00661533641,
			"0.009": 3.94203306927,
			"0.01": 2.55366471913,
			"0.011": 2.78702840757,
			"0.012": 5.65639491895,
			"0.013": 4.66518349874,
			"0.014": 0.483480796702,
			"0.015": 0.0,
			"0.016": 0.0,
			"0.017": 0.0,
			"0.018": 0.0,
			"0.019": 0.0,
			"0.02": 0.0,
			"0.021": 0.0,
			"0.022": 0.0,
			"0.023": 0.0,
			"0.024": 0.0,
			"0.025": 0.0
		}
	}
}
