{
	 "smiles": "NC(=O)CC(NC(=O)OCC1=CC=CC=C1)C(O)=O", 
	 "Tm": 435.15, 
	 "num_atms": 33, 
	 "gaussian": { 
		 "optdone": 1, 
		 "sigma_profile": "yes", 
		 "theory": "DFT", 
		 "functional": "B3LYP", 
		 "basiset": "6-31G**", 
		 "properties": { 
			 "R2extent": 5900.6098, 
			 "electric_dipole_moment_norm": 3.06113473568, 
			 "electric_quadrupole_moment_norm": 17.5011197125, 
			 "total_energy": -951.390590354, 
			 "HOMO_LUMO_gap": 0.2311, 
			 "cosmo_polarized_energy": -23.35, 
			 "cosmo_cavitation_energy": 37.72, 
			 "cosmo_dispersion_energy": -25.18, 
			 "cosmo_repulsion_energy": 1.97, 
			 "cosmo_total_nonelectrostatic_energy": 14.51, 
			 "SMD_solvation_energy": 8.19 
		},
		"coords": [
			{
				"x": -2.2196740312,
				"y": -3.6398763138,
				"z": 3.0031429695,
				"element": "N" 
			},
			{
				"x": -2.0426386134,
				"y": -3.8640436457,
				"z": 1.6662871969,
				"element": "C" 
			},
			{
				"x": -2.8915823547,
				"y": -4.3991268956,
				"z": 0.9650694914,
				"element": "O" 
			},
			{
				"x": -0.6715015968,
				"y": -3.4866621679,
				"z": 1.1053054292,
				"element": "C" 
			},
			{
				"x": -0.8269846343,
				"y": -2.842003104,
				"z": -0.2792686728,
				"element": "C" 
			},
			{
				"x": 0.3768338295,
				"y": -2.8922139111,
				"z": -1.098694352,
				"element": "N" 
			},
			{
				"x": 1.4308296718,
				"y": -2.0234930057,
				"z": -1.004648009,
				"element": "C" 
			},
			{
				"x": 2.3192104467,
				"y": -1.9227919317,
				"z": -1.829441867,
				"element": "O" 
			},
			{
				"x": 1.3561237621,
				"y": -1.3093861133,
				"z": 0.1535606984,
				"element": "O" 
			},
			{
				"x": 2.2478315438,
				"y": -0.1687967215,
				"z": 0.2479944588,
				"element": "C" 
			},
			{
				"x": 1.639738242,
				"y": 1.0480953834,
				"z": -0.4062103867,
				"element": "C" 
			},
			{
				"x": 0.634013061,
				"y": 1.7729466057,
				"z": 0.2491520796,
				"element": "C" 
			},
			{
				"x": 0.0369142363,
				"y": 2.872909087,
				"z": -0.3679097889,
				"element": "C" 
			},
			{
				"x": 0.4449867859,
				"y": 3.2626586929,
				"z": -1.6472220397,
				"element": "C" 
			},
			{
				"x": 1.4455870854,
				"y": 2.545873028,
				"z": -2.3055469796,
				"element": "C" 
			},
			{
				"x": 2.0370901718,
				"y": 1.4410273234,
				"z": -1.6897908927,
				"element": "C" 
			},
			{
				"x": -1.387549654,
				"y": -1.4211040627,
				"z": -0.134066122,
				"element": "C" 
			},
			{
				"x": -1.3431335058,
				"y": -0.7361896914,
				"z": -1.291700472,
				"element": "O" 
			},
			{
				"x": -1.8500187116,
				"y": -0.9716413227,
				"z": 0.8922907746,
				"element": "O" 
			},
			{
				"x": -1.6645700835,
				"y": -2.9331831996,
				"z": 3.4610639811,
				"element": "H" 
			},
			{
				"x": -3.1587682305,
				"y": -3.7766263862,
				"z": 3.3510557626,
				"element": "H" 
			},
			{
				"x": -0.1064571471,
				"y": -4.4166573908,
				"z": 0.9825207779,
				"element": "H" 
			},
			{
				"x": -0.1077366301,
				"y": -2.8332570292,
				"z": 1.7736937738,
				"element": "H" 
			},
			{
				"x": -1.5942407415,
				"y": -3.4221973784,
				"z": -0.8051014226,
				"element": "H" 
			},
			{
				"x": 0.3317861853,
				"y": -3.3653401046,
				"z": -1.9882434858,
				"element": "H" 
			},
			{
				"x": 3.2036598925,
				"y": -0.4334331714,
				"z": -0.2069184937,
				"element": "H" 
			},
			{
				"x": 2.3785939037,
				"y": -0.0208760422,
				"z": 1.3221339296,
				"element": "H" 
			},
			{
				"x": 0.311512436,
				"y": 1.4666555161,
				"z": 1.2410950657,
				"element": "H" 
			},
			{
				"x": -0.7371019845,
				"y": 3.4312258787,
				"z": 0.1514019173,
				"element": "H" 
			},
			{
				"x": -0.0142246092,
				"y": 4.1228834438,
				"z": -2.1260974884,
				"element": "H" 
			},
			{
				"x": 1.7632518757,
				"y": 2.8433811985,
				"z": -3.300729556,
				"element": "H" 
			},
			{
				"x": 2.7976536088,
				"y": 0.865618022,
				"z": -2.2086754111,
				"element": "H" 
			},
			{
				"x": -1.6547342102,
				"y": 0.1643254102,
				"z": -1.0987028667,
				"element": "H" 
			}
		],
		 "valence_orbital": [ 
			{
				"type": "occ",
				"energy": -0.27224,
				"method": "rhf"
			},
			{
				"type": "occ",
				"energy": -0.25983,
				"method": "rhf"
			},
			{
				"type": "occ",
				"energy": -0.25772,
				"method": "rhf"
			},
			{
				"type": "occ",
				"energy": -0.25444,
				"method": "rhf"
			},
			{
				"type": "occ",
				"energy": -0.2494,
				"method": "rhf"
			},
			{
				"type": "unocc",
				"energy": -0.0183,
				"method": "rhf"
			},
			{
				"type": "unocc",
				"energy": -0.00881,
				"method": "rhf"
			},
			{
				"type": "unocc",
				"energy": 0.00071,
				"method": "rhf"
			},
			{
				"type": "unocc",
				"energy": 0.02562,
				"method": "rhf"
			},
			{
				"type": "unocc",
				"energy": 0.04652,
				"method": "rhf"
			}
		],
		"cosmo_sigma_profile": { 
			"-0.025": 0.0,
			"-0.024": 0.0,
			"-0.023": 0.0,
			"-0.022": 0.0,
			"-0.021": 0.0,
			"-0.02": 0.0,
			"-0.019": 0.0,
			"-0.018": 0.0,
			"-0.017": 0.0461197117083,
			"-0.016": 0.336231770325,
			"-0.015": 1.66645832652,
			"-0.014": 3.40057946834,
			"-0.013": 4.08413873808,
			"-0.012": 4.18565339145,
			"-0.011": 4.331761753,
			"-0.01": 4.02509403662,
			"-0.009": 4.23051030642,
			"-0.008": 4.82897536743,
			"-0.007": 5.67543617116,
			"-0.006": 15.7831532466,
			"-0.005": 19.6445996588,
			"-0.004": 22.8740940704,
			"-0.003": 18.7404764213,
			"-0.002": 17.1061290177,
			"-0.001": 16.1621935112,
			"0.0": 15.5894416261,
			"0.001": 13.9569023147,
			"0.002": 16.1873643239,
			"0.003": 16.7383134255,
			"0.004": 17.8493712153,
			"0.005": 15.995252441,
			"0.006": 8.69026953828,
			"0.007": 6.22943474335,
			"0.008": 6.04244693167,
			"0.009": 4.71002813056,
			"0.01": 4.77132870735,
			"0.011": 6.50412524631,
			"0.012": 5.39318891178,
			"0.013": 8.12237480908,
			"0.014": 3.49049598476,
			"0.015": 0.247808792255,
			"0.016": 0.0,
			"0.017": 0.0,
			"0.018": 0.0,
			"0.019": 0.0,
			"0.02": 0.0,
			"0.021": 0.0,
			"0.022": 0.0,
			"0.023": 0.0,
			"0.024": 0.0,
			"0.025": 0.0
		}
	}
}
