{
	 "smiles": "NC1=NN=NN1C1=CC=CC=C1", 
	 "Tm": 433.15, 
	 "num_atms": 19, 
	 "gaussian": { 
		 "optdone": 1, 
		 "sigma_profile": "yes", 
		 "theory": "DFT", 
		 "functional": "B3LYP", 
		 "basiset": "6-31G**", 
		 "properties": { 
			 "R2extent": 2622.1159, 
			 "electric_dipole_moment_norm": 6.47042107903, 
			 "electric_quadrupole_moment_norm": 24.2997401842, 
			 "total_energy": -544.666885517, 
			 "HOMO_LUMO_gap": 0.20874, 
			 "cosmo_polarized_energy": -17.62, 
			 "cosmo_cavitation_energy": 23.64, 
			 "cosmo_dispersion_energy": -17.68, 
			 "cosmo_repulsion_energy": 1.4, 
			 "cosmo_total_nonelectrostatic_energy": 7.36, 
			 "SMD_solvation_energy": 2.36 
		},
		"coords": [
			{
				"x": 0.7519870697,
				"y": -2.4722049915,
				"z": 2.9703460975,
				"element": "N" 
			},
			{
				"x": -0.0732811705,
				"y": -2.7725226384,
				"z": 1.9122374957,
				"element": "C" 
			},
			{
				"x": -0.7353314599,
				"y": -3.9058690234,
				"z": 1.752443289,
				"element": "N" 
			},
			{
				"x": -1.3802840211,
				"y": -3.7890851753,
				"z": 0.5588380698,
				"element": "N" 
			},
			{
				"x": -1.1540946557,
				"y": -2.6577524292,
				"z": -0.0024713294,
				"element": "N" 
			},
			{
				"x": -0.3009230893,
				"y": -1.9717616922,
				"z": 0.8378783694,
				"element": "N" 
			},
			{
				"x": 0.1453560243,
				"y": -0.6574432858,
				"z": 0.5329390704,
				"element": "C" 
			},
			{
				"x": -0.7243234292,
				"y": 0.2167949914,
				"z": -0.1282618138,
				"element": "C" 
			},
			{
				"x": -0.2898332408,
				"y": 1.5034548749,
				"z": -0.4384311201,
				"element": "C" 
			},
			{
				"x": 0.9945485883,
				"y": 1.9237306436,
				"z": -0.0827563174,
				"element": "C" 
			},
			{
				"x": 1.854662825,
				"y": 1.0428082906,
				"z": 0.5736836956,
				"element": "C" 
			},
			{
				"x": 1.4407264301,
				"y": -0.2550928284,
				"z": 0.8772344236,
				"element": "C" 
			},
			{
				"x": 0.6197769766,
				"y": -3.1146971132,
				"z": 3.7411730371,
				"element": "H" 
			},
			{
				"x": 0.7581676343,
				"y": -1.5015886843,
				"z": 3.2574477935,
				"element": "H" 
			},
			{
				"x": -1.7171436121,
				"y": -0.1249626495,
				"z": -0.3963484773,
				"element": "H" 
			},
			{
				"x": -0.9615824065,
				"y": 2.182403598,
				"z": -0.9548352283,
				"element": "H" 
			},
			{
				"x": 1.3239147788,
				"y": 2.9303173008,
				"z": -0.3212557216,
				"element": "H" 
			},
			{
				"x": 2.8595025905,
				"y": 1.3569117505,
				"z": 0.8395198231,
				"element": "H" 
			},
			{
				"x": 2.1192541678,
				"y": -0.9545409387,
				"z": 1.3536188432,
				"element": "H" 
			}
		],
		 "valence_orbital": [ 
			{
				"type": "occ",
				"energy": -0.28711,
				"method": "rhf"
			},
			{
				"type": "occ",
				"energy": -0.2787,
				"method": "rhf"
			},
			{
				"type": "occ",
				"energy": -0.27381,
				"method": "rhf"
			},
			{
				"type": "occ",
				"energy": -0.25989,
				"method": "rhf"
			},
			{
				"type": "occ",
				"energy": -0.24674,
				"method": "rhf"
			},
			{
				"type": "unocc",
				"energy": -0.038,
				"method": "rhf"
			},
			{
				"type": "unocc",
				"energy": -0.02573,
				"method": "rhf"
			},
			{
				"type": "unocc",
				"energy": 0.01187,
				"method": "rhf"
			},
			{
				"type": "unocc",
				"energy": 0.04781,
				"method": "rhf"
			},
			{
				"type": "unocc",
				"energy": 0.06719,
				"method": "rhf"
			}
		],
		"cosmo_sigma_profile": { 
			"-0.025": 0.0,
			"-0.024": 0.0,
			"-0.023": 0.0,
			"-0.022": 0.0,
			"-0.021": 0.0,
			"-0.02": 0.0,
			"-0.019": 0.0,
			"-0.018": 0.0,
			"-0.017": 0.0,
			"-0.016": 0.0,
			"-0.015": 0.997659458871,
			"-0.014": 2.56585028881,
			"-0.013": 2.88488220016,
			"-0.012": 2.62506187895,
			"-0.011": 2.72067093275,
			"-0.01": 1.90760410719,
			"-0.009": 1.97318018511,
			"-0.008": 2.35552521447,
			"-0.007": 5.39714993323,
			"-0.006": 11.9718099368,
			"-0.005": 14.5363643427,
			"-0.004": 12.9356809387,
			"-0.003": 11.3416396802,
			"-0.002": 10.6846826631,
			"-0.001": 8.22983455543,
			"0.0": 10.3733164669,
			"0.001": 9.48277545142,
			"0.002": 11.5536267084,
			"0.003": 13.2903579722,
			"0.004": 11.7652402626,
			"0.005": 3.5426379832,
			"0.006": 3.54167718156,
			"0.007": 3.83750884468,
			"0.008": 5.39586206583,
			"0.009": 5.35106283496,
			"0.01": 4.82003534981,
			"0.011": 4.68490681845,
			"0.012": 3.49530154555,
			"0.013": 2.24952230747,
			"0.014": 2.58288165968,
			"0.015": 0.831020931676,
			"0.016": 0.246495445178,
			"0.017": 0.0,
			"0.018": 0.0,
			"0.019": 0.0,
			"0.02": 0.0,
			"0.021": 0.0,
			"0.022": 0.0,
			"0.023": 0.0,
			"0.024": 0.0,
			"0.025": 0.0
		}
	}
}
