{
	 "smiles": "FC(F)(F)COCC(F)(F)F", 
	 "Tm": 298.15, 
	 "num_atms": 15, 
	 "gaussian": { 
		 "optdone": 1, 
		 "sigma_profile": "yes", 
		 "theory": "DFT", 
		 "functional": "B3LYP", 
		 "basiset": "6-31G**", 
		 "properties": { 
			 "R2extent": 2870.4274, 
			 "electric_dipole_moment_norm": 3.18472966671, 
			 "electric_quadrupole_moment_norm": 7.74061744436, 
			 "total_energy": -829.091616917, 
			 "HOMO_LUMO_gap": 0.34969, 
			 "cosmo_polarized_energy": -7.61, 
			 "cosmo_cavitation_energy": 22.62, 
			 "cosmo_dispersion_energy": -15.27, 
			 "cosmo_repulsion_energy": 1.15, 
			 "cosmo_total_nonelectrostatic_energy": 8.5, 
			 "SMD_solvation_energy": 6.45 
		},
		"coords": [
			{
				"x": -1.9488075151,
				"y": -2.6570424433,
				"z": 0.6524052216,
				"element": "F" 
			},
			{
				"x": -1.4966625627,
				"y": -1.9604430699,
				"z": -0.4032037416,
				"element": "C" 
			},
			{
				"x": -2.2196988911,
				"y": -2.3240147712,
				"z": -1.4862189153,
				"element": "F" 
			},
			{
				"x": -0.2182207722,
				"y": -2.3111054585,
				"z": -0.6191167013,
				"element": "F" 
			},
			{
				"x": -1.64361701,
				"y": -0.4628685829,
				"z": -0.1958229084,
				"element": "C" 
			},
			{
				"x": -0.8879125279,
				"y": -0.0988351997,
				"z": 0.9321509682,
				"element": "O" 
			},
			{
				"x": -0.9554345898,
				"y": 1.2764732654,
				"z": 1.2148075049,
				"element": "C" 
			},
			{
				"x": -0.1069973731,
				"y": 1.5510331816,
				"z": 2.4444782365,
				"element": "C" 
			},
			{
				"x": 1.1801444353,
				"y": 1.2226242801,
				"z": 2.2459277541,
				"element": "F" 
			},
			{
				"x": -0.1637368073,
				"y": 2.8717820708,
				"z": 2.727824666,
				"element": "F" 
			},
			{
				"x": -0.5502547753,
				"y": 0.8754771089,
				"z": 3.5173923033,
				"element": "F" 
			},
			{
				"x": -2.7132514966,
				"y": -0.242182101,
				"z": -0.064987343,
				"element": "H" 
			},
			{
				"x": -1.2928918647,
				"y": 0.0416418483,
				"z": -1.1081859579,
				"element": "H" 
			},
			{
				"x": -1.9829825265,
				"y": 1.6033993287,
				"z": 1.4320774437,
				"element": "H" 
			},
			{
				"x": -0.562775723,
				"y": 1.8875605429,
				"z": 0.3887714691,
				"element": "H" 
			}
		],
		 "valence_orbital": [ 
			{
				"type": "occ",
				"energy": -0.40474,
				"method": "rhf"
			},
			{
				"type": "occ",
				"energy": -0.40465,
				"method": "rhf"
			},
			{
				"type": "occ",
				"energy": -0.3733,
				"method": "rhf"
			},
			{
				"type": "occ",
				"energy": -0.36077,
				"method": "rhf"
			},
			{
				"type": "occ",
				"energy": -0.29997,
				"method": "rhf"
			},
			{
				"type": "unocc",
				"energy": 0.04972,
				"method": "rhf"
			},
			{
				"type": "unocc",
				"energy": 0.09345,
				"method": "rhf"
			},
			{
				"type": "unocc",
				"energy": 0.1054,
				"method": "rhf"
			},
			{
				"type": "unocc",
				"energy": 0.12125,
				"method": "rhf"
			},
			{
				"type": "unocc",
				"energy": 0.12666,
				"method": "rhf"
			}
		],
		"cosmo_sigma_profile": { 
			"-0.025": 0.0,
			"-0.024": 0.0,
			"-0.023": 0.0,
			"-0.022": 0.0,
			"-0.021": 0.0,
			"-0.02": 0.0,
			"-0.019": 0.0,
			"-0.018": 0.0,
			"-0.017": 0.0,
			"-0.016": 0.0,
			"-0.015": 0.0,
			"-0.014": 0.0,
			"-0.013": 0.0,
			"-0.012": 0.0,
			"-0.011": 0.0,
			"-0.01": 0.0,
			"-0.009": 1.42084193341,
			"-0.008": 14.1301105703,
			"-0.007": 11.9057265204,
			"-0.006": 8.65855095182,
			"-0.005": 4.89722141126,
			"-0.004": 3.78480105208,
			"-0.003": 3.05895397661,
			"-0.002": 3.94458036722,
			"-0.001": 5.08624757994,
			"0.0": 7.17088533637,
			"0.001": 9.95946821467,
			"0.002": 41.2008681309,
			"0.003": 49.0311082468,
			"0.004": 5.3693537626,
			"0.005": 4.05974532012,
			"0.006": 2.83486910663,
			"0.007": 2.43870885569,
			"0.008": 0.755684018249,
			"0.009": 0.0,
			"0.01": 0.0,
			"0.011": 0.0,
			"0.012": 0.0,
			"0.013": 0.0,
			"0.014": 0.0,
			"0.015": 0.0,
			"0.016": 0.0,
			"0.017": 0.0,
			"0.018": 0.0,
			"0.019": 0.0,
			"0.02": 0.0,
			"0.021": 0.0,
			"0.022": 0.0,
			"0.023": 0.0,
			"0.024": 0.0,
			"0.025": 0.0
		}
	}
}
