{
	 "smiles": "CN1N=C(C=C1C(Cl)=O)C1=CC=CS1", 
	 "Tm": 387.15, 
	 "num_atms": 21, 
	 "gaussian": { 
		 "optdone": 1, 
		 "sigma_profile": "yes", 
		 "theory": "DFT", 
		 "functional": "B3LYP", 
		 "basiset": "6-31G**", 
		 "properties": { 
			 "R2extent": 5080.9932, 
			 "electric_dipole_moment_norm": 2.02676292891, 
			 "electric_quadrupole_moment_norm": 15.8484290379, 
			 "total_energy": -1390.25355312, 
			 "HOMO_LUMO_gap": 0.14176, 
			 "cosmo_polarized_energy": -9.11, 
			 "cosmo_cavitation_energy": 29.55, 
			 "cosmo_dispersion_energy": -22.18, 
			 "cosmo_repulsion_energy": 1.68, 
			 "cosmo_total_nonelectrostatic_energy": 9.05, 
			 "SMD_solvation_energy": 4.79 
		},
		"coords": [
			{
				"x": 1.2229751063,
				"y": -0.7027666904,
				"z": -2.076772806,
				"element": "C" 
			},
			{
				"x": 0.9664863399,
				"y": 0.0767815903,
				"z": -0.8682363388,
				"element": "N" 
			},
			{
				"x": 1.1693878939,
				"y": -0.5359642874,
				"z": 0.3030724953,
				"element": "N" 
			},
			{
				"x": 0.8759645807,
				"y": 0.3563994088,
				"z": 1.2684369482,
				"element": "C" 
			},
			{
				"x": 0.4738952131,
				"y": 1.5747681386,
				"z": 0.6951450529,
				"element": "C" 
			},
			{
				"x": 0.5393098802,
				"y": 1.3729579687,
				"z": -0.6817047624,
				"element": "C" 
			},
			{
				"x": 0.1942672175,
				"y": 2.4164062648,
				"z": -1.6437041568,
				"element": "C" 
			},
			{
				"x": 0.3324741369,
				"y": 1.9870581535,
				"z": -3.4135670566,
				"element": "Cl" 
			},
			{
				"x": -0.1674987386,
				"y": 3.5162937738,
				"z": -1.3448488318,
				"element": "O" 
			},
			{
				"x": 0.9945852874,
				"y": -0.0003146008,
				"z": 2.673372064,
				"element": "C" 
			},
			{
				"x": 0.736967361,
				"y": 0.7815252199,
				"z": 3.7758774973,
				"element": "C" 
			},
			{
				"x": 0.9611478824,
				"y": 0.104822239,
				"z": 5.009208111,
				"element": "C" 
			},
			{
				"x": 1.3866249661,
				"y": -1.1837295737,
				"z": 4.8326096386,
				"element": "C" 
			},
			{
				"x": 1.5221131383,
				"y": -1.5964941799,
				"z": 3.15455927,
				"element": "S" 
			},
			{
				"x": 1.5477055494,
				"y": -1.6830560898,
				"z": -1.7320963372,
				"element": "H" 
			},
			{
				"x": 2.0050192776,
				"y": -0.2390605272,
				"z": -2.679781066,
				"element": "H" 
			},
			{
				"x": 0.3174166701,
				"y": -0.7974492428,
				"z": -2.6778395388,
				"element": "H" 
			},
			{
				"x": 0.1723519233,
				"y": 2.4907074948,
				"z": 1.1783867921,
				"element": "H" 
			},
			{
				"x": 0.3975261603,
				"y": 1.8089728413,
				"z": 3.7066881388,
				"element": "H" 
			},
			{
				"x": 0.8117135542,
				"y": 0.5588093682,
				"z": 5.9820367787,
				"element": "H" 
			},
			{
				"x": 1.6295666,
				"y": -1.9181672698,
				"z": 5.5880581075,
				"element": "H" 
			}
		],
		 "valence_orbital": [ 
			{
				"type": "occ",
				"energy": -0.29916,
				"method": "rhf"
			},
			{
				"type": "occ",
				"energy": -0.29711,
				"method": "rhf"
			},
			{
				"type": "occ",
				"energy": -0.27871,
				"method": "rhf"
			},
			{
				"type": "occ",
				"energy": -0.25479,
				"method": "rhf"
			},
			{
				"type": "occ",
				"energy": -0.22,
				"method": "rhf"
			},
			{
				"type": "unocc",
				"energy": -0.07824,
				"method": "rhf"
			},
			{
				"type": "unocc",
				"energy": -0.03811,
				"method": "rhf"
			},
			{
				"type": "unocc",
				"energy": 0.00827,
				"method": "rhf"
			},
			{
				"type": "unocc",
				"energy": 0.03213,
				"method": "rhf"
			},
			{
				"type": "unocc",
				"energy": 0.04073,
				"method": "rhf"
			}
		],
		"cosmo_sigma_profile": { 
			"-0.025": 0.0,
			"-0.024": 0.0,
			"-0.023": 0.0,
			"-0.022": 0.0,
			"-0.021": 0.0,
			"-0.02": 0.0,
			"-0.019": 0.0,
			"-0.018": 0.0,
			"-0.017": 0.0,
			"-0.016": 0.0,
			"-0.015": 0.0,
			"-0.014": 0.0,
			"-0.013": 0.0,
			"-0.012": 0.0,
			"-0.011": 0.0,
			"-0.01": 0.0,
			"-0.009": 1.47602616003,
			"-0.008": 5.17329862846,
			"-0.007": 9.7927565515,
			"-0.006": 16.3377187217,
			"-0.005": 13.8797866803,
			"-0.004": 17.7723224144,
			"-0.003": 14.540138555,
			"-0.002": 13.6995524686,
			"-0.001": 16.4171564411,
			"0.0": 15.3449663954,
			"0.001": 16.8216632402,
			"0.002": 20.9258898907,
			"0.003": 20.3946464879,
			"0.004": 26.2059181115,
			"0.005": 12.5054527771,
			"0.006": 4.52548429315,
			"0.007": 4.90677334689,
			"0.008": 5.55131033185,
			"0.009": 4.48476408442,
			"0.01": 1.30428940127,
			"0.011": 0.195421729255,
			"0.012": 0.0,
			"0.013": 0.0,
			"0.014": 0.0,
			"0.015": 0.0,
			"0.016": 0.0,
			"0.017": 0.0,
			"0.018": 0.0,
			"0.019": 0.0,
			"0.02": 0.0,
			"0.021": 0.0,
			"0.022": 0.0,
			"0.023": 0.0,
			"0.024": 0.0,
			"0.025": 0.0
		}
	}
}
