{
	 "smiles": "CCC1=NC(C=O)=C2C=CC=CN12", 
	 "Tm": 377.15, 
	 "num_atms": 23, 
	 "gaussian": { 
		 "optdone": 1, 
		 "sigma_profile": "yes", 
		 "theory": "DFT", 
		 "functional": "B3LYP", 
		 "basiset": "6-31G**", 
		 "properties": { 
			 "R2extent": 3307.8663, 
			 "electric_dipole_moment_norm": 7.38003451618, 
			 "electric_quadrupole_moment_norm": 23.7666514804, 
			 "total_energy": -571.807282887, 
			 "HOMO_LUMO_gap": 0.15072, 
			 "cosmo_polarized_energy": -19.59, 
			 "cosmo_cavitation_energy": 27.28, 
			 "cosmo_dispersion_energy": -19.59, 
			 "cosmo_repulsion_energy": 1.54, 
			 "cosmo_total_nonelectrostatic_energy": 9.23, 
			 "SMD_solvation_energy": 4.21 
		},
		"coords": [
			{
				"x": -1.3643685777,
				"y": -1.4348740614,
				"z": 0.0033167662,
				"element": "C" 
			},
			{
				"x": -0.8022212811,
				"y": -0.7650409682,
				"z": 1.2723891156,
				"element": "C" 
			},
			{
				"x": 0.5392438124,
				"y": -0.1307926578,
				"z": 1.076820695,
				"element": "C" 
			},
			{
				"x": 1.6940184749,
				"y": -0.650315543,
				"z": 1.423907455,
				"element": "N" 
			},
			{
				"x": 2.6774013789,
				"y": 0.2288436042,
				"z": 1.0415501312,
				"element": "C" 
			},
			{
				"x": 4.1007097846,
				"y": 0.0052262445,
				"z": 1.2583291449,
				"element": "C" 
			},
			{
				"x": 4.5967804925,
				"y": -0.9702801726,
				"z": 1.7941759162,
				"element": "O" 
			},
			{
				"x": 2.1004802171,
				"y": 1.3513887593,
				"z": 0.4266951211,
				"element": "C" 
			},
			{
				"x": 2.5508166743,
				"y": 2.5625481386,
				"z": -0.1536009248,
				"element": "C" 
			},
			{
				"x": 1.639881215,
				"y": 3.452333523,
				"z": -0.6640721114,
				"element": "C" 
			},
			{
				"x": 0.2421069885,
				"y": 3.1625407416,
				"z": -0.6103566903,
				"element": "C" 
			},
			{
				"x": -0.1972062954,
				"y": 1.9980114817,
				"z": -0.0548975977,
				"element": "C" 
			},
			{
				"x": 0.7186391725,
				"y": 1.10324172,
				"z": 0.4555544035,
				"element": "N" 
			},
			{
				"x": -1.5049881746,
				"y": -0.7161745554,
				"z": -0.8109709802,
				"element": "H" 
			},
			{
				"x": -0.6823903175,
				"y": -2.2123812744,
				"z": -0.3516943901,
				"element": "H" 
			},
			{
				"x": -2.3335776492,
				"y": -1.8981295806,
				"z": 0.2118796784,
				"element": "H" 
			},
			{
				"x": -1.5181919394,
				"y": -0.0247056892,
				"z": 1.6540301225,
				"element": "H" 
			},
			{
				"x": -0.6749175179,
				"y": -1.5140613263,
				"z": 2.0580319808,
				"element": "H" 
			},
			{
				"x": 4.7455246418,
				"y": 0.8327844403,
				"z": 0.879638029,
				"element": "H" 
			},
			{
				"x": 3.6151511211,
				"y": 2.7666716295,
				"z": -0.1835340621,
				"element": "H" 
			},
			{
				"x": 1.9756111518,
				"y": 4.3820102612,
				"z": -1.1109542488,
				"element": "H" 
			},
			{
				"x": -0.4820356718,
				"y": 3.8628802377,
				"z": -1.0101820843,
				"element": "H" 
			},
			{
				"x": -1.2397677008,
				"y": 1.7168750476,
				"z": 0.0169445306,
				"element": "H" 
			}
		],
		 "valence_orbital": [ 
			{
				"type": "occ",
				"energy": -0.31795,
				"method": "rhf"
			},
			{
				"type": "occ",
				"energy": -0.27775,
				"method": "rhf"
			},
			{
				"type": "occ",
				"energy": -0.27661,
				"method": "rhf"
			},
			{
				"type": "occ",
				"energy": -0.23224,
				"method": "rhf"
			},
			{
				"type": "occ",
				"energy": -0.2094,
				"method": "rhf"
			},
			{
				"type": "unocc",
				"energy": -0.05868,
				"method": "rhf"
			},
			{
				"type": "unocc",
				"energy": -0.02789,
				"method": "rhf"
			},
			{
				"type": "unocc",
				"energy": 0.00406,
				"method": "rhf"
			},
			{
				"type": "unocc",
				"energy": 0.06606,
				"method": "rhf"
			},
			{
				"type": "unocc",
				"energy": 0.08451,
				"method": "rhf"
			}
		],
		"cosmo_sigma_profile": { 
			"-0.025": 0.0,
			"-0.024": 0.0,
			"-0.023": 0.0,
			"-0.022": 0.0,
			"-0.021": 0.0,
			"-0.02": 0.0,
			"-0.019": 0.0,
			"-0.018": 0.0,
			"-0.017": 0.0,
			"-0.016": 0.0,
			"-0.015": 0.0,
			"-0.014": 0.0,
			"-0.013": 0.0,
			"-0.012": 0.0,
			"-0.011": 0.0,
			"-0.01": 0.370906167944,
			"-0.009": 2.20436007992,
			"-0.008": 7.5493228271,
			"-0.007": 12.1394622413,
			"-0.006": 12.3004071056,
			"-0.005": 12.7092791457,
			"-0.004": 15.1477830972,
			"-0.003": 17.2106053476,
			"-0.002": 23.1932554655,
			"-0.001": 20.1461243288,
			"0.0": 19.9327336256,
			"0.001": 16.2308474963,
			"0.002": 12.8424577287,
			"0.003": 6.00592742637,
			"0.004": 2.96322375093,
			"0.005": 2.28870526846,
			"0.006": 2.48289672704,
			"0.007": 2.90658122815,
			"0.008": 1.86959714067,
			"0.009": 1.93008839808,
			"0.01": 2.42863524208,
			"0.011": 3.13508386035,
			"0.012": 4.80726263132,
			"0.013": 6.24335295733,
			"0.014": 3.49221932119,
			"0.015": 2.14507364452,
			"0.016": 1.76975976721,
			"0.017": 1.27164754978,
			"0.018": 0.193943442246,
			"0.019": 0.0,
			"0.02": 0.0,
			"0.021": 0.0,
			"0.022": 0.0,
			"0.023": 0.0,
			"0.024": 0.0,
			"0.025": 0.0
		}
	}
}
