{
	 "smiles": "OC(=O)CCC1=CC2=C(CCC(=O)N2)C=C1[N+]([O-])=O", 
	 "Tm": 531.15, 
	 "num_atms": 31, 
	 "gaussian": { 
		 "optdone": 1, 
		 "sigma_profile": "yes", 
		 "theory": "DFT", 
		 "functional": "B3LYP", 
		 "basiset": "6-31G**", 
		 "properties": { 
			 "R2extent": 5810.6501, 
			 "electric_dipole_moment_norm": 2.1801202398, 
			 "electric_quadrupole_moment_norm": 24.0468301853, 
			 "total_energy": -950.080067586, 
			 "HOMO_LUMO_gap": 0.15615, 
			 "cosmo_polarized_energy": -23.18, 
			 "cosmo_cavitation_energy": 35.11, 
			 "cosmo_dispersion_energy": -25.03, 
			 "cosmo_repulsion_energy": 1.93, 
			 "cosmo_total_nonelectrostatic_energy": 12.01, 
			 "SMD_solvation_energy": 8.71 
		},
		"coords": [
			{
				"x": 0.1996656227,
				"y": -1.8072229098,
				"z": -4.026631567,
				"element": "O" 
			},
			{
				"x": 0.5955640814,
				"y": -0.8446056362,
				"z": -3.1657136962,
				"element": "C" 
			},
			{
				"x": 1.6717869715,
				"y": -0.8568774921,
				"z": -2.6079645702,
				"element": "O" 
			},
			{
				"x": -0.4534783902,
				"y": 0.2356058114,
				"z": -2.9984170334,
				"element": "C" 
			},
			{
				"x": -1.2821529705,
				"y": 0.0960310162,
				"z": -1.6926905722,
				"element": "C" 
			},
			{
				"x": -0.454232245,
				"y": 0.2081372549,
				"z": -0.4258043109,
				"element": "C" 
			},
			{
				"x": -0.2003418037,
				"y": 1.4970879265,
				"z": 0.0542399153,
				"element": "C" 
			},
			{
				"x": 0.5588609657,
				"y": 1.7354709015,
				"z": 1.2032049385,
				"element": "C" 
			},
			{
				"x": 1.0763193444,
				"y": 0.657059986,
				"z": 1.9489406101,
				"element": "C" 
			},
			{
				"x": 1.8230766375,
				"y": 0.9624400696,
				"z": 3.225672283,
				"element": "C" 
			},
			{
				"x": 2.6128589314,
				"y": 2.2737048734,
				"z": 3.0990259865,
				"element": "C" 
			},
			{
				"x": 1.769179026,
				"y": 3.418097858,
				"z": 2.5607549252,
				"element": "C" 
			},
			{
				"x": 1.9282115222,
				"y": 4.5894326042,
				"z": 2.8521483102,
				"element": "O" 
			},
			{
				"x": 0.7970404096,
				"y": 3.0380190876,
				"z": 1.6420124759,
				"element": "N" 
			},
			{
				"x": 0.8266199854,
				"y": -0.6254151304,
				"z": 1.4924628917,
				"element": "C" 
			},
			{
				"x": 0.0857856326,
				"y": -0.8557771983,
				"z": 0.3256899136,
				"element": "C" 
			},
			{
				"x": -0.1007119081,
				"y": -2.2635762322,
				"z": -0.0383652043,
				"element": "N" 
			},
			{
				"x": 0.1916836927,
				"y": -3.1163031173,
				"z": 0.8014956454,
				"element": "O" 
			},
			{
				"x": -0.5386475538,
				"y": -2.5393720682,
				"z": -1.1599569564,
				"element": "O" 
			},
			{
				"x": 0.8972972867,
				"y": -2.4841999534,
				"z": -4.0173751453,
				"element": "H" 
			},
			{
				"x": 0.0737408415,
				"y": 1.1942693668,
				"z": -2.9898293176,
				"element": "H" 
			},
			{
				"x": -1.1379095693,
				"y": 0.2193349804,
				"z": -3.8502300735,
				"element": "H" 
			},
			{
				"x": -2.0052331846,
				"y": 0.9189481246,
				"z": -1.6885516382,
				"element": "H" 
			},
			{
				"x": -1.8398675206,
				"y": -0.837719919,
				"z": -1.7175196211,
				"element": "H" 
			},
			{
				"x": -0.6021197137,
				"y": 2.3449271664,
				"z": -0.4955767163,
				"element": "H" 
			},
			{
				"x": 1.1021783932,
				"y": 1.0550778056,
				"z": 4.0506655791,
				"element": "H" 
			},
			{
				"x": 2.4912979588,
				"y": 0.1369722402,
				"z": 3.4876096299,
				"element": "H" 
			},
			{
				"x": 3.034248695,
				"y": 2.5961710636,
				"z": 4.0529529435,
				"element": "H" 
			},
			{
				"x": 3.4504327621,
				"y": 2.1411444518,
				"z": 2.4005867298,
				"element": "H" 
			},
			{
				"x": 0.3142025326,
				"y": 3.8083387874,
				"z": 1.1961858227,
				"element": "H" 
			},
			{
				"x": 1.1983435669,
				"y": -1.4847017194,
				"z": 2.0368778222,
				"element": "H" 
			}
		],
		 "valence_orbital": [ 
			{
				"type": "occ",
				"energy": -0.28562,
				"method": "rhf"
			},
			{
				"type": "occ",
				"energy": -0.2757,
				"method": "rhf"
			},
			{
				"type": "occ",
				"energy": -0.27079,
				"method": "rhf"
			},
			{
				"type": "occ",
				"energy": -0.26549,
				"method": "rhf"
			},
			{
				"type": "occ",
				"energy": -0.24282,
				"method": "rhf"
			},
			{
				"type": "unocc",
				"energy": -0.08667,
				"method": "rhf"
			},
			{
				"type": "unocc",
				"energy": -0.03305,
				"method": "rhf"
			},
			{
				"type": "unocc",
				"energy": -0.0155,
				"method": "rhf"
			},
			{
				"type": "unocc",
				"energy": 0.00977,
				"method": "rhf"
			},
			{
				"type": "unocc",
				"energy": 0.02411,
				"method": "rhf"
			}
		],
		"cosmo_sigma_profile": { 
			"-0.025": 0.0,
			"-0.024": 0.0,
			"-0.023": 0.0,
			"-0.022": 0.0,
			"-0.021": 0.0,
			"-0.02": 0.0,
			"-0.019": 0.0,
			"-0.018": 0.518379423099,
			"-0.017": 0.832088707011,
			"-0.016": 1.29268777865,
			"-0.015": 1.83073081237,
			"-0.014": 2.26908536618,
			"-0.013": 2.06131544668,
			"-0.012": 1.61634696055,
			"-0.011": 1.87109339268,
			"-0.01": 1.4587089713,
			"-0.009": 1.52348864875,
			"-0.008": 2.78580431448,
			"-0.007": 7.76263399264,
			"-0.006": 17.5682334389,
			"-0.005": 23.9267270246,
			"-0.004": 23.7858161325,
			"-0.003": 25.6214584781,
			"-0.002": 21.3934603828,
			"-0.001": 13.5764963055,
			"0.0": 14.3478906275,
			"0.001": 15.2689936598,
			"0.002": 10.8140970009,
			"0.003": 8.17075640489,
			"0.004": 6.25135240543,
			"0.005": 5.7267732566,
			"0.006": 7.29764252151,
			"0.007": 8.2226055438,
			"0.008": 12.1951073322,
			"0.009": 8.32643535831,
			"0.01": 7.96323372458,
			"0.011": 6.49311402446,
			"0.012": 8.78410356841,
			"0.013": 5.50266838191,
			"0.014": 0.696855324955,
			"0.015": 0.0,
			"0.016": 0.0,
			"0.017": 0.0,
			"0.018": 0.0,
			"0.019": 0.0,
			"0.02": 0.0,
			"0.021": 0.0,
			"0.022": 0.0,
			"0.023": 0.0,
			"0.024": 0.0,
			"0.025": 0.0
		}
	}
}
