{
	 "smiles": "OC1=CC=C(CCC2=NN=C(S)N2C2=CC=C(F)C=C2)C=C1", 
	 "Tm": 477.15, 
	 "num_atms": 36, 
	 "gaussian": { 
		 "optdone": 1, 
		 "sigma_profile": "yes", 
		 "theory": "DFT", 
		 "functional": "B3LYP", 
		 "basiset": "6-31G**", 
		 "properties": { 
			 "R2extent": 10461.101, 
			 "electric_dipole_moment_norm": 4.0182423023, 
			 "electric_quadrupole_moment_norm": 23.0876016178, 
			 "total_energy": -1355.61595002, 
			 "HOMO_LUMO_gap": 0.1795, 
			 "cosmo_polarized_energy": -21.73, 
			 "cosmo_cavitation_energy": 43.92, 
			 "cosmo_dispersion_energy": -30.34, 
			 "cosmo_repulsion_energy": 2.28, 
			 "cosmo_total_nonelectrostatic_energy": 15.87, 
			 "SMD_solvation_energy": 5.73 
		},
		"coords": [
			{
				"x": -3.0786961947,
				"y": -4.7772966986,
				"z": -4.6809103666,
				"element": "O" 
			},
			{
				"x": -2.6302828873,
				"y": -4.2235106484,
				"z": -3.513586258,
				"element": "C" 
			},
			{
				"x": -3.3530235604,
				"y": -3.1460177973,
				"z": -2.9897053876,
				"element": "C" 
			},
			{
				"x": -2.9387726663,
				"y": -2.5499207,
				"z": -1.8022138649,
				"element": "C" 
			},
			{
				"x": -1.806032457,
				"y": -3.0007990929,
				"z": -1.1073376833,
				"element": "C" 
			},
			{
				"x": -1.3472152213,
				"y": -2.3216577579,
				"z": 0.1646291351,
				"element": "C" 
			},
			{
				"x": -0.423971503,
				"y": -1.1198467009,
				"z": -0.1194994845,
				"element": "C" 
			},
			{
				"x": 0.0468860372,
				"y": -0.4482375675,
				"z": 1.133255496,
				"element": "C" 
			},
			{
				"x": -0.1906575026,
				"y": -0.8346478854,
				"z": 2.3612440181,
				"element": "N" 
			},
			{
				"x": 0.4144610852,
				"y": 0.0634360696,
				"z": 3.2269587397,
				"element": "N" 
			},
			{
				"x": 0.9995696396,
				"y": 0.9698878502,
				"z": 2.4860725408,
				"element": "C" 
			},
			{
				"x": 1.9317301011,
				"y": 2.3580070132,
				"z": 3.0593286729,
				"element": "S" 
			},
			{
				"x": 0.811237043,
				"y": 0.7120140483,
				"z": 1.1453122676,
				"element": "N" 
			},
			{
				"x": 1.2873800907,
				"y": 1.4700925194,
				"z": 0.0295779207,
				"element": "C" 
			},
			{
				"x": 0.622407444,
				"y": 2.6412004142,
				"z": -0.3504050501,
				"element": "C" 
			},
			{
				"x": 1.0811951606,
				"y": 3.3805044651,
				"z": -1.4388299129,
				"element": "C" 
			},
			{
				"x": 2.1979338067,
				"y": 2.9258832833,
				"z": -2.133123182,
				"element": "C" 
			},
			{
				"x": 2.6411181682,
				"y": 3.6343664392,
				"z": -3.1873331737,
				"element": "F" 
			},
			{
				"x": 2.8724894828,
				"y": 1.7632311558,
				"z": -1.773108715,
				"element": "C" 
			},
			{
				"x": 2.4124211112,
				"y": 1.033983517,
				"z": -0.6787691622,
				"element": "C" 
			},
			{
				"x": -1.0995665644,
				"y": -4.081457041,
				"z": -1.6476886672,
				"element": "C" 
			},
			{
				"x": -1.5000600749,
				"y": -4.6918267544,
				"z": -2.8369649484,
				"element": "C" 
			},
			{
				"x": -2.5013248634,
				"y": -5.5127349715,
				"z": -4.9231147762,
				"element": "H" 
			},
			{
				"x": -4.2335531349,
				"y": -2.7978682372,
				"z": -3.5197609068,
				"element": "H" 
			},
			{
				"x": -3.514247042,
				"y": -1.718823898,
				"z": -1.4006715466,
				"element": "H" 
			},
			{
				"x": -2.2075761466,
				"y": -1.9747030535,
				"z": 0.745837332,
				"element": "H" 
			},
			{
				"x": -0.8159154996,
				"y": -3.0299252285,
				"z": 0.8074872073,
				"element": "H" 
			},
			{
				"x": 0.4398362331,
				"y": -1.4532043085,
				"z": -0.7101566077,
				"element": "H" 
			},
			{
				"x": -0.9471449685,
				"y": -0.3905544207,
				"z": -0.7520578152,
				"element": "H" 
			},
			{
				"x": 1.7531775095,
				"y": 2.0179914751,
				"z": 4.3500939045,
				"element": "H" 
			},
			{
				"x": -0.2485346265,
				"y": 2.9672907217,
				"z": 0.2084121799,
				"element": "H" 
			},
			{
				"x": 0.5874662341,
				"y": 4.2926104665,
				"z": -1.7546552094,
				"element": "H" 
			},
			{
				"x": 3.7412396297,
				"y": 1.4493429539,
				"z": -2.3407531208,
				"element": "H" 
			},
			{
				"x": 2.9247271895,
				"y": 0.130266602,
				"z": -0.3654979545,
				"element": "H" 
			},
			{
				"x": -0.2230162893,
				"y": -4.4616450893,
				"z": -1.128191253,
				"element": "H" 
			},
			{
				"x": -0.9379847638,
				"y": -5.5351311428,
				"z": -3.2338743679,
				"element": "H" 
			}
		],
		 "valence_orbital": [ 
			{
				"type": "occ",
				"energy": -0.27494,
				"method": "rhf"
			},
			{
				"type": "occ",
				"energy": -0.25164,
				"method": "rhf"
			},
			{
				"type": "occ",
				"energy": -0.24798,
				"method": "rhf"
			},
			{
				"type": "occ",
				"energy": -0.2273,
				"method": "rhf"
			},
			{
				"type": "occ",
				"energy": -0.21655,
				"method": "rhf"
			},
			{
				"type": "unocc",
				"energy": -0.03705,
				"method": "rhf"
			},
			{
				"type": "unocc",
				"energy": -0.03096,
				"method": "rhf"
			},
			{
				"type": "unocc",
				"energy": -0.00353,
				"method": "rhf"
			},
			{
				"type": "unocc",
				"energy": 0.01188,
				"method": "rhf"
			},
			{
				"type": "unocc",
				"energy": 0.01271,
				"method": "rhf"
			}
		],
		"cosmo_sigma_profile": { 
			"-0.025": 0.0,
			"-0.024": 0.0,
			"-0.023": 0.0,
			"-0.022": 0.0,
			"-0.021": 0.0,
			"-0.02": 0.0,
			"-0.019": 0.0,
			"-0.018": 0.0862393466721,
			"-0.017": 1.15647304373,
			"-0.016": 0.920382062538,
			"-0.015": 1.01417041666,
			"-0.014": 0.993850836608,
			"-0.013": 1.30344232214,
			"-0.012": 2.161985137,
			"-0.011": 2.22020736309,
			"-0.01": 2.54984405703,
			"-0.009": 2.26768892683,
			"-0.008": 8.49899016724,
			"-0.007": 10.4058972355,
			"-0.006": 15.7208365759,
			"-0.005": 22.2071906968,
			"-0.004": 26.5121349586,
			"-0.003": 27.8210367853,
			"-0.002": 18.6084312968,
			"-0.001": 23.3503124416,
			"0.0": 24.3703577924,
			"0.001": 29.0933904633,
			"0.002": 25.6301015874,
			"0.003": 19.4863693491,
			"0.004": 24.0741113288,
			"0.005": 14.3072657486,
			"0.006": 14.9000224987,
			"0.007": 3.95416706026,
			"0.008": 3.59094581352,
			"0.009": 3.60376117879,
			"0.01": 3.15891181381,
			"0.011": 4.15385354962,
			"0.012": 3.84468468604,
			"0.013": 2.96540264539,
			"0.014": 3.59088315215,
			"0.015": 2.46281904799,
			"0.016": 1.86799519592,
			"0.017": 0.389509287291,
			"0.018": 0.0,
			"0.019": 0.0,
			"0.02": 0.0,
			"0.021": 0.0,
			"0.022": 0.0,
			"0.023": 0.0,
			"0.024": 0.0,
			"0.025": 0.0
		}
	}
}
