{
	 "smiles": "NC1=NC(=NN1)C1=CC(=CC=C1)C(F)(F)F", 
	 "Tm": 495.15, 
	 "num_atms": 23, 
	 "gaussian": { 
		 "optdone": 1, 
		 "sigma_profile": "yes", 
		 "theory": "DFT", 
		 "functional": "B3LYP", 
		 "basiset": "6-31G**", 
		 "properties": { 
			 "R2extent": 4834.0412, 
			 "electric_dipole_moment_norm": 6.03631620527, 
			 "electric_quadrupole_moment_norm": 18.0625187194, 
			 "total_energy": -865.711709909, 
			 "HOMO_LUMO_gap": 0.18988, 
			 "cosmo_polarized_energy": -17.11, 
			 "cosmo_cavitation_energy": 29.68, 
			 "cosmo_dispersion_energy": -21.59, 
			 "cosmo_repulsion_energy": 1.63, 
			 "cosmo_total_nonelectrostatic_energy": 9.72, 
			 "SMD_solvation_energy": 3.79 
		},
		"coords": [
			{
				"x": -2.9225609782,
				"y": -3.7050472534,
				"z": -0.1105638582,
				"element": "N" 
			},
			{
				"x": -2.2022215273,
				"y": -2.5299370057,
				"z": -0.1866314431,
				"element": "C" 
			},
			{
				"x": -1.4717302567,
				"y": -2.0006932961,
				"z": 0.7778920341,
				"element": "N" 
			},
			{
				"x": -0.9107960085,
				"y": -0.9003313826,
				"z": 0.1750444182,
				"element": "C" 
			},
			{
				"x": -1.2591795852,
				"y": -0.7186525612,
				"z": -1.0915831872,
				"element": "N" 
			},
			{
				"x": -2.093670175,
				"y": -1.7799624032,
				"z": -1.3123200991,
				"element": "N" 
			},
			{
				"x": -0.002057361,
				"y": 0.0124168571,
				"z": 0.8828081682,
				"element": "C" 
			},
			{
				"x": 0.5321713358,
				"y": 1.1334143862,
				"z": 0.2318047585,
				"element": "C" 
			},
			{
				"x": 1.397288996,
				"y": 1.9874582886,
				"z": 0.912078168,
				"element": "C" 
			},
			{
				"x": 1.7413216583,
				"y": 1.7380753076,
				"z": 2.2455694922,
				"element": "C" 
			},
			{
				"x": 1.2100669175,
				"y": 0.6239263328,
				"z": 2.8924445428,
				"element": "C" 
			},
			{
				"x": 0.342570125,
				"y": -0.2350798239,
				"z": 2.2187818812,
				"element": "C" 
			},
			{
				"x": 1.9225858609,
				"y": 3.2217221352,
				"z": 0.2304367183,
				"element": "C" 
			},
			{
				"x": 1.1461705445,
				"y": 4.302342635,
				"z": 0.4854542745,
				"element": "F" 
			},
			{
				"x": 1.9701062324,
				"y": 3.0821783736,
				"z": -1.1123305398,
				"element": "F" 
			},
			{
				"x": 3.1705057319,
				"y": 3.5346326644,
				"z": 0.650070102,
				"element": "F" 
			},
			{
				"x": -3.8168789472,
				"y": -3.7016881096,
				"z": -0.5838141087,
				"element": "H" 
			},
			{
				"x": -2.9977036522,
				"y": -4.0318728972,
				"z": 0.843979226,
				"element": "H" 
			},
			{
				"x": -2.467588208,
				"y": -1.9435629098,
				"z": -2.2341721624,
				"element": "H" 
			},
			{
				"x": 0.272653891,
				"y": 1.3236849803,
				"z": -0.8029941351,
				"element": "H" 
			},
			{
				"x": 2.4230159752,
				"y": 2.4053094311,
				"z": 2.7619658442,
				"element": "H" 
			},
			{
				"x": 1.4758707594,
				"y": 0.4217884756,
				"z": 3.9256740635,
				"element": "H" 
			},
			{
				"x": -0.0748413287,
				"y": -1.1057222249,
				"z": 2.7127058418,
				"element": "H" 
			}
		],
		 "valence_orbital": [ 
			{
				"type": "occ",
				"energy": -0.30838,
				"method": "rhf"
			},
			{
				"type": "occ",
				"energy": -0.2784,
				"method": "rhf"
			},
			{
				"type": "occ",
				"energy": -0.26034,
				"method": "rhf"
			},
			{
				"type": "occ",
				"energy": -0.25735,
				"method": "rhf"
			},
			{
				"type": "occ",
				"energy": -0.22243,
				"method": "rhf"
			},
			{
				"type": "unocc",
				"energy": -0.03255,
				"method": "rhf"
			},
			{
				"type": "unocc",
				"energy": -0.0153,
				"method": "rhf"
			},
			{
				"type": "unocc",
				"energy": 0.0307,
				"method": "rhf"
			},
			{
				"type": "unocc",
				"energy": 0.05414,
				"method": "rhf"
			},
			{
				"type": "unocc",
				"energy": 0.07428,
				"method": "rhf"
			}
		],
		"cosmo_sigma_profile": { 
			"-0.025": 0.0,
			"-0.024": 0.0,
			"-0.023": 0.0,
			"-0.022": 0.0,
			"-0.021": 0.0,
			"-0.02": 0.0,
			"-0.019": 0.0,
			"-0.018": 0.0347935085189,
			"-0.017": 1.74570919855,
			"-0.016": 2.16745872504,
			"-0.015": 2.41665961449,
			"-0.014": 4.29192230633,
			"-0.013": 2.81552261575,
			"-0.012": 2.66424293045,
			"-0.011": 3.71946635265,
			"-0.01": 2.90207487219,
			"-0.009": 2.05209804536,
			"-0.008": 2.14185152732,
			"-0.007": 4.39018903758,
			"-0.006": 6.80988038474,
			"-0.005": 8.42979753702,
			"-0.004": 8.64369844849,
			"-0.003": 8.05444172508,
			"-0.002": 9.11642126326,
			"-0.001": 9.69946913396,
			"0.0": 13.6478259319,
			"0.001": 19.7034185007,
			"0.002": 34.8991979497,
			"0.003": 46.3422646884,
			"0.004": 11.5165489517,
			"0.005": 4.81134313074,
			"0.006": 4.37475180397,
			"0.007": 2.99923089359,
			"0.008": 2.82419329799,
			"0.009": 3.24771821399,
			"0.01": 3.4181428134,
			"0.011": 2.61693182764,
			"0.012": 2.59151622441,
			"0.013": 2.17698493734,
			"0.014": 0.850205606823,
			"0.015": 0.0,
			"0.016": 0.0,
			"0.017": 0.0,
			"0.018": 0.0,
			"0.019": 0.0,
			"0.02": 0.0,
			"0.021": 0.0,
			"0.022": 0.0,
			"0.023": 0.0,
			"0.024": 0.0,
			"0.025": 0.0
		}
	}
}
