{
	 "smiles": "CC1=CC(Cl)=CC=C1CO", 
	 "Tm": 335.15, 
	 "num_atms": 19, 
	 "gaussian": { 
		 "optdone": 1, 
		 "sigma_profile": "yes", 
		 "theory": "DFT", 
		 "functional": "B3LYP", 
		 "basiset": "6-31G**", 
		 "properties": { 
			 "R2extent": 2760.6559, 
			 "electric_dipole_moment_norm": 1.24387961234, 
			 "electric_quadrupole_moment_norm": 13.3037535369, 
			 "total_energy": -845.690079531, 
			 "HOMO_LUMO_gap": 0.22136, 
			 "cosmo_polarized_energy": -7.48, 
			 "cosmo_cavitation_energy": 23.98, 
			 "cosmo_dispersion_energy": -17.77, 
			 "cosmo_repulsion_energy": 1.45, 
			 "cosmo_total_nonelectrostatic_energy": 7.66, 
			 "SMD_solvation_energy": 3.93 
		},
		"coords": [
			{
				"x": -0.1350143031,
				"y": 1.4020541245,
				"z": -0.5323202605,
				"element": "C" 
			},
			{
				"x": 0.6430089603,
				"y": 0.4010079133,
				"z": 0.2897825969,
				"element": "C" 
			},
			{
				"x": 1.220903524,
				"y": 0.7934477698,
				"z": 1.5008907492,
				"element": "C" 
			},
			{
				"x": 1.9267359746,
				"y": -0.1240113346,
				"z": 2.2798179406,
				"element": "C" 
			},
			{
				"x": 2.6400538932,
				"y": 0.4078222756,
				"z": 3.7977331942,
				"element": "Cl" 
			},
			{
				"x": 2.0764084378,
				"y": -1.4467247648,
				"z": 1.8775973484,
				"element": "C" 
			},
			{
				"x": 1.5031477307,
				"y": -1.8359180746,
				"z": 0.6659707631,
				"element": "C" 
			},
			{
				"x": 0.7891640675,
				"y": -0.9393473115,
				"z": -0.1349336888,
				"element": "C" 
			},
			{
				"x": 0.2112818823,
				"y": -1.4106888391,
				"z": -1.4530143318,
				"element": "C" 
			},
			{
				"x": 0.8144910494,
				"y": -0.7914513836,
				"z": -2.5906421908,
				"element": "O" 
			},
			{
				"x": -0.009192936,
				"y": 2.4155141836,
				"z": -0.1432238031,
				"element": "H" 
			},
			{
				"x": 0.1815770206,
				"y": 1.3774001355,
				"z": -1.5777485168,
				"element": "H" 
			},
			{
				"x": -1.2083872194,
				"y": 1.1729968256,
				"z": -0.5167975949,
				"element": "H" 
			},
			{
				"x": 1.1200250135,
				"y": 1.8185039725,
				"z": 1.8425347781,
				"element": "H" 
			},
			{
				"x": 2.6271212432,
				"y": -2.1509452532,
				"z": 2.490840793,
				"element": "H" 
			},
			{
				"x": 1.6136514858,
				"y": -2.8670519769,
				"z": 0.338334992,
				"element": "H" 
			},
			{
				"x": -0.8525011405,
				"y": -1.1603366202,
				"z": -1.5248971714,
				"element": "H" 
			},
			{
				"x": 0.2899828393,
				"y": -2.5065019076,
				"z": -1.5140861286,
				"element": "H" 
			},
			{
				"x": 1.7696424769,
				"y": -0.9168697343,
				"z": -2.5124394686,
				"element": "H" 
			}
		],
		 "valence_orbital": [ 
			{
				"type": "occ",
				"energy": -0.32493,
				"method": "rhf"
			},
			{
				"type": "occ",
				"energy": -0.31127,
				"method": "rhf"
			},
			{
				"type": "occ",
				"energy": -0.2777,
				"method": "rhf"
			},
			{
				"type": "occ",
				"energy": -0.25746,
				"method": "rhf"
			},
			{
				"type": "occ",
				"energy": -0.24147,
				"method": "rhf"
			},
			{
				"type": "unocc",
				"energy": -0.02011,
				"method": "rhf"
			},
			{
				"type": "unocc",
				"energy": -0.01149,
				"method": "rhf"
			},
			{
				"type": "unocc",
				"energy": 0.03026,
				"method": "rhf"
			},
			{
				"type": "unocc",
				"energy": 0.08288,
				"method": "rhf"
			},
			{
				"type": "unocc",
				"energy": 0.10819,
				"method": "rhf"
			}
		],
		"cosmo_sigma_profile": { 
			"-0.025": 0.0,
			"-0.024": 0.0,
			"-0.023": 0.0,
			"-0.022": 0.0,
			"-0.021": 0.0,
			"-0.02": 0.0,
			"-0.019": 0.0,
			"-0.018": 0.0,
			"-0.017": 0.0,
			"-0.016": 0.0662414482643,
			"-0.015": 0.774807703638,
			"-0.014": 0.933227713452,
			"-0.013": 0.824530552645,
			"-0.012": 0.466914621822,
			"-0.011": 1.39407291089,
			"-0.01": 0.904887364388,
			"-0.009": 0.411139427695,
			"-0.008": 0.770412064192,
			"-0.007": 2.74995421272,
			"-0.006": 8.51924769371,
			"-0.005": 12.4214132576,
			"-0.004": 14.4969408327,
			"-0.003": 13.3736095366,
			"-0.002": 13.3871419542,
			"-0.001": 14.8302379818,
			"0.0": 16.4690445515,
			"0.001": 14.8035796199,
			"0.002": 16.1119634291,
			"0.003": 15.7618057451,
			"0.004": 19.71012899,
			"0.005": 11.5403743354,
			"0.006": 1.41341554781,
			"0.007": 1.23757404297,
			"0.008": 0.849231374604,
			"0.009": 1.33111855277,
			"0.01": 1.19130210473,
			"0.011": 1.18306434403,
			"0.012": 0.86653641622,
			"0.013": 1.62747371423,
			"0.014": 1.43924392391,
			"0.015": 0.186783241422,
			"0.016": 0.0,
			"0.017": 0.0,
			"0.018": 0.0,
			"0.019": 0.0,
			"0.02": 0.0,
			"0.021": 0.0,
			"0.022": 0.0,
			"0.023": 0.0,
			"0.024": 0.0,
			"0.025": 0.0
		}
	}
}
