{
	 "smiles": "O=C1NC=CC(=S)N1", 
	 "Tm": 568.15, 
	 "num_atms": 12, 
	 "gaussian": { 
		 "optdone": 1, 
		 "sigma_profile": "yes", 
		 "theory": "DFT", 
		 "functional": "B3LYP", 
		 "basiset": "6-31G**", 
		 "properties": { 
			 "R2extent": 1367.2438, 
			 "electric_dipole_moment_norm": 5.06283792946, 
			 "electric_quadrupole_moment_norm": 7.92021872678, 
			 "total_energy": -737.774281503, 
			 "HOMO_LUMO_gap": 0.14699, 
			 "cosmo_polarized_energy": -19.34, 
			 "cosmo_cavitation_energy": 18.42, 
			 "cosmo_dispersion_energy": -14.49, 
			 "cosmo_repulsion_energy": 1.16, 
			 "cosmo_total_nonelectrostatic_energy": 5.09, 
			 "SMD_solvation_energy": 3.44 
		},
		"coords": [
			{
				"x": 2.910005022,
				"y": -0.655608065,
				"z": -1.5749185681,
				"element": "O" 
			},
			{
				"x": 1.8329630443,
				"y": -0.449043047,
				"z": -1.0509748942,
				"element": "C" 
			},
			{
				"x": 1.544423405,
				"y": -0.8021696174,
				"z": 0.2654287425,
				"element": "N" 
			},
			{
				"x": 0.3280319357,
				"y": -0.569703402,
				"z": 0.8608870618,
				"element": "C" 
			},
			{
				"x": -0.6837121716,
				"y": 0.0294434282,
				"z": 0.1881484638,
				"element": "C" 
			},
			{
				"x": -0.4998645473,
				"y": 0.4394223675,
				"z": -1.1834011758,
				"element": "C" 
			},
			{
				"x": -1.6552866984,
				"y": 1.1827199745,
				"z": -2.1199857126,
				"element": "S" 
			},
			{
				"x": 0.7621681597,
				"y": 0.1612960528,
				"z": -1.6940947282,
				"element": "N" 
			},
			{
				"x": 2.3011982428,
				"y": -1.2485030686,
				"z": 0.7636198956,
				"element": "H" 
			},
			{
				"x": 0.2387375355,
				"y": -0.8953093421,
				"z": 1.8911606226,
				"element": "H" 
			},
			{
				"x": -1.6393489154,
				"y": 0.2114546483,
				"z": 0.6580664855,
				"element": "H" 
			},
			{
				"x": 0.9405849878,
				"y": 0.4309000707,
				"z": -2.6549361929,
				"element": "H" 
			}
		],
		 "valence_orbital": [ 
			{
				"type": "occ",
				"energy": -0.37778,
				"method": "rhf"
			},
			{
				"type": "occ",
				"energy": -0.29954,
				"method": "rhf"
			},
			{
				"type": "occ",
				"energy": -0.27616,
				"method": "rhf"
			},
			{
				"type": "occ",
				"energy": -0.23369,
				"method": "rhf"
			},
			{
				"type": "occ",
				"energy": -0.22042,
				"method": "rhf"
			},
			{
				"type": "unocc",
				"energy": -0.07343,
				"method": "rhf"
			},
			{
				"type": "unocc",
				"energy": -0.01212,
				"method": "rhf"
			},
			{
				"type": "unocc",
				"energy": 0.04183,
				"method": "rhf"
			},
			{
				"type": "unocc",
				"energy": 0.08331,
				"method": "rhf"
			},
			{
				"type": "unocc",
				"energy": 0.08961,
				"method": "rhf"
			}
		],
		"cosmo_sigma_profile": { 
			"-0.025": 0.0,
			"-0.024": 0.0,
			"-0.023": 0.0,
			"-0.022": 0.0,
			"-0.021": 0.0,
			"-0.02": 0.0,
			"-0.019": 0.0,
			"-0.018": 0.653250818546,
			"-0.017": 2.11615967094,
			"-0.016": 1.59213950706,
			"-0.015": 2.08907754243,
			"-0.014": 1.87135227119,
			"-0.013": 2.00127973795,
			"-0.012": 2.08798000172,
			"-0.011": 3.87323048825,
			"-0.01": 3.89367683053,
			"-0.009": 2.73960629995,
			"-0.008": 4.98856394358,
			"-0.007": 4.88385732746,
			"-0.006": 4.66733342762,
			"-0.005": 6.72508645827,
			"-0.004": 7.6354480713,
			"-0.003": 8.79877436734,
			"-0.002": 7.61572530687,
			"-0.001": 6.38112356129,
			"0.0": 6.07318047159,
			"0.001": 4.86616428431,
			"0.002": 4.72145513635,
			"0.003": 4.62190853325,
			"0.004": 4.43003760563,
			"0.005": 5.02044376225,
			"0.006": 3.85502363099,
			"0.007": 6.11669688718,
			"0.008": 8.6901761413,
			"0.009": 7.3482608583,
			"0.01": 5.36960129937,
			"0.011": 6.37670585296,
			"0.012": 7.31491790616,
			"0.013": 1.17547744406,
			"0.014": 0.0,
			"0.015": 0.0,
			"0.016": 0.0,
			"0.017": 0.0,
			"0.018": 0.0,
			"0.019": 0.0,
			"0.02": 0.0,
			"0.021": 0.0,
			"0.022": 0.0,
			"0.023": 0.0,
			"0.024": 0.0,
			"0.025": 0.0
		}
	}
}
