{
	 "smiles": "CC1=CC=C(C=C1)C1=NOC(N)=N1", 
	 "Tm": 488.15, 
	 "num_atms": 22, 
	 "gaussian": { 
		 "optdone": 1, 
		 "sigma_profile": "yes", 
		 "theory": "DFT", 
		 "functional": "B3LYP", 
		 "basiset": "6-31G**", 
		 "properties": { 
			 "R2extent": 3174.2441, 
			 "electric_dipole_moment_norm": 2.43951944858, 
			 "electric_quadrupole_moment_norm": 24.6314445774, 
			 "total_energy": -587.840314704, 
			 "HOMO_LUMO_gap": 0.19338, 
			 "cosmo_polarized_energy": -13.6, 
			 "cosmo_cavitation_energy": 26.76, 
			 "cosmo_dispersion_energy": -20.08, 
			 "cosmo_repulsion_energy": 1.59, 
			 "cosmo_total_nonelectrostatic_energy": 8.27, 
			 "SMD_solvation_energy": 3.2 
		},
		"coords": [
			{
				"x": 0.2035046246,
				"y": -0.4804550416,
				"z": -4.9649936188,
				"element": "C" 
			},
			{
				"x": 0.2137188826,
				"y": -0.2868030485,
				"z": -3.4674974102,
				"element": "C" 
			},
			{
				"x": -0.174043032,
				"y": -1.314961365,
				"z": -2.5998324101,
				"element": "C" 
			},
			{
				"x": -0.1433285844,
				"y": -1.1430347374,
				"z": -1.2169555151,
				"element": "C" 
			},
			{
				"x": 0.2782738935,
				"y": 0.073770905,
				"z": -0.667394975,
				"element": "C" 
			},
			{
				"x": 0.6668660167,
				"y": 1.1134310991,
				"z": -1.5278703079,
				"element": "C" 
			},
			{
				"x": 0.6321141652,
				"y": 0.9302099783,
				"z": -2.904997708,
				"element": "C" 
			},
			{
				"x": 0.3057764941,
				"y": 0.2489057881,
				"z": 0.7910018127,
				"element": "C" 
			},
			{
				"x": 0.6972852025,
				"y": 1.3707899937,
				"z": 1.3552615302,
				"element": "N" 
			},
			{
				"x": 0.5633924677,
				"y": 1.0910903928,
				"z": 2.7463059654,
				"element": "O" 
			},
			{
				"x": 0.1067659571,
				"y": -0.1679172649,
				"z": 2.8221558811,
				"element": "C" 
			},
			{
				"x": -0.0655257389,
				"y": -0.7035110738,
				"z": 4.058771326,
				"element": "N" 
			},
			{
				"x": -0.0781052973,
				"y": -0.7471486304,
				"z": 1.6664514139,
				"element": "N" 
			},
			{
				"x": -0.2153703661,
				"y": 0.3914275429,
				"z": -5.4784051752,
				"element": "H" 
			},
			{
				"x": -0.3841450631,
				"y": -1.3570726589,
				"z": -5.2516330566,
				"element": "H" 
			},
			{
				"x": 1.2199163804,
				"y": -0.6238509436,
				"z": -5.3524797949,
				"element": "H" 
			},
			{
				"x": -0.5058997912,
				"y": -2.2645538962,
				"z": -3.0121954598,
				"element": "H" 
			},
			{
				"x": -0.4461258798,
				"y": -1.9443028043,
				"z": -0.5516396662,
				"element": "H" 
			},
			{
				"x": 0.9910992133,
				"y": 2.0594214956,
				"z": -1.1066792134,
				"element": "H" 
			},
			{
				"x": 0.9332351903,
				"y": 1.7449020947,
				"z": -3.559165248,
				"element": "H" 
			},
			{
				"x": -0.1645416765,
				"y": -0.0595453968,
				"z": 4.8287779611,
				"element": "H" 
			},
			{
				"x": -0.6282630587,
				"y": -1.5394924288,
				"z": 4.0947136687,
				"element": "H" 
			}
		],
		 "valence_orbital": [ 
			{
				"type": "occ",
				"energy": -0.31963,
				"method": "rhf"
			},
			{
				"type": "occ",
				"energy": -0.28431,
				"method": "rhf"
			},
			{
				"type": "occ",
				"energy": -0.25365,
				"method": "rhf"
			},
			{
				"type": "occ",
				"energy": -0.24726,
				"method": "rhf"
			},
			{
				"type": "occ",
				"energy": -0.22473,
				"method": "rhf"
			},
			{
				"type": "unocc",
				"energy": -0.03135,
				"method": "rhf"
			},
			{
				"type": "unocc",
				"energy": 0.00075,
				"method": "rhf"
			},
			{
				"type": "unocc",
				"energy": 0.02941,
				"method": "rhf"
			},
			{
				"type": "unocc",
				"energy": 0.05733,
				"method": "rhf"
			},
			{
				"type": "unocc",
				"energy": 0.08303,
				"method": "rhf"
			}
		],
		"cosmo_sigma_profile": { 
			"-0.025": 0.0,
			"-0.024": 0.0,
			"-0.023": 0.0,
			"-0.022": 0.0,
			"-0.021": 0.0,
			"-0.02": 0.0,
			"-0.019": 0.0,
			"-0.018": 0.0,
			"-0.017": 0.0,
			"-0.016": 0.558437066089,
			"-0.015": 2.90066957077,
			"-0.014": 2.39632460354,
			"-0.013": 2.29832529471,
			"-0.012": 2.73115144032,
			"-0.011": 2.36997472894,
			"-0.01": 1.62456119514,
			"-0.009": 1.83377362652,
			"-0.008": 1.63782172144,
			"-0.007": 1.57736746106,
			"-0.006": 3.50717057966,
			"-0.005": 10.7913600286,
			"-0.004": 16.8612367158,
			"-0.003": 14.9648031759,
			"-0.002": 15.2412780653,
			"-0.001": 14.6350709583,
			"0.0": 17.9695990727,
			"0.001": 14.4154953509,
			"0.002": 14.6084365393,
			"0.003": 14.7267111916,
			"0.004": 14.7016488627,
			"0.005": 12.1446510854,
			"0.006": 4.45135594615,
			"0.007": 6.86799586609,
			"0.008": 5.57069778628,
			"0.009": 2.95671607788,
			"0.01": 2.38755997815,
			"0.011": 2.40753235966,
			"0.012": 2.76965941027,
			"0.013": 1.68799813719,
			"0.014": 0.115125074669,
			"0.015": 0.0,
			"0.016": 0.0,
			"0.017": 0.0,
			"0.018": 0.0,
			"0.019": 0.0,
			"0.02": 0.0,
			"0.021": 0.0,
			"0.022": 0.0,
			"0.023": 0.0,
			"0.024": 0.0,
			"0.025": 0.0
		}
	}
}
