{
	 "smiles": "CC(=O)C=CC1=C(C2=CC=C(C)O2)C2=C(O1)C=CC(Cl)=C2", 
	 "Tm": 391.15, 
	 "num_atms": 34, 
	 "gaussian": { 
		 "optdone": 1, 
		 "sigma_profile": "yes", 
		 "theory": "DFT", 
		 "functional": "B3LYP", 
		 "basiset": "6-31G**", 
		 "properties": { 
			 "R2extent": 10313.2191, 
			 "electric_dipole_moment_norm": 4.41857051771, 
			 "electric_quadrupole_moment_norm": 21.4113180316, 
			 "total_energy": -1341.48469279, 
			 "HOMO_LUMO_gap": 0.12032, 
			 "cosmo_polarized_energy": -12.72, 
			 "cosmo_cavitation_energy": 41.47, 
			 "cosmo_dispersion_energy": -28.92, 
			 "cosmo_repulsion_energy": 2.2, 
			 "cosmo_total_nonelectrostatic_energy": 14.75, 
			 "SMD_solvation_energy": 8.22 
		},
		"coords": [
			{
				"x": -2.7688355325,
				"y": -0.3548024102,
				"z": -2.8053568913,
				"element": "C" 
			},
			{
				"x": -3.6527103143,
				"y": -0.3987271695,
				"z": -1.5662597265,
				"element": "C" 
			},
			{
				"x": -4.8492628722,
				"y": -0.645418037,
				"z": -1.6580579401,
				"element": "O" 
			},
			{
				"x": -3.0588763828,
				"y": -0.1401593038,
				"z": -0.2386971838,
				"element": "C" 
			},
			{
				"x": -1.7526044119,
				"y": 0.1395076298,
				"z": -0.0209950448,
				"element": "C" 
			},
			{
				"x": -1.1768069329,
				"y": 0.3971820236,
				"z": 1.2670458539,
				"element": "C" 
			},
			{
				"x": 0.1192536073,
				"y": 0.7011570822,
				"z": 1.6610083781,
				"element": "C" 
			},
			{
				"x": 1.2945146354,
				"y": 0.8403072768,
				"z": 0.8361762094,
				"element": "C" 
			},
			{
				"x": 2.5226240938,
				"y": 1.4164622027,
				"z": 1.0475517827,
				"element": "C" 
			},
			{
				"x": 3.2692442701,
				"y": 1.2513490403,
				"z": -0.1581040092,
				"element": "C" 
			},
			{
				"x": 2.4615117316,
				"y": 0.5885800678,
				"z": -1.0367244019,
				"element": "C" 
			},
			{
				"x": 2.633517816,
				"y": 0.1109699689,
				"z": -2.4345535405,
				"element": "C" 
			},
			{
				"x": 1.2547856448,
				"y": 0.3320350816,
				"z": -0.4427023397,
				"element": "O" 
			},
			{
				"x": 0.0632334578,
				"y": 0.8664784073,
				"z": 3.1001778235,
				"element": "C" 
			},
			{
				"x": -1.2808919655,
				"y": 0.6539764845,
				"z": 3.4545988409,
				"element": "C" 
			},
			{
				"x": -2.0283953647,
				"y": 0.3677541764,
				"z": 2.3540294266,
				"element": "O" 
			},
			{
				"x": -1.7519558953,
				"y": 0.720133203,
				"z": 4.7598198025,
				"element": "C" 
			},
			{
				"x": -0.8197598209,
				"y": 1.0088324009,
				"z": 5.753249266,
				"element": "C" 
			},
			{
				"x": 0.5313939885,
				"y": 1.2089191921,
				"z": 5.418415332,
				"element": "C" 
			},
			{
				"x": 1.6742543094,
				"y": 1.5517794907,
				"z": 6.7123740974,
				"element": "Cl" 
			},
			{
				"x": 0.9978313038,
				"y": 1.1409883736,
				"z": 4.1109772014,
				"element": "C" 
			},
			{
				"x": -1.9601236005,
				"y": -1.0910200376,
				"z": -2.7401904487,
				"element": "H" 
			},
			{
				"x": -2.3067300391,
				"y": 0.6312635811,
				"z": -2.9255279292,
				"element": "H" 
			},
			{
				"x": -3.3848616981,
				"y": -0.5724579237,
				"z": -3.6783169853,
				"element": "H" 
			},
			{
				"x": -3.7618500264,
				"y": -0.1906954749,
				"z": 0.5873696437,
				"element": "H" 
			},
			{
				"x": -1.0509621725,
				"y": 0.1804951336,
				"z": -0.8459362459,
				"element": "H" 
			},
			{
				"x": 2.8455456637,
				"y": 1.9290568553,
				"z": 1.9406919468,
				"element": "H" 
			},
			{
				"x": 4.2791211223,
				"y": 1.5844638784,
				"z": -0.3496767505,
				"element": "H" 
			},
			{
				"x": 1.8982840949,
				"y": 0.5664641416,
				"z": -3.1081675347,
				"element": "H" 
			},
			{
				"x": 3.6318664299,
				"y": 0.3695493517,
				"z": -2.7939505925,
				"element": "H" 
			},
			{
				"x": 2.5143361174,
				"y": -0.976456434,
				"z": -2.5038977638,
				"element": "H" 
			},
			{
				"x": -2.7975238874,
				"y": 0.551004003,
				"z": 4.9908976224,
				"element": "H" 
			},
			{
				"x": -1.1270759556,
				"y": 1.0751629586,
				"z": 6.7904273016,
				"element": "H" 
			},
			{
				"x": 2.0506085859,
				"y": 1.2774647852,
				"z": 3.9003047996,
				"element": "H" 
			}
		],
		 "valence_orbital": [ 
			{
				"type": "occ",
				"energy": -0.28929,
				"method": "rhf"
			},
			{
				"type": "occ",
				"energy": -0.25914,
				"method": "rhf"
			},
			{
				"type": "occ",
				"energy": -0.24125,
				"method": "rhf"
			},
			{
				"type": "occ",
				"energy": -0.23896,
				"method": "rhf"
			},
			{
				"type": "occ",
				"energy": -0.20653,
				"method": "rhf"
			},
			{
				"type": "unocc",
				"energy": -0.08621,
				"method": "rhf"
			},
			{
				"type": "unocc",
				"energy": -0.02004,
				"method": "rhf"
			},
			{
				"type": "unocc",
				"energy": -0.0118,
				"method": "rhf"
			},
			{
				"type": "unocc",
				"energy": -0.00188,
				"method": "rhf"
			},
			{
				"type": "unocc",
				"energy": 0.02336,
				"method": "rhf"
			}
		],
		"cosmo_sigma_profile": { 
			"-0.025": 0.0,
			"-0.024": 0.0,
			"-0.023": 0.0,
			"-0.022": 0.0,
			"-0.021": 0.0,
			"-0.02": 0.0,
			"-0.019": 0.0,
			"-0.018": 0.0,
			"-0.017": 0.0,
			"-0.016": 0.0,
			"-0.015": 0.0,
			"-0.014": 0.0,
			"-0.013": 0.0,
			"-0.012": 0.0,
			"-0.011": 0.0,
			"-0.01": 0.340375065971,
			"-0.009": 1.82496290777,
			"-0.008": 4.32255567892,
			"-0.007": 7.3442455689,
			"-0.006": 14.6198416524,
			"-0.005": 22.3912864193,
			"-0.004": 20.7734340456,
			"-0.003": 21.6104366208,
			"-0.002": 27.5677176809,
			"-0.001": 29.8658385609,
			"0.0": 34.8359600331,
			"0.001": 40.0018164691,
			"0.002": 36.216866891,
			"0.003": 21.0768870675,
			"0.004": 18.9354507813,
			"0.005": 13.1340051038,
			"0.006": 2.34337498679,
			"0.007": 1.85121074453,
			"0.008": 1.23369472258,
			"0.009": 1.10035076785,
			"0.01": 1.94596741154,
			"0.011": 2.58804811231,
			"0.012": 4.03375720049,
			"0.013": 3.92455674042,
			"0.014": 1.66321773324,
			"0.015": 0.0,
			"0.016": 0.0,
			"0.017": 0.0,
			"0.018": 0.0,
			"0.019": 0.0,
			"0.02": 0.0,
			"0.021": 0.0,
			"0.022": 0.0,
			"0.023": 0.0,
			"0.024": 0.0,
			"0.025": 0.0
		}
	}
}
