{
	 "smiles": "CC1=NSC(N)=N1", 
	 "Tm": 479.15, 
	 "num_atms": 12, 
	 "gaussian": { 
		 "optdone": 1, 
		 "sigma_profile": "yes", 
		 "theory": "DFT", 
		 "functional": "B3LYP", 
		 "basiset": "6-31G**", 
		 "properties": { 
			 "R2extent": 1452.1829, 
			 "electric_dipole_moment_norm": 3.26933374711, 
			 "electric_quadrupole_moment_norm": 15.2850751542, 
			 "total_energy": -679.776096751, 
			 "HOMO_LUMO_gap": 0.22026, 
			 "cosmo_polarized_energy": -12.07, 
			 "cosmo_cavitation_energy": 17.77, 
			 "cosmo_dispersion_energy": -14.18, 
			 "cosmo_repulsion_energy": 1.16, 
			 "cosmo_total_nonelectrostatic_energy": 4.75, 
			 "SMD_solvation_energy": 0.12 
		},
		"coords": [
			{
				"x": 0.9021190396,
				"y": 1.4147446201,
				"z": 0.5779333457,
				"element": "C" 
			},
			{
				"x": 0.349196767,
				"y": 0.0671302757,
				"z": 0.9327095654,
				"element": "C" 
			},
			{
				"x": -0.725157257,
				"y": -0.3884857933,
				"z": 0.3299676724,
				"element": "N" 
			},
			{
				"x": -1.056375868,
				"y": -1.9242459887,
				"z": 0.968535946,
				"element": "S" 
			},
			{
				"x": 0.3308826964,
				"y": -1.8146516271,
				"z": 2.0479789535,
				"element": "C" 
			},
			{
				"x": 0.720547076,
				"y": -2.810381323,
				"z": 2.8942890184,
				"element": "N" 
			},
			{
				"x": 0.976785486,
				"y": -0.6853234355,
				"z": 1.9015356033,
				"element": "N" 
			},
			{
				"x": 1.9308699004,
				"y": 1.318793662,
				"z": 0.2159542645,
				"element": "H" 
			},
			{
				"x": 0.9271377707,
				"y": 2.0595131777,
				"z": 1.4624820653,
				"element": "H" 
			},
			{
				"x": 0.288979311,
				"y": 1.881764277,
				"z": -0.1934443987,
				"element": "H" 
			},
			{
				"x": 0.0369997461,
				"y": -3.485144267,
				"z": 3.200199753,
				"element": "H" 
			},
			{
				"x": 1.4128153317,
				"y": -2.5425135779,
				"z": 3.5797582112,
				"element": "H" 
			}
		],
		 "valence_orbital": [ 
			{
				"type": "occ",
				"energy": -0.33938,
				"method": "rhf"
			},
			{
				"type": "occ",
				"energy": -0.30798,
				"method": "rhf"
			},
			{
				"type": "occ",
				"energy": -0.27647,
				"method": "rhf"
			},
			{
				"type": "occ",
				"energy": -0.26925,
				"method": "rhf"
			},
			{
				"type": "occ",
				"energy": -0.23126,
				"method": "rhf"
			},
			{
				"type": "unocc",
				"energy": -0.011,
				"method": "rhf"
			},
			{
				"type": "unocc",
				"energy": -7e-05,
				"method": "rhf"
			},
			{
				"type": "unocc",
				"energy": 0.05486,
				"method": "rhf"
			},
			{
				"type": "unocc",
				"energy": 0.06675,
				"method": "rhf"
			},
			{
				"type": "unocc",
				"energy": 0.09294,
				"method": "rhf"
			}
		],
		"cosmo_sigma_profile": { 
			"-0.025": 0.0,
			"-0.024": 0.0,
			"-0.023": 0.0,
			"-0.022": 0.0,
			"-0.021": 0.0,
			"-0.02": 0.0,
			"-0.019": 0.0,
			"-0.018": 0.0,
			"-0.017": 0.0,
			"-0.016": 0.313977468577,
			"-0.015": 2.07416437128,
			"-0.014": 2.9459896475,
			"-0.013": 2.75417509615,
			"-0.012": 2.43093144394,
			"-0.011": 2.69093035483,
			"-0.01": 2.04347499635,
			"-0.009": 1.52447542794,
			"-0.008": 2.46811484419,
			"-0.007": 1.23475881988,
			"-0.006": 1.78411978972,
			"-0.005": 6.05979052119,
			"-0.004": 7.79130084439,
			"-0.003": 6.92476703155,
			"-0.002": 8.78995863504,
			"-0.001": 13.1477520817,
			"0.0": 14.2080693796,
			"0.001": 9.35036571276,
			"0.002": 8.93970048353,
			"0.003": 7.86256199007,
			"0.004": 8.81653327601,
			"0.005": 4.5349080986,
			"0.006": 3.7699774661,
			"0.007": 3.56278712256,
			"0.008": 2.63681033403,
			"0.009": 3.34341856679,
			"0.01": 1.87796395371,
			"0.011": 1.80345880689,
			"0.012": 2.48049371957,
			"0.013": 1.88409217107,
			"0.014": 1.79896071849,
			"0.015": 1.65952930588,
			"0.016": 0.16420172119,
			"0.017": 0.0,
			"0.018": 0.0,
			"0.019": 0.0,
			"0.02": 0.0,
			"0.021": 0.0,
			"0.022": 0.0,
			"0.023": 0.0,
			"0.024": 0.0,
			"0.025": 0.0
		}
	}
}
