{
	 "smiles": "COC(=O)C1=C(N)C(C)=C(Br)C=C1", 
	 "Tm": 353.15, 
	 "num_atms": 23, 
	 "gaussian": { 
		 "optdone": 1, 
		 "sigma_profile": "yes", 
		 "theory": "DFT", 
		 "functional": "B3LYP", 
		 "basiset": "6-31G**", 
		 "properties": { 
			 "R2extent": 6068.2353, 
			 "electric_dipole_moment_norm": 1.50607689379, 
			 "electric_quadrupole_moment_norm": 11.1142878854, 
			 "total_energy": -3125.61674853, 
			 "HOMO_LUMO_gap": 0.16531, 
			 "cosmo_polarized_energy": -8.04, 
			 "cosmo_cavitation_energy": 28.38, 
			 "cosmo_dispersion_energy": -21.76, 
			 "cosmo_repulsion_energy": 1.71, 
			 "cosmo_total_nonelectrostatic_energy": 8.32, 
			 "SMD_solvation_energy": 5.1 
		},
		"coords": [
			{
				"x": -0.4727708652,
				"y": -3.6713402132,
				"z": -1.365187436,
				"element": "C" 
			},
			{
				"x": -0.9702644524,
				"y": -2.6197196656,
				"z": -0.5257992123,
				"element": "O" 
			},
			{
				"x": -0.0267522786,
				"y": -1.8508811005,
				"z": 0.0651583847,
				"element": "C" 
			},
			{
				"x": 1.1700290101,
				"y": -2.0576930041,
				"z": -0.1196816203,
				"element": "O" 
			},
			{
				"x": -0.5966261631,
				"y": -0.7939492881,
				"z": 0.9193778008,
				"element": "C" 
			},
			{
				"x": 0.2571692722,
				"y": 0.1173649237,
				"z": 1.607664089,
				"element": "C" 
			},
			{
				"x": 1.6110350232,
				"y": 0.0687043756,
				"z": 1.4471206054,
				"element": "N" 
			},
			{
				"x": -0.308228298,
				"y": 1.1198868708,
				"z": 2.4563023811,
				"element": "C" 
			},
			{
				"x": 0.6264957687,
				"y": 2.0697448179,
				"z": 3.1588364019,
				"element": "C" 
			},
			{
				"x": -1.6936720114,
				"y": 1.1610192725,
				"z": 2.5712649448,
				"element": "C" 
			},
			{
				"x": -2.5495187087,
				"y": 2.4665453054,
				"z": 3.6911304545,
				"element": "Br" 
			},
			{
				"x": -2.5482570998,
				"y": 0.2780516262,
				"z": 1.8962695599,
				"element": "C" 
			},
			{
				"x": -1.98896644,
				"y": -0.6853831638,
				"z": 1.0793717292,
				"element": "C" 
			},
			{
				"x": -1.3567663926,
				"y": -4.1754519994,
				"z": -1.7558483453,
				"element": "H" 
			},
			{
				"x": 0.1426960116,
				"y": -4.3677596221,
				"z": -0.7900519483,
				"element": "H" 
			},
			{
				"x": 0.1284566801,
				"y": -3.2634647261,
				"z": -2.1816171825,
				"element": "H" 
			},
			{
				"x": 1.9806755515,
				"y": -0.7165448595,
				"z": 0.9235123191,
				"element": "H" 
			},
			{
				"x": 2.2067479946,
				"y": 0.5690498127,
				"z": 2.0831323129,
				"element": "H" 
			},
			{
				"x": 1.2642589354,
				"y": 2.5965088285,
				"z": 2.4376977866,
				"element": "H" 
			},
			{
				"x": 0.080868046,
				"y": 2.816594584,
				"z": 3.7330655012,
				"element": "H" 
			},
			{
				"x": 1.2887376185,
				"y": 1.5378971587,
				"z": 3.8562046904,
				"element": "H" 
			},
			{
				"x": -3.6207529071,
				"y": 0.3566604387,
				"z": 2.0193743265,
				"element": "H" 
			},
			{
				"x": -2.6278942948,
				"y": -1.381740372,
				"z": 0.5501024566,
				"element": "H" 
			}
		],
		 "valence_orbital": [ 
			{
				"type": "occ",
				"energy": -0.29372,
				"method": "rhf"
			},
			{
				"type": "occ",
				"energy": -0.28444,
				"method": "rhf"
			},
			{
				"type": "occ",
				"energy": -0.27744,
				"method": "rhf"
			},
			{
				"type": "occ",
				"energy": -0.24264,
				"method": "rhf"
			},
			{
				"type": "occ",
				"energy": -0.20845,
				"method": "rhf"
			},
			{
				"type": "unocc",
				"energy": -0.04314,
				"method": "rhf"
			},
			{
				"type": "unocc",
				"energy": 0.00618,
				"method": "rhf"
			},
			{
				"type": "unocc",
				"energy": 0.00898,
				"method": "rhf"
			},
			{
				"type": "unocc",
				"energy": 0.05362,
				"method": "rhf"
			},
			{
				"type": "unocc",
				"energy": 0.08468,
				"method": "rhf"
			}
		],
		"cosmo_sigma_profile": { 
			"-0.025": 0.0,
			"-0.024": 0.0,
			"-0.023": 0.0,
			"-0.022": 0.0,
			"-0.021": 0.0,
			"-0.02": 0.0,
			"-0.019": 0.0,
			"-0.018": 0.0,
			"-0.017": 0.0,
			"-0.016": 0.0,
			"-0.015": 0.0,
			"-0.014": 0.0,
			"-0.013": 0.469920418999,
			"-0.012": 1.2682462071,
			"-0.011": 1.04744366967,
			"-0.01": 1.07600708089,
			"-0.009": 2.10832639799,
			"-0.008": 2.2700831245,
			"-0.007": 3.26162206431,
			"-0.006": 8.40260756946,
			"-0.005": 13.3963678774,
			"-0.004": 16.4368318157,
			"-0.003": 18.2423964308,
			"-0.002": 15.7726214323,
			"-0.001": 17.3083937034,
			"0.0": 17.8762168013,
			"0.001": 19.1693525138,
			"0.002": 24.2384008379,
			"0.003": 22.4567053769,
			"0.004": 19.435075752,
			"0.005": 10.1352082953,
			"0.006": 3.50243960285,
			"0.007": 2.49534944528,
			"0.008": 1.92025896612,
			"0.009": 1.50158962152,
			"0.01": 1.95132607438,
			"0.011": 2.12606348583,
			"0.012": 1.19257815542,
			"0.013": 0.0642404861168,
			"0.014": 0.0,
			"0.015": 0.0,
			"0.016": 0.0,
			"0.017": 0.0,
			"0.018": 0.0,
			"0.019": 0.0,
			"0.02": 0.0,
			"0.021": 0.0,
			"0.022": 0.0,
			"0.023": 0.0,
			"0.024": 0.0,
			"0.025": 0.0
		}
	}
}
