{
	 "smiles": "CCCCCCCOC(C)=O", 
	 "Tm": 222.95, 
	 "num_atms": 29, 
	 "gaussian": { 
		 "optdone": 1, 
		 "sigma_profile": "yes", 
		 "theory": "DFT", 
		 "functional": "B3LYP", 
		 "basiset": "6-31G**", 
		 "properties": { 
			 "R2extent": 3036.7372, 
			 "electric_dipole_moment_norm": 1.60105785342, 
			 "electric_quadrupole_moment_norm": 4.03384349349, 
			 "total_energy": -504.288461604, 
			 "HOMO_LUMO_gap": 0.28329, 
			 "cosmo_polarized_energy": -6.18, 
			 "cosmo_cavitation_energy": 30.79, 
			 "cosmo_dispersion_energy": -21.25, 
			 "cosmo_repulsion_energy": 1.77, 
			 "cosmo_total_nonelectrostatic_energy": 11.31, 
			 "SMD_solvation_energy": 5.88 
		},
		"coords": [
			{
				"x": 2.1314019159,
				"y": -0.2809375119,
				"z": 3.0843703834,
				"element": "C" 
			},
			{
				"x": 1.9847642796,
				"y": 1.1201144588,
				"z": 2.4779008762,
				"element": "C" 
			},
			{
				"x": 1.5993419551,
				"y": 1.1296462735,
				"z": 0.988932199,
				"element": "C" 
			},
			{
				"x": 2.6724316253,
				"y": 0.545521024,
				"z": 0.0571703349,
				"element": "C" 
			},
			{
				"x": 2.3746025946,
				"y": 0.7232219488,
				"z": -1.4440688565,
				"element": "C" 
			},
			{
				"x": 1.037412613,
				"y": 0.1373353069,
				"z": -1.9316208065,
				"element": "C" 
			},
			{
				"x": 0.9264644582,
				"y": -1.3704665336,
				"z": -1.7253888718,
				"element": "C" 
			},
			{
				"x": -0.336235923,
				"y": -1.8754674968,
				"z": -2.222277306,
				"element": "O" 
			},
			{
				"x": -1.3857362522,
				"y": -1.8091876487,
				"z": -1.3710951856,
				"element": "C" 
			},
			{
				"x": -2.632273236,
				"y": -2.3685679324,
				"z": -2.0158830284,
				"element": "C" 
			},
			{
				"x": -1.321497803,
				"y": -1.3628098436,
				"z": -0.2447517712,
				"element": "O" 
			},
			{
				"x": 2.3444773585,
				"y": -0.2253956204,
				"z": 4.1571483541,
				"element": "H" 
			},
			{
				"x": 2.9465264477,
				"y": -0.8451343862,
				"z": 2.61909317,
				"element": "H" 
			},
			{
				"x": 1.2107166965,
				"y": -0.8619541175,
				"z": 2.9570277694,
				"element": "H" 
			},
			{
				"x": 1.2194120217,
				"y": 1.6707314556,
				"z": 3.0395365395,
				"element": "H" 
			},
			{
				"x": 2.9216438136,
				"y": 1.678366651,
				"z": 2.6142443757,
				"element": "H" 
			},
			{
				"x": 0.6575591401,
				"y": 0.579775392,
				"z": 0.8629627822,
				"element": "H" 
			},
			{
				"x": 1.3950800452,
				"y": 2.1658922823,
				"z": 0.6840073906,
				"element": "H" 
			},
			{
				"x": 3.6353827771,
				"y": 1.0289933976,
				"z": 0.2726101723,
				"element": "H" 
			},
			{
				"x": 2.8194476508,
				"y": -0.5183446195,
				"z": 0.2817636416,
				"element": "H" 
			},
			{
				"x": 3.1962766518,
				"y": 0.2816188881,
				"z": -2.0247577396,
				"element": "H" 
			},
			{
				"x": 2.3799559709,
				"y": 1.7948780927,
				"z": -1.6820115447,
				"element": "H" 
			},
			{
				"x": 0.2039869582,
				"y": 0.6200192612,
				"z": -1.4114747605,
				"element": "H" 
			},
			{
				"x": 0.91371626,
				"y": 0.3530529721,
				"z": -2.9997106986,
				"element": "H" 
			},
			{
				"x": 1.0161153863,
				"y": -1.6383294974,
				"z": -0.6706490885,
				"element": "H" 
			},
			{
				"x": 1.6860369341,
				"y": -1.9074981688,
				"z": -2.3006240818,
				"element": "H" 
			},
			{
				"x": -2.8740939616,
				"y": -1.7991255542,
				"z": -2.918240615,
				"element": "H" 
			},
			{
				"x": -3.4607176656,
				"y": -2.3163976534,
				"z": -1.3102672114,
				"element": "H" 
			},
			{
				"x": -2.4644987126,
				"y": -3.4055508202,
				"z": -2.3211464227,
				"element": "H" 
			}
		],
		 "valence_orbital": [ 
			{
				"type": "occ",
				"energy": -0.31343,
				"method": "rhf"
			},
			{
				"type": "occ",
				"energy": -0.31051,
				"method": "rhf"
			},
			{
				"type": "occ",
				"energy": -0.30407,
				"method": "rhf"
			},
			{
				"type": "occ",
				"energy": -0.28942,
				"method": "rhf"
			},
			{
				"type": "occ",
				"energy": -0.26834,
				"method": "rhf"
			},
			{
				"type": "unocc",
				"energy": 0.01495,
				"method": "rhf"
			},
			{
				"type": "unocc",
				"energy": 0.0822,
				"method": "rhf"
			},
			{
				"type": "unocc",
				"energy": 0.10184,
				"method": "rhf"
			},
			{
				"type": "unocc",
				"energy": 0.11063,
				"method": "rhf"
			},
			{
				"type": "unocc",
				"energy": 0.11896,
				"method": "rhf"
			}
		],
		"cosmo_sigma_profile": { 
			"-0.025": 0.0,
			"-0.024": 0.0,
			"-0.023": 0.0,
			"-0.022": 0.0,
			"-0.021": 0.0,
			"-0.02": 0.0,
			"-0.019": 0.0,
			"-0.018": 0.0,
			"-0.017": 0.0,
			"-0.016": 0.0,
			"-0.015": 0.0,
			"-0.014": 0.0,
			"-0.013": 0.0,
			"-0.012": 0.0,
			"-0.011": 0.0,
			"-0.01": 0.0,
			"-0.009": 0.0,
			"-0.008": 0.0,
			"-0.007": 0.725397964063,
			"-0.006": 4.58783518384,
			"-0.005": 8.02052072366,
			"-0.004": 11.7940447186,
			"-0.003": 18.2319102069,
			"-0.002": 38.4267125397,
			"-0.001": 38.9305124193,
			"0.0": 39.5348514928,
			"0.001": 32.0636612736,
			"0.002": 13.2805831262,
			"0.003": 4.02660396857,
			"0.004": 3.89462822505,
			"0.005": 4.82784255539,
			"0.006": 3.01777763816,
			"0.007": 2.78778678244,
			"0.008": 2.29938452631,
			"0.009": 2.88169306616,
			"0.01": 2.20386998695,
			"0.011": 2.04643815696,
			"0.012": 2.39843537782,
			"0.013": 1.78841692534,
			"0.014": 0.144073289072,
			"0.015": 0.0,
			"0.016": 0.0,
			"0.017": 0.0,
			"0.018": 0.0,
			"0.019": 0.0,
			"0.02": 0.0,
			"0.021": 0.0,
			"0.022": 0.0,
			"0.023": 0.0,
			"0.024": 0.0,
			"0.025": 0.0
		}
	}
}
