{
	 "smiles": "CC1=NC2=C(C=CC(F)=C2)C(=C1)C(O)=O", 
	 "Tm": 541.15, 
	 "num_atms": 23, 
	 "gaussian": { 
		 "optdone": 1, 
		 "sigma_profile": "yes", 
		 "theory": "DFT", 
		 "functional": "B3LYP", 
		 "basiset": "6-31G**", 
		 "properties": { 
			 "R2extent": 3789.9161, 
			 "electric_dipole_moment_norm": 3.24129206799, 
			 "electric_quadrupole_moment_norm": 17.796997449, 
			 "total_energy": -729.045040811, 
			 "HOMO_LUMO_gap": 0.16523, 
			 "cosmo_polarized_energy": -14.58, 
			 "cosmo_cavitation_energy": 28.12, 
			 "cosmo_dispersion_energy": -20.64, 
			 "cosmo_repulsion_energy": 1.57, 
			 "cosmo_total_nonelectrostatic_energy": 9.06, 
			 "SMD_solvation_energy": 4.91 
		},
		"coords": [
			{
				"x": -2.8240253632,
				"y": 1.2478420599,
				"z": 3.091816419,
				"element": "C" 
			},
			{
				"x": -2.0398037879,
				"y": 1.0474742496,
				"z": 1.8197921171,
				"element": "C" 
			},
			{
				"x": -2.6837049879,
				"y": 0.5851654988,
				"z": 0.7661591227,
				"element": "N" 
			},
			{
				"x": -1.9988453927,
				"y": 0.414633169,
				"z": -0.4037588692,
				"element": "C" 
			},
			{
				"x": -0.6050613665,
				"y": 0.7218795278,
				"z": -0.5509450899,
				"element": "C" 
			},
			{
				"x": 0.0139874787,
				"y": 0.5178491499,
				"z": -1.8143081886,
				"element": "C" 
			},
			{
				"x": -0.7104892068,
				"y": 0.0301633728,
				"z": -2.878326586,
				"element": "C" 
			},
			{
				"x": -2.0774068755,
				"y": -0.2677951637,
				"z": -2.7070170554,
				"element": "C" 
			},
			{
				"x": -2.7555238123,
				"y": -0.7448397788,
				"z": -3.7677671687,
				"element": "F" 
			},
			{
				"x": -2.7257453891,
				"y": -0.0880979893,
				"z": -1.5121148549,
				"element": "C" 
			},
			{
				"x": 0.0706472663,
				"y": 1.195420227,
				"z": 0.6170162893,
				"element": "C" 
			},
			{
				"x": -0.6503517246,
				"y": 1.3553539637,
				"z": 1.7831777468,
				"element": "C" 
			},
			{
				"x": 1.5310646595,
				"y": 1.5619826581,
				"z": 0.5884645172,
				"element": "C" 
			},
			{
				"x": 2.2223923538,
				"y": 1.2986955431,
				"z": 1.7276486613,
				"element": "O" 
			},
			{
				"x": 2.0889777621,
				"y": 2.0757905344,
				"z": -0.3515919616,
				"element": "O" 
			},
			{
				"x": -2.4036137744,
				"y": 0.6574028272,
				"z": 3.9142555091,
				"element": "H" 
			},
			{
				"x": -2.8034265701,
				"y": 2.2982641028,
				"z": 3.4046387813,
				"element": "H" 
			},
			{
				"x": -3.860487788,
				"y": 0.9469435831,
				"z": 2.9349957181,
				"element": "H" 
			},
			{
				"x": 1.0593873912,
				"y": 0.7694265006,
				"z": -1.9363756899,
				"element": "H" 
			},
			{
				"x": -0.2551747624,
				"y": -0.1281287199,
				"z": -3.849887726,
				"element": "H" 
			},
			{
				"x": -3.7774461273,
				"y": -0.3197083952,
				"z": -1.3957539484,
				"element": "H" 
			},
			{
				"x": -0.1802068075,
				"y": 1.7574074411,
				"z": 2.6769042523,
				"element": "H" 
			},
			{
				"x": 1.6775568247,
				"y": 0.7711756377,
				"z": 2.3290780044,
				"element": "H" 
			}
		],
		 "valence_orbital": [ 
			{
				"type": "occ",
				"energy": -0.31845,
				"method": "rhf"
			},
			{
				"type": "occ",
				"energy": -0.28984,
				"method": "rhf"
			},
			{
				"type": "occ",
				"energy": -0.26681,
				"method": "rhf"
			},
			{
				"type": "occ",
				"energy": -0.25843,
				"method": "rhf"
			},
			{
				"type": "occ",
				"energy": -0.24612,
				"method": "rhf"
			},
			{
				"type": "unocc",
				"energy": -0.08089,
				"method": "rhf"
			},
			{
				"type": "unocc",
				"energy": -0.03324,
				"method": "rhf"
			},
			{
				"type": "unocc",
				"energy": -0.01491,
				"method": "rhf"
			},
			{
				"type": "unocc",
				"energy": 0.03222,
				"method": "rhf"
			},
			{
				"type": "unocc",
				"energy": 0.06148,
				"method": "rhf"
			}
		],
		"cosmo_sigma_profile": { 
			"-0.025": 0.0,
			"-0.024": 0.0,
			"-0.023": 0.0,
			"-0.022": 0.0,
			"-0.021": 0.0,
			"-0.02": 0.0,
			"-0.019": 0.388548676254,
			"-0.018": 0.739003560811,
			"-0.017": 0.883582405324,
			"-0.016": 0.938097276525,
			"-0.015": 0.642423849101,
			"-0.014": 1.19717497899,
			"-0.013": 1.58848588023,
			"-0.012": 1.41342760434,
			"-0.011": 0.876560663896,
			"-0.01": 1.24435242169,
			"-0.009": 1.77790318772,
			"-0.008": 3.44278221813,
			"-0.007": 5.9492137876,
			"-0.006": 7.32244635439,
			"-0.005": 14.6770765744,
			"-0.004": 13.6624110285,
			"-0.003": 11.8817750804,
			"-0.002": 14.2706715747,
			"-0.001": 19.1647836775,
			"0.0": 22.5550960579,
			"0.001": 21.6578611375,
			"0.002": 15.6335032242,
			"0.003": 12.0222913619,
			"0.004": 14.7155798688,
			"0.005": 4.38220301731,
			"0.006": 3.61339792556,
			"0.007": 4.27978404601,
			"0.008": 4.7454507356,
			"0.009": 4.98264672721,
			"0.01": 5.89230553711,
			"0.011": 5.24909157936,
			"0.012": 2.457212944,
			"0.013": 0.998697527797,
			"0.014": 0.702317592879,
			"0.015": 0.0756183383986,
			"0.016": 0.0,
			"0.017": 0.0,
			"0.018": 0.0,
			"0.019": 0.0,
			"0.02": 0.0,
			"0.021": 0.0,
			"0.022": 0.0,
			"0.023": 0.0,
			"0.024": 0.0,
			"0.025": 0.0
		}
	}
}
