{
	 "smiles": "CC(C)C1CCC(C)CC1OC(=O)C(C)O", 
	 "Tm": 313.15, 
	 "num_atms": 40, 
	 "gaussian": { 
		 "optdone": 1, 
		 "sigma_profile": "yes", 
		 "theory": "DFT", 
		 "functional": "B3LYP", 
		 "basiset": "6-31G**", 
		 "properties": { 
			 "R2extent": 4731.8343, 
			 "electric_dipole_moment_norm": 3.37132118612, 
			 "electric_quadrupole_moment_norm": 11.8930681197, 
			 "total_energy": -735.556211115, 
			 "HOMO_LUMO_gap": 0.26571, 
			 "cosmo_polarized_energy": -7.85, 
			 "cosmo_cavitation_energy": 39.21, 
			 "cosmo_dispersion_energy": -26.28, 
			 "cosmo_repulsion_energy": 2.1, 
			 "cosmo_total_nonelectrostatic_energy": 15.02, 
			 "SMD_solvation_energy": 6.94 
		},
		"coords": [
			{
				"x": -2.8923934453,
				"y": -0.9503180214,
				"z": 1.329529622,
				"element": "C" 
			},
			{
				"x": -1.7307421575,
				"y": -1.780086887,
				"z": 0.7583242084,
				"element": "C" 
			},
			{
				"x": -1.7667322792,
				"y": -3.2125292313,
				"z": 1.3139969104,
				"element": "C" 
			},
			{
				"x": -0.3387377996,
				"y": -1.1237641452,
				"z": 0.9593168833,
				"element": "C" 
			},
			{
				"x": -0.0181270253,
				"y": -0.6873806592,
				"z": 2.4009226518,
				"element": "C" 
			},
			{
				"x": 1.4732297778,
				"y": -0.3094719032,
				"z": 2.5592027491,
				"element": "C" 
			},
			{
				"x": 2.0759614978,
				"y": 0.3309214291,
				"z": 1.2809266178,
				"element": "C" 
			},
			{
				"x": 3.2481640705,
				"y": 1.2607945772,
				"z": 1.6096495933,
				"element": "C" 
			},
			{
				"x": 0.9689677898,
				"y": 1.045013889,
				"z": 0.4927414895,
				"element": "C" 
			},
			{
				"x": -0.1167612653,
				"y": 0.069477164,
				"z": 0.0081097381,
				"element": "C" 
			},
			{
				"x": 0.2828948207,
				"y": -0.5218362718,
				"z": -1.2746621715,
				"element": "O" 
			},
			{
				"x": 0.0063408773,
				"y": 0.1661105789,
				"z": -2.3874843089,
				"element": "C" 
			},
			{
				"x": -0.551418859,
				"y": 1.2489354009,
				"z": -2.4230944176,
				"element": "O" 
			},
			{
				"x": 0.4644638404,
				"y": -0.5517505151,
				"z": -3.6567141253,
				"element": "C" 
			},
			{
				"x": -0.2443115064,
				"y": -1.9019775249,
				"z": -3.8263798275,
				"element": "C" 
			},
			{
				"x": 0.2292701909,
				"y": 0.2814350523,
				"z": -4.7681207548,
				"element": "O" 
			},
			{
				"x": -3.8527874936,
				"y": -1.3989394066,
				"z": 1.0549516815,
				"element": "H" 
			},
			{
				"x": -2.894906753,
				"y": 0.078433366,
				"z": 0.9537419363,
				"element": "H" 
			},
			{
				"x": -2.8534588701,
				"y": -0.90553334,
				"z": 2.4234953271,
				"element": "H" 
			},
			{
				"x": -1.8766830006,
				"y": -1.8531434677,
				"z": -0.3288741927,
				"element": "H" 
			},
			{
				"x": -0.9800129361,
				"y": -3.8325991687,
				"z": 0.870542495,
				"element": "H" 
			},
			{
				"x": -2.7289135112,
				"y": -3.6895984252,
				"z": 1.0993530595,
				"element": "H" 
			},
			{
				"x": -1.631654351,
				"y": -3.2283929794,
				"z": 2.4015766802,
				"element": "H" 
			},
			{
				"x": 0.4085131545,
				"y": -1.8771363083,
				"z": 0.6734102021,
				"element": "H" 
			},
			{
				"x": -0.6483184664,
				"y": 0.1692788726,
				"z": 2.669851539,
				"element": "H" 
			},
			{
				"x": -0.2765581181,
				"y": -1.4833972411,
				"z": 3.1067436179,
				"element": "H" 
			},
			{
				"x": 1.5785752326,
				"y": 0.3871146547,
				"z": 3.4007781145,
				"element": "H" 
			},
			{
				"x": 2.0583072558,
				"y": -1.198606065,
				"z": 2.8239730144,
				"element": "H" 
			},
			{
				"x": 2.4594361203,
				"y": -0.4750539339,
				"z": 0.6399048025,
				"element": "H" 
			},
			{
				"x": 2.9126610206,
				"y": 2.1193324404,
				"z": 2.2041664082,
				"element": "H" 
			},
			{
				"x": 4.0173084439,
				"y": 0.7379930035,
				"z": 2.1889238932,
				"element": "H" 
			},
			{
				"x": 3.7201357765,
				"y": 1.6481775971,
				"z": 0.7001264226,
				"element": "H" 
			},
			{
				"x": 1.3721757173,
				"y": 1.5879788531,
				"z": -0.3679356618,
				"element": "H" 
			},
			{
				"x": 0.4947703177,
				"y": 1.801998901,
				"z": 1.1317241637,
				"element": "H" 
			},
			{
				"x": -1.0441009373,
				"y": 0.6173061505,
				"z": -0.174591733,
				"element": "H" 
			},
			{
				"x": 1.5459583472,
				"y": -0.731437312,
				"z": -3.5492225036,
				"element": "H" 
			},
			{
				"x": -1.3277347859,
				"y": -1.7569958329,
				"z": -3.8816010602,
				"element": "H" 
			},
			{
				"x": 0.0846477208,
				"y": -2.3623123152,
				"z": -4.7614244844,
				"element": "H" 
			},
			{
				"x": -0.0141605197,
				"y": -2.5757107178,
				"z": -2.9968395681,
				"element": "H" 
			},
			{
				"x": -0.2279678918,
				"y": 1.0645697426,
				"z": -4.4172390121,
				"element": "H" 
			}
		],
		 "valence_orbital": [ 
			{
				"type": "occ",
				"energy": -0.30806,
				"method": "rhf"
			},
			{
				"type": "occ",
				"energy": -0.29899,
				"method": "rhf"
			},
			{
				"type": "occ",
				"energy": -0.29458,
				"method": "rhf"
			},
			{
				"type": "occ",
				"energy": -0.28159,
				"method": "rhf"
			},
			{
				"type": "occ",
				"energy": -0.2622,
				"method": "rhf"
			},
			{
				"type": "unocc",
				"energy": 0.00351,
				"method": "rhf"
			},
			{
				"type": "unocc",
				"energy": 0.06851,
				"method": "rhf"
			},
			{
				"type": "unocc",
				"energy": 0.08712,
				"method": "rhf"
			},
			{
				"type": "unocc",
				"energy": 0.09106,
				"method": "rhf"
			},
			{
				"type": "unocc",
				"energy": 0.09619,
				"method": "rhf"
			}
		],
		"cosmo_sigma_profile": { 
			"-0.025": 0.0,
			"-0.024": 0.0,
			"-0.023": 0.0,
			"-0.022": 0.0,
			"-0.021": 0.0,
			"-0.02": 0.0,
			"-0.019": 0.0,
			"-0.018": 0.0,
			"-0.017": 0.0,
			"-0.016": 0.0,
			"-0.015": 0.0,
			"-0.014": 0.0,
			"-0.013": 0.0,
			"-0.012": 0.0,
			"-0.011": 0.0073013892655,
			"-0.01": 0.649982901408,
			"-0.009": 0.82954574153,
			"-0.008": 0.315031157648,
			"-0.007": 0.372423449836,
			"-0.006": 2.71301071665,
			"-0.005": 6.16511009138,
			"-0.004": 14.2963602857,
			"-0.003": 29.2399650673,
			"-0.002": 52.5041524522,
			"-0.001": 52.7409349214,
			"0.0": 46.4871344247,
			"0.001": 37.7862414509,
			"0.002": 18.4373008186,
			"0.003": 5.49714394736,
			"0.004": 5.37599427052,
			"0.005": 3.39077600086,
			"0.006": 2.96904285604,
			"0.007": 2.61229802285,
			"0.008": 3.27616205134,
			"0.009": 2.48430161938,
			"0.01": 3.31885263049,
			"0.011": 4.24810925694,
			"0.012": 1.98390939558,
			"0.013": 1.64975041257,
			"0.014": 2.0242940036,
			"0.015": 0.183712366972,
			"0.016": 0.0,
			"0.017": 0.0,
			"0.018": 0.0,
			"0.019": 0.0,
			"0.02": 0.0,
			"0.021": 0.0,
			"0.022": 0.0,
			"0.023": 0.0,
			"0.024": 0.0,
			"0.025": 0.0
		}
	}
}
