{
	 "smiles": "CC(C)C1=C(C=C(C)C(=C1)[N+]([O-])=NC1=CC=CC=C1)N=NC1=CC=CC=C1", 
	 "Tm": 391.15, 
	 "num_atms": 49, 
	 "gaussian": { 
		 "optdone": 1, 
		 "sigma_profile": "yes", 
		 "theory": "DFT", 
		 "functional": "B3LYP", 
		 "basiset": "6-31G**", 
		 "properties": { 
			 "R2extent": 12624.8187, 
			 "electric_dipole_moment_norm": 5.2561018236, 
			 "electric_quadrupole_moment_norm": 22.2450300667, 
			 "total_energy": -1145.70286125, 
			 "HOMO_LUMO_gap": 0.12899, 
			 "cosmo_polarized_energy": -13.98, 
			 "cosmo_cavitation_energy": 53.01, 
			 "cosmo_dispersion_energy": -34.53, 
			 "cosmo_repulsion_energy": 2.63, 
			 "cosmo_total_nonelectrostatic_energy": 21.1, 
			 "SMD_solvation_energy": 8.34 
		},
		"coords": [
			{
				"x": 2.9887885773,
				"y": -0.6269820466,
				"z": 0.6643162808,
				"element": "C" 
			},
			{
				"x": 2.7380104871,
				"y": 0.1990626429,
				"z": -0.6127161658,
				"element": "C" 
			},
			{
				"x": 3.4387144334,
				"y": 1.5709466709,
				"z": -0.5572509406,
				"element": "C" 
			},
			{
				"x": 1.2578606296,
				"y": 0.3051898413,
				"z": -0.9667821456,
				"element": "C" 
			},
			{
				"x": 0.2812507634,
				"y": 0.9440201235,
				"z": -0.1676872801,
				"element": "C" 
			},
			{
				"x": -1.0602782846,
				"y": 1.0007922776,
				"z": -0.5867670655,
				"element": "C" 
			},
			{
				"x": -1.4957068425,
				"y": 0.4456865174,
				"z": -1.7856024708,
				"element": "C" 
			},
			{
				"x": -2.9353172426,
				"y": 0.5573496579,
				"z": -2.2228243369,
				"element": "C" 
			},
			{
				"x": -0.5160619121,
				"y": -0.2084374779,
				"z": -2.5502207647,
				"element": "C" 
			},
			{
				"x": 0.8166587235,
				"y": -0.2737003202,
				"z": -2.1620405948,
				"element": "C" 
			},
			{
				"x": -0.8810274428,
				"y": -0.7658822934,
				"z": -3.8685052233,
				"element": "N" 
			},
			{
				"x": -1.3338859569,
				"y": 0.083698775,
				"z": -4.6668573827,
				"element": "O" 
			},
			{
				"x": -0.6946121997,
				"y": -1.9793424158,
				"z": -4.2281557185,
				"element": "N" 
			},
			{
				"x": -0.3409247834,
				"y": -2.9592770472,
				"z": -3.2741143748,
				"element": "C" 
			},
			{
				"x": 0.6587085853,
				"y": -3.8676411766,
				"z": -3.6596368791,
				"element": "C" 
			},
			{
				"x": 1.0153146058,
				"y": -4.9200233793,
				"z": -2.8202720494,
				"element": "C" 
			},
			{
				"x": 0.3605623527,
				"y": -5.1006148089,
				"z": -1.5992294026,
				"element": "C" 
			},
			{
				"x": -0.6599589448,
				"y": -4.2220591838,
				"z": -1.2292170512,
				"element": "C" 
			},
			{
				"x": -1.0147688519,
				"y": -3.1583190141,
				"z": -2.0568262227,
				"element": "C" 
			},
			{
				"x": 0.7163833196,
				"y": 1.5239005912,
				"z": 1.0549263679,
				"element": "N" 
			},
			{
				"x": -0.2019327512,
				"y": 2.022024086,
				"z": 1.7605375457,
				"element": "N" 
			},
			{
				"x": 0.2184975134,
				"y": 2.610457423,
				"z": 2.9779644162,
				"element": "C" 
			},
			{
				"x": -0.8102486819,
				"y": 3.1511536203,
				"z": 3.7626951109,
				"element": "C" 
			},
			{
				"x": -0.5189667082,
				"y": 3.7567710834,
				"z": 4.9835065179,
				"element": "C" 
			},
			{
				"x": 0.8032430831,
				"y": 3.8253898333,
				"z": 5.4260818687,
				"element": "C" 
			},
			{
				"x": 1.833487244,
				"y": 3.2866629643,
				"z": 4.6441207115,
				"element": "C" 
			},
			{
				"x": 1.5501218963,
				"y": 2.6811039169,
				"z": 3.4255667936,
				"element": "C" 
			},
			{
				"x": 2.5264879846,
				"y": -1.6166091697,
				"z": 0.589916124,
				"element": "H" 
			},
			{
				"x": 2.5803846171,
				"y": -0.1239103527,
				"z": 1.5435383498,
				"element": "H" 
			},
			{
				"x": 4.0650142664,
				"y": -0.7677251341,
				"z": 0.8138757524,
				"element": "H" 
			},
			{
				"x": 3.1978969895,
				"y": -0.3558342985,
				"z": -1.4409165218,
				"element": "H" 
			},
			{
				"x": 4.5151766074,
				"y": 1.4356672662,
				"z": -0.4045637563,
				"element": "H" 
			},
			{
				"x": 3.2981067044,
				"y": 2.1233591047,
				"z": -1.4919592106,
				"element": "H" 
			},
			{
				"x": 3.0463164727,
				"y": 2.1792048384,
				"z": 0.260382982,
				"element": "H" 
			},
			{
				"x": -1.7662971657,
				"y": 1.5069413744,
				"z": 0.0617984701,
				"element": "H" 
			},
			{
				"x": -3.0263377662,
				"y": 1.2306508851,
				"z": -3.0792917837,
				"element": "H" 
			},
			{
				"x": -3.3431881108,
				"y": -0.4084530394,
				"z": -2.5401545783,
				"element": "H" 
			},
			{
				"x": -3.5521864852,
				"y": 0.9362349584,
				"z": -1.4046955777,
				"element": "H" 
			},
			{
				"x": 1.5274883319,
				"y": -0.7856294177,
				"z": -2.8020388703,
				"element": "H" 
			},
			{
				"x": 1.1437450277,
				"y": -3.7269557592,
				"z": -4.6202784618,
				"element": "H" 
			},
			{
				"x": 1.7996907405,
				"y": -5.6067106707,
				"z": -3.1252562034,
				"element": "H" 
			},
			{
				"x": 0.6316239592,
				"y": -5.9274326718,
				"z": -0.9497352398,
				"element": "H" 
			},
			{
				"x": -1.1910620787,
				"y": -4.3680653682,
				"z": -0.292961518,
				"element": "H" 
			},
			{
				"x": -1.8249785859,
				"y": -2.4966825766,
				"z": -1.7708058611,
				"element": "H" 
			},
			{
				"x": -1.8276939718,
				"y": 3.08254967,
				"z": 3.3911600575,
				"element": "H" 
			},
			{
				"x": -1.3194762656,
				"y": 4.1738289137,
				"z": 5.5870894442,
				"element": "H" 
			},
			{
				"x": 1.0349537091,
				"y": 4.296935989,
				"z": 6.3767097749,
				"element": "H" 
			},
			{
				"x": 2.8611759749,
				"y": 3.3427889992,
				"z": 4.99160915,
				"element": "H" 
			},
			{
				"x": 2.3376474323,
				"y": 2.2613155986,
				"z": 2.8109679337,
				"element": "H" 
			}
		],
		 "valence_orbital": [ 
			{
				"type": "occ",
				"energy": -0.25767,
				"method": "rhf"
			},
			{
				"type": "occ",
				"energy": -0.25565,
				"method": "rhf"
			},
			{
				"type": "occ",
				"energy": -0.23441,
				"method": "rhf"
			},
			{
				"type": "occ",
				"energy": -0.23261,
				"method": "rhf"
			},
			{
				"type": "occ",
				"energy": -0.22399,
				"method": "rhf"
			},
			{
				"type": "unocc",
				"energy": -0.095,
				"method": "rhf"
			},
			{
				"type": "unocc",
				"energy": -0.0603,
				"method": "rhf"
			},
			{
				"type": "unocc",
				"energy": -0.01524,
				"method": "rhf"
			},
			{
				"type": "unocc",
				"energy": -0.01338,
				"method": "rhf"
			},
			{
				"type": "unocc",
				"energy": -0.00969,
				"method": "rhf"
			}
		],
		"cosmo_sigma_profile": { 
			"-0.025": 0.0,
			"-0.024": 0.0,
			"-0.023": 0.0,
			"-0.022": 0.0,
			"-0.021": 0.0,
			"-0.02": 0.0,
			"-0.019": 0.0,
			"-0.018": 0.0,
			"-0.017": 0.0,
			"-0.016": 0.0,
			"-0.015": 0.0,
			"-0.014": 0.0,
			"-0.013": 0.0,
			"-0.012": 0.0,
			"-0.011": 0.00884491411399,
			"-0.01": 0.239682763334,
			"-0.009": 0.518234681205,
			"-0.008": 1.38243811055,
			"-0.007": 5.43223724883,
			"-0.006": 23.3141103502,
			"-0.005": 27.5542034435,
			"-0.004": 30.8236617526,
			"-0.003": 30.0572540934,
			"-0.002": 36.2411801741,
			"-0.001": 39.7579991579,
			"0.0": 35.9576918383,
			"0.001": 51.817133081,
			"0.002": 44.2301501269,
			"0.003": 27.997666383,
			"0.004": 27.4800845466,
			"0.005": 10.4510277255,
			"0.006": 4.89739629463,
			"0.007": 3.60487963193,
			"0.008": 2.01338439592,
			"0.009": 3.15240605287,
			"0.01": 5.53602808099,
			"0.011": 3.73351004334,
			"0.012": 3.0688840915,
			"0.013": 2.54795690377,
			"0.014": 0.286057468187,
			"0.015": 0.0,
			"0.016": 0.0,
			"0.017": 0.0,
			"0.018": 0.0,
			"0.019": 0.0,
			"0.02": 0.0,
			"0.021": 0.0,
			"0.022": 0.0,
			"0.023": 0.0,
			"0.024": 0.0,
			"0.025": 0.0
		}
	}
}
