{
	 "smiles": "CN1N=C(C)C2=C1SCC(=O)N2", 
	 "Tm": 471.15, 
	 "num_atms": 21, 
	 "gaussian": { 
		 "optdone": 1, 
		 "sigma_profile": "yes", 
		 "theory": "DFT", 
		 "functional": "B3LYP", 
		 "basiset": "6-31G**", 
		 "properties": { 
			 "R2extent": 4057.6393, 
			 "electric_dipole_moment_norm": 2.35965286854, 
			 "electric_quadrupole_moment_norm": 17.4670514375, 
			 "total_energy": -909.827225118, 
			 "HOMO_LUMO_gap": 0.18812, 
			 "cosmo_polarized_energy": -13.4, 
			 "cosmo_cavitation_energy": 26.18, 
			 "cosmo_dispersion_energy": -19.82, 
			 "cosmo_repulsion_energy": 1.55, 
			 "cosmo_total_nonelectrostatic_energy": 7.9, 
			 "SMD_solvation_energy": 3.86 
		},
		"coords": [
			{
				"x": -1.5699167633,
				"y": 0.854600971,
				"z": -0.0163172764,
				"element": "C" 
			},
			{
				"x": -0.2332544234,
				"y": 0.5412560917,
				"z": 0.447224379,
				"element": "N" 
			},
			{
				"x": 0.3580790789,
				"y": -0.6224360918,
				"z": 0.0827008975,
				"element": "N" 
			},
			{
				"x": 1.5431995524,
				"y": -0.6474448068,
				"z": 0.7026600756,
				"element": "C" 
			},
			{
				"x": 2.4942809028,
				"y": -1.7871646122,
				"z": 0.5091150989,
				"element": "C" 
			},
			{
				"x": 1.6945103979,
				"y": 0.5055470012,
				"z": 1.508828628,
				"element": "C" 
			},
			{
				"x": 0.5357585275,
				"y": 1.2393583413,
				"z": 1.3279704349,
				"element": "C" 
			},
			{
				"x": 0.2248113331,
				"y": 2.7991224219,
				"z": 2.0785474025,
				"element": "S" 
			},
			{
				"x": 2.0083241902,
				"y": 3.2700399564,
				"z": 2.1510234914,
				"element": "C" 
			},
			{
				"x": 2.9264218138,
				"y": 2.2123404101,
				"z": 2.7776478659,
				"element": "C" 
			},
			{
				"x": 3.7945462838,
				"y": 2.5154541229,
				"z": 3.5810620526,
				"element": "O" 
			},
			{
				"x": 2.7494807508,
				"y": 0.9240320447,
				"z": 2.3332001972,
				"element": "N" 
			},
			{
				"x": -1.7115964055,
				"y": 0.3669257046,
				"z": -0.98087832,
				"element": "H" 
			},
			{
				"x": -2.3331443874,
				"y": 0.4966047793,
				"z": 0.6834393227,
				"element": "H" 
			},
			{
				"x": -1.6688211895,
				"y": 1.937113371,
				"z": -0.1311633922,
				"element": "H" 
			},
			{
				"x": 2.6722478062,
				"y": -2.3346185907,
				"z": 1.4428368491,
				"element": "H" 
			},
			{
				"x": 2.0793034683,
				"y": -2.4877832999,
				"z": -0.2183531618,
				"element": "H" 
			},
			{
				"x": 3.4669133189,
				"y": -1.4417388516,
				"z": 0.1399798402,
				"element": "H" 
			},
			{
				"x": 2.0781623021,
				"y": 4.1663655261,
				"z": 2.7663361681,
				"element": "H" 
			},
			{
				"x": 2.3530198724,
				"y": 3.5005608003,
				"z": 1.1374772956,
				"element": "H" 
			},
			{
				"x": 3.3757735703,
				"y": 0.2417647106,
				"z": 2.7395621511,
				"element": "H" 
			}
		],
		 "valence_orbital": [ 
			{
				"type": "occ",
				"energy": -0.29553,
				"method": "rhf"
			},
			{
				"type": "occ",
				"energy": -0.2944,
				"method": "rhf"
			},
			{
				"type": "occ",
				"energy": -0.25793,
				"method": "rhf"
			},
			{
				"type": "occ",
				"energy": -0.23322,
				"method": "rhf"
			},
			{
				"type": "occ",
				"energy": -0.20733,
				"method": "rhf"
			},
			{
				"type": "unocc",
				"energy": -0.01921,
				"method": "rhf"
			},
			{
				"type": "unocc",
				"energy": 0.01652,
				"method": "rhf"
			},
			{
				"type": "unocc",
				"energy": 0.02925,
				"method": "rhf"
			},
			{
				"type": "unocc",
				"energy": 0.06277,
				"method": "rhf"
			},
			{
				"type": "unocc",
				"energy": 0.08004,
				"method": "rhf"
			}
		],
		"cosmo_sigma_profile": { 
			"-0.025": 0.0,
			"-0.024": 0.0,
			"-0.023": 0.0,
			"-0.022": 0.0,
			"-0.021": 0.0,
			"-0.02": 0.0,
			"-0.019": 0.0,
			"-0.018": 0.0,
			"-0.017": 0.0,
			"-0.016": 0.0,
			"-0.015": 0.302891587298,
			"-0.014": 0.995652303854,
			"-0.013": 0.838424339822,
			"-0.012": 1.35067566349,
			"-0.011": 0.899914465553,
			"-0.01": 0.800825737335,
			"-0.009": 1.97210639126,
			"-0.008": 5.298973843,
			"-0.007": 6.14376727044,
			"-0.006": 11.1023104305,
			"-0.005": 15.3278287425,
			"-0.004": 20.3193602646,
			"-0.003": 18.9128397001,
			"-0.002": 12.7134304406,
			"-0.001": 14.3711144384,
			"0.0": 15.5840252329,
			"0.001": 10.5109005532,
			"0.002": 12.5665187611,
			"0.003": 11.297791296,
			"0.004": 7.77630916625,
			"0.005": 5.91642792865,
			"0.006": 4.75737528171,
			"0.007": 4.45592251751,
			"0.008": 2.19296488599,
			"0.009": 3.3941409603,
			"0.01": 2.90846883385,
			"0.011": 2.2528650465,
			"0.012": 5.21559655971,
			"0.013": 6.14242377969,
			"0.014": 2.35260091203,
			"0.015": 0.871003180997,
			"0.016": 0.214463445854,
			"0.017": 0.0,
			"0.018": 0.0,
			"0.019": 0.0,
			"0.02": 0.0,
			"0.021": 0.0,
			"0.022": 0.0,
			"0.023": 0.0,
			"0.024": 0.0,
			"0.025": 0.0
		}
	}
}
