{
	 "smiles": "O1C(=NN=C1C1=CC=CC=C1)C1=CC=CC=C1", 
	 "Tm": 413.15, 
	 "num_atms": 27, 
	 "gaussian": { 
		 "optdone": 1, 
		 "sigma_profile": "yes", 
		 "theory": "DFT", 
		 "functional": "B3LYP", 
		 "basiset": "6-31G**", 
		 "properties": { 
			 "R2extent": 5594.0827, 
			 "electric_dipole_moment_norm": 3.40214685309, 
			 "electric_quadrupole_moment_norm": 18.340044615, 
			 "total_energy": -724.22850107, 
			 "HOMO_LUMO_gap": 0.1665, 
			 "cosmo_polarized_energy": -10.7, 
			 "cosmo_cavitation_energy": 32.36, 
			 "cosmo_dispersion_energy": -23.85, 
			 "cosmo_repulsion_energy": 1.8, 
			 "cosmo_total_nonelectrostatic_energy": 10.32, 
			 "SMD_solvation_energy": 3.89 
		},
		"coords": [
			{
				"x": -0.14216761,
				"y": 0.3618059238,
				"z": 0.1572814066,
				"element": "O" 
			},
			{
				"x": 0.0904577937,
				"y": 1.6814064179,
				"z": -0.1151901025,
				"element": "C" 
			},
			{
				"x": -1.0186200552,
				"y": 2.3600911346,
				"z": -0.1990265228,
				"element": "N" 
			},
			{
				"x": -2.0530896022,
				"y": 1.4660324539,
				"z": 0.0257203218,
				"element": "N" 
			},
			{
				"x": -1.5061706299,
				"y": 0.3014803799,
				"z": 0.2316298515,
				"element": "C" 
			},
			{
				"x": -2.1585226364,
				"y": -0.9707066517,
				"z": 0.5139317372,
				"element": "C" 
			},
			{
				"x": -3.5611016569,
				"y": -1.0168141055,
				"z": 0.5877739813,
				"element": "C" 
			},
			{
				"x": -4.2022302694,
				"y": -2.222013771,
				"z": 0.8563511964,
				"element": "C" 
			},
			{
				"x": -3.456952719,
				"y": -3.3885420488,
				"z": 1.0532888172,
				"element": "C" 
			},
			{
				"x": -2.0631553813,
				"y": -3.3448526676,
				"z": 0.9803013562,
				"element": "C" 
			},
			{
				"x": -1.4118780036,
				"y": -2.1425381725,
				"z": 0.7118369666,
				"element": "C" 
			},
			{
				"x": 1.4593494225,
				"y": 2.1560826638,
				"z": -0.271835942,
				"element": "C" 
			},
			{
				"x": 2.5505323313,
				"y": 1.2820992243,
				"z": -0.1480817758,
				"element": "C" 
			},
			{
				"x": 3.8486675796,
				"y": 1.7644718067,
				"z": -0.3028165736,
				"element": "C" 
			},
			{
				"x": 4.0684642762,
				"y": 3.1151586975,
				"z": -0.5807449937,
				"element": "C" 
			},
			{
				"x": 2.9824682681,
				"y": 3.9871402196,
				"z": -0.7043648864,
				"element": "C" 
			},
			{
				"x": 1.6826842808,
				"y": 3.5149995493,
				"z": -0.5516007282,
				"element": "C" 
			},
			{
				"x": -4.1258777775,
				"y": -0.1038221067,
				"z": 0.4327709306,
				"element": "H" 
			},
			{
				"x": -5.2862722857,
				"y": -2.2527724688,
				"z": 0.9124638515,
				"element": "H" 
			},
			{
				"x": -3.961153837,
				"y": -4.327365258,
				"z": 1.2627219193,
				"element": "H" 
			},
			{
				"x": -1.4809666417,
				"y": -4.248811606,
				"z": 1.1326860604,
				"element": "H" 
			},
			{
				"x": -0.3292186995,
				"y": -2.1064671803,
				"z": 0.6547102494,
				"element": "H" 
			},
			{
				"x": 2.3776142963,
				"y": 0.2332153793,
				"z": 0.0679109151,
				"element": "H" 
			},
			{
				"x": 4.6896339779,
				"y": 1.0842296865,
				"z": -0.2061094315,
				"element": "H" 
			},
			{
				"x": 5.0815657959,
				"y": 3.4875962962,
				"z": -0.7006890229,
				"element": "H" 
			},
			{
				"x": 3.1501539441,
				"y": 5.0380536502,
				"z": -0.9204781256,
				"element": "H" 
			},
			{
				"x": 0.8303858388,
				"y": 4.1794425533,
				"z": -0.6446414561,
				"element": "H" 
			}
		],
		 "valence_orbital": [ 
			{
				"type": "occ",
				"energy": -0.27262,
				"method": "rhf"
			},
			{
				"type": "occ",
				"energy": -0.26899,
				"method": "rhf"
			},
			{
				"type": "occ",
				"energy": -0.2627,
				"method": "rhf"
			},
			{
				"type": "occ",
				"energy": -0.2624,
				"method": "rhf"
			},
			{
				"type": "occ",
				"energy": -0.22617,
				"method": "rhf"
			},
			{
				"type": "unocc",
				"energy": -0.05967,
				"method": "rhf"
			},
			{
				"type": "unocc",
				"energy": -0.03083,
				"method": "rhf"
			},
			{
				"type": "unocc",
				"energy": -0.01126,
				"method": "rhf"
			},
			{
				"type": "unocc",
				"energy": -0.01115,
				"method": "rhf"
			},
			{
				"type": "unocc",
				"energy": 0.05061,
				"method": "rhf"
			}
		],
		"cosmo_sigma_profile": { 
			"-0.025": 0.0,
			"-0.024": 0.0,
			"-0.023": 0.0,
			"-0.022": 0.0,
			"-0.021": 0.0,
			"-0.02": 0.0,
			"-0.019": 0.0,
			"-0.018": 0.0,
			"-0.017": 0.0,
			"-0.016": 0.0,
			"-0.015": 0.0,
			"-0.014": 0.0,
			"-0.013": 0.0,
			"-0.012": 0.0,
			"-0.011": 0.0,
			"-0.01": 0.0,
			"-0.009": 0.0,
			"-0.008": 0.0,
			"-0.007": 4.57587620206,
			"-0.006": 18.0397707646,
			"-0.005": 22.6520297181,
			"-0.004": 22.7949745613,
			"-0.003": 16.7415133253,
			"-0.002": 21.5782066553,
			"-0.001": 20.4829784323,
			"0.0": 20.4506604507,
			"0.001": 22.4766235876,
			"0.002": 21.2432557717,
			"0.003": 22.5892584996,
			"0.004": 23.618315258,
			"0.005": 3.38287170022,
			"0.006": 1.93939717754,
			"0.007": 1.98233235187,
			"0.008": 2.25088415528,
			"0.009": 2.34887021661,
			"0.01": 1.92794711627,
			"0.011": 2.70143247017,
			"0.012": 3.8479917884,
			"0.013": 2.15966043581,
			"0.014": 1.79955246476,
			"0.015": 0.112426868551,
			"0.016": 0.0,
			"0.017": 0.0,
			"0.018": 0.0,
			"0.019": 0.0,
			"0.02": 0.0,
			"0.021": 0.0,
			"0.022": 0.0,
			"0.023": 0.0,
			"0.024": 0.0,
			"0.025": 0.0
		}
	}
}
