{
	 "smiles": "CN(CCO)C1=CN=C(N)C=C1", 
	 "Tm": 356.15, 
	 "num_atms": 25, 
	 "gaussian": { 
		 "optdone": 1, 
		 "sigma_profile": "yes", 
		 "theory": "DFT", 
		 "functional": "B3LYP", 
		 "basiset": "6-31G**", 
		 "properties": { 
			 "R2extent": 2885.1949, 
			 "electric_dipole_moment_norm": 2.16200589268, 
			 "electric_quadrupole_moment_norm": 17.4445535976, 
			 "total_energy": -552.146416173, 
			 "HOMO_LUMO_gap": 0.17797, 
			 "cosmo_polarized_energy": -13.49, 
			 "cosmo_cavitation_energy": 27.53, 
			 "cosmo_dispersion_energy": -19.95, 
			 "cosmo_repulsion_energy": 1.62, 
			 "cosmo_total_nonelectrostatic_energy": 9.2, 
			 "SMD_solvation_energy": 3.3 
		},
		"coords": [
			{
				"x": 2.1515706661,
				"y": 1.3837090141,
				"z": -1.0588464719,
				"element": "C" 
			},
			{
				"x": 1.9791462398,
				"y": 0.3129863076,
				"z": -0.0701487693,
				"element": "N" 
			},
			{
				"x": 3.178463462,
				"y": 0.0975458602,
				"z": 0.7494385271,
				"element": "C" 
			},
			{
				"x": 3.2102107041,
				"y": -1.3352170313,
				"z": 1.2860204806,
				"element": "C" 
			},
			{
				"x": 3.1429699065,
				"y": -2.2685671761,
				"z": 0.2238747447,
				"element": "O" 
			},
			{
				"x": 0.7209570593,
				"y": 0.3657884082,
				"z": 0.6139301184,
				"element": "C" 
			},
			{
				"x": 0.5615636644,
				"y": 0.7055822689,
				"z": 1.9605881322,
				"element": "C" 
			},
			{
				"x": -0.6168137872,
				"y": 0.7377263545,
				"z": 2.5992342972,
				"element": "N" 
			},
			{
				"x": -1.7257873855,
				"y": 0.4565783527,
				"z": 1.9063302222,
				"element": "C" 
			},
			{
				"x": -2.9287824927,
				"y": 0.5763442958,
				"z": 2.5856218419,
				"element": "N" 
			},
			{
				"x": -1.6846451685,
				"y": 0.1003194607,
				"z": 0.5412045463,
				"element": "C" 
			},
			{
				"x": -0.4552798576,
				"y": 0.0443552318,
				"z": -0.0891261648,
				"element": "C" 
			},
			{
				"x": 3.010771394,
				"y": 1.1567915623,
				"z": -1.6973887541,
				"element": "H" 
			},
			{
				"x": 2.312611471,
				"y": 2.3710880205,
				"z": -0.5940081499,
				"element": "H" 
			},
			{
				"x": 1.2653572541,
				"y": 1.4528591464,
				"z": -1.6934571664,
				"element": "H" 
			},
			{
				"x": 4.0386600911,
				"y": 0.2259402565,
				"z": 0.0846812606,
				"element": "H" 
			},
			{
				"x": 3.2945969138,
				"y": 0.8327481457,
				"z": 1.5635445133,
				"element": "H" 
			},
			{
				"x": 2.393005569,
				"y": -1.4890709754,
				"z": 2.0083901305,
				"element": "H" 
			},
			{
				"x": 4.1533095944,
				"y": -1.5053019586,
				"z": 1.8170056634,
				"element": "H" 
			},
			{
				"x": 2.470927269,
				"y": -1.9098048343,
				"z": -0.3769216837,
				"element": "H" 
			},
			{
				"x": 1.423354268,
				"y": 0.9492755928,
				"z": 2.5766060031,
				"element": "H" 
			},
			{
				"x": -2.8200412882,
				"y": 0.5977261841,
				"z": 3.5904095337,
				"element": "H" 
			},
			{
				"x": -3.6907526237,
				"y": -0.0029218592,
				"z": 2.2645989723,
				"element": "H" 
			},
			{
				"x": -2.5986495542,
				"y": -0.1345721482,
				"z": 0.0034536845,
				"element": "H" 
			},
			{
				"x": -0.3880233691,
				"y": -0.2543084798,
				"z": -1.1318355118,
				"element": "H" 
			}
		],
		 "valence_orbital": [ 
			{
				"type": "occ",
				"energy": -0.28061,
				"method": "rhf"
			},
			{
				"type": "occ",
				"energy": -0.26369,
				"method": "rhf"
			},
			{
				"type": "occ",
				"energy": -0.25416,
				"method": "rhf"
			},
			{
				"type": "occ",
				"energy": -0.24041,
				"method": "rhf"
			},
			{
				"type": "occ",
				"energy": -0.19552,
				"method": "rhf"
			},
			{
				"type": "unocc",
				"energy": -0.01755,
				"method": "rhf"
			},
			{
				"type": "unocc",
				"energy": 0.01113,
				"method": "rhf"
			},
			{
				"type": "unocc",
				"energy": 0.08627,
				"method": "rhf"
			},
			{
				"type": "unocc",
				"energy": 0.0882,
				"method": "rhf"
			},
			{
				"type": "unocc",
				"energy": 0.10808,
				"method": "rhf"
			}
		],
		"cosmo_sigma_profile": { 
			"-0.025": 0.0,
			"-0.024": 0.0,
			"-0.023": 0.0,
			"-0.022": 0.0,
			"-0.021": 0.0,
			"-0.02": 0.0,
			"-0.019": 0.0,
			"-0.018": 0.0,
			"-0.017": 0.0,
			"-0.016": 0.0,
			"-0.015": 0.0,
			"-0.014": 0.0,
			"-0.013": 0.729053666244,
			"-0.012": 2.07929744199,
			"-0.011": 2.1417376789,
			"-0.01": 3.01360689924,
			"-0.009": 3.03410872673,
			"-0.008": 3.76565287021,
			"-0.007": 3.45638161639,
			"-0.006": 8.27241913481,
			"-0.005": 12.1915846243,
			"-0.004": 19.4147071166,
			"-0.003": 21.2585230481,
			"-0.002": 21.9672912528,
			"-0.001": 22.2571235323,
			"0.0": 12.3819581413,
			"0.001": 9.3764782011,
			"0.002": 8.81288104476,
			"0.003": 10.5462703567,
			"0.004": 11.4997454395,
			"0.005": 6.04056795291,
			"0.006": 4.39721975755,
			"0.007": 3.38307786574,
			"0.008": 3.66740877473,
			"0.009": 3.03543465705,
			"0.01": 3.16038531132,
			"0.011": 3.05278779127,
			"0.012": 2.80377812527,
			"0.013": 3.5552898695,
			"0.014": 2.60995737316,
			"0.015": 3.23185652204,
			"0.016": 0.645188739518,
			"0.017": 0.106806416904,
			"0.018": 0.0,
			"0.019": 0.0,
			"0.02": 0.0,
			"0.021": 0.0,
			"0.022": 0.0,
			"0.023": 0.0,
			"0.024": 0.0,
			"0.025": 0.0
		}
	}
}
