{
	 "smiles": "COC1=C(OC)C(Cl)=C(C=CC#N)C=C1", 
	 "Tm": 381.15, 
	 "num_atms": 25, 
	 "gaussian": { 
		 "optdone": 1, 
		 "sigma_profile": "yes", 
		 "theory": "DFT", 
		 "functional": "B3LYP", 
		 "basiset": "6-31G**", 
		 "properties": { 
			 "R2extent": 4690.3147, 
			 "electric_dipole_moment_norm": 3.9282841496, 
			 "electric_quadrupole_moment_norm": 18.6970609164, 
			 "total_energy": -1090.51798595, 
			 "HOMO_LUMO_gap": 0.15943, 
			 "cosmo_polarized_energy": -10.35, 
			 "cosmo_cavitation_energy": 31.69, 
			 "cosmo_dispersion_energy": -22.09, 
			 "cosmo_repulsion_energy": 1.73, 
			 "cosmo_total_nonelectrostatic_energy": 11.33, 
			 "SMD_solvation_energy": 8.11 
		},
		"coords": [
			{
				"x": -2.940361803,
				"y": -1.5224239554,
				"z": -1.4413946681,
				"element": "C" 
			},
			{
				"x": -2.2501162048,
				"y": -0.3462093805,
				"z": -0.9886264031,
				"element": "O" 
			},
			{
				"x": -0.8837177079,
				"y": -0.3974293019,
				"z": -1.03805637,
				"element": "C" 
			},
			{
				"x": -0.155295645,
				"y": -1.2652275274,
				"z": -0.2003550331,
				"element": "C" 
			},
			{
				"x": -0.804535876,
				"y": -2.1261660308,
				"z": 0.6423842403,
				"element": "O" 
			},
			{
				"x": -1.3556697782,
				"y": -1.5112100238,
				"z": 1.8184959698,
				"element": "C" 
			},
			{
				"x": 1.2436353269,
				"y": -1.2603158416,
				"z": -0.2672788666,
				"element": "C" 
			},
			{
				"x": 2.0876734707,
				"y": -2.3631632311,
				"z": 0.8074518649,
				"element": "Cl" 
			},
			{
				"x": 1.9528222721,
				"y": -0.3993671938,
				"z": -1.1418073468,
				"element": "C" 
			},
			{
				"x": 3.4122316036,
				"y": -0.4448053049,
				"z": -1.1936974314,
				"element": "C" 
			},
			{
				"x": 4.3008274743,
				"y": 0.3680782027,
				"z": -1.8126826156,
				"element": "C" 
			},
			{
				"x": 4.0228710874,
				"y": 1.532208696,
				"z": -2.5837903485,
				"element": "C" 
			},
			{
				"x": 3.8435742599,
				"y": 2.4902588606,
				"z": -3.2230068871,
				"element": "N" 
			},
			{
				"x": 1.1827161359,
				"y": 0.4691538226,
				"z": -1.9420986361,
				"element": "C" 
			},
			{
				"x": -0.203862815,
				"y": 0.4699221777,
				"z": -1.8943437469,
				"element": "C" 
			},
			{
				"x": -2.7198889031,
				"y": -1.7110786512,
				"z": -2.4987724399,
				"element": "H" 
			},
			{
				"x": -4.0040830672,
				"y": -1.3078319572,
				"z": -1.3267784068,
				"element": "H" 
			},
			{
				"x": -2.6688665052,
				"y": -2.3979127427,
				"z": -0.8461278365,
				"element": "H" 
			},
			{
				"x": -1.845288122,
				"y": -2.3115573142,
				"z": 2.375616685,
				"element": "H" 
			},
			{
				"x": -0.5613373806,
				"y": -1.0734903282,
				"z": 2.4332737818,
				"element": "H" 
			},
			{
				"x": -2.0871320134,
				"y": -0.7419225347,
				"z": 1.5523381786,
				"element": "H" 
			},
			{
				"x": 3.8578064701,
				"y": -1.2642426351,
				"z": -0.6402574868,
				"element": "H" 
			},
			{
				"x": 5.3579663163,
				"y": 0.1342386287,
				"z": -1.7216179605,
				"element": "H" 
			},
			{
				"x": 1.6809467739,
				"y": 1.1420557015,
				"z": -2.6277785758,
				"element": "H" 
			},
			{
				"x": -0.7847153696,
				"y": 1.1363378648,
				"z": -2.5227896608,
				"element": "H" 
			}
		],
		 "valence_orbital": [ 
			{
				"type": "occ",
				"energy": -0.31216,
				"method": "rhf"
			},
			{
				"type": "occ",
				"energy": -0.29545,
				"method": "rhf"
			},
			{
				"type": "occ",
				"energy": -0.28042,
				"method": "rhf"
			},
			{
				"type": "occ",
				"energy": -0.25366,
				"method": "rhf"
			},
			{
				"type": "occ",
				"energy": -0.2365,
				"method": "rhf"
			},
			{
				"type": "unocc",
				"energy": -0.07707,
				"method": "rhf"
			},
			{
				"type": "unocc",
				"energy": -0.02139,
				"method": "rhf"
			},
			{
				"type": "unocc",
				"energy": 0.01308,
				"method": "rhf"
			},
			{
				"type": "unocc",
				"energy": 0.01885,
				"method": "rhf"
			},
			{
				"type": "unocc",
				"energy": 0.02743,
				"method": "rhf"
			}
		],
		"cosmo_sigma_profile": { 
			"-0.025": 0.0,
			"-0.024": 0.0,
			"-0.023": 0.0,
			"-0.022": 0.0,
			"-0.021": 0.0,
			"-0.02": 0.0,
			"-0.019": 0.0,
			"-0.018": 0.0,
			"-0.017": 0.0,
			"-0.016": 0.0,
			"-0.015": 0.0,
			"-0.014": 0.0,
			"-0.013": 0.0,
			"-0.012": 0.0,
			"-0.011": 0.0,
			"-0.01": 0.336660889237,
			"-0.009": 2.62484931634,
			"-0.008": 2.90512977115,
			"-0.007": 5.53200465514,
			"-0.006": 8.88715088743,
			"-0.005": 14.8761140627,
			"-0.004": 19.3942301174,
			"-0.003": 29.2353298031,
			"-0.002": 21.8814886852,
			"-0.001": 24.5503844062,
			"0.0": 25.4710429482,
			"0.001": 23.828463109,
			"0.002": 17.7070069341,
			"0.003": 12.6107204251,
			"0.004": 9.06672469288,
			"0.005": 6.01567812218,
			"0.006": 4.1456513415,
			"0.007": 4.63830202681,
			"0.008": 5.38259864165,
			"0.009": 4.94155411099,
			"0.01": 4.82048511285,
			"0.011": 4.02386322234,
			"0.012": 2.47869306391,
			"0.013": 1.44249539824,
			"0.014": 0.0762980823929,
			"0.015": 0.0,
			"0.016": 0.0,
			"0.017": 0.0,
			"0.018": 0.0,
			"0.019": 0.0,
			"0.02": 0.0,
			"0.021": 0.0,
			"0.022": 0.0,
			"0.023": 0.0,
			"0.024": 0.0,
			"0.025": 0.0
		}
	}
}
