{
	 "smiles": "CC1=CC(O)=CC=C1[N+]([O-])=O", 
	 "Tm": 401.15, 
	 "num_atms": 18, 
	 "gaussian": { 
		 "optdone": 1, 
		 "sigma_profile": "yes", 
		 "theory": "DFT", 
		 "functional": "B3LYP", 
		 "basiset": "6-31G**", 
		 "properties": { 
			 "R2extent": 2045.6183, 
			 "electric_dipole_moment_norm": 5.22549602047, 
			 "electric_quadrupole_moment_norm": 10.2950603403, 
			 "total_energy": -551.288055251, 
			 "HOMO_LUMO_gap": 0.17276, 
			 "cosmo_polarized_energy": -12.99, 
			 "cosmo_cavitation_energy": 22.45, 
			 "cosmo_dispersion_energy": -16.83, 
			 "cosmo_repulsion_energy": 1.34, 
			 "cosmo_total_nonelectrostatic_energy": 6.96, 
			 "SMD_solvation_energy": 6.41 
		},
		"coords": [
			{
				"x": -0.0567235503,
				"y": -1.9694297872,
				"z": 1.6703286929,
				"element": "C" 
			},
			{
				"x": 0.2704682386,
				"y": -1.1224770516,
				"z": 0.4645923951,
				"element": "C" 
			},
			{
				"x": -0.5513389626,
				"y": -1.235395862,
				"z": -0.6622650899,
				"element": "C" 
			},
			{
				"x": -0.3309056183,
				"y": -0.4936927139,
				"z": -1.8277241898,
				"element": "C" 
			},
			{
				"x": -1.1256996098,
				"y": -0.6007294338,
				"z": -2.921992421,
				"element": "O" 
			},
			{
				"x": 0.7444648868,
				"y": 0.4017431979,
				"z": -1.8955777501,
				"element": "C" 
			},
			{
				"x": 1.5730340169,
				"y": 0.5335962458,
				"z": -0.7964254289,
				"element": "C" 
			},
			{
				"x": 1.3464754343,
				"y": -0.2126276876,
				"z": 0.3681249635,
				"element": "C" 
			},
			{
				"x": 2.2857692938,
				"y": 0.0065314925,
				"z": 1.4705042984,
				"element": "N" 
			},
			{
				"x": 2.1278997417,
				"y": -0.6284032956,
				"z": 2.5168358923,
				"element": "O" 
			},
			{
				"x": 3.195728319,
				"y": 0.8210593414,
				"z": 1.2984083654,
				"element": "O" 
			},
			{
				"x": -0.2459944299,
				"y": -1.3535120078,
				"z": 2.5525571802,
				"element": "H" 
			},
			{
				"x": 0.7747676933,
				"y": -2.6266997114,
				"z": 1.9351254156,
				"element": "H" 
			},
			{
				"x": -0.9409596009,
				"y": -2.5788153537,
				"z": 1.4651812133,
				"element": "H" 
			},
			{
				"x": -1.3905603298,
				"y": -1.9266898222,
				"z": -0.6247827231,
				"element": "H" 
			},
			{
				"x": -1.8268621833,
				"y": -1.2446072968,
				"z": -2.7540783014,
				"element": "H" 
			},
			{
				"x": 0.9083733813,
				"y": 0.9726712587,
				"z": -2.8023824828,
				"element": "H" 
			},
			{
				"x": 2.4138632793,
				"y": 1.2147784875,
				"z": -0.8102300299,
				"element": "H" 
			}
		],
		 "valence_orbital": [ 
			{
				"type": "occ",
				"energy": -0.29935,
				"method": "rhf"
			},
			{
				"type": "occ",
				"energy": -0.29782,
				"method": "rhf"
			},
			{
				"type": "occ",
				"energy": -0.27872,
				"method": "rhf"
			},
			{
				"type": "occ",
				"energy": -0.27168,
				"method": "rhf"
			},
			{
				"type": "occ",
				"energy": -0.25037,
				"method": "rhf"
			},
			{
				"type": "unocc",
				"energy": -0.07761,
				"method": "rhf"
			},
			{
				"type": "unocc",
				"energy": -0.02368,
				"method": "rhf"
			},
			{
				"type": "unocc",
				"energy": 0.0115,
				"method": "rhf"
			},
			{
				"type": "unocc",
				"energy": 0.04971,
				"method": "rhf"
			},
			{
				"type": "unocc",
				"energy": 0.0859,
				"method": "rhf"
			}
		],
		"cosmo_sigma_profile": { 
			"-0.025": 0.0,
			"-0.024": 0.0,
			"-0.023": 0.0,
			"-0.022": 0.0,
			"-0.021": 0.0,
			"-0.02": 0.0,
			"-0.019": 0.502102101757,
			"-0.018": 1.27592635309,
			"-0.017": 1.00004686046,
			"-0.016": 1.1475723294,
			"-0.015": 1.27750141164,
			"-0.014": 0.864358493416,
			"-0.013": 0.707523027144,
			"-0.012": 1.10428307783,
			"-0.011": 1.304172649,
			"-0.01": 0.914366955252,
			"-0.009": 0.809962238408,
			"-0.008": 1.98904191544,
			"-0.007": 5.5595309185,
			"-0.006": 5.66163557303,
			"-0.005": 7.6166498127,
			"-0.004": 10.5338457657,
			"-0.003": 11.8006170392,
			"-0.002": 12.4804511466,
			"-0.001": 15.0913344503,
			"0.0": 15.7541035442,
			"0.001": 15.463528942,
			"0.002": 16.2250928324,
			"0.003": 7.91034239905,
			"0.004": 3.6175511714,
			"0.005": 3.83391686106,
			"0.006": 4.2061822461,
			"0.007": 5.91209657701,
			"0.008": 7.97628146327,
			"0.009": 7.30309179294,
			"0.01": 6.26016129552,
			"0.011": 2.74471693617,
			"0.012": 0.0150416659892,
			"0.013": 0.0,
			"0.014": 0.0,
			"0.015": 0.0,
			"0.016": 0.0,
			"0.017": 0.0,
			"0.018": 0.0,
			"0.019": 0.0,
			"0.02": 0.0,
			"0.021": 0.0,
			"0.022": 0.0,
			"0.023": 0.0,
			"0.024": 0.0,
			"0.025": 0.0
		}
	}
}
