{
	 "smiles": "CC1=C(C=CC(Cl)=C1)[N+]([O-])=O", 
	 "Tm": 297.15, 
	 "num_atms": 17, 
	 "gaussian": { 
		 "optdone": 1, 
		 "sigma_profile": "yes", 
		 "theory": "DFT", 
		 "functional": "B3LYP", 
		 "basiset": "6-31G**", 
		 "properties": { 
			 "R2extent": 3028.5988, 
			 "electric_dipole_moment_norm": 2.66202075499, 
			 "electric_quadrupole_moment_norm": 13.005554676, 
			 "total_energy": -935.655972056, 
			 "HOMO_LUMO_gap": 0.17967, 
			 "cosmo_polarized_energy": -7.15, 
			 "cosmo_cavitation_energy": 23.34, 
			 "cosmo_dispersion_energy": -17.49, 
			 "cosmo_repulsion_energy": 1.39, 
			 "cosmo_total_nonelectrostatic_energy": 7.24, 
			 "SMD_solvation_energy": 5.86 
		},
		"coords": [
			{
				"x": -1.2730856294,
				"y": -0.1083318265,
				"z": 0.0858138935,
				"element": "C" 
			},
			{
				"x": 0.0264795499,
				"y": 0.4238086198,
				"z": -0.4673304858,
				"element": "C" 
			},
			{
				"x": 0.3524383246,
				"y": 0.5473596616,
				"z": -1.834815139,
				"element": "C" 
			},
			{
				"x": 1.585090692,
				"y": 1.0492046512,
				"z": -2.2625428419,
				"element": "C" 
			},
			{
				"x": 2.5411392235,
				"y": 1.45027742,
				"z": -1.3405279064,
				"element": "C" 
			},
			{
				"x": 2.2382251591,
				"y": 1.3360442228,
				"z": 0.0163428952,
				"element": "C" 
			},
			{
				"x": 3.420543601,
				"y": 1.8312065054,
				"z": 1.2080951958,
				"element": "Cl" 
			},
			{
				"x": 1.0112178079,
				"y": 0.8339365294,
				"z": 0.4432326001,
				"element": "C" 
			},
			{
				"x": -0.586743347,
				"y": 0.1548069112,
				"z": -2.9003849777,
				"element": "N" 
			},
			{
				"x": -1.7054051033,
				"y": -0.2467512945,
				"z": -2.577622205,
				"element": "O" 
			},
			{
				"x": -0.2013019702,
				"y": 0.2512729553,
				"z": -4.0658604263,
				"element": "O" 
			},
			{
				"x": -2.1226734274,
				"y": 0.4978192883,
				"z": -0.2373552,
				"element": "H" 
			},
			{
				"x": -1.2334390097,
				"y": -0.1118025924,
				"z": 1.1778661954,
				"element": "H" 
			},
			{
				"x": -1.4733631903,
				"y": -1.1230075323,
				"z": -0.2660775269,
				"element": "H" 
			},
			{
				"x": 1.7727980288,
				"y": 1.1161871321,
				"z": -3.3262552961,
				"element": "H" 
			},
			{
				"x": 3.4984463022,
				"y": 1.8418682323,
				"z": -1.6634585056,
				"element": "H" 
			},
			{
				"x": 0.8107329882,
				"y": 0.7575011162,
				"z": 1.5060797307,
				"element": "H" 
			}
		],
		 "valence_orbital": [ 
			{
				"type": "occ",
				"energy": -0.3124,
				"method": "rhf"
			},
			{
				"type": "occ",
				"energy": -0.3099,
				"method": "rhf"
			},
			{
				"type": "occ",
				"energy": -0.292,
				"method": "rhf"
			},
			{
				"type": "occ",
				"energy": -0.28196,
				"method": "rhf"
			},
			{
				"type": "occ",
				"energy": -0.27333,
				"method": "rhf"
			},
			{
				"type": "unocc",
				"energy": -0.09366,
				"method": "rhf"
			},
			{
				"type": "unocc",
				"energy": -0.03545,
				"method": "rhf"
			},
			{
				"type": "unocc",
				"energy": -0.0113,
				"method": "rhf"
			},
			{
				"type": "unocc",
				"energy": 0.0123,
				"method": "rhf"
			},
			{
				"type": "unocc",
				"energy": 0.0991,
				"method": "rhf"
			}
		],
		"cosmo_sigma_profile": { 
			"-0.025": 0.0,
			"-0.024": 0.0,
			"-0.023": 0.0,
			"-0.022": 0.0,
			"-0.021": 0.0,
			"-0.02": 0.0,
			"-0.019": 0.0,
			"-0.018": 0.0,
			"-0.017": 0.0,
			"-0.016": 0.0,
			"-0.015": 0.0,
			"-0.014": 0.0,
			"-0.013": 0.0,
			"-0.012": 0.0,
			"-0.011": 0.0,
			"-0.01": 0.0,
			"-0.009": 0.373562178836,
			"-0.008": 4.59107584048,
			"-0.007": 6.02251455348,
			"-0.006": 6.92838853094,
			"-0.005": 9.33584800343,
			"-0.004": 12.2633804507,
			"-0.003": 14.7234148705,
			"-0.002": 15.3825936999,
			"-0.001": 22.2979753821,
			"0.0": 23.0829130636,
			"0.001": 16.9479179658,
			"0.002": 9.68267511031,
			"0.003": 10.8873766157,
			"0.004": 9.51420754744,
			"0.005": 3.0766878551,
			"0.006": 3.65371752264,
			"0.007": 5.50585596274,
			"0.008": 6.78469361242,
			"0.009": 4.67075514311,
			"0.01": 3.2450084485,
			"0.011": 0.306659636256,
			"0.012": 0.0,
			"0.013": 0.0,
			"0.014": 0.0,
			"0.015": 0.0,
			"0.016": 0.0,
			"0.017": 0.0,
			"0.018": 0.0,
			"0.019": 0.0,
			"0.02": 0.0,
			"0.021": 0.0,
			"0.022": 0.0,
			"0.023": 0.0,
			"0.024": 0.0,
			"0.025": 0.0
		}
	}
}
