{
	 "smiles": "CN(C)C1=CC=C(C=C1)C1=CC=C(C=C1)N(C)C", 
	 "Tm": 467.15, 
	 "num_atms": 38, 
	 "gaussian": { 
		 "optdone": 1, 
		 "sigma_profile": "yes", 
		 "theory": "DFT", 
		 "functional": "B3LYP", 
		 "basiset": "6-31G**", 
		 "properties": { 
			 "R2extent": 9013.6005, 
			 "electric_dipole_moment_norm": 0.632117852936, 
			 "electric_quadrupole_moment_norm": 24.6398632861, 
			 "total_energy": -731.253377147, 
			 "HOMO_LUMO_gap": 0.16738, 
			 "cosmo_polarized_energy": -9.75, 
			 "cosmo_cavitation_energy": 39.15, 
			 "cosmo_dispersion_energy": -28.72, 
			 "cosmo_repulsion_energy": 2.17, 
			 "cosmo_total_nonelectrostatic_energy": 12.6, 
			 "SMD_solvation_energy": 5.38 
		},
		"coords": [
			{
				"x": -0.3978431495,
				"y": 4.6974503485,
				"z": 0.907890578,
				"element": "C" 
			},
			{
				"x": -1.171271881,
				"y": 3.4680270687,
				"z": 0.9060679791,
				"element": "N" 
			},
			{
				"x": -2.3166168793,
				"y": 3.3933606706,
				"z": 1.7966528318,
				"element": "C" 
			},
			{
				"x": -0.558506829,
				"y": 2.2848396978,
				"z": 0.4943130896,
				"element": "C" 
			},
			{
				"x": 0.7001977733,
				"y": 2.2874490641,
				"z": -0.1470398719,
				"element": "C" 
			},
			{
				"x": 1.2871655068,
				"y": 1.1051171695,
				"z": -0.5843769839,
				"element": "C" 
			},
			{
				"x": 0.6712548171,
				"y": -0.1452053412,
				"z": -0.4105090242,
				"element": "C" 
			},
			{
				"x": -0.5742291383,
				"y": -0.1434100269,
				"z": 0.2387927285,
				"element": "C" 
			},
			{
				"x": -1.1743426822,
				"y": 1.0281529716,
				"z": 0.687035386,
				"element": "C" 
			},
			{
				"x": 1.304054061,
				"y": -1.3987013946,
				"z": -0.880282208,
				"element": "C" 
			},
			{
				"x": 2.071830756,
				"y": -1.444196587,
				"z": -2.0555596284,
				"element": "C" 
			},
			{
				"x": 2.6737635388,
				"y": -2.6153271276,
				"z": -2.5024459916,
				"element": "C" 
			},
			{
				"x": 2.5264012814,
				"y": -3.8289959615,
				"z": -1.7946887577,
				"element": "C" 
			},
			{
				"x": 1.765343979,
				"y": -3.7861000375,
				"z": -0.6053021324,
				"element": "C" 
			},
			{
				"x": 1.1746370449,
				"y": -2.6043372166,
				"z": -0.1714037332,
				"element": "C" 
			},
			{
				"x": 3.0944752692,
				"y": -5.0160719078,
				"z": -2.256355321,
				"element": "N" 
			},
			{
				"x": 4.0860505961,
				"y": -4.9550820242,
				"z": -3.3163720987,
				"element": "C" 
			},
			{
				"x": 3.1217786424,
				"y": -6.1717473323,
				"z": -1.3769557232,
				"element": "C" 
			},
			{
				"x": -1.0384813323,
				"y": 5.5220225616,
				"z": 1.2261523854,
				"element": "H" 
			},
			{
				"x": 0.4756243748,
				"y": 4.6609855482,
				"z": 1.5794127895,
				"element": "H" 
			},
			{
				"x": -0.0375969657,
				"y": 4.9341089842,
				"z": -0.0992504582,
				"element": "H" 
			},
			{
				"x": -3.1435996404,
				"y": 2.8485533101,
				"z": 1.3278959303,
				"element": "H" 
			},
			{
				"x": -2.0884199676,
				"y": 2.9010197458,
				"z": 2.7559676492,
				"element": "H" 
			},
			{
				"x": -2.6715497552,
				"y": 4.4038229644,
				"z": 2.0075536955,
				"element": "H" 
			},
			{
				"x": 1.2378397337,
				"y": 3.2158817305,
				"z": -0.2962695904,
				"element": "H" 
			},
			{
				"x": 2.2686946748,
				"y": 1.1552407221,
				"z": -1.0477647174,
				"element": "H" 
			},
			{
				"x": -1.1017152693,
				"y": -1.0825824218,
				"z": 0.3814131757,
				"element": "H" 
			},
			{
				"x": -2.1371102979,
				"y": 0.959044211,
				"z": 1.1786928966,
				"element": "H" 
			},
			{
				"x": 2.1873334132,
				"y": -0.5428890535,
				"z": -2.6513114919,
				"element": "H" 
			},
			{
				"x": 3.2510906436,
				"y": -2.5813284232,
				"z": -3.4183869465,
				"element": "H" 
			},
			{
				"x": 1.641169033,
				"y": -4.6764846135,
				"z": -0.0010426548,
				"element": "H" 
			},
			{
				"x": 0.6217228129,
				"y": -2.6153363832,
				"z": 0.7639014003,
				"element": "H" 
			},
			{
				"x": 4.414245992,
				"y": -5.967906576,
				"z": -3.557152736,
				"element": "H" 
			},
			{
				"x": 4.9737196508,
				"y": -4.3603456575,
				"z": -3.0459734142,
				"element": "H" 
			},
			{
				"x": 3.659026709,
				"y": -4.5251852372,
				"z": -4.2291973988,
				"element": "H" 
			},
			{
				"x": 3.6972853439,
				"y": -6.0013930874,
				"z": -0.4523014376,
				"element": "H" 
			},
			{
				"x": 3.5702713844,
				"y": -7.0137710811,
				"z": -1.9074988894,
				"element": "H" 
			},
			{
				"x": 2.1070067554,
				"y": -6.469379277,
				"z": -1.0910013059,
				"element": "H" 
			}
		],
		 "valence_orbital": [ 
			{
				"type": "occ",
				"energy": -0.25924,
				"method": "rhf"
			},
			{
				"type": "occ",
				"energy": -0.23469,
				"method": "rhf"
			},
			{
				"type": "occ",
				"energy": -0.23357,
				"method": "rhf"
			},
			{
				"type": "occ",
				"energy": -0.19658,
				"method": "rhf"
			},
			{
				"type": "occ",
				"energy": -0.1641,
				"method": "rhf"
			},
			{
				"type": "unocc",
				"energy": 0.00328,
				"method": "rhf"
			},
			{
				"type": "unocc",
				"energy": 0.01138,
				"method": "rhf"
			},
			{
				"type": "unocc",
				"energy": 0.01708,
				"method": "rhf"
			},
			{
				"type": "unocc",
				"energy": 0.05953,
				"method": "rhf"
			},
			{
				"type": "unocc",
				"energy": 0.09085,
				"method": "rhf"
			}
		],
		"cosmo_sigma_profile": { 
			"-0.025": 0.0,
			"-0.024": 0.0,
			"-0.023": 0.0,
			"-0.022": 0.0,
			"-0.021": 0.0,
			"-0.02": 0.0,
			"-0.019": 0.0,
			"-0.018": 0.0,
			"-0.017": 0.0,
			"-0.016": 0.0,
			"-0.015": 0.0,
			"-0.014": 0.0,
			"-0.013": 0.0,
			"-0.012": 0.0,
			"-0.011": 0.0,
			"-0.01": 0.0,
			"-0.009": 0.0,
			"-0.008": 0.0,
			"-0.007": 0.542028060491,
			"-0.006": 6.10899846279,
			"-0.005": 21.4011979043,
			"-0.004": 30.4140593776,
			"-0.003": 38.7015154172,
			"-0.002": 42.7248464236,
			"-0.001": 39.878137182,
			"0.0": 18.7545933512,
			"0.001": 13.3434490651,
			"0.002": 11.524086905,
			"0.003": 11.8668994878,
			"0.004": 13.8739857112,
			"0.005": 15.8044943341,
			"0.006": 19.1339171824,
			"0.007": 19.7150854596,
			"0.008": 4.76731618635,
			"0.009": 0.762092538512,
			"0.01": 0.0230595018494,
			"0.011": 0.0,
			"0.012": 0.0,
			"0.013": 0.0,
			"0.014": 0.0,
			"0.015": 0.0,
			"0.016": 0.0,
			"0.017": 0.0,
			"0.018": 0.0,
			"0.019": 0.0,
			"0.02": 0.0,
			"0.021": 0.0,
			"0.022": 0.0,
			"0.023": 0.0,
			"0.024": 0.0,
			"0.025": 0.0
		}
	}
}
