{
	 "smiles": "NN=C(NC1=CC=CC=C1)C1=CC(F)=CC(F)=C1", 
	 "Tm": 373.15, 
	 "num_atms": 29, 
	 "gaussian": { 
		 "optdone": 1, 
		 "sigma_profile": "yes", 
		 "theory": "DFT", 
		 "functional": "B3LYP", 
		 "basiset": "6-31G**", 
		 "properties": { 
			 "R2extent": 5200.5194, 
			 "electric_dipole_moment_norm": 3.11559555944, 
			 "electric_quadrupole_moment_norm": 7.73130475664, 
			 "total_energy": -865.903352215, 
			 "HOMO_LUMO_gap": 0.16086, 
			 "cosmo_polarized_energy": -11.86, 
			 "cosmo_cavitation_energy": 34.52, 
			 "cosmo_dispersion_energy": -23.96, 
			 "cosmo_repulsion_energy": 1.83, 
			 "cosmo_total_nonelectrostatic_energy": 12.4, 
			 "SMD_solvation_energy": 6.64 
		},
		"coords": [
			{
				"x": 2.8237658149,
				"y": 1.5528609637,
				"z": -2.5987375282,
				"element": "N" 
			},
			{
				"x": 1.4446412914,
				"y": 1.4054071447,
				"z": -2.6492639699,
				"element": "N" 
			},
			{
				"x": 0.8890806862,
				"y": 0.8623007582,
				"z": -1.6151519063,
				"element": "C" 
			},
			{
				"x": 1.633756195,
				"y": 0.5221641919,
				"z": -0.4807209074,
				"element": "N" 
			},
			{
				"x": 1.522504671,
				"y": -0.6056348666,
				"z": 0.3478320219,
				"element": "C" 
			},
			{
				"x": 0.8460859171,
				"y": -1.7676401148,
				"z": -0.0578509142,
				"element": "C" 
			},
			{
				"x": 0.7767076395,
				"y": -2.8664629222,
				"z": 0.7971230152,
				"element": "C" 
			},
			{
				"x": 1.3893538139,
				"y": -2.8409940771,
				"z": 2.051334178,
				"element": "C" 
			},
			{
				"x": 2.0752052549,
				"y": -1.6909925147,
				"z": 2.447969041,
				"element": "C" 
			},
			{
				"x": 2.1369500005,
				"y": -0.5793013792,
				"z": 1.6111909902,
				"element": "C" 
			},
			{
				"x": -0.5894201372,
				"y": 0.7307960486,
				"z": -1.6135781524,
				"element": "C" 
			},
			{
				"x": -1.2704850136,
				"y": 0.6239649477,
				"z": -2.8363032057,
				"element": "C" 
			},
			{
				"x": -2.6556056398,
				"y": 0.5550458499,
				"z": -2.8290115303,
				"element": "C" 
			},
			{
				"x": -3.3089617232,
				"y": 0.4520851036,
				"z": -4.0039489491,
				"element": "F" 
			},
			{
				"x": -3.4052639019,
				"y": 0.5766608312,
				"z": -1.6567587315,
				"element": "C" 
			},
			{
				"x": -2.6998304891,
				"y": 0.6808483389,
				"z": -0.4636420881,
				"element": "C" 
			},
			{
				"x": -3.3941208525,
				"y": 0.7140178802,
				"z": 0.6914645458,
				"element": "F" 
			},
			{
				"x": -1.3139769504,
				"y": 0.756758281,
				"z": -0.4122298968,
				"element": "C" 
			},
			{
				"x": 3.2996593383,
				"y": 0.7222163836,
				"z": -2.2391647951,
				"element": "H" 
			},
			{
				"x": 3.1522089922,
				"y": 1.7647581207,
				"z": -3.5335711089,
				"element": "H" 
			},
			{
				"x": 2.4069396101,
				"y": 1.1481225665,
				"z": -0.290287751,
				"element": "H" 
			},
			{
				"x": 0.3849034075,
				"y": -1.8108825937,
				"z": -1.0382234486,
				"element": "H" 
			},
			{
				"x": 0.2468638353,
				"y": -3.7564139234,
				"z": 0.469231842,
				"element": "H" 
			},
			{
				"x": 1.3356805569,
				"y": -3.703721801,
				"z": 2.7077263636,
				"element": "H" 
			},
			{
				"x": 2.5596495416,
				"y": -1.6519987669,
				"z": 3.4195608601,
				"element": "H" 
			},
			{
				"x": 2.6572212166,
				"y": 0.319460148,
				"z": 1.9338099954,
				"element": "H" 
			},
			{
				"x": -0.724104995,
				"y": 0.6070017686,
				"z": -3.770583987,
				"element": "H" 
			},
			{
				"x": -4.4861358975,
				"y": 0.5131868573,
				"z": -1.673024725,
				"element": "H" 
			},
			{
				"x": -0.8201721827,
				"y": 0.8468867751,
				"z": 0.5467107421,
				"element": "H" 
			}
		],
		 "valence_orbital": [ 
			{
				"type": "occ",
				"energy": -0.2711,
				"method": "rhf"
			},
			{
				"type": "occ",
				"energy": -0.25468,
				"method": "rhf"
			},
			{
				"type": "occ",
				"energy": -0.24438,
				"method": "rhf"
			},
			{
				"type": "occ",
				"energy": -0.23244,
				"method": "rhf"
			},
			{
				"type": "occ",
				"energy": -0.20128,
				"method": "rhf"
			},
			{
				"type": "unocc",
				"energy": -0.04042,
				"method": "rhf"
			},
			{
				"type": "unocc",
				"energy": -0.00762,
				"method": "rhf"
			},
			{
				"type": "unocc",
				"energy": 0.00225,
				"method": "rhf"
			},
			{
				"type": "unocc",
				"energy": 0.00715,
				"method": "rhf"
			},
			{
				"type": "unocc",
				"energy": 0.0522,
				"method": "rhf"
			}
		],
		"cosmo_sigma_profile": { 
			"-0.025": 0.0,
			"-0.024": 0.0,
			"-0.023": 0.0,
			"-0.022": 0.0,
			"-0.021": 0.0,
			"-0.02": 0.0,
			"-0.019": 0.0,
			"-0.018": 0.0,
			"-0.017": 0.0,
			"-0.016": 0.0,
			"-0.015": 0.0,
			"-0.014": 0.0,
			"-0.013": 0.548576914219,
			"-0.012": 2.59600782958,
			"-0.011": 3.9312462272,
			"-0.01": 4.30470073519,
			"-0.009": 5.10560080387,
			"-0.008": 4.71439691751,
			"-0.007": 4.48511077704,
			"-0.006": 9.4678147264,
			"-0.005": 14.5420561122,
			"-0.004": 16.1526240689,
			"-0.003": 16.9011109801,
			"-0.002": 13.0979686826,
			"-0.001": 16.0087544343,
			"0.0": 24.9758890273,
			"0.001": 28.4276064621,
			"0.002": 23.4483539086,
			"0.003": 18.9714961305,
			"0.004": 30.7655845232,
			"0.005": 12.4353671943,
			"0.006": 10.3683374178,
			"0.007": 3.83479981125,
			"0.008": 2.65408775884,
			"0.009": 1.74415324747,
			"0.01": 1.77578715,
			"0.011": 1.81731492191,
			"0.012": 1.32115470389,
			"0.013": 1.26922622513,
			"0.014": 0.764804623607,
			"0.015": 0.0,
			"0.016": 0.0,
			"0.017": 0.0,
			"0.018": 0.0,
			"0.019": 0.0,
			"0.02": 0.0,
			"0.021": 0.0,
			"0.022": 0.0,
			"0.023": 0.0,
			"0.024": 0.0,
			"0.025": 0.0
		}
	}
}
