{
	 "smiles": "COC1=CC2=C(C=C1OC)C(=O)C(CC1CCN(CC3=CC=CC=C3)CC1)C2", 
	 "Tm": 479.87, 
	 "num_atms": 57, 
	 "gaussian": { 
		 "optdone": 1, 
		 "sigma_profile": "yes", 
		 "theory": "DFT", 
		 "functional": "B3LYP", 
		 "basiset": "6-31G**", 
		 "properties": { 
			 "R2extent": 18327.6462, 
			 "electric_dipole_moment_norm": 5.40351804753, 
			 "electric_quadrupole_moment_norm": 22.2412432144, 
			 "total_energy": -1212.42863041, 
			 "HOMO_LUMO_gap": 0.14848, 
			 "cosmo_polarized_energy": -16.21, 
			 "cosmo_cavitation_energy": 55.79, 
			 "cosmo_dispersion_energy": -38.45, 
			 "cosmo_repulsion_energy": 2.9, 
			 "cosmo_total_nonelectrostatic_energy": 20.24, 
			 "SMD_solvation_energy": 8.91 
		},
		"coords": [
			{
				"x": 2.5900767071,
				"y": 6.6301507359,
				"z": -2.1254652309,
				"element": "C" 
			},
			{
				"x": 1.1929718899,
				"y": 6.5190438373,
				"z": -1.8905600047,
				"element": "O" 
			},
			{
				"x": 0.7489966037,
				"y": 5.529057011,
				"z": -1.0719105888,
				"element": "C" 
			},
			{
				"x": 1.577034931,
				"y": 4.5806863966,
				"z": -0.4593860082,
				"element": "C" 
			},
			{
				"x": 1.0032581368,
				"y": 3.6235972283,
				"z": 0.3798959976,
				"element": "C" 
			},
			{
				"x": -0.3735332751,
				"y": 3.6218767511,
				"z": 0.6030561952,
				"element": "C" 
			},
			{
				"x": -1.2140903642,
				"y": 4.5578295362,
				"z": -0.0145883794,
				"element": "C" 
			},
			{
				"x": -0.6605475925,
				"y": 5.5115284619,
				"z": -0.8521339256,
				"element": "C" 
			},
			{
				"x": -1.4630358822,
				"y": 6.4786478857,
				"z": -1.4038577443,
				"element": "O" 
			},
			{
				"x": -1.6788933748,
				"y": 6.3770907632,
				"z": -2.8134302,
				"element": "C" 
			},
			{
				"x": -0.7379829757,
				"y": 2.5372901095,
				"z": 1.5339077659,
				"element": "C" 
			},
			{
				"x": -1.8613504827,
				"y": 2.238318377,
				"z": 1.9080631522,
				"element": "O" 
			},
			{
				"x": 0.5715950369,
				"y": 1.8712133793,
				"z": 2.0077359928,
				"element": "C" 
			},
			{
				"x": 0.523177813,
				"y": 0.3336097331,
				"z": 2.131500213,
				"element": "C" 
			},
			{
				"x": 0.542578617,
				"y": -0.5019974444,
				"z": 0.8311331068,
				"element": "C" 
			},
			{
				"x": -0.6943192919,
				"y": -0.3202413409,
				"z": -0.0678734443,
				"element": "C" 
			},
			{
				"x": -1.9952160375,
				"y": -0.8112037897,
				"z": 0.6001381507,
				"element": "C" 
			},
			{
				"x": -1.7201652566,
				"y": -1.8917445917,
				"z": 1.554660493,
				"element": "N" 
			},
			{
				"x": -2.919565694,
				"y": -2.5435948244,
				"z": 2.0847688206,
				"element": "C" 
			},
			{
				"x": -3.7612361929,
				"y": -3.3466034413,
				"z": 1.0982683141,
				"element": "C" 
			},
			{
				"x": -4.8433846246,
				"y": -2.7579757564,
				"z": 0.4283858718,
				"element": "C" 
			},
			{
				"x": -5.5946649262,
				"y": -3.4806060011,
				"z": -0.5005661657,
				"element": "C" 
			},
			{
				"x": -5.2767854502,
				"y": -4.812000648,
				"z": -0.7734980274,
				"element": "C" 
			},
			{
				"x": -4.2078918063,
				"y": -5.4155226535,
				"z": -0.107533962,
				"element": "C" 
			},
			{
				"x": -3.4606565913,
				"y": -4.6878771584,
				"z": 0.8195130716,
				"element": "C" 
			},
			{
				"x": -0.6508455563,
				"y": -2.7759059394,
				"z": 1.1070218348,
				"element": "C" 
			},
			{
				"x": 0.6965020492,
				"y": -2.0201754371,
				"z": 1.1459065947,
				"element": "C" 
			},
			{
				"x": 1.6882987156,
				"y": 2.498901924,
				"z": 1.1300830782,
				"element": "C" 
			},
			{
				"x": 2.9888068612,
				"y": 5.7358865267,
				"z": -2.6205253358,
				"element": "H" 
			},
			{
				"x": 2.7149610295,
				"y": 7.4921210099,
				"z": -2.7819542498,
				"element": "H" 
			},
			{
				"x": 3.1404338964,
				"y": 6.8018718095,
				"z": -1.1924393199,
				"element": "H" 
			},
			{
				"x": 2.6480675165,
				"y": 4.591317793,
				"z": -0.6279496066,
				"element": "H" 
			},
			{
				"x": -2.2842195225,
				"y": 4.5543828562,
				"z": 0.1659411821,
				"element": "H" 
			},
			{
				"x": -2.1425284325,
				"y": 5.4157863744,
				"z": -3.0703742999,
				"element": "H" 
			},
			{
				"x": -0.7457403532,
				"y": 6.4944240919,
				"z": -3.3731377145,
				"element": "H" 
			},
			{
				"x": -2.363051101,
				"y": 7.186799794,
				"z": -3.0750819609,
				"element": "H" 
			},
			{
				"x": 0.6942432835,
				"y": 2.2502422247,
				"z": 3.0331782678,
				"element": "H" 
			},
			{
				"x": -0.3678370732,
				"y": 0.0717365756,
				"z": 2.7107879231,
				"element": "H" 
			},
			{
				"x": 1.3866323429,
				"y": 0.0239860735,
				"z": 2.7352475372,
				"element": "H" 
			},
			{
				"x": 1.4230723671,
				"y": -0.1988753514,
				"z": 0.2498076709,
				"element": "H" 
			},
			{
				"x": -0.8195837633,
				"y": 0.7220700908,
				"z": -0.3787602924,
				"element": "H" 
			},
			{
				"x": -0.5200658918,
				"y": -0.8875377653,
				"z": -0.9910994909,
				"element": "H" 
			},
			{
				"x": -2.4679044753,
				"y": 0.01042093,
				"z": 1.1496392984,
				"element": "H" 
			},
			{
				"x": -2.6952047376,
				"y": -1.1265780567,
				"z": -0.1937294951,
				"element": "H" 
			},
			{
				"x": -3.5433184411,
				"y": -1.7579388997,
				"z": 2.5291759848,
				"element": "H" 
			},
			{
				"x": -2.6002529358,
				"y": -3.2012647746,
				"z": 2.9028553515,
				"element": "H" 
			},
			{
				"x": -5.1062677644,
				"y": -1.7257010405,
				"z": 0.6470135581,
				"element": "H" 
			},
			{
				"x": -6.4312101779,
				"y": -3.0056268801,
				"z": -1.0059530742,
				"element": "H" 
			},
			{
				"x": -5.8621134939,
				"y": -5.3777074923,
				"z": -1.4929543523,
				"element": "H" 
			},
			{
				"x": -3.9611056133,
				"y": -6.4553459976,
				"z": -0.3045673629,
				"element": "H" 
			},
			{
				"x": -2.6392360518,
				"y": -5.1708411412,
				"z": 1.343527213,
				"element": "H" 
			},
			{
				"x": -0.8339781506,
				"y": -3.1855427937,
				"z": 0.0959418939,
				"element": "H" 
			},
			{
				"x": -0.6064614557,
				"y": -3.63896947,
				"z": 1.7806307852,
				"element": "H" 
			},
			{
				"x": 1.3824078097,
				"y": -2.485078987,
				"z": 0.4270389121,
				"element": "H" 
			},
			{
				"x": 1.1517052159,
				"y": -2.1405757444,
				"z": 2.1354671428,
				"element": "H" 
			},
			{
				"x": 2.1058561856,
				"y": 1.7718677465,
				"z": 0.4237756707,
				"element": "H" 
			},
			{
				"x": 2.5303678011,
				"y": 2.8635773941,
				"z": 1.7297631918,
				"element": "H" 
			}
		],
		 "valence_orbital": [ 
			{
				"type": "occ",
				"energy": -0.24171,
				"method": "rhf"
			},
			{
				"type": "occ",
				"energy": -0.23714,
				"method": "rhf"
			},
			{
				"type": "occ",
				"energy": -0.23115,
				"method": "rhf"
			},
			{
				"type": "occ",
				"energy": -0.22259,
				"method": "rhf"
			},
			{
				"type": "occ",
				"energy": -0.19079,
				"method": "rhf"
			},
			{
				"type": "unocc",
				"energy": -0.04231,
				"method": "rhf"
			},
			{
				"type": "unocc",
				"energy": -0.00591,
				"method": "rhf"
			},
			{
				"type": "unocc",
				"energy": 0.00456,
				"method": "rhf"
			},
			{
				"type": "unocc",
				"energy": 0.00594,
				"method": "rhf"
			},
			{
				"type": "unocc",
				"energy": 0.05414,
				"method": "rhf"
			}
		],
		"cosmo_sigma_profile": { 
			"-0.025": 0.0,
			"-0.024": 0.0,
			"-0.023": 0.0,
			"-0.022": 0.0,
			"-0.021": 0.0,
			"-0.02": 0.0,
			"-0.019": 0.0,
			"-0.018": 0.0,
			"-0.017": 0.0,
			"-0.016": 0.0,
			"-0.015": 0.0,
			"-0.014": 0.0,
			"-0.013": 0.0,
			"-0.012": 0.0,
			"-0.011": 0.0,
			"-0.01": 0.0,
			"-0.009": 0.0,
			"-0.008": 0.0162941644431,
			"-0.007": 2.2645390786,
			"-0.006": 12.5452849913,
			"-0.005": 29.4345341204,
			"-0.004": 42.5174526486,
			"-0.003": 47.8254438797,
			"-0.002": 50.736742274,
			"-0.001": 49.6201497351,
			"0.0": 42.1287811237,
			"0.001": 32.362175379,
			"0.002": 25.9498160102,
			"0.003": 24.2880397268,
			"0.004": 15.9938703408,
			"0.005": 13.0695420517,
			"0.006": 12.8290766431,
			"0.007": 8.20920904475,
			"0.008": 5.70550025516,
			"0.009": 5.03352785925,
			"0.01": 3.87951436712,
			"0.011": 5.21279180949,
			"0.012": 4.17945606684,
			"0.013": 3.26311017496,
			"0.014": 0.71322780394,
			"0.015": 0.0,
			"0.016": 0.0,
			"0.017": 0.0,
			"0.018": 0.0,
			"0.019": 0.0,
			"0.02": 0.0,
			"0.021": 0.0,
			"0.022": 0.0,
			"0.023": 0.0,
			"0.024": 0.0,
			"0.025": 0.0
		}
	}
}
