{
	 "smiles": "COC1=CC=CC(OC)=C1OC", 
	 "Tm": 319.35, 
	 "num_atms": 24, 
	 "gaussian": { 
		 "optdone": 1, 
		 "sigma_profile": "yes", 
		 "theory": "DFT", 
		 "functional": "B3LYP", 
		 "basiset": "6-31G**", 
		 "properties": { 
			 "R2extent": 2324.1205, 
			 "electric_dipole_moment_norm": 1.82682295256, 
			 "electric_quadrupole_moment_norm": 10.4896200303, 
			 "total_energy": -575.809558721, 
			 "HOMO_LUMO_gap": 0.22065, 
			 "cosmo_polarized_energy": -8.22, 
			 "cosmo_cavitation_energy": 27.19, 
			 "cosmo_dispersion_energy": -19.51, 
			 "cosmo_repulsion_energy": 1.57, 
			 "cosmo_total_nonelectrostatic_energy": 9.25, 
			 "SMD_solvation_energy": 7.09 
		},
		"coords": [
			{
				"x": -1.0668454501,
				"y": 0.1151935608,
				"z": 2.369612396,
				"element": "C" 
			},
			{
				"x": -1.8359977782,
				"y": 0.0636440716,
				"z": 1.1641248144,
				"element": "O" 
			},
			{
				"x": -1.198050577,
				"y": -0.4689359739,
				"z": 0.0698711866,
				"element": "C" 
			},
			{
				"x": -1.6870988591,
				"y": -1.6626027576,
				"z": -0.4746296644,
				"element": "C" 
			},
			{
				"x": -1.1014324968,
				"y": -2.186439539,
				"z": -1.621760894,
				"element": "C" 
			},
			{
				"x": -0.0198060501,
				"y": -1.54524182,
				"z": -2.233679938,
				"element": "C" 
			},
			{
				"x": 0.4741696111,
				"y": -0.354397405,
				"z": -1.6912696333,
				"element": "C" 
			},
			{
				"x": 1.5132048152,
				"y": 0.3659385702,
				"z": -2.2082034549,
				"element": "O" 
			},
			{
				"x": 2.1571968362,
				"y": -0.1341532989,
				"z": -3.3685744109,
				"element": "C" 
			},
			{
				"x": -0.1178632912,
				"y": 0.1909117145,
				"z": -0.531770871,
				"element": "C" 
			},
			{
				"x": 0.3811207721,
				"y": 1.3457941945,
				"z": 0.0254399622,
				"element": "O" 
			},
			{
				"x": -0.0497118028,
				"y": 2.5471455701,
				"z": -0.620186598,
				"element": "C" 
			},
			{
				"x": -0.7619360128,
				"y": -0.8928002546,
				"z": 2.6801549433,
				"element": "H" 
			},
			{
				"x": -1.7251122483,
				"y": 0.5396981635,
				"z": 3.1308846672,
				"element": "H" 
			},
			{
				"x": -0.1817260846,
				"y": 0.7460102086,
				"z": 2.2518633099,
				"element": "H" 
			},
			{
				"x": -2.5278521978,
				"y": -2.1461818179,
				"z": 0.0109205708,
				"element": "H" 
			},
			{
				"x": -1.4810568455,
				"y": -3.1099383742,
				"z": -2.0487914781,
				"element": "H" 
			},
			{
				"x": 0.424791178,
				"y": -1.9728721068,
				"z": -3.1240852249,
				"element": "H" 
			},
			{
				"x": 2.9497989931,
				"y": 0.5781661283,
				"z": -3.6032634885,
				"element": "H" 
			},
			{
				"x": 1.4676149675,
				"y": -0.2007663702,
				"z": -4.2202392964,
				"element": "H" 
			},
			{
				"x": 2.6015147925,
				"y": -1.1218220188,
				"z": -3.1905448214,
				"element": "H" 
			},
			{
				"x": 0.398986476,
				"y": 3.3731629333,
				"z": -0.0639029862,
				"element": "H" 
			},
			{
				"x": -1.1421351634,
				"y": 2.6387377967,
				"z": -0.5891637967,
				"element": "H" 
			},
			{
				"x": 0.2950264161,
				"y": 2.5805488247,
				"z": -1.6593052939,
				"element": "H" 
			}
		],
		 "valence_orbital": [ 
			{
				"type": "occ",
				"energy": -0.30984,
				"method": "rhf"
			},
			{
				"type": "occ",
				"energy": -0.27749,
				"method": "rhf"
			},
			{
				"type": "occ",
				"energy": -0.26001,
				"method": "rhf"
			},
			{
				"type": "occ",
				"energy": -0.22301,
				"method": "rhf"
			},
			{
				"type": "occ",
				"energy": -0.21365,
				"method": "rhf"
			},
			{
				"type": "unocc",
				"energy": 0.007,
				"method": "rhf"
			},
			{
				"type": "unocc",
				"energy": 0.01777,
				"method": "rhf"
			},
			{
				"type": "unocc",
				"energy": 0.07977,
				"method": "rhf"
			},
			{
				"type": "unocc",
				"energy": 0.09982,
				"method": "rhf"
			},
			{
				"type": "unocc",
				"energy": 0.12418,
				"method": "rhf"
			}
		],
		"cosmo_sigma_profile": { 
			"-0.025": 0.0,
			"-0.024": 0.0,
			"-0.023": 0.0,
			"-0.022": 0.0,
			"-0.021": 0.0,
			"-0.02": 0.0,
			"-0.019": 0.0,
			"-0.018": 0.0,
			"-0.017": 0.0,
			"-0.016": 0.0,
			"-0.015": 0.0,
			"-0.014": 0.0,
			"-0.013": 0.0,
			"-0.012": 0.0,
			"-0.011": 0.0,
			"-0.01": 0.0,
			"-0.009": 0.0,
			"-0.008": 0.0,
			"-0.007": 0.419263558031,
			"-0.006": 8.51063581152,
			"-0.005": 19.7540723338,
			"-0.004": 22.9863670625,
			"-0.003": 29.2530140502,
			"-0.002": 23.7448482964,
			"-0.001": 13.5447138892,
			"0.0": 11.4171537747,
			"0.001": 11.7334874359,
			"0.002": 11.1958057264,
			"0.003": 12.9144267944,
			"0.004": 12.7043738545,
			"0.005": 12.564658041,
			"0.006": 7.14841348676,
			"0.007": 3.0251168343,
			"0.008": 2.5329064035,
			"0.009": 2.75226435199,
			"0.01": 2.62600243372,
			"0.011": 2.75844976835,
			"0.012": 3.10419867275,
			"0.013": 0.421786614065,
			"0.014": 0.0,
			"0.015": 0.0,
			"0.016": 0.0,
			"0.017": 0.0,
			"0.018": 0.0,
			"0.019": 0.0,
			"0.02": 0.0,
			"0.021": 0.0,
			"0.022": 0.0,
			"0.023": 0.0,
			"0.024": 0.0,
			"0.025": 0.0
		}
	}
}
