{
	 "smiles": "NC(=O)NC(=O)C=C", 
	 "Tm": 443.15, 
	 "num_atms": 14, 
	 "gaussian": { 
		 "optdone": 1, 
		 "sigma_profile": "yes", 
		 "theory": "DFT", 
		 "functional": "B3LYP", 
		 "basiset": "6-31G**", 
		 "properties": { 
			 "R2extent": 1540.3976, 
			 "electric_dipole_moment_norm": 2.46020444069, 
			 "electric_quadrupole_moment_norm": 13.9568724498, 
			 "total_energy": -416.011133409, 
			 "HOMO_LUMO_gap": 0.20484, 
			 "cosmo_polarized_energy": -13.74, 
			 "cosmo_cavitation_energy": 18.86, 
			 "cosmo_dispersion_energy": -13.94, 
			 "cosmo_repulsion_energy": 1.18, 
			 "cosmo_total_nonelectrostatic_energy": 6.1, 
			 "SMD_solvation_energy": 5.7 
		},
		"coords": [
			{
				"x": -0.2967255197,
				"y": 0.8582757172,
				"z": -2.8144642589,
				"element": "N" 
			},
			{
				"x": -0.3588859134,
				"y": -0.4827648708,
				"z": -2.6551280437,
				"element": "C" 
			},
			{
				"x": -0.0641949306,
				"y": -1.3238417916,
				"z": -3.4891451322,
				"element": "O" 
			},
			{
				"x": -0.8057837184,
				"y": -0.9169503594,
				"z": -1.3729302198,
				"element": "N" 
			},
			{
				"x": -1.2236461235,
				"y": -0.1678915816,
				"z": -0.2942503695,
				"element": "C" 
			},
			{
				"x": -1.3045914416,
				"y": 1.0602528777,
				"z": -0.3116362485,
				"element": "O" 
			},
			{
				"x": -1.5858054634,
				"y": -0.9221845012,
				"z": 0.940316795,
				"element": "C" 
			},
			{
				"x": -1.1554706785,
				"y": -2.1410787513,
				"z": 1.2752789748,
				"element": "C" 
			},
			{
				"x": -0.6269737281,
				"y": 1.4679006725,
				"z": -2.0739959033,
				"element": "H" 
			},
			{
				"x": -0.0223899634,
				"y": 1.1978212323,
				"z": -3.7214352853,
				"element": "H" 
			},
			{
				"x": -0.8570097063,
				"y": -1.9245573604,
				"z": -1.3227916406,
				"element": "H" 
			},
			{
				"x": -2.2058146806,
				"y": -0.3421540018,
				"z": 1.6178284614,
				"element": "H" 
			},
			{
				"x": -0.4875246326,
				"y": -2.7254090079,
				"z": 0.6476456373,
				"element": "H" 
			},
			{
				"x": -1.4394834999,
				"y": -2.5947182736,
				"z": 2.2195072334,
				"element": "H" 
			}
		],
		 "valence_orbital": [ 
			{
				"type": "occ",
				"energy": -0.30297,
				"method": "rhf"
			},
			{
				"type": "occ",
				"energy": -0.2887,
				"method": "rhf"
			},
			{
				"type": "occ",
				"energy": -0.28394,
				"method": "rhf"
			},
			{
				"type": "occ",
				"energy": -0.26866,
				"method": "rhf"
			},
			{
				"type": "occ",
				"energy": -0.266,
				"method": "rhf"
			},
			{
				"type": "unocc",
				"energy": -0.06116,
				"method": "rhf"
			},
			{
				"type": "unocc",
				"energy": 0.034,
				"method": "rhf"
			},
			{
				"type": "unocc",
				"energy": 0.07351,
				"method": "rhf"
			},
			{
				"type": "unocc",
				"energy": 0.08986,
				"method": "rhf"
			},
			{
				"type": "unocc",
				"energy": 0.10821,
				"method": "rhf"
			}
		],
		"cosmo_sigma_profile": { 
			"-0.025": 0.0,
			"-0.024": 0.0,
			"-0.023": 0.0,
			"-0.022": 0.0,
			"-0.021": 0.0,
			"-0.02": 0.0,
			"-0.019": 0.0,
			"-0.018": 0.0,
			"-0.017": 0.0,
			"-0.016": 0.0045828135315,
			"-0.015": 0.862193603621,
			"-0.014": 2.05647671342,
			"-0.013": 2.60853842153,
			"-0.012": 1.52348076027,
			"-0.011": 1.6982894851,
			"-0.01": 3.0378732586,
			"-0.009": 3.35272073872,
			"-0.008": 4.10576266282,
			"-0.007": 6.46388335267,
			"-0.006": 5.85606266284,
			"-0.005": 7.48814213187,
			"-0.004": 8.05324632035,
			"-0.003": 10.2192831311,
			"-0.002": 9.27984641975,
			"-0.001": 10.9385591625,
			"0.0": 11.0516856233,
			"0.001": 8.52353008514,
			"0.002": 8.30086484971,
			"0.003": 6.72380006549,
			"0.004": 3.61798798823,
			"0.005": 3.39238788634,
			"0.006": 2.16405225589,
			"0.007": 2.50578212197,
			"0.008": 2.73327814116,
			"0.009": 2.42545994045,
			"0.01": 2.77540433736,
			"0.011": 4.00317775963,
			"0.012": 3.90268409098,
			"0.013": 6.66228533678,
			"0.014": 3.82049201625,
			"0.015": 0.190531998608,
			"0.016": 0.0,
			"0.017": 0.0,
			"0.018": 0.0,
			"0.019": 0.0,
			"0.02": 0.0,
			"0.021": 0.0,
			"0.022": 0.0,
			"0.023": 0.0,
			"0.024": 0.0,
			"0.025": 0.0
		}
	}
}
