{
	 "smiles": "CCCC1=NOC2=C1C(=CC(=N2)C1=CN=CC=C1)C(O)=O", 
	 "Tm": 533.15, 
	 "num_atms": 34, 
	 "gaussian": { 
		 "optdone": 1, 
		 "sigma_profile": "yes", 
		 "theory": "DFT", 
		 "functional": "B3LYP", 
		 "basiset": "6-31G**", 
		 "properties": { 
			 "R2extent": 7292.6972, 
			 "electric_dipole_moment_norm": 2.23002351781, 
			 "electric_quadrupole_moment_norm": 21.9568229997, 
			 "total_energy": -969.326002867, 
			 "HOMO_LUMO_gap": 0.1577, 
			 "cosmo_polarized_energy": -19.61, 
			 "cosmo_cavitation_energy": 38.58, 
			 "cosmo_dispersion_energy": -27.4, 
			 "cosmo_repulsion_energy": 2.06, 
			 "cosmo_total_nonelectrostatic_energy": 13.24, 
			 "SMD_solvation_energy": 4.55 
		},
		"coords": [
			{
				"x": -1.8363033645,
				"y": -3.1699652915,
				"z": -2.761012377,
				"element": "C" 
			},
			{
				"x": -1.9336921417,
				"y": -1.752771041,
				"z": -3.3320664765,
				"element": "C" 
			},
			{
				"x": -0.5630773177,
				"y": -1.1260951724,
				"z": -3.6751926915,
				"element": "C" 
			},
			{
				"x": 0.3230462906,
				"y": -0.921482904,
				"z": -2.477470902,
				"element": "C" 
			},
			{
				"x": 1.3854935763,
				"y": -1.6808969462,
				"z": -2.3487714894,
				"element": "N" 
			},
			{
				"x": 2.0075554439,
				"y": -1.3711643779,
				"z": -1.1258084931,
				"element": "O" 
			},
			{
				"x": 1.2782344916,
				"y": -0.4115276739,
				"z": -0.5174750008,
				"element": "C" 
			},
			{
				"x": 0.1905976597,
				"y": -0.0490167338,
				"z": -1.3320495032,
				"element": "C" 
			},
			{
				"x": -0.6606914055,
				"y": 0.9483809854,
				"z": -0.8122597518,
				"element": "C" 
			},
			{
				"x": -0.3736278094,
				"y": 1.4307439755,
				"z": 0.4604830689,
				"element": "C" 
			},
			{
				"x": 0.7560729373,
				"y": 0.9708914949,
				"z": 1.1821971019,
				"element": "C" 
			},
			{
				"x": 1.597519148,
				"y": 0.0512187476,
				"z": 0.6756654198,
				"element": "N" 
			},
			{
				"x": 1.0884101875,
				"y": 1.4931854727,
				"z": 2.5285927858,
				"element": "C" 
			},
			{
				"x": 0.1588938071,
				"y": 2.1876720975,
				"z": 3.3216045556,
				"element": "C" 
			},
			{
				"x": 0.42479189,
				"y": 2.6756580704,
				"z": 4.536095841,
				"element": "N" 
			},
			{
				"x": 1.6566707984,
				"y": 2.4824803392,
				"z": 5.0230821911,
				"element": "C" 
			},
			{
				"x": 2.6558343803,
				"y": 1.7917780379,
				"z": 4.3334300282,
				"element": "C" 
			},
			{
				"x": 2.3671640454,
				"y": 1.2887168739,
				"z": 3.0708037139,
				"element": "C" 
			},
			{
				"x": -1.8385742249,
				"y": 1.5413629582,
				"z": -1.5358831402,
				"element": "C" 
			},
			{
				"x": -1.6438418831,
				"y": 1.8176964602,
				"z": -2.8512440497,
				"element": "O" 
			},
			{
				"x": -2.8889010475,
				"y": 1.7904941343,
				"z": -1.00055188,
				"element": "O" 
			},
			{
				"x": -1.334221835,
				"y": -3.8451381889,
				"z": -3.4624847635,
				"element": "H" 
			},
			{
				"x": -2.8326988322,
				"y": -3.5750348525,
				"z": -2.5598264579,
				"element": "H" 
			},
			{
				"x": -1.2717427527,
				"y": -3.192269268,
				"z": -1.8236185098,
				"element": "H" 
			},
			{
				"x": -2.4734153836,
				"y": -1.1031286745,
				"z": -2.6329036805,
				"element": "H" 
			},
			{
				"x": -2.5292316721,
				"y": -1.7645904104,
				"z": -4.2522348844,
				"element": "H" 
			},
			{
				"x": -0.0211812407,
				"y": -1.7778116664,
				"z": -4.3679701199,
				"element": "H" 
			},
			{
				"x": -0.728010512,
				"y": -0.175023605,
				"z": -4.1924121244,
				"element": "H" 
			},
			{
				"x": -1.0207623296,
				"y": 2.193094734,
				"z": 0.8745280809,
				"element": "H" 
			},
			{
				"x": -0.8598966144,
				"y": 2.342860922,
				"z": 2.9731072945,
				"element": "H" 
			},
			{
				"x": 1.8515938989,
				"y": 2.8956907851,
				"z": 6.010994287,
				"element": "H" 
			},
			{
				"x": 3.6364044211,
				"y": 1.6557786525,
				"z": 4.7784550297,
				"element": "H" 
			},
			{
				"x": 3.1049286922,
				"y": 0.74239698,
				"z": 2.4937491878,
				"element": "H" 
			},
			{
				"x": -0.7124413015,
				"y": 1.6901150851,
				"z": -3.0830522901,
				"element": "H" 
			}
		],
		 "valence_orbital": [ 
			{
				"type": "occ",
				"energy": -0.29467,
				"method": "rhf"
			},
			{
				"type": "occ",
				"energy": -0.28985,
				"method": "rhf"
			},
			{
				"type": "occ",
				"energy": -0.28071,
				"method": "rhf"
			},
			{
				"type": "occ",
				"energy": -0.26533,
				"method": "rhf"
			},
			{
				"type": "occ",
				"energy": -0.25525,
				"method": "rhf"
			},
			{
				"type": "unocc",
				"energy": -0.09755,
				"method": "rhf"
			},
			{
				"type": "unocc",
				"energy": -0.05469,
				"method": "rhf"
			},
			{
				"type": "unocc",
				"energy": -0.03307,
				"method": "rhf"
			},
			{
				"type": "unocc",
				"energy": -0.01153,
				"method": "rhf"
			},
			{
				"type": "unocc",
				"energy": 0.00385,
				"method": "rhf"
			}
		],
		"cosmo_sigma_profile": { 
			"-0.025": 0.0,
			"-0.024": 0.0,
			"-0.023": 0.0,
			"-0.022": 0.0,
			"-0.021": 0.0,
			"-0.02": 0.35366228232,
			"-0.019": 0.860518020504,
			"-0.018": 0.88291927774,
			"-0.017": 1.29313162922,
			"-0.016": 0.837324439793,
			"-0.015": 0.749784093762,
			"-0.014": 0.742876497086,
			"-0.013": 1.41489186975,
			"-0.012": 0.656863837519,
			"-0.011": 0.873070905338,
			"-0.01": 2.11829529922,
			"-0.009": 2.91454917219,
			"-0.008": 3.80355240637,
			"-0.007": 8.62982450222,
			"-0.006": 12.1667147284,
			"-0.005": 13.2262851055,
			"-0.004": 21.2101911878,
			"-0.003": 30.6911200585,
			"-0.002": 28.2307215093,
			"-0.001": 28.910256284,
			"0.0": 24.3019108776,
			"0.001": 26.1247992293,
			"0.002": 16.1650655455,
			"0.003": 9.27702144064,
			"0.004": 7.94658744764,
			"0.005": 7.17141365386,
			"0.006": 8.63742301187,
			"0.007": 11.1186911269,
			"0.008": 8.23279057059,
			"0.009": 8.82246514395,
			"0.01": 6.62126469545,
			"0.011": 6.8749329457,
			"0.012": 3.33641296228,
			"0.013": 1.33864487863,
			"0.014": 0.838941639278,
			"0.015": 1.0217691603,
			"0.016": 0.61802871503,
			"0.017": 0.0531954309936,
			"0.018": 0.0,
			"0.019": 0.0,
			"0.02": 0.0,
			"0.021": 0.0,
			"0.022": 0.0,
			"0.023": 0.0,
			"0.024": 0.0,
			"0.025": 0.0
		}
	}
}
