{
	 "smiles": "FC1=C(NC(=O)CCl)C=C(Cl)C=C1", 
	 "Tm": 373.15, 
	 "num_atms": 19, 
	 "gaussian": { 
		 "optdone": 1, 
		 "sigma_profile": "yes", 
		 "theory": "DFT", 
		 "functional": "B3LYP", 
		 "basiset": "6-31G**", 
		 "properties": { 
			 "R2extent": 4291.6168, 
			 "electric_dipole_moment_norm": 4.32159545076, 
			 "electric_quadrupole_moment_norm": 13.5125187504, 
			 "total_energy": -1458.66534666, 
			 "HOMO_LUMO_gap": 0.20155, 
			 "cosmo_polarized_energy": -14.0, 
			 "cosmo_cavitation_energy": 27.84, 
			 "cosmo_dispersion_energy": -20.42, 
			 "cosmo_repulsion_energy": 1.62, 
			 "cosmo_total_nonelectrostatic_energy": 9.04, 
			 "SMD_solvation_energy": 5.26 
		},
		"coords": [
			{
				"x": 0.1801333712,
				"y": -3.2217541291,
				"z": 0.1764429804,
				"element": "F" 
			},
			{
				"x": -0.7027253072,
				"y": -2.3298745111,
				"z": -0.3275000975,
				"element": "C" 
			},
			{
				"x": -0.508600382,
				"y": -0.9746328274,
				"z": -0.0110348457,
				"element": "C" 
			},
			{
				"x": 0.5977975184,
				"y": -0.654498275,
				"z": 0.791087585,
				"element": "N" 
			},
			{
				"x": 0.8130411506,
				"y": 0.3052445611,
				"z": 1.7738580194,
				"element": "C" 
			},
			{
				"x": 1.855687214,
				"y": 0.3050937086,
				"z": 2.3958686933,
				"element": "O" 
			},
			{
				"x": -0.3059662347,
				"y": 1.3240729897,
				"z": 2.0033521434,
				"element": "C" 
			},
			{
				"x": -0.148641754,
				"y": 2.1417768483,
				"z": 3.5871469382,
				"element": "Cl" 
			},
			{
				"x": -1.395469982,
				"y": -0.0461502922,
				"z": -0.571819161,
				"element": "C" 
			},
			{
				"x": -2.4540031371,
				"y": -0.4904696148,
				"z": -1.3661890823,
				"element": "C" 
			},
			{
				"x": -3.5577657388,
				"y": 0.6980301133,
				"z": -2.0372575988,
				"element": "Cl" 
			},
			{
				"x": -2.6416627175,
				"y": -1.8396964386,
				"z": -1.6550893453,
				"element": "C" 
			},
			{
				"x": -1.7386326292,
				"y": -2.7679672033,
				"z": -1.1321706184,
				"element": "C" 
			},
			{
				"x": 1.3318250638,
				"y": -1.3536227726,
				"z": 0.80542436,
				"element": "H" 
			},
			{
				"x": -0.2606478443,
				"y": 2.1003752783,
				"z": 1.235521503,
				"element": "H" 
			},
			{
				"x": -1.2888190453,
				"y": 0.8524406037,
				"z": 1.9643968579,
				"element": "H" 
			},
			{
				"x": -1.2573855701,
				"y": 1.0156350457,
				"z": -0.4211401614,
				"element": "H" 
			},
			{
				"x": -3.4671234367,
				"y": -2.1595305133,
				"z": -2.2794227588,
				"element": "H" 
			},
			{
				"x": -1.836940539,
				"y": -3.8286725713,
				"z": -1.3347754115,
				"element": "H" 
			}
		],
		 "valence_orbital": [ 
			{
				"type": "occ",
				"energy": -0.30702,
				"method": "rhf"
			},
			{
				"type": "occ",
				"energy": -0.30426,
				"method": "rhf"
			},
			{
				"type": "occ",
				"energy": -0.28121,
				"method": "rhf"
			},
			{
				"type": "occ",
				"energy": -0.27192,
				"method": "rhf"
			},
			{
				"type": "occ",
				"energy": -0.24662,
				"method": "rhf"
			},
			{
				"type": "unocc",
				"energy": -0.04507,
				"method": "rhf"
			},
			{
				"type": "unocc",
				"energy": -0.0345,
				"method": "rhf"
			},
			{
				"type": "unocc",
				"energy": 0.00186,
				"method": "rhf"
			},
			{
				"type": "unocc",
				"energy": 0.00802,
				"method": "rhf"
			},
			{
				"type": "unocc",
				"energy": 0.02434,
				"method": "rhf"
			}
		],
		"cosmo_sigma_profile": { 
			"-0.025": 0.0,
			"-0.024": 0.0,
			"-0.023": 0.0,
			"-0.022": 0.0,
			"-0.021": 0.0,
			"-0.02": 0.0,
			"-0.019": 0.0,
			"-0.018": 0.0,
			"-0.017": 0.0,
			"-0.016": 0.0,
			"-0.015": 0.0,
			"-0.014": 0.212261167992,
			"-0.013": 1.02014037294,
			"-0.012": 2.59777861819,
			"-0.011": 2.41170420967,
			"-0.01": 3.48941000765,
			"-0.009": 5.69007951572,
			"-0.008": 8.61983991019,
			"-0.007": 9.53324894294,
			"-0.006": 9.26708135292,
			"-0.005": 7.07481100033,
			"-0.004": 8.2612977852,
			"-0.003": 8.62288590872,
			"-0.002": 13.4455419838,
			"-0.001": 15.3503134173,
			"0.0": 17.997933872,
			"0.001": 23.0424279307,
			"0.002": 19.1137253466,
			"0.003": 17.5773754418,
			"0.004": 17.9830679283,
			"0.005": 11.6728753657,
			"0.006": 5.375054247,
			"0.007": 1.87876525691,
			"0.008": 2.5369110149,
			"0.009": 1.89353409583,
			"0.01": 1.90353780975,
			"0.011": 3.48497085214,
			"0.012": 5.63025380984,
			"0.013": 2.1169791637,
			"0.014": 0.344990155208,
			"0.015": 0.0,
			"0.016": 0.0,
			"0.017": 0.0,
			"0.018": 0.0,
			"0.019": 0.0,
			"0.02": 0.0,
			"0.021": 0.0,
			"0.022": 0.0,
			"0.023": 0.0,
			"0.024": 0.0,
			"0.025": 0.0
		}
	}
}
