{
	 "smiles": "COC(=O)C1=CC=C(COC2=C(OC)C=C(C=O)C=C2)C=C1", 
	 "Tm": 403.15, 
	 "num_atms": 38, 
	 "gaussian": { 
		 "optdone": 1, 
		 "sigma_profile": "yes", 
		 "theory": "DFT", 
		 "functional": "B3LYP", 
		 "basiset": "6-31G**", 
		 "properties": { 
			 "R2extent": 10313.6538, 
			 "electric_dipole_moment_norm": 2.88735751337, 
			 "electric_quadrupole_moment_norm": 25.0808338695, 
			 "total_energy": -1033.55258399, 
			 "HOMO_LUMO_gap": 0.16663, 
			 "cosmo_polarized_energy": -17.49, 
			 "cosmo_cavitation_energy": 43.55, 
			 "cosmo_dispersion_energy": -30.4, 
			 "cosmo_repulsion_energy": 2.34, 
			 "cosmo_total_nonelectrostatic_energy": 15.49, 
			 "SMD_solvation_energy": 10.94 
		},
		"coords": [
			{
				"x": -6.2989100154,
				"y": -0.9014916572,
				"z": -0.5952908052,
				"element": "C" 
			},
			{
				"x": -4.9400614929,
				"y": -0.4564184522,
				"z": -0.4648828442,
				"element": "O" 
			},
			{
				"x": -4.2932386972,
				"y": -0.2321481193,
				"z": -1.6314026268,
				"element": "C" 
			},
			{
				"x": -4.8124040506,
				"y": -0.390769253,
				"z": -2.7195076422,
				"element": "O" 
			},
			{
				"x": -2.8900605913,
				"y": 0.2259113207,
				"z": -1.4260574318,
				"element": "C" 
			},
			{
				"x": -2.1155084751,
				"y": 0.4901066299,
				"z": -2.5629104123,
				"element": "C" 
			},
			{
				"x": -0.7969001315,
				"y": 0.9130094122,
				"z": -2.4266257327,
				"element": "C" 
			},
			{
				"x": -0.2332167432,
				"y": 1.0866814143,
				"z": -1.1557699064,
				"element": "C" 
			},
			{
				"x": 1.1835179639,
				"y": 1.6104139817,
				"z": -1.021879944,
				"element": "C" 
			},
			{
				"x": 1.8400256414,
				"y": 1.210800986,
				"z": 0.1787836513,
				"element": "O" 
			},
			{
				"x": 2.3597215061,
				"y": -0.0431941765,
				"z": 0.2694100877,
				"element": "C" 
			},
			{
				"x": 3.0907671472,
				"y": -0.3028112958,
				"z": 1.4654538213,
				"element": "C" 
			},
			{
				"x": 3.1480065285,
				"y": 0.7311747346,
				"z": 2.3466572752,
				"element": "O" 
			},
			{
				"x": 3.8717666468,
				"y": 0.5290443504,
				"z": 3.5520318592,
				"element": "C" 
			},
			{
				"x": 3.6773666116,
				"y": -1.5451942019,
				"z": 1.646621847,
				"element": "C" 
			},
			{
				"x": 3.5489958378,
				"y": -2.5453934979,
				"z": 0.6625146466,
				"element": "C" 
			},
			{
				"x": 4.178145332,
				"y": -3.8606478677,
				"z": 0.8710812043,
				"element": "C" 
			},
			{
				"x": 4.8266642422,
				"y": -4.1747209559,
				"z": 1.8543257249,
				"element": "O" 
			},
			{
				"x": 2.8249999887,
				"y": -2.2887288658,
				"z": -0.5004481789,
				"element": "C" 
			},
			{
				"x": 2.2281045998,
				"y": -1.0408153839,
				"z": -0.6970372516,
				"element": "C" 
			},
			{
				"x": -1.0107771493,
				"y": 0.8252741839,
				"z": -0.0211973912,
				"element": "C" 
			},
			{
				"x": -2.328355367,
				"y": 0.3941889842,
				"z": -0.1528574129,
				"element": "C" 
			},
			{
				"x": -6.6644672593,
				"y": -1.0327036476,
				"z": 0.4230774351,
				"element": "H" 
			},
			{
				"x": -6.3437628983,
				"y": -1.8453459554,
				"z": -1.1444138937,
				"element": "H" 
			},
			{
				"x": -6.8984065861,
				"y": -0.1576999767,
				"z": -1.1261593114,
				"element": "H" 
			},
			{
				"x": -2.5635483334,
				"y": 0.3500308574,
				"z": -3.5407890481,
				"element": "H" 
			},
			{
				"x": -0.2000081009,
				"y": 1.1087373034,
				"z": -3.314481283,
				"element": "H" 
			},
			{
				"x": 1.1700901769,
				"y": 2.7041402449,
				"z": -0.9625009109,
				"element": "H" 
			},
			{
				"x": 1.7841424783,
				"y": 1.3372017362,
				"z": -1.8990535235,
				"element": "H" 
			},
			{
				"x": 3.7957605625,
				"y": 1.4652346384,
				"z": 4.1066743723,
				"element": "H" 
			},
			{
				"x": 4.9282850732,
				"y": 0.307244002,
				"z": 3.3556071863,
				"element": "H" 
			},
			{
				"x": 3.4411176045,
				"y": -0.2841508776,
				"z": 4.1498174675,
				"element": "H" 
			},
			{
				"x": 4.2467473708,
				"y": -1.7855837389,
				"z": 2.5363077288,
				"element": "H" 
			},
			{
				"x": 4.0192783696,
				"y": -4.5836726556,
				"z": 0.0395449735,
				"element": "H" 
			},
			{
				"x": 2.7180364496,
				"y": -3.0631676683,
				"z": -1.2554735707,
				"element": "H" 
			},
			{
				"x": 1.6460307023,
				"y": -0.8587732929,
				"z": -1.5917001356,
				"element": "H" 
			},
			{
				"x": -0.5731054172,
				"y": 0.9547278115,
				"z": 0.9633704013,
				"element": "H" 
			},
			{
				"x": -2.926939525,
				"y": 0.1877089486,
				"z": 0.7268595752,
				"element": "H" 
			}
		],
		 "valence_orbital": [ 
			{
				"type": "occ",
				"energy": -0.26628,
				"method": "rhf"
			},
			{
				"type": "occ",
				"energy": -0.26141,
				"method": "rhf"
			},
			{
				"type": "occ",
				"energy": -0.24884,
				"method": "rhf"
			},
			{
				"type": "occ",
				"energy": -0.24705,
				"method": "rhf"
			},
			{
				"type": "occ",
				"energy": -0.21914,
				"method": "rhf"
			},
			{
				"type": "unocc",
				"energy": -0.05251,
				"method": "rhf"
			},
			{
				"type": "unocc",
				"energy": -0.05112,
				"method": "rhf"
			},
			{
				"type": "unocc",
				"energy": -0.01721,
				"method": "rhf"
			},
			{
				"type": "unocc",
				"energy": -0.0003,
				"method": "rhf"
			},
			{
				"type": "unocc",
				"energy": 0.04687,
				"method": "rhf"
			}
		],
		"cosmo_sigma_profile": { 
			"-0.025": 0.0,
			"-0.024": 0.0,
			"-0.023": 0.0,
			"-0.022": 0.0,
			"-0.021": 0.0,
			"-0.02": 0.0,
			"-0.019": 0.0,
			"-0.018": 0.0,
			"-0.017": 0.0,
			"-0.016": 0.0,
			"-0.015": 0.0,
			"-0.014": 0.0,
			"-0.013": 0.0,
			"-0.012": 0.0,
			"-0.011": 0.0,
			"-0.01": 0.0,
			"-0.009": 0.000700253456484,
			"-0.008": 2.43676929709,
			"-0.007": 11.9149905977,
			"-0.006": 27.5953058089,
			"-0.005": 33.2766553964,
			"-0.004": 31.7427557159,
			"-0.003": 29.8723886196,
			"-0.002": 21.2190592499,
			"-0.001": 20.4032848494,
			"0.0": 20.4440798739,
			"0.001": 24.242194582,
			"0.002": 26.3429792442,
			"0.003": 28.9621685543,
			"0.004": 15.1980747497,
			"0.005": 7.9003341983,
			"0.006": 5.89901015912,
			"0.007": 3.80556468895,
			"0.008": 4.90232601949,
			"0.009": 4.39562055041,
			"0.01": 5.4887113149,
			"0.011": 7.61714065448,
			"0.012": 9.99456673764,
			"0.013": 3.17824465808,
			"0.014": 0.699257521205,
			"0.015": 0.0,
			"0.016": 0.0,
			"0.017": 0.0,
			"0.018": 0.0,
			"0.019": 0.0,
			"0.02": 0.0,
			"0.021": 0.0,
			"0.022": 0.0,
			"0.023": 0.0,
			"0.024": 0.0,
			"0.0": 0.0
		}
	}
}
