{
	 "smiles": "O1C(=CC2=C1C=CC=C2)C1=CC=NC=C1", 
	 "Tm": 347.15, 
	 "num_atms": 24, 
	 "gaussian": { 
		 "optdone": 1, 
		 "sigma_profile": "yes", 
		 "theory": "DFT", 
		 "functional": "B3LYP", 
		 "basiset": "6-31G**", 
		 "properties": { 
			 "R2extent": 4588.4512, 
			 "electric_dipole_moment_norm": 2.74801251453, 
			 "electric_quadrupole_moment_norm": 11.3953521104, 
			 "total_energy": -630.775830069, 
			 "HOMO_LUMO_gap": 0.15823, 
			 "cosmo_polarized_energy": -8.3, 
			 "cosmo_cavitation_energy": 28.61, 
			 "cosmo_dispersion_energy": -21.4, 
			 "cosmo_repulsion_energy": 1.63, 
			 "cosmo_total_nonelectrostatic_energy": 8.83, 
			 "SMD_solvation_energy": 3.55 
		},
		"coords": [
			{
				"x": 0.4607736425,
				"y": 0.7896203032,
				"z": -0.8223365917,
				"element": "O" 
			},
			{
				"x": 1.3549664016,
				"y": 0.6792159476,
				"z": 0.2252092332,
				"element": "C" 
			},
			{
				"x": 2.3700276568,
				"y": 1.5864937273,
				"z": 0.0974020801,
				"element": "C" 
			},
			{
				"x": 2.1156008429,
				"y": 2.3280756351,
				"z": -1.1062852542,
				"element": "C" 
			},
			{
				"x": 0.9230122561,
				"y": 1.7904973331,
				"z": -1.6300352732,
				"element": "C" 
			},
			{
				"x": 0.3259153805,
				"y": 2.235605472,
				"z": -2.8031118566,
				"element": "C" 
			},
			{
				"x": 0.9729291082,
				"y": 3.2741530046,
				"z": -3.4714035452,
				"element": "C" 
			},
			{
				"x": 2.1667226676,
				"y": 3.8342391816,
				"z": -2.9751221618,
				"element": "C" 
			},
			{
				"x": 2.7484817118,
				"y": 3.3741277819,
				"z": -1.7984810001,
				"element": "C" 
			},
			{
				"x": 1.0599958447,
				"y": -0.3384198236,
				"z": 1.2239579658,
				"element": "C" 
			},
			{
				"x": -0.0747360952,
				"y": -1.1586187155,
				"z": 1.1191096503,
				"element": "C" 
			},
			{
				"x": -0.3078157593,
				"y": -2.1160052689,
				"z": 2.1038266963,
				"element": "C" 
			},
			{
				"x": 0.4866375937,
				"y": -2.3150257555,
				"z": 3.1634945144,
				"element": "N" 
			},
			{
				"x": 1.5682254055,
				"y": -1.5282152018,
				"z": 3.256980198,
				"element": "C" 
			},
			{
				"x": 1.8981370131,
				"y": -0.541658308,
				"z": 2.3332906004,
				"element": "C" 
			},
			{
				"x": 3.2003740794,
				"y": 1.7140901764,
				"z": 0.7765701478,
				"element": "H" 
			},
			{
				"x": -0.5932832362,
				"y": 1.7940080235,
				"z": -3.1720395102,
				"element": "H" 
			},
			{
				"x": 0.5475024231,
				"y": 3.6587768737,
				"z": -4.3932599638,
				"element": "H" 
			},
			{
				"x": 2.6397069795,
				"y": 4.6419789227,
				"z": -3.5255493314,
				"element": "H" 
			},
			{
				"x": 3.6687283067,
				"y": 3.8124257181,
				"z": -1.4242831932,
				"element": "H" 
			},
			{
				"x": -0.757409536,
				"y": -1.047494095,
				"z": 0.2848789126,
				"element": "H" 
			},
			{
				"x": -1.1837564953,
				"y": -2.7589574004,
				"z": 2.0354008111,
				"element": "H" 
			},
			{
				"x": 2.2089858642,
				"y": -1.6960459582,
				"z": 4.1209769074,
				"element": "H" 
			},
			{
				"x": 2.7920779443,
				"y": 0.0563324259,
				"z": 2.4773099638,
				"element": "H" 
			}
		],
		 "valence_orbital": [ 
			{
				"type": "occ",
				"energy": -0.28731,
				"method": "rhf"
			},
			{
				"type": "occ",
				"energy": -0.26452,
				"method": "rhf"
			},
			{
				"type": "occ",
				"energy": -0.255,
				"method": "rhf"
			},
			{
				"type": "occ",
				"energy": -0.24373,
				"method": "rhf"
			},
			{
				"type": "occ",
				"energy": -0.21907,
				"method": "rhf"
			},
			{
				"type": "unocc",
				"energy": -0.06084,
				"method": "rhf"
			},
			{
				"type": "unocc",
				"energy": -0.01191,
				"method": "rhf"
			},
			{
				"type": "unocc",
				"energy": -0.00081,
				"method": "rhf"
			},
			{
				"type": "unocc",
				"energy": 0.01192,
				"method": "rhf"
			},
			{
				"type": "unocc",
				"energy": 0.06478,
				"method": "rhf"
			}
		],
		"cosmo_sigma_profile": { 
			"-0.025": 0.0,
			"-0.024": 0.0,
			"-0.023": 0.0,
			"-0.022": 0.0,
			"-0.021": 0.0,
			"-0.02": 0.0,
			"-0.019": 0.0,
			"-0.018": 0.0,
			"-0.017": 0.0,
			"-0.016": 0.0,
			"-0.015": 0.0,
			"-0.014": 0.0,
			"-0.013": 0.0,
			"-0.012": 0.0,
			"-0.011": 0.0,
			"-0.01": 0.0,
			"-0.009": 0.930484511067,
			"-0.008": 3.41230174686,
			"-0.007": 6.44961122306,
			"-0.006": 15.6704982184,
			"-0.005": 18.1943752985,
			"-0.004": 15.7305565856,
			"-0.003": 14.3621411688,
			"-0.002": 11.1288245307,
			"-0.001": 12.2875162402,
			"0.0": 17.3914448478,
			"0.001": 24.4372993581,
			"0.002": 30.9139449176,
			"0.003": 19.7594099358,
			"0.004": 14.9349422708,
			"0.005": 11.8985665471,
			"0.006": 2.91176628702,
			"0.007": 1.46929978115,
			"0.008": 1.35674201159,
			"0.009": 0.836122359752,
			"0.01": 1.19394268011,
			"0.011": 1.31931814919,
			"0.012": 0.605690877273,
			"0.013": 0.891628925632,
			"0.014": 1.09908704383,
			"0.015": 0.906817438478,
			"0.016": 0.748135266021,
			"0.017": 0.458886191468,
			"0.018": 0.0,
			"0.019": 0.0,
			"0.02": 0.0,
			"0.021": 0.0,
			"0.022": 0.0,
			"0.023": 0.0,
			"0.024": 0.0,
			"0.025": 0.0
		}
	}
}
