{
	 "smiles": "NC1=CC=C(CO)C=C1", 
	 "Tm": 334.15, 
	 "num_atms": 18, 
	 "gaussian": { 
		 "optdone": 1, 
		 "sigma_profile": "yes", 
		 "theory": "DFT", 
		 "functional": "B3LYP", 
		 "basiset": "6-31G**", 
		 "properties": { 
			 "R2extent": 1571.2899, 
			 "electric_dipole_moment_norm": 3.700598861, 
			 "electric_quadrupole_moment_norm": 9.73567168664, 
			 "total_energy": -402.134513696, 
			 "HOMO_LUMO_gap": 0.20381, 
			 "cosmo_polarized_energy": -11.45, 
			 "cosmo_cavitation_energy": 21.53, 
			 "cosmo_dispersion_energy": -15.98, 
			 "cosmo_repulsion_energy": 1.33, 
			 "cosmo_total_nonelectrostatic_energy": 6.87, 
			 "SMD_solvation_energy": 3.66 
		},
		"coords": [
			{
				"x": 3.7731530098,
				"y": 0.1710319358,
				"z": 1.3883253652,
				"element": "N" 
			},
			{
				"x": 2.4755517566,
				"y": -0.0741962446,
				"z": 0.9418780233,
				"element": "C" 
			},
			{
				"x": 1.7478329266,
				"y": -1.1802624957,
				"z": 1.4164101265,
				"element": "C" 
			},
			{
				"x": 0.4767953542,
				"y": -1.4539072647,
				"z": 0.9215975913,
				"element": "C" 
			},
			{
				"x": -0.1171517792,
				"y": -0.6474546738,
				"z": -0.0601836261,
				"element": "C" 
			},
			{
				"x": -1.5206586076,
				"y": -0.9116681016,
				"z": -0.5419055862,
				"element": "C" 
			},
			{
				"x": -2.5216502299,
				"y": -0.2466254379,
				"z": 0.2417826078,
				"element": "O" 
			},
			{
				"x": 0.6136798982,
				"y": 0.4556696646,
				"z": -0.5249824564,
				"element": "C" 
			},
			{
				"x": 1.8856158131,
				"y": 0.7421071284,
				"z": -0.0398318457,
				"element": "C" 
			},
			{
				"x": 4.0003146404,
				"y": -0.2114060549,
				"z": 2.2956084478,
				"element": "H" 
			},
			{
				"x": 4.0959690166,
				"y": 1.1228952849,
				"z": 1.284545405,
				"element": "H" 
			},
			{
				"x": 2.1900632835,
				"y": -1.8283929983,
				"z": 2.1692978883,
				"element": "H" 
			},
			{
				"x": -0.0662519052,
				"y": -2.3157573335,
				"z": 1.3026510432,
				"element": "H" 
			},
			{
				"x": -1.6262770437,
				"y": -0.5826718026,
				"z": -1.584947168,
				"element": "H" 
			},
			{
				"x": -1.7271947705,
				"y": -1.9906202857,
				"z": -0.5189464701,
				"element": "H" 
			},
			{
				"x": -2.0590047885,
				"y": 0.2433447578,
				"z": 0.9320403904,
				"element": "H" 
			},
			{
				"x": 0.178646442,
				"y": 1.1004093957,
				"z": -1.2852054906,
				"element": "H" 
			},
			{
				"x": 2.4355669837,
				"y": 1.597204526,
				"z": -0.4256342457,
				"element": "H" 
			}
		],
		 "valence_orbital": [ 
			{
				"type": "occ",
				"energy": -0.31891,
				"method": "rhf"
			},
			{
				"type": "occ",
				"energy": -0.30441,
				"method": "rhf"
			},
			{
				"type": "occ",
				"energy": -0.25573,
				"method": "rhf"
			},
			{
				"type": "occ",
				"energy": -0.24764,
				"method": "rhf"
			},
			{
				"type": "occ",
				"energy": -0.20522,
				"method": "rhf"
			},
			{
				"type": "unocc",
				"energy": -0.00141,
				"method": "rhf"
			},
			{
				"type": "unocc",
				"energy": 0.0072,
				"method": "rhf"
			},
			{
				"type": "unocc",
				"energy": 0.07688,
				"method": "rhf"
			},
			{
				"type": "unocc",
				"energy": 0.10094,
				"method": "rhf"
			},
			{
				"type": "unocc",
				"energy": 0.11452,
				"method": "rhf"
			}
		],
		"cosmo_sigma_profile": { 
			"-0.025": 0.0,
			"-0.024": 0.0,
			"-0.023": 0.0,
			"-0.022": 0.0,
			"-0.021": 0.0,
			"-0.02": 0.0,
			"-0.019": 0.0,
			"-0.018": 0.0,
			"-0.017": 0.0,
			"-0.016": 0.0,
			"-0.015": 0.0,
			"-0.014": 0.379796277085,
			"-0.013": 0.82382290478,
			"-0.012": 3.31429287715,
			"-0.011": 3.04575015532,
			"-0.01": 3.98037920323,
			"-0.009": 3.81158302175,
			"-0.008": 3.04183078834,
			"-0.007": 4.39086944842,
			"-0.006": 5.64416716535,
			"-0.005": 9.30278219884,
			"-0.004": 11.7899543202,
			"-0.003": 15.2451270927,
			"-0.002": 11.2035290277,
			"-0.001": 12.090042673,
			"0.0": 9.14033856846,
			"0.001": 7.54869222309,
			"0.002": 7.45684062871,
			"0.003": 7.47214446294,
			"0.004": 8.15891605807,
			"0.005": 9.12478919827,
			"0.006": 10.8064451884,
			"0.007": 4.25804608267,
			"0.008": 1.84850276385,
			"0.009": 2.22348205578,
			"0.01": 1.9996595442,
			"0.011": 1.93697864216,
			"0.012": 2.16576908516,
			"0.013": 2.14172895062,
			"0.014": 2.62356106928,
			"0.015": 2.38357454369,
			"0.016": 0.0757978298497,
			"0.017": 0.0,
			"0.018": 0.0,
			"0.019": 0.0,
			"0.02": 0.0,
			"0.021": 0.0,
			"0.022": 0.0,
			"0.023": 0.0,
			"0.024": 0.0,
			"0.025": 0.0
		}
	}
}
