{
	 "smiles": "CN1C(CCl)=NC2=C(C=CC=C2)C1=O", 
	 "Tm": 453.15, 
	 "num_atms": 23, 
	 "gaussian": { 
		 "optdone": 1, 
		 "sigma_profile": "yes", 
		 "theory": "DFT", 
		 "functional": "B3LYP", 
		 "basiset": "6-31G**", 
		 "properties": { 
			 "R2extent": 3389.6507, 
			 "electric_dipole_moment_norm": 1.9064227784, 
			 "electric_quadrupole_moment_norm": 15.6085647588, 
			 "total_energy": -1031.43809095, 
			 "HOMO_LUMO_gap": 0.17635, 
			 "cosmo_polarized_energy": -11.26, 
			 "cosmo_cavitation_energy": 28.2, 
			 "cosmo_dispersion_energy": -21.1, 
			 "cosmo_repulsion_energy": 1.63, 
			 "cosmo_total_nonelectrostatic_energy": 8.73, 
			 "SMD_solvation_energy": 3.54 
		},
		"coords": [
			{
				"x": -1.9329670288,
				"y": 0.7273618874,
				"z": -2.0184022888,
				"element": "C" 
			},
			{
				"x": -0.9647618911,
				"y": 0.2120628677,
				"z": -1.040479448,
				"element": "N" 
			},
			{
				"x": 0.0881716618,
				"y": -0.6065434533,
				"z": -1.4123131734,
				"element": "C" 
			},
			{
				"x": 0.2261614038,
				"y": -1.0016776504,
				"z": -2.8586564617,
				"element": "C" 
			},
			{
				"x": -0.9437415868,
				"y": -2.3227692736,
				"z": -3.3296887906,
				"element": "Cl" 
			},
			{
				"x": 0.9925491051,
				"y": -1.0662835673,
				"z": -0.6051024278,
				"element": "N" 
			},
			{
				"x": 0.9048519577,
				"y": -0.7263613002,
				"z": 0.7340382928,
				"element": "C" 
			},
			{
				"x": -0.130329988,
				"y": 0.0954812548,
				"z": 1.2285802055,
				"element": "C" 
			},
			{
				"x": -0.1911475279,
				"y": 0.4181040361,
				"z": 2.593862765,
				"element": "C" 
			},
			{
				"x": 0.7711600597,
				"y": -0.0748586601,
				"z": 3.4617031405,
				"element": "C" 
			},
			{
				"x": 1.8063603573,
				"y": -0.8940701799,
				"z": 2.9735576395,
				"element": "C" 
			},
			{
				"x": 1.8769834151,
				"y": -1.2178797473,
				"z": 1.627709784,
				"element": "C" 
			},
			{
				"x": -1.139023568,
				"y": 0.6219276432,
				"z": 0.3059939975,
				"element": "C" 
			},
			{
				"x": -2.0635322155,
				"y": 1.3583297011,
				"z": 0.6272518349,
				"element": "O" 
			},
			{
				"x": -1.4677862878,
				"y": 1.4758484574,
				"z": -2.6679553139,
				"element": "H" 
			},
			{
				"x": -2.3364658821,
				"y": -0.086275111,
				"z": -2.6217221341,
				"element": "H" 
			},
			{
				"x": -2.7299438398,
				"y": 1.2028247968,
				"z": -1.4503452824,
				"element": "H" 
			},
			{
				"x": 1.2236514873,
				"y": -1.4104866439,
				"z": -2.9962665384,
				"element": "H" 
			},
			{
				"x": 0.0496654844,
				"y": -0.1781816408,
				"z": -3.550371857,
				"element": "H" 
			},
			{
				"x": -1.0006827994,
				"y": 1.0532438578,
				"z": 2.9372756527,
				"element": "H" 
			},
			{
				"x": 0.7281270772,
				"y": 0.1702560269,
				"z": 4.5184824506,
				"element": "H" 
			},
			{
				"x": 2.5572183972,
				"y": -1.27665831,
				"z": 3.6589789889,
				"element": "H" 
			},
			{
				"x": 2.6656822086,
				"y": -1.8487949914,
				"z": 1.2315689642,
				"element": "H" 
			}
		],
		 "valence_orbital": [ 
			{
				"type": "occ",
				"energy": -0.29222,
				"method": "rhf"
			},
			{
				"type": "occ",
				"energy": -0.28111,
				"method": "rhf"
			},
			{
				"type": "occ",
				"energy": -0.26903,
				"method": "rhf"
			},
			{
				"type": "occ",
				"energy": -0.26447,
				"method": "rhf"
			},
			{
				"type": "occ",
				"energy": -0.23383,
				"method": "rhf"
			},
			{
				"type": "unocc",
				"energy": -0.05748,
				"method": "rhf"
			},
			{
				"type": "unocc",
				"energy": -0.04517,
				"method": "rhf"
			},
			{
				"type": "unocc",
				"energy": 0.00906,
				"method": "rhf"
			},
			{
				"type": "unocc",
				"energy": 0.03534,
				"method": "rhf"
			},
			{
				"type": "unocc",
				"energy": 0.06957,
				"method": "rhf"
			}
		],
		"cosmo_sigma_profile": { 
			"-0.025": 0.0,
			"-0.024": 0.0,
			"-0.023": 0.0,
			"-0.022": 0.0,
			"-0.021": 0.0,
			"-0.02": 0.0,
			"-0.019": 0.0,
			"-0.018": 0.0,
			"-0.017": 0.0,
			"-0.016": 0.0,
			"-0.015": 0.0,
			"-0.014": 0.0,
			"-0.013": 0.0,
			"-0.012": 0.0,
			"-0.011": 0.00403055904231,
			"-0.01": 1.13801845107,
			"-0.009": 3.54725050292,
			"-0.008": 4.29081025733,
			"-0.007": 7.43637593835,
			"-0.006": 14.0901024242,
			"-0.005": 16.4672479177,
			"-0.004": 18.2377902632,
			"-0.003": 17.0319974484,
			"-0.002": 16.5157568893,
			"-0.001": 11.3682766875,
			"0.0": 12.4022178026,
			"0.001": 16.3468508834,
			"0.002": 18.7673717432,
			"0.003": 21.0848087156,
			"0.004": 12.9513350963,
			"0.005": 9.67657989129,
			"0.006": 6.65666143582,
			"0.007": 2.69817206401,
			"0.008": 2.35267856995,
			"0.009": 2.13793176008,
			"0.01": 3.04140184346,
			"0.011": 2.53997052746,
			"0.012": 4.80899141912,
			"0.013": 2.64608941528,
			"0.014": 0.0649851064183,
			"0.015": 0.0,
			"0.016": 0.0,
			"0.017": 0.0,
			"0.018": 0.0,
			"0.019": 0.0,
			"0.02": 0.0,
			"0.021": 0.0,
			"0.022": 0.0,
			"0.023": 0.0,
			"0.024": 0.0,
			"0.025": 0.0
		}
	}
}
