{
	 "smiles": "CC(=O)N(C1=NC(CCl)=CS1)C1=CC=C(C=C1)C(F)(F)F", 
	 "Tm": 389.15, 
	 "num_atms": 31, 
	 "gaussian": { 
		 "optdone": 1, 
		 "sigma_profile": "yes", 
		 "theory": "DFT", 
		 "functional": "B3LYP", 
		 "basiset": "6-31G**", 
		 "properties": { 
			 "R2extent": 8975.8384, 
			 "electric_dipole_moment_norm": 2.53320821292, 
			 "electric_quadrupole_moment_norm": 19.2213830018, 
			 "total_energy": -1844.05300027, 
			 "HOMO_LUMO_gap": 0.18265, 
			 "cosmo_polarized_energy": -15.05, 
			 "cosmo_cavitation_energy": 40.98, 
			 "cosmo_dispersion_energy": -28.05, 
			 "cosmo_repulsion_energy": 2.11, 
			 "cosmo_total_nonelectrostatic_energy": 15.04, 
			 "SMD_solvation_energy": 7.58 
		},
		"coords": [
			{
				"x": 2.7963873616,
				"y": -1.8551398621,
				"z": 0.4035485071,
				"element": "C" 
			},
			{
				"x": 1.5728413237,
				"y": -2.3689873823,
				"z": -0.3253456488,
				"element": "C" 
			},
			{
				"x": 1.5145878976,
				"y": -3.4979841411,
				"z": -0.7907506563,
				"element": "O" 
			},
			{
				"x": 0.4902809609,
				"y": -1.4931543517,
				"z": -0.4479202917,
				"element": "N" 
			},
			{
				"x": -0.6982502222,
				"y": -1.8862545513,
				"z": -1.0838967667,
				"element": "C" 
			},
			{
				"x": -1.7094169943,
				"y": -1.0732242233,
				"z": -1.1870177908,
				"element": "N" 
			},
			{
				"x": -2.7597872375,
				"y": -1.6800282135,
				"z": -1.8449368398,
				"element": "C" 
			},
			{
				"x": -4.0180917701,
				"y": -0.9129420735,
				"z": -2.060772841,
				"element": "C" 
			},
			{
				"x": -5.0715550483,
				"y": -0.8521284624,
				"z": -0.5571944492,
				"element": "Cl" 
			},
			{
				"x": -2.532453101,
				"y": -2.9642792009,
				"z": -2.2485430359,
				"element": "C" 
			},
			{
				"x": -0.9349361647,
				"y": -3.4807725948,
				"z": -1.7973556912,
				"element": "S" 
			},
			{
				"x": 0.5296471195,
				"y": -0.1502135558,
				"z": 0.0839604269,
				"element": "C" 
			},
			{
				"x": 1.063323047,
				"y": 0.883105894,
				"z": -0.6877786383,
				"element": "C" 
			},
			{
				"x": 1.1207522728,
				"y": 2.1745767504,
				"z": -0.1687263208,
				"element": "C" 
			},
			{
				"x": 0.6353476629,
				"y": 2.4294021675,
				"z": 1.1163481467,
				"element": "C" 
			},
			{
				"x": 0.0872528634,
				"y": 1.3959622746,
				"z": 1.8806929224,
				"element": "C" 
			},
			{
				"x": 0.0315581349,
				"y": 0.1042267465,
				"z": 1.3628323035,
				"element": "C" 
			},
			{
				"x": 0.7536471118,
				"y": 3.8135294731,
				"z": 1.6991429361,
				"element": "C" 
			},
			{
				"x": -0.215117619,
				"y": 4.0617710871,
				"z": 2.6053856001,
				"element": "F" 
			},
			{
				"x": 1.9387188721,
				"y": 3.9815398169,
				"z": 2.3311868844,
				"element": "F" 
			},
			{
				"x": 0.678466378,
				"y": 4.7666156947,
				"z": 0.7454275557,
				"element": "F" 
			},
			{
				"x": 2.5514424622,
				"y": -1.5267925698,
				"z": 1.4174906659,
				"element": "H" 
			},
			{
				"x": 3.2407782393,
				"y": -1.0011434635,
				"z": -0.1155797487,
				"element": "H" 
			},
			{
				"x": 3.5174996083,
				"y": -2.6707525278,
				"z": 0.4449666783,
				"element": "H" 
			},
			{
				"x": -3.8059529276,
				"y": 0.1277850444,
				"z": -2.3041058732,
				"element": "H" 
			},
			{
				"x": -4.6355747419,
				"y": -1.3620407527,
				"z": -2.8375313079,
				"element": "H" 
			},
			{
				"x": -3.2060364197,
				"y": -3.6310378195,
				"z": -2.7691237004,
				"element": "H" 
			},
			{
				"x": 1.4221957109,
				"y": 0.6734011202,
				"z": -1.6902116154,
				"element": "H" 
			},
			{
				"x": 1.5293259681,
				"y": 2.9844588302,
				"z": -0.7628843657,
				"element": "H" 
			},
			{
				"x": -0.3037670405,
				"y": 1.6043895472,
				"z": 2.8702578552,
				"element": "H" 
			},
			{
				"x": -0.4056137083,
				"y": -0.7044887007,
				"z": 1.9388350995,
				"element": "H" 
			}
		],
		 "valence_orbital": [ 
			{
				"type": "occ",
				"energy": -0.2849,
				"method": "rhf"
			},
			{
				"type": "occ",
				"energy": -0.28081,
				"method": "rhf"
			},
			{
				"type": "occ",
				"energy": -0.27829,
				"method": "rhf"
			},
			{
				"type": "occ",
				"energy": -0.27263,
				"method": "rhf"
			},
			{
				"type": "occ",
				"energy": -0.2315,
				"method": "rhf"
			},
			{
				"type": "unocc",
				"energy": -0.04885,
				"method": "rhf"
			},
			{
				"type": "unocc",
				"energy": -0.03767,
				"method": "rhf"
			},
			{
				"type": "unocc",
				"energy": -0.03313,
				"method": "rhf"
			},
			{
				"type": "unocc",
				"energy": -0.00994,
				"method": "rhf"
			},
			{
				"type": "unocc",
				"energy": 0.02604,
				"method": "rhf"
			}
		],
		"cosmo_sigma_profile": { 
			"-0.025": 0.0,
			"-0.024": 0.0,
			"-0.023": 0.0,
			"-0.022": 0.0,
			"-0.021": 0.0,
			"-0.02": 0.0,
			"-0.019": 0.0,
			"-0.018": 0.0,
			"-0.017": 0.0,
			"-0.016": 0.0,
			"-0.015": 0.0,
			"-0.014": 0.0,
			"-0.013": 0.0,
			"-0.012": 0.0,
			"-0.011": 0.0,
			"-0.01": 0.0679255220776,
			"-0.009": 2.19397648658,
			"-0.008": 10.9808936701,
			"-0.007": 17.2564842856,
			"-0.006": 21.6672252832,
			"-0.005": 18.3590839176,
			"-0.004": 18.4847534768,
			"-0.003": 20.0737677026,
			"-0.002": 19.3929198894,
			"-0.001": 18.7209929466,
			"0.0": 23.0817327899,
			"0.001": 25.1125951287,
			"0.002": 35.435281026,
			"0.003": 38.102032989,
			"0.004": 12.0215661674,
			"0.005": 9.60550773799,
			"0.006": 12.8780261074,
			"0.007": 11.1436627652,
			"0.008": 4.29562892582,
			"0.009": 3.45442602227,
			"0.01": 3.3108357589,
			"0.011": 3.41237317405,
			"0.012": 2.99674825411,
			"0.013": 0.767968508565,
			"0.014": 0.0,
			"0.015": 0.0,
			"0.016": 0.0,
			"0.017": 0.0,
			"0.018": 0.0,
			"0.019": 0.0,
			"0.02": 0.0,
			"0.021": 0.0,
			"0.022": 0.0,
			"0.023": 0.0,
			"0.024": 0.0,
			"0.025": 0.0
		}
	}
}
