{
	 "smiles": "OC(=O)CCC1=NC=C(C=C1)[N+]([O-])=O", 
	 "Tm": 409.15, 
	 "num_atms": 22, 
	 "gaussian": { 
		 "optdone": 1, 
		 "sigma_profile": "yes", 
		 "theory": "DFT", 
		 "functional": "B3LYP", 
		 "basiset": "6-31G**", 
		 "properties": { 
			 "R2extent": 3927.4004, 
			 "electric_dipole_moment_norm": 4.95847484918, 
			 "electric_quadrupole_moment_norm": 16.8405683996, 
			 "total_energy": -719.984110005, 
			 "HOMO_LUMO_gap": 0.18134, 
			 "cosmo_polarized_energy": -15.6, 
			 "cosmo_cavitation_energy": 27.95, 
			 "cosmo_dispersion_energy": -19.81, 
			 "cosmo_repulsion_energy": 1.59, 
			 "cosmo_total_nonelectrostatic_energy": 9.72, 
			 "SMD_solvation_energy": 6.92 
		},
		"coords": [
			{
				"x": 1.8774873733,
				"y": -1.4206811481,
				"z": 1.1170575426,
				"element": "O" 
			},
			{
				"x": 1.3272628447,
				"y": -2.295391598,
				"z": 0.2328941206,
				"element": "C" 
			},
			{
				"x": 0.896305977,
				"y": -3.3724038457,
				"z": 0.5746370946,
				"element": "O" 
			},
			{
				"x": 1.3642742715,
				"y": -1.7796938375,
				"z": -1.191902028,
				"element": "C" 
			},
			{
				"x": 1.1512392111,
				"y": -0.2610453092,
				"z": -1.3520953813,
				"element": "C" 
			},
			{
				"x": -0.2419202536,
				"y": 0.1723548707,
				"z": -0.9582634452,
				"element": "C" 
			},
			{
				"x": -1.2295522238,
				"y": -0.1862028046,
				"z": -1.8001598749,
				"element": "N" 
			},
			{
				"x": -2.4810462556,
				"y": 0.1605092232,
				"z": -1.4997185644,
				"element": "C" 
			},
			{
				"x": -2.7931221083,
				"y": 0.8807069756,
				"z": -0.3455829861,
				"element": "C" 
			},
			{
				"x": -1.7879802695,
				"y": 1.2554098457,
				"z": 0.5405214435,
				"element": "C" 
			},
			{
				"x": -0.4853611233,
				"y": 0.8886649588,
				"z": 0.2237001849,
				"element": "C" 
			},
			{
				"x": -4.1860707283,
				"y": 1.2433454391,
				"z": -0.0656116872,
				"element": "N" 
			},
			{
				"x": -4.4112502536,
				"y": 1.8738741477,
				"z": 0.9668924946,
				"element": "O" 
			},
			{
				"x": -5.038599092,
				"y": 0.8942490775,
				"z": -0.8806269905,
				"element": "O" 
			},
			{
				"x": 1.8318771024,
				"y": -1.8572520537,
				"z": 1.9846137012,
				"element": "H" 
			},
			{
				"x": 2.3472086445,
				"y": -2.0483683866,
				"z": -1.599860745,
				"element": "H" 
			},
			{
				"x": 0.6140746888,
				"y": -2.3363684436,
				"z": -1.7571967331,
				"element": "H" 
			},
			{
				"x": 1.2977248688,
				"y": -0.0107227179,
				"z": -2.4076648717,
				"element": "H" 
			},
			{
				"x": 1.8972033034,
				"y": 0.282278066,
				"z": -0.7674092997,
				"element": "H" 
			},
			{
				"x": -3.2687622755,
				"y": -0.1328171899,
				"z": -2.1863308612,
				"element": "H" 
			},
			{
				"x": -2.0371956281,
				"y": 1.8115582613,
				"z": 1.4362401373,
				"element": "H" 
			},
			{
				"x": 0.3381019261,
				"y": 1.1446964692,
				"z": 0.8811667489,
				"element": "H" 
			}
		],
		 "valence_orbital": [ 
			{
				"type": "occ",
				"energy": -0.31343,
				"method": "rhf"
			},
			{
				"type": "occ",
				"energy": -0.29975,
				"method": "rhf"
			},
			{
				"type": "occ",
				"energy": -0.29028,
				"method": "rhf"
			},
			{
				"type": "occ",
				"energy": -0.28159,
				"method": "rhf"
			},
			{
				"type": "occ",
				"energy": -0.28004,
				"method": "rhf"
			},
			{
				"type": "unocc",
				"energy": -0.0987,
				"method": "rhf"
			},
			{
				"type": "unocc",
				"energy": -0.05093,
				"method": "rhf"
			},
			{
				"type": "unocc",
				"energy": -0.0135,
				"method": "rhf"
			},
			{
				"type": "unocc",
				"energy": -0.00254,
				"method": "rhf"
			},
			{
				"type": "unocc",
				"energy": 0.06181,
				"method": "rhf"
			}
		],
		"cosmo_sigma_profile": { 
			"-0.025": 0.0,
			"-0.024": 0.0,
			"-0.023": 0.0,
			"-0.022": 0.0,
			"-0.021": 0.0,
			"-0.02": 0.0,
			"-0.019": 0.0329325760383,
			"-0.018": 0.792526631214,
			"-0.017": 0.841448382758,
			"-0.016": 0.842098078011,
			"-0.015": 0.674417566212,
			"-0.014": 0.466757161126,
			"-0.013": 0.492707702604,
			"-0.012": 0.960715094533,
			"-0.011": 1.43765535018,
			"-0.01": 0.546638126424,
			"-0.009": 1.15066559993,
			"-0.008": 4.05404369542,
			"-0.007": 10.2635589415,
			"-0.006": 11.7823539634,
			"-0.005": 13.9285226995,
			"-0.004": 16.020069429,
			"-0.003": 21.3357455889,
			"-0.002": 22.6039534063,
			"-0.001": 15.1725205073,
			"0.0": 12.1862293092,
			"0.001": 9.82127802193,
			"0.002": 7.55687258078,
			"0.003": 6.1524558342,
			"0.004": 5.68180710878,
			"0.005": 6.83310814978,
			"0.006": 6.84559130373,
			"0.007": 12.4654811053,
			"0.008": 8.97875777074,
			"0.009": 6.339969785,
			"0.01": 4.82602084818,
			"0.011": 4.83475521031,
			"0.012": 4.78543541532,
			"0.013": 1.51230677639,
			"0.014": 0.364198213319,
			"0.015": 0.0984957977741,
			"0.016": 0.0,
			"0.017": 0.0,
			"0.018": 0.0,
			"0.019": 0.0,
			"0.02": 0.0,
			"0.021": 0.0,
			"0.022": 0.0,
			"0.023": 0.0,
			"0.024": 0.0,
			"0.025": 0.0
		}
	}
}
