{
	 "smiles": "CC(C)(CO)CO", 
	 "Tm": 401.15, 
	 "num_atms": 19, 
	 "gaussian": { 
		 "optdone": 1, 
		 "sigma_profile": "yes", 
		 "theory": "DFT", 
		 "functional": "B3LYP", 
		 "basiset": "6-31G**", 
		 "properties": { 
			 "R2extent": 984.2716, 
			 "electric_dipole_moment_norm": 0.328968889107, 
			 "electric_quadrupole_moment_norm": 10.8190957205, 
			 "total_energy": -348.199263221, 
			 "HOMO_LUMO_gap": 0.32156, 
			 "cosmo_polarized_energy": -10.26, 
			 "cosmo_cavitation_energy": 20.36, 
			 "cosmo_dispersion_energy": -14.83, 
			 "cosmo_repulsion_energy": 1.25, 
			 "cosmo_total_nonelectrostatic_energy": 6.78, 
			 "SMD_solvation_energy": 3.67 
		},
		"coords": [
			{
				"x": 0.3705030354,
				"y": 1.062905941,
				"z": -0.6227996601,
				"element": "C" 
			},
			{
				"x": 0.7829755113,
				"y": -0.398072353,
				"z": -0.3724540603,
				"element": "C" 
			},
			{
				"x": 2.1594928623,
				"y": -0.4582155444,
				"z": 0.3102517552,
				"element": "C" 
			},
			{
				"x": 0.870697351,
				"y": -1.1467935384,
				"z": -1.7214485035,
				"element": "C" 
			},
			{
				"x": -0.3180600305,
				"y": -1.0977329668,
				"z": -2.5048715648,
				"element": "O" 
			},
			{
				"x": -0.2632176232,
				"y": -1.1025875231,
				"z": 0.5210820222,
				"element": "C" 
			},
			{
				"x": -0.4061266257,
				"y": -0.5345610267,
				"z": 1.8158151724,
				"element": "O" 
			},
			{
				"x": -0.5830573962,
				"y": 1.1129693438,
				"z": -1.1567047099,
				"element": "H" 
			},
			{
				"x": 0.2847421383,
				"y": 1.6200217795,
				"z": 0.3171403017,
				"element": "H" 
			},
			{
				"x": 1.1194794749,
				"y": 1.5788264118,
				"z": -1.2332231917,
				"element": "H" 
			},
			{
				"x": 2.1063730616,
				"y": -0.0176564649,
				"z": 1.3091848129,
				"element": "H" 
			},
			{
				"x": 2.913443269,
				"y": 0.0858330261,
				"z": -0.2692779681,
				"element": "H" 
			},
			{
				"x": 2.5033333572,
				"y": -1.4935307286,
				"z": 0.422934758,
				"element": "H" 
			},
			{
				"x": 1.6488366448,
				"y": -0.6797094131,
				"z": -2.3356018553,
				"element": "H" 
			},
			{
				"x": 1.1828184813,
				"y": -2.1887220106,
				"z": -1.5433203063,
				"element": "H" 
			},
			{
				"x": -0.9508543468,
				"y": -1.724561152,
				"z": -2.1348240704,
				"element": "H" 
			},
			{
				"x": -1.2346157229,
				"y": -1.1258098601,
				"z": 0.0005231611,
				"element": "H" 
			},
			{
				"x": 0.0449735916,
				"y": -2.1415667765,
				"z": 0.6910817748,
				"element": "H" 
			},
			{
				"x": -0.8262370332,
				"y": 0.3286628559,
				"z": 1.7158121319,
				"element": "H" 
			}
		],
		 "valence_orbital": [ 
			{
				"type": "occ",
				"energy": -0.33978,
				"method": "rhf"
			},
			{
				"type": "occ",
				"energy": -0.32952,
				"method": "rhf"
			},
			{
				"type": "occ",
				"energy": -0.31445,
				"method": "rhf"
			},
			{
				"type": "occ",
				"energy": -0.27431,
				"method": "rhf"
			},
			{
				"type": "occ",
				"energy": -0.25827,
				"method": "rhf"
			},
			{
				"type": "unocc",
				"energy": 0.06329,
				"method": "rhf"
			},
			{
				"type": "unocc",
				"energy": 0.06886,
				"method": "rhf"
			},
			{
				"type": "unocc",
				"energy": 0.10314,
				"method": "rhf"
			},
			{
				"type": "unocc",
				"energy": 0.12938,
				"method": "rhf"
			},
			{
				"type": "unocc",
				"energy": 0.13278,
				"method": "rhf"
			}
		],
		"cosmo_sigma_profile": { 
			"-0.025": 0.0,
			"-0.024": 0.0,
			"-0.023": 0.0,
			"-0.022": 0.0,
			"-0.021": 0.0,
			"-0.02": 0.0,
			"-0.019": 0.0,
			"-0.018": 0.0,
			"-0.017": 0.0,
			"-0.016": 0.0,
			"-0.015": 0.601547303567,
			"-0.014": 2.07449474742,
			"-0.013": 1.87248749301,
			"-0.012": 1.83382674816,
			"-0.011": 1.59156493184,
			"-0.01": 2.27212887186,
			"-0.009": 1.9441644882,
			"-0.008": 2.58404598844,
			"-0.007": 1.89686092511,
			"-0.006": 2.66271324958,
			"-0.005": 3.37553472191,
			"-0.004": 8.54043736703,
			"-0.003": 17.3251896399,
			"-0.002": 17.1604303324,
			"-0.001": 16.1171288761,
			"0.0": 14.4789700029,
			"0.001": 13.8731124906,
			"0.002": 9.75939627415,
			"0.003": 3.60234709535,
			"0.004": 3.24650621759,
			"0.005": 2.89799109649,
			"0.006": 3.2900997335,
			"0.007": 2.04485993295,
			"0.008": 2.73104097639,
			"0.009": 3.20164219265,
			"0.01": 1.90971063775,
			"0.011": 1.99509754215,
			"0.012": 2.88042577355,
			"0.013": 2.7888837712,
			"0.014": 3.83435951605,
			"0.015": 1.54643559314,
			"0.016": 0.0,
			"0.017": 0.0,
			"0.018": 0.0,
			"0.019": 0.0,
			"0.02": 0.0,
			"0.021": 0.0,
			"0.022": 0.0,
			"0.023": 0.0,
			"0.024": 0.0,
			"0.025": 0.0
		}
	}
}
