{
	 "smiles": "NC(=O)C1CCC(NC1)C(F)(F)F", 
	 "Tm": 401.15, 
	 "num_atms": 24, 
	 "gaussian": { 
		 "optdone": 1, 
		 "sigma_profile": "yes", 
		 "theory": "DFT", 
		 "functional": "B3LYP", 
		 "basiset": "6-31G**", 
		 "properties": { 
			 "R2extent": 3099.1592, 
			 "electric_dipole_moment_norm": 5.7462512754, 
			 "electric_quadrupole_moment_norm": 7.54444970028, 
			 "total_energy": -757.643716692, 
			 "HOMO_LUMO_gap": 0.24704, 
			 "cosmo_polarized_energy": -15.45, 
			 "cosmo_cavitation_energy": 26.81, 
			 "cosmo_dispersion_energy": -19.31, 
			 "cosmo_repulsion_energy": 1.48, 
			 "cosmo_total_nonelectrostatic_energy": 8.99, 
			 "SMD_solvation_energy": 3.49 
		},
		"coords": [
			{
				"x": 1.4357380419,
				"y": 1.2969348417,
				"z": 2.6046190451,
				"element": "N" 
			},
			{
				"x": 1.0602941199,
				"y": 0.270131792,
				"z": 1.7889056299,
				"element": "C" 
			},
			{
				"x": 1.1237946046,
				"y": -0.9027846461,
				"z": 2.1454330897,
				"element": "O" 
			},
			{
				"x": 0.5056222896,
				"y": 0.6553795688,
				"z": 0.4204550503,
				"element": "C" 
			},
			{
				"x": 1.3298390975,
				"y": -0.0450562464,
				"z": -0.6934992834,
				"element": "C" 
			},
			{
				"x": 0.4656020263,
				"y": -0.3719719454,
				"z": -1.9161163496,
				"element": "C" 
			},
			{
				"x": -0.7146249288,
				"y": -1.3103489726,
				"z": -1.5238565555,
				"element": "C" 
			},
			{
				"x": -1.1295269891,
				"y": -1.1886055053,
				"z": -0.1207302402,
				"element": "N" 
			},
			{
				"x": -0.9845289621,
				"y": 0.1835092226,
				"z": 0.3510700372,
				"element": "C" 
			},
			{
				"x": -0.3917532696,
				"y": -2.7684400653,
				"z": -1.8191720606,
				"element": "C" 
			},
			{
				"x": -1.4302536041,
				"y": -3.5800543997,
				"z": -1.5512969028,
				"element": "F" 
			},
			{
				"x": -0.0695024781,
				"y": -2.9383725964,
				"z": -3.1220579034,
				"element": "F" 
			},
			{
				"x": 0.6618311766,
				"y": -3.207057928,
				"z": -1.0850749353,
				"element": "F" 
			},
			{
				"x": 1.8001170899,
				"y": 1.0717185706,
				"z": 3.5184921352,
				"element": "H" 
			},
			{
				"x": 1.4247733773,
				"y": 2.257685869,
				"z": 2.3051049262,
				"element": "H" 
			},
			{
				"x": 0.5393026928,
				"y": 1.7445914118,
				"z": 0.2853150959,
				"element": "H" 
			},
			{
				"x": 2.1809100321,
				"y": 0.5802422079,
				"z": -0.9821893531,
				"element": "H" 
			},
			{
				"x": 1.7376701009,
				"y": -0.9750990394,
				"z": -0.2879449784,
				"element": "H" 
			},
			{
				"x": 1.0682394045,
				"y": -0.8302050553,
				"z": -2.7054159732,
				"element": "H" 
			},
			{
				"x": 0.0554098309,
				"y": 0.5511387459,
				"z": -2.34191032,
				"element": "H" 
			},
			{
				"x": -1.5791244345,
				"y": -1.0795339393,
				"z": -2.1609229163,
				"element": "H" 
			},
			{
				"x": -0.5490620009,
				"y": -1.7815642674,
				"z": 0.4715088102,
				"element": "H" 
			},
			{
				"x": -1.5428561486,
				"y": 0.8410676362,
				"z": -0.325964508,
				"element": "H" 
			},
			{
				"x": -1.4579110688,
				"y": 0.2696947401,
				"z": 1.3338484602,
				"element": "H" 
			}
		],
		 "valence_orbital": [ 
			{
				"type": "occ",
				"energy": -0.33969,
				"method": "rhf"
			},
			{
				"type": "occ",
				"energy": -0.3252,
				"method": "rhf"
			},
			{
				"type": "occ",
				"energy": -0.27413,
				"method": "rhf"
			},
			{
				"type": "occ",
				"energy": -0.25483,
				"method": "rhf"
			},
			{
				"type": "occ",
				"energy": -0.22457,
				"method": "rhf"
			},
			{
				"type": "unocc",
				"energy": 0.02247,
				"method": "rhf"
			},
			{
				"type": "unocc",
				"energy": 0.06069,
				"method": "rhf"
			},
			{
				"type": "unocc",
				"energy": 0.07964,
				"method": "rhf"
			},
			{
				"type": "unocc",
				"energy": 0.10413,
				"method": "rhf"
			},
			{
				"type": "unocc",
				"energy": 0.11323,
				"method": "rhf"
			}
		],
		"cosmo_sigma_profile": { 
			"-0.025": 0.0,
			"-0.024": 0.0,
			"-0.023": 0.0,
			"-0.022": 0.0,
			"-0.021": 0.0,
			"-0.02": 0.0,
			"-0.019": 0.0,
			"-0.018": 0.0,
			"-0.017": 0.0,
			"-0.016": 0.0,
			"-0.015": 0.199336515895,
			"-0.014": 1.4998277615,
			"-0.013": 2.39668858086,
			"-0.012": 2.8962058568,
			"-0.011": 2.34583538907,
			"-0.01": 2.31490034373,
			"-0.009": 2.77760101368,
			"-0.008": 1.90513044586,
			"-0.007": 2.48778648314,
			"-0.006": 5.15732363971,
			"-0.005": 11.7595297374,
			"-0.004": 17.660838102,
			"-0.003": 17.3527987955,
			"-0.002": 15.6322870062,
			"-0.001": 16.3798855131,
			"0.0": 13.8593282895,
			"0.001": 8.91930403062,
			"0.002": 17.0515351753,
			"0.003": 31.9553936918,
			"0.004": 6.84649801885,
			"0.005": 2.63343312588,
			"0.006": 2.37858621587,
			"0.007": 2.71633069339,
			"0.008": 2.58841461571,
			"0.009": 1.82990665703,
			"0.01": 1.62768044019,
			"0.011": 2.19741760903,
			"0.012": 2.27516805698,
			"0.013": 2.86808240808,
			"0.014": 4.32063668725,
			"0.015": 1.84440100918,
			"0.016": 0.313653757525,
			"0.017": 0.332337976355,
			"0.018": 0.0,
			"0.019": 0.0,
			"0.02": 0.0,
			"0.021": 0.0,
			"0.022": 0.0,
			"0.023": 0.0,
			"0.024": 0.0,
			"0.025": 0.0
		}
	}
}
