{
	 "smiles": "[O-][N+](=O)C1=CC=C(C=C1)C(=O)NC1=CC2=NN(N=C2C=C1)C1CCCC1", 
	 "Tm": 501.15, 
	 "num_atms": 43, 
	 "gaussian": { 
		 "optdone": 1, 
		 "sigma_profile": "yes", 
		 "theory": "DFT", 
		 "functional": "B3LYP", 
		 "basiset": "6-31G**", 
		 "properties": { 
			 "R2extent": 15211.8578, 
			 "electric_dipole_moment_norm": 6.15074264622, 
			 "electric_quadrupole_moment_norm": 27.2338271249, 
			 "total_energy": -1195.48175012, 
			 "HOMO_LUMO_gap": 0.13542, 
			 "cosmo_polarized_energy": -18.02, 
			 "cosmo_cavitation_energy": 47.7, 
			 "cosmo_dispersion_energy": -33.65, 
			 "cosmo_repulsion_energy": 2.55, 
			 "cosmo_total_nonelectrostatic_energy": 16.61, 
			 "SMD_solvation_energy": 8.02 
		},
		"coords": [
			{
				"x": -5.3738862779,
				"y": 1.1106250891,
				"z": 5.1823961827,
				"element": "O" 
			},
			{
				"x": -4.5178615268,
				"y": 0.2862534364,
				"z": 4.8650506075,
				"element": "N" 
			},
			{
				"x": -3.7556625655,
				"y": -0.2738391926,
				"z": 5.651818701,
				"element": "O" 
			},
			{
				"x": -4.3952145705,
				"y": -0.0541426674,
				"z": 3.4364205117,
				"element": "C" 
			},
			{
				"x": -5.2517318264,
				"y": 0.5567216835,
				"z": 2.5216812089,
				"element": "C" 
			},
			{
				"x": -5.1314965237,
				"y": 0.2247454941,
				"z": 1.1768908949,
				"element": "C" 
			},
			{
				"x": -4.1500599052,
				"y": -0.6823119811,
				"z": 0.7505356589,
				"element": "C" 
			},
			{
				"x": -3.3089174058,
				"y": -1.2900132241,
				"z": 1.6947428098,
				"element": "C" 
			},
			{
				"x": -3.4315729081,
				"y": -0.9816154597,
				"z": 3.0467973459,
				"element": "C" 
			},
			{
				"x": -4.1439871709,
				"y": -1.0445415445,
				"z": -0.710589785,
				"element": "C" 
			},
			{
				"x": -5.1912032817,
				"y": -1.0618330668,
				"z": -1.3472424996,
				"element": "O" 
			},
			{
				"x": -2.9587052008,
				"y": -1.4194451548,
				"z": -1.3095508741,
				"element": "N" 
			},
			{
				"x": -1.6105777662,
				"y": -1.1379603596,
				"z": -0.9519279473,
				"element": "C" 
			},
			{
				"x": -0.6499551858,
				"y": -2.1089268866,
				"z": -1.1714413941,
				"element": "C" 
			},
			{
				"x": 0.6873661916,
				"y": -1.7737194038,
				"z": -0.8693510832,
				"element": "C" 
			},
			{
				"x": 1.8211137011,
				"y": -2.5052294197,
				"z": -0.9798850089,
				"element": "N" 
			},
			{
				"x": 2.7550775633,
				"y": -1.6696413786,
				"z": -0.533838968,
				"element": "N" 
			},
			{
				"x": 2.3666461508,
				"y": -0.4649308283,
				"z": -0.1358767217,
				"element": "N" 
			},
			{
				"x": 1.028982317,
				"y": -0.4967494337,
				"z": -0.3388159604,
				"element": "C" 
			},
			{
				"x": 0.0360501956,
				"y": 0.4849667562,
				"z": -0.1225494977,
				"element": "C" 
			},
			{
				"x": -1.2611819563,
				"y": 0.1560120935,
				"z": -0.4437649188,
				"element": "C" 
			},
			{
				"x": 4.1634972163,
				"y": -2.0833887854,
				"z": -0.462883353,
				"element": "C" 
			},
			{
				"x": 5.0820318739,
				"y": -1.1530080454,
				"z": -1.3071533412,
				"element": "C" 
			},
			{
				"x": 6.2974895721,
				"y": -0.8597537937,
				"z": -0.4073951196,
				"element": "C" 
			},
			{
				"x": 5.6965130977,
				"y": -0.8383568177,
				"z": 1.0069828908,
				"element": "C" 
			},
			{
				"x": 4.7205487513,
				"y": -2.0274372483,
				"z": 0.9900428995,
				"element": "C" 
			},
			{
				"x": -5.992461732,
				"y": 1.2636139082,
				"z": 2.873467122,
				"element": "H" 
			},
			{
				"x": -5.8002531901,
				"y": 0.6525377456,
				"z": 0.4384011623,
				"element": "H" 
			},
			{
				"x": -2.5654439246,
				"y": -2.012648003,
				"z": 1.3790715065,
				"element": "H" 
			},
			{
				"x": -2.8010658833,
				"y": -1.442445923,
				"z": 3.7965346497,
				"element": "H" 
			},
			{
				"x": -3.1149841027,
				"y": -1.7762671245,
				"z": -2.2450711377,
				"element": "H" 
			},
			{
				"x": -0.9138720328,
				"y": -3.0890357227,
				"z": -1.5542776446,
				"element": "H" 
			},
			{
				"x": 0.2926077259,
				"y": 1.4663522477,
				"z": 0.2612724056,
				"element": "H" 
			},
			{
				"x": -2.0488423677,
				"y": 0.8916887796,
				"z": -0.3252360105,
				"element": "H" 
			},
			{
				"x": 4.1478437512,
				"y": -3.1035834594,
				"z": -0.8458930102,
				"element": "H" 
			},
			{
				"x": 5.3466054751,
				"y": -1.6046517138,
				"z": -2.26714801,
				"element": "H" 
			},
			{
				"x": 4.5411369637,
				"y": -0.224945822,
				"z": -1.5121902393,
				"element": "H" 
			},
			{
				"x": 6.8010334574,
				"y": 0.072442528,
				"z": -0.6803146652,
				"element": "H" 
			},
			{
				"x": 7.0371898306,
				"y": -1.6665648794,
				"z": -0.4879276352,
				"element": "H" 
			},
			{
				"x": 5.1423659,
				"y": 0.0941669625,
				"z": 1.1618992607,
				"element": "H" 
			},
			{
				"x": 6.446769207,
				"y": -0.9192325538,
				"z": 1.7992973516,
				"element": "H" 
			},
			{
				"x": 5.2609599741,
				"y": -2.9597827328,
				"z": 1.1882024476,
				"element": "H" 
			},
			{
				"x": 3.9192083893,
				"y": -1.9489240981,
				"z": 1.7282192077,
				"element": "H" 
			}
		],
		 "valence_orbital": [ 
			{
				"type": "occ",
				"energy": -0.28913,
				"method": "rhf"
			},
			{
				"type": "occ",
				"energy": -0.28353,
				"method": "rhf"
			},
			{
				"type": "occ",
				"energy": -0.26556,
				"method": "rhf"
			},
			{
				"type": "occ",
				"energy": -0.25194,
				"method": "rhf"
			},
			{
				"type": "occ",
				"energy": -0.23355,
				"method": "rhf"
			},
			{
				"type": "unocc",
				"energy": -0.09813,
				"method": "rhf"
			},
			{
				"type": "unocc",
				"energy": -0.06219,
				"method": "rhf"
			},
			{
				"type": "unocc",
				"energy": -0.0327,
				"method": "rhf"
			},
			{
				"type": "unocc",
				"energy": -0.02849,
				"method": "rhf"
			},
			{
				"type": "unocc",
				"energy": 0.00418,
				"method": "rhf"
			}
		],
		"cosmo_sigma_profile": { 
			"-0.025": 0.0,
			"-0.024": 0.0,
			"-0.023": 0.0,
			"-0.022": 0.0,
			"-0.021": 0.0,
			"-0.02": 0.0,
			"-0.019": 0.0,
			"-0.018": 0.0,
			"-0.017": 0.0,
			"-0.016": 0.0,
			"-0.015": 0.501880983862,
			"-0.014": 0.976388724514,
			"-0.013": 1.11586976843,
			"-0.012": 1.13787062145,
			"-0.011": 0.642111974122,
			"-0.01": 1.3021367536,
			"-0.009": 0.891629527709,
			"-0.008": 4.5026805989,
			"-0.007": 14.1163353141,
			"-0.006": 16.0823197771,
			"-0.005": 16.5418476762,
			"-0.004": 25.688935037,
			"-0.003": 32.9411888951,
			"-0.002": 38.3718442994,
			"-0.001": 41.8053668936,
			"0.0": 40.1700428938,
			"0.001": 32.1479063908,
			"0.002": 22.3852719284,
			"0.003": 13.221641443,
			"0.004": 8.93012269512,
			"0.005": 7.11332763937,
			"0.006": 8.94025854746,
			"0.007": 12.984059938,
			"0.008": 9.84260936202,
			"0.009": 8.06816309503,
			"0.01": 4.893527304,
			"0.011": 3.94709630196,
			"0.012": 5.21211633051,
			"0.013": 5.05370057152,
			"0.014": 0.485281346772,
			"0.015": 0.0,
			"0.016": 0.0,
			"0.017": 0.0,
			"0.018": 0.0,
			"0.019": 0.0,
			"0.02": 0.0,
			"0.021": 0.0,
			"0.022": 0.0,
			"0.023": 0.0,
			"0.024": 0.0,
			"0.025": 0.0
		}
	}
}
