{
	 "smiles": "NC1=C(C=C(C=C1)C(O)C1=CC=CC=C1)[N+]([O-])=O", 
	 "Tm": 394.15, 
	 "num_atms": 30, 
	 "gaussian": { 
		 "optdone": 1, 
		 "sigma_profile": "yes", 
		 "theory": "DFT", 
		 "functional": "B3LYP", 
		 "basiset": "6-31G**", 
		 "properties": { 
			 "R2extent": 5166.5617, 
			 "electric_dipole_moment_norm": 3.95301133441, 
			 "electric_quadrupole_moment_norm": 19.5624971775, 
			 "total_energy": -837.693533031, 
			 "HOMO_LUMO_gap": 0.13861, 
			 "cosmo_polarized_energy": -15.78, 
			 "cosmo_cavitation_energy": 34.37, 
			 "cosmo_dispersion_energy": -24.54, 
			 "cosmo_repulsion_energy": 1.91, 
			 "cosmo_total_nonelectrostatic_energy": 11.74, 
			 "SMD_solvation_energy": 7.71 
		},
		"coords": [
			{
				"x": 2.427307132,
				"y": -3.5190815971,
				"z": -2.2308719417,
				"element": "N" 
			},
			{
				"x": 1.5413936172,
				"y": -2.5561623206,
				"z": -1.868928089,
				"element": "C" 
			},
			{
				"x": 1.3591850466,
				"y": -2.09838322,
				"z": -0.5334611855,
				"element": "C" 
			},
			{
				"x": 0.4136627266,
				"y": -1.1073223498,
				"z": -0.2230639893,
				"element": "C" 
			},
			{
				"x": -0.383663928,
				"y": -0.5386243113,
				"z": -1.200885434,
				"element": "C" 
			},
			{
				"x": -0.2160959332,
				"y": -0.9842224345,
				"z": -2.5282871715,
				"element": "C" 
			},
			{
				"x": 0.7139880249,
				"y": -1.9529640167,
				"z": -2.8489174551,
				"element": "C" 
			},
			{
				"x": -1.4496332846,
				"y": 0.4960204079,
				"z": -0.8518100068,
				"element": "C" 
			},
			{
				"x": -1.8359874959,
				"y": 1.1274932167,
				"z": -2.0737883439,
				"element": "O" 
			},
			{
				"x": -0.9875192459,
				"y": 1.5161487811,
				"z": 0.1786599807,
				"element": "C" 
			},
			{
				"x": -0.0977779578,
				"y": 2.5346041461,
				"z": -0.1917791123,
				"element": "C" 
			},
			{
				"x": 0.328032114,
				"y": 3.4736187709,
				"z": 0.7453591183,
				"element": "C" 
			},
			{
				"x": -0.126218898,
				"y": 3.4048172257,
				"z": 2.0661686679,
				"element": "C" 
			},
			{
				"x": -1.0130586772,
				"y": 2.3962047844,
				"z": 2.4418234689,
				"element": "C" 
			},
			{
				"x": -1.445394788,
				"y": 1.4598106464,
				"z": 1.4987559137,
				"element": "C" 
			},
			{
				"x": 2.1448611614,
				"y": -2.6201343317,
				"z": 0.5657396167,
				"element": "N" 
			},
			{
				"x": 1.9278537827,
				"y": -2.1960579974,
				"z": 1.7019867408,
				"element": "O" 
			},
			{
				"x": 3.0150545527,
				"y": -3.4814734464,
				"z": 0.3287213707,
				"element": "O" 
			},
			{
				"x": 3.0527484862,
				"y": -3.8815837376,
				"z": -1.5263008523,
				"element": "H" 
			},
			{
				"x": 2.5620192972,
				"y": -3.7250300748,
				"z": -3.2063088387,
				"element": "H" 
			},
			{
				"x": 0.3410576047,
				"y": -0.8004553207,
				"z": 0.8127795484,
				"element": "H" 
			},
			{
				"x": -0.8283962443,
				"y": -0.5478794982,
				"z": -3.3086663599,
				"element": "H" 
			},
			{
				"x": 0.8256297032,
				"y": -2.2755962404,
				"z": -3.880836158,
				"element": "H" 
			},
			{
				"x": -2.3154984537,
				"y": -0.0406823944,
				"z": -0.4272742169,
				"element": "H" 
			},
			{
				"x": -2.4773331132,
				"y": 1.8143135184,
				"z": -1.8508000035,
				"element": "H" 
			},
			{
				"x": 0.2484615588,
				"y": 2.5841439295,
				"z": -1.2198203401,
				"element": "H" 
			},
			{
				"x": 1.0169907912,
				"y": 4.2594070413,
				"z": 0.4483708589,
				"element": "H" 
			},
			{
				"x": 0.2088702303,
				"y": 4.1358597671,
				"z": 2.7962922353,
				"element": "H" 
			},
			{
				"x": -1.3738181074,
				"y": 2.3392159811,
				"z": 3.4647720804,
				"element": "H" 
			},
			{
				"x": -2.1456197021,
				"y": 0.6806950749,
				"z": 1.7916698977,
				"element": "H" 
			}
		],
		 "valence_orbital": [ 
			{
				"type": "occ",
				"energy": -0.27803,
				"method": "rhf"
			},
			{
				"type": "occ",
				"energy": -0.26744,
				"method": "rhf"
			},
			{
				"type": "occ",
				"energy": -0.25489,
				"method": "rhf"
			},
			{
				"type": "occ",
				"energy": -0.24809,
				"method": "rhf"
			},
			{
				"type": "occ",
				"energy": -0.21355,
				"method": "rhf"
			},
			{
				"type": "unocc",
				"energy": -0.07494,
				"method": "rhf"
			},
			{
				"type": "unocc",
				"energy": -0.01079,
				"method": "rhf"
			},
			{
				"type": "unocc",
				"energy": -0.00764,
				"method": "rhf"
			},
			{
				"type": "unocc",
				"energy": -0.00076,
				"method": "rhf"
			},
			{
				"type": "unocc",
				"energy": 0.01817,
				"method": "rhf"
			}
		],
		"cosmo_sigma_profile": { 
			"-0.025": 0.0,
			"-0.024": 0.0,
			"-0.023": 0.0,
			"-0.022": 0.0,
			"-0.021": 0.0,
			"-0.02": 0.0,
			"-0.019": 0.0,
			"-0.018": 0.0,
			"-0.017": 0.0,
			"-0.016": 0.212571910342,
			"-0.015": 1.5913213941,
			"-0.014": 1.98291576567,
			"-0.013": 2.29711126979,
			"-0.012": 1.94788063997,
			"-0.011": 2.9290031205,
			"-0.01": 3.09223136613,
			"-0.009": 3.09814157273,
			"-0.008": 3.35319698163,
			"-0.007": 3.19487283969,
			"-0.006": 10.2442584593,
			"-0.005": 19.5384834644,
			"-0.004": 18.9140721407,
			"-0.003": 19.1665178993,
			"-0.002": 15.2508994693,
			"-0.001": 17.0750617594,
			"0.0": 16.587040753,
			"0.001": 20.3897847695,
			"0.002": 22.4748529314,
			"0.003": 22.4912842289,
			"0.004": 16.915775561,
			"0.005": 12.4307114081,
			"0.006": 9.05904901429,
			"0.007": 4.71732584937,
			"0.008": 7.13022606121,
			"0.009": 7.59110091074,
			"0.01": 5.74554153523,
			"0.011": 3.99589643872,
			"0.012": 0.623903086668,
			"0.013": 0.0,
			"0.014": 0.0,
			"0.015": 0.0,
			"0.016": 0.0,
			"0.017": 0.0,
			"0.018": 0.0,
			"0.019": 0.0,
			"0.02": 0.0,
			"0.021": 0.0,
			"0.022": 0.0,
			"0.023": 0.0,
			"0.024": 0.0,
			"0.025": 0.0
		}
	}
}
