{
	 "smiles": "OC(=O)COC1=CC2=C(CCC2)C=C1", 
	 "Tm": 428.15, 
	 "num_atms": 26, 
	 "gaussian": { 
		 "optdone": 1, 
		 "sigma_profile": "yes", 
		 "theory": "DFT", 
		 "functional": "B3LYP", 
		 "basiset": "6-31G**", 
		 "properties": { 
			 "R2extent": 4501.3499, 
			 "electric_dipole_moment_norm": 1.40365520339, 
			 "electric_quadrupole_moment_norm": 10.9615099754, 
			 "total_energy": -652.080720953, 
			 "HOMO_LUMO_gap": 0.20718, 
			 "cosmo_polarized_energy": -11.9, 
			 "cosmo_cavitation_energy": 29.61, 
			 "cosmo_dispersion_energy": -22.03, 
			 "cosmo_repulsion_energy": 1.76, 
			 "cosmo_total_nonelectrostatic_energy": 9.35, 
			 "SMD_solvation_energy": 6.0 
		},
		"coords": [
			{
				"x": 1.731238809,
				"y": 2.9635078043,
				"z": 3.3969327105,
				"element": "O" 
			},
			{
				"x": 1.4677445412,
				"y": 3.8625065203,
				"z": 2.434183998,
				"element": "C" 
			},
			{
				"x": 1.7455297387,
				"y": 5.0387888203,
				"z": 2.513312374,
				"element": "O" 
			},
			{
				"x": 0.7794732855,
				"y": 3.2845098633,
				"z": 1.210184055,
				"element": "C" 
			},
			{
				"x": 0.5633131727,
				"y": 1.9010564856,
				"z": 1.3442153906,
				"element": "O" 
			},
			{
				"x": -0.0567047553,
				"y": 1.2391032965,
				"z": 0.3128452212,
				"element": "C" 
			},
			{
				"x": -0.2372662564,
				"y": -0.1383884582,
				"z": 0.5133072997,
				"element": "C" 
			},
			{
				"x": -0.8472305768,
				"y": -0.8893684977,
				"z": -0.4813973404,
				"element": "C" 
			},
			{
				"x": -1.2856581501,
				"y": -0.2887377109,
				"z": -1.6742134922,
				"element": "C" 
			},
			{
				"x": -1.9318393422,
				"y": -1.3172616741,
				"z": -2.5794298704,
				"element": "C" 
			},
			{
				"x": -1.4326571769,
				"y": -2.6615514598,
				"z": -1.9900378433,
				"element": "C" 
			},
			{
				"x": -1.1643899502,
				"y": -2.3705803619,
				"z": -0.4913977366,
				"element": "C" 
			},
			{
				"x": -1.1072315516,
				"y": 1.0759064744,
				"z": -1.8644131666,
				"element": "C" 
			},
			{
				"x": -0.488735553,
				"y": 1.8483922574,
				"z": -0.8715512809,
				"element": "C" 
			},
			{
				"x": 2.1654293671,
				"y": 3.4615335914,
				"z": 4.1107530186,
				"element": "H" 
			},
			{
				"x": 1.4149445782,
				"y": 3.5202397497,
				"z": 0.3443603488,
				"element": "H" 
			},
			{
				"x": -0.1620011384,
				"y": 3.8377797928,
				"z": 1.0811857998,
				"element": "H" 
			},
			{
				"x": 0.1133708379,
				"y": -0.5793016891,
				"z": 1.4415157896,
				"element": "H" 
			},
			{
				"x": -1.6671659575,
				"y": -1.1947748004,
				"z": -3.6352716679,
				"element": "H" 
			},
			{
				"x": -3.0276787535,
				"y": -1.2483998769,
				"z": -2.5186539251,
				"element": "H" 
			},
			{
				"x": -2.1371495908,
				"y": -3.4836714358,
				"z": -2.1450968885,
				"element": "H" 
			},
			{
				"x": -0.4908404059,
				"y": -2.9399831018,
				"z": -2.4761852003,
				"element": "H" 
			},
			{
				"x": -0.3617636759,
				"y": -2.9878042527,
				"z": -0.074174491,
				"element": "H" 
			},
			{
				"x": -2.0616935228,
				"y": -2.5678355186,
				"z": 0.1124598908,
				"element": "H" 
			},
			{
				"x": -1.4367999978,
				"y": 1.5574023949,
				"z": -2.7817353036,
				"element": "H" 
			},
			{
				"x": -0.3477379752,
				"y": 2.9098317866,
				"z": -1.0380976896,
				"element": "H" 
			}
		],
		 "valence_orbital": [ 
			{
				"type": "occ",
				"energy": -0.32081,
				"method": "rhf"
			},
			{
				"type": "occ",
				"energy": -0.3027,
				"method": "rhf"
			},
			{
				"type": "occ",
				"energy": -0.28331,
				"method": "rhf"
			},
			{
				"type": "occ",
				"energy": -0.24189,
				"method": "rhf"
			},
			{
				"type": "occ",
				"energy": -0.21317,
				"method": "rhf"
			},
			{
				"type": "unocc",
				"energy": -0.00599,
				"method": "rhf"
			},
			{
				"type": "unocc",
				"energy": 0.0061,
				"method": "rhf"
			},
			{
				"type": "unocc",
				"energy": 0.01721,
				"method": "rhf"
			},
			{
				"type": "unocc",
				"energy": 0.07054,
				"method": "rhf"
			},
			{
				"type": "unocc",
				"energy": 0.09713,
				"method": "rhf"
			}
		],
		"cosmo_sigma_profile": { 
			"-0.025": 0.0,
			"-0.024": 0.0,
			"-0.023": 0.0,
			"-0.022": 0.0,
			"-0.021": 0.0,
			"-0.02": 0.0,
			"-0.019": 0.331323716339,
			"-0.018": 1.05097064542,
			"-0.017": 0.922042650186,
			"-0.016": 0.601274240352,
			"-0.015": 1.01922527314,
			"-0.014": 0.668911675013,
			"-0.013": 0.312075213512,
			"-0.012": 1.21629020132,
			"-0.011": 0.829988024635,
			"-0.01": 0.325319351179,
			"-0.009": 0.26305579464,
			"-0.008": 4.94821178231,
			"-0.007": 10.1512418268,
			"-0.006": 7.21690392252,
			"-0.005": 8.40927144063,
			"-0.004": 11.064252466,
			"-0.003": 20.9397082178,
			"-0.002": 23.5785365658,
			"-0.001": 25.7094421082,
			"0.0": 20.0232554124,
			"0.001": 16.8868248679,
			"0.002": 9.42747159563,
			"0.003": 8.90670629354,
			"0.004": 11.8360596136,
			"0.005": 11.0979500112,
			"0.006": 9.96422756343,
			"0.007": 4.07306299382,
			"0.008": 3.36893543728,
			"0.009": 2.33638808552,
			"0.01": 4.43228935235,
			"0.011": 5.86456060217,
			"0.012": 5.20215471967,
			"0.013": 0.846708279216,
			"0.014": 0.00456415545152,
			"0.015": 0.0,
			"0.016": 0.0,
			"0.017": 0.0,
			"0.018": 0.0,
			"0.019": 0.0,
			"0.02": 0.0,
			"0.021": 0.0,
			"0.022": 0.0,
			"0.023": 0.0,
			"0.024": 0.0,
			"0.025": 0.0
		}
	}
}
