{
	 "smiles": "CC1(C)OC(=O)C(=CC2=CC=C(O2)C2=CC=CC=C2)C(=O)O1", 
	 "Tm": 420.15, 
	 "num_atms": 36, 
	 "gaussian": { 
		 "optdone": 1, 
		 "sigma_profile": "yes", 
		 "theory": "DFT", 
		 "functional": "B3LYP", 
		 "basiset": "6-31G**", 
		 "properties": { 
			 "R2extent": 9111.7266, 
			 "electric_dipole_moment_norm": 4.36728904585, 
			 "electric_quadrupole_moment_norm": 24.5690997084, 
			 "total_energy": -1032.36913721, 
			 "HOMO_LUMO_gap": 0.12336, 
			 "cosmo_polarized_energy": -17.6, 
			 "cosmo_cavitation_energy": 40.89, 
			 "cosmo_dispersion_energy": -29.02, 
			 "cosmo_repulsion_energy": 2.18, 
			 "cosmo_total_nonelectrostatic_energy": 14.04, 
			 "SMD_solvation_energy": 9.12 
		},
		"coords": [
			{
				"x": 2.6275294942,
				"y": 2.9417005312,
				"z": -0.7621268073,
				"element": "C" 
			},
			{
				"x": 1.513547547,
				"y": 3.5443723245,
				"z": 0.094455541,
				"element": "C" 
			},
			{
				"x": 1.117011799,
				"y": 4.9458123765,
				"z": -0.337504313,
				"element": "C" 
			},
			{
				"x": 0.3270740861,
				"y": 2.7489100521,
				"z": -0.0037495426,
				"element": "O" 
			},
			{
				"x": 0.2392661384,
				"y": 1.557527665,
				"z": 0.6703063751,
				"element": "C" 
			},
			{
				"x": -0.6744562411,
				"y": 0.8135891349,
				"z": 0.3969699833,
				"element": "O" 
			},
			{
				"x": 1.2459681709,
				"y": 1.3565431697,
				"z": 1.7354381214,
				"element": "C" 
			},
			{
				"x": 1.4935264552,
				"y": 0.1856464136,
				"z": 2.4062838656,
				"element": "C" 
			},
			{
				"x": 1.0526721877,
				"y": -1.1521252868,
				"z": 2.2704919472,
				"element": "C" 
			},
			{
				"x": 1.4078035881,
				"y": -2.2534813688,
				"z": 3.0419545656,
				"element": "C" 
			},
			{
				"x": 0.7310771457,
				"y": -3.3675063762,
				"z": 2.5131728145,
				"element": "C" 
			},
			{
				"x": -0.006009108,
				"y": -2.90012158,
				"z": 1.4349055971,
				"element": "C" 
			},
			{
				"x": 0.1932041614,
				"y": -1.5699149521,
				"z": 1.2910500062,
				"element": "O" 
			},
			{
				"x": -0.9139713064,
				"y": -3.531837778,
				"z": 0.4904887259,
				"element": "C" 
			},
			{
				"x": -1.0805269371,
				"y": -4.9286867592,
				"z": 0.4825037286,
				"element": "C" 
			},
			{
				"x": -1.9542423928,
				"y": -5.5257803608,
				"z": -0.42079649,
				"element": "C" 
			},
			{
				"x": -2.6709605794,
				"y": -4.7404931641,
				"z": -1.3283083556,
				"element": "C" 
			},
			{
				"x": -2.5093152928,
				"y": -3.3526302042,
				"z": -1.3259213223,
				"element": "C" 
			},
			{
				"x": -1.6392265837,
				"y": -2.7447511354,
				"z": -0.4248074875,
				"element": "C" 
			},
			{
				"x": 2.0120645284,
				"y": 2.534127074,
				"z": 2.2273513495,
				"element": "C" 
			},
			{
				"x": 2.64888914,
				"y": 2.5634468815,
				"z": 3.2579894109,
				"element": "O" 
			},
			{
				"x": 1.9461692231,
				"y": 3.658502511,
				"z": 1.4571674396,
				"element": "O" 
			},
			{
				"x": 3.5222846396,
				"y": 3.565930415,
				"z": -0.7001841561,
				"element": "H" 
			},
			{
				"x": 2.3025986807,
				"y": 2.8841822533,
				"z": -1.8038634885,
				"element": "H" 
			},
			{
				"x": 2.8821859027,
				"y": 1.9343410425,
				"z": -0.4220741414,
				"element": "H" 
			},
			{
				"x": 0.3224279339,
				"y": 5.3157996888,
				"z": 0.3135813112,
				"element": "H" 
			},
			{
				"x": 1.9774390736,
				"y": 5.6151209193,
				"z": -0.2672300292,
				"element": "H" 
			},
			{
				"x": 0.7552756528,
				"y": 4.9289773249,
				"z": -1.3680577871,
				"element": "H" 
			},
			{
				"x": 2.2110836453,
				"y": 0.3024789106,
				"z": 3.2166261196,
				"element": "H" 
			},
			{
				"x": 2.0778826697,
				"y": -2.2330051172,
				"z": 3.8902339477,
				"element": "H" 
			},
			{
				"x": 0.763568839,
				"y": -4.3838878093,
				"z": 2.8760489879,
				"element": "H" 
			},
			{
				"x": -0.5207804678,
				"y": -5.5460835899,
				"z": 1.1786480826,
				"element": "H" 
			},
			{
				"x": -2.0749128036,
				"y": -6.60502274,
				"z": -0.419644742,
				"element": "H" 
			},
			{
				"x": -3.3523185065,
				"y": -5.2088540722,
				"z": -2.0324880004,
				"element": "H" 
			},
			{
				"x": -3.0668731369,
				"y": -2.7389586414,
				"z": -2.027189077,
				"element": "H" 
			},
			{
				"x": -1.5176573464,
				"y": -1.6663677528,
				"z": -0.4121221804,
				"element": "H" 
			}
		],
		 "valence_orbital": [ 
			{
				"type": "occ",
				"energy": -0.28227,
				"method": "rhf"
			},
			{
				"type": "occ",
				"energy": -0.27316,
				"method": "rhf"
			},
			{
				"type": "occ",
				"energy": -0.26212,
				"method": "rhf"
			},
			{
				"type": "occ",
				"energy": -0.26204,
				"method": "rhf"
			},
			{
				"type": "occ",
				"energy": -0.21741,
				"method": "rhf"
			},
			{
				"type": "unocc",
				"energy": -0.09405,
				"method": "rhf"
			},
			{
				"type": "unocc",
				"energy": -0.03026,
				"method": "rhf"
			},
			{
				"type": "unocc",
				"energy": -0.01106,
				"method": "rhf"
			},
			{
				"type": "unocc",
				"energy": 0.00841,
				"method": "rhf"
			},
			{
				"type": "unocc",
				"energy": 0.04348,
				"method": "rhf"
			}
		],
		"cosmo_sigma_profile": { 
			"-0.025": 0.0,
			"-0.024": 0.0,
			"-0.023": 0.0,
			"-0.022": 0.0,
			"-0.021": 0.0,
			"-0.02": 0.0,
			"-0.019": 0.0,
			"-0.018": 0.0,
			"-0.017": 0.0,
			"-0.016": 0.0,
			"-0.015": 0.0,
			"-0.014": 0.0,
			"-0.013": 0.0,
			"-0.012": 0.0,
			"-0.011": 0.0,
			"-0.01": 0.216679118679,
			"-0.009": 4.93149469658,
			"-0.008": 6.3722256403,
			"-0.007": 6.66772481551,
			"-0.006": 16.4448297303,
			"-0.005": 29.555456796,
			"-0.004": 26.2083131438,
			"-0.003": 24.2089992385,
			"-0.002": 26.0321314241,
			"-0.001": 29.178994697,
			"0.0": 29.186931083,
			"0.001": 22.794279816,
			"0.002": 19.8109564823,
			"0.003": 15.4069480455,
			"0.004": 16.9954427779,
			"0.005": 7.50689453886,
			"0.006": 5.88826996379,
			"0.007": 5.22143773602,
			"0.008": 6.03489249784,
			"0.009": 5.4237844237,
			"0.01": 6.91219514576,
			"0.011": 8.11161778801,
			"0.012": 5.94013716794,
			"0.013": 2.56074199461,
			"0.014": 0.0638496950179,
			"0.015": 0.0,
			"0.016": 0.0,
			"0.017": 0.0,
			"0.018": 0.0,
			"0.019": 0.0,
			"0.02": 0.0,
			"0.021": 0.0,
			"0.022": 0.0,
			"0.023": 0.0,
			"0.024": 0.0,
			"0.025": 0.0
		}
	}
}
