{
	 "smiles": "O=C1COC2=CC=CC=C12", 
	 "Tm": 375.15, 
	 "num_atms": 16, 
	 "gaussian": { 
		 "optdone": 1, 
		 "sigma_profile": "yes", 
		 "theory": "DFT", 
		 "functional": "B3LYP", 
		 "basiset": "6-31G**", 
		 "properties": { 
			 "R2extent": 1312.0974, 
			 "electric_dipole_moment_norm": 2.43987729405, 
			 "electric_quadrupole_moment_norm": 7.80168289025, 
			 "total_energy": -458.903343296, 
			 "HOMO_LUMO_gap": 0.174, 
			 "cosmo_polarized_energy": -8.39, 
			 "cosmo_cavitation_energy": 20.26, 
			 "cosmo_dispersion_energy": -15.39, 
			 "cosmo_repulsion_energy": 1.24, 
			 "cosmo_total_nonelectrostatic_energy": 6.11, 
			 "SMD_solvation_energy": 4.39 
		},
		"coords": [
			{
				"x": -1.234244664,
				"y": 2.5882975782,
				"z": 0.292096332,
				"element": "O" 
			},
			{
				"x": -0.5280193184,
				"y": 1.616451455,
				"z": 0.1000629458,
				"element": "C" 
			},
			{
				"x": 0.9538480088,
				"y": 1.6559788179,
				"z": -0.3206144219,
				"element": "C" 
			},
			{
				"x": 1.3913834617,
				"y": 0.2858765257,
				"z": -0.4328689671,
				"element": "O" 
			},
			{
				"x": 0.3327706117,
				"y": -0.5136133626,
				"z": -0.1258479123,
				"element": "C" 
			},
			{
				"x": 0.3760147248,
				"y": -1.9079001412,
				"z": -0.1261324073,
				"element": "C" 
			},
			{
				"x": -0.800908011,
				"y": -2.5751312081,
				"z": 0.2133325562,
				"element": "C" 
			},
			{
				"x": -1.9842600357,
				"y": -1.8876131408,
				"z": 0.5429735186,
				"element": "C" 
			},
			{
				"x": -2.0087128678,
				"y": -0.4967523896,
				"z": 0.5379726868,
				"element": "C" 
			},
			{
				"x": -0.8357129341,
				"y": 0.1854385831,
				"z": 0.199502139,
				"element": "C" 
			},
			{
				"x": 1.5676118073,
				"y": 2.1683513947,
				"z": 0.4270899425,
				"element": "H" 
			},
			{
				"x": 1.0812380437,
				"y": 2.1534691516,
				"z": -1.2873532475,
				"element": "H" 
			},
			{
				"x": 1.2861830801,
				"y": -2.4396541394,
				"z": -0.3796269857,
				"element": "H" 
			},
			{
				"x": -0.8019047573,
				"y": -3.6617024055,
				"z": 0.2229747503,
				"element": "H" 
			},
			{
				"x": -2.8758289636,
				"y": -2.4500228597,
				"z": 0.8006376033,
				"element": "H" 
			},
			{
				"x": -2.9055581863,
				"y": 0.0621261407,
				"z": 0.7875014674,
				"element": "H" 
			}
		],
		 "valence_orbital": [ 
			{
				"type": "occ",
				"energy": -0.35768,
				"method": "rhf"
			},
			{
				"type": "occ",
				"energy": -0.33091,
				"method": "rhf"
			},
			{
				"type": "occ",
				"energy": -0.26877,
				"method": "rhf"
			},
			{
				"type": "occ",
				"energy": -0.25063,
				"method": "rhf"
			},
			{
				"type": "occ",
				"energy": -0.23641,
				"method": "rhf"
			},
			{
				"type": "unocc",
				"energy": -0.06241,
				"method": "rhf"
			},
			{
				"type": "unocc",
				"energy": -0.00314,
				"method": "rhf"
			},
			{
				"type": "unocc",
				"energy": 0.03901,
				"method": "rhf"
			},
			{
				"type": "unocc",
				"energy": 0.08865,
				"method": "rhf"
			},
			{
				"type": "unocc",
				"energy": 0.10375,
				"method": "rhf"
			}
		],
		"cosmo_sigma_profile": { 
			"-0.025": 0.0,
			"-0.024": 0.0,
			"-0.023": 0.0,
			"-0.022": 0.0,
			"-0.021": 0.0,
			"-0.02": 0.0,
			"-0.019": 0.0,
			"-0.018": 0.0,
			"-0.017": 0.0,
			"-0.016": 0.0,
			"-0.015": 0.0,
			"-0.014": 0.0,
			"-0.013": 0.0,
			"-0.012": 0.0,
			"-0.011": 0.0,
			"-0.01": 0.0,
			"-0.009": 0.791162102612,
			"-0.008": 5.68883949338,
			"-0.007": 10.1361477378,
			"-0.006": 11.781983124,
			"-0.005": 14.1640013212,
			"-0.004": 10.8799280152,
			"-0.003": 8.33410867937,
			"-0.002": 8.35519462831,
			"-0.001": 8.36101514361,
			"0.0": 10.7924917507,
			"0.001": 12.4155536776,
			"0.002": 13.460991109,
			"0.003": 12.6124992541,
			"0.004": 8.11947179384,
			"0.005": 2.68557259419,
			"0.006": 2.85253409924,
			"0.007": 2.33221743402,
			"0.008": 2.39477800328,
			"0.009": 3.51984245658,
			"0.01": 3.2026512463,
			"0.011": 3.42839529035,
			"0.012": 4.87591451164,
			"0.013": 1.7076191767,
			"0.014": 0.0,
			"0.015": 0.0,
			"0.016": 0.0,
			"0.017": 0.0,
			"0.018": 0.0,
			"0.019": 0.0,
			"0.02": 0.0,
			"0.021": 0.0,
			"0.022": 0.0,
			"0.023": 0.0,
			"0.024": 0.0,
			"0.025": 0.0
		}
	}
}
