{
	 "smiles": "ClC1=NC2=C(O1)C=C(Cl)C=N2", 
	 "Tm": 342.15, 
	 "num_atms": 13, 
	 "gaussian": { 
		 "optdone": 1, 
		 "sigma_profile": "yes", 
		 "theory": "DFT", 
		 "functional": "B3LYP", 
		 "basiset": "6-31G**", 
		 "properties": { 
			 "R2extent": 3012.4974, 
			 "electric_dipole_moment_norm": 2.52063522748, 
			 "electric_quadrupole_moment_norm": 4.72312159911, 
			 "total_energy": -1334.92835241, 
			 "HOMO_LUMO_gap": 0.19159, 
			 "cosmo_polarized_energy": -7.84, 
			 "cosmo_cavitation_energy": 22.17, 
			 "cosmo_dispersion_energy": -17.28, 
			 "cosmo_repulsion_energy": 1.38, 
			 "cosmo_total_nonelectrostatic_energy": 6.26, 
			 "SMD_solvation_energy": 0.11 
		},
		"coords": [
			{
				"x": 0.5996899615,
				"y": 0.0658612363,
				"z": -3.2833534917,
				"element": "Cl" 
			},
			{
				"x": 0.1615072986,
				"y": -0.3092223792,
				"z": -1.6780564868,
				"element": "C" 
			},
			{
				"x": 0.604080481,
				"y": -1.2752114275,
				"z": -0.9539558469,
				"element": "N" 
			},
			{
				"x": -0.0845854833,
				"y": -1.1097518802,
				"z": 0.2511709818,
				"element": "C" 
			},
			{
				"x": -0.9301829002,
				"y": 0.0045749963,
				"z": 0.1412159789,
				"element": "C" 
			},
			{
				"x": -0.7714641126,
				"y": 0.5290326863,
				"z": -1.1179087244,
				"element": "O" 
			},
			{
				"x": -1.7430569346,
				"y": 0.420680515,
				"z": 1.1782628786,
				"element": "C" 
			},
			{
				"x": -1.6309577227,
				"y": -0.3745142653,
				"z": 2.3223360374,
				"element": "C" 
			},
			{
				"x": -2.5891678232,
				"y": 0.0064427231,
				"z": 3.7359514685,
				"element": "Cl" 
			},
			{
				"x": -0.7601840355,
				"y": -1.4820259484,
				"z": 2.3657023461,
				"element": "C" 
			},
			{
				"x": 0.0143864813,
				"y": -1.8599479328,
				"z": 1.3450106224,
				"element": "N" 
			},
			{
				"x": -2.4050792128,
				"y": 1.2760308679,
				"z": 1.1219075745,
				"element": "H" 
			},
			{
				"x": -0.7032859975,
				"y": -2.0740491914,
				"z": 3.2749166614,
				"element": "H" 
			}
		],
		 "valence_orbital": [ 
			{
				"type": "occ",
				"energy": -0.33143,
				"method": "rhf"
			},
			{
				"type": "occ",
				"energy": -0.32972,
				"method": "rhf"
			},
			{
				"type": "occ",
				"energy": -0.3004,
				"method": "rhf"
			},
			{
				"type": "occ",
				"energy": -0.28617,
				"method": "rhf"
			},
			{
				"type": "occ",
				"energy": -0.25899,
				"method": "rhf"
			},
			{
				"type": "unocc",
				"energy": -0.0674,
				"method": "rhf"
			},
			{
				"type": "unocc",
				"energy": -0.0328,
				"method": "rhf"
			},
			{
				"type": "unocc",
				"energy": 0.00207,
				"method": "rhf"
			},
			{
				"type": "unocc",
				"energy": 0.00464,
				"method": "rhf"
			},
			{
				"type": "unocc",
				"energy": 0.01606,
				"method": "rhf"
			}
		],
		"cosmo_sigma_profile": { 
			"-0.025": 0.0,
			"-0.024": 0.0,
			"-0.023": 0.0,
			"-0.022": 0.0,
			"-0.021": 0.0,
			"-0.02": 0.0,
			"-0.019": 0.0,
			"-0.018": 0.0,
			"-0.017": 0.0,
			"-0.016": 0.0,
			"-0.015": 0.0,
			"-0.014": 0.0,
			"-0.013": 0.0,
			"-0.012": 0.0,
			"-0.011": 0.469704208845,
			"-0.01": 2.15711019153,
			"-0.009": 2.04328782406,
			"-0.008": 3.58555489657,
			"-0.007": 4.05318156186,
			"-0.006": 7.20461201577,
			"-0.005": 8.03831299608,
			"-0.004": 10.4306085626,
			"-0.003": 16.2571326319,
			"-0.002": 16.6937005214,
			"-0.001": 19.3982192926,
			"0.0": 17.2667318539,
			"0.001": 20.1562393142,
			"0.002": 12.4507530578,
			"0.003": 12.8175199191,
			"0.004": 9.15045407627,
			"0.005": 3.50487812227,
			"0.006": 2.28166417017,
			"0.007": 2.44810605978,
			"0.008": 2.19793263972,
			"0.009": 2.69210962023,
			"0.01": 2.80987613925,
			"0.011": 2.61652326746,
			"0.012": 2.05818585476,
			"0.013": 1.53595685669,
			"0.014": 0.891067062508,
			"0.015": 0.0401058287515,
			"0.016": 0.0,
			"0.017": 0.0,
			"0.018": 0.0,
			"0.019": 0.0,
			"0.02": 0.0,
			"0.021": 0.0,
			"0.022": 0.0,
			"0.023": 0.0,
			"0.024": 0.0,
			"0.025": 0.0
		}
	}
}
