{
	 "smiles": "CC1=CC=C(CN2N=CC3=C2N=C(C)C=C3C(O)=O)C=C1", 
	 "Tm": 464.15, 
	 "num_atms": 36, 
	 "gaussian": { 
		 "optdone": 1, 
		 "sigma_profile": "yes", 
		 "theory": "DFT", 
		 "functional": "B3LYP", 
		 "basiset": "6-31G**", 
		 "properties": { 
			 "R2extent": 8608.3543, 
			 "electric_dipole_moment_norm": 1.02775391023, 
			 "electric_quadrupole_moment_norm": 8.23095935174, 
			 "total_energy": -933.468144165, 
			 "HOMO_LUMO_gap": 0.15745, 
			 "cosmo_polarized_energy": -13.46, 
			 "cosmo_cavitation_energy": 41.16, 
			 "cosmo_dispersion_energy": -28.58, 
			 "cosmo_repulsion_energy": 2.19, 
			 "cosmo_total_nonelectrostatic_energy": 14.77, 
			 "SMD_solvation_energy": 6.01 
		},
		"coords": [
			{
				"x": 1.5151226088,
				"y": 4.4690263976,
				"z": -1.0196978416,
				"element": "C" 
			},
			{
				"x": 0.4856241795,
				"y": 3.3644059579,
				"z": -0.9718958257,
				"element": "C" 
			},
			{
				"x": -0.2454590185,
				"y": 3.1086521877,
				"z": 0.1956892349,
				"element": "C" 
			},
			{
				"x": -1.2191299441,
				"y": 2.1110318147,
				"z": 0.2314703844,
				"element": "C" 
			},
			{
				"x": -1.4876287035,
				"y": 1.3377713693,
				"z": -0.9035440654,
				"element": "C" 
			},
			{
				"x": -2.5319318505,
				"y": 0.2398502241,
				"z": -0.860117085,
				"element": "C" 
			},
			{
				"x": -1.9895835419,
				"y": -1.0659009852,
				"z": -0.4899869919,
				"element": "N" 
			},
			{
				"x": -1.4160845976,
				"y": -1.8723913614,
				"z": -1.4199485793,
				"element": "N" 
			},
			{
				"x": -0.946988022,
				"y": -2.9322812677,
				"z": -0.7775777574,
				"element": "C" 
			},
			{
				"x": -1.1997186119,
				"y": -2.8360710141,
				"z": 0.6204714162,
				"element": "C" 
			},
			{
				"x": -1.8763429749,
				"y": -1.5955265975,
				"z": 0.7634464155,
				"element": "C" 
			},
			{
				"x": -2.330921121,
				"y": -1.0425574653,
				"z": 1.894367369,
				"element": "N" 
			},
			{
				"x": -2.116256614,
				"y": -1.7546912802,
				"z": 3.0039566765,
				"element": "C" 
			},
			{
				"x": -2.6096827091,
				"y": -1.1721297229,
				"z": 4.304268333,
				"element": "C" 
			},
			{
				"x": -1.4533170961,
				"y": -3.0090336059,
				"z": 2.9923194827,
				"element": "C" 
			},
			{
				"x": -0.9884797539,
				"y": -3.5673327034,
				"z": 1.8083293096,
				"element": "C" 
			},
			{
				"x": -0.302598671,
				"y": -4.8885612839,
				"z": 1.8717505949,
				"element": "C" 
			},
			{
				"x": 0.1010323044,
				"y": -5.3278659927,
				"z": 0.6556442393,
				"element": "O" 
			},
			{
				"x": -0.1131652038,
				"y": -5.5233613372,
				"z": 2.8890456738,
				"element": "O" 
			},
			{
				"x": -0.7565952284,
				"y": 1.5830577355,
				"z": -2.0712510651,
				"element": "C" 
			},
			{
				"x": 0.2159143306,
				"y": 2.5812295684,
				"z": -2.1025574095,
				"element": "C" 
			},
			{
				"x": 1.0695892686,
				"y": 5.4121453181,
				"z": -1.3608177674,
				"element": "H" 
			},
			{
				"x": 2.3295657516,
				"y": 4.2278806789,
				"z": -1.7096612208,
				"element": "H" 
			},
			{
				"x": 1.9502423916,
				"y": 4.6540484415,
				"z": -0.0329945501,
				"element": "H" 
			},
			{
				"x": -0.0500403394,
				"y": 3.6984088178,
				"z": 1.088180158,
				"element": "H" 
			},
			{
				"x": -1.7676357491,
				"y": 1.9185958861,
				"z": 1.1498918362,
				"element": "H" 
			},
			{
				"x": -3.0054105856,
				"y": 0.1122675661,
				"z": -1.8363935852,
				"element": "H" 
			},
			{
				"x": -3.3044936425,
				"y": 0.4731015454,
				"z": -0.1237484383,
				"element": "H" 
			},
			{
				"x": -0.4547064619,
				"y": -3.7253381518,
				"z": -1.3196815942,
				"element": "H" 
			},
			{
				"x": -3.1141400247,
				"y": -0.2229350674,
				"z": 4.1175084417,
				"element": "H" 
			},
			{
				"x": -1.7795510547,
				"y": -0.9992969992,
				"z": 4.9987649002,
				"element": "H" 
			},
			{
				"x": -3.309370643,
				"y": -1.8529247129,
				"z": 4.8019565498,
				"element": "H" 
			},
			{
				"x": -1.3009704939,
				"y": -3.5519860173,
				"z": 3.9186338837,
				"element": "H" 
			},
			{
				"x": 0.5310688285,
				"y": -6.1855162138,
				"z": 0.8098516432,
				"element": "H" 
			},
			{
				"x": -0.9437798666,
				"y": 0.9811250237,
				"z": -2.956568305,
				"element": "H" 
			},
			{
				"x": 0.77462286,
				"y": 2.7558032471,
				"z": -3.0190044604,
				"element": "H" 
			}
		],
		 "valence_orbital": [ 
			{
				"type": "occ",
				"energy": -0.27292,
				"method": "rhf"
			},
			{
				"type": "occ",
				"energy": -0.24853,
				"method": "rhf"
			},
			{
				"type": "occ",
				"energy": -0.24557,
				"method": "rhf"
			},
			{
				"type": "occ",
				"energy": -0.24093,
				"method": "rhf"
			},
			{
				"type": "occ",
				"energy": -0.231,
				"method": "rhf"
			},
			{
				"type": "unocc",
				"energy": -0.07355,
				"method": "rhf"
			},
			{
				"type": "unocc",
				"energy": -0.00955,
				"method": "rhf"
			},
			{
				"type": "unocc",
				"energy": -0.00033,
				"method": "rhf"
			},
			{
				"type": "unocc",
				"energy": 0.00205,
				"method": "rhf"
			},
			{
				"type": "unocc",
				"energy": 0.03638,
				"method": "rhf"
			}
		],
		"cosmo_sigma_profile": { 
			"-0.025": 0.0,
			"-0.024": 0.0,
			"-0.023": 0.0,
			"-0.022": 0.0,
			"-0.021": 0.0,
			"-0.02": 0.0,
			"-0.019": 0.391844792712,
			"-0.018": 0.865357337384,
			"-0.017": 1.01960286353,
			"-0.016": 0.890313606822,
			"-0.015": 0.693362981955,
			"-0.014": 0.453343497815,
			"-0.013": 0.590231867972,
			"-0.012": 0.834411233246,
			"-0.011": 1.1067704451,
			"-0.01": 0.472549881905,
			"-0.009": 0.370150192573,
			"-0.008": 0.706781994729,
			"-0.007": 3.19255562345,
			"-0.006": 8.11364109068,
			"-0.005": 19.9417126003,
			"-0.004": 29.5209334216,
			"-0.003": 28.2884015498,
			"-0.002": 26.5902881242,
			"-0.001": 30.4298441465,
			"0.0": 37.7810024234,
			"0.001": 27.9181682739,
			"0.002": 21.3997011817,
			"0.003": 17.8668478072,
			"0.004": 16.8768126118,
			"0.005": 15.6934530879,
			"0.006": 11.3593798475,
			"0.007": 4.09847701218,
			"0.008": 3.56673918304,
			"0.009": 4.06682040369,
			"0.01": 4.02100346715,
			"0.011": 5.99820138487,
			"0.012": 1.93463734106,
			"0.013": 0.835903144853,
			"0.014": 0.309208830557,
			"0.015": 0.0,
			"0.016": 0.0,
			"0.017": 0.0,
			"0.018": 0.0,
			"0.019": 0.0,
			"0.02": 0.0,
			"0.021": 0.0,
			"0.022": 0.0,
			"0.023": 0.0,
			"0.024": 0.0,
			"0.025": 0.0
		}
	}
}
