{
	 "smiles": "[NH2:7][C:6]1=[CH:5][CH:4]=[C:3]([O:8][C:9]2=[CH:10][CH:11]=[C:12]([Cl:15])[CH:13]=[CH:14]2)[CH:2]=[CH:1]1", 
	 "Tm": 374.65, 
	 "num_atms": 25, 
	 "gaussian": { 
		 "optdone": 1, 
		 "sigma_profile": "yes", 
		 "theory": "DFT", 
		 "functional": "B3LYP", 
		 "basiset": "6-31G**", 
		 "properties": { 
			 "R2extent": 6035.3742, 
			 "electric_dipole_moment_norm": 4.12314248238, 
			 "electric_quadrupole_moment_norm": 22.4880052719, 
			 "total_energy": -1053.46460695, 
			 "HOMO_LUMO_gap": 0.19169, 
			 "cosmo_polarized_energy": -10.76, 
			 "cosmo_cavitation_energy": 31.55, 
			 "cosmo_dispersion_energy": -23.02, 
			 "cosmo_repulsion_energy": 1.82, 
			 "cosmo_total_nonelectrostatic_energy": 10.35, 
			 "SMD_solvation_energy": 5.19 
		},
		"coords": [
			{
				"x": -3.5811021389,
				"y": 3.2383066929,
				"z": -0.3219888979,
				"element": "N" 
			},
			{
				"x": -2.6059599082,
				"y": 2.2423708487,
				"z": -0.2379466407,
				"element": "C" 
			},
			{
				"x": -1.2411823885,
				"y": 2.5757178679,
				"z": -0.1766695722,
				"element": "C" 
			},
			{
				"x": -0.265364962,
				"y": 1.5823694082,
				"z": -0.1535694304,
				"element": "C" 
			},
			{
				"x": -0.6379780265,
				"y": 0.2393719504,
				"z": -0.1910781096,
				"element": "C" 
			},
			{
				"x": 0.3408004611,
				"y": -0.7496315483,
				"z": -0.2479052397,
				"element": "O" 
			},
			{
				"x": 0.7953066579,
				"y": -1.3224737522,
				"z": 0.9157013157,
				"element": "C" 
			},
			{
				"x": 1.7667691226,
				"y": -2.3195336783,
				"z": 0.7635550826,
				"element": "C" 
			},
			{
				"x": 2.2928585745,
				"y": -2.9600869718,
				"z": 1.8806844569,
				"element": "C" 
			},
			{
				"x": 1.8444434677,
				"y": -2.6010105083,
				"z": 3.153180016,
				"element": "C" 
			},
			{
				"x": 2.5079718247,
				"y": -3.410242016,
				"z": 4.5697721707,
				"element": "Cl" 
			},
			{
				"x": 0.8790867012,
				"y": -1.6107425049,
				"z": 3.3132688081,
				"element": "C" 
			},
			{
				"x": 0.350530861,
				"y": -0.966956018,
				"z": 2.1924268099,
				"element": "C" 
			},
			{
				"x": -1.9862662701,
				"y": -0.110726441,
				"z": -0.2547484855,
				"element": "C" 
			},
			{
				"x": -2.9621237575,
				"y": 0.8824135341,
				"z": -0.2771326074,
				"element": "C" 
			},
			{
				"x": -4.5043502638,
				"y": 2.9639085924,
				"z": -0.0159884797,
				"element": "H" 
			},
			{
				"x": -3.3123110148,
				"y": 4.1370006489,
				"z": 0.0540729799,
				"element": "H" 
			},
			{
				"x": -0.9451975523,
				"y": 3.6214901459,
				"z": -0.1562363089,
				"element": "H" 
			},
			{
				"x": 0.787741964,
				"y": 1.8419516286,
				"z": -0.1133056671,
				"element": "H" 
			},
			{
				"x": 2.0973954833,
				"y": -2.5792254681,
				"z": -0.2365473003,
				"element": "H" 
			},
			{
				"x": 3.0452347162,
				"y": -3.7326922458,
				"z": 1.7666423876,
				"element": "H" 
			},
			{
				"x": 0.5386194845,
				"y": -1.3399340763,
				"z": 4.3067756301,
				"element": "H" 
			},
			{
				"x": -0.4005597255,
				"y": -0.1956504679,
				"z": 2.3143155968,
				"element": "H" 
			},
			{
				"x": -2.2633997299,
				"y": -1.1594489537,
				"z": -0.292878327,
				"element": "H" 
			},
			{
				"x": -4.0114635805,
				"y": 0.6046533325,
				"z": -0.335500188,
				"element": "H" 
			}
		],
		 "valence_orbital": [ 
			{
				"type": "occ",
				"energy": -0.30214,
				"method": "rhf"
			},
			{
				"type": "occ",
				"energy": -0.26098,
				"method": "rhf"
			},
			{
				"type": "occ",
				"energy": -0.25659,
				"method": "rhf"
			},
			{
				"type": "occ",
				"energy": -0.2184,
				"method": "rhf"
			},
			{
				"type": "occ",
				"energy": -0.20692,
				"method": "rhf"
			},
			{
				"type": "unocc",
				"energy": -0.01523,
				"method": "rhf"
			},
			{
				"type": "unocc",
				"energy": -0.00328,
				"method": "rhf"
			},
			{
				"type": "unocc",
				"energy": 0.0057,
				"method": "rhf"
			},
			{
				"type": "unocc",
				"energy": 0.01046,
				"method": "rhf"
			},
			{
				"type": "unocc",
				"energy": 0.0372,
				"method": "rhf"
			}
		],
		"cosmo_sigma_profile": { 
			"-0.025": 0.0,
			"-0.024": 0.0,
			"-0.023": 0.0,
			"-0.022": 0.0,
			"-0.021": 0.0,
			"-0.02": 0.0,
			"-0.019": 0.0,
			"-0.018": 0.0,
			"-0.017": 0.0,
			"-0.016": 0.0,
			"-0.015": 0.0,
			"-0.014": 0.0,
			"-0.013": 0.444239822443,
			"-0.012": 2.59723752999,
			"-0.011": 2.43700542509,
			"-0.01": 3.39030790821,
			"-0.009": 2.98041605293,
			"-0.008": 3.72689234624,
			"-0.007": 7.90974152746,
			"-0.006": 14.0213330838,
			"-0.005": 15.5199384,
			"-0.004": 13.7205994825,
			"-0.003": 12.4922424539,
			"-0.002": 12.3628863933,
			"-0.001": 15.0426264242,
			"0.0": 15.9946726423,
			"0.001": 17.652563539,
			"0.002": 21.7028567045,
			"0.003": 26.61231456,
			"0.004": 26.2681037533,
			"0.005": 22.0969621175,
			"0.006": 7.40191534977,
			"0.007": 2.01165129462,
			"0.008": 2.24450821682,
			"0.009": 2.20119245893,
			"0.01": 1.04340966507,
			"0.011": 0.538806211739,
			"0.012": 0.889066779038,
			"0.013": 0.762591976622,
			"0.014": 0.495080066311,
			"0.015": 0.194681087504,
			"0.016": 0.0,
			"0.017": 0.0,
			"0.018": 0.0,
			"0.019": 0.0,
			"0.02": 0.0,
			"0.021": 0.0,
			"0.022": 0.0,
			"0.023": 0.0,
			"0.024": 0.0,
			"0.025": 0.0
		}
	}
}
