{
	 "smiles": "CC1=CN=CC(=N1)N1CCNCC1", 
	 "Tm": 323.15, 
	 "num_atms": 27, 
	 "gaussian": { 
		 "optdone": 1, 
		 "sigma_profile": "yes", 
		 "theory": "DFT", 
		 "functional": "B3LYP", 
		 "basiset": "6-31G**", 
		 "properties": { 
			 "R2extent": 3700.5049, 
			 "electric_dipole_moment_norm": 2.55415641064, 
			 "electric_quadrupole_moment_norm": 12.0384066358, 
			 "total_energy": -570.391996897, 
			 "HOMO_LUMO_gap": 0.17278, 
			 "cosmo_polarized_energy": -9.58, 
			 "cosmo_cavitation_energy": 28.46, 
			 "cosmo_dispersion_energy": -21.49, 
			 "cosmo_repulsion_energy": 1.71, 
			 "cosmo_total_nonelectrostatic_energy": 8.68, 
			 "SMD_solvation_energy": -0.85 
		},
		"coords": [
			{
				"x": -2.7280449297,
				"y": 2.3220594163,
				"z": -3.2800161151,
				"element": "C" 
			},
			{
				"x": -1.2909610978,
				"y": 1.8810954322,
				"z": -3.1814713601,
				"element": "C" 
			},
			{
				"x": -0.4059927569,
				"y": 1.9932735124,
				"z": -4.2553807272,
				"element": "C" 
			},
			{
				"x": 0.8772634457,
				"y": 1.6213228957,
				"z": -4.144849465,
				"element": "N" 
			},
			{
				"x": 1.2778440696,
				"y": 1.1235295952,
				"z": -2.9825123131,
				"element": "C" 
			},
			{
				"x": 0.3857365416,
				"y": 0.9707503847,
				"z": -1.8850237666,
				"element": "C" 
			},
			{
				"x": -0.8890487844,
				"y": 1.3772792879,
				"z": -2.0066935327,
				"element": "N" 
			},
			{
				"x": 0.7555686222,
				"y": 0.3953648542,
				"z": -0.6820804494,
				"element": "N" 
			},
			{
				"x": -0.0883523173,
				"y": 0.6075792349,
				"z": 0.5005306715,
				"element": "C" 
			},
			{
				"x": 0.0611097273,
				"y": -0.5525495465,
				"z": 1.4809376613,
				"element": "C" 
			},
			{
				"x": 1.4734745388,
				"y": -0.7117653955,
				"z": 1.8272988446,
				"element": "N" 
			},
			{
				"x": 2.2511359696,
				"y": -1.0428377065,
				"z": 0.6371599742,
				"element": "C" 
			},
			{
				"x": 2.154344277,
				"y": 0.0999842042,
				"z": -0.3773827747,
				"element": "C" 
			},
			{
				"x": -3.4007662412,
				"y": 1.4838289346,
				"z": -3.0705742943,
				"element": "H" 
			},
			{
				"x": -2.9595381982,
				"y": 2.7159015967,
				"z": -4.2729554799,
				"element": "H" 
			},
			{
				"x": -2.9412993749,
				"y": 3.0983972943,
				"z": -2.537665617,
				"element": "H" 
			},
			{
				"x": -0.7259464069,
				"y": 2.4002398535,
				"z": -5.2114109891,
				"element": "H" 
			},
			{
				"x": 2.3258461522,
				"y": 0.8508003799,
				"z": -2.9148501685,
				"element": "H" 
			},
			{
				"x": -1.1197305634,
				"y": 0.7065854636,
				"z": 0.1666278372,
				"element": "H" 
			},
			{
				"x": 0.2023708401,
				"y": 1.5431354964,
				"z": 1.0047213622,
				"element": "H" 
			},
			{
				"x": -0.5083722308,
				"y": -0.3268914497,
				"z": 2.3889490427,
				"element": "H" 
			},
			{
				"x": -0.3728917804,
				"y": -1.4619718063,
				"z": 1.0244616256,
				"element": "H" 
			},
			{
				"x": 1.5838313869,
				"y": -1.4389469199,
				"z": 2.5282370677,
				"element": "H" 
			},
			{
				"x": 3.3014936369,
				"y": -1.1786742903,
				"z": 0.9167927904,
				"element": "H" 
			},
			{
				"x": 1.9080985308,
				"y": -1.9724444732,
				"z": 0.1444581521,
				"element": "H" 
			},
			{
				"x": 2.6638973506,
				"y": 0.9902006047,
				"z": 0.0256567444,
				"element": "H" 
			},
			{
				"x": 2.6735295927,
				"y": -0.2076468535,
				"z": -1.2859647211,
				"element": "H" 
			}
		],
		 "valence_orbital": [ 
			{
				"type": "occ",
				"energy": -0.28602,
				"method": "rhf"
			},
			{
				"type": "occ",
				"energy": -0.27636,
				"method": "rhf"
			},
			{
				"type": "occ",
				"energy": -0.23354,
				"method": "rhf"
			},
			{
				"type": "occ",
				"energy": -0.23096,
				"method": "rhf"
			},
			{
				"type": "occ",
				"energy": -0.20226,
				"method": "rhf"
			},
			{
				"type": "unocc",
				"energy": -0.02948,
				"method": "rhf"
			},
			{
				"type": "unocc",
				"energy": 0.00867,
				"method": "rhf"
			},
			{
				"type": "unocc",
				"energy": 0.0786,
				"method": "rhf"
			},
			{
				"type": "unocc",
				"energy": 0.1075,
				"method": "rhf"
			},
			{
				"type": "unocc",
				"energy": 0.11845,
				"method": "rhf"
			}
		],
		"cosmo_sigma_profile": { 
			"-0.025": 0.0,
			"-0.024": 0.0,
			"-0.023": 0.0,
			"-0.022": 0.0,
			"-0.021": 0.0,
			"-0.02": 0.0,
			"-0.019": 0.0,
			"-0.018": 0.0,
			"-0.017": 0.0,
			"-0.016": 0.0,
			"-0.015": 0.0,
			"-0.014": 0.0,
			"-0.013": 0.0,
			"-0.012": 0.0,
			"-0.011": 0.128232458205,
			"-0.01": 1.37988708214,
			"-0.009": 1.26791410774,
			"-0.008": 2.98580009182,
			"-0.007": 2.95181937535,
			"-0.006": 5.31380575726,
			"-0.005": 10.9564177858,
			"-0.004": 19.5445609995,
			"-0.003": 24.9306582987,
			"-0.002": 32.2042929726,
			"-0.001": 25.0943549038,
			"0.0": 21.2168369029,
			"0.001": 14.4251697001,
			"0.002": 9.99540757691,
			"0.003": 9.1893693442,
			"0.004": 6.12811496054,
			"0.005": 6.83240938212,
			"0.006": 5.107923567,
			"0.007": 4.10037653947,
			"0.008": 3.82468091045,
			"0.009": 3.81992340364,
			"0.01": 2.60810111897,
			"0.011": 1.92702406173,
			"0.012": 1.84240676338,
			"0.013": 0.964379122487,
			"0.014": 1.33831548012,
			"0.015": 1.40494098926,
			"0.016": 1.47671558883,
			"0.017": 0.220273007594,
			"0.018": 0.306522963399,
			"0.019": 0.0,
			"0.02": 0.0,
			"0.021": 0.0,
			"0.022": 0.0,
			"0.023": 0.0,
			"0.024": 0.0,
			"0.025": 0.0
		}
	}
}
