{
	 "smiles": "CCN1C(=O)C(=O)C2=C1C=C(Br)C=C2", 
	 "Tm": 392.15, 
	 "num_atms": 22, 
	 "gaussian": { 
		 "optdone": 1, 
		 "sigma_profile": "yes", 
		 "theory": "DFT", 
		 "functional": "B3LYP", 
		 "basiset": "6-31G**", 
		 "properties": { 
			 "R2extent": 6510.6821, 
			 "electric_dipole_moment_norm": 4.34820022883, 
			 "electric_quadrupole_moment_norm": 16.6821998091, 
			 "total_energy": -3162.49661412, 
			 "HOMO_LUMO_gap": 0.13767, 
			 "cosmo_polarized_energy": -12.58, 
			 "cosmo_cavitation_energy": 29.23, 
			 "cosmo_dispersion_energy": -21.14, 
			 "cosmo_repulsion_energy": 1.66, 
			 "cosmo_total_nonelectrostatic_energy": 9.75, 
			 "SMD_solvation_energy": 5.13 
		},
		"coords": [
			{
				"x": 0.3825171797,
				"y": -3.1650719071,
				"z": -0.0809245586,
				"element": "C" 
			},
			{
				"x": 0.3203180728,
				"y": -1.6945971553,
				"z": -0.5041222193,
				"element": "C" 
			},
			{
				"x": -0.6856513072,
				"y": -0.9277796587,
				"z": 0.2235141072,
				"element": "N" 
			},
			{
				"x": -1.939644314,
				"y": -0.6313207418,
				"z": -0.3021196257,
				"element": "C" 
			},
			{
				"x": -2.3481008208,
				"y": -0.9387893926,
				"z": -1.40067088,
				"element": "O" 
			},
			{
				"x": -2.6902502719,
				"y": 0.1735542754,
				"z": 0.8109635302,
				"element": "C" 
			},
			{
				"x": -3.8175293015,
				"y": 0.6062284407,
				"z": 0.7085611141,
				"element": "O" 
			},
			{
				"x": -1.7320150126,
				"y": 0.2547360648,
				"z": 1.9218696975,
				"element": "C" 
			},
			{
				"x": -0.5564657047,
				"y": -0.41751783,
				"z": 1.5235279086,
				"element": "C" 
			},
			{
				"x": 0.5414117354,
				"y": -0.5014468634,
				"z": 2.373115804,
				"element": "C" 
			},
			{
				"x": 0.4198804295,
				"y": 0.1092267992,
				"z": 3.6284380071,
				"element": "C" 
			},
			{
				"x": 1.9044033775,
				"y": 0.0148933406,
				"z": 4.8204051175,
				"element": "Br" 
			},
			{
				"x": -0.7344133876,
				"y": 0.779423884,
				"z": 4.0447592246,
				"element": "C" 
			},
			{
				"x": -1.8244111196,
				"y": 0.8508274589,
				"z": 3.1741270506,
				"element": "C" 
			},
			{
				"x": -0.5756591779,
				"y": -3.6579490132,
				"z": -0.2669260652,
				"element": "H" 
			},
			{
				"x": 0.6223855242,
				"y": -3.271204085,
				"z": 0.9813824144,
				"element": "H" 
			},
			{
				"x": 1.1534567423,
				"y": -3.6867578104,
				"z": -0.6565358499,
				"element": "H" 
			},
			{
				"x": 1.2914023005,
				"y": -1.2043997259,
				"z": -0.3711185765,
				"element": "H" 
			},
			{
				"x": 0.0482084152,
				"y": -1.6141376826,
				"z": -1.5594572629,
				"element": "H" 
			},
			{
				"x": 1.4553338245,
				"y": -1.0106486978,
				"z": 2.0950818784,
				"element": "H" 
			},
			{
				"x": -0.7733136166,
				"y": 1.2323733661,
				"z": 5.0276997497,
				"element": "H" 
			},
			{
				"x": -2.7365635671,
				"y": 1.364356934,
				"z": 3.4623294342,
				"element": "H" 
			}
		],
		 "valence_orbital": [ 
			{
				"type": "occ",
				"energy": -0.31288,
				"method": "rhf"
			},
			{
				"type": "occ",
				"energy": -0.3054,
				"method": "rhf"
			},
			{
				"type": "occ",
				"energy": -0.27107,
				"method": "rhf"
			},
			{
				"type": "occ",
				"energy": -0.25088,
				"method": "rhf"
			},
			{
				"type": "occ",
				"energy": -0.2404,
				"method": "rhf"
			},
			{
				"type": "unocc",
				"energy": -0.10273,
				"method": "rhf"
			},
			{
				"type": "unocc",
				"energy": -0.0323,
				"method": "rhf"
			},
			{
				"type": "unocc",
				"energy": -0.01137,
				"method": "rhf"
			},
			{
				"type": "unocc",
				"energy": -0.00418,
				"method": "rhf"
			},
			{
				"type": "unocc",
				"energy": 0.07141,
				"method": "rhf"
			}
		],
		"cosmo_sigma_profile": { 
			"-0.025": 0.0,
			"-0.024": 0.0,
			"-0.023": 0.0,
			"-0.022": 0.0,
			"-0.021": 0.0,
			"-0.02": 0.0,
			"-0.019": 0.0,
			"-0.018": 0.0,
			"-0.017": 0.0,
			"-0.016": 0.0,
			"-0.015": 0.0,
			"-0.014": 0.0,
			"-0.013": 0.0,
			"-0.012": 0.0,
			"-0.011": 0.0,
			"-0.01": 0.0,
			"-0.009": 0.560537320932,
			"-0.008": 5.72801354149,
			"-0.007": 9.2183286998,
			"-0.006": 9.95076290714,
			"-0.005": 13.2552945618,
			"-0.004": 19.5806237224,
			"-0.003": 21.9307659267,
			"-0.002": 21.5067931428,
			"-0.001": 19.7091197011,
			"0.0": 25.2381287115,
			"0.001": 21.62840022,
			"0.002": 11.75740168,
			"0.003": 12.1713328341,
			"0.004": 10.0057957554,
			"0.005": 2.29949311774,
			"0.006": 2.76730140635,
			"0.007": 2.79296657383,
			"0.008": 3.37042571808,
			"0.009": 5.29900093404,
			"0.01": 7.4498930955,
			"0.011": 8.36201319147,
			"0.012": 2.77758568347,
			"0.013": 0.207090564396,
			"0.014": 0.0,
			"0.015": 0.0,
			"0.016": 0.0,
			"0.017": 0.0,
			"0.018": 0.0,
			"0.019": 0.0,
			"0.02": 0.0,
			"0.021": 0.0,
			"0.022": 0.0,
			"0.023": 0.0,
			"0.024": 0.0,
			"0.025": 0.0
		}
	}
}
