{
	 "smiles": "FC1=CC(F)=C(NCC2=NC=CC=C2)C=C1", 
	 "Tm": 326.15, 
	 "num_atms": 26, 
	 "gaussian": { 
		 "optdone": 1, 
		 "sigma_profile": "yes", 
		 "theory": "DFT", 
		 "functional": "B3LYP", 
		 "basiset": "6-31G**", 
		 "properties": { 
			 "R2extent": 5910.7408, 
			 "electric_dipole_moment_norm": 4.44897990106, 
			 "electric_quadrupole_moment_norm": 9.19363386698, 
			 "total_energy": -772.468172037, 
			 "HOMO_LUMO_gap": 0.15786, 
			 "cosmo_polarized_energy": -7.99, 
			 "cosmo_cavitation_energy": 31.26, 
			 "cosmo_dispersion_energy": -22.75, 
			 "cosmo_repulsion_energy": 1.71, 
			 "cosmo_total_nonelectrostatic_energy": 10.22, 
			 "SMD_solvation_energy": 4.03 
		},
		"coords": [
			{
				"x": 0.2229570648,
				"y": 0.6911814917,
				"z": -6.108382427,
				"element": "F" 
			},
			{
				"x": 0.1579900299,
				"y": 0.8240368295,
				"z": -4.7643087091,
				"element": "C" 
			},
			{
				"x": 1.0682144757,
				"y": 1.6568096427,
				"z": -4.1247692989,
				"element": "C" 
			},
			{
				"x": 0.9854162472,
				"y": 1.7881887755,
				"z": -2.7461643609,
				"element": "C" 
			},
			{
				"x": 1.8581520473,
				"y": 2.6327112164,
				"z": -2.1371212992,
				"element": "F" 
			},
			{
				"x": 0.0412331869,
				"y": 1.1009597924,
				"z": -1.9623761867,
				"element": "C" 
			},
			{
				"x": -0.0661686355,
				"y": 1.2663166887,
				"z": -0.5851522151,
				"element": "N" 
			},
			{
				"x": 1.0999371433,
				"y": 1.4282434963,
				"z": 0.2686429549,
				"element": "C" 
			},
			{
				"x": 0.7639071957,
				"y": 1.0500408037,
				"z": 1.7011442921,
				"element": "C" 
			},
			{
				"x": -0.329197256,
				"y": 0.3027709702,
				"z": 1.8972773258,
				"element": "N" 
			},
			{
				"x": -0.6309178957,
				"y": -0.0726915865,
				"z": 3.1477849393,
				"element": "C" 
			},
			{
				"x": 0.1385415441,
				"y": 0.2691367547,
				"z": 4.2565258776,
				"element": "C" 
			},
			{
				"x": 1.2780585818,
				"y": 1.0501397308,
				"z": 4.0504598353,
				"element": "C" 
			},
			{
				"x": 1.594243366,
				"y": 1.4504535927,
				"z": 2.7563023069,
				"element": "C" 
			},
			{
				"x": -0.8539794138,
				"y": 0.2700739541,
				"z": -2.6631607587,
				"element": "C" 
			},
			{
				"x": -0.810738612,
				"y": 0.1319091625,
				"z": -4.049355063,
				"element": "C" 
			},
			{
				"x": 1.8179345139,
				"y": 2.2069370166,
				"z": -4.680701971,
				"element": "H" 
			},
			{
				"x": -0.7319604998,
				"y": 0.6388393767,
				"z": -0.1440320888,
				"element": "H" 
			},
			{
				"x": 1.9424054275,
				"y": 0.7961960528,
				"z": -0.0630564834,
				"element": "H" 
			},
			{
				"x": 1.4668796721,
				"y": 2.4595608008,
				"z": 0.2441502703,
				"element": "H" 
			},
			{
				"x": -1.5305539541,
				"y": -0.6743442513,
				"z": 3.2620969704,
				"element": "H" 
			},
			{
				"x": -0.1491767032,
				"y": -0.0618099099,
				"z": 5.2490521018,
				"element": "H" 
			},
			{
				"x": 1.9051254583,
				"y": 1.3462818312,
				"z": 4.8864900621,
				"element": "H" 
			},
			{
				"x": 2.4675223088,
				"y": 2.0653016026,
				"z": 2.5584385212,
				"element": "H" 
			},
			{
				"x": -1.6014621833,
				"y": -0.2779508008,
				"z": -2.0960454912,
				"element": "H" 
			},
			{
				"x": -1.5090631099,
				"y": -0.512493034,
				"z": -4.5715391046,
				"element": "H" 
			}
		],
		 "valence_orbital": [ 
			{
				"type": "occ",
				"energy": -0.28937,
				"method": "rhf"
			},
			{
				"type": "occ",
				"energy": -0.27044,
				"method": "rhf"
			},
			{
				"type": "occ",
				"energy": -0.26287,
				"method": "rhf"
			},
			{
				"type": "occ",
				"energy": -0.24718,
				"method": "rhf"
			},
			{
				"type": "occ",
				"energy": -0.19128,
				"method": "rhf"
			},
			{
				"type": "unocc",
				"energy": -0.03342,
				"method": "rhf"
			},
			{
				"type": "unocc",
				"energy": -0.02148,
				"method": "rhf"
			},
			{
				"type": "unocc",
				"energy": -0.00074,
				"method": "rhf"
			},
			{
				"type": "unocc",
				"energy": 0.02168,
				"method": "rhf"
			},
			{
				"type": "unocc",
				"energy": 0.08446,
				"method": "rhf"
			}
		],
		"cosmo_sigma_profile": { 
			"-0.025": 0.0,
			"-0.024": 0.0,
			"-0.023": 0.0,
			"-0.022": 0.0,
			"-0.021": 0.0,
			"-0.02": 0.0,
			"-0.019": 0.0,
			"-0.018": 0.0,
			"-0.017": 0.0,
			"-0.016": 0.0,
			"-0.015": 0.0,
			"-0.014": 0.0,
			"-0.013": 0.0,
			"-0.012": 0.0,
			"-0.011": 0.0,
			"-0.01": 0.0758778945363,
			"-0.009": 0.988185020765,
			"-0.008": 2.20360091993,
			"-0.007": 10.793385204,
			"-0.006": 15.7030428613,
			"-0.005": 18.7392865725,
			"-0.004": 16.357253499,
			"-0.003": 14.0176626052,
			"-0.002": 12.7552284355,
			"-0.001": 12.6468398277,
			"0.0": 15.3573988938,
			"0.001": 20.9571343493,
			"0.002": 29.9393515908,
			"0.003": 29.2152151388,
			"0.004": 24.7809971912,
			"0.005": 15.4530548918,
			"0.006": 1.8870303389,
			"0.007": 2.98951122268,
			"0.008": 2.75083060502,
			"0.009": 1.37600263887,
			"0.01": 0.861871232709,
			"0.011": 0.442846939108,
			"0.012": 0.632191986224,
			"0.013": 0.0381830615078,
			"0.014": 0.0,
			"0.015": 0.0,
			"0.016": 0.0,
			"0.017": 0.0,
			"0.018": 0.0,
			"0.019": 0.0,
			"0.02": 0.0,
			"0.021": 0.0,
			"0.022": 0.0,
			"0.023": 0.0,
			"0.024": 0.0,
			"0.025": 0.0
		}
	}
}
