{
	 "smiles": "CSC1=CC=C(C=C1)C(=O)CCC(O)=O", 
	 "Tm": 426.15, 
	 "num_atms": 27, 
	 "gaussian": { 
		 "optdone": 1, 
		 "sigma_profile": "yes", 
		 "theory": "DFT", 
		 "functional": "B3LYP", 
		 "basiset": "6-31G**", 
		 "properties": { 
			 "R2extent": 6476.4734, 
			 "electric_dipole_moment_norm": 8.50914859548, 
			 "electric_quadrupole_moment_norm": 26.7788351255, 
			 "total_energy": -1050.28444181, 
			 "HOMO_LUMO_gap": 0.15524, 
			 "cosmo_polarized_energy": -18.2, 
			 "cosmo_cavitation_energy": 32.54, 
			 "cosmo_dispersion_energy": -24.28, 
			 "cosmo_repulsion_energy": 1.84, 
			 "cosmo_total_nonelectrostatic_energy": 10.1, 
			 "SMD_solvation_energy": 6.8 
		},
		"coords": [
			{
				"x": -4.2389448605,
				"y": -4.5528280412,
				"z": -1.7378804015,
				"element": "C" 
			},
			{
				"x": -4.5715778573,
				"y": -2.7974679743,
				"z": -2.0931993056,
				"element": "S" 
			},
			{
				"x": -3.1575898722,
				"y": -1.9549118931,
				"z": -1.4400495769,
				"element": "C" 
			},
			{
				"x": -3.138617286,
				"y": -0.5528636693,
				"z": -1.5883064065,
				"element": "C" 
			},
			{
				"x": -2.073126478,
				"y": 0.1881902152,
				"z": -1.1088611415,
				"element": "C" 
			},
			{
				"x": -0.9899596174,
				"y": -0.4361826346,
				"z": -0.4593675774,
				"element": "C" 
			},
			{
				"x": -1.0146062544,
				"y": -1.8319172185,
				"z": -0.3154251203,
				"element": "C" 
			},
			{
				"x": -2.0803911053,
				"y": -2.5859496263,
				"z": -0.7991303186,
				"element": "C" 
			},
			{
				"x": 0.1273222636,
				"y": 0.4101250639,
				"z": 0.0240282731,
				"element": "C" 
			},
			{
				"x": 0.103231488,
				"y": 1.6299018837,
				"z": -0.1619102556,
				"element": "O" 
			},
			{
				"x": 1.2974124978,
				"y": -0.2394174971,
				"z": 0.753851879,
				"element": "C" 
			},
			{
				"x": 2.2569917523,
				"y": 0.7449639623,
				"z": 1.4500780287,
				"element": "C" 
			},
			{
				"x": 3.2477864819,
				"y": 1.4552016672,
				"z": 0.5215205702,
				"element": "C" 
			},
			{
				"x": 2.7126338017,
				"y": 2.3196386975,
				"z": -0.3570711803,
				"element": "O" 
			},
			{
				"x": 4.4406849071,
				"y": 1.2606044209,
				"z": 0.5736569944,
				"element": "O" 
			},
			{
				"x": -4.1703761473,
				"y": -4.7389397728,
				"z": -0.6637975153,
				"element": "H" 
			},
			{
				"x": -3.3354235138,
				"y": -4.8997638833,
				"z": -2.2440979098,
				"element": "H" 
			},
			{
				"x": -5.0977060087,
				"y": -5.0967474544,
				"z": -2.1361584224,
				"element": "H" 
			},
			{
				"x": -3.9656155714,
				"y": -0.0535322702,
				"z": -2.08485782,
				"element": "H" 
			},
			{
				"x": -2.0526610086,
				"y": 1.2662846502,
				"z": -1.2252329425,
				"element": "H" 
			},
			{
				"x": -0.1960790022,
				"y": -2.350926653,
				"z": 0.1723098895,
				"element": "H" 
			},
			{
				"x": -2.0631329349,
				"y": -3.6616969809,
				"z": -0.6720056975,
				"element": "H" 
			},
			{
				"x": 1.8431167362,
				"y": -0.8739727494,
				"z": 0.0420125528,
				"element": "H" 
			},
			{
				"x": 0.8897805102,
				"y": -0.92536176,
				"z": 1.5052853448,
				"element": "H" 
			},
			{
				"x": 2.8608884696,
				"y": 0.1976086969,
				"z": 2.1752721889,
				"element": "H" 
			},
			{
				"x": 1.6701084436,
				"y": 1.4955117769,
				"z": 1.9924658729,
				"element": "H" 
			},
			{
				"x": 1.7330501661,
				"y": 2.3044490438,
				"z": -0.2713300024,
				"element": "H" 
			}
		],
		 "valence_orbital": [ 
			{
				"type": "occ",
				"energy": -0.2896,
				"method": "rhf"
			},
			{
				"type": "occ",
				"energy": -0.28018,
				"method": "rhf"
			},
			{
				"type": "occ",
				"energy": -0.2799,
				"method": "rhf"
			},
			{
				"type": "occ",
				"energy": -0.24823,
				"method": "rhf"
			},
			{
				"type": "occ",
				"energy": -0.23513,
				"method": "rhf"
			},
			{
				"type": "unocc",
				"energy": -0.07989,
				"method": "rhf"
			},
			{
				"type": "unocc",
				"energy": -0.02802,
				"method": "rhf"
			},
			{
				"type": "unocc",
				"energy": 0.01536,
				"method": "rhf"
			},
			{
				"type": "unocc",
				"energy": 0.01671,
				"method": "rhf"
			},
			{
				"type": "unocc",
				"energy": 0.02627,
				"method": "rhf"
			}
		],
		"cosmo_sigma_profile": { 
			"-0.025": 0.0,
			"-0.024": 0.0,
			"-0.023": 0.0,
			"-0.022": 0.0,
			"-0.021": 0.0,
			"-0.02": 0.0,
			"-0.019": 0.0,
			"-0.018": 0.0,
			"-0.017": 0.0,
			"-0.016": 0.0,
			"-0.015": 0.0,
			"-0.014": 0.0,
			"-0.013": 0.0,
			"-0.012": 0.0,
			"-0.011": 0.0,
			"-0.01": 0.0,
			"-0.009": 0.0615651289219,
			"-0.008": 3.88143464945,
			"-0.007": 18.4690940087,
			"-0.006": 25.2993194113,
			"-0.005": 24.3207384013,
			"-0.004": 19.433838698,
			"-0.003": 18.9369540102,
			"-0.002": 16.1258786872,
			"-0.001": 12.6020463946,
			"0.0": 10.4419243794,
			"0.001": 13.3101797031,
			"0.002": 14.7011969604,
			"0.003": 21.298664055,
			"0.004": 10.1948999426,
			"0.005": 7.3263167615,
			"0.006": 6.6411324278,
			"0.007": 5.41713599155,
			"0.008": 5.69159245747,
			"0.009": 3.89109397684,
			"0.01": 4.82292205646,
			"0.011": 5.20780039205,
			"0.012": 6.26453239836,
			"0.013": 4.9332790572,
			"0.014": 1.48378399452,
			"0.015": 0.0248287530811,
			"0.016": 0.0,
			"0.017": 0.0,
			"0.018": 0.0,
			"0.019": 0.0,
			"0.02": 0.0,
			"0.021": 0.0,
			"0.022": 0.0,
			"0.023": 0.0,
			"0.024": 0.0,
			"0.025": 0.0
		}
	}
}
