{
	 "smiles": "FC(F)(F)OC1=C(C=CC=C1)C1=CC=C(O1)C=O", 
	 "Tm": 346.15, 
	 "num_atms": 25, 
	 "gaussian": { 
		 "optdone": 1, 
		 "sigma_profile": "yes", 
		 "theory": "DFT", 
		 "functional": "B3LYP", 
		 "basiset": "6-31G**", 
		 "properties": { 
			 "R2extent": 5553.9849, 
			 "electric_dipole_moment_norm": 5.75065029192, 
			 "electric_quadrupole_moment_norm": 22.076279336, 
			 "total_energy": -986.655871001, 
			 "HOMO_LUMO_gap": 0.1581, 
			 "cosmo_polarized_energy": -13.48, 
			 "cosmo_cavitation_energy": 32.38, 
			 "cosmo_dispersion_energy": -21.89, 
			 "cosmo_repulsion_energy": 1.62, 
			 "cosmo_total_nonelectrostatic_energy": 12.11, 
			 "SMD_solvation_energy": 8.43 
		},
		"coords": [
			{
				"x": 2.9306331934,
				"y": 2.4393472397,
				"z": -1.9411992067,
				"element": "F" 
			},
			{
				"x": 2.4477995424,
				"y": 1.7033179279,
				"z": -0.9467429098,
				"element": "C" 
			},
			{
				"x": 3.0236809041,
				"y": 0.4859553996,
				"z": -0.9799719317,
				"element": "F" 
			},
			{
				"x": 2.8066806812,
				"y": 2.2736201823,
				"z": 0.2241227426,
				"element": "F" 
			},
			{
				"x": 1.0985287108,
				"y": 1.6402365758,
				"z": -1.0926647226,
				"element": "O" 
			},
			{
				"x": 0.3872409242,
				"y": 0.8618391912,
				"z": -0.1738134854,
				"element": "C" 
			},
			{
				"x": 0.0336633451,
				"y": -0.4638606968,
				"z": -0.4896712187,
				"element": "C" 
			},
			{
				"x": -0.7324017721,
				"y": -1.1668511294,
				"z": 0.4607247071,
				"element": "C" 
			},
			{
				"x": -1.1179185722,
				"y": -0.5825067829,
				"z": 1.6623109114,
				"element": "C" 
			},
			{
				"x": -0.7571902824,
				"y": 0.7364339137,
				"z": 1.9455080296,
				"element": "C" 
			},
			{
				"x": -0.0047858682,
				"y": 1.4582438722,
				"z": 1.0209997811,
				"element": "C" 
			},
			{
				"x": 0.4297493454,
				"y": -1.1498723404,
				"z": -1.7179649895,
				"element": "C" 
			},
			{
				"x": 0.5825219368,
				"y": -2.4959317123,
				"z": -1.9871044831,
				"element": "C" 
			},
			{
				"x": 0.9626663878,
				"y": -2.5917213033,
				"z": -3.3473397921,
				"element": "C" 
			},
			{
				"x": 1.0202323889,
				"y": -1.3037393333,
				"z": -3.8291279567,
				"element": "C" 
			},
			{
				"x": 0.6945373814,
				"y": -0.4253333,
				"z": -2.8345583312,
				"element": "O" 
			},
			{
				"x": 1.3514998898,
				"y": -0.7966993517,
				"z": -5.1522370165,
				"element": "C" 
			},
			{
				"x": 1.3671458848,
				"y": 0.3768945666,
				"z": -5.4755175827,
				"element": "O" 
			},
			{
				"x": -1.0432778271,
				"y": -2.1810397825,
				"z": 0.2325656635,
				"element": "H" 
			},
			{
				"x": -1.7130856252,
				"y": -1.1511882635,
				"z": 2.369841469,
				"element": "H" 
			},
			{
				"x": -1.0629523342,
				"y": 1.2040033228,
				"z": 2.8760378388,
				"element": "H" 
			},
			{
				"x": 0.2897052107,
				"y": 2.4843802976,
				"z": 1.2082264172,
				"element": "H" 
			},
			{
				"x": 0.4625895839,
				"y": -3.3066092217,
				"z": -1.2838448595,
				"element": "H" 
			},
			{
				"x": 1.1771270144,
				"y": -3.4905068508,
				"z": -3.9085265778,
				"element": "H" 
			},
			{
				"x": 1.5977099566,
				"y": -1.608712421,
				"z": -5.8710524964,
				"element": "H" 
			}
		],
		 "valence_orbital": [ 
			{
				"type": "occ",
				"energy": -0.30361,
				"method": "rhf"
			},
			{
				"type": "occ",
				"energy": -0.29419,
				"method": "rhf"
			},
			{
				"type": "occ",
				"energy": -0.27106,
				"method": "rhf"
			},
			{
				"type": "occ",
				"energy": -0.25378,
				"method": "rhf"
			},
			{
				"type": "occ",
				"energy": -0.23112,
				"method": "rhf"
			},
			{
				"type": "unocc",
				"energy": -0.07302,
				"method": "rhf"
			},
			{
				"type": "unocc",
				"energy": -0.02772,
				"method": "rhf"
			},
			{
				"type": "unocc",
				"energy": -0.02303,
				"method": "rhf"
			},
			{
				"type": "unocc",
				"energy": 0.04718,
				"method": "rhf"
			},
			{
				"type": "unocc",
				"energy": 0.07402,
				"method": "rhf"
			}
		],
		"cosmo_sigma_profile": { 
			"-0.025": 0.0,
			"-0.024": 0.0,
			"-0.023": 0.0,
			"-0.022": 0.0,
			"-0.021": 0.0,
			"-0.02": 0.0,
			"-0.019": 0.0,
			"-0.018": 0.0,
			"-0.017": 0.0,
			"-0.016": 0.0,
			"-0.015": 0.0,
			"-0.014": 0.0,
			"-0.013": 0.0,
			"-0.012": 0.0,
			"-0.011": 0.0,
			"-0.01": 0.00695564840418,
			"-0.009": 2.71621388895,
			"-0.008": 8.30206527645,
			"-0.007": 12.4533378498,
			"-0.006": 15.3834451309,
			"-0.005": 13.5171555205,
			"-0.004": 11.5924685114,
			"-0.003": 10.9102237871,
			"-0.002": 13.4293689672,
			"-0.001": 17.3235983502,
			"0.0": 24.4446194799,
			"0.001": 36.4443442264,
			"0.002": 44.3253140089,
			"0.003": 16.3152645526,
			"0.004": 4.78000928546,
			"0.005": 3.17979107208,
			"0.006": 3.23058449891,
			"0.007": 2.8717486451,
			"0.008": 3.36843203196,
			"0.009": 2.80147874971,
			"0.01": 3.43988529757,
			"0.011": 4.45574914584,
			"0.012": 4.46154347317,
			"0.013": 1.63862742624,
			"0.014": 0.037389872332,
			"0.015": 0.0,
			"0.016": 0.0,
			"0.017": 0.0,
			"0.018": 0.0,
			"0.019": 0.0,
			"0.02": 0.0,
			"0.021": 0.0,
			"0.022": 0.0,
			"0.023": 0.0,
			"0.024": 0.0,
			"0.025": 0.0
		}
	}
}
