{
	 "smiles": "O=C1C2CC3=C(CC=CC3)CC2C(=O)C2=CC=CC=C12", 
	 "Tm": 428.15, 
	 "num_atms": 36, 
	 "gaussian": { 
		 "optdone": 1, 
		 "sigma_profile": "yes", 
		 "theory": "DFT", 
		 "functional": "B3LYP", 
		 "basiset": "6-31G**", 
		 "properties": { 
			 "R2extent": 6008.9381, 
			 "electric_dipole_moment_norm": 1.10489303555, 
			 "electric_quadrupole_moment_norm": 20.0200488648, 
			 "total_energy": -845.997537743, 
			 "HOMO_LUMO_gap": 0.1447, 
			 "cosmo_polarized_energy": -11.44, 
			 "cosmo_cavitation_energy": 37.12, 
			 "cosmo_dispersion_energy": -26.83, 
			 "cosmo_repulsion_energy": 2.02, 
			 "cosmo_total_nonelectrostatic_energy": 12.31, 
			 "SMD_solvation_energy": 6.02 
		},
		"coords": [
			{
				"x": 1.4679011013,
				"y": -0.1897810426,
				"z": -3.8822905045,
				"element": "O" 
			},
			{
				"x": 0.8086874622,
				"y": -0.342379345,
				"z": -2.8650533755,
				"element": "C" 
			},
			{
				"x": 0.3930646136,
				"y": 0.8361398346,
				"z": -1.9982690747,
				"element": "C" 
			},
			{
				"x": 1.4656358515,
				"y": 1.0858429967,
				"z": -0.9130303225,
				"element": "C" 
			},
			{
				"x": 1.028725912,
				"y": 2.0685345823,
				"z": 0.1514506962,
				"element": "C" 
			},
			{
				"x": -0.2566983759,
				"y": 2.4021368497,
				"z": 0.3434854022,
				"element": "C" 
			},
			{
				"x": -0.690447141,
				"y": 3.3827931831,
				"z": 1.4091064665,
				"element": "C" 
			},
			{
				"x": 0.4356004545,
				"y": 3.9465923298,
				"z": 2.2283994892,
				"element": "C" 
			},
			{
				"x": 1.7105733142,
				"y": 3.6023389921,
				"z": 2.0470820585,
				"element": "C" 
			},
			{
				"x": 2.1536260548,
				"y": 2.6255030835,
				"z": 0.9948600054,
				"element": "C" 
			},
			{
				"x": -1.3872759438,
				"y": 1.8350303525,
				"z": -0.4875953395,
				"element": "C" 
			},
			{
				"x": -0.9931792161,
				"y": 0.6335959998,
				"z": -1.3514703105,
				"element": "C" 
			},
			{
				"x": -1.068267379,
				"y": -0.6949710411,
				"z": -0.5961311856,
				"element": "C" 
			},
			{
				"x": -1.6740173931,
				"y": -0.8204855029,
				"z": 0.4563538659,
				"element": "O" 
			},
			{
				"x": -0.4271039056,
				"y": -1.8699284669,
				"z": -1.266853632,
				"element": "C" 
			},
			{
				"x": -0.7126521049,
				"y": -3.1587432562,
				"z": -0.7976646112,
				"element": "C" 
			},
			{
				"x": -0.1696108548,
				"y": -4.2714114984,
				"z": -1.4335892424,
				"element": "C" 
			},
			{
				"x": 0.6671627704,
				"y": -4.1077073035,
				"z": -2.5453344177,
				"element": "C" 
			},
			{
				"x": 0.9663737831,
				"y": -2.8311565589,
				"z": -3.0119032911,
				"element": "C" 
			},
			{
				"x": 0.4284130293,
				"y": -1.7046166609,
				"z": -2.3762696411,
				"element": "C" 
			},
			{
				"x": 0.358312866,
				"y": 1.7135511211,
				"z": -2.6521652327,
				"element": "H" 
			},
			{
				"x": 2.3778934777,
				"y": 1.4478337359,
				"z": -1.4042491487,
				"element": "H" 
			},
			{
				"x": 1.7504994404,
				"y": 0.1358998507,
				"z": -0.4339721289,
				"element": "H" 
			},
			{
				"x": -1.2598027969,
				"y": 4.2035491351,
				"z": 0.9401937956,
				"element": "H" 
			},
			{
				"x": -1.4224104155,
				"y": 2.8922724032,
				"z": 2.0720233744,
				"element": "H" 
			},
			{
				"x": 0.1697257299,
				"y": 4.6620745286,
				"z": 3.0042017527,
				"element": "H" 
			},
			{
				"x": 2.4873296595,
				"y": 4.0365662362,
				"z": 2.6736060222,
				"element": "H" 
			},
			{
				"x": 2.8997887729,
				"y": 3.1020227333,
				"z": 0.3368076252,
				"element": "H" 
			},
			{
				"x": 2.7042587806,
				"y": 1.7930771894,
				"z": 1.4657501807,
				"element": "H" 
			},
			{
				"x": -2.2037517621,
				"y": 1.5295929577,
				"z": 0.1769148883,
				"element": "H" 
			},
			{
				"x": -1.795072503,
				"y": 2.6287593955,
				"z": -1.130618776,
				"element": "H" 
			},
			{
				"x": -1.7302994191,
				"y": 0.5233829226,
				"z": -2.1626510133,
				"element": "H" 
			},
			{
				"x": -1.3694079705,
				"y": -3.2587392155,
				"z": 0.0601696399,
				"element": "H" 
			},
			{
				"x": -0.3983631637,
				"y": -5.2688203579,
				"z": -1.0694721715,
				"element": "H" 
			},
			{
				"x": 1.0875361005,
				"y": -4.9784090006,
				"z": -3.0402035846,
				"element": "H" 
			},
			{
				"x": 1.6221511706,
				"y": -2.6747411629,
				"z": -3.8621182586,
				"element": "H" 
			}
		],
		 "valence_orbital": [ 
			{
				"type": "occ",
				"energy": -0.26885,
				"method": "rhf"
			},
			{
				"type": "occ",
				"energy": -0.25631,
				"method": "rhf"
			},
			{
				"type": "occ",
				"energy": -0.24872,
				"method": "rhf"
			},
			{
				"type": "occ",
				"energy": -0.24615,
				"method": "rhf"
			},
			{
				"type": "occ",
				"energy": -0.22323,
				"method": "rhf"
			},
			{
				"type": "unocc",
				"energy": -0.07853,
				"method": "rhf"
			},
			{
				"type": "unocc",
				"energy": -0.04933,
				"method": "rhf"
			},
			{
				"type": "unocc",
				"energy": 0.02261,
				"method": "rhf"
			},
			{
				"type": "unocc",
				"energy": 0.02495,
				"method": "rhf"
			},
			{
				"type": "unocc",
				"energy": 0.0323,
				"method": "rhf"
			}
		],
		"cosmo_sigma_profile": { 
			"-0.025": 0.0,
			"-0.024": 0.0,
			"-0.023": 0.0,
			"-0.022": 0.0,
			"-0.021": 0.0,
			"-0.02": 0.0,
			"-0.019": 0.0,
			"-0.018": 0.0,
			"-0.017": 0.0,
			"-0.016": 0.0,
			"-0.015": 0.0,
			"-0.014": 0.0,
			"-0.013": 0.0,
			"-0.012": 0.0,
			"-0.011": 0.0,
			"-0.01": 0.0,
			"-0.009": 0.0,
			"-0.008": 0.833303730764,
			"-0.007": 8.07473313591,
			"-0.006": 10.9198943686,
			"-0.005": 15.9832273716,
			"-0.004": 29.7858723511,
			"-0.003": 34.2947538901,
			"-0.002": 32.6911013209,
			"-0.001": 29.734615838,
			"0.0": 21.5915255439,
			"0.001": 18.3691141981,
			"0.002": 21.3680647385,
			"0.003": 13.7089950198,
			"0.004": 8.88950179616,
			"0.005": 9.54850017239,
			"0.006": 7.56627716785,
			"0.007": 5.3301788391,
			"0.008": 3.54748223474,
			"0.009": 3.49862646123,
			"0.01": 4.83357054471,
			"0.011": 6.87642901383,
			"0.012": 5.13723108857,
			"0.013": 0.918670225269,
			"0.014": 0.0159620997328,
			"0.015": 0.0,
			"0.016": 0.0,
			"0.017": 0.0,
			"0.018": 0.0,
			"0.019": 0.0,
			"0.02": 0.0,
			"0.021": 0.0,
			"0.022": 0.0,
			"0.023": 0.0,
			"0.024": 0.0,
			"0.025": 0.0
		}
	}
}
