{
	 "smiles": "CC(C)C1CCC(CC2=CC=C(Cl)C=C2)C1(O)CN1C=NC=N1", 
	 "Tm": 362.15, 
	 "num_atms": 47, 
	 "gaussian": { 
		 "optdone": 1, 
		 "sigma_profile": "yes", 
		 "theory": "DFT", 
		 "functional": "B3LYP", 
		 "basiset": "6-31G**", 
		 "properties": { 
			 "R2extent": 12245.2408, 
			 "electric_dipole_moment_norm": 2.1241970483, 
			 "electric_quadrupole_moment_norm": 21.4086914131, 
			 "total_energy": -1400.04380373, 
			 "HOMO_LUMO_gap": 0.22397, 
			 "cosmo_polarized_energy": -15.23, 
			 "cosmo_cavitation_energy": 47.22, 
			 "cosmo_dispersion_energy": -32.18, 
			 "cosmo_repulsion_energy": 2.41, 
			 "cosmo_total_nonelectrostatic_energy": 17.45, 
			 "SMD_solvation_energy": 5.31 
		},
		"coords": [
			{
				"x": 3.0473899322,
				"y": 0.9359206416,
				"z": 0.0292864649,
				"element": "C" 
			},
			{
				"x": 3.3141636745,
				"y": 0.0307566831,
				"z": -1.1862914272,
				"element": "C" 
			},
			{
				"x": 4.8241006233,
				"y": -0.2617976607,
				"z": -1.2783367887,
				"element": "C" 
			},
			{
				"x": 2.5242234202,
				"y": -1.3080151509,
				"z": -1.2529726909,
				"element": "C" 
			},
			{
				"x": 2.750996025,
				"y": -2.2504833136,
				"z": -0.0340215092,
				"element": "C" 
			},
			{
				"x": 1.4147676773,
				"y": -2.9770304421,
				"z": 0.1977776485,
				"element": "C" 
			},
			{
				"x": 0.3436276993,
				"y": -1.9338160335,
				"z": -0.1763948274,
				"element": "C" 
			},
			{
				"x": 0.0331366853,
				"y": -0.942739787,
				"z": 0.9727859882,
				"element": "C" 
			},
			{
				"x": -0.6385152021,
				"y": -1.6039046846,
				"z": 2.1601985719,
				"element": "C" 
			},
			{
				"x": -1.9759643804,
				"y": -2.019572313,
				"z": 2.0854442591,
				"element": "C" 
			},
			{
				"x": -2.6086504011,
				"y": -2.6340624938,
				"z": 3.1644915137,
				"element": "C" 
			},
			{
				"x": -1.8928047856,
				"y": -2.8375890422,
				"z": 4.3443357683,
				"element": "C" 
			},
			{
				"x": -2.6819857965,
				"y": -3.6088217211,
				"z": 5.7145740328,
				"element": "Cl" 
			},
			{
				"x": -0.5642200183,
				"y": -2.434397816,
				"z": 4.4533812633,
				"element": "C" 
			},
			{
				"x": 0.0500978966,
				"y": -1.8206173249,
				"z": 3.3601441563,
				"element": "C" 
			},
			{
				"x": 0.9531078703,
				"y": -1.3206187704,
				"z": -1.4750539784,
				"element": "C" 
			},
			{
				"x": 0.6406118671,
				"y": -2.3060364339,
				"z": -2.4655283732,
				"element": "O" 
			},
			{
				"x": 0.2629501067,
				"y": -0.0043114459,
				"z": -1.8905042206,
				"element": "C" 
			},
			{
				"x": 0.7540762678,
				"y": 0.5639978884,
				"z": -3.1502147221,
				"element": "N" 
			},
			{
				"x": 0.9379039338,
				"y": 1.8612001057,
				"z": -3.4807474896,
				"element": "C" 
			},
			{
				"x": 1.3532896359,
				"y": 1.9746839843,
				"z": -4.7332090247,
				"element": "N" 
			},
			{
				"x": 1.4063677439,
				"y": 0.6811633765,
				"z": -5.142968886,
				"element": "C" 
			},
			{
				"x": 1.049219789,
				"y": -0.2114085799,
				"z": -4.228066246,
				"element": "N" 
			},
			{
				"x": 1.9991043747,
				"y": 1.2329719822,
				"z": 0.126385038,
				"element": "H" 
			},
			{
				"x": 3.6357863556,
				"y": 1.8558539162,
				"z": -0.0565289973,
				"element": "H" 
			},
			{
				"x": 3.3422195854,
				"y": 0.4568177597,
				"z": 0.9692079041,
				"element": "H" 
			},
			{
				"x": 3.0533659847,
				"y": 0.6047446841,
				"z": -2.0831771543,
				"element": "H" 
			},
			{
				"x": 5.061917217,
				"y": -0.8524972674,
				"z": -2.1692472274,
				"element": "H" 
			},
			{
				"x": 5.1773401826,
				"y": -0.8195633652,
				"z": -0.403688146,
				"element": "H" 
			},
			{
				"x": 5.399402158,
				"y": 0.668757539,
				"z": -1.3298661224,
				"element": "H" 
			},
			{
				"x": 2.907540256,
				"y": -1.8149255841,
				"z": -2.1443524699,
				"element": "H" 
			},
			{
				"x": 3.5754830702,
				"y": -2.9489060714,
				"z": -0.203556087,
				"element": "H" 
			},
			{
				"x": 3.0186556306,
				"y": -1.6680461892,
				"z": 0.8549874693,
				"element": "H" 
			},
			{
				"x": 1.3032019431,
				"y": -3.3532892455,
				"z": 1.2187051145,
				"element": "H" 
			},
			{
				"x": 1.32654737,
				"y": -3.8265432679,
				"z": -0.4843668846,
				"element": "H" 
			},
			{
				"x": -0.5939471587,
				"y": -2.4203866152,
				"z": -0.4643534924,
				"element": "H" 
			},
			{
				"x": 0.9477916101,
				"y": -0.4466515157,
				"z": 1.3111867315,
				"element": "H" 
			},
			{
				"x": -0.6314400907,
				"y": -0.1516116974,
				"z": 0.6037969364,
				"element": "H" 
			},
			{
				"x": -2.5384184417,
				"y": -1.8582880874,
				"z": 1.1690561324,
				"element": "H" 
			},
			{
				"x": -3.6442867349,
				"y": -2.9484677684,
				"z": 3.0957777653,
				"element": "H" 
			},
			{
				"x": -0.0201444252,
				"y": -2.5949601002,
				"z": 5.3776565256,
				"element": "H" 
			},
			{
				"x": 1.0851619221,
				"y": -1.500988124,
				"z": 3.4491730283,
				"element": "H" 
			},
			{
				"x": 0.9035674758,
				"y": -1.9361564953,
				"z": -3.3284190075,
				"element": "H" 
			},
			{
				"x": -0.8058781625,
				"y": -0.2173996983,
				"z": -2.0040690182,
				"element": "H" 
			},
			{
				"x": 0.3792472062,
				"y": 0.7801510109,
				"z": -1.1420285208,
				"element": "H" 
			},
			{
				"x": 0.7654351878,
				"y": 2.6728448946,
				"z": -2.7873212976,
				"element": "H" 
			},
			{
				"x": 1.7146572197,
				"y": 0.3819396397,
				"z": -6.1351677028,
				"element": "H" 
			}
		],
		 "valence_orbital": [ 
			{
				"type": "occ",
				"energy": -0.28691,
				"method": "rhf"
			},
			{
				"type": "occ",
				"energy": -0.2765,
				"method": "rhf"
			},
			{
				"type": "occ",
				"energy": -0.26418,
				"method": "rhf"
			},
			{
				"type": "occ",
				"energy": -0.25705,
				"method": "rhf"
			},
			{
				"type": "occ",
				"energy": -0.24105,
				"method": "rhf"
			},
			{
				"type": "unocc",
				"energy": -0.01708,
				"method": "rhf"
			},
			{
				"type": "unocc",
				"energy": -0.01325,
				"method": "rhf"
			},
			{
				"type": "unocc",
				"energy": -0.00834,
				"method": "rhf"
			},
			{
				"type": "unocc",
				"energy": 0.0289,
				"method": "rhf"
			},
			{
				"type": "unocc",
				"energy": 0.03936,
				"method": "rhf"
			}
		],
		"cosmo_sigma_profile": { 
			"-0.025": 0.0,
			"-0.024": 0.0,
			"-0.023": 0.0,
			"-0.022": 0.0,
			"-0.021": 0.0,
			"-0.02": 0.0,
			"-0.019": 0.0,
			"-0.018": 0.0,
			"-0.017": 0.0,
			"-0.016": 0.0,
			"-0.015": 0.0,
			"-0.014": 0.0,
			"-0.013": 0.0,
			"-0.012": 0.0,
			"-0.011": 0.824793076607,
			"-0.01": 2.92878475979,
			"-0.009": 3.10394989186,
			"-0.008": 5.49362161535,
			"-0.007": 7.57164112766,
			"-0.006": 15.0747929373,
			"-0.005": 20.4795443524,
			"-0.004": 21.0582122646,
			"-0.003": 21.3126032145,
			"-0.002": 38.0510412367,
			"-0.001": 38.8443657827,
			"0.0": 39.7273570435,
			"0.001": 39.3784049277,
			"0.002": 29.8414472763,
			"0.003": 21.0038304836,
			"0.004": 25.1491543379,
			"0.005": 15.8762176078,
			"0.006": 4.46983182597,
			"0.007": 3.00946216785,
			"0.008": 3.35984159779,
			"0.009": 2.72245820903,
			"0.01": 2.57186651915,
			"0.011": 1.68145651909,
			"0.012": 2.55774117814,
			"0.013": 2.56827645411,
			"0.014": 2.09686624637,
			"0.015": 1.44960761849,
			"0.016": 0.881634636992,
			"0.017": 0.215149933935,
			"0.018": 0.0,
			"0.019": 0.0,
			"0.02": 0.0,
			"0.021": 0.0,
			"0.022": 0.0,
			"0.023": 0.0,
			"0.024": 0.0,
			"0.025": 0.0
		}
	}
}
