{
	 "smiles": "NC(=O)C1CCCCN1C(=O)CCl", 
	 "Tm": 423.15, 
	 "num_atms": 26, 
	 "gaussian": { 
		 "optdone": 1, 
		 "sigma_profile": "yes", 
		 "theory": "DFT", 
		 "functional": "B3LYP", 
		 "basiset": "6-31G**", 
		 "properties": { 
			 "R2extent": 3996.0223, 
			 "electric_dipole_moment_norm": 2.97701395361, 
			 "electric_quadrupole_moment_norm": 20.2590803543, 
			 "total_energy": -1032.8633476, 
			 "HOMO_LUMO_gap": 0.23949, 
			 "cosmo_polarized_energy": -17.25, 
			 "cosmo_cavitation_energy": 29.19, 
			 "cosmo_dispersion_energy": -21.39, 
			 "cosmo_repulsion_energy": 1.72, 
			 "cosmo_total_nonelectrostatic_energy": 9.53, 
			 "SMD_solvation_energy": 5.12 
		},
		"coords": [
			{
				"x": -3.1419590593,
				"y": 1.0614869256,
				"z": 0.082263403,
				"element": "N" 
			},
			{
				"x": -2.3115466182,
				"y": -0.0148800879,
				"z": 0.1057420625,
				"element": "C" 
			},
			{
				"x": -2.6800217927,
				"y": -1.1629316442,
				"z": 0.3237288337,
				"element": "O" 
			},
			{
				"x": -0.8260303365,
				"y": 0.3391701415,
				"z": -0.1564388227,
				"element": "C" 
			},
			{
				"x": -0.0442811686,
				"y": -0.8634779533,
				"z": -0.7111961225,
				"element": "C" 
			},
			{
				"x": 1.4522722331,
				"y": -0.7366606118,
				"z": -0.4010219365,
				"element": "C" 
			},
			{
				"x": 1.7030326566,
				"y": -0.7605400849,
				"z": 1.12503083,
				"element": "C" 
			},
			{
				"x": 0.4723255525,
				"y": -0.2252881773,
				"z": 1.8865135362,
				"element": "C" 
			},
			{
				"x": -0.2116112994,
				"y": 0.812982114,
				"z": 1.1074908856,
				"element": "N" 
			},
			{
				"x": -0.3349006279,
				"y": 2.1319795733,
				"z": 1.4307797614,
				"element": "C" 
			},
			{
				"x": -0.9920390212,
				"y": 2.9180486434,
				"z": 0.7511052042,
				"element": "O" 
			},
			{
				"x": 0.4012323514,
				"y": 2.5819653451,
				"z": 2.705126142,
				"element": "C" 
			},
			{
				"x": 0.3220815111,
				"y": 4.3536693382,
				"z": 2.9452179208,
				"element": "Cl" 
			},
			{
				"x": -4.0950817926,
				"y": 0.918148507,
				"z": 0.3841214449,
				"element": "H" 
			},
			{
				"x": -2.7374310678,
				"y": 1.9914410981,
				"z": 0.1251068312,
				"element": "H" 
			},
			{
				"x": -0.7771044224,
				"y": 1.1833471523,
				"z": -0.8489483214,
				"element": "H" 
			},
			{
				"x": -0.4592314118,
				"y": -1.7822339989,
				"z": -0.2848386774,
				"element": "H" 
			},
			{
				"x": -0.2174219834,
				"y": -0.9181727478,
				"z": -1.7906105053,
				"element": "H" 
			},
			{
				"x": 1.8277287426,
				"y": 0.2048281286,
				"z": -0.8199487176,
				"element": "H" 
			},
			{
				"x": 2.0127799065,
				"y": -1.5391484557,
				"z": -0.8905020621,
				"element": "H" 
			},
			{
				"x": 1.9020456521,
				"y": -1.7813957176,
				"z": 1.4703835955,
				"element": "H" 
			},
			{
				"x": 2.5900490196,
				"y": -0.1653352007,
				"z": 1.3690002984,
				"element": "H" 
			},
			{
				"x": 0.7459995718,
				"y": 0.1570941206,
				"z": 2.869755053,
				"element": "H" 
			},
			{
				"x": -0.2505002827,
				"y": -1.0316996091,
				"z": 2.0548244938,
				"element": "H" 
			},
			{
				"x": -0.0470842928,
				"y": 2.1175143576,
				"z": 3.5865162103,
				"element": "H" 
			},
			{
				"x": 1.4564979797,
				"y": 2.3056888438,
				"z": 2.6671986589,
				"element": "H" 
			}
		],
		 "valence_orbital": [ 
			{
				"type": "occ",
				"energy": -0.30177,
				"method": "rhf"
			},
			{
				"type": "occ",
				"energy": -0.27858,
				"method": "rhf"
			},
			{
				"type": "occ",
				"energy": -0.27018,
				"method": "rhf"
			},
			{
				"type": "occ",
				"energy": -0.26561,
				"method": "rhf"
			},
			{
				"type": "occ",
				"energy": -0.23839,
				"method": "rhf"
			},
			{
				"type": "unocc",
				"energy": 0.0011,
				"method": "rhf"
			},
			{
				"type": "unocc",
				"energy": 0.01202,
				"method": "rhf"
			},
			{
				"type": "unocc",
				"energy": 0.02789,
				"method": "rhf"
			},
			{
				"type": "unocc",
				"energy": 0.06554,
				"method": "rhf"
			},
			{
				"type": "unocc",
				"energy": 0.09746,
				"method": "rhf"
			}
		],
		"cosmo_sigma_profile": { 
			"-0.025": 0.0,
			"-0.024": 0.0,
			"-0.023": 0.0,
			"-0.022": 0.0,
			"-0.021": 0.0,
			"-0.02": 0.0,
			"-0.019": 0.0,
			"-0.018": 0.0,
			"-0.017": 0.0,
			"-0.016": 0.0,
			"-0.015": 0.0,
			"-0.014": 0.437994104863,
			"-0.013": 1.18762952115,
			"-0.012": 1.01251131661,
			"-0.011": 1.2408464984,
			"-0.01": 2.34617249533,
			"-0.009": 7.09173977669,
			"-0.008": 8.44493125812,
			"-0.007": 6.25129880267,
			"-0.006": 6.46702277877,
			"-0.005": 9.06671325672,
			"-0.004": 18.3817549637,
			"-0.003": 24.963732877,
			"-0.002": 23.4092529854,
			"-0.001": 19.0865841891,
			"0.0": 17.6791118346,
			"0.001": 9.68582595437,
			"0.002": 6.74565328303,
			"0.003": 7.12715670831,
			"0.004": 7.1547818144,
			"0.005": 8.98430815561,
			"0.006": 10.4024735438,
			"0.007": 4.52954081619,
			"0.008": 3.9481634948,
			"0.009": 2.40312060037,
			"0.01": 2.34471751754,
			"0.011": 3.61813162723,
			"0.012": 4.7390056522,
			"0.013": 5.69054886786,
			"0.014": 5.55570916053,
			"0.015": 0.495281220717,
			"0.016": 0.0,
			"0.017": 0.0,
			"0.018": 0.0,
			"0.019": 0.0,
			"0.02": 0.0,
			"0.021": 0.0,
			"0.022": 0.0,
			"0.023": 0.0,
			"0.024": 0.0,
			"0.025": 0.0
		}
	}
}
