{
	 "smiles": "CCCCCC(=O)OCCCC", 
	 "Tm": 208.85, 
	 "num_atms": 32, 
	 "gaussian": { 
		 "optdone": 1, 
		 "sigma_profile": "yes", 
		 "theory": "DFT", 
		 "functional": "B3LYP", 
		 "basiset": "6-31G**", 
		 "properties": { 
			 "R2extent": 3780.3158, 
			 "electric_dipole_moment_norm": 1.44064571634, 
			 "electric_quadrupole_moment_norm": 6.50481083353, 
			 "total_energy": -543.601915112, 
			 "HOMO_LUMO_gap": 0.28371, 
			 "cosmo_polarized_energy": -6.15, 
			 "cosmo_cavitation_energy": 33.33, 
			 "cosmo_dispersion_energy": -23.13, 
			 "cosmo_repulsion_energy": 1.92, 
			 "cosmo_total_nonelectrostatic_energy": 12.12, 
			 "SMD_solvation_energy": 5.97 
		},
		"coords": [
			{
				"x": -2.3706396434,
				"y": -0.8495042397,
				"z": 3.530257232,
				"element": "C" 
			},
			{
				"x": -3.4713700463,
				"y": -0.9855087337,
				"z": 2.4710560704,
				"element": "C" 
			},
			{
				"x": -3.0177277092,
				"y": -0.8714828063,
				"z": 1.0047166918,
				"element": "C" 
			},
			{
				"x": -2.065899481,
				"y": -1.9787113091,
				"z": 0.5019492002,
				"element": "C" 
			},
			{
				"x": -0.5692476898,
				"y": -1.7014646627,
				"z": 0.6951536808,
				"element": "C" 
			},
			{
				"x": -0.0447172611,
				"y": -0.6072714883,
				"z": -0.2173711485,
				"element": "C" 
			},
			{
				"x": -0.6284666131,
				"y": -0.1511612918,
				"z": -1.1786710214,
				"element": "O" 
			},
			{
				"x": 1.1934232323,
				"y": -0.218113223,
				"z": 0.1671595243,
				"element": "O" 
			},
			{
				"x": 1.8387672629,
				"y": 0.7930940416,
				"z": -0.6425812636,
				"element": "C" 
			},
			{
				"x": 1.4680499855,
				"y": 2.1963194973,
				"z": -0.1690717834,
				"element": "C" 
			},
			{
				"x": 2.2593122391,
				"y": 3.3078761129,
				"z": -0.8787328081,
				"element": "C" 
			},
			{
				"x": 1.9660035544,
				"y": 3.4395044537,
				"z": -2.3788232248,
				"element": "C" 
			},
			{
				"x": -2.7985214711,
				"y": -0.8428672243,
				"z": 4.5384989766,
				"element": "H" 
			},
			{
				"x": -1.6562721924,
				"y": -1.6782328893,
				"z": 3.4895305558,
				"element": "H" 
			},
			{
				"x": -1.8084430825,
				"y": 0.0833113507,
				"z": 3.4040727558,
				"element": "H" 
			},
			{
				"x": -3.9858099368,
				"y": -1.9467632783,
				"z": 2.6095342178,
				"element": "H" 
			},
			{
				"x": -4.2292174338,
				"y": -0.2121708162,
				"z": 2.6524939854,
				"element": "H" 
			},
			{
				"x": -3.9187731839,
				"y": -0.8867318768,
				"z": 0.3797028752,
				"element": "H" 
			},
			{
				"x": -2.5594201088,
				"y": 0.1104748282,
				"z": 0.8307270645,
				"element": "H" 
			},
			{
				"x": -2.3151245547,
				"y": -2.9273496388,
				"z": 0.9946403293,
				"element": "H" 
			},
			{
				"x": -2.2330193959,
				"y": -2.1298537493,
				"z": -0.5691559464,
				"element": "H" 
			},
			{
				"x": 0.0180432034,
				"y": -2.6023504184,
				"z": 0.4707854733,
				"element": "H" 
			},
			{
				"x": -0.3167197416,
				"y": -1.4348986828,
				"z": 1.7251842626,
				"element": "H" 
			},
			{
				"x": 1.5625453999,
				"y": 0.6349317233,
				"z": -1.6871560236,
				"element": "H" 
			},
			{
				"x": 2.9095168501,
				"y": 0.6067143274,
				"z": -0.5167518746,
				"element": "H" 
			},
			{
				"x": 1.6483640179,
				"y": 2.2507690805,
				"z": 0.9113679769,
				"element": "H" 
			},
			{
				"x": 0.3932946812,
				"y": 2.3457165129,
				"z": -0.3256425359,
				"element": "H" 
			},
			{
				"x": 3.3350852508,
				"y": 3.1426688951,
				"z": -0.7268233744,
				"element": "H" 
			},
			{
				"x": 2.0296012247,
				"y": 4.2598141442,
				"z": -0.3849101521,
				"element": "H" 
			},
			{
				"x": 0.8968806144,
				"y": 3.5984498668,
				"z": -2.5583609051,
				"element": "H" 
			},
			{
				"x": 2.263422877,
				"y": 2.5457523443,
				"z": -2.9370413172,
				"element": "H" 
			},
			{
				"x": 2.5068791519,
				"y": 4.2881391499,
				"z": -2.8100374938,
				"element": "H" 
			}
		],
		 "valence_orbital": [ 
			{
				"type": "occ",
				"energy": -0.32019,
				"method": "rhf"
			},
			{
				"type": "occ",
				"energy": -0.31502,
				"method": "rhf"
			},
			{
				"type": "occ",
				"energy": -0.3087,
				"method": "rhf"
			},
			{
				"type": "occ",
				"energy": -0.28827,
				"method": "rhf"
			},
			{
				"type": "occ",
				"energy": -0.26588,
				"method": "rhf"
			},
			{
				"type": "unocc",
				"energy": 0.01783,
				"method": "rhf"
			},
			{
				"type": "unocc",
				"energy": 0.0827,
				"method": "rhf"
			},
			{
				"type": "unocc",
				"energy": 0.08795,
				"method": "rhf"
			},
			{
				"type": "unocc",
				"energy": 0.12023,
				"method": "rhf"
			},
			{
				"type": "unocc",
				"energy": 0.1223,
				"method": "rhf"
			}
		],
		"cosmo_sigma_profile": { 
			"-0.025": 0.0,
			"-0.024": 0.0,
			"-0.023": 0.0,
			"-0.022": 0.0,
			"-0.021": 0.0,
			"-0.02": 0.0,
			"-0.019": 0.0,
			"-0.018": 0.0,
			"-0.017": 0.0,
			"-0.016": 0.0,
			"-0.015": 0.0,
			"-0.014": 0.0,
			"-0.013": 0.0,
			"-0.012": 0.0,
			"-0.011": 0.0,
			"-0.01": 0.0,
			"-0.009": 0.0,
			"-0.008": 0.0,
			"-0.007": 0.0,
			"-0.006": 1.83700098944,
			"-0.005": 5.3263305608,
			"-0.004": 10.5305491159,
			"-0.003": 25.4447488184,
			"-0.002": 47.5647890989,
			"-0.001": 44.2846489129,
			"0.0": 42.6916595149,
			"0.001": 36.0692219189,
			"0.002": 11.8727015168,
			"0.003": 3.88285599484,
			"0.004": 3.36087607137,
			"0.005": 3.66109634935,
			"0.006": 2.52509549296,
			"0.007": 3.08089297386,
			"0.008": 3.14250881352,
			"0.009": 1.98704016046,
			"0.01": 2.63441799042,
			"0.011": 1.86304423777,
			"0.012": 3.88188486386,
			"0.013": 1.51579664065,
			"0.014": 0.0,
			"0.015": 0.0,
			"0.016": 0.0,
			"0.017": 0.0,
			"0.018": 0.0,
			"0.019": 0.0,
			"0.02": 0.0,
			"0.021": 0.0,
			"0.022": 0.0,
			"0.023": 0.0,
			"0.024": 0.0,
			"0.025": 0.0
		}
	}
}
