{
	 "smiles": "NS(=O)(=O)C1=CC=C(OCCSCC(O)=O)C=C1", 
	 "Tm": 470.15, 
	 "num_atms": 31, 
	 "gaussian": { 
		 "optdone": 1, 
		 "sigma_profile": "yes", 
		 "theory": "DFT", 
		 "functional": "B3LYP", 
		 "basiset": "6-31G**", 
		 "properties": { 
			 "R2extent": 8780.813, 
			 "electric_dipole_moment_norm": 4.47890506821, 
			 "electric_quadrupole_moment_norm": 41.5687960606, 
			 "total_energy": -1616.07593522, 
			 "HOMO_LUMO_gap": 0.2147, 
			 "cosmo_polarized_energy": -27.67, 
			 "cosmo_cavitation_energy": 38.26, 
			 "cosmo_dispersion_energy": -27.88, 
			 "cosmo_repulsion_energy": 2.1, 
			 "cosmo_total_nonelectrostatic_energy": 12.48, 
			 "SMD_solvation_energy": 6.82 
		},
		"coords": [
			{
				"x": 2.2898129007,
				"y": 0.7993610402,
				"z": -3.8162764202,
				"element": "N" 
			},
			{
				"x": 3.4926228205,
				"y": 0.390909039,
				"z": -2.6908223566,
				"element": "S" 
			},
			{
				"x": 4.0814253187,
				"y": -0.9049296331,
				"z": -3.0488081779,
				"element": "O" 
			},
			{
				"x": 4.3121738298,
				"y": 1.5989542709,
				"z": -2.5581297734,
				"element": "O" 
			},
			{
				"x": 2.5612006013,
				"y": 0.1573413229,
				"z": -1.1859989919,
				"element": "C" 
			},
			{
				"x": 2.0447416366,
				"y": 1.2707392523,
				"z": -0.5109667444,
				"element": "C" 
			},
			{
				"x": 1.3357709423,
				"y": 1.0851928662,
				"z": 0.6647199061,
				"element": "C" 
			},
			{
				"x": 1.1426037536,
				"y": -0.21033897,
				"z": 1.1738093605,
				"element": "C" 
			},
			{
				"x": 0.4337169072,
				"y": -0.2780116938,
				"z": 2.338717015,
				"element": "O" 
			},
			{
				"x": 0.2391552396,
				"y": -1.5452970829,
				"z": 2.9541761669,
				"element": "C" 
			},
			{
				"x": -0.5017455011,
				"y": -1.3262312509,
				"z": 4.2676107007,
				"element": "C" 
			},
			{
				"x": -2.1355369663,
				"y": -0.4908629675,
				"z": 4.1632330156,
				"element": "S" 
			},
			{
				"x": -3.1547525081,
				"y": -1.7450306269,
				"z": 3.3062233043,
				"element": "C" 
			},
			{
				"x": -3.0151652385,
				"y": -1.8422274463,
				"z": 1.7783556774,
				"element": "C" 
			},
			{
				"x": -2.400851179,
				"y": -0.8220076827,
				"z": 1.1555773407,
				"element": "O" 
			},
			{
				"x": -3.4639610158,
				"y": -2.7858482077,
				"z": 1.174923414,
				"element": "O" 
			},
			{
				"x": 1.6684193689,
				"y": -1.3190537113,
				"z": 0.5015236667,
				"element": "C" 
			},
			{
				"x": 2.3805941923,
				"y": -1.1281366988,
				"z": -0.6843904845,
				"element": "C" 
			},
			{
				"x": 2.6628581718,
				"y": 1.5251215939,
				"z": -4.424067515,
				"element": "H" 
			},
			{
				"x": 2.0160836655,
				"y": -0.0196502902,
				"z": -4.3541327283,
				"element": "H" 
			},
			{
				"x": 2.209280292,
				"y": 2.2686892149,
				"z": -0.9022518639,
				"element": "H" 
			},
			{
				"x": 0.9258345902,
				"y": 1.9259376696,
				"z": 1.2140419793,
				"element": "H" 
			},
			{
				"x": -0.3147427061,
				"y": -2.2151547782,
				"z": 2.2846190481,
				"element": "H" 
			},
			{
				"x": 1.2087864623,
				"y": -2.0148495068,
				"z": 3.1736493645,
				"element": "H" 
			},
			{
				"x": 0.0886161865,
				"y": -0.6728039738,
				"z": 4.9160037128,
				"element": "H" 
			},
			{
				"x": -0.6251343555,
				"y": -2.2852982691,
				"z": 4.7803175858,
				"element": "H" 
			},
			{
				"x": -2.9982366353,
				"y": -2.7409017881,
				"z": 3.7278400107,
				"element": "H" 
			},
			{
				"x": -4.1934095606,
				"y": -1.4715562754,
				"z": 3.5196478153,
				"element": "H" 
			},
			{
				"x": -2.0705001779,
				"y": -0.1859891537,
				"z": 1.821166283,
				"element": "H" 
			},
			{
				"x": 1.5317299261,
				"y": -2.3243085465,
				"z": 0.8804018361,
				"element": "H" 
			},
			{
				"x": 2.8040090384,
				"y": -1.9736577163,
				"z": -1.2149121475,
				"element": "H" 
			}
		],
		 "valence_orbital": [ 
			{
				"type": "occ",
				"energy": -0.29094,
				"method": "rhf"
			},
			{
				"type": "occ",
				"energy": -0.28892,
				"method": "rhf"
			},
			{
				"type": "occ",
				"energy": -0.27398,
				"method": "rhf"
			},
			{
				"type": "occ",
				"energy": -0.25744,
				"method": "rhf"
			},
			{
				"type": "occ",
				"energy": -0.2451,
				"method": "rhf"
			},
			{
				"type": "unocc",
				"energy": -0.0304,
				"method": "rhf"
			},
			{
				"type": "unocc",
				"energy": -0.0235,
				"method": "rhf"
			},
			{
				"type": "unocc",
				"energy": -0.00247,
				"method": "rhf"
			},
			{
				"type": "unocc",
				"energy": 0.01212,
				"method": "rhf"
			},
			{
				"type": "unocc",
				"energy": 0.04311,
				"method": "rhf"
			}
		],
		"cosmo_sigma_profile": { 
			"-0.025": 0.0,
			"-0.024": 0.0,
			"-0.023": 0.0,
			"-0.022": 0.0,
			"-0.021": 0.0,
			"-0.02": 0.0,
			"-0.019": 0.0,
			"-0.018": 0.0,
			"-0.017": 0.0,
			"-0.016": 0.0,
			"-0.015": 0.922186223248,
			"-0.014": 2.94814365226,
			"-0.013": 2.29567832223,
			"-0.012": 2.48754691134,
			"-0.011": 2.47099678082,
			"-0.01": 3.35174981304,
			"-0.009": 8.0183427464,
			"-0.008": 13.4429089996,
			"-0.007": 23.6730657468,
			"-0.006": 21.9464647784,
			"-0.005": 17.4600400747,
			"-0.004": 14.0315227866,
			"-0.003": 12.7823927871,
			"-0.002": 11.021368263,
			"-0.001": 12.3785955264,
			"0.0": 12.8208000833,
			"0.001": 14.7263344707,
			"0.002": 19.8600387217,
			"0.003": 18.6201077992,
			"0.004": 9.46161977857,
			"0.005": 9.94499050331,
			"0.006": 8.49794026721,
			"0.007": 8.29834026146,
			"0.008": 8.20598813324,
			"0.009": 7.77603355579,
			"0.01": 10.534365034,
			"0.011": 15.1079271673,
			"0.012": 10.8803854172,
			"0.013": 1.57933791067,
			"0.014": 0.00661047139737,
			"0.015": 0.0,
			"0.016": 0.0,
			"0.017": 0.0,
			"0.018": 0.0,
			"0.019": 0.0,
			"0.02": 0.0,
			"0.021": 0.0,
			"0.022": 0.0,
			"0.023": 0.0,
			"0.024": 0.0,
			"0.025": 0.0
		}
	}
}
