{
	 "smiles": "CC(=O)NCCSC(C)=O", 
	 "Tm": 305.65, 
	 "num_atms": 21, 
	 "gaussian": { 
		 "optdone": 1, 
		 "sigma_profile": "yes", 
		 "theory": "DFT", 
		 "functional": "B3LYP", 
		 "basiset": "6-31G**", 
		 "properties": { 
			 "R2extent": 2957.6555, 
			 "electric_dipole_moment_norm": 2.74203024965, 
			 "electric_quadrupole_moment_norm": 14.427459223, 
			 "total_energy": -838.685776944, 
			 "HOMO_LUMO_gap": 0.22393, 
			 "cosmo_polarized_energy": -14.18, 
			 "cosmo_cavitation_energy": 26.63, 
			 "cosmo_dispersion_energy": -19.45, 
			 "cosmo_repulsion_energy": 1.58, 
			 "cosmo_total_nonelectrostatic_energy": 8.76, 
			 "SMD_solvation_energy": 5.37 
		},
		"coords": [
			{
				"x": 3.3792560099,
				"y": -0.3888600683,
				"z": 1.4866584412,
				"element": "C" 
			},
			{
				"x": 2.456817491,
				"y": 0.3828917453,
				"z": 0.5550420325,
				"element": "C" 
			},
			{
				"x": 2.8543987053,
				"y": 0.8796510946,
				"z": -0.49238488,
				"element": "O" 
			},
			{
				"x": 1.1558236968,
				"y": 0.4957605596,
				"z": 0.9660870522,
				"element": "N" 
			},
			{
				"x": 0.1614613501,
				"y": 1.1887971152,
				"z": 0.1601615893,
				"element": "C" 
			},
			{
				"x": -0.360978763,
				"y": 0.3081382216,
				"z": -0.9840192686,
				"element": "C" 
			},
			{
				"x": -1.6487759388,
				"y": 1.14065575,
				"z": -1.9850800173,
				"element": "S" 
			},
			{
				"x": -3.0723625566,
				"y": 0.8701058293,
				"z": -0.91212223,
				"element": "C" 
			},
			{
				"x": -4.3760949894,
				"y": 1.3896532219,
				"z": -1.4840537295,
				"element": "C" 
			},
			{
				"x": -2.9911730734,
				"y": 0.2995326364,
				"z": 0.1550884216,
				"element": "O" 
			},
			{
				"x": 2.8909733116,
				"y": -0.750049445,
				"z": 2.3960946273,
				"element": "H" 
			},
			{
				"x": 3.7963490755,
				"y": -1.2413824621,
				"z": 0.9434736895,
				"element": "H" 
			},
			{
				"x": 4.2148072019,
				"y": 0.2587828112,
				"z": 1.7651575007,
				"element": "H" 
			},
			{
				"x": 0.8527710408,
				"y": 0.008123044,
				"z": 1.7950308892,
				"element": "H" 
			},
			{
				"x": -0.6660615741,
				"y": 1.4811582257,
				"z": 0.8096247677,
				"element": "H" 
			},
			{
				"x": 0.6247237198,
				"y": 2.0884338451,
				"z": -0.2520475761,
				"element": "H" 
			},
			{
				"x": -0.7999190667,
				"y": -0.6128438089,
				"z": -0.5933721603,
				"element": "H" 
			},
			{
				"x": 0.4523084298,
				"y": 0.0655212367,
				"z": -1.6709222779,
				"element": "H" 
			},
			{
				"x": -4.9265696024,
				"y": 0.5473276375,
				"z": -1.9174174545,
				"element": "H" 
			},
			{
				"x": -4.2222989829,
				"y": 2.1411734028,
				"z": -2.2614690622,
				"element": "H" 
			},
			{
				"x": -4.9784554853,
				"y": 1.8047294076,
				"z": -0.6724303548,
				"element": "H" 
			}
		],
		 "valence_orbital": [ 
			{
				"type": "occ",
				"energy": -0.3421,
				"method": "rhf"
			},
			{
				"type": "occ",
				"energy": -0.2648,
				"method": "rhf"
			},
			{
				"type": "occ",
				"energy": -0.2623,
				"method": "rhf"
			},
			{
				"type": "occ",
				"energy": -0.24794,
				"method": "rhf"
			},
			{
				"type": "occ",
				"energy": -0.2451,
				"method": "rhf"
			},
			{
				"type": "unocc",
				"energy": -0.02117,
				"method": "rhf"
			},
			{
				"type": "unocc",
				"energy": 0.01896,
				"method": "rhf"
			},
			{
				"type": "unocc",
				"energy": 0.0368,
				"method": "rhf"
			},
			{
				"type": "unocc",
				"energy": 0.06861,
				"method": "rhf"
			},
			{
				"type": "unocc",
				"energy": 0.08363,
				"method": "rhf"
			}
		],
		"cosmo_sigma_profile": { 
			"-0.025": 0.0,
			"-0.024": 0.0,
			"-0.023": 0.0,
			"-0.022": 0.0,
			"-0.021": 0.0,
			"-0.02": 0.0,
			"-0.019": 0.0,
			"-0.018": 0.0,
			"-0.017": 0.0,
			"-0.016": 0.0,
			"-0.015": 0.0,
			"-0.014": 1.28392833658,
			"-0.013": 1.29401129172,
			"-0.012": 1.3750891548,
			"-0.011": 1.77079560321,
			"-0.01": 1.38970100929,
			"-0.009": 1.32511682466,
			"-0.008": 1.45396977473,
			"-0.007": 4.09694397972,
			"-0.006": 10.0949344391,
			"-0.005": 15.07438122,
			"-0.004": 17.6450871315,
			"-0.003": 23.1000942831,
			"-0.002": 25.2400699064,
			"-0.001": 20.4476551798,
			"0.0": 11.6434158348,
			"0.001": 7.64378622272,
			"0.002": 8.0503239747,
			"0.003": 7.1830535444,
			"0.004": 7.91108195163,
			"0.005": 6.61294704913,
			"0.006": 5.51120752221,
			"0.007": 3.98849390186,
			"0.008": 3.34032530773,
			"0.009": 2.59203640321,
			"0.01": 4.00645694083,
			"0.011": 5.03620252846,
			"0.012": 2.72847591314,
			"0.013": 1.8867867895,
			"0.014": 4.88425605331,
			"0.015": 2.32222390298,
			"0.016": 0.2754179069,
			"0.017": 0.0,
			"0.018": 0.0,
			"0.019": 0.0,
			"0.02": 0.0,
			"0.021": 0.0,
			"0.022": 0.0,
			"0.023": 0.0,
			"0.024": 0.0,
			"0.025": 0.0
		}
	}
}
