{
	 "smiles": "OC(=O)CC1=CN(N=C1C1=CC=C(C=C1)[N+]([O-])=O)C1=CC=CC=C1", 
	 "Tm": 290.15, 
	 "num_atms": 37, 
	 "gaussian": { 
		 "optdone": 1, 
		 "sigma_profile": "yes", 
		 "theory": "DFT", 
		 "functional": "B3LYP", 
		 "basiset": "6-31G**", 
		 "properties": { 
			 "R2extent": 11612.0667, 
			 "electric_dipole_moment_norm": 6.18712685339, 
			 "electric_quadrupole_moment_norm": 34.5231886033, 
			 "total_energy": -1120.69999938, 
			 "HOMO_LUMO_gap": 0.14387, 
			 "cosmo_polarized_energy": -18.15, 
			 "cosmo_cavitation_energy": 43.36, 
			 "cosmo_dispersion_energy": -30.54, 
			 "cosmo_repulsion_energy": 2.29, 
			 "cosmo_total_nonelectrostatic_energy": 15.11, 
			 "SMD_solvation_energy": 10.1 
		},
		"coords": [
			{
				"x": 0.878056876,
				"y": 1.4326968236,
				"z": 3.1787106382,
				"element": "O" 
			},
			{
				"x": 0.9834478321,
				"y": 0.0888379443,
				"z": 3.0365591912,
				"element": "C" 
			},
			{
				"x": 2.0318802189,
				"y": -0.5029358572,
				"z": 3.1530550026,
				"element": "O" 
			},
			{
				"x": -0.3473068276,
				"y": -0.5573431755,
				"z": 2.6825201136,
				"element": "C" 
			},
			{
				"x": -0.4191659255,
				"y": -0.867164196,
				"z": 1.2084737031,
				"element": "C" 
			},
			{
				"x": 0.2451222325,
				"y": -1.897761641,
				"z": 0.5757443323,
				"element": "C" 
			},
			{
				"x": -0.1271857113,
				"y": -1.8776294501,
				"z": -0.7367534153,
				"element": "N" 
			},
			{
				"x": -1.0092819538,
				"y": -0.888095376,
				"z": -0.9924632609,
				"element": "N" 
			},
			{
				"x": -1.1913692667,
				"y": -0.255908892,
				"z": 0.1729741905,
				"element": "C" 
			},
			{
				"x": -2.1214784786,
				"y": 0.8849430839,
				"z": 0.2311471149,
				"element": "C" 
			},
			{
				"x": -3.2437758313,
				"y": 0.9052232058,
				"z": -0.6194275821,
				"element": "C" 
			},
			{
				"x": -4.1375241336,
				"y": 1.9675333589,
				"z": -0.5976791953,
				"element": "C" 
			},
			{
				"x": -3.9075046824,
				"y": 3.0208591376,
				"z": 0.2878716154,
				"element": "C" 
			},
			{
				"x": -2.8018029122,
				"y": 3.0384430702,
				"z": 1.1347099162,
				"element": "C" 
			},
			{
				"x": -1.9084804711,
				"y": 1.9717474335,
				"z": 1.0993139872,
				"element": "C" 
			},
			{
				"x": -4.8527210103,
				"y": 4.1442472979,
				"z": 0.3237495555,
				"element": "N" 
			},
			{
				"x": -5.8174778978,
				"y": 4.1048083575,
				"z": -0.440546555,
				"element": "O" 
			},
			{
				"x": -4.6252044805,
				"y": 5.0590713271,
				"z": 1.1163155048,
				"element": "O" 
			},
			{
				"x": 0.2997307262,
				"y": -2.7458970617,
				"z": -1.7791390304,
				"element": "C" 
			},
			{
				"x": -0.4976588138,
				"y": -2.8929459929,
				"z": -2.9190556662,
				"element": "C" 
			},
			{
				"x": -0.0849099815,
				"y": -3.7504097044,
				"z": -3.9363581808,
				"element": "C" 
			},
			{
				"x": 1.1091097881,
				"y": -4.4663384716,
				"z": -3.8228698373,
				"element": "C" 
			},
			{
				"x": 1.8999127433,
				"y": -4.309113958,
				"z": -2.6838015659,
				"element": "C" 
			},
			{
				"x": 1.5060363578,
				"y": -3.4448380502,
				"z": -1.6628105514,
				"element": "C" 
			},
			{
				"x": 1.7751216677,
				"y": 1.7641487725,
				"z": 3.3566912883,
				"element": "H" 
			},
			{
				"x": -0.4062308601,
				"y": -1.4853486931,
				"z": 3.2590003156,
				"element": "H" 
			},
			{
				"x": -1.1739460581,
				"y": 0.0867790372,
				"z": 2.985474715,
				"element": "H" 
			},
			{
				"x": 0.9183473844,
				"y": -2.6401315662,
				"z": 0.9748683902,
				"element": "H" 
			},
			{
				"x": -3.4031051938,
				"y": 0.0726481652,
				"z": -1.2950326246,
				"element": "H" 
			},
			{
				"x": -5.0071687419,
				"y": 1.9944551384,
				"z": -1.2421787321,
				"element": "H" 
			},
			{
				"x": -2.6501997513,
				"y": 3.8837693814,
				"z": 1.7940875871,
				"element": "H" 
			},
			{
				"x": -1.0256726347,
				"y": 2.0049563552,
				"z": 1.7277677323,
				"element": "H" 
			},
			{
				"x": -1.4216952441,
				"y": -2.3330817059,
				"z": -2.9915117544,
				"element": "H" 
			},
			{
				"x": -0.7053861138,
				"y": -3.8628724102,
				"z": -4.820420296,
				"element": "H" 
			},
			{
				"x": 1.4231165133,
				"y": -5.1361059264,
				"z": -4.6174055672,
				"element": "H" 
			},
			{
				"x": 2.8370578693,
				"y": -4.849468836,
				"z": -2.5902387577,
				"element": "H" 
			},
			{
				"x": 2.1451127661,
				"y": -3.3014769259,
				"z": -0.7982423211,
				"element": "H" 
			}
		],
		 "valence_orbital": [ 
			{
				"type": "occ",
				"energy": -0.27635,
				"method": "rhf"
			},
			{
				"type": "occ",
				"energy": -0.27315,
				"method": "rhf"
			},
			{
				"type": "occ",
				"energy": -0.26824,
				"method": "rhf"
			},
			{
				"type": "occ",
				"energy": -0.25767,
				"method": "rhf"
			},
			{
				"type": "occ",
				"energy": -0.23099,
				"method": "rhf"
			},
			{
				"type": "unocc",
				"energy": -0.08712,
				"method": "rhf"
			},
			{
				"type": "unocc",
				"energy": -0.03964,
				"method": "rhf"
			},
			{
				"type": "unocc",
				"energy": -0.02303,
				"method": "rhf"
			},
			{
				"type": "unocc",
				"energy": -0.01905,
				"method": "rhf"
			},
			{
				"type": "unocc",
				"energy": -0.01221,
				"method": "rhf"
			}
		],
		"cosmo_sigma_profile": { 
			"-0.025": 0.0,
			"-0.024": 0.0,
			"-0.023": 0.0,
			"-0.022": 0.0,
			"-0.021": 0.0,
			"-0.02": 0.0,
			"-0.019": 0.156418383336,
			"-0.018": 0.85460779709,
			"-0.017": 1.13468516043,
			"-0.016": 0.713572358913,
			"-0.015": 0.795125037228,
			"-0.014": 0.545100797544,
			"-0.013": 0.836372883655,
			"-0.012": 0.828028930418,
			"-0.011": 0.513339854108,
			"-0.01": 2.48831555608,
			"-0.009": 2.43513465037,
			"-0.008": 3.98032037715,
			"-0.007": 9.79319341284,
			"-0.006": 20.9054180355,
			"-0.005": 23.5282515358,
			"-0.004": 23.3639897032,
			"-0.003": 21.504696149,
			"-0.002": 23.087943468,
			"-0.001": 23.1246507221,
			"0.0": 26.0628032173,
			"0.001": 31.9861821698,
			"0.002": 29.0182865582,
			"0.003": 19.0592380746,
			"0.004": 19.3306795738,
			"0.005": 12.605339246,
			"0.006": 6.47425395049,
			"0.007": 10.4463049557,
			"0.008": 11.0008314875,
			"0.009": 7.24031673791,
			"0.01": 6.11588209075,
			"0.011": 5.02286346272,
			"0.012": 3.70458085136,
			"0.013": 0.104708760117,
			"0.014": 0.0,
			"0.015": 0.0,
			"0.016": 0.0,
			"0.017": 0.0,
			"0.018": 0.0,
			"0.019": 0.0,
			"0.02": 0.0,
			"0.021": 0.0,
			"0.022": 0.0,
			"0.023": 0.0,
			"0.024": 0.0,
			"0.025": 0.0
		}
	}
}
