{
	 "smiles": "CC1=NN(C(C)=C1CC(O)=O)C1=CC(Cl)=C(C)C=C1", 
	 "Tm": 420.15, 
	 "num_atms": 34, 
	 "gaussian": { 
		 "optdone": 1, 
		 "sigma_profile": "yes", 
		 "theory": "DFT", 
		 "functional": "B3LYP", 
		 "basiset": "6-31G**", 
		 "properties": { 
			 "R2extent": 7790.9245, 
			 "electric_dipole_moment_norm": 3.14608258792, 
			 "electric_quadrupole_moment_norm": 12.4091740603, 
			 "total_energy": -1262.69508111, 
			 "HOMO_LUMO_gap": 0.19808, 
			 "cosmo_polarized_energy": -14.78, 
			 "cosmo_cavitation_energy": 39.66, 
			 "cosmo_dispersion_energy": -27.84, 
			 "cosmo_repulsion_energy": 2.17, 
			 "cosmo_total_nonelectrostatic_energy": 13.99, 
			 "SMD_solvation_energy": 6.7 
		},
		"coords": [
			{
				"x": 0.0818217066,
				"y": -3.0670937718,
				"z": 2.5156513608,
				"element": "C" 
			},
			{
				"x": 0.1189393364,
				"y": -1.759744475,
				"z": 1.783901553,
				"element": "C" 
			},
			{
				"x": -0.4314260975,
				"y": -1.6526246416,
				"z": 0.5804134769,
				"element": "N" 
			},
			{
				"x": -0.2398924494,
				"y": -0.3519462171,
				"z": 0.2116459406,
				"element": "N" 
			},
			{
				"x": 0.4487843354,
				"y": 0.3604506538,
				"z": 1.1649705186,
				"element": "C" 
			},
			{
				"x": 0.8734688626,
				"y": 1.7879152102,
				"z": 1.0263323795,
				"element": "C" 
			},
			{
				"x": 0.6880206818,
				"y": -0.5260142052,
				"z": 2.2024592238,
				"element": "C" 
			},
			{
				"x": 1.4014232997,
				"y": -0.2500459795,
				"z": 3.4899916769,
				"element": "C" 
			},
			{
				"x": 0.6633673744,
				"y": 0.6951731074,
				"z": 4.4279602289,
				"element": "C" 
			},
			{
				"x": 1.0584576302,
				"y": 0.5154901265,
				"z": 5.7120966087,
				"element": "O" 
			},
			{
				"x": -0.1439664121,
				"y": 1.5382824878,
				"z": 4.1073371342,
				"element": "O" 
			},
			{
				"x": -0.7126081382,
				"y": 0.0647730366,
				"z": -1.0593023242,
				"element": "C" 
			},
			{
				"x": -0.6236903232,
				"y": -0.8278986306,
				"z": -2.1330524141,
				"element": "C" 
			},
			{
				"x": -1.0973654811,
				"y": -0.4390554858,
				"z": -3.3805646142,
				"element": "C" 
			},
			{
				"x": -0.9655716359,
				"y": -1.5946269927,
				"z": -4.7052508429,
				"element": "Cl" 
			},
			{
				"x": -1.6586054832,
				"y": 0.8261657165,
				"z": -3.6200470425,
				"element": "C" 
			},
			{
				"x": -2.1621718565,
				"y": 1.2430915256,
				"z": -4.9770535027,
				"element": "C" 
			},
			{
				"x": -1.7367063852,
				"y": 1.6880940139,
				"z": -2.5192524789,
				"element": "C" 
			},
			{
				"x": -1.2869403392,
				"y": 1.324191474,
				"z": -1.2512730006,
				"element": "C" 
			},
			{
				"x": -0.4678797072,
				"y": -2.9867113081,
				"z": 3.4605662629,
				"element": "H" 
			},
			{
				"x": 1.0895482798,
				"y": -3.4273613144,
				"z": 2.753630503,
				"element": "H" 
			},
			{
				"x": -0.4122621458,
				"y": -3.8185792238,
				"z": 1.8963571505,
				"element": "H" 
			},
			{
				"x": 0.1203908741,
				"y": 2.4767983623,
				"z": 1.4226790656,
				"element": "H" 
			},
			{
				"x": 1.0773637336,
				"y": 2.0528637771,
				"z": -0.0142398552,
				"element": "H" 
			},
			{
				"x": 1.786952221,
				"y": 1.9542359893,
				"z": 1.6045525976,
				"element": "H" 
			},
			{
				"x": 1.6118843457,
				"y": -1.1768755023,
				"z": 4.0303625636,
				"element": "H" 
			},
			{
				"x": 2.3827132621,
				"y": 0.2161390711,
				"z": 3.3138233401,
				"element": "H" 
			},
			{
				"x": 0.5791389678,
				"y": 1.1782414921,
				"z": 6.237730171,
				"element": "H" 
			},
			{
				"x": -0.200199445,
				"y": -1.8113905423,
				"z": -1.9772299583,
				"element": "H" 
			},
			{
				"x": -2.5649761396,
				"y": 2.2584177245,
				"z": -4.9439505594,
				"element": "H" 
			},
			{
				"x": -2.9510035588,
				"y": 0.5721040287,
				"z": -5.3336447586,
				"element": "H" 
			},
			{
				"x": -1.3627636964,
				"y": 1.2154549573,
				"z": -5.7254425051,
				"element": "H" 
			},
			{
				"x": -2.1819700336,
				"y": 2.6693044535,
				"z": -2.6585055203,
				"element": "H" 
			},
			{
				"x": -1.4086755833,
				"y": 2.004481082,
				"z": -0.4172523794,
				"element": "H" 
			}
		],
		 "valence_orbital": [ 
			{
				"type": "occ",
				"energy": -0.27993,
				"method": "rhf"
			},
			{
				"type": "occ",
				"energy": -0.27111,
				"method": "rhf"
			},
			{
				"type": "occ",
				"energy": -0.24915,
				"method": "rhf"
			},
			{
				"type": "occ",
				"energy": -0.23237,
				"method": "rhf"
			},
			{
				"type": "occ",
				"energy": -0.21979,
				"method": "rhf"
			},
			{
				"type": "unocc",
				"energy": -0.02171,
				"method": "rhf"
			},
			{
				"type": "unocc",
				"energy": -0.0139,
				"method": "rhf"
			},
			{
				"type": "unocc",
				"energy": 0.00534,
				"method": "rhf"
			},
			{
				"type": "unocc",
				"energy": 0.02897,
				"method": "rhf"
			},
			{
				"type": "unocc",
				"energy": 0.03991,
				"method": "rhf"
			}
		],
		"cosmo_sigma_profile": { 
			"-0.025": 0.0,
			"-0.024": 0.0,
			"-0.023": 0.0,
			"-0.022": 0.0,
			"-0.021": 0.0,
			"-0.02": 0.0,
			"-0.019": 0.0115828504602,
			"-0.018": 0.678767029151,
			"-0.017": 1.07713387647,
			"-0.016": 0.704345255989,
			"-0.015": 1.0027965962,
			"-0.014": 0.597696983331,
			"-0.013": 0.0831270393938,
			"-0.012": 0.713062020674,
			"-0.011": 1.2317506347,
			"-0.01": 0.920351631092,
			"-0.009": 0.164828398151,
			"-0.008": 1.13084998738,
			"-0.007": 7.16316384345,
			"-0.006": 12.8098970567,
			"-0.005": 18.5233241661,
			"-0.004": 25.9524755402,
			"-0.003": 25.7889022386,
			"-0.002": 26.4241003822,
			"-0.001": 30.3739475471,
			"0.0": 28.9506341571,
			"0.001": 20.3425778017,
			"0.002": 21.4158151359,
			"0.003": 24.6337666957,
			"0.004": 19.3575848225,
			"0.005": 11.331818997,
			"0.006": 5.11239328782,
			"0.007": 5.39839173747,
			"0.008": 5.32243730224,
			"0.009": 4.3658087363,
			"0.01": 4.7961255689,
			"0.011": 4.34148537382,
			"0.012": 3.47653411499,
			"0.013": 0.846445952733,
			"0.014": 0.901220482484,
			"0.015": 0.491906603019,
			"0.016": 0.0,
			"0.017": 0.0,
			"0.018": 0.0,
			"0.019": 0.0,
			"0.02": 0.0,
			"0.021": 0.0,
			"0.022": 0.0,
			"0.023": 0.0,
			"0.024": 0.0,
			"0.025": 0.0
		}
	}
}
