{
	 "smiles": "CC1=NOC(=C1I)C1=CC=CC=C1", 
	 "Tm": 340.15, 
	 "num_atms": 21, 
	 "gaussian": { 
		 "optdone": 1, 
		 "sigma_profile": "no", 
		 "theory": "DFT", 
		 "functional": "B3LYP", 
		 "basiset": "6-31G**", 
		 "properties": { 
			 "R2extent": 3305.1164, 
			 "electric_dipole_moment_norm": 2.10125281915, 
			 "electric_quadrupole_moment_norm": 13.8289470423, 
			 "total_energy": -527.202120755, 
			 "HOMO_LUMO_gap": 0.18165, 
			 "cosmo_polarized_energy": -77435.1, 
			 "cosmo_cavitation_energy": 28.37, 
			 "cosmo_dispersion_energy": -22.02, 
			 "cosmo_repulsion_energy": 1.7, 
			 "cosmo_total_nonelectrostatic_energy": 8.05, 
			 "SMD_solvation_energy": 3.78 
		},
		"coords": [
			{
				"x": -2.4704128787,
				"y": 1.8046731087,
				"z": -1.5572703222,
				"element": "C" 
			},
			{
				"x": -1.3660168833,
				"y": 0.8055998946,
				"z": -1.4320518528,
				"element": "C" 
			},
			{
				"x": -1.5041232685,
				"y": -0.4017766574,
				"z": -1.9302130493,
				"element": "N" 
			},
			{
				"x": -0.3131092547,
				"y": -1.0744719389,
				"z": -1.6427332299,
				"element": "O" 
			},
			{
				"x": 0.5347453556,
				"y": -0.2608933619,
				"z": -0.9673160848,
				"element": "C" 
			},
			{
				"x": -0.0878304321,
				"y": 0.9548620918,
				"z": -0.8074906594,
				"element": "C" 
			},
			{
				"x": 0.5390841526,
				"y": 2.66785008,
				"z": 0.1987635669,
				"element": "I" 
			},
			{
				"x": 1.8153364328,
				"y": -0.8568567421,
				"z": -0.5799559765,
				"element": "C" 
			},
			{
				"x": 2.9627844755,
				"y": -0.0744553501,
				"z": -0.3683403932,
				"element": "C" 
			},
			{
				"x": 4.1669406447,
				"y": -0.6766325547,
				"z": -0.0083791482,
				"element": "C" 
			},
			{
				"x": 4.246082437,
				"y": -2.06228061,
				"z": 0.1408959775,
				"element": "C" 
			},
			{
				"x": 3.111906985,
				"y": -2.8480161411,
				"z": -0.0778168819,
				"element": "C" 
			},
			{
				"x": 1.9053173474,
				"y": -2.2540124517,
				"z": -0.4366437228,
				"element": "C" 
			},
			{
				"x": -2.8174515347,
				"y": 2.12833294,
				"z": -0.5706704615,
				"element": "H" 
			},
			{
				"x": -2.1314698654,
				"y": 2.6958529193,
				"z": -2.0951050308,
				"element": "H" 
			},
			{
				"x": -3.3077441815,
				"y": 1.360789401,
				"z": -2.0986838433,
				"element": "H" 
			},
			{
				"x": 2.9186796261,
				"y": 0.999976797,
				"z": -0.4998729247,
				"element": "H" 
			},
			{
				"x": 5.047003768,
				"y": -0.0600496986,
				"z": 0.1484648051,
				"element": "H" 
			},
			{
				"x": 5.1861439867,
				"y": -2.5276551098,
				"z": 0.4223338101,
				"element": "H" 
			},
			{
				"x": 3.1660952219,
				"y": -3.9268603966,
				"z": 0.0337067072,
				"element": "H" 
			},
			{
				"x": 1.0244378657,
				"y": -2.8634762196,
				"z": -0.6052212854,
				"element": "H" 
			}
		],
		 "valence_orbital": [ 
			{
				"type": "occ",
				"energy": -0.29717,
				"method": "rhf"
			},
			{
				"type": "occ",
				"energy": -0.2776,
				"method": "rhf"
			},
			{
				"type": "occ",
				"energy": -0.26827,
				"method": "rhf"
			},
			{
				"type": "occ",
				"energy": -0.26146,
				"method": "rhf"
			},
			{
				"type": "occ",
				"energy": -0.23203,
				"method": "rhf"
			},
			{
				"type": "unocc",
				"energy": -0.05038,
				"method": "rhf"
			},
			{
				"type": "unocc",
				"energy": -0.04195,
				"method": "rhf"
			},
			{
				"type": "unocc",
				"energy": -0.01213,
				"method": "rhf"
			},
			{
				"type": "unocc",
				"energy": 0.01616,
				"method": "rhf"
			},
			{
				"type": "unocc",
				"energy": 0.03754,
				"method": "rhf"
			}
		],
		"cosmo_sigma_profile": { 
			"0.0": 0.0,
			"0.0": 0.0,
			"0.0": 0.0,
			"0.0": 0.0,
			"0.0": 0.0,
			"0.0": 0.0,
			"0.0": 0.0,
			"0.0": 0.0,
			"0.0": 0.0,
			"0.0": 0.0,
			"0.0": 0.0,
			"0.0": 0.0,
			"0.0": 0.0,
			"0.0": 0.0,
			"0.0": 0.0,
			"0.0": 0.0,
			"0.0": 0.0,
			"0.0": 0.0,
			"0.0": 0.0,
			"0.0": 0.0,
			"0.0": 0.0,
			"0.0": 0.0,
			"0.0": 0.0,
			"0.0": 0.0,
			"0.0": 0.0,
			"0.0": 0.0,
			"0.0": 0.0,
			"0.0": 0.0,
			"0.0": 0.0,
			"0.0": 0.0,
			"0.0": 0.0,
			"0.0": 0.0,
			"0.0": 0.0,
			"0.0": 0.0,
			"0.0": 0.0,
			"0.0": 0.0,
			"0.0": 0.0,
			"0.0": 0.0,
			"0.0": 0.0,
			"0.0": 0.0,
			"0.0": 0.0,
			"0.0": 0.0,
			"0.0": 0.0,
			"0.0": 0.0,
			"0.0": 0.0,
			"0.0": 0.0,
			"0.0": 0.0,
			"0.0": 0.0,
			"0.0": 0.0,
			"0.0": 0.0,
			"0.0": 0.0
		}
	}
}
