{
	 "smiles": "OC(=O)C1CCCCC1NC(=O)C1=CC=CC=C1", 
	 "Tm": 479.15, 
	 "num_atms": 35, 
	 "gaussian": { 
		 "optdone": 1, 
		 "sigma_profile": "yes", 
		 "theory": "DFT", 
		 "functional": "B3LYP", 
		 "basiset": "6-31G**", 
		 "properties": { 
			 "R2extent": 4664.608, 
			 "electric_dipole_moment_norm": 4.14342680157, 
			 "electric_quadrupole_moment_norm": 15.9785771419, 
			 "total_energy": -824.182512186, 
			 "HOMO_LUMO_gap": 0.20928, 
			 "cosmo_polarized_energy": -15.8, 
			 "cosmo_cavitation_energy": 36.1, 
			 "cosmo_dispersion_energy": -24.56, 
			 "cosmo_repulsion_energy": 1.9, 
			 "cosmo_total_nonelectrostatic_energy": 13.43, 
			 "SMD_solvation_energy": 6.05 
		},
		"coords": [
			{
				"x": -2.3346560445,
				"y": -1.0744552421,
				"z": -1.8896233186,
				"element": "O" 
			},
			{
				"x": -1.4085064891,
				"y": -0.3141497742,
				"z": -2.5160798306,
				"element": "C" 
			},
			{
				"x": -1.1778043521,
				"y": -0.4121750413,
				"z": -3.7032271507,
				"element": "O" 
			},
			{
				"x": -0.6589584933,
				"y": 0.6172726808,
				"z": -1.5833357609,
				"element": "C" 
			},
			{
				"x": -1.3215022281,
				"y": 0.9064007797,
				"z": -0.2295324637,
				"element": "C" 
			},
			{
				"x": -0.5763401107,
				"y": 2.0564150632,
				"z": 0.4876867942,
				"element": "C" 
			},
			{
				"x": 0.9424271276,
				"y": 2.0468212482,
				"z": 0.182645399,
				"element": "C" 
			},
			{
				"x": 1.4322722022,
				"y": 0.6196982893,
				"z": -0.0972249244,
				"element": "C" 
			},
			{
				"x": 0.8252524368,
				"y": 0.0908660185,
				"z": -1.4096691842,
				"element": "C" 
			},
			{
				"x": 0.9881077683,
				"y": -1.3641735881,
				"z": -1.635738983,
				"element": "N" 
			},
			{
				"x": 0.4040659491,
				"y": -2.4464695255,
				"z": -0.9855935204,
				"element": "C" 
			},
			{
				"x": -0.0120215689,
				"y": -3.3983305893,
				"z": -1.638031263,
				"element": "O" 
			},
			{
				"x": 0.3759281957,
				"y": -2.5134083357,
				"z": 0.5148138169,
				"element": "C" 
			},
			{
				"x": -0.8240524862,
				"y": -2.8687322786,
				"z": 1.1459958324,
				"element": "C" 
			},
			{
				"x": -0.8635190951,
				"y": -3.0502039613,
				"z": 2.527543772,
				"element": "C" 
			},
			{
				"x": 0.3033690803,
				"y": -2.9186877945,
				"z": 3.2850926824,
				"element": "C" 
			},
			{
				"x": 1.508682263,
				"y": -2.5990497696,
				"z": 2.6571260699,
				"element": "C" 
			},
			{
				"x": 1.5452176039,
				"y": -2.3899452276,
				"z": 1.277498247,
				"element": "C" 
			},
			{
				"x": -2.6687826053,
				"y": -1.6988714221,
				"z": -2.5566341431,
				"element": "H" 
			},
			{
				"x": -0.5840160916,
				"y": 1.5581487234,
				"z": -2.1413269522,
				"element": "H" 
			},
			{
				"x": -1.3073683548,
				"y": -0.0003890982,
				"z": 0.383270539,
				"element": "H" 
			},
			{
				"x": -2.376445239,
				"y": 1.1619331759,
				"z": -0.368209606,
				"element": "H" 
			},
			{
				"x": -0.7401906848,
				"y": 1.9679600758,
				"z": 1.5674418975,
				"element": "H" 
			},
			{
				"x": -1.0029576747,
				"y": 3.0210563809,
				"z": 0.189040769,
				"element": "H" 
			},
			{
				"x": 1.5002435551,
				"y": 2.4783558163,
				"z": 1.0200348339,
				"element": "H" 
			},
			{
				"x": 1.1592189435,
				"y": 2.6835823088,
				"z": -0.6853716169,
				"element": "H" 
			},
			{
				"x": 2.5242954183,
				"y": 0.5756269688,
				"z": -0.1704093562,
				"element": "H" 
			},
			{
				"x": 1.1480916022,
				"y": -0.0178300234,
				"z": 0.7413446478,
				"element": "H" 
			},
			{
				"x": 1.3972570489,
				"y": 0.5315299878,
				"z": -2.2316310546,
				"element": "H" 
			},
			{
				"x": 0.9671487351,
				"y": -1.5743759145,
				"z": -2.629897804,
				"element": "H" 
			},
			{
				"x": -1.7171543477,
				"y": -2.9949900102,
				"z": 0.5428135476,
				"element": "H" 
			},
			{
				"x": -1.8011547273,
				"y": -3.3066089506,
				"z": 3.012139373,
				"element": "H" 
			},
			{
				"x": 0.2745653602,
				"y": -3.0732489336,
				"z": 4.3599062661,
				"element": "H" 
			},
			{
				"x": 2.421523317,
				"y": -2.5154580283,
				"z": 3.239889595,
				"element": "H" 
			},
			{
				"x": 2.4819639858,
				"y": -2.1478140089,
				"z": 0.7852528498,
				"element": "H" 
			}
		],
		 "valence_orbital": [ 
			{
				"type": "occ",
				"energy": -0.27239,
				"method": "rhf"
			},
			{
				"type": "occ",
				"energy": -0.26944,
				"method": "rhf"
			},
			{
				"type": "occ",
				"energy": -0.25684,
				"method": "rhf"
			},
			{
				"type": "occ",
				"energy": -0.25433,
				"method": "rhf"
			},
			{
				"type": "occ",
				"energy": -0.23749,
				"method": "rhf"
			},
			{
				"type": "unocc",
				"energy": -0.02821,
				"method": "rhf"
			},
			{
				"type": "unocc",
				"energy": -0.0092,
				"method": "rhf"
			},
			{
				"type": "unocc",
				"energy": 0.00372,
				"method": "rhf"
			},
			{
				"type": "unocc",
				"energy": 0.03369,
				"method": "rhf"
			},
			{
				"type": "unocc",
				"energy": 0.06207,
				"method": "rhf"
			}
		],
		"cosmo_sigma_profile": { 
			"-0.025": 0.0,
			"-0.024": 0.0,
			"-0.023": 0.0,
			"-0.022": 0.0,
			"-0.021": 0.0,
			"-0.02": 0.0,
			"-0.019": 0.0,
			"-0.018": 0.681028288453,
			"-0.017": 0.73228267236,
			"-0.016": 0.690268211242,
			"-0.015": 0.803805675774,
			"-0.014": 0.655826631566,
			"-0.013": 0.821057523729,
			"-0.012": 0.803189617208,
			"-0.011": 0.685346161825,
			"-0.01": 1.51458447115,
			"-0.009": 1.2806066814,
			"-0.008": 1.27200107829,
			"-0.007": 2.64987524014,
			"-0.006": 12.3164610094,
			"-0.005": 18.8726119652,
			"-0.004": 20.3317953798,
			"-0.003": 25.1999636695,
			"-0.002": 30.1634841589,
			"-0.001": 28.6588826036,
			"0.0": 26.0356248085,
			"0.001": 21.8870234776,
			"0.002": 15.0006674199,
			"0.003": 12.0891886964,
			"0.004": 13.7756409504,
			"0.005": 8.80908256603,
			"0.006": 4.58233624999,
			"0.007": 4.11353358457,
			"0.008": 3.86815768769,
			"0.009": 2.21305597085,
			"0.01": 3.44354797743,
			"0.011": 4.87438195205,
			"0.012": 6.81533219255,
			"0.013": 5.13200281758,
			"0.014": 1.96239959186,
			"0.015": 0.0665952920931,
			"0.016": 0.0,
			"0.017": 0.0,
			"0.018": 0.0,
			"0.019": 0.0,
			"0.02": 0.0,
			"0.021": 0.0,
			"0.022": 0.0,
			"0.023": 0.0,
			"0.024": 0.0,
			"0.025": 0.0
		}
	}
}
