{
	 "smiles": "NC(=C[N+]([O-])=O)N1CCOCC1", 
	 "Tm": 510.15, 
	 "num_atms": 23, 
	 "gaussian": { 
		 "optdone": 1, 
		 "sigma_profile": "yes", 
		 "theory": "DFT", 
		 "functional": "B3LYP", 
		 "basiset": "6-31G**", 
		 "properties": { 
			 "R2extent": 3027.0445, 
			 "electric_dipole_moment_norm": 6.76577998829, 
			 "electric_quadrupole_moment_norm": 34.1313019339, 
			 "total_energy": -625.066531051, 
			 "HOMO_LUMO_gap": 0.17636, 
			 "cosmo_polarized_energy": -21.11, 
			 "cosmo_cavitation_energy": 25.48, 
			 "cosmo_dispersion_energy": -19.43, 
			 "cosmo_repulsion_energy": 1.56, 
			 "cosmo_total_nonelectrostatic_energy": 7.61, 
			 "SMD_solvation_energy": 5.85 
		},
		"coords": [
			{
				"x": 2.0994768792,
				"y": 1.1505327267,
				"z": 1.6810706593,
				"element": "N" 
			},
			{
				"x": 0.8628280586,
				"y": 1.0426629386,
				"z": 1.112741175,
				"element": "C" 
			},
			{
				"x": 0.0754911691,
				"y": 2.1547639633,
				"z": 0.8288364883,
				"element": "C" 
			},
			{
				"x": 0.5284229959,
				"y": 3.4777959264,
				"z": 0.9079278173,
				"element": "N" 
			},
			{
				"x": 1.7002538461,
				"y": 3.7371237014,
				"z": 1.2979554828,
				"element": "O" 
			},
			{
				"x": -0.2662701016,
				"y": 4.371067792,
				"z": 0.5824706558,
				"element": "O" 
			},
			{
				"x": 0.3963518218,
				"y": -0.2199308118,
				"z": 0.8666111379,
				"element": "N" 
			},
			{
				"x": 0.9912684699,
				"y": -1.3977396369,
				"z": 1.5109753428,
				"element": "C" 
			},
			{
				"x": -0.100610842,
				"y": -2.4212814258,
				"z": 1.8169884106,
				"element": "C" 
			},
			{
				"x": -0.7976011278,
				"y": -2.8554650234,
				"z": 0.6553781393,
				"element": "O" 
			},
			{
				"x": -0.8784109389,
				"y": -1.8843709474,
				"z": -0.3833038791,
				"element": "C" 
			},
			{
				"x": -0.8494884826,
				"y": -0.4475591306,
				"z": 0.1304617485,
				"element": "C" 
			},
			{
				"x": 2.4030564368,
				"y": 2.1275931983,
				"z": 1.7171412351,
				"element": "H" 
			},
			{
				"x": 2.791671583,
				"y": 0.4637255116,
				"z": 1.4191626895,
				"element": "H" 
			},
			{
				"x": -0.9558910109,
				"y": 2.0845277613,
				"z": 0.5318750404,
				"element": "H" 
			},
			{
				"x": 1.7592291868,
				"y": -1.8572836363,
				"z": 0.871084753,
				"element": "H" 
			},
			{
				"x": 1.4698919922,
				"y": -1.0911692814,
				"z": 2.4456805637,
				"element": "H" 
			},
			{
				"x": -0.8034017588,
				"y": -1.9880696718,
				"z": 2.5450048317,
				"element": "H" 
			},
			{
				"x": 0.3466321423,
				"y": -3.3104413346,
				"z": 2.2727112869,
				"element": "H" 
			},
			{
				"x": -1.8170232092,
				"y": -2.0625738196,
				"z": -0.9170911219,
				"element": "H" 
			},
			{
				"x": -0.0537517406,
				"y": -2.0269518896,
				"z": -1.0984689559,
				"element": "H" 
			},
			{
				"x": -0.893769133,
				"y": 0.2383269816,
				"z": -0.7213162438,
				"element": "H" 
			},
			{
				"x": -1.7293562363,
				"y": -0.253383892,
				"z": 0.761202743,
				"element": "H" 
			}
		],
		 "valence_orbital": [ 
			{
				"type": "occ",
				"energy": -0.27526,
				"method": "rhf"
			},
			{
				"type": "occ",
				"energy": -0.27273,
				"method": "rhf"
			},
			{
				"type": "occ",
				"energy": -0.26537,
				"method": "rhf"
			},
			{
				"type": "occ",
				"energy": -0.25383,
				"method": "rhf"
			},
			{
				"type": "occ",
				"energy": -0.22142,
				"method": "rhf"
			},
			{
				"type": "unocc",
				"energy": -0.04506,
				"method": "rhf"
			},
			{
				"type": "unocc",
				"energy": 0.05426,
				"method": "rhf"
			},
			{
				"type": "unocc",
				"energy": 0.06368,
				"method": "rhf"
			},
			{
				"type": "unocc",
				"energy": 0.07441,
				"method": "rhf"
			},
			{
				"type": "unocc",
				"energy": 0.08788,
				"method": "rhf"
			}
		],
		"cosmo_sigma_profile": { 
			"-0.025": 0.0,
			"-0.024": 0.0,
			"-0.023": 0.0,
			"-0.022": 0.0,
			"-0.021": 0.0,
			"-0.02": 0.0,
			"-0.019": 0.0,
			"-0.018": 0.0,
			"-0.017": 0.0,
			"-0.016": 0.0,
			"-0.015": 0.177482866997,
			"-0.014": 1.20525449731,
			"-0.013": 1.12817094107,
			"-0.012": 1.37185000643,
			"-0.011": 1.31010638476,
			"-0.01": 1.98583352678,
			"-0.009": 2.37015449318,
			"-0.008": 2.22112877901,
			"-0.007": 6.35942904779,
			"-0.006": 19.5887027946,
			"-0.005": 27.6253194681,
			"-0.004": 19.4844333241,
			"-0.003": 10.5608285174,
			"-0.002": 9.20102678615,
			"-0.001": 8.50911448593,
			"0.0": 9.28096169265,
			"0.001": 8.77527049186,
			"0.002": 7.68292366126,
			"0.003": 5.79690541821,
			"0.004": 4.27229093176,
			"0.005": 4.24815613551,
			"0.006": 3.63809691954,
			"0.007": 3.67653711226,
			"0.008": 4.67181432056,
			"0.009": 4.70784379815,
			"0.01": 5.401494288,
			"0.011": 10.1408611139,
			"0.012": 6.86508488474,
			"0.013": 5.54884733969,
			"0.014": 2.09864198516,
			"0.015": 0.0,
			"0.016": 0.0,
			"0.017": 0.0,
			"0.018": 0.0,
			"0.019": 0.0,
			"0.02": 0.0,
			"0.021": 0.0,
			"0.022": 0.0,
			"0.023": 0.0,
			"0.024": 0.0,
			"0.025": 0.0
		}
	}
}
