{
	 "smiles": "OC(=O)C1=CC(=CC(Br)=C1)C(O)=O", 
	 "Tm": 556.15, 
	 "num_atms": 18, 
	 "gaussian": { 
		 "optdone": 1, 
		 "sigma_profile": "yes", 
		 "theory": "DFT", 
		 "functional": "B3LYP", 
		 "basiset": "6-31G**", 
		 "properties": { 
			 "R2extent": 6253.9258, 
			 "electric_dipole_moment_norm": 6.29993753223, 
			 "electric_quadrupole_moment_norm": 10.2203619584, 
			 "total_energy": -3180.17312468, 
			 "HOMO_LUMO_gap": 0.18959, 
			 "cosmo_polarized_energy": -24.37, 
			 "cosmo_cavitation_energy": 26.36, 
			 "cosmo_dispersion_energy": -19.6, 
			 "cosmo_repulsion_energy": 1.56, 
			 "cosmo_total_nonelectrostatic_energy": 8.32, 
			 "SMD_solvation_energy": 5.78 
		},
		"coords": [
			{
				"x": -0.141772584,
				"y": -0.0222854677,
				"z": 3.939528243,
				"element": "O" 
			},
			{
				"x": -0.02652891,
				"y": 0.6838452711,
				"z": 2.7856105336,
				"element": "C" 
			},
			{
				"x": -0.7032270865,
				"y": 1.6642658574,
				"z": 2.598251984,
				"element": "O" 
			},
			{
				"x": 0.9769679949,
				"y": 0.1834430458,
				"z": 1.780887294,
				"element": "C" 
			},
			{
				"x": 0.8135836239,
				"y": 0.5739409282,
				"z": 0.4492584541,
				"element": "C" 
			},
			{
				"x": 1.7074497677,
				"y": 0.1308424983,
				"z": -0.5290545442,
				"element": "C" 
			},
			{
				"x": 2.8048247727,
				"y": -0.6620396885,
				"z": -0.164565174,
				"element": "C" 
			},
			{
				"x": 2.9812047235,
				"y": -1.0162902851,
				"z": 1.1709260993,
				"element": "C" 
			},
			{
				"x": 4.4948829106,
				"y": -2.0598658888,
				"z": 1.6733626467,
				"element": "Br" 
			},
			{
				"x": 2.0740624866,
				"y": -0.6093387118,
				"z": 2.1464366293,
				"element": "C" 
			},
			{
				"x": 1.4704140711,
				"y": 0.5762917051,
				"z": -1.947589832,
				"element": "C" 
			},
			{
				"x": 2.029558734,
				"y": -0.178608418,
				"z": -2.9278511347,
				"element": "O" 
			},
			{
				"x": 0.8222207144,
				"y": 1.5549681819,
				"z": -2.2237855207,
				"element": "O" 
			},
			{
				"x": 0.3211755804,
				"y": -0.8687770742,
				"z": 3.873023818,
				"element": "H" 
			},
			{
				"x": -0.0113388421,
				"y": 1.2205513529,
				"z": 0.1736863469,
				"element": "H" 
			},
			{
				"x": 3.5472142537,
				"y": -0.9712412281,
				"z": -0.8930880395,
				"element": "H" 
			},
			{
				"x": 2.2588948945,
				"y": -0.8783019992,
				"z": 3.1813209302,
				"element": "H" 
			},
			{
				"x": 2.3587128945,
				"y": -1.0157000795,
				"z": -2.5725587339,
				"element": "H" 
			}
		],
		 "valence_orbital": [ 
			{
				"type": "occ",
				"energy": -0.32037,
				"method": "rhf"
			},
			{
				"type": "occ",
				"energy": -0.30614,
				"method": "rhf"
			},
			{
				"type": "occ",
				"energy": -0.29516,
				"method": "rhf"
			},
			{
				"type": "occ",
				"energy": -0.28844,
				"method": "rhf"
			},
			{
				"type": "occ",
				"energy": -0.27657,
				"method": "rhf"
			},
			{
				"type": "unocc",
				"energy": -0.08698,
				"method": "rhf"
			},
			{
				"type": "unocc",
				"energy": -0.0682,
				"method": "rhf"
			},
			{
				"type": "unocc",
				"energy": -0.0262,
				"method": "rhf"
			},
			{
				"type": "unocc",
				"energy": -0.0037,
				"method": "rhf"
			},
			{
				"type": "unocc",
				"energy": 0.04764,
				"method": "rhf"
			}
		],
		"cosmo_sigma_profile": { 
			"-0.025": 0.0,
			"-0.024": 0.0,
			"-0.023": 0.0,
			"-0.022": 0.0,
			"-0.021": 0.0,
			"-0.02": 0.314927293264,
			"-0.019": 2.04402067791,
			"-0.018": 2.54557394083,
			"-0.017": 1.95557173392,
			"-0.016": 1.94141394704,
			"-0.015": 1.96610336207,
			"-0.014": 2.44645166953,
			"-0.013": 1.81626115136,
			"-0.012": 2.96000818864,
			"-0.011": 2.36755361879,
			"-0.01": 2.67602082368,
			"-0.009": 3.47248589771,
			"-0.008": 3.79281417572,
			"-0.007": 3.49360884321,
			"-0.006": 5.7700810812,
			"-0.005": 8.6528002312,
			"-0.004": 9.17754205493,
			"-0.003": 11.7720068641,
			"-0.002": 11.328504977,
			"-0.001": 19.8413819479,
			"0.0": 16.7634964555,
			"0.001": 10.1936805419,
			"0.002": 10.2329165029,
			"0.003": 13.5774899332,
			"0.004": 9.6424347411,
			"0.005": 4.49362178937,
			"0.006": 4.59727705559,
			"0.007": 4.83440111208,
			"0.008": 6.22978656091,
			"0.009": 8.17068901307,
			"0.01": 10.4540480491,
			"0.011": 10.806245546,
			"0.012": 4.61987054727,
			"0.013": 0.490015309979,
			"0.014": 0.0,
			"0.015": 0.0,
			"0.016": 0.0,
			"0.017": 0.0,
			"0.018": 0.0,
			"0.019": 0.0,
			"0.02": 0.0,
			"0.021": 0.0,
			"0.022": 0.0,
			"0.023": 0.0,
			"0.024": 0.0,
			"0.025": 0.0
		}
	}
}
