{
	 "smiles": "CC(CC(O)=O)CC(O)=O", 
	 "Tm": 359.65, 
	 "num_atms": 20, 
	 "gaussian": { 
		 "optdone": 1, 
		 "sigma_profile": "yes", 
		 "theory": "DFT", 
		 "functional": "B3LYP", 
		 "basiset": "6-31G**", 
		 "properties": { 
			 "R2extent": 2052.9671, 
			 "electric_dipole_moment_norm": 3.05853881126, 
			 "electric_quadrupole_moment_norm": 18.8188386355, 
			 "total_energy": -535.595231454, 
			 "HOMO_LUMO_gap": 0.27162, 
			 "cosmo_polarized_energy": -16.95, 
			 "cosmo_cavitation_energy": 23.56, 
			 "cosmo_dispersion_energy": -16.94, 
			 "cosmo_repulsion_energy": 1.41, 
			 "cosmo_total_nonelectrostatic_energy": 8.03, 
			 "SMD_solvation_energy": 6.32 
		},
		"coords": [
			{
				"x": -0.933193967,
				"y": -1.1412903714,
				"z": 1.8769562596,
				"element": "C" 
			},
			{
				"x": -0.9095588109,
				"y": 0.3489954963,
				"z": 1.5057044819,
				"element": "C" 
			},
			{
				"x": -2.037727056,
				"y": 0.717355285,
				"z": 0.5220972018,
				"element": "C" 
			},
			{
				"x": -1.9906105981,
				"y": 0.0296025132,
				"z": -0.8246562976,
				"element": "C" 
			},
			{
				"x": -3.1793985895,
				"y": 0.121939389,
				"z": -1.4651440658,
				"element": "O" 
			},
			{
				"x": -1.03428581,
				"y": -0.5266197959,
				"z": -1.3292122089,
				"element": "O" 
			},
			{
				"x": 0.4845232136,
				"y": 0.7657074691,
				"z": 1.0052737614,
				"element": "C" 
			},
			{
				"x": 0.6719458031,
				"y": 2.2702691075,
				"z": 0.8755618365,
				"element": "C" 
			},
			{
				"x": 1.8614964364,
				"y": 2.6604821956,
				"z": 0.3436063205,
				"element": "O" 
			},
			{
				"x": -0.1325535262,
				"y": 3.1045089649,
				"z": 1.2158698869,
				"element": "O" 
			},
			{
				"x": -1.9141874137,
				"y": -1.4288966066,
				"z": 2.2702154064,
				"element": "H" 
			},
			{
				"x": -0.7185206327,
				"y": -1.7694113882,
				"z": 1.0073377822,
				"element": "H" 
			},
			{
				"x": -0.1889904898,
				"y": -1.3653617743,
				"z": 2.6487215678,
				"element": "H" 
			},
			{
				"x": -1.1097952374,
				"y": 0.9353357425,
				"z": 2.4102114151,
				"element": "H" 
			},
			{
				"x": -2.022771345,
				"y": 1.7979543716,
				"z": 0.336723534,
				"element": "H" 
			},
			{
				"x": -3.0142949085,
				"y": 0.5055491518,
				"z": 0.9704502387,
				"element": "H" 
			},
			{
				"x": -3.0551201419,
				"y": -0.3057170807,
				"z": -2.3295003002,
				"element": "H" 
			},
			{
				"x": 0.6920263243,
				"y": 0.2881993395,
				"z": 0.0408563139,
				"element": "H" 
			},
			{
				"x": 1.248222202,
				"y": 0.4039641504,
				"z": 1.7085885731,
				"element": "H" 
			},
			{
				"x": 2.3862945475,
				"y": 1.8841338408,
				"z": 0.100838293,
				"element": "H" 
			}
		],
		 "valence_orbital": [ 
			{
				"type": "occ",
				"energy": -0.3415,
				"method": "rhf"
			},
			{
				"type": "occ",
				"energy": -0.32404,
				"method": "rhf"
			},
			{
				"type": "occ",
				"energy": -0.31503,
				"method": "rhf"
			},
			{
				"type": "occ",
				"energy": -0.28082,
				"method": "rhf"
			},
			{
				"type": "occ",
				"energy": -0.26986,
				"method": "rhf"
			},
			{
				"type": "unocc",
				"energy": 0.00176,
				"method": "rhf"
			},
			{
				"type": "unocc",
				"energy": 0.01175,
				"method": "rhf"
			},
			{
				"type": "unocc",
				"energy": 0.05868,
				"method": "rhf"
			},
			{
				"type": "unocc",
				"energy": 0.07604,
				"method": "rhf"
			},
			{
				"type": "unocc",
				"energy": 0.08415,
				"method": "rhf"
			}
		],
		"cosmo_sigma_profile": { 
			"-0.025": 0.0,
			"-0.024": 0.0,
			"-0.023": 0.0,
			"-0.022": 0.0,
			"-0.021": 0.0,
			"-0.02": 0.0,
			"-0.019": 0.352118844339,
			"-0.018": 1.76241832547,
			"-0.017": 1.9383388756,
			"-0.016": 1.86586417211,
			"-0.015": 2.26961560281,
			"-0.014": 1.40783608025,
			"-0.013": 0.893862307461,
			"-0.012": 1.36162423477,
			"-0.011": 3.39726226672,
			"-0.01": 2.12108235204,
			"-0.009": 1.21240291566,
			"-0.008": 1.538103848,
			"-0.007": 2.89572526836,
			"-0.006": 5.74893949121,
			"-0.005": 9.33117819604,
			"-0.004": 12.1321885472,
			"-0.003": 17.6475439554,
			"-0.002": 14.3276081702,
			"-0.001": 13.9879827265,
			"0.0": 12.1174236935,
			"0.001": 9.80336223328,
			"0.002": 6.16721247952,
			"0.003": 4.5212778777,
			"0.004": 5.72911402589,
			"0.005": 4.64228254686,
			"0.006": 4.21720879908,
			"0.007": 5.51928583141,
			"0.008": 5.24267243738,
			"0.009": 6.24769505144,
			"0.01": 6.38115214369,
			"0.011": 8.40488579037,
			"0.012": 6.7778188469,
			"0.013": 1.86156596342,
			"0.014": 0.106867184459,
			"0.015": 0.0,
			"0.016": 0.0,
			"0.017": 0.0,
			"0.018": 0.0,
			"0.019": 0.0,
			"0.02": 0.0,
			"0.021": 0.0,
			"0.022": 0.0,
			"0.023": 0.0,
			"0.024": 0.0,
			"0.025": 0.0
		}
	}
}
