{
	 "smiles": "CCN(CC)CCNC(=O)C1=CC(=CC=C1OC)S(C)(=O)=O", 
	 "Tm": 397.15, 
	 "num_atms": 46, 
	 "gaussian": { 
		 "optdone": 1, 
		 "sigma_profile": "yes", 
		 "theory": "DFT", 
		 "functional": "B3LYP", 
		 "basiset": "6-31G**", 
		 "properties": { 
			 "R2extent": 7885.9762, 
			 "electric_dipole_moment_norm": 7.61127915465, 
			 "electric_quadrupole_moment_norm": 30.0109796784, 
			 "total_energy": -1394.57254272, 
			 "HOMO_LUMO_gap": 0.17061, 
			 "cosmo_polarized_energy": -24.3, 
			 "cosmo_cavitation_energy": 49.31, 
			 "cosmo_dispersion_energy": -30.43, 
			 "cosmo_repulsion_energy": 2.29, 
			 "cosmo_total_nonelectrostatic_energy": 21.16, 
			 "SMD_solvation_energy": 8.28 
		},
		"coords": [
			{
				"x": -1.8149848069,
				"y": 1.2240844283,
				"z": -2.7741818642,
				"element": "C" 
			},
			{
				"x": -0.9343359141,
				"y": 0.0904724411,
				"z": -3.3028657567,
				"element": "C" 
			},
			{
				"x": -0.4054154862,
				"y": -0.778898681,
				"z": -2.2395593019,
				"element": "N" 
			},
			{
				"x": -1.3998908898,
				"y": -1.7432029202,
				"z": -1.7599549077,
				"element": "C" 
			},
			{
				"x": -1.0709647972,
				"y": -2.3267258204,
				"z": -0.3850658423,
				"element": "C" 
			},
			{
				"x": 0.8910980775,
				"y": -1.3880417687,
				"z": -2.5503827123,
				"element": "C" 
			},
			{
				"x": 2.005312562,
				"y": -0.9401010688,
				"z": -1.5858000495,
				"element": "C" 
			},
			{
				"x": 2.2126700222,
				"y": 0.5037860502,
				"z": -1.6081493409,
				"element": "N" 
			},
			{
				"x": 1.6097916148,
				"y": 1.4282916006,
				"z": -0.7918471438,
				"element": "C" 
			},
			{
				"x": 1.3916947041,
				"y": 2.5738177807,
				"z": -1.1778827155,
				"element": "O" 
			},
			{
				"x": 1.2645407841,
				"y": 1.0394034292,
				"z": 0.6264311336,
				"element": "C" 
			},
			{
				"x": 0.0505576634,
				"y": 1.5269000339,
				"z": 1.1272833254,
				"element": "C" 
			},
			{
				"x": -0.3336658904,
				"y": 1.2487907649,
				"z": 2.4361779784,
				"element": "C" 
			},
			{
				"x": 0.4945029806,
				"y": 0.5205803445,
				"z": 3.294802926,
				"element": "C" 
			},
			{
				"x": 1.7220345155,
				"y": 0.0723674399,
				"z": 2.8203311098,
				"element": "C" 
			},
			{
				"x": 2.1116760331,
				"y": 0.3270124043,
				"z": 1.4992191463,
				"element": "C" 
			},
			{
				"x": 3.3248395564,
				"y": -0.1733576169,
				"z": 1.0935240381,
				"element": "O" 
			},
			{
				"x": 4.374785651,
				"y": 0.7910163305,
				"z": 0.9475116846,
				"element": "C" 
			},
			{
				"x": -1.9125535828,
				"y": 1.857658614,
				"z": 3.0479745154,
				"element": "S" 
			},
			{
				"x": -3.0861918539,
				"y": 0.5703397685,
				"z": 2.5572766977,
				"element": "C" 
			},
			{
				"x": -1.8505157604,
				"y": 1.8574916324,
				"z": 4.5184143355,
				"element": "O" 
			},
			{
				"x": -2.2587186684,
				"y": 3.0740082965,
				"z": 2.2983953926,
				"element": "O" 
			},
			{
				"x": -1.2353623807,
				"y": 1.8816879256,
				"z": -2.1210036469,
				"element": "H" 
			},
			{
				"x": -2.6806638057,
				"y": 0.8528284641,
				"z": -2.216094554,
				"element": "H" 
			},
			{
				"x": -2.1985967757,
				"y": 1.8205813936,
				"z": -3.6087701418,
				"element": "H" 
			},
			{
				"x": -0.0821240075,
				"y": 0.5408638523,
				"z": -3.8207757743,
				"element": "H" 
			},
			{
				"x": -1.4856548483,
				"y": -0.4956290334,
				"z": -4.0630298689,
				"element": "H" 
			},
			{
				"x": -1.5425942309,
				"y": -2.5670102401,
				"z": -2.487127699,
				"element": "H" 
			},
			{
				"x": -2.3613366186,
				"y": -1.2244456894,
				"z": -1.6949207661,
				"element": "H" 
			},
			{
				"x": -0.9546922137,
				"y": -1.5282024851,
				"z": 0.3538211987,
				"element": "H" 
			},
			{
				"x": -0.1459364939,
				"y": -2.9124831164,
				"z": -0.3964709481,
				"element": "H" 
			},
			{
				"x": -1.8735624429,
				"y": -2.9953179092,
				"z": -0.0561822396,
				"element": "H" 
			},
			{
				"x": 1.191313545,
				"y": -1.138684704,
				"z": -3.5776803807,
				"element": "H" 
			},
			{
				"x": 0.833124434,
				"y": -2.4861874847,
				"z": -2.5182215641,
				"element": "H" 
			},
			{
				"x": 2.9443609171,
				"y": -1.4423226194,
				"z": -1.8504073026,
				"element": "H" 
			},
			{
				"x": 1.7600318076,
				"y": -1.2377058406,
				"z": -0.5678867636,
				"element": "H" 
			},
			{
				"x": 2.3819964074,
				"y": 0.9064593513,
				"z": -2.5241150449,
				"element": "H" 
			},
			{
				"x": -0.5754017002,
				"y": 2.1380955009,
				"z": 0.4865691888,
				"element": "H" 
			},
			{
				"x": 0.1879030226,
				"y": 0.3442823083,
				"z": 4.3202637405,
				"element": "H" 
			},
			{
				"x": 2.4065475645,
				"y": -0.4754720229,
				"z": 3.459553658,
				"element": "H" 
			},
			{
				"x": 4.1313355143,
				"y": 1.5437622294,
				"z": 0.1911673532,
				"element": "H" 
			},
			{
				"x": 5.2570057172,
				"y": 0.2328799168,
				"z": 0.6297919207,
				"element": "H" 
			},
			{
				"x": 4.5803609001,
				"y": 1.2865348069,
				"z": 1.9040830213,
				"element": "H" 
			},
			{
				"x": -4.0648235737,
				"y": 0.8986745925,
				"z": 2.9136241421,
				"element": "H" 
			},
			{
				"x": -2.8060092252,
				"y": -0.371806948,
				"z": 3.0303881825,
				"element": "H" 
			},
			{
				"x": -3.0878880275,
				"y": 0.4820242679,
				"z": 1.4700716401,
				"element": "H" 
			}
		],
		 "valence_orbital": [ 
			{
				"type": "occ",
				"energy": -0.27925,
				"method": "rhf"
			},
			{
				"type": "occ",
				"energy": -0.26552,
				"method": "rhf"
			},
			{
				"type": "occ",
				"energy": -0.25896,
				"method": "rhf"
			},
			{
				"type": "occ",
				"energy": -0.24632,
				"method": "rhf"
			},
			{
				"type": "occ",
				"energy": -0.21722,
				"method": "rhf"
			},
			{
				"type": "unocc",
				"energy": -0.04661,
				"method": "rhf"
			},
			{
				"type": "unocc",
				"energy": -0.03359,
				"method": "rhf"
			},
			{
				"type": "unocc",
				"energy": 0.02969,
				"method": "rhf"
			},
			{
				"type": "unocc",
				"energy": 0.06191,
				"method": "rhf"
			},
			{
				"type": "unocc",
				"energy": 0.06847,
				"method": "rhf"
			}
		],
		"cosmo_sigma_profile": { 
			"-0.025": 0.0,
			"-0.024": 0.0,
			"-0.023": 0.0,
			"-0.022": 0.0,
			"-0.021": 0.0,
			"-0.02": 0.0,
			"-0.019": 0.0,
			"-0.018": 0.0,
			"-0.017": 0.0,
			"-0.016": 0.0,
			"-0.015": 0.0,
			"-0.014": 0.0,
			"-0.013": 0.326024769939,
			"-0.012": 0.911486138893,
			"-0.011": 1.24359697326,
			"-0.01": 1.06786456125,
			"-0.009": 2.61097731993,
			"-0.008": 7.31416058905,
			"-0.007": 11.4666374111,
			"-0.006": 14.2820898699,
			"-0.005": 18.1410638271,
			"-0.004": 35.746404688,
			"-0.003": 40.7560044509,
			"-0.002": 34.8429411661,
			"-0.001": 44.8168097482,
			"0.0": 38.4953011462,
			"0.001": 30.5007568008,
			"0.002": 20.497850042,
			"0.003": 9.6370454797,
			"0.004": 9.08353793931,
			"0.005": 7.70635208926,
			"0.006": 5.70469537543,
			"0.007": 6.16435198659,
			"0.008": 4.40047915135,
			"0.009": 5.48503657896,
			"0.01": 6.50197187348,
			"0.011": 10.6272332166,
			"0.012": 10.6234680436,
			"0.013": 4.24976806557,
			"0.014": 3.45066575729,
			"0.015": 0.100132792331,
			"0.016": 0.0,
			"0.017": 0.0,
			"0.018": 0.0,
			"0.019": 0.0,
			"0.02": 0.0,
			"0.021": 0.0,
			"0.022": 0.0,
			"0.023": 0.0,
			"0.024": 0.0,
			"0.025": 0.0
		}
	}
}
