{
	 "smiles": "ClC(=O)C1=NC=CN=C1", 
	 "Tm": 423.15, 
	 "num_atms": 12, 
	 "gaussian": { 
		 "optdone": 1, 
		 "sigma_profile": "yes", 
		 "theory": "DFT", 
		 "functional": "B3LYP", 
		 "basiset": "6-31G**", 
		 "properties": { 
			 "R2extent": 2173.9725, 
			 "electric_dipole_moment_norm": 3.481106429, 
			 "electric_quadrupole_moment_norm": 9.17054987392, 
			 "total_energy": -837.236541973, 
			 "HOMO_LUMO_gap": 0.1732, 
			 "cosmo_polarized_energy": -9.06, 
			 "cosmo_cavitation_energy": 19.22, 
			 "cosmo_dispersion_energy": -14.47, 
			 "cosmo_repulsion_energy": 1.18, 
			 "cosmo_total_nonelectrostatic_energy": 5.93, 
			 "SMD_solvation_energy": 1.55 
		},
		"coords": [
			{
				"x": -1.3631344637,
				"y": -2.7190991538,
				"z": -1.144482743,
				"element": "Cl" 
			},
			{
				"x": 0.2214743307,
				"y": -2.0121813392,
				"z": -0.5730692069,
				"element": "C" 
			},
			{
				"x": 1.1641230096,
				"y": -2.0135151671,
				"z": -1.295674277,
				"element": "O" 
			},
			{
				"x": 0.1857200985,
				"y": -1.4678354998,
				"z": 0.8257382717,
				"element": "C" 
			},
			{
				"x": 1.3519787777,
				"y": -0.9494535969,
				"z": 1.2415427414,
				"element": "N" 
			},
			{
				"x": 1.3742484522,
				"y": -0.4532011824,
				"z": 2.475252694,
				"element": "C" 
			},
			{
				"x": 0.2397442841,
				"y": -0.4706773523,
				"z": 3.2976679408,
				"element": "C" 
			},
			{
				"x": -0.9221238806,
				"y": -0.9846996865,
				"z": 2.8894848346,
				"element": "N" 
			},
			{
				"x": -0.9486179411,
				"y": -1.4853256902,
				"z": 1.6479665139,
				"element": "C" 
			},
			{
				"x": 2.3137883769,
				"y": -0.0301728017,
				"z": 2.8237267828,
				"element": "H" 
			},
			{
				"x": 0.2743614158,
				"y": -0.0605994793,
				"z": 4.3047436336,
				"element": "H" 
			},
			{
				"x": -1.88786246,
				"y": -1.9057390507,
				"z": 1.305902814,
				"element": "H" 
			}
		],
		 "valence_orbital": [ 
			{
				"type": "occ",
				"energy": -0.33318,
				"method": "rhf"
			},
			{
				"type": "occ",
				"energy": -0.33115,
				"method": "rhf"
			},
			{
				"type": "occ",
				"energy": -0.30594,
				"method": "rhf"
			},
			{
				"type": "occ",
				"energy": -0.30539,
				"method": "rhf"
			},
			{
				"type": "occ",
				"energy": -0.27602,
				"method": "rhf"
			},
			{
				"type": "unocc",
				"energy": -0.10282,
				"method": "rhf"
			},
			{
				"type": "unocc",
				"energy": -0.06838,
				"method": "rhf"
			},
			{
				"type": "unocc",
				"energy": 0.00175,
				"method": "rhf"
			},
			{
				"type": "unocc",
				"energy": 0.01069,
				"method": "rhf"
			},
			{
				"type": "unocc",
				"energy": 0.10135,
				"method": "rhf"
			}
		],
		"cosmo_sigma_profile": { 
			"-0.025": 0.0,
			"-0.024": 0.0,
			"-0.023": 0.0,
			"-0.022": 0.0,
			"-0.021": 0.0,
			"-0.02": 0.0,
			"-0.019": 0.0,
			"-0.018": 0.0,
			"-0.017": 0.0,
			"-0.016": 0.0,
			"-0.015": 0.0,
			"-0.014": 0.0,
			"-0.013": 0.0,
			"-0.012": 0.0,
			"-0.011": 0.0,
			"-0.01": 0.102359126338,
			"-0.009": 5.19599459443,
			"-0.008": 6.03512987613,
			"-0.007": 6.24260676774,
			"-0.006": 8.39288118445,
			"-0.005": 9.75669009578,
			"-0.004": 12.6965953625,
			"-0.003": 12.5633498546,
			"-0.002": 10.9650078755,
			"-0.001": 8.75253509002,
			"0.0": 8.8097755161,
			"0.001": 9.58155401028,
			"0.002": 7.85109657615,
			"0.003": 8.8965690696,
			"0.004": 9.92962650432,
			"0.005": 5.54522071353,
			"0.006": 4.25331705391,
			"0.007": 4.96906984667,
			"0.008": 6.07553872738,
			"0.009": 2.76431906065,
			"0.01": 2.49063706239,
			"0.011": 2.47355379565,
			"0.012": 1.23206302118,
			"0.013": 2.01957416423,
			"0.014": 0.766359671424,
			"0.015": 0.0,
			"0.016": 0.0,
			"0.017": 0.0,
			"0.018": 0.0,
			"0.019": 0.0,
			"0.02": 0.0,
			"0.021": 0.0,
			"0.022": 0.0,
			"0.023": 0.0,
			"0.024": 0.0,
			"0.025": 0.0
		}
	}
}
