{
	 "smiles": "NC1=CC=C(C=C1)N1C=NC=N1", 
	 "Tm": 416.15, 
	 "num_atms": 20, 
	 "gaussian": { 
		 "optdone": 1, 
		 "sigma_profile": "yes", 
		 "theory": "DFT", 
		 "functional": "B3LYP", 
		 "basiset": "6-31G**", 
		 "properties": { 
			 "R2extent": 2991.549, 
			 "electric_dipole_moment_norm": 4.95214992604, 
			 "electric_quadrupole_moment_norm": 10.4359682996, 
			 "total_energy": -528.662614261, 
			 "HOMO_LUMO_gap": 0.18806, 
			 "cosmo_polarized_energy": -14.6, 
			 "cosmo_cavitation_energy": 24.54, 
			 "cosmo_dispersion_energy": -18.32, 
			 "cosmo_repulsion_energy": 1.43, 
			 "cosmo_total_nonelectrostatic_energy": 7.65, 
			 "SMD_solvation_energy": 2.35 
		},
		"coords": [
			{
				"x": -1.4304410565,
				"y": 1.5826140025,
				"z": -3.2205913296,
				"element": "N" 
			},
			{
				"x": -0.6008387867,
				"y": 0.8541783109,
				"z": -2.3710020623,
				"element": "C" 
			},
			{
				"x": -1.1239363253,
				"y": 0.1957095087,
				"z": -1.2428010391,
				"element": "C" 
			},
			{
				"x": -0.312269158,
				"y": -0.584248738,
				"z": -0.4289562118,
				"element": "C" 
			},
			{
				"x": 1.0489322685,
				"y": -0.7159826988,
				"z": -0.7185816271,
				"element": "C" 
			},
			{
				"x": 1.588747346,
				"y": -0.0529910895,
				"z": -1.8239573041,
				"element": "C" 
			},
			{
				"x": 0.7706207266,
				"y": 0.7147228359,
				"z": -2.6463194068,
				"element": "C" 
			},
			{
				"x": 1.8733716396,
				"y": -1.5232037287,
				"z": 0.1126076527,
				"element": "N" 
			},
			{
				"x": 2.9947765865,
				"y": -2.2221139074,
				"z": -0.2027676341,
				"element": "C" 
			},
			{
				"x": 3.4605116355,
				"y": -2.8603874279,
				"z": 0.8568512787,
				"element": "N" 
			},
			{
				"x": 2.5608893721,
				"y": -2.5193240652,
				"z": 1.8213428408,
				"element": "C" 
			},
			{
				"x": 1.5823755812,
				"y": -1.7166977162,
				"z": 1.429772211,
				"element": "N" 
			},
			{
				"x": -2.2837718146,
				"y": 1.9287179113,
				"z": -2.8047472926,
				"element": "H" 
			},
			{
				"x": -0.9703721893,
				"y": 2.282540201,
				"z": -3.7856738966,
				"element": "H" 
			},
			{
				"x": -2.1814912768,
				"y": 0.2901281494,
				"z": -1.0104685812,
				"element": "H" 
			},
			{
				"x": -0.7177577599,
				"y": -1.0901887586,
				"z": 0.4392477603,
				"element": "H" 
			},
			{
				"x": 2.6516452095,
				"y": -0.1142254726,
				"z": -2.0346917512,
				"element": "H" 
			},
			{
				"x": 1.2009457453,
				"y": 1.2237409956,
				"z": -3.5046750849,
				"element": "H" 
			},
			{
				"x": 3.4100248629,
				"y": -2.2508501238,
				"z": -1.1996122558,
				"element": "H" 
			},
			{
				"x": 2.6273373934,
				"y": -2.8692381886,
				"z": 2.8424237338,
				"element": "H" 
			}
		],
		 "valence_orbital": [ 
			{
				"type": "occ",
				"energy": -0.2867,
				"method": "rhf"
			},
			{
				"type": "occ",
				"energy": -0.27107,
				"method": "rhf"
			},
			{
				"type": "occ",
				"energy": -0.26469,
				"method": "rhf"
			},
			{
				"type": "occ",
				"energy": -0.26102,
				"method": "rhf"
			},
			{
				"type": "occ",
				"energy": -0.20624,
				"method": "rhf"
			},
			{
				"type": "unocc",
				"energy": -0.01818,
				"method": "rhf"
			},
			{
				"type": "unocc",
				"energy": -0.01215,
				"method": "rhf"
			},
			{
				"type": "unocc",
				"energy": 0.03762,
				"method": "rhf"
			},
			{
				"type": "unocc",
				"energy": 0.05847,
				"method": "rhf"
			},
			{
				"type": "unocc",
				"energy": 0.07147,
				"method": "rhf"
			}
		],
		"cosmo_sigma_profile": { 
			"-0.025": 0.0,
			"-0.024": 0.0,
			"-0.023": 0.0,
			"-0.022": 0.0,
			"-0.021": 0.0,
			"-0.02": 0.0,
			"-0.019": 0.0,
			"-0.018": 0.0,
			"-0.017": 0.0,
			"-0.016": 0.0,
			"-0.015": 0.0,
			"-0.014": 0.0,
			"-0.013": 0.898184031254,
			"-0.012": 2.96572084258,
			"-0.011": 3.30488707,
			"-0.01": 5.10275906257,
			"-0.009": 6.81430459159,
			"-0.008": 6.25877816408,
			"-0.007": 9.77989864297,
			"-0.006": 8.49809920093,
			"-0.005": 9.94795938549,
			"-0.004": 10.4352658868,
			"-0.003": 9.21301207712,
			"-0.002": 7.20238625398,
			"-0.001": 10.1606801359,
			"0.0": 11.3169454829,
			"0.001": 11.9616323133,
			"0.002": 11.7469209309,
			"0.003": 11.2533067313,
			"0.004": 14.0874457883,
			"0.005": 15.1782090181,
			"0.006": 4.11071860602,
			"0.007": 4.42102875085,
			"0.008": 3.1822267091,
			"0.009": 3.62518692036,
			"0.01": 3.77739668458,
			"0.011": 2.04907861062,
			"0.012": 2.43556870272,
			"0.013": 3.36622641581,
			"0.014": 1.31761723631,
			"0.015": 1.31899848459,
			"0.016": 0.893002007366,
			"0.017": 0.277167672543,
			"0.018": 0.0,
			"0.019": 0.0,
			"0.02": 0.0,
			"0.021": 0.0,
			"0.022": 0.0,
			"0.023": 0.0,
			"0.024": 0.0,
			"0.025": 0.0
		}
	}
}
