{
	 "smiles": "CCN(C(C)=O)C1=CC=CC=C1", 
	 "Tm": 328.15, 
	 "num_atms": 25, 
	 "gaussian": { 
		 "optdone": 1, 
		 "sigma_profile": "yes", 
		 "theory": "DFT", 
		 "functional": "B3LYP", 
		 "basiset": "6-31G**", 
		 "properties": { 
			 "R2extent": 2674.0574, 
			 "electric_dipole_moment_norm": 3.75190563048, 
			 "electric_quadrupole_moment_norm": 14.2147900632, 
			 "total_energy": -518.893524713, 
			 "HOMO_LUMO_gap": 0.21575, 
			 "cosmo_polarized_energy": -9.5, 
			 "cosmo_cavitation_energy": 28.03, 
			 "cosmo_dispersion_energy": -19.4, 
			 "cosmo_repulsion_energy": 1.57, 
			 "cosmo_total_nonelectrostatic_energy": 10.19, 
			 "SMD_solvation_energy": 5.73 
		},
		"coords": [
			{
				"x": -2.7254511752,
				"y": -2.987634196,
				"z": -0.8596019618,
				"element": "C" 
			},
			{
				"x": -2.7965281709,
				"y": -1.5160307928,
				"z": -1.2720257918,
				"element": "C" 
			},
			{
				"x": -2.0307846589,
				"y": -0.6283291837,
				"z": -0.3790533181,
				"element": "N" 
			},
			{
				"x": -2.6772814009,
				"y": -0.1107144538,
				"z": 0.7295206472,
				"element": "C" 
			},
			{
				"x": -1.8865801245,
				"y": 0.8371960434,
				"z": 1.6191191341,
				"element": "C" 
			},
			{
				"x": -3.8465221838,
				"y": -0.3899348498,
				"z": 0.9708840952,
				"element": "O" 
			},
			{
				"x": -0.6339962352,
				"y": -0.4517375997,
				"z": -0.6385645271,
				"element": "C" 
			},
			{
				"x": 0.3289104217,
				"y": -1.0949788413,
				"z": 0.1492501843,
				"element": "C" 
			},
			{
				"x": 1.6874329643,
				"y": -0.9271963717,
				"z": -0.1245585199,
				"element": "C" 
			},
			{
				"x": 2.0942724545,
				"y": -0.1311519238,
				"z": -1.196443634,
				"element": "C" 
			},
			{
				"x": 1.1367040953,
				"y": 0.501787985,
				"z": -1.992756493,
				"element": "C" 
			},
			{
				"x": -0.2209123678,
				"y": 0.3460626981,
				"z": -1.7141521213,
				"element": "C" 
			},
			{
				"x": -3.1540275901,
				"y": -3.1194919651,
				"z": 0.1374430392,
				"element": "H" 
			},
			{
				"x": -1.6919795966,
				"y": -3.3492404491,
				"z": -0.8501536805,
				"element": "H" 
			},
			{
				"x": -3.2941183194,
				"y": -3.6066688364,
				"z": -1.5618581738,
				"element": "H" 
			},
			{
				"x": -3.8321524365,
				"y": -1.1716718564,
				"z": -1.2501893986,
				"element": "H" 
			},
			{
				"x": -2.4057249887,
				"y": -1.381458671,
				"z": -2.2854796662,
				"element": "H" 
			},
			{
				"x": -1.2094363346,
				"y": 0.2815979164,
				"z": 2.2756689537,
				"element": "H" 
			},
			{
				"x": -2.6036200715,
				"y": 1.3761739258,
				"z": 2.2386583636,
				"element": "H" 
			},
			{
				"x": -1.2807160484,
				"y": 1.542846083,
				"z": 1.0451753788,
				"element": "H" 
			},
			{
				"x": 0.005045688,
				"y": -1.7269357002,
				"z": 0.970625116,
				"element": "H" 
			},
			{
				"x": 2.4265613528,
				"y": -1.4271321885,
				"z": 0.4947320988,
				"element": "H" 
			},
			{
				"x": 3.1512371527,
				"y": -0.0053644037,
				"z": -1.4116887148,
				"element": "H" 
			},
			{
				"x": 1.4470886776,
				"y": 1.124298829,
				"z": -2.8269647586,
				"element": "H" 
			},
			{
				"x": -0.9710211038,
				"y": 0.8457088022,
				"z": -2.3201862514,
				"element": "H" 
			}
		],
		 "valence_orbital": [ 
			{
				"type": "occ",
				"energy": -0.33785,
				"method": "rhf"
			},
			{
				"type": "occ",
				"energy": -0.27161,
				"method": "rhf"
			},
			{
				"type": "occ",
				"energy": -0.26272,
				"method": "rhf"
			},
			{
				"type": "occ",
				"energy": -0.23777,
				"method": "rhf"
			},
			{
				"type": "occ",
				"energy": -0.23338,
				"method": "rhf"
			},
			{
				"type": "unocc",
				"energy": -0.01763,
				"method": "rhf"
			},
			{
				"type": "unocc",
				"energy": -0.0145,
				"method": "rhf"
			},
			{
				"type": "unocc",
				"energy": 0.03504,
				"method": "rhf"
			},
			{
				"type": "unocc",
				"energy": 0.08099,
				"method": "rhf"
			},
			{
				"type": "unocc",
				"energy": 0.10989,
				"method": "rhf"
			}
		],
		"cosmo_sigma_profile": { 
			"-0.025": 0.0,
			"-0.024": 0.0,
			"-0.023": 0.0,
			"-0.022": 0.0,
			"-0.021": 0.0,
			"-0.02": 0.0,
			"-0.019": 0.0,
			"-0.018": 0.0,
			"-0.017": 0.0,
			"-0.016": 0.0,
			"-0.015": 0.0,
			"-0.014": 0.0,
			"-0.013": 0.0,
			"-0.012": 0.0,
			"-0.011": 0.0,
			"-0.01": 0.0,
			"-0.009": 0.0,
			"-0.008": 0.0,
			"-0.007": 0.431273331317,
			"-0.006": 10.0475159011,
			"-0.005": 15.6540575997,
			"-0.004": 21.2703097501,
			"-0.003": 22.1648031385,
			"-0.002": 26.0268194514,
			"-0.001": 28.2777919879,
			"0.0": 22.0228368658,
			"0.001": 16.9095981669,
			"0.002": 10.1014801983,
			"0.003": 9.01453815326,
			"0.004": 9.88777142956,
			"0.005": 8.98544104872,
			"0.006": 2.48350928298,
			"0.007": 1.52721758264,
			"0.008": 1.36157888926,
			"0.009": 1.46696401048,
			"0.01": 1.34132621046,
			"0.011": 1.57442194445,
			"0.012": 1.5071779876,
			"0.013": 2.69932761765,
			"0.014": 4.71621174288,
			"0.015": 1.66788912156,
			"0.016": 0.0380543594935,
			"0.017": 0.0,
			"0.018": 0.0,
			"0.019": 0.0,
			"0.02": 0.0,
			"0.021": 0.0,
			"0.022": 0.0,
			"0.023": 0.0,
			"0.024": 0.0,
			"0.025": 0.0
		}
	}
}
