{
	 "smiles": "CC1=CC(=CN=C1Cl)[N+]([O-])=O", 
	 "Tm": 352.15, 
	 "num_atms": 16, 
	 "gaussian": { 
		 "optdone": 1, 
		 "sigma_profile": "yes", 
		 "theory": "DFT", 
		 "functional": "B3LYP", 
		 "basiset": "6-31G**", 
		 "properties": { 
			 "R2extent": 3064.8827, 
			 "electric_dipole_moment_norm": 3.32040813305, 
			 "electric_quadrupole_moment_norm": 16.3753509046, 
			 "total_energy": -951.692823444, 
			 "HOMO_LUMO_gap": 0.17751, 
			 "cosmo_polarized_energy": -8.9, 
			 "cosmo_cavitation_energy": 23.03, 
			 "cosmo_dispersion_energy": -17.13, 
			 "cosmo_repulsion_energy": 1.37, 
			 "cosmo_total_nonelectrostatic_energy": 7.27, 
			 "SMD_solvation_energy": 4.76 
		},
		"coords": [
			{
				"x": 1.7382807848,
				"y": 1.6879931549,
				"z": 0.336406772,
				"element": "C" 
			},
			{
				"x": 1.3894987561,
				"y": 0.3715383213,
				"z": -0.3017046159,
				"element": "C" 
			},
			{
				"x": 1.0531881172,
				"y": 0.276055951,
				"z": -1.6509346586,
				"element": "C" 
			},
			{
				"x": 0.7388243758,
				"y": -0.9695670522,
				"z": -2.1893803616,
				"element": "C" 
			},
			{
				"x": 0.7601029706,
				"y": -2.107501153,
				"z": -1.3887877291,
				"element": "C" 
			},
			{
				"x": 1.0800585732,
				"y": -2.0337996228,
				"z": -0.0943104094,
				"element": "N" 
			},
			{
				"x": 1.3772185853,
				"y": -0.8482226437,
				"z": 0.4094436488,
				"element": "C" 
			},
			{
				"x": 1.7875402331,
				"y": -0.8308646665,
				"z": 2.1172151723,
				"element": "Cl" 
			},
			{
				"x": 0.383580561,
				"y": -1.0810655997,
				"z": -3.6080531173,
				"element": "N" 
			},
			{
				"x": 0.1141650789,
				"y": -2.2014193499,
				"z": -4.0372297149,
				"element": "O" 
			},
			{
				"x": 0.379163274,
				"y": -0.0466988017,
				"z": -4.27413064,
				"element": "O" 
			},
			{
				"x": 2.7489312015,
				"y": 1.6666559123,
				"z": 0.7566697256,
				"element": "H" 
			},
			{
				"x": 1.0561299611,
				"y": 1.9192618926,
				"z": 1.1608299484,
				"element": "H" 
			},
			{
				"x": 1.6842977515,
				"y": 2.4970511687,
				"z": -0.3953714872,
				"element": "H" 
			},
			{
				"x": 1.0315801833,
				"y": 1.1520439867,
				"z": -2.2889131471,
				"element": "H" 
			},
			{
				"x": 0.5168395927,
				"y": -3.0814614979,
				"z": -1.798949386,
				"element": "H" 
			}
		],
		 "valence_orbital": [ 
			{
				"type": "occ",
				"energy": -0.32511,
				"method": "rhf"
			},
			{
				"type": "occ",
				"energy": -0.31732,
				"method": "rhf"
			},
			{
				"type": "occ",
				"energy": -0.30598,
				"method": "rhf"
			},
			{
				"type": "occ",
				"energy": -0.29503,
				"method": "rhf"
			},
			{
				"type": "occ",
				"energy": -0.28309,
				"method": "rhf"
			},
			{
				"type": "unocc",
				"energy": -0.10558,
				"method": "rhf"
			},
			{
				"type": "unocc",
				"energy": -0.05759,
				"method": "rhf"
			},
			{
				"type": "unocc",
				"energy": -0.02226,
				"method": "rhf"
			},
			{
				"type": "unocc",
				"energy": 0.01805,
				"method": "rhf"
			},
			{
				"type": "unocc",
				"energy": 0.08094,
				"method": "rhf"
			}
		],
		"cosmo_sigma_profile": { 
			"-0.025": 0.0,
			"-0.024": 0.0,
			"-0.023": 0.0,
			"-0.022": 0.0,
			"-0.021": 0.0,
			"-0.02": 0.0,
			"-0.019": 0.0,
			"-0.018": 0.0,
			"-0.017": 0.0,
			"-0.016": 0.0,
			"-0.015": 0.0,
			"-0.014": 0.0,
			"-0.013": 0.0,
			"-0.012": 0.0,
			"-0.011": 0.0,
			"-0.01": 0.0339041236725,
			"-0.009": 2.33670428069,
			"-0.008": 3.51853298608,
			"-0.007": 5.34350183074,
			"-0.006": 6.69011480269,
			"-0.005": 11.7670020465,
			"-0.004": 15.8623159304,
			"-0.003": 22.4829116198,
			"-0.002": 23.3422248034,
			"-0.001": 12.7785072007,
			"0.0": 7.88741555366,
			"0.001": 9.55484236881,
			"0.002": 8.12914702984,
			"0.003": 10.7236025299,
			"0.004": 8.19861515139,
			"0.005": 5.87090581719,
			"0.006": 6.40187018198,
			"0.007": 11.091794199,
			"0.008": 6.2310432961,
			"0.009": 4.60068516702,
			"0.01": 2.10706787945,
			"0.011": 0.843266496677,
			"0.012": 0.511822149353,
			"0.013": 0.864478233903,
			"0.014": 0.0,
			"0.015": 0.0,
			"0.016": 0.0,
			"0.017": 0.0,
			"0.018": 0.0,
			"0.019": 0.0,
			"0.02": 0.0,
			"0.021": 0.0,
			"0.022": 0.0,
			"0.023": 0.0,
			"0.024": 0.0,
			"0.025": 0.0
		}
	}
}
