{
	 "smiles": "CC1=NN(C2=C1C=C(C=N2)C(O)=O)C1=CC=CC=C1", 
	 "Tm": 552.15, 
	 "num_atms": 30, 
	 "gaussian": { 
		 "optdone": 1, 
		 "sigma_profile": "yes", 
		 "theory": "DFT", 
		 "functional": "B3LYP", 
		 "basiset": "6-31G**", 
		 "properties": { 
			 "R2extent": 7286.9837, 
			 "electric_dipole_moment_norm": 2.88661459499, 
			 "electric_quadrupole_moment_norm": 24.1007503962, 
			 "total_energy": -854.8258991, 
			 "HOMO_LUMO_gap": 0.15392, 
			 "cosmo_polarized_energy": -16.26, 
			 "cosmo_cavitation_energy": 34.89, 
			 "cosmo_dispersion_energy": -25.69, 
			 "cosmo_repulsion_energy": 1.94, 
			 "cosmo_total_nonelectrostatic_energy": 11.14, 
			 "SMD_solvation_energy": 5.42 
		},
		"coords": [
			{
				"x": -1.4531842347,
				"y": -2.0898264728,
				"z": -0.8448433991,
				"element": "C" 
			},
			{
				"x": -0.531380229,
				"y": -1.1931224304,
				"z": -0.0826026232,
				"element": "C" 
			},
			{
				"x": -0.6480873424,
				"y": 0.1169558579,
				"z": -0.141321719,
				"element": "N" 
			},
			{
				"x": 0.3257073726,
				"y": 0.6743291237,
				"z": 0.6560520557,
				"element": "N" 
			},
			{
				"x": 1.0835835429,
				"y": -0.313277546,
				"z": 1.2374984985,
				"element": "C" 
			},
			{
				"x": 0.5568376422,
				"y": -1.5519398426,
				"z": 0.7793700536,
				"element": "C" 
			},
			{
				"x": 1.1560480365,
				"y": -2.7257369373,
				"z": 1.2254216292,
				"element": "C" 
			},
			{
				"x": 2.25273161,
				"y": -2.6068024991,
				"z": 2.0835560498,
				"element": "C" 
			},
			{
				"x": 2.6687617258,
				"y": -1.313675409,
				"z": 2.4820453056,
				"element": "C" 
			},
			{
				"x": 2.1138752432,
				"y": -0.1730243822,
				"z": 2.0822673129,
				"element": "N" 
			},
			{
				"x": 2.8971980874,
				"y": -3.8656558337,
				"z": 2.5699990001,
				"element": "C" 
			},
			{
				"x": 4.140868635,
				"y": -3.7594916493,
				"z": 3.1095049828,
				"element": "O" 
			},
			{
				"x": 2.3618541457,
				"y": -4.9473877892,
				"z": 2.4992303536,
				"element": "O" 
			},
			{
				"x": 0.4051353379,
				"y": 2.0938384231,
				"z": 0.7572640585,
				"element": "C" 
			},
			{
				"x": 1.3688281498,
				"y": 2.7078319704,
				"z": 1.5686618761,
				"element": "C" 
			},
			{
				"x": 1.4128054588,
				"y": 4.100332427,
				"z": 1.640274474,
				"element": "C" 
			},
			{
				"x": 0.5141253447,
				"y": 4.8852920237,
				"z": 0.918141497,
				"element": "C" 
			},
			{
				"x": -0.4416202707,
				"y": 4.2619889806,
				"z": 0.1133857831,
				"element": "C" 
			},
			{
				"x": -0.5030454194,
				"y": 2.8734508957,
				"z": 0.027289795,
				"element": "C" 
			},
			{
				"x": -0.8994712196,
				"y": -2.721581634,
				"z": -1.5482938622,
				"element": "H" 
			},
			{
				"x": -2.0044021036,
				"y": -2.7554047176,
				"z": -0.1713242111,
				"element": "H" 
			},
			{
				"x": -2.1716106503,
				"y": -1.4899474051,
				"z": -1.4066146211,
				"element": "H" 
			},
			{
				"x": 0.8125792122,
				"y": -3.7141272855,
				"z": 0.9375406813,
				"element": "H" 
			},
			{
				"x": 3.4827321494,
				"y": -1.1963488345,
				"z": 3.197580408,
				"element": "H" 
			},
			{
				"x": 4.5108779591,
				"y": -2.8804012918,
				"z": 2.9506964927,
				"element": "H" 
			},
			{
				"x": 2.0666892472,
				"y": 2.1022236248,
				"z": 2.1303622341,
				"element": "H" 
			},
			{
				"x": 2.1617939287,
				"y": 4.570175148,
				"z": 2.2712050188,
				"element": "H" 
			},
			{
				"x": 0.5569689245,
				"y": 5.968387149,
				"z": 0.9810654616,
				"element": "H" 
			},
			{
				"x": -1.1490694889,
				"y": 4.858412963,
				"z": -0.4554069693,
				"element": "H" 
			},
			{
				"x": -1.2413307949,
				"y": 2.3840333732,
				"z": -0.594005617,
				"element": "H" 
			}
		],
		 "valence_orbital": [ 
			{
				"type": "occ",
				"energy": -0.28372,
				"method": "rhf"
			},
			{
				"type": "occ",
				"energy": -0.27516,
				"method": "rhf"
			},
			{
				"type": "occ",
				"energy": -0.27309,
				"method": "rhf"
			},
			{
				"type": "occ",
				"energy": -0.25438,
				"method": "rhf"
			},
			{
				"type": "occ",
				"energy": -0.22331,
				"method": "rhf"
			},
			{
				"type": "unocc",
				"energy": -0.06939,
				"method": "rhf"
			},
			{
				"type": "unocc",
				"energy": -0.0538,
				"method": "rhf"
			},
			{
				"type": "unocc",
				"energy": -0.01016,
				"method": "rhf"
			},
			{
				"type": "unocc",
				"energy": -0.0032,
				"method": "rhf"
			},
			{
				"type": "unocc",
				"energy": 0.04327,
				"method": "rhf"
			}
		],
		"cosmo_sigma_profile": { 
			"-0.025": 0.0,
			"-0.024": 0.0,
			"-0.023": 0.0,
			"-0.022": 0.0,
			"-0.021": 0.0,
			"-0.02": 0.0140428029465,
			"-0.019": 0.9054907449,
			"-0.018": 0.943309170619,
			"-0.017": 1.37055719304,
			"-0.016": 0.860533912026,
			"-0.015": 0.714982623154,
			"-0.014": 0.879605310331,
			"-0.013": 1.40634479495,
			"-0.012": 0.999809647436,
			"-0.011": 1.30808857488,
			"-0.01": 1.57625368757,
			"-0.009": 1.26442833888,
			"-0.008": 2.15861150128,
			"-0.007": 3.70613617208,
			"-0.006": 10.6251057163,
			"-0.005": 20.3973193153,
			"-0.004": 19.3666501928,
			"-0.003": 18.3250661865,
			"-0.002": 24.7995264331,
			"-0.001": 27.6059892295,
			"0.0": 22.5975675191,
			"0.001": 14.8949147285,
			"0.002": 18.5257635458,
			"0.003": 15.6576278438,
			"0.004": 15.2388549009,
			"0.005": 16.5566170857,
			"0.006": 7.18041503305,
			"0.007": 5.33894758208,
			"0.008": 5.1174680125,
			"0.009": 4.82854493571,
			"0.01": 5.3696004167,
			"0.011": 5.24945129208,
			"0.012": 3.92990685025,
			"0.013": 1.27118310986,
			"0.014": 0.0201049203482,
			"0.015": 0.0,
			"0.016": 0.0,
			"0.017": 0.0,
			"0.018": 0.0,
			"0.019": 0.0,
			"0.02": 0.0,
			"0.021": 0.0,
			"0.022": 0.0,
			"0.023": 0.0,
			"0.024": 0.0,
			"0.025": 0.0
		}
	}
}
