{
	 "smiles": "ClC1=C2C(SC=C2C2=CC=CC=C2)=NC(=N1)C1=CC=CS1", 
	 "Tm": 417.15, 
	 "num_atms": 30, 
	 "gaussian": { 
		 "optdone": 1, 
		 "sigma_profile": "yes", 
		 "theory": "DFT", 
		 "functional": "B3LYP", 
		 "basiset": "6-31G**", 
		 "properties": { 
			 "R2extent": 9476.0136, 
			 "electric_dipole_moment_norm": 1.44259106125, 
			 "electric_quadrupole_moment_norm": 16.500417779, 
			 "total_energy": -1981.18947552, 
			 "HOMO_LUMO_gap": 0.15013, 
			 "cosmo_polarized_energy": -9.43, 
			 "cosmo_cavitation_energy": 40.31, 
			 "cosmo_dispersion_energy": -29.7, 
			 "cosmo_repulsion_energy": 2.18, 
			 "cosmo_total_nonelectrostatic_energy": 12.79, 
			 "SMD_solvation_energy": 3.58 
		},
		"coords": [
			{
				"x": 0.6459505131,
				"y": -1.8273559535,
				"z": 0.0373738215,
				"element": "Cl" 
			},
			{
				"x": 0.1009924689,
				"y": -0.2235320017,
				"z": 0.497501708,
				"element": "C" 
			},
			{
				"x": -0.7786080295,
				"y": 0.5066150082,
				"z": -0.3299902939,
				"element": "C" 
			},
			{
				"x": -1.103182052,
				"y": 1.7794279954,
				"z": 0.2130349022,
				"element": "C" 
			},
			{
				"x": -2.1957246361,
				"y": 2.6630311557,
				"z": -0.8337488542,
				"element": "S" 
			},
			{
				"x": -2.1986931131,
				"y": 1.3303186245,
				"z": -1.9655767874,
				"element": "C" 
			},
			{
				"x": -1.4280550467,
				"y": 0.2639542587,
				"z": -1.6017559865,
				"element": "C" 
			},
			{
				"x": -1.3195981058,
				"y": -0.9552048511,
				"z": -2.4551925061,
				"element": "C" 
			},
			{
				"x": -2.2269709183,
				"y": -2.0127231744,
				"z": -2.3020495229,
				"element": "C" 
			},
			{
				"x": -2.1463578291,
				"y": -3.137703239,
				"z": -3.1231212355,
				"element": "C" 
			},
			{
				"x": -1.160767473,
				"y": -3.2170541513,
				"z": -4.1087062888,
				"element": "C" 
			},
			{
				"x": -0.2573877523,
				"y": -2.1652334833,
				"z": -4.2719376753,
				"element": "C" 
			},
			{
				"x": -0.3370546272,
				"y": -1.0397435985,
				"z": -3.4514856046,
				"element": "C" 
			},
			{
				"x": -0.6561311385,
				"y": 2.2703623352,
				"z": 1.3621690181,
				"element": "N" 
			},
			{
				"x": 0.1717760457,
				"y": 1.4663079285,
				"z": 2.041896327,
				"element": "C" 
			},
			{
				"x": 0.5613463237,
				"y": 0.2315229436,
				"z": 1.6380462917,
				"element": "N" 
			},
			{
				"x": 0.7006913373,
				"y": 1.94164122,
				"z": 3.3123330362,
				"element": "C" 
			},
			{
				"x": 1.5590766707,
				"y": 1.2864527598,
				"z": 4.1687155396,
				"element": "C" 
			},
			{
				"x": 1.8725258269,
				"y": 2.0473854277,
				"z": 5.3265573057,
				"element": "C" 
			},
			{
				"x": 1.2496070397,
				"y": 3.2699386515,
				"z": 5.3363443714,
				"element": "C" 
			},
			{
				"x": 0.2683799878,
				"y": 3.516524762,
				"z": 3.9329639623,
				"element": "S" 
			},
			{
				"x": -2.7886687023,
				"y": 1.4078406923,
				"z": -2.8689481553,
				"element": "H" 
			},
			{
				"x": -2.9936168964,
				"y": -1.9511254042,
				"z": -1.5352459623,
				"element": "H" 
			},
			{
				"x": -2.8546419003,
				"y": -3.9509973084,
				"z": -2.9935665056,
				"element": "H" 
			},
			{
				"x": -1.098394138,
				"y": -4.0931333425,
				"z": -4.7477493447,
				"element": "H" 
			},
			{
				"x": 0.5093593326,
				"y": -2.2191329092,
				"z": -5.0394593796,
				"element": "H" 
			},
			{
				"x": 0.3657717842,
				"y": -0.2215519708,
				"z": -3.5784814444,
				"element": "H" 
			},
			{
				"x": 1.9377225815,
				"y": 0.2951634359,
				"z": 3.9530827773,
				"element": "H" 
			},
			{
				"x": 2.5301246641,
				"y": 1.7045209737,
				"z": 6.1170166427,
				"element": "H" 
			},
			{
				"x": 1.3121277824,
				"y": 4.0419832152,
				"z": 6.0913798437,
				"element": "H" 
			}
		],
		 "valence_orbital": [ 
			{
				"type": "occ",
				"energy": -0.25626,
				"method": "rhf"
			},
			{
				"type": "occ",
				"energy": -0.25611,
				"method": "rhf"
			},
			{
				"type": "occ",
				"energy": -0.25367,
				"method": "rhf"
			},
			{
				"type": "occ",
				"energy": -0.25221,
				"method": "rhf"
			},
			{
				"type": "occ",
				"energy": -0.21955,
				"method": "rhf"
			},
			{
				"type": "unocc",
				"energy": -0.06942,
				"method": "rhf"
			},
			{
				"type": "unocc",
				"energy": -0.04356,
				"method": "rhf"
			},
			{
				"type": "unocc",
				"energy": -0.01716,
				"method": "rhf"
			},
			{
				"type": "unocc",
				"energy": -0.01202,
				"method": "rhf"
			},
			{
				"type": "unocc",
				"energy": -0.00287,
				"method": "rhf"
			}
		],
		"cosmo_sigma_profile": { 
			"-0.025": 0.0,
			"-0.024": 0.0,
			"-0.023": 0.0,
			"-0.022": 0.0,
			"-0.021": 0.0,
			"-0.02": 0.0,
			"-0.019": 0.0,
			"-0.018": 0.0,
			"-0.017": 0.0,
			"-0.016": 0.0,
			"-0.015": 0.0,
			"-0.014": 0.0,
			"-0.013": 0.0,
			"-0.012": 0.0,
			"-0.011": 0.0,
			"-0.01": 0.71861070644,
			"-0.009": 3.86542848521,
			"-0.008": 4.33103265563,
			"-0.007": 5.98383187655,
			"-0.006": 13.5629060599,
			"-0.005": 17.9546551293,
			"-0.004": 21.4031815361,
			"-0.003": 22.3115522414,
			"-0.002": 25.8825607463,
			"-0.001": 26.062632816,
			"0.0": 29.0899996412,
			"0.001": 31.1245748793,
			"0.002": 30.0748121456,
			"0.003": 38.0495890532,
			"0.004": 29.3912647519,
			"0.005": 17.3741134182,
			"0.006": 5.86904255346,
			"0.007": 3.42033541928,
			"0.008": 3.0276138505,
			"0.009": 2.40921032191,
			"0.01": 0.948993384564,
			"0.011": 0.0,
			"0.012": 0.0,
			"0.013": 0.0,
			"0.014": 0.0,
			"0.015": 0.0,
			"0.016": 0.0,
			"0.017": 0.0,
			"0.018": 0.0,
			"0.019": 0.0,
			"0.02": 0.0,
			"0.021": 0.0,
			"0.022": 0.0,
			"0.023": 0.0,
			"0.024": 0.0,
			"0.025": 0.0
		}
	}
}
