{
	 "smiles": "OC(=O)C1CCCCN1S(=O)(=O)C1=CC=C(Br)S1", 
	 "Tm": 399.15, 
	 "num_atms": 30, 
	 "gaussian": { 
		 "optdone": 1, 
		 "sigma_profile": "yes", 
		 "theory": "DFT", 
		 "functional": "B3LYP", 
		 "basiset": "6-31G**", 
		 "properties": { 
			 "R2extent": 11489.8724, 
			 "electric_dipole_moment_norm": 2.53999648031, 
			 "electric_quadrupole_moment_norm": 18.4100502389, 
			 "total_energy": -4111.63485322, 
			 "HOMO_LUMO_gap": 0.1863, 
			 "cosmo_polarized_energy": -15.41, 
			 "cosmo_cavitation_energy": 37.77, 
			 "cosmo_dispersion_energy": -27.46, 
			 "cosmo_repulsion_energy": 2.04, 
			 "cosmo_total_nonelectrostatic_energy": 12.36, 
			 "SMD_solvation_energy": 4.73 
		},
		"coords": [
			{
				"x": 0.877807959,
				"y": 1.4208717596,
				"z": 2.3165817941,
				"element": "O" 
			},
			{
				"x": 0.410653352,
				"y": 0.2229708178,
				"z": 1.9010303204,
				"element": "C" 
			},
			{
				"x": 1.0236061889,
				"y": -0.8108393659,
				"z": 2.0540095025,
				"element": "O" 
			},
			{
				"x": -0.9396566011,
				"y": 0.3648172235,
				"z": 1.1897706006,
				"element": "C" 
			},
			{
				"x": -1.7196310877,
				"y": -0.9668900165,
				"z": 1.1546491123,
				"element": "C" 
			},
			{
				"x": -2.6188372676,
				"y": -1.0327131723,
				"z": -0.0863363474,
				"element": "C" 
			},
			{
				"x": -1.7750468099,
				"y": -1.0348739077,
				"z": -1.3793342857,
				"element": "C" 
			},
			{
				"x": -0.4914119341,
				"y": -0.1950246456,
				"z": -1.1953057397,
				"element": "C" 
			},
			{
				"x": -0.6503061911,
				"y": 0.862301732,
				"z": -0.1765946598,
				"element": "N" 
			},
			{
				"x": -1.3233791507,
				"y": 2.3233108143,
				"z": -0.6789621031,
				"element": "S" 
			},
			{
				"x": -2.1773038291,
				"y": 2.1073066783,
				"z": -1.8524879472,
				"element": "O" 
			},
			{
				"x": -1.8347395734,
				"y": 2.9952359262,
				"z": 0.5172438831,
				"element": "O" 
			},
			{
				"x": 0.086798143,
				"y": 3.2152286394,
				"z": -1.2846909312,
				"element": "C" 
			},
			{
				"x": 0.2229780459,
				"y": 3.6671068376,
				"z": -2.5721313169,
				"element": "C" 
			},
			{
				"x": 1.4200638599,
				"y": 4.4121385074,
				"z": -2.7705100307,
				"element": "C" 
			},
			{
				"x": 2.1533788116,
				"y": 4.5083140298,
				"z": -1.6181239343,
				"element": "C" 
			},
			{
				"x": 3.8032634822,
				"y": 5.3922501812,
				"z": -1.4070385242,
				"element": "Br" 
			},
			{
				"x": 1.4176785646,
				"y": 3.7010437705,
				"z": -0.2656837944,
				"element": "S" 
			},
			{
				"x": 1.7575428317,
				"y": 1.2594198861,
				"z": 2.6980254144,
				"element": "H" 
			},
			{
				"x": -1.5108051936,
				"y": 1.1416681383,
				"z": 1.7007960923,
				"element": "H" 
			},
			{
				"x": -1.0072908038,
				"y": -1.7983595934,
				"z": 1.1554235175,
				"element": "H" 
			},
			{
				"x": -2.3066228211,
				"y": -1.0548153291,
				"z": 2.0746447435,
				"element": "H" 
			},
			{
				"x": -3.2949205655,
				"y": -0.1696193431,
				"z": -0.0927377629,
				"element": "H" 
			},
			{
				"x": -3.2536915805,
				"y": -1.9233131015,
				"z": -0.0456128119,
				"element": "H" 
			},
			{
				"x": -1.4831816098,
				"y": -2.0586098229,
				"z": -1.6423382348,
				"element": "H" 
			},
			{
				"x": -2.3667191463,
				"y": -0.6382669811,
				"z": -2.2080792743,
				"element": "H" 
			},
			{
				"x": 0.3362760242,
				"y": -0.8203100007,
				"z": -0.8449222189,
				"element": "H" 
			},
			{
				"x": -0.1663069552,
				"y": 0.2653899761,
				"z": -2.1306048454,
				"element": "H" 
			},
			{
				"x": -0.5186460787,
				"y": 3.4704909115,
				"z": -3.3364292783,
				"element": "H" 
			},
			{
				"x": 1.722449936,
				"y": 4.8536694501,
				"z": -3.7113509394,
				"element": "H" 
			}
		],
		 "valence_orbital": [ 
			{
				"type": "occ",
				"energy": -0.30669,
				"method": "rhf"
			},
			{
				"type": "occ",
				"energy": -0.29776,
				"method": "rhf"
			},
			{
				"type": "occ",
				"energy": -0.27966,
				"method": "rhf"
			},
			{
				"type": "occ",
				"energy": -0.26099,
				"method": "rhf"
			},
			{
				"type": "occ",
				"energy": -0.24315,
				"method": "rhf"
			},
			{
				"type": "unocc",
				"energy": -0.05685,
				"method": "rhf"
			},
			{
				"type": "unocc",
				"energy": -0.02233,
				"method": "rhf"
			},
			{
				"type": "unocc",
				"energy": -0.00929,
				"method": "rhf"
			},
			{
				"type": "unocc",
				"energy": 0.00382,
				"method": "rhf"
			},
			{
				"type": "unocc",
				"energy": 0.03068,
				"method": "rhf"
			}
		],
		"cosmo_sigma_profile": { 
			"-0.025": 0.0,
			"-0.024": 0.0,
			"-0.023": 0.0,
			"-0.022": 0.0,
			"-0.021": 0.0,
			"-0.02": 0.0,
			"-0.019": 0.290544805702,
			"-0.018": 0.782433502162,
			"-0.017": 0.912705324812,
			"-0.016": 1.11793536957,
			"-0.015": 0.689572963007,
			"-0.014": 0.372391899498,
			"-0.013": 0.474594851658,
			"-0.012": 0.647975220402,
			"-0.011": 1.02733745037,
			"-0.01": 0.744879788337,
			"-0.009": 2.23311380603,
			"-0.008": 3.95442458059,
			"-0.007": 6.52071219975,
			"-0.006": 8.5985473331,
			"-0.005": 12.9743805657,
			"-0.004": 20.0583232983,
			"-0.003": 27.768452001,
			"-0.002": 28.3631502804,
			"-0.001": 29.538749877,
			"0.0": 33.7617249361,
			"0.001": 27.4922690757,
			"0.002": 24.6207345482,
			"0.003": 15.5909309865,
			"0.004": 7.01158733367,
			"0.005": 5.62883375225,
			"0.006": 5.3334418249,
			"0.007": 5.57048594862,
			"0.008": 5.57523283378,
			"0.009": 7.48592421132,
			"0.01": 8.88696393153,
			"0.011": 9.30977748218,
			"0.012": 1.23666487186,
			"0.013": 0.0,
			"0.014": 0.0,
			"0.015": 0.0,
			"0.016": 0.0,
			"0.017": 0.0,
			"0.018": 0.0,
			"0.019": 0.0,
			"0.02": 0.0,
			"0.021": 0.0,
			"0.022": 0.0,
			"0.023": 0.0,
			"0.024": 0.0,
			"0.025": 0.0
		}
	}
}
