{
	 "smiles": "[O-][N+](=O)C1=CC2=C(NC(=N2)C2=CSC=N2)C=C1", 
	 "Tm": 531.15, 
	 "num_atms": 23, 
	 "gaussian": { 
		 "optdone": 1, 
		 "sigma_profile": "yes", 
		 "theory": "DFT", 
		 "functional": "B3LYP", 
		 "basiset": "6-31G**", 
		 "properties": { 
			 "R2extent": 7908.4734, 
			 "electric_dipole_moment_norm": 9.0415829311, 
			 "electric_quadrupole_moment_norm": 11.1619451078, 
			 "total_energy": -1152.21935912, 
			 "HOMO_LUMO_gap": 0.15948, 
			 "cosmo_polarized_energy": -25.02, 
			 "cosmo_cavitation_energy": 31.1, 
			 "cosmo_dispersion_energy": -23.77, 
			 "cosmo_repulsion_energy": 1.75, 
			 "cosmo_total_nonelectrostatic_energy": 9.08, 
			 "SMD_solvation_energy": 3.98 
		},
		"coords": [
			{
				"x": 3.9658268489,
				"y": 0.9159908704,
				"z": -1.7861297851,
				"element": "O" 
			},
			{
				"x": 3.318084375,
				"y": 1.6771818557,
				"z": -1.0651157338,
				"element": "N" 
			},
			{
				"x": 3.6912311313,
				"y": 2.7998819373,
				"z": -0.7251109598,
				"element": "O" 
			},
			{
				"x": 2.011953297,
				"y": 1.2128636822,
				"z": -0.5785338741,
				"element": "C" 
			},
			{
				"x": 1.2677429265,
				"y": 2.0624554326,
				"z": 0.2328221021,
				"element": "C" 
			},
			{
				"x": 0.0320253868,
				"y": 1.5843857297,
				"z": 0.6737410524,
				"element": "C" 
			},
			{
				"x": -0.4036555283,
				"y": 0.2865683517,
				"z": 0.2942144716,
				"element": "C" 
			},
			{
				"x": -1.630675452,
				"y": 0.1464852147,
				"z": 0.9015347973,
				"element": "N" 
			},
			{
				"x": -1.8864841306,
				"y": 1.329218935,
				"z": 1.5880506517,
				"element": "C" 
			},
			{
				"x": -0.9119501488,
				"y": 2.2009128974,
				"z": 1.4742525048,
				"element": "N" 
			},
			{
				"x": -3.1156950993,
				"y": 1.5165551185,
				"z": 2.3575609882,
				"element": "C" 
			},
			{
				"x": -3.9612206812,
				"y": 0.5119358624,
				"z": 2.7695268465,
				"element": "C" 
			},
			{
				"x": -5.2905042835,
				"y": 1.1716404452,
				"z": 3.6508950381,
				"element": "S" 
			},
			{
				"x": -4.6027348744,
				"y": 2.7642772816,
				"z": 3.3997907903,
				"element": "C" 
			},
			{
				"x": -3.4964984413,
				"y": 2.7917837476,
				"z": 2.7269310443,
				"element": "N" 
			},
			{
				"x": 0.3550666475,
				"y": -0.5556765004,
				"z": -0.5243833543,
				"element": "C" 
			},
			{
				"x": 1.5806260447,
				"y": -0.0719216283,
				"z": -0.9610332508,
				"element": "C" 
			},
			{
				"x": 1.6363605263,
				"y": 3.0436355424,
				"z": 0.5015199044,
				"element": "H" 
			},
			{
				"x": -2.2757249226,
				"y": -0.6171315226,
				"z": 0.7709531757,
				"element": "H" 
			},
			{
				"x": -3.8605160251,
				"y": -0.5565357363,
				"z": 2.6419765973,
				"element": "H" 
			},
			{
				"x": -5.0992082655,
				"y": 3.6442376394,
				"z": 3.7911781106,
				"element": "H" 
			},
			{
				"x": 0.0127476037,
				"y": -1.5446624026,
				"z": -0.8111598294,
				"element": "H" 
			},
			{
				"x": 2.225203065,
				"y": -0.6647827537,
				"z": -1.5966812878,
				"element": "H" 
			}
		],
		 "valence_orbital": [ 
			{
				"type": "occ",
				"energy": -0.29028,
				"method": "rhf"
			},
			{
				"type": "occ",
				"energy": -0.28638,
				"method": "rhf"
			},
			{
				"type": "occ",
				"energy": -0.28045,
				"method": "rhf"
			},
			{
				"type": "occ",
				"energy": -0.2556,
				"method": "rhf"
			},
			{
				"type": "occ",
				"energy": -0.23826,
				"method": "rhf"
			},
			{
				"type": "unocc",
				"energy": -0.07878,
				"method": "rhf"
			},
			{
				"type": "unocc",
				"energy": -0.06462,
				"method": "rhf"
			},
			{
				"type": "unocc",
				"energy": -0.03303,
				"method": "rhf"
			},
			{
				"type": "unocc",
				"energy": -0.00562,
				"method": "rhf"
			},
			{
				"type": "unocc",
				"energy": 0.00546,
				"method": "rhf"
			}
		],
		"cosmo_sigma_profile": { 
			"-0.025": 0.0,
			"-0.024": 0.0,
			"-0.023": 0.0,
			"-0.022": 0.0,
			"-0.021": 0.0,
			"-0.02": 0.0,
			"-0.019": 0.0,
			"-0.018": 0.124847188159,
			"-0.017": 1.78746973063,
			"-0.016": 1.84310299216,
			"-0.015": 1.8073343624,
			"-0.014": 1.87810418223,
			"-0.013": 1.12583353341,
			"-0.012": 2.18517403883,
			"-0.011": 2.39474810832,
			"-0.01": 5.00874680212,
			"-0.009": 5.15463719262,
			"-0.008": 6.68867450921,
			"-0.007": 8.1957958919,
			"-0.006": 8.00364591994,
			"-0.005": 9.61237017363,
			"-0.004": 10.5088422505,
			"-0.003": 9.69039791149,
			"-0.002": 15.6685815545,
			"-0.001": 21.0913992082,
			"0.0": 28.8805615217,
			"0.001": 28.2775260013,
			"0.002": 16.5999443517,
			"0.003": 6.93848588225,
			"0.004": 5.39993110728,
			"0.005": 4.99404582123,
			"0.006": 5.91449874684,
			"0.007": 7.46591660772,
			"0.008": 12.2015765826,
			"0.009": 6.04765655942,
			"0.01": 5.58189359698,
			"0.011": 2.96122458372,
			"0.012": 1.65305268186,
			"0.013": 1.58597472153,
			"0.014": 2.00395209984,
			"0.015": 1.64508141684,
			"0.016": 1.90896684997,
			"0.017": 1.42110669225,
			"0.018": 0.0857906518341,
			"0.019": 0.0,
			"0.02": 0.0,
			"0.021": 0.0,
			"0.022": 0.0,
			"0.023": 0.0,
			"0.024": 0.0,
			"0.025": 0.0
		}
	}
}
