{
	 "smiles": "OC(=O)C#CC1=CC2=C(OCO2)C=C1", 
	 "Tm": 439.15, 
	 "num_atms": 20, 
	 "gaussian": { 
		 "optdone": 1, 
		 "sigma_profile": "yes", 
		 "theory": "DFT", 
		 "functional": "B3LYP", 
		 "basiset": "6-31G**", 
		 "properties": { 
			 "R2extent": 4648.2166, 
			 "electric_dipole_moment_norm": 6.92361910709, 
			 "electric_quadrupole_moment_norm": 8.8703577177, 
			 "total_energy": -685.487295763, 
			 "HOMO_LUMO_gap": 0.15967, 
			 "cosmo_polarized_energy": -16.01, 
			 "cosmo_cavitation_energy": 26.98, 
			 "cosmo_dispersion_energy": -19.92, 
			 "cosmo_repulsion_energy": 1.6, 
			 "cosmo_total_nonelectrostatic_energy": 8.65, 
			 "SMD_solvation_energy": 7.02 
		},
		"coords": [
			{
				"x": -0.9633485492,
				"y": 0.8107305773,
				"z": 3.6022114669,
				"element": "O" 
			},
			{
				"x": -1.8397737778,
				"y": 0.4969557128,
				"z": 2.6095500405,
				"element": "C" 
			},
			{
				"x": -3.0283427102,
				"y": 0.4552313124,
				"z": 2.8201147281,
				"element": "O" 
			},
			{
				"x": -1.2269235604,
				"y": 0.2289277627,
				"z": 1.3265423029,
				"element": "C" 
			},
			{
				"x": -0.7611488909,
				"y": -0.0054465114,
				"z": 0.2275618653,
				"element": "C" 
			},
			{
				"x": -0.2276735744,
				"y": -0.2813870391,
				"z": -1.0614369135,
				"element": "C" 
			},
			{
				"x": 1.1769291588,
				"y": -0.2243188552,
				"z": -1.2738608459,
				"element": "C" 
			},
			{
				"x": 1.6262322169,
				"y": -0.5025600296,
				"z": -2.543735033,
				"element": "C" 
			},
			{
				"x": 0.7545612234,
				"y": -0.8273232435,
				"z": -3.5855665084,
				"element": "C" 
			},
			{
				"x": 1.4652878918,
				"y": -1.0527560562,
				"z": -4.7299462118,
				"element": "O" 
			},
			{
				"x": 2.8484205816,
				"y": -0.8715808859,
				"z": -4.3886200636,
				"element": "C" 
			},
			{
				"x": 2.9182359076,
				"y": -0.5135185437,
				"z": -3.0033172925,
				"element": "O" 
			},
			{
				"x": -0.6150382116,
				"y": -0.8890143771,
				"z": -3.4040721749,
				"element": "C" 
			},
			{
				"x": -1.09776357,
				"y": -0.6097227267,
				"z": -2.1185080822,
				"element": "C" 
			},
			{
				"x": -0.0613232206,
				"y": 0.7951004777,
				"z": 3.2496432414,
				"element": "H" 
			},
			{
				"x": 1.8575481879,
				"y": 0.0272000922,
				"z": -0.4697910815,
				"element": "H" 
			},
			{
				"x": 3.2702152997,
				"y": -0.0647107329,
				"z": -4.9988669396,
				"element": "H" 
			},
			{
				"x": 3.3892152181,
				"y": -1.8109300979,
				"z": -4.5538564533,
				"element": "H" 
			},
			{
				"x": -1.2810091296,
				"y": -1.1420130429,
				"z": -4.2206768734,
				"element": "H" 
			},
			{
				"x": -2.1639004911,
				"y": -0.6452637932,
				"z": -1.9251691713,
				"element": "H" 
			}
		],
		 "valence_orbital": [ 
			{
				"type": "occ",
				"energy": -0.30292,
				"method": "rhf"
			},
			{
				"type": "occ",
				"energy": -0.29755,
				"method": "rhf"
			},
			{
				"type": "occ",
				"energy": -0.27083,
				"method": "rhf"
			},
			{
				"type": "occ",
				"energy": -0.26376,
				"method": "rhf"
			},
			{
				"type": "occ",
				"energy": -0.22377,
				"method": "rhf"
			},
			{
				"type": "unocc",
				"energy": -0.0641,
				"method": "rhf"
			},
			{
				"type": "unocc",
				"energy": -0.01877,
				"method": "rhf"
			},
			{
				"type": "unocc",
				"energy": 0.01546,
				"method": "rhf"
			},
			{
				"type": "unocc",
				"energy": 0.02168,
				"method": "rhf"
			},
			{
				"type": "unocc",
				"energy": 0.07848,
				"method": "rhf"
			}
		],
		"cosmo_sigma_profile": { 
			"-0.025": 0.0,
			"-0.024": 0.0,
			"-0.023": 0.0,
			"-0.022": 0.0,
			"-0.021": 0.0,
			"-0.02": 0.0488140066393,
			"-0.019": 0.62264298791,
			"-0.018": 1.0981772688,
			"-0.017": 0.611118718392,
			"-0.016": 0.673318207144,
			"-0.015": 0.554792141289,
			"-0.014": 0.499195180658,
			"-0.013": 1.68071146513,
			"-0.012": 1.02237254453,
			"-0.011": 0.524583535792,
			"-0.01": 0.723543916372,
			"-0.009": 0.958866501349,
			"-0.008": 11.3507262089,
			"-0.007": 12.7909922387,
			"-0.006": 12.2541926421,
			"-0.005": 9.80203084707,
			"-0.004": 8.12936302687,
			"-0.003": 10.3994800595,
			"-0.002": 11.1027034883,
			"-0.001": 11.0385079514,
			"0.0": 13.1942532554,
			"0.001": 19.9824408716,
			"0.002": 22.8415910367,
			"0.003": 14.6355630828,
			"0.004": 7.07679598547,
			"0.005": 4.78295128089,
			"0.006": 5.56174618789,
			"0.007": 4.93249286338,
			"0.008": 6.67125276215,
			"0.009": 5.57627705425,
			"0.01": 5.95081380444,
			"0.011": 6.28941792268,
			"0.012": 4.22283237325,
			"0.013": 0.622514750284,
			"0.014": 0.0,
			"0.015": 0.0,
			"0.016": 0.0,
			"0.017": 0.0,
			"0.018": 0.0,
			"0.019": 0.0,
			"0.02": 0.0,
			"0.021": 0.0,
			"0.022": 0.0,
			"0.023": 0.0,
			"0.024": 0.0,
			"0.025": 0.0
		}
	}
}
