{
	 "smiles": "CC(=O)OC1=CC=CC=C1C(=O)OCC(=O)N1CCOCC1", 
	 "Tm": 370.65, 
	 "num_atms": 39, 
	 "gaussian": { 
		 "optdone": 1, 
		 "sigma_profile": "yes", 
		 "theory": "DFT", 
		 "functional": "B3LYP", 
		 "basiset": "6-31G**", 
		 "properties": { 
			 "R2extent": 7069.145, 
			 "electric_dipole_moment_norm": 5.02986940785, 
			 "electric_quadrupole_moment_norm": 18.8860427335, 
			 "total_energy": -1087.94480549, 
			 "HOMO_LUMO_gap": 0.17809, 
			 "cosmo_polarized_energy": -21.63, 
			 "cosmo_cavitation_energy": 43.03, 
			 "cosmo_dispersion_energy": -27.89, 
			 "cosmo_repulsion_energy": 2.15, 
			 "cosmo_total_nonelectrostatic_energy": 17.29, 
			 "SMD_solvation_energy": 9.17 
		},
		"coords": [
			{
				"x": 1.5174514265,
				"y": 2.1396242867,
				"z": -3.4893035205,
				"element": "C" 
			},
			{
				"x": 1.0811019652,
				"y": 0.7087599254,
				"z": -3.3127634505,
				"element": "C" 
			},
			{
				"x": 0.172914169,
				"y": 0.1588513496,
				"z": -3.8786424044,
				"element": "O" 
			},
			{
				"x": 1.8919068369,
				"y": 0.0841921158,
				"z": -2.3890451736,
				"element": "O" 
			},
			{
				"x": 1.6201897738,
				"y": -1.2442072857,
				"z": -2.0734078402,
				"element": "C" 
			},
			{
				"x": 2.4881893187,
				"y": -2.1946911084,
				"z": -2.6066956827,
				"element": "C" 
			},
			{
				"x": 2.3284086877,
				"y": -3.5440624779,
				"z": -2.2992527936,
				"element": "C" 
			},
			{
				"x": 1.2889622304,
				"y": -3.9479570924,
				"z": -1.4588727036,
				"element": "C" 
			},
			{
				"x": 0.4257361009,
				"y": -2.9963693628,
				"z": -0.9285286179,
				"element": "C" 
			},
			{
				"x": 0.5732449519,
				"y": -1.6283723395,
				"z": -1.2153197688,
				"element": "C" 
			},
			{
				"x": -0.412692108,
				"y": -0.7250154812,
				"z": -0.5490122825,
				"element": "C" 
			},
			{
				"x": -1.3530993134,
				"y": -1.1264052038,
				"z": 0.1034613822,
				"element": "O" 
			},
			{
				"x": -0.1478351109,
				"y": 0.5981915381,
				"z": -0.7079852238,
				"element": "O" 
			},
			{
				"x": -1.0579162611,
				"y": 1.4971901612,
				"z": -0.044627597,
				"element": "C" 
			},
			{
				"x": -0.9446961517,
				"y": 1.5783074509,
				"z": 1.4860456612,
				"element": "C" 
			},
			{
				"x": -1.9787516402,
				"y": 1.7042267756,
				"z": 2.1305077315,
				"element": "O" 
			},
			{
				"x": 0.2946499434,
				"y": 1.5320861112,
				"z": 2.0730683115,
				"element": "N" 
			},
			{
				"x": 0.3698936216,
				"y": 1.6018690978,
				"z": 3.5353652382,
				"element": "C" 
			},
			{
				"x": 1.4659011324,
				"y": 0.6609173818,
				"z": 4.0305213884,
				"element": "C" 
			},
			{
				"x": 2.7168575204,
				"y": 0.9474979793,
				"z": 3.4137693066,
				"element": "O" 
			},
			{
				"x": 2.632912946,
				"y": 0.8180468132,
				"z": 2.003018837,
				"element": "C" 
			},
			{
				"x": 1.5835548354,
				"y": 1.7651692173,
				"z": 1.4153985832,
				"element": "C" 
			},
			{
				"x": 2.5901794576,
				"y": 2.1905605037,
				"z": -3.6937558956,
				"element": "H" 
			},
			{
				"x": 0.9544943091,
				"y": 2.5911539682,
				"z": -4.3053710125,
				"element": "H" 
			},
			{
				"x": 1.3330031158,
				"y": 2.6934016483,
				"z": -2.563681592,
				"element": "H" 
			},
			{
				"x": 3.2837464445,
				"y": -1.8559755046,
				"z": -3.2617510615,
				"element": "H" 
			},
			{
				"x": 3.0117224635,
				"y": -4.2757298888,
				"z": -2.7198031249,
				"element": "H" 
			},
			{
				"x": 1.1537547218,
				"y": -4.9973621826,
				"z": -1.2174602705,
				"element": "H" 
			},
			{
				"x": -0.3893247907,
				"y": -3.2823796184,
				"z": -0.2731811696,
				"element": "H" 
			},
			{
				"x": -2.0889157303,
				"y": 1.2101869929,
				"z": -0.2481249811,
				"element": "H" 
			},
			{
				"x": -0.8521073111,
				"y": 2.4757344339,
				"z": -0.4876952129,
				"element": "H" 
			},
			{
				"x": 0.5983745114,
				"y": 2.631758374,
				"z": 3.8465618127,
				"element": "H" 
			},
			{
				"x": -0.606714267,
				"y": 1.3320273747,
				"z": 3.9387591058,
				"element": "H" 
			},
			{
				"x": 1.1742637308,
				"y": -0.3827033598,
				"z": 3.8297939287,
				"element": "H" 
			},
			{
				"x": 1.6152087037,
				"y": 0.781093667,
				"z": 5.1072896694,
				"element": "H" 
			},
			{
				"x": 3.6236366508,
				"y": 1.0573638007,
				"z": 1.6056004006,
				"element": "H" 
			},
			{
				"x": 2.3836510253,
				"y": -0.2193790502,
				"z": 1.7255064247,
				"element": "H" 
			},
			{
				"x": 1.9006631109,
				"y": 2.8033116624,
				"z": 1.5983164883,
				"element": "H" 
			},
			{
				"x": 1.5031789789,
				"y": 1.6041873265,
				"z": 0.3418971099,
				"element": "H" 
			}
		],
		 "valence_orbital": [ 
			{
				"type": "occ",
				"energy": -0.2732,
				"method": "rhf"
			},
			{
				"type": "occ",
				"energy": -0.27183,
				"method": "rhf"
			},
			{
				"type": "occ",
				"energy": -0.26321,
				"method": "rhf"
			},
			{
				"type": "occ",
				"energy": -0.25239,
				"method": "rhf"
			},
			{
				"type": "occ",
				"energy": -0.23658,
				"method": "rhf"
			},
			{
				"type": "unocc",
				"energy": -0.05849,
				"method": "rhf"
			},
			{
				"type": "unocc",
				"energy": -0.0197,
				"method": "rhf"
			},
			{
				"type": "unocc",
				"energy": 0.00019,
				"method": "rhf"
			},
			{
				"type": "unocc",
				"energy": 0.01125,
				"method": "rhf"
			},
			{
				"type": "unocc",
				"energy": 0.04398,
				"method": "rhf"
			}
		],
		"cosmo_sigma_profile": { 
			"-0.025": 0.0,
			"-0.024": 0.0,
			"-0.023": 0.0,
			"-0.022": 0.0,
			"-0.021": 0.0,
			"-0.02": 0.0,
			"-0.019": 0.0,
			"-0.018": 0.0,
			"-0.017": 0.0,
			"-0.016": 0.0,
			"-0.015": 0.0,
			"-0.014": 0.0,
			"-0.013": 0.0,
			"-0.012": 0.0,
			"-0.011": 0.0,
			"-0.01": 0.0,
			"-0.009": 1.01454807993,
			"-0.008": 3.56853399607,
			"-0.007": 11.6206222968,
			"-0.006": 20.9079762258,
			"-0.005": 32.6828954789,
			"-0.004": 43.0137586605,
			"-0.003": 37.8813024835,
			"-0.002": 26.2701609641,
			"-0.001": 19.3186686549,
			"0.0": 15.707221108,
			"0.001": 18.2342619869,
			"0.002": 18.2341929456,
			"0.003": 17.759642947,
			"0.004": 7.79057744969,
			"0.005": 6.51901219057,
			"0.006": 6.08500842725,
			"0.007": 6.60412864592,
			"0.008": 5.96933575993,
			"0.009": 7.21930284501,
			"0.01": 8.64273891589,
			"0.011": 10.6277952388,
			"0.012": 6.46920729714,
			"0.013": 6.55789243736,
			"0.014": 2.07517013644,
			"0.015": 0.0119905910839,
			"0.016": 0.0,
			"0.017": 0.0,
			"0.018": 0.0,
			"0.019": 0.0,
			"0.02": 0.0,
			"0.021": 0.0,
			"0.022": 0.0,
			"0.023": 0.0,
			"0.024": 0.0,
			"0.025": 0.0
		}
	}
}
