{
	 "smiles": "OC(=O)CCBr", 
	 "Tm": 334.35, 
	 "num_atms": 11, 
	 "gaussian": { 
		 "optdone": 1, 
		 "sigma_profile": "yes", 
		 "theory": "DFT", 
		 "functional": "B3LYP", 
		 "basiset": "6-31G**", 
		 "properties": { 
			 "R2extent": 1379.2978, 
			 "electric_dipole_moment_norm": 2.60247465502, 
			 "electric_quadrupole_moment_norm": 6.43802936775, 
			 "total_energy": -2839.2030755, 
			 "HOMO_LUMO_gap": 0.2659, 
			 "cosmo_polarized_energy": -10.72, 
			 "cosmo_cavitation_energy": 17.41, 
			 "cosmo_dispersion_energy": -13.23, 
			 "cosmo_repulsion_energy": 1.17, 
			 "cosmo_total_nonelectrostatic_energy": 5.36, 
			 "SMD_solvation_energy": 3.13 
		},
		"coords": [
			{
				"x": 1.2832178412,
				"y": 0.8071829493,
				"z": -1.717579918,
				"element": "O" 
			},
			{
				"x": 0.1730996021,
				"y": 0.5468963147,
				"z": -0.9929721721,
				"element": "C" 
			},
			{
				"x": -0.8864010882,
				"y": 1.1006656693,
				"z": -1.1811369846,
				"element": "O" 
			},
			{
				"x": 0.4166254815,
				"y": -0.5492631797,
				"z": 0.0278549105,
				"element": "C" 
			},
			{
				"x": -0.5252582861,
				"y": -0.4549382721,
				"z": 1.2150159165,
				"element": "C" 
			},
			{
				"x": -0.0315638052,
				"y": 1.0390261534,
				"z": 2.4169651418,
				"element": "Br" 
			},
			{
				"x": 1.033383682,
				"y": 1.4876903826,
				"z": -2.3657452445,
				"element": "H" 
			},
			{
				"x": 1.4645835416,
				"y": -0.5517377577,
				"z": 0.3350644744,
				"element": "H" 
			},
			{
				"x": 0.2329758422,
				"y": -1.5037089621,
				"z": -0.4876996987,
				"element": "H" 
			},
			{
				"x": -0.4899932312,
				"y": -1.3490484802,
				"z": 1.8346243637,
				"element": "H" 
			},
			{
				"x": -1.5445695799,
				"y": -0.2469648175,
				"z": 0.8950092109,
				"element": "H" 
			}
		],
		 "valence_orbital": [ 
			{
				"type": "occ",
				"energy": -0.35918,
				"method": "rhf"
			},
			{
				"type": "occ",
				"energy": -0.32754,
				"method": "rhf"
			},
			{
				"type": "occ",
				"energy": -0.28634,
				"method": "rhf"
			},
			{
				"type": "occ",
				"energy": -0.27592,
				"method": "rhf"
			},
			{
				"type": "occ",
				"energy": -0.27274,
				"method": "rhf"
			},
			{
				"type": "unocc",
				"energy": -0.00684,
				"method": "rhf"
			},
			{
				"type": "unocc",
				"energy": 0.00579,
				"method": "rhf"
			},
			{
				"type": "unocc",
				"energy": 0.07207,
				"method": "rhf"
			},
			{
				"type": "unocc",
				"energy": 0.09695,
				"method": "rhf"
			},
			{
				"type": "unocc",
				"energy": 0.13384,
				"method": "rhf"
			}
		],
		"cosmo_sigma_profile": { 
			"-0.025": 0.0,
			"-0.024": 0.0,
			"-0.023": 0.0,
			"-0.022": 0.0,
			"-0.021": 0.0,
			"-0.02": 0.0,
			"-0.019": 0.0438711342775,
			"-0.018": 1.08272165982,
			"-0.017": 0.659022994896,
			"-0.016": 0.732044254914,
			"-0.015": 0.868788000481,
			"-0.014": 1.41282850137,
			"-0.013": 0.270368273244,
			"-0.012": 0.367403457972,
			"-0.011": 1.07195119476,
			"-0.01": 0.768936633514,
			"-0.009": 0.84964157736,
			"-0.008": 5.23591561357,
			"-0.007": 8.59497934142,
			"-0.006": 9.16792443195,
			"-0.005": 9.04229409813,
			"-0.004": 8.27074271481,
			"-0.003": 4.86675638319,
			"-0.002": 5.36917992507,
			"-0.001": 7.02228691147,
			"0.0": 6.10896362432,
			"0.001": 6.73176222449,
			"0.002": 6.20466893394,
			"0.003": 5.90412482041,
			"0.004": 7.64219878999,
			"0.005": 10.1790750685,
			"0.006": 12.4425846579,
			"0.007": 4.87417559764,
			"0.008": 2.128587933,
			"0.009": 3.32862771216,
			"0.01": 2.37780827569,
			"0.011": 4.39992504457,
			"0.012": 2.51984685715,
			"0.013": 0.0,
			"0.014": 0.0,
			"0.015": 0.0,
			"0.016": 0.0,
			"0.017": 0.0,
			"0.018": 0.0,
			"0.019": 0.0,
			"0.02": 0.0,
			"0.021": 0.0,
			"0.022": 0.0,
			"0.023": 0.0,
			"0.024": 0.0,
			"0.025": 0.0
		}
	}
}
