{
	 "smiles": "COCCN1N=NN=C1N", 
	 "Tm": 388.15, 
	 "num_atms": 19, 
	 "gaussian": { 
		 "optdone": 1, 
		 "sigma_profile": "yes", 
		 "theory": "DFT", 
		 "functional": "B3LYP", 
		 "basiset": "6-31G**", 
		 "properties": { 
			 "R2extent": 1844.2089, 
			 "electric_dipole_moment_norm": 7.35245747625, 
			 "electric_quadrupole_moment_norm": 11.7443911886, 
			 "total_energy": -506.767261504, 
			 "HOMO_LUMO_gap": 0.24419, 
			 "cosmo_polarized_energy": -18.07, 
			 "cosmo_cavitation_energy": 22.78, 
			 "cosmo_dispersion_energy": -16.7, 
			 "cosmo_repulsion_energy": 1.37, 
			 "cosmo_total_nonelectrostatic_energy": 7.45, 
			 "SMD_solvation_energy": 2.39 
		},
		"coords": [
			{
				"x": 3.0807700197,
				"y": -0.8499550173,
				"z": -1.3527880191,
				"element": "C" 
			},
			{
				"x": 1.7683453826,
				"y": -0.346852955,
				"z": -1.5441084568,
				"element": "O" 
			},
			{
				"x": 0.779809076,
				"y": -1.0923368119,
				"z": -0.8491930266,
				"element": "C" 
			},
			{
				"x": -0.570109304,
				"y": -0.4132318406,
				"z": -1.0438883083,
				"element": "C" 
			},
			{
				"x": -0.6726682429,
				"y": 0.8696798802,
				"z": -0.3724830206,
				"element": "N" 
			},
			{
				"x": -1.3783917286,
				"y": 1.0176917541,
				"z": 0.7958191824,
				"element": "N" 
			},
			{
				"x": -1.3203509972,
				"y": 2.2674078803,
				"z": 1.0933571727,
				"element": "N" 
			},
			{
				"x": -0.5932809567,
				"y": 2.9739081742,
				"z": 0.1829121798,
				"element": "N" 
			},
			{
				"x": -0.1991144204,
				"y": 2.0890811583,
				"z": -0.721263818,
				"element": "C" 
			},
			{
				"x": 0.5104124294,
				"y": 2.333765903,
				"z": -1.8704001206,
				"element": "N" 
			},
			{
				"x": 3.1683412817,
				"y": -1.8849476595,
				"z": -1.7136549389,
				"element": "H" 
			},
			{
				"x": 3.3725116865,
				"y": -0.8206463798,
				"z": -0.2932249681,
				"element": "H" 
			},
			{
				"x": 3.7583504178,
				"y": -0.2155409909,
				"z": -1.9277047593,
				"element": "H" 
			},
			{
				"x": 0.7278566931,
				"y": -2.1202134956,
				"z": -1.2429755043,
				"element": "H" 
			},
			{
				"x": 1.0185259057,
				"y": -1.1493365044,
				"z": 0.2235981348,
				"element": "H" 
			},
			{
				"x": -1.3626114753,
				"y": -1.0422254089,
				"z": -0.6328169992,
				"element": "H" 
			},
			{
				"x": -0.7583081395,
				"y": -0.2656655775,
				"z": -2.1128517461,
				"element": "H" 
			},
			{
				"x": 0.8763498428,
				"y": 3.2761483882,
				"z": -1.8974935351,
				"element": "H" 
			},
			{
				"x": 1.1980625291,
				"y": 1.6168695031,
				"z": -2.0805394488,
				"element": "H" 
			}
		],
		 "valence_orbital": [ 
			{
				"type": "occ",
				"energy": -0.29274,
				"method": "rhf"
			},
			{
				"type": "occ",
				"energy": -0.29047,
				"method": "rhf"
			},
			{
				"type": "occ",
				"energy": -0.27714,
				"method": "rhf"
			},
			{
				"type": "occ",
				"energy": -0.26454,
				"method": "rhf"
			},
			{
				"type": "occ",
				"energy": -0.23698,
				"method": "rhf"
			},
			{
				"type": "unocc",
				"energy": 0.00721,
				"method": "rhf"
			},
			{
				"type": "unocc",
				"energy": 0.05374,
				"method": "rhf"
			},
			{
				"type": "unocc",
				"energy": 0.06586,
				"method": "rhf"
			},
			{
				"type": "unocc",
				"energy": 0.08663,
				"method": "rhf"
			},
			{
				"type": "unocc",
				"energy": 0.09802,
				"method": "rhf"
			}
		],
		"cosmo_sigma_profile": { 
			"-0.025": 0.0,
			"-0.024": 0.0,
			"-0.023": 0.0,
			"-0.022": 0.0,
			"-0.021": 0.0,
			"-0.02": 0.0,
			"-0.019": 0.0,
			"-0.018": 0.0,
			"-0.017": 0.0,
			"-0.016": 0.0,
			"-0.015": 0.0998151132207,
			"-0.014": 0.943536452418,
			"-0.013": 1.36348737333,
			"-0.012": 0.950019818798,
			"-0.011": 1.18421692562,
			"-0.01": 1.64370195743,
			"-0.009": 1.81474045811,
			"-0.008": 4.12797164652,
			"-0.007": 5.89740125902,
			"-0.006": 9.81553364394,
			"-0.005": 19.3260297883,
			"-0.004": 20.5097236569,
			"-0.003": 18.1866615615,
			"-0.002": 15.3220004559,
			"-0.001": 8.14721966544,
			"0.0": 6.42110747249,
			"0.001": 5.65493373954,
			"0.002": 4.525836711,
			"0.003": 3.99046218912,
			"0.004": 3.96867174533,
			"0.005": 3.50809639139,
			"0.006": 3.45010714199,
			"0.007": 4.06176384192,
			"0.008": 5.02601306878,
			"0.009": 5.41077313279,
			"0.01": 5.45117355196,
			"0.011": 5.36139184076,
			"0.012": 5.38991593719,
			"0.013": 3.41125708352,
			"0.014": 2.31445531528,
			"0.015": 1.79614440591,
			"0.016": 0.695911405661,
			"0.017": 0.0130999899027,
			"0.018": 0.0,
			"0.019": 0.0,
			"0.02": 0.0,
			"0.021": 0.0,
			"0.022": 0.0,
			"0.023": 0.0,
			"0.024": 0.0,
			"0.025": 0.0
		}
	}
}
