{
	 "smiles": "BrC1=C2CCCC(=O)NC2=CC=C1", 
	 "Tm": 443.15, 
	 "num_atms": 23, 
	 "gaussian": { 
		 "optdone": 1, 
		 "sigma_profile": "yes", 
		 "theory": "DFT", 
		 "functional": "B3LYP", 
		 "basiset": "6-31G**", 
		 "properties": { 
			 "R2extent": 4019.9085, 
			 "electric_dipole_moment_norm": 1.77917384198, 
			 "electric_quadrupole_moment_norm": 17.1481145818, 
			 "total_energy": -3088.49039402, 
			 "HOMO_LUMO_gap": 0.20403, 
			 "cosmo_polarized_energy": -10.67, 
			 "cosmo_cavitation_energy": 27.52, 
			 "cosmo_dispersion_energy": -21.07, 
			 "cosmo_repulsion_energy": 1.65, 
			 "cosmo_total_nonelectrostatic_energy": 8.1, 
			 "SMD_solvation_energy": 3.65 
		},
		"coords": [
			{
				"x": 2.8520814602,
				"y": 0.8347998077,
				"z": -2.0999350717,
				"element": "Br" 
			},
			{
				"x": 1.8912611486,
				"y": 1.3789495738,
				"z": -0.5241026562,
				"element": "C" 
			},
			{
				"x": 0.8792481732,
				"y": 0.5500406007,
				"z": 0.0039006442,
				"element": "C" 
			},
			{
				"x": 0.5586721621,
				"y": -0.7407217637,
				"z": -0.7318504643,
				"element": "C" 
			},
			{
				"x": -0.6327079259,
				"y": -1.5825917139,
				"z": -0.2793352513,
				"element": "C" 
			},
			{
				"x": -0.5574685694,
				"y": -2.0091235975,
				"z": 1.1931277065,
				"element": "C" 
			},
			{
				"x": -1.1286458971,
				"y": -0.9607519168,
				"z": 2.1175328604,
				"element": "C" 
			},
			{
				"x": -1.921074962,
				"y": -1.2197030717,
				"z": 3.0115127509,
				"element": "O" 
			},
			{
				"x": -0.7785277266,
				"y": 0.3637993577,
				"z": 1.8965764954,
				"element": "N" 
			},
			{
				"x": 0.2545394115,
				"y": 1.0177454089,
				"z": 1.1862564701,
				"element": "C" 
			},
			{
				"x": 0.6253350568,
				"y": 2.2614399251,
				"z": 1.7352300142,
				"element": "C" 
			},
			{
				"x": 1.6068830807,
				"y": 3.0503971734,
				"z": 1.1588790698,
				"element": "C" 
			},
			{
				"x": 2.2639774825,
				"y": 2.6042891349,
				"z": 0.0150754379,
				"element": "C" 
			},
			{
				"x": 0.4266730653,
				"y": -0.4931499659,
				"z": -1.7909862189,
				"element": "H" 
			},
			{
				"x": 1.4569258352,
				"y": -1.3730204597,
				"z": -0.7022240084,
				"element": "H" 
			},
			{
				"x": -1.5760837268,
				"y": -1.0558194143,
				"z": -0.4643102444,
				"element": "H" 
			},
			{
				"x": -0.653859233,
				"y": -2.4770324273,
				"z": -0.9109810164,
				"element": "H" 
			},
			{
				"x": -1.1318641098,
				"y": -2.9173777966,
				"z": 1.3857974748,
				"element": "H" 
			},
			{
				"x": 0.4842093605,
				"y": -2.2168396038,
				"z": 1.474415391,
				"element": "H" 
			},
			{
				"x": -1.2279672031,
				"y": 0.9472912443,
				"z": 2.592535327,
				"element": "H" 
			},
			{
				"x": 0.128187583,
				"y": 2.5977439777,
				"z": 2.6411501558,
				"element": "H" 
			},
			{
				"x": 1.8708972999,
				"y": 4.004415836,
				"z": 1.6042487957,
				"element": "H" 
			},
			{
				"x": 3.047008234,
				"y": 3.1893196912,
				"z": -0.4511136621,
				"element": "H" 
			}
		],
		 "valence_orbital": [ 
			{
				"type": "occ",
				"energy": -0.29757,
				"method": "rhf"
			},
			{
				"type": "occ",
				"energy": -0.28836,
				"method": "rhf"
			},
			{
				"type": "occ",
				"energy": -0.25706,
				"method": "rhf"
			},
			{
				"type": "occ",
				"energy": -0.24951,
				"method": "rhf"
			},
			{
				"type": "occ",
				"energy": -0.22611,
				"method": "rhf"
			},
			{
				"type": "unocc",
				"energy": -0.02208,
				"method": "rhf"
			},
			{
				"type": "unocc",
				"energy": -0.02143,
				"method": "rhf"
			},
			{
				"type": "unocc",
				"energy": 0.0014,
				"method": "rhf"
			},
			{
				"type": "unocc",
				"energy": 0.03013,
				"method": "rhf"
			},
			{
				"type": "unocc",
				"energy": 0.07527,
				"method": "rhf"
			}
		],
		"cosmo_sigma_profile": { 
			"-0.025": 0.0,
			"-0.024": 0.0,
			"-0.023": 0.0,
			"-0.022": 0.0,
			"-0.021": 0.0,
			"-0.02": 0.0,
			"-0.019": 0.0,
			"-0.018": 0.0,
			"-0.017": 0.0,
			"-0.016": 0.0,
			"-0.015": 0.0269764877712,
			"-0.014": 0.846341300725,
			"-0.013": 1.27259352119,
			"-0.012": 0.983081381412,
			"-0.011": 1.32497832793,
			"-0.01": 1.07229374271,
			"-0.009": 1.01485321393,
			"-0.008": 1.2642137978,
			"-0.007": 3.54926459098,
			"-0.006": 8.92756944134,
			"-0.005": 13.0016241177,
			"-0.004": 19.8184405972,
			"-0.003": 22.1261248331,
			"-0.002": 20.9271799936,
			"-0.001": 17.302575849,
			"0.0": 12.4132272154,
			"0.001": 13.6492983722,
			"0.002": 17.532092923,
			"0.003": 19.8964942118,
			"0.004": 17.7625477517,
			"0.005": 7.48212477861,
			"0.006": 1.26329562163,
			"0.007": 1.82957224332,
			"0.008": 0.582235356399,
			"0.009": 0.974739257052,
			"0.01": 1.50771741047,
			"0.011": 1.68635433491,
			"0.012": 2.93574183379,
			"0.013": 5.4465901804,
			"0.014": 2.70403871512,
			"0.015": 0.192378400875,
			"0.016": 0.0,
			"0.017": 0.0,
			"0.018": 0.0,
			"0.019": 0.0,
			"0.02": 0.0,
			"0.021": 0.0,
			"0.022": 0.0,
			"0.023": 0.0,
			"0.024": 0.0,
			"0.025": 0.0
		}
	}
}
