{
	 "smiles": "OC(=O)COC1=CC=C(I)C=C1", 
	 "Tm": 430.15, 
	 "num_atms": 19, 
	 "gaussian": { 
		 "optdone": 1, 
		 "sigma_profile": "no", 
		 "theory": "DFT", 
		 "functional": "B3LYP", 
		 "basiset": "6-31G**", 
		 "properties": { 
			 "R2extent": 2530.7039, 
			 "electric_dipole_moment_norm": 1.85664207913, 
			 "electric_quadrupole_moment_norm": 5.57218759734, 
			 "total_energy": -546.122140064, 
			 "HOMO_LUMO_gap": 0.18816, 
			 "cosmo_polarized_energy": -103242.8, 
			 "cosmo_cavitation_energy": 27.16, 
			 "cosmo_dispersion_energy": -21.17, 
			 "cosmo_repulsion_energy": 1.68, 
			 "cosmo_total_nonelectrostatic_energy": 7.67, 
			 "SMD_solvation_energy": 5.27 
		},
		"coords": [
			{
				"x": 1.8201730799,
				"y": 1.3566471973,
				"z": 1.2966794585,
				"element": "O" 
			},
			{
				"x": 1.8359207282,
				"y": 0.0780548174,
				"z": 1.7128111763,
				"element": "C" 
			},
			{
				"x": 2.8427631123,
				"y": -0.5793197904,
				"z": 1.8518530199,
				"element": "O" 
			},
			{
				"x": 0.4448975703,
				"y": -0.4532895508,
				"z": 2.0512689185,
				"element": "C" 
			},
			{
				"x": -0.6283904937,
				"y": 0.2063039747,
				"z": 1.4160665736,
				"element": "O" 
			},
			{
				"x": -0.8342010524,
				"y": -0.0129504199,
				"z": 0.0793345534,
				"element": "C" 
			},
			{
				"x": -0.0343106491,
				"y": -0.827450707,
				"z": -0.7286013508,
				"element": "C" 
			},
			{
				"x": -0.3486234973,
				"y": -0.9841425696,
				"z": -2.0826109274,
				"element": "C" 
			},
			{
				"x": -1.4531873161,
				"y": -0.3306404603,
				"z": -2.6225187531,
				"element": "C" 
			},
			{
				"x": -1.9232020126,
				"y": -0.5716059252,
				"z": -4.6762209265,
				"element": "I" 
			},
			{
				"x": -2.2541130768,
				"y": 0.4867161813,
				"z": -1.8176770961,
				"element": "C" 
			},
			{
				"x": -1.9429981435,
				"y": 0.6425429557,
				"z": -0.4718501791,
				"element": "C" 
			},
			{
				"x": 2.7457243458,
				"y": 1.6004371351,
				"z": 1.1241668254,
				"element": "H" 
			},
			{
				"x": 0.2917925443,
				"y": -0.2995813746,
				"z": 3.1244485884,
				"element": "H" 
			},
			{
				"x": 0.4459711004,
				"y": -1.5327878105,
				"z": 1.8645237279,
				"element": "H" 
			},
			{
				"x": 0.8342873887,
				"y": -1.3423985892,
				"z": -0.3342974127,
				"element": "H" 
			},
			{
				"x": 0.2769436812,
				"y": -1.6163238637,
				"z": -2.7027115241,
				"element": "H" 
			},
			{
				"x": -3.1147559259,
				"y": 0.9982836156,
				"z": -2.2336873138,
				"element": "H" 
			},
			{
				"x": -2.5498913838,
				"y": 1.270705184,
				"z": 0.1716226416,
				"element": "H" 
			}
		],
		 "valence_orbital": [ 
			{
				"type": "occ",
				"energy": -0.29462,
				"method": "rhf"
			},
			{
				"type": "occ",
				"energy": -0.27691,
				"method": "rhf"
			},
			{
				"type": "occ",
				"energy": -0.26772,
				"method": "rhf"
			},
			{
				"type": "occ",
				"energy": -0.26727,
				"method": "rhf"
			},
			{
				"type": "occ",
				"energy": -0.22542,
				"method": "rhf"
			},
			{
				"type": "unocc",
				"energy": -0.03726,
				"method": "rhf"
			},
			{
				"type": "unocc",
				"energy": -0.02261,
				"method": "rhf"
			},
			{
				"type": "unocc",
				"energy": -0.0089,
				"method": "rhf"
			},
			{
				"type": "unocc",
				"energy": -0.00646,
				"method": "rhf"
			},
			{
				"type": "unocc",
				"energy": 0.04345,
				"method": "rhf"
			}
		],
		"cosmo_sigma_profile": { 
			"0.0": 0.0,
			"0.0": 0.0,
			"0.0": 0.0,
			"0.0": 0.0,
			"0.0": 0.0,
			"0.0": 0.0,
			"0.0": 0.0,
			"0.0": 0.0,
			"0.0": 0.0,
			"0.0": 0.0,
			"0.0": 0.0,
			"0.0": 0.0,
			"0.0": 0.0,
			"0.0": 0.0,
			"0.0": 0.0,
			"0.0": 0.0,
			"0.0": 0.0,
			"0.0": 0.0,
			"0.0": 0.0,
			"0.0": 0.0,
			"0.0": 0.0,
			"0.0": 0.0,
			"0.0": 0.0,
			"0.0": 0.0,
			"0.0": 0.0,
			"0.0": 0.0,
			"0.0": 0.0,
			"0.0": 0.0,
			"0.0": 0.0,
			"0.0": 0.0,
			"0.0": 0.0,
			"0.0": 0.0,
			"0.0": 0.0,
			"0.0": 0.0,
			"0.0": 0.0,
			"0.0": 0.0,
			"0.0": 0.0,
			"0.0": 0.0,
			"0.0": 0.0,
			"0.0": 0.0,
			"0.0": 0.0,
			"0.0": 0.0,
			"0.0": 0.0,
			"0.0": 0.0,
			"0.0": 0.0,
			"0.0": 0.0,
			"0.0": 0.0,
			"0.0": 0.0,
			"0.0": 0.0,
			"0.0": 0.0,
			"0.0": 0.0
		}
	}
}
