{
	 "smiles": "O=CC1=CSC(=N1)C1=CC=CO1", 
	 "Tm": 364.15, 
	 "num_atms": 17, 
	 "gaussian": { 
		 "optdone": 1, 
		 "sigma_profile": "yes", 
		 "theory": "DFT", 
		 "functional": "B3LYP", 
		 "basiset": "6-31G**", 
		 "properties": { 
			 "R2extent": 3070.7959, 
			 "electric_dipole_moment_norm": 4.00042296889, 
			 "electric_quadrupole_moment_norm": 22.3019220517, 
			 "total_energy": -911.201403728, 
			 "HOMO_LUMO_gap": 0.15816, 
			 "cosmo_polarized_energy": -13.09, 
			 "cosmo_cavitation_energy": 24.69, 
			 "cosmo_dispersion_energy": -18.56, 
			 "cosmo_repulsion_energy": 1.42, 
			 "cosmo_total_nonelectrostatic_energy": 7.55, 
			 "SMD_solvation_energy": 4.79 
		},
		"coords": [
			{
				"x": -4.97115872,
				"y": -1.0724853949,
				"z": -0.2623978845,
				"element": "O" 
			},
			{
				"x": -4.3230746011,
				"y": -0.9370306185,
				"z": -1.278763402,
				"element": "C" 
			},
			{
				"x": -2.9188133888,
				"y": -0.4802101156,
				"z": -1.3347334966,
				"element": "C" 
			},
			{
				"x": -2.2305512802,
				"y": -0.34448198,
				"z": -2.5185065503,
				"element": "C" 
			},
			{
				"x": -0.6237662668,
				"y": 0.2055401015,
				"z": -2.2259343553,
				"element": "S" 
			},
			{
				"x": -1.0015782475,
				"y": 0.2136970788,
				"z": -0.4879234825,
				"element": "C" 
			},
			{
				"x": -2.2147962716,
				"y": -0.1624063081,
				"z": -0.1966888066,
				"element": "N" 
			},
			{
				"x": -0.017821684,
				"y": 0.6110946504,
				"z": 0.4887387522,
				"element": "C" 
			},
			{
				"x": -0.0555103864,
				"y": 0.7026260541,
				"z": 1.856249215,
				"element": "C" 
			},
			{
				"x": 1.2353566401,
				"y": 1.1576446275,
				"z": 2.2601283144,
				"element": "C" 
			},
			{
				"x": 1.9638514125,
				"y": 1.3100799546,
				"z": 1.1165125489,
				"element": "C" 
			},
			{
				"x": 1.216892529,
				"y": 0.9817172668,
				"z": 0.0271354092,
				"element": "O" 
			},
			{
				"x": -4.7583922684,
				"y": -1.1560952784,
				"z": -2.2793226747,
				"element": "H" 
			},
			{
				"x": -2.5873258863,
				"y": -0.5380026465,
				"z": -3.5208263524,
				"element": "H" 
			},
			{
				"x": -0.9074943617,
				"y": 0.4698263365,
				"z": 2.477015845,
				"element": "H" 
			},
			{
				"x": 1.57611945,
				"y": 1.3462738521,
				"z": 3.2677557394,
				"element": "H" 
			},
			{
				"x": 2.974863331,
				"y": 1.6269124198,
				"z": 0.9135611808,
				"element": "H" 
			}
		],
		 "valence_orbital": [ 
			{
				"type": "occ",
				"energy": -0.29367,
				"method": "rhf"
			},
			{
				"type": "occ",
				"energy": -0.2883,
				"method": "rhf"
			},
			{
				"type": "occ",
				"energy": -0.28422,
				"method": "rhf"
			},
			{
				"type": "occ",
				"energy": -0.25436,
				"method": "rhf"
			},
			{
				"type": "occ",
				"energy": -0.22473,
				"method": "rhf"
			},
			{
				"type": "unocc",
				"energy": -0.06657,
				"method": "rhf"
			},
			{
				"type": "unocc",
				"energy": -0.04964,
				"method": "rhf"
			},
			{
				"type": "unocc",
				"energy": 0.00641,
				"method": "rhf"
			},
			{
				"type": "unocc",
				"energy": 0.02828,
				"method": "rhf"
			},
			{
				"type": "unocc",
				"energy": 0.06887,
				"method": "rhf"
			}
		],
		"cosmo_sigma_profile": { 
			"-0.025": 0.0,
			"-0.024": 0.0,
			"-0.023": 0.0,
			"-0.022": 0.0,
			"-0.021": 0.0,
			"-0.02": 0.0,
			"-0.019": 0.0,
			"-0.018": 0.0,
			"-0.017": 0.0,
			"-0.016": 0.0,
			"-0.015": 0.0,
			"-0.014": 0.0,
			"-0.013": 0.0,
			"-0.012": 0.0,
			"-0.011": 1.15021313406,
			"-0.01": 4.23891930848,
			"-0.009": 4.37403436976,
			"-0.008": 8.06918685676,
			"-0.007": 8.30535605084,
			"-0.006": 8.64884905995,
			"-0.005": 9.10968003483,
			"-0.004": 8.80229028711,
			"-0.003": 10.2291754314,
			"-0.002": 13.2599929411,
			"-0.001": 16.4732048859,
			"0.0": 23.1610264813,
			"0.001": 19.5218834944,
			"0.002": 14.9127972278,
			"0.003": 12.4288140087,
			"0.004": 7.54865350099,
			"0.005": 4.63067473367,
			"0.006": 1.62239410224,
			"0.007": 3.0749322014,
			"0.008": 2.51698246578,
			"0.009": 2.76593100329,
			"0.01": 3.36928141624,
			"0.011": 5.5498790053,
			"0.012": 4.07208905345,
			"0.013": 2.32939671552,
			"0.014": 1.59204956865,
			"0.015": 0.67935470098,
			"0.016": 0.0,
			"0.017": 0.0,
			"0.018": 0.0,
			"0.019": 0.0,
			"0.02": 0.0,
			"0.021": 0.0,
			"0.022": 0.0,
			"0.023": 0.0,
			"0.024": 0.0,
			"0.025": 0.0
		}
	}
}
