{
	 "smiles": "OC(=O)C1=C(NCC2=CC=CO2)C=CC=C1", 
	 "Tm": 430.15, 
	 "num_atms": 27, 
	 "gaussian": { 
		 "optdone": 1, 
		 "sigma_profile": "yes", 
		 "theory": "DFT", 
		 "functional": "B3LYP", 
		 "basiset": "6-31G**", 
		 "properties": { 
			 "R2extent": 4547.9561, 
			 "electric_dipole_moment_norm": 5.96242684651, 
			 "electric_quadrupole_moment_norm": 15.1705197604, 
			 "total_energy": -744.315001105, 
			 "HOMO_LUMO_gap": 0.19221, 
			 "cosmo_polarized_energy": -16.07, 
			 "cosmo_cavitation_energy": 31.7, 
			 "cosmo_dispersion_energy": -22.54, 
			 "cosmo_repulsion_energy": 1.74, 
			 "cosmo_total_nonelectrostatic_energy": 10.89, 
			 "SMD_solvation_energy": 7.07 
		},
		"coords": [
			{
				"x": 1.5023561048,
				"y": -1.3085245482,
				"z": -0.8049487373,
				"element": "O" 
			},
			{
				"x": 0.3431017871,
				"y": -1.9732574604,
				"z": -0.691001992,
				"element": "C" 
			},
			{
				"x": 0.0125575717,
				"y": -2.8169412151,
				"z": -1.4979139081,
				"element": "O" 
			},
			{
				"x": -0.5226410715,
				"y": -1.6379202299,
				"z": 0.5048543781,
				"element": "C" 
			},
			{
				"x": -0.2830021619,
				"y": -0.5660145814,
				"z": 1.3888304639,
				"element": "C" 
			},
			{
				"x": 0.8100755837,
				"y": 0.3379479245,
				"z": 1.1291757591,
				"element": "N" 
			},
			{
				"x": 0.4393306702,
				"y": 1.5162667712,
				"z": 0.2896886183,
				"element": "C" 
			},
			{
				"x": 1.5862170185,
				"y": 2.4516116067,
				"z": 0.1457601101,
				"element": "C" 
			},
			{
				"x": 2.4173635854,
				"y": 2.7826035605,
				"z": -0.8826647506,
				"element": "C" 
			},
			{
				"x": 3.34832227,
				"y": 3.7421499893,
				"z": -0.3632691724,
				"element": "C" 
			},
			{
				"x": 3.0195525756,
				"y": 3.9186193084,
				"z": 0.9448527026,
				"element": "C" 
			},
			{
				"x": 1.9464849407,
				"y": 3.1423257565,
				"z": 1.2759455832,
				"element": "O" 
			},
			{
				"x": -1.105191536,
				"y": -0.3891873176,
				"z": 2.5068260993,
				"element": "C" 
			},
			{
				"x": -2.1639106161,
				"y": -1.2623106952,
				"z": 2.7533346858,
				"element": "C" 
			},
			{
				"x": -2.4214094175,
				"y": -2.3115881138,
				"z": 1.8681877627,
				"element": "C" 
			},
			{
				"x": -1.6052119944,
				"y": -2.4914678545,
				"z": 0.7552097457,
				"element": "C" 
			},
			{
				"x": 1.5830235721,
				"y": -0.6793828292,
				"z": -0.0359160155,
				"element": "H" 
			},
			{
				"x": 1.1976890116,
				"y": 0.6787480143,
				"z": 2.0056571407,
				"element": "H" 
			},
			{
				"x": 0.1557691567,
				"y": 1.1483048997,
				"z": -0.6992466879,
				"element": "H" 
			},
			{
				"x": -0.4303836267,
				"y": 2.0366544988,
				"z": 0.7169191802,
				"element": "H" 
			},
			{
				"x": 2.3751123292,
				"y": 2.3866930979,
				"z": -1.8873006423,
				"element": "H" 
			},
			{
				"x": 4.1515238863,
				"y": 4.2299032048,
				"z": -0.8962617289,
				"element": "H" 
			},
			{
				"x": 3.4209660695,
				"y": 4.5292633503,
				"z": 1.7386180103,
				"element": "H" 
			},
			{
				"x": -0.9105904022,
				"y": 0.4402015565,
				"z": 3.182712726,
				"element": "H" 
			},
			{
				"x": -2.7893164349,
				"y": -1.1173115644,
				"z": 3.6294341035,
				"element": "H" 
			},
			{
				"x": -3.2496898744,
				"y": -2.989453192,
				"z": 2.0503091001,
				"element": "H" 
			},
			{
				"x": -1.7709989973,
				"y": -3.3044339376,
				"z": 0.0567074654,
				"element": "H" 
			}
		],
		 "valence_orbital": [ 
			{
				"type": "occ",
				"energy": -0.2861,
				"method": "rhf"
			},
			{
				"type": "occ",
				"energy": -0.26463,
				"method": "rhf"
			},
			{
				"type": "occ",
				"energy": -0.25567,
				"method": "rhf"
			},
			{
				"type": "occ",
				"energy": -0.25371,
				"method": "rhf"
			},
			{
				"type": "occ",
				"energy": -0.23634,
				"method": "rhf"
			},
			{
				"type": "unocc",
				"energy": -0.04413,
				"method": "rhf"
			},
			{
				"type": "unocc",
				"energy": -0.01982,
				"method": "rhf"
			},
			{
				"type": "unocc",
				"energy": -0.00104,
				"method": "rhf"
			},
			{
				"type": "unocc",
				"energy": 0.05847,
				"method": "rhf"
			},
			{
				"type": "unocc",
				"energy": 0.06125,
				"method": "rhf"
			}
		],
		"cosmo_sigma_profile": { 
			"-0.025": 0.0,
			"-0.024": 0.0,
			"-0.023": 0.0,
			"-0.022": 0.0,
			"-0.021": 0.0,
			"-0.02": 0.0,
			"-0.019": 0.0,
			"-0.018": 0.0,
			"-0.017": 0.0,
			"-0.016": 0.0,
			"-0.015": 0.0,
			"-0.014": 0.0,
			"-0.013": 0.418221001835,
			"-0.012": 0.683938615336,
			"-0.011": 1.47647801795,
			"-0.01": 1.66594858195,
			"-0.009": 2.41552659021,
			"-0.008": 3.56196378973,
			"-0.007": 10.715003381,
			"-0.006": 17.1618569625,
			"-0.005": 19.9843770059,
			"-0.004": 19.8327242745,
			"-0.003": 18.4118296355,
			"-0.002": 17.7341882382,
			"-0.001": 13.1908001956,
			"0.0": 13.9926314948,
			"0.001": 15.8147278842,
			"0.002": 17.1037707233,
			"0.003": 21.3387919097,
			"0.004": 15.5995965369,
			"0.005": 8.73801614578,
			"0.006": 5.2921491145,
			"0.007": 4.07610647126,
			"0.008": 2.36337242829,
			"0.009": 2.17701065847,
			"0.01": 3.69075424998,
			"0.011": 4.061859218,
			"0.012": 7.09773941161,
			"0.013": 3.8277661655,
			"0.014": 1.44145458566,
			"0.015": 0.00804160597106,
			"0.016": 0.0,
			"0.017": 0.0,
			"0.018": 0.0,
			"0.019": 0.0,
			"0.02": 0.0,
			"0.021": 0.0,
			"0.022": 0.0,
			"0.023": 0.0,
			"0.024": 0.0,
			"0.025": 0.0
		}
	}
}
