{
	 "smiles": "CC1=C(C=CC(I)=C1)[N+]([O-])=O", 
	 "Tm": 353.15, 
	 "num_atms": 17, 
	 "gaussian": { 
		 "optdone": 1, 
		 "sigma_profile": "yes", 
		 "theory": "DFT", 
		 "functional": "B3LYP", 
		 "basiset": "6-31G**", 
		 "properties": { 
			 "R2extent": 2139.2294, 
			 "electric_dipole_moment_norm": 2.8808474465, 
			 "electric_quadrupole_moment_norm": 8.05334631008, 
			 "total_energy": -486.847249874, 
			 "HOMO_LUMO_gap": 0.16707, 
			 "cosmo_polarized_energy": -7.37, 
			 "cosmo_cavitation_energy": 24.71, 
			 "cosmo_dispersion_energy": -19.71, 
			 "cosmo_repulsion_energy": 1.54, 
			 "cosmo_total_nonelectrostatic_energy": 6.53, 
			 "SMD_solvation_energy": 5.47 
		},
		"coords": [
			{
				"x": -1.2493833445,
				"y": -0.3022120296,
				"z": -1.6647385592,
				"element": "C" 
			},
			{
				"x": -0.26029687,
				"y": -0.8266698149,
				"z": -0.652471477,
				"element": "C" 
			},
			{
				"x": -0.3772877206,
				"y": -0.7163729594,
				"z": 0.7484845182,
				"element": "C" 
			},
			{
				"x": 0.5910255156,
				"y": -1.2254199616,
				"z": 1.6177025659,
				"element": "C" 
			},
			{
				"x": 1.7149310374,
				"y": -1.8715498658,
				"z": 1.1202652526,
				"element": "C" 
			},
			{
				"x": 1.8534257268,
				"y": -1.9929416355,
				"z": -0.2639695205,
				"element": "C" 
			},
			{
				"x": 3.5515966263,
				"y": -2.9671023086,
				"z": -1.0633421566,
				"element": "I" 
			},
			{
				"x": 0.8882354416,
				"y": -1.4792426182,
				"z": -1.1286856153,
				"element": "C" 
			},
			{
				"x": -1.5309382082,
				"y": -0.0556091678,
				"z": 1.386256384,
				"element": "N" 
			},
			{
				"x": -1.4990912618,
				"y": 0.094200977,
				"z": 2.6078583845,
				"element": "O" 
			},
			{
				"x": -2.4658833697,
				"y": 0.3086388045,
				"z": 0.6723888278,
				"element": "O" 
			},
			{
				"x": -2.2222049021,
				"y": -0.7884823205,
				"z": -1.5598565949,
				"element": "H" 
			},
			{
				"x": -1.4289759244,
				"y": 0.7675834652,
				"z": -1.5351521228,
				"element": "H" 
			},
			{
				"x": -0.8706224516,
				"y": -0.4792122187,
				"z": -2.6744150106,
				"element": "H" 
			},
			{
				"x": 0.4435542549,
				"y": -1.1039446365,
				"z": 2.6831366511,
				"element": "H" 
			},
			{
				"x": 2.462138764,
				"y": -2.2684788431,
				"z": 1.7969421735,
				"element": "H" 
			},
			{
				"x": 1.0162766864,
				"y": -1.5799848662,
				"z": -2.2005037008,
				"element": "H" 
			}
		],
		 "valence_orbital": [ 
			{
				"type": "occ",
				"energy": -0.31027,
				"method": "rhf"
			},
			{
				"type": "occ",
				"energy": -0.29291,
				"method": "rhf"
			},
			{
				"type": "occ",
				"energy": -0.28404,
				"method": "rhf"
			},
			{
				"type": "occ",
				"energy": -0.28076,
				"method": "rhf"
			},
			{
				"type": "occ",
				"energy": -0.26187,
				"method": "rhf"
			},
			{
				"type": "unocc",
				"energy": -0.0948,
				"method": "rhf"
			},
			{
				"type": "unocc",
				"energy": -0.05456,
				"method": "rhf"
			},
			{
				"type": "unocc",
				"energy": -0.03537,
				"method": "rhf"
			},
			{
				"type": "unocc",
				"energy": -0.01459,
				"method": "rhf"
			},
			{
				"type": "unocc",
				"energy": 0.03336,
				"method": "rhf"
			}
		],
		"cosmo_sigma_profile": { 
			"-0.025": 0.0,
			"-0.024": 0.0,
			"-0.023": 0.0,
			"-0.022": 0.0,
			"-0.021": 0.0,
			"-0.02": 0.0,
			"-0.019": 0.0,
			"-0.018": 0.0,
			"-0.017": 0.0,
			"-0.016": 0.0,
			"-0.015": 0.0,
			"-0.014": 0.0,
			"-0.013": 0.0,
			"-0.012": 0.0,
			"-0.011": 0.0,
			"-0.01": 0.0,
			"-0.009": 0.0,
			"-0.008": 3.24149835359,
			"-0.007": 8.31084867517,
			"-0.006": 7.90637941419,
			"-0.005": 11.6453677094,
			"-0.004": 13.6006734077,
			"-0.003": 15.303028868,
			"-0.002": 14.8526933712,
			"-0.001": 21.5613109088,
			"0.0": 21.5477809848,
			"0.001": 20.7253619872,
			"0.002": 12.611878763,
			"0.003": 13.2642232609,
			"0.004": 11.6216613656,
			"0.005": 2.84828038554,
			"0.006": 3.18488973427,
			"0.007": 5.80675201496,
			"0.008": 6.9734871645,
			"0.009": 4.37496303586,
			"0.01": 3.38500854511,
			"0.011": 0.340905353226,
			"0.012": 0.0,
			"0.013": 0.0,
			"0.014": 0.0,
			"0.015": 0.0,
			"0.016": 0.0,
			"0.017": 0.0,
			"0.018": 0.0,
			"0.019": 0.0,
			"0.02": 0.0,
			"0.021": 0.0,
			"0.022": 0.0,
			"0.023": 0.0,
			"0.024": 0.0,
			"0.025": 0.0
		}
	}
}
