{
	 "smiles": "COC1=CC2=C(C=C1)C=NC=N2", 
	 "Tm": 357.15, 
	 "num_atms": 20, 
	 "gaussian": { 
		 "optdone": 1, 
		 "sigma_profile": "yes", 
		 "theory": "DFT", 
		 "functional": "B3LYP", 
		 "basiset": "6-31G**", 
		 "properties": { 
			 "R2extent": 2471.7083, 
			 "electric_dipole_moment_norm": 3.18658163084, 
			 "electric_quadrupole_moment_norm": 12.1264160225, 
			 "total_energy": -532.496768027, 
			 "HOMO_LUMO_gap": 0.17867, 
			 "cosmo_polarized_energy": -9.56, 
			 "cosmo_cavitation_energy": 24.11, 
			 "cosmo_dispersion_energy": -18.2, 
			 "cosmo_repulsion_energy": 1.41, 
			 "cosmo_total_nonelectrostatic_energy": 7.33, 
			 "SMD_solvation_energy": 1.96 
		},
		"coords": [
			{
				"x": -2.3257619738,
				"y": 1.9879426197,
				"z": 0.646814832,
				"element": "C" 
			},
			{
				"x": -1.8758646348,
				"y": 0.6490562939,
				"z": 0.8178201557,
				"element": "O" 
			},
			{
				"x": -0.7529176447,
				"y": 0.2620902191,
				"z": 0.1622609031,
				"element": "C" 
			},
			{
				"x": 0.000098806,
				"y": 1.0719961106,
				"z": -0.6688438219,
				"element": "C" 
			},
			{
				"x": 1.1558755904,
				"y": 0.5427196514,
				"z": -1.2955729068,
				"element": "C" 
			},
			{
				"x": 1.5307270326,
				"y": -0.8140397575,
				"z": -1.0650004445,
				"element": "C" 
			},
			{
				"x": 0.7360061204,
				"y": -1.6200990182,
				"z": -0.2057440763,
				"element": "C" 
			},
			{
				"x": -0.3785832833,
				"y": -1.0960441785,
				"z": 0.393707624,
				"element": "C" 
			},
			{
				"x": 2.6957528631,
				"y": -1.2573241737,
				"z": -1.7297095592,
				"element": "C" 
			},
			{
				"x": 3.4139740549,
				"y": -0.4829005378,
				"z": -2.5230150833,
				"element": "N" 
			},
			{
				"x": 2.9610496676,
				"y": 0.7915629705,
				"z": -2.6679747971,
				"element": "C" 
			},
			{
				"x": 1.8991749147,
				"y": 1.3419984358,
				"z": -2.1157562427,
				"element": "N" 
			},
			{
				"x": -3.227491036,
				"y": 2.0809951193,
				"z": 1.2529960442,
				"element": "H" 
			},
			{
				"x": -2.5672748432,
				"y": 2.1969152536,
				"z": -0.4023401438,
				"element": "H" 
			},
			{
				"x": -1.5756089217,
				"y": 2.7085357313,
				"z": 0.9942911846,
				"element": "H" 
			},
			{
				"x": -0.2500432694,
				"y": 2.1056760939,
				"z": -0.8696960117,
				"element": "H" 
			},
			{
				"x": 1.0214165539,
				"y": -2.6539847463,
				"z": -0.0298790499,
				"element": "H" 
			},
			{
				"x": -1.0046118239,
				"y": -1.6864898859,
				"z": 1.0543051939,
				"element": "H" 
			},
			{
				"x": 3.0374982466,
				"y": -2.2851659415,
				"z": -1.5960412309,
				"element": "H" 
			},
			{
				"x": 3.5556835808,
				"y": 1.4265597404,
				"z": -3.3226225692,
				"element": "H" 
			}
		],
		 "valence_orbital": [ 
			{
				"type": "occ",
				"energy": -0.32242,
				"method": "rhf"
			},
			{
				"type": "occ",
				"energy": -0.29257,
				"method": "rhf"
			},
			{
				"type": "occ",
				"energy": -0.25055,
				"method": "rhf"
			},
			{
				"type": "occ",
				"energy": -0.24518,
				"method": "rhf"
			},
			{
				"type": "occ",
				"energy": -0.23682,
				"method": "rhf"
			},
			{
				"type": "unocc",
				"energy": -0.05815,
				"method": "rhf"
			},
			{
				"type": "unocc",
				"energy": -0.02404,
				"method": "rhf"
			},
			{
				"type": "unocc",
				"energy": 0.0154,
				"method": "rhf"
			},
			{
				"type": "unocc",
				"energy": 0.08468,
				"method": "rhf"
			},
			{
				"type": "unocc",
				"energy": 0.09244,
				"method": "rhf"
			}
		],
		"cosmo_sigma_profile": { 
			"-0.025": 0.0,
			"-0.024": 0.0,
			"-0.023": 0.0,
			"-0.022": 0.0,
			"-0.021": 0.0,
			"-0.02": 0.0,
			"-0.019": 0.0,
			"-0.018": 0.0,
			"-0.017": 0.0,
			"-0.016": 0.0,
			"-0.015": 0.0,
			"-0.014": 0.0,
			"-0.013": 0.0,
			"-0.012": 0.0,
			"-0.011": 0.0,
			"-0.01": 0.0,
			"-0.009": 0.00076251466711,
			"-0.008": 2.76629540933,
			"-0.007": 8.94913879187,
			"-0.006": 16.2663524012,
			"-0.005": 16.4719600588,
			"-0.004": 14.3204079698,
			"-0.003": 13.0570137014,
			"-0.002": 9.59348951932,
			"-0.001": 12.976015706,
			"0.0": 15.6981265486,
			"0.001": 18.0987482244,
			"0.002": 17.7760347761,
			"0.003": 11.3880697697,
			"0.004": 5.90502383325,
			"0.005": 3.66524515095,
			"0.006": 3.71472554646,
			"0.007": 4.61802897069,
			"0.008": 3.49803062586,
			"0.009": 3.21129960972,
			"0.01": 1.93308026347,
			"0.011": 1.86978957612,
			"0.012": 2.10767637853,
			"0.013": 1.73989858395,
			"0.014": 1.37165271061,
			"0.015": 1.83175300835,
			"0.016": 0.924965034717,
			"0.017": 0.0143770090231,
			"0.018": 0.0,
			"0.019": 0.0,
			"0.02": 0.0,
			"0.021": 0.0,
			"0.022": 0.0,
			"0.023": 0.0,
			"0.024": 0.0,
			"0.025": 0.0
		}
	}
}
