{
	 "smiles": "ClCC=CCCl", 
	 "Tm": 275.9, 
	 "num_atms": 12, 
	 "gaussian": { 
		 "optdone": 1, 
		 "sigma_profile": "yes", 
		 "theory": "DFT", 
		 "functional": "B3LYP", 
		 "basiset": "6-31G**", 
		 "properties": { 
			 "R2extent": 1811.1934, 
			 "electric_dipole_moment_norm": 3.35042018559, 
			 "electric_quadrupole_moment_norm": 8.0103959022, 
			 "total_energy": -1076.41259253, 
			 "HOMO_LUMO_gap": 0.23867, 
			 "cosmo_polarized_energy": -7.98, 
			 "cosmo_cavitation_energy": 19.54, 
			 "cosmo_dispersion_energy": -14.55, 
			 "cosmo_repulsion_energy": 1.3, 
			 "cosmo_total_nonelectrostatic_energy": 6.29, 
			 "SMD_solvation_energy": 2.94 
		},
		"coords": [
			{
				"x": 2.682810737,
				"y": 0.5236029456,
				"z": 0.825443393,
				"element": "Cl" 
			},
			{
				"x": 1.5255980142,
				"y": 0.8728464883,
				"z": -0.549876469,
				"element": "C" 
			},
			{
				"x": 0.2499730674,
				"y": 0.1179208639,
				"z": -0.3869609111,
				"element": "C" 
			},
			{
				"x": -0.1960684261,
				"y": -0.7756866049,
				"z": -1.2751146281,
				"element": "C" 
			},
			{
				"x": -1.5032459267,
				"y": -1.4815442928,
				"z": -1.1457608541,
				"element": "C" 
			},
			{
				"x": -1.2701973203,
				"y": -3.2948079069,
				"z": -1.0436845927,
				"element": "Cl" 
			},
			{
				"x": 2.0462820276,
				"y": 0.6059462535,
				"z": -1.4701684846,
				"element": "H" 
			},
			{
				"x": 1.3696642372,
				"y": 1.9532907143,
				"z": -0.5212348708,
				"element": "H" 
			},
			{
				"x": -0.3310816883,
				"y": 0.3395069512,
				"z": 0.5068754674,
				"element": "H" 
			},
			{
				"x": 0.3956380968,
				"y": -1.0138295696,
				"z": -2.1576357682,
				"element": "H" 
			},
			{
				"x": -2.1413817645,
				"y": -1.3268166621,
				"z": -2.0183063464,
				"element": "H" 
			},
			{
				"x": -2.0424910542,
				"y": -1.1858291805,
				"z": -0.2451759354,
				"element": "H" 
			}
		],
		 "valence_orbital": [ 
			{
				"type": "occ",
				"energy": -0.30693,
				"method": "rhf"
			},
			{
				"type": "occ",
				"energy": -0.30597,
				"method": "rhf"
			},
			{
				"type": "occ",
				"energy": -0.29948,
				"method": "rhf"
			},
			{
				"type": "occ",
				"energy": -0.29755,
				"method": "rhf"
			},
			{
				"type": "occ",
				"energy": -0.27737,
				"method": "rhf"
			},
			{
				"type": "unocc",
				"energy": -0.0387,
				"method": "rhf"
			},
			{
				"type": "unocc",
				"energy": 0.02682,
				"method": "rhf"
			},
			{
				"type": "unocc",
				"energy": 0.04401,
				"method": "rhf"
			},
			{
				"type": "unocc",
				"energy": 0.08826,
				"method": "rhf"
			},
			{
				"type": "unocc",
				"energy": 0.10917,
				"method": "rhf"
			}
		],
		"cosmo_sigma_profile": { 
			"-0.025": 0.0,
			"-0.024": 0.0,
			"-0.023": 0.0,
			"-0.022": 0.0,
			"-0.021": 0.0,
			"-0.02": 0.0,
			"-0.019": 0.0,
			"-0.018": 0.0,
			"-0.017": 0.0,
			"-0.016": 0.0,
			"-0.015": 0.0,
			"-0.014": 0.0,
			"-0.013": 0.0,
			"-0.012": 0.0,
			"-0.011": 0.0,
			"-0.01": 0.0,
			"-0.009": 0.0,
			"-0.008": 5.31214235511,
			"-0.007": 13.7051718203,
			"-0.006": 11.7122255155,
			"-0.005": 13.3433140378,
			"-0.004": 9.57988916928,
			"-0.003": 7.82638401486,
			"-0.002": 5.79903436245,
			"-0.001": 5.45315166512,
			"0.0": 8.17749488552,
			"0.001": 7.13515554406,
			"0.002": 9.37064440425,
			"0.003": 8.97898939481,
			"0.004": 8.92139854924,
			"0.005": 13.3669245153,
			"0.006": 18.0656508238,
			"0.007": 12.5031552558,
			"0.008": 0.0208410549034,
			"0.009": 0.0,
			"0.01": 0.0,
			"0.011": 0.0,
			"0.012": 0.0,
			"0.013": 0.0,
			"0.014": 0.0,
			"0.015": 0.0,
			"0.016": 0.0,
			"0.017": 0.0,
			"0.018": 0.0,
			"0.019": 0.0,
			"0.02": 0.0,
			"0.021": 0.0,
			"0.022": 0.0,
			"0.023": 0.0,
			"0.024": 0.0,
			"0.025": 0.0
		}
	}
}
