{
	 "smiles": "CCC1=CC=C(CCl)C=C1", 
	 "Tm": 252.15, 
	 "num_atms": 21, 
	 "gaussian": { 
		 "optdone": 1, 
		 "sigma_profile": "yes", 
		 "theory": "DFT", 
		 "functional": "B3LYP", 
		 "basiset": "6-31G**", 
		 "properties": { 
			 "R2extent": 2640.4625, 
			 "electric_dipole_moment_norm": 2.69025296952, 
			 "electric_quadrupole_moment_norm": 11.5883620918, 
			 "total_energy": -809.79743108, 
			 "HOMO_LUMO_gap": 0.21686, 
			 "cosmo_polarized_energy": -6.14, 
			 "cosmo_cavitation_energy": 25.99, 
			 "cosmo_dispersion_energy": -18.71, 
			 "cosmo_repulsion_energy": 1.55, 
			 "cosmo_total_nonelectrostatic_energy": 8.83, 
			 "SMD_solvation_energy": 4.0 
		},
		"coords": [
			{
				"x": -0.7424172831,
				"y": 0.1612222824,
				"z": -3.3438175992,
				"element": "C" 
			},
			{
				"x": 0.4919368481,
				"y": -0.1875452128,
				"z": -2.4919209233,
				"element": "C" 
			},
			{
				"x": 0.1883092984,
				"y": -0.2272609004,
				"z": -1.0095445809,
				"element": "C" 
			},
			{
				"x": 0.2987095433,
				"y": 0.9254203331,
				"z": -0.2194558329,
				"element": "C" 
			},
			{
				"x": -0.0159816557,
				"y": 0.8996852851,
				"z": 1.137396745,
				"element": "C" 
			},
			{
				"x": -0.4501175374,
				"y": -0.2840791883,
				"z": 1.7473231199,
				"element": "C" 
			},
			{
				"x": -0.7800115627,
				"y": -0.3160729076,
				"z": 3.207588117,
				"element": "C" 
			},
			{
				"x": -2.5499495601,
				"y": 0.0720576861,
				"z": 3.5425751849,
				"element": "Cl" 
			},
			{
				"x": -0.5608973475,
				"y": -1.4392306857,
				"z": 0.9630037016,
				"element": "C" 
			},
			{
				"x": -0.2452423351,
				"y": -1.4094960363,
				"z": -0.3935375457,
				"element": "C" 
			},
			{
				"x": -1.1429646251,
				"y": 1.1426744718,
				"z": -3.0704509027,
				"element": "H" 
			},
			{
				"x": -0.4891214789,
				"y": 0.1815151559,
				"z": -4.4089100461,
				"element": "H" 
			},
			{
				"x": -1.5401988938,
				"y": -0.5740375817,
				"z": -3.1976451171,
				"element": "H" 
			},
			{
				"x": 0.8869092088,
				"y": -1.1596079771,
				"z": -2.8104200458,
				"element": "H" 
			},
			{
				"x": 1.2821046638,
				"y": 0.5481091979,
				"z": -2.683724403,
				"element": "H" 
			},
			{
				"x": 0.6414093038,
				"y": 1.8526102183,
				"z": -0.6726007403,
				"element": "H" 
			},
			{
				"x": 0.0778258144,
				"y": 1.8057580434,
				"z": 1.7308627399,
				"element": "H" 
			},
			{
				"x": -0.6196560504,
				"y": -1.3021394226,
				"z": 3.6437041749,
				"element": "H" 
			},
			{
				"x": -0.2162626781,
				"y": 0.4262633521,
				"z": 3.772705595,
				"element": "H" 
			},
			{
				"x": -0.8945030178,
				"y": -2.3677372489,
				"z": 1.4196781489,
				"element": "H" 
			},
			{
				"x": -0.3303806547,
				"y": -2.3189088649,
				"z": -0.9836097902,
				"element": "H" 
			}
		],
		 "valence_orbital": [ 
			{
				"type": "occ",
				"energy": -0.3367,
				"method": "rhf"
			},
			{
				"type": "occ",
				"energy": -0.29066,
				"method": "rhf"
			},
			{
				"type": "occ",
				"energy": -0.28886,
				"method": "rhf"
			},
			{
				"type": "occ",
				"energy": -0.25488,
				"method": "rhf"
			},
			{
				"type": "occ",
				"energy": -0.24285,
				"method": "rhf"
			},
			{
				"type": "unocc",
				"energy": -0.02599,
				"method": "rhf"
			},
			{
				"type": "unocc",
				"energy": -0.00679,
				"method": "rhf"
			},
			{
				"type": "unocc",
				"energy": 0.04525,
				"method": "rhf"
			},
			{
				"type": "unocc",
				"energy": 0.09012,
				"method": "rhf"
			},
			{
				"type": "unocc",
				"energy": 0.09739,
				"method": "rhf"
			}
		],
		"cosmo_sigma_profile": { 
			"-0.025": 0.0,
			"-0.024": 0.0,
			"-0.023": 0.0,
			"-0.022": 0.0,
			"-0.021": 0.0,
			"-0.02": 0.0,
			"-0.019": 0.0,
			"-0.018": 0.0,
			"-0.017": 0.0,
			"-0.016": 0.0,
			"-0.015": 0.0,
			"-0.014": 0.0,
			"-0.013": 0.0,
			"-0.012": 0.0,
			"-0.011": 0.0,
			"-0.01": 0.0,
			"-0.009": 0.0,
			"-0.008": 0.656606002209,
			"-0.007": 5.87312874151,
			"-0.006": 9.32229204193,
			"-0.005": 11.6314572942,
			"-0.004": 15.9770547224,
			"-0.003": 19.2333141858,
			"-0.002": 19.206578452,
			"-0.001": 18.2682123417,
			"0.0": 19.0048276144,
			"0.001": 18.4911004293,
			"0.002": 10.9611677703,
			"0.003": 10.3729299636,
			"0.004": 10.9817697124,
			"0.005": 14.4478415469,
			"0.006": 11.8317246683,
			"0.007": 10.3030199494,
			"0.008": 0.794666809685,
			"0.009": 0.0,
			"0.01": 0.0,
			"0.011": 0.0,
			"0.012": 0.0,
			"0.013": 0.0,
			"0.014": 0.0,
			"0.015": 0.0,
			"0.016": 0.0,
			"0.017": 0.0,
			"0.018": 0.0,
			"0.019": 0.0,
			"0.02": 0.0,
			"0.021": 0.0,
			"0.022": 0.0,
			"0.023": 0.0,
			"0.024": 0.0,
			"0.025": 0.0
		}
	}
}
