{
	 "smiles": "COC1=C(OC)C=C(C=C1)C(N)=NO", 
	 "Tm": 438.15, 
	 "num_atms": 26, 
	 "gaussian": { 
		 "optdone": 1, 
		 "sigma_profile": "yes", 
		 "theory": "DFT", 
		 "functional": "B3LYP", 
		 "basiset": "6-31G**", 
		 "properties": { 
			 "R2extent": 3710.5141, 
			 "electric_dipole_moment_norm": 1.47685527388, 
			 "electric_quadrupole_moment_norm": 9.59377364909, 
			 "total_energy": -685.269509638, 
			 "HOMO_LUMO_gap": 0.18083, 
			 "cosmo_polarized_energy": -14.96, 
			 "cosmo_cavitation_energy": 29.93, 
			 "cosmo_dispersion_energy": -21.54, 
			 "cosmo_repulsion_energy": 1.75, 
			 "cosmo_total_nonelectrostatic_energy": 10.13, 
			 "SMD_solvation_energy": 6.49 
		},
		"coords": [
			{
				"x": 1.0011256013,
				"y": 0.3107614083,
				"z": 2.4826963021,
				"element": "C" 
			},
			{
				"x": 0.398526669,
				"y": -0.7811330871,
				"z": 1.7750274711,
				"element": "O" 
			},
			{
				"x": 0.0185801392,
				"y": -0.4993014198,
				"z": 0.4836239454,
				"element": "C" 
			},
			{
				"x": -1.035747909,
				"y": 0.3908423538,
				"z": 0.1970141274,
				"element": "C" 
			},
			{
				"x": -1.7019622183,
				"y": 1.0564856525,
				"z": 1.202808124,
				"element": "O" 
			},
			{
				"x": -2.5462011149,
				"y": 0.2275132511,
				"z": 2.0104013728,
				"element": "C" 
			},
			{
				"x": -1.3949214618,
				"y": 0.641339763,
				"z": -1.1248329254,
				"element": "C" 
			},
			{
				"x": -0.7397401946,
				"y": -0.0043978488,
				"z": -2.1828172101,
				"element": "C" 
			},
			{
				"x": 0.2897349393,
				"y": -0.9098007761,
				"z": -1.8870495136,
				"element": "C" 
			},
			{
				"x": 0.6694695464,
				"y": -1.1461228356,
				"z": -0.5669930165,
				"element": "C" 
			},
			{
				"x": -1.1449140338,
				"y": 0.2316949768,
				"z": -3.5975843674,
				"element": "C" 
			},
			{
				"x": -1.3671743877,
				"y": -0.9077606908,
				"z": -4.3684457949,
				"element": "N" 
			},
			{
				"x": -1.3594112487,
				"y": 1.3658706367,
				"z": -4.1743516314,
				"element": "N" 
			},
			{
				"x": -1.1714138799,
				"y": 2.4641353755,
				"z": -3.2951334271,
				"element": "O" 
			},
			{
				"x": 0.3199207848,
				"y": 1.1634631168,
				"z": 2.5558187224,
				"element": "H" 
			},
			{
				"x": 1.9288604705,
				"y": 0.6254202987,
				"z": 1.9887685654,
				"element": "H" 
			},
			{
				"x": 1.233956883,
				"y": -0.0654629027,
				"z": 3.4808615015,
				"element": "H" 
			},
			{
				"x": -1.9728341183,
				"y": -0.5590945452,
				"z": 2.5112425144,
				"element": "H" 
			},
			{
				"x": -2.9986125549,
				"y": 0.8854003973,
				"z": 2.7552520657,
				"element": "H" 
			},
			{
				"x": -3.3375411602,
				"y": -0.2286016731,
				"z": 1.4024419592,
				"element": "H" 
			},
			{
				"x": -2.189698015,
				"y": 1.3499661068,
				"z": -1.3202001075,
				"element": "H" 
			},
			{
				"x": 0.8284414964,
				"y": -1.4069158202,
				"z": -2.6891822173,
				"element": "H" 
			},
			{
				"x": 1.4783036862,
				"y": -1.8290403634,
				"z": -0.3274620209,
				"element": "H" 
			},
			{
				"x": -0.862342747,
				"y": -1.7351665984,
				"z": -4.0897638878,
				"element": "H" 
			},
			{
				"x": -1.3668389033,
				"y": -0.7369976588,
				"z": -5.3656123275,
				"element": "H" 
			},
			{
				"x": -1.3473662687,
				"y": 3.2065028827,
				"z": -3.8864282239,
				"element": "H" 
			}
		],
		 "valence_orbital": [ 
			{
				"type": "occ",
				"energy": -0.26615,
				"method": "rhf"
			},
			{
				"type": "occ",
				"energy": -0.2591,
				"method": "rhf"
			},
			{
				"type": "occ",
				"energy": -0.24487,
				"method": "rhf"
			},
			{
				"type": "occ",
				"energy": -0.23271,
				"method": "rhf"
			},
			{
				"type": "occ",
				"energy": -0.19807,
				"method": "rhf"
			},
			{
				"type": "unocc",
				"energy": -0.01724,
				"method": "rhf"
			},
			{
				"type": "unocc",
				"energy": -0.00199,
				"method": "rhf"
			},
			{
				"type": "unocc",
				"energy": 0.05759,
				"method": "rhf"
			},
			{
				"type": "unocc",
				"energy": 0.07761,
				"method": "rhf"
			},
			{
				"type": "unocc",
				"energy": 0.08459,
				"method": "rhf"
			}
		],
		"cosmo_sigma_profile": { 
			"-0.025": 0.0,
			"-0.024": 0.0,
			"-0.023": 0.0,
			"-0.022": 0.0,
			"-0.021": 0.0,
			"-0.02": 0.0,
			"-0.019": 0.0,
			"-0.018": 0.0,
			"-0.017": 0.100085712485,
			"-0.016": 0.738591067124,
			"-0.015": 1.08265088389,
			"-0.014": 0.907716718562,
			"-0.013": 1.36550802065,
			"-0.012": 3.05762723593,
			"-0.011": 3.16687752628,
			"-0.01": 3.12576476986,
			"-0.009": 3.19692702802,
			"-0.008": 3.71103248241,
			"-0.007": 4.28800089978,
			"-0.006": 7.1678701545,
			"-0.005": 13.9362566111,
			"-0.004": 16.9814647288,
			"-0.003": 22.2119395309,
			"-0.002": 20.7582929716,
			"-0.001": 15.7185110486,
			"0.0": 14.2798282127,
			"0.001": 10.6072995985,
			"0.002": 12.904383104,
			"0.003": 14.2996139133,
			"0.004": 11.8989746691,
			"0.005": 6.78940059476,
			"0.006": 7.12999050779,
			"0.007": 7.7907892141,
			"0.008": 6.28785682972,
			"0.009": 5.51248494062,
			"0.01": 6.3883438796,
			"0.011": 5.25304603296,
			"0.012": 3.17461495571,
			"0.013": 1.51146443439,
			"0.014": 0.895293004616,
			"0.015": 0.248279734644,
			"0.016": 0.0,
			"0.017": 0.0,
			"0.018": 0.0,
			"0.019": 0.0,
			"0.02": 0.0,
			"0.021": 0.0,
			"0.022": 0.0,
			"0.023": 0.0,
			"0.024": 0.0,
			"0.025": 0.0
		}
	}
}
