{
	 "smiles": "CC12CCC3C(CC=C4CC(O)CCC34C)C1CC[C@@]2(O)C#CCl", 
	 "Tm": 449.15, 
	 "num_atms": 53, 
	 "gaussian": { 
		 "optdone": 1, 
		 "sigma_profile": "yes", 
		 "theory": "DFT", 
		 "functional": "B3LYP", 
		 "basiset": "6-31G**", 
		 "properties": { 
			 "R2extent": 10231.4368, 
			 "electric_dipole_moment_norm": 1.6210616583, 
			 "electric_quadrupole_moment_norm": 18.7262888774, 
			 "total_energy": -1428.25636986, 
			 "HOMO_LUMO_gap": 0.25098, 
			 "cosmo_polarized_energy": -11.91, 
			 "cosmo_cavitation_energy": 48.84, 
			 "cosmo_dispersion_energy": -33.42, 
			 "cosmo_repulsion_energy": 2.51, 
			 "cosmo_total_nonelectrostatic_energy": 17.93, 
			 "SMD_solvation_energy": 7.19 
		},
		"coords": [
			{
				"x": 1.6764139759,
				"y": -2.0517475686,
				"z": -2.7492070853,
				"element": "C" 
			},
			{
				"x": 1.3853339972,
				"y": -0.6878405389,
				"z": -2.0993603769,
				"element": "C" 
			},
			{
				"x": 2.2127994106,
				"y": -0.5857864154,
				"z": -0.7900541634,
				"element": "C" 
			},
			{
				"x": 1.6370914248,
				"y": 0.3694490928,
				"z": 0.2689718926,
				"element": "C" 
			},
			{
				"x": 0.1762693415,
				"y": 0.0366748005,
				"z": 0.6900940269,
				"element": "C" 
			},
			{
				"x": -0.4937648353,
				"y": -0.912781729,
				"z": -0.3307375874,
				"element": "C" 
			},
			{
				"x": -2.004506601,
				"y": -1.0011935872,
				"z": -0.0740282029,
				"element": "C" 
			},
			{
				"x": -2.3316403617,
				"y": -1.0901233997,
				"z": 1.391689658,
				"element": "C" 
			},
			{
				"x": -1.4583785532,
				"y": -0.8724699679,
				"z": 2.3835330747,
				"element": "C" 
			},
			{
				"x": -1.89044995,
				"y": -0.8274703403,
				"z": 3.8288119339,
				"element": "C" 
			},
			{
				"x": -1.8624641642,
				"y": 0.634020818,
				"z": 4.354333022,
				"element": "C" 
			},
			{
				"x": -1.6969041374,
				"y": 0.6753524173,
				"z": 5.7706124069,
				"element": "O" 
			},
			{
				"x": -0.7903283285,
				"y": 1.4567232354,
				"z": 3.6041720455,
				"element": "C" 
			},
			{
				"x": 0.4069001827,
				"y": 0.5911894474,
				"z": 3.1905982346,
				"element": "C" 
			},
			{
				"x": 0.014566433,
				"y": -0.5104821762,
				"z": 2.145684193,
				"element": "C" 
			},
			{
				"x": 0.8996463671,
				"y": -1.7556437147,
				"z": 2.3970721122,
				"element": "C" 
			},
			{
				"x": -0.1519125843,
				"y": -0.55983019,
				"z": -1.7896547662,
				"element": "C" 
			},
			{
				"x": -0.5668624679,
				"y": 0.8376354189,
				"z": -2.2938702457,
				"element": "C" 
			},
			{
				"x": 0.276552249,
				"y": 1.0056449436,
				"z": -3.5560621424,
				"element": "C" 
			},
			{
				"x": 1.6791196893,
				"y": 0.4870926089,
				"z": -3.1619183783,
				"element": "C" 
			},
			{
				"x": 2.3003432104,
				"y": 0.0258241166,
				"z": -4.366941425,
				"element": "O" 
			},
			{
				"x": 2.5012412917,
				"y": 1.5874823548,
				"z": -2.6211835966,
				"element": "C" 
			},
			{
				"x": 3.2099955324,
				"y": 2.5044721485,
				"z": -2.2737070225,
				"element": "C" 
			},
			{
				"x": 4.1631105889,
				"y": 3.7563477955,
				"z": -1.7679525697,
				"element": "Cl" 
			},
			{
				"x": 1.307254509,
				"y": -2.851724204,
				"z": -2.0974143988,
				"element": "H" 
			},
			{
				"x": 1.1959815057,
				"y": -2.1504778107,
				"z": -3.7249423568,
				"element": "H" 
			},
			{
				"x": 2.7510355623,
				"y": -2.2155373625,
				"z": -2.8897136578,
				"element": "H" 
			},
			{
				"x": 3.2421347914,
				"y": -0.2915464276,
				"z": -1.0258303301,
				"element": "H" 
			},
			{
				"x": 2.2822009393,
				"y": -1.5909317755,
				"z": -0.3567766365,
				"element": "H" 
			},
			{
				"x": 2.304130511,
				"y": 0.3632555302,
				"z": 1.1378733031,
				"element": "H" 
			},
			{
				"x": 1.6775685068,
				"y": 1.3907972613,
				"z": -0.1193327565,
				"element": "H" 
			},
			{
				"x": -0.3949752822,
				"y": 0.9753533387,
				"z": 0.6706792075,
				"element": "H" 
			},
			{
				"x": -0.0904037971,
				"y": -1.9205623248,
				"z": -0.1615558038,
				"element": "H" 
			},
			{
				"x": -2.4260205345,
				"y": -1.8626508888,
				"z": -0.611492613,
				"element": "H" 
			},
			{
				"x": -2.5145699262,
				"y": -0.1200344835,
				"z": -0.4939721278,
				"element": "H" 
			},
			{
				"x": -3.3685986027,
				"y": -1.3100462473,
				"z": 1.646896957,
				"element": "H" 
			},
			{
				"x": -1.1984955402,
				"y": -1.4152103996,
				"z": 4.4497654247,
				"element": "H" 
			},
			{
				"x": -2.882554887,
				"y": -1.2657229431,
				"z": 3.9708549998,
				"element": "H" 
			},
			{
				"x": -2.8419156405,
				"y": 1.0937835842,
				"z": 4.187323874,
				"element": "H" 
			},
			{
				"x": -0.8457638639,
				"y": 0.26633382,
				"z": 5.9788017055,
				"element": "H" 
			},
			{
				"x": -0.4809708207,
				"y": 2.2868251019,
				"z": 4.2482759782,
				"element": "H" 
			},
			{
				"x": -1.2398669451,
				"y": 1.9025270471,
				"z": 2.7084538297,
				"element": "H" 
			},
			{
				"x": 1.2122880598,
				"y": 1.2165744229,
				"z": 2.7922737936,
				"element": "H" 
			},
			{
				"x": 0.8276601326,
				"y": 0.1100116939,
				"z": 4.0846073025,
				"element": "H" 
			},
			{
				"x": 1.9640969236,
				"y": -1.5023810272,
				"z": 2.3461918295,
				"element": "H" 
			},
			{
				"x": 0.702680186,
				"y": -2.5549094403,
				"z": 1.6777029074,
				"element": "H" 
			},
			{
				"x": 0.7131836366,
				"y": -2.1659782146,
				"z": 3.3950291781,
				"element": "H" 
			},
			{
				"x": -0.6736467,
				"y": -1.2883210138,
				"z": -2.4270837934,
				"element": "H" 
			},
			{
				"x": -1.6394645143,
				"y": 0.9171680808,
				"z": -2.494905421,
				"element": "H" 
			},
			{
				"x": -0.3144438988,
				"y": 1.6180712388,
				"z": -1.56635594,
				"element": "H" 
			},
			{
				"x": -0.089541047,
				"y": 0.3472642498,
				"z": -4.3523047008,
				"element": "H" 
			},
			{
				"x": 0.3107250383,
				"y": 2.0238567308,
				"z": -3.9506005475,
				"element": "H" 
			},
			{
				"x": 3.2329199868,
				"y": -0.1450271073,
				"z": -4.177644245,
				"element": "H" 
			}
		],
		 "valence_orbital": [ 
			{
				"type": "occ",
				"energy": -0.27196,
				"method": "rhf"
			},
			{
				"type": "occ",
				"energy": -0.26209,
				"method": "rhf"
			},
			{
				"type": "occ",
				"energy": -0.26147,
				"method": "rhf"
			},
			{
				"type": "occ",
				"energy": -0.25459,
				"method": "rhf"
			},
			{
				"type": "occ",
				"energy": -0.22738,
				"method": "rhf"
			},
			{
				"type": "unocc",
				"energy": 0.0236,
				"method": "rhf"
			},
			{
				"type": "unocc",
				"energy": 0.02604,
				"method": "rhf"
			},
			{
				"type": "unocc",
				"energy": 0.02987,
				"method": "rhf"
			},
			{
				"type": "unocc",
				"energy": 0.04447,
				"method": "rhf"
			},
			{
				"type": "unocc",
				"energy": 0.06555,
				"method": "rhf"
			}
		],
		"cosmo_sigma_profile": { 
			"-0.025": 0.0,
			"-0.024": 0.0,
			"-0.023": 0.0,
			"-0.022": 0.0,
			"-0.021": 0.0,
			"-0.02": 0.0,
			"-0.019": 0.0,
			"-0.018": 0.0,
			"-0.017": 0.0,
			"-0.016": 0.0204488558797,
			"-0.015": 0.549956088333,
			"-0.014": 1.20691581965,
			"-0.013": 1.40151702722,
			"-0.012": 1.91573746554,
			"-0.011": 2.00611440441,
			"-0.01": 2.48070395701,
			"-0.009": 2.27295482838,
			"-0.008": 2.26179798575,
			"-0.007": 1.61813501136,
			"-0.006": 3.93805587193,
			"-0.005": 5.4869128535,
			"-0.004": 7.73898509649,
			"-0.003": 30.5510052047,
			"-0.002": 55.4576265746,
			"-0.001": 57.3549344612,
			"0.0": 58.2464743108,
			"0.001": 56.5631855026,
			"0.002": 32.5566877386,
			"0.003": 12.7580449892,
			"0.004": 8.32847218528,
			"0.005": 6.33821800843,
			"0.006": 4.81734655646,
			"0.007": 3.64450533221,
			"0.008": 2.84759057853,
			"0.009": 3.13734688157,
			"0.01": 2.10318961493,
			"0.011": 1.54670062519,
			"0.012": 2.87638610432,
			"0.013": 3.1212588751,
			"0.014": 2.50108116117,
			"0.015": 1.81645342438,
			"0.016": 0.00288868729815,
			"0.017": 0.0,
			"0.018": 0.0,
			"0.019": 0.0,
			"0.02": 0.0,
			"0.021": 0.0,
			"0.022": 0.0,
			"0.023": 0.0,
			"0.024": 0.0,
			"0.025": 0.0
		}
	}
}
