{
	 "smiles": "CCCCCCCCCCCCOC1=C(OCCCCCCCCCCCC)C=CC=C1", 
	 "Tm": 319.65, 
	 "num_atms": 86, 
	 "gaussian": { 
		 "optdone": 1, 
		 "sigma_profile": "yes", 
		 "theory": "DFT", 
		 "functional": "B3LYP", 
		 "basiset": "6-31G**", 
		 "properties": { 
			 "R2extent": 28154.1829, 
			 "electric_dipole_moment_norm": 0.169364606692, 
			 "electric_quadrupole_moment_norm": 9.45869927791, 
			 "total_energy": -1326.24189848, 
			 "HOMO_LUMO_gap": 0.21263, 
			 "cosmo_polarized_energy": -8.89, 
			 "cosmo_cavitation_energy": 83.22, 
			 "cosmo_dispersion_energy": -51.02, 
			 "cosmo_repulsion_energy": 4.01, 
			 "cosmo_total_nonelectrostatic_energy": 36.21, 
			 "SMD_solvation_energy": 11.22 
		},
		"coords": [
			{
				"x": -5.3468528713,
				"y": -7.4456446346,
				"z": 2.5863603958,
				"element": "C" 
			},
			{
				"x": -4.1128365309,
				"y": -6.6649899855,
				"z": 2.1218452709,
				"element": "C" 
			},
			{
				"x": -4.3522218254,
				"y": -5.8879553829,
				"z": 0.8193455724,
				"element": "C" 
			},
			{
				"x": -3.1647203812,
				"y": -5.0303735824,
				"z": 0.3509096426,
				"element": "C" 
			},
			{
				"x": -1.9270046172,
				"y": -5.835497398,
				"z": -0.0750309888,
				"element": "C" 
			},
			{
				"x": -0.7955857748,
				"y": -4.9904286386,
				"z": -0.684335659,
				"element": "C" 
			},
			{
				"x": -0.124618896,
				"y": -4.0131071997,
				"z": 0.2913504762,
				"element": "C" 
			},
			{
				"x": 1.0510464825,
				"y": -3.2482923087,
				"z": -0.330667991,
				"element": "C" 
			},
			{
				"x": 1.7268407869,
				"y": -2.268381788,
				"z": 0.6368830165,
				"element": "C" 
			},
			{
				"x": 2.9065683901,
				"y": -1.512664651,
				"z": 0.0136244154,
				"element": "C" 
			},
			{
				"x": 3.5792516596,
				"y": -0.5329062516,
				"z": 0.9832598386,
				"element": "C" 
			},
			{
				"x": 4.7754761516,
				"y": 0.1935301707,
				"z": 0.382626331,
				"element": "C" 
			},
			{
				"x": 4.3059386729,
				"y": 1.0266949177,
				"z": -0.6752892065,
				"element": "O" 
			},
			{
				"x": 5.2267140674,
				"y": 1.6704558925,
				"z": -1.449122224,
				"element": "C" 
			},
			{
				"x": 4.6989742461,
				"y": 2.4412177837,
				"z": -2.5179796907,
				"element": "C" 
			},
			{
				"x": 3.3374652716,
				"y": 2.4590061821,
				"z": -2.6154009928,
				"element": "O" 
			},
			{
				"x": 2.7468900829,
				"y": 3.1939110826,
				"z": -3.6860634259,
				"element": "C" 
			},
			{
				"x": 1.2283028364,
				"y": 3.1387638174,
				"z": -3.5525099645,
				"element": "C" 
			},
			{
				"x": 0.6248217123,
				"y": 4.0508236365,
				"z": -2.4688507179,
				"element": "C" 
			},
			{
				"x": 0.9401171635,
				"y": 3.692363729,
				"z": -1.0045081825,
				"element": "C" 
			},
			{
				"x": 0.4347582162,
				"y": 2.3209021897,
				"z": -0.5237835557,
				"element": "C" 
			},
			{
				"x": -1.0867357264,
				"y": 2.1309639408,
				"z": -0.6175821708,
				"element": "C" 
			},
			{
				"x": -1.6020248322,
				"y": 0.7988083958,
				"z": -0.0427313665,
				"element": "C" 
			},
			{
				"x": -1.4304663966,
				"y": 0.6078243529,
				"z": 1.4765535079,
				"element": "C" 
			},
			{
				"x": -2.1490086458,
				"y": 1.6344839578,
				"z": 2.3700029567,
				"element": "C" 
			},
			{
				"x": -3.6784845477,
				"y": 1.6405510249,
				"z": 2.2413475465,
				"element": "C" 
			},
			{
				"x": -4.3648567211,
				"y": 2.605945053,
				"z": 3.216714251,
				"element": "C" 
			},
			{
				"x": -5.8913861879,
				"y": 2.6147723351,
				"z": 3.0873600911,
				"element": "C" 
			},
			{
				"x": 5.5702332992,
				"y": 3.112940978,
				"z": -3.3741469532,
				"element": "C" 
			},
			{
				"x": 6.9568219742,
				"y": 3.0434539833,
				"z": -3.1780184999,
				"element": "C" 
			},
			{
				"x": 7.4720612972,
				"y": 2.3032868654,
				"z": -2.1240084976,
				"element": "C" 
			},
			{
				"x": 6.6069103903,
				"y": 1.6170379558,
				"z": -1.260077231,
				"element": "C" 
			},
			{
				"x": -5.152013651,
				"y": -7.9887123842,
				"z": 3.5170952844,
				"element": "H" 
			},
			{
				"x": -6.1962497253,
				"y": -6.7757551373,
				"z": 2.76346577,
				"element": "H" 
			},
			{
				"x": -5.6582593692,
				"y": -8.1787256896,
				"z": 1.8332411321,
				"element": "H" 
			},
			{
				"x": -3.8068055993,
				"y": -5.9613682241,
				"z": 2.9086472852,
				"element": "H" 
			},
			{
				"x": -3.2739807284,
				"y": -7.3603779537,
				"z": 1.993528327,
				"element": "H" 
			},
			{
				"x": -4.6262591473,
				"y": -6.5946974324,
				"z": 0.0223997958,
				"element": "H" 
			},
			{
				"x": -5.2257735361,
				"y": -5.2357956943,
				"z": 0.9569467172,
				"element": "H" 
			},
			{
				"x": -2.897365879,
				"y": -4.3266270295,
				"z": 1.1505061212,
				"element": "H" 
			},
			{
				"x": -3.4892538696,
				"y": -4.4137916489,
				"z": -0.4989351111,
				"element": "H" 
			},
			{
				"x": -1.5302460288,
				"y": -6.3950089449,
				"z": 0.7826220679,
				"element": "H" 
			},
			{
				"x": -2.2379813432,
				"y": -6.5899352348,
				"z": -0.8111858224,
				"element": "H" 
			},
			{
				"x": -1.1858523601,
				"y": -4.4305522073,
				"z": -1.5466045109,
				"element": "H" 
			},
			{
				"x": -0.0286346153,
				"y": -5.6667280059,
				"z": -1.0861589614,
				"element": "H" 
			},
			{
				"x": -0.8622745886,
				"y": -3.290752162,
				"z": 0.6651248977,
				"element": "H" 
			},
			{
				"x": 0.2293750684,
				"y": -4.5689213771,
				"z": 1.1719974077,
				"element": "H" 
			},
			{
				"x": 0.6993765525,
				"y": -2.6982852435,
				"z": -1.2152864752,
				"element": "H" 
			},
			{
				"x": 1.7969288918,
				"y": -3.967044739,
				"z": -0.699582576,
				"element": "H" 
			},
			{
				"x": 0.9823301749,
				"y": -1.5453530535,
				"z": 0.9988218705,
				"element": "H" 
			},
			{
				"x": 2.0728231758,
				"y": -2.8167078143,
				"z": 1.5252995988,
				"element": "H" 
			},
			{
				"x": 2.5699697658,
				"y": -0.9606897633,
				"z": -0.8718038158,
				"element": "H" 
			},
			{
				"x": 3.6543911873,
				"y": -2.2368074435,
				"z": -0.3413850528,
				"element": "H" 
			},
			{
				"x": 2.852693459,
				"y": 0.2125324378,
				"z": 1.3300557226,
				"element": "H" 
			},
			{
				"x": 3.9299908433,
				"y": -1.0700382329,
				"z": 1.874946368,
				"element": "H" 
			},
			{
				"x": 5.2838357857,
				"y": 0.8060879427,
				"z": 1.1415839382,
				"element": "H" 
			},
			{
				"x": 5.5044302712,
				"y": -0.5322740865,
				"z": -0.0075622863,
				"element": "H" 
			},
			{
				"x": 3.0645652753,
				"y": 2.7574909026,
				"z": -4.6444596579,
				"element": "H" 
			},
			{
				"x": 3.0927871061,
				"y": 4.2383650171,
				"z": -3.6637077593,
				"element": "H" 
			},
			{
				"x": 0.8137947497,
				"y": 3.4381912143,
				"z": -4.5239637152,
				"element": "H" 
			},
			{
				"x": 0.9312241118,
				"y": 2.0943408185,
				"z": -3.4016272704,
				"element": "H" 
			},
			{
				"x": 0.96791658,
				"y": 5.078223772,
				"z": -2.6554418584,
				"element": "H" 
			},
			{
				"x": -0.4627748453,
				"y": 4.0746959898,
				"z": -2.6116065933,
				"element": "H" 
			},
			{
				"x": 0.5001942987,
				"y": 4.472668586,
				"z": -0.3673567066,
				"element": "H" 
			},
			{
				"x": 2.0224778564,
				"y": 3.7335474556,
				"z": -0.8467669147,
				"element": "H" 
			},
			{
				"x": 0.9428006304,
				"y": 1.5252399997,
				"z": -1.0834850661,
				"element": "H" 
			},
			{
				"x": 0.755096015,
				"y": 2.1985388199,
				"z": 0.5185918062,
				"element": "H" 
			},
			{
				"x": -1.5889108652,
				"y": 2.9712629202,
				"z": -0.1175866455,
				"element": "H" 
			},
			{
				"x": -1.3970429513,
				"y": 2.1857388404,
				"z": -1.6688580148,
				"element": "H" 
			},
			{
				"x": -1.087500293,
				"y": -0.0270123721,
				"z": -0.5533920769,
				"element": "H" 
			},
			{
				"x": -2.6630989,
				"y": 0.6909514542,
				"z": -0.3012392428,
				"element": "H" 
			},
			{
				"x": -0.3620250227,
				"y": 0.6149618349,
				"z": 1.7269582447,
				"element": "H" 
			},
			{
				"x": -1.7897968615,
				"y": -0.3972198957,
				"z": 1.7384836926,
				"element": "H" 
			},
			{
				"x": -1.7650958712,
				"y": 2.6429201158,
				"z": 2.1644327534,
				"element": "H" 
			},
			{
				"x": -1.8847647059,
				"y": 1.4249747977,
				"z": 3.415689761,
				"element": "H" 
			},
			{
				"x": -4.0606539945,
				"y": 0.6229670272,
				"z": 2.4101183669,
				"element": "H" 
			},
			{
				"x": -3.9685164838,
				"y": 1.9058629117,
				"z": 1.2158180738,
				"element": "H" 
			},
			{
				"x": -3.9778457772,
				"y": 3.6210235778,
				"z": 3.0524690707,
				"element": "H" 
			},
			{
				"x": -4.0858240205,
				"y": 2.3394562881,
				"z": 4.2454000533,
				"element": "H" 
			},
			{
				"x": -6.2021189767,
				"y": 2.9133454709,
				"z": 2.0794842262,
				"element": "H" 
			},
			{
				"x": -6.3111284923,
				"y": 1.6206166658,
				"z": 3.2796687884,
				"element": "H" 
			},
			{
				"x": -6.3505359711,
				"y": 3.3117287884,
				"z": 3.7963079231,
				"element": "H" 
			},
			{
				"x": 5.1787134326,
				"y": 3.694786479,
				"z": -4.1996898549,
				"element": "H" 
			},
			{
				"x": 7.6181566401,
				"y": 3.5747589128,
				"z": -3.8556334613,
				"element": "H" 
			},
			{
				"x": 8.5438752735,
				"y": 2.2472366407,
				"z": -1.9599853928,
				"element": "H" 
			},
			{
				"x": 7.0199485811,
				"y": 1.0425696655,
				"z": -0.4397762159,
				"element": "H" 
			}
		],
		 "valence_orbital": [ 
			{
				"type": "occ",
				"energy": -0.29669,
				"method": "rhf"
			},
			{
				"type": "occ",
				"energy": -0.29245,
				"method": "rhf"
			},
			{
				"type": "occ",
				"energy": -0.28898,
				"method": "rhf"
			},
			{
				"type": "occ",
				"energy": -0.23095,
				"method": "rhf"
			},
			{
				"type": "occ",
				"energy": -0.197,
				"method": "rhf"
			},
			{
				"type": "unocc",
				"energy": 0.01563,
				"method": "rhf"
			},
			{
				"type": "unocc",
				"energy": 0.02119,
				"method": "rhf"
			},
			{
				"type": "unocc",
				"energy": 0.05874,
				"method": "rhf"
			},
			{
				"type": "unocc",
				"energy": 0.0818,
				"method": "rhf"
			},
			{
				"type": "unocc",
				"energy": 0.0867,
				"method": "rhf"
			}
		],
		"cosmo_sigma_profile": { 
			"-0.025": 0.0,
			"-0.024": 0.0,
			"-0.023": 0.0,
			"-0.022": 0.0,
			"-0.021": 0.0,
			"-0.02": 0.0,
			"-0.019": 0.0,
			"-0.018": 0.0,
			"-0.017": 0.0,
			"-0.016": 0.0,
			"-0.015": 0.0,
			"-0.014": 0.0,
			"-0.013": 0.0,
			"-0.012": 0.0,
			"-0.011": 0.0,
			"-0.01": 0.0,
			"-0.009": 0.0,
			"-0.008": 0.0,
			"-0.007": 0.0612411982937,
			"-0.006": 3.85485034598,
			"-0.005": 12.5731423355,
			"-0.004": 22.8117117542,
			"-0.003": 32.7650511968,
			"-0.002": 71.9728939488,
			"-0.001": 128.112222175,
			"0.0": 142.400927563,
			"0.001": 110.851342826,
			"0.002": 52.601281578,
			"0.003": 12.7725753866,
			"0.004": 11.9912029621,
			"0.005": 10.668075841,
			"0.006": 11.2956103162,
			"0.007": 6.22169021419,
			"0.008": 2.89418583206,
			"0.009": 2.59231853268,
			"0.01": 1.66618073121,
			"0.011": 1.30671864983,
			"0.012": 0.197753972438,
			"0.013": 0.0,
			"0.014": 0.0,
			"0.015": 0.0,
			"0.016": 0.0,
			"0.017": 0.0,
			"0.018": 0.0,
			"0.019": 0.0,
			"0.02": 0.0,
			"0.021": 0.0,
			"0.022": 0.0,
			"0.023": 0.0,
			"0.024": 0.0,
			"0.025": 0.0
		}
	}
}
