{
	 "smiles": "OC(=O)CC1=CC=C(C=C1)C(F)F", 
	 "Tm": 350.15, 
	 "num_atms": 21, 
	 "gaussian": { 
		 "optdone": 1, 
		 "sigma_profile": "yes", 
		 "theory": "DFT", 
		 "functional": "B3LYP", 
		 "basiset": "6-31G**", 
		 "properties": { 
			 "R2extent": 3719.5709, 
			 "electric_dipole_moment_norm": 2.76089275598, 
			 "electric_quadrupole_moment_norm": 6.93557928294, 
			 "total_energy": -697.920526112, 
			 "HOMO_LUMO_gap": 0.2338, 
			 "cosmo_polarized_energy": -11.45, 
			 "cosmo_cavitation_energy": 26.58, 
			 "cosmo_dispersion_energy": -19.1, 
			 "cosmo_repulsion_energy": 1.49, 
			 "cosmo_total_nonelectrostatic_energy": 8.97, 
			 "SMD_solvation_energy": 6.45 
		},
		"coords": [
			{
				"x": -1.3409463502,
				"y": -0.8739288117,
				"z": -3.9333375619,
				"element": "O" 
			},
			{
				"x": -0.3796781121,
				"y": -0.3161187822,
				"z": -3.1585399705,
				"element": "C" 
			},
			{
				"x": 0.790114013,
				"y": -0.6083029777,
				"z": -3.25847876,
				"element": "O" 
			},
			{
				"x": -0.9740930858,
				"y": 0.7267232433,
				"z": -2.2230916864,
				"element": "C" 
			},
			{
				"x": -0.2106306066,
				"y": 0.9185336244,
				"z": -0.9316677389,
				"element": "C" 
			},
			{
				"x": 1.1227740982,
				"y": 1.3513297597,
				"z": -0.9334445605,
				"element": "C" 
			},
			{
				"x": 1.8079421572,
				"y": 1.5413452907,
				"z": 0.2635748256,
				"element": "C" 
			},
			{
				"x": 1.1707741837,
				"y": 1.3054900343,
				"z": 1.4863028528,
				"element": "C" 
			},
			{
				"x": -0.1572988385,
				"y": 0.8752247322,
				"z": 1.4983463061,
				"element": "C" 
			},
			{
				"x": -0.8387990298,
				"y": 0.6847897434,
				"z": 0.2964465857,
				"element": "C" 
			},
			{
				"x": 1.9308216944,
				"y": 1.4621095559,
				"z": 2.7777003496,
				"element": "C" 
			},
			{
				"x": 2.8632630886,
				"y": 2.4603514553,
				"z": 2.6681860364,
				"element": "F" 
			},
			{
				"x": 1.0799737969,
				"y": 1.7892335216,
				"z": 3.8007263558,
				"element": "F" 
			},
			{
				"x": -0.8831475241,
				"y": -1.4899979692,
				"z": -4.5304517175,
				"element": "H" 
			},
			{
				"x": -2.0179163157,
				"y": 0.467448658,
				"z": -2.030403919,
				"element": "H" 
			},
			{
				"x": -0.9938573529,
				"y": 1.6633572003,
				"z": -2.7985550522,
				"element": "H" 
			},
			{
				"x": 1.6276642059,
				"y": 1.528207368,
				"z": -1.8768884162,
				"element": "H" 
			},
			{
				"x": 2.8369219347,
				"y": 1.8851095985,
				"z": 0.2523778058,
				"element": "H" 
			},
			{
				"x": -0.6584569042,
				"y": 0.7001974484,
				"z": 2.4443414082,
				"element": "H" 
			},
			{
				"x": -1.8743878598,
				"y": 0.3549348073,
				"z": 0.3158938701,
				"element": "H" 
			},
			{
				"x": 2.4653628071,
				"y": 0.5515624996,
				"z": 3.079062987,
				"element": "H" 
			}
		],
		 "valence_orbital": [ 
			{
				"type": "occ",
				"energy": -0.32932,
				"method": "rhf"
			},
			{
				"type": "occ",
				"energy": -0.32569,
				"method": "rhf"
			},
			{
				"type": "occ",
				"energy": -0.28522,
				"method": "rhf"
			},
			{
				"type": "occ",
				"energy": -0.25768,
				"method": "rhf"
			},
			{
				"type": "occ",
				"energy": -0.25367,
				"method": "rhf"
			},
			{
				"type": "unocc",
				"energy": -0.01987,
				"method": "rhf"
			},
			{
				"type": "unocc",
				"energy": -0.01,
				"method": "rhf"
			},
			{
				"type": "unocc",
				"energy": 0.00433,
				"method": "rhf"
			},
			{
				"type": "unocc",
				"energy": 0.07314,
				"method": "rhf"
			},
			{
				"type": "unocc",
				"energy": 0.09225,
				"method": "rhf"
			}
		],
		"cosmo_sigma_profile": { 
			"-0.025": 0.0,
			"-0.024": 0.0,
			"-0.023": 0.0,
			"-0.022": 0.0,
			"-0.021": 0.0,
			"-0.02": 0.0,
			"-0.019": 0.125899217395,
			"-0.018": 0.729669690233,
			"-0.017": 1.28987837132,
			"-0.016": 0.68449866064,
			"-0.015": 0.542643934718,
			"-0.014": 0.468434151003,
			"-0.013": 0.281974412134,
			"-0.012": 1.10549449991,
			"-0.011": 1.1385658093,
			"-0.01": 0.342063438101,
			"-0.009": 0.924607988151,
			"-0.008": 5.58160284182,
			"-0.007": 8.2049948663,
			"-0.006": 12.2326750878,
			"-0.005": 13.5057605015,
			"-0.004": 14.9867133625,
			"-0.003": 14.0333842476,
			"-0.002": 10.939814003,
			"-0.001": 10.3586292119,
			"0.0": 9.23161519777,
			"0.001": 10.0081581895,
			"0.002": 12.9910103987,
			"0.003": 15.0671354995,
			"0.004": 25.4370222102,
			"0.005": 18.7259159746,
			"0.006": 3.56297286724,
			"0.007": 3.21067899142,
			"0.008": 2.93475599915,
			"0.009": 3.37625093455,
			"0.01": 2.70603062828,
			"0.011": 4.32330021202,
			"0.012": 2.56449685277,
			"0.013": 0.0,
			"0.014": 0.0,
			"0.015": 0.0,
			"0.016": 0.0,
			"0.017": 0.0,
			"0.018": 0.0,
			"0.019": 0.0,
			"0.02": 0.0,
			"0.021": 0.0,
			"0.022": 0.0,
			"0.023": 0.0,
			"0.024": 0.0,
			"0.025": 0.0
		}
	}
}
