{
	 "smiles": "NC1=NN=C(SCC(=O)NC2=CC3=C(OCO3)C=C2)S1", 
	 "Tm": 470.15, 
	 "num_atms": 30, 
	 "gaussian": { 
		 "optdone": 1, 
		 "sigma_profile": "yes", 
		 "theory": "DFT", 
		 "functional": "B3LYP", 
		 "basiset": "6-31G**", 
		 "properties": { 
			 "R2extent": 11369.7435, 
			 "electric_dipole_moment_norm": 2.32724677892, 
			 "electric_quadrupole_moment_norm": 29.6578152709, 
			 "total_energy": -1666.1942848, 
			 "HOMO_LUMO_gap": 0.1857, 
			 "cosmo_polarized_energy": -23.52, 
			 "cosmo_cavitation_energy": 38.46, 
			 "cosmo_dispersion_energy": -28.76, 
			 "cosmo_repulsion_energy": 2.14, 
			 "cosmo_total_nonelectrostatic_energy": 11.85, 
			 "SMD_solvation_energy": 5.79 
		},
		"coords": [
			{
				"x": -4.5542277259,
				"y": 5.0488129189,
				"z": -2.7224435567,
				"element": "N" 
			},
			{
				"x": -4.1855945012,
				"y": 4.247265448,
				"z": -1.6660350789,
				"element": "C" 
			},
			{
				"x": -3.2555256692,
				"y": 3.339148349,
				"z": -1.7357102828,
				"element": "N" 
			},
			{
				"x": -3.1439507747,
				"y": 2.6026345075,
				"z": -0.5788939092,
				"element": "N" 
			},
			{
				"x": -3.9673870046,
				"y": 2.9685476021,
				"z": 0.3552676072,
				"element": "C" 
			},
			{
				"x": -4.0800510361,
				"y": 2.2702215809,
				"z": 1.9664474647,
				"element": "S" 
			},
			{
				"x": -2.6566292424,
				"y": 1.1321045663,
				"z": 1.9007333757,
				"element": "C" 
			},
			{
				"x": -1.2956494986,
				"y": 1.8415963931,
				"z": 1.9636383998,
				"element": "C" 
			},
			{
				"x": -1.1376811171,
				"y": 2.9029705896,
				"z": 2.5433971662,
				"element": "O" 
			},
			{
				"x": -0.2260894713,
				"y": 1.1624544534,
				"z": 1.4272896352,
				"element": "N" 
			},
			{
				"x": -0.1800668943,
				"y": -0.0042273689,
				"z": 0.6065024953,
				"element": "C" 
			},
			{
				"x": 0.625746274,
				"y": -1.08313018,
				"z": 1.0346714453,
				"element": "C" 
			},
			{
				"x": 0.6932121807,
				"y": -2.1796735877,
				"z": 0.2004766146,
				"element": "C" 
			},
			{
				"x": -0.0118386708,
				"y": -2.2409227316,
				"z": -1.0002295531,
				"element": "C" 
			},
			{
				"x": 0.2460546795,
				"y": -3.4371877321,
				"z": -1.6260889403,
				"element": "O" 
			},
			{
				"x": 1.0269825519,
				"y": -4.2008495566,
				"z": -0.7005884285,
				"element": "C" 
			},
			{
				"x": 1.4154882191,
				"y": -3.3346014578,
				"z": 0.3738088838,
				"element": "O" 
			},
			{
				"x": -0.8063350146,
				"y": -1.1967659763,
				"z": -1.4294330888,
				"element": "C" 
			},
			{
				"x": -0.8689453004,
				"y": -0.0550352463,
				"z": -0.6098741871,
				"element": "C" 
			},
			{
				"x": -5.0359285163,
				"y": 4.2997892693,
				"z": -0.1159944683,
				"element": "S" 
			},
			{
				"x": -4.8160514873,
				"y": 5.9983024871,
				"z": -2.4949963485,
				"element": "H" 
			},
			{
				"x": -3.8976665591,
				"y": 4.9896078228,
				"z": -3.4915431254,
				"element": "H" 
			},
			{
				"x": -2.7586975236,
				"y": 0.5267420848,
				"z": 2.8082126117,
				"element": "H" 
			},
			{
				"x": -2.7569763651,
				"y": 0.4730641841,
				"z": 1.0413206594,
				"element": "H" 
			},
			{
				"x": 0.650775563,
				"y": 1.6340198462,
				"z": 1.6169512114,
				"element": "H" 
			},
			{
				"x": 1.1587105737,
				"y": -1.0487363277,
				"z": 1.9780101826,
				"element": "H" 
			},
			{
				"x": 1.9217575347,
				"y": -4.5804464353,
				"z": -1.2037980232,
				"element": "H" 
			},
			{
				"x": 0.4220941969,
				"y": -5.0280695761,
				"z": -0.3027060018,
				"element": "H" 
			},
			{
				"x": -1.3427811638,
				"y": -1.2447016641,
				"z": -2.3701282152,
				"element": "H" 
			},
			{
				"x": -1.4601482374,
				"y": 0.8025657372,
				"z": -0.9154645454,
				"element": "H" 
			}
		],
		 "valence_orbital": [ 
			{
				"type": "occ",
				"energy": -0.26498,
				"method": "rhf"
			},
			{
				"type": "occ",
				"energy": -0.2522,
				"method": "rhf"
			},
			{
				"type": "occ",
				"energy": -0.24703,
				"method": "rhf"
			},
			{
				"type": "occ",
				"energy": -0.2176,
				"method": "rhf"
			},
			{
				"type": "occ",
				"energy": -0.20691,
				"method": "rhf"
			},
			{
				"type": "unocc",
				"energy": -0.02121,
				"method": "rhf"
			},
			{
				"type": "unocc",
				"energy": -0.01164,
				"method": "rhf"
			},
			{
				"type": "unocc",
				"energy": -0.0098,
				"method": "rhf"
			},
			{
				"type": "unocc",
				"energy": -0.00136,
				"method": "rhf"
			},
			{
				"type": "unocc",
				"energy": 0.01566,
				"method": "rhf"
			}
		],
		"cosmo_sigma_profile": { 
			"-0.025": 0.0,
			"-0.024": 0.0,
			"-0.023": 0.0,
			"-0.022": 0.0,
			"-0.021": 0.0,
			"-0.02": 0.0,
			"-0.019": 0.0,
			"-0.018": 0.0,
			"-0.017": 0.0,
			"-0.016": 0.0262857932085,
			"-0.015": 1.51751083515,
			"-0.014": 3.40553470264,
			"-0.013": 3.93646492381,
			"-0.012": 3.74556848489,
			"-0.011": 4.39411277603,
			"-0.01": 3.73677974113,
			"-0.009": 5.49894609625,
			"-0.008": 8.65659441051,
			"-0.007": 15.2732020846,
			"-0.006": 15.0483016365,
			"-0.005": 12.7986315258,
			"-0.004": 13.0312576448,
			"-0.003": 13.5662109827,
			"-0.002": 15.8038103451,
			"-0.001": 19.60782994,
			"0.0": 21.361564533,
			"0.001": 22.3857392332,
			"0.002": 27.948448753,
			"0.003": 22.0267504105,
			"0.004": 12.7698066826,
			"0.005": 11.3433346156,
			"0.006": 8.77859884244,
			"0.007": 7.93263155596,
			"0.008": 7.34356145051,
			"0.009": 6.00495948351,
			"0.01": 5.33418453306,
			"0.011": 3.62540214723,
			"0.012": 4.19941593017,
			"0.013": 6.22814908366,
			"0.014": 3.60587296031,
			"0.015": 1.42315429918,
			"0.016": 0.0,
			"0.017": 0.0,
			"0.018": 0.0,
			"0.019": 0.0,
			"0.02": 0.0,
			"0.021": 0.0,
			"0.022": 0.0,
			"0.023": 0.0,
			"0.024": 0.0,
			"0.025": 0.0
		}
	}
}
