{
	 "smiles": "NC(=O)C1=C(OC2=CC=C(Cl)C=C2)N=CC=C1", 
	 "Tm": 424.15, 
	 "num_atms": 26, 
	 "gaussian": { 
		 "optdone": 1, 
		 "sigma_profile": "yes", 
		 "theory": "DFT", 
		 "functional": "B3LYP", 
		 "basiset": "6-31G**", 
		 "properties": { 
			 "R2extent": 6586.9536, 
			 "electric_dipole_moment_norm": 1.0703668203, 
			 "electric_quadrupole_moment_norm": 21.3456796491, 
			 "total_energy": -1182.85739024, 
			 "HOMO_LUMO_gap": 0.19408, 
			 "cosmo_polarized_energy": -13.86, 
			 "cosmo_cavitation_energy": 33.24, 
			 "cosmo_dispersion_energy": -24.1, 
			 "cosmo_repulsion_energy": 1.89, 
			 "cosmo_total_nonelectrostatic_energy": 11.03, 
			 "SMD_solvation_energy": 5.42 
		},
		"coords": [
			{
				"x": 3.0708682656,
				"y": 1.3298922852,
				"z": 0.6247451709,
				"element": "N" 
			},
			{
				"x": 2.3177877632,
				"y": 2.4599486607,
				"z": 0.5815139754,
				"element": "C" 
			},
			{
				"x": 2.6704802729,
				"y": 3.5033256139,
				"z": 1.1250501446,
				"element": "O" 
			},
			{
				"x": 1.0053831264,
				"y": 2.4019427534,
				"z": -0.167449327,
				"element": "C" 
			},
			{
				"x": 0.4318903113,
				"y": 1.3018057979,
				"z": -0.8437806337,
				"element": "C" 
			},
			{
				"x": 1.1313558604,
				"y": 0.1162819444,
				"z": -0.8616243539,
				"element": "O" 
			},
			{
				"x": 0.5618974737,
				"y": -1.0214351926,
				"z": -1.4385620804,
				"element": "C" 
			},
			{
				"x": -0.4339501692,
				"y": -1.7291322571,
				"z": -0.7688502291,
				"element": "C" 
			},
			{
				"x": -0.9130843797,
				"y": -2.9186132834,
				"z": -1.3137236481,
				"element": "C" 
			},
			{
				"x": -0.3825015208,
				"y": -3.3827843074,
				"z": -2.5186258831,
				"element": "C" 
			},
			{
				"x": -0.9831806453,
				"y": -4.8858726662,
				"z": -3.2026856909,
				"element": "Cl" 
			},
			{
				"x": 0.6173358451,
				"y": -2.677192379,
				"z": -3.186241692,
				"element": "C" 
			},
			{
				"x": 1.0908542618,
				"y": -1.483991347,
				"z": -2.6391912285,
				"element": "C" 
			},
			{
				"x": -0.730504945,
				"y": 1.3321664046,
				"z": -1.4745437269,
				"element": "N" 
			},
			{
				"x": -1.4175482196,
				"y": 2.482171033,
				"z": -1.4776686776,
				"element": "C" 
			},
			{
				"x": -0.9650248026,
				"y": 3.6396053634,
				"z": -0.8524688712,
				"element": "C" 
			},
			{
				"x": 0.2612092542,
				"y": 3.5842106346,
				"z": -0.193908571,
				"element": "C" 
			},
			{
				"x": 3.9424368002,
				"y": 1.3809209065,
				"z": 1.1286531314,
				"element": "H" 
			},
			{
				"x": 2.7771110239,
				"y": 0.4769187834,
				"z": 0.1760451393,
				"element": "H" 
			},
			{
				"x": -0.8298925928,
				"y": -1.3512179544,
				"z": 0.1672175016,
				"element": "H" 
			},
			{
				"x": -1.6885543371,
				"y": -3.4827977743,
				"z": -0.8080794234,
				"element": "H" 
			},
			{
				"x": 1.0193906937,
				"y": -3.0533858377,
				"z": -4.1200983133,
				"element": "H" 
			},
			{
				"x": 1.8677924271,
				"y": -0.9138245162,
				"z": -3.1371714343,
				"element": "H" 
			},
			{
				"x": -2.3677170255,
				"y": 2.4643615234,
				"z": -2.0075493617,
				"element": "H" 
			},
			{
				"x": -1.5517974733,
				"y": 4.5511978791,
				"z": -0.8798532965,
				"element": "H" 
			},
			{
				"x": 0.6824627315,
				"y": 4.4421979317,
				"z": 0.3192513794,
				"element": "H" 
			}
		],
		 "valence_orbital": [ 
			{
				"type": "occ",
				"energy": -0.27372,
				"method": "rhf"
			},
			{
				"type": "occ",
				"energy": -0.26456,
				"method": "rhf"
			},
			{
				"type": "occ",
				"energy": -0.25728,
				"method": "rhf"
			},
			{
				"type": "occ",
				"energy": -0.25219,
				"method": "rhf"
			},
			{
				"type": "occ",
				"energy": -0.24445,
				"method": "rhf"
			},
			{
				"type": "unocc",
				"energy": -0.05037,
				"method": "rhf"
			},
			{
				"type": "unocc",
				"energy": -0.02392,
				"method": "rhf"
			},
			{
				"type": "unocc",
				"energy": -0.0234,
				"method": "rhf"
			},
			{
				"type": "unocc",
				"energy": -0.01397,
				"method": "rhf"
			},
			{
				"type": "unocc",
				"energy": 0.02335,
				"method": "rhf"
			}
		],
		"cosmo_sigma_profile": { 
			"-0.025": 0.0,
			"-0.024": 0.0,
			"-0.023": 0.0,
			"-0.022": 0.0,
			"-0.021": 0.0,
			"-0.02": 0.0,
			"-0.019": 0.0,
			"-0.018": 0.0,
			"-0.017": 0.0,
			"-0.016": 0.0,
			"-0.015": 0.00529342786344,
			"-0.014": 0.700017136401,
			"-0.013": 1.21583343594,
			"-0.012": 1.09022716769,
			"-0.011": 1.141565096,
			"-0.01": 2.10299496435,
			"-0.009": 2.12490155429,
			"-0.008": 4.78710337738,
			"-0.007": 14.3504780949,
			"-0.006": 15.3553923601,
			"-0.005": 14.3331243103,
			"-0.004": 11.9568894528,
			"-0.003": 12.0501490243,
			"-0.002": 17.2324445227,
			"-0.001": 21.8641219975,
			"0.0": 22.9777885546,
			"0.001": 28.0393442101,
			"0.002": 27.0389878266,
			"0.003": 18.3562146282,
			"0.004": 16.2797088695,
			"0.005": 9.48024747482,
			"0.006": 2.9672193117,
			"0.007": 2.77057864966,
			"0.008": 2.43417972886,
			"0.009": 2.08452248832,
			"0.01": 3.07769611805,
			"0.011": 2.39920823815,
			"0.012": 2.74369174571,
			"0.013": 4.51229449076,
			"0.014": 3.91712646201,
			"0.015": 0.465491464338,
			"0.016": 0.0,
			"0.017": 0.0,
			"0.018": 0.0,
			"0.019": 0.0,
			"0.02": 0.0,
			"0.021": 0.0,
			"0.022": 0.0,
			"0.023": 0.0,
			"0.024": 0.0,
			"0.025": 0.0
		}
	}
}
