{
	 "smiles": "OC(=O)C1(CCC1)C1=CC(Cl)=CC=C1", 
	 "Tm": 375.15, 
	 "num_atms": 25, 
	 "gaussian": { 
		 "optdone": 1, 
		 "sigma_profile": "yes", 
		 "theory": "DFT", 
		 "functional": "B3LYP", 
		 "basiset": "6-31G**", 
		 "properties": { 
			 "R2extent": 3486.4606, 
			 "electric_dipole_moment_norm": 0.879574311812, 
			 "electric_quadrupole_moment_norm": 14.4443240108, 
			 "total_energy": -1036.43141882, 
			 "HOMO_LUMO_gap": 0.22003, 
			 "cosmo_polarized_energy": -10.0, 
			 "cosmo_cavitation_energy": 29.98, 
			 "cosmo_dispersion_energy": -21.37, 
			 "cosmo_repulsion_energy": 1.71, 
			 "cosmo_total_nonelectrostatic_energy": 10.32, 
			 "SMD_solvation_energy": 5.69 
		},
		"coords": [
			{
				"x": 0.7978493198,
				"y": -0.1214369853,
				"z": -2.9464811192,
				"element": "O" 
			},
			{
				"x": 1.5356766239,
				"y": -0.2052923285,
				"z": -1.8136799488,
				"element": "C" 
			},
			{
				"x": 2.4966223786,
				"y": -0.9358002843,
				"z": -1.7108351347,
				"element": "O" 
			},
			{
				"x": 0.9981355008,
				"y": 0.7094316773,
				"z": -0.7220687955,
				"element": "C" 
			},
			{
				"x": 2.0694263303,
				"y": 1.1450670424,
				"z": 0.3269251533,
				"element": "C" 
			},
			{
				"x": 1.6020942926,
				"y": 2.6134659586,
				"z": 0.1673001941,
				"element": "C" 
			},
			{
				"x": 0.8505065321,
				"y": 2.2165492132,
				"z": -1.1276541626,
				"element": "C" 
			},
			{
				"x": -0.2471612663,
				"y": 0.040445822,
				"z": -0.1381958164,
				"element": "C" 
			},
			{
				"x": -1.5293745892,
				"y": 0.3617939025,
				"z": -0.5999127639,
				"element": "C" 
			},
			{
				"x": -2.640053801,
				"y": -0.296275202,
				"z": -0.0747098733,
				"element": "C" 
			},
			{
				"x": -4.2434835152,
				"y": 0.1344177921,
				"z": -0.6599390331,
				"element": "Cl" 
			},
			{
				"x": -2.5121956031,
				"y": -1.2856952291,
				"z": 0.8977998145,
				"element": "C" 
			},
			{
				"x": -1.23124302,
				"y": -1.6200962834,
				"z": 1.3384704103,
				"element": "C" 
			},
			{
				"x": -0.1101769143,
				"y": -0.968620562,
				"z": 0.8261680267,
				"element": "C" 
			},
			{
				"x": 1.1884899582,
				"y": -0.7525074487,
				"z": -3.5741699994,
				"element": "H" 
			},
			{
				"x": 1.9897976903,
				"y": 0.7041181391,
				"z": 1.3225591813,
				"element": "H" 
			},
			{
				"x": 3.0781649424,
				"y": 0.9682027359,
				"z": -0.0522751331,
				"element": "H" 
			},
			{
				"x": 2.3813540719,
				"y": 3.373882531,
				"z": 0.0726286493,
				"element": "H" 
			},
			{
				"x": 0.9147806879,
				"y": 2.9165374963,
				"z": 0.9620849735,
				"element": "H" 
			},
			{
				"x": -0.1625968952,
				"y": 2.6023102601,
				"z": -1.2564384973,
				"element": "H" 
			},
			{
				"x": 1.4194529937,
				"y": 2.4428399318,
				"z": -2.0331428937,
				"element": "H" 
			},
			{
				"x": -1.6712003941,
				"y": 1.1097851297,
				"z": -1.3703892985,
				"element": "H" 
			},
			{
				"x": -3.391316977,
				"y": -1.7816109363,
				"z": 1.2934795958,
				"element": "H" 
			},
			{
				"x": -1.109748696,
				"y": -2.3965591453,
				"z": 2.0879741034,
				"element": "H" 
			},
			{
				"x": 0.8792003489,
				"y": -1.2515532271,
				"z": 1.1708023673,
				"element": "H" 
			}
		],
		 "valence_orbital": [ 
			{
				"type": "occ",
				"energy": -0.31394,
				"method": "rhf"
			},
			{
				"type": "occ",
				"energy": -0.3109,
				"method": "rhf"
			},
			{
				"type": "occ",
				"energy": -0.28194,
				"method": "rhf"
			},
			{
				"type": "occ",
				"energy": -0.25583,
				"method": "rhf"
			},
			{
				"type": "occ",
				"energy": -0.24529,
				"method": "rhf"
			},
			{
				"type": "unocc",
				"energy": -0.02526,
				"method": "rhf"
			},
			{
				"type": "unocc",
				"energy": -0.01569,
				"method": "rhf"
			},
			{
				"type": "unocc",
				"energy": 0.01622,
				"method": "rhf"
			},
			{
				"type": "unocc",
				"energy": 0.03174,
				"method": "rhf"
			},
			{
				"type": "unocc",
				"energy": 0.06996,
				"method": "rhf"
			}
		],
		"cosmo_sigma_profile": { 
			"-0.025": 0.0,
			"-0.024": 0.0,
			"-0.023": 0.0,
			"-0.022": 0.0,
			"-0.021": 0.0,
			"-0.02": 0.0,
			"-0.019": 0.0407049665034,
			"-0.018": 0.615480524922,
			"-0.017": 1.59477875393,
			"-0.016": 0.286234551925,
			"-0.015": 0.52615380216,
			"-0.014": 0.70969365226,
			"-0.013": 1.07555455756,
			"-0.012": 1.30666065666,
			"-0.011": 0.303168730849,
			"-0.01": 0.402538311536,
			"-0.009": 0.534837977236,
			"-0.008": 0.814872150169,
			"-0.007": 5.05256910965,
			"-0.006": 9.41450560701,
			"-0.005": 12.1057583696,
			"-0.004": 14.6200007092,
			"-0.003": 16.7277935193,
			"-0.002": 21.9192373444,
			"-0.001": 20.710205994,
			"0.0": 22.632630949,
			"0.001": 21.4964578646,
			"0.002": 17.2824591003,
			"0.003": 18.5295735057,
			"0.004": 19.4399246645,
			"0.005": 10.6984979472,
			"0.006": 3.19184335846,
			"0.007": 3.57793547491,
			"0.008": 2.25892023122,
			"0.009": 1.79907815939,
			"0.01": 2.44252898081,
			"0.011": 3.90031329195,
			"0.012": 3.58253482002,
			"0.013": 0.236453297021,
			"0.014": 0.0,
			"0.015": 0.0,
			"0.016": 0.0,
			"0.017": 0.0,
			"0.018": 0.0,
			"0.019": 0.0,
			"0.02": 0.0,
			"0.021": 0.0,
			"0.022": 0.0,
			"0.023": 0.0,
			"0.024": 0.0,
			"0.025": 0.0
		}
	}
}
