{
	 "smiles": "COC1=CC=C(C=C2/CN(C3=C(C=CC=C3)N2S(=O)(=O)C2=CC=C(C)C=C2)S(=O)(=O)C2=CC=C(C)C=C2)C=C1", 
	 "Tm": 425.0, 
	 "num_atms": 67, 
	 "gaussian": { 
		 "optdone": 1, 
		 "sigma_profile": "yes", 
		 "theory": "DFT", 
		 "functional": "B3LYP", 
		 "basiset": "6-31G**", 
		 "properties": { 
			 "R2extent": 19559.5161, 
			 "electric_dipole_moment_norm": 5.96027584429, 
			 "electric_quadrupole_moment_norm": 35.8070544498, 
			 "total_energy": -2441.89782002, 
			 "HOMO_LUMO_gap": 0.15339, 
			 "cosmo_polarized_energy": -24.61, 
			 "cosmo_cavitation_energy": 71.58, 
			 "cosmo_dispersion_energy": -43.75, 
			 "cosmo_repulsion_energy": 3.14, 
			 "cosmo_total_nonelectrostatic_energy": 30.97, 
			 "SMD_solvation_energy": 10.18 
		},
		"coords": [
			{
				"x": 5.4197103513,
				"y": 1.2041535131,
				"z": -5.1032486772,
				"element": "C" 
			},
			{
				"x": 4.0640633715,
				"y": 0.8650683466,
				"z": -4.8575566253,
				"element": "O" 
			},
			{
				"x": 3.6590432125,
				"y": 0.7250410358,
				"z": -3.5616366684,
				"element": "C" 
			},
			{
				"x": 2.31248231,
				"y": 0.3785649813,
				"z": -3.3761927991,
				"element": "C" 
			},
			{
				"x": 1.8004075963,
				"y": 0.2138672252,
				"z": -2.0967021649,
				"element": "C" 
			},
			{
				"x": 2.6043399927,
				"y": 0.4015596579,
				"z": -0.9544713878,
				"element": "C" 
			},
			{
				"x": 2.1094712528,
				"y": 0.2117019795,
				"z": 0.4238541609,
				"element": "C" 
			},
			{
				"x": 0.9743219377,
				"y": 0.7063430021,
				"z": 0.9562593986,
				"element": "C" 
			},
			{
				"x": 0.1211089401,
				"y": 1.7694009737,
				"z": 0.2950640607,
				"element": "C" 
			},
			{
				"x": -1.2783340065,
				"y": 1.6556940037,
				"z": 0.7649114159,
				"element": "N" 
			},
			{
				"x": -1.3563888694,
				"y": 1.9073977876,
				"z": 2.1712603084,
				"element": "C" 
			},
			{
				"x": -0.35530725,
				"y": 1.2701127144,
				"z": 2.9356731698,
				"element": "C" 
			},
			{
				"x": -0.2522884394,
				"y": 1.5232268415,
				"z": 4.3062840234,
				"element": "C" 
			},
			{
				"x": -1.1743192811,
				"y": 2.3577687104,
				"z": 4.9336995404,
				"element": "C" 
			},
			{
				"x": -2.1808669185,
				"y": 2.9643807611,
				"z": 4.1825595223,
				"element": "C" 
			},
			{
				"x": -2.2648233837,
				"y": 2.7627982519,
				"z": 2.8049291506,
				"element": "C" 
			},
			{
				"x": 0.5612487099,
				"y": 0.372983135,
				"z": 2.288635877,
				"element": "N" 
			},
			{
				"x": 0.4018566183,
				"y": -1.3130854125,
				"z": 2.7358838007,
				"element": "S" 
			},
			{
				"x": 0.1473693366,
				"y": -1.3073211086,
				"z": 4.1753442429,
				"element": "O" 
			},
			{
				"x": 1.5557613358,
				"y": -2.0122265,
				"z": 2.1724435331,
				"element": "O" 
			},
			{
				"x": -1.0669669978,
				"y": -1.9390704092,
				"z": 1.9254384129,
				"element": "C" 
			},
			{
				"x": -0.9319259925,
				"y": -2.7309957367,
				"z": 0.7851688975,
				"element": "C" 
			},
			{
				"x": -2.0785919567,
				"y": -3.2594286457,
				"z": 0.19016627,
				"element": "C" 
			},
			{
				"x": -3.3537569255,
				"y": -2.9977847632,
				"z": 0.7094938142,
				"element": "C" 
			},
			{
				"x": -4.5923505414,
				"y": -3.5859719235,
				"z": 0.0770696182,
				"element": "C" 
			},
			{
				"x": -3.4572215791,
				"y": -2.1871268435,
				"z": 1.8525688003,
				"element": "C" 
			},
			{
				"x": -2.3257960735,
				"y": -1.6640033571,
				"z": 2.4707217361,
				"element": "C" 
			},
			{
				"x": -2.450982804,
				"y": 2.3340713182,
				"z": -0.286532167,
				"element": "S" 
			},
			{
				"x": -3.7565828867,
				"y": 2.0337558306,
				"z": 0.3048751783,
				"element": "O" 
			},
			{
				"x": -2.0941040336,
				"y": 3.7160232594,
				"z": -0.6340264394,
				"element": "O" 
			},
			{
				"x": -2.220174376,
				"y": 1.3258194836,
				"z": -1.7480703644,
				"element": "C" 
			},
			{
				"x": -2.4900642495,
				"y": -0.0445077047,
				"z": -1.6927259891,
				"element": "C" 
			},
			{
				"x": -2.3661834278,
				"y": -0.8001360877,
				"z": -2.8542868229,
				"element": "C" 
			},
			{
				"x": -1.9925846239,
				"y": -0.2090044289,
				"z": -4.0735436295,
				"element": "C" 
			},
			{
				"x": -1.8965991574,
				"y": -1.0405330476,
				"z": -5.3297138327,
				"element": "C" 
			},
			{
				"x": -1.7344129014,
				"y": 1.1675822436,
				"z": -4.0968977235,
				"element": "C" 
			},
			{
				"x": -1.8458906608,
				"y": 1.9422087496,
				"z": -2.9414429193,
				"element": "C" 
			},
			{
				"x": 3.9547422322,
				"y": 0.7185747537,
				"z": -1.1632629484,
				"element": "C" 
			},
			{
				"x": 4.4851774823,
				"y": 0.8878109961,
				"z": -2.4432889266,
				"element": "C" 
			},
			{
				"x": 6.1054913586,
				"y": 0.4377299342,
				"z": -4.7195549794,
				"element": "H" 
			},
			{
				"x": 5.5234861613,
				"y": 1.2669111347,
				"z": -6.1876073699,
				"element": "H" 
			},
			{
				"x": 5.6821047822,
				"y": 2.173260491,
				"z": -4.6595433481,
				"element": "H" 
			},
			{
				"x": 1.6895449866,
				"y": 0.2297645218,
				"z": -4.2520540189,
				"element": "H" 
			},
			{
				"x": 0.7663794101,
				"y": -0.0973092599,
				"z": -1.9810209331,
				"element": "H" 
			},
			{
				"x": 2.7346617841,
				"y": -0.3899113419,
				"z": 1.0742491912,
				"element": "H" 
			},
			{
				"x": 0.1555892799,
				"y": 1.662799544,
				"z": -0.7859212423,
				"element": "H" 
			},
			{
				"x": 0.5110050751,
				"y": 2.7681223673,
				"z": 0.5409672528,
				"element": "H" 
			},
			{
				"x": 0.5381817076,
				"y": 1.0399351459,
				"z": 4.8653585262,
				"element": "H" 
			},
			{
				"x": -1.0984575832,
				"y": 2.5389446031,
				"z": 6.0010923143,
				"element": "H" 
			},
			{
				"x": -2.8984366352,
				"y": 3.6234384092,
				"z": 4.6619928282,
				"element": "H" 
			},
			{
				"x": -3.0392836923,
				"y": 3.2578083761,
				"z": 2.2350296197,
				"element": "H" 
			},
			{
				"x": 0.0556580729,
				"y": -2.9480497196,
				"z": 0.3945634915,
				"element": "H" 
			},
			{
				"x": -1.9775406355,
				"y": -3.896827673,
				"z": -0.6844353984,
				"element": "H" 
			},
			{
				"x": -5.069131028,
				"y": -4.3102432703,
				"z": 0.7477388705,
				"element": "H" 
			},
			{
				"x": -4.3598913412,
				"y": -4.102838027,
				"z": -0.8578208438,
				"element": "H" 
			},
			{
				"x": -5.3352924335,
				"y": -2.8105438548,
				"z": -0.138151255,
				"element": "H" 
			},
			{
				"x": -4.4371374265,
				"y": -1.9740644022,
				"z": 2.2710039158,
				"element": "H" 
			},
			{
				"x": -2.4121284669,
				"y": -1.066837637,
				"z": 3.3711919272,
				"element": "H" 
			},
			{
				"x": -2.7830549887,
				"y": -0.5086005318,
				"z": -0.7578081744,
				"element": "H" 
			},
			{
				"x": -2.5644026207,
				"y": -1.8678686936,
				"z": -2.8158074431,
				"element": "H" 
			},
			{
				"x": -1.4019548024,
				"y": -1.9979866067,
				"z": -5.138127102,
				"element": "H" 
			},
			{
				"x": -1.340665466,
				"y": -0.5205110865,
				"z": -6.1141931114,
				"element": "H" 
			},
			{
				"x": -2.8943902464,
				"y": -1.2656655836,
				"z": -5.7256267192,
				"element": "H" 
			},
			{
				"x": -1.4423621538,
				"y": 1.6423462769,
				"z": -5.0294976215,
				"element": "H" 
			},
			{
				"x": -1.6473968066,
				"y": 3.0081787139,
				"z": -2.9554858158,
				"element": "H" 
			},
			{
				"x": 4.6072814439,
				"y": 0.84579278,
				"z": -0.3035811061,
				"element": "H" 
			},
			{
				"x": 5.5328549204,
				"y": 1.1414118033,
				"z": -2.5538563022,
				"element": "H" 
			}
		],
		 "valence_orbital": [ 
			{
				"type": "occ",
				"energy": -0.25808,
				"method": "rhf"
			},
			{
				"type": "occ",
				"energy": -0.25394,
				"method": "rhf"
			},
			{
				"type": "occ",
				"energy": -0.23862,
				"method": "rhf"
			},
			{
				"type": "occ",
				"energy": -0.22446,
				"method": "rhf"
			},
			{
				"type": "occ",
				"energy": -0.19955,
				"method": "rhf"
			},
			{
				"type": "unocc",
				"energy": -0.04616,
				"method": "rhf"
			},
			{
				"type": "unocc",
				"energy": -0.04181,
				"method": "rhf"
			},
			{
				"type": "unocc",
				"energy": -0.02726,
				"method": "rhf"
			},
			{
				"type": "unocc",
				"energy": -0.02279,
				"method": "rhf"
			},
			{
				"type": "unocc",
				"energy": -0.01964,
				"method": "rhf"
			}
		],
		"cosmo_sigma_profile": { 
			"-0.025": 0.0,
			"-0.024": 0.0,
			"-0.023": 0.0,
			"-0.022": 0.0,
			"-0.021": 0.0,
			"-0.02": 0.0,
			"-0.019": 0.0,
			"-0.018": 0.0,
			"-0.017": 0.0,
			"-0.016": 0.0,
			"-0.015": 0.0,
			"-0.014": 0.0,
			"-0.013": 0.0,
			"-0.012": 0.0,
			"-0.011": 0.0,
			"-0.01": 0.0,
			"-0.009": 0.0,
			"-0.008": 0.100238104007,
			"-0.007": 7.46333461864,
			"-0.006": 29.1248737596,
			"-0.005": 49.191722898,
			"-0.004": 51.4819486721,
			"-0.003": 52.7244009831,
			"-0.002": 49.7567601326,
			"-0.001": 54.776692434,
			"0.0": 47.095591059,
			"0.001": 39.7288970676,
			"0.002": 40.0969094415,
			"0.003": 39.959378721,
			"0.004": 26.4105652066,
			"0.005": 19.2793058444,
			"0.006": 10.7120875922,
			"0.007": 8.46709269645,
			"0.008": 8.42818825563,
			"0.009": 10.8016287334,
			"0.01": 16.9608554406,
			"0.011": 9.14398112306,
			"0.012": 0.20750268659,
			"0.013": 0.0,
			"0.014": 0.0,
			"0.015": 0.0,
			"0.016": 0.0,
			"0.017": 0.0,
			"0.018": 0.0,
			"0.019": 0.0,
			"0.02": 0.0,
			"0.021": 0.0,
			"0.022": 0.0,
			"0.023": 0.0,
			"0.024": 0.0,
			"0.025": 0.0
		}
	}
}
