{
	 "smiles": "CC1=CC(OC2=C(C)C=C(CN)C=C2)=CC(C)=C1", 
	 "Tm": 330.15, 
	 "num_atms": 37, 
	 "gaussian": { 
		 "optdone": 1, 
		 "sigma_profile": "yes", 
		 "theory": "DFT", 
		 "functional": "B3LYP", 
		 "basiset": "6-31G**", 
		 "properties": { 
			 "R2extent": 7071.6314, 
			 "electric_dipole_moment_norm": 2.06433198396, 
			 "electric_quadrupole_moment_norm": 9.14473551394, 
			 "total_energy": -751.141103141, 
			 "HOMO_LUMO_gap": 0.20149, 
			 "cosmo_polarized_energy": -9.59, 
			 "cosmo_cavitation_energy": 40.15, 
			 "cosmo_dispersion_energy": -27.82, 
			 "cosmo_repulsion_energy": 2.21, 
			 "cosmo_total_nonelectrostatic_energy": 14.54, 
			 "SMD_solvation_energy": 5.55 
		},
		"coords": [
			{
				"x": -0.6153344161,
				"y": 0.0633674825,
				"z": -3.3514468259,
				"element": "C" 
			},
			{
				"x": -1.5066955615,
				"y": -0.4644361943,
				"z": -2.2507035079,
				"element": "C" 
			},
			{
				"x": -1.0403151158,
				"y": -0.5356857156,
				"z": -0.9348020555,
				"element": "C" 
			},
			{
				"x": -1.8884376646,
				"y": -0.9957768179,
				"z": 0.0766518685,
				"element": "C" 
			},
			{
				"x": -1.4571578335,
				"y": -1.1606358592,
				"z": 1.3807259229,
				"element": "O" 
			},
			{
				"x": -0.6933224333,
				"y": -0.1937616639,
				"z": 2.0081338111,
				"element": "C" 
			},
			{
				"x": 0.2135804654,
				"y": -0.6576008459,
				"z": 2.9765435385,
				"element": "C" 
			},
			{
				"x": 0.3587187793,
				"y": -2.1351489686,
				"z": 3.2391147812,
				"element": "C" 
			},
			{
				"x": 0.9507102707,
				"y": 0.2965060146,
				"z": 3.6832397735,
				"element": "C" 
			},
			{
				"x": 0.8186787183,
				"y": 1.67341985,
				"z": 3.4565444361,
				"element": "C" 
			},
			{
				"x": 1.6901185068,
				"y": 2.6725102889,
				"z": 4.1968130249,
				"element": "C" 
			},
			{
				"x": 2.9819624555,
				"y": 2.9893166851,
				"z": 3.5612522589,
				"element": "N" 
			},
			{
				"x": -0.1036633537,
				"y": 2.0939439723,
				"z": 2.4917577297,
				"element": "C" 
			},
			{
				"x": -0.8612070552,
				"y": 1.171601841,
				"z": 1.7705542418,
				"element": "C" 
			},
			{
				"x": -3.1916999012,
				"y": -1.3969472961,
				"z": -0.2078192249,
				"element": "C" 
			},
			{
				"x": -3.6688070571,
				"y": -1.3443522598,
				"z": -1.5234231017,
				"element": "C" 
			},
			{
				"x": -5.0712224883,
				"y": -1.8074344026,
				"z": -1.8434697391,
				"element": "C" 
			},
			{
				"x": -2.8187324645,
				"y": -0.8725587697,
				"z": -2.5291539929,
				"element": "C" 
			},
			{
				"x": 0.4426118476,
				"y": -0.0897581,
				"z": -3.1189734758,
				"element": "H" 
			},
			{
				"x": -0.8273968138,
				"y": -0.4265932789,
				"z": -4.3066127318,
				"element": "H" 
			},
			{
				"x": -0.7644186669,
				"y": 1.1404608705,
				"z": -3.4989947041,
				"element": "H" 
			},
			{
				"x": -0.0249083535,
				"y": -0.2381560522,
				"z": -0.6931026477,
				"element": "H" 
			},
			{
				"x": 1.140534342,
				"y": -2.3241276501,
				"z": 3.9794586954,
				"element": "H" 
			},
			{
				"x": -0.5768391819,
				"y": -2.5679241527,
				"z": 3.6105255744,
				"element": "H" 
			},
			{
				"x": 0.6100590592,
				"y": -2.6793773061,
				"z": 2.3226012052,
				"element": "H" 
			},
			{
				"x": 1.65248897,
				"y": -0.0503811028,
				"z": 4.4401526734,
				"element": "H" 
			},
			{
				"x": 1.9033567811,
				"y": 2.3003989094,
				"z": 5.2055778409,
				"element": "H" 
			},
			{
				"x": 1.1450299927,
				"y": 3.6154843723,
				"z": 4.3203872284,
				"element": "H" 
			},
			{
				"x": 3.5093972631,
				"y": 2.1267002294,
				"z": 3.4370121179,
				"element": "H" 
			},
			{
				"x": 2.8098778025,
				"y": 3.3364980818,
				"z": 2.619134439,
				"element": "H" 
			},
			{
				"x": -0.2442439592,
				"y": 3.156751771,
				"z": 2.3069042584,
				"element": "H" 
			},
			{
				"x": -1.5841071616,
				"y": 1.5048785031,
				"z": 1.0338711486,
				"element": "H" 
			},
			{
				"x": -3.8174719835,
				"y": -1.7548917105,
				"z": 0.6041226293,
				"element": "H" 
			},
			{
				"x": -5.3872524296,
				"y": -1.469425226,
				"z": -2.8342722333,
				"element": "H" 
			},
			{
				"x": -5.7933074357,
				"y": -1.4318542421,
				"z": -1.1110014927,
				"element": "H" 
			},
			{
				"x": -5.1390699583,
				"y": -2.9021757725,
				"z": -1.8304348397,
				"element": "H" 
			},
			{
				"x": -3.1832139655,
				"y": -0.8239354844,
				"z": -3.5527686251,
				"element": "H" 
			}
		],
		 "valence_orbital": [ 
			{
				"type": "occ",
				"energy": -0.24943,
				"method": "rhf"
			},
			{
				"type": "occ",
				"energy": -0.24142,
				"method": "rhf"
			},
			{
				"type": "occ",
				"energy": -0.23695,
				"method": "rhf"
			},
			{
				"type": "occ",
				"energy": -0.23175,
				"method": "rhf"
			},
			{
				"type": "occ",
				"energy": -0.20725,
				"method": "rhf"
			},
			{
				"type": "unocc",
				"energy": -0.00576,
				"method": "rhf"
			},
			{
				"type": "unocc",
				"energy": -0.00199,
				"method": "rhf"
			},
			{
				"type": "unocc",
				"energy": 0.00565,
				"method": "rhf"
			},
			{
				"type": "unocc",
				"energy": 0.01546,
				"method": "rhf"
			},
			{
				"type": "unocc",
				"energy": 0.08998,
				"method": "rhf"
			}
		],
		"cosmo_sigma_profile": { 
			"-0.025": 0.0,
			"-0.024": 0.0,
			"-0.023": 0.0,
			"-0.022": 0.0,
			"-0.021": 0.0,
			"-0.02": 0.0,
			"-0.019": 0.0,
			"-0.018": 0.0,
			"-0.017": 0.0,
			"-0.016": 0.0,
			"-0.015": 0.0,
			"-0.014": 0.0,
			"-0.013": 0.0,
			"-0.012": 0.0,
			"-0.011": 0.0,
			"-0.01": 0.134503313756,
			"-0.009": 1.88431839592,
			"-0.008": 2.29234349594,
			"-0.007": 3.07614179872,
			"-0.006": 5.10987254005,
			"-0.005": 15.5229206077,
			"-0.004": 34.7966121146,
			"-0.003": 32.2974020873,
			"-0.002": 31.5444324723,
			"-0.001": 31.3511766244,
			"0.0": 37.6016867728,
			"0.001": 25.5611307868,
			"0.002": 17.4108334416,
			"0.003": 16.0541039462,
			"0.004": 18.51044423,
			"0.005": 17.3276592012,
			"0.006": 12.551556661,
			"0.007": 2.37356737659,
			"0.008": 2.04932883806,
			"0.009": 1.32834701524,
			"0.01": 0.923499238445,
			"0.011": 0.616321989271,
			"0.012": 0.52585197675,
			"0.013": 0.985845072676,
			"0.014": 0.389191465655,
			"0.015": 0.356345067013,
			"0.016": 0.950293019584,
			"0.017": 0.749251535736,
			"0.018": 0.642765675634,
			"0.019": 0.602762103071,
			"0.02": 0.435776300963,
			"0.021": 0.0,
			"0.022": 0.0,
			"0.023": 0.0,
			"0.024": 0.0,
			"0.025": 0.0
		}
	}
}
