{
	 "smiles": "CC1=CC2=C(OC(=C2)C(O)=O)C=C1", 
	 "Tm": 517.15, 
	 "num_atms": 21, 
	 "gaussian": { 
		 "optdone": 1, 
		 "sigma_profile": "yes", 
		 "theory": "DFT", 
		 "functional": "B3LYP", 
		 "basiset": "6-31G**", 
		 "properties": { 
			 "R2extent": 3533.3728, 
			 "electric_dipole_moment_norm": 2.22450382333, 
			 "electric_quadrupole_moment_norm": 8.96767624806, 
			 "total_energy": -611.567405404, 
			 "HOMO_LUMO_gap": 0.17358, 
			 "cosmo_polarized_energy": -10.4, 
			 "cosmo_cavitation_energy": 26.12, 
			 "cosmo_dispersion_energy": -19.36, 
			 "cosmo_repulsion_energy": 1.53, 
			 "cosmo_total_nonelectrostatic_energy": 8.3, 
			 "SMD_solvation_energy": 6.16 
		},
		"coords": [
			{
				"x": -2.3889145544,
				"y": 2.9258309026,
				"z": 0.4991519457,
				"element": "C" 
			},
			{
				"x": -1.6703377425,
				"y": 1.6474813503,
				"z": 0.1318866761,
				"element": "C" 
			},
			{
				"x": -2.1126246063,
				"y": 0.4152308369,
				"z": 0.6044077852,
				"element": "C" 
			},
			{
				"x": -1.4167458486,
				"y": -0.7519142323,
				"z": 0.240127831,
				"element": "C" 
			},
			{
				"x": -0.2877839167,
				"y": -0.6440540085,
				"z": -0.5951728855,
				"element": "C" 
			},
			{
				"x": 0.2523528252,
				"y": -1.8732517678,
				"z": -0.8385344763,
				"element": "O" 
			},
			{
				"x": -0.53541011,
				"y": -2.772009524,
				"z": -0.1551992337,
				"element": "C" 
			},
			{
				"x": -1.5540076094,
				"y": -2.1537776459,
				"z": 0.5110489601,
				"element": "C" 
			},
			{
				"x": -0.2156645552,
				"y": -4.2015800816,
				"z": -0.2136651241,
				"element": "C" 
			},
			{
				"x": 0.8701798303,
				"y": -4.472885397,
				"z": -0.971249876,
				"element": "O" 
			},
			{
				"x": -0.8632539676,
				"y": -5.0549049913,
				"z": 0.361886778,
				"element": "O" 
			},
			{
				"x": 0.1812573527,
				"y": 0.5714426512,
				"z": -1.0851342342,
				"element": "C" 
			},
			{
				"x": -0.5281388911,
				"y": 1.7053267762,
				"z": -0.706970231,
				"element": "C" 
			},
			{
				"x": -2.755593975,
				"y": 3.4482285222,
				"z": -0.3920464876,
				"element": "H" 
			},
			{
				"x": -3.2476103652,
				"y": 2.7285166925,
				"z": 1.1463639327,
				"element": "H" 
			},
			{
				"x": -1.724926112,
				"y": 3.6196372775,
				"z": 1.0276976489,
				"element": "H" 
			},
			{
				"x": -2.9861677606,
				"y": 0.356301732,
				"z": 1.2476634764,
				"element": "H" 
			},
			{
				"x": -2.2970121647,
				"y": -2.6554838152,
				"z": 1.113239992,
				"element": "H" 
			},
			{
				"x": 0.9806105415,
				"y": -5.4374995156,
				"z": -0.9340550898,
				"element": "H" 
			},
			{
				"x": 1.0537402058,
				"y": 0.623854422,
				"z": -1.7269087577,
				"element": "H" 
			},
			{
				"x": -0.1964485761,
				"y": 2.6758098158,
				"z": -1.0670386303,
				"element": "H" 
			}
		],
		 "valence_orbital": [ 
			{
				"type": "occ",
				"energy": -0.32236,
				"method": "rhf"
			},
			{
				"type": "occ",
				"energy": -0.30053,
				"method": "rhf"
			},
			{
				"type": "occ",
				"energy": -0.28252,
				"method": "rhf"
			},
			{
				"type": "occ",
				"energy": -0.23917,
				"method": "rhf"
			},
			{
				"type": "occ",
				"energy": -0.23191,
				"method": "rhf"
			},
			{
				"type": "unocc",
				"energy": -0.05833,
				"method": "rhf"
			},
			{
				"type": "unocc",
				"energy": 0.00397,
				"method": "rhf"
			},
			{
				"type": "unocc",
				"energy": 0.01555,
				"method": "rhf"
			},
			{
				"type": "unocc",
				"energy": 0.07844,
				"method": "rhf"
			},
			{
				"type": "unocc",
				"energy": 0.0946,
				"method": "rhf"
			}
		],
		"cosmo_sigma_profile": { 
			"-0.025": 0.0,
			"-0.024": 0.0,
			"-0.023": 0.0,
			"-0.022": 0.0,
			"-0.021": 0.0,
			"-0.02": 0.0,
			"-0.019": 0.483638986228,
			"-0.018": 0.625798288418,
			"-0.017": 1.03254433083,
			"-0.016": 0.7614069408,
			"-0.015": 1.17981888986,
			"-0.014": 0.292203078266,
			"-0.013": 0.48253348895,
			"-0.012": 1.2005490531,
			"-0.011": 0.715731270307,
			"-0.01": 0.360917910424,
			"-0.009": 0.597990652495,
			"-0.008": 2.70654663222,
			"-0.007": 4.65013773921,
			"-0.006": 7.71274299327,
			"-0.005": 10.5881402309,
			"-0.004": 14.1384853077,
			"-0.003": 16.803780993,
			"-0.002": 16.0665441744,
			"-0.001": 15.4717167928,
			"0.0": 19.8706054716,
			"0.001": 19.183566221,
			"0.002": 15.9499676519,
			"0.003": 12.6047812941,
			"0.004": 12.8635681862,
			"0.005": 6.67320635576,
			"0.006": 2.43722318799,
			"0.007": 3.24151299859,
			"0.008": 3.8137334669,
			"0.009": 3.98191262012,
			"0.01": 3.91983971706,
			"0.011": 5.1191844104,
			"0.012": 3.55180413953,
			"0.013": 0.0201411137536,
			"0.014": 0.0,
			"0.015": 0.0,
			"0.016": 0.0,
			"0.017": 0.0,
			"0.018": 0.0,
			"0.019": 0.0,
			"0.02": 0.0,
			"0.021": 0.0,
			"0.022": 0.0,
			"0.023": 0.0,
			"0.024": 0.0,
			"0.025": 0.0
		}
	}
}
