{
	 "smiles": "CC1=NCCNC2=C1C(=O)N(C1=CC=CC=C1)C1=CC=CC=C21", 
	 "Tm": 494.15, 
	 "num_atms": 40, 
	 "gaussian": { 
		 "optdone": 1, 
		 "sigma_profile": "yes", 
		 "theory": "DFT", 
		 "functional": "B3LYP", 
		 "basiset": "6-31G**", 
		 "properties": { 
			 "R2extent": 7305.6758, 
			 "electric_dipole_moment_norm": 5.74118193493, 
			 "electric_quadrupole_moment_norm": 19.3945720579, 
			 "total_energy": -973.75094438, 
			 "HOMO_LUMO_gap": 0.15896, 
			 "cosmo_polarized_energy": -19.75, 
			 "cosmo_cavitation_energy": 41.66, 
			 "cosmo_dispersion_energy": -29.71, 
			 "cosmo_repulsion_energy": 2.25, 
			 "cosmo_total_nonelectrostatic_energy": 14.2, 
			 "SMD_solvation_energy": 3.59 
		},
		"coords": [
			{
				"x": 0.6455560639,
				"y": 2.9819121422,
				"z": 2.8549962643,
				"element": "C" 
			},
			{
				"x": -0.4791465404,
				"y": 2.5677588168,
				"z": 1.9271124797,
				"element": "C" 
			},
			{
				"x": -1.5313630774,
				"y": 3.3028970357,
				"z": 1.9521303925,
				"element": "N" 
			},
			{
				"x": -2.6263570199,
				"y": 2.9758056496,
				"z": 1.0618303934,
				"element": "C" 
			},
			{
				"x": -2.2469605848,
				"y": 3.3225387811,
				"z": -0.3799382639,
				"element": "C" 
			},
			{
				"x": -1.3442468366,
				"y": 2.3327706347,
				"z": -0.9711830728,
				"element": "N" 
			},
			{
				"x": -0.5843169342,
				"y": 1.3922252991,
				"z": -0.3329445179,
				"element": "C" 
			},
			{
				"x": -0.2422725832,
				"y": 1.40358932,
				"z": 1.0174267687,
				"element": "C" 
			},
			{
				"x": 0.3973334976,
				"y": 0.2359212709,
				"z": 1.626840944,
				"element": "C" 
			},
			{
				"x": 0.6158093207,
				"y": 0.1179495422,
				"z": 2.8306802347,
				"element": "O" 
			},
			{
				"x": 0.7257011154,
				"y": -0.8459637053,
				"z": 0.7763054779,
				"element": "N" 
			},
			{
				"x": 1.2766341681,
				"y": -2.0178118211,
				"z": 1.4135592979,
				"element": "C" 
			},
			{
				"x": 2.6370618107,
				"y": -2.0692615413,
				"z": 1.7223393917,
				"element": "C" 
			},
			{
				"x": 3.1653192636,
				"y": -3.2086624004,
				"z": 2.329227245,
				"element": "C" 
			},
			{
				"x": 2.3373954554,
				"y": -4.2938343538,
				"z": 2.6252338712,
				"element": "C" 
			},
			{
				"x": 0.9770741931,
				"y": -4.2366902228,
				"z": 2.3164196258,
				"element": "C" 
			},
			{
				"x": 0.443863293,
				"y": -3.0975887769,
				"z": 1.7116575441,
				"element": "C" 
			},
			{
				"x": 0.5751459807,
				"y": -0.7985932351,
				"z": -0.603503767,
				"element": "C" 
			},
			{
				"x": 1.0471728877,
				"y": -1.8471601467,
				"z": -1.4193963189,
				"element": "C" 
			},
			{
				"x": 0.9298148862,
				"y": -1.7772385937,
				"z": -2.79846526,
				"element": "C" 
			},
			{
				"x": 0.3526941233,
				"y": -0.6546108178,
				"z": -3.4025246358,
				"element": "C" 
			},
			{
				"x": -0.1252625225,
				"y": 0.3732284939,
				"z": -2.6042182959,
				"element": "C" 
			},
			{
				"x": -0.0549998992,
				"y": 0.32300353,
				"z": -1.1963257147,
				"element": "C" 
			},
			{
				"x": 0.4128951662,
				"y": 3.9706717776,
				"z": 3.2538828588,
				"element": "H" 
			},
			{
				"x": 0.7560136974,
				"y": 2.2641500492,
				"z": 3.6686187287,
				"element": "H" 
			},
			{
				"x": 1.6022056665,
				"y": 3.0157154463,
				"z": 2.321538911,
				"element": "H" 
			},
			{
				"x": -3.4982474652,
				"y": 3.5753625991,
				"z": 1.345409627,
				"element": "H" 
			},
			{
				"x": -2.9189433148,
				"y": 1.916033068,
				"z": 1.1131778782,
				"element": "H" 
			},
			{
				"x": -3.1390926368,
				"y": 3.3652681042,
				"z": -1.016403566,
				"element": "H" 
			},
			{
				"x": -1.7896562626,
				"y": 4.318766733,
				"z": -0.3890686998,
				"element": "H" 
			},
			{
				"x": -1.5921428373,
				"y": 2.0830470672,
				"z": -1.9133448542,
				"element": "H" 
			},
			{
				"x": 3.2676707548,
				"y": -1.2162989646,
				"z": 1.4937557112,
				"element": "H" 
			},
			{
				"x": 4.222809099,
				"y": -3.2470346773,
				"z": 2.573328643,
				"element": "H" 
			},
			{
				"x": 2.7507279564,
				"y": -5.1797490445,
				"z": 3.0983629666,
				"element": "H" 
			},
			{
				"x": 0.3285008253,
				"y": -5.075844871,
				"z": 2.5500246971,
				"element": "H" 
			},
			{
				"x": -0.6134546006,
				"y": -3.0368038955,
				"z": 1.4735366636,
				"element": "H" 
			},
			{
				"x": 1.5150224269,
				"y": -2.7064937358,
				"z": -0.9567493348,
				"element": "H" 
			},
			{
				"x": 1.3061807892,
				"y": -2.593882871,
				"z": -3.4073773491,
				"element": "H" 
			},
			{
				"x": 0.2879675243,
				"y": -0.5789515797,
				"z": -4.4830190873,
				"element": "H" 
			},
			{
				"x": -0.5192068497,
				"y": 1.2537598935,
				"z": -3.101833878,
				"element": "H" 
			}
		],
		 "valence_orbital": [ 
			{
				"type": "occ",
				"energy": -0.25526,
				"method": "rhf"
			},
			{
				"type": "occ",
				"energy": -0.24026,
				"method": "rhf"
			},
			{
				"type": "occ",
				"energy": -0.23043,
				"method": "rhf"
			},
			{
				"type": "occ",
				"energy": -0.21993,
				"method": "rhf"
			},
			{
				"type": "occ",
				"energy": -0.20832,
				"method": "rhf"
			},
			{
				"type": "unocc",
				"energy": -0.04936,
				"method": "rhf"
			},
			{
				"type": "unocc",
				"energy": -0.01139,
				"method": "rhf"
			},
			{
				"type": "unocc",
				"energy": -0.00995,
				"method": "rhf"
			},
			{
				"type": "unocc",
				"energy": -0.00581,
				"method": "rhf"
			},
			{
				"type": "unocc",
				"energy": 0.01962,
				"method": "rhf"
			}
		],
		"cosmo_sigma_profile": { 
			"-0.025": 0.0,
			"-0.024": 0.0,
			"-0.023": 0.0,
			"-0.022": 0.0,
			"-0.021": 0.0,
			"-0.02": 0.0,
			"-0.019": 0.0,
			"-0.018": 0.0,
			"-0.017": 0.0,
			"-0.016": 0.143365786495,
			"-0.015": 0.755941596406,
			"-0.014": 1.15877270085,
			"-0.013": 0.987752274785,
			"-0.012": 1.10417260757,
			"-0.011": 1.37920272633,
			"-0.01": 1.29931300381,
			"-0.009": 1.68193854462,
			"-0.008": 1.41961131318,
			"-0.007": 4.83425986826,
			"-0.006": 17.7426307399,
			"-0.005": 22.2960805028,
			"-0.004": 29.9908335477,
			"-0.003": 27.235046465,
			"-0.002": 26.831869318,
			"-0.001": 27.2867952405,
			"0.0": 27.0226724486,
			"0.001": 29.7191081551,
			"0.002": 21.9973008237,
			"0.003": 19.9562217434,
			"0.004": 20.1036051709,
			"0.005": 11.0397321853,
			"0.006": 5.63589248297,
			"0.007": 4.09823504129,
			"0.008": 3.68130807314,
			"0.009": 2.99988102914,
			"0.01": 2.47536961509,
			"0.011": 3.52897848318,
			"0.012": 3.07745496306,
			"0.013": 3.36702536089,
			"0.014": 3.95667529611,
			"0.015": 2.26481738352,
			"0.016": 0.54873165862,
			"0.017": 0.581031767233,
			"0.018": 0.244919506544,
			"0.019": 0.0,
			"0.02": 0.0,
			"0.021": 0.0,
			"0.022": 0.0,
			"0.023": 0.0,
			"0.024": 0.0,
			"0.025": 0.0
		}
	}
}
