{
	 "smiles": "COC1=CC=C(C=C1C#N)C(F)(F)F", 
	 "Tm": 305.15, 
	 "num_atms": 20, 
	 "gaussian": { 
		 "optdone": 1, 
		 "sigma_profile": "yes", 
		 "theory": "DFT", 
		 "functional": "B3LYP", 
		 "basiset": "6-31G**", 
		 "properties": { 
			 "R2extent": 3690.6455, 
			 "electric_dipole_moment_norm": 5.46492629868, 
			 "electric_quadrupole_moment_norm": 12.285376378, 
			 "total_energy": -776.047150489, 
			 "HOMO_LUMO_gap": 0.19338, 
			 "cosmo_polarized_energy": -11.71, 
			 "cosmo_cavitation_energy": 27.23, 
			 "cosmo_dispersion_energy": -18.76, 
			 "cosmo_repulsion_energy": 1.42, 
			 "cosmo_total_nonelectrostatic_energy": 9.89, 
			 "SMD_solvation_energy": 8.06 
		},
		"coords": [
			{
				"x": -2.0248267615,
				"y": 1.136851579,
				"z": 1.7830858283,
				"element": "C" 
			},
			{
				"x": -1.3770008426,
				"y": 1.2412556484,
				"z": 0.5180039404,
				"element": "O" 
			},
			{
				"x": -0.3061339912,
				"y": 0.4622578126,
				"z": 0.2649714711,
				"element": "C" 
			},
			{
				"x": 0.2435963518,
				"y": -0.4612114481,
				"z": 1.163532756,
				"element": "C" 
			},
			{
				"x": 1.355614072,
				"y": -1.2145165672,
				"z": 0.7961264059,
				"element": "C" 
			},
			{
				"x": 1.9385151028,
				"y": -1.0632944687,
				"z": -0.4643991035,
				"element": "C" 
			},
			{
				"x": 1.4011340534,
				"y": -0.1460792469,
				"z": -1.3657245977,
				"element": "C" 
			},
			{
				"x": 0.284573193,
				"y": 0.6194417595,
				"z": -1.0137178183,
				"element": "C" 
			},
			{
				"x": -0.2598574285,
				"y": 1.5646375772,
				"z": -1.9408810769,
				"element": "C" 
			},
			{
				"x": -0.6821156671,
				"y": 2.324842177,
				"z": -2.713126583,
				"element": "N" 
			},
			{
				"x": 3.1027869469,
				"y": -1.9257845032,
				"z": -0.8641238177,
				"element": "C" 
			},
			{
				"x": 3.8615319601,
				"y": -1.3370976415,
				"z": -1.8131451247,
				"element": "F" 
			},
			{
				"x": 3.9025720619,
				"y": -2.2005769416,
				"z": 0.1907800855,
				"element": "F" 
			},
			{
				"x": 2.6967816879,
				"y": -3.1155299016,
				"z": -1.3653449901,
				"element": "F" 
			},
			{
				"x": -2.84979185,
				"y": 1.8482507122,
				"z": 1.7492618316,
				"element": "H" 
			},
			{
				"x": -2.4198199406,
				"y": 0.1274282675,
				"z": 1.9461200692,
				"element": "H" 
			},
			{
				"x": -1.3460186633,
				"y": 1.404003519,
				"z": 2.6012923727,
				"element": "H" 
			},
			{
				"x": -0.1870337559,
				"y": -0.593412404,
				"z": 2.1480563823,
				"element": "H" 
			},
			{
				"x": 1.7790999904,
				"y": -1.9211868392,
				"z": 1.5018286013,
				"element": "H" 
			},
			{
				"x": 1.8481934805,
				"y": -0.0121790903,
				"z": -2.3437966325,
				"element": "H" 
			}
		],
		 "valence_orbital": [ 
			{
				"type": "occ",
				"energy": -0.35485,
				"method": "rhf"
			},
			{
				"type": "occ",
				"energy": -0.35183,
				"method": "rhf"
			},
			{
				"type": "occ",
				"energy": -0.33171,
				"method": "rhf"
			},
			{
				"type": "occ",
				"energy": -0.28236,
				"method": "rhf"
			},
			{
				"type": "occ",
				"energy": -0.2549,
				"method": "rhf"
			},
			{
				"type": "unocc",
				"energy": -0.06152,
				"method": "rhf"
			},
			{
				"type": "unocc",
				"energy": -0.03383,
				"method": "rhf"
			},
			{
				"type": "unocc",
				"energy": 0.03147,
				"method": "rhf"
			},
			{
				"type": "unocc",
				"energy": 0.06083,
				"method": "rhf"
			},
			{
				"type": "unocc",
				"energy": 0.07423,
				"method": "rhf"
			}
		],
		"cosmo_sigma_profile": { 
			"-0.025": 0.0,
			"-0.024": 0.0,
			"-0.023": 0.0,
			"-0.022": 0.0,
			"-0.021": 0.0,
			"-0.02": 0.0,
			"-0.019": 0.0,
			"-0.018": 0.0,
			"-0.017": 0.0,
			"-0.016": 0.0,
			"-0.015": 0.0,
			"-0.014": 0.0,
			"-0.013": 0.0,
			"-0.012": 0.0,
			"-0.011": 0.0,
			"-0.01": 0.0181913838616,
			"-0.009": 1.50743010776,
			"-0.008": 6.20583307245,
			"-0.007": 11.614083859,
			"-0.006": 14.0756663199,
			"-0.005": 12.3559943208,
			"-0.004": 13.5361213849,
			"-0.003": 9.44939920106,
			"-0.002": 11.7811111837,
			"-0.001": 19.4728057333,
			"0.0": 18.7947430221,
			"0.001": 17.4391899286,
			"0.002": 22.7908364061,
			"0.003": 26.2673345217,
			"0.004": 3.65548667565,
			"0.005": 3.19031223776,
			"0.006": 4.23865590344,
			"0.007": 5.21634126048,
			"0.008": 5.26481932547,
			"0.009": 3.24479882488,
			"0.01": 3.50760163469,
			"0.011": 2.35692663027,
			"0.012": 2.47221612243,
			"0.013": 1.31157836059,
			"0.014": 0.0,
			"0.015": 0.0,
			"0.016": 0.0,
			"0.017": 0.0,
			"0.018": 0.0,
			"0.019": 0.0,
			"0.02": 0.0,
			"0.021": 0.0,
			"0.022": 0.0,
			"0.023": 0.0,
			"0.024": 0.0,
			"0.025": 0.0
		}
	}
}
