{
	 "smiles": "COC1=CC=C(C=C1)C1=CSC(=N1)C(=CC1=CC=C(Cl)C=C1Cl)C#N", 
	 "Tm": 415.15, 
	 "num_atms": 37, 
	 "gaussian": { 
		 "optdone": 1, 
		 "sigma_profile": "yes", 
		 "theory": "DFT", 
		 "functional": "B3LYP", 
		 "basiset": "6-31G**", 
		 "properties": { 
			 "R2extent": 18032.7633, 
			 "electric_dipole_moment_norm": 3.57091633198, 
			 "electric_quadrupole_moment_norm": 9.66155720265, 
			 "total_energy": -2234.51240303, 
			 "HOMO_LUMO_gap": 0.10706, 
			 "cosmo_polarized_energy": -12.47, 
			 "cosmo_cavitation_energy": 48.8, 
			 "cosmo_dispersion_energy": -34.82, 
			 "cosmo_repulsion_energy": 2.56, 
			 "cosmo_total_nonelectrostatic_energy": 16.54, 
			 "SMD_solvation_energy": 8.29 
		},
		"coords": [
			{
				"x": -4.1693787075,
				"y": 5.509477282,
				"z": 1.2231091975,
				"element": "C" 
			},
			{
				"x": -5.0694983999,
				"y": 4.4789305664,
				"z": 0.8450143311,
				"element": "O" 
			},
			{
				"x": -4.5841315624,
				"y": 3.2122655423,
				"z": 0.7173702598,
				"element": "C" 
			},
			{
				"x": -3.2520820899,
				"y": 2.8396790956,
				"z": 0.932564533,
				"element": "C" 
			},
			{
				"x": -2.8710978668,
				"y": 1.5075765961,
				"z": 0.7709846123,
				"element": "C" 
			},
			{
				"x": -3.7929405212,
				"y": 0.5215152974,
				"z": 0.3958656093,
				"element": "C" 
			},
			{
				"x": -5.1277485466,
				"y": 0.9162328508,
				"z": 0.1828445644,
				"element": "C" 
			},
			{
				"x": -5.5202136301,
				"y": 2.2357116498,
				"z": 0.3398718042,
				"element": "C" 
			},
			{
				"x": -3.3579284628,
				"y": -0.877461683,
				"z": 0.2355769508,
				"element": "C" 
			},
			{
				"x": -4.1527435421,
				"y": -1.9547393443,
				"z": -0.0976516208,
				"element": "C" 
			},
			{
				"x": -3.228890297,
				"y": -3.4085453972,
				"z": -0.173730562,
				"element": "S" 
			},
			{
				"x": -1.8007403092,
				"y": -2.4732160455,
				"z": 0.2540444191,
				"element": "C" 
			},
			{
				"x": -2.0327981379,
				"y": -1.201328719,
				"z": 0.4300232891,
				"element": "N" 
			},
			{
				"x": -0.4735904934,
				"y": -3.0945666715,
				"z": 0.3900981448,
				"element": "C" 
			},
			{
				"x": 0.6127016104,
				"y": -2.3214612474,
				"z": 0.6800888068,
				"element": "C" 
			},
			{
				"x": 2.0062616318,
				"y": -2.682594966,
				"z": 0.8877492961,
				"element": "C" 
			},
			{
				"x": 2.4464093553,
				"y": -4.0029951262,
				"z": 1.1337218847,
				"element": "C" 
			},
			{
				"x": 3.7810941225,
				"y": -4.3139494836,
				"z": 1.3520846315,
				"element": "C" 
			},
			{
				"x": 4.7296951369,
				"y": -3.2907681546,
				"z": 1.3322508853,
				"element": "C" 
			},
			{
				"x": 6.4170193638,
				"y": -3.6616395481,
				"z": 1.6045841472,
				"element": "Cl" 
			},
			{
				"x": 4.3525662367,
				"y": -1.9696129026,
				"z": 1.1014211577,
				"element": "C" 
			},
			{
				"x": 3.0083407139,
				"y": -1.6794927484,
				"z": 0.8872117572,
				"element": "C" 
			},
			{
				"x": 2.6082455205,
				"y": 0.0056936891,
				"z": 0.5921772449,
				"element": "Cl" 
			},
			{
				"x": -0.4196159038,
				"y": -4.509885358,
				"z": 0.1769910106,
				"element": "C" 
			},
			{
				"x": -0.4175072621,
				"y": -5.6601020287,
				"z": -0.0047841097,
				"element": "N" 
			},
			{
				"x": -3.3634160702,
				"y": 5.6322939519,
				"z": 0.4883961278,
				"element": "H" 
			},
			{
				"x": -4.7605029485,
				"y": 6.4254998606,
				"z": 1.2639316241,
				"element": "H" 
			},
			{
				"x": -3.7288512113,
				"y": 5.3197688846,
				"z": 2.2102405743,
				"element": "H" 
			},
			{
				"x": -2.5076131453,
				"y": 3.570963322,
				"z": 1.2241184157,
				"element": "H" 
			},
			{
				"x": -1.8392477285,
				"y": 1.2203095008,
				"z": 0.9379720672,
				"element": "H" 
			},
			{
				"x": -5.8740094589,
				"y": 0.1847471701,
				"z": -0.1122047199,
				"element": "H" 
			},
			{
				"x": -6.548434468,
				"y": 2.5403970216,
				"z": 0.1753058513,
				"element": "H" 
			},
			{
				"x": -5.2139936471,
				"y": -1.9754980103,
				"z": -0.2953034863,
				"element": "H" 
			},
			{
				"x": 0.3834567258,
				"y": -1.264077522,
				"z": 0.7557498054,
				"element": "H" 
			},
			{
				"x": 1.7217736606,
				"y": -4.8059378622,
				"z": 1.1675910709,
				"element": "H" 
			},
			{
				"x": 4.0838934233,
				"y": -5.3371526708,
				"z": 1.5415217351,
				"element": "H" 
			},
			{
				"x": 5.091016909,
				"y": -1.1779367916,
				"z": 1.0860986896,
				"element": "H" 
			}
		],
		 "valence_orbital": [ 
			{
				"type": "occ",
				"energy": -0.27917,
				"method": "rhf"
			},
			{
				"type": "occ",
				"energy": -0.27261,
				"method": "rhf"
			},
			{
				"type": "occ",
				"energy": -0.25699,
				"method": "rhf"
			},
			{
				"type": "occ",
				"energy": -0.23903,
				"method": "rhf"
			},
			{
				"type": "occ",
				"energy": -0.20688,
				"method": "rhf"
			},
			{
				"type": "unocc",
				"energy": -0.09982,
				"method": "rhf"
			},
			{
				"type": "unocc",
				"energy": -0.03703,
				"method": "rhf"
			},
			{
				"type": "unocc",
				"energy": -0.03489,
				"method": "rhf"
			},
			{
				"type": "unocc",
				"energy": -0.0117,
				"method": "rhf"
			},
			{
				"type": "unocc",
				"energy": -0.00439,
				"method": "rhf"
			}
		],
		"cosmo_sigma_profile": { 
			"-0.025": 0.0,
			"-0.024": 0.0,
			"-0.023": 0.0,
			"-0.022": 0.0,
			"-0.021": 0.0,
			"-0.02": 0.0,
			"-0.019": 0.0,
			"-0.018": 0.0,
			"-0.017": 0.0,
			"-0.016": 0.0,
			"-0.015": 0.0,
			"-0.014": 0.0,
			"-0.013": 0.0,
			"-0.012": 0.0,
			"-0.011": 0.0066007572944,
			"-0.01": 1.25428522729,
			"-0.009": 3.98893697312,
			"-0.008": 5.72465813988,
			"-0.007": 8.24042095713,
			"-0.006": 14.9127981775,
			"-0.005": 22.1837922387,
			"-0.004": 23.9012431537,
			"-0.003": 28.0783736658,
			"-0.002": 30.3087192665,
			"-0.001": 37.4955136752,
			"0.0": 48.0656894839,
			"0.001": 38.0521776386,
			"0.002": 34.1963111255,
			"0.003": 35.0152703466,
			"0.004": 27.3448970818,
			"0.005": 16.3083377943,
			"0.006": 5.45628780067,
			"0.007": 4.87086825223,
			"0.008": 4.0351729853,
			"0.009": 4.29604402352,
			"0.01": 3.57832424596,
			"0.011": 2.68259042994,
			"0.012": 1.48404094883,
			"0.013": 0.017808250629,
			"0.014": 0.0,
			"0.015": 0.0,
			"0.016": 0.0,
			"0.017": 0.0,
			"0.018": 0.0,
			"0.019": 0.0,
			"0.02": 0.0,
			"0.021": 0.0,
			"0.022": 0.0,
			"0.023": 0.0,
			"0.024": 0.0,
			"0.025": 0.0
		}
	}
}
