{
	 "smiles": "C[C@H]1CCC[C@@H](O)C1", 
	 "Tm": 267.65, 
	 "num_atms": 22, 
	 "gaussian": { 
		 "optdone": 1, 
		 "sigma_profile": "yes", 
		 "theory": "DFT", 
		 "functional": "B3LYP", 
		 "basiset": "6-31G**", 
		 "properties": { 
			 "R2extent": 1187.2703, 
			 "electric_dipole_moment_norm": 1.4493026806, 
			 "electric_quadrupole_moment_norm": 4.34068527309, 
			 "total_energy": -350.412693763, 
			 "HOMO_LUMO_gap": 0.3214, 
			 "cosmo_polarized_energy": -5.28, 
			 "cosmo_cavitation_energy": 21.97, 
			 "cosmo_dispersion_energy": -16.57, 
			 "cosmo_repulsion_energy": 1.38, 
			 "cosmo_total_nonelectrostatic_energy": 6.78, 
			 "SMD_solvation_energy": 3.16 
		},
		"coords": [
			{
				"x": 1.3858046814,
				"y": 0.8400401138,
				"z": 2.0712545611,
				"element": "C" 
			},
			{
				"x": 0.7340276654,
				"y": -0.0233104988,
				"z": 0.9861129724,
				"element": "C" 
			},
			{
				"x": 0.1222915746,
				"y": -1.3137778532,
				"z": 1.5545655894,
				"element": "C" 
			},
			{
				"x": -0.3696223816,
				"y": -2.2565746269,
				"z": 0.4312461859,
				"element": "C" 
			},
			{
				"x": -0.8080805045,
				"y": -1.4876376806,
				"z": -0.8375017961,
				"element": "C" 
			},
			{
				"x": -1.3883610991,
				"y": -0.1100445936,
				"z": -0.4992242688,
				"element": "C" 
			},
			{
				"x": -2.5065033673,
				"y": -0.2263379869,
				"z": 0.3920061158,
				"element": "O" 
			},
			{
				"x": -0.3420067014,
				"y": 0.7731535292,
				"z": 0.2095242247,
				"element": "C" 
			},
			{
				"x": 2.2036256753,
				"y": 0.3062105618,
				"z": 2.5680622372,
				"element": "H" 
			},
			{
				"x": 0.6535740484,
				"y": 1.1188657822,
				"z": 2.8385173517,
				"element": "H" 
			},
			{
				"x": 1.7962915981,
				"y": 1.7662961202,
				"z": 1.6529597326,
				"element": "H" 
			},
			{
				"x": 1.5226889979,
				"y": -0.3147507994,
				"z": 0.2752595552,
				"element": "H" 
			},
			{
				"x": -0.7230770663,
				"y": -1.0392659568,
				"z": 2.1958631587,
				"element": "H" 
			},
			{
				"x": 0.8511065424,
				"y": -1.8328607017,
				"z": 2.1887977328,
				"element": "H" 
			},
			{
				"x": 0.4225268488,
				"y": -2.9633954401,
				"z": 0.1572045383,
				"element": "H" 
			},
			{
				"x": -1.2019530998,
				"y": -2.8605952505,
				"z": 0.8070536253,
				"element": "H" 
			},
			{
				"x": -1.5370379595,
				"y": -2.0765610772,
				"z": -1.4103471942,
				"element": "H" 
			},
			{
				"x": 0.0478976828,
				"y": -1.3379307589,
				"z": -1.5082083917,
				"element": "H" 
			},
			{
				"x": -1.7132924979,
				"y": 0.3887401948,
				"z": -1.4263258776,
				"element": "H" 
			},
			{
				"x": -3.1458467597,
				"y": -0.8259586571,
				"z": -0.0152039507,
				"element": "H" 
			},
			{
				"x": -0.8919309834,
				"y": 1.4271553244,
				"z": 0.8965259991,
				"element": "H" 
			},
			{
				"x": 0.1450771053,
				"y": 1.4254402554,
				"z": -0.5251421011,
				"element": "H" 
			}
		],
		 "valence_orbital": [ 
			{
				"type": "occ",
				"energy": -0.32339,
				"method": "rhf"
			},
			{
				"type": "occ",
				"energy": -0.30601,
				"method": "rhf"
			},
			{
				"type": "occ",
				"energy": -0.29855,
				"method": "rhf"
			},
			{
				"type": "occ",
				"energy": -0.29118,
				"method": "rhf"
			},
			{
				"type": "occ",
				"energy": -0.25468,
				"method": "rhf"
			},
			{
				"type": "unocc",
				"energy": 0.06672,
				"method": "rhf"
			},
			{
				"type": "unocc",
				"energy": 0.10293,
				"method": "rhf"
			},
			{
				"type": "unocc",
				"energy": 0.11869,
				"method": "rhf"
			},
			{
				"type": "unocc",
				"energy": 0.12924,
				"method": "rhf"
			},
			{
				"type": "unocc",
				"energy": 0.13533,
				"method": "rhf"
			}
		],
		"cosmo_sigma_profile": { 
			"-0.025": 0.0,
			"-0.024": 0.0,
			"-0.023": 0.0,
			"-0.022": 0.0,
			"-0.021": 0.0,
			"-0.02": 0.0,
			"-0.019": 0.0,
			"-0.018": 0.0,
			"-0.017": 0.0,
			"-0.016": 0.0,
			"-0.015": 0.355537634051,
			"-0.014": 0.954941862526,
			"-0.013": 0.932058768854,
			"-0.012": 1.05375832062,
			"-0.011": 0.495812888553,
			"-0.01": 0.828758818332,
			"-0.009": 0.883528595844,
			"-0.008": 0.587206524813,
			"-0.007": 0.903055955202,
			"-0.006": 1.57372661517,
			"-0.005": 1.25575430287,
			"-0.004": 1.73284573493,
			"-0.003": 7.00016496636,
			"-0.002": 27.8152168123,
			"-0.001": 32.0041195331,
			"0.0": 30.6551092949,
			"0.001": 25.1095519292,
			"0.002": 15.0405929321,
			"0.003": 2.23100394597,
			"0.004": 1.85284391122,
			"0.005": 1.17155934013,
			"0.006": 1.70619956274,
			"0.007": 1.39710001122,
			"0.008": 1.89872987964,
			"0.009": 1.47191049105,
			"0.01": 0.905421828326,
			"0.011": 1.18674002429,
			"0.012": 1.40210964655,
			"0.013": 1.04175897961,
			"0.014": 1.30283072934,
			"0.015": 0.969309002178,
			"0.016": 0.0,
			"0.017": 0.0,
			"0.018": 0.0,
			"0.019": 0.0,
			"0.02": 0.0,
			"0.021": 0.0,
			"0.022": 0.0,
			"0.023": 0.0,
			"0.024": 0.0,
			"0.025": 0.0
		}
	}
}
