{
	 "smiles": "CC(=O)C1=CC=C(C=C1)[N+]([O-])=O", 
	 "Tm": 353.55, 
	 "num_atms": 19, 
	 "gaussian": { 
		 "optdone": 1, 
		 "sigma_profile": "yes", 
		 "theory": "DFT", 
		 "functional": "B3LYP", 
		 "basiset": "6-31G**", 
		 "properties": { 
			 "R2extent": 2763.2422, 
			 "electric_dipole_moment_norm": 3.64908310812, 
			 "electric_quadrupole_moment_norm": 17.0227800206, 
			 "total_energy": -589.394166256, 
			 "HOMO_LUMO_gap": 0.16112, 
			 "cosmo_polarized_energy": -11.29, 
			 "cosmo_cavitation_energy": 24.38, 
			 "cosmo_dispersion_energy": -17.78, 
			 "cosmo_repulsion_energy": 1.4, 
			 "cosmo_total_nonelectrostatic_energy": 8.0, 
			 "SMD_solvation_energy": 7.25 
		},
		"coords": [
			{
				"x": -3.126425882,
				"y": 0.35913657,
				"z": 0.9919883086,
				"element": "C" 
			},
			{
				"x": -2.3688765462,
				"y": 1.1565056872,
				"z": -0.0526463824,
				"element": "C" 
			},
			{
				"x": -2.9130876566,
				"y": 2.0516189036,
				"z": -0.677964637,
				"element": "O" 
			},
			{
				"x": -0.9214600027,
				"y": 0.8280815234,
				"z": -0.3127324636,
				"element": "C" 
			},
			{
				"x": -0.2397391055,
				"y": -0.1886540054,
				"z": 0.3732174843,
				"element": "C" 
			},
			{
				"x": 1.0991742993,
				"y": -0.4545620995,
				"z": 0.0969435293,
				"element": "C" 
			},
			{
				"x": 1.7424230908,
				"y": 0.3101639588,
				"z": -0.8728520877,
				"element": "C" 
			},
			{
				"x": 1.0931765399,
				"y": 1.327572353,
				"z": -1.5721759089,
				"element": "C" 
			},
			{
				"x": -0.2423894811,
				"y": 1.5803157845,
				"z": -1.2848434527,
				"element": "C" 
			},
			{
				"x": 3.1607635859,
				"y": 0.0329801356,
				"z": -1.1697958878,
				"element": "N" 
			},
			{
				"x": 3.7083247581,
				"y": -0.869369143,
				"z": -0.5382961024,
				"element": "O" 
			},
			{
				"x": 3.7062045906,
				"y": 0.72178418,
				"z": -2.029844816,
				"element": "O" 
			},
			{
				"x": -4.1489791875,
				"y": 0.733453565,
				"z": 1.0425327317,
				"element": "H" 
			},
			{
				"x": -3.1418245336,
				"y": -0.7065805272,
				"z": 0.7379854336,
				"element": "H" 
			},
			{
				"x": -2.6556301499,
				"y": 0.4543488202,
				"z": 1.9767649308,
				"element": "H" 
			},
			{
				"x": -0.747323345,
				"y": -0.7801853312,
				"z": 1.1272517318,
				"element": "H" 
			},
			{
				"x": 1.6471737245,
				"y": -1.2332586057,
				"z": 0.6120739565,
				"element": "H" 
			},
			{
				"x": 1.6376578527,
				"y": 1.8939940062,
				"z": -2.3171916003,
				"element": "H" 
			},
			{
				"x": -0.7883625516,
				"y": 2.3610542246,
				"z": -1.8027147678,
				"element": "H" 
			}
		],
		 "valence_orbital": [ 
			{
				"type": "occ",
				"energy": -0.31496,
				"method": "rhf"
			},
			{
				"type": "occ",
				"energy": -0.29921,
				"method": "rhf"
			},
			{
				"type": "occ",
				"energy": -0.29184,
				"method": "rhf"
			},
			{
				"type": "occ",
				"energy": -0.28743,
				"method": "rhf"
			},
			{
				"type": "occ",
				"energy": -0.26864,
				"method": "rhf"
			},
			{
				"type": "unocc",
				"energy": -0.10752,
				"method": "rhf"
			},
			{
				"type": "unocc",
				"energy": -0.05028,
				"method": "rhf"
			},
			{
				"type": "unocc",
				"energy": -0.03704,
				"method": "rhf"
			},
			{
				"type": "unocc",
				"energy": 0.02889,
				"method": "rhf"
			},
			{
				"type": "unocc",
				"energy": 0.0708,
				"method": "rhf"
			}
		],
		"cosmo_sigma_profile": { 
			"-0.025": 0.0,
			"-0.024": 0.0,
			"-0.023": 0.0,
			"-0.022": 0.0,
			"-0.021": 0.0,
			"-0.02": 0.0,
			"-0.019": 0.0,
			"-0.018": 0.0,
			"-0.017": 0.0,
			"-0.016": 0.0,
			"-0.015": 0.0,
			"-0.014": 0.0,
			"-0.013": 0.0,
			"-0.012": 0.0,
			"-0.011": 0.0,
			"-0.01": 0.0,
			"-0.009": 0.0109278325204,
			"-0.008": 4.68381815846,
			"-0.007": 12.5859907318,
			"-0.006": 14.8651084058,
			"-0.005": 11.9307199381,
			"-0.004": 12.9227981316,
			"-0.003": 12.0919155038,
			"-0.002": 16.9682601549,
			"-0.001": 17.7140984054,
			"0.0": 19.5416799888,
			"0.001": 13.3981467093,
			"0.002": 5.40830844341,
			"0.003": 3.80350456315,
			"0.004": 4.28418077485,
			"0.005": 5.66584545988,
			"0.006": 4.48072801209,
			"0.007": 10.6658269882,
			"0.008": 8.39278937874,
			"0.009": 5.75289983891,
			"0.01": 4.2268637052,
			"0.011": 3.57309001091,
			"0.012": 2.24567897231,
			"0.013": 0.293802559973,
			"0.014": 0.0,
			"0.015": 0.0,
			"0.016": 0.0,
			"0.017": 0.0,
			"0.018": 0.0,
			"0.019": 0.0,
			"0.02": 0.0,
			"0.021": 0.0,
			"0.022": 0.0,
			"0.023": 0.0,
			"0.024": 0.0,
			"0.025": 0.0
		}
	}
}
