{
	 "smiles": "NC1=CC(NS(=O)(=O)C2=CC=CS2)=C(F)C=C1", 
	 "Tm": 453.15, 
	 "num_atms": 26, 
	 "gaussian": { 
		 "optdone": 1, 
		 "sigma_profile": "yes", 
		 "theory": "DFT", 
		 "functional": "B3LYP", 
		 "basiset": "6-31G**", 
		 "properties": { 
			 "R2extent": 5145.5191, 
			 "electric_dipole_moment_norm": 8.18572686632, 
			 "electric_quadrupole_moment_norm": 15.2402056718, 
			 "total_energy": -1542.54909294, 
			 "HOMO_LUMO_gap": 0.15796, 
			 "cosmo_polarized_energy": -23.32, 
			 "cosmo_cavitation_energy": 34.25, 
			 "cosmo_dispersion_energy": -24.33, 
			 "cosmo_repulsion_energy": 1.8, 
			 "cosmo_total_nonelectrostatic_energy": 11.71, 
			 "SMD_solvation_energy": 5.32 
		},
		"coords": [
			{
				"x": 2.8844963028,
				"y": -1.7663048815,
				"z": -1.2566579828,
				"element": "N" 
			},
			{
				"x": 1.8240800545,
				"y": -0.8653501919,
				"z": -1.3987331187,
				"element": "C" 
			},
			{
				"x": 1.5856789866,
				"y": 0.1197911422,
				"z": -0.4285961281,
				"element": "C" 
			},
			{
				"x": 0.5755031625,
				"y": 1.0745816904,
				"z": -0.5938849199,
				"element": "C" 
			},
			{
				"x": 0.3732809412,
				"y": 2.1106734623,
				"z": 0.3628513742,
				"element": "N" 
			},
			{
				"x": -0.8591744247,
				"y": 2.0010303736,
				"z": 1.5252738818,
				"element": "S" 
			},
			{
				"x": -2.0808764263,
				"y": 1.6294950944,
				"z": 0.8232363667,
				"element": "O" 
			},
			{
				"x": -0.7135999042,
				"y": 3.2170512949,
				"z": 2.3228808748,
				"element": "O" 
			},
			{
				"x": -0.4476592748,
				"y": 0.6318227581,
				"z": 2.579364566,
				"element": "C" 
			},
			{
				"x": -0.8422907129,
				"y": -0.6699778557,
				"z": 2.400095621,
				"element": "C" 
			},
			{
				"x": -0.3048616909,
				"y": -1.5366967404,
				"z": 3.3947137618,
				"element": "C" 
			},
			{
				"x": 0.4864215313,
				"y": -0.876266051,
				"z": 4.2980431007,
				"element": "C" 
			},
			{
				"x": 0.584185447,
				"y": 0.8209610178,
				"z": 3.9704143661,
				"element": "S" 
			},
			{
				"x": -0.2142478422,
				"y": 1.034917138,
				"z": -1.7485715835,
				"element": "C" 
			},
			{
				"x": -1.1678256714,
				"y": 1.9585005823,
				"z": -1.944090062,
				"element": "F" 
			},
			{
				"x": -0.0071073047,
				"y": 0.0525139262,
				"z": -2.7090441998,
				"element": "C" 
			},
			{
				"x": 1.0043014089,
				"y": -0.8893695177,
				"z": -2.5401181084,
				"element": "C" 
			},
			{
				"x": 3.1747518433,
				"y": -1.9375954659,
				"z": -0.3035935916,
				"element": "H" 
			},
			{
				"x": 2.7786733731,
				"y": -2.6299199119,
				"z": -1.7713861382,
				"element": "H" 
			},
			{
				"x": 2.1974672259,
				"y": 0.1553524977,
				"z": 0.4693023369,
				"element": "H" 
			},
			{
				"x": 1.2180271248,
				"y": 2.4763110111,
				"z": 0.7919704915,
				"element": "H" 
			},
			{
				"x": -1.5012912209,
				"y": -0.9751428519,
				"z": 1.5968285628,
				"element": "H" 
			},
			{
				"x": -0.5063046065,
				"y": -2.6006002506,
				"z": 3.442168856,
				"element": "H" 
			},
			{
				"x": 0.9996548682,
				"y": -1.2844226081,
				"z": 5.1585164876,
				"element": "H" 
			},
			{
				"x": -0.6361379909,
				"y": 0.0466109375,
				"z": -3.5926492556,
				"element": "H" 
			},
			{
				"x": 1.1676548003,
				"y": -1.6448665997,
				"z": -3.3038355593,
				"element": "H" 
			}
		],
		 "valence_orbital": [ 
			{
				"type": "occ",
				"energy": -0.29944,
				"method": "rhf"
			},
			{
				"type": "occ",
				"energy": -0.27507,
				"method": "rhf"
			},
			{
				"type": "occ",
				"energy": -0.26134,
				"method": "rhf"
			},
			{
				"type": "occ",
				"energy": -0.25214,
				"method": "rhf"
			},
			{
				"type": "occ",
				"energy": -0.20956,
				"method": "rhf"
			},
			{
				"type": "unocc",
				"energy": -0.0516,
				"method": "rhf"
			},
			{
				"type": "unocc",
				"energy": -0.02198,
				"method": "rhf"
			},
			{
				"type": "unocc",
				"energy": 0.00761,
				"method": "rhf"
			},
			{
				"type": "unocc",
				"energy": 0.00998,
				"method": "rhf"
			},
			{
				"type": "unocc",
				"energy": 0.03592,
				"method": "rhf"
			}
		],
		"cosmo_sigma_profile": { 
			"-0.025": 0.0,
			"-0.024": 0.0,
			"-0.023": 0.0,
			"-0.022": 0.0,
			"-0.021": 0.0,
			"-0.02": 0.0,
			"-0.019": 0.0,
			"-0.018": 0.0,
			"-0.017": 0.0,
			"-0.016": 0.395680464881,
			"-0.015": 1.23288176302,
			"-0.014": 0.559982131375,
			"-0.013": 1.90546382123,
			"-0.012": 4.48373281482,
			"-0.011": 4.52001864399,
			"-0.01": 5.52325068412,
			"-0.009": 7.12666796514,
			"-0.008": 9.30593464434,
			"-0.007": 12.5017787605,
			"-0.006": 12.6697304104,
			"-0.005": 11.7079615707,
			"-0.004": 12.2362389224,
			"-0.003": 10.5141795141,
			"-0.002": 11.0193039952,
			"-0.001": 10.6721425723,
			"0.0": 14.8082326033,
			"0.001": 20.1670203837,
			"0.002": 25.9595191122,
			"0.003": 21.2530141422,
			"0.004": 18.605321395,
			"0.005": 12.081049287,
			"0.006": 6.84610188408,
			"0.007": 6.98610500158,
			"0.008": 5.61072842833,
			"0.009": 7.00011049448,
			"0.01": 10.7592074206,
			"0.011": 7.71835558361,
			"0.012": 0.64175095726,
			"0.013": 0.765330910268,
			"0.014": 0.634834478369,
			"0.015": 0.157249306234,
			"0.016": 0.0,
			"0.017": 0.0,
			"0.018": 0.0,
			"0.019": 0.0,
			"0.02": 0.0,
			"0.021": 0.0,
			"0.022": 0.0,
			"0.023": 0.0,
			"0.024": 0.0,
			"0.025": 0.0
		}
	}
}
