{
	 "smiles": "CC(C)(C)NC(=O)NCCCl", 
	 "Tm": 378.15, 
	 "num_atms": 26, 
	 "gaussian": { 
		 "optdone": 1, 
		 "sigma_profile": "yes", 
		 "theory": "DFT", 
		 "functional": "B3LYP", 
		 "basiset": "6-31G**", 
		 "properties": { 
			 "R2extent": 2928.735, 
			 "electric_dipole_moment_norm": 4.5784285339, 
			 "electric_quadrupole_moment_norm": 6.81038135129, 
			 "total_energy": -920.746709783, 
			 "HOMO_LUMO_gap": 0.26523, 
			 "cosmo_polarized_energy": -14.93, 
			 "cosmo_cavitation_energy": 29.45, 
			 "cosmo_dispersion_energy": -20.52, 
			 "cosmo_repulsion_energy": 1.68, 
			 "cosmo_total_nonelectrostatic_energy": 10.61, 
			 "SMD_solvation_energy": 4.48 
		},
		"coords": [
			{
				"x": 2.8416143515,
				"y": -0.9142684546,
				"z": -2.4737376316,
				"element": "C" 
			},
			{
				"x": 2.5820625001,
				"y": -0.7038924444,
				"z": -0.9694779204,
				"element": "C" 
			},
			{
				"x": 3.7619460503,
				"y": 0.0470427746,
				"z": -0.3315404638,
				"element": "C" 
			},
			{
				"x": 2.3841699109,
				"y": -2.053851155,
				"z": -0.2584191766,
				"element": "C" 
			},
			{
				"x": 1.3882290346,
				"y": 0.1520277097,
				"z": -0.7497654418,
				"element": "N" 
			},
			{
				"x": 0.1319203681,
				"y": -0.1682783477,
				"z": -1.2251970597,
				"element": "C" 
			},
			{
				"x": -0.1629182739,
				"y": -1.2472002614,
				"z": -1.7293939706,
				"element": "O" 
			},
			{
				"x": -0.8259348866,
				"y": 0.8414863921,
				"z": -1.1057610958,
				"element": "N" 
			},
			{
				"x": -0.8107710688,
				"y": 1.9033594551,
				"z": -0.1158930966,
				"element": "C" 
			},
			{
				"x": -0.9648857103,
				"y": 1.4540889884,
				"z": 1.3387045549,
				"element": "C" 
			},
			{
				"x": -2.5966404862,
				"y": 0.717779969,
				"z": 1.637017964,
				"element": "Cl" 
			},
			{
				"x": 3.7342836767,
				"y": -1.5306495556,
				"z": -2.6246013258,
				"element": "H" 
			},
			{
				"x": 3.0043053493,
				"y": 0.0455354567,
				"z": -2.9770315149,
				"element": "H" 
			},
			{
				"x": 1.9883745998,
				"y": -1.4119351537,
				"z": -2.9376662827,
				"element": "H" 
			},
			{
				"x": 3.5876893461,
				"y": 0.2199337125,
				"z": 0.7357482383,
				"element": "H" 
			},
			{
				"x": 3.9285013605,
				"y": 1.0163728697,
				"z": -0.8181822622,
				"element": "H" 
			},
			{
				"x": 4.681166802,
				"y": -0.5357349234,
				"z": -0.436840895,
				"element": "H" 
			},
			{
				"x": 2.2116137492,
				"y": -1.9005095716,
				"z": 0.8118540719,
				"element": "H" 
			},
			{
				"x": 3.2802401021,
				"y": -2.6719157906,
				"z": -0.3769473099,
				"element": "H" 
			},
			{
				"x": 1.5291514389,
				"y": -2.5850596558,
				"z": -0.6774696812,
				"element": "H" 
			},
			{
				"x": 1.5952035154,
				"y": 1.1393927161,
				"z": -0.6884562918,
				"element": "H" 
			},
			{
				"x": -1.7412991665,
				"y": 0.4674496452,
				"z": -1.3211857526,
				"element": "H" 
			},
			{
				"x": -1.6104704854,
				"y": 2.6061752418,
				"z": -0.3676670366,
				"element": "H" 
			},
			{
				"x": 0.1239177261,
				"y": 2.47517972,
				"z": -0.187425597,
				"element": "H" 
			},
			{
				"x": -0.8754051249,
				"y": 2.3024618196,
				"z": 2.0202996958,
				"element": "H" 
			},
			{
				"x": -0.2246646791,
				"y": 0.6956088432,
				"z": 1.5961352816,
				"element": "H" 
			}
		],
		 "valence_orbital": [ 
			{
				"type": "occ",
				"energy": -0.30635,
				"method": "rhf"
			},
			{
				"type": "occ",
				"energy": -0.30153,
				"method": "rhf"
			},
			{
				"type": "occ",
				"energy": -0.2617,
				"method": "rhf"
			},
			{
				"type": "occ",
				"energy": -0.25125,
				"method": "rhf"
			},
			{
				"type": "occ",
				"energy": -0.24558,
				"method": "rhf"
			},
			{
				"type": "unocc",
				"energy": 0.01965,
				"method": "rhf"
			},
			{
				"type": "unocc",
				"energy": 0.0508,
				"method": "rhf"
			},
			{
				"type": "unocc",
				"energy": 0.05404,
				"method": "rhf"
			},
			{
				"type": "unocc",
				"energy": 0.08924,
				"method": "rhf"
			},
			{
				"type": "unocc",
				"energy": 0.10083,
				"method": "rhf"
			}
		],
		"cosmo_sigma_profile": { 
			"-0.025": 0.0,
			"-0.024": 0.0,
			"-0.023": 0.0,
			"-0.022": 0.0,
			"-0.021": 0.0,
			"-0.02": 0.0,
			"-0.019": 0.0,
			"-0.018": 0.0,
			"-0.017": 0.0,
			"-0.016": 0.0,
			"-0.015": 0.0,
			"-0.014": 0.241271192664,
			"-0.013": 1.34494243455,
			"-0.012": 1.11550362324,
			"-0.011": 1.62902668548,
			"-0.01": 2.39191807297,
			"-0.009": 2.68137621401,
			"-0.008": 3.8725355596,
			"-0.007": 7.14478594355,
			"-0.006": 10.629490923,
			"-0.005": 9.73349750129,
			"-0.004": 11.4909833878,
			"-0.003": 21.8074445611,
			"-0.002": 17.4477637365,
			"-0.001": 18.3578580685,
			"0.0": 22.4514880045,
			"0.001": 25.3090541776,
			"0.002": 15.7125528344,
			"0.003": 7.69981379128,
			"0.004": 8.64101829864,
			"0.005": 7.81371103191,
			"0.006": 10.4756321849,
			"0.007": 6.45141776278,
			"0.008": 2.27651002731,
			"0.009": 1.88907121122,
			"0.01": 2.03791425928,
			"0.011": 1.30660963884,
			"0.012": 1.06354216449,
			"0.013": 1.95354176594,
			"0.014": 3.5880994707,
			"0.015": 2.41211071527,
			"0.016": 0.0311056036121,
			"0.017": 0.0,
			"0.018": 0.0,
			"0.019": 0.0,
			"0.02": 0.0,
			"0.021": 0.0,
			"0.022": 0.0,
			"0.023": 0.0,
			"0.024": 0.0,
			"0.025": 0.0
		}
	}
}
