{
	 "smiles": "CCCCNC(=O)NS(=O)(=O)C1=CC=CC=C1", 
	 "Tm": 404.15, 
	 "num_atms": 33, 
	 "gaussian": { 
		 "optdone": 1, 
		 "sigma_profile": "yes", 
		 "theory": "DFT", 
		 "functional": "B3LYP", 
		 "basiset": "6-31G**", 
		 "properties": { 
			 "R2extent": 5518.4849, 
			 "electric_dipole_moment_norm": 5.0013575817, 
			 "electric_quadrupole_moment_norm": 21.2369140995, 
			 "total_energy": -1162.13443955, 
			 "HOMO_LUMO_gap": 0.22084, 
			 "cosmo_polarized_energy": -21.62, 
			 "cosmo_cavitation_energy": 37.28, 
			 "cosmo_dispersion_energy": -26.27, 
			 "cosmo_repulsion_energy": 2.05, 
			 "cosmo_total_nonelectrostatic_energy": 13.06, 
			 "SMD_solvation_energy": 5.54 
		},
		"coords": [
			{
				"x": -2.7396355087,
				"y": 2.8557663123,
				"z": -1.1988275299,
				"element": "C" 
			},
			{
				"x": -4.2034018835,
				"y": 2.4220639868,
				"z": -1.3414556462,
				"element": "C" 
			},
			{
				"x": -4.4567509952,
				"y": 1.1806029001,
				"z": -2.2135162662,
				"element": "C" 
			},
			{
				"x": -3.8271618121,
				"y": -0.1360996824,
				"z": -1.7244128072,
				"element": "C" 
			},
			{
				"x": -2.4221928141,
				"y": -0.300084737,
				"z": -2.0885314631,
				"element": "N" 
			},
			{
				"x": -1.4317060137,
				"y": -0.4334825115,
				"z": -1.156735415,
				"element": "C" 
			},
			{
				"x": -1.608376054,
				"y": -0.3769557639,
				"z": 0.0523847736,
				"element": "O" 
			},
			{
				"x": -0.1502154808,
				"y": -0.5896404041,
				"z": -1.7145547205,
				"element": "N" 
			},
			{
				"x": 1.2037016015,
				"y": -1.1755252279,
				"z": -0.8456193592,
				"element": "S" 
			},
			{
				"x": 2.1921150591,
				"y": -1.3362849582,
				"z": -1.9165036141,
				"element": "O" 
			},
			{
				"x": 0.8059097143,
				"y": -2.2934116004,
				"z": 0.0009450954,
				"element": "O" 
			},
			{
				"x": 1.6960766348,
				"y": 0.1933228848,
				"z": 0.1959354069,
				"element": "C" 
			},
			{
				"x": 1.0642984834,
				"y": 0.3847966941,
				"z": 1.4268616048,
				"element": "C" 
			},
			{
				"x": 1.4890347117,
				"y": 1.4396212452,
				"z": 2.2341845436,
				"element": "C" 
			},
			{
				"x": 2.5284285939,
				"y": 2.2745119455,
				"z": 1.8156175778,
				"element": "C" 
			},
			{
				"x": 3.153489007,
				"y": 2.0620032675,
				"z": 0.5847732007,
				"element": "C" 
			},
			{
				"x": 2.7393455984,
				"y": 1.0139544113,
				"z": -0.2373684282,
				"element": "C" 
			},
			{
				"x": -2.1567415975,
				"y": 2.1288629519,
				"z": -0.6276001113,
				"element": "H" 
			},
			{
				"x": -2.6749745552,
				"y": 3.8140510612,
				"z": -0.6725526318,
				"element": "H" 
			},
			{
				"x": -2.2629540659,
				"y": 2.9845667072,
				"z": -2.1776666684,
				"element": "H" 
			},
			{
				"x": -4.6235341918,
				"y": 2.2406497061,
				"z": -0.3429884767,
				"element": "H" 
			},
			{
				"x": -4.7844506543,
				"y": 3.250992853,
				"z": -1.7660490373,
				"element": "H" 
			},
			{
				"x": -4.1258483743,
				"y": 1.3742798127,
				"z": -3.2442596267,
				"element": "H" 
			},
			{
				"x": -5.540959862,
				"y": 1.0198807884,
				"z": -2.2736612859,
				"element": "H" 
			},
			{
				"x": -4.3904769361,
				"y": -0.9839475834,
				"z": -2.1346119646,
				"element": "H" 
			},
			{
				"x": -3.8714085702,
				"y": -0.212362117,
				"z": -0.6353897226,
				"element": "H" 
			},
			{
				"x": -2.2010400762,
				"y": -0.4024462196,
				"z": -3.0676843556,
				"element": "H" 
			},
			{
				"x": -0.0107794423,
				"y": -0.7021353664,
				"z": -2.7121251209,
				"element": "H" 
			},
			{
				"x": 0.2523077499,
				"y": -0.266945322,
				"z": 1.7239358093,
				"element": "H" 
			},
			{
				"x": 1.0082933425,
				"y": 1.606959959,
				"z": 3.1931393299,
				"element": "H" 
			},
			{
				"x": 2.8549165225,
				"y": 3.0912864894,
				"z": 2.4528903747,
				"element": "H" 
			},
			{
				"x": 3.9665134464,
				"y": 2.7071532936,
				"z": 0.2659680696,
				"element": "H" 
			},
			{
				"x": 3.2189784224,
				"y": 0.8183942234,
				"z": -1.1898215348,
				"element": "H" 
			}
		],
		 "valence_orbital": [ 
			{
				"type": "occ",
				"energy": -0.29226,
				"method": "rhf"
			},
			{
				"type": "occ",
				"energy": -0.27791,
				"method": "rhf"
			},
			{
				"type": "occ",
				"energy": -0.26808,
				"method": "rhf"
			},
			{
				"type": "occ",
				"energy": -0.26426,
				"method": "rhf"
			},
			{
				"type": "occ",
				"energy": -0.25707,
				"method": "rhf"
			},
			{
				"type": "unocc",
				"energy": -0.03623,
				"method": "rhf"
			},
			{
				"type": "unocc",
				"energy": -0.01482,
				"method": "rhf"
			},
			{
				"type": "unocc",
				"energy": 0.03007,
				"method": "rhf"
			},
			{
				"type": "unocc",
				"energy": 0.04181,
				"method": "rhf"
			},
			{
				"type": "unocc",
				"energy": 0.06675,
				"method": "rhf"
			}
		],
		"cosmo_sigma_profile": { 
			"-0.025": 0.0,
			"-0.024": 0.0,
			"-0.023": 0.0,
			"-0.022": 0.0,
			"-0.021": 0.0,
			"-0.02": 0.0599683685823,
			"-0.019": 0.854768369371,
			"-0.018": 0.935558084681,
			"-0.017": 1.77656730276,
			"-0.016": 1.52150916333,
			"-0.015": 1.37292655514,
			"-0.014": 1.41281340989,
			"-0.013": 1.34892082204,
			"-0.012": 1.4736702727,
			"-0.011": 1.37177985659,
			"-0.01": 1.40531987673,
			"-0.009": 1.18689280312,
			"-0.008": 2.12797425073,
			"-0.007": 8.27351027673,
			"-0.006": 11.7038035835,
			"-0.005": 13.8794377751,
			"-0.004": 13.8838825805,
			"-0.003": 18.9659844078,
			"-0.002": 27.4478071815,
			"-0.001": 27.3608026497,
			"0.0": 27.226367219,
			"0.001": 28.5109863764,
			"0.002": 24.0437118254,
			"0.003": 18.5160084935,
			"0.004": 6.43237986577,
			"0.005": 5.4341804556,
			"0.006": 4.94933528541,
			"0.007": 4.405235148,
			"0.008": 4.52330708298,
			"0.009": 7.23304638755,
			"0.01": 11.3082687222,
			"0.011": 8.01011619091,
			"0.012": 3.08144904777,
			"0.013": 1.99929415868,
			"0.014": 0.183450879227,
			"0.015": 0.0,
			"0.016": 0.0,
			"0.017": 0.0,
			"0.018": 0.0,
			"0.019": 0.0,
			"0.02": 0.0,
			"0.021": 0.0,
			"0.022": 0.0,
			"0.023": 0.0,
			"0.024": 0.0,
			"0.025": 0.0
		}
	}
}
