{
	 "smiles": "OC(=O)C(F)(F)C(F)(F)C(F)(F)C(F)(F)C(F)(F)C(F)F", 
	 "Tm": 307.15, 
	 "num_atms": 23, 
	 "gaussian": { 
		 "optdone": 1, 
		 "sigma_profile": "yes", 
		 "theory": "DFT", 
		 "functional": "B3LYP", 
		 "basiset": "6-31G**", 
		 "properties": { 
			 "R2extent": 5090.1834, 
			 "electric_dipole_moment_norm": 3.47623988528, 
			 "electric_quadrupole_moment_norm": 14.6216111387, 
			 "total_energy": -1616.41535341, 
			 "HOMO_LUMO_gap": 0.2626, 
			 "cosmo_polarized_energy": -10.7, 
			 "cosmo_cavitation_energy": 31.01, 
			 "cosmo_dispersion_energy": -20.84, 
			 "cosmo_repulsion_energy": 1.37, 
			 "cosmo_total_nonelectrostatic_energy": 11.54, 
			 "SMD_solvation_energy": 10.07 
		},
		"coords": [
			{
				"x": 2.174264001,
				"y": -2.1032891444,
				"z": 0.1311828392,
				"element": "O" 
			},
			{
				"x": 1.1085663768,
				"y": -1.7846704254,
				"z": -0.6122095033,
				"element": "C" 
			},
			{
				"x": 0.2788900876,
				"y": -2.5722625291,
				"z": -0.970222543,
				"element": "O" 
			},
			{
				"x": 1.0606392727,
				"y": -0.3014519548,
				"z": -1.0848656686,
				"element": "C" 
			},
			{
				"x": 2.1749413966,
				"y": 0.3658169114,
				"z": -0.6343065708,
				"element": "F" 
			},
			{
				"x": 1.1134513886,
				"y": -0.3308479801,
				"z": -2.4349924191,
				"element": "F" 
			},
			{
				"x": -0.2010371228,
				"y": 0.5391495976,
				"z": -0.7033520234,
				"element": "C" 
			},
			{
				"x": -1.3043579233,
				"y": -0.2332191947,
				"z": -0.8030546236,
				"element": "F" 
			},
			{
				"x": -0.2875479968,
				"y": 1.5383404377,
				"z": -1.6139325319,
				"element": "F" 
			},
			{
				"x": -0.2361984012,
				"y": 1.2585985486,
				"z": 0.6792194507,
				"element": "C" 
			},
			{
				"x": 0.7972199638,
				"y": 2.1324629709,
				"z": 0.7268949479,
				"element": "F" 
			},
			{
				"x": -1.3905899107,
				"y": 1.9603544456,
				"z": 0.7186037417,
				"element": "F" 
			},
			{
				"x": -0.141233946,
				"y": 0.4075404079,
				"z": 1.9751182717,
				"element": "C" 
			},
			{
				"x": 1.0505420768,
				"y": -0.2487980605,
				"z": 1.9411328307,
				"element": "F" 
			},
			{
				"x": -0.1195977654,
				"y": 1.289591671,
				"z": 3.0083427658,
				"element": "F" 
			},
			{
				"x": -1.2614928207,
				"y": -0.6219584608,
				"z": 2.2697826817,
				"element": "C" 
			},
			{
				"x": -1.0786892757,
				"y": -1.6954374013,
				"z": 1.4692697932,
				"element": "F" 
			},
			{
				"x": -2.467447226,
				"y": -0.0641342595,
				"z": 1.9989770893,
				"element": "F" 
			},
			{
				"x": -1.2859854021,
				"y": -1.0800170277,
				"z": 3.7425023341,
				"element": "C" 
			},
			{
				"x": -2.1858307209,
				"y": -2.0841787816,
				"z": 3.8427592469,
				"element": "F" 
			},
			{
				"x": -0.0583183841,
				"y": -1.5458923162,
				"z": 4.0833481963,
				"element": "F" 
			},
			{
				"x": 2.7073244004,
				"y": -1.3104939574,
				"z": 0.3028665237,
				"element": "H" 
			},
			{
				"x": -1.5706120687,
				"y": -0.2612034971,
				"z": 4.4092351708,
				"element": "H" 
			}
		],
		 "valence_orbital": [ 
			{
				"type": "occ",
				"energy": -0.39909,
				"method": "rhf"
			},
			{
				"type": "occ",
				"energy": -0.37458,
				"method": "rhf"
			},
			{
				"type": "occ",
				"energy": -0.35141,
				"method": "rhf"
			},
			{
				"type": "occ",
				"energy": -0.34559,
				"method": "rhf"
			},
			{
				"type": "occ",
				"energy": -0.30428,
				"method": "rhf"
			},
			{
				"type": "unocc",
				"energy": -0.04168,
				"method": "rhf"
			},
			{
				"type": "unocc",
				"energy": 0.00565,
				"method": "rhf"
			},
			{
				"type": "unocc",
				"energy": 0.01813,
				"method": "rhf"
			},
			{
				"type": "unocc",
				"energy": 0.04583,
				"method": "rhf"
			},
			{
				"type": "unocc",
				"energy": 0.05957,
				"method": "rhf"
			}
		],
		"cosmo_sigma_profile": { 
			"-0.025": 0.0,
			"-0.024": 0.0,
			"-0.023": 0.0,
			"-0.022": 0.0,
			"-0.021": 0.0,
			"-0.02": 0.0,
			"-0.019": 0.446040288488,
			"-0.018": 0.730471769303,
			"-0.017": 0.545280447166,
			"-0.016": 0.419752475775,
			"-0.015": 0.710475072929,
			"-0.014": 1.09686106398,
			"-0.013": 1.05069546522,
			"-0.012": 2.28623990104,
			"-0.011": 4.10927426277,
			"-0.01": 2.88077226768,
			"-0.009": 2.76177458403,
			"-0.008": 2.33511193897,
			"-0.007": 2.57441237269,
			"-0.006": 4.34462076728,
			"-0.005": 3.12031486119,
			"-0.004": 3.16139213415,
			"-0.003": 7.04199513049,
			"-0.002": 10.1741586594,
			"-0.001": 22.1375626001,
			"0.0": 37.6882477159,
			"0.001": 67.0979757417,
			"0.002": 30.7673498266,
			"0.003": 14.6109554924,
			"0.004": 3.23362756568,
			"0.005": 3.82469874499,
			"0.006": 4.35018707142,
			"0.007": 4.89016962495,
			"0.008": 3.78403114199,
			"0.009": 4.28360837356,
			"0.01": 2.11308851365,
			"0.011": 0.138571717455,
			"0.012": 0.0,
			"0.013": 0.0,
			"0.014": 0.0,
			"0.015": 0.0,
			"0.016": 0.0,
			"0.017": 0.0,
			"0.018": 0.0,
			"0.019": 0.0,
			"0.02": 0.0,
			"0.021": 0.0,
			"0.022": 0.0,
			"0.023": 0.0,
			"0.024": 0.0,
			"0.025": 0.0
		}
	}
}
