{
	 "smiles": "OC(=O)C1=CC2=C(N1)C=CC(F)=C2", 
	 "Tm": 529.15, 
	 "num_atms": 19, 
	 "gaussian": { 
		 "optdone": 1, 
		 "sigma_profile": "yes", 
		 "theory": "DFT", 
		 "functional": "B3LYP", 
		 "basiset": "6-31G**", 
		 "properties": { 
			 "R2extent": 3084.363, 
			 "electric_dipole_moment_norm": 4.24057146385, 
			 "electric_quadrupole_moment_norm": 24.0412909346, 
			 "total_energy": -651.614340739, 
			 "HOMO_LUMO_gap": 0.17173, 
			 "cosmo_polarized_energy": -18.21, 
			 "cosmo_cavitation_energy": 24.75, 
			 "cosmo_dispersion_energy": -18.21, 
			 "cosmo_repulsion_energy": 1.4, 
			 "cosmo_total_nonelectrostatic_energy": 7.94, 
			 "SMD_solvation_energy": 5.65 
		},
		"coords": [
			{
				"x": 2.0009639315,
				"y": 3.4827184954,
				"z": -1.5652073929,
				"element": "O" 
			},
			{
				"x": 0.8553860719,
				"y": 3.5631648932,
				"z": -0.8209022333,
				"element": "C" 
			},
			{
				"x": 0.2993474244,
				"y": 4.621631914,
				"z": -0.6557766453,
				"element": "O" 
			},
			{
				"x": 0.3712023461,
				"y": 2.2826988829,
				"z": -0.2700396418,
				"element": "C" 
			},
			{
				"x": -0.4488128815,
				"y": 2.0898614313,
				"z": 0.8147024432,
				"element": "C" 
			},
			{
				"x": -0.6017738073,
				"y": 0.6772554528,
				"z": 0.9896484709,
				"element": "C" 
			},
			{
				"x": 0.1482408562,
				"y": 0.0484873425,
				"z": -0.0432036185,
				"element": "C" 
			},
			{
				"x": 0.778553418,
				"y": 1.0435669706,
				"z": -0.7752567868,
				"element": "N" 
			},
			{
				"x": 0.1860642557,
				"y": -1.3417793931,
				"z": -0.1954174667,
				"element": "C" 
			},
			{
				"x": -0.5264561322,
				"y": -2.1093650178,
				"z": 0.7161368323,
				"element": "C" 
			},
			{
				"x": -1.2498099868,
				"y": -1.4860277832,
				"z": 1.7486309561,
				"element": "C" 
			},
			{
				"x": -1.919326283,
				"y": -2.2807018329,
				"z": 2.6128976634,
				"element": "F" 
			},
			{
				"x": -1.306771178,
				"y": -0.1166292728,
				"z": 1.914527597,
				"element": "C" 
			},
			{
				"x": 2.460869915,
				"y": 2.6534843528,
				"z": -1.3668344171,
				"element": "H" 
			},
			{
				"x": -0.8575820505,
				"y": 2.8808969059,
				"z": 1.4261875831,
				"element": "H" 
			},
			{
				"x": 1.0617003414,
				"y": 0.9140739355,
				"z": -1.7364192217,
				"element": "H" 
			},
			{
				"x": 0.754585083,
				"y": -1.8119858136,
				"z": -0.9919137284,
				"element": "H" 
			},
			{
				"x": -0.5355525347,
				"y": -3.19189674,
				"z": 0.6550618083,
				"element": "H" 
			},
			{
				"x": -1.8843287893,
				"y": 0.3130452765,
				"z": 2.7253777981,
				"element": "H" 
			}
		],
		 "valence_orbital": [ 
			{
				"type": "occ",
				"energy": -0.3236,
				"method": "rhf"
			},
			{
				"type": "occ",
				"energy": -0.30323,
				"method": "rhf"
			},
			{
				"type": "occ",
				"energy": -0.28185,
				"method": "rhf"
			},
			{
				"type": "occ",
				"energy": -0.23905,
				"method": "rhf"
			},
			{
				"type": "occ",
				"energy": -0.23243,
				"method": "rhf"
			},
			{
				"type": "unocc",
				"energy": -0.0607,
				"method": "rhf"
			},
			{
				"type": "unocc",
				"energy": -0.00122,
				"method": "rhf"
			},
			{
				"type": "unocc",
				"energy": 0.01514,
				"method": "rhf"
			},
			{
				"type": "unocc",
				"energy": 0.03938,
				"method": "rhf"
			},
			{
				"type": "unocc",
				"energy": 0.08158,
				"method": "rhf"
			}
		],
		"cosmo_sigma_profile": { 
			"-0.025": 0.0,
			"-0.024": 0.0,
			"-0.023": 0.0,
			"-0.022": 0.0,
			"-0.021": 0.0,
			"-0.02": 0.0,
			"-0.019": 0.0302584821382,
			"-0.018": 1.0887000448,
			"-0.017": 2.91495290606,
			"-0.016": 2.48641305359,
			"-0.015": 1.69320942679,
			"-0.014": 1.68021752751,
			"-0.013": 2.56536865036,
			"-0.012": 2.02697397147,
			"-0.011": 1.76726572907,
			"-0.01": 1.50174389785,
			"-0.009": 0.969925325108,
			"-0.008": 4.00618843252,
			"-0.007": 8.59113819955,
			"-0.006": 8.68666272844,
			"-0.005": 7.4479080269,
			"-0.004": 8.81526702824,
			"-0.003": 6.48898834766,
			"-0.002": 8.58880339999,
			"-0.001": 7.89184761951,
			"0.0": 9.22350632081,
			"0.001": 12.3357168498,
			"0.002": 19.0409454316,
			"0.003": 22.5066907316,
			"0.004": 19.5069150438,
			"0.005": 8.904894234,
			"0.006": 2.14414745887,
			"0.007": 2.63462431595,
			"0.008": 3.39366708043,
			"0.009": 2.89322998091,
			"0.01": 5.02171716341,
			"0.011": 6.00759079002,
			"0.012": 4.89284411426,
			"0.013": 1.32474808566,
			"0.014": 0.00638535223928,
			"0.015": 0.0,
			"0.016": 0.0,
			"0.017": 0.0,
			"0.018": 0.0,
			"0.019": 0.0,
			"0.02": 0.0,
			"0.021": 0.0,
			"0.022": 0.0,
			"0.023": 0.0,
			"0.024": 0.0,
			"0.025": 0.0
		}
	}
}
