{
	 "smiles": "ClC(=O)N(C1=CC=CC=C1)C1=CC=CC=C1", 
	 "Tm": 356.65, 
	 "num_atms": 26, 
	 "gaussian": { 
		 "optdone": 1, 
		 "sigma_profile": "yes", 
		 "theory": "DFT", 
		 "functional": "B3LYP", 
		 "basiset": "6-31G**", 
		 "properties": { 
			 "R2extent": 5302.7903, 
			 "electric_dipole_moment_norm": 4.39836750852, 
			 "electric_quadrupole_moment_norm": 19.2943790151, 
			 "total_energy": -1091.58473871, 
			 "HOMO_LUMO_gap": 0.20438, 
			 "cosmo_polarized_energy": -9.47, 
			 "cosmo_cavitation_energy": 32.19, 
			 "cosmo_dispersion_energy": -22.51, 
			 "cosmo_repulsion_energy": 1.77, 
			 "cosmo_total_nonelectrostatic_energy": 11.46, 
			 "SMD_solvation_energy": 6.25 
		},
		"coords": [
			{
				"x": 3.1373859776,
				"y": -3.3066748285,
				"z": -0.0158819506,
				"element": "Cl" 
			},
			{
				"x": 1.5330288285,
				"y": -2.4773634984,
				"z": 0.2097207195,
				"element": "C" 
			},
			{
				"x": 0.6340430878,
				"y": -3.0696455888,
				"z": 0.7379271927,
				"element": "O" 
			},
			{
				"x": 1.5192593865,
				"y": -1.18236717,
				"z": -0.2439030287,
				"element": "N" 
			},
			{
				"x": 2.6013924932,
				"y": -0.5708017241,
				"z": -0.9771427566,
				"element": "C" 
			},
			{
				"x": 2.8643347741,
				"y": -0.9465617403,
				"z": -2.2972290514,
				"element": "C" 
			},
			{
				"x": 3.8895608141,
				"y": -0.3162871695,
				"z": -3.0024614267,
				"element": "C" 
			},
			{
				"x": 4.6391973233,
				"y": 0.6948360843,
				"z": -2.397826253,
				"element": "C" 
			},
			{
				"x": 4.3633940536,
				"y": 1.0752930756,
				"z": -1.0826355463,
				"element": "C" 
			},
			{
				"x": 3.3445107533,
				"y": 0.4443006413,
				"z": -0.36964875,
				"element": "C" 
			},
			{
				"x": 0.3436544107,
				"y": -0.3762332447,
				"z": -0.0004504369,
				"element": "C" 
			},
			{
				"x": -0.1485051504,
				"y": 0.4356554206,
				"z": -1.0278816212,
				"element": "C" 
			},
			{
				"x": -1.2588809966,
				"y": 1.2481200644,
				"z": -0.8001750419,
				"element": "C" 
			},
			{
				"x": -1.8862548145,
				"y": 1.252228368,
				"z": 0.4460215722,
				"element": "C" 
			},
			{
				"x": -1.3915112857,
				"y": 0.4390273607,
				"z": 1.46738553,
				"element": "C" 
			},
			{
				"x": -0.2773581887,
				"y": -0.3709829975,
				"z": 1.2536121062,
				"element": "C" 
			},
			{
				"x": 2.2751440784,
				"y": -1.733298615,
				"z": -2.7572045083,
				"element": "H" 
			},
			{
				"x": 4.0985658115,
				"y": -0.6134168438,
				"z": -4.0256990258,
				"element": "H" 
			},
			{
				"x": 5.4346885678,
				"y": 1.1858883808,
				"z": -2.9502778022,
				"element": "H" 
			},
			{
				"x": 4.9440872607,
				"y": 1.8608543405,
				"z": -0.6085925058,
				"element": "H" 
			},
			{
				"x": 3.1208110159,
				"y": 0.7299531189,
				"z": 0.6532089332,
				"element": "H" 
			},
			{
				"x": 0.3388801189,
				"y": 0.4342236398,
				"z": -1.9965597029,
				"element": "H" 
			},
			{
				"x": -1.6342369407,
				"y": 1.8747009004,
				"z": -1.6038439628,
				"element": "H" 
			},
			{
				"x": -2.7525213513,
				"y": 1.8831480683,
				"z": 0.6204931554,
				"element": "H" 
			},
			{
				"x": -1.8702761246,
				"y": 0.4358292812,
				"z": 2.4421110002,
				"element": "H" 
			},
			{
				"x": 0.0969060967,
				"y": -1.0056253243,
				"z": 2.0471331615,
				"element": "H" 
			}
		],
		 "valence_orbital": [ 
			{
				"type": "occ",
				"energy": -0.28971,
				"method": "rhf"
			},
			{
				"type": "occ",
				"energy": -0.26984,
				"method": "rhf"
			},
			{
				"type": "occ",
				"energy": -0.26465,
				"method": "rhf"
			},
			{
				"type": "occ",
				"energy": -0.25819,
				"method": "rhf"
			},
			{
				"type": "occ",
				"energy": -0.23366,
				"method": "rhf"
			},
			{
				"type": "unocc",
				"energy": -0.02928,
				"method": "rhf"
			},
			{
				"type": "unocc",
				"energy": -0.02317,
				"method": "rhf"
			},
			{
				"type": "unocc",
				"energy": -0.01667,
				"method": "rhf"
			},
			{
				"type": "unocc",
				"energy": -0.00751,
				"method": "rhf"
			},
			{
				"type": "unocc",
				"energy": 0.0251,
				"method": "rhf"
			}
		],
		"cosmo_sigma_profile": { 
			"-0.025": 0.0,
			"-0.024": 0.0,
			"-0.023": 0.0,
			"-0.022": 0.0,
			"-0.021": 0.0,
			"-0.02": 0.0,
			"-0.019": 0.0,
			"-0.018": 0.0,
			"-0.017": 0.0,
			"-0.016": 0.0,
			"-0.015": 0.0,
			"-0.014": 0.0,
			"-0.013": 0.0,
			"-0.012": 0.0,
			"-0.011": 0.0,
			"-0.01": 0.0,
			"-0.009": 0.0,
			"-0.008": 0.0136650143967,
			"-0.007": 4.99651091842,
			"-0.006": 20.2232198553,
			"-0.005": 24.4247126667,
			"-0.004": 24.3629836752,
			"-0.003": 18.2424414784,
			"-0.002": 14.8086192858,
			"-0.001": 15.3693706025,
			"0.0": 16.456098589,
			"0.001": 16.5462110157,
			"0.002": 18.8517232371,
			"0.003": 22.3745687953,
			"0.004": 28.9895541231,
			"0.005": 17.402270588,
			"0.006": 3.02207714187,
			"0.007": 2.71488746297,
			"0.008": 2.3198922694,
			"0.009": 2.69311456496,
			"0.01": 5.17533101249,
			"0.011": 1.83782310222,
			"0.012": 0.0245527812059,
			"0.013": 0.0,
			"0.014": 0.0,
			"0.015": 0.0,
			"0.016": 0.0,
			"0.017": 0.0,
			"0.018": 0.0,
			"0.019": 0.0,
			"0.02": 0.0,
			"0.021": 0.0,
			"0.022": 0.0,
			"0.023": 0.0,
			"0.024": 0.0,
			"0.025": 0.0
		}
	}
}
