{
	 "smiles": "OCC(O)CO", 
	 "Tm": 291.15, 
	 "num_atms": 14, 
	 "gaussian": { 
		 "optdone": 1, 
		 "sigma_profile": "yes", 
		 "theory": "DFT", 
		 "functional": "B3LYP", 
		 "basiset": "6-31G**", 
		 "properties": { 
			 "R2extent": 1010.5125, 
			 "electric_dipole_moment_norm": 2.44044695087, 
			 "electric_quadrupole_moment_norm": 10.1135277104, 
			 "total_energy": -344.784697786, 
			 "HOMO_LUMO_gap": 0.31159, 
			 "cosmo_polarized_energy": -11.78, 
			 "cosmo_cavitation_energy": 16.76, 
			 "cosmo_dispersion_energy": -12.82, 
			 "cosmo_repulsion_energy": 1.14, 
			 "cosmo_total_nonelectrostatic_energy": 5.08, 
			 "SMD_solvation_energy": 3.0 
		},
		"coords": [
			{
				"x": 0.9122773038,
				"y": 1.7438925477,
				"z": -2.9020404006,
				"element": "O" 
			},
			{
				"x": 0.4422015715,
				"y": 1.5456823596,
				"z": -1.5829724546,
				"element": "C" 
			},
			{
				"x": 0.7184112207,
				"y": 0.1218887495,
				"z": -1.1104146849,
				"element": "C" 
			},
			{
				"x": 2.1223262553,
				"y": -0.0740958599,
				"z": -1.2339052444,
				"element": "O" 
			},
			{
				"x": 0.2925360084,
				"y": -0.1454295461,
				"z": 0.3319369741,
				"element": "C" 
			},
			{
				"x": 0.7798322249,
				"y": -1.4199714976,
				"z": 0.7602490174,
				"element": "O" 
			},
			{
				"x": 1.8218895911,
				"y": 1.4117228926,
				"z": -2.9070231468,
				"element": "H" 
			},
			{
				"x": -0.6356497574,
				"y": 1.7419649464,
				"z": -1.5910448152,
				"element": "H" 
			},
			{
				"x": 0.9122291555,
				"y": 2.2494923911,
				"z": -0.8757221463,
				"element": "H" 
			},
			{
				"x": 0.1804161204,
				"y": -0.5755211422,
				"z": -1.7790434043,
				"element": "H" 
			},
			{
				"x": 2.3315972328,
				"y": -0.8471622422,
				"z": -0.6873445451,
				"element": "H" 
			},
			{
				"x": -0.7982416725,
				"y": -0.0681317505,
				"z": 0.4443823389,
				"element": "H" 
			},
			{
				"x": 0.7598209793,
				"y": 0.5862864397,
				"z": 0.9984564993,
				"element": "H" 
			},
			{
				"x": 0.2525537663,
				"y": -2.101618288,
				"z": 0.3218860125,
				"element": "H" 
			}
		],
		 "valence_orbital": [ 
			{
				"type": "occ",
				"energy": -0.3512,
				"method": "rhf"
			},
			{
				"type": "occ",
				"energy": -0.33219,
				"method": "rhf"
			},
			{
				"type": "occ",
				"energy": -0.29989,
				"method": "rhf"
			},
			{
				"type": "occ",
				"energy": -0.27075,
				"method": "rhf"
			},
			{
				"type": "occ",
				"energy": -0.25884,
				"method": "rhf"
			},
			{
				"type": "unocc",
				"energy": 0.05275,
				"method": "rhf"
			},
			{
				"type": "unocc",
				"energy": 0.096,
				"method": "rhf"
			},
			{
				"type": "unocc",
				"energy": 0.10449,
				"method": "rhf"
			},
			{
				"type": "unocc",
				"energy": 0.12404,
				"method": "rhf"
			},
			{
				"type": "unocc",
				"energy": 0.14286,
				"method": "rhf"
			}
		],
		"cosmo_sigma_profile": { 
			"-0.025": 0.0,
			"-0.024": 0.0,
			"-0.023": 0.0,
			"-0.022": 0.0,
			"-0.021": 0.0,
			"-0.02": 0.0,
			"-0.019": 0.0,
			"-0.018": 0.0,
			"-0.017": 0.0490124066233,
			"-0.016": 1.03499285193,
			"-0.015": 0.981130934913,
			"-0.014": 1.10791085005,
			"-0.013": 1.26575859059,
			"-0.012": 1.3955050833,
			"-0.011": 1.51988097091,
			"-0.01": 2.1924644943,
			"-0.009": 2.57284352151,
			"-0.008": 2.08751742577,
			"-0.007": 2.68757501803,
			"-0.006": 4.94814564647,
			"-0.005": 12.8606046133,
			"-0.004": 12.4157970513,
			"-0.003": 10.5833725381,
			"-0.002": 8.26162124161,
			"-0.001": 6.83869289608,
			"0.0": 4.949136971,
			"0.001": 4.67697554676,
			"0.002": 4.64634853071,
			"0.003": 3.69163640211,
			"0.004": 2.98332284536,
			"0.005": 3.62115396151,
			"0.006": 4.13431025728,
			"0.007": 2.37107195113,
			"0.008": 3.44716361841,
			"0.009": 3.52049994943,
			"0.01": 4.57919167534,
			"0.011": 3.31058517193,
			"0.012": 3.14280726786,
			"0.013": 3.17026569338,
			"0.014": 3.33272425554,
			"0.015": 0.762887917412,
			"0.016": 0.0,
			"0.017": 0.0,
			"0.018": 0.0,
			"0.019": 0.0,
			"0.02": 0.0,
			"0.021": 0.0,
			"0.022": 0.0,
			"0.023": 0.0,
			"0.024": 0.0,
			"0.025": 0.0
		}
	}
}
