{
	 "smiles": "CC1=CSC(=C1)C(N)=O", 
	 "Tm": 389.15, 
	 "num_atms": 16, 
	 "gaussian": { 
		 "optdone": 1, 
		 "sigma_profile": "yes", 
		 "theory": "DFT", 
		 "functional": "B3LYP", 
		 "basiset": "6-31G**", 
		 "properties": { 
			 "R2extent": 1638.5317, 
			 "electric_dipole_moment_norm": 4.43410671725, 
			 "electric_quadrupole_moment_norm": 12.5343771225, 
			 "total_energy": -761.029014629, 
			 "HOMO_LUMO_gap": 0.19259, 
			 "cosmo_polarized_energy": -14.08, 
			 "cosmo_cavitation_energy": 21.77, 
			 "cosmo_dispersion_energy": -16.69, 
			 "cosmo_repulsion_energy": 1.34, 
			 "cosmo_total_nonelectrostatic_energy": 6.41, 
			 "SMD_solvation_energy": 4.63 
		},
		"coords": [
			{
				"x": -1.136939388,
				"y": -2.7279011047,
				"z": -2.4135805713,
				"element": "C" 
			},
			{
				"x": -0.6359863733,
				"y": -1.4078691331,
				"z": -1.8911033622,
				"element": "C" 
			},
			{
				"x": -0.3135179331,
				"y": -0.324368024,
				"z": -2.6727609878,
				"element": "C" 
			},
			{
				"x": 0.2457727766,
				"y": 1.0315706713,
				"z": -1.7590848822,
				"element": "S" 
			},
			{
				"x": 0.0384658315,
				"y": 0.1528354722,
				"z": -0.2705876786,
				"element": "C" 
			},
			{
				"x": -0.4260645959,
				"y": -1.1199392364,
				"z": -0.5072200795,
				"element": "C" 
			},
			{
				"x": 0.3925756443,
				"y": 0.8428734692,
				"z": 0.9924632949,
				"element": "C" 
			},
			{
				"x": 0.0584895919,
				"y": 0.1819761488,
				"z": 2.1521222639,
				"element": "N" 
			},
			{
				"x": 0.9725410184,
				"y": 1.9229618873,
				"z": 0.9992521318,
				"element": "O" 
			},
			{
				"x": -0.4655975851,
				"y": -3.5481613828,
				"z": -2.1344245969,
				"element": "H" 
			},
			{
				"x": -1.2150435046,
				"y": -2.7179657083,
				"z": -3.5038200353,
				"element": "H" 
			},
			{
				"x": -2.1273890347,
				"y": -2.9683780812,
				"z": -2.0101210995,
				"element": "H" 
			},
			{
				"x": -0.3748330817,
				"y": -0.2575212169,
				"z": -3.7512430058,
				"element": "H" 
			},
			{
				"x": -0.5926666956,
				"y": -1.8517615969,
				"z": 0.2772898585,
				"element": "H" 
			},
			{
				"x": 0.1828518091,
				"y": 0.7160907828,
				"z": 3.0000766873,
				"element": "H" 
			},
			{
				"x": -0.67875848,
				"y": -0.5054429472,
				"z": 2.1510420628,
				"element": "H" 
			}
		],
		 "valence_orbital": [ 
			{
				"type": "occ",
				"energy": -0.34316,
				"method": "rhf"
			},
			{
				"type": "occ",
				"energy": -0.27338,
				"method": "rhf"
			},
			{
				"type": "occ",
				"energy": -0.25497,
				"method": "rhf"
			},
			{
				"type": "occ",
				"energy": -0.251,
				"method": "rhf"
			},
			{
				"type": "occ",
				"energy": -0.23581,
				"method": "rhf"
			},
			{
				"type": "unocc",
				"energy": -0.04322,
				"method": "rhf"
			},
			{
				"type": "unocc",
				"energy": 0.03313,
				"method": "rhf"
			},
			{
				"type": "unocc",
				"energy": 0.03816,
				"method": "rhf"
			},
			{
				"type": "unocc",
				"energy": 0.07124,
				"method": "rhf"
			},
			{
				"type": "unocc",
				"energy": 0.09167,
				"method": "rhf"
			}
		],
		"cosmo_sigma_profile": { 
			"-0.025": 0.0,
			"-0.024": 0.0,
			"-0.023": 0.0,
			"-0.022": 0.0,
			"-0.021": 0.0,
			"-0.02": 0.0,
			"-0.019": 0.0,
			"-0.018": 0.0,
			"-0.017": 0.0,
			"-0.016": 0.0,
			"-0.015": 0.0593544382823,
			"-0.014": 1.6425369926,
			"-0.013": 2.82189054899,
			"-0.012": 2.3058580123,
			"-0.011": 3.25893912007,
			"-0.01": 2.35712255384,
			"-0.009": 2.22146798451,
			"-0.008": 4.41116196992,
			"-0.007": 4.74597572703,
			"-0.006": 5.28143372814,
			"-0.005": 7.23064254693,
			"-0.004": 10.5111862522,
			"-0.003": 11.560371341,
			"-0.002": 10.7377103692,
			"-0.001": 12.7365953117,
			"0.0": 12.434905764,
			"0.001": 9.68591747675,
			"0.002": 11.2818155911,
			"0.003": 16.1417637868,
			"0.004": 15.8066969465,
			"0.005": 4.61144755928,
			"0.006": 2.36933307811,
			"0.007": 2.76341313692,
			"0.008": 2.15245765838,
			"0.009": 1.45429367301,
			"0.01": 1.69045365355,
			"0.011": 1.8054327459,
			"0.012": 2.2907834834,
			"0.013": 5.21928408514,
			"0.014": 3.27089622416,
			"0.015": 0.251500740331,
			"0.016": 0.0,
			"0.017": 0.0,
			"0.018": 0.0,
			"0.019": 0.0,
			"0.02": 0.0,
			"0.021": 0.0,
			"0.022": 0.0,
			"0.023": 0.0,
			"0.024": 0.0,
			"0.025": 0.0
		}
	}
}
