{
	 "smiles": "IC1=CN=CC=C1", 
	 "Tm": 328.15, 
	 "num_atms": 11, 
	 "gaussian": { 
		 "optdone": 1, 
		 "sigma_profile": "no", 
		 "theory": "DFT", 
		 "functional": "B3LYP", 
		 "basiset": "6-31G**", 
		 "properties": { 
			 "R2extent": 932.9536, 
			 "electric_dipole_moment_norm": 2.00652797389, 
			 "electric_quadrupole_moment_norm": 6.71139069121, 
			 "total_energy": -259.069218248, 
			 "HOMO_LUMO_gap": 0.20555, 
			 "cosmo_polarized_energy": -99126.84, 
			 "cosmo_cavitation_energy": 18.32, 
			 "cosmo_dispersion_energy": -15.25, 
			 "cosmo_repulsion_energy": 1.23, 
			 "cosmo_total_nonelectrostatic_energy": 4.3, 
			 "SMD_solvation_energy": 1.01 
		},
		"coords": [
			{
				"x": 0.5598170336,
				"y": -0.6783882025,
				"z": -2.4241610203,
				"element": "I" 
			},
			{
				"x": -0.4303742007,
				"y": 0.2534184469,
				"z": -0.8008550004,
				"element": "C" 
			},
			{
				"x": -0.9048115856,
				"y": 1.5624335709,
				"z": -0.9324585527,
				"element": "C" 
			},
			{
				"x": -1.5367155195,
				"y": 2.2008261367,
				"z": 0.0574413229,
				"element": "N" 
			},
			{
				"x": -1.7150651068,
				"y": 1.5500513617,
				"z": 1.2130177231,
				"element": "C" 
			},
			{
				"x": -1.2760301105,
				"y": 0.2444254307,
				"z": 1.4342638748,
				"element": "C" 
			},
			{
				"x": -0.616302816,
				"y": -0.4246621213,
				"z": 0.4034344972,
				"element": "C" 
			},
			{
				"x": -0.771220714,
				"y": 2.110334238,
				"z": -1.861802492,
				"element": "H" 
			},
			{
				"x": -2.2328214993,
				"y": 2.0988386853,
				"z": 1.9970889342,
				"element": "H" 
			},
			{
				"x": -1.4447583125,
				"y": -0.2412141514,
				"z": 2.3904299843,
				"element": "H" 
			},
			{
				"x": -0.2594171687,
				"y": -1.4402633949,
				"z": 0.5350007288,
				"element": "H" 
			}
		],
		 "valence_orbital": [ 
			{
				"type": "occ",
				"energy": -0.31962,
				"method": "rhf"
			},
			{
				"type": "occ",
				"energy": -0.29221,
				"method": "rhf"
			},
			{
				"type": "occ",
				"energy": -0.27907,
				"method": "rhf"
			},
			{
				"type": "occ",
				"energy": -0.26521,
				"method": "rhf"
			},
			{
				"type": "occ",
				"energy": -0.25142,
				"method": "rhf"
			},
			{
				"type": "unocc",
				"energy": -0.04587,
				"method": "rhf"
			},
			{
				"type": "unocc",
				"energy": -0.03972,
				"method": "rhf"
			},
			{
				"type": "unocc",
				"energy": -0.02867,
				"method": "rhf"
			},
			{
				"type": "unocc",
				"energy": 0.04015,
				"method": "rhf"
			},
			{
				"type": "unocc",
				"energy": 0.04641,
				"method": "rhf"
			}
		],
		"cosmo_sigma_profile": { 
			"0.0": 0.0,
			"0.0": 0.0,
			"0.0": 0.0,
			"0.0": 0.0,
			"0.0": 0.0,
			"0.0": 0.0,
			"0.0": 0.0,
			"0.0": 0.0,
			"0.0": 0.0,
			"0.0": 0.0,
			"0.0": 0.0,
			"0.0": 0.0,
			"0.0": 0.0,
			"0.0": 0.0,
			"0.0": 0.0,
			"0.0": 0.0,
			"0.0": 0.0,
			"0.0": 0.0,
			"0.0": 0.0,
			"0.0": 0.0,
			"0.0": 0.0,
			"0.0": 0.0,
			"0.0": 0.0,
			"0.0": 0.0,
			"0.0": 0.0,
			"0.0": 0.0,
			"0.0": 0.0,
			"0.0": 0.0,
			"0.0": 0.0,
			"0.0": 0.0,
			"0.0": 0.0,
			"0.0": 0.0,
			"0.0": 0.0,
			"0.0": 0.0,
			"0.0": 0.0,
			"0.0": 0.0,
			"0.0": 0.0,
			"0.0": 0.0,
			"0.0": 0.0,
			"0.0": 0.0,
			"0.0": 0.0,
			"0.0": 0.0,
			"0.0": 0.0,
			"0.0": 0.0,
			"0.0": 0.0,
			"0.0": 0.0,
			"0.0": 0.0,
			"0.0": 0.0,
			"0.0": 0.0,
			"0.0": 0.0,
			"0.0": 0.0
		}
	}
}
