{
	 "smiles": "CC1CN(CC(C)O1)S(=O)(=O)C1=CC=C(NC(=O)CCl)C=C1", 
	 "Tm": 384.15, 
	 "num_atms": 41, 
	 "gaussian": { 
		 "optdone": 1, 
		 "sigma_profile": "yes", 
		 "theory": "DFT", 
		 "functional": "B3LYP", 
		 "basiset": "6-31G**", 
		 "properties": { 
			 "R2extent": 13743.6336, 
			 "electric_dipole_moment_norm": 4.10215356734, 
			 "electric_quadrupole_moment_norm": 17.0947813894, 
			 "total_energy": -1813.67159776, 
			 "HOMO_LUMO_gap": 0.17846, 
			 "cosmo_polarized_energy": -20.43, 
			 "cosmo_cavitation_energy": 46.13, 
			 "cosmo_dispersion_energy": -32.98, 
			 "cosmo_repulsion_energy": 2.5, 
			 "cosmo_total_nonelectrostatic_energy": 15.65, 
			 "SMD_solvation_energy": 6.38 
		},
		"coords": [
			{
				"x": 0.9308108095,
				"y": 4.710194175,
				"z": 2.2684397193,
				"element": "C" 
			},
			{
				"x": 0.3895738234,
				"y": 3.3276882532,
				"z": 1.9364125896,
				"element": "C" 
			},
			{
				"x": 1.0156829332,
				"y": 2.7452840708,
				"z": 0.6633616441,
				"element": "C" 
			},
			{
				"x": 0.6243578822,
				"y": 1.3391944018,
				"z": 0.4461677066,
				"element": "N" 
			},
			{
				"x": 0.7887483435,
				"y": 0.5040850995,
				"z": 1.6508899403,
				"element": "C" 
			},
			{
				"x": 0.1652786284,
				"y": 1.1539111715,
				"z": 2.8939821067,
				"element": "C" 
			},
			{
				"x": 0.4881494295,
				"y": 0.3917813991,
				"z": 4.1703989901,
				"element": "C" 
			},
			{
				"x": 0.6810390231,
				"y": 2.4785762139,
				"z": 3.0493578072,
				"element": "O" 
			},
			{
				"x": -0.7566050027,
				"y": 1.0471636409,
				"z": -0.4880634977,
				"element": "S" 
			},
			{
				"x": -0.8442693304,
				"y": 2.1596619499,
				"z": -1.4409381712,
				"element": "O" 
			},
			{
				"x": -1.9163032172,
				"y": 0.696949539,
				"z": 0.3486459253,
				"element": "O" 
			},
			{
				"x": -0.283587525,
				"y": -0.4442787498,
				"z": -1.3621118239,
				"element": "C" 
			},
			{
				"x": -1.0748585148,
				"y": -1.5867593903,
				"z": -1.2394728968,
				"element": "C" 
			},
			{
				"x": -0.7385737753,
				"y": -2.7281288141,
				"z": -1.9593019137,
				"element": "C" 
			},
			{
				"x": 0.381428663,
				"y": -2.7321645227,
				"z": -2.8055790912,
				"element": "C" 
			},
			{
				"x": 0.6558556977,
				"y": -3.9253902835,
				"z": -3.5007517982,
				"element": "N" 
			},
			{
				"x": 1.6801339782,
				"y": -4.1878038756,
				"z": -4.3636042015,
				"element": "C" 
			},
			{
				"x": 2.5654989909,
				"y": -3.4122387619,
				"z": -4.6919968208,
				"element": "O" 
			},
			{
				"x": 1.7254013481,
				"y": -5.5886379269,
				"z": -4.9854928108,
				"element": "C" 
			},
			{
				"x": 0.4357836424,
				"y": -6.7623480494,
				"z": -4.4822235055,
				"element": "Cl" 
			},
			{
				"x": 1.1704639476,
				"y": -1.5743512628,
				"z": -2.9289658719,
				"element": "C" 
			},
			{
				"x": 0.8288550981,
				"y": -0.4358928256,
				"z": -2.2071993072,
				"element": "C" 
			},
			{
				"x": 2.017068221,
				"y": 4.6753949086,
				"z": 2.4008675159,
				"element": "H" 
			},
			{
				"x": 0.4859796835,
				"y": 5.0738896085,
				"z": 3.1982882738,
				"element": "H" 
			},
			{
				"x": 0.6974995774,
				"y": 5.4202758031,
				"z": 1.4689951783,
				"element": "H" 
			},
			{
				"x": -0.7036860387,
				"y": 3.3762372363,
				"z": 1.797713805,
				"element": "H" 
			},
			{
				"x": 0.7400007889,
				"y": 3.3248784401,
				"z": -0.2186457175,
				"element": "H" 
			},
			{
				"x": 2.1089786236,
				"y": 2.7573427358,
				"z": 0.7636483701,
				"element": "H" 
			},
			{
				"x": 0.3600914247,
				"y": -0.4850158038,
				"z": 1.4689634148,
				"element": "H" 
			},
			{
				"x": 1.8676004277,
				"y": 0.3785679952,
				"z": 1.8098779382,
				"element": "H" 
			},
			{
				"x": -0.9241367029,
				"y": 1.2034028704,
				"z": 2.7447036428,
				"element": "H" 
			},
			{
				"x": 0.0564140172,
				"y": 0.9061248351,
				"z": 5.0328440615,
				"element": "H" 
			},
			{
				"x": 0.079725729,
				"y": -0.623053809,
				"z": 4.1310863425,
				"element": "H" 
			},
			{
				"x": 1.5712387231,
				"y": 0.3288382754,
				"z": 4.3182543024,
				"element": "H" 
			},
			{
				"x": -1.9415234829,
				"y": -1.5709504691,
				"z": -0.5883903038,
				"element": "H" 
			},
			{
				"x": -1.350054055,
				"y": -3.6221203911,
				"z": -1.866614366,
				"element": "H" 
			},
			{
				"x": 0.0107702313,
				"y": -4.6894279895,
				"z": -3.3416860778,
				"element": "H" 
			},
			{
				"x": 2.6865189336,
				"y": -6.0382498475,
				"z": -4.7355589287,
				"element": "H" 
			},
			{
				"x": 1.6578065233,
				"y": -5.4810076332,
				"z": -6.0684137992,
				"element": "H" 
			},
			{
				"x": 2.0304705119,
				"y": -1.5818814414,
				"z": -3.5831132223,
				"element": "H" 
			},
			{
				"x": 1.4323719898,
				"y": 0.4606592243,
				"z": -2.2987751487,
				"element": "H" 
			}
		],
		 "valence_orbital": [ 
			{
				"type": "occ",
				"energy": -0.28045,
				"method": "rhf"
			},
			{
				"type": "occ",
				"energy": -0.27963,
				"method": "rhf"
			},
			{
				"type": "occ",
				"energy": -0.27561,
				"method": "rhf"
			},
			{
				"type": "occ",
				"energy": -0.2499,
				"method": "rhf"
			},
			{
				"type": "occ",
				"energy": -0.22832,
				"method": "rhf"
			},
			{
				"type": "unocc",
				"energy": -0.04986,
				"method": "rhf"
			},
			{
				"type": "unocc",
				"energy": -0.02528,
				"method": "rhf"
			},
			{
				"type": "unocc",
				"energy": -0.00229,
				"method": "rhf"
			},
			{
				"type": "unocc",
				"energy": 0.01085,
				"method": "rhf"
			},
			{
				"type": "unocc",
				"energy": 0.05783,
				"method": "rhf"
			}
		],
		"cosmo_sigma_profile": { 
			"-0.025": 0.0,
			"-0.024": 0.0,
			"-0.023": 0.0,
			"-0.022": 0.0,
			"-0.021": 0.0,
			"-0.02": 0.0,
			"-0.019": 0.0,
			"-0.018": 0.0,
			"-0.017": 0.0,
			"-0.016": 0.0,
			"-0.015": 0.0584149958236,
			"-0.014": 0.731038496624,
			"-0.013": 0.714588594583,
			"-0.012": 1.36253468371,
			"-0.011": 1.14382681126,
			"-0.01": 2.30197117988,
			"-0.009": 5.94590950329,
			"-0.008": 5.72509835424,
			"-0.007": 10.0600475445,
			"-0.006": 12.7427573957,
			"-0.005": 23.1954938531,
			"-0.004": 29.0695005087,
			"-0.003": 32.0215354967,
			"-0.002": 32.5535076986,
			"-0.001": 31.9168774521,
			"0.0": 31.1655232943,
			"0.001": 26.1558003587,
			"0.002": 25.3770731882,
			"0.003": 15.4992697119,
			"0.004": 12.2616170684,
			"0.005": 13.8135636129,
			"0.006": 5.33655686275,
			"0.007": 5.79287177628,
			"0.008": 5.57080557007,
			"0.009": 6.13425523529,
			"0.01": 9.66071994926,
			"0.011": 11.0583859696,
			"0.012": 7.70479736507,
			"0.013": 1.32324601452,
			"0.014": 0.0,
			"0.015": 0.0,
			"0.016": 0.0,
			"0.017": 0.0,
			"0.018": 0.0,
			"0.019": 0.0,
			"0.02": 0.0,
			"0.021": 0.0,
			"0.022": 0.0,
			"0.023": 0.0,
			"0.024": 0.0,
			"0.025": 0.0
		}
	}
}
