{
	 "smiles": "CC(O)C1=CC(F)=C(C=C1)N(C)CC1=NC=CC=C1", 
	 "Tm": 347.15, 
	 "num_atms": 36, 
	 "gaussian": { 
		 "optdone": 1, 
		 "sigma_profile": "yes", 
		 "theory": "DFT", 
		 "functional": "B3LYP", 
		 "basiset": "6-31G**", 
		 "properties": { 
			 "R2extent": 6261.8438, 
			 "electric_dipole_moment_norm": 2.55138506894, 
			 "electric_quadrupole_moment_norm": 14.9139716001, 
			 "total_energy": -866.383081945, 
			 "HOMO_LUMO_gap": 0.20141, 
			 "cosmo_polarized_energy": -13.2, 
			 "cosmo_cavitation_energy": 39.31, 
			 "cosmo_dispersion_energy": -26.88, 
			 "cosmo_repulsion_energy": 2.09, 
			 "cosmo_total_nonelectrostatic_energy": 14.52, 
			 "SMD_solvation_energy": 5.22 
		},
		"coords": [
			{
				"x": -0.0521986598,
				"y": 3.3394207461,
				"z": -3.5911883977,
				"element": "C" 
			},
			{
				"x": -1.0994142834,
				"y": 2.8447371261,
				"z": -2.5822275421,
				"element": "C" 
			},
			{
				"x": -1.4041157144,
				"y": 3.8590964055,
				"z": -1.6291465312,
				"element": "O" 
			},
			{
				"x": -0.6118595297,
				"y": 1.6201201992,
				"z": -1.8286265062,
				"element": "C" 
			},
			{
				"x": -0.6642172961,
				"y": 0.3640727133,
				"z": -2.444749234,
				"element": "C" 
			},
			{
				"x": -0.1768897233,
				"y": -0.7479336595,
				"z": -1.77512934,
				"element": "C" 
			},
			{
				"x": -0.227571881,
				"y": -1.9489565828,
				"z": -2.4028174778,
				"element": "F" 
			},
			{
				"x": 0.3614248827,
				"y": -0.6816476867,
				"z": -0.4820840099,
				"element": "C" 
			},
			{
				"x": 0.4011663098,
				"y": 0.5826609105,
				"z": 0.1137346826,
				"element": "C" 
			},
			{
				"x": -0.0735339048,
				"y": 1.71973663,
				"z": -0.5423082956,
				"element": "C" 
			},
			{
				"x": 0.8690698498,
				"y": -1.8294183383,
				"z": 0.2178968161,
				"element": "N" 
			},
			{
				"x": 2.0900714408,
				"y": -2.371699464,
				"z": -0.3876692518,
				"element": "C" 
			},
			{
				"x": -0.1427314306,
				"y": -2.8621975225,
				"z": 0.4914979935,
				"element": "C" 
			},
			{
				"x": -1.1708442364,
				"y": -2.4327679723,
				"z": 1.522010921,
				"element": "C" 
			},
			{
				"x": -2.4373478686,
				"y": -2.8030872348,
				"z": 1.2816587549,
				"element": "N" 
			},
			{
				"x": -3.3676039429,
				"y": -2.4840493591,
				"z": 2.1913560418,
				"element": "C" 
			},
			{
				"x": -3.0942638702,
				"y": -1.7873424786,
				"z": 3.3672358436,
				"element": "C" 
			},
			{
				"x": -1.774309062,
				"y": -1.4042740809,
				"z": 3.6113554499,
				"element": "C" 
			},
			{
				"x": -0.7969414115,
				"y": -1.7320727855,
				"z": 2.6766093902,
				"element": "C" 
			},
			{
				"x": -0.4278793153,
				"y": 4.2103090896,
				"z": -4.143054827,
				"element": "H" 
			},
			{
				"x": 0.1934589543,
				"y": 2.5627719895,
				"z": -4.3216208354,
				"element": "H" 
			},
			{
				"x": 0.8648495002,
				"y": 3.6265208803,
				"z": -3.0681286533,
				"element": "H" 
			},
			{
				"x": -2.0110223692,
				"y": 2.5629361758,
				"z": -3.1355053715,
				"element": "H" 
			},
			{
				"x": -1.6092914974,
				"y": 4.6667807456,
				"z": -2.1162611916,
				"element": "H" 
			},
			{
				"x": -1.0809120787,
				"y": 0.2330211619,
				"z": -3.4393020098,
				"element": "H" 
			},
			{
				"x": 0.8144451242,
				"y": 0.6550348444,
				"z": 1.1145732792,
				"element": "H" 
			},
			{
				"x": -0.0450483428,
				"y": 2.6876533076,
				"z": -0.0563948549,
				"element": "H" 
			},
			{
				"x": 2.5163485146,
				"y": -3.1273887751,
				"z": 0.2807749967,
				"element": "H" 
			},
			{
				"x": 1.9277574834,
				"y": -2.8333945786,
				"z": -1.3740770061,
				"element": "H" 
			},
			{
				"x": 2.822124873,
				"y": -1.5671674896,
				"z": -0.5003925818,
				"element": "H" 
			},
			{
				"x": 0.3977663916,
				"y": -3.7331924724,
				"z": 0.8862928038,
				"element": "H" 
			},
			{
				"x": -0.6795111096,
				"y": -3.2003665097,
				"z": -0.4044300601,
				"element": "H" 
			},
			{
				"x": -4.3846885507,
				"y": -2.7991342483,
				"z": 1.9626172075,
				"element": "H" 
			},
			{
				"x": -3.8910117743,
				"y": -1.5518168069,
				"z": 4.0659191587,
				"element": "H" 
			},
			{
				"x": -1.5132039961,
				"y": -0.860608486,
				"z": 4.5153002471,
				"element": "H" 
			},
			{
				"x": 0.2423285245,
				"y": -1.4547563939,
				"z": 2.8160803913,
				"element": "H" 
			}
		],
		 "valence_orbital": [ 
			{
				"type": "occ",
				"energy": -0.24942,
				"method": "rhf"
			},
			{
				"type": "occ",
				"energy": -0.24522,
				"method": "rhf"
			},
			{
				"type": "occ",
				"energy": -0.24347,
				"method": "rhf"
			},
			{
				"type": "occ",
				"energy": -0.23423,
				"method": "rhf"
			},
			{
				"type": "occ",
				"energy": -0.21616,
				"method": "rhf"
			},
			{
				"type": "unocc",
				"energy": -0.01475,
				"method": "rhf"
			},
			{
				"type": "unocc",
				"energy": -0.00771,
				"method": "rhf"
			},
			{
				"type": "unocc",
				"energy": -0.00284,
				"method": "rhf"
			},
			{
				"type": "unocc",
				"energy": 0.00808,
				"method": "rhf"
			},
			{
				"type": "unocc",
				"energy": 0.06919,
				"method": "rhf"
			}
		],
		"cosmo_sigma_profile": { 
			"-0.025": 0.0,
			"-0.024": 0.0,
			"-0.023": 0.0,
			"-0.022": 0.0,
			"-0.021": 0.0,
			"-0.02": 0.0,
			"-0.019": 0.0,
			"-0.018": 0.0,
			"-0.017": 0.0,
			"-0.016": 0.120911663914,
			"-0.015": 1.20207124509,
			"-0.014": 0.595469989603,
			"-0.013": 1.05461348782,
			"-0.012": 0.823031268626,
			"-0.011": 1.28278960566,
			"-0.01": 0.974046479211,
			"-0.009": 1.06060210342,
			"-0.008": 0.869173797473,
			"-0.007": 4.12884208167,
			"-0.006": 12.0158957843,
			"-0.005": 18.9784310887,
			"-0.004": 27.1392254152,
			"-0.003": 23.6499454517,
			"-0.002": 24.7416220458,
			"-0.001": 29.189540021,
			"0.0": 28.5453985723,
			"0.001": 25.7742474035,
			"0.002": 22.2728034329,
			"0.003": 25.0253504278,
			"0.004": 22.988878587,
			"0.005": 12.7146219524,
			"0.006": 4.39292759122,
			"0.007": 3.19874660859,
			"0.008": 3.10204968898,
			"0.009": 3.65000243983,
			"0.01": 3.23128071054,
			"0.011": 1.64277464495,
			"0.012": 2.1984347031,
			"0.013": 1.12273136191,
			"0.014": 1.39175542497,
			"0.015": 0.939069539923,
			"0.016": 0.651454011252,
			"0.017": 0.141645886693,
			"0.018": 0.0,
			"0.019": 0.0,
			"0.02": 0.0,
			"0.021": 0.0,
			"0.022": 0.0,
			"0.023": 0.0,
			"0.024": 0.0,
			"0.025": 0.0
		}
	}
}
