{
	 "smiles": "OC(=O)CN1C=NC(=N1)C#N", 
	 "Tm": 370.15, 
	 "num_atms": 15, 
	 "gaussian": { 
		 "optdone": 1, 
		 "sigma_profile": "yes", 
		 "theory": "DFT", 
		 "functional": "B3LYP", 
		 "basiset": "6-31G**", 
		 "properties": { 
			 "R2extent": 2431.5753, 
			 "electric_dipole_moment_norm": 4.65189708506, 
			 "electric_quadrupole_moment_norm": 25.7050921368, 
			 "total_energy": -562.357170048, 
			 "HOMO_LUMO_gap": 0.21727, 
			 "cosmo_polarized_energy": -20.45, 
			 "cosmo_cavitation_energy": 21.83, 
			 "cosmo_dispersion_energy": -15.57, 
			 "cosmo_repulsion_energy": 1.26, 
			 "cosmo_total_nonelectrostatic_energy": 7.52, 
			 "SMD_solvation_energy": 4.56 
		},
		"coords": [
			{
				"x": -2.4421173976,
				"y": 0.4308761109,
				"z": -0.9259598345,
				"element": "O" 
			},
			{
				"x": -1.609585447,
				"y": 1.2655199199,
				"z": -0.299800114,
				"element": "C" 
			},
			{
				"x": -1.8715435571,
				"y": 2.4214188308,
				"z": -0.0816299404,
				"element": "O" 
			},
			{
				"x": -0.2140933628,
				"y": 0.7197677305,
				"z": 0.0777755537,
				"element": "C" 
			},
			{
				"x": -0.1728623579,
				"y": -0.692855802,
				"z": 0.4438623476,
				"element": "N" 
			},
			{
				"x": 0.3788248266,
				"y": -1.2995332878,
				"z": 1.5216887104,
				"element": "C" 
			},
			{
				"x": 0.2125824272,
				"y": -2.6083497787,
				"z": 1.4545024409,
				"element": "N" 
			},
			{
				"x": -0.4693702446,
				"y": -2.7618306926,
				"z": 0.2877236864,
				"element": "C" 
			},
			{
				"x": -0.7220921469,
				"y": -1.6247727146,
				"z": -0.3657978965,
				"element": "N" 
			},
			{
				"x": -0.8934797305,
				"y": -4.0292295748,
				"z": -0.2202371637,
				"element": "C" 
			},
			{
				"x": -1.2373923756,
				"y": -5.0587946741,
				"z": -0.6322642727,
				"element": "N" 
			},
			{
				"x": -2.0452467078,
				"y": -0.4637708294,
				"z": -1.0122286454,
				"element": "H" 
			},
			{
				"x": 0.1521373697,
				"y": 1.3038143462,
				"z": 0.9211307417,
				"element": "H" 
			},
			{
				"x": 0.452984357,
				"y": 0.8846931454,
				"z": -0.7760904374,
				"element": "H" 
			},
			{
				"x": 0.8821543473,
				"y": -0.7574527297,
				"z": 2.3100248236,
				"element": "H" 
			}
		],
		 "valence_orbital": [ 
			{
				"type": "occ",
				"energy": -0.34923,
				"method": "rhf"
			},
			{
				"type": "occ",
				"energy": -0.33567,
				"method": "rhf"
			},
			{
				"type": "occ",
				"energy": -0.33185,
				"method": "rhf"
			},
			{
				"type": "occ",
				"energy": -0.31414,
				"method": "rhf"
			},
			{
				"type": "occ",
				"energy": -0.29044,
				"method": "rhf"
			},
			{
				"type": "unocc",
				"energy": -0.07317,
				"method": "rhf"
			},
			{
				"type": "unocc",
				"energy": -0.02929,
				"method": "rhf"
			},
			{
				"type": "unocc",
				"energy": -0.01558,
				"method": "rhf"
			},
			{
				"type": "unocc",
				"energy": 9e-05,
				"method": "rhf"
			},
			{
				"type": "unocc",
				"energy": 0.06074,
				"method": "rhf"
			}
		],
		"cosmo_sigma_profile": { 
			"-0.025": 0.0,
			"-0.024": 0.0,
			"-0.023": 0.0,
			"-0.022": 0.0,
			"-0.021": 0.0,
			"-0.02": 0.0,
			"-0.019": 0.0,
			"-0.018": 0.0,
			"-0.017": 0.0,
			"-0.016": 0.0,
			"-0.015": 0.0407805099933,
			"-0.014": 0.876827425857,
			"-0.013": 2.58631459974,
			"-0.012": 3.41531427665,
			"-0.011": 5.81515144511,
			"-0.01": 7.95041990966,
			"-0.009": 7.31499050865,
			"-0.008": 8.17619905967,
			"-0.007": 7.52492321583,
			"-0.006": 5.55404817982,
			"-0.005": 6.20889078187,
			"-0.004": 9.5970825266,
			"-0.003": 8.08057084939,
			"-0.002": 6.52801172834,
			"-0.001": 7.00530187584,
			"0.0": 7.55489994173,
			"0.001": 6.37162574775,
			"0.002": 7.27809327961,
			"0.003": 5.8067893063,
			"0.004": 6.53750015796,
			"0.005": 5.8653934643,
			"0.006": 6.48406665176,
			"0.007": 7.38675507753,
			"0.008": 7.1507537399,
			"0.009": 8.30414419588,
			"0.01": 8.03678916298,
			"0.011": 8.53611615262,
			"0.012": 4.07101845067,
			"0.013": 1.3214501282,
			"0.014": 0.0863042217716,
			"0.015": 0.0,
			"0.016": 0.0,
			"0.017": 0.0,
			"0.018": 0.0,
			"0.019": 0.0,
			"0.02": 0.0,
			"0.021": 0.0,
			"0.022": 0.0,
			"0.023": 0.0,
			"0.024": 0.0,
			"0.025": 0.0
		}
	}
}
