{
	 "smiles": "CCCCCCC1CCCCC1", 
	 "Tm": 230.15, 
	 "num_atms": 36, 
	 "gaussian": { 
		 "optdone": 1, 
		 "sigma_profile": "yes", 
		 "theory": "DFT", 
		 "functional": "B3LYP", 
		 "basiset": "6-31G**", 
		 "properties": { 
			 "R2extent": 3080.0105, 
			 "electric_dipole_moment_norm": 0.0263471061029, 
			 "electric_quadrupole_moment_norm": 0.476209985196, 
			 "total_energy": -471.76950056, 
			 "HOMO_LUMO_gap": 0.35127, 
			 "cosmo_polarized_energy": -0.76, 
			 "cosmo_cavitation_energy": 33.84, 
			 "cosmo_dispersion_energy": -23.27, 
			 "cosmo_repulsion_energy": 1.88, 
			 "cosmo_total_nonelectrostatic_energy": 12.45, 
			 "SMD_solvation_energy": 4.25 
		},
		"coords": [
			{
				"x": 1.1723932316,
				"y": -2.5003225617,
				"z": -2.613825133,
				"element": "C" 
			},
			{
				"x": 1.2492408509,
				"y": -2.9521931697,
				"z": -1.1504266215,
				"element": "C" 
			},
			{
				"x": -0.1157980126,
				"y": -3.31768259,
				"z": -0.5359131363,
				"element": "C" 
			},
			{
				"x": -1.1021856718,
				"y": -2.1507005234,
				"z": -0.2989489559,
				"element": "C" 
			},
			{
				"x": -1.0418666625,
				"y": -1.4973709837,
				"z": 1.0962609864,
				"element": "C" 
			},
			{
				"x": 0.2492814438,
				"y": -0.7463114455,
				"z": 1.4689808999,
				"element": "C" 
			},
			{
				"x": 0.5937672421,
				"y": 0.4771378557,
				"z": 0.6008741484,
				"element": "C" 
			},
			{
				"x": 1.9246021017,
				"y": 1.1188451599,
				"z": 1.0308711784,
				"element": "C" 
			},
			{
				"x": 2.3875112312,
				"y": 2.2086759615,
				"z": 0.0351749646,
				"element": "C" 
			},
			{
				"x": 1.1964385942,
				"y": 2.9430173418,
				"z": -0.6263045037,
				"element": "C" 
			},
			{
				"x": -0.0151115546,
				"y": 2.9750786802,
				"z": 0.3136509169,
				"element": "C" 
			},
			{
				"x": -0.5317115002,
				"y": 1.546742518,
				"z": 0.6113693093,
				"element": "C" 
			},
			{
				"x": 0.5631516848,
				"y": -1.5979391843,
				"z": -2.733321171,
				"element": "H" 
			},
			{
				"x": 0.7297042387,
				"y": -3.2810651039,
				"z": -3.2434821546,
				"element": "H" 
			},
			{
				"x": 2.1679876767,
				"y": -2.2771257027,
				"z": -3.0116730281,
				"element": "H" 
			},
			{
				"x": 1.9027387539,
				"y": -3.8322072812,
				"z": -1.0886875026,
				"element": "H" 
			},
			{
				"x": 1.738148104,
				"y": -2.1730628436,
				"z": -0.5539870357,
				"element": "H" 
			},
			{
				"x": -0.5902252103,
				"y": -4.0537702026,
				"z": -1.1991247301,
				"element": "H" 
			},
			{
				"x": 0.0468828775,
				"y": -3.8404442231,
				"z": 0.4166240278,
				"element": "H" 
			},
			{
				"x": -2.1235727623,
				"y": -2.5299082604,
				"z": -0.4288271388,
				"element": "H" 
			},
			{
				"x": -0.9773465568,
				"y": -1.387903561,
				"z": -1.0780620381,
				"element": "H" 
			},
			{
				"x": -1.209762605,
				"y": -2.2812853611,
				"z": 1.8477244428,
				"element": "H" 
			},
			{
				"x": -1.892966014,
				"y": -0.810776487,
				"z": 1.191249115,
				"element": "H" 
			},
			{
				"x": 0.1599945794,
				"y": -0.4112189735,
				"z": 2.5127711183,
				"element": "H" 
			},
			{
				"x": 1.0963715238,
				"y": -1.4445092469,
				"z": 1.454633273,
				"element": "H" 
			},
			{
				"x": 0.7246981493,
				"y": 0.1322252986,
				"z": -0.4352370478,
				"element": "H" 
			},
			{
				"x": 1.795438369,
				"y": 1.5541966554,
				"z": 2.0315956732,
				"element": "H" 
			},
			{
				"x": 2.7018667973,
				"y": 0.3520449858,
				"z": 1.1347891099,
				"element": "H" 
			},
			{
				"x": 3.0149681801,
				"y": 1.7585726226,
				"z": -0.743534594,
				"element": "H" 
			},
			{
				"x": 3.024459325,
				"y": 2.9302212312,
				"z": 0.5609688312,
				"element": "H" 
			},
			{
				"x": 1.4906604346,
				"y": 3.9580580564,
				"z": -0.9163681442,
				"element": "H" 
			},
			{
				"x": 0.910936042,
				"y": 2.4317551846,
				"z": -1.555114526,
				"element": "H" 
			},
			{
				"x": 0.2774620925,
				"y": 3.4683710757,
				"z": 1.2499596782,
				"element": "H" 
			},
			{
				"x": -0.8208363693,
				"y": 3.5848751305,
				"z": -0.1107910242,
				"element": "H" 
			},
			{
				"x": -1.299056812,
				"y": 1.2731008541,
				"z": -0.122799023,
				"element": "H" 
			},
			{
				"x": -1.0311637928,
				"y": 1.5405790932,
				"z": 1.5895298351,
				"element": "H" 
			}
		],
		 "valence_orbital": [ 
			{
				"type": "occ",
				"energy": -0.30542,
				"method": "rhf"
			},
			{
				"type": "occ",
				"energy": -0.30147,
				"method": "rhf"
			},
			{
				"type": "occ",
				"energy": -0.28938,
				"method": "rhf"
			},
			{
				"type": "occ",
				"energy": -0.28771,
				"method": "rhf"
			},
			{
				"type": "occ",
				"energy": -0.28279,
				"method": "rhf"
			},
			{
				"type": "unocc",
				"energy": 0.06848,
				"method": "rhf"
			},
			{
				"type": "unocc",
				"energy": 0.09226,
				"method": "rhf"
			},
			{
				"type": "unocc",
				"energy": 0.09744,
				"method": "rhf"
			},
			{
				"type": "unocc",
				"energy": 0.10603,
				"method": "rhf"
			},
			{
				"type": "unocc",
				"energy": 0.11774,
				"method": "rhf"
			}
		],
		"cosmo_sigma_profile": { 
			"-0.025": 0.0,
			"-0.024": 0.0,
			"-0.023": 0.0,
			"-0.022": 0.0,
			"-0.021": 0.0,
			"-0.02": 0.0,
			"-0.019": 0.0,
			"-0.018": 0.0,
			"-0.017": 0.0,
			"-0.016": 0.0,
			"-0.015": 0.0,
			"-0.014": 0.0,
			"-0.013": 0.0,
			"-0.012": 0.0,
			"-0.011": 0.0,
			"-0.01": 0.0,
			"-0.009": 0.0,
			"-0.008": 0.0,
			"-0.007": 0.0,
			"-0.006": 0.0,
			"-0.005": 0.0,
			"-0.004": 0.0,
			"-0.003": 1.80818461723,
			"-0.002": 26.5325697001,
			"-0.001": 64.6960630204,
			"0.0": 76.2751305117,
			"0.001": 54.346340009,
			"0.002": 33.2980667821,
			"0.003": 0.849801418583,
			"0.004": 0.0,
			"0.005": 0.0,
			"0.006": 0.0,
			"0.007": 0.0,
			"0.008": 0.0,
			"0.009": 0.0,
			"0.01": 0.0,
			"0.011": 0.0,
			"0.012": 0.0,
			"0.013": 0.0,
			"0.014": 0.0,
			"0.015": 0.0,
			"0.016": 0.0,
			"0.017": 0.0,
			"0.018": 0.0,
			"0.019": 0.0,
			"0.02": 0.0,
			"0.021": 0.0,
			"0.022": 0.0,
			"0.023": 0.0,
			"0.024": 0.0,
			"0.025": 0.0
		}
	}
}
