{
	 "smiles": "ClCC(=O)N1CCCC1", 
	 "Tm": 330.15, 
	 "num_atms": 19, 
	 "gaussian": { 
		 "optdone": 1, 
		 "sigma_profile": "yes", 
		 "theory": "DFT", 
		 "functional": "B3LYP", 
		 "basiset": "6-31G**", 
		 "properties": { 
			 "R2extent": 1758.6352, 
			 "electric_dipole_moment_norm": 4.1559497278, 
			 "electric_quadrupole_moment_norm": 8.19575664719, 
			 "total_energy": -824.846937467, 
			 "HOMO_LUMO_gap": 0.2248, 
			 "cosmo_polarized_energy": -10.53, 
			 "cosmo_cavitation_energy": 22.86, 
			 "cosmo_dispersion_energy": -17.12, 
			 "cosmo_repulsion_energy": 1.43, 
			 "cosmo_total_nonelectrostatic_energy": 7.17, 
			 "SMD_solvation_energy": 3.22 
		},
		"coords": [
			{
				"x": 2.8191675757,
				"y": -1.8943601622,
				"z": -0.1114707326,
				"element": "Cl" 
			},
			{
				"x": 2.1471041656,
				"y": -0.6232683211,
				"z": 1.0053242529,
				"element": "C" 
			},
			{
				"x": 1.3315224247,
				"y": 0.429877454,
				"z": 0.2527893477,
				"element": "C" 
			},
			{
				"x": 1.8070995552,
				"y": 1.5419896264,
				"z": 0.0423659884,
				"element": "O" 
			},
			{
				"x": 0.0770539185,
				"y": 0.0833931653,
				"z": -0.1374177656,
				"element": "N" 
			},
			{
				"x": -0.7585203697,
				"y": 1.0582597797,
				"z": -0.8575335503,
				"element": "C" 
			},
			{
				"x": -2.1406864697,
				"y": 0.3909058394,
				"z": -0.8913534154,
				"element": "C" 
			},
			{
				"x": -1.8120214054,
				"y": -1.1119352016,
				"z": -0.8787665319,
				"element": "C" 
			},
			{
				"x": -0.6090936517,
				"y": -1.201293346,
				"z": 0.0726867231,
				"element": "C" 
			},
			{
				"x": 2.9994001657,
				"y": -0.1190780611,
				"z": 1.4549352089,
				"element": "H" 
			},
			{
				"x": 1.5694155486,
				"y": -1.1512319687,
				"z": 1.7661635277,
				"element": "H" 
			},
			{
				"x": -0.7437568087,
				"y": 2.0216957941,
				"z": -0.3413646071,
				"element": "H" 
			},
			{
				"x": -0.3545976427,
				"y": 1.2225538225,
				"z": -1.8645557759,
				"element": "H" 
			},
			{
				"x": -2.7106004799,
				"y": 0.6584183235,
				"z": 0.0058907257,
				"element": "H" 
			},
			{
				"x": -2.7280938752,
				"y": 0.6951615303,
				"z": -1.7613820988,
				"element": "H" 
			},
			{
				"x": -2.6464701628,
				"y": -1.7379506498,
				"z": -0.5519347834,
				"element": "H" 
			},
			{
				"x": -1.5151924727,
				"y": -1.4421173867,
				"z": -1.8804444698,
				"element": "H" 
			},
			{
				"x": 0.0476699376,
				"y": -2.0440184248,
				"z": -0.1557400624,
				"element": "H" 
			},
			{
				"x": -0.9441999532,
				"y": -1.2984018133,
				"z": 1.1160080188,
				"element": "H" 
			}
		],
		 "valence_orbital": [ 
			{
				"type": "occ",
				"energy": -0.344,
				"method": "rhf"
			},
			{
				"type": "occ",
				"energy": -0.31071,
				"method": "rhf"
			},
			{
				"type": "occ",
				"energy": -0.30217,
				"method": "rhf"
			},
			{
				"type": "occ",
				"energy": -0.24891,
				"method": "rhf"
			},
			{
				"type": "occ",
				"energy": -0.24187,
				"method": "rhf"
			},
			{
				"type": "unocc",
				"energy": -0.01707,
				"method": "rhf"
			},
			{
				"type": "unocc",
				"energy": 0.05617,
				"method": "rhf"
			},
			{
				"type": "unocc",
				"energy": 0.07594,
				"method": "rhf"
			},
			{
				"type": "unocc",
				"energy": 0.09674,
				"method": "rhf"
			},
			{
				"type": "unocc",
				"energy": 0.12062,
				"method": "rhf"
			}
		],
		"cosmo_sigma_profile": { 
			"-0.025": 0.0,
			"-0.024": 0.0,
			"-0.023": 0.0,
			"-0.022": 0.0,
			"-0.021": 0.0,
			"-0.02": 0.0,
			"-0.019": 0.0,
			"-0.018": 0.0,
			"-0.017": 0.0,
			"-0.016": 0.0,
			"-0.015": 0.0,
			"-0.014": 0.0,
			"-0.013": 0.0,
			"-0.012": 0.0,
			"-0.011": 0.0,
			"-0.01": 0.0,
			"-0.009": 0.385671946366,
			"-0.008": 4.1419448001,
			"-0.007": 4.80548357181,
			"-0.006": 4.42247533524,
			"-0.005": 8.07559868216,
			"-0.004": 20.6212341403,
			"-0.003": 28.1580573182,
			"-0.002": 21.4878477778,
			"-0.001": 15.4455901457,
			"0.0": 12.7311570655,
			"0.001": 6.25652726939,
			"0.002": 7.42599368495,
			"0.003": 7.4446508796,
			"0.004": 7.19474725682,
			"0.005": 8.32344752446,
			"0.006": 6.10141159991,
			"0.007": 1.21635174476,
			"0.008": 2.21592057078,
			"0.009": 0.768859650157,
			"0.01": 0.942003486982,
			"0.011": 2.03608897164,
			"0.012": 1.61724992261,
			"0.013": 3.99566038909,
			"0.014": 4.73817243255,
			"0.015": 0.633414850063,
			"0.016": 0.0,
			"0.017": 0.0,
			"0.018": 0.0,
			"0.019": 0.0,
			"0.02": 0.0,
			"0.021": 0.0,
			"0.022": 0.0,
			"0.023": 0.0,
			"0.024": 0.0,
			"0.025": 0.0
		}
	}
}
