{
	 "smiles": "FC1=C(C=CC(Br)=C1)S(Cl)(=O)=O", 
	 "Tm": 337.65, 
	 "num_atms": 15, 
	 "gaussian": { 
		 "optdone": 1, 
		 "sigma_profile": "yes", 
		 "theory": "DFT", 
		 "functional": "B3LYP", 
		 "basiset": "6-31G**", 
		 "properties": { 
			 "R2extent": 5309.4264, 
			 "electric_dipole_moment_norm": 4.43864536317, 
			 "electric_quadrupole_moment_norm": 15.6751685158, 
			 "total_energy": -3910.4321621, 
			 "HOMO_LUMO_gap": 0.18551, 
			 "cosmo_polarized_energy": -8.5, 
			 "cosmo_cavitation_energy": 26.08, 
			 "cosmo_dispersion_energy": -20.03, 
			 "cosmo_repulsion_energy": 1.53, 
			 "cosmo_total_nonelectrostatic_energy": 7.59, 
			 "SMD_solvation_energy": 2.51 
		},
		"coords": [
			{
				"x": 2.0883802209,
				"y": 0.7807710007,
				"z": 2.8575971627,
				"element": "F" 
			},
			{
				"x": 1.21449879,
				"y": 0.7144936354,
				"z": 1.8514781489,
				"element": "C" 
			},
			{
				"x": 0.2368016722,
				"y": -0.284960036,
				"z": 1.8330435772,
				"element": "C" 
			},
			{
				"x": -0.6597482443,
				"y": -0.3616430291,
				"z": 0.7639917895,
				"element": "C" 
			},
			{
				"x": -0.5844827618,
				"y": 0.561468242,
				"z": -0.2750823327,
				"element": "C" 
			},
			{
				"x": 0.3977735753,
				"y": 1.5538997383,
				"z": -0.2337473397,
				"element": "C" 
			},
			{
				"x": 0.5080165528,
				"y": 2.816388887,
				"z": -1.6490722958,
				"element": "Br" 
			},
			{
				"x": 1.3052503856,
				"y": 1.641742151,
				"z": 0.8214964657,
				"element": "C" 
			},
			{
				"x": 0.0670267645,
				"y": -1.4472926995,
				"z": 3.1773942247,
				"element": "S" 
			},
			{
				"x": 1.8120806986,
				"y": -2.6275181463,
				"z": 2.9254823846,
				"element": "Cl" 
			},
			{
				"x": 0.2044184544,
				"y": -0.7627090763,
				"z": 4.4533103473,
				"element": "O" 
			},
			{
				"x": -1.0658358942,
				"y": -2.3147962673,
				"z": 2.8804540312,
				"element": "O" 
			},
			{
				"x": -1.4107572033,
				"y": -1.143348978,
				"z": 0.7610074462,
				"element": "H" 
			},
			{
				"x": -1.2784086157,
				"y": 0.5121628758,
				"z": -1.105105549,
				"element": "H" 
			},
			{
				"x": 2.0718856049,
				"y": 2.4056417025,
				"z": 0.857651939,
				"element": "H" 
			}
		],
		 "valence_orbital": [ 
			{
				"type": "occ",
				"energy": -0.33444,
				"method": "rhf"
			},
			{
				"type": "occ",
				"energy": -0.32007,
				"method": "rhf"
			},
			{
				"type": "occ",
				"energy": -0.31757,
				"method": "rhf"
			},
			{
				"type": "occ",
				"energy": -0.29723,
				"method": "rhf"
			},
			{
				"type": "occ",
				"energy": -0.28207,
				"method": "rhf"
			},
			{
				"type": "unocc",
				"energy": -0.09656,
				"method": "rhf"
			},
			{
				"type": "unocc",
				"energy": -0.06219,
				"method": "rhf"
			},
			{
				"type": "unocc",
				"energy": -0.0485,
				"method": "rhf"
			},
			{
				"type": "unocc",
				"energy": -0.02492,
				"method": "rhf"
			},
			{
				"type": "unocc",
				"energy": 0.03833,
				"method": "rhf"
			}
		],
		"cosmo_sigma_profile": { 
			"-0.025": 0.0,
			"-0.024": 0.0,
			"-0.023": 0.0,
			"-0.022": 0.0,
			"-0.021": 0.0,
			"-0.02": 0.0,
			"-0.019": 0.0,
			"-0.018": 0.0,
			"-0.017": 0.0,
			"-0.016": 0.0,
			"-0.015": 0.0,
			"-0.014": 0.0,
			"-0.013": 0.0,
			"-0.012": 0.0,
			"-0.011": 0.00435138505667,
			"-0.01": 1.3244240886,
			"-0.009": 4.72015173832,
			"-0.008": 5.27770862724,
			"-0.007": 4.98578800464,
			"-0.006": 6.67119443908,
			"-0.005": 7.42654505839,
			"-0.004": 10.9201165627,
			"-0.003": 16.3081205084,
			"-0.002": 19.4791618328,
			"-0.001": 22.1559099128,
			"0.0": 16.9673459073,
			"0.001": 15.750608315,
			"0.002": 25.2652337246,
			"0.003": 26.367656357,
			"0.004": 5.62965220585,
			"0.005": 3.86814846678,
			"0.006": 4.37357979277,
			"0.007": 8.20951125317,
			"0.008": 9.27665382522,
			"0.009": 1.81208989824,
			"0.01": 0.0,
			"0.011": 0.0,
			"0.012": 0.0,
			"0.013": 0.0,
			"0.014": 0.0,
			"0.015": 0.0,
			"0.016": 0.0,
			"0.017": 0.0,
			"0.018": 0.0,
			"0.019": 0.0,
			"0.02": 0.0,
			"0.021": 0.0,
			"0.022": 0.0,
			"0.023": 0.0,
			"0.024": 0.0,
			"0.025": 0.0
		}
	}
}
