{
	 "smiles": "CC(=O)C(=NNC1=CC=C(C=C1)[N+]([O-])=O)C(=O)C(F)(F)F", 
	 "Tm": 413.15, 
	 "num_atms": 29, 
	 "gaussian": { 
		 "optdone": 1, 
		 "sigma_profile": "yes", 
		 "theory": "DFT", 
		 "functional": "B3LYP", 
		 "basiset": "6-31G**", 
		 "properties": { 
			 "R2extent": 7005.2095, 
			 "electric_dipole_moment_norm": 6.59360509964, 
			 "electric_quadrupole_moment_norm": 24.4151113172, 
			 "total_energy": -1188.48913334, 
			 "HOMO_LUMO_gap": 0.14944, 
			 "cosmo_polarized_energy": -19.22, 
			 "cosmo_cavitation_energy": 37.01, 
			 "cosmo_dispersion_energy": -24.76, 
			 "cosmo_repulsion_energy": 1.87, 
			 "cosmo_total_nonelectrostatic_energy": 14.12, 
			 "SMD_solvation_energy": 10.51 
		},
		"coords": [
			{
				"x": 1.0699000195,
				"y": -3.5838059666,
				"z": 1.9984370384,
				"element": "C" 
			},
			{
				"x": -0.0243868668,
				"y": -2.543743186,
				"z": 2.0760920242,
				"element": "C" 
			},
			{
				"x": -0.9731889413,
				"y": -2.6349047621,
				"z": 2.8412974589,
				"element": "O" 
			},
			{
				"x": 0.050261563,
				"y": -1.3469698004,
				"z": 1.1803013692,
				"element": "C" 
			},
			{
				"x": 1.0107038023,
				"y": -1.3229811896,
				"z": 0.3132676529,
				"element": "N" 
			},
			{
				"x": 1.2369561708,
				"y": -0.3881950565,
				"z": -0.6102983077,
				"element": "N" 
			},
			{
				"x": 0.8507453638,
				"y": 0.9736732053,
				"z": -0.7054708286,
				"element": "C" 
			},
			{
				"x": 0.651631704,
				"y": 1.4980932442,
				"z": -1.9925632136,
				"element": "C" 
			},
			{
				"x": 0.3732290213,
				"y": 2.8477185452,
				"z": -2.1626987756,
				"element": "C" 
			},
			{
				"x": 0.2866029682,
				"y": 3.661847691,
				"z": -1.0341554693,
				"element": "C" 
			},
			{
				"x": 0.4852057086,
				"y": 3.1610970642,
				"z": 0.2509727132,
				"element": "C" 
			},
			{
				"x": 0.7828690593,
				"y": 1.8128153025,
				"z": 0.4162531217,
				"element": "C" 
			},
			{
				"x": -0.0139454131,
				"y": 5.0899725307,
				"z": -1.2071491201,
				"element": "N" 
			},
			{
				"x": -0.1713194605,
				"y": 5.5023727041,
				"z": -2.3561035951,
				"element": "O" 
			},
			{
				"x": -0.0864005798,
				"y": 5.7834103101,
				"z": -0.1937572053,
				"element": "O" 
			},
			{
				"x": -1.1161630582,
				"y": -0.3946209498,
				"z": 1.4048128819,
				"element": "C" 
			},
			{
				"x": -1.1607047314,
				"y": 0.4461905098,
				"z": 2.2671329085,
				"element": "O" 
			},
			{
				"x": -2.3213647925,
				"y": -0.607400974,
				"z": 0.4529179995,
				"element": "C" 
			},
			{
				"x": -3.3509999387,
				"y": 0.1688535787,
				"z": 0.7804265767,
				"element": "F" 
			},
			{
				"x": -2.7135444579,
				"y": -1.8916424775,
				"z": 0.4621513275,
				"element": "F" 
			},
			{
				"x": -1.9326152821,
				"y": -0.3042412179,
				"z": -0.8099335811,
				"element": "F" 
			},
			{
				"x": 1.1856320827,
				"y": -3.9530741579,
				"z": 0.9756238458,
				"element": "H" 
			},
			{
				"x": 0.8151285738,
				"y": -4.4041410943,
				"z": 2.6702736563,
				"element": "H" 
			},
			{
				"x": 2.0317098501,
				"y": -3.1502701411,
				"z": 2.2901791569,
				"element": "H" 
			},
			{
				"x": 1.9657913148,
				"y": -0.6784819022,
				"z": -1.2472019498,
				"element": "H" 
			},
			{
				"x": 0.7022602413,
				"y": 0.8383908816,
				"z": -2.8532197571,
				"element": "H" 
			},
			{
				"x": 0.2092981852,
				"y": 3.2758951883,
				"z": -3.143446271,
				"element": "H" 
			},
			{
				"x": 0.4240353456,
				"y": 3.8309159306,
				"z": 1.099359431,
				"element": "H" 
			},
			{
				"x": 0.9619725482,
				"y": 1.4214261896,
				"z": 1.4095989116,
				"element": "H" 
			}
		],
		 "valence_orbital": [ 
			{
				"type": "occ",
				"energy": -0.29838,
				"method": "rhf"
			},
			{
				"type": "occ",
				"energy": -0.29575,
				"method": "rhf"
			},
			{
				"type": "occ",
				"energy": -0.2926,
				"method": "rhf"
			},
			{
				"type": "occ",
				"energy": -0.26472,
				"method": "rhf"
			},
			{
				"type": "occ",
				"energy": -0.2538,
				"method": "rhf"
			},
			{
				"type": "unocc",
				"energy": -0.10436,
				"method": "rhf"
			},
			{
				"type": "unocc",
				"energy": -0.08193,
				"method": "rhf"
			},
			{
				"type": "unocc",
				"energy": -0.07068,
				"method": "rhf"
			},
			{
				"type": "unocc",
				"energy": -0.04469,
				"method": "rhf"
			},
			{
				"type": "unocc",
				"energy": -0.01089,
				"method": "rhf"
			}
		],
		"cosmo_sigma_profile": { 
			"-0.025": 0.0,
			"-0.024": 0.0,
			"-0.023": 0.0,
			"-0.022": 0.0,
			"-0.021": 0.0,
			"-0.02": 0.0,
			"-0.019": 0.0,
			"-0.018": 0.0,
			"-0.017": 0.818299398833,
			"-0.016": 1.60163151182,
			"-0.015": 0.964070745776,
			"-0.014": 0.86630111151,
			"-0.013": 1.75131361924,
			"-0.012": 0.737508024654,
			"-0.011": 1.70975499029,
			"-0.01": 1.33633388677,
			"-0.009": 2.12489732401,
			"-0.008": 6.47501675294,
			"-0.007": 8.39998758749,
			"-0.006": 12.3027012816,
			"-0.005": 14.3412214015,
			"-0.004": 15.8295282418,
			"-0.003": 19.5906389117,
			"-0.002": 23.4967233387,
			"-0.001": 26.5683522584,
			"0.0": 25.6664026644,
			"0.001": 29.3220194627,
			"0.002": 25.6669749188,
			"0.003": 8.46993850543,
			"0.004": 8.01639523442,
			"0.005": 7.59763998743,
			"0.006": 10.216637779,
			"0.007": 12.7702086799,
			"0.008": 12.3302383567,
			"0.009": 7.09574509617,
			"0.01": 5.06527377257,
			"0.011": 3.37922903059,
			"0.012": 1.66432224365,
			"0.013": 0.501928327283,
			"0.014": 0.0,
			"0.015": 0.0,
			"0.016": 0.0,
			"0.017": 0.0,
			"0.018": 0.0,
			"0.019": 0.0,
			"0.02": 0.0,
			"0.021": 0.0,
			"0.022": 0.0,
			"0.023": 0.0,
			"0.024": 0.0,
			"0.025": 0.0
		}
	}
}
