{
	 "smiles": "CSC1=NC(N)=NN1", 
	 "Tm": 405.15, 
	 "num_atms": 14, 
	 "gaussian": { 
		 "optdone": 1, 
		 "sigma_profile": "yes", 
		 "theory": "DFT", 
		 "functional": "B3LYP", 
		 "basiset": "6-31G**", 
		 "properties": { 
			 "R2extent": 1385.3624, 
			 "electric_dipole_moment_norm": 1.32204964355, 
			 "electric_quadrupole_moment_norm": 8.08481512157, 
			 "total_energy": -735.116414752, 
			 "HOMO_LUMO_gap": 0.21664, 
			 "cosmo_polarized_energy": -13.83, 
			 "cosmo_cavitation_energy": 19.93, 
			 "cosmo_dispersion_energy": -15.67, 
			 "cosmo_repulsion_energy": 1.28, 
			 "cosmo_total_nonelectrostatic_energy": 5.54, 
			 "SMD_solvation_energy": 1.13 
		},
		"coords": [
			{
				"x": -1.2549661997,
				"y": 1.4425226495,
				"z": 1.6231517204,
				"element": "C" 
			},
			{
				"x": -1.0528024906,
				"y": -0.3415842479,
				"z": 1.9647357139,
				"element": "S" 
			},
			{
				"x": -0.4863245828,
				"y": -0.8683555473,
				"z": 0.3815808553,
				"element": "C" 
			},
			{
				"x": -0.4810887155,
				"y": -0.1609025445,
				"z": -0.7381812436,
				"element": "N" 
			},
			{
				"x": 0.0367577752,
				"y": -1.0471944728,
				"z": -1.6471245299,
				"element": "C" 
			},
			{
				"x": 0.2705862276,
				"y": -0.6760763087,
				"z": -2.9580021633,
				"element": "N" 
			},
			{
				"x": 0.3388092726,
				"y": -2.2485649301,
				"z": -1.1730348282,
				"element": "N" 
			},
			{
				"x": -0.0004887241,
				"y": -2.1061566716,
				"z": 0.1532770841,
				"element": "N" 
			},
			{
				"x": -1.6618453602,
				"y": 1.8759315724,
				"z": 2.5386534355,
				"element": "H" 
			},
			{
				"x": -1.9468445587,
				"y": 1.5875038614,
				"z": 0.7942373202,
				"element": "H" 
			},
			{
				"x": -0.2924538612,
				"y": 1.8963584265,
				"z": 1.3865186107,
				"element": "H" 
			},
			{
				"x": 0.3429057383,
				"y": -1.4585656778,
				"z": -3.5937086451,
				"element": "H" 
			},
			{
				"x": -0.3550440112,
				"y": 0.0472869824,
				"z": -3.2841338053,
				"element": "H" 
			},
			{
				"x": 0.1429994903,
				"y": -2.8687030916,
				"z": 0.7961304753,
				"element": "H" 
			}
		],
		 "valence_orbital": [ 
			{
				"type": "occ",
				"energy": -0.32427,
				"method": "rhf"
			},
			{
				"type": "occ",
				"energy": -0.29822,
				"method": "rhf"
			},
			{
				"type": "occ",
				"energy": -0.27154,
				"method": "rhf"
			},
			{
				"type": "occ",
				"energy": -0.2468,
				"method": "rhf"
			},
			{
				"type": "occ",
				"energy": -0.20444,
				"method": "rhf"
			},
			{
				"type": "unocc",
				"energy": 0.0122,
				"method": "rhf"
			},
			{
				"type": "unocc",
				"energy": 0.02416,
				"method": "rhf"
			},
			{
				"type": "unocc",
				"energy": 0.07157,
				"method": "rhf"
			},
			{
				"type": "unocc",
				"energy": 0.08131,
				"method": "rhf"
			},
			{
				"type": "unocc",
				"energy": 0.09251,
				"method": "rhf"
			}
		],
		"cosmo_sigma_profile": { 
			"-0.025": 0.0,
			"-0.024": 0.0,
			"-0.023": 0.0,
			"-0.022": 0.0,
			"-0.021": 0.0,
			"-0.02": 0.0,
			"-0.019": 0.0,
			"-0.018": 0.0,
			"-0.017": 1.06374204656,
			"-0.016": 1.38109896999,
			"-0.015": 1.5449067528,
			"-0.014": 1.19509076963,
			"-0.013": 2.2729408964,
			"-0.012": 2.77527114505,
			"-0.011": 3.94029033021,
			"-0.01": 3.15256211638,
			"-0.009": 2.89275645921,
			"-0.008": 2.76798467578,
			"-0.007": 5.10720023401,
			"-0.006": 6.51629092033,
			"-0.005": 7.09270051986,
			"-0.004": 7.46966981036,
			"-0.003": 9.64672487462,
			"-0.002": 9.65122664379,
			"-0.001": 7.39769948747,
			"0.0": 6.81029040787,
			"0.001": 10.2903179014,
			"0.002": 8.44243748683,
			"0.003": 8.0599500687,
			"0.004": 7.92562365248,
			"0.005": 7.09441731604,
			"0.006": 4.97124139601,
			"0.007": 7.06496691511,
			"0.008": 3.92161850365,
			"0.009": 3.39782346176,
			"0.01": 4.1830563098,
			"0.011": 2.48069786773,
			"0.012": 2.7901450946,
			"0.013": 2.78586444465,
			"0.014": 2.10666413804,
			"0.015": 1.30462017473,
			"0.016": 0.569515602143,
			"0.017": 0.0,
			"0.018": 0.0,
			"0.019": 0.0,
			"0.02": 0.0,
			"0.021": 0.0,
			"0.022": 0.0,
			"0.023": 0.0,
			"0.024": 0.0,
			"0.025": 0.0
		}
	}
}
