{
	 "smiles": "C1CNC2=C(C1)N=CC=C2", 
	 "Tm": 377.15, 
	 "num_atms": 20, 
	 "gaussian": { 
		 "optdone": 1, 
		 "sigma_profile": "yes", 
		 "theory": "DFT", 
		 "functional": "B3LYP", 
		 "basiset": "6-31G**", 
		 "properties": { 
			 "R2extent": 1628.2979, 
			 "electric_dipole_moment_norm": 3.06208600467, 
			 "electric_quadrupole_moment_norm": 7.18617819289, 
			 "total_energy": -420.386402916, 
			 "HOMO_LUMO_gap": 0.18608, 
			 "cosmo_polarized_energy": -8.87, 
			 "cosmo_cavitation_energy": 22.03, 
			 "cosmo_dispersion_energy": -17.08, 
			 "cosmo_repulsion_energy": 1.38, 
			 "cosmo_total_nonelectrostatic_energy": 6.33, 
			 "SMD_solvation_energy": 0.97 
		},
		"coords": [
			{
				"x": -1.6633990472,
				"y": -1.4428951854,
				"z": 1.275772497,
				"element": "C" 
			},
			{
				"x": -2.3390720288,
				"y": -0.779740665,
				"z": 0.0731706455,
				"element": "C" 
			},
			{
				"x": -1.3449460749,
				"y": -0.0215971178,
				"z": -0.6773083319,
				"element": "N" 
			},
			{
				"x": -0.4453017321,
				"y": 0.7933253887,
				"z": 0.0042879322,
				"element": "C" 
			},
			{
				"x": -0.2270075797,
				"y": 0.637293306,
				"z": 1.3955938831,
				"element": "C" 
			},
			{
				"x": -1.0291506147,
				"y": -0.3795792477,
				"z": 2.1834667429,
				"element": "C" 
			},
			{
				"x": 0.6671543448,
				"y": 1.3684395745,
				"z": 2.067350529,
				"element": "N" 
			},
			{
				"x": 1.3804073475,
				"y": 2.2909796714,
				"z": 1.4112571077,
				"element": "C" 
			},
			{
				"x": 1.2342271285,
				"y": 2.5233310281,
				"z": 0.0434914608,
				"element": "C" 
			},
			{
				"x": 0.312177292,
				"y": 1.7640726928,
				"z": -0.6681768985,
				"element": "C" 
			},
			{
				"x": -0.8937214981,
				"y": -2.1314790711,
				"z": 0.9080136852,
				"element": "H" 
			},
			{
				"x": -2.396331079,
				"y": -2.036863174,
				"z": 1.8315613074,
				"element": "H" 
			},
			{
				"x": -2.7693347529,
				"y": -1.5339423121,
				"z": -0.5941797235,
				"element": "H" 
			},
			{
				"x": -3.1677006255,
				"y": -0.1406744695,
				"z": 0.4252700085,
				"element": "H" 
			},
			{
				"x": -1.6590313365,
				"y": 0.34494411,
				"z": -1.5654044496,
				"element": "H" 
			},
			{
				"x": -0.3761360437,
				"y": -0.8349850711,
				"z": 2.9344889078,
				"element": "H" 
			},
			{
				"x": -1.815558247,
				"y": 0.1457417296,
				"z": 2.743818738,
				"element": "H" 
			},
			{
				"x": 2.0938364298,
				"y": 2.8623127768,
				"z": 2.0015531768,
				"element": "H" 
			},
			{
				"x": 1.8306590082,
				"y": 3.2814531778,
				"z": -0.4551837328,
				"element": "H" 
			},
			{
				"x": 0.1755291093,
				"y": 1.9111628579,
				"z": -1.7374434857,
				"element": "H" 
			}
		],
		 "valence_orbital": [ 
			{
				"type": "occ",
				"energy": -0.3353,
				"method": "rhf"
			},
			{
				"type": "occ",
				"energy": -0.30581,
				"method": "rhf"
			},
			{
				"type": "occ",
				"energy": -0.25812,
				"method": "rhf"
			},
			{
				"type": "occ",
				"energy": -0.23788,
				"method": "rhf"
			},
			{
				"type": "occ",
				"energy": -0.19551,
				"method": "rhf"
			},
			{
				"type": "unocc",
				"energy": -0.00943,
				"method": "rhf"
			},
			{
				"type": "unocc",
				"energy": 0.0157,
				"method": "rhf"
			},
			{
				"type": "unocc",
				"energy": 0.08064,
				"method": "rhf"
			},
			{
				"type": "unocc",
				"energy": 0.10509,
				"method": "rhf"
			},
			{
				"type": "unocc",
				"energy": 0.11847,
				"method": "rhf"
			}
		],
		"cosmo_sigma_profile": { 
			"-0.025": 0.0,
			"-0.024": 0.0,
			"-0.023": 0.0,
			"-0.022": 0.0,
			"-0.021": 0.0,
			"-0.02": 0.0,
			"-0.019": 0.0,
			"-0.018": 0.0,
			"-0.017": 0.0,
			"-0.016": 0.0,
			"-0.015": 0.0,
			"-0.014": 0.0,
			"-0.013": 0.350349487668,
			"-0.012": 1.50420643509,
			"-0.011": 1.16513763043,
			"-0.01": 1.50822090459,
			"-0.009": 1.60892541172,
			"-0.008": 1.83572189417,
			"-0.007": 2.1527814019,
			"-0.006": 3.76961936328,
			"-0.005": 7.4544105096,
			"-0.004": 13.0424152308,
			"-0.003": 21.8744049186,
			"-0.002": 21.7329599236,
			"-0.001": 18.256540999,
			"0.0": 13.5007683485,
			"0.001": 8.18440511341,
			"0.002": 6.3335620443,
			"0.003": 7.67105436435,
			"0.004": 11.9150326875,
			"0.005": 10.4499462616,
			"0.006": 3.87942378854,
			"0.007": 2.7507023981,
			"0.008": 1.90800057622,
			"0.009": 1.91262412467,
			"0.01": 2.15414601264,
			"0.011": 1.32709114686,
			"0.012": 0.964901471693,
			"0.013": 1.04564542796,
			"0.014": 0.93350669208,
			"0.015": 0.8505809448,
			"0.016": 0.737187675431,
			"0.017": 0.696873879416,
			"0.018": 0.193501636609,
			"0.019": 0.0,
			"0.02": 0.0,
			"0.021": 0.0,
			"0.022": 0.0,
			"0.023": 0.0,
			"0.024": 0.0,
			"0.025": 0.0
		}
	}
}
