{
	 "smiles": "CS(=O)(=O)C1=CC=C(C=C1)C(=O)CBr", 
	 "Tm": 400.15, 
	 "num_atms": 23, 
	 "gaussian": { 
		 "optdone": 1, 
		 "sigma_profile": "yes", 
		 "theory": "DFT", 
		 "functional": "B3LYP", 
		 "basiset": "6-31G**", 
		 "properties": { 
			 "R2extent": 6040.4618, 
			 "electric_dipole_moment_norm": 2.90389160438, 
			 "electric_quadrupole_moment_norm": 24.1852278298, 
			 "total_energy": -3543.57654789, 
			 "HOMO_LUMO_gap": 0.17762, 
			 "cosmo_polarized_energy": -18.31, 
			 "cosmo_cavitation_energy": 31.26, 
			 "cosmo_dispersion_energy": -23.17, 
			 "cosmo_repulsion_energy": 1.78, 
			 "cosmo_total_nonelectrostatic_energy": 9.87, 
			 "SMD_solvation_energy": 4.55 
		},
		"coords": [
			{
				"x": -3.6230163849,
				"y": 0.1513017285,
				"z": -1.094823365,
				"element": "C" 
			},
			{
				"x": -2.3674363705,
				"y": -0.8402866813,
				"z": -1.9381065768,
				"element": "S" 
			},
			{
				"x": -2.6103512281,
				"y": -2.2501517279,
				"z": -1.597922333,
				"element": "O" 
			},
			{
				"x": -2.3074878715,
				"y": -0.388196739,
				"z": -3.3358436208,
				"element": "O" 
			},
			{
				"x": -0.8296931968,
				"y": -0.3398288027,
				"z": -1.1333303928,
				"element": "C" 
			},
			{
				"x": -0.1137649233,
				"y": 0.7466956398,
				"z": -1.6426515178,
				"element": "C" 
			},
			{
				"x": 1.067412182,
				"y": 1.1271075483,
				"z": -1.0151198361,
				"element": "C" 
			},
			{
				"x": 1.5359510815,
				"y": 0.426224525,
				"z": 0.1082396386,
				"element": "C" 
			},
			{
				"x": 0.8072610068,
				"y": -0.6694876852,
				"z": 0.5958878385,
				"element": "C" 
			},
			{
				"x": -0.3783614725,
				"y": -1.0578082528,
				"z": -0.0257639925,
				"element": "C" 
			},
			{
				"x": 2.8310936884,
				"y": 0.8795512616,
				"z": 0.7112402389,
				"element": "C" 
			},
			{
				"x": 3.4381226497,
				"y": 1.8359993951,
				"z": 0.2605281293,
				"element": "O" 
			},
			{
				"x": 3.4373301388,
				"y": 0.1139667617,
				"z": 1.8820835085,
				"element": "C" 
			},
			{
				"x": 2.4404738172,
				"y": 0.4787083184,
				"z": 3.5529659323,
				"element": "Br" 
			},
			{
				"x": -3.6260363077,
				"y": -0.0987280166,
				"z": -0.033056118,
				"element": "H" 
			},
			{
				"x": -4.5778758604,
				"y": -0.1174432132,
				"z": -1.5516125153,
				"element": "H" 
			},
			{
				"x": -3.411570882,
				"y": 1.2098123358,
				"z": -1.2520491397,
				"element": "H" 
			},
			{
				"x": -0.4720523432,
				"y": 1.2629827718,
				"z": -2.5269601648,
				"element": "H" 
			},
			{
				"x": 1.6537320944,
				"y": 1.9618605912,
				"z": -1.3832943772,
				"element": "H" 
			},
			{
				"x": 1.1471293952,
				"y": -1.2157330105,
				"z": 1.4684539496,
				"element": "H" 
			},
			{
				"x": -0.9415031209,
				"y": -1.914994893,
				"z": 0.3272402269,
				"element": "H" 
			},
			{
				"x": 3.4209824761,
				"y": -0.9672441957,
				"z": 1.7470052493,
				"element": "H" 
			},
			{
				"x": 4.4496614314,
				"y": 0.4738923405,
				"z": 2.046389238,
				"element": "H" 
			}
		],
		 "valence_orbital": [ 
			{
				"type": "occ",
				"energy": -0.3017,
				"method": "rhf"
			},
			{
				"type": "occ",
				"energy": -0.29492,
				"method": "rhf"
			},
			{
				"type": "occ",
				"energy": -0.28682,
				"method": "rhf"
			},
			{
				"type": "occ",
				"energy": -0.28584,
				"method": "rhf"
			},
			{
				"type": "occ",
				"energy": -0.27462,
				"method": "rhf"
			},
			{
				"type": "unocc",
				"energy": -0.097,
				"method": "rhf"
			},
			{
				"type": "unocc",
				"energy": -0.03757,
				"method": "rhf"
			},
			{
				"type": "unocc",
				"energy": -0.03561,
				"method": "rhf"
			},
			{
				"type": "unocc",
				"energy": 0.01916,
				"method": "rhf"
			},
			{
				"type": "unocc",
				"energy": 0.05585,
				"method": "rhf"
			}
		],
		"cosmo_sigma_profile": { 
			"-0.025": 0.0,
			"-0.024": 0.0,
			"-0.023": 0.0,
			"-0.022": 0.0,
			"-0.021": 0.0,
			"-0.02": 0.0,
			"-0.019": 0.0,
			"-0.018": 0.0,
			"-0.017": 0.0,
			"-0.016": 0.0,
			"-0.015": 0.0,
			"-0.014": 0.0,
			"-0.013": 0.0,
			"-0.012": 0.0,
			"-0.011": 0.125955275167,
			"-0.01": 2.21244191727,
			"-0.009": 7.60345174446,
			"-0.008": 13.9210589585,
			"-0.007": 15.174881624,
			"-0.006": 16.9184411525,
			"-0.005": 14.3751389954,
			"-0.004": 14.9579161708,
			"-0.003": 12.4449314442,
			"-0.002": 11.9937900948,
			"-0.001": 14.3554039453,
			"0.0": 17.9500918806,
			"0.001": 21.7181974364,
			"0.002": 11.6844242009,
			"0.003": 10.0370684516,
			"0.004": 11.3167289261,
			"0.005": 10.3333133862,
			"0.006": 3.46762197847,
			"0.007": 4.05227520851,
			"0.008": 5.86183467626,
			"0.009": 5.23645497245,
			"0.01": 8.51894957163,
			"0.011": 11.6948315502,
			"0.012": 7.20634039936,
			"0.013": 0.118571523023,
			"0.014": 0.0,
			"0.015": 0.0,
			"0.016": 0.0,
			"0.017": 0.0,
			"0.018": 0.0,
			"0.019": 0.0,
			"0.02": 0.0,
			"0.021": 0.0,
			"0.022": 0.0,
			"0.023": 0.0,
			"0.024": 0.0,
			"0.025": 0.0
		}
	}
}
