{
	 "smiles": "CN(C(C)=O)C1=CC=C(F)C=C1F", 
	 "Tm": 357.15, 
	 "num_atms": 22, 
	 "gaussian": { 
		 "optdone": 1, 
		 "sigma_profile": "yes", 
		 "theory": "DFT", 
		 "functional": "B3LYP", 
		 "basiset": "6-31G**", 
		 "properties": { 
			 "R2extent": 2754.7068, 
			 "electric_dipole_moment_norm": 4.39121070093, 
			 "electric_quadrupole_moment_norm": 5.55831619198, 
			 "total_energy": -678.029425554, 
			 "HOMO_LUMO_gap": 0.21298, 
			 "cosmo_polarized_energy": -12.48, 
			 "cosmo_cavitation_energy": 26.85, 
			 "cosmo_dispersion_energy": -18.84, 
			 "cosmo_repulsion_energy": 1.45, 
			 "cosmo_total_nonelectrostatic_energy": 9.46, 
			 "SMD_solvation_energy": 6.52 
		},
		"coords": [
			{
				"x": -2.509163761,
				"y": 0.7417169084,
				"z": 0.6240277598,
				"element": "C" 
			},
			{
				"x": -1.0886664654,
				"y": 0.5675077562,
				"z": 0.3190365447,
				"element": "N" 
			},
			{
				"x": -0.1527679823,
				"y": 1.5886196681,
				"z": 0.4492892967,
				"element": "C" 
			},
			{
				"x": -0.6954867985,
				"y": 2.9749926503,
				"z": 0.7607099777,
				"element": "C" 
			},
			{
				"x": 1.0422769956,
				"y": 1.3811870599,
				"z": 0.3123824979,
				"element": "O" 
			},
			{
				"x": -0.6167531465,
				"y": -0.7505991821,
				"z": 0.0520606575,
				"element": "C" 
			},
			{
				"x": -0.848291323,
				"y": -1.8073477677,
				"z": 0.9379735109,
				"element": "C" 
			},
			{
				"x": -0.4172902553,
				"y": -3.1039000548,
				"z": 0.654998624,
				"element": "C" 
			},
			{
				"x": 0.274093552,
				"y": -3.3270863235,
				"z": -0.529312783,
				"element": "C" 
			},
			{
				"x": 0.7072833723,
				"y": -4.5705354353,
				"z": -0.814724383,
				"element": "F" 
			},
			{
				"x": 0.5315557701,
				"y": -2.3072324042,
				"z": -1.438833851,
				"element": "C" 
			},
			{
				"x": 0.0692643562,
				"y": -1.0332613786,
				"z": -1.1370906347,
				"element": "C" 
			},
			{
				"x": 0.2719758708,
				"y": -0.0518084969,
				"z": -2.0272750597,
				"element": "F" 
			},
			{
				"x": -2.7213800703,
				"y": 0.7122989779,
				"z": 1.7014152067,
				"element": "H" 
			},
			{
				"x": -3.0719588671,
				"y": -0.0589713562,
				"z": 0.1413541366,
				"element": "H" 
			},
			{
				"x": -2.8746415996,
				"y": 1.6918438764,
				"z": 0.229150133,
				"element": "H" 
			},
			{
				"x": -1.3324418776,
				"y": 3.3461695371,
				"z": -0.0495946999,
				"element": "H" 
			},
			{
				"x": -1.2865083922,
				"y": 2.9910438011,
				"z": 1.6822181942,
				"element": "H" 
			},
			{
				"x": 0.1595709483,
				"y": 3.6409631757,
				"z": 0.8711668119,
				"element": "H" 
			},
			{
				"x": -1.3685312829,
				"y": -1.6071863779,
				"z": 1.8693230118,
				"element": "H" 
			},
			{
				"x": -0.5957795891,
				"y": -3.9252732478,
				"z": 1.3391679067,
				"element": "H" 
			},
			{
				"x": 1.0643405455,
				"y": -2.4969413863,
				"z": -2.3625428587,
				"element": "H" 
			}
		],
		 "valence_orbital": [ 
			{
				"type": "occ",
				"energy": -0.34925,
				"method": "rhf"
			},
			{
				"type": "occ",
				"energy": -0.27266,
				"method": "rhf"
			},
			{
				"type": "occ",
				"energy": -0.25938,
				"method": "rhf"
			},
			{
				"type": "occ",
				"energy": -0.24739,
				"method": "rhf"
			},
			{
				"type": "occ",
				"energy": -0.22954,
				"method": "rhf"
			},
			{
				"type": "unocc",
				"energy": -0.01656,
				"method": "rhf"
			},
			{
				"type": "unocc",
				"energy": -0.00451,
				"method": "rhf"
			},
			{
				"type": "unocc",
				"energy": 0.02884,
				"method": "rhf"
			},
			{
				"type": "unocc",
				"energy": 0.07053,
				"method": "rhf"
			},
			{
				"type": "unocc",
				"energy": 0.0836,
				"method": "rhf"
			}
		],
		"cosmo_sigma_profile": { 
			"-0.025": 0.0,
			"-0.024": 0.0,
			"-0.023": 0.0,
			"-0.022": 0.0,
			"-0.021": 0.0,
			"-0.02": 0.0,
			"-0.019": 0.0,
			"-0.018": 0.0,
			"-0.017": 0.0,
			"-0.016": 0.0,
			"-0.015": 0.0,
			"-0.014": 0.0,
			"-0.013": 0.0,
			"-0.012": 0.0,
			"-0.011": 0.0,
			"-0.01": 0.0,
			"-0.009": 0.502402312425,
			"-0.008": 2.90737863925,
			"-0.007": 7.59261087057,
			"-0.006": 13.3856301458,
			"-0.005": 19.4254824192,
			"-0.004": 17.8357904209,
			"-0.003": 17.7710764104,
			"-0.002": 14.6432374105,
			"-0.001": 14.3366587909,
			"0.0": 15.2586848658,
			"0.001": 16.6714605729,
			"0.002": 13.7002932436,
			"0.003": 13.1713233221,
			"0.004": 20.1859002962,
			"0.005": 4.11558464572,
			"0.006": 1.68143608547,
			"0.007": 1.88484892396,
			"0.008": 2.6642910847,
			"0.009": 1.42354920585,
			"0.01": 2.11364075686,
			"0.011": 1.98185289666,
			"0.012": 2.26973550888,
			"0.013": 4.46097043329,
			"0.014": 3.28455570829,
			"0.015": 0.668294088569,
			"0.016": 0.0,
			"0.017": 0.0,
			"0.018": 0.0,
			"0.019": 0.0,
			"0.02": 0.0,
			"0.021": 0.0,
			"0.022": 0.0,
			"0.023": 0.0,
			"0.024": 0.0,
			"0.025": 0.0
		}
	}
}
