{
	 "smiles": "CCOC1=C(C=C(NC(C)=O)C=C1)S(N)(=O)=O", 
	 "Tm": 461.15, 
	 "num_atms": 31, 
	 "gaussian": { 
		 "optdone": 1, 
		 "sigma_profile": "yes", 
		 "theory": "DFT", 
		 "functional": "B3LYP", 
		 "basiset": "6-31G**", 
		 "properties": { 
			 "R2extent": 5631.3326, 
			 "electric_dipole_moment_norm": 5.91029303081, 
			 "electric_quadrupole_moment_norm": 18.3666164483, 
			 "total_energy": -1198.02865451, 
			 "HOMO_LUMO_gap": 0.19336, 
			 "cosmo_polarized_energy": -26.53, 
			 "cosmo_cavitation_energy": 36.27, 
			 "cosmo_dispersion_energy": -26.14, 
			 "cosmo_repulsion_energy": 2.02, 
			 "cosmo_total_nonelectrostatic_energy": 12.14, 
			 "SMD_solvation_energy": 7.02 
		},
		"coords": [
			{
				"x": 0.8474573536,
				"y": -3.7947977084,
				"z": 2.6342125271,
				"element": "C" 
			},
			{
				"x": -0.1802141652,
				"y": -2.8739659103,
				"z": 2.006101838,
				"element": "C" 
			},
			{
				"x": 0.2521041631,
				"y": -1.5164361311,
				"z": 2.2465130934,
				"element": "O" 
			},
			{
				"x": -0.5368306612,
				"y": -0.5330892184,
				"z": 1.7191701904,
				"element": "C" 
			},
			{
				"x": -0.1102834585,
				"y": 0.1862369373,
				"z": 0.591475994,
				"element": "C" 
			},
			{
				"x": -0.852012417,
				"y": 1.246070025,
				"z": 0.0709895102,
				"element": "C" 
			},
			{
				"x": -2.0674669963,
				"y": 1.5933133886,
				"z": 0.6798198152,
				"element": "C" 
			},
			{
				"x": -2.8847718273,
				"y": 2.6471237223,
				"z": 0.2203094495,
				"element": "N" 
			},
			{
				"x": -2.6841977965,
				"y": 3.4914375288,
				"z": -0.8524463433,
				"element": "C" 
			},
			{
				"x": -3.7739781278,
				"y": 4.5366562716,
				"z": -1.0434336175,
				"element": "C" 
			},
			{
				"x": -1.7177095073,
				"y": 3.4306755373,
				"z": -1.5979978322,
				"element": "O" 
			},
			{
				"x": -2.5048702034,
				"y": 0.8726554643,
				"z": 1.8016051432,
				"element": "C" 
			},
			{
				"x": -1.7485724996,
				"y": -0.17482418,
				"z": 2.3149060616,
				"element": "C" 
			},
			{
				"x": 1.4592755051,
				"y": -0.3017193408,
				"z": -0.1427806809,
				"element": "S" 
			},
			{
				"x": 1.5277438838,
				"y": 0.6559626233,
				"z": -1.532544722,
				"element": "N" 
			},
			{
				"x": 2.5519584654,
				"y": 0.1320054781,
				"z": 0.7301127735,
				"element": "O" 
			},
			{
				"x": 1.3360870254,
				"y": -1.6965463621,
				"z": -0.5862120946,
				"element": "O" 
			},
			{
				"x": 0.9350607437,
				"y": -3.6056626418,
				"z": 3.7081076459,
				"element": "H" 
			},
			{
				"x": 1.8249599883,
				"y": -3.6381460851,
				"z": 2.1713483553,
				"element": "H" 
			},
			{
				"x": 0.5535623081,
				"y": -4.8388761895,
				"z": 2.4865343617,
				"element": "H" 
			},
			{
				"x": -0.2457889622,
				"y": -3.0358171266,
				"z": 0.9249223916,
				"element": "H" 
			},
			{
				"x": -1.1749399881,
				"y": -3.0234873234,
				"z": 2.4489610987,
				"element": "H" 
			},
			{
				"x": -0.5050781887,
				"y": 1.7870594361,
				"z": -0.7964580291,
				"element": "H" 
			},
			{
				"x": -3.7244916044,
				"y": 2.8000461573,
				"z": 0.7588849056,
				"element": "H" 
			},
			{
				"x": -3.3327819773,
				"y": 5.5290756157,
				"z": -0.9134661305,
				"element": "H" 
			},
			{
				"x": -4.6213083581,
				"y": 4.4353435934,
				"z": -0.3595523434,
				"element": "H" 
			},
			{
				"x": -4.1373941151,
				"y": 4.4745721862,
				"z": -2.0722096342,
				"element": "H" 
			},
			{
				"x": -3.4428858311,
				"y": 1.1399908047,
				"z": 2.283142899,
				"element": "H" 
			},
			{
				"x": -2.0801025827,
				"y": -0.7142411225,
				"z": 3.1961642024,
				"element": "H" 
			},
			{
				"x": 2.3571347474,
				"y": 1.241250323,
				"z": -1.5004672964,
				"element": "H" 
			},
			{
				"x": 1.5054350842,
				"y": 0.065234247,
				"z": -2.3583135323,
				"element": "H" 
			}
		],
		 "valence_orbital": [ 
			{
				"type": "occ",
				"energy": -0.28479,
				"method": "rhf"
			},
			{
				"type": "occ",
				"energy": -0.27218,
				"method": "rhf"
			},
			{
				"type": "occ",
				"energy": -0.26486,
				"method": "rhf"
			},
			{
				"type": "occ",
				"energy": -0.26035,
				"method": "rhf"
			},
			{
				"type": "occ",
				"energy": -0.22416,
				"method": "rhf"
			},
			{
				"type": "unocc",
				"energy": -0.0308,
				"method": "rhf"
			},
			{
				"type": "unocc",
				"energy": -0.02065,
				"method": "rhf"
			},
			{
				"type": "unocc",
				"energy": 0.03224,
				"method": "rhf"
			},
			{
				"type": "unocc",
				"energy": 0.05341,
				"method": "rhf"
			},
			{
				"type": "unocc",
				"energy": 0.05796,
				"method": "rhf"
			}
		],
		"cosmo_sigma_profile": { 
			"-0.025": 0.0,
			"-0.024": 0.0,
			"-0.023": 0.0,
			"-0.022": 0.0,
			"-0.021": 0.0,
			"-0.02": 0.0,
			"-0.019": 0.0,
			"-0.018": 0.0,
			"-0.017": 0.0,
			"-0.016": 0.522359711638,
			"-0.015": 2.37656159958,
			"-0.014": 4.5118717328,
			"-0.013": 3.94645484864,
			"-0.012": 3.53205505083,
			"-0.011": 3.96815084672,
			"-0.01": 3.81972894957,
			"-0.009": 2.90718919484,
			"-0.008": 4.82432470384,
			"-0.007": 6.84362226681,
			"-0.006": 10.2802245912,
			"-0.005": 14.0953111302,
			"-0.004": 18.3691479072,
			"-0.003": 23.0299316811,
			"-0.002": 23.2193859451,
			"-0.001": 18.7948600168,
			"0.0": 17.3175362298,
			"0.001": 19.1824828927,
			"0.002": 21.1621221204,
			"0.003": 11.6233619958,
			"0.004": 6.8890470782,
			"0.005": 5.45145518876,
			"0.006": 6.81206459373,
			"0.007": 6.95429058721,
			"0.008": 6.24120264571,
			"0.009": 5.7498850655,
			"0.01": 9.30425284168,
			"0.011": 13.5822831643,
			"0.012": 7.26909914068,
			"0.013": 2.84129042722,
			"0.014": 1.5567972995,
			"0.015": 0.0670777898897,
			"0.016": 0.0,
			"0.017": 0.0,
			"0.018": 0.0,
			"0.019": 0.0,
			"0.02": 0.0,
			"0.021": 0.0,
			"0.022": 0.0,
			"0.023": 0.0,
			"0.024": 0.0,
			"0.025": 0.0
		}
	}
}
