{
	 "smiles": "O=C=NC1=CC=CC2=CC=CC=C12", 
	 "Tm": 277.15, 
	 "num_atms": 20, 
	 "gaussian": { 
		 "optdone": 1, 
		 "sigma_profile": "yes", 
		 "theory": "DFT", 
		 "functional": "B3LYP", 
		 "basiset": "6-31G**", 
		 "properties": { 
			 "R2extent": 3722.5506, 
			 "electric_dipole_moment_norm": 2.36433727289, 
			 "electric_quadrupole_moment_norm": 13.0595178031, 
			 "total_energy": -553.375667772, 
			 "HOMO_LUMO_gap": 0.16451, 
			 "cosmo_polarized_energy": -5.62, 
			 "cosmo_cavitation_energy": 25.32, 
			 "cosmo_dispersion_energy": -18.48, 
			 "cosmo_repulsion_energy": 1.44, 
			 "cosmo_total_nonelectrostatic_energy": 8.28, 
			 "SMD_solvation_energy": 6.59 
		},
		"coords": [
			{
				"x": 5.4561991945,
				"y": 1.9864777832,
				"z": 2.5249914229,
				"element": "O" 
			},
			{
				"x": 4.4601602872,
				"y": 1.5407221716,
				"z": 2.0789591642,
				"element": "C" 
			},
			{
				"x": 3.4114648162,
				"y": 1.2144346105,
				"z": 1.5735163405,
				"element": "N" 
			},
			{
				"x": 2.599977877,
				"y": 0.0882424799,
				"z": 1.4022890103,
				"element": "C" 
			},
			{
				"x": 2.9552322244,
				"y": -1.1489454246,
				"z": 1.9102953427,
				"element": "C" 
			},
			{
				"x": 2.1126187996,
				"y": -2.2653389798,
				"z": 1.7193878347,
				"element": "C" 
			},
			{
				"x": 0.9290680525,
				"y": -2.1406274521,
				"z": 1.0275095135,
				"element": "C" 
			},
			{
				"x": 0.5344715727,
				"y": -0.8853194215,
				"z": 0.4929372834,
				"element": "C" 
			},
			{
				"x": -0.6810863922,
				"y": -0.7235065789,
				"z": -0.2260980765,
				"element": "C" 
			},
			{
				"x": -1.0447082712,
				"y": 0.5018767698,
				"z": -0.735935253,
				"element": "C" 
			},
			{
				"x": -0.2064907014,
				"y": 1.6280277663,
				"z": -0.5500899875,
				"element": "C" 
			},
			{
				"x": 0.9784159363,
				"y": 1.5090130949,
				"z": 0.1411423513,
				"element": "C" 
			},
			{
				"x": 1.3787786977,
				"y": 0.2576194758,
				"z": 0.6780426012,
				"element": "C" 
			},
			{
				"x": 3.8869059973,
				"y": -1.2566448251,
				"z": 2.4573998447,
				"element": "H" 
			},
			{
				"x": 2.4108655889,
				"y": -3.2267303113,
				"z": 2.1265595292,
				"element": "H" 
			},
			{
				"x": 0.2816109118,
				"y": -3.0007064944,
				"z": 0.8814274361,
				"element": "H" 
			},
			{
				"x": -1.3210708637,
				"y": -1.5906910983,
				"z": -0.3661937539,
				"element": "H" 
			},
			{
				"x": -1.9767249318,
				"y": 0.609428919,
				"z": -1.2831449496,
				"element": "H" 
			},
			{
				"x": -0.502184931,
				"y": 2.5908588217,
				"z": -0.956307887,
				"element": "H" 
			},
			{
				"x": 1.6244961347,
				"y": 2.3681086934,
				"z": 0.2866122328,
				"element": "H" 
			}
		],
		 "valence_orbital": [ 
			{
				"type": "occ",
				"energy": -0.32172,
				"method": "rhf"
			},
			{
				"type": "occ",
				"energy": -0.30749,
				"method": "rhf"
			},
			{
				"type": "occ",
				"energy": -0.27151,
				"method": "rhf"
			},
			{
				"type": "occ",
				"energy": -0.25183,
				"method": "rhf"
			},
			{
				"type": "occ",
				"energy": -0.21467,
				"method": "rhf"
			},
			{
				"type": "unocc",
				"energy": -0.05016,
				"method": "rhf"
			},
			{
				"type": "unocc",
				"energy": -0.01682,
				"method": "rhf"
			},
			{
				"type": "unocc",
				"energy": 0.0121,
				"method": "rhf"
			},
			{
				"type": "unocc",
				"energy": 0.01319,
				"method": "rhf"
			},
			{
				"type": "unocc",
				"energy": 0.07259,
				"method": "rhf"
			}
		],
		"cosmo_sigma_profile": { 
			"-0.025": 0.0,
			"-0.024": 0.0,
			"-0.023": 0.0,
			"-0.022": 0.0,
			"-0.021": 0.0,
			"-0.02": 0.0,
			"-0.019": 0.0,
			"-0.018": 0.0,
			"-0.017": 0.0,
			"-0.016": 0.0,
			"-0.015": 0.0,
			"-0.014": 0.0,
			"-0.013": 0.0,
			"-0.012": 0.0,
			"-0.011": 0.0,
			"-0.01": 0.0,
			"-0.009": 0.0,
			"-0.008": 1.48381837622,
			"-0.007": 3.55738547158,
			"-0.006": 12.7029893215,
			"-0.005": 16.2674678579,
			"-0.004": 15.7602632161,
			"-0.003": 15.7719617226,
			"-0.002": 14.7160868556,
			"-0.001": 11.7072726984,
			"0.0": 13.2492536874,
			"0.001": 13.9810851135,
			"0.002": 20.1963852548,
			"0.003": 22.6491771949,
			"0.004": 20.0824037487,
			"0.005": 10.4454288758,
			"0.006": 3.09779106887,
			"0.007": 6.4816526081,
			"0.008": 3.26157937904,
			"0.009": 0.0,
			"0.01": 0.0,
			"0.011": 0.0,
			"0.012": 0.0,
			"0.013": 0.0,
			"0.014": 0.0,
			"0.015": 0.0,
			"0.016": 0.0,
			"0.017": 0.0,
			"0.018": 0.0,
			"0.019": 0.0,
			"0.02": 0.0,
			"0.021": 0.0,
			"0.022": 0.0,
			"0.023": 0.0,
			"0.024": 0.0,
			"0.025": 0.0
		}
	}
}
