{
	 "smiles": "NC1=C(C=CC=C1)C(=O)NC1=CC2=C(OCO2)C=C1", 
	 "Tm": 359.15, 
	 "num_atms": 31, 
	 "gaussian": { 
		 "optdone": 1, 
		 "sigma_profile": "yes", 
		 "theory": "DFT", 
		 "functional": "B3LYP", 
		 "basiset": "6-31G**", 
		 "properties": { 
			 "R2extent": 6330.2719, 
			 "electric_dipole_moment_norm": 4.06086870756, 
			 "electric_quadrupole_moment_norm": 12.1147936099, 
			 "total_energy": -875.881338703, 
			 "HOMO_LUMO_gap": 0.17182, 
			 "cosmo_polarized_energy": -17.56, 
			 "cosmo_cavitation_energy": 34.98, 
			 "cosmo_dispersion_energy": -25.24, 
			 "cosmo_repulsion_energy": 1.95, 
			 "cosmo_total_nonelectrostatic_energy": 11.7, 
			 "SMD_solvation_energy": 7.26 
		},
		"coords": [
			{
				"x": -1.3428025583,
				"y": -2.0019954554,
				"z": -2.1592119709,
				"element": "N" 
			},
			{
				"x": -2.1265533547,
				"y": -1.1873689418,
				"z": -1.3596188248,
				"element": "C" 
			},
			{
				"x": -1.9154717094,
				"y": -1.0479620355,
				"z": 0.0367759138,
				"element": "C" 
			},
			{
				"x": -2.7765312573,
				"y": -0.2257619483,
				"z": 0.7833153146,
				"element": "C" 
			},
			{
				"x": -3.7936091897,
				"y": 0.5052737601,
				"z": 0.1845615459,
				"element": "C" 
			},
			{
				"x": -3.9835446558,
				"y": 0.3861001728,
				"z": -1.1972226419,
				"element": "C" 
			},
			{
				"x": -3.1724362563,
				"y": -0.4495572138,
				"z": -1.9519270048,
				"element": "C" 
			},
			{
				"x": -0.9109713285,
				"y": -1.8279491799,
				"z": 0.8229246251,
				"element": "C" 
			},
			{
				"x": -1.1813967918,
				"y": -2.2993522006,
				"z": 1.9223310295,
				"element": "O" 
			},
			{
				"x": 0.3497181848,
				"y": -2.0753378061,
				"z": 0.2750847522,
				"element": "N" 
			},
			{
				"x": 1.1521342368,
				"y": -1.2191495654,
				"z": -0.5360776295,
				"element": "C" 
			},
			{
				"x": 2.1698274937,
				"y": -1.8322626315,
				"z": -1.3019591982,
				"element": "C" 
			},
			{
				"x": 2.96867285,
				"y": -1.0048326401,
				"z": -2.0616611041,
				"element": "C" 
			},
			{
				"x": 2.7824348188,
				"y": 0.3753058774,
				"z": -2.0998281597,
				"element": "C" 
			},
			{
				"x": 3.7264457441,
				"y": 0.9460067547,
				"z": -2.9230001864,
				"element": "O" 
			},
			{
				"x": 4.4067261766,
				"y": -0.1482702202,
				"z": -3.5444225209,
				"element": "C" 
			},
			{
				"x": 4.0293422876,
				"y": -1.3518295028,
				"z": -2.8616609956,
				"element": "O" 
			},
			{
				"x": 1.7941616984,
				"y": 0.9892584341,
				"z": -1.3591555785,
				"element": "C" 
			},
			{
				"x": 0.9824826775,
				"y": 0.1681263673,
				"z": -0.5556848208,
				"element": "C" 
			},
			{
				"x": -0.7810567854,
				"y": -2.6997613544,
				"z": -1.6947061933,
				"element": "H" 
			},
			{
				"x": -1.7634466456,
				"y": -2.3117875351,
				"z": -3.0222826891,
				"element": "H" 
			},
			{
				"x": -2.6203641261,
				"y": -0.1828097579,
				"z": 1.8564109306,
				"element": "H" 
			},
			{
				"x": -4.4350122801,
				"y": 1.1471273515,
				"z": 0.779478079,
				"element": "H" 
			},
			{
				"x": -4.7773721975,
				"y": 0.9415765717,
				"z": -1.6892513157,
				"element": "H" 
			},
			{
				"x": -3.3380260087,
				"y": -0.547923422,
				"z": -3.0221253209,
				"element": "H" 
			},
			{
				"x": 0.872112689,
				"y": -2.6903677803,
				"z": 0.891059948,
				"element": "H" 
			},
			{
				"x": 2.3102776793,
				"y": -2.9075570301,
				"z": -1.2950611424,
				"element": "H" 
			},
			{
				"x": 4.1067216955,
				"y": -0.2188496615,
				"z": -4.6000795081,
				"element": "H" 
			},
			{
				"x": 5.4877997471,
				"y": -0.0043136753,
				"z": -3.4559600672,
				"element": "H" 
			},
			{
				"x": 1.6604689124,
				"y": 2.0647597901,
				"z": -1.3777500907,
				"element": "H" 
			},
			{
				"x": 0.2118682534,
				"y": 0.6224644784,
				"z": 0.0544048248,
				"element": "H" 
			}
		],
		 "valence_orbital": [ 
			{
				"type": "occ",
				"energy": -0.25959,
				"method": "rhf"
			},
			{
				"type": "occ",
				"energy": -0.24644,
				"method": "rhf"
			},
			{
				"type": "occ",
				"energy": -0.23979,
				"method": "rhf"
			},
			{
				"type": "occ",
				"energy": -0.20427,
				"method": "rhf"
			},
			{
				"type": "occ",
				"energy": -0.20278,
				"method": "rhf"
			},
			{
				"type": "unocc",
				"energy": -0.03096,
				"method": "rhf"
			},
			{
				"type": "unocc",
				"energy": -0.00615,
				"method": "rhf"
			},
			{
				"type": "unocc",
				"energy": 0.00664,
				"method": "rhf"
			},
			{
				"type": "unocc",
				"energy": 0.016,
				"method": "rhf"
			},
			{
				"type": "unocc",
				"energy": 0.05459,
				"method": "rhf"
			}
		],
		"cosmo_sigma_profile": { 
			"-0.025": 0.0,
			"-0.024": 0.0,
			"-0.023": 0.0,
			"-0.022": 0.0,
			"-0.021": 0.0,
			"-0.02": 0.0,
			"-0.019": 0.0,
			"-0.018": 0.0,
			"-0.017": 0.0,
			"-0.016": 0.0,
			"-0.015": 0.0,
			"-0.014": 0.256396486164,
			"-0.013": 1.91101797087,
			"-0.012": 2.60855667327,
			"-0.011": 2.2660081881,
			"-0.01": 3.80538225165,
			"-0.009": 3.82964368029,
			"-0.008": 6.73147640423,
			"-0.007": 13.6421215467,
			"-0.006": 15.7324401377,
			"-0.005": 19.0192887,
			"-0.004": 19.7864678698,
			"-0.003": 16.100485977,
			"-0.002": 15.4776052822,
			"-0.001": 15.1845086062,
			"0.0": 13.8106382347,
			"0.001": 14.1350667551,
			"0.002": 18.4094165252,
			"0.003": 19.0049808417,
			"0.004": 15.9860540258,
			"0.005": 14.812645419,
			"0.006": 11.677892478,
			"0.007": 6.3155482871,
			"0.008": 5.96591848723,
			"0.009": 5.16256709933,
			"0.01": 4.35080879113,
			"0.011": 2.88776115399,
			"0.012": 2.82451509133,
			"0.013": 5.55365265273,
			"0.014": 2.15707723044,
			"0.015": 0.0785079041698,
			"0.016": 0.0,
			"0.017": 0.0,
			"0.018": 0.0,
			"0.019": 0.0,
			"0.02": 0.0,
			"0.021": 0.0,
			"0.022": 0.0,
			"0.023": 0.0,
			"0.024": 0.0,
			"0.025": 0.0
		}
	}
}
