{
	 "smiles": "CC1=CC=C(NC2=C(N)C=CC=N2)C=C1", 
	 "Tm": 418.15, 
	 "num_atms": 28, 
	 "gaussian": { 
		 "optdone": 1, 
		 "sigma_profile": "yes", 
		 "theory": "DFT", 
		 "functional": "B3LYP", 
		 "basiset": "6-31G**", 
		 "properties": { 
			 "R2extent": 5085.8327, 
			 "electric_dipole_moment_norm": 3.36093674145, 
			 "electric_quadrupole_moment_norm": 15.0219207757, 
			 "total_energy": -629.380367665, 
			 "HOMO_LUMO_gap": 0.16973, 
			 "cosmo_polarized_energy": -12.8, 
			 "cosmo_cavitation_energy": 31.38, 
			 "cosmo_dispersion_energy": -23.3, 
			 "cosmo_repulsion_energy": 1.82, 
			 "cosmo_total_nonelectrostatic_energy": 9.91, 
			 "SMD_solvation_energy": 4.65 
		},
		"coords": [
			{
				"x": 5.3448772179,
				"y": -0.1215920579,
				"z": -0.5957634887,
				"element": "C" 
			},
			{
				"x": 4.0208689773,
				"y": 0.2874191078,
				"z": 0.0056857326,
				"element": "C" 
			},
			{
				"x": 3.9600959063,
				"y": 1.1282615262,
				"z": 1.1255667009,
				"element": "C" 
			},
			{
				"x": 2.7425209695,
				"y": 1.527076197,
				"z": 1.664354614,
				"element": "C" 
			},
			{
				"x": 1.5270424263,
				"y": 1.0964347541,
				"z": 1.1012444703,
				"element": "C" 
			},
			{
				"x": 0.34589535,
				"y": 1.5801447784,
				"z": 1.6863890793,
				"element": "N" 
			},
			{
				"x": -0.9731684717,
				"y": 1.1829330171,
				"z": 1.5342158954,
				"element": "C" 
			},
			{
				"x": -1.9480254223,
				"y": 1.9198939069,
				"z": 2.2737082999,
				"element": "C" 
			},
			{
				"x": -1.5070241448,
				"y": 2.9977931455,
				"z": 3.0809674805,
				"element": "N" 
			},
			{
				"x": -3.2671207498,
				"y": 1.5013565801,
				"z": 2.1947648457,
				"element": "C" 
			},
			{
				"x": -3.603309692,
				"y": 0.4073538645,
				"z": 1.3846910671,
				"element": "C" 
			},
			{
				"x": -2.5881198343,
				"y": -0.2027935306,
				"z": 0.6634876641,
				"element": "C" 
			},
			{
				"x": -1.2990292083,
				"y": 0.1678139218,
				"z": 0.7348199322,
				"element": "N" 
			},
			{
				"x": 1.5719644864,
				"y": 0.2500829583,
				"z": -0.0181129862,
				"element": "C" 
			},
			{
				"x": 2.8054114608,
				"y": -0.1374719904,
				"z": -0.5418937753,
				"element": "C" 
			},
			{
				"x": 5.7323295257,
				"y": 0.6450959586,
				"z": -1.2794797678,
				"element": "H" 
			},
			{
				"x": 5.2533338314,
				"y": -1.0494759048,
				"z": -1.1685605884,
				"element": "H" 
			},
			{
				"x": 6.1061141997,
				"y": -0.2778191033,
				"z": 0.1758701616,
				"element": "H" 
			},
			{
				"x": 4.8812076193,
				"y": 1.4756071102,
				"z": 1.5880921701,
				"element": "H" 
			},
			{
				"x": 2.7279770479,
				"y": 2.1777970924,
				"z": 2.5366954253,
				"element": "H" 
			},
			{
				"x": 0.4848389503,
				"y": 2.1421609874,
				"z": 2.516649831,
				"element": "H" 
			},
			{
				"x": -1.0625825292,
				"y": 3.7303743643,
				"z": 2.5319296033,
				"element": "H" 
			},
			{
				"x": -2.2620101608,
				"y": 3.4073516396,
				"z": 3.6199806361,
				"element": "H" 
			},
			{
				"x": -4.0337713218,
				"y": 2.0353860685,
				"z": 2.7520127787,
				"element": "H" 
			},
			{
				"x": -4.6286079208,
				"y": 0.0622755775,
				"z": 1.3060544302,
				"element": "H" 
			},
			{
				"x": -2.8022492381,
				"y": -1.0382324024,
				"z": 0.0000623048,
				"element": "H" 
			},
			{
				"x": 0.6483655062,
				"y": -0.1087643747,
				"z": -0.4485333157,
				"element": "H" 
			},
			{
				"x": 2.8153752189,
				"y": -0.7979631921,
				"z": -1.4061992009,
				"element": "H" 
			}
		],
		 "valence_orbital": [ 
			{
				"type": "occ",
				"energy": -0.26203,
				"method": "rhf"
			},
			{
				"type": "occ",
				"energy": -0.24968,
				"method": "rhf"
			},
			{
				"type": "occ",
				"energy": -0.23628,
				"method": "rhf"
			},
			{
				"type": "occ",
				"energy": -0.22875,
				"method": "rhf"
			},
			{
				"type": "occ",
				"energy": -0.18107,
				"method": "rhf"
			},
			{
				"type": "unocc",
				"energy": -0.01134,
				"method": "rhf"
			},
			{
				"type": "unocc",
				"energy": 0.00268,
				"method": "rhf"
			},
			{
				"type": "unocc",
				"energy": 0.01313,
				"method": "rhf"
			},
			{
				"type": "unocc",
				"energy": 0.04072,
				"method": "rhf"
			},
			{
				"type": "unocc",
				"energy": 0.06861,
				"method": "rhf"
			}
		],
		"cosmo_sigma_profile": { 
			"-0.025": 0.0,
			"-0.024": 0.0,
			"-0.023": 0.0,
			"-0.022": 0.0,
			"-0.021": 0.0,
			"-0.02": 0.0,
			"-0.019": 0.0,
			"-0.018": 0.0,
			"-0.017": 0.0,
			"-0.016": 0.0,
			"-0.015": 0.0,
			"-0.014": 0.0,
			"-0.013": 0.16212311819,
			"-0.012": 2.67310697447,
			"-0.011": 4.10242943672,
			"-0.01": 4.77669913249,
			"-0.009": 3.95877438745,
			"-0.008": 4.88652475564,
			"-0.007": 4.48188853793,
			"-0.006": 6.68357630172,
			"-0.005": 11.97342727,
			"-0.004": 15.1818250359,
			"-0.003": 20.9572760841,
			"-0.002": 16.5425142865,
			"-0.001": 17.67696533,
			"0.0": 18.1795717616,
			"0.001": 14.6158771759,
			"0.002": 14.3303037782,
			"0.003": 18.167909434,
			"0.004": 19.1051256628,
			"0.005": 19.1056714479,
			"0.006": 13.3137764964,
			"0.007": 9.55300192271,
			"0.008": 3.52665886752,
			"0.009": 1.79276179518,
			"0.01": 1.32649058995,
			"0.011": 1.40604161159,
			"0.012": 0.760455331606,
			"0.013": 0.406364322242,
			"0.014": 0.0789896652996,
			"0.015": 0.0,
			"0.016": 0.0,
			"0.017": 0.0,
			"0.018": 0.0,
			"0.019": 0.0,
			"0.02": 0.0,
			"0.021": 0.0,
			"0.022": 0.0,
			"0.023": 0.0,
			"0.024": 0.0,
			"0.025": 0.0
		}
	}
}
