{
	 "smiles": "CNS(=O)(=O)C1=CC(=CC=C1)C(O)=O", 
	 "Tm": 483.15, 
	 "num_atms": 23, 
	 "gaussian": { 
		 "optdone": 1, 
		 "sigma_profile": "yes", 
		 "theory": "DFT", 
		 "functional": "B3LYP", 
		 "basiset": "6-31G**", 
		 "properties": { 
			 "R2extent": 4048.158, 
			 "electric_dipole_moment_norm": 5.47163653307, 
			 "electric_quadrupole_moment_norm": 19.0634995998, 
			 "total_energy": -1064.0435786, 
			 "HOMO_LUMO_gap": 0.20415, 
			 "cosmo_polarized_energy": -22.15, 
			 "cosmo_cavitation_energy": 29.18, 
			 "cosmo_dispersion_energy": -21.36, 
			 "cosmo_repulsion_energy": 1.65, 
			 "cosmo_total_nonelectrostatic_energy": 9.47, 
			 "SMD_solvation_energy": 5.32 
		},
		"coords": [
			{
				"x": -0.5729963615,
				"y": 2.8863671767,
				"z": -0.7486757544,
				"element": "C" 
			},
			{
				"x": 0.2848471278,
				"y": 1.7742730042,
				"z": -1.1787946382,
				"element": "N" 
			},
			{
				"x": -0.4681385357,
				"y": 0.3054003695,
				"z": -1.5371064376,
				"element": "S" 
			},
			{
				"x": 0.4890607026,
				"y": -0.4088556824,
				"z": -2.3853062194,
				"element": "O" 
			},
			{
				"x": -1.8592704606,
				"y": 0.5126853202,
				"z": -1.9617657971,
				"element": "O" 
			},
			{
				"x": -0.5339166045,
				"y": -0.4799033611,
				"z": 0.0776141542,
				"element": "C" 
			},
			{
				"x": -1.7775048384,
				"y": -0.8135490358,
				"z": 0.6089573547,
				"element": "C" 
			},
			{
				"x": -1.8438152744,
				"y": -1.4639855176,
				"z": 1.8480532926,
				"element": "C" 
			},
			{
				"x": -0.6561399796,
				"y": -1.7854555174,
				"z": 2.5186047657,
				"element": "C" 
			},
			{
				"x": 0.5819821545,
				"y": -1.4470792399,
				"z": 1.9741879657,
				"element": "C" 
			},
			{
				"x": 0.6524499747,
				"y": -0.7913064753,
				"z": 0.7454776348,
				"element": "C" 
			},
			{
				"x": -3.135511154,
				"y": -1.8726294766,
				"z": 2.5007581078,
				"element": "C" 
			},
			{
				"x": -4.2795914142,
				"y": -1.3339724144,
				"z": 2.0119095613,
				"element": "O" 
			},
			{
				"x": -3.1792982299,
				"y": -2.6463021659,
				"z": 3.4279150072,
				"element": "O" 
			},
			{
				"x": -1.3486267184,
				"y": 3.145698901,
				"z": -1.4771048428,
				"element": "H" 
			},
			{
				"x": 0.0691978662,
				"y": 3.7519551138,
				"z": -0.571021664,
				"element": "H" 
			},
			{
				"x": -1.051603961,
				"y": 2.6253290649,
				"z": 0.1987635674,
				"element": "H" 
			},
			{
				"x": 0.8875072816,
				"y": 1.9931319368,
				"z": -1.9691193786,
				"element": "H" 
			},
			{
				"x": -2.6570830722,
				"y": -0.5821539569,
				"z": 0.0151936372,
				"element": "H" 
			},
			{
				"x": -0.7306126474,
				"y": -2.3053413773,
				"z": 3.46747988,
				"element": "H" 
			},
			{
				"x": 1.4946843409,
				"y": -1.6992214219,
				"z": 2.5047079051,
				"element": "H" 
			},
			{
				"x": 1.6081307503,
				"y": -0.5267118725,
				"z": 0.3062549123,
				"element": "H" 
			},
			{
				"x": -4.0919509467,
				"y": -0.6499733723,
				"z": 1.3549169861,
				"element": "H" 
			}
		],
		 "valence_orbital": [ 
			{
				"type": "occ",
				"energy": -0.31371,
				"method": "rhf"
			},
			{
				"type": "occ",
				"energy": -0.30033,
				"method": "rhf"
			},
			{
				"type": "occ",
				"energy": -0.29234,
				"method": "rhf"
			},
			{
				"type": "occ",
				"energy": -0.28401,
				"method": "rhf"
			},
			{
				"type": "occ",
				"energy": -0.27556,
				"method": "rhf"
			},
			{
				"type": "unocc",
				"energy": -0.07141,
				"method": "rhf"
			},
			{
				"type": "unocc",
				"energy": -0.05196,
				"method": "rhf"
			},
			{
				"type": "unocc",
				"energy": 0.02623,
				"method": "rhf"
			},
			{
				"type": "unocc",
				"energy": 0.03816,
				"method": "rhf"
			},
			{
				"type": "unocc",
				"energy": 0.06341,
				"method": "rhf"
			}
		],
		"cosmo_sigma_profile": { 
			"-0.025": 0.0,
			"-0.024": 0.0,
			"-0.023": 0.0,
			"-0.022": 0.0,
			"-0.021": 0.0,
			"-0.02": 0.240621555661,
			"-0.019": 0.690261696201,
			"-0.018": 1.03588275167,
			"-0.017": 1.09323586611,
			"-0.016": 1.37813285321,
			"-0.015": 1.16454717541,
			"-0.014": 2.24136050362,
			"-0.013": 1.89701749116,
			"-0.012": 2.17132923267,
			"-0.011": 2.35773068437,
			"-0.01": 1.32770638157,
			"-0.009": 2.6398139939,
			"-0.008": 5.3088491352,
			"-0.007": 9.69967461049,
			"-0.006": 11.8617307939,
			"-0.005": 13.1855956331,
			"-0.004": 15.3744748008,
			"-0.003": 16.4459220685,
			"-0.002": 16.7637871971,
			"-0.001": 11.9147947337,
			"0.0": 15.955033051,
			"0.001": 15.9020789542,
			"0.002": 8.03449701004,
			"0.003": 5.74231703024,
			"0.004": 5.24798001409,
			"0.005": 4.92947356254,
			"0.006": 6.34103720972,
			"0.007": 5.70327650948,
			"0.008": 5.85847582304,
			"0.009": 8.11964919988,
			"0.01": 12.5973736881,
			"0.011": 13.902870448,
			"0.012": 5.03674255404,
			"0.013": 0.776662527236,
			"0.014": 0.0,
			"0.015": 0.0,
			"0.016": 0.0,
			"0.017": 0.0,
			"0.018": 0.0,
			"0.019": 0.0,
			"0.02": 0.0,
			"0.021": 0.0,
			"0.022": 0.0,
			"0.023": 0.0,
			"0.024": 0.0,
			"0.0": 0.0
		}
	}
}
