{
	 "smiles": "CC1=NN(C(O)=C1)C1=CC=C(C)C=C1", 
	 "Tm": 405.15, 
	 "num_atms": 26, 
	 "gaussian": { 
		 "optdone": 1, 
		 "sigma_profile": "yes", 
		 "theory": "DFT", 
		 "functional": "B3LYP", 
		 "basiset": "6-31G**", 
		 "properties": { 
			 "R2extent": 3622.3002, 
			 "electric_dipole_moment_norm": 2.4547467181, 
			 "electric_quadrupole_moment_norm": 11.4826389214, 
			 "total_energy": -611.113876194, 
			 "HOMO_LUMO_gap": 0.20183, 
			 "cosmo_polarized_energy": -11.93, 
			 "cosmo_cavitation_energy": 29.7, 
			 "cosmo_dispersion_energy": -21.98, 
			 "cosmo_repulsion_energy": 1.74, 
			 "cosmo_total_nonelectrostatic_energy": 9.46, 
			 "SMD_solvation_energy": 5.09 
		},
		"coords": [
			{
				"x": 3.5161655518,
				"y": 1.7916069676,
				"z": 2.645970636,
				"element": "C" 
			},
			{
				"x": 2.6784926878,
				"y": 1.2766027113,
				"z": 1.5162889123,
				"element": "C" 
			},
			{
				"x": 1.6450244172,
				"y": 0.4815987519,
				"z": 1.760394183,
				"element": "N" 
			},
			{
				"x": 1.0929740108,
				"y": 0.2045106169,
				"z": 0.5311117713,
				"element": "N" 
			},
			{
				"x": 1.7978929636,
				"y": 0.8277952417,
				"z": -0.4595198641,
				"element": "C" 
			},
			{
				"x": 1.4384171156,
				"y": 0.6685568375,
				"z": -1.7568202566,
				"element": "O" 
			},
			{
				"x": 2.826086313,
				"y": 1.534840576,
				"z": 0.1279227434,
				"element": "C" 
			},
			{
				"x": -0.0217291847,
				"y": -0.6733852725,
				"z": 0.447445716,
				"element": "C" 
			},
			{
				"x": -0.9180492037,
				"y": -0.6263204878,
				"z": -0.6249597868,
				"element": "C" 
			},
			{
				"x": -1.9976953329,
				"y": -1.5098449941,
				"z": -0.6588094836,
				"element": "C" 
			},
			{
				"x": -2.2238970258,
				"y": -2.4366712196,
				"z": 0.3636132542,
				"element": "C" 
			},
			{
				"x": -3.4089163408,
				"y": -3.3727600295,
				"z": 0.3313753498,
				"element": "C" 
			},
			{
				"x": -1.318520025,
				"y": -2.4561622048,
				"z": 1.4349918095,
				"element": "C" 
			},
			{
				"x": -0.2286268636,
				"y": -1.5942430326,
				"z": 1.4833185006,
				"element": "C" 
			},
			{
				"x": 3.4973070948,
				"y": 2.8863885946,
				"z": 2.6913608711,
				"element": "H" 
			},
			{
				"x": 4.5634944029,
				"y": 1.4875146912,
				"z": 2.5376778262,
				"element": "H" 
			},
			{
				"x": 3.137868284,
				"y": 1.4001564098,
				"z": 3.5927949736,
				"element": "H" 
			},
			{
				"x": 2.0987507227,
				"y": 1.1102055422,
				"z": -2.3054797603,
				"element": "H" 
			},
			{
				"x": 3.5678991475,
				"y": 2.1443846902,
				"z": -0.3677850646,
				"element": "H" 
			},
			{
				"x": -0.7777190744,
				"y": 0.0881797246,
				"z": -1.4251504739,
				"element": "H" 
			},
			{
				"x": -2.6840950907,
				"y": -1.4651409558,
				"z": -1.5007399034,
				"element": "H" 
			},
			{
				"x": -3.8963055165,
				"y": -3.3669907467,
				"z": -0.6477157213,
				"element": "H" 
			},
			{
				"x": -4.1625671626,
				"y": -3.0895208829,
				"z": 1.076591445,
				"element": "H" 
			},
			{
				"x": -3.1115964406,
				"y": -4.4037392406,
				"z": 0.5525023807,
				"element": "H" 
			},
			{
				"x": -1.4645538245,
				"y": -3.1655535555,
				"z": 2.2462330891,
				"element": "H" 
			},
			{
				"x": 0.4658983739,
				"y": -1.6120087331,
				"z": 2.3138868529,
				"element": "H" 
			}
		],
		 "valence_orbital": [ 
			{
				"type": "occ",
				"energy": -0.27676,
				"method": "rhf"
			},
			{
				"type": "occ",
				"energy": -0.26955,
				"method": "rhf"
			},
			{
				"type": "occ",
				"energy": -0.2443,
				"method": "rhf"
			},
			{
				"type": "occ",
				"energy": -0.21993,
				"method": "rhf"
			},
			{
				"type": "occ",
				"energy": -0.20767,
				"method": "rhf"
			},
			{
				"type": "unocc",
				"energy": -0.00584,
				"method": "rhf"
			},
			{
				"type": "unocc",
				"energy": 0.00454,
				"method": "rhf"
			},
			{
				"type": "unocc",
				"energy": 0.05244,
				"method": "rhf"
			},
			{
				"type": "unocc",
				"energy": 0.05584,
				"method": "rhf"
			},
			{
				"type": "unocc",
				"energy": 0.08055,
				"method": "rhf"
			}
		],
		"cosmo_sigma_profile": { 
			"-0.025": 0.0,
			"-0.024": 0.0,
			"-0.023": 0.0,
			"-0.022": 0.0,
			"-0.021": 0.0,
			"-0.02": 0.1034643554,
			"-0.019": 1.01131974536,
			"-0.018": 1.24600222233,
			"-0.017": 0.6543080888,
			"-0.016": 0.9668605372,
			"-0.015": 0.910844733983,
			"-0.014": 0.778069691138,
			"-0.013": 0.53771362532,
			"-0.012": 1.02571858435,
			"-0.011": 1.45108352135,
			"-0.01": 0.567671539296,
			"-0.009": 0.618671866522,
			"-0.008": 1.17853983177,
			"-0.007": 2.41890081411,
			"-0.006": 3.10354013616,
			"-0.005": 10.1828239065,
			"-0.004": 19.0283005752,
			"-0.003": 19.5869562395,
			"-0.002": 21.1685001474,
			"-0.001": 21.0530905065,
			"0.0": 23.5183817758,
			"0.001": 17.6674130706,
			"0.002": 14.2803885888,
			"0.003": 14.9659194322,
			"0.004": 16.4850154607,
			"0.005": 19.263685798,
			"0.006": 8.92347615164,
			"0.007": 3.02664253958,
			"0.008": 2.49361726038,
			"0.009": 2.17908124748,
			"0.01": 1.92268890176,
			"0.011": 0.788360784678,
			"0.012": 1.0577335822,
			"0.013": 0.92721708062,
			"0.014": 0.620649033079,
			"0.015": 0.441941061267,
			"0.016": 0.0,
			"0.017": 0.0,
			"0.018": 0.0,
			"0.019": 0.0,
			"0.02": 0.0,
			"0.021": 0.0,
			"0.022": 0.0,
			"0.023": 0.0,
			"0.024": 0.0,
			"0.025": 0.0
		}
	}
}
