{
	 "smiles": "COC(=O)C1=CC=C(C=C1)C#N", 
	 "Tm": 337.65, 
	 "num_atms": 19, 
	 "gaussian": { 
		 "optdone": 1, 
		 "sigma_profile": "yes", 
		 "theory": "DFT", 
		 "functional": "B3LYP", 
		 "basiset": "6-31G**", 
		 "properties": { 
			 "R2extent": 2868.8489, 
			 "electric_dipole_moment_norm": 4.29628507085, 
			 "electric_quadrupole_moment_norm": 14.669593207, 
			 "total_energy": -552.369120359, 
			 "HOMO_LUMO_gap": 0.19383, 
			 "cosmo_polarized_energy": -10.96, 
			 "cosmo_cavitation_energy": 25.25, 
			 "cosmo_dispersion_energy": -17.89, 
			 "cosmo_repulsion_energy": 1.43, 
			 "cosmo_total_nonelectrostatic_energy": 8.78, 
			 "SMD_solvation_energy": 7.44 
		},
		"coords": [
			{
				"x": -2.140222712,
				"y": 0.6055676407,
				"z": 3.1403726817,
				"element": "C" 
			},
			{
				"x": -1.3718864492,
				"y": 0.4520612062,
				"z": 1.9348542868,
				"element": "O" 
			},
			{
				"x": -1.1566282316,
				"y": -0.8227276926,
				"z": 1.5477388924,
				"element": "C" 
			},
			{
				"x": -1.5718856561,
				"y": -1.7881418757,
				"z": 2.1572980414,
				"element": "O" 
			},
			{
				"x": -0.3535748655,
				"y": -0.9077332648,
				"z": 0.2906570449,
				"element": "C" 
			},
			{
				"x": -0.0648798938,
				"y": -2.1839031503,
				"z": -0.2111951923,
				"element": "C" 
			},
			{
				"x": 0.6777914981,
				"y": -2.3275449531,
				"z": -1.3763867859,
				"element": "C" 
			},
			{
				"x": 1.1400847695,
				"y": -1.1844601062,
				"z": -2.0522939267,
				"element": "C" 
			},
			{
				"x": 0.8517497757,
				"y": 0.0965337376,
				"z": -1.5507812595,
				"element": "C" 
			},
			{
				"x": 0.107658244,
				"y": 0.2311980213,
				"z": -0.383726034,
				"element": "C" 
			},
			{
				"x": 1.9075612616,
				"y": -1.3249177793,
				"z": -3.256171826,
				"element": "C" 
			},
			{
				"x": 2.5298437386,
				"y": -1.4382598122,
				"z": -4.2323208541,
				"element": "N" 
			},
			{
				"x": -1.6349089063,
				"y": 0.1229853121,
				"z": 3.9804097218,
				"element": "H" 
			},
			{
				"x": -3.1313046736,
				"y": 0.1610584498,
				"z": 3.0218235769,
				"element": "H" 
			},
			{
				"x": -2.2176631329,
				"y": 1.6800425773,
				"z": 3.3039513685,
				"element": "H" 
			},
			{
				"x": -0.4328702896,
				"y": -3.0494061749,
				"z": 0.328611746,
				"element": "H" 
			},
			{
				"x": 0.9047197831,
				"y": -3.312347864,
				"z": -1.7701328217,
				"element": "H" 
			},
			{
				"x": 1.2125516913,
				"y": 0.9724952704,
				"z": -2.0789412562,
				"element": "H" 
			},
			{
				"x": -0.1188359512,
				"y": 1.2151004576,
				"z": 0.0093325961,
				"element": "H" 
			}
		],
		 "valence_orbital": [ 
			{
				"type": "occ",
				"energy": -0.33676,
				"method": "rhf"
			},
			{
				"type": "occ",
				"energy": -0.31636,
				"method": "rhf"
			},
			{
				"type": "occ",
				"energy": -0.2895,
				"method": "rhf"
			},
			{
				"type": "occ",
				"energy": -0.28403,
				"method": "rhf"
			},
			{
				"type": "occ",
				"energy": -0.27487,
				"method": "rhf"
			},
			{
				"type": "unocc",
				"energy": -0.08104,
				"method": "rhf"
			},
			{
				"type": "unocc",
				"energy": -0.03182,
				"method": "rhf"
			},
			{
				"type": "unocc",
				"energy": 0.01314,
				"method": "rhf"
			},
			{
				"type": "unocc",
				"energy": 0.0303,
				"method": "rhf"
			},
			{
				"type": "unocc",
				"energy": 0.07777,
				"method": "rhf"
			}
		],
		"cosmo_sigma_profile": { 
			"-0.025": 0.0,
			"-0.024": 0.0,
			"-0.023": 0.0,
			"-0.022": 0.0,
			"-0.021": 0.0,
			"-0.02": 0.0,
			"-0.019": 0.0,
			"-0.018": 0.0,
			"-0.017": 0.0,
			"-0.016": 0.0,
			"-0.015": 0.0,
			"-0.014": 0.0,
			"-0.013": 0.0,
			"-0.012": 0.0,
			"-0.011": 0.0,
			"-0.01": 0.0,
			"-0.009": 1.05827854331,
			"-0.008": 4.99891179444,
			"-0.007": 9.3607246726,
			"-0.006": 12.5300704046,
			"-0.005": 14.2551345089,
			"-0.004": 15.8241405421,
			"-0.003": 16.6159540813,
			"-0.002": 16.4899624569,
			"-0.001": 16.3783120278,
			"0.0": 18.4077923742,
			"0.001": 18.9848984594,
			"0.002": 7.81300067011,
			"0.003": 5.26867462697,
			"0.004": 5.23220242817,
			"0.005": 5.81976745395,
			"0.006": 3.76986531934,
			"0.007": 4.44649394429,
			"0.008": 4.87046355059,
			"0.009": 4.50725500779,
			"0.01": 5.73644951297,
			"0.011": 6.35218874041,
			"0.012": 4.37719770115,
			"0.013": 0.794266338645,
			"0.014": 0.0,
			"0.015": 0.0,
			"0.016": 0.0,
			"0.017": 0.0,
			"0.018": 0.0,
			"0.019": 0.0,
			"0.02": 0.0,
			"0.021": 0.0,
			"0.022": 0.0,
			"0.023": 0.0,
			"0.024": 0.0,
			"0.025": 0.0
		}
	}
}
