{
	 "smiles": "CCOC1=CC=C(C=C1)C1=NC(CCl)=CO1", 
	 "Tm": 376.15, 
	 "num_atms": 28, 
	 "gaussian": { 
		 "optdone": 1, 
		 "sigma_profile": "yes", 
		 "theory": "DFT", 
		 "functional": "B3LYP", 
		 "basiset": "6-31G**", 
		 "properties": { 
			 "R2extent": 7566.0913, 
			 "electric_dipole_moment_norm": 3.2551132607, 
			 "electric_quadrupole_moment_norm": 27.0498638008, 
			 "total_energy": -1129.8946291, 
			 "HOMO_LUMO_gap": 0.17423, 
			 "cosmo_polarized_energy": -11.51, 
			 "cosmo_cavitation_energy": 34.62, 
			 "cosmo_dispersion_energy": -25.47, 
			 "cosmo_repulsion_energy": 2.02, 
			 "cosmo_total_nonelectrostatic_energy": 11.16, 
			 "SMD_solvation_energy": 5.12 
		},
		"coords": [
			{
				"x": 3.5171547389,
				"y": 0.4831263662,
				"z": -4.4708747001,
				"element": "C" 
			},
			{
				"x": 2.468244258,
				"y": 0.8824861504,
				"z": -3.4482114476,
				"element": "C" 
			},
			{
				"x": 2.498235086,
				"y": -0.088910306,
				"z": -2.4000527287,
				"element": "O" 
			},
			{
				"x": 1.6422023864,
				"y": 0.0448922657,
				"z": -1.3523309252,
				"element": "C" 
			},
			{
				"x": 1.7289244493,
				"y": -0.9493709676,
				"z": -0.3633501081,
				"element": "C" 
			},
			{
				"x": 0.9007356668,
				"y": -0.9067358545,
				"z": 0.7467845413,
				"element": "C" 
			},
			{
				"x": -0.0368956624,
				"y": 0.1313830405,
				"z": 0.8988944794,
				"element": "C" 
			},
			{
				"x": -0.1185537162,
				"y": 1.1195970398,
				"z": -0.0916294742,
				"element": "C" 
			},
			{
				"x": 0.7101540762,
				"y": 1.0839712044,
				"z": -1.2099001499,
				"element": "C" 
			},
			{
				"x": -0.9202922235,
				"y": 0.2010205269,
				"z": 2.0547397736,
				"element": "C" 
			},
			{
				"x": -1.8174034847,
				"y": 1.1038804886,
				"z": 2.3369229692,
				"element": "N" 
			},
			{
				"x": -2.3688329087,
				"y": 0.6998630198,
				"z": 3.5447056544,
				"element": "C" 
			},
			{
				"x": -3.4369519545,
				"y": 1.4719701325,
				"z": 4.2238917669,
				"element": "C" 
			},
			{
				"x": -5.1046243352,
				"y": 1.1335308125,
				"z": 3.5346214641,
				"element": "Cl" 
			},
			{
				"x": -1.7633647105,
				"y": -0.4517769217,
				"z": 3.9429288026,
				"element": "C" 
			},
			{
				"x": -0.8318641572,
				"y": -0.7858678239,
				"z": 3.0011434142,
				"element": "O" 
			},
			{
				"x": 3.3008665171,
				"y": -0.5084426829,
				"z": -4.8779509885,
				"element": "H" 
			},
			{
				"x": 4.5108643044,
				"y": 0.4596704565,
				"z": -4.0151068078,
				"element": "H" 
			},
			{
				"x": 3.5298651849,
				"y": 1.2022087137,
				"z": -5.2955631923,
				"element": "H" 
			},
			{
				"x": 2.6796640574,
				"y": 1.8796337913,
				"z": -3.0376479615,
				"element": "H" 
			},
			{
				"x": 1.4677746133,
				"y": 0.909702261,
				"z": -3.9018559253,
				"element": "H" 
			},
			{
				"x": 2.455793003,
				"y": -1.7442480435,
				"z": -0.492808996,
				"element": "H" 
			},
			{
				"x": 0.9746175107,
				"y": -1.6790594517,
				"z": 1.5048710048,
				"element": "H" 
			},
			{
				"x": -0.8430813023,
				"y": 1.9186457818,
				"z": 0.0245898589,
				"element": "H" 
			},
			{
				"x": 0.6228573936,
				"y": 1.8615616995,
				"z": -1.9588325789,
				"element": "H" 
			},
			{
				"x": -3.4997239087,
				"y": 1.229050098,
				"z": 5.2842522845,
				"element": "H" 
			},
			{
				"x": -3.2825653037,
				"y": 2.5427568262,
				"z": 4.095223556,
				"element": "H" 
			},
			{
				"x": -1.8624995786,
				"y": -1.1117386234,
				"z": 4.7895464144,
				"element": "H" 
			}
		],
		 "valence_orbital": [ 
			{
				"type": "occ",
				"energy": -0.28995,
				"method": "rhf"
			},
			{
				"type": "occ",
				"energy": -0.28728,
				"method": "rhf"
			},
			{
				"type": "occ",
				"energy": -0.26431,
				"method": "rhf"
			},
			{
				"type": "occ",
				"energy": -0.25857,
				"method": "rhf"
			},
			{
				"type": "occ",
				"energy": -0.21069,
				"method": "rhf"
			},
			{
				"type": "unocc",
				"energy": -0.03646,
				"method": "rhf"
			},
			{
				"type": "unocc",
				"energy": -0.01085,
				"method": "rhf"
			},
			{
				"type": "unocc",
				"energy": -0.00428,
				"method": "rhf"
			},
			{
				"type": "unocc",
				"energy": 0.05733,
				"method": "rhf"
			},
			{
				"type": "unocc",
				"energy": 0.07978,
				"method": "rhf"
			}
		],
		"cosmo_sigma_profile": { 
			"-0.025": 0.0,
			"-0.024": 0.0,
			"-0.023": 0.0,
			"-0.022": 0.0,
			"-0.021": 0.0,
			"-0.02": 0.0,
			"-0.019": 0.0,
			"-0.018": 0.0,
			"-0.017": 0.0,
			"-0.016": 0.0,
			"-0.015": 0.0,
			"-0.014": 0.0,
			"-0.013": 0.0,
			"-0.012": 0.0,
			"-0.011": 0.327059827672,
			"-0.01": 2.10767706684,
			"-0.009": 2.80308524925,
			"-0.008": 6.45202445806,
			"-0.007": 5.76209996451,
			"-0.006": 12.4091784623,
			"-0.005": 19.0980745746,
			"-0.004": 21.1588353604,
			"-0.003": 20.738965448,
			"-0.002": 17.0608178296,
			"-0.001": 19.893141307,
			"0.0": 24.677438681,
			"0.001": 19.9328729524,
			"0.002": 18.775770282,
			"0.003": 20.5100448919,
			"0.004": 22.7563745584,
			"0.005": 11.1990407824,
			"0.006": 13.2064909185,
			"0.007": 9.64273229834,
			"0.008": 2.58124316587,
			"0.009": 2.94164482157,
			"0.01": 1.14482128424,
			"0.011": 1.33461162115,
			"0.012": 0.82457168263,
			"0.013": 0.855343486112,
			"0.014": 0.304626581375,
			"0.015": 0.0,
			"0.016": 0.0,
			"0.017": 0.0,
			"0.018": 0.0,
			"0.019": 0.0,
			"0.02": 0.0,
			"0.021": 0.0,
			"0.022": 0.0,
			"0.023": 0.0,
			"0.024": 0.0,
			"0.025": 0.0
		}
	}
}
