{
	 "smiles": "NS(=O)(=O)C1=CC2=C(S1)SCCC2=O", 
	 "Tm": 495.15, 
	 "num_atms": 21, 
	 "gaussian": { 
		 "optdone": 1, 
		 "sigma_profile": "yes", 
		 "theory": "DFT", 
		 "functional": "B3LYP", 
		 "basiset": "6-31G**", 
		 "properties": { 
			 "R2extent": 4553.1317, 
			 "electric_dipole_moment_norm": 6.5076605543, 
			 "electric_quadrupole_moment_norm": 19.4978548051, 
			 "total_energy": -1745.86039549, 
			 "HOMO_LUMO_gap": 0.16574, 
			 "cosmo_polarized_energy": -22.58, 
			 "cosmo_cavitation_energy": 29.8, 
			 "cosmo_dispersion_energy": -23.35, 
			 "cosmo_repulsion_energy": 1.7, 
			 "cosmo_total_nonelectrostatic_energy": 8.16, 
			 "SMD_solvation_energy": 4.19 
		},
		"coords": [
			{
				"x": 3.2206026538,
				"y": 1.3322312452,
				"z": 0.045018244,
				"element": "N" 
			},
			{
				"x": 2.579329521,
				"y": 0.7172506056,
				"z": 1.4647938593,
				"element": "S" 
			},
			{
				"x": 3.4658622611,
				"y": -0.3756530562,
				"z": 1.8553499277,
				"element": "O" 
			},
			{
				"x": 2.2889082083,
				"y": 1.8725264637,
				"z": 2.3060668013,
				"element": "O" 
			},
			{
				"x": 1.0120961665,
				"y": -0.0219466489,
				"z": 1.0627998168,
				"element": "C" 
			},
			{
				"x": -0.2075125217,
				"y": 0.5855719918,
				"z": 1.1028102351,
				"element": "C" 
			},
			{
				"x": -1.2654079618,
				"y": -0.2730894336,
				"z": 0.667406891,
				"element": "C" 
			},
			{
				"x": -0.8088333628,
				"y": -1.5385688692,
				"z": 0.3181477057,
				"element": "C" 
			},
			{
				"x": 0.9107599986,
				"y": -1.6937720127,
				"z": 0.5355297214,
				"element": "S" 
			},
			{
				"x": -1.7740689255,
				"y": -2.8882240144,
				"z": -0.2484530328,
				"element": "S" 
			},
			{
				"x": -3.3961972357,
				"y": -2.2866046154,
				"z": 0.3848720495,
				"element": "C" 
			},
			{
				"x": -3.6785069542,
				"y": -0.8348422785,
				"z": 0.0008996711,
				"element": "C" 
			},
			{
				"x": -2.669593289,
				"y": 0.1701689182,
				"z": 0.5548921364,
				"element": "C" 
			},
			{
				"x": -3.006083478,
				"y": 1.3071050686,
				"z": 0.8481281157,
				"element": "O" 
			},
			{
				"x": 2.6714919473,
				"y": 2.0889044661,
				"z": -0.3497013659,
				"element": "H" 
			},
			{
				"x": 3.4709032334,
				"y": 0.6147311644,
				"z": -0.6275660643,
				"element": "H" 
			},
			{
				"x": -0.3704961993,
				"y": 1.6065125924,
				"z": 1.425179726,
				"element": "H" 
			},
			{
				"x": -3.4029931816,
				"y": -2.4212854002,
				"z": 1.4706420756,
				"element": "H" 
			},
			{
				"x": -4.1367022725,
				"y": -2.9628587202,
				"z": -0.0493882169,
				"element": "H" 
			},
			{
				"x": -4.667834345,
				"y": -0.5326822664,
				"z": 0.3579435356,
				"element": "H" 
			},
			{
				"x": -3.6823242628,
				"y": -0.7327752001,
				"z": -1.0930718322,
				"element": "H" 
			}
		],
		 "valence_orbital": [ 
			{
				"type": "occ",
				"energy": -0.31425,
				"method": "rhf"
			},
			{
				"type": "occ",
				"energy": -0.30222,
				"method": "rhf"
			},
			{
				"type": "occ",
				"energy": -0.28485,
				"method": "rhf"
			},
			{
				"type": "occ",
				"energy": -0.26488,
				"method": "rhf"
			},
			{
				"type": "occ",
				"energy": -0.24019,
				"method": "rhf"
			},
			{
				"type": "unocc",
				"energy": -0.07445,
				"method": "rhf"
			},
			{
				"type": "unocc",
				"energy": -0.04492,
				"method": "rhf"
			},
			{
				"type": "unocc",
				"energy": -0.01702,
				"method": "rhf"
			},
			{
				"type": "unocc",
				"energy": 0.0053,
				"method": "rhf"
			},
			{
				"type": "unocc",
				"energy": 0.02101,
				"method": "rhf"
			}
		],
		"cosmo_sigma_profile": { 
			"-0.025": 0.0,
			"-0.024": 0.0,
			"-0.023": 0.0,
			"-0.022": 0.0,
			"-0.021": 0.0,
			"-0.02": 0.0,
			"-0.019": 0.0,
			"-0.018": 0.0,
			"-0.017": 0.0,
			"-0.016": 0.82329855504,
			"-0.015": 2.68783825305,
			"-0.014": 3.05489598675,
			"-0.013": 2.922502154,
			"-0.012": 2.3951179463,
			"-0.011": 2.44220018854,
			"-0.01": 2.20526174292,
			"-0.009": 2.70563657451,
			"-0.008": 5.52945573312,
			"-0.007": 11.2505320116,
			"-0.006": 14.6622380258,
			"-0.005": 15.2289910915,
			"-0.004": 13.2461314205,
			"-0.003": 10.6357620662,
			"-0.002": 10.5589009027,
			"-0.001": 17.2367390176,
			"0.0": 20.2710443941,
			"0.001": 14.2783346357,
			"0.002": 11.7397369265,
			"0.003": 7.77158140054,
			"0.004": 7.9297780236,
			"0.005": 6.98550010676,
			"0.006": 6.33411521118,
			"0.007": 5.51083723364,
			"0.008": 6.12944755471,
			"0.009": 7.93807893611,
			"0.01": 11.7570876793,
			"0.011": 12.7491361339,
			"0.012": 4.03751378301,
			"0.013": 0.905973020289,
			"0.014": 0.00911386568541,
			"0.015": 0.0,
			"0.016": 0.0,
			"0.017": 0.0,
			"0.018": 0.0,
			"0.019": 0.0,
			"0.02": 0.0,
			"0.021": 0.0,
			"0.022": 0.0,
			"0.023": 0.0,
			"0.024": 0.0,
			"0.025": 0.0
		}
	}
}
