{
	 "smiles": "CC1=NC(=CC=N1)C1=CC=CC(=C1)S(Cl)(=O)=O", 
	 "Tm": 447.15, 
	 "num_atms": 26, 
	 "gaussian": { 
		 "optdone": 1, 
		 "sigma_profile": "yes", 
		 "theory": "DFT", 
		 "functional": "B3LYP", 
		 "basiset": "6-31G**", 
		 "properties": { 
			 "R2extent": 6572.0459, 
			 "electric_dipole_moment_norm": 6.07100961702, 
			 "electric_quadrupole_moment_norm": 21.7091975616, 
			 "total_energy": -1542.86638934, 
			 "HOMO_LUMO_gap": 0.16997, 
			 "cosmo_polarized_energy": -13.56, 
			 "cosmo_cavitation_energy": 34.43, 
			 "cosmo_dispersion_energy": -25.33, 
			 "cosmo_repulsion_energy": 1.93, 
			 "cosmo_total_nonelectrostatic_energy": 11.03, 
			 "SMD_solvation_energy": 2.23 
		},
		"coords": [
			{
				"x": 3.8672163552,
				"y": 0.0849808374,
				"z": 1.0442857527,
				"element": "C" 
			},
			{
				"x": 2.5270529764,
				"y": 0.6742848919,
				"z": 1.3885653811,
				"element": "C" 
			},
			{
				"x": 1.4477188796,
				"y": 0.1525615504,
				"z": 0.7948219633,
				"element": "N" 
			},
			{
				"x": 0.2439308765,
				"y": 0.6757249368,
				"z": 1.0904076108,
				"element": "C" 
			},
			{
				"x": 0.1335626748,
				"y": 1.7288345189,
				"z": 2.004556176,
				"element": "C" 
			},
			{
				"x": 1.3190543114,
				"y": 2.2017986491,
				"z": 2.5622412838,
				"element": "C" 
			},
			{
				"x": 2.5170026859,
				"y": 1.6941245818,
				"z": 2.2672018224,
				"element": "N" 
			},
			{
				"x": -0.9271800727,
				"y": 0.063779333,
				"z": 0.4042471434,
				"element": "C" 
			},
			{
				"x": -2.2062565308,
				"y": 0.6423050403,
				"z": 0.4369128879,
				"element": "C" 
			},
			{
				"x": -3.2891878917,
				"y": 0.0423982585,
				"z": -0.2063039629,
				"element": "C" 
			},
			{
				"x": -3.121653818,
				"y": -1.151834196,
				"z": -0.9044808743,
				"element": "C" 
			},
			{
				"x": -1.8434824597,
				"y": -1.7122948122,
				"z": -0.9373685554,
				"element": "C" 
			},
			{
				"x": -0.7491174319,
				"y": -1.1339228852,
				"z": -0.3048397571,
				"element": "C" 
			},
			{
				"x": -1.6095265805,
				"y": -3.2559884461,
				"z": -1.8135098559,
				"element": "S" 
			},
			{
				"x": -1.1094646535,
				"y": -2.5523529311,
				"z": -3.7664443404,
				"element": "Cl" 
			},
			{
				"x": -2.8948629315,
				"y": -3.93159675,
				"z": -1.9437744065,
				"element": "O" 
			},
			{
				"x": -0.4219209388,
				"y": -3.93100118,
				"z": -1.3074169521,
				"element": "O" 
			},
			{
				"x": 4.4098659626,
				"y": -0.1781216257,
				"z": 1.9569208561,
				"element": "H" 
			},
			{
				"x": 4.4762155267,
				"y": 0.8244920386,
				"z": 0.5129879459,
				"element": "H" 
			},
			{
				"x": 3.7470651418,
				"y": -0.7975073574,
				"z": 0.4154369731,
				"element": "H" 
			},
			{
				"x": -0.8178470953,
				"y": 2.1599137516,
				"z": 2.2911237927,
				"element": "H" 
			},
			{
				"x": 1.303088324,
				"y": 3.0210258465,
				"z": 3.2795819823,
				"element": "H" 
			},
			{
				"x": -2.365747066,
				"y": 1.5800272005,
				"z": 0.9582510855,
				"element": "H" 
			},
			{
				"x": -4.2683498228,
				"y": 0.50847554,
				"z": -0.1639706998,
				"element": "H" 
			},
			{
				"x": -3.950245074,
				"y": -1.641179486,
				"z": -1.403313181,
				"element": "H" 
			},
			{
				"x": 0.2329686521,
				"y": -1.5892273056,
				"z": -0.3429200714,
				"element": "H" 
			}
		],
		 "valence_orbital": [ 
			{
				"type": "occ",
				"energy": -0.31107,
				"method": "rhf"
			},
			{
				"type": "occ",
				"energy": -0.30051,
				"method": "rhf"
			},
			{
				"type": "occ",
				"energy": -0.29176,
				"method": "rhf"
			},
			{
				"type": "occ",
				"energy": -0.2695,
				"method": "rhf"
			},
			{
				"type": "occ",
				"energy": -0.26126,
				"method": "rhf"
			},
			{
				"type": "unocc",
				"energy": -0.09129,
				"method": "rhf"
			},
			{
				"type": "unocc",
				"energy": -0.07914,
				"method": "rhf"
			},
			{
				"type": "unocc",
				"energy": -0.0481,
				"method": "rhf"
			},
			{
				"type": "unocc",
				"energy": -0.03327,
				"method": "rhf"
			},
			{
				"type": "unocc",
				"energy": -0.00735,
				"method": "rhf"
			}
		],
		"cosmo_sigma_profile": { 
			"-0.025": 0.0,
			"-0.024": 0.0,
			"-0.023": 0.0,
			"-0.022": 0.0,
			"-0.021": 0.0,
			"-0.02": 0.0,
			"-0.019": 0.0,
			"-0.018": 0.0,
			"-0.017": 0.0,
			"-0.016": 0.0,
			"-0.015": 0.0,
			"-0.014": 0.0,
			"-0.013": 0.0,
			"-0.012": 0.0,
			"-0.011": 0.392592935741,
			"-0.01": 1.57316303402,
			"-0.009": 2.83293307229,
			"-0.008": 7.60441924385,
			"-0.007": 11.4954970324,
			"-0.006": 11.02108689,
			"-0.005": 12.9155385337,
			"-0.004": 13.3716601789,
			"-0.003": 15.6035100307,
			"-0.002": 22.6085092216,
			"-0.001": 33.3311196678,
			"0.0": 36.1959489074,
			"0.001": 22.7829261495,
			"0.002": 14.3336655131,
			"0.003": 17.1498723924,
			"0.004": 13.1726746844,
			"0.005": 5.79603516303,
			"0.006": 6.57396730395,
			"0.007": 9.29429255851,
			"0.008": 10.9692801029,
			"0.009": 5.46847114563,
			"0.01": 0.875880516841,
			"0.011": 1.45156711362,
			"0.012": 0.801827652712,
			"0.013": 0.68750201995,
			"0.014": 0.796199960389,
			"0.015": 0.666317930903,
			"0.016": 0.22543280972,
			"0.017": 0.0,
			"0.018": 0.0,
			"0.019": 0.0,
			"0.02": 0.0,
			"0.021": 0.0,
			"0.022": 0.0,
			"0.023": 0.0,
			"0.024": 0.0,
			"0.025": 0.0
		}
	}
}
