{
	 "smiles": "COC1=C(C=C2/SC3=NC4=CC=CC=C4N3C2=O)C=C(Br)C=C1", 
	 "Tm": 524.15, 
	 "num_atms": 34, 
	 "gaussian": { 
		 "optdone": 1, 
		 "sigma_profile": "yes", 
		 "theory": "DFT", 
		 "functional": "B3LYP", 
		 "basiset": "6-31G**", 
		 "properties": { 
			 "R2extent": 16014.2993, 
			 "electric_dipole_moment_norm": 3.69863423036, 
			 "electric_quadrupole_moment_norm": 26.5319457628, 
			 "total_energy": -3883.97072134, 
			 "HOMO_LUMO_gap": 0.12852, 
			 "cosmo_polarized_energy": -13.49, 
			 "cosmo_cavitation_energy": 42.9, 
			 "cosmo_dispersion_energy": -31.92, 
			 "cosmo_repulsion_energy": 2.32, 
			 "cosmo_total_nonelectrostatic_energy": 13.3, 
			 "SMD_solvation_energy": 4.85 
		},
		"coords": [
			{
				"x": 1.3239665201,
				"y": -0.5969992675,
				"z": 4.0545601072,
				"element": "C" 
			},
			{
				"x": 0.4733861014,
				"y": -1.0633630237,
				"z": 3.0126330394,
				"element": "O" 
			},
			{
				"x": 0.085200405,
				"y": -2.3628423432,
				"z": 2.9959387976,
				"element": "C" 
			},
			{
				"x": -0.7794741953,
				"y": -2.7428853061,
				"z": 1.9369637889,
				"element": "C" 
			},
			{
				"x": -1.2294933858,
				"y": -1.8795436698,
				"z": 0.8518062219,
				"element": "C" 
			},
			{
				"x": -0.7615395578,
				"y": -0.7548082183,
				"z": 0.2636787084,
				"element": "C" 
			},
			{
				"x": 0.7130897325,
				"y": 0.2102875018,
				"z": 0.5754000333,
				"element": "S" 
			},
			{
				"x": 0.3710285776,
				"y": 1.1962868301,
				"z": -0.8433110083,
				"element": "C" 
			},
			{
				"x": 0.990402105,
				"y": 2.1931334312,
				"z": -1.3916581378,
				"element": "N" 
			},
			{
				"x": 0.1709451506,
				"y": 2.5397308051,
				"z": -2.4818174193,
				"element": "C" 
			},
			{
				"x": 0.3445506822,
				"y": 3.5468438016,
				"z": -3.4318157395,
				"element": "C" 
			},
			{
				"x": -0.6284411518,
				"y": 3.6818030046,
				"z": -4.4240242132,
				"element": "C" 
			},
			{
				"x": -1.7505433735,
				"y": 2.8376029373,
				"z": -4.4758379003,
				"element": "C" 
			},
			{
				"x": -1.9445225342,
				"y": 1.8226085377,
				"z": -3.5350122567,
				"element": "C" 
			},
			{
				"x": -0.9684829949,
				"y": 1.701172958,
				"z": -2.5538502799,
				"element": "C" 
			},
			{
				"x": -0.8155308168,
				"y": 0.8293845848,
				"z": -1.470240271,
				"element": "N" 
			},
			{
				"x": -1.5214003938,
				"y": -0.239976991,
				"z": -0.9306669686,
				"element": "C" 
			},
			{
				"x": -2.5666229061,
				"y": -0.6778182098,
				"z": -1.3742679413,
				"element": "O" 
			},
			{
				"x": -1.2726049676,
				"y": -4.0620411798,
				"z": 1.9343543837,
				"element": "C" 
			},
			{
				"x": -0.8883382299,
				"y": -4.978644058,
				"z": 2.9042814172,
				"element": "C" 
			},
			{
				"x": -1.5671667479,
				"y": -6.7620803971,
				"z": 2.8448764333,
				"element": "Br" 
			},
			{
				"x": -0.0145864028,
				"y": -4.6039630886,
				"z": 3.9213490788,
				"element": "C" 
			},
			{
				"x": 0.4649240685,
				"y": -3.2948916912,
				"z": 3.9668261293,
				"element": "C" 
			},
			{
				"x": 1.4904313535,
				"y": 0.4598806171,
				"z": 3.8459847875,
				"element": "H" 
			},
			{
				"x": 0.8441847237,
				"y": -0.7069835406,
				"z": 5.0339781939,
				"element": "H" 
			},
			{
				"x": 2.2848304804,
				"y": -1.1247650148,
				"z": 4.053604628,
				"element": "H" 
			},
			{
				"x": -2.1241068933,
				"y": -2.2432284402,
				"z": 0.3461388751,
				"element": "H" 
			},
			{
				"x": 1.2118412041,
				"y": 4.1971032644,
				"z": -3.3898873115,
				"element": "H" 
			},
			{
				"x": -0.5166625899,
				"y": 4.4578603659,
				"z": -5.1753842424,
				"element": "H" 
			},
			{
				"x": -2.4844153324,
				"y": 2.9755305385,
				"z": -5.2639616879,
				"element": "H" 
			},
			{
				"x": -2.8035133034,
				"y": 1.1626195763,
				"z": -3.5602298797,
				"element": "H" 
			},
			{
				"x": -1.9536829542,
				"y": -4.3652637873,
				"z": 1.1468460902,
				"element": "H" 
			},
			{
				"x": 0.2841800275,
				"y": -5.3190455552,
				"z": 4.6791771994,
				"element": "H" 
			},
			{
				"x": 1.128967599,
				"y": -3.0082049719,
				"z": 4.7726673446,
				"element": "H" 
			}
		],
		 "valence_orbital": [ 
			{
				"type": "occ",
				"energy": -0.27807,
				"method": "rhf"
			},
			{
				"type": "occ",
				"energy": -0.25527,
				"method": "rhf"
			},
			{
				"type": "occ",
				"energy": -0.23949,
				"method": "rhf"
			},
			{
				"type": "occ",
				"energy": -0.23505,
				"method": "rhf"
			},
			{
				"type": "occ",
				"energy": -0.21491,
				"method": "rhf"
			},
			{
				"type": "unocc",
				"energy": -0.08639,
				"method": "rhf"
			},
			{
				"type": "unocc",
				"energy": -0.02418,
				"method": "rhf"
			},
			{
				"type": "unocc",
				"energy": -0.0176,
				"method": "rhf"
			},
			{
				"type": "unocc",
				"energy": -0.01202,
				"method": "rhf"
			},
			{
				"type": "unocc",
				"energy": -0.002,
				"method": "rhf"
			}
		],
		"cosmo_sigma_profile": { 
			"-0.025": 0.0,
			"-0.024": 0.0,
			"-0.023": 0.0,
			"-0.022": 0.0,
			"-0.021": 0.0,
			"-0.02": 0.0,
			"-0.019": 0.0,
			"-0.018": 0.0,
			"-0.017": 0.0,
			"-0.016": 0.0,
			"-0.015": 0.0,
			"-0.014": 0.0,
			"-0.013": 0.0,
			"-0.012": 0.0,
			"-0.011": 0.0,
			"-0.01": 0.127762669056,
			"-0.009": 1.46170958997,
			"-0.008": 5.02659852377,
			"-0.007": 11.0524843054,
			"-0.006": 22.5466421183,
			"-0.005": 22.2481793999,
			"-0.004": 25.0940147311,
			"-0.003": 21.6038608412,
			"-0.002": 22.6253183493,
			"-0.001": 24.8599961412,
			"0.0": 30.1093557207,
			"0.001": 36.1310726311,
			"0.002": 33.9610019021,
			"0.003": 26.1738657793,
			"0.004": 28.0949660135,
			"0.005": 15.2608952132,
			"0.006": 3.90699787647,
			"0.007": 2.49801905648,
			"0.008": 2.91706833545,
			"0.009": 3.11151268732,
			"0.01": 4.16183780403,
			"0.011": 4.68259063627,
			"0.012": 0.625684254791,
			"0.013": 1.06302464869,
			"0.014": 1.16942703099,
			"0.015": 0.706801265426,
			"0.016": 0.3361102402,
			"0.017": 0.0,
			"0.018": 0.0,
			"0.019": 0.0,
			"0.02": 0.0,
			"0.021": 0.0,
			"0.022": 0.0,
			"0.023": 0.0,
			"0.024": 0.0,
			"0.025": 0.0
		}
	}
}
