{
	 "smiles": "CC1=C(C(C)=C(C=C1C(O)=O)[N+]([O-])=O)[N+]([O-])=O", 
	 "Tm": 475.15, 
	 "num_atms": 25, 
	 "gaussian": { 
		 "optdone": 1, 
		 "sigma_profile": "yes", 
		 "theory": "DFT", 
		 "functional": "B3LYP", 
		 "basiset": "6-31G**", 
		 "properties": { 
			 "R2extent": 4174.738, 
			 "electric_dipole_moment_norm": 3.64419040941, 
			 "electric_quadrupole_moment_norm": 17.2575970462, 
			 "total_energy": -908.43158183, 
			 "HOMO_LUMO_gap": 0.18164, 
			 "cosmo_polarized_energy": -15.22, 
			 "cosmo_cavitation_energy": 30.78, 
			 "cosmo_dispersion_energy": -21.75, 
			 "cosmo_repulsion_energy": 1.66, 
			 "cosmo_total_nonelectrostatic_energy": 10.69, 
			 "SMD_solvation_energy": 11.19 
		},
		"coords": [
			{
				"x": 0.1095434983,
				"y": -2.2970079007,
				"z": 0.1817110521,
				"element": "C" 
			},
			{
				"x": 0.1607124597,
				"y": -0.7873072405,
				"z": 0.1662435976,
				"element": "C" 
			},
			{
				"x": -1.02427394,
				"y": -0.0407337298,
				"z": 0.0945194281,
				"element": "C" 
			},
			{
				"x": -1.1339661205,
				"y": 1.3568710466,
				"z": 0.1105274945,
				"element": "C" 
			},
			{
				"x": -2.4793396475,
				"y": 2.0298838749,
				"z": -0.0059684642,
				"element": "C" 
			},
			{
				"x": 0.0955174149,
				"y": 2.03077924,
				"z": 0.2106190696,
				"element": "C" 
			},
			{
				"x": 1.3070493933,
				"y": 1.3567715636,
				"z": 0.2581847299,
				"element": "C" 
			},
			{
				"x": 1.3592037389,
				"y": -0.0380048487,
				"z": 0.237841225,
				"element": "C" 
			},
			{
				"x": 2.7493209725,
				"y": -0.5963943959,
				"z": 0.2924992843,
				"element": "C" 
			},
			{
				"x": 2.8351434116,
				"y": -1.9247910618,
				"z": 0.0588083382,
				"element": "O" 
			},
			{
				"x": 3.7326958116,
				"y": 0.0824573263,
				"z": 0.5044943246,
				"element": "O" 
			},
			{
				"x": 0.1674272771,
				"y": 3.5028116721,
				"z": 0.2803707119,
				"element": "N" 
			},
			{
				"x": -0.8099487019,
				"y": 4.1059861185,
				"z": 0.7223359123,
				"element": "O" 
			},
			{
				"x": 1.2127228906,
				"y": 4.0331196471,
				"z": -0.087522956,
				"element": "O" 
			},
			{
				"x": -2.2948941,
				"y": -0.796522667,
				"z": -0.0059334639,
				"element": "N" 
			},
			{
				"x": -2.9880271903,
				"y": -0.8564431304,
				"z": 1.004374207,
				"element": "O" 
			},
			{
				"x": -2.558327632,
				"y": -1.3038428761,
				"z": -1.0919067551,
				"element": "O" 
			},
			{
				"x": -0.899205445,
				"y": -2.6697795675,
				"z": 0.3543237259,
				"element": "H" 
			},
			{
				"x": 0.4643889538,
				"y": -2.7027586752,
				"z": -0.7700032218,
				"element": "H" 
			},
			{
				"x": 0.7635655657,
				"y": -2.6951120319,
				"z": 0.9575675198,
				"element": "H" 
			},
			{
				"x": -2.4068278918,
				"y": 2.958226498,
				"z": -0.5707514592,
				"element": "H" 
			},
			{
				"x": -3.2033656277,
				"y": 1.3765471959,
				"z": -0.4945027519,
				"element": "H" 
			},
			{
				"x": -2.8622356134,
				"y": 2.2906864601,
				"z": 0.9849390608,
				"element": "H" 
			},
			{
				"x": 2.2309769626,
				"y": 1.9175583192,
				"z": 0.3158208066,
				"element": "H" 
			},
			{
				"x": 3.7823435593,
				"y": -2.1394008368,
				"z": 0.1102085839,
				"element": "H" 
			}
		],
		 "valence_orbital": [ 
			{
				"type": "occ",
				"energy": -0.31827,
				"method": "rhf"
			},
			{
				"type": "occ",
				"energy": -0.30985,
				"method": "rhf"
			},
			{
				"type": "occ",
				"energy": -0.30518,
				"method": "rhf"
			},
			{
				"type": "occ",
				"energy": -0.29101,
				"method": "rhf"
			},
			{
				"type": "occ",
				"energy": -0.28573,
				"method": "rhf"
			},
			{
				"type": "unocc",
				"energy": -0.10409,
				"method": "rhf"
			},
			{
				"type": "unocc",
				"energy": -0.09471,
				"method": "rhf"
			},
			{
				"type": "unocc",
				"energy": -0.07859,
				"method": "rhf"
			},
			{
				"type": "unocc",
				"energy": -0.03222,
				"method": "rhf"
			},
			{
				"type": "unocc",
				"energy": 0.02264,
				"method": "rhf"
			}
		],
		"cosmo_sigma_profile": { 
			"-0.025": 0.0,
			"-0.024": 0.0,
			"-0.023": 0.0,
			"-0.022": 0.0,
			"-0.021": 0.0,
			"-0.02": 0.0114218331146,
			"-0.019": 0.476851957522,
			"-0.018": 0.932883432651,
			"-0.017": 1.15217202738,
			"-0.016": 0.616205499447,
			"-0.015": 0.620790538004,
			"-0.014": 0.557843976524,
			"-0.013": 0.625644187253,
			"-0.012": 1.04985771858,
			"-0.011": 0.767892387307,
			"-0.01": 0.874253253713,
			"-0.009": 1.34444876132,
			"-0.008": 2.33341023824,
			"-0.007": 5.85343836988,
			"-0.006": 12.6888362991,
			"-0.005": 16.9652020826,
			"-0.004": 20.3622847807,
			"-0.003": 29.6923549601,
			"-0.002": 24.9339201306,
			"-0.001": 13.4221888957,
			"0.0": 8.0037264291,
			"0.001": 10.4028190104,
			"0.002": 8.16184051827,
			"0.003": 9.25617319296,
			"0.004": 7.68917639269,
			"0.005": 8.26168903334,
			"0.006": 15.0336673847,
			"0.007": 18.4923671033,
			"0.008": 10.613033122,
			"0.009": 6.45347008199,
			"0.01": 3.77451347699,
			"0.011": 3.98081655544,
			"0.012": 0.372651809021,
			"0.013": 0.0,
			"0.014": 0.0,
			"0.015": 0.0,
			"0.016": 0.0,
			"0.017": 0.0,
			"0.018": 0.0,
			"0.019": 0.0,
			"0.02": 0.0,
			"0.021": 0.0,
			"0.022": 0.0,
			"0.023": 0.0,
			"0.024": 0.0,
			"0.025": 0.0
		}
	}
}
