{
	 "smiles": "O=C1CCC2CC1CCC2=O", 
	 "Tm": 424.15, 
	 "num_atms": 23, 
	 "gaussian": { 
		 "optdone": 1, 
		 "sigma_profile": "yes", 
		 "theory": "DFT", 
		 "functional": "B3LYP", 
		 "basiset": "6-31G**", 
		 "properties": { 
			 "R2extent": 1925.5579, 
			 "electric_dipole_moment_norm": 1.59412181467, 
			 "electric_quadrupole_moment_norm": 18.2575093531, 
			 "total_energy": -500.631809115, 
			 "HOMO_LUMO_gap": 0.21466, 
			 "cosmo_polarized_energy": -12.72, 
			 "cosmo_cavitation_energy": 23.81, 
			 "cosmo_dispersion_energy": -17.91, 
			 "cosmo_repulsion_energy": 1.44, 
			 "cosmo_total_nonelectrostatic_energy": 7.34, 
			 "SMD_solvation_energy": 4.39 
		},
		"coords": [
			{
				"x": 1.5159635879,
				"y": -0.9303736806,
				"z": 1.9713603437,
				"element": "O" 
			},
			{
				"x": 1.1963537298,
				"y": -1.0456941305,
				"z": 0.804574371,
				"element": "C" 
			},
			{
				"x": 1.2168278843,
				"y": -2.3896499733,
				"z": 0.0783862963,
				"element": "C" 
			},
			{
				"x": 0.1543804264,
				"y": -2.5051941131,
				"z": -1.0307416005,
				"element": "C" 
			},
			{
				"x": 0.1280974797,
				"y": -1.2733495775,
				"z": -2.0085180625,
				"element": "C" 
			},
			{
				"x": 1.0603598416,
				"y": -0.1484590263,
				"z": -1.5226732782,
				"element": "C" 
			},
			{
				"x": 0.7438243494,
				"y": 0.1434942275,
				"z": -0.0443888661,
				"element": "C" 
			},
			{
				"x": -0.7970567517,
				"y": 0.3645081265,
				"z": 0.1816557045,
				"element": "C" 
			},
			{
				"x": -1.6107484338,
				"y": 0.4151994807,
				"z": -1.1251006821,
				"element": "C" 
			},
			{
				"x": -1.3025305481,
				"y": -0.7368164872,
				"z": -2.0799181466,
				"element": "C" 
			},
			{
				"x": -2.1334828799,
				"y": -1.1934863023,
				"z": -2.8400606106,
				"element": "O" 
			},
			{
				"x": 2.2217778291,
				"y": -2.4946110038,
				"z": -0.3551087798,
				"element": "H" 
			},
			{
				"x": 1.1171432097,
				"y": -3.1869144593,
				"z": 0.8200321008,
				"element": "H" 
			},
			{
				"x": -0.8294024631,
				"y": -2.6303524595,
				"z": -0.5635811131,
				"element": "H" 
			},
			{
				"x": 0.3208379113,
				"y": -3.4199237671,
				"z": -1.6056840108,
				"element": "H" 
			},
			{
				"x": 0.3977834419,
				"y": -1.6037573356,
				"z": -3.0155593687,
				"element": "H" 
			},
			{
				"x": 0.9250163016,
				"y": 0.7487556703,
				"z": -2.1367389254,
				"element": "H" 
			},
			{
				"x": 2.111762678,
				"y": -0.4347824931,
				"z": -1.636478642,
				"element": "H" 
			},
			{
				"x": 1.2922122387,
				"y": 1.0199012704,
				"z": 0.3122789182,
				"element": "H" 
			},
			{
				"x": -0.9510796294,
				"y": 1.2873593057,
				"z": 0.7470006055,
				"element": "H" 
			},
			{
				"x": -1.1985841234,
				"y": -0.4350796957,
				"z": 0.8150442202,
				"element": "H" 
			},
			{
				"x": -2.6869888604,
				"y": 0.4284187505,
				"z": -0.9324115005,
				"element": "H" 
			},
			{
				"x": -1.3828672195,
				"y": 1.3421076734,
				"z": -1.6707689733,
				"element": "H" 
			}
		],
		 "valence_orbital": [ 
			{
				"type": "occ",
				"energy": -0.33385,
				"method": "rhf"
			},
			{
				"type": "occ",
				"energy": -0.32744,
				"method": "rhf"
			},
			{
				"type": "occ",
				"energy": -0.32452,
				"method": "rhf"
			},
			{
				"type": "occ",
				"energy": -0.24461,
				"method": "rhf"
			},
			{
				"type": "occ",
				"energy": -0.23862,
				"method": "rhf"
			},
			{
				"type": "unocc",
				"energy": -0.02396,
				"method": "rhf"
			},
			{
				"type": "unocc",
				"energy": -0.01317,
				"method": "rhf"
			},
			{
				"type": "unocc",
				"energy": 0.06105,
				"method": "rhf"
			},
			{
				"type": "unocc",
				"energy": 0.09203,
				"method": "rhf"
			},
			{
				"type": "unocc",
				"energy": 0.09794,
				"method": "rhf"
			}
		],
		"cosmo_sigma_profile": { 
			"-0.025": 0.0,
			"-0.024": 0.0,
			"-0.023": 0.0,
			"-0.022": 0.0,
			"-0.021": 0.0,
			"-0.02": 0.0,
			"-0.019": 0.0,
			"-0.018": 0.0,
			"-0.017": 0.0,
			"-0.016": 0.0,
			"-0.015": 0.0,
			"-0.014": 0.0,
			"-0.013": 0.0,
			"-0.012": 0.0,
			"-0.011": 0.0,
			"-0.01": 0.0,
			"-0.009": 0.0,
			"-0.008": 0.00807587204823,
			"-0.007": 3.782736113,
			"-0.006": 11.2096713584,
			"-0.005": 17.949821386,
			"-0.004": 29.423570454,
			"-0.003": 28.4834181738,
			"-0.002": 21.7414948961,
			"-0.001": 13.9519389249,
			"0.0": 4.31206363906,
			"0.001": 3.83950838729,
			"0.002": 3.78251898373,
			"0.003": 3.02212358928,
			"0.004": 2.38659118883,
			"0.005": 3.32324258647,
			"0.006": 2.6947257241,
			"0.007": 2.59105193182,
			"0.008": 3.08048592359,
			"0.009": 3.15333457918,
			"0.01": 4.04770433945,
			"0.011": 5.50576856497,
			"0.012": 8.96398614462,
			"0.013": 6.51010181288,
			"0.014": 1.19301952248,
			"0.015": 0.0,
			"0.016": 0.0,
			"0.017": 0.0,
			"0.018": 0.0,
			"0.019": 0.0,
			"0.02": 0.0,
			"0.021": 0.0,
			"0.022": 0.0,
			"0.023": 0.0,
			"0.024": 0.0,
			"0.025": 0.0
		}
	}
}
