{
	 "smiles": "NS(=O)(=O)C1=CC(NC(=O)C2=CC=C(Cl)C=C2)=CC=C1", 
	 "Tm": 367.65, 
	 "num_atms": 31, 
	 "gaussian": { 
		 "optdone": 1, 
		 "sigma_profile": "yes", 
		 "theory": "DFT", 
		 "functional": "B3LYP", 
		 "basiset": "6-31G**", 
		 "properties": { 
			 "R2extent": 10296.5142, 
			 "electric_dipole_moment_norm": 3.12316442411, 
			 "electric_quadrupole_moment_norm": 26.8141220127, 
			 "total_energy": -1695.51216638, 
			 "HOMO_LUMO_gap": 0.18597, 
			 "cosmo_polarized_energy": -22.31, 
			 "cosmo_cavitation_energy": 39.56, 
			 "cosmo_dispersion_energy": -28.46, 
			 "cosmo_repulsion_energy": 2.17, 
			 "cosmo_total_nonelectrostatic_energy": 13.27, 
			 "SMD_solvation_energy": 6.58 
		},
		"coords": [
			{
				"x": -2.8424627635,
				"y": 2.7459895112,
				"z": -4.0449627408,
				"element": "N" 
			},
			{
				"x": -1.1542460101,
				"y": 2.730352268,
				"z": -4.2012815016,
				"element": "S" 
			},
			{
				"x": -0.840171553,
				"y": 1.8657569878,
				"z": -5.3426241136,
				"element": "O" 
			},
			{
				"x": -0.6963092931,
				"y": 4.1196051832,
				"z": -4.1148481768,
				"element": "O" 
			},
			{
				"x": -0.6086524836,
				"y": 1.8867489937,
				"z": -2.7134112684,
				"element": "C" 
			},
			{
				"x": -0.4605321494,
				"y": 0.5023785989,
				"z": -2.7470426731,
				"element": "C" 
			},
			{
				"x": -0.031824746,
				"y": -0.170712494,
				"z": -1.5954853974,
				"element": "C" 
			},
			{
				"x": 0.1599232461,
				"y": -1.5699331473,
				"z": -1.673910994,
				"element": "N" 
			},
			{
				"x": 0.1213888911,
				"y": -2.5498740617,
				"z": -0.6901396031,
				"element": "C" 
			},
			{
				"x": 0.7460854215,
				"y": -3.5906208084,
				"z": -0.8511933004,
				"element": "O" 
			},
			{
				"x": -0.7499116029,
				"y": -2.3501321778,
				"z": 0.5129072379,
				"element": "C" 
			},
			{
				"x": -0.3725521252,
				"y": -3.001868963,
				"z": 1.6951030706,
				"element": "C" 
			},
			{
				"x": -1.1656488626,
				"y": -2.9237558511,
				"z": 2.8362055631,
				"element": "C" 
			},
			{
				"x": -2.362963199,
				"y": -2.2081920529,
				"z": 2.7802190937,
				"element": "C" 
			},
			{
				"x": -3.374790136,
				"y": -2.1088969456,
				"z": 4.2101528922,
				"element": "Cl" 
			},
			{
				"x": -2.7750100668,
				"y": -1.5770128059,
				"z": 1.6059535793,
				"element": "C" 
			},
			{
				"x": -1.9622129785,
				"y": -1.64689509,
				"z": 0.4763027838,
				"element": "C" 
			},
			{
				"x": 0.2476477165,
				"y": 0.5659461145,
				"z": -0.4335657215,
				"element": "C" 
			},
			{
				"x": 0.0767672888,
				"y": 1.9492681609,
				"z": -0.4206428987,
				"element": "C" 
			},
			{
				"x": -0.3478451749,
				"y": 2.629500719,
				"z": -1.5623646674,
				"element": "C" 
			},
			{
				"x": -3.1663685938,
				"y": 3.7083780114,
				"z": -3.9923921223,
				"element": "H" 
			},
			{
				"x": -3.2543759709,
				"y": 2.260282417,
				"z": -4.8376347328,
				"element": "H" 
			},
			{
				"x": -0.6632918945,
				"y": -0.0437526913,
				"z": -3.6622394043,
				"element": "H" 
			},
			{
				"x": 0.6353644245,
				"y": -1.9069996859,
				"z": -2.5033414721,
				"element": "H" 
			},
			{
				"x": 0.5470129052,
				"y": -3.5771760609,
				"z": 1.7022743325,
				"element": "H" 
			},
			{
				"x": -0.8690737031,
				"y": -3.4170179638,
				"z": 3.7550275884,
				"element": "H" 
			},
			{
				"x": -3.7184119895,
				"y": -1.0435178233,
				"z": 1.5777277301,
				"element": "H" 
			},
			{
				"x": -2.2871653879,
				"y": -1.1641013734,
				"z": -0.438717652,
				"element": "H" 
			},
			{
				"x": 0.6125261128,
				"y": 0.0573519101,
				"z": 0.4510958373,
				"element": "H" 
			},
			{
				"x": 0.3046533069,
				"y": 2.5048303143,
				"z": 0.4837599551,
				"element": "H" 
			},
			{
				"x": -0.4500486292,
				"y": 3.7083708059,
				"z": -1.5741312238,
				"element": "H" 
			}
		],
		 "valence_orbital": [ 
			{
				"type": "occ",
				"energy": -0.28117,
				"method": "rhf"
			},
			{
				"type": "occ",
				"energy": -0.27771,
				"method": "rhf"
			},
			{
				"type": "occ",
				"energy": -0.27257,
				"method": "rhf"
			},
			{
				"type": "occ",
				"energy": -0.25682,
				"method": "rhf"
			},
			{
				"type": "occ",
				"energy": -0.24591,
				"method": "rhf"
			},
			{
				"type": "unocc",
				"energy": -0.05994,
				"method": "rhf"
			},
			{
				"type": "unocc",
				"energy": -0.04765,
				"method": "rhf"
			},
			{
				"type": "unocc",
				"energy": -0.03028,
				"method": "rhf"
			},
			{
				"type": "unocc",
				"energy": -0.02201,
				"method": "rhf"
			},
			{
				"type": "unocc",
				"energy": 0.01988,
				"method": "rhf"
			}
		],
		"cosmo_sigma_profile": { 
			"-0.025": 0.0,
			"-0.024": 0.0,
			"-0.023": 0.0,
			"-0.022": 0.0,
			"-0.021": 0.0,
			"-0.02": 0.0,
			"-0.019": 0.0,
			"-0.018": 0.0,
			"-0.017": 0.0,
			"-0.016": 0.0315181208737,
			"-0.015": 1.85354025133,
			"-0.014": 3.54845447708,
			"-0.013": 3.98114550726,
			"-0.012": 3.3314450979,
			"-0.011": 2.81570940038,
			"-0.01": 3.41464034538,
			"-0.009": 2.7967970367,
			"-0.008": 5.80284638861,
			"-0.007": 15.0052546296,
			"-0.006": 17.0607227372,
			"-0.005": 16.9843965582,
			"-0.004": 15.5485157017,
			"-0.003": 15.6753147477,
			"-0.002": 16.3248653651,
			"-0.001": 20.9063600826,
			"0.0": 20.5596853696,
			"0.001": 27.9403510007,
			"0.002": 31.6476080797,
			"0.003": 18.7630003399,
			"0.004": 15.6093010682,
			"0.005": 7.11734126671,
			"0.006": 4.35551344453,
			"0.007": 5.35239227849,
			"0.008": 4.67990798028,
			"0.009": 6.01587136027,
			"0.01": 9.39765895863,
			"0.011": 11.8126514176,
			"0.012": 6.66731502823,
			"0.013": 4.00206100604,
			"0.014": 0.188757495408,
			"0.015": 0.0,
			"0.016": 0.0,
			"0.017": 0.0,
			"0.018": 0.0,
			"0.019": 0.0,
			"0.02": 0.0,
			"0.021": 0.0,
			"0.022": 0.0,
			"0.023": 0.0,
			"0.024": 0.0,
			"0.0": 0.0
		}
	}
}
