{
	 "smiles": "COC1=CC=C(C=C1[N+]([O-])=O)C(C)=O", 
	 "Tm": 371.15, 
	 "num_atms": 23, 
	 "gaussian": { 
		 "optdone": 1, 
		 "sigma_profile": "yes", 
		 "theory": "DFT", 
		 "functional": "B3LYP", 
		 "basiset": "6-31G**", 
		 "properties": { 
			 "R2extent": 3537.2288, 
			 "electric_dipole_moment_norm": 3.42710881064, 
			 "electric_quadrupole_moment_norm": 30.5804727272, 
			 "total_energy": -703.911239994, 
			 "HOMO_LUMO_gap": 0.16958, 
			 "cosmo_polarized_energy": -14.97, 
			 "cosmo_cavitation_energy": 28.22, 
			 "cosmo_dispersion_energy": -20.31, 
			 "cosmo_repulsion_energy": 1.6, 
			 "cosmo_total_nonelectrostatic_energy": 9.51, 
			 "SMD_solvation_energy": 8.7 
		},
		"coords": [
			{
				"x": 3.7456031267,
				"y": 0.2658867264,
				"z": 0.9707847003,
				"element": "C" 
			},
			{
				"x": 2.4841848239,
				"y": -0.3367132096,
				"z": 1.2530156114,
				"element": "O" 
			},
			{
				"x": 1.5952902368,
				"y": -0.4932588126,
				"z": 0.2600651787,
				"element": "C" 
			},
			{
				"x": 1.8280515055,
				"y": -0.0814134332,
				"z": -1.0667938841,
				"element": "C" 
			},
			{
				"x": 0.8834230411,
				"y": -0.3003700327,
				"z": -2.057536423,
				"element": "C" 
			},
			{
				"x": -0.3294427252,
				"y": -0.9511096085,
				"z": -1.7807292468,
				"element": "C" 
			},
			{
				"x": -0.5673064323,
				"y": -1.372612877,
				"z": -0.4714480975,
				"element": "C" 
			},
			{
				"x": 0.3646472081,
				"y": -1.1400713921,
				"z": 0.5361447158,
				"element": "C" 
			},
			{
				"x": 0.0019027146,
				"y": -1.5917224454,
				"z": 1.8868451376,
				"element": "N" 
			},
			{
				"x": 0.5235184537,
				"y": -1.0387640134,
				"z": 2.8501096884,
				"element": "O" 
			},
			{
				"x": -0.8365996031,
				"y": -2.4940729148,
				"z": 1.965417544,
				"element": "O" 
			},
			{
				"x": -1.3020524136,
				"y": -1.1616619459,
				"z": -2.8993952273,
				"element": "C" 
			},
			{
				"x": -2.613631297,
				"y": -1.8668306719,
				"z": -2.6055622745,
				"element": "C" 
			},
			{
				"x": -1.036098247,
				"y": -0.7704415262,
				"z": -4.0261075608,
				"element": "O" 
			},
			{
				"x": 4.3101535644,
				"y": -0.314070262,
				"z": 0.2317294024,
				"element": "H" 
			},
			{
				"x": 4.2818136204,
				"y": 0.2682919669,
				"z": 1.9194821184,
				"element": "H" 
			},
			{
				"x": 3.6252065802,
				"y": 1.2962259624,
				"z": 0.6176500688,
				"element": "H" 
			},
			{
				"x": 2.7579473961,
				"y": 0.4119151473,
				"z": -1.3196335493,
				"element": "H" 
			},
			{
				"x": 1.0660610977,
				"y": 0.0247026718,
				"z": -3.0765316185,
				"element": "H" 
			},
			{
				"x": -1.4754997022,
				"y": -1.8913758259,
				"z": -0.1922617403,
				"element": "H" 
			},
			{
				"x": -3.1884045806,
				"y": -1.9335279014,
				"z": -3.5294486887,
				"element": "H" 
			},
			{
				"x": -3.1950193391,
				"y": -1.3199754539,
				"z": -1.8549350593,
				"element": "H" 
			},
			{
				"x": -2.4396490292,
				"y": -2.8744301484,
				"z": -2.211960796,
				"element": "H" 
			}
		],
		 "valence_orbital": [ 
			{
				"type": "occ",
				"energy": -0.30373,
				"method": "rhf"
			},
			{
				"type": "occ",
				"energy": -0.29422,
				"method": "rhf"
			},
			{
				"type": "occ",
				"energy": -0.279,
				"method": "rhf"
			},
			{
				"type": "occ",
				"energy": -0.25789,
				"method": "rhf"
			},
			{
				"type": "occ",
				"energy": -0.2546,
				"method": "rhf"
			},
			{
				"type": "unocc",
				"energy": -0.08502,
				"method": "rhf"
			},
			{
				"type": "unocc",
				"energy": -0.06284,
				"method": "rhf"
			},
			{
				"type": "unocc",
				"energy": -0.01426,
				"method": "rhf"
			},
			{
				"type": "unocc",
				"energy": 0.03409,
				"method": "rhf"
			},
			{
				"type": "unocc",
				"energy": 0.06652,
				"method": "rhf"
			}
		],
		"cosmo_sigma_profile": { 
			"-0.025": 0.0,
			"-0.024": 0.0,
			"-0.023": 0.0,
			"-0.022": 0.0,
			"-0.021": 0.0,
			"-0.02": 0.0,
			"-0.019": 0.0,
			"-0.018": 0.0,
			"-0.017": 0.0,
			"-0.016": 0.0,
			"-0.015": 0.0,
			"-0.014": 0.0,
			"-0.013": 0.0,
			"-0.012": 0.0,
			"-0.011": 0.0,
			"-0.01": 0.0,
			"-0.009": 0.450008915221,
			"-0.008": 4.35273829407,
			"-0.007": 14.3169944269,
			"-0.006": 20.5737865974,
			"-0.005": 17.2360953376,
			"-0.004": 19.2360193498,
			"-0.003": 13.2723717003,
			"-0.002": 17.1806879802,
			"-0.001": 18.1870397203,
			"0.0": 16.4177474265,
			"0.001": 13.3043122402,
			"0.002": 7.14614486509,
			"0.003": 5.042682232,
			"0.004": 5.09288729471,
			"0.005": 4.66864219383,
			"0.006": 4.64031970067,
			"0.007": 7.631795418,
			"0.008": 11.6387992326,
			"0.009": 8.06849075677,
			"0.01": 6.8435607877,
			"0.011": 5.06526485951,
			"0.012": 3.65992654491,
			"0.013": 1.23379257337,
			"0.014": 0.055132454369,
			"0.015": 0.0,
			"0.016": 0.0,
			"0.017": 0.0,
			"0.018": 0.0,
			"0.019": 0.0,
			"0.02": 0.0,
			"0.021": 0.0,
			"0.022": 0.0,
			"0.023": 0.0,
			"0.024": 0.0,
			"0.025": 0.0
		}
	}
}
