{
	 "smiles": "CSC1=NC(N)=NC(=N1)C(C)C", 
	 "Tm": 401.15, 
	 "num_atms": 24, 
	 "gaussian": { 
		 "optdone": 1, 
		 "sigma_profile": "yes", 
		 "theory": "DFT", 
		 "functional": "B3LYP", 
		 "basiset": "6-31G**", 
		 "properties": { 
			 "R2extent": 3209.8009, 
			 "electric_dipole_moment_norm": 1.52867381413, 
			 "electric_quadrupole_moment_norm": 11.7619578162, 
			 "total_energy": -891.212356448, 
			 "HOMO_LUMO_gap": 0.20411, 
			 "cosmo_polarized_energy": -10.77, 
			 "cosmo_cavitation_energy": 29.1, 
			 "cosmo_dispersion_energy": -21.41, 
			 "cosmo_repulsion_energy": 1.73, 
			 "cosmo_total_nonelectrostatic_energy": 9.43, 
			 "SMD_solvation_energy": 1.73 
		},
		"coords": [
			{
				"x": 1.3239624747,
				"y": -3.1985743441,
				"z": -2.9119838844,
				"element": "C" 
			},
			{
				"x": 2.6989884425,
				"y": -2.3434397258,
				"z": -2.0703127858,
				"element": "S" 
			},
			{
				"x": 1.8280994752,
				"y": -1.1952526566,
				"z": -1.0428166249,
				"element": "C" 
			},
			{
				"x": 2.6165858154,
				"y": -0.4217239144,
				"z": -0.2967767932,
				"element": "N" 
			},
			{
				"x": 1.945056721,
				"y": 0.4470378222,
				"z": 0.4805966766,
				"element": "C" 
			},
			{
				"x": 2.6768727091,
				"y": 1.2714273518,
				"z": 1.2626946348,
				"element": "N" 
			},
			{
				"x": 0.6021332606,
				"y": 0.5675130791,
				"z": 0.5428913888,
				"element": "N" 
			},
			{
				"x": -0.0698592168,
				"y": -0.2649729302,
				"z": -0.2537022751,
				"element": "C" 
			},
			{
				"x": 0.4884412135,
				"y": -1.1732776932,
				"z": -1.0742563871,
				"element": "N" 
			},
			{
				"x": -1.5836329112,
				"y": -0.1844129183,
				"z": -0.2312369465,
				"element": "C" 
			},
			{
				"x": -2.0608971326,
				"y": 1.2112834532,
				"z": -0.6709292631,
				"element": "C" 
			},
			{
				"x": -2.1228095039,
				"y": -0.5443587324,
				"z": 1.1652232721,
				"element": "C" 
			},
			{
				"x": 0.7313674202,
				"y": -2.4954962045,
				"z": -3.4972801506,
				"element": "H" 
			},
			{
				"x": 1.7931060145,
				"y": -3.9323037847,
				"z": -3.5712974401,
				"element": "H" 
			},
			{
				"x": 0.6815523126,
				"y": -3.7022867287,
				"z": -2.1897297787,
				"element": "H" 
			},
			{
				"x": 2.2052242925,
				"y": 1.9114144004,
				"z": 1.8788214763,
				"element": "H" 
			},
			{
				"x": 3.6795060443,
				"y": 1.1886846646,
				"z": 1.2645591886,
				"element": "H" 
			},
			{
				"x": -1.9372839622,
				"y": -0.9277790713,
				"z": -0.9528767177,
				"element": "H" 
			},
			{
				"x": -1.6807798007,
				"y": 1.9779390092,
				"z": 0.0103660271,
				"element": "H" 
			},
			{
				"x": -1.7142841223,
				"y": 1.451487301,
				"z": -1.6813201345,
				"element": "H" 
			},
			{
				"x": -3.1549361823,
				"y": 1.2561801974,
				"z": -0.6689571337,
				"element": "H" 
			},
			{
				"x": -1.7455626322,
				"y": 0.1584535868,
				"z": 1.9138064492,
				"element": "H" 
			},
			{
				"x": -3.2170190395,
				"y": -0.5041331195,
				"z": 1.1716068974,
				"element": "H" 
			},
			{
				"x": -1.8196316925,
				"y": -1.5537090417,
				"z": 1.4619103045,
				"element": "H" 
			}
		],
		 "valence_orbital": [ 
			{
				"type": "occ",
				"energy": -0.3091,
				"method": "rhf"
			},
			{
				"type": "occ",
				"energy": -0.26035,
				"method": "rhf"
			},
			{
				"type": "occ",
				"energy": -0.25781,
				"method": "rhf"
			},
			{
				"type": "occ",
				"energy": -0.25036,
				"method": "rhf"
			},
			{
				"type": "occ",
				"energy": -0.23228,
				"method": "rhf"
			},
			{
				"type": "unocc",
				"energy": -0.02817,
				"method": "rhf"
			},
			{
				"type": "unocc",
				"energy": -0.00511,
				"method": "rhf"
			},
			{
				"type": "unocc",
				"energy": 0.04168,
				"method": "rhf"
			},
			{
				"type": "unocc",
				"energy": 0.08471,
				"method": "rhf"
			},
			{
				"type": "unocc",
				"energy": 0.0933,
				"method": "rhf"
			}
		],
		"cosmo_sigma_profile": { 
			"-0.025": 0.0,
			"-0.024": 0.0,
			"-0.023": 0.0,
			"-0.022": 0.0,
			"-0.021": 0.0,
			"-0.02": 0.0,
			"-0.019": 0.0,
			"-0.018": 0.0,
			"-0.017": 0.0,
			"-0.016": 0.0,
			"-0.015": 0.443361152203,
			"-0.014": 2.20730891167,
			"-0.013": 2.44693607501,
			"-0.012": 1.56303210481,
			"-0.011": 2.01973775026,
			"-0.01": 2.17541598606,
			"-0.009": 1.18518930092,
			"-0.008": 1.84549545623,
			"-0.007": 3.28856144124,
			"-0.006": 4.96447337736,
			"-0.005": 6.24676836036,
			"-0.004": 8.45151459829,
			"-0.003": 19.9002879126,
			"-0.002": 27.6000243286,
			"-0.001": 25.2472943472,
			"0.0": 23.8260505145,
			"0.001": 22.8894484012,
			"0.002": 12.4744960962,
			"0.003": 9.89075454433,
			"0.004": 11.4672185413,
			"0.005": 9.9872107977,
			"0.006": 8.69795070453,
			"0.007": 6.98275755112,
			"0.008": 5.1983119301,
			"0.009": 3.9630589775,
			"0.01": 2.47457967888,
			"0.011": 1.8908445526,
			"0.012": 1.10947819659,
			"0.013": 0.549178344266,
			"0.014": 0.00199001144691,
			"0.015": 0.0,
			"0.016": 0.0,
			"0.017": 0.0,
			"0.018": 0.0,
			"0.019": 0.0,
			"0.02": 0.0,
			"0.021": 0.0,
			"0.022": 0.0,
			"0.023": 0.0,
			"0.024": 0.0,
			"0.025": 0.0
		}
	}
}
