{
	 "smiles": "CC(C)(C)OC(=O)NC(CC1=CC=CN=C1)C(O)=O", 
	 "Tm": 410.15, 
	 "num_atms": 37, 
	 "gaussian": { 
		 "optdone": 1, 
		 "sigma_profile": "yes", 
		 "theory": "DFT", 
		 "functional": "B3LYP", 
		 "basiset": "6-31G**", 
		 "properties": { 
			 "R2extent": 6189.4671, 
			 "electric_dipole_moment_norm": 1.47374022473, 
			 "electric_quadrupole_moment_norm": 22.9026469586, 
			 "total_energy": -916.673272368, 
			 "HOMO_LUMO_gap": 0.22179, 
			 "cosmo_polarized_energy": -20.36, 
			 "cosmo_cavitation_energy": 40.2, 
			 "cosmo_dispersion_energy": -26.46, 
			 "cosmo_repulsion_energy": 2.05, 
			 "cosmo_total_nonelectrostatic_energy": 15.79, 
			 "SMD_solvation_energy": 6.71 
		},
		"coords": [
			{
				"x": -0.5184821321,
				"y": 1.5439574969,
				"z": 3.0088229834,
				"element": "C" 
			},
			{
				"x": 0.2129955473,
				"y": 0.2090090835,
				"z": 3.1696519565,
				"element": "C" 
			},
			{
				"x": -0.5928934412,
				"y": -0.7508843042,
				"z": 4.0506795638,
				"element": "C" 
			},
			{
				"x": 1.6375790751,
				"y": 0.4268399087,
				"z": 3.688460571,
				"element": "C" 
			},
			{
				"x": 0.2560958232,
				"y": -0.3025713975,
				"z": 1.7861295567,
				"element": "O" 
			},
			{
				"x": 0.7892138162,
				"y": -1.5143053406,
				"z": 1.5144983458,
				"element": "C" 
			},
			{
				"x": 1.3654456696,
				"y": -2.2480390312,
				"z": 2.2962950294,
				"element": "O" 
			},
			{
				"x": 0.6417062255,
				"y": -1.8212517146,
				"z": 0.1759496631,
				"element": "N" 
			},
			{
				"x": -0.2973611249,
				"y": -1.1723381183,
				"z": -0.7254325509,
				"element": "C" 
			},
			{
				"x": 0.1609370429,
				"y": 0.2509739681,
				"z": -1.1599412377,
				"element": "C" 
			},
			{
				"x": -0.2979849308,
				"y": 0.6727365015,
				"z": -2.5385015987,
				"element": "C" 
			},
			{
				"x": 0.2154170283,
				"y": 0.07820365,
				"z": -3.6969961084,
				"element": "C" 
			},
			{
				"x": -0.2249465945,
				"y": 0.5120916896,
				"z": -4.9455739864,
				"element": "C" 
			},
			{
				"x": -1.166623016,
				"y": 1.5406376175,
				"z": -4.9970785272,
				"element": "C" 
			},
			{
				"x": -1.6676036868,
				"y": 2.1331696593,
				"z": -3.9064132554,
				"element": "N" 
			},
			{
				"x": -1.2354640241,
				"y": 1.6987123349,
				"z": -2.7179916888,
				"element": "C" 
			},
			{
				"x": -1.7285939882,
				"y": -1.2411809477,
				"z": -0.1643673612,
				"element": "C" 
			},
			{
				"x": -2.5541289344,
				"y": -0.3531155798,
				"z": -0.7591190348,
				"element": "O" 
			},
			{
				"x": -2.1024534883,
				"y": -2.024718475,
				"z": 0.6769435802,
				"element": "O" 
			},
			{
				"x": -0.618144757,
				"y": 2.0354081345,
				"z": 3.9810592351,
				"element": "H" 
			},
			{
				"x": 0.0340994301,
				"y": 2.211752971,
				"z": 2.3410334994,
				"element": "H" 
			},
			{
				"x": -1.5198342358,
				"y": 1.3897426545,
				"z": 2.596086576,
				"element": "H" 
			},
			{
				"x": -0.0702168043,
				"y": -1.6992078852,
				"z": 4.1766951355,
				"element": "H" 
			},
			{
				"x": -0.7494799366,
				"y": -0.2991107483,
				"z": 5.0356160385,
				"element": "H" 
			},
			{
				"x": -1.5703340494,
				"y": -0.9464413948,
				"z": 3.599727416,
				"element": "H" 
			},
			{
				"x": 2.1686763513,
				"y": -0.5209856986,
				"z": 3.7759179334,
				"element": "H" 
			},
			{
				"x": 2.1929741393,
				"y": 1.0850996795,
				"z": 3.0127339043,
				"element": "H" 
			},
			{
				"x": 1.5994102182,
				"y": 0.9049411736,
				"z": 4.6727540432,
				"element": "H" 
			},
			{
				"x": 0.8472367015,
				"y": -2.7941589107,
				"z": 0.0020487923,
				"element": "H" 
			},
			{
				"x": -0.3187344269,
				"y": -1.7940521007,
				"z": -1.629390505,
				"element": "H" 
			},
			{
				"x": 1.2553131931,
				"y": 0.2284950577,
				"z": -1.1360499502,
				"element": "H" 
			},
			{
				"x": -0.1558270924,
				"y": 0.9808135578,
				"z": -0.4131911807,
				"element": "H" 
			},
			{
				"x": 0.9606324285,
				"y": -0.7115487165,
				"z": -3.6236407846,
				"element": "H" 
			},
			{
				"x": 0.1578669735,
				"y": 0.0703380084,
				"z": -5.8604896533,
				"element": "H" 
			},
			{
				"x": -1.5315322463,
				"y": 1.9073023212,
				"z": -5.9550481701,
				"element": "H" 
			},
			{
				"x": -1.6603939353,
				"y": 2.1915127655,
				"z": -1.8449997203,
				"element": "H" 
			},
			{
				"x": -3.4364668183,
				"y": -0.5014278703,
				"z": -0.3781785099,
				"element": "H" 
			}
		],
		 "valence_orbital": [ 
			{
				"type": "occ",
				"energy": -0.28269,
				"method": "rhf"
			},
			{
				"type": "occ",
				"energy": -0.26964,
				"method": "rhf"
			},
			{
				"type": "occ",
				"energy": -0.26412,
				"method": "rhf"
			},
			{
				"type": "occ",
				"energy": -0.2538,
				"method": "rhf"
			},
			{
				"type": "occ",
				"energy": -0.25032,
				"method": "rhf"
			},
			{
				"type": "unocc",
				"energy": -0.02853,
				"method": "rhf"
			},
			{
				"type": "unocc",
				"energy": -0.01256,
				"method": "rhf"
			},
			{
				"type": "unocc",
				"energy": -0.00022,
				"method": "rhf"
			},
			{
				"type": "unocc",
				"energy": 0.04468,
				"method": "rhf"
			},
			{
				"type": "unocc",
				"energy": 0.06848,
				"method": "rhf"
			}
		],
		"cosmo_sigma_profile": { 
			"-0.025": 0.0,
			"-0.024": 0.0,
			"-0.023": 0.0,
			"-0.022": 0.0,
			"-0.021": 0.0,
			"-0.02": 0.0,
			"-0.019": 0.276581276414,
			"-0.018": 0.920758171687,
			"-0.017": 0.874821786384,
			"-0.016": 0.739120041601,
			"-0.015": 0.890990307435,
			"-0.014": 1.54321670147,
			"-0.013": 2.29218547945,
			"-0.012": 2.61754704929,
			"-0.011": 1.62820362215,
			"-0.01": 2.00754506052,
			"-0.009": 3.16694995242,
			"-0.008": 3.83673942764,
			"-0.007": 7.10649186277,
			"-0.006": 9.48660926273,
			"-0.005": 14.9856983553,
			"-0.004": 22.8694754182,
			"-0.003": 23.3392948434,
			"-0.002": 24.7099317144,
			"-0.001": 27.5254631872,
			"0.0": 33.8664769461,
			"0.001": 27.4626586947,
			"0.002": 18.4304733813,
			"0.003": 18.9709887176,
			"0.004": 12.1010039897,
			"0.005": 7.86570602848,
			"0.006": 7.0204134686,
			"0.007": 5.77464002306,
			"0.008": 3.81048728655,
			"0.009": 5.13102961453,
			"0.01": 4.60383035036,
			"0.011": 6.13385642551,
			"0.012": 4.79350475899,
			"0.013": 4.54226749359,
			"0.014": 1.86781020555,
			"0.015": 0.763719514236,
			"0.016": 0.979941350499,
			"0.017": 0.550366030631,
			"0.018": 0.0406309235048,
			"0.019": 0.0,
			"0.02": 0.0,
			"0.021": 0.0,
			"0.022": 0.0,
			"0.023": 0.0,
			"0.024": 0.0,
			"0.025": 0.0
		}
	}
}
