{
	 "smiles": "CC(Cl)C(=O)NC1=C(Cl)C=CC(=C1)[N+]([O-])=O", 
	 "Tm": 394.15, 
	 "num_atms": 24, 
	 "gaussian": { 
		 "optdone": 1, 
		 "sigma_profile": "yes", 
		 "theory": "DFT", 
		 "functional": "B3LYP", 
		 "basiset": "6-31G**", 
		 "properties": { 
			 "R2extent": 4742.2752, 
			 "electric_dipole_moment_norm": 4.10509371026, 
			 "electric_quadrupole_moment_norm": 17.9191302334, 
			 "total_energy": -1603.24480344, 
			 "HOMO_LUMO_gap": 0.15777, 
			 "cosmo_polarized_energy": -14.25, 
			 "cosmo_cavitation_energy": 32.27, 
			 "cosmo_dispersion_energy": -22.65, 
			 "cosmo_repulsion_energy": 1.77, 
			 "cosmo_total_nonelectrostatic_energy": 11.39, 
			 "SMD_solvation_energy": 7.92 
		},
		"coords": [
			{
				"x": 0.4435824277,
				"y": -1.7142348923,
				"z": -1.8966282877,
				"element": "C" 
			},
			{
				"x": -0.9588729257,
				"y": -1.3363496014,
				"z": -2.3568591007,
				"element": "C" 
			},
			{
				"x": -2.2460202786,
				"y": -2.195758636,
				"z": -1.3757414799,
				"element": "Cl" 
			},
			{
				"x": -1.2790437939,
				"y": 0.161343944,
				"z": -2.4655968293,
				"element": "C" 
			},
			{
				"x": -1.7531404906,
				"y": 0.5821385157,
				"z": -3.5081055667,
				"element": "O" 
			},
			{
				"x": -0.9855985089,
				"y": 1.0785672605,
				"z": -1.4630686597,
				"element": "N" 
			},
			{
				"x": -0.4404875016,
				"y": 1.0261369927,
				"z": -0.1697300461,
				"element": "C" 
			},
			{
				"x": 0.4296538759,
				"y": 2.0604492505,
				"z": 0.2468321298,
				"element": "C" 
			},
			{
				"x": 0.8543029095,
				"y": 3.3413566859,
				"z": -0.8699368774,
				"element": "Cl" 
			},
			{
				"x": 0.9617677403,
				"y": 2.1006109704,
				"z": 1.5348078814,
				"element": "C" 
			},
			{
				"x": 0.6508464256,
				"y": 1.1002400578,
				"z": 2.449014309,
				"element": "C" 
			},
			{
				"x": -0.2142160683,
				"y": 0.0895665153,
				"z": 2.0411296739,
				"element": "C" 
			},
			{
				"x": -0.7764111353,
				"y": 0.04403219,
				"z": 0.7700324473,
				"element": "C" 
			},
			{
				"x": -0.5758269148,
				"y": -0.9659023252,
				"z": 3.0058512019,
				"element": "N" 
			},
			{
				"x": -0.0740519185,
				"y": -0.9010280563,
				"z": 4.1270137915,
				"element": "O" 
			},
			{
				"x": -1.3514421811,
				"y": -1.8412620883,
				"z": 2.6290605271,
				"element": "O" 
			},
			{
				"x": 0.5862035193,
				"y": -2.7918362734,
				"z": -2.004649402,
				"element": "H" 
			},
			{
				"x": 0.6378614824,
				"y": -1.4448052231,
				"z": -0.8585447691,
				"element": "H" 
			},
			{
				"x": 1.1766037173,
				"y": -1.2057170224,
				"z": -2.5329948291,
				"element": "H" 
			},
			{
				"x": -1.1297082519,
				"y": -1.6937659605,
				"z": -3.3710435887,
				"element": "H" 
			},
			{
				"x": -1.1166555772,
				"y": 2.0153147331,
				"z": -1.8304089271,
				"element": "H" 
			},
			{
				"x": 1.6251319292,
				"y": 2.9125567808,
				"z": 1.8092950318,
				"element": "H" 
			},
			{
				"x": 1.055560512,
				"y": 1.0958615045,
				"z": 3.4524809086,
				"element": "H" 
			},
			{
				"x": -1.4740389927,
				"y": -0.7453153223,
				"z": 0.5253904611,
				"element": "H" 
			}
		],
		 "valence_orbital": [ 
			{
				"type": "occ",
				"energy": -0.31354,
				"method": "rhf"
			},
			{
				"type": "occ",
				"energy": -0.30222,
				"method": "rhf"
			},
			{
				"type": "occ",
				"energy": -0.29045,
				"method": "rhf"
			},
			{
				"type": "occ",
				"energy": -0.28067,
				"method": "rhf"
			},
			{
				"type": "occ",
				"energy": -0.26059,
				"method": "rhf"
			},
			{
				"type": "unocc",
				"energy": -0.10282,
				"method": "rhf"
			},
			{
				"type": "unocc",
				"energy": -0.05827,
				"method": "rhf"
			},
			{
				"type": "unocc",
				"energy": -0.03131,
				"method": "rhf"
			},
			{
				"type": "unocc",
				"energy": -0.01502,
				"method": "rhf"
			},
			{
				"type": "unocc",
				"energy": -0.0015,
				"method": "rhf"
			}
		],
		"cosmo_sigma_profile": { 
			"-0.025": 0.0,
			"-0.024": 0.0,
			"-0.023": 0.0,
			"-0.022": 0.0,
			"-0.021": 0.0,
			"-0.02": 0.0,
			"-0.019": 0.0,
			"-0.018": 0.0,
			"-0.017": 0.0,
			"-0.016": 0.0,
			"-0.015": 0.0,
			"-0.014": 0.0,
			"-0.013": 0.591092921558,
			"-0.012": 0.691462423138,
			"-0.011": 1.03607142217,
			"-0.01": 1.28706435891,
			"-0.009": 2.99020585876,
			"-0.008": 6.42955184648,
			"-0.007": 9.70760129766,
			"-0.006": 11.0001741237,
			"-0.005": 14.6377606955,
			"-0.004": 16.4890139579,
			"-0.003": 20.0179340087,
			"-0.002": 24.9433670042,
			"-0.001": 27.6232236956,
			"0.0": 20.9011339372,
			"0.001": 14.7518979249,
			"0.002": 14.0229515487,
			"0.003": 13.7502992581,
			"0.004": 9.84992260241,
			"0.005": 10.8578875021,
			"0.006": 6.51149471185,
			"0.007": 10.1990795522,
			"0.008": 7.09269708325,
			"0.009": 5.16220809597,
			"0.01": 3.66657210349,
			"0.011": 3.80544846359,
			"0.012": 4.31365699165,
			"0.013": 0.404845163135,
			"0.014": 0.0,
			"0.015": 0.0,
			"0.016": 0.0,
			"0.017": 0.0,
			"0.018": 0.0,
			"0.019": 0.0,
			"0.02": 0.0,
			"0.021": 0.0,
			"0.022": 0.0,
			"0.023": 0.0,
			"0.024": 0.0,
			"0.025": 0.0
		}
	}
}
