{
	 "smiles": "CCOC(=O)C1=C(N)SC=C1C1=CC=C(C=C1)C1=CC=CC=C1", 
	 "Tm": 429.15, 
	 "num_atms": 40, 
	 "gaussian": { 
		 "optdone": 1, 
		 "sigma_profile": "yes", 
		 "theory": "DFT", 
		 "functional": "B3LYP", 
		 "basiset": "6-31G**", 
		 "properties": { 
			 "R2extent": 11398.6722, 
			 "electric_dipole_moment_norm": 0.562028513512, 
			 "electric_quadrupole_moment_norm": 12.4330703573, 
			 "total_energy": -1337.67754101, 
			 "HOMO_LUMO_gap": 0.16567, 
			 "cosmo_polarized_energy": -12.71, 
			 "cosmo_cavitation_energy": 45.44, 
			 "cosmo_dispersion_energy": -32.09, 
			 "cosmo_repulsion_energy": 2.4, 
			 "cosmo_total_nonelectrostatic_energy": 15.76, 
			 "SMD_solvation_energy": 7.93 
		},
		"coords": [
			{
				"x": 4.1206356225,
				"y": -0.0646598844,
				"z": 0.9489727129,
				"element": "C" 
			},
			{
				"x": 2.9490883471,
				"y": 0.7549581282,
				"z": 1.4701365899,
				"element": "C" 
			},
			{
				"x": 1.7963126803,
				"y": -0.0749734609,
				"z": 1.7377424728,
				"element": "O" 
			},
			{
				"x": 1.7486557654,
				"y": -0.6866414373,
				"z": 2.939337511,
				"element": "C" 
			},
			{
				"x": 2.6400684839,
				"y": -0.5461996097,
				"z": 3.7802110095,
				"element": "O" 
			},
			{
				"x": 0.5478767657,
				"y": -1.4916715108,
				"z": 3.1505836467,
				"element": "C" 
			},
			{
				"x": 0.3096711375,
				"y": -2.0138182954,
				"z": 4.4275966047,
				"element": "C" 
			},
			{
				"x": 1.0852364298,
				"y": -1.8674463794,
				"z": 5.5292821847,
				"element": "N" 
			},
			{
				"x": -1.2292061899,
				"y": -2.838452452,
				"z": 4.5116338235,
				"element": "S" 
			},
			{
				"x": -1.5452476146,
				"y": -2.4934468002,
				"z": 2.8236681878,
				"element": "C" 
			},
			{
				"x": -0.5400510523,
				"y": -1.790994799,
				"z": 2.2273777412,
				"element": "C" 
			},
			{
				"x": -0.6178431427,
				"y": -1.4757114258,
				"z": 0.7775146368,
				"element": "C" 
			},
			{
				"x": 0.3724040157,
				"y": -1.8963437337,
				"z": -0.1245984171,
				"element": "C" 
			},
			{
				"x": 0.2410116029,
				"y": -1.6648336955,
				"z": -1.4890721044,
				"element": "C" 
			},
			{
				"x": -0.8841118034,
				"y": -1.0021765205,
				"z": -2.0124634737,
				"element": "C" 
			},
			{
				"x": -1.8730983828,
				"y": -0.5848383795,
				"z": -1.108385033,
				"element": "C" 
			},
			{
				"x": -1.7429067682,
				"y": -0.8184748567,
				"z": 0.2592923374,
				"element": "C" 
			},
			{
				"x": -1.0199105386,
				"y": -0.7539017277,
				"z": -3.4699209476,
				"element": "C" 
			},
			{
				"x": -0.5890597319,
				"y": -1.7066920024,
				"z": -4.4094985001,
				"element": "C" 
			},
			{
				"x": -0.7166530113,
				"y": -1.4736407516,
				"z": -5.7781011777,
				"element": "C" 
			},
			{
				"x": -1.2799220116,
				"y": -0.2824145849,
				"z": -6.2397955042,
				"element": "C" 
			},
			{
				"x": -1.7133339812,
				"y": 0.673531683,
				"z": -5.3190634939,
				"element": "C" 
			},
			{
				"x": -1.5837089487,
				"y": 0.4407887441,
				"z": -3.9505887209,
				"element": "C" 
			},
			{
				"x": 4.469407432,
				"y": -0.7637634864,
				"z": 1.7127951737,
				"element": "H" 
			},
			{
				"x": 3.834479077,
				"y": -0.6262880241,
				"z": 0.0548299316,
				"element": "H" 
			},
			{
				"x": 4.9509285479,
				"y": 0.5993926089,
				"z": 0.685588688,
				"element": "H" 
			},
			{
				"x": 2.5963561191,
				"y": 1.466718968,
				"z": 0.7200442955,
				"element": "H" 
			},
			{
				"x": 3.219689527,
				"y": 1.291403478,
				"z": 2.3824840477,
				"element": "H" 
			},
			{
				"x": 0.9385665686,
				"y": -2.4511234786,
				"z": 6.3361326334,
				"element": "H" 
			},
			{
				"x": 1.9970376519,
				"y": -1.4553059303,
				"z": 5.3514336692,
				"element": "H" 
			},
			{
				"x": -2.43334595,
				"y": -2.8949150736,
				"z": 2.3582360043,
				"element": "H" 
			},
			{
				"x": 1.2523243776,
				"y": -2.4085785753,
				"z": 0.2506626424,
				"element": "H" 
			},
			{
				"x": 1.032108738,
				"y": -1.9843758337,
				"z": -2.161251505,
				"element": "H" 
			},
			{
				"x": -2.7658178981,
				"y": -0.0914072094,
				"z": -1.4814206033,
				"element": "H" 
			},
			{
				"x": -2.5202687214,
				"y": -0.4845886474,
				"z": 0.9402369045,
				"element": "H" 
			},
			{
				"x": -0.1746065729,
				"y": -2.6484113833,
				"z": -4.061734595,
				"element": "H" 
			},
			{
				"x": -0.3837495523,
				"y": -2.2285101653,
				"z": -6.4851056946,
				"element": "H" 
			},
			{
				"x": -1.3800205553,
				"y": -0.1009452064,
				"z": -7.3060059417,
				"element": "H" 
			},
			{
				"x": -2.1453757023,
				"y": 1.6078677239,
				"z": -5.6667178517,
				"element": "H" 
			},
			{
				"x": -1.8990207602,
				"y": 1.2028839871,
				"z": -3.2439698853,
				"element": "H" 
			}
		],
		 "valence_orbital": [ 
			{
				"type": "occ",
				"energy": -0.25121,
				"method": "rhf"
			},
			{
				"type": "occ",
				"energy": -0.24809,
				"method": "rhf"
			},
			{
				"type": "occ",
				"energy": -0.24577,
				"method": "rhf"
			},
			{
				"type": "occ",
				"energy": -0.21845,
				"method": "rhf"
			},
			{
				"type": "occ",
				"energy": -0.19547,
				"method": "rhf"
			},
			{
				"type": "unocc",
				"energy": -0.0298,
				"method": "rhf"
			},
			{
				"type": "unocc",
				"energy": -0.01666,
				"method": "rhf"
			},
			{
				"type": "unocc",
				"energy": -0.00087,
				"method": "rhf"
			},
			{
				"type": "unocc",
				"energy": 0.0036,
				"method": "rhf"
			},
			{
				"type": "unocc",
				"energy": 0.01041,
				"method": "rhf"
			}
		],
		"cosmo_sigma_profile": { 
			"-0.025": 0.0,
			"-0.024": 0.0,
			"-0.023": 0.0,
			"-0.022": 0.0,
			"-0.021": 0.0,
			"-0.02": 0.0,
			"-0.019": 0.0,
			"-0.018": 0.0,
			"-0.017": 0.0,
			"-0.016": 0.0,
			"-0.015": 0.743188163874,
			"-0.014": 1.49795494622,
			"-0.013": 1.43673512282,
			"-0.012": 0.870499671354,
			"-0.011": 1.43994989566,
			"-0.01": 1.25201430222,
			"-0.009": 2.75453316346,
			"-0.008": 2.64549687429,
			"-0.007": 4.07351737285,
			"-0.006": 8.32025568888,
			"-0.005": 25.2690143844,
			"-0.004": 29.2345411051,
			"-0.003": 33.7904656313,
			"-0.002": 28.6464833787,
			"-0.001": 26.6249971395,
			"0.0": 27.3158078375,
			"0.001": 25.9053944517,
			"0.002": 27.9370277399,
			"0.003": 32.411696909,
			"0.004": 29.6664621381,
			"0.005": 24.0666532036,
			"0.006": 13.1767210866,
			"0.007": 4.77833230694,
			"0.008": 3.25382639768,
			"0.009": 2.6805010711,
			"0.01": 1.70171901001,
			"0.011": 1.70602987373,
			"0.012": 1.49029751308,
			"0.013": 0.271819723474,
			"0.014": 0.0,
			"0.015": 0.0,
			"0.016": 0.0,
			"0.017": 0.0,
			"0.018": 0.0,
			"0.019": 0.0,
			"0.02": 0.0,
			"0.021": 0.0,
			"0.022": 0.0,
			"0.023": 0.0,
			"0.024": 0.0,
			"0.025": 0.0
		}
	}
}
