{
	 "smiles": "ClC1=C(C#N)N2C=CSC2=N1", 
	 "Tm": 448.15, 
	 "num_atms": 13, 
	 "gaussian": { 
		 "optdone": 1, 
		 "sigma_profile": "yes", 
		 "theory": "DFT", 
		 "functional": "B3LYP", 
		 "basiset": "6-31G**", 
		 "properties": { 
			 "R2extent": 2303.2449, 
			 "electric_dipole_moment_norm": 5.23626537334, 
			 "electric_quadrupole_moment_norm": 12.7318793947, 
			 "total_energy": -1252.42345152, 
			 "HOMO_LUMO_gap": 0.18936, 
			 "cosmo_polarized_energy": -11.95, 
			 "cosmo_cavitation_energy": 22.85, 
			 "cosmo_dispersion_energy": -17.12, 
			 "cosmo_repulsion_energy": 1.32, 
			 "cosmo_total_nonelectrostatic_energy": 7.05, 
			 "SMD_solvation_energy": 3.48 
		},
		"coords": [
			{
				"x": 0.2694423553,
				"y": -2.6795161101,
				"z": 2.2020182754,
				"element": "Cl" 
			},
			{
				"x": 0.0203215864,
				"y": -1.4758997747,
				"z": 0.9972953639,
				"element": "C" 
			},
			{
				"x": -0.807221609,
				"y": -0.3589739502,
				"z": 1.1335628639,
				"element": "C" 
			},
			{
				"x": -1.6239966777,
				"y": 0.1098055089,
				"z": 2.178499928,
				"element": "C" 
			},
			{
				"x": -2.3081650424,
				"y": 0.5208204755,
				"z": 3.0280236538,
				"element": "N" 
			},
			{
				"x": -0.6722997003,
				"y": 0.2971567523,
				"z": -0.0924418148,
				"element": "N" 
			},
			{
				"x": -1.1521234243,
				"y": 1.4390201858,
				"z": -0.7229870497,
				"element": "C" 
			},
			{
				"x": -0.6455118462,
				"y": 1.5653357365,
				"z": -1.9699219452,
				"element": "C" 
			},
			{
				"x": 0.4533140456,
				"y": 0.2593406296,
				"z": -2.4064843848,
				"element": "S" 
			},
			{
				"x": 0.1977933428,
				"y": -0.4587789791,
				"z": -0.8372089178,
				"element": "C" 
			},
			{
				"x": 0.6346605603,
				"y": -1.536716109,
				"z": -0.2082488728,
				"element": "N" 
			},
			{
				"x": -1.8425187502,
				"y": 2.0940970855,
				"z": -0.2113930644,
				"element": "H" 
			},
			{
				"x": -0.8497948403,
				"y": 2.3563085491,
				"z": -2.6759140353,
				"element": "H" 
			}
		],
		 "valence_orbital": [ 
			{
				"type": "occ",
				"energy": -0.33998,
				"method": "rhf"
			},
			{
				"type": "occ",
				"energy": -0.33391,
				"method": "rhf"
			},
			{
				"type": "occ",
				"energy": -0.31686,
				"method": "rhf"
			},
			{
				"type": "occ",
				"energy": -0.26222,
				"method": "rhf"
			},
			{
				"type": "occ",
				"energy": -0.24653,
				"method": "rhf"
			},
			{
				"type": "unocc",
				"energy": -0.05717,
				"method": "rhf"
			},
			{
				"type": "unocc",
				"energy": -0.02113,
				"method": "rhf"
			},
			{
				"type": "unocc",
				"energy": -0.01769,
				"method": "rhf"
			},
			{
				"type": "unocc",
				"energy": -0.00031,
				"method": "rhf"
			},
			{
				"type": "unocc",
				"energy": 0.01717,
				"method": "rhf"
			}
		],
		"cosmo_sigma_profile": { 
			"-0.025": 0.0,
			"-0.024": 0.0,
			"-0.023": 0.0,
			"-0.022": 0.0,
			"-0.021": 0.0,
			"-0.02": 0.0,
			"-0.019": 0.0,
			"-0.018": 0.0,
			"-0.017": 0.0,
			"-0.016": 0.0,
			"-0.015": 0.0,
			"-0.014": 0.0,
			"-0.013": 0.0,
			"-0.012": 0.240411091536,
			"-0.011": 4.09933630961,
			"-0.01": 4.05173143523,
			"-0.009": 4.14474343373,
			"-0.008": 4.8025087713,
			"-0.007": 4.93328708458,
			"-0.006": 4.12089868396,
			"-0.005": 5.16799288714,
			"-0.004": 11.6208465679,
			"-0.003": 14.9443280222,
			"-0.002": 17.0436598351,
			"-0.001": 18.6832009122,
			"0.0": 16.8359637154,
			"0.001": 15.8551968849,
			"0.002": 14.6769595249,
			"0.003": 11.659285054,
			"0.004": 5.5913242807,
			"0.005": 4.26538460416,
			"0.006": 3.93409250071,
			"0.007": 3.95481168769,
			"0.008": 4.41354241952,
			"0.009": 4.63077400496,
			"0.01": 3.98384204224,
			"0.011": 3.27651333491,
			"0.012": 3.05502967189,
			"0.013": 1.24290610418,
			"0.014": 0.56635173139,
			"0.015": 0.0,
			"0.016": 0.0,
			"0.017": 0.0,
			"0.018": 0.0,
			"0.019": 0.0,
			"0.02": 0.0,
			"0.021": 0.0,
			"0.022": 0.0,
			"0.023": 0.0,
			"0.024": 0.0,
			"0.025": 0.0
		}
	}
}
