{
	 "smiles": "NC(=O)C1=NOC(=C1)C1=CC=CS1", 
	 "Tm": 464.15, 
	 "num_atms": 19, 
	 "gaussian": { 
		 "optdone": 1, 
		 "sigma_profile": "yes", 
		 "theory": "DFT", 
		 "functional": "B3LYP", 
		 "basiset": "6-31G**", 
		 "properties": { 
			 "R2extent": 3581.8274, 
			 "electric_dipole_moment_norm": 2.03626808893, 
			 "electric_quadrupole_moment_norm": 20.1544066799, 
			 "total_energy": -966.557445075, 
			 "HOMO_LUMO_gap": 0.16475, 
			 "cosmo_polarized_energy": -13.51, 
			 "cosmo_cavitation_energy": 26.45, 
			 "cosmo_dispersion_energy": -20.17, 
			 "cosmo_repulsion_energy": 1.55, 
			 "cosmo_total_nonelectrostatic_energy": 7.83, 
			 "SMD_solvation_energy": 5.35 
		},
		"coords": [
			{
				"x": -0.6582233428,
				"y": -1.7447417353,
				"z": -3.4447399388,
				"element": "N" 
			},
			{
				"x": 0.3232724987,
				"y": -1.2700332475,
				"z": -2.6340831104,
				"element": "C" 
			},
			{
				"x": 1.5144642187,
				"y": -1.2632447746,
				"z": -2.9143200152,
				"element": "O" 
			},
			{
				"x": -0.1602071395,
				"y": -0.7338831126,
				"z": -1.3196532925,
				"element": "C" 
			},
			{
				"x": -1.4393767807,
				"y": -0.735309287,
				"z": -1.0031855991,
				"element": "N" 
			},
			{
				"x": -1.5053457406,
				"y": -0.1728916806,
				"z": 0.2648618906,
				"element": "O" 
			},
			{
				"x": -0.2522005238,
				"y": 0.1548262206,
				"z": 0.6812164592,
				"element": "C" 
			},
			{
				"x": 0.6482171151,
				"y": -0.1830039652,
				"z": -0.2954232763,
				"element": "C" 
			},
			{
				"x": -0.1268632359,
				"y": 0.7560645488,
				"z": 1.9875977072,
				"element": "C" 
			},
			{
				"x": 1.0291208455,
				"y": 1.1685576211,
				"z": 2.6162751808,
				"element": "C" 
			},
			{
				"x": 0.7941737044,
				"y": 1.7213157426,
				"z": 3.9042679963,
				"element": "C" 
			},
			{
				"x": -0.5336500393,
				"y": 1.7245288382,
				"z": 4.2429173813,
				"element": "C" 
			},
			{
				"x": -1.5254011936,
				"y": 1.0518793333,
				"z": 2.9949372505,
				"element": "S" 
			},
			{
				"x": -1.6242845794,
				"y": -1.7228931727,
				"z": -3.1551234413,
				"element": "H" 
			},
			{
				"x": -0.4013506649,
				"y": -2.1204183245,
				"z": -4.3438296517,
				"element": "H" 
			},
			{
				"x": 1.719584178,
				"y": -0.0685912155,
				"z": -0.3084745397,
				"element": "H" 
			},
			{
				"x": 2.0109035954,
				"y": 1.0765193907,
				"z": 2.1662742069,
				"element": "H" 
			},
			{
				"x": 1.5773319268,
				"y": 2.0998460566,
				"z": 4.5505077824,
				"element": "H" 
			},
			{
				"x": -0.9905648422,
				"y": 2.0832727637,
				"z": 5.1548770095,
				"element": "H" 
			}
		],
		 "valence_orbital": [ 
			{
				"type": "occ",
				"energy": -0.30112,
				"method": "rhf"
			},
			{
				"type": "occ",
				"energy": -0.27299,
				"method": "rhf"
			},
			{
				"type": "occ",
				"energy": -0.26695,
				"method": "rhf"
			},
			{
				"type": "occ",
				"energy": -0.26211,
				"method": "rhf"
			},
			{
				"type": "occ",
				"energy": -0.22899,
				"method": "rhf"
			},
			{
				"type": "unocc",
				"energy": -0.06424,
				"method": "rhf"
			},
			{
				"type": "unocc",
				"energy": -0.02714,
				"method": "rhf"
			},
			{
				"type": "unocc",
				"energy": 0.01868,
				"method": "rhf"
			},
			{
				"type": "unocc",
				"energy": 0.02683,
				"method": "rhf"
			},
			{
				"type": "unocc",
				"energy": 0.06907,
				"method": "rhf"
			}
		],
		"cosmo_sigma_profile": { 
			"-0.025": 0.0,
			"-0.024": 0.0,
			"-0.023": 0.0,
			"-0.022": 0.0,
			"-0.021": 0.0,
			"-0.02": 0.0,
			"-0.019": 0.0,
			"-0.018": 0.0,
			"-0.017": 0.0,
			"-0.016": 0.0,
			"-0.015": 0.476629849946,
			"-0.014": 1.54719052424,
			"-0.013": 2.33052079386,
			"-0.012": 1.32007177898,
			"-0.011": 2.30305140901,
			"-0.01": 2.08691782135,
			"-0.009": 4.85223230782,
			"-0.008": 8.42705446171,
			"-0.007": 8.71648361781,
			"-0.006": 7.65195176076,
			"-0.005": 8.57313553264,
			"-0.004": 7.05683593055,
			"-0.003": 8.08271803561,
			"-0.002": 11.7159742738,
			"-0.001": 16.2607790596,
			"0.0": 17.8979247109,
			"0.001": 20.6303466321,
			"0.002": 21.5114753609,
			"0.003": 19.8100401052,
			"0.004": 9.71643531939,
			"0.005": 4.95321486461,
			"0.006": 5.63092030357,
			"0.007": 3.46706270752,
			"0.008": 1.67427414192,
			"0.009": 3.21485654694,
			"0.01": 3.00218495853,
			"0.011": 2.39760664406,
			"0.012": 3.49221763088,
			"0.013": 5.1455594642,
			"0.014": 1.30371400061,
			"0.015": 0.0,
			"0.016": 0.0,
			"0.017": 0.0,
			"0.018": 0.0,
			"0.019": 0.0,
			"0.02": 0.0,
			"0.021": 0.0,
			"0.022": 0.0,
			"0.023": 0.0,
			"0.024": 0.0,
			"0.025": 0.0
		}
	}
}
