{
	 "smiles": "COC1=CC=C(C=C1)C1C(CC(=O)N1C1CC1)C(O)=O", 
	 "Tm": 461.15, 
	 "num_atms": 37, 
	 "gaussian": { 
		 "optdone": 1, 
		 "sigma_profile": "yes", 
		 "theory": "DFT", 
		 "functional": "B3LYP", 
		 "basiset": "6-31G**", 
		 "properties": { 
			 "R2extent": 7116.1224, 
			 "electric_dipole_moment_norm": 5.89496665046, 
			 "electric_quadrupole_moment_norm": 23.5608222511, 
			 "total_energy": -937.464190937, 
			 "HOMO_LUMO_gap": 0.20941, 
			 "cosmo_polarized_energy": -20.61, 
			 "cosmo_cavitation_energy": 39.33, 
			 "cosmo_dispersion_energy": -26.9, 
			 "cosmo_repulsion_energy": 2.08, 
			 "cosmo_total_nonelectrostatic_energy": 14.51, 
			 "SMD_solvation_energy": 8.69 
		},
		"coords": [
			{
				"x": -3.9449017601,
				"y": 1.7605185027,
				"z": -2.6292383965,
				"element": "C" 
			},
			{
				"x": -2.6979270099,
				"y": 1.4087103126,
				"z": -3.2099987973,
				"element": "O" 
			},
			{
				"x": -1.6201819687,
				"y": 1.2630939659,
				"z": -2.3898574182,
				"element": "C" 
			},
			{
				"x": -0.415158107,
				"y": 0.9169995699,
				"z": -3.0196869803,
				"element": "C" 
			},
			{
				"x": 0.7382281988,
				"y": 0.7405284801,
				"z": -2.2670444472,
				"element": "C" 
			},
			{
				"x": 0.732706306,
				"y": 0.9049898919,
				"z": -0.8733672242,
				"element": "C" 
			},
			{
				"x": -0.4743891334,
				"y": 1.2489675548,
				"z": -0.2591024497,
				"element": "C" 
			},
			{
				"x": -1.6465583989,
				"y": 1.4261650333,
				"z": -0.9991841009,
				"element": "C" 
			},
			{
				"x": 2.0367874266,
				"y": 0.773171301,
				"z": -0.1003322299,
				"element": "C" 
			},
			{
				"x": 2.686503505,
				"y": 2.1648580123,
				"z": 0.2196648567,
				"element": "C" 
			},
			{
				"x": 2.2021305799,
				"y": 2.459371174,
				"z": 1.6557942219,
				"element": "C" 
			},
			{
				"x": 1.9374995673,
				"y": 1.0847378159,
				"z": 2.2743261987,
				"element": "C" 
			},
			{
				"x": 1.79360292,
				"y": 0.8422855761,
				"z": 3.4582555377,
				"element": "O" 
			},
			{
				"x": 1.9098302417,
				"y": 0.1644472159,
				"z": 1.2343005572,
				"element": "N" 
			},
			{
				"x": 1.7718444279,
				"y": -1.2604330415,
				"z": 1.4012682816,
				"element": "C" 
			},
			{
				"x": 0.5155098539,
				"y": -1.9864911754,
				"z": 0.9618890177,
				"element": "C" 
			},
			{
				"x": 0.8249462084,
				"y": -1.8241250505,
				"z": 2.4250863179,
				"element": "C" 
			},
			{
				"x": 4.211073739,
				"y": 2.1231061782,
				"z": 0.1252379147,
				"element": "C" 
			},
			{
				"x": 4.8288679105,
				"y": 1.1246948428,
				"z": 0.812197213,
				"element": "O" 
			},
			{
				"x": 4.8604697491,
				"y": 2.9149353067,
				"z": -0.5106214124,
				"element": "O" 
			},
			{
				"x": -4.6535748856,
				"y": 1.8265898078,
				"z": -3.4558656349,
				"element": "H" 
			},
			{
				"x": -3.8942449797,
				"y": 2.7308950556,
				"z": -2.1191128354,
				"element": "H" 
			},
			{
				"x": -4.2897973655,
				"y": 0.9984662875,
				"z": -1.9186640194,
				"element": "H" 
			},
			{
				"x": -0.4118523568,
				"y": 0.7856483616,
				"z": -4.0966645911,
				"element": "H" 
			},
			{
				"x": 1.6625052101,
				"y": 0.4693362383,
				"z": -2.7719290746,
				"element": "H" 
			},
			{
				"x": -0.5209449197,
				"y": 1.3650711136,
				"z": 0.8200162754,
				"element": "H" 
			},
			{
				"x": -2.5639411683,
				"y": 1.6857536011,
				"z": -0.4845217484,
				"element": "H" 
			},
			{
				"x": 2.7242679097,
				"y": 0.1653701564,
				"z": -0.7009247481,
				"element": "H" 
			},
			{
				"x": 2.3614534533,
				"y": 2.9192445499,
				"z": -0.4954432158,
				"element": "H" 
			},
			{
				"x": 1.2697892314,
				"y": 3.0334484496,
				"z": 1.650328723,
				"element": "H" 
			},
			{
				"x": 2.9184510898,
				"y": 3.0111121429,
				"z": 2.2686012095,
				"element": "H" 
			},
			{
				"x": 2.707417229,
				"y": -1.7998198821,
				"z": 1.2513406135,
				"element": "H" 
			},
			{
				"x": -0.2889014725,
				"y": -1.3930271316,
				"z": 0.5443997826,
				"element": "H" 
			},
			{
				"x": 0.6457354269,
				"y": -2.9603457267,
				"z": 0.4998858431,
				"element": "H" 
			},
			{
				"x": 1.1678697919,
				"y": -2.6836528517,
				"z": 2.991980092,
				"element": "H" 
			},
			{
				"x": 0.2437776422,
				"y": -1.1146175691,
				"z": 3.0003166406,
				"element": "H" 
			},
			{
				"x": 4.1755059076,
				"y": 0.5724959299,
				"z": 1.2705700277,
				"element": "H" 
			}
		],
		 "valence_orbital": [ 
			{
				"type": "occ",
				"energy": -0.27149,
				"method": "rhf"
			},
			{
				"type": "occ",
				"energy": -0.26705,
				"method": "rhf"
			},
			{
				"type": "occ",
				"energy": -0.25856,
				"method": "rhf"
			},
			{
				"type": "occ",
				"energy": -0.25662,
				"method": "rhf"
			},
			{
				"type": "occ",
				"energy": -0.22991,
				"method": "rhf"
			},
			{
				"type": "unocc",
				"energy": -0.0205,
				"method": "rhf"
			},
			{
				"type": "unocc",
				"energy": -0.01335,
				"method": "rhf"
			},
			{
				"type": "unocc",
				"energy": 0.00551,
				"method": "rhf"
			},
			{
				"type": "unocc",
				"energy": 0.01518,
				"method": "rhf"
			},
			{
				"type": "unocc",
				"energy": 0.05599,
				"method": "rhf"
			}
		],
		"cosmo_sigma_profile": { 
			"-0.025": 0.0,
			"-0.024": 0.0,
			"-0.023": 0.0,
			"-0.022": 0.0,
			"-0.021": 0.0,
			"-0.02": 0.0,
			"-0.019": 0.0,
			"-0.018": 0.0,
			"-0.017": 0.0,
			"-0.016": 0.0,
			"-0.015": 0.0,
			"-0.014": 0.626833534425,
			"-0.013": 1.1567679739,
			"-0.012": 1.09950388566,
			"-0.011": 1.79342755061,
			"-0.01": 1.68839356451,
			"-0.009": 1.42069338429,
			"-0.008": 4.48142580971,
			"-0.007": 11.2481224775,
			"-0.006": 22.0493722419,
			"-0.005": 30.252122929,
			"-0.004": 30.6415800763,
			"-0.003": 27.4439315203,
			"-0.002": 20.4472193032,
			"-0.001": 16.4719734747,
			"0.0": 14.5419610847,
			"0.001": 15.1177149383,
			"0.002": 14.2503659621,
			"0.003": 16.3370032118,
			"0.004": 15.1146999293,
			"0.005": 10.997071274,
			"0.006": 4.95307987785,
			"0.007": 4.69893618511,
			"0.008": 5.60574671749,
			"0.009": 5.98000282344,
			"0.01": 9.24634737107,
			"0.011": 7.43690094258,
			"0.012": 7.58747851655,
			"0.013": 6.66789079145,
			"0.014": 1.5125470073,
			"0.015": 0.0162849658454,
			"0.016": 0.0,
			"0.017": 0.0,
			"0.018": 0.0,
			"0.019": 0.0,
			"0.02": 0.0,
			"0.021": 0.0,
			"0.022": 0.0,
			"0.023": 0.0,
			"0.024": 0.0,
			"0.025": 0.0
		}
	}
}
