{
	 "smiles": "NC1=C(F)C=C(Cl)C=N1", 
	 "Tm": 369.15, 
	 "num_atms": 13, 
	 "gaussian": { 
		 "optdone": 1, 
		 "sigma_profile": "yes", 
		 "theory": "DFT", 
		 "functional": "B3LYP", 
		 "basiset": "6-31G**", 
		 "properties": { 
			 "R2extent": 2823.2844, 
			 "electric_dipole_moment_norm": 2.28551308025, 
			 "electric_quadrupole_moment_norm": 4.80460333014, 
			 "total_energy": -862.472360182, 
			 "HOMO_LUMO_gap": 0.18907, 
			 "cosmo_polarized_energy": -7.55, 
			 "cosmo_cavitation_energy": 19.76, 
			 "cosmo_dispersion_energy": -15.0, 
			 "cosmo_repulsion_energy": 1.22, 
			 "cosmo_total_nonelectrostatic_energy": 5.97, 
			 "SMD_solvation_energy": 2.24 
		},
		"coords": [
			{
				"x": -1.0511182231,
				"y": -1.0093982139,
				"z": 0.5524392725,
				"element": "N" 
			},
			{
				"x": -0.7086683282,
				"y": 0.2133354391,
				"z": 1.0791228781,
				"element": "C" 
			},
			{
				"x": 0.3551747041,
				"y": 0.9569972257,
				"z": 0.5280461653,
				"element": "C" 
			},
			{
				"x": 1.0647044169,
				"y": 0.4023098031,
				"z": -0.4832630344,
				"element": "F" 
			},
			{
				"x": 0.6749063782,
				"y": 2.2056139274,
				"z": 1.0111564678,
				"element": "C" 
			},
			{
				"x": -0.102190854,
				"y": 2.7014620967,
				"z": 2.0661264545,
				"element": "C" 
			},
			{
				"x": 0.2333357979,
				"y": 4.2844633411,
				"z": 2.7416025468,
				"element": "Cl" 
			},
			{
				"x": -1.1339755521,
				"y": 1.9193710467,
				"z": 2.5733664255,
				"element": "C" 
			},
			{
				"x": -1.4267773939,
				"y": 0.703515841,
				"z": 2.0935338899,
				"element": "N" 
			},
			{
				"x": -1.6422930595,
				"y": -1.5774060091,
				"z": 1.1412830334,
				"element": "H" 
			},
			{
				"x": -0.3433874177,
				"y": -1.496086653,
				"z": 0.0241255893,
				"element": "H" 
			},
			{
				"x": 1.4960094204,
				"y": 2.7689455177,
				"z": 0.5836679155,
				"element": "H" 
			},
			{
				"x": -1.743919889,
				"y": 2.2806766376,
				"z": 3.3968923957,
				"element": "H" 
			}
		],
		 "valence_orbital": [ 
			{
				"type": "occ",
				"energy": -0.32127,
				"method": "rhf"
			},
			{
				"type": "occ",
				"energy": -0.30999,
				"method": "rhf"
			},
			{
				"type": "occ",
				"energy": -0.28676,
				"method": "rhf"
			},
			{
				"type": "occ",
				"energy": -0.27453,
				"method": "rhf"
			},
			{
				"type": "occ",
				"energy": -0.21976,
				"method": "rhf"
			},
			{
				"type": "unocc",
				"energy": -0.03069,
				"method": "rhf"
			},
			{
				"type": "unocc",
				"energy": -0.00537,
				"method": "rhf"
			},
			{
				"type": "unocc",
				"energy": 0.02519,
				"method": "rhf"
			},
			{
				"type": "unocc",
				"energy": 0.07822,
				"method": "rhf"
			},
			{
				"type": "unocc",
				"energy": 0.12309,
				"method": "rhf"
			}
		],
		"cosmo_sigma_profile": { 
			"-0.025": 0.0,
			"-0.024": 0.0,
			"-0.023": 0.0,
			"-0.022": 0.0,
			"-0.021": 0.0,
			"-0.02": 0.0,
			"-0.019": 0.0,
			"-0.018": 0.0,
			"-0.017": 0.0,
			"-0.016": 0.0,
			"-0.015": 0.0,
			"-0.014": 0.272446924108,
			"-0.013": 2.48436363243,
			"-0.012": 1.35234163552,
			"-0.011": 2.39329502318,
			"-0.01": 2.4748464773,
			"-0.009": 3.6908437885,
			"-0.008": 3.64532217119,
			"-0.007": 4.66013276728,
			"-0.006": 4.50789750094,
			"-0.005": 4.77268114173,
			"-0.004": 4.92900823391,
			"-0.003": 5.59094650713,
			"-0.002": 8.17015307019,
			"-0.001": 13.1979345793,
			"0.0": 16.6760782598,
			"0.001": 17.7819568528,
			"0.002": 13.0869547203,
			"0.003": 14.3086493039,
			"0.004": 16.1705498794,
			"0.005": 7.25117528765,
			"0.006": 2.24276263765,
			"0.007": 2.43035949651,
			"0.008": 1.84661039614,
			"0.009": 1.64406521232,
			"0.01": 1.11431424862,
			"0.011": 1.73041364182,
			"0.012": 0.642465152095,
			"0.013": 0.963747226265,
			"0.014": 0.741568739072,
			"0.015": 0.19038996007,
			"0.016": 0.0,
			"0.017": 0.0,
			"0.018": 0.0,
			"0.019": 0.0,
			"0.02": 0.0,
			"0.021": 0.0,
			"0.022": 0.0,
			"0.023": 0.0,
			"0.024": 0.0,
			"0.025": 0.0
		}
	}
}
