{
	 "smiles": "S=C1CCCCN1", 
	 "Tm": 366.15, 
	 "num_atms": 16, 
	 "gaussian": { 
		 "optdone": 1, 
		 "sigma_profile": "yes", 
		 "theory": "DFT", 
		 "functional": "B3LYP", 
		 "basiset": "6-31G**", 
		 "properties": { 
			 "R2extent": 2575.9744, 
			 "electric_dipole_moment_norm": 5.42831692977, 
			 "electric_quadrupole_moment_norm": 25.4725242571, 
			 "total_energy": -648.90698341, 
			 "HOMO_LUMO_gap": 0.17654, 
			 "cosmo_polarized_energy": -13.81, 
			 "cosmo_cavitation_energy": 19.59, 
			 "cosmo_dispersion_energy": -15.48, 
			 "cosmo_repulsion_energy": 1.27, 
			 "cosmo_total_nonelectrostatic_energy": 5.39, 
			 "SMD_solvation_energy": 1.19 
		},
		"coords": [
			{
				"x": 3.860848914,
				"y": -1.7148981484,
				"z": -1.8522660427,
				"element": "S" 
			},
			{
				"x": 2.4636918969,
				"y": -1.9778081545,
				"z": -0.9830318227,
				"element": "C" 
			},
			{
				"x": 2.240866506,
				"y": -1.5128472805,
				"z": 0.4412146604,
				"element": "C" 
			},
			{
				"x": 0.8803825569,
				"y": -0.7961796932,
				"z": 0.6084859749,
				"element": "C" 
			},
			{
				"x": -0.2930561597,
				"y": -1.5744479999,
				"z": -0.0472322864,
				"element": "C" 
			},
			{
				"x": 0.1887351583,
				"y": -2.8787569816,
				"z": -0.7044954711,
				"element": "C" 
			},
			{
				"x": 1.3987724398,
				"y": -2.6345171005,
				"z": -1.4852102879,
				"element": "N" 
			},
			{
				"x": 3.0676004014,
				"y": -0.8690481364,
				"z": 0.7403671814,
				"element": "H" 
			},
			{
				"x": 2.2691697898,
				"y": -2.4002918979,
				"z": 1.0904449456,
				"element": "H" 
			},
			{
				"x": 0.694332965,
				"y": -0.6390921003,
				"z": 1.6754535658,
				"element": "H" 
			},
			{
				"x": 0.958271858,
				"y": 0.197446733,
				"z": 0.1568996319,
				"element": "H" 
			},
			{
				"x": -0.7666389782,
				"y": -0.9545366874,
				"z": -0.8148439217,
				"element": "H" 
			},
			{
				"x": -1.0676232212,
				"y": -1.8178457782,
				"z": 0.6874965448,
				"element": "H" 
			},
			{
				"x": -0.57233632,
				"y": -3.2870263752,
				"z": -1.3739156674,
				"element": "H" 
			},
			{
				"x": 0.3856154452,
				"y": -3.6413320187,
				"z": 0.0625994867,
				"element": "H" 
			},
			{
				"x": 1.4825667477,
				"y": -2.9914183803,
				"z": -2.4279664918,
				"element": "H" 
			}
		],
		 "valence_orbital": [ 
			{
				"type": "occ",
				"energy": -0.34625,
				"method": "rhf"
			},
			{
				"type": "occ",
				"energy": -0.33299,
				"method": "rhf"
			},
			{
				"type": "occ",
				"energy": -0.32824,
				"method": "rhf"
			},
			{
				"type": "occ",
				"energy": -0.21763,
				"method": "rhf"
			},
			{
				"type": "occ",
				"energy": -0.19847,
				"method": "rhf"
			},
			{
				"type": "unocc",
				"energy": -0.02193,
				"method": "rhf"
			},
			{
				"type": "unocc",
				"energy": 0.05891,
				"method": "rhf"
			},
			{
				"type": "unocc",
				"energy": 0.08494,
				"method": "rhf"
			},
			{
				"type": "unocc",
				"energy": 0.10382,
				"method": "rhf"
			},
			{
				"type": "unocc",
				"energy": 0.11835,
				"method": "rhf"
			}
		],
		"cosmo_sigma_profile": { 
			"-0.025": 0.0,
			"-0.024": 0.0,
			"-0.023": 0.0,
			"-0.022": 0.0,
			"-0.021": 0.0,
			"-0.02": 0.0,
			"-0.019": 0.0,
			"-0.018": 0.0,
			"-0.017": 0.0,
			"-0.016": 0.0,
			"-0.015": 0.307456222261,
			"-0.014": 1.2284505643,
			"-0.013": 1.34498716665,
			"-0.012": 0.701973700852,
			"-0.011": 0.811525825073,
			"-0.01": 1.2041575233,
			"-0.009": 1.12947370056,
			"-0.008": 1.4111707762,
			"-0.007": 2.91232654131,
			"-0.006": 6.81979064061,
			"-0.005": 8.68723014992,
			"-0.004": 16.829588255,
			"-0.003": 25.6390681575,
			"-0.002": 17.6700160876,
			"-0.001": 11.2403866109,
			"0.0": 8.78405142451,
			"0.001": 2.43215633048,
			"0.002": 2.19141377593,
			"0.003": 2.75208647689,
			"0.004": 2.8325842815,
			"0.005": 2.85909198458,
			"0.006": 4.44601848483,
			"0.007": 2.60481000715,
			"0.008": 3.94336746192,
			"0.009": 5.64271807013,
			"0.01": 6.80333957641,
			"0.011": 5.05978856849,
			"0.012": 4.6667327919,
			"0.013": 2.52451057602,
			"0.014": 0.261749050236,
			"0.015": 0.0,
			"0.016": 0.0,
			"0.017": 0.0,
			"0.018": 0.0,
			"0.019": 0.0,
			"0.02": 0.0,
			"0.021": 0.0,
			"0.022": 0.0,
			"0.023": 0.0,
			"0.024": 0.0,
			"0.025": 0.0
		}
	}
}
