{
	 "smiles": "CC(NS(=O)(=O)C1=CC=C(NC(C)=O)C=C1)C(O)=O", 
	 "Tm": 452.15, 
	 "num_atms": 33, 
	 "gaussian": { 
		 "optdone": 1, 
		 "sigma_profile": "yes", 
		 "theory": "DFT", 
		 "functional": "B3LYP", 
		 "basiset": "6-31G**", 
		 "properties": { 
			 "R2extent": 8600.3913, 
			 "electric_dipole_moment_norm": 8.88534614745, 
			 "electric_quadrupole_moment_norm": 24.8846404406, 
			 "total_energy": -1311.38673985, 
			 "HOMO_LUMO_gap": 0.19263, 
			 "cosmo_polarized_energy": -27.72, 
			 "cosmo_cavitation_energy": 38.82, 
			 "cosmo_dispersion_energy": -27.73, 
			 "cosmo_repulsion_energy": 2.1, 
			 "cosmo_total_nonelectrostatic_energy": 13.19, 
			 "SMD_solvation_energy": 7.7 
		},
		"coords": [
			{
				"x": 1.0651370944,
				"y": 0.3425154518,
				"z": -4.4601805889,
				"element": "C" 
			},
			{
				"x": 1.0468387511,
				"y": -0.9873405887,
				"z": -3.7111681335,
				"element": "C" 
			},
			{
				"x": 2.1351972222,
				"y": -1.016692594,
				"z": -2.7120271346,
				"element": "N" 
			},
			{
				"x": 1.964762184,
				"y": -1.8234718932,
				"z": -1.2541338125,
				"element": "S" 
			},
			{
				"x": 3.3292338288,
				"y": -2.0573704062,
				"z": -0.7818837356,
				"element": "O" 
			},
			{
				"x": 1.0208791238,
				"y": -2.953661943,
				"z": -1.4345631148,
				"element": "O" 
			},
			{
				"x": 1.1355747017,
				"y": -0.6509459105,
				"z": -0.1998065685,
				"element": "C" 
			},
			{
				"x": 1.7947695989,
				"y": 0.5241856534,
				"z": 0.1737621024,
				"element": "C" 
			},
			{
				"x": 1.1745765618,
				"y": 1.4366496233,
				"z": 1.0182006753,
				"element": "C" 
			},
			{
				"x": -0.1208361673,
				"y": 1.1663647904,
				"z": 1.5012751207,
				"element": "C" 
			},
			{
				"x": -0.8144165231,
				"y": 2.0327565411,
				"z": 2.3586844211,
				"element": "N" 
			},
			{
				"x": -0.4194728658,
				"y": 3.2661057009,
				"z": 2.8561901625,
				"element": "C" 
			},
			{
				"x": -1.4674434753,
				"y": 3.9486808546,
				"z": 3.7207080303,
				"element": "C" 
			},
			{
				"x": 0.6573550001,
				"y": 3.7824835379,
				"z": 2.6079153314,
				"element": "O" 
			},
			{
				"x": -0.7676315137,
				"y": -0.0236238932,
				"z": 1.1240451787,
				"element": "C" 
			},
			{
				"x": -0.1453322868,
				"y": -0.9333657481,
				"z": 0.278097145,
				"element": "C" 
			},
			{
				"x": 1.1188265001,
				"y": -2.1872727578,
				"z": -4.6931210753,
				"element": "C" 
			},
			{
				"x": 1.0883998147,
				"y": -3.4100507621,
				"z": -4.1469842998,
				"element": "O" 
			},
			{
				"x": 1.1995886996,
				"y": -2.0285311383,
				"z": -5.8892172493,
				"element": "O" 
			},
			{
				"x": 1.9955885268,
				"y": 0.4562963582,
				"z": -5.0225859292,
				"element": "H" 
			},
			{
				"x": 0.2444849904,
				"y": 0.3806770693,
				"z": -5.1792502223,
				"element": "H" 
			},
			{
				"x": 0.9711227562,
				"y": 1.1690779497,
				"z": -3.7520526891,
				"element": "H" 
			},
			{
				"x": 0.1095678918,
				"y": -1.0780766092,
				"z": -3.1489644716,
				"element": "H" 
			},
			{
				"x": 3.0785050673,
				"y": -1.1456005693,
				"z": -3.0683924183,
				"element": "H" 
			},
			{
				"x": 2.7954530831,
				"y": 0.7271050521,
				"z": -0.1928126411,
				"element": "H" 
			},
			{
				"x": 1.6704472238,
				"y": 2.349633151,
				"z": 1.3138147842,
				"element": "H" 
			},
			{
				"x": -1.7304821055,
				"y": 1.7134655521,
				"z": 2.6398851294,
				"element": "H" 
			},
			{
				"x": -2.1499368477,
				"y": 3.2494941507,
				"z": 4.2126361416,
				"element": "H" 
			},
			{
				"x": -0.9544151042,
				"y": 4.5458783648,
				"z": 4.4754836513,
				"element": "H" 
			},
			{
				"x": -2.0594974759,
				"y": 4.6295998519,
				"z": 3.0994505212,
				"element": "H" 
			},
			{
				"x": -1.7649813655,
				"y": -0.2391041687,
				"z": 1.4993217031,
				"element": "H" 
			},
			{
				"x": -0.6369636782,
				"y": -1.8562576495,
				"z": -0.0067671859,
				"element": "H" 
			},
			{
				"x": 1.0078007885,
				"y": -3.3758030214,
				"z": -3.1674588278,
				"element": "H" 
			}
		],
		 "valence_orbital": [ 
			{
				"type": "occ",
				"energy": -0.29897,
				"method": "rhf"
			},
			{
				"type": "occ",
				"energy": -0.28508,
				"method": "rhf"
			},
			{
				"type": "occ",
				"energy": -0.27729,
				"method": "rhf"
			},
			{
				"type": "occ",
				"energy": -0.26003,
				"method": "rhf"
			},
			{
				"type": "occ",
				"energy": -0.24979,
				"method": "rhf"
			},
			{
				"type": "unocc",
				"energy": -0.05716,
				"method": "rhf"
			},
			{
				"type": "unocc",
				"energy": -0.03377,
				"method": "rhf"
			},
			{
				"type": "unocc",
				"energy": 0.00236,
				"method": "rhf"
			},
			{
				"type": "unocc",
				"energy": 0.00945,
				"method": "rhf"
			},
			{
				"type": "unocc",
				"energy": 0.04108,
				"method": "rhf"
			}
		],
		"cosmo_sigma_profile": { 
			"-0.025": 0.0,
			"-0.024": 0.0,
			"-0.023": 0.0,
			"-0.022": 0.0,
			"-0.021": 0.0,
			"-0.02": 0.0,
			"-0.019": 0.0,
			"-0.018": 0.0,
			"-0.017": 0.0,
			"-0.016": 1.50681851843,
			"-0.015": 2.42258971279,
			"-0.014": 2.65894439482,
			"-0.013": 3.08787703795,
			"-0.012": 2.65219737124,
			"-0.011": 2.73067932471,
			"-0.01": 2.69900422011,
			"-0.009": 4.99381578683,
			"-0.008": 7.66588922142,
			"-0.007": 10.8076688676,
			"-0.006": 14.3842598852,
			"-0.005": 18.8241748109,
			"-0.004": 20.2357682185,
			"-0.003": 20.9860263189,
			"-0.002": 20.5409228012,
			"-0.001": 19.3536845026,
			"0.0": 21.3514947794,
			"0.001": 16.8623630832,
			"0.002": 22.6596093428,
			"0.003": 13.3032947491,
			"0.004": 6.93154020701,
			"0.005": 6.03501328893,
			"0.006": 6.36389868345,
			"0.007": 7.49606855753,
			"0.008": 6.82920669401,
			"0.009": 8.48935425007,
			"0.01": 12.4511944876,
			"0.011": 11.2915149633,
			"0.012": 8.08654862803,
			"0.013": 3.99481922894,
			"0.014": 0.782815194414,
			"0.015": 0.0,
			"0.016": 0.0,
			"0.017": 0.0,
			"0.018": 0.0,
			"0.019": 0.0,
			"0.02": 0.0,
			"0.021": 0.0,
			"0.022": 0.0,
			"0.023": 0.0,
			"0.024": 0.0,
			"0.025": 0.0
		}
	}
}
