{
	 "smiles": "CC1=CC(=C(C)O1)C1=CSC(N)=N1", 
	 "Tm": 363.15, 
	 "num_atms": 23, 
	 "gaussian": { 
		 "optdone": 1, 
		 "sigma_profile": "yes", 
		 "theory": "DFT", 
		 "functional": "B3LYP", 
		 "basiset": "6-31G**", 
		 "properties": { 
			 "R2extent": 4540.1905, 
			 "electric_dipole_moment_norm": 1.51633274383, 
			 "electric_quadrupole_moment_norm": 14.5395587753, 
			 "total_energy": -931.889341971, 
			 "HOMO_LUMO_gap": 0.17517, 
			 "cosmo_polarized_energy": -11.81, 
			 "cosmo_cavitation_energy": 28.81, 
			 "cosmo_dispersion_energy": -21.79, 
			 "cosmo_repulsion_energy": 1.7, 
			 "cosmo_total_nonelectrostatic_energy": 8.71, 
			 "SMD_solvation_energy": 4.04 
		},
		"coords": [
			{
				"x": -2.3939755276,
				"y": 1.5026298651,
				"z": -0.0233109732,
				"element": "C" 
			},
			{
				"x": -1.0188382604,
				"y": 0.9339344864,
				"z": -0.050874671,
				"element": "C" 
			},
			{
				"x": -0.1605099543,
				"y": 0.4932766499,
				"z": 0.9062139053,
				"element": "C" 
			},
			{
				"x": 1.0365766373,
				"y": 0.0566435563,
				"z": 0.2327161729,
				"element": "C" 
			},
			{
				"x": 0.813848677,
				"y": 0.2659895276,
				"z": -1.1067177203,
				"element": "C" 
			},
			{
				"x": 1.6184226215,
				"y": 0.0398111138,
				"z": -2.3399303343,
				"element": "C" 
			},
			{
				"x": -0.4333565968,
				"y": 0.7993097621,
				"z": -1.2862956305,
				"element": "O" 
			},
			{
				"x": 2.2186452048,
				"y": -0.4903733781,
				"z": 0.8928382794,
				"element": "C" 
			},
			{
				"x": 3.3870783644,
				"y": -0.8969413772,
				"z": 0.3025780229,
				"element": "C" 
			},
			{
				"x": 4.5138133104,
				"y": -1.4722984873,
				"z": 1.5072254784,
				"element": "S" 
			},
			{
				"x": 3.2866759544,
				"y": -1.1293671684,
				"z": 2.7346110704,
				"element": "C" 
			},
			{
				"x": 3.5532,
				"y": -1.3138955416,
				"z": 4.0745989947,
				"element": "N" 
			},
			{
				"x": 2.1772272655,
				"y": -0.6345296513,
				"z": 2.2764338313,
				"element": "N" 
			},
			{
				"x": -2.4222478351,
				"y": 2.5121448698,
				"z": -0.450275092,
				"element": "H" 
			},
			{
				"x": -2.7491863476,
				"y": 1.5588763045,
				"z": 1.0082794262,
				"element": "H" 
			},
			{
				"x": -3.0978952543,
				"y": 0.8857502445,
				"z": -0.5944582009,
				"element": "H" 
			},
			{
				"x": -0.3264327024,
				"y": 0.4687659555,
				"z": 1.9724619449,
				"element": "H" 
			},
			{
				"x": 1.0331796256,
				"y": 0.3222243891,
				"z": -3.2179986036,
				"element": "H" 
			},
			{
				"x": 2.5403844432,
				"y": 0.6349184206,
				"z": -2.3401484944,
				"element": "H" 
			},
			{
				"x": 1.9077051142,
				"y": -1.0129596222,
				"z": -2.4471069146,
				"element": "H" 
			},
			{
				"x": 3.660455027,
				"y": -0.9001760214,
				"z": -0.7404628062,
				"element": "H" 
			},
			{
				"x": 2.7192187154,
				"y": -1.2670640146,
				"z": 4.6458889502,
				"element": "H" 
			},
			{
				"x": 4.1635115179,
				"y": -2.0829698832,
				"z": 4.3125333643,
				"element": "H" 
			}
		],
		 "valence_orbital": [ 
			{
				"type": "occ",
				"energy": -0.28517,
				"method": "rhf"
			},
			{
				"type": "occ",
				"energy": -0.26866,
				"method": "rhf"
			},
			{
				"type": "occ",
				"energy": -0.25233,
				"method": "rhf"
			},
			{
				"type": "occ",
				"energy": -0.21712,
				"method": "rhf"
			},
			{
				"type": "occ",
				"energy": -0.18593,
				"method": "rhf"
			},
			{
				"type": "unocc",
				"energy": -0.01076,
				"method": "rhf"
			},
			{
				"type": "unocc",
				"energy": 0.01495,
				"method": "rhf"
			},
			{
				"type": "unocc",
				"energy": 0.03053,
				"method": "rhf"
			},
			{
				"type": "unocc",
				"energy": 0.05114,
				"method": "rhf"
			},
			{
				"type": "unocc",
				"energy": 0.07356,
				"method": "rhf"
			}
		],
		"cosmo_sigma_profile": { 
			"-0.025": 0.0,
			"-0.024": 0.0,
			"-0.023": 0.0,
			"-0.022": 0.0,
			"-0.021": 0.0,
			"-0.02": 0.0,
			"-0.019": 0.0,
			"-0.018": 0.0,
			"-0.017": 0.0,
			"-0.016": 0.0,
			"-0.015": 0.20728211772,
			"-0.014": 1.8037737128,
			"-0.013": 2.44880732903,
			"-0.012": 2.80345940662,
			"-0.011": 2.56641338407,
			"-0.01": 2.65206850512,
			"-0.009": 2.00973973572,
			"-0.008": 1.5744461352,
			"-0.007": 3.90103050786,
			"-0.006": 5.22322252085,
			"-0.005": 14.1120817798,
			"-0.004": 16.4964519471,
			"-0.003": 16.1554946659,
			"-0.002": 16.2674511027,
			"-0.001": 20.0846563494,
			"0.0": 16.2046521298,
			"0.001": 12.6744692754,
			"0.002": 13.2039773184,
			"0.003": 16.2440566255,
			"0.004": 19.0105274584,
			"0.005": 17.9511525773,
			"0.006": 10.453478905,
			"0.007": 4.27126270519,
			"0.008": 4.33462747674,
			"0.009": 2.41399247919,
			"0.01": 2.27653078085,
			"0.011": 2.11269742436,
			"0.012": 1.82210133364,
			"0.013": 0.073138993408,
			"0.014": 0.0,
			"0.015": 0.0,
			"0.016": 0.0,
			"0.017": 0.0,
			"0.018": 0.0,
			"0.019": 0.0,
			"0.02": 0.0,
			"0.021": 0.0,
			"0.022": 0.0,
			"0.023": 0.0,
			"0.024": 0.0,
			"0.025": 0.0
		}
	}
}
