{
	 "smiles": "COC1=CC2=C(C=C1)C=C(C(=O)C1=CC3=C(OC1=O)C=C(OC)C=C3)C(=O)O2", 
	 "Tm": 544.15, 
	 "num_atms": 42, 
	 "gaussian": { 
		 "optdone": 1, 
		 "sigma_profile": "yes", 
		 "theory": "DFT", 
		 "functional": "B3LYP", 
		 "basiset": "6-31G**", 
		 "properties": { 
			 "R2extent": 17511.508, 
			 "electric_dipole_moment_norm": 2.67319459449, 
			 "electric_quadrupole_moment_norm": 65.0941998518, 
			 "total_energy": -1335.22392241, 
			 "HOMO_LUMO_gap": 0.13926, 
			 "cosmo_polarized_energy": -25.7, 
			 "cosmo_cavitation_energy": 48.17, 
			 "cosmo_dispersion_energy": -34.85, 
			 "cosmo_repulsion_energy": 2.55, 
			 "cosmo_total_nonelectrostatic_energy": 15.87, 
			 "SMD_solvation_energy": 11.78 
		},
		"coords": [
			{
				"x": -3.3715445884,
				"y": -6.5519879782,
				"z": 4.2295408341,
				"element": "C" 
			},
			{
				"x": -2.2343790178,
				"y": -6.1264543699,
				"z": 3.4884900445,
				"element": "O" 
			},
			{
				"x": -2.2837366497,
				"y": -4.9382931532,
				"z": 2.837129298,
				"element": "C" 
			},
			{
				"x": -1.122523917,
				"y": -4.5900433991,
				"z": 2.1367161156,
				"element": "C" 
			},
			{
				"x": -1.0875507915,
				"y": -3.3902065606,
				"z": 1.4400263223,
				"element": "C" 
			},
			{
				"x": -2.1933083775,
				"y": -2.5091716105,
				"z": 1.4245516523,
				"element": "C" 
			},
			{
				"x": -3.3464575925,
				"y": -2.8863940786,
				"z": 2.1360067888,
				"element": "C" 
			},
			{
				"x": -3.4051456115,
				"y": -4.0818152552,
				"z": 2.835544769,
				"element": "C" 
			},
			{
				"x": -2.0531335469,
				"y": -1.2852304605,
				"z": 0.7018496303,
				"element": "C" 
			},
			{
				"x": -0.8893802548,
				"y": -0.9600815014,
				"z": 0.0726394273,
				"element": "C" 
			},
			{
				"x": -0.8043669759,
				"y": 0.3380169577,
				"z": -0.6613135507,
				"element": "C" 
			},
			{
				"x": -1.8171524706,
				"y": 0.8285969663,
				"z": -1.1527420524,
				"element": "O" 
			},
			{
				"x": 0.5049482004,
				"y": 1.0430157687,
				"z": -0.801384333,
				"element": "C" 
			},
			{
				"x": 0.7148866127,
				"y": 1.8302763621,
				"z": -1.8932055727,
				"element": "C" 
			},
			{
				"x": 1.9479069711,
				"y": 2.5250066517,
				"z": -2.0855672654,
				"element": "C" 
			},
			{
				"x": 2.9374510256,
				"y": 2.3910969535,
				"z": -1.0845560252,
				"element": "C" 
			},
			{
				"x": 2.7023691233,
				"y": 1.6561053346,
				"z": 0.0367624154,
				"element": "O" 
			},
			{
				"x": 1.5021671312,
				"y": 0.9825528246,
				"z": 0.2717695966,
				"element": "C" 
			},
			{
				"x": 1.3703450859,
				"y": 0.4520973507,
				"z": 1.349469344,
				"element": "O" 
			},
			{
				"x": 4.1752750261,
				"y": 3.0085490377,
				"z": -1.1973950516,
				"element": "C" 
			},
			{
				"x": 4.4482504891,
				"y": 3.7873973658,
				"z": -2.3284175482,
				"element": "C" 
			},
			{
				"x": 5.6788332509,
				"y": 4.3558834423,
				"z": -2.3583754276,
				"element": "O" 
			},
			{
				"x": 6.0376446428,
				"y": 5.1604994855,
				"z": -3.475193897,
				"element": "C" 
			},
			{
				"x": 3.4784085129,
				"y": 3.9439181473,
				"z": -3.3413373023,
				"element": "C" 
			},
			{
				"x": 2.2501693857,
				"y": 3.3147007386,
				"z": -3.2094820287,
				"element": "C" 
			},
			{
				"x": 0.2182733045,
				"y": -1.919295301,
				"z": 0.0205082934,
				"element": "C" 
			},
			{
				"x": 1.2316445428,
				"y": -1.8159226061,
				"z": -0.6295380733,
				"element": "O" 
			},
			{
				"x": 0.0520456154,
				"y": -3.0936429343,
				"z": 0.7572810022,
				"element": "O" 
			},
			{
				"x": -3.1001722336,
				"y": -7.5153712831,
				"z": 4.6624622064,
				"element": "H" 
			},
			{
				"x": -3.6131661924,
				"y": -5.8483311977,
				"z": 5.0352740218,
				"element": "H" 
			},
			{
				"x": -4.2483857871,
				"y": -6.679928868,
				"z": 3.5832651429,
				"element": "H" 
			},
			{
				"x": -0.2648302753,
				"y": -5.2516589676,
				"z": 2.1390771193,
				"element": "H" 
			},
			{
				"x": -4.2044129896,
				"y": -2.220031257,
				"z": 2.1338234145,
				"element": "H" 
			},
			{
				"x": -4.3065979975,
				"y": -4.3451482473,
				"z": 3.3739197333,
				"element": "H" 
			},
			{
				"x": -2.8797958582,
				"y": -0.5806076213,
				"z": 0.6635566033,
				"element": "H" 
			},
			{
				"x": -0.0728198935,
				"y": 1.9076689411,
				"z": -2.6380941263,
				"element": "H" 
			},
			{
				"x": 4.9221058896,
				"y": 2.8928920421,
				"z": -0.4213591716,
				"element": "H" 
			},
			{
				"x": 7.055597278,
				"y": 5.5001695091,
				"z": -3.2813978985,
				"element": "H" 
			},
			{
				"x": 6.0198496683,
				"y": 4.5847055841,
				"z": -4.4083977327,
				"element": "H" 
			},
			{
				"x": 5.3780960048,
				"y": 6.0313589794,
				"z": -3.5725367563,
				"element": "H" 
			},
			{
				"x": 3.6820575232,
				"y": 4.5454827199,
				"z": -4.2179270414,
				"element": "H" 
			},
			{
				"x": 1.5002357368,
				"y": 3.4272254879,
				"z": -3.9873429205,
				"element": "H" 
			}
		],
		 "valence_orbital": [ 
			{
				"type": "occ",
				"energy": -0.2537,
				"method": "rhf"
			},
			{
				"type": "occ",
				"energy": -0.25014,
				"method": "rhf"
			},
			{
				"type": "occ",
				"energy": -0.2491,
				"method": "rhf"
			},
			{
				"type": "occ",
				"energy": -0.22356,
				"method": "rhf"
			},
			{
				"type": "occ",
				"energy": -0.22235,
				"method": "rhf"
			},
			{
				"type": "unocc",
				"energy": -0.08309,
				"method": "rhf"
			},
			{
				"type": "unocc",
				"energy": -0.06028,
				"method": "rhf"
			},
			{
				"type": "unocc",
				"energy": -0.02087,
				"method": "rhf"
			},
			{
				"type": "unocc",
				"energy": -0.01152,
				"method": "rhf"
			},
			{
				"type": "unocc",
				"energy": -0.00054,
				"method": "rhf"
			}
		],
		"cosmo_sigma_profile": { 
			"-0.025": 0.0,
			"-0.024": 0.0,
			"-0.023": 0.0,
			"-0.022": 0.0,
			"-0.021": 0.0,
			"-0.02": 0.0,
			"-0.019": 0.0,
			"-0.018": 0.0,
			"-0.017": 0.0,
			"-0.016": 0.0,
			"-0.015": 0.0,
			"-0.014": 0.0,
			"-0.013": 0.0,
			"-0.012": 0.0,
			"-0.011": 0.0,
			"-0.01": 0.0132716138031,
			"-0.009": 3.08003024182,
			"-0.008": 10.3239772519,
			"-0.007": 18.5883729881,
			"-0.006": 31.2465668701,
			"-0.005": 27.0973067316,
			"-0.004": 29.1781005173,
			"-0.003": 27.3972613927,
			"-0.002": 23.0886864997,
			"-0.001": 23.9051628848,
			"0.0": 29.6473872469,
			"0.001": 35.4159711898,
			"0.002": 28.0828662355,
			"0.003": 14.057386039,
			"0.004": 10.2047883407,
			"0.005": 9.33112187424,
			"0.006": 8.4459012858,
			"0.007": 9.11023816408,
			"0.008": 10.8030530679,
			"0.009": 8.84069933472,
			"0.01": 8.43161440513,
			"0.011": 10.7756917262,
			"0.012": 8.71006217434,
			"0.013": 1.636698671,
			"0.014": 0.0,
			"0.015": 0.0,
			"0.016": 0.0,
			"0.017": 0.0,
			"0.018": 0.0,
			"0.019": 0.0,
			"0.02": 0.0,
			"0.021": 0.0,
			"0.022": 0.0,
			"0.023": 0.0,
			"0.024": 0.0,
			"0.025": 0.0
		}
	}
}
