{
	 "smiles": "COC1=CC(NC(=O)OCC(F)(F)F)=CC=C1", 
	 "Tm": 332.15, 
	 "num_atms": 27, 
	 "gaussian": { 
		 "optdone": 1, 
		 "sigma_profile": "yes", 
		 "theory": "DFT", 
		 "functional": "B3LYP", 
		 "basiset": "6-31G**", 
		 "properties": { 
			 "R2extent": 5208.4526, 
			 "electric_dipole_moment_norm": 1.22496735059, 
			 "electric_quadrupole_moment_norm": 9.95471216158, 
			 "total_energy": -967.048048297, 
			 "HOMO_LUMO_gap": 0.2051, 
			 "cosmo_polarized_energy": -11.83, 
			 "cosmo_cavitation_energy": 33.02, 
			 "cosmo_dispersion_energy": -22.64, 
			 "cosmo_repulsion_energy": 1.69, 
			 "cosmo_total_nonelectrostatic_energy": 12.08, 
			 "SMD_solvation_energy": 8.51 
		},
		"coords": [
			{
				"x": -0.0582759742,
				"y": -2.5236624502,
				"z": -2.9712518542,
				"element": "C" 
			},
			{
				"x": -1.4010126643,
				"y": -2.3426797665,
				"z": -2.5433763903,
				"element": "O" 
			},
			{
				"x": -1.6242026338,
				"y": -1.7390084143,
				"z": -1.3418831493,
				"element": "C" 
			},
			{
				"x": -0.6016881894,
				"y": -1.2795662983,
				"z": -0.5061364241,
				"element": "C" 
			},
			{
				"x": -0.9346052263,
				"y": -0.659485511,
				"z": 0.7072775949,
				"element": "C" 
			},
			{
				"x": 0.0449338998,
				"y": -0.1990158,
				"z": 1.6245751148,
				"element": "N" 
			},
			{
				"x": 1.3376716961,
				"y": 0.2147676729,
				"z": 1.462210441,
				"element": "C" 
			},
			{
				"x": 2.0644601911,
				"y": 0.5327477648,
				"z": 2.3828665497,
				"element": "O" 
			},
			{
				"x": 1.7004975371,
				"y": 0.2591272251,
				"z": 0.1435342546,
				"element": "O" 
			},
			{
				"x": 3.076654469,
				"y": 0.4889293799,
				"z": -0.1226614365,
				"element": "C" 
			},
			{
				"x": 3.6970119516,
				"y": -0.8051673349,
				"z": -0.6189737991,
				"element": "C" 
			},
			{
				"x": 4.9874997122,
				"y": -0.6003275746,
				"z": -0.9461644818,
				"element": "F" 
			},
			{
				"x": 3.6417543122,
				"y": -1.7705863768,
				"z": 0.315603725,
				"element": "F" 
			},
			{
				"x": 3.0592402285,
				"y": -1.2704767175,
				"z": -1.7185106012,
				"element": "F" 
			},
			{
				"x": -2.2742887906,
				"y": -0.5267745654,
				"z": 1.0880529631,
				"element": "C" 
			},
			{
				"x": -3.2794888222,
				"y": -1.0072667693,
				"z": 0.2465747605,
				"element": "C" 
			},
			{
				"x": -2.9698807681,
				"y": -1.6066180851,
				"z": -0.9674129099,
				"element": "C" 
			},
			{
				"x": 0.4715207057,
				"y": -1.5680474092,
				"z": -3.0672959586,
				"element": "H" 
			},
			{
				"x": 0.5019018622,
				"y": -3.1708267798,
				"z": -2.2847469154,
				"element": "H" 
			},
			{
				"x": -0.1184317221,
				"y": -3.0033766512,
				"z": -3.9492752379,
				"element": "H" 
			},
			{
				"x": 0.4335382183,
				"y": -1.3907875424,
				"z": -0.7855392521,
				"element": "H" 
			},
			{
				"x": -0.2503991271,
				"y": -0.1149223072,
				"z": 2.5869716099,
				"element": "H" 
			},
			{
				"x": 3.5959013018,
				"y": 0.8217783479,
				"z": 0.7778231402,
				"element": "H" 
			},
			{
				"x": 3.1511622625,
				"y": 1.2419156109,
				"z": -0.9100334428,
				"element": "H" 
			},
			{
				"x": -2.5268077854,
				"y": -0.044215163,
				"z": 2.0279331557,
				"element": "H" 
			},
			{
				"x": -4.3187394643,
				"y": -0.9028074078,
				"z": 0.5439611457,
				"element": "H" 
			},
			{
				"x": -3.7387271804,
				"y": -1.9779470769,
				"z": -1.6358226019,
				"element": "H" 
			}
		],
		 "valence_orbital": [ 
			{
				"type": "occ",
				"energy": -0.31689,
				"method": "rhf"
			},
			{
				"type": "occ",
				"energy": -0.29747,
				"method": "rhf"
			},
			{
				"type": "occ",
				"energy": -0.29311,
				"method": "rhf"
			},
			{
				"type": "occ",
				"energy": -0.23858,
				"method": "rhf"
			},
			{
				"type": "occ",
				"energy": -0.21637,
				"method": "rhf"
			},
			{
				"type": "unocc",
				"energy": -0.01127,
				"method": "rhf"
			},
			{
				"type": "unocc",
				"energy": 0.00645,
				"method": "rhf"
			},
			{
				"type": "unocc",
				"energy": 0.05065,
				"method": "rhf"
			},
			{
				"type": "unocc",
				"energy": 0.06988,
				"method": "rhf"
			},
			{
				"type": "unocc",
				"energy": 0.09523,
				"method": "rhf"
			}
		],
		"cosmo_sigma_profile": { 
			"-0.025": 0.0,
			"-0.024": 0.0,
			"-0.023": 0.0,
			"-0.022": 0.0,
			"-0.021": 0.0,
			"-0.02": 0.0,
			"-0.019": 0.0,
			"-0.018": 0.0,
			"-0.017": 0.0,
			"-0.016": 0.184750816447,
			"-0.015": 0.711703393627,
			"-0.014": 1.00429981879,
			"-0.013": 1.66314187271,
			"-0.012": 0.684722212399,
			"-0.011": 0.594331855659,
			"-0.01": 2.33486607522,
			"-0.009": 4.56331040514,
			"-0.008": 4.55545342607,
			"-0.007": 5.05734669441,
			"-0.006": 10.9346458891,
			"-0.005": 13.1472221668,
			"-0.004": 17.5276577139,
			"-0.003": 21.0115100568,
			"-0.002": 18.3719876973,
			"-0.001": 16.2420548947,
			"0.0": 16.1267236191,
			"0.001": 18.5145941459,
			"0.002": 32.8001193208,
			"0.003": 23.4582312333,
			"0.004": 13.9902380998,
			"0.005": 14.0917782152,
			"0.006": 6.13453993042,
			"0.007": 3.09833810225,
			"0.008": 1.83543351147,
			"0.009": 3.25826807931,
			"0.01": 3.51476827826,
			"0.011": 2.68760042985,
			"0.012": 4.75388534457,
			"0.013": 0.699805961524,
			"0.014": 0.0,
			"0.015": 0.0,
			"0.016": 0.0,
			"0.017": 0.0,
			"0.018": 0.0,
			"0.019": 0.0,
			"0.02": 0.0,
			"0.021": 0.0,
			"0.022": 0.0,
			"0.023": 0.0,
			"0.024": 0.0,
			"0.025": 0.0
		}
	}
}
