{
	 "smiles": "[O-][N+](=O)C1=C2N=CC=CC2=C(Cl)C=C1", 
	 "Tm": 407.15, 
	 "num_atms": 19, 
	 "gaussian": { 
		 "optdone": 1, 
		 "sigma_profile": "yes", 
		 "theory": "DFT", 
		 "functional": "B3LYP", 
		 "basiset": "6-31G**", 
		 "properties": { 
			 "R2extent": 3943.8902, 
			 "electric_dipole_moment_norm": 4.27103775914, 
			 "electric_quadrupole_moment_norm": 19.6380236862, 
			 "total_energy": -1066.00243983, 
			 "HOMO_LUMO_gap": 0.16757, 
			 "cosmo_polarized_energy": -11.26, 
			 "cosmo_cavitation_energy": 26.59, 
			 "cosmo_dispersion_energy": -19.31, 
			 "cosmo_repulsion_energy": 1.5, 
			 "cosmo_total_nonelectrostatic_energy": 8.78, 
			 "SMD_solvation_energy": 5.68 
		},
		"coords": [
			{
				"x": 2.5141520231,
				"y": -0.292192287,
				"z": -1.9788282213,
				"element": "O" 
			},
			{
				"x": 1.9167463835,
				"y": 0.7701696224,
				"z": -2.1052865246,
				"element": "N" 
			},
			{
				"x": 2.1334786462,
				"y": 1.6307098673,
				"z": -2.9502704961,
				"element": "O" 
			},
			{
				"x": 0.8109355733,
				"y": 1.0268728558,
				"z": -1.1637549173,
				"element": "C" 
			},
			{
				"x": 1.1077732181,
				"y": 1.69833633,
				"z": 0.0504111154,
				"element": "C" 
			},
			{
				"x": 2.3916124645,
				"y": 2.0729920947,
				"z": 0.2897545859,
				"element": "N" 
			},
			{
				"x": 2.6487495773,
				"y": 2.6950150568,
				"z": 1.4215521365,
				"element": "C" 
			},
			{
				"x": 1.6665510651,
				"y": 2.9936691949,
				"z": 2.3982735115,
				"element": "C" 
			},
			{
				"x": 0.3634185952,
				"y": 2.6210792399,
				"z": 2.1705525969,
				"element": "C" 
			},
			{
				"x": 0.0334489995,
				"y": 1.9480472428,
				"z": 0.9661277656,
				"element": "C" 
			},
			{
				"x": -1.273627039,
				"y": 1.5092645404,
				"z": 0.6087168406,
				"element": "C" 
			},
			{
				"x": -2.6164124211,
				"y": 1.7960858356,
				"z": 1.7029657356,
				"element": "Cl" 
			},
			{
				"x": -1.5165612995,
				"y": 0.8607850498,
				"z": -0.5810964527,
				"element": "C" 
			},
			{
				"x": -0.4568178775,
				"y": 0.6151647966,
				"z": -1.4828940821,
				"element": "C" 
			},
			{
				"x": 3.6849038441,
				"y": 2.9842170924,
				"z": 1.5886182631,
				"element": "H" 
			},
			{
				"x": 1.9500667198,
				"y": 3.509597546,
				"z": 3.3096120248,
				"element": "H" 
			},
			{
				"x": -0.4157508009,
				"y": 2.8322047327,
				"z": 2.8942466522,
				"element": "H" 
			},
			{
				"x": -2.5212635089,
				"y": 0.5378854873,
				"z": -0.8273772046,
				"element": "H" 
			},
			{
				"x": -0.6498041628,
				"y": 0.1040957015,
				"z": -2.4199233294,
				"element": "H" 
			}
		],
		 "valence_orbital": [ 
			{
				"type": "occ",
				"energy": -0.30616,
				"method": "rhf"
			},
			{
				"type": "occ",
				"energy": -0.30031,
				"method": "rhf"
			},
			{
				"type": "occ",
				"energy": -0.28323,
				"method": "rhf"
			},
			{
				"type": "occ",
				"energy": -0.28103,
				"method": "rhf"
			},
			{
				"type": "occ",
				"energy": -0.25166,
				"method": "rhf"
			},
			{
				"type": "unocc",
				"energy": -0.08409,
				"method": "rhf"
			},
			{
				"type": "unocc",
				"energy": -0.06891,
				"method": "rhf"
			},
			{
				"type": "unocc",
				"energy": -0.04771,
				"method": "rhf"
			},
			{
				"type": "unocc",
				"energy": -0.00874,
				"method": "rhf"
			},
			{
				"type": "unocc",
				"energy": 0.00968,
				"method": "rhf"
			}
		],
		"cosmo_sigma_profile": { 
			"-0.025": 0.0,
			"-0.024": 0.0,
			"-0.023": 0.0,
			"-0.022": 0.0,
			"-0.021": 0.0,
			"-0.02": 0.0,
			"-0.019": 0.0,
			"-0.018": 0.0,
			"-0.017": 0.0,
			"-0.016": 0.0,
			"-0.015": 0.0,
			"-0.014": 0.0,
			"-0.013": 0.0,
			"-0.012": 0.0348040761793,
			"-0.011": 0.671530846528,
			"-0.01": 1.97513667402,
			"-0.009": 3.7340020088,
			"-0.008": 8.72911692423,
			"-0.007": 10.6531861256,
			"-0.006": 9.09635772446,
			"-0.005": 7.37106316267,
			"-0.004": 8.15016927758,
			"-0.003": 8.97064786942,
			"-0.002": 16.5409455202,
			"-0.001": 24.0341115433,
			"0.0": 25.3180975715,
			"0.001": 17.4187602093,
			"0.002": 10.8697588716,
			"0.003": 11.0358602266,
			"0.004": 9.61748930672,
			"0.005": 6.94573751609,
			"0.006": 10.0968883979,
			"0.007": 12.4393122998,
			"0.008": 7.92893309548,
			"0.009": 3.74440406394,
			"0.01": 1.24153223515,
			"0.011": 0.658032100356,
			"0.012": 0.0996711344247,
			"0.013": 0.0,
			"0.014": 0.0,
			"0.015": 0.0,
			"0.016": 0.0,
			"0.017": 0.0,
			"0.018": 0.0,
			"0.019": 0.0,
			"0.02": 0.0,
			"0.021": 0.0,
			"0.022": 0.0,
			"0.023": 0.0,
			"0.024": 0.0,
			"0.025": 0.0
		}
	}
}
