{
	 "smiles": "CC(C)C1C=CC(C)=C(C=NO)C1=O", 
	 "Tm": 419.15, 
	 "num_atms": 29, 
	 "gaussian": { 
		 "optdone": 1, 
		 "sigma_profile": "yes", 
		 "theory": "DFT", 
		 "functional": "B3LYP", 
		 "basiset": "6-31G**", 
		 "properties": { 
			 "R2extent": 3387.9409, 
			 "electric_dipole_moment_norm": 3.35036837825, 
			 "electric_quadrupole_moment_norm": 3.31777106353, 
			 "total_energy": -633.328947522, 
			 "HOMO_LUMO_gap": 0.13683, 
			 "cosmo_polarized_energy": -16.42, 
			 "cosmo_cavitation_energy": 31.55, 
			 "cosmo_dispersion_energy": -22.32, 
			 "cosmo_repulsion_energy": 1.78, 
			 "cosmo_total_nonelectrostatic_energy": 11.01, 
			 "SMD_solvation_energy": 6.42 
		},
		"coords": [
			{
				"x": 2.666103473,
				"y": 2.7875957638,
				"z": -0.5521776639,
				"element": "C" 
			},
			{
				"x": 2.1799755512,
				"y": 1.3587846824,
				"z": -0.8283581544,
				"element": "C" 
			},
			{
				"x": 3.1523420939,
				"y": 0.3129101738,
				"z": -0.2642656288,
				"element": "C" 
			},
			{
				"x": 0.7228165633,
				"y": 1.1258607402,
				"z": -0.3237544733,
				"element": "C" 
			},
			{
				"x": 0.566021268,
				"y": 1.1917182087,
				"z": 1.1601949474,
				"element": "C" 
			},
			{
				"x": -0.1879202976,
				"y": 0.3081183874,
				"z": 1.8364564447,
				"element": "C" 
			},
			{
				"x": -0.8996790639,
				"y": -0.7819933746,
				"z": 1.1848756399,
				"element": "C" 
			},
			{
				"x": -1.7534176882,
				"y": -1.6568530367,
				"z": 2.0782610273,
				"element": "C" 
			},
			{
				"x": -0.7910940399,
				"y": -0.9927843391,
				"z": -0.1727744649,
				"element": "C" 
			},
			{
				"x": -1.5146932671,
				"y": -2.1024283581,
				"z": -0.7902457925,
				"element": "C" 
			},
			{
				"x": -1.5603422112,
				"y": -2.3269228053,
				"z": -2.056469932,
				"element": "N" 
			},
			{
				"x": -2.3566472674,
				"y": -3.4563305498,
				"z": -2.3002987856,
				"element": "O" 
			},
			{
				"x": 0.1059074753,
				"y": -0.1234877737,
				"z": -0.9853620794,
				"element": "C" 
			},
			{
				"x": 0.3527988277,
				"y": -0.3517861008,
				"z": -2.160363385,
				"element": "O" 
			},
			{
				"x": 2.7736669596,
				"y": 2.9901272738,
				"z": 0.519998316,
				"element": "H" 
			},
			{
				"x": 3.6488839114,
				"y": 2.9482352705,
				"z": -1.0078042346,
				"element": "H" 
			},
			{
				"x": 1.9809871642,
				"y": 3.5349299785,
				"z": -0.9680000257,
				"element": "H" 
			},
			{
				"x": 2.1231709309,
				"y": 1.2167702759,
				"z": -1.9121883859,
				"element": "H" 
			},
			{
				"x": 3.2270082671,
				"y": 0.3806756889,
				"z": 0.8274419942,
				"element": "H" 
			},
			{
				"x": 4.1561071634,
				"y": 0.4605304065,
				"z": -0.6763348623,
				"element": "H" 
			},
			{
				"x": 2.8356841596,
				"y": -0.7027328904,
				"z": -0.5202829444,
				"element": "H" 
			},
			{
				"x": 0.1228930787,
				"y": 1.9582633358,
				"z": -0.7359882859,
				"element": "H" 
			},
			{
				"x": 1.0584280828,
				"y": 2.0028798306,
				"z": 1.6905739357,
				"element": "H" 
			},
			{
				"x": -0.2989658099,
				"y": 0.4002523667,
				"z": 2.9135805127,
				"element": "H" 
			},
			{
				"x": -1.4189584032,
				"y": -2.7001486773,
				"z": 2.062959595,
				"element": "H" 
			},
			{
				"x": -1.7121519893,
				"y": -1.3123545683,
				"z": 3.113883889,
				"element": "H" 
			},
			{
				"x": -2.8034922295,
				"y": -1.6504557817,
				"z": 1.7672628068,
				"element": "H" 
			},
			{
				"x": -2.0656695457,
				"y": -2.7763524858,
				"z": -0.1327193271,
				"element": "H" 
			},
			{
				"x": -2.309063157,
				"y": -3.532521642,
				"z": -3.2628006831,
				"element": "H" 
			}
		],
		 "valence_orbital": [ 
			{
				"type": "occ",
				"energy": -0.31548,
				"method": "rhf"
			},
			{
				"type": "occ",
				"energy": -0.27619,
				"method": "rhf"
			},
			{
				"type": "occ",
				"energy": -0.27304,
				"method": "rhf"
			},
			{
				"type": "occ",
				"energy": -0.22772,
				"method": "rhf"
			},
			{
				"type": "occ",
				"energy": -0.21303,
				"method": "rhf"
			},
			{
				"type": "unocc",
				"energy": -0.0762,
				"method": "rhf"
			},
			{
				"type": "unocc",
				"energy": -0.00625,
				"method": "rhf"
			},
			{
				"type": "unocc",
				"energy": 0.03446,
				"method": "rhf"
			},
			{
				"type": "unocc",
				"energy": 0.08076,
				"method": "rhf"
			},
			{
				"type": "unocc",
				"energy": 0.08736,
				"method": "rhf"
			}
		],
		"cosmo_sigma_profile": { 
			"-0.025": 0.0,
			"-0.024": 0.0,
			"-0.023": 0.0,
			"-0.022": 0.0,
			"-0.021": 0.0,
			"-0.02": 0.0,
			"-0.019": 0.0,
			"-0.018": 0.0565523426729,
			"-0.017": 0.866069742476,
			"-0.016": 0.780953654226,
			"-0.015": 1.04073875766,
			"-0.014": 0.896553438928,
			"-0.013": 0.637661956723,
			"-0.012": 0.408483785987,
			"-0.011": 0.624097159168,
			"-0.01": 0.45076876387,
			"-0.009": 0.830803257231,
			"-0.008": 0.829915986241,
			"-0.007": 4.24861267219,
			"-0.006": 15.4730469642,
			"-0.005": 16.0839923762,
			"-0.004": 14.4357318117,
			"-0.003": 22.5286180992,
			"-0.002": 25.2064038818,
			"-0.001": 28.2336572813,
			"0.0": 22.8062443423,
			"0.001": 24.7276825037,
			"0.002": 12.2618151036,
			"0.003": 8.02125948742,
			"0.004": 4.26757743402,
			"0.005": 4.18351070935,
			"0.006": 4.57154844901,
			"0.007": 5.06476289849,
			"0.008": 3.56549673961,
			"0.009": 3.02559046458,
			"0.01": 3.99566934991,
			"0.011": 4.14201136788,
			"0.012": 2.97302551531,
			"0.013": 3.74645903587,
			"0.014": 1.63516703689,
			"0.015": 0.991253551942,
			"0.016": 1.18235612572,
			"0.017": 1.21330235692,
			"0.018": 0.871953766917,
			"0.019": 0.447904305595,
			"0.02": 0.00515566918344,
			"0.021": 0.0,
			"0.022": 0.0,
			"0.023": 0.0,
			"0.024": 0.0,
			"0.025": 0.0
		}
	}
}
