{
	 "smiles": "CCOC=CC1=C(C=NN1C1=C2C=NN(C)C2=NC=N1)N=C", 
	 "Tm": 428.15, 
	 "num_atms": 37, 
	 "gaussian": { 
		 "optdone": 1, 
		 "sigma_profile": "yes", 
		 "theory": "DFT", 
		 "functional": "B3LYP", 
		 "basiset": "6-31G**", 
		 "properties": { 
			 "R2extent": 7696.6087, 
			 "electric_dipole_moment_norm": 2.93620731557, 
			 "electric_quadrupole_moment_norm": 17.5181270563, 
			 "total_energy": -1000.92250988, 
			 "HOMO_LUMO_gap": 0.13546, 
			 "cosmo_polarized_energy": -17.25, 
			 "cosmo_cavitation_energy": 41.6, 
			 "cosmo_dispersion_energy": -28.52, 
			 "cosmo_repulsion_energy": 2.16, 
			 "cosmo_total_nonelectrostatic_energy": 15.24, 
			 "SMD_solvation_energy": 3.88 
		},
		"coords": [
			{
				"x": -3.3108966603,
				"y": 0.5596986179,
				"z": 0.8249723615,
				"element": "C" 
			},
			{
				"x": -3.6298209178,
				"y": 0.7194692272,
				"z": -0.6566679802,
				"element": "C" 
			},
			{
				"x": -2.8530651985,
				"y": 1.7578405455,
				"z": -1.2746682774,
				"element": "O" 
			},
			{
				"x": -1.6300310994,
				"y": 1.4849488536,
				"z": -1.7678717271,
				"element": "C" 
			},
			{
				"x": -0.9476752998,
				"y": 0.3187440109,
				"z": -1.7095323938,
				"element": "C" 
			},
			{
				"x": 0.3231253699,
				"y": 0.1187913732,
				"z": -2.3787005387,
				"element": "C" 
			},
			{
				"x": 0.961927948,
				"y": 0.830967904,
				"z": -3.4036061185,
				"element": "C" 
			},
			{
				"x": 2.1110465956,
				"y": 0.0543879852,
				"z": -3.7356344775,
				"element": "C" 
			},
			{
				"x": 2.2050018841,
				"y": -1.0397408817,
				"z": -3.0077934469,
				"element": "N" 
			},
			{
				"x": 1.1254386326,
				"y": -0.986896871,
				"z": -2.1611084652,
				"element": "N" 
			},
			{
				"x": 0.9924155998,
				"y": -2.0094180473,
				"z": -1.1955212398,
				"element": "C" 
			},
			{
				"x": 0.7209700381,
				"y": -1.7313750253,
				"z": 0.15750678,
				"element": "C" 
			},
			{
				"x": 0.5283325887,
				"y": -0.6347192519,
				"z": 1.0498049247,
				"element": "C" 
			},
			{
				"x": 0.3495367491,
				"y": -1.0616510529,
				"z": 2.2886146832,
				"element": "N" 
			},
			{
				"x": 0.4241306097,
				"y": -2.422725171,
				"z": 2.2554134543,
				"element": "N" 
			},
			{
				"x": 0.2882169651,
				"y": -3.206837099,
				"z": 3.4674781351,
				"element": "C" 
			},
			{
				"x": 0.6549932078,
				"y": -2.8747852867,
				"z": 0.9936118789,
				"element": "C" 
			},
			{
				"x": 0.8312346425,
				"y": -4.1448813153,
				"z": 0.6068780485,
				"element": "N" 
			},
			{
				"x": 1.0964999222,
				"y": -4.2467427681,
				"z": -0.6934801018,
				"element": "C" 
			},
			{
				"x": 1.1816357132,
				"y": -3.2576429804,
				"z": -1.6066832622,
				"element": "N" 
			},
			{
				"x": 0.4590317704,
				"y": 2.0044160464,
				"z": -3.9531768104,
				"element": "N" 
			},
			{
				"x": 1.1717021645,
				"y": 2.7357119523,
				"z": -4.7207637159,
				"element": "C" 
			},
			{
				"x": -3.9870897944,
				"y": -0.1777749661,
				"z": 1.2703345286,
				"element": "H" 
			},
			{
				"x": -3.4504391269,
				"y": 1.5105278299,
				"z": 1.3471173383,
				"element": "H" 
			},
			{
				"x": -2.2848424097,
				"y": 0.2236581656,
				"z": 0.993164617,
				"element": "H" 
			},
			{
				"x": -4.6664697326,
				"y": 1.0409747278,
				"z": -0.7900339449,
				"element": "H" 
			},
			{
				"x": -3.4959975002,
				"y": -0.2188544936,
				"z": -1.208280597,
				"element": "H" 
			},
			{
				"x": -1.221152949,
				"y": 2.3465256267,
				"z": -2.2834819057,
				"element": "H" 
			},
			{
				"x": -1.3546727594,
				"y": -0.5310296108,
				"z": -1.1749556791,
				"element": "H" 
			},
			{
				"x": 2.8578073558,
				"y": 0.2485437158,
				"z": -4.4943508262,
				"element": "H" 
			},
			{
				"x": 0.5113044042,
				"y": 0.4233668322,
				"z": 0.8326254725,
				"element": "H" 
			},
			{
				"x": 0.4071823778,
				"y": -4.2564178913,
				"z": 3.1965607336,
				"element": "H" 
			},
			{
				"x": -0.6976493691,
				"y": -3.0480081845,
				"z": 3.9122322346,
				"element": "H" 
			},
			{
				"x": 1.0579179127,
				"y": -2.9205674676,
				"z": 4.1885937128,
				"element": "H" 
			},
			{
				"x": 1.2595233137,
				"y": -5.2514020543,
				"z": -1.0763389966,
				"element": "H" 
			},
			{
				"x": 0.7257033242,
				"y": 3.6311327446,
				"z": -5.1525179266,
				"element": "H" 
			},
			{
				"x": 2.2173237274,
				"y": 2.5283642599,
				"z": -4.9798404718,
				"element": "H" 
			}
		],
		 "valence_orbital": [ 
			{
				"type": "occ",
				"energy": -0.26942,
				"method": "rhf"
			},
			{
				"type": "occ",
				"energy": -0.25952,
				"method": "rhf"
			},
			{
				"type": "occ",
				"energy": -0.25299,
				"method": "rhf"
			},
			{
				"type": "occ",
				"energy": -0.23829,
				"method": "rhf"
			},
			{
				"type": "occ",
				"energy": -0.20246,
				"method": "rhf"
			},
			{
				"type": "unocc",
				"energy": -0.067,
				"method": "rhf"
			},
			{
				"type": "unocc",
				"energy": -0.037,
				"method": "rhf"
			},
			{
				"type": "unocc",
				"energy": -0.01493,
				"method": "rhf"
			},
			{
				"type": "unocc",
				"energy": -0.00034,
				"method": "rhf"
			},
			{
				"type": "unocc",
				"energy": 0.0299,
				"method": "rhf"
			}
		],
		"cosmo_sigma_profile": { 
			"-0.025": 0.0,
			"-0.024": 0.0,
			"-0.023": 0.0,
			"-0.022": 0.0,
			"-0.021": 0.0,
			"-0.02": 0.0,
			"-0.019": 0.0,
			"-0.018": 0.0,
			"-0.017": 0.0,
			"-0.016": 0.0,
			"-0.015": 0.0,
			"-0.014": 0.0,
			"-0.013": 0.0,
			"-0.012": 0.0,
			"-0.011": 0.0,
			"-0.01": 0.0,
			"-0.009": 0.700395667531,
			"-0.008": 5.88092772241,
			"-0.007": 11.0409242899,
			"-0.006": 19.2337556793,
			"-0.005": 23.3197990218,
			"-0.004": 30.7872334094,
			"-0.003": 35.3404948189,
			"-0.002": 28.7582235733,
			"-0.001": 26.3496964472,
			"0.0": 24.8987443662,
			"0.001": 22.0264131726,
			"0.002": 19.757073268,
			"0.003": 15.1558356145,
			"0.004": 10.7191295015,
			"0.005": 11.3839631136,
			"0.006": 7.71478255625,
			"0.007": 6.40923591034,
			"0.008": 5.25787264353,
			"0.009": 6.55456633594,
			"0.01": 5.91544756074,
			"0.011": 4.72587294512,
			"0.012": 2.80725925237,
			"0.013": 2.63703568753,
			"0.014": 2.39597856944,
			"0.015": 1.93291526264,
			"0.016": 1.64484172736,
			"0.017": 0.451122142676,
			"0.018": 0.0,
			"0.019": 0.0,
			"0.02": 0.0,
			"0.021": 0.0,
			"0.022": 0.0,
			"0.023": 0.0,
			"0.024": 0.0,
			"0.025": 0.0
		}
	}
}
