{
	 "smiles": "NCC1=CC=C(C=C1)N1CCSCC1", 
	 "Tm": 324.15, 
	 "num_atms": 30, 
	 "gaussian": { 
		 "optdone": 1, 
		 "sigma_profile": "yes", 
		 "theory": "DFT", 
		 "functional": "B3LYP", 
		 "basiset": "6-31G**", 
		 "properties": { 
			 "R2extent": 4790.4416, 
			 "electric_dipole_moment_norm": 1.39551649937, 
			 "electric_quadrupole_moment_norm": 16.3422877848, 
			 "total_energy": -936.494979474, 
			 "HOMO_LUMO_gap": 0.18701, 
			 "cosmo_polarized_energy": -11.65, 
			 "cosmo_cavitation_energy": 32.31, 
			 "cosmo_dispersion_energy": -24.12, 
			 "cosmo_repulsion_energy": 1.85, 
			 "cosmo_total_nonelectrostatic_energy": 10.04, 
			 "SMD_solvation_energy": 1.84 
		},
		"coords": [
			{
				"x": 3.3706384181,
				"y": -2.6645602714,
				"z": 2.2547159771,
				"element": "N" 
			},
			{
				"x": 2.6648980967,
				"y": -1.415531532,
				"z": 2.5983573887,
				"element": "C" 
			},
			{
				"x": 1.8949343398,
				"y": -0.7562301993,
				"z": 1.4700207851,
				"element": "C" 
			},
			{
				"x": 0.5492795614,
				"y": -1.0483160156,
				"z": 1.2300666266,
				"element": "C" 
			},
			{
				"x": -0.1469883384,
				"y": -0.4977121346,
				"z": 0.1545848087,
				"element": "C" 
			},
			{
				"x": 0.4763675789,
				"y": 0.4015614104,
				"z": -0.7360422376,
				"element": "C" 
			},
			{
				"x": 1.8332429981,
				"y": 0.7057217479,
				"z": -0.4849820602,
				"element": "C" 
			},
			{
				"x": 2.5142680195,
				"y": 0.1375947701,
				"z": 0.5854463725,
				"element": "C" 
			},
			{
				"x": -0.2218472405,
				"y": 1.0274779485,
				"z": -1.7858730609,
				"element": "N" 
			},
			{
				"x": -1.6449143637,
				"y": 0.7640536419,
				"z": -1.9792583139,
				"element": "C" 
			},
			{
				"x": -1.9366102832,
				"y": -0.4953573594,
				"z": -2.8092092476,
				"element": "C" 
			},
			{
				"x": -1.2199811058,
				"y": -0.375148617,
				"z": -4.4992245228,
				"element": "S" 
			},
			{
				"x": 0.4751143539,
				"y": 0.150457834,
				"z": -4.0207986847,
				"element": "C" 
			},
			{
				"x": 0.4612424403,
				"y": 1.334934094,
				"z": -3.0433049685,
				"element": "C" 
			},
			{
				"x": 4.0169516082,
				"y": -2.4776819084,
				"z": 1.4896776625,
				"element": "H" 
			},
			{
				"x": 2.6968222777,
				"y": -3.3293300565,
				"z": 1.8778347447,
				"element": "H" 
			},
			{
				"x": 3.4123098347,
				"y": -0.7171625723,
				"z": 2.9932439656,
				"element": "H" 
			},
			{
				"x": 1.9828589308,
				"y": -1.6421250127,
				"z": 3.4261864418,
				"element": "H" 
			},
			{
				"x": 0.0234816286,
				"y": -1.7315800205,
				"z": 1.8944803142,
				"element": "H" 
			},
			{
				"x": -1.1828554638,
				"y": -0.782694411,
				"z": 0.0167258492,
				"element": "H" 
			},
			{
				"x": 2.3580718512,
				"y": 1.4205824491,
				"z": -1.1084223854,
				"element": "H" 
			},
			{
				"x": 3.5553167162,
				"y": 0.4125381426,
				"z": 0.7455090299,
				"element": "H" 
			},
			{
				"x": -2.1352382111,
				"y": 0.7007508618,
				"z": -1.0037799191,
				"element": "H" 
			},
			{
				"x": -2.0735734013,
				"y": 1.6316190911,
				"z": -2.4952491731,
				"element": "H" 
			},
			{
				"x": -3.013845391,
				"y": -0.6231746418,
				"z": -2.951761751,
				"element": "H" 
			},
			{
				"x": -1.5485343936,
				"y": -1.3899145509,
				"z": -2.3128907299,
				"element": "H" 
			},
			{
				"x": 0.9740622225,
				"y": 0.4263252706,
				"z": -4.9546915045,
				"element": "H" 
			},
			{
				"x": 1.014062519,
				"y": -0.6957789985,
				"z": -3.5819498521,
				"element": "H" 
			},
			{
				"x": -0.0516377943,
				"y": 2.1844083556,
				"z": -3.5095796537,
				"element": "H" 
			},
			{
				"x": 1.486702591,
				"y": 1.6505726841,
				"z": -2.8451319015,
				"element": "H" 
			}
		],
		 "valence_orbital": [ 
			{
				"type": "occ",
				"energy": -0.28096,
				"method": "rhf"
			},
			{
				"type": "occ",
				"energy": -0.24792,
				"method": "rhf"
			},
			{
				"type": "occ",
				"energy": -0.23533,
				"method": "rhf"
			},
			{
				"type": "occ",
				"energy": -0.22659,
				"method": "rhf"
			},
			{
				"type": "occ",
				"energy": -0.18918,
				"method": "rhf"
			},
			{
				"type": "unocc",
				"energy": -0.00217,
				"method": "rhf"
			},
			{
				"type": "unocc",
				"energy": 0.0102,
				"method": "rhf"
			},
			{
				"type": "unocc",
				"energy": 0.03478,
				"method": "rhf"
			},
			{
				"type": "unocc",
				"energy": 0.07005,
				"method": "rhf"
			},
			{
				"type": "unocc",
				"energy": 0.08745,
				"method": "rhf"
			}
		],
		"cosmo_sigma_profile": { 
			"-0.025": 0.0,
			"-0.024": 0.0,
			"-0.023": 0.0,
			"-0.022": 0.0,
			"-0.021": 0.0,
			"-0.02": 0.0,
			"-0.019": 0.0,
			"-0.018": 0.0,
			"-0.017": 0.0,
			"-0.016": 0.0,
			"-0.015": 0.0,
			"-0.014": 0.0,
			"-0.013": 0.0,
			"-0.012": 0.0,
			"-0.011": 0.0,
			"-0.01": 0.0,
			"-0.009": 1.37051954,
			"-0.008": 2.99441512392,
			"-0.007": 5.38129119263,
			"-0.006": 11.2264671071,
			"-0.005": 17.9708730529,
			"-0.004": 34.8849760569,
			"-0.003": 30.8927738697,
			"-0.002": 24.6747648099,
			"-0.001": 18.3400516209,
			"0.0": 12.7124538564,
			"0.001": 11.6375666433,
			"0.002": 10.0679971249,
			"0.003": 9.95689890766,
			"0.004": 9.60943103195,
			"0.005": 9.93803536906,
			"0.006": 12.9218993185,
			"0.007": 10.9410049752,
			"0.008": 4.19988759468,
			"0.009": 3.77777370718,
			"0.01": 2.88774992494,
			"0.011": 2.1305533238,
			"0.012": 1.55723813541,
			"0.013": 0.711333510591,
			"0.014": 0.683575882856,
			"0.015": 0.785060512473,
			"0.016": 0.195793944274,
			"0.017": 0.47434718482,
			"0.018": 1.08989390068,
			"0.019": 0.593711640917,
			"0.02": 0.493137974301,
			"0.021": 0.0724139790657,
			"0.022": 0.0,
			"0.023": 0.0,
			"0.024": 0.0,
			"0.025": 0.0
		}
	}
}
