{
	 "smiles": "O=C(CC#N)NC1=NC=CC=C1", 
	 "Tm": 434.15, 
	 "num_atms": 19, 
	 "gaussian": { 
		 "optdone": 1, 
		 "sigma_profile": "yes", 
		 "theory": "DFT", 
		 "functional": "B3LYP", 
		 "basiset": "6-31G**", 
		 "properties": { 
			 "R2extent": 3745.9795, 
			 "electric_dipole_moment_norm": 4.85346060765, 
			 "electric_quadrupole_moment_norm": 16.0626773077, 
			 "total_energy": -548.535268115, 
			 "HOMO_LUMO_gap": 0.20479, 
			 "cosmo_polarized_energy": -15.36, 
			 "cosmo_cavitation_energy": 24.71, 
			 "cosmo_dispersion_energy": -17.49, 
			 "cosmo_repulsion_energy": 1.4, 
			 "cosmo_total_nonelectrostatic_energy": 8.62, 
			 "SMD_solvation_energy": 4.99 
		},
		"coords": [
			{
				"x": -4.5536220462,
				"y": 0.0795186418,
				"z": -1.9821858951,
				"element": "O" 
			},
			{
				"x": -3.4875443053,
				"y": -0.1202285927,
				"z": -1.4296920763,
				"element": "C" 
			},
			{
				"x": -2.4902255922,
				"y": 1.0392162594,
				"z": -1.2278649973,
				"element": "C" 
			},
			{
				"x": -1.5212643721,
				"y": 1.1489547006,
				"z": -2.3181705946,
				"element": "C" 
			},
			{
				"x": -0.7388906761,
				"y": 1.2158458257,
				"z": -3.1731971589,
				"element": "N" 
			},
			{
				"x": -3.169605675,
				"y": -1.3641393277,
				"z": -0.9300214924,
				"element": "N" 
			},
			{
				"x": -2.0808615,
				"y": -1.8641436062,
				"z": -0.1864415692,
				"element": "C" 
			},
			{
				"x": -2.4355840798,
				"y": -2.8232475368,
				"z": 0.6790146522,
				"element": "N" 
			},
			{
				"x": -1.4769966015,
				"y": -3.3820127146,
				"z": 1.423509354,
				"element": "C" 
			},
			{
				"x": -0.1341336836,
				"y": -3.0110032823,
				"z": 1.3595727402,
				"element": "C" 
			},
			{
				"x": 0.225518035,
				"y": -2.033715066,
				"z": 0.4322541558,
				"element": "C" 
			},
			{
				"x": -0.7521693772,
				"y": -1.4553232123,
				"z": -0.3741830224,
				"element": "C" 
			},
			{
				"x": -3.1003056305,
				"y": 1.9459592904,
				"z": -1.2034951142,
				"element": "H" 
			},
			{
				"x": -1.9498835237,
				"y": 0.9521001967,
				"z": -0.2797347615,
				"element": "H" 
			},
			{
				"x": -3.9670374659,
				"y": -1.9919236001,
				"z": -0.9307238142,
				"element": "H" 
			},
			{
				"x": -1.804137029,
				"y": -4.1639777809,
				"z": 2.1059571121,
				"element": "H" 
			},
			{
				"x": 0.6024786684,
				"y": -3.4880972313,
				"z": 1.9966943783,
				"element": "H" 
			},
			{
				"x": 1.263267034,
				"y": -1.7366484117,
				"z": 0.3136419836,
				"element": "H" 
			},
			{
				"x": -0.4762021797,
				"y": -0.7527345521,
				"z": -1.1502338801,
				"element": "H" 
			}
		],
		 "valence_orbital": [ 
			{
				"type": "occ",
				"energy": -0.32672,
				"method": "rhf"
			},
			{
				"type": "occ",
				"energy": -0.3035,
				"method": "rhf"
			},
			{
				"type": "occ",
				"energy": -0.28742,
				"method": "rhf"
			},
			{
				"type": "occ",
				"energy": -0.27626,
				"method": "rhf"
			},
			{
				"type": "occ",
				"energy": -0.2521,
				"method": "rhf"
			},
			{
				"type": "unocc",
				"energy": -0.04731,
				"method": "rhf"
			},
			{
				"type": "unocc",
				"energy": -0.03719,
				"method": "rhf"
			},
			{
				"type": "unocc",
				"energy": 0.00319,
				"method": "rhf"
			},
			{
				"type": "unocc",
				"energy": 0.02173,
				"method": "rhf"
			},
			{
				"type": "unocc",
				"energy": 0.03266,
				"method": "rhf"
			}
		],
		"cosmo_sigma_profile": { 
			"-0.025": 0.0,
			"-0.024": 0.0,
			"-0.023": 0.0,
			"-0.022": 0.0,
			"-0.021": 0.0,
			"-0.02": 0.0,
			"-0.019": 0.0,
			"-0.018": 0.0,
			"-0.017": 0.0,
			"-0.016": 0.0,
			"-0.015": 0.0996386693311,
			"-0.014": 0.648388104332,
			"-0.013": 0.64167771272,
			"-0.012": 0.986077815814,
			"-0.011": 0.522901765185,
			"-0.01": 3.90204071218,
			"-0.009": 6.40778711086,
			"-0.008": 6.87359962699,
			"-0.007": 12.8755432633,
			"-0.006": 13.4781786717,
			"-0.005": 10.516439363,
			"-0.004": 11.3386898303,
			"-0.003": 10.6348735281,
			"-0.002": 9.06926068011,
			"-0.001": 11.5559441403,
			"0.0": 12.3100246231,
			"0.001": 13.7828138677,
			"0.002": 14.4008668928,
			"0.003": 7.55670616471,
			"0.004": 4.95195952372,
			"0.005": 4.14240128741,
			"0.006": 4.30067709379,
			"0.007": 5.06801055231,
			"0.008": 5.6629853809,
			"0.009": 4.94968502153,
			"0.01": 5.13766110785,
			"0.011": 7.10794846192,
			"0.012": 8.08754863662,
			"0.013": 1.94936260203,
			"0.014": 0.482077745452,
			"0.015": 0.0,
			"0.016": 0.0,
			"0.017": 0.0,
			"0.018": 0.0,
			"0.019": 0.0,
			"0.02": 0.0,
			"0.021": 0.0,
			"0.022": 0.0,
			"0.023": 0.0,
			"0.024": 0.0,
			"0.025": 0.0
		}
	}
}
