{
	 "smiles": "NNC(=O)C1=C(N(N=C1)C1=CC=C(Cl)C=C1)C(F)(F)F", 
	 "Tm": 453.15, 
	 "num_atms": 28, 
	 "gaussian": { 
		 "optdone": 1, 
		 "sigma_profile": "yes", 
		 "theory": "DFT", 
		 "functional": "B3LYP", 
		 "basiset": "6-31G**", 
		 "properties": { 
			 "R2extent": 7412.5798, 
			 "electric_dipole_moment_norm": 3.19464313813, 
			 "electric_quadrupole_moment_norm": 13.5864938641, 
			 "total_energy": -1477.88348208, 
			 "HOMO_LUMO_gap": 0.19028, 
			 "cosmo_polarized_energy": -17.18, 
			 "cosmo_cavitation_energy": 36.34, 
			 "cosmo_dispersion_energy": -25.34, 
			 "cosmo_repulsion_energy": 1.91, 
			 "cosmo_total_nonelectrostatic_energy": 12.91, 
			 "SMD_solvation_energy": 7.17 
		},
		"coords": [
			{
				"x": -1.6195954542,
				"y": -4.498160405,
				"z": -0.3456101686,
				"element": "N" 
			},
			{
				"x": -1.7813962325,
				"y": -4.0715523954,
				"z": -1.6776666716,
				"element": "N" 
			},
			{
				"x": -1.4926059094,
				"y": -2.821155578,
				"z": -2.1777210157,
				"element": "C" 
			},
			{
				"x": -1.9839634555,
				"y": -2.423876926,
				"z": -3.2240297647,
				"element": "O" 
			},
			{
				"x": -0.4985128921,
				"y": -2.0121037906,
				"z": -1.4069518925,
				"element": "C" 
			},
			{
				"x": -0.5561967093,
				"y": -0.652382137,
				"z": -1.1284030462,
				"element": "C" 
			},
			{
				"x": 0.6418549658,
				"y": -0.3086214611,
				"z": -0.5559481232,
				"element": "N" 
			},
			{
				"x": 1.4646230066,
				"y": -1.3804952811,
				"z": -0.4466338333,
				"element": "N" 
			},
			{
				"x": 0.7833716965,
				"y": -2.4004444118,
				"z": -0.9508589521,
				"element": "C" 
			},
			{
				"x": 1.1238209971,
				"y": 0.9547857471,
				"z": -0.0899929502,
				"element": "C" 
			},
			{
				"x": 0.939103791,
				"y": 2.1161231392,
				"z": -0.8431583664,
				"element": "C" 
			},
			{
				"x": 1.4441290149,
				"y": 3.3279478932,
				"z": -0.3763790205,
				"element": "C" 
			},
			{
				"x": 2.1470097816,
				"y": 3.3612367181,
				"z": 0.827494787,
				"element": "C" 
			},
			{
				"x": 2.7897903586,
				"y": 4.8855104555,
				"z": 1.4103022447,
				"element": "Cl" 
			},
			{
				"x": 2.3522156018,
				"y": 2.199679813,
				"z": 1.5731941021,
				"element": "C" 
			},
			{
				"x": 1.8354531249,
				"y": 0.9923098808,
				"z": 1.1118410892,
				"element": "C" 
			},
			{
				"x": -1.7132190173,
				"y": 0.2875985001,
				"z": -1.306929441,
				"element": "C" 
			},
			{
				"x": -1.599050503,
				"y": 1.0352753861,
				"z": -2.4278905154,
				"element": "F" 
			},
			{
				"x": -2.8673861622,
				"y": -0.3900330532,
				"z": -1.3830003896,
				"element": "F" 
			},
			{
				"x": -1.8138892739,
				"y": 1.1449875108,
				"z": -0.2657737717,
				"element": "F" 
			},
			{
				"x": -0.6526902164,
				"y": -4.7603491141,
				"z": -0.1793106395,
				"element": "H" 
			},
			{
				"x": -1.8642496263,
				"y": -3.7506756166,
				"z": 0.2993776612,
				"element": "H" 
			},
			{
				"x": -2.5063601137,
				"y": -4.5604774735,
				"z": -2.1887868182,
				"element": "H" 
			},
			{
				"x": 1.247582491,
				"y": -3.375795493,
				"z": -1.0085580547,
				"element": "H" 
			},
			{
				"x": 0.4103553939,
				"y": 2.0802014041,
				"z": -1.7875348868,
				"element": "H" 
			},
			{
				"x": 1.3045971455,
				"y": 4.2361585613,
				"z": -0.951329109,
				"element": "H" 
			},
			{
				"x": 2.9045479795,
				"y": 2.2410237554,
				"z": 2.5050050175,
				"element": "H" 
			},
			{
				"x": 1.9863602174,
				"y": 0.0762843719,
				"z": 1.670352529,
				"element": "H" 
			}
		],
		 "valence_orbital": [ 
			{
				"type": "occ",
				"energy": -0.28678,
				"method": "rhf"
			},
			{
				"type": "occ",
				"energy": -0.2811,
				"method": "rhf"
			},
			{
				"type": "occ",
				"energy": -0.26565,
				"method": "rhf"
			},
			{
				"type": "occ",
				"energy": -0.26031,
				"method": "rhf"
			},
			{
				"type": "occ",
				"energy": -0.2467,
				"method": "rhf"
			},
			{
				"type": "unocc",
				"energy": -0.05642,
				"method": "rhf"
			},
			{
				"type": "unocc",
				"energy": -0.03111,
				"method": "rhf"
			},
			{
				"type": "unocc",
				"energy": -0.01757,
				"method": "rhf"
			},
			{
				"type": "unocc",
				"energy": -0.00267,
				"method": "rhf"
			},
			{
				"type": "unocc",
				"energy": 0.01931,
				"method": "rhf"
			}
		],
		"cosmo_sigma_profile": { 
			"-0.025": 0.0,
			"-0.024": 0.0,
			"-0.023": 0.0,
			"-0.022": 0.0,
			"-0.021": 0.0,
			"-0.02": 0.0,
			"-0.019": 0.0,
			"-0.018": 0.0,
			"-0.017": 0.0,
			"-0.016": 0.0,
			"-0.015": 0.0,
			"-0.014": 0.376382349222,
			"-0.013": 1.16462247779,
			"-0.012": 3.31708329468,
			"-0.011": 4.92293426307,
			"-0.01": 4.65570604088,
			"-0.009": 5.49393607135,
			"-0.008": 7.93716101994,
			"-0.007": 11.4468978075,
			"-0.006": 11.7890324351,
			"-0.005": 10.6947077752,
			"-0.004": 11.9220874913,
			"-0.003": 14.2367664224,
			"-0.002": 16.4087917708,
			"-0.001": 15.9444501455,
			"0.0": 21.7241370208,
			"0.001": 32.2797396413,
			"0.002": 43.7978077956,
			"0.003": 18.1123216485,
			"0.004": 16.846917678,
			"0.005": 7.27258711356,
			"0.006": 4.04600160411,
			"0.007": 3.35021277061,
			"0.008": 3.7926806589,
			"0.009": 3.72749112481,
			"0.01": 3.15758474873,
			"0.011": 2.71887778751,
			"0.012": 5.15420172545,
			"0.013": 5.69204234912,
			"0.014": 1.04406816941,
			"0.015": 0.548425533922,
			"0.016": 0.280869422962,
			"0.017": 0.0,
			"0.018": 0.0,
			"0.019": 0.0,
			"0.02": 0.0,
			"0.021": 0.0,
			"0.022": 0.0,
			"0.023": 0.0,
			"0.024": 0.0,
			"0.025": 0.0
		}
	}
}
