{
	 "smiles": "CC(NC(C)(C)C)C(=O)C1=CC(Cl)=CC=C1", 
	 "Tm": 506.65, 
	 "num_atms": 34, 
	 "gaussian": { 
		 "optdone": 1, 
		 "sigma_profile": "yes", 
		 "theory": "DFT", 
		 "functional": "B3LYP", 
		 "basiset": "6-31G**", 
		 "properties": { 
			 "R2extent": 5968.9198, 
			 "electric_dipole_moment_norm": 0.982420256306, 
			 "electric_quadrupole_moment_norm": 11.1958859524, 
			 "total_energy": -1096.40581313, 
			 "HOMO_LUMO_gap": 0.14084, 
			 "cosmo_polarized_energy": -8.68, 
			 "cosmo_cavitation_energy": 37.3, 
			 "cosmo_dispersion_energy": -25.88, 
			 "cosmo_repulsion_energy": 2.02, 
			 "cosmo_total_nonelectrostatic_energy": 13.44, 
			 "SMD_solvation_energy": 5.61 
		},
		"coords": [
			{
				"x": 1.3671571321,
				"y": -0.7022668632,
				"z": -1.9672835279,
				"element": "C" 
			},
			{
				"x": 0.9424734246,
				"y": -0.287408186,
				"z": -0.5288321005,
				"element": "C" 
			},
			{
				"x": 1.9817623328,
				"y": -0.1113583202,
				"z": 0.4680058135,
				"element": "N" 
			},
			{
				"x": 2.8961254975,
				"y": -1.1854533134,
				"z": 0.8919528545,
				"element": "C" 
			},
			{
				"x": 3.4949821651,
				"y": -0.7134206702,
				"z": 2.2327737155,
				"element": "C" 
			},
			{
				"x": 2.1065492578,
				"y": -2.4835767284,
				"z": 1.12778124,
				"element": "C" 
			},
			{
				"x": 4.0614041801,
				"y": -1.4453840144,
				"z": -0.0951982985,
				"element": "C" 
			},
			{
				"x": 0.2218783681,
				"y": 1.0649893547,
				"z": -0.6609812161,
				"element": "C" 
			},
			{
				"x": 0.8520205929,
				"y": 2.1013484556,
				"z": -0.5106827177,
				"element": "O" 
			},
			{
				"x": -1.2313175963,
				"y": 1.1213555394,
				"z": -1.0428187034,
				"element": "C" 
			},
			{
				"x": -2.0271185294,
				"y": -0.0230911647,
				"z": -1.1995483382,
				"element": "C" 
			},
			{
				"x": -3.3674556943,
				"y": 0.1173632042,
				"z": -1.5532015416,
				"element": "C" 
			},
			{
				"x": -4.3576806232,
				"y": -1.3223491359,
				"z": -1.7501817549,
				"element": "Cl" 
			},
			{
				"x": -3.9392647296,
				"y": 1.3732354395,
				"z": -1.7516137798,
				"element": "C" 
			},
			{
				"x": -3.1428130207,
				"y": 2.5101700778,
				"z": -1.5917970765,
				"element": "C" 
			},
			{
				"x": -1.8020823181,
				"y": 2.3885027103,
				"z": -1.2421911441,
				"element": "C" 
			},
			{
				"x": 2.1246966128,
				"y": -0.0116000968,
				"z": -2.3501662876,
				"element": "H" 
			},
			{
				"x": 1.7809746764,
				"y": -1.7129438465,
				"z": -1.9749052972,
				"element": "H" 
			},
			{
				"x": 0.5138569165,
				"y": -0.6884511733,
				"z": -2.6544525889,
				"element": "H" 
			},
			{
				"x": 0.2345309524,
				"y": -1.0361516638,
				"z": -0.1579891962,
				"element": "H" 
			},
			{
				"x": 2.4724246273,
				"y": 0.7608982864,
				"z": 0.2965209845,
				"element": "H" 
			},
			{
				"x": 4.0360483813,
				"y": 0.2312142816,
				"z": 2.1033023745,
				"element": "H" 
			},
			{
				"x": 4.2008336475,
				"y": -1.4496759633,
				"z": 2.6317594502,
				"element": "H" 
			},
			{
				"x": 2.7018796305,
				"y": -0.5473861916,
				"z": 2.9668334799,
				"element": "H" 
			},
			{
				"x": 2.7586215885,
				"y": -3.2450304064,
				"z": 1.5665452304,
				"element": "H" 
			},
			{
				"x": 1.2742186656,
				"y": -2.3089479054,
				"z": 1.8171418831,
				"element": "H" 
			},
			{
				"x": 1.7032059136,
				"y": -2.8975677037,
				"z": 0.1975378217,
				"element": "H" 
			},
			{
				"x": 3.7139850449,
				"y": -1.8425212856,
				"z": -1.0519140455,
				"element": "H" 
			},
			{
				"x": 4.7736183536,
				"y": -2.1658308829,
				"z": 0.3233674557,
				"element": "H" 
			},
			{
				"x": 4.6078853548,
				"y": -0.5165278036,
				"z": -0.294499582,
				"element": "H" 
			},
			{
				"x": -1.6247307309,
				"y": -1.017469806,
				"z": -1.0511004283,
				"element": "H" 
			},
			{
				"x": -4.9856415246,
				"y": 1.4563095791,
				"z": -2.0240002956,
				"element": "H" 
			},
			{
				"x": -3.5794979758,
				"y": 3.492714975,
				"z": -1.743305976,
				"element": "H" 
			},
			{
				"x": -1.1696305738,
				"y": 3.2597112217,
				"z": -1.113958407,
				"element": "H" 
			}
		],
		 "valence_orbital": [ 
			{
				"type": "occ",
				"energy": -0.32122,
				"method": "rhf"
			},
			{
				"type": "occ",
				"energy": -0.27518,
				"method": "rhf"
			},
			{
				"type": "occ",
				"energy": -0.25842,
				"method": "rhf"
			},
			{
				"type": "occ",
				"energy": -0.25645,
				"method": "rhf"
			},
			{
				"type": "occ",
				"energy": -0.20786,
				"method": "rhf"
			},
			{
				"type": "unocc",
				"energy": -0.06702,
				"method": "rhf"
			},
			{
				"type": "unocc",
				"energy": -0.02359,
				"method": "rhf"
			},
			{
				"type": "unocc",
				"energy": 0.02106,
				"method": "rhf"
			},
			{
				"type": "unocc",
				"energy": 0.02853,
				"method": "rhf"
			},
			{
				"type": "unocc",
				"energy": 0.07348,
				"method": "rhf"
			}
		],
		"cosmo_sigma_profile": { 
			"-0.025": 0.0,
			"-0.024": 0.0,
			"-0.023": 0.0,
			"-0.022": 0.0,
			"-0.021": 0.0,
			"-0.02": 0.0,
			"-0.019": 0.0,
			"-0.018": 0.0,
			"-0.017": 0.0,
			"-0.016": 0.0,
			"-0.015": 0.0,
			"-0.014": 0.0,
			"-0.013": 0.0,
			"-0.012": 0.0,
			"-0.011": 0.0,
			"-0.01": 0.0,
			"-0.009": 0.785533455324,
			"-0.008": 2.9956261954,
			"-0.007": 5.93774077976,
			"-0.006": 8.78549293829,
			"-0.005": 10.5140897574,
			"-0.004": 15.2706459057,
			"-0.003": 25.7065209702,
			"-0.002": 33.9165452557,
			"-0.001": 31.8017497909,
			"0.0": 34.4209513858,
			"0.001": 40.7070733931,
			"0.002": 32.1718214773,
			"0.003": 13.5639306673,
			"0.004": 12.1499999441,
			"0.005": 5.87235510094,
			"0.006": 2.87403298865,
			"0.007": 2.20938107231,
			"0.008": 2.46638048255,
			"0.009": 3.03453545905,
			"0.01": 3.30505657036,
			"0.011": 4.29374532468,
			"0.012": 1.24701532678,
			"0.013": 0.358622916618,
			"0.014": 0.388556642812,
			"0.015": 0.340900724688,
			"0.016": 0.00510355634244,
			"0.017": 0.0,
			"0.018": 0.0,
			"0.019": 0.0,
			"0.02": 0.0,
			"0.021": 0.0,
			"0.022": 0.0,
			"0.023": 0.0,
			"0.024": 0.0,
			"0.025": 0.0
		}
	}
}
