{
	 "smiles": "ClP(C1=CC=C(Cl)C=C1)C1=CC=C(Cl)C=C1", 
	 "Tm": 326.15, 
	 "num_atms": 24, 
	 "gaussian": { 
		 "optdone": 1, 
		 "sigma_profile": "yes", 
		 "theory": "DFT", 
		 "functional": "B3LYP", 
		 "basiset": "6-31G**", 
		 "properties": { 
			 "R2extent": 8502.2951, 
			 "electric_dipole_moment_norm": 1.45859290414, 
			 "electric_quadrupole_moment_norm": 9.29920011937, 
			 "total_energy": -2184.04940769, 
			 "HOMO_LUMO_gap": 0.17476, 
			 "cosmo_polarized_energy": -7.66, 
			 "cosmo_cavitation_energy": 35.36, 
			 "cosmo_dispersion_energy": -26.17, 
			 "cosmo_repulsion_energy": 2.19, 
			 "cosmo_total_nonelectrostatic_energy": 11.38, 
			 "SMD_solvation_energy": 4.96 
		},
		"coords": [
			{
				"x": -2.2954214799,
				"y": 0.8261202933,
				"z": -0.6808722707,
				"element": "Cl" 
			},
			{
				"x": -0.8996675537,
				"y": 1.7478379181,
				"z": 0.6360392776,
				"element": "P" 
			},
			{
				"x": -1.3299359366,
				"y": 0.9085710015,
				"z": 2.2278515245,
				"element": "C" 
			},
			{
				"x": -2.6433194932,
				"y": 0.5405464903,
				"z": 2.5540735841,
				"element": "C" 
			},
			{
				"x": -2.9571310723,
				"y": 0.0537540777,
				"z": 3.8226867751,
				"element": "C" 
			},
			{
				"x": -1.9509276686,
				"y": -0.0538534848,
				"z": 4.7815694721,
				"element": "C" 
			},
			{
				"x": -2.3395200398,
				"y": -0.6666264786,
				"z": 6.3799467197,
				"element": "Cl" 
			},
			{
				"x": -0.6388596848,
				"y": 0.316986337,
				"z": 4.4888448046,
				"element": "C" 
			},
			{
				"x": -0.3365097118,
				"y": 0.7971552881,
				"z": 3.2157715443,
				"element": "C" 
			},
			{
				"x": 0.6518157723,
				"y": 0.8685342968,
				"z": 0.1756131666,
				"element": "C" 
			},
			{
				"x": 1.6936292085,
				"y": 1.6525431369,
				"z": -0.340810574,
				"element": "C" 
			},
			{
				"x": 2.9064231972,
				"y": 1.0755141157,
				"z": -0.7212786634,
				"element": "C" 
			},
			{
				"x": 3.0666959922,
				"y": -0.3021888316,
				"z": -0.5890380938,
				"element": "C" 
			},
			{
				"x": 4.5836019629,
				"y": -1.0423829176,
				"z": -1.0645805673,
				"element": "Cl" 
			},
			{
				"x": 2.041781981,
				"y": -1.1085878148,
				"z": -0.0848499128,
				"element": "C" 
			},
			{
				"x": 0.8408641777,
				"y": -0.5185194827,
				"z": 0.2963483204,
				"element": "C" 
			},
			{
				"x": -3.4296765689,
				"y": 0.6162136345,
				"z": 1.8106716722,
				"element": "H" 
			},
			{
				"x": -3.9724661713,
				"y": -0.2409026664,
				"z": 4.0640526497,
				"element": "H" 
			},
			{
				"x": 0.134730063,
				"y": 0.2254999907,
				"z": 5.2432376691,
				"element": "H" 
			},
			{
				"x": 0.6897421285,
				"y": 1.076200469,
				"z": 2.9955167353,
				"element": "H" 
			},
			{
				"x": 1.5596947137,
				"y": 2.7255908576,
				"z": -0.4479608215,
				"element": "H" 
			},
			{
				"x": 3.7125835956,
				"y": 1.6831706787,
				"z": -1.1167182973,
				"element": "H" 
			},
			{
				"x": 2.1887070219,
				"y": -2.1792649966,
				"z": 0.0048194359,
				"element": "H" 
			},
			{
				"x": 0.0430655664,
				"y": -1.1416119127,
				"z": 0.6882658496,
				"element": "H" 
			}
		],
		 "valence_orbital": [ 
			{
				"type": "occ",
				"energy": -0.28259,
				"method": "rhf"
			},
			{
				"type": "occ",
				"energy": -0.27644,
				"method": "rhf"
			},
			{
				"type": "occ",
				"energy": -0.27433,
				"method": "rhf"
			},
			{
				"type": "occ",
				"energy": -0.26341,
				"method": "rhf"
			},
			{
				"type": "occ",
				"energy": -0.24215,
				"method": "rhf"
			},
			{
				"type": "unocc",
				"energy": -0.06739,
				"method": "rhf"
			},
			{
				"type": "unocc",
				"energy": -0.03654,
				"method": "rhf"
			},
			{
				"type": "unocc",
				"energy": -0.03424,
				"method": "rhf"
			},
			{
				"type": "unocc",
				"energy": -0.02424,
				"method": "rhf"
			},
			{
				"type": "unocc",
				"energy": -0.00267,
				"method": "rhf"
			}
		],
		"cosmo_sigma_profile": { 
			"-0.025": 0.0,
			"-0.024": 0.0,
			"-0.023": 0.0,
			"-0.022": 0.0,
			"-0.021": 0.0,
			"-0.02": 0.0,
			"-0.019": 0.0,
			"-0.018": 0.0,
			"-0.017": 0.0,
			"-0.016": 0.0,
			"-0.015": 0.0,
			"-0.014": 0.0,
			"-0.013": 0.0,
			"-0.012": 0.0,
			"-0.011": 0.0,
			"-0.01": 0.0,
			"-0.009": 0.0578711462308,
			"-0.008": 3.94674440739,
			"-0.007": 13.1519062278,
			"-0.006": 16.5118557489,
			"-0.005": 14.2129791571,
			"-0.004": 15.0803034253,
			"-0.003": 15.4881715568,
			"-0.002": 15.9984674518,
			"-0.001": 18.825547731,
			"0.0": 24.7000990612,
			"0.001": 32.8398597795,
			"0.002": 37.2591588086,
			"0.003": 34.138751206,
			"0.004": 27.8522844996,
			"0.005": 13.4560901022,
			"0.006": 7.12741006786,
			"0.007": 1.20751686884,
			"0.008": 0.740797027706,
			"0.009": 0.295889471016,
			"0.01": 0.0,
			"0.011": 0.0,
			"0.012": 0.0,
			"0.013": 0.0,
			"0.014": 0.0,
			"0.015": 0.0,
			"0.016": 0.0,
			"0.017": 0.0,
			"0.018": 0.0,
			"0.019": 0.0,
			"0.02": 0.0,
			"0.021": 0.0,
			"0.022": 0.0,
			"0.023": 0.0,
			"0.024": 0.0,
			"0.025": 0.0
		}
	}
}
