{
	 "smiles": "OC(=O)C=CC1=CN(N=C1C1=CC(=CC=C1)[N+]([O-])=O)C1=CC=CC=C1", 
	 "Tm": 522.15, 
	 "num_atms": 38, 
	 "gaussian": { 
		 "optdone": 1, 
		 "sigma_profile": "yes", 
		 "theory": "DFT", 
		 "functional": "B3LYP", 
		 "basiset": "6-31G**", 
		 "properties": { 
			 "R2extent": 12207.1733, 
			 "electric_dipole_moment_norm": 7.48583342187, 
			 "electric_quadrupole_moment_norm": 31.1756023956, 
			 "total_energy": -1158.79150616, 
			 "HOMO_LUMO_gap": 0.14192, 
			 "cosmo_polarized_energy": -20.11, 
			 "cosmo_cavitation_energy": 45.45, 
			 "cosmo_dispersion_energy": -31.61, 
			 "cosmo_repulsion_energy": 2.37, 
			 "cosmo_total_nonelectrostatic_energy": 16.22, 
			 "SMD_solvation_energy": 10.66 
		},
		"coords": [
			{
				"x": 3.0280663974,
				"y": 3.5214490786,
				"z": 3.8757280365,
				"element": "O" 
			},
			{
				"x": 1.8169658229,
				"y": 3.1644901621,
				"z": 3.372146955,
				"element": "C" 
			},
			{
				"x": 0.770431826,
				"y": 3.5414017237,
				"z": 3.8650391869,
				"element": "O" 
			},
			{
				"x": 1.9588004567,
				"y": 2.2918357046,
				"z": 2.1932427219,
				"element": "C" 
			},
			{
				"x": 0.8622883183,
				"y": 1.8541827762,
				"z": 1.5442648347,
				"element": "C" 
			},
			{
				"x": 0.8388122623,
				"y": 0.9580240323,
				"z": 0.4056435238,
				"element": "C" 
			},
			{
				"x": 1.8533079495,
				"y": 0.1209899123,
				"z": -0.0397657289,
				"element": "C" 
			},
			{
				"x": 1.3635157497,
				"y": -0.6024031167,
				"z": -1.0806317166,
				"element": "N" 
			},
			{
				"x": 0.0728696189,
				"y": -0.2820449596,
				"z": -1.3513835813,
				"element": "N" 
			},
			{
				"x": -0.2597255636,
				"y": 0.6561919188,
				"z": -0.4668824832,
				"element": "C" 
			},
			{
				"x": -1.6190140789,
				"y": 1.2252580867,
				"z": -0.4941460388,
				"element": "C" 
			},
			{
				"x": -1.8521450342,
				"y": 2.5752980075,
				"z": -0.2009379843,
				"element": "C" 
			},
			{
				"x": -3.1543668038,
				"y": 3.0652500915,
				"z": -0.2578460778,
				"element": "C" 
			},
			{
				"x": -4.2416557237,
				"y": 2.2665366663,
				"z": -0.6015347984,
				"element": "C" 
			},
			{
				"x": -4.0024587222,
				"y": 0.9269364573,
				"z": -0.9060351264,
				"element": "C" 
			},
			{
				"x": -2.7091315955,
				"y": 0.4113073141,
				"z": -0.8540689547,
				"element": "C" 
			},
			{
				"x": -3.3859099616,
				"y": 4.4905763921,
				"z": 0.0388761455,
				"element": "N" 
			},
			{
				"x": -4.5471597134,
				"y": 4.896342041,
				"z": 0.0084390682,
				"element": "O" 
			},
			{
				"x": -2.4054421267,
				"y": 5.1871144798,
				"z": 0.2953673136,
				"element": "O" 
			},
			{
				"x": 2.026008313,
				"y": -1.5906290679,
				"z": -1.8640903206,
				"element": "C" 
			},
			{
				"x": 3.3562876979,
				"y": -1.9366897708,
				"z": -1.599730361,
				"element": "C" 
			},
			{
				"x": 3.9827027975,
				"y": -2.908496848,
				"z": -2.378491207,
				"element": "C" 
			},
			{
				"x": 3.2959728031,
				"y": -3.5369657284,
				"z": -3.4179859795,
				"element": "C" 
			},
			{
				"x": 1.9699199562,
				"y": -3.1836186958,
				"z": -3.6748756162,
				"element": "C" 
			},
			{
				"x": 1.329712747,
				"y": -2.2147421501,
				"z": -2.9055543881,
				"element": "C" 
			},
			{
				"x": 2.8385638307,
				"y": 4.0930511325,
				"z": 4.6380446504,
				"element": "H" 
			},
			{
				"x": 2.9677670216,
				"y": 2.0385335736,
				"z": 1.8832071353,
				"element": "H" 
			},
			{
				"x": -0.0967459982,
				"y": 2.1973732577,
				"z": 1.9260901554,
				"element": "H" 
			},
			{
				"x": 2.8525783513,
				"y": -0.0164572701,
				"z": 0.3398420545,
				"element": "H" 
			},
			{
				"x": -1.047073255,
				"y": 3.2564466058,
				"z": 0.0419946659,
				"element": "H" 
			},
			{
				"x": -5.2342001959,
				"y": 2.6976655969,
				"z": -0.6290360282,
				"element": "H" 
			},
			{
				"x": -4.8311064715,
				"y": 0.2819184318,
				"z": -1.180597261,
				"element": "H" 
			},
			{
				"x": -2.5237884335,
				"y": -0.6311953088,
				"z": -1.0888147327,
				"element": "H" 
			},
			{
				"x": 3.9101383914,
				"y": -1.461115876,
				"z": -0.7984746156,
				"element": "H" 
			},
			{
				"x": 5.0146474155,
				"y": -3.171734485,
				"z": -2.1671271033,
				"element": "H" 
			},
			{
				"x": 3.7894203448,
				"y": -4.2924783608,
				"z": -4.0212489579,
				"element": "H" 
			},
			{
				"x": 1.4245748306,
				"y": -3.6636545799,
				"z": -4.4819115826,
				"element": "H" 
			},
			{
				"x": 0.3031707754,
				"y": -1.9303472253,
				"z": -3.0963558036,
				"element": "H" 
			}
		],
		 "valence_orbital": [ 
			{
				"type": "occ",
				"energy": -0.27487,
				"method": "rhf"
			},
			{
				"type": "occ",
				"energy": -0.27247,
				"method": "rhf"
			},
			{
				"type": "occ",
				"energy": -0.27142,
				"method": "rhf"
			},
			{
				"type": "occ",
				"energy": -0.25384,
				"method": "rhf"
			},
			{
				"type": "occ",
				"energy": -0.22913,
				"method": "rhf"
			},
			{
				"type": "unocc",
				"energy": -0.08721,
				"method": "rhf"
			},
			{
				"type": "unocc",
				"energy": -0.06847,
				"method": "rhf"
			},
			{
				"type": "unocc",
				"energy": -0.05165,
				"method": "rhf"
			},
			{
				"type": "unocc",
				"energy": -0.02099,
				"method": "rhf"
			},
			{
				"type": "unocc",
				"energy": -0.01829,
				"method": "rhf"
			}
		],
		"cosmo_sigma_profile": { 
			"-0.025": 0.0,
			"-0.024": 0.0,
			"-0.023": 0.0,
			"-0.022": 0.0,
			"-0.021": 0.0,
			"-0.02": 0.0,
			"-0.019": 0.0,
			"-0.018": 0.348311609234,
			"-0.017": 1.041479117,
			"-0.016": 0.786251935154,
			"-0.015": 0.786040101792,
			"-0.014": 0.835155250824,
			"-0.013": 0.865100111628,
			"-0.012": 1.23033387816,
			"-0.011": 2.1670287282,
			"-0.01": 3.42223130674,
			"-0.009": 3.24568735531,
			"-0.008": 5.16555309256,
			"-0.007": 11.3118475904,
			"-0.006": 19.6454684266,
			"-0.005": 23.6631621075,
			"-0.004": 21.0758385688,
			"-0.003": 20.8922324031,
			"-0.002": 22.4292966445,
			"-0.001": 26.0909935122,
			"0.0": 32.2084323519,
			"0.001": 35.7788676922,
			"0.002": 29.3944855052,
			"0.003": 18.7364830821,
			"0.004": 19.3502833849,
			"0.005": 11.8687829671,
			"0.006": 9.47356208866,
			"0.007": 11.2184483799,
			"0.008": 10.7173872437,
			"0.009": 8.31123543807,
			"0.01": 5.08576280703,
			"0.011": 2.13828763735,
			"0.012": 5.56830746827,
			"0.013": 1.52981425376,
			"0.014": 0.0,
			"0.015": 0.0,
			"0.016": 0.0,
			"0.017": 0.0,
			"0.018": 0.0,
			"0.019": 0.0,
			"0.02": 0.0,
			"0.021": 0.0,
			"0.022": 0.0,
			"0.023": 0.0,
			"0.024": 0.0,
			"0.0": 0.0
		}
	}
}
