{
	 "smiles": "NC(CC1=CC=C(I)C=C1)C(O)=O", 
	 "Tm": 524.15, 
	 "num_atms": 23, 
	 "gaussian": { 
		 "optdone": 1, 
		 "sigma_profile": "no", 
		 "theory": "DFT", 
		 "functional": "B3LYP", 
		 "basiset": "6-31G**", 
		 "properties": { 
			 "R2extent": 3242.7975, 
			 "electric_dipole_moment_norm": 4.26588919687, 
			 "electric_quadrupole_moment_norm": 8.7228675503, 
			 "total_energy": -565.580568037, 
			 "HOMO_LUMO_gap": 0.19756, 
			 "cosmo_polarized_energy": -105441.59, 
			 "cosmo_cavitation_energy": 29.99, 
			 "cosmo_dispersion_energy": -22.89, 
			 "cosmo_repulsion_energy": 1.82, 
			 "cosmo_total_nonelectrostatic_energy": 8.92, 
			 "SMD_solvation_energy": 4.52 
		},
		"coords": [
			{
				"x": 0.9663759027,
				"y": 0.5498129694,
				"z": 1.2008041273,
				"element": "N" 
			},
			{
				"x": -0.3353706254,
				"y": 0.9520818695,
				"z": 0.6768703955,
				"element": "C" 
			},
			{
				"x": -1.3005601322,
				"y": -0.25709462,
				"z": 0.5789404439,
				"element": "C" 
			},
			{
				"x": -0.8730195222,
				"y": -1.3435174356,
				"z": -0.3847198427,
				"element": "C" 
			},
			{
				"x": 0.094519004,
				"y": -2.2925747876,
				"z": -0.0277975833,
				"element": "C" 
			},
			{
				"x": 0.488069199,
				"y": -3.2950876049,
				"z": -0.914468596,
				"element": "C" 
			},
			{
				"x": -0.0958172247,
				"y": -3.3516075111,
				"z": -2.1808040294,
				"element": "C" 
			},
			{
				"x": 0.4893471917,
				"y": -4.8782246704,
				"z": -3.5380022663,
				"element": "I" 
			},
			{
				"x": -1.05991058,
				"y": -2.4203971291,
				"z": -2.5650558303,
				"element": "C" 
			},
			{
				"x": -1.4398667428,
				"y": -1.4241294752,
				"z": -1.6634553012,
				"element": "C" 
			},
			{
				"x": -0.2277745117,
				"y": 1.6555006821,
				"z": -0.6724673946,
				"element": "C" 
			},
			{
				"x": 1.0022233044,
				"y": 2.1685152796,
				"z": -0.9050319442,
				"element": "O" 
			},
			{
				"x": -1.1518765291,
				"y": 1.8075570719,
				"z": -1.4409230838,
				"element": "O" 
			},
			{
				"x": 1.6591351869,
				"y": 1.2725359343,
				"z": 1.035465457,
				"element": "H" 
			},
			{
				"x": 0.9023042877,
				"y": 0.4070684409,
				"z": 2.2045209877,
				"element": "H" 
			},
			{
				"x": -0.8453099784,
				"y": 1.7027428502,
				"z": 1.3119537464,
				"element": "H" 
			},
			{
				"x": -1.3974330894,
				"y": -0.6715414437,
				"z": 1.5897586172,
				"element": "H" 
			},
			{
				"x": -2.2839478496,
				"y": 0.1260962326,
				"z": 0.2941596649,
				"element": "H" 
			},
			{
				"x": 0.5576356384,
				"y": -2.241414831,
				"z": 0.9519186335,
				"element": "H" 
			},
			{
				"x": 1.2380032944,
				"y": -4.020074935,
				"z": -0.6184312901,
				"element": "H" 
			},
			{
				"x": -1.5132320003,
				"y": -2.4653882927,
				"z": -3.5489661117,
				"element": "H" 
			},
			{
				"x": -2.1809881703,
				"y": -0.6904063332,
				"z": -1.9654479872,
				"element": "H" 
			},
			{
				"x": 0.9519939469,
				"y": 2.6163477391,
				"z": -1.7664208125,
				"element": "H" 
			}
		],
		 "valence_orbital": [ 
			{
				"type": "occ",
				"energy": -0.28159,
				"method": "rhf"
			},
			{
				"type": "occ",
				"energy": -0.26063,
				"method": "rhf"
			},
			{
				"type": "occ",
				"energy": -0.25571,
				"method": "rhf"
			},
			{
				"type": "occ",
				"energy": -0.24639,
				"method": "rhf"
			},
			{
				"type": "occ",
				"energy": -0.22828,
				"method": "rhf"
			},
			{
				"type": "unocc",
				"energy": -0.03072,
				"method": "rhf"
			},
			{
				"type": "unocc",
				"energy": -0.01136,
				"method": "rhf"
			},
			{
				"type": "unocc",
				"energy": -0.00382,
				"method": "rhf"
			},
			{
				"type": "unocc",
				"energy": -0.00147,
				"method": "rhf"
			},
			{
				"type": "unocc",
				"energy": 0.04867,
				"method": "rhf"
			}
		],
		"cosmo_sigma_profile": { 
			"0.0": 0.0,
			"0.0": 0.0,
			"0.0": 0.0,
			"0.0": 0.0,
			"0.0": 0.0,
			"0.0": 0.0,
			"0.0": 0.0,
			"0.0": 0.0,
			"0.0": 0.0,
			"0.0": 0.0,
			"0.0": 0.0,
			"0.0": 0.0,
			"0.0": 0.0,
			"0.0": 0.0,
			"0.0": 0.0,
			"0.0": 0.0,
			"0.0": 0.0,
			"0.0": 0.0,
			"0.0": 0.0,
			"0.0": 0.0,
			"0.0": 0.0,
			"0.0": 0.0,
			"0.0": 0.0,
			"0.0": 0.0,
			"0.0": 0.0,
			"0.0": 0.0,
			"0.0": 0.0,
			"0.0": 0.0,
			"0.0": 0.0,
			"0.0": 0.0,
			"0.0": 0.0,
			"0.0": 0.0,
			"0.0": 0.0,
			"0.0": 0.0,
			"0.0": 0.0,
			"0.0": 0.0,
			"0.0": 0.0,
			"0.0": 0.0,
			"0.0": 0.0,
			"0.0": 0.0,
			"0.0": 0.0,
			"0.0": 0.0,
			"0.0": 0.0,
			"0.0": 0.0,
			"0.0": 0.0,
			"0.0": 0.0,
			"0.0": 0.0,
			"0.0": 0.0,
			"0.0": 0.0,
			"0.0": 0.0,
			"0.0": 0.0
		}
	}
}
