{
	 "smiles": "CCC1(CC)COC(=O)NC1=O", 
	 "Tm": 370.65, 
	 "num_atms": 25, 
	 "gaussian": { 
		 "optdone": 1, 
		 "sigma_profile": "yes", 
		 "theory": "DFT", 
		 "functional": "B3LYP", 
		 "basiset": "6-31G**", 
		 "properties": { 
			 "R2extent": 2093.5011, 
			 "electric_dipole_moment_norm": 3.35044145599, 
			 "electric_quadrupole_moment_norm": 10.3192170478, 
			 "total_energy": -593.146418991, 
			 "HOMO_LUMO_gap": 0.24408, 
			 "cosmo_polarized_energy": -13.48, 
			 "cosmo_cavitation_energy": 26.39, 
			 "cosmo_dispersion_energy": -19.16, 
			 "cosmo_repulsion_energy": 1.52, 
			 "cosmo_total_nonelectrostatic_energy": 8.74, 
			 "SMD_solvation_energy": 6.24 
		},
		"coords": [
			{
				"x": -1.6888508466,
				"y": 1.287182261,
				"z": 1.9500649035,
				"element": "C" 
			},
			{
				"x": -0.2775044742,
				"y": 0.9210665431,
				"z": 1.4709366804,
				"element": "C" 
			},
			{
				"x": -0.1141271721,
				"y": -0.4033024577,
				"z": 0.6544358744,
				"element": "C" 
			},
			{
				"x": 0.1257624076,
				"y": -1.6532319574,
				"z": 1.5435694225,
				"element": "C" 
			},
			{
				"x": -0.8416922072,
				"y": -1.9052992324,
				"z": 2.7053985369,
				"element": "C" 
			},
			{
				"x": 1.115691198,
				"y": -0.269336656,
				"z": -0.2607068199,
				"element": "C" 
			},
			{
				"x": 0.972545831,
				"y": 0.7631654984,
				"z": -1.2557406174,
				"element": "O" 
			},
			{
				"x": -0.1533616868,
				"y": 0.7770337914,
				"z": -2.0014453977,
				"element": "C" 
			},
			{
				"x": -0.2492074044,
				"y": 1.4303409082,
				"z": -3.0101580305,
				"element": "O" 
			},
			{
				"x": -1.2010558643,
				"y": -0.0113939596,
				"z": -1.5126205006,
				"element": "N" 
			},
			{
				"x": -1.320927327,
				"y": -0.6127794628,
				"z": -0.2595177455,
				"element": "C" 
			},
			{
				"x": -2.33147603,
				"y": -1.225467365,
				"z": 0.0302120742,
				"element": "O" 
			},
			{
				"x": -2.1416037855,
				"y": 0.5084267108,
				"z": 2.5661141067,
				"element": "H" 
			},
			{
				"x": -1.6455257763,
				"y": 2.2062551627,
				"z": 2.5430673312,
				"element": "H" 
			},
			{
				"x": -2.3636510331,
				"y": 1.4727795565,
				"z": 1.1089096439,
				"element": "H" 
			},
			{
				"x": 0.4008986505,
				"y": 0.8491614163,
				"z": 2.3305328813,
				"element": "H" 
			},
			{
				"x": 0.0985598758,
				"y": 1.7456991154,
				"z": 0.8555286462,
				"element": "H" 
			},
			{
				"x": 0.1318320294,
				"y": -2.5358382875,
				"z": 0.8920840801,
				"element": "H" 
			},
			{
				"x": 1.1442084059,
				"y": -1.5651610091,
				"z": 1.9471821643,
				"element": "H" 
			},
			{
				"x": -1.868073601,
				"y": -1.9972382676,
				"z": 2.3474261224,
				"element": "H" 
			},
			{
				"x": -0.7982520251,
				"y": -1.1076369817,
				"z": 3.452777672,
				"element": "H" 
			},
			{
				"x": -0.5678468224,
				"y": -2.8370338003,
				"z": 3.2110493458,
				"element": "H" 
			},
			{
				"x": 1.9964930779,
				"y": 0.0191537565,
				"z": 0.3164669969,
				"element": "H" 
			},
			{
				"x": 1.3275030597,
				"y": -1.2181936697,
				"z": -0.7694863465,
				"element": "H" 
			},
			{
				"x": -2.0205384799,
				"y": -0.0502516134,
				"z": -2.1075810246,
				"element": "H" 
			}
		],
		 "valence_orbital": [ 
			{
				"type": "occ",
				"energy": -0.32823,
				"method": "rhf"
			},
			{
				"type": "occ",
				"energy": -0.31224,
				"method": "rhf"
			},
			{
				"type": "occ",
				"energy": -0.30227,
				"method": "rhf"
			},
			{
				"type": "occ",
				"energy": -0.29117,
				"method": "rhf"
			},
			{
				"type": "occ",
				"energy": -0.26969,
				"method": "rhf"
			},
			{
				"type": "unocc",
				"energy": -0.02561,
				"method": "rhf"
			},
			{
				"type": "unocc",
				"energy": 0.04446,
				"method": "rhf"
			},
			{
				"type": "unocc",
				"energy": 0.07152,
				"method": "rhf"
			},
			{
				"type": "unocc",
				"energy": 0.08447,
				"method": "rhf"
			},
			{
				"type": "unocc",
				"energy": 0.10133,
				"method": "rhf"
			}
		],
		"cosmo_sigma_profile": { 
			"-0.025": 0.0,
			"-0.024": 0.0,
			"-0.023": 0.0,
			"-0.022": 0.0,
			"-0.021": 0.0,
			"-0.02": 0.0,
			"-0.019": 0.0,
			"-0.018": 0.0,
			"-0.017": 0.0,
			"-0.016": 0.576548860377,
			"-0.015": 0.899056937124,
			"-0.014": 0.997189480617,
			"-0.013": 0.970864866616,
			"-0.012": 0.266001759439,
			"-0.011": 0.713678852615,
			"-0.01": 1.04682811907,
			"-0.009": 0.826194701155,
			"-0.008": 3.30834616875,
			"-0.007": 8.14767968536,
			"-0.006": 7.50632709598,
			"-0.005": 9.7800461756,
			"-0.004": 16.322241778,
			"-0.003": 21.679810324,
			"-0.002": 22.5474341353,
			"-0.001": 22.2434388,
			"0.0": 16.3272791013,
			"0.001": 15.2339310227,
			"0.002": 5.98663343413,
			"0.003": 3.49332726104,
			"0.004": 3.59722674661,
			"0.005": 4.09599501486,
			"0.006": 3.23313230836,
			"0.007": 4.41385842255,
			"0.008": 4.02578017813,
			"0.009": 4.87105565623,
			"0.01": 5.30852614676,
			"0.011": 8.45168526786,
			"0.012": 7.60557251,
			"0.013": 1.15295598349,
			"0.014": 0.0,
			"0.015": 0.0,
			"0.016": 0.0,
			"0.017": 0.0,
			"0.018": 0.0,
			"0.019": 0.0,
			"0.02": 0.0,
			"0.021": 0.0,
			"0.022": 0.0,
			"0.023": 0.0,
			"0.024": 0.0,
			"0.025": 0.0
		}
	}
}
