{
	 "smiles": "CC(C)C(N)=S", 
	 "Tm": 316.15, 
	 "num_atms": 15, 
	 "gaussian": { 
		 "optdone": 1, 
		 "sigma_profile": "yes", 
		 "theory": "DFT", 
		 "functional": "B3LYP", 
		 "basiset": "6-31G**", 
		 "properties": { 
			 "R2extent": 948.5285, 
			 "electric_dipole_moment_norm": 4.54160883719, 
			 "electric_quadrupole_moment_norm": 10.9090323494, 
			 "total_energy": -610.806019867, 
			 "HOMO_LUMO_gap": 0.17841, 
			 "cosmo_polarized_energy": -14.29, 
			 "cosmo_cavitation_energy": 19.26, 
			 "cosmo_dispersion_energy": -14.45, 
			 "cosmo_repulsion_energy": 1.21, 
			 "cosmo_total_nonelectrostatic_energy": 6.02, 
			 "SMD_solvation_energy": 2.72 
		},
		"coords": [
			{
				"x": -1.6174648796,
				"y": -0.1911073383,
				"z": 0.8568376382,
				"element": "C" 
			},
			{
				"x": -0.486652665,
				"y": 0.6711600867,
				"z": 0.2700153004,
				"element": "C" 
			},
			{
				"x": 0.8890771725,
				"y": 0.2105564558,
				"z": 0.781888633,
				"element": "C" 
			},
			{
				"x": -0.5304863142,
				"y": 0.660854268,
				"z": -1.2584026281,
				"element": "C" 
			},
			{
				"x": -0.7388880852,
				"y": 1.8672216352,
				"z": -1.8195227826,
				"element": "N" 
			},
			{
				"x": -0.3390369899,
				"y": -0.7147075611,
				"z": -2.1790189069,
				"element": "S" 
			},
			{
				"x": -2.6003429918,
				"y": 0.1535528733,
				"z": 0.520427817,
				"element": "H" 
			},
			{
				"x": -1.5939491611,
				"y": -0.1453314318,
				"z": 1.9505760666,
				"element": "H" 
			},
			{
				"x": -1.4975430338,
				"y": -1.2316248511,
				"z": 0.5448668945,
				"element": "H" 
			},
			{
				"x": -0.6429375454,
				"y": 1.7085631479,
				"z": 0.6028441313,
				"element": "H" 
			},
			{
				"x": 1.693916324,
				"y": 0.8414221137,
				"z": 0.3916689541,
				"element": "H" 
			},
			{
				"x": 1.0819160368,
				"y": -0.8183988318,
				"z": 0.4680984724,
				"element": "H" 
			},
			{
				"x": 0.9163520558,
				"y": 0.2573404005,
				"z": 1.8754878534,
				"element": "H" 
			},
			{
				"x": -0.8537883034,
				"y": 2.7014840401,
				"z": -1.2628605411,
				"element": "H" 
			},
			{
				"x": -0.7796716199,
				"y": 1.9414149929,
				"z": -2.8262069022,
				"element": "H" 
			}
		],
		 "valence_orbital": [ 
			{
				"type": "occ",
				"energy": -0.34814,
				"method": "rhf"
			},
			{
				"type": "occ",
				"energy": -0.33991,
				"method": "rhf"
			},
			{
				"type": "occ",
				"energy": -0.33428,
				"method": "rhf"
			},
			{
				"type": "occ",
				"energy": -0.22709,
				"method": "rhf"
			},
			{
				"type": "occ",
				"energy": -0.20522,
				"method": "rhf"
			},
			{
				"type": "unocc",
				"energy": -0.02681,
				"method": "rhf"
			},
			{
				"type": "unocc",
				"energy": 0.05798,
				"method": "rhf"
			},
			{
				"type": "unocc",
				"energy": 0.09225,
				"method": "rhf"
			},
			{
				"type": "unocc",
				"energy": 0.10342,
				"method": "rhf"
			},
			{
				"type": "unocc",
				"energy": 0.13749,
				"method": "rhf"
			}
		],
		"cosmo_sigma_profile": { 
			"-0.025": 0.0,
			"-0.024": 0.0,
			"-0.023": 0.0,
			"-0.022": 0.0,
			"-0.021": 0.0,
			"-0.02": 0.0,
			"-0.019": 0.0,
			"-0.018": 0.0,
			"-0.017": 0.0,
			"-0.016": 0.3037597337,
			"-0.015": 1.98765077754,
			"-0.014": 2.60708943749,
			"-0.013": 2.74974486558,
			"-0.012": 2.99477604472,
			"-0.011": 1.83058412726,
			"-0.01": 2.36038183173,
			"-0.009": 2.14538659791,
			"-0.008": 1.67584029308,
			"-0.007": 1.61453883914,
			"-0.006": 2.3164447732,
			"-0.005": 1.94922763854,
			"-0.004": 7.9668014861,
			"-0.003": 14.4668013889,
			"-0.002": 13.8145958562,
			"-0.001": 12.4293244422,
			"0.0": 15.2538017958,
			"0.001": 14.0528567385,
			"0.002": 4.95506464882,
			"0.003": 3.83738273838,
			"0.004": 3.25871154602,
			"0.005": 4.5272198316,
			"0.006": 4.9988102346,
			"0.007": 4.13216771682,
			"0.008": 4.65745838727,
			"0.009": 6.3497128816,
			"0.01": 6.98873160707,
			"0.011": 3.74498291547,
			"0.012": 2.41096799222,
			"0.013": 0.325964406577,
			"0.014": 0.0,
			"0.015": 0.0,
			"0.016": 0.0,
			"0.017": 0.0,
			"0.018": 0.0,
			"0.019": 0.0,
			"0.02": 0.0,
			"0.021": 0.0,
			"0.022": 0.0,
			"0.023": 0.0,
			"0.024": 0.0,
			"0.025": 0.0
		}
	}
}
