{
	 "smiles": "CCC(CO)NC(=O)C1=CC=C(N)C=C1", 
	 "Tm": 427.15, 
	 "num_atms": 31, 
	 "gaussian": { 
		 "optdone": 1, 
		 "sigma_profile": "yes", 
		 "theory": "DFT", 
		 "functional": "B3LYP", 
		 "basiset": "6-31G**", 
		 "properties": { 
			 "R2extent": 4420.7129, 
			 "electric_dipole_moment_norm": 5.14115612873, 
			 "electric_quadrupole_moment_norm": 18.0622204192, 
			 "total_energy": -688.781038599, 
			 "HOMO_LUMO_gap": 0.18195, 
			 "cosmo_polarized_energy": -16.97, 
			 "cosmo_cavitation_energy": 33.63, 
			 "cosmo_dispersion_energy": -23.48, 
			 "cosmo_repulsion_energy": 1.86, 
			 "cosmo_total_nonelectrostatic_energy": 12.02, 
			 "SMD_solvation_energy": 5.63 
		},
		"coords": [
			{
				"x": -3.8880965582,
				"y": 0.1756252051,
				"z": -0.2063612579,
				"element": "C" 
			},
			{
				"x": -3.1040492213,
				"y": -0.7478723897,
				"z": -1.1421781526,
				"element": "C" 
			},
			{
				"x": -1.6548499842,
				"y": -1.0048659477,
				"z": -0.7069229573,
				"element": "C" 
			},
			{
				"x": -0.9022444285,
				"y": -1.9185377969,
				"z": -1.7030823311,
				"element": "C" 
			},
			{
				"x": -1.3539111844,
				"y": -3.2644985919,
				"z": -1.6412479538,
				"element": "O" 
			},
			{
				"x": -1.6486227342,
				"y": -1.6308419092,
				"z": 0.6348049011,
				"element": "N" 
			},
			{
				"x": -0.4456384954,
				"y": -1.9551835428,
				"z": 1.2698099498,
				"element": "C" 
			},
			{
				"x": -0.2183752882,
				"y": -3.1181373221,
				"z": 1.6084859859,
				"element": "O" 
			},
			{
				"x": 0.5096438532,
				"y": -0.853310285,
				"z": 1.5525840997,
				"element": "C" 
			},
			{
				"x": 0.1185223176,
				"y": 0.490395197,
				"z": 1.6696630453,
				"element": "C" 
			},
			{
				"x": 1.0415090824,
				"y": 1.4788705619,
				"z": 1.9841647744,
				"element": "C" 
			},
			{
				"x": 2.3966339865,
				"y": 1.1533447925,
				"z": 2.188727532,
				"element": "C" 
			},
			{
				"x": 3.3325348213,
				"y": 2.1435310048,
				"z": 2.4441226338,
				"element": "N" 
			},
			{
				"x": 2.7883937963,
				"y": -0.1968005158,
				"z": 2.0847000031,
				"element": "C" 
			},
			{
				"x": 1.8567851488,
				"y": -1.1775587622,
				"z": 1.7825428848,
				"element": "C" 
			},
			{
				"x": -4.9140587912,
				"y": 0.3141317324,
				"z": -0.5620788828,
				"element": "H" 
			},
			{
				"x": -3.9311244777,
				"y": -0.2324150359,
				"z": 0.8073507311,
				"element": "H" 
			},
			{
				"x": -3.421857242,
				"y": 1.1662382259,
				"z": -0.1463746307,
				"element": "H" 
			},
			{
				"x": -3.6116182342,
				"y": -1.7163564289,
				"z": -1.2395537948,
				"element": "H" 
			},
			{
				"x": -3.0781690508,
				"y": -0.318138576,
				"z": -2.1513532473,
				"element": "H" 
			},
			{
				"x": -1.120700555,
				"y": -0.0506192452,
				"z": -0.6476111363,
				"element": "H" 
			},
			{
				"x": 0.1781598696,
				"y": -1.8543677016,
				"z": -1.5067212914,
				"element": "H" 
			},
			{
				"x": -1.0709164758,
				"y": -1.5735189867,
				"z": -2.7293651978,
				"element": "H" 
			},
			{
				"x": -0.9495917746,
				"y": -3.6717682494,
				"z": -0.8612514005,
				"element": "H" 
			},
			{
				"x": -2.2153828633,
				"y": -2.4758948471,
				"z": 0.6123636539,
				"element": "H" 
			},
			{
				"x": -0.9268678675,
				"y": 0.7546612553,
				"z": 1.5471606771,
				"element": "H" 
			},
			{
				"x": 0.7193128483,
				"y": 2.512605673,
				"z": 2.081889437,
				"element": "H" 
			},
			{
				"x": 2.9775361635,
				"y": 3.015195461,
				"z": 2.8096757415,
				"element": "H" 
			},
			{
				"x": 4.190793863,
				"y": 1.8474920757,
				"z": 2.88605262,
				"element": "H" 
			},
			{
				"x": 3.8296133767,
				"y": -0.4646569745,
				"z": 2.246288196,
				"element": "H" 
			},
			{
				"x": 2.1529360994,
				"y": -2.2198480761,
				"z": 1.7240153679,
				"element": "H" 
			}
		],
		 "valence_orbital": [ 
			{
				"type": "occ",
				"energy": -0.27638,
				"method": "rhf"
			},
			{
				"type": "occ",
				"energy": -0.26167,
				"method": "rhf"
			},
			{
				"type": "occ",
				"energy": -0.25736,
				"method": "rhf"
			},
			{
				"type": "occ",
				"energy": -0.23402,
				"method": "rhf"
			},
			{
				"type": "occ",
				"energy": -0.2131,
				"method": "rhf"
			},
			{
				"type": "unocc",
				"energy": -0.03115,
				"method": "rhf"
			},
			{
				"type": "unocc",
				"energy": -0.00588,
				"method": "rhf"
			},
			{
				"type": "unocc",
				"energy": 0.05568,
				"method": "rhf"
			},
			{
				"type": "unocc",
				"energy": 0.0728,
				"method": "rhf"
			},
			{
				"type": "unocc",
				"energy": 0.07966,
				"method": "rhf"
			}
		],
		"cosmo_sigma_profile": { 
			"-0.025": 0.0,
			"-0.024": 0.0,
			"-0.023": 0.0,
			"-0.022": 0.0,
			"-0.021": 0.0,
			"-0.02": 0.0,
			"-0.019": 0.0,
			"-0.018": 0.0,
			"-0.017": 0.0,
			"-0.016": 0.0,
			"-0.015": 0.0,
			"-0.014": 0.0432026038011,
			"-0.013": 1.95001437694,
			"-0.012": 2.76584903173,
			"-0.011": 3.51492712923,
			"-0.01": 3.83675143913,
			"-0.009": 5.1889953868,
			"-0.008": 3.77724891083,
			"-0.007": 7.57026064184,
			"-0.006": 5.4284139942,
			"-0.005": 11.4183602821,
			"-0.004": 20.9297150106,
			"-0.003": 24.8811748,
			"-0.002": 22.6345418827,
			"-0.001": 20.7526804429,
			"0.0": 20.2410488416,
			"0.001": 19.2041250043,
			"0.002": 13.3835554645,
			"0.003": 10.1677484669,
			"0.004": 11.6442900502,
			"0.005": 16.1077476486,
			"0.006": 6.16483064675,
			"0.007": 4.30550691794,
			"0.008": 4.24460925072,
			"0.009": 3.11948115302,
			"0.01": 2.6182377829,
			"0.011": 3.16566694465,
			"0.012": 4.29605964197,
			"0.013": 5.714260555,
			"0.014": 3.88797220256,
			"0.015": 0.273276751658,
			"0.016": 0.0,
			"0.017": 0.0,
			"0.018": 0.0,
			"0.019": 0.0,
			"0.02": 0.0,
			"0.021": 0.0,
			"0.022": 0.0,
			"0.023": 0.0,
			"0.024": 0.0,
			"0.025": 0.0
		}
	}
}
