{
	 "smiles": "CC(C)[C@H]1[C@H](N(C1=O)C1=CC=CC=C1)C1=CC=CC=C1", 
	 "Tm": 442.15, 
	 "num_atms": 39, 
	 "gaussian": { 
		 "optdone": 1, 
		 "sigma_profile": "yes", 
		 "theory": "DFT", 
		 "functional": "B3LYP", 
		 "basiset": "6-31G**", 
		 "properties": { 
			 "R2extent": 6060.5278, 
			 "electric_dipole_moment_norm": 3.54888790046, 
			 "electric_quadrupole_moment_norm": 3.80335757325, 
			 "total_energy": -827.354633652, 
			 "HOMO_LUMO_gap": 0.19907, 
			 "cosmo_polarized_energy": -10.59, 
			 "cosmo_cavitation_energy": 40.54, 
			 "cosmo_dispersion_energy": -27.56, 
			 "cosmo_repulsion_energy": 2.12, 
			 "cosmo_total_nonelectrostatic_energy": 15.1, 
			 "SMD_solvation_energy": 7.37 
		},
		"coords": [
			{
				"x": 2.7929305629,
				"y": -0.6928767964,
				"z": -1.8358747879,
				"element": "C" 
			},
			{
				"x": 2.1299999055,
				"y": -0.1122648321,
				"z": -0.5747590313,
				"element": "C" 
			},
			{
				"x": 3.144878272,
				"y": 0.0029378258,
				"z": 0.5727973717,
				"element": "C" 
			},
			{
				"x": 0.9284151231,
				"y": -0.976325364,
				"z": -0.1687245841,
				"element": "C" 
			},
			{
				"x": -0.1769879602,
				"y": -0.4538283259,
				"z": 0.8421277159,
				"element": "C" 
			},
			{
				"x": -1.163945958,
				"y": -0.6967441267,
				"z": -0.2303519171,
				"element": "N" 
			},
			{
				"x": -0.2363447066,
				"y": -1.1345823824,
				"z": -1.1619889911,
				"element": "C" 
			},
			{
				"x": -0.3599683049,
				"y": -1.506554616,
				"z": -2.3109110929,
				"element": "O" 
			},
			{
				"x": -2.5680739476,
				"y": -0.6669640234,
				"z": -0.218756497,
				"element": "C" 
			},
			{
				"x": -3.2526868732,
				"y": -0.30655161,
				"z": 0.9511905728,
				"element": "C" 
			},
			{
				"x": -4.6471156455,
				"y": -0.2912777736,
				"z": 0.9603070231,
				"element": "C" 
			},
			{
				"x": -5.3689318682,
				"y": -0.6306380329,
				"z": -0.184554717,
				"element": "C" 
			},
			{
				"x": -4.6803384546,
				"y": -0.9869676192,
				"z": -1.3471461514,
				"element": "C" 
			},
			{
				"x": -3.288041283,
				"y": -1.0073582818,
				"z": -1.3772506582,
				"element": "C" 
			},
			{
				"x": -0.1070704284,
				"y": 0.9636739918,
				"z": 1.365144311,
				"element": "C" 
			},
			{
				"x": -0.3718275198,
				"y": 2.0685281763,
				"z": 0.5440702918,
				"element": "C" 
			},
			{
				"x": -0.2786148237,
				"y": 3.3655106935,
				"z": 1.0494195005,
				"element": "C" 
			},
			{
				"x": 0.0784301785,
				"y": 3.5784664665,
				"z": 2.3825951305,
				"element": "C" 
			},
			{
				"x": 0.3350417935,
				"y": 2.4848861129,
				"z": 3.2111192183,
				"element": "C" 
			},
			{
				"x": 0.2371534045,
				"y": 1.1878879477,
				"z": 2.7052544561,
				"element": "C" 
			},
			{
				"x": 2.0790499022,
				"y": -0.7894166277,
				"z": -2.657142052,
				"element": "H" 
			},
			{
				"x": 3.2059530332,
				"y": -1.6889391447,
				"z": -1.6346818731,
				"element": "H" 
			},
			{
				"x": 3.6191404287,
				"y": -0.0517930945,
				"z": -2.1611669571,
				"element": "H" 
			},
			{
				"x": 1.7647837964,
				"y": 0.8950121089,
				"z": -0.8131272681,
				"element": "H" 
			},
			{
				"x": 3.5356046404,
				"y": -0.9854516866,
				"z": 0.8448156279,
				"element": "H" 
			},
			{
				"x": 2.7036710184,
				"y": 0.4520341622,
				"z": 1.4669209626,
				"element": "H" 
			},
			{
				"x": 3.99591019,
				"y": 0.6233185802,
				"z": 0.2722987529,
				"element": "H" 
			},
			{
				"x": 1.287208961,
				"y": -1.9665517037,
				"z": 0.1420443642,
				"element": "H" 
			},
			{
				"x": -0.3150989781,
				"y": -1.1431442328,
				"z": 1.6842390926,
				"element": "H" 
			},
			{
				"x": -2.6989751444,
				"y": -0.0310898042,
				"z": 1.8422215628,
				"element": "H" 
			},
			{
				"x": -5.1686169054,
				"y": -0.0097441735,
				"z": 1.8707465746,
				"element": "H" 
			},
			{
				"x": -6.4545000253,
				"y": -0.6163586356,
				"z": -0.1724187588,
				"element": "H" 
			},
			{
				"x": -5.2315536608,
				"y": -1.2533846937,
				"z": -2.2446217251,
				"element": "H" 
			},
			{
				"x": -2.747313119,
				"y": -1.285686788,
				"z": -2.2736094875,
				"element": "H" 
			},
			{
				"x": -0.6686836682,
				"y": 1.9103658555,
				"z": -0.4882966887,
				"element": "H" 
			},
			{
				"x": -0.4909062989,
				"y": 4.2110161587,
				"z": 0.4013908795,
				"element": "H" 
			},
			{
				"x": 0.1478769239,
				"y": 4.5888981763,
				"z": 2.774712408,
				"element": "H" 
			},
			{
				"x": 0.6034373444,
				"y": 2.6394739038,
				"z": 4.2522679955,
				"element": "H" 
			},
			{
				"x": 0.4285100947,
				"y": 0.3385842095,
				"z": 3.3573994263,
				"element": "H" 
			}
		],
		 "valence_orbital": [ 
			{
				"type": "occ",
				"energy": -0.26039,
				"method": "rhf"
			},
			{
				"type": "occ",
				"energy": -0.25893,
				"method": "rhf"
			},
			{
				"type": "occ",
				"energy": -0.24901,
				"method": "rhf"
			},
			{
				"type": "occ",
				"energy": -0.2444,
				"method": "rhf"
			},
			{
				"type": "occ",
				"energy": -0.21535,
				"method": "rhf"
			},
			{
				"type": "unocc",
				"energy": -0.01628,
				"method": "rhf"
			},
			{
				"type": "unocc",
				"energy": -0.01575,
				"method": "rhf"
			},
			{
				"type": "unocc",
				"energy": -0.00955,
				"method": "rhf"
			},
			{
				"type": "unocc",
				"energy": 0.00183,
				"method": "rhf"
			},
			{
				"type": "unocc",
				"energy": 0.04813,
				"method": "rhf"
			}
		],
		"cosmo_sigma_profile": { 
			"-0.025": 0.0,
			"-0.024": 0.0,
			"-0.023": 0.0,
			"-0.022": 0.0,
			"-0.021": 0.0,
			"-0.02": 0.0,
			"-0.019": 0.0,
			"-0.018": 0.0,
			"-0.017": 0.0,
			"-0.016": 0.0,
			"-0.015": 0.0,
			"-0.014": 0.0,
			"-0.013": 0.0,
			"-0.012": 0.0,
			"-0.011": 0.0,
			"-0.01": 0.0,
			"-0.009": 0.0,
			"-0.008": 0.0,
			"-0.007": 0.580178319292,
			"-0.006": 16.4509287843,
			"-0.005": 26.168552,
			"-0.004": 26.8021916483,
			"-0.003": 32.8230570393,
			"-0.002": 26.3903384042,
			"-0.001": 28.3240873614,
			"0.0": 27.8830089973,
			"0.001": 30.7923159381,
			"0.002": 23.3297852704,
			"0.003": 19.3463992487,
			"0.004": 17.838729311,
			"0.005": 19.1141984931,
			"0.006": 9.99267415941,
			"0.007": 2.40990479898,
			"0.008": 1.8161599169,
			"0.009": 1.29679810487,
			"0.01": 1.62950806381,
			"0.011": 2.7515902696,
			"0.012": 3.70976753213,
			"0.013": 1.86340077175,
			"0.014": 0.0186294472139,
			"0.015": 0.0,
			"0.016": 0.0,
			"0.017": 0.0,
			"0.018": 0.0,
			"0.019": 0.0,
			"0.02": 0.0,
			"0.021": 0.0,
			"0.022": 0.0,
			"0.023": 0.0,
			"0.024": 0.0,
			"0.025": 0.0
		}
	}
}
