{
	 "smiles": "CC1=C(C=CC=C1Cl)N1C=CN=C1SCC(O)=O", 
	 "Tm": 418.15, 
	 "num_atms": 29, 
	 "gaussian": { 
		 "optdone": 1, 
		 "sigma_profile": "yes", 
		 "theory": "DFT", 
		 "functional": "B3LYP", 
		 "basiset": "6-31G**", 
		 "properties": { 
			 "R2extent": 6979.5192, 
			 "electric_dipole_moment_norm": 7.40661372963, 
			 "electric_quadrupole_moment_norm": 37.3861044696, 
			 "total_energy": -1582.24889748, 
			 "HOMO_LUMO_gap": 0.18488, 
			 "cosmo_polarized_energy": -15.97, 
			 "cosmo_cavitation_energy": 36.55, 
			 "cosmo_dispersion_energy": -25.81, 
			 "cosmo_repulsion_energy": 1.97, 
			 "cosmo_total_nonelectrostatic_energy": 12.7, 
			 "SMD_solvation_energy": 7.21 
		},
		"coords": [
			{
				"x": 0.2032609077,
				"y": -0.7741444735,
				"z": -2.4412258723,
				"element": "C" 
			},
			{
				"x": -0.013875157,
				"y": 0.7159448037,
				"z": -2.4031469353,
				"element": "C" 
			},
			{
				"x": 0.0945584438,
				"y": 1.4691946852,
				"z": -1.2180174074,
				"element": "C" 
			},
			{
				"x": -0.1296280188,
				"y": 2.8478316874,
				"z": -1.1862642123,
				"element": "C" 
			},
			{
				"x": -0.473073446,
				"y": 3.5195617885,
				"z": -2.3558859086,
				"element": "C" 
			},
			{
				"x": -0.5828787229,
				"y": 2.8129520213,
				"z": -3.5516473344,
				"element": "C" 
			},
			{
				"x": -0.3535655788,
				"y": 1.4381391536,
				"z": -3.5596188113,
				"element": "C" 
			},
			{
				"x": -0.5072505089,
				"y": 0.5875031943,
				"z": -5.0914724579,
				"element": "Cl" 
			},
			{
				"x": 0.4517400029,
				"y": 0.8194342278,
				"z": 0.0115458575,
				"element": "N" 
			},
			{
				"x": 1.7378792615,
				"y": 0.4738591156,
				"z": 0.4192015169,
				"element": "C" 
			},
			{
				"x": 1.5997787479,
				"y": -0.1125543987,
				"z": 1.6449898451,
				"element": "C" 
			},
			{
				"x": 0.2699412203,
				"y": -0.1278921191,
				"z": 2.0143297467,
				"element": "N" 
			},
			{
				"x": -0.3943420801,
				"y": 0.432477278,
				"z": 1.018149208,
				"element": "C" 
			},
			{
				"x": -2.1391030923,
				"y": 0.6847677264,
				"z": 0.9452056293,
				"element": "S" 
			},
			{
				"x": -2.6933669431,
				"y": -0.6087319025,
				"z": 2.1384490446,
				"element": "C" 
			},
			{
				"x": -2.624070517,
				"y": -0.2224683813,
				"z": 3.6250013575,
				"element": "C" 
			},
			{
				"x": -1.406432941,
				"y": -0.062196776,
				"z": 4.1415396188,
				"element": "O" 
			},
			{
				"x": -3.6346676807,
				"y": -0.1086559682,
				"z": 4.2814889484,
				"element": "O" 
			},
			{
				"x": 1.0164419706,
				"y": -1.0320520574,
				"z": -3.1275548966,
				"element": "H" 
			},
			{
				"x": 0.445112544,
				"y": -1.1704723248,
				"z": -1.4554971505,
				"element": "H" 
			},
			{
				"x": -0.6936798078,
				"y": -1.2820792597,
				"z": -2.8095075002,
				"element": "H" 
			},
			{
				"x": -0.0294046505,
				"y": 3.3774919404,
				"z": -0.244838636,
				"element": "H" 
			},
			{
				"x": -0.6510016748,
				"y": 4.5897286982,
				"z": -2.3398946801,
				"element": "H" 
			},
			{
				"x": -0.8453177782,
				"y": 3.3165185982,
				"z": -4.4752076689,
				"element": "H" 
			},
			{
				"x": 2.596179233,
				"y": 0.6897714671,
				"z": -0.1970285044,
				"element": "H" 
			},
			{
				"x": 2.3669964075,
				"y": -0.5141609425,
				"z": 2.2905055251,
				"element": "H" 
			},
			{
				"x": -3.7414467789,
				"y": -0.7791083654,
				"z": 1.8919497772,
				"element": "H" 
			},
			{
				"x": -2.1172371571,
				"y": -1.5166794356,
				"z": 1.9396424518,
				"element": "H" 
			},
			{
				"x": -0.6960462053,
				"y": -0.1803799809,
				"z": 3.4490094492,
				"element": "H" 
			}
		],
		 "valence_orbital": [ 
			{
				"type": "occ",
				"energy": -0.28914,
				"method": "rhf"
			},
			{
				"type": "occ",
				"energy": -0.27898,
				"method": "rhf"
			},
			{
				"type": "occ",
				"energy": -0.26742,
				"method": "rhf"
			},
			{
				"type": "occ",
				"energy": -0.25274,
				"method": "rhf"
			},
			{
				"type": "occ",
				"energy": -0.22827,
				"method": "rhf"
			},
			{
				"type": "unocc",
				"energy": -0.04339,
				"method": "rhf"
			},
			{
				"type": "unocc",
				"energy": -0.03882,
				"method": "rhf"
			},
			{
				"type": "unocc",
				"energy": -0.0109,
				"method": "rhf"
			},
			{
				"type": "unocc",
				"energy": 0.00289,
				"method": "rhf"
			},
			{
				"type": "unocc",
				"energy": 0.01379,
				"method": "rhf"
			}
		],
		"cosmo_sigma_profile": { 
			"-0.025": 0.0,
			"-0.024": 0.0,
			"-0.023": 0.0,
			"-0.022": 0.0,
			"-0.021": 0.0,
			"-0.02": 0.0,
			"-0.019": 0.0,
			"-0.018": 0.0,
			"-0.017": 0.0,
			"-0.016": 0.0,
			"-0.015": 0.0,
			"-0.014": 0.0,
			"-0.013": 0.0,
			"-0.012": 0.0,
			"-0.011": 0.0,
			"-0.01": 0.39453401926,
			"-0.009": 3.16106562462,
			"-0.008": 8.47203632261,
			"-0.007": 14.3922942188,
			"-0.006": 13.5784842175,
			"-0.005": 17.6839341217,
			"-0.004": 17.8170400847,
			"-0.003": 19.933827039,
			"-0.002": 22.3323444228,
			"-0.001": 25.6798938881,
			"0.0": 22.1939062862,
			"0.001": 26.5524795505,
			"0.002": 26.8700854306,
			"0.003": 21.6414773222,
			"0.004": 16.3628915472,
			"0.005": 7.27923501571,
			"0.006": 4.5481148781,
			"0.007": 2.60458043209,
			"0.008": 2.85190355872,
			"0.009": 2.62583967885,
			"0.01": 3.59160773061,
			"0.011": 5.1691783161,
			"0.012": 7.41404011911,
			"0.013": 3.17215389891,
			"0.014": 0.603419462166,
			"0.015": 0.0,
			"0.016": 0.0,
			"0.017": 0.0,
			"0.018": 0.0,
			"0.019": 0.0,
			"0.02": 0.0,
			"0.021": 0.0,
			"0.022": 0.0,
			"0.023": 0.0,
			"0.024": 0.0,
			"0.025": 0.0
		}
	}
}
