{
	 "smiles": "OC(=O)C1=CC=C(C=C1)C1=NOC=N1", 
	 "Tm": 488.15, 
	 "num_atms": 20, 
	 "gaussian": { 
		 "optdone": 1, 
		 "sigma_profile": "yes", 
		 "theory": "DFT", 
		 "functional": "B3LYP", 
		 "basiset": "6-31G**", 
		 "properties": { 
			 "R2extent": 5058.1914, 
			 "electric_dipole_moment_norm": 4.20742889898, 
			 "electric_quadrupole_moment_norm": 24.5099776075, 
			 "total_energy": -681.711240602, 
			 "HOMO_LUMO_gap": 0.18532, 
			 "cosmo_polarized_energy": -17.16, 
			 "cosmo_cavitation_energy": 25.99, 
			 "cosmo_dispersion_energy": -19.37, 
			 "cosmo_repulsion_energy": 1.48, 
			 "cosmo_total_nonelectrostatic_energy": 8.1, 
			 "SMD_solvation_energy": 4.92 
		},
		"coords": [
			{
				"x": -5.4180047005,
				"y": -2.5349574273,
				"z": 0.5123110945,
				"element": "O" 
			},
			{
				"x": -4.2975184297,
				"y": -2.7680373582,
				"z": -0.2218946234,
				"element": "C" 
			},
			{
				"x": -4.1246393892,
				"y": -3.8475401986,
				"z": -0.7361454366,
				"element": "O" 
			},
			{
				"x": -3.3230423651,
				"y": -1.633781876,
				"z": -0.3475574026,
				"element": "C" 
			},
			{
				"x": -2.4079442763,
				"y": -1.6772148696,
				"z": -1.4075316013,
				"element": "C" 
			},
			{
				"x": -1.4779269434,
				"y": -0.6581977887,
				"z": -1.5781097441,
				"element": "C" 
			},
			{
				"x": -1.4369537292,
				"y": 0.4152446414,
				"z": -0.6756611007,
				"element": "C" 
			},
			{
				"x": -2.3349113718,
				"y": 0.4514008591,
				"z": 0.4020487402,
				"element": "C" 
			},
			{
				"x": -3.2697105359,
				"y": -0.5653633891,
				"z": 0.5613217379,
				"element": "C" 
			},
			{
				"x": -0.4493376826,
				"y": 1.4865156212,
				"z": -0.8625512965,
				"element": "C" 
			},
			{
				"x": -0.3576266644,
				"y": 2.5223023281,
				"z": -0.056847237,
				"element": "N" 
			},
			{
				"x": 0.6942104762,
				"y": 3.2693750024,
				"z": -0.6020297867,
				"element": "O" 
			},
			{
				"x": 1.1141305814,
				"y": 2.5919425603,
				"z": -1.6778626243,
				"element": "C" 
			},
			{
				"x": 0.465860742,
				"y": 1.4944955505,
				"z": -1.9025820639,
				"element": "N" 
			},
			{
				"x": -5.4958822778,
				"y": -1.5930609664,
				"z": 0.7174302471,
				"element": "H" 
			},
			{
				"x": -2.4451053403,
				"y": -2.5207934273,
				"z": -2.087996911,
				"element": "H" 
			},
			{
				"x": -0.7749847334,
				"y": -0.6812864318,
				"z": -2.4033588235,
				"element": "H" 
			},
			{
				"x": -2.2883931485,
				"y": 1.2717750632,
				"z": 1.1100065151,
				"element": "H" 
			},
			{
				"x": -3.9292090099,
				"y": -0.5353814557,
				"z": 1.4251806063,
				"element": "H" 
			},
			{
				"x": 1.9337887983,
				"y": 3.0167635625,
				"z": -2.2409702894,
				"element": "H" 
			}
		],
		 "valence_orbital": [ 
			{
				"type": "occ",
				"energy": -0.3178,
				"method": "rhf"
			},
			{
				"type": "occ",
				"energy": -0.31657,
				"method": "rhf"
			},
			{
				"type": "occ",
				"energy": -0.28132,
				"method": "rhf"
			},
			{
				"type": "occ",
				"energy": -0.27886,
				"method": "rhf"
			},
			{
				"type": "occ",
				"energy": -0.26395,
				"method": "rhf"
			},
			{
				"type": "unocc",
				"energy": -0.07863,
				"method": "rhf"
			},
			{
				"type": "unocc",
				"energy": -0.03767,
				"method": "rhf"
			},
			{
				"type": "unocc",
				"energy": -0.02373,
				"method": "rhf"
			},
			{
				"type": "unocc",
				"energy": 0.01384,
				"method": "rhf"
			},
			{
				"type": "unocc",
				"energy": 0.05568,
				"method": "rhf"
			}
		],
		"cosmo_sigma_profile": { 
			"-0.025": 0.0,
			"-0.024": 0.0,
			"-0.023": 0.0,
			"-0.022": 0.0,
			"-0.021": 0.0,
			"-0.02": 0.0,
			"-0.019": 0.360234396638,
			"-0.018": 0.953264075815,
			"-0.017": 0.856846153534,
			"-0.016": 1.14004841102,
			"-0.015": 1.1121611936,
			"-0.014": 0.914109736381,
			"-0.013": 2.58697658529,
			"-0.012": 3.79190525628,
			"-0.011": 2.76095941933,
			"-0.01": 2.49607822285,
			"-0.009": 2.9856915248,
			"-0.008": 3.57931189473,
			"-0.007": 6.69879738626,
			"-0.006": 8.40757030706,
			"-0.005": 9.54367541051,
			"-0.004": 11.2109816067,
			"-0.003": 10.2907103239,
			"-0.002": 11.846288928,
			"-0.001": 14.6673400035,
			"0.0": 14.7503568899,
			"0.001": 17.7734729828,
			"0.002": 17.9512211863,
			"0.003": 5.64091882031,
			"0.004": 6.15685065894,
			"0.005": 7.43758693027,
			"0.006": 8.37657318389,
			"0.007": 4.71562838969,
			"0.008": 5.39437070383,
			"0.009": 5.5135003551,
			"0.01": 7.78587216547,
			"0.011": 7.10243620088,
			"0.012": 4.6272837736,
			"0.013": 0.945383557799,
			"0.014": 0.0,
			"0.015": 0.0,
			"0.016": 0.0,
			"0.017": 0.0,
			"0.018": 0.0,
			"0.019": 0.0,
			"0.02": 0.0,
			"0.021": 0.0,
			"0.022": 0.0,
			"0.023": 0.0,
			"0.024": 0.0,
			"0.025": 0.0
		}
	}
}
