{
	 "smiles": "OC(=O)C1CCN(C1=O)C1=CC(F)=C(F)C=C1", 
	 "Tm": 428.15, 
	 "num_atms": 26, 
	 "gaussian": { 
		 "optdone": 1, 
		 "sigma_profile": "yes", 
		 "theory": "DFT", 
		 "functional": "B3LYP", 
		 "basiset": "6-31G**", 
		 "properties": { 
			 "R2extent": 5186.3394, 
			 "electric_dipole_moment_norm": 5.53383835958, 
			 "electric_quadrupole_moment_norm": 14.7023634634, 
			 "total_energy": -904.70767064, 
			 "HOMO_LUMO_gap": 0.20193, 
			 "cosmo_polarized_energy": -17.03, 
			 "cosmo_cavitation_energy": 31.43, 
			 "cosmo_dispersion_energy": -22.61, 
			 "cosmo_repulsion_energy": 1.71, 
			 "cosmo_total_nonelectrostatic_energy": 10.53, 
			 "SMD_solvation_energy": 7.52 
		},
		"coords": [
			{
				"x": -0.2331112758,
				"y": -0.8318948009,
				"z": -3.7168234071,
				"element": "O" 
			},
			{
				"x": 1.0761510154,
				"y": -0.919004229,
				"z": -3.3820226328,
				"element": "C" 
			},
			{
				"x": 1.8447102116,
				"y": -1.686376977,
				"z": -3.9114277855,
				"element": "O" 
			},
			{
				"x": 1.4389787669,
				"y": 0.0621244105,
				"z": -2.2848177076,
				"element": "C" 
			},
			{
				"x": 1.063707736,
				"y": 1.5295663165,
				"z": -2.5448418165,
				"element": "C" 
			},
			{
				"x": 0.8374712744,
				"y": 2.0992134244,
				"z": -1.1352209463,
				"element": "C" 
			},
			{
				"x": 0.4037279827,
				"y": 0.938502512,
				"z": -0.3493152873,
				"element": "N" 
			},
			{
				"x": 0.7176681928,
				"y": -0.2641254158,
				"z": -0.9631435143,
				"element": "C" 
			},
			{
				"x": 0.5013108699,
				"y": -1.3855678975,
				"z": -0.5417177914,
				"element": "O" 
			},
			{
				"x": -0.1418619697,
				"y": 1.087892589,
				"z": 0.9485293262,
				"element": "C" 
			},
			{
				"x": -0.7224551128,
				"y": -0.0009225822,
				"z": 1.6255465415,
				"element": "C" 
			},
			{
				"x": -1.2559840826,
				"y": 0.1940293133,
				"z": 2.8882876533,
				"element": "C" 
			},
			{
				"x": -1.8126588941,
				"y": -0.8386591422,
				"z": 3.5426224729,
				"element": "F" 
			},
			{
				"x": -1.2360310982,
				"y": 1.4455029051,
				"z": 3.5031485796,
				"element": "C" 
			},
			{
				"x": -1.7682349401,
				"y": 1.5904636975,
				"z": 4.7292817024,
				"element": "F" 
			},
			{
				"x": -0.6656735366,
				"y": 2.5211210289,
				"z": 2.8425301484,
				"element": "C" 
			},
			{
				"x": -0.1181954919,
				"y": 2.3474868111,
				"z": 1.5703979953,
				"element": "C" 
			},
			{
				"x": -0.3871620767,
				"y": -1.5081865628,
				"z": -4.3975103168,
				"element": "H" 
			},
			{
				"x": 2.5135169373,
				"y": -0.0558876469,
				"z": -2.1093319997,
				"element": "H" 
			},
			{
				"x": 0.1334956704,
				"y": 1.5729678169,
				"z": -3.1165382216,
				"element": "H" 
			},
			{
				"x": 1.8322404395,
				"y": 2.0788968539,
				"z": -3.0925260053,
				"element": "H" 
			},
			{
				"x": 0.0672726976,
				"y": 2.875540081,
				"z": -1.1238101996,
				"element": "H" 
			},
			{
				"x": 1.7577870191,
				"y": 2.5274264723,
				"z": -0.7147725359,
				"element": "H" 
			},
			{
				"x": -0.7446175031,
				"y": -0.9852732709,
				"z": 1.1813925146,
				"element": "H" 
			},
			{
				"x": -0.6500224209,
				"y": 3.4898419535,
				"z": 3.3298646236,
				"element": "H" 
			},
			{
				"x": 0.3330695889,
				"y": 3.2010223395,
				"z": 1.0809186097,
				"element": "H" 
			}
		],
		 "valence_orbital": [ 
			{
				"type": "occ",
				"energy": -0.3026,
				"method": "rhf"
			},
			{
				"type": "occ",
				"energy": -0.28519,
				"method": "rhf"
			},
			{
				"type": "occ",
				"energy": -0.2679,
				"method": "rhf"
			},
			{
				"type": "occ",
				"energy": -0.26022,
				"method": "rhf"
			},
			{
				"type": "occ",
				"energy": -0.22807,
				"method": "rhf"
			},
			{
				"type": "unocc",
				"energy": -0.02614,
				"method": "rhf"
			},
			{
				"type": "unocc",
				"energy": -0.01503,
				"method": "rhf"
			},
			{
				"type": "unocc",
				"energy": -0.00478,
				"method": "rhf"
			},
			{
				"type": "unocc",
				"energy": 0.02987,
				"method": "rhf"
			},
			{
				"type": "unocc",
				"energy": 0.06195,
				"method": "rhf"
			}
		],
		"cosmo_sigma_profile": { 
			"-0.025": 0.0,
			"-0.024": 0.0,
			"-0.023": 0.0,
			"-0.022": 0.0,
			"-0.021": 0.0,
			"-0.02": 0.0,
			"-0.019": 0.243382489981,
			"-0.018": 1.0247422037,
			"-0.017": 0.808445931867,
			"-0.016": 1.14964777658,
			"-0.015": 0.661247215059,
			"-0.014": 0.328205958467,
			"-0.013": 1.09022040727,
			"-0.012": 0.660487564652,
			"-0.011": 0.376930802353,
			"-0.01": 0.70866459415,
			"-0.009": 0.521202002733,
			"-0.008": 5.97462586673,
			"-0.007": 11.2500077359,
			"-0.006": 17.7565586826,
			"-0.005": 18.8514748405,
			"-0.004": 14.2239294266,
			"-0.003": 11.3210573308,
			"-0.002": 10.9102294822,
			"-0.001": 14.3410118851,
			"0.0": 17.1598291004,
			"0.001": 19.0669450108,
			"0.002": 17.7173812229,
			"0.003": 21.0562603222,
			"0.004": 23.594319697,
			"0.005": 5.53757701562,
			"0.006": 5.36743879276,
			"0.007": 4.23866597667,
			"0.008": 3.77452108011,
			"0.009": 3.48949452514,
			"0.01": 4.71050836454,
			"0.011": 7.64141954302,
			"0.012": 5.04251153191,
			"0.013": 0.41449180963,
			"0.014": 0.0,
			"0.015": 0.0,
			"0.016": 0.0,
			"0.017": 0.0,
			"0.018": 0.0,
			"0.019": 0.0,
			"0.02": 0.0,
			"0.021": 0.0,
			"0.022": 0.0,
			"0.023": 0.0,
			"0.024": 0.0,
			"0.025": 0.0
		}
	}
}
