{
	 "smiles": "CC(C)(C)C1=NN(C=C1C(O)=O)C1=CC=CC=C1", 
	 "Tm": 486.15, 
	 "num_atms": 34, 
	 "gaussian": { 
		 "optdone": 1, 
		 "sigma_profile": "yes", 
		 "theory": "DFT", 
		 "functional": "B3LYP", 
		 "basiset": "6-31G**", 
		 "properties": { 
			 "R2extent": 5549.6725, 
			 "electric_dipole_moment_norm": 5.4436929129, 
			 "electric_quadrupole_moment_norm": 13.1869725809, 
			 "total_energy": -803.088422692, 
			 "HOMO_LUMO_gap": 0.19034, 
			 "cosmo_polarized_energy": -16.79, 
			 "cosmo_cavitation_energy": 36.5, 
			 "cosmo_dispersion_energy": -25.83, 
			 "cosmo_repulsion_energy": 1.97, 
			 "cosmo_total_nonelectrostatic_energy": 12.64, 
			 "SMD_solvation_energy": 6.95 
		},
		"coords": [
			{
				"x": -3.7481035506,
				"y": 0.9034877836,
				"z": 0.7180580356,
				"element": "C" 
			},
			{
				"x": -2.5276164674,
				"y": 1.8254636871,
				"z": 0.9089798541,
				"element": "C" 
			},
			{
				"x": -2.6750610734,
				"y": 3.0482814976,
				"z": -0.0250777332,
				"element": "C" 
			},
			{
				"x": -2.475563609,
				"y": 2.2948796447,
				"z": 2.3830611689,
				"element": "C" 
			},
			{
				"x": -1.246880462,
				"y": 1.0676736892,
				"z": 0.5816935075,
				"element": "C" 
			},
			{
				"x": -1.2972858616,
				"y": -0.2395635179,
				"z": 0.3523418394,
				"element": "N" 
			},
			{
				"x": -0.019785881,
				"y": -0.6439047686,
				"z": 0.1107171316,
				"element": "N" 
			},
			{
				"x": 0.8457905251,
				"y": 0.3959633731,
				"z": 0.1578919395,
				"element": "C" 
			},
			{
				"x": 0.1103640459,
				"y": 1.5334913001,
				"z": 0.4603196412,
				"element": "C" 
			},
			{
				"x": 0.6938405898,
				"y": 2.8792920052,
				"z": 0.6471875359,
				"element": "C" 
			},
			{
				"x": 1.8676279078,
				"y": 3.1011910757,
				"z": -0.0172984001,
				"element": "O" 
			},
			{
				"x": 0.2365123351,
				"y": 3.7588055475,
				"z": 1.3418709736,
				"element": "O" 
			},
			{
				"x": 0.2578160849,
				"y": -2.0127157978,
				"z": -0.157407895,
				"element": "C" 
			},
			{
				"x": 1.5438579386,
				"y": -2.5257316224,
				"z": 0.0429790839,
				"element": "C" 
			},
			{
				"x": 1.8025144267,
				"y": -3.8645942289,
				"z": -0.2485636709,
				"element": "C" 
			},
			{
				"x": 0.7852465316,
				"y": -4.6953092047,
				"z": -0.7205530727,
				"element": "C" 
			},
			{
				"x": -0.4993993791,
				"y": -4.1771842241,
				"z": -0.8994752228,
				"element": "C" 
			},
			{
				"x": -0.7702637224,
				"y": -2.838602177,
				"z": -0.6240405142,
				"element": "C" 
			},
			{
				"x": -4.6598003369,
				"y": 1.4570671745,
				"z": 0.965512534,
				"element": "H" 
			},
			{
				"x": -3.8295925688,
				"y": 0.5530325868,
				"z": -0.3152655658,
				"element": "H" 
			},
			{
				"x": -3.6926623007,
				"y": 0.0235484337,
				"z": 1.3637383261,
				"element": "H" 
			},
			{
				"x": -2.6981815769,
				"y": 2.7400061832,
				"z": -1.0761519576,
				"element": "H" 
			},
			{
				"x": -3.6166863166,
				"y": 3.5635989299,
				"z": 0.1929199579,
				"element": "H" 
			},
			{
				"x": -1.8634354322,
				"y": 3.7642539767,
				"z": 0.1154789524,
				"element": "H" 
			},
			{
				"x": -2.4019158028,
				"y": 1.4371238276,
				"z": 3.0602034965,
				"element": "H" 
			},
			{
				"x": -1.6231002326,
				"y": 2.9544894113,
				"z": 2.5543710062,
				"element": "H" 
			},
			{
				"x": -3.3934483865,
				"y": 2.8406282656,
				"z": 2.6289107584,
				"element": "H" 
			},
			{
				"x": 1.9057075484,
				"y": 0.2608940387,
				"z": 0.0008853328,
				"element": "H" 
			},
			{
				"x": 1.9974223439,
				"y": 2.4169995988,
				"z": -0.6883144698,
				"element": "H" 
			},
			{
				"x": 2.332397569,
				"y": -1.8990670452,
				"z": 0.4461353742,
				"element": "H" 
			},
			{
				"x": 2.8015530312,
				"y": -4.2594731171,
				"z": -0.090526557,
				"element": "H" 
			},
			{
				"x": 0.9902326811,
				"y": -5.738434529,
				"z": -0.9403094811,
				"element": "H" 
			},
			{
				"x": -1.2988225833,
				"y": -4.816654846,
				"z": -1.2616353575,
				"element": "H" 
			},
			{
				"x": -1.7601780155,
				"y": -2.4208369521,
				"z": -0.7584365521,
				"element": "H" 
			}
		],
		 "valence_orbital": [ 
			{
				"type": "occ",
				"energy": -0.29472,
				"method": "rhf"
			},
			{
				"type": "occ",
				"energy": -0.27583,
				"method": "rhf"
			},
			{
				"type": "occ",
				"energy": -0.27149,
				"method": "rhf"
			},
			{
				"type": "occ",
				"energy": -0.26715,
				"method": "rhf"
			},
			{
				"type": "occ",
				"energy": -0.2371,
				"method": "rhf"
			},
			{
				"type": "unocc",
				"energy": -0.04676,
				"method": "rhf"
			},
			{
				"type": "unocc",
				"energy": -0.02061,
				"method": "rhf"
			},
			{
				"type": "unocc",
				"energy": -0.01116,
				"method": "rhf"
			},
			{
				"type": "unocc",
				"energy": 0.02216,
				"method": "rhf"
			},
			{
				"type": "unocc",
				"energy": 0.05981,
				"method": "rhf"
			}
		],
		"cosmo_sigma_profile": { 
			"-0.025": 0.0,
			"-0.024": 0.0,
			"-0.023": 0.0,
			"-0.022": 0.0,
			"-0.021": 0.0,
			"-0.02": 0.0,
			"-0.019": 0.222414715099,
			"-0.018": 1.15491914354,
			"-0.017": 1.07751824261,
			"-0.016": 0.709955519925,
			"-0.015": 1.18308934474,
			"-0.014": 0.962164711561,
			"-0.013": 1.34643284803,
			"-0.012": 2.13135303991,
			"-0.011": 2.65245421267,
			"-0.01": 2.0981178596,
			"-0.009": 2.10321439804,
			"-0.008": 2.79249872431,
			"-0.007": 3.97426327882,
			"-0.006": 9.7489983354,
			"-0.005": 11.7241034779,
			"-0.004": 11.8582798566,
			"-0.003": 18.6975369531,
			"-0.002": 26.2379198949,
			"-0.001": 26.1029791352,
			"0.0": 27.7358204191,
			"0.001": 34.6797453971,
			"0.002": 24.8378765463,
			"0.003": 14.9663530322,
			"0.004": 17.8570266217,
			"0.005": 9.36524788362,
			"0.006": 4.91469379092,
			"0.007": 4.87626853545,
			"0.008": 3.87167846612,
			"0.009": 4.78976495127,
			"0.01": 4.93294071245,
			"0.011": 4.6362439855,
			"0.012": 3.07426016002,
			"0.013": 1.74931298451,
			"0.014": 0.0920285807979,
			"0.015": 0.0,
			"0.016": 0.0,
			"0.017": 0.0,
			"0.018": 0.0,
			"0.019": 0.0,
			"0.02": 0.0,
			"0.021": 0.0,
			"0.022": 0.0,
			"0.023": 0.0,
			"0.024": 0.0,
			"0.025": 0.0
		}
	}
}
