{
	 "smiles": "ClC1=CC=C(C=C1)S(=O)(=O)NC1CCNCC1", 
	 "Tm": 463.15, 
	 "num_atms": 32, 
	 "gaussian": { 
		 "optdone": 1, 
		 "sigma_profile": "yes", 
		 "theory": "DFT", 
		 "functional": "B3LYP", 
		 "basiset": "6-31G**", 
		 "properties": { 
			 "R2extent": 6240.2329, 
			 "electric_dipole_moment_norm": 3.29841953366, 
			 "electric_quadrupole_moment_norm": 20.6817760408, 
			 "total_energy": -1546.45999311, 
			 "HOMO_LUMO_gap": 0.17413, 
			 "cosmo_polarized_energy": -16.12, 
			 "cosmo_cavitation_energy": 36.7, 
			 "cosmo_dispersion_energy": -26.67, 
			 "cosmo_repulsion_energy": 2.04, 
			 "cosmo_total_nonelectrostatic_energy": 12.07, 
			 "SMD_solvation_energy": 1.64 
		},
		"coords": [
			{
				"x": -0.787836778,
				"y": -4.8938946607,
				"z": -1.9497637296,
				"element": "Cl" 
			},
			{
				"x": -0.06789381,
				"y": -3.4673651907,
				"z": -1.2281929638,
				"element": "C" 
			},
			{
				"x": 0.2454408041,
				"y": -3.4772333522,
				"z": 0.1340880951,
				"element": "C" 
			},
			{
				"x": 0.815361402,
				"y": -2.3442666124,
				"z": 0.7071773957,
				"element": "C" 
			},
			{
				"x": 1.0545601648,
				"y": -1.2180763598,
				"z": -0.0846304065,
				"element": "C" 
			},
			{
				"x": 0.7485669844,
				"y": -1.2149614839,
				"z": -1.4446968115,
				"element": "C" 
			},
			{
				"x": 0.1792253973,
				"y": -2.3495220259,
				"z": -2.0241269866,
				"element": "C" 
			},
			{
				"x": 1.8611142458,
				"y": 0.2181479968,
				"z": 0.6313798317,
				"element": "S" 
			},
			{
				"x": 1.8622216507,
				"y": 1.2610130473,
				"z": -0.4039782574,
				"element": "O" 
			},
			{
				"x": 3.110231923,
				"y": -0.2207611146,
				"z": 1.2639007395,
				"element": "O" 
			},
			{
				"x": 0.8586953598,
				"y": 0.6142320596,
				"z": 1.9302293996,
				"element": "N" 
			},
			{
				"x": -0.2103650822,
				"y": 1.6378372575,
				"z": 1.8448582646,
				"element": "C" 
			},
			{
				"x": -1.2296538088,
				"y": 1.3555781021,
				"z": 0.7365483929,
				"element": "C" 
			},
			{
				"x": -2.4640157271,
				"y": 2.2859205286,
				"z": 0.9198121592,
				"element": "C" 
			},
			{
				"x": -2.1751096237,
				"y": 3.565285644,
				"z": 1.5852479628,
				"element": "N" 
			},
			{
				"x": -0.826631271,
				"y": 4.0492073594,
				"z": 1.2842078264,
				"element": "C" 
			},
			{
				"x": 0.3072748578,
				"y": 3.0933748419,
				"z": 1.7504730448,
				"element": "C" 
			},
			{
				"x": 0.046708388,
				"y": -4.360145037,
				"z": 0.730919012,
				"element": "H" 
			},
			{
				"x": 1.0656773912,
				"y": -2.3329753314,
				"z": 1.7622731626,
				"element": "H" 
			},
			{
				"x": 0.9547636561,
				"y": -0.330939943,
				"z": -2.0374450478,
				"element": "H" 
			},
			{
				"x": -0.0682956757,
				"y": -2.3667107171,
				"z": -3.0794331577,
				"element": "H" 
			},
			{
				"x": 1.4769664931,
				"y": 0.7468171964,
				"z": 2.727666712,
				"element": "H" 
			},
			{
				"x": -0.7378436619,
				"y": 1.5177606369,
				"z": 2.8007961693,
				"element": "H" 
			},
			{
				"x": -0.7615341173,
				"y": 1.536069107,
				"z": -0.2361338052,
				"element": "H" 
			},
			{
				"x": -1.5383472698,
				"y": 0.3055280032,
				"z": 0.7583683223,
				"element": "H" 
			},
			{
				"x": -3.2366299166,
				"y": 1.7744728863,
				"z": 1.5039493044,
				"element": "H" 
			},
			{
				"x": -2.9016782054,
				"y": 2.4902088921,
				"z": -0.0658264508,
				"element": "H" 
			},
			{
				"x": -2.2788873554,
				"y": 3.4604126951,
				"z": 2.590893856,
				"element": "H" 
			},
			{
				"x": -0.6988704583,
				"y": 5.0419642621,
				"z": 1.7274881457,
				"element": "H" 
			},
			{
				"x": -0.766806864,
				"y": 4.1863171075,
				"z": 0.1978350987,
				"element": "H" 
			},
			{
				"x": 1.1421419423,
				"y": 3.1331940289,
				"z": 1.045664139,
				"element": "H" 
			},
			{
				"x": 0.6923489646,
				"y": 3.399410176,
				"z": 2.7319505825,
				"element": "H" 
			}
		],
		 "valence_orbital": [ 
			{
				"type": "occ",
				"energy": -0.30445,
				"method": "rhf"
			},
			{
				"type": "occ",
				"energy": -0.28348,
				"method": "rhf"
			},
			{
				"type": "occ",
				"energy": -0.27829,
				"method": "rhf"
			},
			{
				"type": "occ",
				"energy": -0.25778,
				"method": "rhf"
			},
			{
				"type": "occ",
				"energy": -0.22211,
				"method": "rhf"
			},
			{
				"type": "unocc",
				"energy": -0.04798,
				"method": "rhf"
			},
			{
				"type": "unocc",
				"energy": -0.03232,
				"method": "rhf"
			},
			{
				"type": "unocc",
				"energy": 0.01618,
				"method": "rhf"
			},
			{
				"type": "unocc",
				"energy": 0.05371,
				"method": "rhf"
			},
			{
				"type": "unocc",
				"energy": 0.05752,
				"method": "rhf"
			}
		],
		"cosmo_sigma_profile": { 
			"-0.025": 0.0,
			"-0.024": 0.0,
			"-0.023": 0.0,
			"-0.022": 0.0,
			"-0.021": 0.0,
			"-0.02": 0.0,
			"-0.019": 0.0,
			"-0.018": 0.0,
			"-0.017": 0.0,
			"-0.016": 0.0,
			"-0.015": 0.0153014486874,
			"-0.014": 0.69606493312,
			"-0.013": 1.05113009266,
			"-0.012": 0.515032915397,
			"-0.011": 1.08259923278,
			"-0.01": 1.57705003518,
			"-0.009": 3.93663037995,
			"-0.008": 8.03596715658,
			"-0.007": 11.2334309491,
			"-0.006": 10.5597337734,
			"-0.005": 10.3222655096,
			"-0.004": 14.9301506747,
			"-0.003": 26.0856165139,
			"-0.002": 27.8139142255,
			"-0.001": 28.3007435481,
			"0.0": 30.048269201,
			"0.001": 26.9191025152,
			"0.002": 16.422346628,
			"0.003": 12.319839651,
			"0.004": 14.0968218636,
			"0.005": 5.71738816507,
			"0.006": 4.72775035891,
			"0.007": 4.0131627952,
			"0.008": 3.59914772948,
			"0.009": 4.23408793101,
			"0.01": 7.24703044423,
			"0.011": 8.7767362829,
			"0.012": 3.08766058188,
			"0.013": 1.05435919904,
			"0.014": 0.7992694346,
			"0.015": 0.185148514391,
			"0.016": 0.50167158466,
			"0.017": 0.751724165842,
			"0.018": 0.50857011602,
			"0.019": 0.191272979478,
			"0.02": 0.0,
			"0.021": 0.0,
			"0.022": 0.0,
			"0.023": 0.0,
			"0.024": 0.0,
			"0.025": 0.0
		}
	}
}
