{
	 "smiles": "CC(C)(C)NC(=S)C1=CC(=C(O)C(=C1)C(C)(C)C)C(C)(C)C", 
	 "Tm": 477.15, 
	 "num_atms": 53, 
	 "gaussian": { 
		 "optdone": 1, 
		 "sigma_profile": "yes", 
		 "theory": "DFT", 
		 "functional": "B3LYP", 
		 "basiset": "6-31G**", 
		 "properties": { 
			 "R2extent": 8614.3984, 
			 "electric_dipole_moment_norm": 4.63036261755, 
			 "electric_quadrupole_moment_norm": 30.499846224, 
			 "total_energy": -1270.90052239, 
			 "HOMO_LUMO_gap": 0.15261, 
			 "cosmo_polarized_energy": -15.48, 
			 "cosmo_cavitation_energy": 50.92, 
			 "cosmo_dispersion_energy": -32.88, 
			 "cosmo_repulsion_energy": 2.48, 
			 "cosmo_total_nonelectrostatic_energy": 20.52, 
			 "SMD_solvation_energy": 7.63 
		},
		"coords": [
			{
				"x": -2.8866131528,
				"y": -0.985563788,
				"z": -4.9040450407,
				"element": "C" 
			},
			{
				"x": -2.0266150681,
				"y": -0.6316530255,
				"z": -3.6746444469,
				"element": "C" 
			},
			{
				"x": -2.6435942518,
				"y": 0.5840654168,
				"z": -2.9626270686,
				"element": "C" 
			},
			{
				"x": -0.59344496,
				"y": -0.3183952831,
				"z": -4.1423784246,
				"element": "C" 
			},
			{
				"x": -2.0703943422,
				"y": -1.8576071766,
				"z": -2.8154955635,
				"element": "N" 
			},
			{
				"x": -2.0075305584,
				"y": -2.040409034,
				"z": -1.4721257577,
				"element": "C" 
			},
			{
				"x": -2.737629761,
				"y": -3.3836250529,
				"z": -0.7768180663,
				"element": "S" 
			},
			{
				"x": -1.2333930509,
				"y": -1.0894445772,
				"z": -0.6270407871,
				"element": "C" 
			},
			{
				"x": -1.832044264,
				"y": -0.4961593571,
				"z": 0.487100234,
				"element": "C" 
			},
			{
				"x": -1.1296017817,
				"y": 0.3537445146,
				"z": 1.3444019008,
				"element": "C" 
			},
			{
				"x": 0.2460059184,
				"y": 0.5608419648,
				"z": 1.0665123813,
				"element": "C" 
			},
			{
				"x": 1.0205158641,
				"y": 1.3765793011,
				"z": 1.854132661,
				"element": "O" 
			},
			{
				"x": 0.9060588411,
				"y": -0.0599800613,
				"z": -0.0215703213,
				"element": "C" 
			},
			{
				"x": 0.1290547877,
				"y": -0.8670372265,
				"z": -0.8579966298,
				"element": "C" 
			},
			{
				"x": 2.4210813203,
				"y": 0.1271933148,
				"z": -0.2734694305,
				"element": "C" 
			},
			{
				"x": 2.9031192335,
				"y": -0.6797811383,
				"z": -1.4974850048,
				"element": "C" 
			},
			{
				"x": 2.740853269,
				"y": 1.6171306684,
				"z": -0.5522578597,
				"element": "C" 
			},
			{
				"x": 3.2341424871,
				"y": -0.3735901403,
				"z": 0.9466677155,
				"element": "C" 
			},
			{
				"x": -1.8404078674,
				"y": 1.016267676,
				"z": 2.5519410026,
				"element": "C" 
			},
			{
				"x": -1.8078009643,
				"y": 2.564284766,
				"z": 2.4297510552,
				"element": "C" 
			},
			{
				"x": -3.331501182,
				"y": 0.6231157641,
				"z": 2.6263453778,
				"element": "C" 
			},
			{
				"x": -1.2062549029,
				"y": 0.5453416138,
				"z": 3.8896819129,
				"element": "C" 
			},
			{
				"x": -2.4791740064,
				"y": -1.8549270376,
				"z": -5.4325955826,
				"element": "H" 
			},
			{
				"x": -2.9043606123,
				"y": -0.1472045209,
				"z": -5.6054893039,
				"element": "H" 
			},
			{
				"x": -3.9182732217,
				"y": -1.2077516611,
				"z": -4.612187825,
				"element": "H" 
			},
			{
				"x": -3.659510278,
				"y": 0.3606535188,
				"z": -2.6224866702,
				"element": "H" 
			},
			{
				"x": -2.694117066,
				"y": 1.4248419943,
				"z": -3.6620483796,
				"element": "H" 
			},
			{
				"x": -2.052042429,
				"y": 0.8967213062,
				"z": -2.1011059427,
				"element": "H" 
			},
			{
				"x": -0.127074008,
				"y": -1.2043279092,
				"z": -4.5843872269,
				"element": "H" 
			},
			{
				"x": -0.6137310012,
				"y": 0.4718074108,
				"z": -4.9003594017,
				"element": "H" 
			},
			{
				"x": 0.0286184086,
				"y": 0.0263039018,
				"z": -3.3151977079,
				"element": "H" 
			},
			{
				"x": -2.5463449255,
				"y": -2.6376667391,
				"z": -3.2559584339,
				"element": "H" 
			},
			{
				"x": -2.8741449863,
				"y": -0.7183940717,
				"z": 0.6701986827,
				"element": "H" 
			},
			{
				"x": 0.4973771697,
				"y": 1.7100358641,
				"z": 2.5893442631,
				"element": "H" 
			},
			{
				"x": 0.5965949259,
				"y": -1.3828325672,
				"z": -1.6851500678,
				"element": "H" 
			},
			{
				"x": 2.7429820798,
				"y": -1.7557298968,
				"z": -1.3729273167,
				"element": "H" 
			},
			{
				"x": 3.9784361628,
				"y": -0.5218596618,
				"z": -1.6274655437,
				"element": "H" 
			},
			{
				"x": 2.4142819576,
				"y": -0.3626439262,
				"z": -2.4247928932,
				"element": "H" 
			},
			{
				"x": 2.2000806687,
				"y": 1.9690522951,
				"z": -1.4379436462,
				"element": "H" 
			},
			{
				"x": 3.8129854107,
				"y": 1.7376784079,
				"z": -0.7458341937,
				"element": "H" 
			},
			{
				"x": 2.4717532259,
				"y": 2.2550322258,
				"z": 0.2897320839,
				"element": "H" 
			},
			{
				"x": 3.0394654883,
				"y": -1.4359536603,
				"z": 1.128880842,
				"element": "H" 
			},
			{
				"x": 2.9908126695,
				"y": 0.1809740347,
				"z": 1.8528427234,
				"element": "H" 
			},
			{
				"x": 4.3064018301,
				"y": -0.2578822932,
				"z": 0.7509472452,
				"element": "H" 
			},
			{
				"x": -2.3068205627,
				"y": 3.0210220634,
				"z": 3.2911747887,
				"element": "H" 
			},
			{
				"x": -0.8033753799,
				"y": 2.9946052657,
				"z": 2.3691655704,
				"element": "H" 
			},
			{
				"x": -2.3364705238,
				"y": 2.8806741311,
				"z": 1.5252421792,
				"element": "H" 
			},
			{
				"x": -3.8825804219,
				"y": 0.9395300864,
				"z": 1.7356261213,
				"element": "H" 
			},
			{
				"x": -3.790585018,
				"y": 1.1145907588,
				"z": 3.4900735796,
				"element": "H" 
			},
			{
				"x": -3.4656113341,
				"y": -0.4553959889,
				"z": 2.7494778535,
				"element": "H" 
			},
			{
				"x": -0.1386778432,
				"y": 0.7656098865,
				"z": 3.9931976732,
				"element": "H" 
			},
			{
				"x": -1.7167514213,
				"y": 1.0182431643,
				"z": 4.7354887672,
				"element": "H" 
			},
			{
				"x": -1.3097505721,
				"y": -0.5389255213,
				"z": 3.9919579229,
				"element": "H" 
			}
		],
		 "valence_orbital": [ 
			{
				"type": "occ",
				"energy": -0.30569,
				"method": "rhf"
			},
			{
				"type": "occ",
				"energy": -0.24441,
				"method": "rhf"
			},
			{
				"type": "occ",
				"energy": -0.22516,
				"method": "rhf"
			},
			{
				"type": "occ",
				"energy": -0.21373,
				"method": "rhf"
			},
			{
				"type": "occ",
				"energy": -0.18956,
				"method": "rhf"
			},
			{
				"type": "unocc",
				"energy": -0.03695,
				"method": "rhf"
			},
			{
				"type": "unocc",
				"energy": -0.00204,
				"method": "rhf"
			},
			{
				"type": "unocc",
				"energy": 0.01654,
				"method": "rhf"
			},
			{
				"type": "unocc",
				"energy": 0.05862,
				"method": "rhf"
			},
			{
				"type": "unocc",
				"energy": 0.06717,
				"method": "rhf"
			}
		],
		"cosmo_sigma_profile": { 
			"-0.025": 0.0,
			"-0.024": 0.0,
			"-0.023": 0.0,
			"-0.022": 0.0,
			"-0.021": 0.0,
			"-0.02": 0.0,
			"-0.019": 0.0,
			"-0.018": 0.0,
			"-0.017": 0.0,
			"-0.016": 0.0,
			"-0.015": 0.136697222645,
			"-0.014": 0.484318663615,
			"-0.013": 0.747945841331,
			"-0.012": 0.775671943958,
			"-0.011": 1.82291618812,
			"-0.01": 1.48147412858,
			"-0.009": 2.02790948324,
			"-0.008": 2.2028617881,
			"-0.007": 1.83434679597,
			"-0.006": 2.79173670505,
			"-0.005": 5.58842429973,
			"-0.004": 24.7855188998,
			"-0.003": 49.235337366,
			"-0.002": 52.4622329999,
			"-0.001": 53.6788033981,
			"0.0": 58.015215544,
			"0.001": 44.7952558056,
			"0.002": 25.4409341898,
			"0.003": 13.2038184643,
			"0.004": 10.1748895659,
			"0.005": 8.10362304584,
			"0.006": 5.65023798729,
			"0.007": 4.91288371599,
			"0.008": 5.05220039948,
			"0.009": 5.76286770607,
			"0.01": 6.86599826186,
			"0.011": 4.00681718193,
			"0.012": 3.60124882773,
			"0.013": 1.70271675497,
			"0.014": 0.284696501258,
			"0.015": 0.0,
			"0.016": 0.0,
			"0.017": 0.0,
			"0.018": 0.0,
			"0.019": 0.0,
			"0.02": 0.0,
			"0.021": 0.0,
			"0.022": 0.0,
			"0.023": 0.0,
			"0.024": 0.0,
			"0.025": 0.0
		}
	}
}
