{
	 "smiles": "OC(=O)CCCC1=CC=CC=C1", 
	 "Tm": 323.15, 
	 "num_atms": 24, 
	 "gaussian": { 
		 "optdone": 1, 
		 "sigma_profile": "yes", 
		 "theory": "DFT", 
		 "functional": "B3LYP", 
		 "basiset": "6-31G**", 
		 "properties": { 
			 "R2extent": 3245.5673, 
			 "electric_dipole_moment_norm": 1.82220568268, 
			 "electric_quadrupole_moment_norm": 13.4654892603, 
			 "total_energy": -538.769541353, 
			 "HOMO_LUMO_gap": 0.23736, 
			 "cosmo_polarized_energy": -10.13, 
			 "cosmo_cavitation_energy": 27.82, 
			 "cosmo_dispersion_energy": -19.63, 
			 "cosmo_repulsion_energy": 1.6, 
			 "cosmo_total_nonelectrostatic_energy": 9.79, 
			 "SMD_solvation_energy": 5.63 
		},
		"coords": [
			{
				"x": -0.6682994131,
				"y": -3.2838109043,
				"z": 2.7834010485,
				"element": "O" 
			},
			{
				"x": 0.6229049216,
				"y": -2.9161389829,
				"z": 2.9919201144,
				"element": "C" 
			},
			{
				"x": 1.2619398777,
				"y": -3.3187825955,
				"z": 3.9391441964,
				"element": "O" 
			},
			{
				"x": 1.1204609553,
				"y": -1.9693293571,
				"z": 1.9239172439,
				"element": "C" 
			},
			{
				"x": 0.9873384192,
				"y": -2.5299028986,
				"z": 0.4968195829,
				"element": "C" 
			},
			{
				"x": 1.5097738699,
				"y": -1.5595977677,
				"z": -0.5843514276,
				"element": "C" 
			},
			{
				"x": 0.7233718192,
				"y": -0.2682042931,
				"z": -0.6867940848,
				"element": "C" 
			},
			{
				"x": 1.2372024457,
				"y": 0.9381776941,
				"z": -0.1929897817,
				"element": "C" 
			},
			{
				"x": 0.4996267232,
				"y": 2.1216502623,
				"z": -0.274463766,
				"element": "C" 
			},
			{
				"x": -0.7690489024,
				"y": 2.1170632355,
				"z": -0.854512106,
				"element": "C" 
			},
			{
				"x": -1.2934654156,
				"y": 0.9220911201,
				"z": -1.3534330693,
				"element": "C" 
			},
			{
				"x": -0.5530196973,
				"y": -0.256553757,
				"z": -1.2696101615,
				"element": "C" 
			},
			{
				"x": -0.8947224561,
				"y": -3.8831196997,
				"z": 3.5143133566,
				"element": "H" 
			},
			{
				"x": 0.5456930804,
				"y": -1.0384692851,
				"z": 2.0025410333,
				"element": "H" 
			},
			{
				"x": 2.1626754696,
				"y": -1.7408551003,
				"z": 2.1616603829,
				"element": "H" 
			},
			{
				"x": 1.5450091446,
				"y": -3.4716690635,
				"z": 0.4233855667,
				"element": "H" 
			},
			{
				"x": -0.063347573,
				"y": -2.7685091314,
				"z": 0.3020031972,
				"element": "H" 
			},
			{
				"x": 2.5643730918,
				"y": -1.332459594,
				"z": -0.3860922736,
				"element": "H" 
			},
			{
				"x": 1.481360055,
				"y": -2.0801168493,
				"z": -1.5496220315,
				"element": "H" 
			},
			{
				"x": 2.2282777442,
				"y": 0.9517591152,
				"z": 0.254475123,
				"element": "H" 
			},
			{
				"x": 0.9188880443,
				"y": 3.0461345446,
				"z": 0.1128504938,
				"element": "H" 
			},
			{
				"x": -1.3436291946,
				"y": 3.0363940272,
				"z": -0.921564059,
				"element": "H" 
			},
			{
				"x": -2.278220399,
				"y": 0.9095590282,
				"z": -1.8123652407,
				"element": "H" 
			},
			{
				"x": -0.9671426105,
				"y": -1.1806097476,
				"z": -1.6669333381,
				"element": "H" 
			}
		],
		 "valence_orbital": [ 
			{
				"type": "occ",
				"energy": -0.32931,
				"method": "rhf"
			},
			{
				"type": "occ",
				"energy": -0.31369,
				"method": "rhf"
			},
			{
				"type": "occ",
				"energy": -0.26866,
				"method": "rhf"
			},
			{
				"type": "occ",
				"energy": -0.25026,
				"method": "rhf"
			},
			{
				"type": "occ",
				"energy": -0.24266,
				"method": "rhf"
			},
			{
				"type": "unocc",
				"energy": -0.0053,
				"method": "rhf"
			},
			{
				"type": "unocc",
				"energy": -0.00125,
				"method": "rhf"
			},
			{
				"type": "unocc",
				"energy": 0.01516,
				"method": "rhf"
			},
			{
				"type": "unocc",
				"energy": 0.07671,
				"method": "rhf"
			},
			{
				"type": "unocc",
				"energy": 0.09035,
				"method": "rhf"
			}
		],
		"cosmo_sigma_profile": { 
			"-0.025": 0.0,
			"-0.024": 0.0,
			"-0.023": 0.0,
			"-0.022": 0.0,
			"-0.021": 0.0,
			"-0.02": 0.0,
			"-0.019": 0.0,
			"-0.018": 0.411873866644,
			"-0.017": 0.96861863623,
			"-0.016": 0.978965575484,
			"-0.015": 0.747853964616,
			"-0.014": 0.55966913068,
			"-0.013": 0.695622635949,
			"-0.012": 0.805493577269,
			"-0.011": 0.641678278918,
			"-0.01": 0.598457950623,
			"-0.009": 0.658693189467,
			"-0.008": 0.514128668357,
			"-0.007": 0.648010410149,
			"-0.006": 3.52258254035,
			"-0.005": 13.6348549059,
			"-0.004": 25.3294988099,
			"-0.003": 26.8401134842,
			"-0.002": 21.6452098904,
			"-0.001": 18.7839123461,
			"0.0": 16.6836127339,
			"0.001": 11.4395073319,
			"0.002": 10.2071114495,
			"0.003": 9.62668093471,
			"0.004": 10.2794686735,
			"0.005": 9.62008724297,
			"0.006": 11.0299870439,
			"0.007": 4.58637926501,
			"0.008": 2.54088165814,
			"0.009": 2.89441416398,
			"0.01": 2.17105397598,
			"0.011": 3.09966209755,
			"0.012": 5.3195036399,
			"0.013": 1.66201880388,
			"0.014": 0.0630236568695,
			"0.015": 0.0,
			"0.016": 0.0,
			"0.017": 0.0,
			"0.018": 0.0,
			"0.019": 0.0,
			"0.02": 0.0,
			"0.021": 0.0,
			"0.022": 0.0,
			"0.023": 0.0,
			"0.024": 0.0,
			"0.025": 0.0
		}
	}
}
