{
	 "smiles": "BrC1=CC=C(C=C1)N=[N+]=[N-]", 
	 "Tm": 293.15, 
	 "num_atms": 14, 
	 "gaussian": { 
		 "optdone": 1, 
		 "sigma_profile": "yes", 
		 "theory": "DFT", 
		 "functional": "B3LYP", 
		 "basiset": "6-31G**", 
		 "properties": { 
			 "R2extent": 3293.5438, 
			 "electric_dipole_moment_norm": 0.13907181598, 
			 "electric_quadrupole_moment_norm": 6.8754266813, 
			 "total_energy": -2966.63774517, 
			 "HOMO_LUMO_gap": 0.18431, 
			 "cosmo_polarized_energy": -5.1, 
			 "cosmo_cavitation_energy": 22.33, 
			 "cosmo_dispersion_energy": -16.56, 
			 "cosmo_repulsion_energy": 1.35, 
			 "cosmo_total_nonelectrostatic_energy": 7.12, 
			 "SMD_solvation_energy": 0.86 
		},
		"coords": [
			{
				"x": -2.482474191,
				"y": -0.5903361764,
				"z": 2.5706480898,
				"element": "Br" 
			},
			{
				"x": -1.6552047447,
				"y": 0.0601512498,
				"z": 0.9775651858,
				"element": "C" 
			},
			{
				"x": -2.4291073078,
				"y": 0.2746957964,
				"z": -0.1632512597,
				"element": "C" 
			},
			{
				"x": -1.8235107283,
				"y": 0.7490052553,
				"z": -1.3229428085,
				"element": "C" 
			},
			{
				"x": -0.4475417787,
				"y": 1.0087221396,
				"z": -1.3439351823,
				"element": "C" 
			},
			{
				"x": 0.3209071786,
				"y": 0.7897010238,
				"z": -0.1923638824,
				"element": "C" 
			},
			{
				"x": -0.284445539,
				"y": 0.3149216014,
				"z": 0.9691623326,
				"element": "C" 
			},
			{
				"x": 0.076718173,
				"y": 1.4890686499,
				"z": -2.5708147934,
				"element": "N" 
			},
			{
				"x": 1.288633285,
				"y": 1.7332666147,
				"z": -2.6388817869,
				"element": "N" 
			},
			{
				"x": 2.3802257573,
				"y": 1.9972568927,
				"z": -2.841107359,
				"element": "N" 
			},
			{
				"x": -3.4939705764,
				"y": 0.0733450461,
				"z": -0.1458004593,
				"element": "H" 
			},
			{
				"x": -2.4060439215,
				"y": 0.9228944558,
				"z": -2.2212177029,
				"element": "H" 
			},
			{
				"x": 1.3887581192,
				"y": 0.9876153276,
				"z": -0.1972386687,
				"element": "H" 
			},
			{
				"x": 0.3074562744,
				"y": 0.1446921233,
				"z": 1.8611782947,
				"element": "H" 
			}
		],
		 "valence_orbital": [ 
			{
				"type": "occ",
				"energy": -0.32474,
				"method": "rhf"
			},
			{
				"type": "occ",
				"energy": -0.29288,
				"method": "rhf"
			},
			{
				"type": "occ",
				"energy": -0.29203,
				"method": "rhf"
			},
			{
				"type": "occ",
				"energy": -0.27641,
				"method": "rhf"
			},
			{
				"type": "occ",
				"energy": -0.23041,
				"method": "rhf"
			},
			{
				"type": "unocc",
				"energy": -0.0461,
				"method": "rhf"
			},
			{
				"type": "unocc",
				"energy": -0.04406,
				"method": "rhf"
			},
			{
				"type": "unocc",
				"energy": -0.02561,
				"method": "rhf"
			},
			{
				"type": "unocc",
				"energy": 0.00203,
				"method": "rhf"
			},
			{
				"type": "unocc",
				"energy": 0.02645,
				"method": "rhf"
			}
		],
		"cosmo_sigma_profile": { 
			"-0.025": 0.0,
			"-0.024": 0.0,
			"-0.023": 0.0,
			"-0.022": 0.0,
			"-0.021": 0.0,
			"-0.02": 0.0,
			"-0.019": 0.0,
			"-0.018": 0.0,
			"-0.017": 0.0,
			"-0.016": 0.0,
			"-0.015": 0.0,
			"-0.014": 0.0,
			"-0.013": 0.0,
			"-0.012": 0.0,
			"-0.011": 0.0,
			"-0.01": 0.0,
			"-0.009": 0.0,
			"-0.008": 3.40601351814,
			"-0.007": 9.78903767573,
			"-0.006": 9.87870697089,
			"-0.005": 9.42479705176,
			"-0.004": 12.0282188086,
			"-0.003": 10.3285018574,
			"-0.002": 10.4521853123,
			"-0.001": 9.3510663349,
			"0.0": 12.1486182255,
			"0.001": 17.337386834,
			"0.002": 23.9974796195,
			"0.003": 20.3994746179,
			"0.004": 16.0076031503,
			"0.005": 9.9969233428,
			"0.006": 5.12743845271,
			"0.007": 3.17016925495,
			"0.008": 0.927861617218,
			"0.009": 0.714971819318,
			"0.01": 0.0,
			"0.011": 0.0,
			"0.012": 0.0,
			"0.013": 0.0,
			"0.014": 0.0,
			"0.015": 0.0,
			"0.016": 0.0,
			"0.017": 0.0,
			"0.018": 0.0,
			"0.019": 0.0,
			"0.02": 0.0,
			"0.021": 0.0,
			"0.022": 0.0,
			"0.023": 0.0,
			"0.024": 0.0,
			"0.025": 0.0
		}
	}
}
