{
	 "smiles": "NNC1=C2C=CSC2=NC=N1", 
	 "Tm": 485.15, 
	 "num_atms": 17, 
	 "gaussian": { 
		 "optdone": 1, 
		 "sigma_profile": "yes", 
		 "theory": "DFT", 
		 "functional": "B3LYP", 
		 "basiset": "6-31G**", 
		 "properties": { 
			 "R2extent": 2720.625, 
			 "electric_dipole_moment_norm": 3.6578772068, 
			 "electric_quadrupole_moment_norm": 12.0042202779, 
			 "total_energy": -849.411466952, 
			 "HOMO_LUMO_gap": 0.18513, 
			 "cosmo_polarized_energy": -13.49, 
			 "cosmo_cavitation_energy": 22.61, 
			 "cosmo_dispersion_energy": -17.87, 
			 "cosmo_repulsion_energy": 1.36, 
			 "cosmo_total_nonelectrostatic_energy": 6.1, 
			 "SMD_solvation_energy": 1.17 
		},
		"coords": [
			{
				"x": -1.8184769178,
				"y": -2.1854996816,
				"z": 0.3413979466,
				"element": "N" 
			},
			{
				"x": -0.9751586773,
				"y": -1.2531537095,
				"z": -0.2713560411,
				"element": "N" 
			},
			{
				"x": 0.0370180694,
				"y": -0.5520858913,
				"z": 0.3286830781,
				"element": "C" 
			},
			{
				"x": 0.1923532348,
				"y": -0.3737094963,
				"z": 1.7325594709,
				"element": "C" 
			},
			{
				"x": -0.5516491518,
				"y": -0.8018129199,
				"z": 2.8915547445,
				"element": "C" 
			},
			{
				"x": -0.0031901384,
				"y": -0.3668916078,
				"z": 4.0569811409,
				"element": "C" 
			},
			{
				"x": 1.4432800395,
				"y": 0.5880081099,
				"z": 3.8310468265,
				"element": "S" 
			},
			{
				"x": 1.3167824571,
				"y": 0.4073253791,
				"z": 2.0887000324,
				"element": "C" 
			},
			{
				"x": 2.1903158872,
				"y": 0.9657169701,
				"z": 1.2467794951,
				"element": "N" 
			},
			{
				"x": 1.9142544754,
				"y": 0.7254756185,
				"z": -0.0350941222,
				"element": "C" 
			},
			{
				"x": 0.9052762479,
				"y": 0.0045805628,
				"z": -0.5326628555,
				"element": "N" 
			},
			{
				"x": -1.294355853,
				"y": -2.8044048882,
				"z": 0.9564443932,
				"element": "H" 
			},
			{
				"x": -2.5352708165,
				"y": -1.7083786027,
				"z": 0.8809293528,
				"element": "H" 
			},
			{
				"x": -0.8599671792,
				"y": -1.3708213839,
				"z": -1.2695088557,
				"element": "H" 
			},
			{
				"x": -1.4535515773,
				"y": -1.3977126615,
				"z": 2.8654197582,
				"element": "H" 
			},
			{
				"x": -0.3675684215,
				"y": -0.5495843052,
				"z": 5.0585927361,
				"element": "H" 
			},
			{
				"x": 2.5926083215,
				"y": 1.1616485075,
				"z": -0.7656671009,
				"element": "H" 
			}
		],
		 "valence_orbital": [ 
			{
				"type": "occ",
				"energy": -0.28861,
				"method": "rhf"
			},
			{
				"type": "occ",
				"energy": -0.27256,
				"method": "rhf"
			},
			{
				"type": "occ",
				"energy": -0.26476,
				"method": "rhf"
			},
			{
				"type": "occ",
				"energy": -0.25611,
				"method": "rhf"
			},
			{
				"type": "occ",
				"energy": -0.21889,
				"method": "rhf"
			},
			{
				"type": "unocc",
				"energy": -0.03376,
				"method": "rhf"
			},
			{
				"type": "unocc",
				"energy": -0.0188,
				"method": "rhf"
			},
			{
				"type": "unocc",
				"energy": 0.02,
				"method": "rhf"
			},
			{
				"type": "unocc",
				"energy": 0.02862,
				"method": "rhf"
			},
			{
				"type": "unocc",
				"energy": 0.05783,
				"method": "rhf"
			}
		],
		"cosmo_sigma_profile": { 
			"-0.025": 0.0,
			"-0.024": 0.0,
			"-0.023": 0.0,
			"-0.022": 0.0,
			"-0.021": 0.0,
			"-0.02": 0.0,
			"-0.019": 0.0,
			"-0.018": 0.0,
			"-0.017": 0.0,
			"-0.016": 0.0,
			"-0.015": 0.0,
			"-0.014": 0.12017812788,
			"-0.013": 0.989721085761,
			"-0.012": 3.70866909814,
			"-0.011": 5.050615181,
			"-0.01": 4.29814423299,
			"-0.009": 5.54712316428,
			"-0.008": 5.30871313402,
			"-0.007": 6.92513510489,
			"-0.006": 6.36329868857,
			"-0.005": 6.96581830604,
			"-0.004": 6.3910395098,
			"-0.003": 6.98610591654,
			"-0.002": 7.55321228963,
			"-0.001": 8.62116333898,
			"0.0": 12.9960810287,
			"0.001": 18.6317680502,
			"0.002": 17.9858970723,
			"0.003": 15.375006908,
			"0.004": 12.2173497218,
			"0.005": 5.95943724549,
			"0.006": 3.50112960008,
			"0.007": 2.78534565921,
			"0.008": 2.58707331225,
			"0.009": 2.68184574699,
			"0.01": 3.17004374136,
			"0.011": 2.29959690807,
			"0.012": 2.87464715679,
			"0.013": 1.87493834003,
			"0.014": 2.1794736011,
			"0.015": 1.37480010589,
			"0.016": 0.340867499143,
			"0.017": 0.0,
			"0.018": 0.0,
			"0.019": 0.0,
			"0.02": 0.0,
			"0.021": 0.0,
			"0.022": 0.0,
			"0.023": 0.0,
			"0.024": 0.0,
			"0.025": 0.0
		}
	}
}
