{
	 "smiles": "CCN(CC)C(=O)C1=CC=C(N)C=C1", 
	 "Tm": 392.15, 
	 "num_atms": 30, 
	 "gaussian": { 
		 "optdone": 1, 
		 "sigma_profile": "yes", 
		 "theory": "DFT", 
		 "functional": "B3LYP", 
		 "basiset": "6-31G**", 
		 "properties": { 
			 "R2extent": 3783.5401, 
			 "electric_dipole_moment_norm": 4.784097221, 
			 "electric_quadrupole_moment_norm": 21.9746002899, 
			 "total_energy": -613.565037092, 
			 "HOMO_LUMO_gap": 0.19342, 
			 "cosmo_polarized_energy": -15.57, 
			 "cosmo_cavitation_energy": 31.9, 
			 "cosmo_dispersion_energy": -22.9, 
			 "cosmo_repulsion_energy": 1.82, 
			 "cosmo_total_nonelectrostatic_energy": 10.82, 
			 "SMD_solvation_energy": 5.72 
		},
		"coords": [
			{
				"x": -1.4364679215,
				"y": -2.8513203134,
				"z": -1.4962041251,
				"element": "C" 
			},
			{
				"x": -1.116486716,
				"y": -2.6109400743,
				"z": -0.0167072653,
				"element": "C" 
			},
			{
				"x": -0.4347096907,
				"y": -1.3345673101,
				"z": 0.243184147,
				"element": "N" 
			},
			{
				"x": 1.0131034882,
				"y": -1.3153686967,
				"z": 0.0147030632,
				"element": "C" 
			},
			{
				"x": 1.8314725078,
				"y": -1.9823963515,
				"z": 1.1256975136,
				"element": "C" 
			},
			{
				"x": -1.2422717547,
				"y": -0.2124582983,
				"z": 0.2788790604,
				"element": "C" 
			},
			{
				"x": -2.4534532393,
				"y": -0.3031729191,
				"z": 0.0655891089,
				"element": "O" 
			},
			{
				"x": -0.6483250695,
				"y": 1.1259844672,
				"z": 0.6071125169,
				"element": "C" 
			},
			{
				"x": 0.3329996847,
				"y": 1.3455976129,
				"z": 1.5847117737,
				"element": "C" 
			},
			{
				"x": 0.7634977432,
				"y": 2.6303814797,
				"z": 1.8997131971,
				"element": "C" 
			},
			{
				"x": 0.2255752363,
				"y": 3.7479395988,
				"z": 1.2372023923,
				"element": "C" 
			},
			{
				"x": 0.6216898553,
				"y": 5.0369001199,
				"z": 1.5769521465,
				"element": "N" 
			},
			{
				"x": -0.7722970621,
				"y": 3.5331766411,
				"z": 0.2671939669,
				"element": "C" 
			},
			{
				"x": -1.2073971003,
				"y": 2.2485687737,
				"z": -0.0245566564,
				"element": "C" 
			},
			{
				"x": -0.5332175006,
				"y": -2.8403801642,
				"z": -2.1160360208,
				"element": "H" 
			},
			{
				"x": -1.9150668636,
				"y": -3.8281962781,
				"z": -1.6247572443,
				"element": "H" 
			},
			{
				"x": -2.1205508,
				"y": -2.0804233574,
				"z": -1.8566527027,
				"element": "H" 
			},
			{
				"x": -0.4796052403,
				"y": -3.4123416327,
				"z": 0.3721439855,
				"element": "H" 
			},
			{
				"x": -2.0430377611,
				"y": -2.6099783686,
				"z": 0.5601082765,
				"element": "H" 
			},
			{
				"x": 1.3297962951,
				"y": -0.2800398328,
				"z": -0.1148863124,
				"element": "H" 
			},
			{
				"x": 1.2208591054,
				"y": -1.8240738168,
				"z": -0.9372352289,
				"element": "H" 
			},
			{
				"x": 1.6881559593,
				"y": -1.4804859753,
				"z": 2.0871625327,
				"element": "H" 
			},
			{
				"x": 1.5567141561,
				"y": -3.0335026398,
				"z": 1.2564324127,
				"element": "H" 
			},
			{
				"x": 2.8975738922,
				"y": -1.94794472,
				"z": 0.8770264995,
				"element": "H" 
			},
			{
				"x": 0.7499121161,
				"y": 0.5071650189,
				"z": 2.1327203866,
				"element": "H" 
			},
			{
				"x": 1.5119746911,
				"y": 2.7762645938,
				"z": 2.674786827,
				"element": "H" 
			},
			{
				"x": 0.4538336247,
				"y": 5.7483029783,
				"z": 0.8799774157,
				"element": "H" 
			},
			{
				"x": 1.5305350713,
				"y": 5.1216120968,
				"z": 2.0091633365,
				"element": "H" 
			},
			{
				"x": -1.213456427,
				"y": 4.3856734889,
				"z": -0.2436931437,
				"element": "H" 
			},
			{
				"x": -1.9992502804,
				"y": 2.0913238793,
				"z": -0.7494318597,
				"element": "H" 
			}
		],
		 "valence_orbital": [ 
			{
				"type": "occ",
				"energy": -0.30496,
				"method": "rhf"
			},
			{
				"type": "occ",
				"energy": -0.25017,
				"method": "rhf"
			},
			{
				"type": "occ",
				"energy": -0.23948,
				"method": "rhf"
			},
			{
				"type": "occ",
				"energy": -0.22369,
				"method": "rhf"
			},
			{
				"type": "occ",
				"energy": -0.20349,
				"method": "rhf"
			},
			{
				"type": "unocc",
				"energy": -0.01007,
				"method": "rhf"
			},
			{
				"type": "unocc",
				"energy": 0.00088,
				"method": "rhf"
			},
			{
				"type": "unocc",
				"energy": 0.06426,
				"method": "rhf"
			},
			{
				"type": "unocc",
				"energy": 0.07934,
				"method": "rhf"
			},
			{
				"type": "unocc",
				"energy": 0.08313,
				"method": "rhf"
			}
		],
		"cosmo_sigma_profile": { 
			"-0.025": 0.0,
			"-0.024": 0.0,
			"-0.023": 0.0,
			"-0.022": 0.0,
			"-0.021": 0.0,
			"-0.02": 0.0,
			"-0.019": 0.0,
			"-0.018": 0.0,
			"-0.017": 0.0,
			"-0.016": 0.0,
			"-0.015": 0.0,
			"-0.014": 0.0,
			"-0.013": 1.1180144394,
			"-0.012": 2.8369959479,
			"-0.011": 2.92749948203,
			"-0.01": 3.1244829221,
			"-0.009": 2.96579747913,
			"-0.008": 2.40834730963,
			"-0.007": 4.18683421117,
			"-0.006": 5.39211595703,
			"-0.005": 10.7010076731,
			"-0.004": 18.5361204332,
			"-0.003": 24.7959112241,
			"-0.002": 26.3865920102,
			"-0.001": 24.3120743307,
			"0.0": 24.1480046303,
			"0.001": 20.6863433012,
			"0.002": 11.8279889951,
			"0.003": 9.11492405937,
			"0.004": 9.99353392964,
			"0.005": 11.9928007137,
			"0.006": 8.9075415489,
			"0.007": 2.6116270173,
			"0.008": 3.65507155032,
			"0.009": 2.27124871653,
			"0.01": 1.84476823831,
			"0.011": 2.48288581957,
			"0.012": 2.4657750793,
			"0.013": 2.36352691841,
			"0.014": 3.68718092068,
			"0.015": 2.76711876671,
			"0.016": 0.228747942956,
			"0.017": 0.0,
			"0.018": 0.0,
			"0.019": 0.0,
			"0.02": 0.0,
			"0.021": 0.0,
			"0.022": 0.0,
			"0.023": 0.0,
			"0.024": 0.0,
			"0.025": 0.0
		}
	}
}
