{
	 "smiles": "CC1=C(NC(N)=S)C=CC=C1", 
	 "Tm": 435.15, 
	 "num_atms": 21, 
	 "gaussian": { 
		 "optdone": 1, 
		 "sigma_profile": "yes", 
		 "theory": "DFT", 
		 "functional": "B3LYP", 
		 "basiset": "6-31G**", 
		 "properties": { 
			 "R2extent": 2634.6814, 
			 "electric_dipole_moment_norm": 5.41610327173, 
			 "electric_quadrupole_moment_norm": 20.987315968, 
			 "total_energy": -818.594408395, 
			 "HOMO_LUMO_gap": 0.17501, 
			 "cosmo_polarized_energy": -16.21, 
			 "cosmo_cavitation_energy": 26.09, 
			 "cosmo_dispersion_energy": -19.46, 
			 "cosmo_repulsion_energy": 1.53, 
			 "cosmo_total_nonelectrostatic_energy": 8.16, 
			 "SMD_solvation_energy": 3.71 
		},
		"coords": [
			{
				"x": -1.2748312264,
				"y": 0.718551859,
				"z": 1.8526431504,
				"element": "C" 
			},
			{
				"x": -0.27907135,
				"y": -0.0851297345,
				"z": 1.0520941561,
				"element": "C" 
			},
			{
				"x": 0.1685128485,
				"y": 0.3623132258,
				"z": -0.2105281071,
				"element": "C" 
			},
			{
				"x": -0.3125468553,
				"y": 1.6049864154,
				"z": -0.698720443,
				"element": "N" 
			},
			{
				"x": -0.7357458765,
				"y": 1.9475891029,
				"z": -1.9553770373,
				"element": "C" 
			},
			{
				"x": -0.75454977,
				"y": 0.9628282691,
				"z": -2.8911982451,
				"element": "N" 
			},
			{
				"x": -1.2017925176,
				"y": 3.5261202609,
				"z": -2.3032183414,
				"element": "S" 
			},
			{
				"x": 1.107220134,
				"y": -0.3861200043,
				"z": -0.9361328721,
				"element": "C" 
			},
			{
				"x": 1.5798593297,
				"y": -1.5980453745,
				"z": -0.4336881734,
				"element": "C" 
			},
			{
				"x": 1.1409691989,
				"y": -2.0554828159,
				"z": 0.8078782944,
				"element": "C" 
			},
			{
				"x": 0.2280912388,
				"y": -1.2940717224,
				"z": 1.5391498728,
				"element": "C" 
			},
			{
				"x": -2.1513014834,
				"y": 0.9865376593,
				"z": 1.2530163368,
				"element": "H" 
			},
			{
				"x": -1.6163148549,
				"y": 0.1554286339,
				"z": 2.7244401616,
				"element": "H" 
			},
			{
				"x": -0.8420832371,
				"y": 1.6571565972,
				"z": 2.2244992717,
				"element": "H" 
			},
			{
				"x": -0.4138376874,
				"y": 2.3640746965,
				"z": -0.0392627244,
				"element": "H" 
			},
			{
				"x": -1.2003175095,
				"y": 1.1980441496,
				"z": -3.7637205538,
				"element": "H" 
			},
			{
				"x": -0.7146127266,
				"y": -0.0098787789,
				"z": -2.619958208,
				"element": "H" 
			},
			{
				"x": 1.480689899,
				"y": -0.0019927229,
				"z": -1.8793422304,
				"element": "H" 
			},
			{
				"x": 2.3045126573,
				"y": -2.1694279619,
				"z": -1.0060634009,
				"element": "H" 
			},
			{
				"x": 1.5088493857,
				"y": -2.994948262,
				"z": 1.2089009146,
				"element": "H" 
			},
			{
				"x": -0.1117995972,
				"y": -1.6483334923,
				"z": 2.5088881786,
				"element": "H" 
			}
		],
		 "valence_orbital": [ 
			{
				"type": "occ",
				"energy": -0.30302,
				"method": "rhf"
			},
			{
				"type": "occ",
				"energy": -0.26076,
				"method": "rhf"
			},
			{
				"type": "occ",
				"energy": -0.24656,
				"method": "rhf"
			},
			{
				"type": "occ",
				"energy": -0.20825,
				"method": "rhf"
			},
			{
				"type": "occ",
				"energy": -0.20376,
				"method": "rhf"
			},
			{
				"type": "unocc",
				"energy": -0.02875,
				"method": "rhf"
			},
			{
				"type": "unocc",
				"energy": -0.01694,
				"method": "rhf"
			},
			{
				"type": "unocc",
				"energy": 0.01689,
				"method": "rhf"
			},
			{
				"type": "unocc",
				"energy": 0.06668,
				"method": "rhf"
			},
			{
				"type": "unocc",
				"energy": 0.08538,
				"method": "rhf"
			}
		],
		"cosmo_sigma_profile": { 
			"-0.025": 0.0,
			"-0.024": 0.0,
			"-0.023": 0.0,
			"-0.022": 0.0,
			"-0.021": 0.0,
			"-0.02": 0.0,
			"-0.019": 0.0,
			"-0.018": 0.0,
			"-0.017": 0.0,
			"-0.016": 0.0,
			"-0.015": 0.139045874092,
			"-0.014": 1.46667874114,
			"-0.013": 2.48730574383,
			"-0.012": 3.50299280858,
			"-0.011": 3.02252018975,
			"-0.01": 2.76245287547,
			"-0.009": 3.43792190287,
			"-0.008": 2.6639024642,
			"-0.007": 3.18085218224,
			"-0.006": 8.88473702714,
			"-0.005": 14.5496684847,
			"-0.004": 16.4960501237,
			"-0.003": 14.6747561892,
			"-0.002": 14.8357768385,
			"-0.001": 14.9382658991,
			"0.0": 14.1273891808,
			"0.001": 10.2131601697,
			"0.002": 10.3354022999,
			"0.003": 9.56687133124,
			"0.004": 12.3861281585,
			"0.005": 10.7714077733,
			"0.006": 4.04923424772,
			"0.007": 3.08867606874,
			"0.008": 2.9739224081,
			"0.009": 4.75869830848,
			"0.01": 4.34933255744,
			"0.011": 7.61865262995,
			"0.012": 6.88719090623,
			"0.013": 1.76749636738,
			"0.014": 0.0,
			"0.015": 0.0,
			"0.016": 0.0,
			"0.017": 0.0,
			"0.018": 0.0,
			"0.019": 0.0,
			"0.02": 0.0,
			"0.021": 0.0,
			"0.022": 0.0,
			"0.023": 0.0,
			"0.024": 0.0,
			"0.025": 0.0
		}
	}
}
