{
	 "smiles": "CCOC(=O)C1=C(NC(=O)NC2=CC(Cl)=C(Cl)C=C2)NN=C1", 
	 "Tm": 543.15, 
	 "num_atms": 34, 
	 "gaussian": { 
		 "optdone": 1, 
		 "sigma_profile": "yes", 
		 "theory": "DFT", 
		 "functional": "B3LYP", 
		 "basiset": "6-31G**", 
		 "properties": { 
			 "R2extent": 10926.5925, 
			 "electric_dipole_moment_norm": 1.8599357704, 
			 "electric_quadrupole_moment_norm": 25.884530739, 
			 "total_energy": -1867.71147266, 
			 "HOMO_LUMO_gap": 0.18771, 
			 "cosmo_polarized_energy": -16.46, 
			 "cosmo_cavitation_energy": 43.2, 
			 "cosmo_dispersion_energy": -30.75, 
			 "cosmo_repulsion_energy": 2.38, 
			 "cosmo_total_nonelectrostatic_energy": 14.83, 
			 "SMD_solvation_energy": 7.32 
		},
		"coords": [
			{
				"x": -3.0197145362,
				"y": 2.5141021207,
				"z": 2.4367447972,
				"element": "C" 
			},
			{
				"x": -2.6575233382,
				"y": 3.1814486443,
				"z": 1.1185774185,
				"element": "C" 
			},
			{
				"x": -1.2828403306,
				"y": 3.6371375409,
				"z": 1.1188917555,
				"element": "O" 
			},
			{
				"x": -0.343029757,
				"y": 2.7378807546,
				"z": 0.7696032333,
				"element": "C" 
			},
			{
				"x": -0.6003159702,
				"y": 1.5763713943,
				"z": 0.4465985318,
				"element": "O" 
			},
			{
				"x": 1.0032269266,
				"y": 3.273129134,
				"z": 0.8052833033,
				"element": "C" 
			},
			{
				"x": 2.1353407478,
				"y": 2.5169310854,
				"z": 0.4799195972,
				"element": "C" 
			},
			{
				"x": 2.1661128627,
				"y": 1.1916372203,
				"z": 0.0931952682,
				"element": "N" 
			},
			{
				"x": 3.3297606459,
				"y": 0.5239347955,
				"z": -0.2233777438,
				"element": "C" 
			},
			{
				"x": 4.4378373153,
				"y": 1.0535711709,
				"z": -0.1621089592,
				"element": "O" 
			},
			{
				"x": 3.2054172996,
				"y": -0.7990787344,
				"z": -0.6096963608,
				"element": "N" 
			},
			{
				"x": 2.0671314379,
				"y": -1.6156684717,
				"z": -0.7846454972,
				"element": "C" 
			},
			{
				"x": 2.1412732032,
				"y": -2.9501184205,
				"z": -0.3652498976,
				"element": "C" 
			},
			{
				"x": 1.0671903288,
				"y": -3.8167509379,
				"z": -0.5586786582,
				"element": "C" 
			},
			{
				"x": 1.2275587952,
				"y": -5.469957851,
				"z": -0.0241358151,
				"element": "Cl" 
			},
			{
				"x": -0.1135581464,
				"y": -3.3509179764,
				"z": -1.154197942,
				"element": "C" 
			},
			{
				"x": -1.4903884668,
				"y": -4.392966872,
				"z": -1.3999011059,
				"element": "Cl" 
			},
			{
				"x": -0.1851154649,
				"y": -2.0199118347,
				"z": -1.5675326974,
				"element": "C" 
			},
			{
				"x": 0.8961738709,
				"y": -1.1590759414,
				"z": -1.40638118,
				"element": "C" 
			},
			{
				"x": 3.1980406019,
				"y": 3.3314208344,
				"z": 0.6136834677,
				"element": "N" 
			},
			{
				"x": 2.8483282926,
				"y": 4.5934226452,
				"z": 1.0101569821,
				"element": "N" 
			},
			{
				"x": 1.531738638,
				"y": 4.5543706585,
				"z": 1.1252861214,
				"element": "C" 
			},
			{
				"x": -2.4406942384,
				"y": 1.5978740722,
				"z": 2.5753832052,
				"element": "H" 
			},
			{
				"x": -4.0830888811,
				"y": 2.2523301797,
				"z": 2.4400398304,
				"element": "H" 
			},
			{
				"x": -2.8285268505,
				"y": 3.1856036918,
				"z": 3.2788073692,
				"element": "H" 
			},
			{
				"x": -3.2413108178,
				"y": 4.090368656,
				"z": 0.9555948217,
				"element": "H" 
			},
			{
				"x": -2.8038604996,
				"y": 2.5002871783,
				"z": 0.2772353798,
				"element": "H" 
			},
			{
				"x": 1.2480952301,
				"y": 0.7499279155,
				"z": 0.1233856923,
				"element": "H" 
			},
			{
				"x": 4.1109497105,
				"y": -1.245178656,
				"z": -0.6643544863,
				"element": "H" 
			},
			{
				"x": 3.0366012806,
				"y": -3.3195006605,
				"z": 0.122998021,
				"element": "H" 
			},
			{
				"x": -1.0937358689,
				"y": -1.663447272,
				"z": -2.0391421671,
				"element": "H" 
			},
			{
				"x": 0.8251036321,
				"y": -0.145034152,
				"z": -1.7812349265,
				"element": "H" 
			},
			{
				"x": 4.1563787404,
				"y": 3.0550110081,
				"z": 0.4463330088,
				"element": "H" 
			},
			{
				"x": 0.9844436065,
				"y": 5.4348470798,
				"z": 1.4313196325,
				"element": "H" 
			}
		],
		 "valence_orbital": [ 
			{
				"type": "occ",
				"energy": -0.27999,
				"method": "rhf"
			},
			{
				"type": "occ",
				"energy": -0.27382,
				"method": "rhf"
			},
			{
				"type": "occ",
				"energy": -0.26951,
				"method": "rhf"
			},
			{
				"type": "occ",
				"energy": -0.24747,
				"method": "rhf"
			},
			{
				"type": "occ",
				"energy": -0.23038,
				"method": "rhf"
			},
			{
				"type": "unocc",
				"energy": -0.04267,
				"method": "rhf"
			},
			{
				"type": "unocc",
				"energy": -0.04023,
				"method": "rhf"
			},
			{
				"type": "unocc",
				"energy": -0.02268,
				"method": "rhf"
			},
			{
				"type": "unocc",
				"energy": -0.0075,
				"method": "rhf"
			},
			{
				"type": "unocc",
				"energy": 0.0123,
				"method": "rhf"
			}
		],
		"cosmo_sigma_profile": { 
			"-0.025": 0.0,
			"-0.024": 0.0,
			"-0.023": 0.0,
			"-0.022": 0.0,
			"-0.021": 0.0,
			"-0.02": 0.0,
			"-0.019": 0.0,
			"-0.018": 0.0,
			"-0.017": 0.0,
			"-0.016": 0.460830341585,
			"-0.015": 1.23079113569,
			"-0.014": 1.6207506087,
			"-0.013": 1.81156044553,
			"-0.012": 1.12134648336,
			"-0.011": 2.23700426297,
			"-0.01": 2.22194698857,
			"-0.009": 2.5896836309,
			"-0.008": 7.61637633404,
			"-0.007": 7.70255360161,
			"-0.006": 9.83640520358,
			"-0.005": 13.5163045541,
			"-0.004": 18.8047701403,
			"-0.003": 25.3133015644,
			"-0.002": 30.3384297573,
			"-0.001": 30.9558848367,
			"0.0": 38.3657459344,
			"0.001": 35.7182521067,
			"0.002": 26.1439144602,
			"0.003": 23.5490639426,
			"0.004": 23.4849168533,
			"0.005": 9.63100832565,
			"0.006": 6.40539153374,
			"0.007": 5.86786898555,
			"0.008": 3.18660796155,
			"0.009": 3.73589363395,
			"0.01": 4.49930702038,
			"0.011": 4.0723225075,
			"0.012": 4.24175085104,
			"0.013": 1.98216545133,
			"0.014": 0.936355407324,
			"0.015": 1.20779927161,
			"0.016": 0.191450263887,
			"0.017": 0.0,
			"0.018": 0.0,
			"0.019": 0.0,
			"0.02": 0.0,
			"0.021": 0.0,
			"0.022": 0.0,
			"0.023": 0.0,
			"0.024": 0.0,
			"0.025": 0.0
		}
	}
}
