{
	 "smiles": "NS(=O)(=O)C1=CC=C(CCCl)C=C1", 
	 "Tm": 452.15, 
	 "num_atms": 23, 
	 "gaussian": { 
		 "optdone": 1, 
		 "sigma_profile": "yes", 
		 "theory": "DFT", 
		 "functional": "B3LYP", 
		 "basiset": "6-31G**", 
		 "properties": { 
			 "R2extent": 4747.1646, 
			 "electric_dipole_moment_norm": 7.2420381627, 
			 "electric_quadrupole_moment_norm": 18.5038761372, 
			 "total_energy": -1374.39649655, 
			 "HOMO_LUMO_gap": 0.22228, 
			 "cosmo_polarized_energy": -21.82, 
			 "cosmo_cavitation_energy": 30.11, 
			 "cosmo_dispersion_energy": -22.21, 
			 "cosmo_repulsion_energy": 1.74, 
			 "cosmo_total_nonelectrostatic_energy": 9.64, 
			 "SMD_solvation_energy": 4.27 
		},
		"coords": [
			{
				"x": -1.348462655,
				"y": 0.5179476054,
				"z": 3.953337145,
				"element": "N" 
			},
			{
				"x": -1.7789837214,
				"y": 1.5847677912,
				"z": 2.7252566998,
				"element": "S" 
			},
			{
				"x": -1.2446831579,
				"y": 2.8837221826,
				"z": 3.1303791617,
				"element": "O" 
			},
			{
				"x": -3.19958159,
				"y": 1.3450651669,
				"z": 2.4795083364,
				"element": "O" 
			},
			{
				"x": -0.8823347192,
				"y": 1.0709050033,
				"z": 1.2527650452,
				"element": "C" 
			},
			{
				"x": -1.4511177376,
				"y": 0.1295389337,
				"z": 0.3927756286,
				"element": "C" 
			},
			{
				"x": -0.7365112546,
				"y": -0.2867783439,
				"z": -0.7293771881,
				"element": "C" 
			},
			{
				"x": 0.5363294694,
				"y": 0.2309150562,
				"z": -1.0056318416,
				"element": "C" 
			},
			{
				"x": 1.3040602264,
				"y": -0.2012974577,
				"z": -2.2360298817,
				"element": "C" 
			},
			{
				"x": 1.1452195075,
				"y": 0.7280951455,
				"z": -3.4436556005,
				"element": "C" 
			},
			{
				"x": -0.5302374264,
				"y": 0.6852645078,
				"z": -4.1429717296,
				"element": "Cl" 
			},
			{
				"x": 1.0802069978,
				"y": 1.1837736145,
				"z": -0.1319698037,
				"element": "C" 
			},
			{
				"x": 0.3794779406,
				"y": 1.6104420867,
				"z": 0.9941425406,
				"element": "C" 
			},
			{
				"x": -0.3665468604,
				"y": 0.5789664996,
				"z": 4.2031620257,
				"element": "H" 
			},
			{
				"x": -1.6567832166,
				"y": -0.4327544974,
				"z": 3.7760471727,
				"element": "H" 
			},
			{
				"x": -2.4474189474,
				"y": -0.2509746894,
				"z": 0.5917498181,
				"element": "H" 
			},
			{
				"x": -1.177021966,
				"y": -1.0125488023,
				"z": -1.4061382532,
				"element": "H" 
			},
			{
				"x": 2.3774868944,
				"y": -0.2267009602,
				"z": -2.0059110453,
				"element": "H" 
			},
			{
				"x": 1.0181543736,
				"y": -1.21631131,
				"z": -2.5294177272,
				"element": "H" 
			},
			{
				"x": 1.8165387046,
				"y": 0.4314419218,
				"z": -4.2509320917,
				"element": "H" 
			},
			{
				"x": 1.3394237414,
				"y": 1.7685186806,
				"z": -3.177923086,
				"element": "H" 
			},
			{
				"x": 2.0640928648,
				"y": 1.5996895808,
				"z": -0.3353739109,
				"element": "H" 
			},
			{
				"x": 0.7908925322,
				"y": 2.3636122843,
				"z": 1.6577085856,
				"element": "H" 
			}
		],
		 "valence_orbital": [ 
			{
				"type": "occ",
				"energy": -0.3038,
				"method": "rhf"
			},
			{
				"type": "occ",
				"energy": -0.30241,
				"method": "rhf"
			},
			{
				"type": "occ",
				"energy": -0.30122,
				"method": "rhf"
			},
			{
				"type": "occ",
				"energy": -0.27513,
				"method": "rhf"
			},
			{
				"type": "occ",
				"energy": -0.26631,
				"method": "rhf"
			},
			{
				"type": "unocc",
				"energy": -0.04403,
				"method": "rhf"
			},
			{
				"type": "unocc",
				"energy": -0.02756,
				"method": "rhf"
			},
			{
				"type": "unocc",
				"energy": 0.01898,
				"method": "rhf"
			},
			{
				"type": "unocc",
				"energy": 0.04958,
				"method": "rhf"
			},
			{
				"type": "unocc",
				"energy": 0.06881,
				"method": "rhf"
			}
		],
		"cosmo_sigma_profile": { 
			"-0.025": 0.0,
			"-0.024": 0.0,
			"-0.023": 0.0,
			"-0.022": 0.0,
			"-0.021": 0.0,
			"-0.02": 0.0,
			"-0.019": 0.0,
			"-0.018": 0.0,
			"-0.017": 0.0,
			"-0.016": 0.178377412281,
			"-0.015": 1.99710162392,
			"-0.014": 2.90389599442,
			"-0.013": 1.71741538333,
			"-0.012": 3.42061193247,
			"-0.011": 3.35841246808,
			"-0.01": 2.14454170099,
			"-0.009": 1.38746104052,
			"-0.008": 2.07086415986,
			"-0.007": 11.0386403454,
			"-0.006": 20.039947076,
			"-0.005": 19.5108940249,
			"-0.004": 14.781593915,
			"-0.003": 12.2868055486,
			"-0.002": 10.4779512916,
			"-0.001": 9.80896865843,
			"0.0": 9.10129651618,
			"0.001": 11.9940198887,
			"0.002": 14.4425534659,
			"0.003": 15.1918985897,
			"0.004": 10.9109622088,
			"0.005": 9.1175580131,
			"0.006": 11.0075439413,
			"0.007": 8.56351387042,
			"0.008": 5.60610768872,
			"0.009": 3.67466093653,
			"0.01": 7.52707221953,
			"0.011": 10.5544283835,
			"0.012": 5.84799651766,
			"0.013": 0.24643679021,
			"0.014": 0.0,
			"0.015": 0.0,
			"0.016": 0.0,
			"0.017": 0.0,
			"0.018": 0.0,
			"0.019": 0.0,
			"0.02": 0.0,
			"0.021": 0.0,
			"0.022": 0.0,
			"0.023": 0.0,
			"0.024": 0.0,
			"0.025": 0.0
		}
	}
}
