{
	 "smiles": "CC1=NC2=C(O1)C=CC=C2", 
	 "Tm": 282.65, 
	 "num_atms": 17, 
	 "gaussian": { 
		 "optdone": 1, 
		 "sigma_profile": "yes", 
		 "theory": "DFT", 
		 "functional": "B3LYP", 
		 "basiset": "6-31G**", 
		 "properties": { 
			 "R2extent": 1849.5211, 
			 "electric_dipole_moment_norm": 1.18459630254, 
			 "electric_quadrupole_moment_norm": 6.33655590996, 
			 "total_energy": -439.051544665, 
			 "HOMO_LUMO_gap": 0.20998, 
			 "cosmo_polarized_energy": -6.42, 
			 "cosmo_cavitation_energy": 21.06, 
			 "cosmo_dispersion_energy": -16.09, 
			 "cosmo_repulsion_energy": 1.3, 
			 "cosmo_total_nonelectrostatic_energy": 6.26, 
			 "SMD_solvation_energy": 2.14 
		},
		"coords": [
			{
				"x": 0.6492313324,
				"y": 2.4810470615,
				"z": 1.691186611,
				"element": "C" 
			},
			{
				"x": -0.0698513996,
				"y": 1.596741717,
				"z": 0.7367413117,
				"element": "C" 
			},
			{
				"x": 0.4310475395,
				"y": 0.7284605575,
				"z": -0.0820183364,
				"element": "N" 
			},
			{
				"x": -0.6792771418,
				"y": 0.1842637488,
				"z": -0.734913135,
				"element": "C" 
			},
			{
				"x": -1.8377388618,
				"y": 0.7959029371,
				"z": -0.2372215687,
				"element": "C" 
			},
			{
				"x": -1.4446680685,
				"y": 1.7079373149,
				"z": 0.7129796186,
				"element": "O" 
			},
			{
				"x": -3.1198827586,
				"y": 0.4907791745,
				"z": -0.6680484254,
				"element": "C" 
			},
			{
				"x": -3.2074583931,
				"y": -0.4915685431,
				"z": -1.6585770518,
				"element": "C" 
			},
			{
				"x": -2.0606051546,
				"y": -1.12145251,
				"z": -2.1756541657,
				"element": "C" 
			},
			{
				"x": -0.7809582151,
				"y": -0.7959827319,
				"z": -1.7247271676,
				"element": "C" 
			},
			{
				"x": 0.4467185924,
				"y": 3.534827138,
				"z": 1.472857668,
				"element": "H" 
			},
			{
				"x": 1.720223695,
				"y": 2.2951437097,
				"z": 1.6104922679,
				"element": "H" 
			},
			{
				"x": 0.3243887975,
				"y": 2.2891313756,
				"z": 2.7191826179,
				"element": "H" 
			},
			{
				"x": -3.9965177372,
				"y": 0.9831494857,
				"z": -0.2619482907,
				"element": "H" 
			},
			{
				"x": -4.1848007703,
				"y": -0.7746576842,
				"z": -2.0374757096,
				"element": "H" 
			},
			{
				"x": -2.1781187263,
				"y": -1.8791510847,
				"z": -2.944576813,
				"element": "H" 
			},
			{
				"x": 0.1057672701,
				"y": -1.2793716663,
				"z": -2.1208794311,
				"element": "H" 
			}
		],
		 "valence_orbital": [ 
			{
				"type": "occ",
				"energy": -0.35245,
				"method": "rhf"
			},
			{
				"type": "occ",
				"energy": -0.32331,
				"method": "rhf"
			},
			{
				"type": "occ",
				"energy": -0.28566,
				"method": "rhf"
			},
			{
				"type": "occ",
				"energy": -0.24306,
				"method": "rhf"
			},
			{
				"type": "occ",
				"energy": -0.23209,
				"method": "rhf"
			},
			{
				"type": "unocc",
				"energy": -0.02211,
				"method": "rhf"
			},
			{
				"type": "unocc",
				"energy": 0.00956,
				"method": "rhf"
			},
			{
				"type": "unocc",
				"energy": 0.04314,
				"method": "rhf"
			},
			{
				"type": "unocc",
				"energy": 0.09391,
				"method": "rhf"
			},
			{
				"type": "unocc",
				"energy": 0.11263,
				"method": "rhf"
			}
		],
		"cosmo_sigma_profile": { 
			"-0.025": 0.0,
			"-0.024": 0.0,
			"-0.023": 0.0,
			"-0.022": 0.0,
			"-0.021": 0.0,
			"-0.02": 0.0,
			"-0.019": 0.0,
			"-0.018": 0.0,
			"-0.017": 0.0,
			"-0.016": 0.0,
			"-0.015": 0.0,
			"-0.014": 0.0,
			"-0.013": 0.0,
			"-0.012": 0.0,
			"-0.011": 0.0,
			"-0.01": 0.0,
			"-0.009": 0.0,
			"-0.008": 0.113168411854,
			"-0.007": 4.16409242223,
			"-0.006": 12.4681202707,
			"-0.005": 13.0573983741,
			"-0.004": 15.3423355829,
			"-0.003": 14.8287345804,
			"-0.002": 16.6054957238,
			"-0.001": 10.5726428032,
			"0.0": 8.88138140102,
			"0.001": 11.1783898674,
			"0.002": 11.6680560401,
			"0.003": 12.4101941061,
			"0.004": 12.0045362143,
			"0.005": 9.97350360601,
			"0.006": 3.78399915816,
			"0.007": 3.00401382549,
			"0.008": 1.66884419252,
			"0.009": 0.674498395577,
			"0.01": 1.31056544363,
			"0.011": 0.84685452248,
			"0.012": 1.06896395866,
			"0.013": 0.731218831475,
			"0.014": 1.42594288927,
			"0.015": 0.672567922467,
			"0.016": 0.636478861209,
			"0.017": 0.0313632378898,
			"0.018": 0.0,
			"0.019": 0.0,
			"0.02": 0.0,
			"0.021": 0.0,
			"0.022": 0.0,
			"0.023": 0.0,
			"0.024": 0.0,
			"0.025": 0.0
		}
	}
}
