{
	 "smiles": "O=C1N(C=NC2=C1C=CC=C2)C1=CC=CC=C1", 
	 "Tm": 412.15, 
	 "num_atms": 27, 
	 "gaussian": { 
		 "optdone": 1, 
		 "sigma_profile": "yes", 
		 "theory": "DFT", 
		 "functional": "B3LYP", 
		 "basiset": "6-31G**", 
		 "properties": { 
			 "R2extent": 4538.6328, 
			 "electric_dipole_moment_norm": 1.3615559702, 
			 "electric_quadrupole_moment_norm": 18.1385992792, 
			 "total_energy": -724.265862158, 
			 "HOMO_LUMO_gap": 0.18057, 
			 "cosmo_polarized_energy": -11.6, 
			 "cosmo_cavitation_energy": 31.33, 
			 "cosmo_dispersion_energy": -23.09, 
			 "cosmo_repulsion_energy": 1.74, 
			 "cosmo_total_nonelectrostatic_energy": 9.97, 
			 "SMD_solvation_energy": 4.47 
		},
		"coords": [
			{
				"x": -0.4041790934,
				"y": -1.9028496051,
				"z": 0.1117733845,
				"element": "O" 
			},
			{
				"x": 0.0621350513,
				"y": -0.9489059406,
				"z": -0.4932660899,
				"element": "C" 
			},
			{
				"x": 0.6910867527,
				"y": 0.1287795312,
				"z": 0.1898788453,
				"element": "N" 
			},
			{
				"x": 1.2432814097,
				"y": 1.1918746582,
				"z": -0.5066554351,
				"element": "C" 
			},
			{
				"x": 1.2374506831,
				"y": 1.3540691201,
				"z": -1.7846972262,
				"element": "N" 
			},
			{
				"x": 0.6173613788,
				"y": 0.368195891,
				"z": -2.5422235516,
				"element": "C" 
			},
			{
				"x": 0.0361419243,
				"y": -0.7765795003,
				"z": -1.9509074584,
				"element": "C" 
			},
			{
				"x": -0.5761690897,
				"y": -1.7547063481,
				"z": -2.7521025924,
				"element": "C" 
			},
			{
				"x": -0.6121751998,
				"y": -1.5979887039,
				"z": -4.1291103516,
				"element": "C" 
			},
			{
				"x": -0.0342560699,
				"y": -0.4605380427,
				"z": -4.7219729644,
				"element": "C" 
			},
			{
				"x": 0.5741016485,
				"y": 0.5113679719,
				"z": -3.9423037655,
				"element": "C" 
			},
			{
				"x": 0.7349961416,
				"y": 0.1430589164,
				"z": 1.6279144722,
				"element": "C" 
			},
			{
				"x": 1.2530638269,
				"y": -0.9482773006,
				"z": 2.3319992302,
				"element": "C" 
			},
			{
				"x": 1.3166881971,
				"y": -0.8972388075,
				"z": 3.7230681005,
				"element": "C" 
			},
			{
				"x": 0.874873072,
				"y": 0.2346616294,
				"z": 4.4128940922,
				"element": "C" 
			},
			{
				"x": 0.3557314538,
				"y": 1.3186127725,
				"z": 3.7051141158,
				"element": "C" 
			},
			{
				"x": 0.2759949596,
				"y": 1.2720292831,
				"z": 2.3124828826,
				"element": "C" 
			},
			{
				"x": 1.7300080801,
				"y": 1.9323037178,
				"z": 0.1233460241,
				"element": "H" 
			},
			{
				"x": -1.0119690035,
				"y": -2.6196201484,
				"z": -2.2633949949,
				"element": "H" 
			},
			{
				"x": -1.0850716204,
				"y": -2.351914641,
				"z": -4.7509980677,
				"element": "H" 
			},
			{
				"x": -0.0644518277,
				"y": -0.3429083322,
				"z": -5.8015069939,
				"element": "H" 
			},
			{
				"x": 1.0270297466,
				"y": 1.3947150438,
				"z": -4.3800771869,
				"element": "H" 
			},
			{
				"x": 1.5898566797,
				"y": -1.8250479515,
				"z": 1.7932740067,
				"element": "H" 
			},
			{
				"x": 1.717295152,
				"y": -1.7456641922,
				"z": 4.2696178686,
				"element": "H" 
			},
			{
				"x": 0.9303577894,
				"y": 0.267957225,
				"z": 5.4968192029,
				"element": "H" 
			},
			{
				"x": 0.0003603951,
				"y": 2.1984051913,
				"z": 4.2329956457,
				"element": "H" 
			},
			{
				"x": -0.1545424381,
				"y": 2.1008085624,
				"z": 1.7587388073,
				"element": "H" 
			}
		],
		 "valence_orbital": [ 
			{
				"type": "occ",
				"energy": -0.26839,
				"method": "rhf"
			},
			{
				"type": "occ",
				"energy": -0.26168,
				"method": "rhf"
			},
			{
				"type": "occ",
				"energy": -0.25924,
				"method": "rhf"
			},
			{
				"type": "occ",
				"energy": -0.25532,
				"method": "rhf"
			},
			{
				"type": "occ",
				"energy": -0.22777,
				"method": "rhf"
			},
			{
				"type": "unocc",
				"energy": -0.0472,
				"method": "rhf"
			},
			{
				"type": "unocc",
				"energy": -0.0374,
				"method": "rhf"
			},
			{
				"type": "unocc",
				"energy": -0.01308,
				"method": "rhf"
			},
			{
				"type": "unocc",
				"energy": -0.00942,
				"method": "rhf"
			},
			{
				"type": "unocc",
				"energy": 0.02716,
				"method": "rhf"
			}
		],
		"cosmo_sigma_profile": { 
			"-0.025": 0.0,
			"-0.024": 0.0,
			"-0.023": 0.0,
			"-0.022": 0.0,
			"-0.021": 0.0,
			"-0.02": 0.0,
			"-0.019": 0.0,
			"-0.018": 0.0,
			"-0.017": 0.0,
			"-0.016": 0.0,
			"-0.015": 0.0,
			"-0.014": 0.0,
			"-0.013": 0.0,
			"-0.012": 0.0,
			"-0.011": 0.0,
			"-0.01": 0.0460338366631,
			"-0.009": 1.4947864691,
			"-0.008": 2.35212231749,
			"-0.007": 8.18376877812,
			"-0.006": 18.6121185184,
			"-0.005": 22.5026699242,
			"-0.004": 23.8202306994,
			"-0.003": 17.18585045,
			"-0.002": 16.7418772279,
			"-0.001": 13.6649335991,
			"0.0": 14.1733317344,
			"0.001": 18.5996900529,
			"0.002": 19.8301725707,
			"0.003": 23.1041597851,
			"0.004": 18.1093564933,
			"0.005": 6.59737806027,
			"0.006": 3.08995509418,
			"0.007": 3.33140049194,
			"0.008": 3.08204823692,
			"0.009": 2.683012331,
			"0.01": 3.20242491535,
			"0.011": 2.97619514548,
			"0.012": 4.42940263081,
			"0.013": 3.39597376332,
			"0.014": 1.01881448999,
			"0.015": 0.565379932804,
			"0.016": 0.0,
			"0.017": 0.0,
			"0.018": 0.0,
			"0.019": 0.0,
			"0.02": 0.0,
			"0.021": 0.0,
			"0.022": 0.0,
			"0.023": 0.0,
			"0.024": 0.0,
			"0.025": 0.0
		}
	}
}
