{
	 "smiles": "COC(=O)C1=NC(=CC=C1)C(O)=O", 
	 "Tm": 423.15, 
	 "num_atms": 20, 
	 "gaussian": { 
		 "optdone": 1, 
		 "sigma_profile": "yes", 
		 "theory": "DFT", 
		 "functional": "B3LYP", 
		 "basiset": "6-31G**", 
		 "properties": { 
			 "R2extent": 3488.1205, 
			 "electric_dipole_moment_norm": 6.81269096393, 
			 "electric_quadrupole_moment_norm": 20.1796582949, 
			 "total_energy": -664.734841316, 
			 "HOMO_LUMO_gap": 0.19232, 
			 "cosmo_polarized_energy": -15.33, 
			 "cosmo_cavitation_energy": 25.87, 
			 "cosmo_dispersion_energy": -18.95, 
			 "cosmo_repulsion_energy": 1.51, 
			 "cosmo_total_nonelectrostatic_energy": 8.43, 
			 "SMD_solvation_energy": 6.88 
		},
		"coords": [
			{
				"x": -0.4375879852,
				"y": 2.6265866307,
				"z": -2.026351612,
				"element": "C" 
			},
			{
				"x": -0.7852000805,
				"y": 1.5350558718,
				"z": -1.1563995149,
				"element": "O" 
			},
			{
				"x": 0.0166939632,
				"y": 1.3828151714,
				"z": -0.0800024075,
				"element": "C" 
			},
			{
				"x": 0.9645908108,
				"y": 2.092287969,
				"z": 0.1662044604,
				"element": "O" 
			},
			{
				"x": -0.4232880415,
				"y": 0.2199124934,
				"z": 0.7697919768,
				"element": "C" 
			},
			{
				"x": 0.3187156905,
				"y": -0.0022178029,
				"z": 1.8614131333,
				"element": "N" 
			},
			{
				"x": -0.0127801914,
				"y": -1.017564032,
				"z": 2.6625260006,
				"element": "C" 
			},
			{
				"x": -1.096813216,
				"y": -1.8666808306,
				"z": 2.4248353268,
				"element": "C" 
			},
			{
				"x": -1.86688134,
				"y": -1.6335506513,
				"z": 1.2889283377,
				"element": "C" 
			},
			{
				"x": -1.5293332659,
				"y": -0.5745695621,
				"z": 0.4441752847,
				"element": "C" 
			},
			{
				"x": 0.8703783691,
				"y": -1.2062526738,
				"z": 3.8742209711,
				"element": "C" 
			},
			{
				"x": 1.8639955681,
				"y": -0.3128426001,
				"z": 3.9597449471,
				"element": "O" 
			},
			{
				"x": 0.6878771165,
				"y": -2.0852973315,
				"z": 4.6860673499,
				"element": "O" 
			},
			{
				"x": 0.5715676677,
				"y": 2.4922141171,
				"z": -2.4230029952,
				"element": "H" 
			},
			{
				"x": -1.1729745725,
				"y": 2.6074619417,
				"z": -2.8300217063,
				"element": "H" 
			},
			{
				"x": -0.48131683,
				"y": 3.5748310245,
				"z": -1.4853343205,
				"element": "H" 
			},
			{
				"x": -1.3028429471,
				"y": -2.6702840582,
				"z": 3.1222917545,
				"element": "H" 
			},
			{
				"x": -2.7197095431,
				"y": -2.2652289267,
				"z": 1.0599155624,
				"element": "H" 
			},
			{
				"x": -2.1020562581,
				"y": -0.3592392722,
				"z": -0.4491239246,
				"element": "H" 
			},
			{
				"x": 1.7794650854,
				"y": 0.2781625215,
				"z": 3.1811213757,
				"element": "H" 
			}
		],
		 "valence_orbital": [ 
			{
				"type": "occ",
				"energy": -0.31252,
				"method": "rhf"
			},
			{
				"type": "occ",
				"energy": -0.31014,
				"method": "rhf"
			},
			{
				"type": "occ",
				"energy": -0.29073,
				"method": "rhf"
			},
			{
				"type": "occ",
				"energy": -0.29006,
				"method": "rhf"
			},
			{
				"type": "occ",
				"energy": -0.27013,
				"method": "rhf"
			},
			{
				"type": "unocc",
				"energy": -0.07781,
				"method": "rhf"
			},
			{
				"type": "unocc",
				"energy": -0.07153,
				"method": "rhf"
			},
			{
				"type": "unocc",
				"energy": 0.01358,
				"method": "rhf"
			},
			{
				"type": "unocc",
				"energy": 0.06841,
				"method": "rhf"
			},
			{
				"type": "unocc",
				"energy": 0.08091,
				"method": "rhf"
			}
		],
		"cosmo_sigma_profile": { 
			"-0.025": 0.0,
			"-0.024": 0.0,
			"-0.023": 0.0,
			"-0.022": 0.0,
			"-0.021": 0.0,
			"-0.02": 0.0,
			"-0.019": 0.0,
			"-0.018": 0.0,
			"-0.017": 0.0,
			"-0.016": 0.0,
			"-0.015": 0.0,
			"-0.014": 0.0,
			"-0.013": 0.296516154968,
			"-0.012": 0.513553549085,
			"-0.011": 0.363070932197,
			"-0.01": 0.827385753738,
			"-0.009": 1.9803829086,
			"-0.008": 6.47594365802,
			"-0.007": 8.97028522566,
			"-0.006": 12.2849697677,
			"-0.005": 16.4071163614,
			"-0.004": 18.9816186572,
			"-0.003": 17.7695018793,
			"-0.002": 20.0014534184,
			"-0.001": 18.4637392825,
			"0.0": 12.2949813427,
			"0.001": 7.02015140056,
			"0.002": 5.56385267482,
			"0.003": 5.19619588489,
			"0.004": 6.02643452372,
			"0.005": 4.78062359026,
			"0.006": 3.51564822256,
			"0.007": 3.92795296327,
			"0.008": 4.74040751164,
			"0.009": 6.38650132261,
			"0.01": 7.85267323179,
			"0.011": 10.204440862,
			"0.012": 5.82695530977,
			"0.013": 1.10091973656,
			"0.014": 0.0,
			"0.015": 0.0,
			"0.016": 0.0,
			"0.017": 0.0,
			"0.018": 0.0,
			"0.019": 0.0,
			"0.02": 0.0,
			"0.021": 0.0,
			"0.022": 0.0,
			"0.023": 0.0,
			"0.024": 0.0,
			"0.025": 0.0
		}
	}
}
