{
	 "smiles": "CN(C)C(=O)C1=CC=C(C)C=C1", 
	 "Tm": 314.15, 
	 "num_atms": 25, 
	 "gaussian": { 
		 "optdone": 1, 
		 "sigma_profile": "yes", 
		 "theory": "DFT", 
		 "functional": "B3LYP", 
		 "basiset": "6-31G**", 
		 "properties": { 
			 "R2extent": 2928.3545, 
			 "electric_dipole_moment_norm": 3.54888624923, 
			 "electric_quadrupole_moment_norm": 17.0628523079, 
			 "total_energy": -518.891430182, 
			 "HOMO_LUMO_gap": 0.20581, 
			 "cosmo_polarized_energy": -10.29, 
			 "cosmo_cavitation_energy": 27.86, 
			 "cosmo_dispersion_energy": -20.13, 
			 "cosmo_repulsion_energy": 1.61, 
			 "cosmo_total_nonelectrostatic_energy": 9.34, 
			 "SMD_solvation_energy": 5.42 
		},
		"coords": [
			{
				"x": 3.2336188827,
				"y": 0.5773271478,
				"z": 0.135340052,
				"element": "C" 
			},
			{
				"x": 2.7447305787,
				"y": 0.8320659294,
				"z": 1.4833425004,
				"element": "N" 
			},
			{
				"x": 3.7826271783,
				"y": 1.0982432804,
				"z": 2.470601341,
				"element": "C" 
			},
			{
				"x": 1.4521995351,
				"y": 1.2013712408,
				"z": 1.7978239594,
				"element": "C" 
			},
			{
				"x": 1.18624206,
				"y": 1.7936546641,
				"z": 2.8424404277,
				"element": "O" 
			},
			{
				"x": 0.3428026883,
				"y": 0.8152014834,
				"z": 0.8570665053,
				"element": "C" 
			},
			{
				"x": 0.2479037251,
				"y": -0.4464513418,
				"z": 0.2556420851,
				"element": "C" 
			},
			{
				"x": -0.8630253742,
				"y": -0.7796289875,
				"z": -0.5196648526,
				"element": "C" 
			},
			{
				"x": -1.9025538671,
				"y": 0.1356756144,
				"z": -0.7256016335,
				"element": "C" 
			},
			{
				"x": -3.0868717316,
				"y": -0.2106248978,
				"z": -1.5960922271,
				"element": "C" 
			},
			{
				"x": -1.8077641497,
				"y": 1.3914929482,
				"z": -0.1064557281,
				"element": "C" 
			},
			{
				"x": -0.7117856808,
				"y": 1.7223551223,
				"z": 0.6837660919,
				"element": "C" 
			},
			{
				"x": 3.7424116114,
				"y": -0.3934622056,
				"z": 0.0761686718,
				"element": "H" 
			},
			{
				"x": 3.9555240259,
				"y": 1.3529935599,
				"z": -0.1559240942,
				"element": "H" 
			},
			{
				"x": 2.4158761291,
				"y": 0.5875915947,
				"z": -0.5821749627,
				"element": "H" 
			},
			{
				"x": 4.5109785818,
				"y": 0.2797015688,
				"z": 2.4645907984,
				"element": "H" 
			},
			{
				"x": 4.3141219134,
				"y": 2.0353998179,
				"z": 2.2527915921,
				"element": "H" 
			},
			{
				"x": 3.322863811,
				"y": 1.1821036412,
				"z": 3.4536592076,
				"element": "H" 
			},
			{
				"x": 1.0298872255,
				"y": -1.1829488501,
				"z": 0.4155627246,
				"element": "H" 
			},
			{
				"x": -0.9261955009,
				"y": -1.7693329238,
				"z": -0.9653153163,
				"element": "H" 
			},
			{
				"x": -2.9732197784,
				"y": 0.2089956668,
				"z": -2.6036339374,
				"element": "H" 
			},
			{
				"x": -3.202548112,
				"y": -1.2928880339,
				"z": -1.7038726184,
				"element": "H" 
			},
			{
				"x": -4.0176601469,
				"y": 0.1911458622,
				"z": -1.1833409737,
				"element": "H" 
			},
			{
				"x": -2.611002367,
				"y": 2.1127436118,
				"z": -0.2369240404,
				"element": "H" 
			},
			{
				"x": -0.6619612378,
				"y": 2.6812744865,
				"z": 1.1892044272,
				"element": "H" 
			}
		],
		 "valence_orbital": [ 
			{
				"type": "occ",
				"energy": -0.33717,
				"method": "rhf"
			},
			{
				"type": "occ",
				"energy": -0.25605,
				"method": "rhf"
			},
			{
				"type": "occ",
				"energy": -0.25093,
				"method": "rhf"
			},
			{
				"type": "occ",
				"energy": -0.23695,
				"method": "rhf"
			},
			{
				"type": "occ",
				"energy": -0.22907,
				"method": "rhf"
			},
			{
				"type": "unocc",
				"energy": -0.02326,
				"method": "rhf"
			},
			{
				"type": "unocc",
				"energy": -0.00344,
				"method": "rhf"
			},
			{
				"type": "unocc",
				"energy": 0.05428,
				"method": "rhf"
			},
			{
				"type": "unocc",
				"energy": 0.08934,
				"method": "rhf"
			},
			{
				"type": "unocc",
				"energy": 0.1019,
				"method": "rhf"
			}
		],
		"cosmo_sigma_profile": { 
			"-0.025": 0.0,
			"-0.024": 0.0,
			"-0.023": 0.0,
			"-0.022": 0.0,
			"-0.021": 0.0,
			"-0.02": 0.0,
			"-0.019": 0.0,
			"-0.018": 0.0,
			"-0.017": 0.0,
			"-0.016": 0.0,
			"-0.015": 0.0,
			"-0.014": 0.0,
			"-0.013": 0.0,
			"-0.012": 0.0,
			"-0.011": 0.0,
			"-0.01": 0.0,
			"-0.009": 0.0,
			"-0.008": 0.0,
			"-0.007": 0.0196945025384,
			"-0.006": 2.47226257102,
			"-0.005": 14.7779800151,
			"-0.004": 30.9142589361,
			"-0.003": 26.9486087525,
			"-0.002": 31.5511129297,
			"-0.001": 24.9161063277,
			"0.0": 17.1206825113,
			"0.001": 11.59532363,
			"0.002": 9.32583926279,
			"0.003": 8.83856574691,
			"0.004": 9.44551198869,
			"0.005": 10.5523997072,
			"0.006": 2.65214700477,
			"0.007": 1.56661787585,
			"0.008": 1.39033758137,
			"0.009": 2.11188481627,
			"0.01": 1.72194238264,
			"0.011": 1.58220485335,
			"0.012": 1.76528308433,
			"0.013": 2.38567759453,
			"0.014": 5.1258918051,
			"0.015": 1.20789592789,
			"0.016": 0.0288461044246,
			"0.017": 0.0,
			"0.018": 0.0,
			"0.019": 0.0,
			"0.02": 0.0,
			"0.021": 0.0,
			"0.022": 0.0,
			"0.023": 0.0,
			"0.024": 0.0,
			"0.025": 0.0
		}
	}
}
