{
	 "smiles": "OC(=O)COC1=CC=C(OCC2=CC=CC=C2)C=C1", 
	 "Tm": 412.65, 
	 "num_atms": 33, 
	 "gaussian": { 
		 "optdone": 1, 
		 "sigma_profile": "yes", 
		 "theory": "DFT", 
		 "functional": "B3LYP", 
		 "basiset": "6-31G**", 
		 "properties": { 
			 "R2extent": 6895.4914, 
			 "electric_dipole_moment_norm": 3.40322846868, 
			 "electric_quadrupole_moment_norm": 25.0012518609, 
			 "total_energy": -880.913896452, 
			 "HOMO_LUMO_gap": 0.19826, 
			 "cosmo_polarized_energy": -15.58, 
			 "cosmo_cavitation_energy": 37.6, 
			 "cosmo_dispersion_energy": -26.63, 
			 "cosmo_repulsion_energy": 2.08, 
			 "cosmo_total_nonelectrostatic_energy": 13.06, 
			 "SMD_solvation_energy": 7.85 
		},
		"coords": [
			{
				"x": 1.2976300799,
				"y": 1.0419718304,
				"z": -4.2071756382,
				"element": "O" 
			},
			{
				"x": 2.4731551346,
				"y": 0.5349046209,
				"z": -3.7932645048,
				"element": "C" 
			},
			{
				"x": 2.9948429658,
				"y": -0.4215678005,
				"z": -4.3097909876,
				"element": "O" 
			},
			{
				"x": 3.126497434,
				"y": 1.3095786239,
				"z": -2.6421176143,
				"element": "C" 
			},
			{
				"x": 2.2156609056,
				"y": 2.1760951636,
				"z": -1.9766025732,
				"element": "O" 
			},
			{
				"x": 1.4773504332,
				"y": 1.6588811383,
				"z": -0.9182845839,
				"element": "C" 
			},
			{
				"x": 1.276714125,
				"y": 0.2997157277,
				"z": -0.6873140252,
				"element": "C" 
			},
			{
				"x": 0.4970057526,
				"y": -0.1184793194,
				"z": 0.3991834999,
				"element": "C" 
			},
			{
				"x": -0.0819334213,
				"y": 0.8241104024,
				"z": 1.2513659884,
				"element": "C" 
			},
			{
				"x": -0.8508968896,
				"y": 0.5315715361,
				"z": 2.3473519573,
				"element": "O" 
			},
			{
				"x": -0.9715524524,
				"y": -0.8254771151,
				"z": 2.7682510002,
				"element": "C" 
			},
			{
				"x": -1.9480879925,
				"y": -1.6489684656,
				"z": 1.949695651,
				"element": "C" 
			},
			{
				"x": -3.0749585227,
				"y": -1.0552651495,
				"z": 1.3693400852,
				"element": "C" 
			},
			{
				"x": -3.9945318198,
				"y": -1.8302887414,
				"z": 0.6625416241,
				"element": "C" 
			},
			{
				"x": -3.8031761534,
				"y": -3.2079770746,
				"z": 0.5347685805,
				"element": "C" 
			},
			{
				"x": -2.6832189581,
				"y": -3.8067520892,
				"z": 1.1136766176,
				"element": "C" 
			},
			{
				"x": -1.7588696818,
				"y": -3.0291368393,
				"z": 1.8135742365,
				"element": "C" 
			},
			{
				"x": 0.1173621611,
				"y": 2.1915301891,
				"z": 1.0038780453,
				"element": "C" 
			},
			{
				"x": 0.8916351698,
				"y": 2.605725537,
				"z": -0.0696362043,
				"element": "C" 
			},
			{
				"x": 1.0820760216,
				"y": 1.7950870721,
				"z": -3.6277728809,
				"element": "H" 
			},
			{
				"x": 3.9026097531,
				"y": 1.9523744195,
				"z": -3.0705436714,
				"element": "H" 
			},
			{
				"x": 3.6055585961,
				"y": 0.6038082463,
				"z": -1.9579556117,
				"element": "H" 
			},
			{
				"x": 1.6973834885,
				"y": -0.4539670732,
				"z": -1.3438190474,
				"element": "H" 
			},
			{
				"x": 0.330768483,
				"y": -1.1785708204,
				"z": 0.5434063867,
				"element": "H" 
			},
			{
				"x": -1.3227492741,
				"y": -0.7497227643,
				"z": 3.8033163724,
				"element": "H" 
			},
			{
				"x": 0.0149945671,
				"y": -1.3078326658,
				"z": 2.7921143086,
				"element": "H" 
			},
			{
				"x": -3.2192876916,
				"y": 0.0162055004,
				"z": 1.4672207409,
				"element": "H" 
			},
			{
				"x": -4.8622744797,
				"y": -1.3580377002,
				"z": 0.2106901816,
				"element": "H" 
			},
			{
				"x": -4.5199163485,
				"y": -3.8098860084,
				"z": -0.0162499783,
				"element": "H" 
			},
			{
				"x": -2.5233014555,
				"y": -4.8765293902,
				"z": 1.0136569443,
				"element": "H" 
			},
			{
				"x": -0.8834242548,
				"y": -3.499719378,
				"z": 2.2562872799,
				"element": "H" 
			},
			{
				"x": -0.3360699991,
				"y": 2.9126207726,
				"z": 1.6758611443,
				"element": "H" 
			},
			{
				"x": 1.0611043236,
				"y": 3.659997615,
				"z": -0.2625533234,
				"element": "H" 
			}
		],
		 "valence_orbital": [ 
			{
				"type": "occ",
				"energy": -0.2696,
				"method": "rhf"
			},
			{
				"type": "occ",
				"energy": -0.26281,
				"method": "rhf"
			},
			{
				"type": "occ",
				"energy": -0.25571,
				"method": "rhf"
			},
			{
				"type": "occ",
				"energy": -0.24957,
				"method": "rhf"
			},
			{
				"type": "occ",
				"energy": -0.21569,
				"method": "rhf"
			},
			{
				"type": "unocc",
				"energy": -0.01743,
				"method": "rhf"
			},
			{
				"type": "unocc",
				"energy": -0.00891,
				"method": "rhf"
			},
			{
				"type": "unocc",
				"energy": -0.00689,
				"method": "rhf"
			},
			{
				"type": "unocc",
				"energy": 0.00591,
				"method": "rhf"
			},
			{
				"type": "unocc",
				"energy": 0.01161,
				"method": "rhf"
			}
		],
		"cosmo_sigma_profile": { 
			"-0.025": 0.0,
			"-0.024": 0.0,
			"-0.023": 0.0,
			"-0.022": 0.0,
			"-0.021": 0.0,
			"-0.02": 0.0,
			"-0.019": 0.0,
			"-0.018": 0.0,
			"-0.017": 0.0,
			"-0.016": 0.0309962867743,
			"-0.015": 0.678285537357,
			"-0.014": 0.700513092955,
			"-0.013": 0.287058609967,
			"-0.012": 0.499246637103,
			"-0.011": 0.866966729164,
			"-0.01": 1.7227677823,
			"-0.009": 4.41173700885,
			"-0.008": 5.96495155986,
			"-0.007": 8.13818445446,
			"-0.006": 22.1553660027,
			"-0.005": 25.1684085281,
			"-0.004": 23.1961790253,
			"-0.003": 21.4655531514,
			"-0.002": 15.930460209,
			"-0.001": 15.5756955999,
			"0.0": 15.8981882656,
			"0.001": 15.8032451938,
			"0.002": 17.3366464519,
			"0.003": 21.2209880639,
			"0.004": 23.311154183,
			"0.005": 19.0573844049,
			"0.006": 9.866727989,
			"0.007": 3.68065475205,
			"0.008": 5.63064109462,
			"0.009": 4.78121619163,
			"0.01": 5.90611073076,
			"0.011": 5.11493741406,
			"0.012": 4.80272564185,
			"0.013": 0.952721964617,
			"0.014": 0.0,
			"0.015": 0.0,
			"0.016": 0.0,
			"0.017": 0.0,
			"0.018": 0.0,
			"0.019": 0.0,
			"0.02": 0.0,
			"0.021": 0.0,
			"0.022": 0.0,
			"0.023": 0.0,
			"0.024": 0.0,
			"0.025": 0.0
		}
	}
}
