{
	 "smiles": "IC1=CC=NC=C1", 
	 "Tm": 371.15, 
	 "num_atms": 11, 
	 "gaussian": { 
		 "optdone": 1, 
		 "sigma_profile": "no", 
		 "theory": "DFT", 
		 "functional": "B3LYP", 
		 "basiset": "6-31G**", 
		 "properties": { 
			 "R2extent": 748.3606, 
			 "electric_dipole_moment_norm": 0.683240535975, 
			 "electric_quadrupole_moment_norm": 6.03950193807, 
			 "total_energy": -259.069250783, 
			 "HOMO_LUMO_gap": 0.21183, 
			 "cosmo_polarized_energy": -98866.99, 
			 "cosmo_cavitation_energy": 18.31, 
			 "cosmo_dispersion_energy": -15.25, 
			 "cosmo_repulsion_energy": 1.23, 
			 "cosmo_total_nonelectrostatic_energy": 4.3, 
			 "SMD_solvation_energy": 1.01 
		},
		"coords": [
			{
				"x": 1.0512304226,
				"y": -1.7885037093,
				"z": -1.9491037609,
				"element": "I" 
			},
			{
				"x": 0.3769822344,
				"y": -0.3049497917,
				"z": -0.5966896611,
				"element": "C" 
			},
			{
				"x": 0.5594268698,
				"y": -0.4699596397,
				"z": 0.7751902509,
				"element": "C" 
			},
			{
				"x": 0.0932831286,
				"y": 0.5432086134,
				"z": 1.617627274,
				"element": "C" 
			},
			{
				"x": -0.5139380244,
				"y": 1.6555581312,
				"z": 1.1903895619,
				"element": "N" 
			},
			{
				"x": -0.6755933295,
				"y": 1.7873922654,
				"z": -0.1306047332,
				"element": "C" 
			},
			{
				"x": -0.2527115559,
				"y": 0.844246647,
				"z": -1.0714347838,
				"element": "C" 
			},
			{
				"x": 1.0439755188,
				"y": -1.3480956634,
				"z": 1.1856575803,
				"element": "H" 
			},
			{
				"x": 0.2201166872,
				"y": 0.4452621741,
				"z": 2.6943960982,
				"element": "H" 
			},
			{
				"x": -1.1708558146,
				"y": 2.6961081918,
				"z": -0.4683367468,
				"element": "H" 
			},
			{
				"x": -0.414216137,
				"y": 1.0115327812,
				"z": -2.1298910795,
				"element": "H" 
			}
		],
		 "valence_orbital": [ 
			{
				"type": "occ",
				"energy": -0.32731,
				"method": "rhf"
			},
			{
				"type": "occ",
				"energy": -0.27892,
				"method": "rhf"
			},
			{
				"type": "occ",
				"energy": -0.27699,
				"method": "rhf"
			},
			{
				"type": "occ",
				"energy": -0.26594,
				"method": "rhf"
			},
			{
				"type": "occ",
				"energy": -0.26143,
				"method": "rhf"
			},
			{
				"type": "unocc",
				"energy": -0.0496,
				"method": "rhf"
			},
			{
				"type": "unocc",
				"energy": -0.04097,
				"method": "rhf"
			},
			{
				"type": "unocc",
				"energy": -0.02602,
				"method": "rhf"
			},
			{
				"type": "unocc",
				"energy": 0.03775,
				"method": "rhf"
			},
			{
				"type": "unocc",
				"energy": 0.04535,
				"method": "rhf"
			}
		],
		"cosmo_sigma_profile": { 
			"0.0": 0.0,
			"0.0": 0.0,
			"0.0": 0.0,
			"0.0": 0.0,
			"0.0": 0.0,
			"0.0": 0.0,
			"0.0": 0.0,
			"0.0": 0.0,
			"0.0": 0.0,
			"0.0": 0.0,
			"0.0": 0.0,
			"0.0": 0.0,
			"0.0": 0.0,
			"0.0": 0.0,
			"0.0": 0.0,
			"0.0": 0.0,
			"0.0": 0.0,
			"0.0": 0.0,
			"0.0": 0.0,
			"0.0": 0.0,
			"0.0": 0.0,
			"0.0": 0.0,
			"0.0": 0.0,
			"0.0": 0.0,
			"0.0": 0.0,
			"0.0": 0.0,
			"0.0": 0.0,
			"0.0": 0.0,
			"0.0": 0.0,
			"0.0": 0.0,
			"0.0": 0.0,
			"0.0": 0.0,
			"0.0": 0.0,
			"0.0": 0.0,
			"0.0": 0.0,
			"0.0": 0.0,
			"0.0": 0.0,
			"0.0": 0.0,
			"0.0": 0.0,
			"0.0": 0.0,
			"0.0": 0.0,
			"0.0": 0.0,
			"0.0": 0.0,
			"0.0": 0.0,
			"0.0": 0.0,
			"0.0": 0.0,
			"0.0": 0.0,
			"0.0": 0.0,
			"0.0": 0.0,
			"0.0": 0.0,
			"0.0": 0.0
		}
	}
}
