{
	 "smiles": "COC1=CC(=O)OC(C1)C=CC1=CC=CC=C1", 
	 "Tm": 379.15, 
	 "num_atms": 31, 
	 "gaussian": { 
		 "optdone": 1, 
		 "sigma_profile": "yes", 
		 "theory": "DFT", 
		 "functional": "B3LYP", 
		 "basiset": "6-31G**", 
		 "properties": { 
			 "R2extent": 6735.5956, 
			 "electric_dipole_moment_norm": 7.04122655792, 
			 "electric_quadrupole_moment_norm": 29.8123038434, 
			 "total_energy": -767.560955565, 
			 "HOMO_LUMO_gap": 0.18663, 
			 "cosmo_polarized_energy": -19.27, 
			 "cosmo_cavitation_energy": 35.23, 
			 "cosmo_dispersion_energy": -25.46, 
			 "cosmo_repulsion_energy": 1.97, 
			 "cosmo_total_nonelectrostatic_energy": 11.75, 
			 "SMD_solvation_energy": 7.58 
		},
		"coords": [
			{
				"x": 3.6043053508,
				"y": -0.3104881614,
				"z": 0.7893043621,
				"element": "C" 
			},
			{
				"x": 3.0252965634,
				"y": -0.9293056166,
				"z": 1.9355559752,
				"element": "O" 
			},
			{
				"x": 1.680771258,
				"y": -1.0021760015,
				"z": 2.0714589203,
				"element": "C" 
			},
			{
				"x": 1.1769791229,
				"y": -1.635395919,
				"z": 3.152107299,
				"element": "C" 
			},
			{
				"x": -0.2536813271,
				"y": -1.6111660605,
				"z": 3.4651193166,
				"element": "C" 
			},
			{
				"x": -0.7262555698,
				"y": -1.9650637376,
				"z": 4.5226841444,
				"element": "O" 
			},
			{
				"x": -1.0943750489,
				"y": -1.097053077,
				"z": 2.502739385,
				"element": "O" 
			},
			{
				"x": -0.6092442074,
				"y": -1.041162029,
				"z": 1.1452249661,
				"element": "C" 
			},
			{
				"x": 0.7569916587,
				"y": -0.3580345929,
				"z": 1.0708206623,
				"element": "C" 
			},
			{
				"x": -1.7065614829,
				"y": -0.4055878699,
				"z": 0.339350522,
				"element": "C" 
			},
			{
				"x": -1.5532836438,
				"y": 0.5199969373,
				"z": -0.6176665065,
				"element": "C" 
			},
			{
				"x": -2.6097032255,
				"y": 1.1296839904,
				"z": -1.4413168139,
				"element": "C" 
			},
			{
				"x": -3.9762713264,
				"y": 0.8253107512,
				"z": -1.2959973158,
				"element": "C" 
			},
			{
				"x": -4.931803637,
				"y": 1.4352710263,
				"z": -2.1029715129,
				"element": "C" 
			},
			{
				"x": -4.5495663594,
				"y": 2.3640407405,
				"z": -3.076109702,
				"element": "C" 
			},
			{
				"x": -3.1994507023,
				"y": 2.6777062812,
				"z": -3.2328691314,
				"element": "C" 
			},
			{
				"x": -2.2430770175,
				"y": 2.0665582107,
				"z": -2.4231242422,
				"element": "C" 
			},
			{
				"x": 3.2682927238,
				"y": 0.7249293285,
				"z": 0.6675159592,
				"element": "H" 
			},
			{
				"x": 3.3949928875,
				"y": -0.8741280176,
				"z": -0.1275156255,
				"element": "H" 
			},
			{
				"x": 4.6800943114,
				"y": -0.3156609623,
				"z": 0.9682434374,
				"element": "H" 
			},
			{
				"x": 1.8289347269,
				"y": -2.0844061893,
				"z": 3.8908156702,
				"element": "H" 
			},
			{
				"x": -0.4776921189,
				"y": -2.0823667392,
				"z": 0.8061968311,
				"element": "H" 
			},
			{
				"x": 0.6602210541,
				"y": 0.7162146061,
				"z": 1.2786986004,
				"element": "H" 
			},
			{
				"x": 1.1453044227,
				"y": -0.4584843114,
				"z": 0.0530479904,
				"element": "H" 
			},
			{
				"x": -2.6920553974,
				"y": -0.7899994427,
				"z": 0.5913569974,
				"element": "H" 
			},
			{
				"x": -0.551165384,
				"y": 0.8828891322,
				"z": -0.842508263,
				"element": "H" 
			},
			{
				"x": -4.295926151,
				"y": 0.1094416355,
				"z": -0.5452157613,
				"element": "H" 
			},
			{
				"x": -5.9811832178,
				"y": 1.1865918183,
				"z": -1.9725803296,
				"element": "H" 
			},
			{
				"x": -5.2987834278,
				"y": 2.8376162953,
				"z": -3.703669392,
				"element": "H" 
			},
			{
				"x": -2.8896008193,
				"y": 3.3982457003,
				"z": -3.9844017206,
				"element": "H" 
			},
			{
				"x": -1.192304016,
				"y": 2.3163822741,
				"z": -2.5498947221,
				"element": "H" 
			}
		],
		 "valence_orbital": [ 
			{
				"type": "occ",
				"energy": -0.28335,
				"method": "rhf"
			},
			{
				"type": "occ",
				"energy": -0.257,
				"method": "rhf"
			},
			{
				"type": "occ",
				"energy": -0.25578,
				"method": "rhf"
			},
			{
				"type": "occ",
				"energy": -0.23908,
				"method": "rhf"
			},
			{
				"type": "occ",
				"energy": -0.22873,
				"method": "rhf"
			},
			{
				"type": "unocc",
				"energy": -0.0421,
				"method": "rhf"
			},
			{
				"type": "unocc",
				"energy": -0.02855,
				"method": "rhf"
			},
			{
				"type": "unocc",
				"energy": -0.00622,
				"method": "rhf"
			},
			{
				"type": "unocc",
				"energy": 0.04711,
				"method": "rhf"
			},
			{
				"type": "unocc",
				"energy": 0.06751,
				"method": "rhf"
			}
		],
		"cosmo_sigma_profile": { 
			"-0.025": 0.0,
			"-0.024": 0.0,
			"-0.023": 0.0,
			"-0.022": 0.0,
			"-0.021": 0.0,
			"-0.02": 0.0,
			"-0.019": 0.0,
			"-0.018": 0.0,
			"-0.017": 0.0,
			"-0.016": 0.0,
			"-0.015": 0.0,
			"-0.014": 0.0,
			"-0.013": 0.0,
			"-0.012": 0.0,
			"-0.011": 0.0,
			"-0.01": 0.0,
			"-0.009": 0.29682909019,
			"-0.008": 3.65174582693,
			"-0.007": 14.7362522161,
			"-0.006": 28.4031052394,
			"-0.005": 26.7209317678,
			"-0.004": 25.14513453,
			"-0.003": 20.16443331,
			"-0.002": 14.4432866405,
			"-0.001": 13.0112457185,
			"0.0": 12.9483397082,
			"0.001": 14.1501868151,
			"0.002": 14.2016672676,
			"0.003": 17.3646309271,
			"0.004": 19.7176415309,
			"0.005": 15.6772367956,
			"0.006": 8.02141058811,
			"0.007": 4.71909781136,
			"0.008": 3.08059479791,
			"0.009": 3.49898160385,
			"0.01": 2.87388937558,
			"0.011": 3.03317605161,
			"0.012": 5.15155850107,
			"0.013": 6.35902505528,
			"0.014": 2.75399962843,
			"0.015": 0.276279584006,
			"0.016": 0.0,
			"0.017": 0.0,
			"0.018": 0.0,
			"0.019": 0.0,
			"0.02": 0.0,
			"0.021": 0.0,
			"0.022": 0.0,
			"0.023": 0.0,
			"0.024": 0.0,
			"0.025": 0.0
		}
	}
}
