{
	 "smiles": "CCC(O)C(CC(C)N(C)C)(C1=CC=CC=C1)C1=CC=CC=C1", 
	 "Tm": 400.15, 
	 "num_atms": 52, 
	 "gaussian": { 
		 "optdone": 1, 
		 "sigma_profile": "yes", 
		 "theory": "DFT", 
		 "functional": "B3LYP", 
		 "basiset": "6-31G**", 
		 "properties": { 
			 "R2extent": 7859.0591, 
			 "electric_dipole_moment_norm": 1.73291482191, 
			 "electric_quadrupole_moment_norm": 9.17998076305, 
			 "total_energy": -947.671051104, 
			 "HOMO_LUMO_gap": 0.18368, 
			 "cosmo_polarized_energy": -10.4, 
			 "cosmo_cavitation_energy": 48.49, 
			 "cosmo_dispersion_energy": -31.75, 
			 "cosmo_repulsion_energy": 2.44, 
			 "cosmo_total_nonelectrostatic_energy": 19.19, 
			 "SMD_solvation_energy": 6.36 
		},
		"coords": [
			{
				"x": 0.6468487993,
				"y": -3.6868298773,
				"z": 2.0343717774,
				"element": "C" 
			},
			{
				"x": 1.3568737257,
				"y": -2.3838840357,
				"z": 1.6498539229,
				"element": "C" 
			},
			{
				"x": 0.4739232906,
				"y": -1.4881208475,
				"z": 0.7621468033,
				"element": "C" 
			},
			{
				"x": 0.2114151767,
				"y": -2.1522941247,
				"z": -0.4720325433,
				"element": "O" 
			},
			{
				"x": 1.003809537,
				"y": -0.0189543661,
				"z": 0.4982997508,
				"element": "C" 
			},
			{
				"x": -0.0675219477,
				"y": 0.7130266584,
				"z": -0.389899689,
				"element": "C" 
			},
			{
				"x": -1.4057611769,
				"y": 1.1047671318,
				"z": 0.2953615299,
				"element": "C" 
			},
			{
				"x": -1.4676902267,
				"y": 2.6094270467,
				"z": 0.6304476117,
				"element": "C" 
			},
			{
				"x": -2.5446851498,
				"y": 0.6128547284,
				"z": -0.5100046377,
				"element": "N" 
			},
			{
				"x": -2.7382805254,
				"y": 1.2921592103,
				"z": -1.7836227115,
				"element": "C" 
			},
			{
				"x": -3.7900447002,
				"y": 0.5238025788,
				"z": 0.2350853866,
				"element": "C" 
			},
			{
				"x": 2.3360885515,
				"y": -0.1512452822,
				"z": -0.2753081616,
				"element": "C" 
			},
			{
				"x": 2.3782210677,
				"y": -0.1914624191,
				"z": -1.6795715219,
				"element": "C" 
			},
			{
				"x": 3.5790633251,
				"y": -0.3932977014,
				"z": -2.3679177027,
				"element": "C" 
			},
			{
				"x": 4.772178845,
				"y": -0.5650916279,
				"z": -1.6701273883,
				"element": "C" 
			},
			{
				"x": 4.7515811993,
				"y": -0.5329992294,
				"z": -0.2741613545,
				"element": "C" 
			},
			{
				"x": 3.5531083425,
				"y": -0.3317217819,
				"z": 0.4085997235,
				"element": "C" 
			},
			{
				"x": 1.1941291268,
				"y": 0.8008455394,
				"z": 1.7889519992,
				"element": "C" 
			},
			{
				"x": 1.9552645641,
				"y": 1.9834525436,
				"z": 1.7509124429,
				"element": "C" 
			},
			{
				"x": 2.0824919287,
				"y": 2.8070946785,
				"z": 2.8680668352,
				"element": "C" 
			},
			{
				"x": 1.4441828691,
				"y": 2.4741609189,
				"z": 4.064963444,
				"element": "C" 
			},
			{
				"x": 0.6771312758,
				"y": 1.3127497827,
				"z": 4.1217370178,
				"element": "C" 
			},
			{
				"x": 0.5532091699,
				"y": 0.4897447749,
				"z": 2.9981582795,
				"element": "C" 
			},
			{
				"x": -0.2312046419,
				"y": -3.4913353686,
				"z": 2.6613874236,
				"element": "H" 
			},
			{
				"x": 1.3135779299,
				"y": -4.3500881737,
				"z": 2.5946717374,
				"element": "H" 
			},
			{
				"x": 0.3041256498,
				"y": -4.2146961969,
				"z": 1.1404811861,
				"element": "H" 
			},
			{
				"x": 1.6675874589,
				"y": -1.8474400426,
				"z": 2.5517083639,
				"element": "H" 
			},
			{
				"x": 2.2784879575,
				"y": -2.6157857346,
				"z": 1.1021744696,
				"element": "H" 
			},
			{
				"x": -0.5154409877,
				"y": -1.4012009714,
				"z": 1.2246565375,
				"element": "H" 
			},
			{
				"x": 1.0608835296,
				"y": -2.2551048192,
				"z": -0.9262465947,
				"element": "H" 
			},
			{
				"x": -0.3185912229,
				"y": 0.0314147041,
				"z": -1.2039046073,
				"element": "H" 
			},
			{
				"x": 0.4043457383,
				"y": 1.6028533213,
				"z": -0.8214880168,
				"element": "H" 
			},
			{
				"x": -1.4860260351,
				"y": 0.5625797046,
				"z": 1.2441203492,
				"element": "H" 
			},
			{
				"x": -0.6683676686,
				"y": 2.8840035597,
				"z": 1.3229803818,
				"element": "H" 
			},
			{
				"x": -2.4214032702,
				"y": 2.8758697884,
				"z": 1.0979719529,
				"element": "H" 
			},
			{
				"x": -1.3509200905,
				"y": 3.2224724176,
				"z": -0.2699886693,
				"element": "H" 
			},
			{
				"x": -1.7994861343,
				"y": 1.3258838714,
				"z": -2.3440384779,
				"element": "H" 
			},
			{
				"x": -3.4616435529,
				"y": 0.7303298627,
				"z": -2.3851746458,
				"element": "H" 
			},
			{
				"x": -3.1164242984,
				"y": 2.3275692962,
				"z": -1.6927705979,
				"element": "H" 
			},
			{
				"x": -3.6341297899,
				"y": -0.0513942155,
				"z": 1.154006315,
				"element": "H" 
			},
			{
				"x": -4.2287539297,
				"y": 1.5006500834,
				"z": 0.5162900155,
				"element": "H" 
			},
			{
				"x": -4.5360418532,
				"y": -0.0058005178,
				"z": -0.3682463999,
				"element": "H" 
			},
			{
				"x": 1.4712862634,
				"y": -0.0513272557,
				"z": -2.255378385,
				"element": "H" 
			},
			{
				"x": 3.5738710753,
				"y": -0.4121062126,
				"z": -3.4542928566,
				"element": "H" 
			},
			{
				"x": 5.7056027474,
				"y": -0.7193561282,
				"z": -2.20365016,
				"element": "H" 
			},
			{
				"x": 5.6720385221,
				"y": -0.6638367481,
				"z": 0.2881943873,
				"element": "H" 
			},
			{
				"x": 3.5640513532,
				"y": -0.3020114081,
				"z": 1.492701568,
				"element": "H" 
			},
			{
				"x": 2.4582532104,
				"y": 2.2613548692,
				"z": 0.829982744,
				"element": "H" 
			},
			{
				"x": 2.6807099911,
				"y": 3.7117282366,
				"z": 2.8016761135,
				"element": "H" 
			},
			{
				"x": 1.5429760558,
				"y": 3.1125568756,
				"z": 4.9380830963,
				"element": "H" 
			},
			{
				"x": 0.1689037221,
				"y": 1.0383495579,
				"z": 5.0420028987,
				"element": "H" 
			},
			{
				"x": -0.0584047977,
				"y": -0.4014166548,
				"z": 3.0827790565,
				"element": "H" 
			}
		],
		 "valence_orbital": [ 
			{
				"type": "occ",
				"energy": -0.25353,
				"method": "rhf"
			},
			{
				"type": "occ",
				"energy": -0.25122,
				"method": "rhf"
			},
			{
				"type": "occ",
				"energy": -0.24789,
				"method": "rhf"
			},
			{
				"type": "occ",
				"energy": -0.23374,
				"method": "rhf"
			},
			{
				"type": "occ",
				"energy": -0.19469,
				"method": "rhf"
			},
			{
				"type": "unocc",
				"energy": -0.01101,
				"method": "rhf"
			},
			{
				"type": "unocc",
				"energy": -0.00655,
				"method": "rhf"
			},
			{
				"type": "unocc",
				"energy": -0.00162,
				"method": "rhf"
			},
			{
				"type": "unocc",
				"energy": 0.00327,
				"method": "rhf"
			},
			{
				"type": "unocc",
				"energy": 0.0801,
				"method": "rhf"
			}
		],
		"cosmo_sigma_profile": { 
			"-0.025": 0.0,
			"-0.024": 0.0,
			"-0.023": 0.0,
			"-0.022": 0.0,
			"-0.021": 0.0,
			"-0.02": 0.0,
			"-0.019": 0.0,
			"-0.018": 0.0,
			"-0.017": 0.0,
			"-0.016": 0.0,
			"-0.015": 0.0,
			"-0.014": 0.0,
			"-0.013": 0.0,
			"-0.012": 0.213458989425,
			"-0.011": 0.536585335743,
			"-0.01": 0.458770081552,
			"-0.009": 0.741909956785,
			"-0.008": 1.11326547766,
			"-0.007": 1.15669844969,
			"-0.006": 7.02644641385,
			"-0.005": 18.5614938233,
			"-0.004": 24.4117915646,
			"-0.003": 39.5065350318,
			"-0.002": 45.8140947879,
			"-0.001": 47.9024392265,
			"0.0": 48.9623168731,
			"0.001": 36.9503542089,
			"0.002": 29.4808924772,
			"0.003": 20.0913941031,
			"0.004": 16.7841332692,
			"0.005": 13.77160403,
			"0.006": 8.70160626138,
			"0.007": 2.17594747237,
			"0.008": 1.88417600284,
			"0.009": 1.629662952,
			"0.01": 1.6332259765,
			"0.011": 1.44310988638,
			"0.012": 2.371715499,
			"0.013": 1.81393529177,
			"0.014": 2.29481102932,
			"0.015": 0.944555254768,
			"0.016": 0.419052947556,
			"0.017": 0.0469026097056,
			"0.018": 0.0,
			"0.019": 0.0,
			"0.02": 0.0,
			"0.021": 0.0,
			"0.022": 0.0,
			"0.023": 0.0,
			"0.024": 0.0,
			"0.025": 0.0
		}
	}
}
