{
	 "smiles": "CS(=O)(=O)NCCCN", 
	 "Tm": 335.15, 
	 "num_atms": 21, 
	 "gaussian": { 
		 "optdone": 1, 
		 "sigma_profile": "yes", 
		 "theory": "DFT", 
		 "functional": "B3LYP", 
		 "basiset": "6-31G**", 
		 "properties": { 
			 "R2extent": 2178.2822, 
			 "electric_dipole_moment_norm": 3.78695009869, 
			 "electric_quadrupole_moment_norm": 10.2453340292, 
			 "total_energy": -817.728360194, 
			 "HOMO_LUMO_gap": 0.29893, 
			 "cosmo_polarized_energy": -16.89, 
			 "cosmo_cavitation_energy": 25.16, 
			 "cosmo_dispersion_energy": -18.78, 
			 "cosmo_repulsion_energy": 1.54, 
			 "cosmo_total_nonelectrostatic_energy": 7.91, 
			 "SMD_solvation_energy": 2.04 
		},
		"coords": [
			{
				"x": -0.9007595278,
				"y": 2.4614468314,
				"z": -0.8936414155,
				"element": "C" 
			},
			{
				"x": -1.3230661632,
				"y": 0.8842227041,
				"z": -0.1354672343,
				"element": "S" 
			},
			{
				"x": -1.2421767038,
				"y": 1.0695010525,
				"z": 1.318418225,
				"element": "O" 
			},
			{
				"x": -2.5402974069,
				"y": 0.3806575896,
				"z": -0.7798798428,
				"element": "O" 
			},
			{
				"x": -0.0619832244,
				"y": -0.1119916386,
				"z": -0.6592950817,
				"element": "N" 
			},
			{
				"x": 0.9802163538,
				"y": -0.5172008609,
				"z": 0.3015118217,
				"element": "C" 
			},
			{
				"x": 0.5945506454,
				"y": -1.6906177978,
				"z": 1.2071784387,
				"element": "C" 
			},
			{
				"x": 1.7212173726,
				"y": -2.0869711645,
				"z": 2.1647136513,
				"element": "C" 
			},
			{
				"x": 1.3276882972,
				"y": -3.2584593659,
				"z": 2.9527130676,
				"element": "N" 
			},
			{
				"x": 0.0744608045,
				"y": 2.7807187795,
				"z": -0.5240014065,
				"element": "H" 
			},
			{
				"x": -0.8858065046,
				"y": 2.3365937921,
				"z": -1.9762805745,
				"element": "H" 
			},
			{
				"x": -1.6707652811,
				"y": 3.1759181803,
				"z": -0.5970442017,
				"element": "H" 
			},
			{
				"x": -0.4801250628,
				"y": -0.8880231985,
				"z": -1.1669101629,
				"element": "H" 
			},
			{
				"x": 1.2301576052,
				"y": 0.3605898955,
				"z": 0.9042341313,
				"element": "H" 
			},
			{
				"x": 1.8715550119,
				"y": -0.7643723417,
				"z": -0.2882306304,
				"element": "H" 
			},
			{
				"x": -0.2968296924,
				"y": -1.4103712505,
				"z": 1.7804899696,
				"element": "H" 
			},
			{
				"x": 0.3299397389,
				"y": -2.5647541104,
				"z": 0.5987359362,
				"element": "H" 
			},
			{
				"x": 2.6134629908,
				"y": -2.3589721573,
				"z": 1.5851982033,
				"element": "H" 
			},
			{
				"x": 2.0007426886,
				"y": -1.2066530279,
				"z": 2.7726330954,
				"element": "H" 
			},
			{
				"x": 0.5509770565,
				"y": -3.0130782642,
				"z": 3.5632621116,
				"element": "H" 
			},
			{
				"x": 2.0904410015,
				"y": -3.5385836469,
				"z": 3.5642618985,
				"element": "H" 
			}
		],
		 "valence_orbital": [ 
			{
				"type": "occ",
				"energy": -0.31375,
				"method": "rhf"
			},
			{
				"type": "occ",
				"energy": -0.30506,
				"method": "rhf"
			},
			{
				"type": "occ",
				"energy": -0.29761,
				"method": "rhf"
			},
			{
				"type": "occ",
				"energy": -0.26934,
				"method": "rhf"
			},
			{
				"type": "occ",
				"energy": -0.23574,
				"method": "rhf"
			},
			{
				"type": "unocc",
				"energy": 0.06319,
				"method": "rhf"
			},
			{
				"type": "unocc",
				"energy": 0.0761,
				"method": "rhf"
			},
			{
				"type": "unocc",
				"energy": 0.08075,
				"method": "rhf"
			},
			{
				"type": "unocc",
				"energy": 0.0847,
				"method": "rhf"
			},
			{
				"type": "unocc",
				"energy": 0.10395,
				"method": "rhf"
			}
		],
		"cosmo_sigma_profile": { 
			"-0.025": 0.0,
			"-0.024": 0.0,
			"-0.023": 0.0,
			"-0.022": 0.0,
			"-0.021": 0.0,
			"-0.02": 0.0,
			"-0.019": 0.0,
			"-0.018": 0.0,
			"-0.017": 0.0,
			"-0.016": 0.0,
			"-0.015": 0.0,
			"-0.014": 0.40916444512,
			"-0.013": 0.8315720964,
			"-0.012": 0.877902594097,
			"-0.011": 1.05439679693,
			"-0.01": 1.44776837129,
			"-0.009": 5.11466705655,
			"-0.008": 9.91329358247,
			"-0.007": 7.96366636349,
			"-0.006": 11.6371475313,
			"-0.005": 12.8593551748,
			"-0.004": 17.3808884316,
			"-0.003": 19.776064032,
			"-0.002": 16.8144766493,
			"-0.001": 12.1442379072,
			"0.0": 9.2039879536,
			"0.001": 4.96262946585,
			"0.002": 5.09486064387,
			"0.003": 4.42808052397,
			"0.004": 3.67093392997,
			"0.005": 4.1087802132,
			"0.006": 3.93524306117,
			"0.007": 3.31429208569,
			"0.008": 3.67910984132,
			"0.009": 4.89212672584,
			"0.01": 5.32775513965,
			"0.011": 10.968789737,
			"0.012": 8.28474593136,
			"0.013": 1.14822811622,
			"0.014": 1.01394493775,
			"0.015": 0.343959985765,
			"0.016": 0.509875517363,
			"0.017": 0.902535719242,
			"0.018": 0.480518771415,
			"0.019": 0.465706615221,
			"0.02": 0.34987900589,
			"0.021": 0.0286006130844,
			"0.022": 0.0,
			"0.023": 0.0,
			"0.024": 0.0,
			"0.025": 0.0
		}
	}
}
