{
	 "smiles": "CNC(=O)C1=CC(CCC(O)=O)=CC=C1", 
	 "Tm": 393.15, 
	 "num_atms": 28, 
	 "gaussian": { 
		 "optdone": 1, 
		 "sigma_profile": "yes", 
		 "theory": "DFT", 
		 "functional": "B3LYP", 
		 "basiset": "6-31G**", 
		 "properties": { 
			 "R2extent": 4954.641, 
			 "electric_dipole_moment_norm": 5.16118783324, 
			 "electric_quadrupole_moment_norm": 18.0788480156, 
			 "total_energy": -707.454486311, 
			 "HOMO_LUMO_gap": 0.20762, 
			 "cosmo_polarized_energy": -22.9, 
			 "cosmo_cavitation_energy": 32.65, 
			 "cosmo_dispersion_energy": -23.03, 
			 "cosmo_repulsion_energy": 1.85, 
			 "cosmo_total_nonelectrostatic_energy": 11.47, 
			 "SMD_solvation_energy": 6.81 
		},
		"coords": [
			{
				"x": 0.9072169062,
				"y": -1.4611897048,
				"z": -3.9841655944,
				"element": "C" 
			},
			{
				"x": 1.6200158099,
				"y": -2.0721933952,
				"z": -2.8710071706,
				"element": "N" 
			},
			{
				"x": 1.4821968025,
				"y": -1.8355588403,
				"z": -1.5248845169,
				"element": "C" 
			},
			{
				"x": 1.8546365806,
				"y": -2.6681188749,
				"z": -0.701669057,
				"element": "O" 
			},
			{
				"x": 0.8993094385,
				"y": -0.523266551,
				"z": -1.076178479,
				"element": "C" 
			},
			{
				"x": 0.1211154658,
				"y": -0.5334577601,
				"z": 0.0877802635,
				"element": "C" 
			},
			{
				"x": -0.4104697718,
				"y": 0.6451127607,
				"z": 0.6200817232,
				"element": "C" 
			},
			{
				"x": -1.2316813872,
				"y": 0.6156527131,
				"z": 1.8913278769,
				"element": "C" 
			},
			{
				"x": -0.3514885732,
				"y": 0.5594487966,
				"z": 3.1500179906,
				"element": "C" 
			},
			{
				"x": -1.1663633762,
				"y": 0.5682180407,
				"z": 4.4372129226,
				"element": "C" 
			},
			{
				"x": -0.4430576313,
				"y": 0.4438623556,
				"z": 5.5838805971,
				"element": "O" 
			},
			{
				"x": -2.36488509,
				"y": 0.6839510881,
				"z": 4.4894878683,
				"element": "O" 
			},
			{
				"x": -0.12794971,
				"y": 1.8555811603,
				"z": -0.0289566094,
				"element": "C" 
			},
			{
				"x": 0.6674812188,
				"y": 1.8836135785,
				"z": -1.1747672825,
				"element": "C" 
			},
			{
				"x": 1.1800096325,
				"y": 0.6985976722,
				"z": -1.70299839,
				"element": "C" 
			},
			{
				"x": 0.4489356237,
				"y": -2.2385355027,
				"z": -4.6045904007,
				"element": "H" 
			},
			{
				"x": 0.111348359,
				"y": -0.8144665052,
				"z": -3.613990647,
				"element": "H" 
			},
			{
				"x": 1.5693516028,
				"y": -0.8625289492,
				"z": -4.6223900573,
				"element": "H" 
			},
			{
				"x": 2.0484176986,
				"y": -2.9731063714,
				"z": -3.0415993627,
				"element": "H" 
			},
			{
				"x": -0.0575179583,
				"y": -1.4878204641,
				"z": 0.5750156259,
				"element": "H" 
			},
			{
				"x": -1.900245873,
				"y": -0.251152449,
				"z": 1.8941661761,
				"element": "H" 
			},
			{
				"x": -1.8751413287,
				"y": 1.4981011837,
				"z": 1.9530605362,
				"element": "H" 
			},
			{
				"x": 0.3380937408,
				"y": 1.4148013963,
				"z": 3.1717129215,
				"element": "H" 
			},
			{
				"x": 0.2820965363,
				"y": -0.337667175,
				"z": 3.1341568509,
				"element": "H" 
			},
			{
				"x": 0.4980308074,
				"y": 0.3496604165,
				"z": 5.3780541168,
				"element": "H" 
			},
			{
				"x": -0.5331728373,
				"y": 2.7828515059,
				"z": 0.3691185422,
				"element": "H" 
			},
			{
				"x": 0.8902117037,
				"y": 2.8314679015,
				"z": -1.6563283024,
				"element": "H" 
			},
			{
				"x": 1.8155056098,
				"y": 0.7288419732,
				"z": -2.582248142,
				"element": "H" 
			}
		],
		 "valence_orbital": [ 
			{
				"type": "occ",
				"energy": -0.27461,
				"method": "rhf"
			},
			{
				"type": "occ",
				"energy": -0.26575,
				"method": "rhf"
			},
			{
				"type": "occ",
				"energy": -0.2546,
				"method": "rhf"
			},
			{
				"type": "occ",
				"energy": -0.25272,
				"method": "rhf"
			},
			{
				"type": "occ",
				"energy": -0.24157,
				"method": "rhf"
			},
			{
				"type": "unocc",
				"energy": -0.03395,
				"method": "rhf"
			},
			{
				"type": "unocc",
				"energy": -0.01329,
				"method": "rhf"
			},
			{
				"type": "unocc",
				"energy": 0.01078,
				"method": "rhf"
			},
			{
				"type": "unocc",
				"energy": 0.05191,
				"method": "rhf"
			},
			{
				"type": "unocc",
				"energy": 0.05612,
				"method": "rhf"
			}
		],
		"cosmo_sigma_profile": { 
			"-0.025": 0.0,
			"-0.024": 0.0,
			"-0.023": 0.0,
			"-0.022": 0.0,
			"-0.021": 0.0,
			"-0.02": 0.0211402712381,
			"-0.019": 0.531231422569,
			"-0.018": 1.346858054,
			"-0.017": 0.568404830142,
			"-0.016": 1.06122960422,
			"-0.015": 1.42657232447,
			"-0.014": 0.865454995717,
			"-0.013": 2.7015814736,
			"-0.012": 1.60970421603,
			"-0.011": 2.16057684444,
			"-0.01": 2.18530761962,
			"-0.009": 3.06418653847,
			"-0.008": 3.03210255867,
			"-0.007": 4.15560890055,
			"-0.006": 13.3992224102,
			"-0.005": 22.0417837997,
			"-0.004": 24.9708283072,
			"-0.003": 20.8004788085,
			"-0.002": 20.6980978419,
			"-0.001": 14.2395227343,
			"0.0": 13.0963867983,
			"0.001": 10.6830239483,
			"0.002": 10.5686433654,
			"0.003": 11.8234059415,
			"0.004": 12.6791551174,
			"0.005": 8.29782423627,
			"0.006": 4.7480297432,
			"0.007": 3.57318013575,
			"0.008": 4.34927941663,
			"0.009": 4.17669401244,
			"0.01": 5.84642058235,
			"0.011": 7.39786437954,
			"0.012": 7.23871935538,
			"0.013": 5.22751989262,
			"0.014": 5.50447620107,
			"0.015": 1.66165064524,
			"0.016": 0.0,
			"0.017": 0.0,
			"0.018": 0.0,
			"0.019": 0.0,
			"0.02": 0.0,
			"0.021": 0.0,
			"0.022": 0.0,
			"0.023": 0.0,
			"0.024": 0.0,
			"0.025": 0.0
		}
	}
}
