{
	 "smiles": "CCOC(=O)C1=C(OC=N1)C1=CC=CO1", 
	 "Tm": 367.15, 
	 "num_atms": 24, 
	 "gaussian": { 
		 "optdone": 1, 
		 "sigma_profile": "yes", 
		 "theory": "DFT", 
		 "functional": "B3LYP", 
		 "basiset": "6-31G**", 
		 "properties": { 
			 "R2extent": 4438.8836, 
			 "electric_dipole_moment_norm": 1.95513318984, 
			 "electric_quadrupole_moment_norm": 10.6293984976, 
			 "total_energy": -742.099820222, 
			 "HOMO_LUMO_gap": 0.1597, 
			 "cosmo_polarized_energy": -13.36, 
			 "cosmo_cavitation_energy": 29.72, 
			 "cosmo_dispersion_energy": -21.63, 
			 "cosmo_repulsion_energy": 1.7, 
			 "cosmo_total_nonelectrostatic_energy": 9.79, 
			 "SMD_solvation_energy": 6.75 
		},
		"coords": [
			{
				"x": 0.6295903349,
				"y": -1.8717885316,
				"z": 4.4488569587,
				"element": "C" 
			},
			{
				"x": -0.5793217914,
				"y": -2.0142480598,
				"z": 3.5354050583,
				"element": "C" 
			},
			{
				"x": -0.2008674929,
				"y": -2.524438243,
				"z": 2.2371532456,
				"element": "O" 
			},
			{
				"x": 0.2164453808,
				"y": -1.6089161383,
				"z": 1.3383080821,
				"element": "C" 
			},
			{
				"x": 0.2824819924,
				"y": -0.4140702976,
				"z": 1.5563445266,
				"element": "O" 
			},
			{
				"x": 0.5769326237,
				"y": -2.2470577409,
				"z": 0.0558317622,
				"element": "C" 
			},
			{
				"x": 1.0418308952,
				"y": -1.6591649836,
				"z": -1.1072451182,
				"element": "C" 
			},
			{
				"x": 1.2304337994,
				"y": -2.672528272,
				"z": -2.0132759935,
				"element": "O" 
			},
			{
				"x": 0.8722464857,
				"y": -3.8096944299,
				"z": -1.3530988686,
				"element": "C" 
			},
			{
				"x": 0.4821262321,
				"y": -3.6235679467,
				"z": -0.1411402917,
				"element": "N" 
			},
			{
				"x": 1.368831601,
				"y": -0.3549115278,
				"z": -1.6157473124,
				"element": "C" 
			},
			{
				"x": 1.8363594551,
				"y": 0.0191425584,
				"z": -2.8553597192,
				"element": "C" 
			},
			{
				"x": 1.9886889445,
				"y": 1.4346370746,
				"z": -2.813767448,
				"element": "C" 
			},
			{
				"x": 1.6055671823,
				"y": 1.8179077505,
				"z": -1.5601551603,
				"element": "C" 
			},
			{
				"x": 1.2273034141,
				"y": 0.744586262,
				"z": -0.822701585,
				"element": "O" 
			},
			{
				"x": 1.1632359789,
				"y": -2.8225665594,
				"z": 4.5377361415,
				"element": "H" 
			},
			{
				"x": 1.3156675742,
				"y": -1.1146581884,
				"z": 4.0615283216,
				"element": "H" 
			},
			{
				"x": 0.3059290701,
				"y": -1.5632041705,
				"z": 5.4486917383,
				"element": "H" 
			},
			{
				"x": -1.2854045156,
				"y": -2.7543060436,
				"z": 3.9195829683,
				"element": "H" 
			},
			{
				"x": -1.0894352868,
				"y": -1.0564079896,
				"z": 3.4066393054,
				"element": "H" 
			},
			{
				"x": 0.9517154814,
				"y": -4.7335743075,
				"z": -1.9065593684,
				"element": "H" 
			},
			{
				"x": 2.0407244666,
				"y": -0.6443661792,
				"z": -3.6820817566,
				"element": "H" 
			},
			{
				"x": 2.3357098284,
				"y": 2.0800761837,
				"z": -3.6074028747,
				"element": "H" 
			},
			{
				"x": 1.5462083459,
				"y": 2.7711197801,
				"z": -1.0584426124,
				"element": "H" 
			}
		],
		 "valence_orbital": [ 
			{
				"type": "occ",
				"energy": -0.2966,
				"method": "rhf"
			},
			{
				"type": "occ",
				"energy": -0.28963,
				"method": "rhf"
			},
			{
				"type": "occ",
				"energy": -0.28379,
				"method": "rhf"
			},
			{
				"type": "occ",
				"energy": -0.26533,
				"method": "rhf"
			},
			{
				"type": "occ",
				"energy": -0.216,
				"method": "rhf"
			},
			{
				"type": "unocc",
				"energy": -0.0563,
				"method": "rhf"
			},
			{
				"type": "unocc",
				"energy": 0.00394,
				"method": "rhf"
			},
			{
				"type": "unocc",
				"energy": 0.02899,
				"method": "rhf"
			},
			{
				"type": "unocc",
				"energy": 0.0701,
				"method": "rhf"
			},
			{
				"type": "unocc",
				"energy": 0.1006,
				"method": "rhf"
			}
		],
		"cosmo_sigma_profile": { 
			"-0.025": 0.0,
			"-0.024": 0.0,
			"-0.023": 0.0,
			"-0.022": 0.0,
			"-0.021": 0.0,
			"-0.02": 0.0,
			"-0.019": 0.0,
			"-0.018": 0.0,
			"-0.017": 0.0,
			"-0.016": 0.0,
			"-0.015": 0.0,
			"-0.014": 0.0,
			"-0.013": 0.0,
			"-0.012": 0.778922860095,
			"-0.011": 2.21797943366,
			"-0.01": 2.70258198484,
			"-0.009": 3.45260007222,
			"-0.008": 5.53490425329,
			"-0.007": 5.59894274307,
			"-0.006": 7.08813328186,
			"-0.005": 11.1888870313,
			"-0.004": 16.5186400279,
			"-0.003": 23.4691254317,
			"-0.002": 21.6294571061,
			"-0.001": 24.0222516639,
			"0.0": 23.8922483766,
			"0.001": 16.8891706594,
			"0.002": 14.5487332641,
			"0.003": 12.2177068501,
			"0.004": 9.40040428447,
			"0.005": 4.07309887838,
			"0.006": 4.08174099717,
			"0.007": 3.74320912587,
			"0.008": 3.49821335834,
			"0.009": 2.55058639668,
			"0.01": 3.39028908274,
			"0.011": 3.23298474242,
			"0.012": 5.3394153924,
			"0.013": 4.46829883069,
			"0.014": 0.981581873281,
			"0.015": 1.55682987184,
			"0.016": 0.692645495504,
			"0.017": 0.0,
			"0.018": 0.0,
			"0.019": 0.0,
			"0.02": 0.0,
			"0.021": 0.0,
			"0.022": 0.0,
			"0.023": 0.0,
			"0.024": 0.0,
			"0.025": 0.0
		}
	}
}
