{
	 "smiles": "CC(=O)CC(=O)NC1=CC(Br)=CC=C1", 
	 "Tm": 382.15, 
	 "num_atms": 24, 
	 "gaussian": { 
		 "optdone": 1, 
		 "sigma_profile": "yes", 
		 "theory": "DFT", 
		 "functional": "B3LYP", 
		 "basiset": "6-31G**", 
		 "properties": { 
			 "R2extent": 5203.186, 
			 "electric_dipole_moment_norm": 2.82810458258, 
			 "electric_quadrupole_moment_norm": 17.6280453701, 
			 "total_energy": -3163.70886805, 
			 "HOMO_LUMO_gap": 0.20071, 
			 "cosmo_polarized_energy": -13.68, 
			 "cosmo_cavitation_energy": 30.64, 
			 "cosmo_dispersion_energy": -22.06, 
			 "cosmo_repulsion_energy": 1.74, 
			 "cosmo_total_nonelectrostatic_energy": 10.33, 
			 "SMD_solvation_energy": 5.41 
		},
		"coords": [
			{
				"x": 1.6172181589,
				"y": -1.1886686447,
				"z": 3.2750497069,
				"element": "C" 
			},
			{
				"x": 0.8976606002,
				"y": -0.3186942477,
				"z": 2.2742132879,
				"element": "C" 
			},
			{
				"x": 0.7632836334,
				"y": 0.8827956721,
				"z": 2.4111537652,
				"element": "O" 
			},
			{
				"x": 0.370481159,
				"y": -1.0294413804,
				"z": 1.0160366107,
				"element": "C" 
			},
			{
				"x": 1.5060898725,
				"y": -1.1467352612,
				"z": 0.0015047461,
				"element": "C" 
			},
			{
				"x": 2.4234173564,
				"y": -1.9396950861,
				"z": 0.1740817186,
				"element": "O" 
			},
			{
				"x": 1.4883366497,
				"y": -0.3478136173,
				"z": -1.1210751466,
				"element": "N" 
			},
			{
				"x": 0.5784788756,
				"y": 0.634089085,
				"z": -1.5872890326,
				"element": "C" 
			},
			{
				"x": 0.0406258388,
				"y": 1.6165815691,
				"z": -0.7423962368,
				"element": "C" 
			},
			{
				"x": -0.8294226552,
				"y": 2.5607570262,
				"z": -1.2857562463,
				"element": "C" 
			},
			{
				"x": -1.5816570608,
				"y": 3.8885365979,
				"z": -0.1354177705,
				"element": "Br" 
			},
			{
				"x": -1.148193479,
				"y": 2.5825616511,
				"z": -2.641701385,
				"element": "C" 
			},
			{
				"x": -0.5787566313,
				"y": 1.6177396447,
				"z": -3.4742644751,
				"element": "C" 
			},
			{
				"x": 0.270714412,
				"y": 0.6443180818,
				"z": -2.9561307882,
				"element": "C" 
			},
			{
				"x": 2.0700795532,
				"y": -0.5746857518,
				"z": 4.054374702,
				"element": "H" 
			},
			{
				"x": 0.9111020116,
				"y": -1.8963749055,
				"z": 3.7263331824,
				"element": "H" 
			},
			{
				"x": 2.3744232807,
				"y": -1.7829313494,
				"z": 2.7514951806,
				"element": "H" 
			},
			{
				"x": -0.4913571795,
				"y": -0.4868425356,
				"z": 0.629211923,
				"element": "H" 
			},
			{
				"x": 0.0853008249,
				"y": -2.0564669495,
				"z": 1.2587566908,
				"element": "H" 
			},
			{
				"x": 2.2382159909,
				"y": -0.5980777077,
				"z": -1.7553720719,
				"element": "H" 
			},
			{
				"x": 0.2989017947,
				"y": 1.6529161729,
				"z": 0.3104875138,
				"element": "H" 
			},
			{
				"x": -1.8189397521,
				"y": 3.3365297041,
				"z": -3.0360452749,
				"element": "H" 
			},
			{
				"x": -0.8118271632,
				"y": 1.6196416791,
				"z": -4.5347507495,
				"element": "H" 
			},
			{
				"x": 0.6923239087,
				"y": -0.1181394471,
				"z": -3.6046998506,
				"element": "H" 
			}
		],
		 "valence_orbital": [ 
			{
				"type": "occ",
				"energy": -0.28705,
				"method": "rhf"
			},
			{
				"type": "occ",
				"energy": -0.27176,
				"method": "rhf"
			},
			{
				"type": "occ",
				"energy": -0.25785,
				"method": "rhf"
			},
			{
				"type": "occ",
				"energy": -0.25367,
				"method": "rhf"
			},
			{
				"type": "occ",
				"energy": -0.23917,
				"method": "rhf"
			},
			{
				"type": "unocc",
				"energy": -0.03846,
				"method": "rhf"
			},
			{
				"type": "unocc",
				"energy": -0.02319,
				"method": "rhf"
			},
			{
				"type": "unocc",
				"energy": -0.0205,
				"method": "rhf"
			},
			{
				"type": "unocc",
				"energy": 0.00458,
				"method": "rhf"
			},
			{
				"type": "unocc",
				"energy": 0.0241,
				"method": "rhf"
			}
		],
		"cosmo_sigma_profile": { 
			"-0.025": 0.0,
			"-0.024": 0.0,
			"-0.023": 0.0,
			"-0.022": 0.0,
			"-0.021": 0.0,
			"-0.02": 0.0,
			"-0.019": 0.0,
			"-0.018": 0.0,
			"-0.017": 0.0,
			"-0.016": 0.0,
			"-0.015": 0.430540220485,
			"-0.014": 1.28115125118,
			"-0.013": 0.961127400659,
			"-0.012": 1.15926852757,
			"-0.011": 0.900296311856,
			"-0.01": 1.5777038332,
			"-0.009": 0.996441594323,
			"-0.008": 3.72653974765,
			"-0.007": 9.9838643864,
			"-0.006": 13.1146916515,
			"-0.005": 15.059640266,
			"-0.004": 18.5528463959,
			"-0.003": 17.7767972028,
			"-0.002": 16.7242374158,
			"-0.001": 17.5956273054,
			"0.0": 15.7029277366,
			"0.001": 17.0406041549,
			"0.002": 21.4849643006,
			"0.003": 19.7629589592,
			"0.004": 16.5841317533,
			"0.005": 8.91518325236,
			"0.006": 2.59704988627,
			"0.007": 2.92024112094,
			"0.008": 2.69248498383,
			"0.009": 3.00517213781,
			"0.01": 4.6858988237,
			"0.011": 3.42307547222,
			"0.012": 4.74113636907,
			"0.013": 4.24233412583,
			"0.014": 0.256352114536,
			"0.015": 0.0,
			"0.016": 0.0,
			"0.017": 0.0,
			"0.018": 0.0,
			"0.019": 0.0,
			"0.02": 0.0,
			"0.021": 0.0,
			"0.022": 0.0,
			"0.023": 0.0,
			"0.024": 0.0,
			"0.025": 0.0
		}
	}
}
