{
	 "smiles": "CNCC1=CC=C(O1)C(=O)NC", 
	 "Tm": 339.15, 
	 "num_atms": 24, 
	 "gaussian": { 
		 "optdone": 1, 
		 "sigma_profile": "yes", 
		 "theory": "DFT", 
		 "functional": "B3LYP", 
		 "basiset": "6-31G**", 
		 "properties": { 
			 "R2extent": 3602.8419, 
			 "electric_dipole_moment_norm": 4.31591431796, 
			 "electric_quadrupole_moment_norm": 16.9483621672, 
			 "total_energy": -572.008766291, 
			 "HOMO_LUMO_gap": 0.18717, 
			 "cosmo_polarized_energy": -16.27, 
			 "cosmo_cavitation_energy": 27.76, 
			 "cosmo_dispersion_energy": -19.91, 
			 "cosmo_repulsion_energy": 1.62, 
			 "cosmo_total_nonelectrostatic_energy": 9.47, 
			 "SMD_solvation_energy": 3.34 
		},
		"coords": [
			{
				"x": 3.1417562686,
				"y": 0.2451219812,
				"z": -1.4458730555,
				"element": "C" 
			},
			{
				"x": 1.8500922024,
				"y": -0.1284871219,
				"z": -2.0270810929,
				"element": "N" 
			},
			{
				"x": 0.7541331147,
				"y": 0.8062609176,
				"z": -1.7550933603,
				"element": "C" 
			},
			{
				"x": 0.2581515627,
				"y": 0.858113402,
				"z": -0.3397303364,
				"element": "C" 
			},
			{
				"x": -0.8737911523,
				"y": 0.384100567,
				"z": 0.2702435722,
				"element": "C" 
			},
			{
				"x": -0.748908351,
				"y": 0.6960055168,
				"z": 1.6562210113,
				"element": "C" 
			},
			{
				"x": 0.4561382987,
				"y": 1.3365122987,
				"z": 1.8082412352,
				"element": "C" 
			},
			{
				"x": 1.0699879234,
				"y": 1.4331743977,
				"z": 0.5885762302,
				"element": "O" 
			},
			{
				"x": 1.2811428935,
				"y": 1.814442455,
				"z": 2.9438119433,
				"element": "C" 
			},
			{
				"x": 2.500357541,
				"y": 1.9120792286,
				"z": 2.8394295348,
				"element": "O" 
			},
			{
				"x": 0.6425391714,
				"y": 2.1181181986,
				"z": 4.1207645967,
				"element": "N" 
			},
			{
				"x": -0.775036768,
				"y": 2.2881260732,
				"z": 4.3853220902,
				"element": "C" 
			},
			{
				"x": 3.4622640042,
				"y": 1.200275068,
				"z": -1.8771206461,
				"element": "H" 
			},
			{
				"x": 3.1501077313,
				"y": 0.3553959212,
				"z": -0.3517416007,
				"element": "H" 
			},
			{
				"x": 3.8834584397,
				"y": -0.5088791871,
				"z": -1.7272822063,
				"element": "H" 
			},
			{
				"x": 1.583928775,
				"y": -1.0546843322,
				"z": -1.7017033833,
				"element": "H" 
			},
			{
				"x": 1.0852874045,
				"y": 1.8054930667,
				"z": -2.0639927281,
				"element": "H" 
			},
			{
				"x": -0.0964478562,
				"y": 0.5385855475,
				"z": -2.3920360952,
				"element": "H" 
			},
			{
				"x": -1.6952944184,
				"y": -0.1248305386,
				"z": -0.2140628237,
				"element": "H" 
			},
			{
				"x": -1.4518839338,
				"y": 0.4497684304,
				"z": 2.4375237499,
				"element": "H" 
			},
			{
				"x": 1.2973019341,
				"y": 2.3875288418,
				"z": 4.8419065648,
				"element": "H" 
			},
			{
				"x": -1.2930522247,
				"y": 2.6505796072,
				"z": 3.4942072448,
				"element": "H" 
			},
			{
				"x": -1.2611431479,
				"y": 1.3602159536,
				"z": 4.7164006084,
				"element": "H" 
			},
			{
				"x": -0.9023894128,
				"y": 3.032283707,
				"z": 5.1758689465,
				"element": "H" 
			}
		],
		 "valence_orbital": [ 
			{
				"type": "occ",
				"energy": -0.28519,
				"method": "rhf"
			},
			{
				"type": "occ",
				"energy": -0.25042,
				"method": "rhf"
			},
			{
				"type": "occ",
				"energy": -0.24634,
				"method": "rhf"
			},
			{
				"type": "occ",
				"energy": -0.23561,
				"method": "rhf"
			},
			{
				"type": "occ",
				"energy": -0.21368,
				"method": "rhf"
			},
			{
				"type": "unocc",
				"energy": -0.02651,
				"method": "rhf"
			},
			{
				"type": "unocc",
				"energy": 0.04356,
				"method": "rhf"
			},
			{
				"type": "unocc",
				"energy": 0.08132,
				"method": "rhf"
			},
			{
				"type": "unocc",
				"energy": 0.09289,
				"method": "rhf"
			},
			{
				"type": "unocc",
				"energy": 0.10076,
				"method": "rhf"
			}
		],
		"cosmo_sigma_profile": { 
			"-0.025": 0.0,
			"-0.024": 0.0,
			"-0.023": 0.0,
			"-0.022": 0.0,
			"-0.021": 0.0,
			"-0.02": 0.0,
			"-0.019": 0.0,
			"-0.018": 0.0,
			"-0.017": 0.0,
			"-0.016": 0.0,
			"-0.015": 0.0,
			"-0.014": 0.190494110545,
			"-0.013": 1.43163809028,
			"-0.012": 0.608665322422,
			"-0.011": 1.20375831959,
			"-0.01": 2.16894197842,
			"-0.009": 2.26832201546,
			"-0.008": 3.15845234113,
			"-0.007": 6.19663322027,
			"-0.006": 10.1331947887,
			"-0.005": 17.1378412617,
			"-0.004": 19.3921919137,
			"-0.003": 21.5380086487,
			"-0.002": 20.3584614455,
			"-0.001": 15.759083653,
			"0.0": 17.4176186258,
			"0.001": 11.806583624,
			"0.002": 12.5799097881,
			"0.003": 9.82832743341,
			"0.004": 8.31696567189,
			"0.005": 3.60230289421,
			"0.006": 3.58041380073,
			"0.007": 2.48420562883,
			"0.008": 2.55858462392,
			"0.009": 2.31665390023,
			"0.01": 2.44268374141,
			"0.011": 2.58236917906,
			"0.012": 2.56323062402,
			"0.013": 4.11715486572,
			"0.014": 6.64423065385,
			"0.015": 2.94731852229,
			"0.016": 0.749545417396,
			"0.017": 0.471977211144,
			"0.018": 0.210898433595,
			"0.019": 0.0,
			"0.02": 0.0,
			"0.021": 0.0,
			"0.022": 0.0,
			"0.023": 0.0,
			"0.024": 0.0,
			"0.025": 0.0
		}
	}
}
