{
	 "smiles": "CNC(=O)CSP(=S)(OC)OC", 
	 "Tm": 324.95, 
	 "num_atms": 24, 
	 "gaussian": { 
		 "optdone": 1, 
		 "sigma_profile": "yes", 
		 "theory": "DFT", 
		 "functional": "B3LYP", 
		 "basiset": "6-31G**", 
		 "properties": { 
			 "R2extent": 3526.2494, 
			 "electric_dipole_moment_norm": 4.61829543122, 
			 "electric_quadrupole_moment_norm": 18.5146467479, 
			 "total_energy": -1615.9773806, 
			 "HOMO_LUMO_gap": 0.21475, 
			 "cosmo_polarized_energy": -14.88, 
			 "cosmo_cavitation_energy": 32.09, 
			 "cosmo_dispersion_energy": -22.96, 
			 "cosmo_repulsion_energy": 1.75, 
			 "cosmo_total_nonelectrostatic_energy": 10.88, 
			 "SMD_solvation_energy": 6.57 
		},
		"coords": [
			{
				"x": 2.6600280826,
				"y": -2.8805631075,
				"z": 1.7625289278,
				"element": "C" 
			},
			{
				"x": 1.5776541929,
				"y": -1.9290746716,
				"z": 1.5856705808,
				"element": "N" 
			},
			{
				"x": 0.3304166486,
				"y": -2.1568911373,
				"z": 2.0717513648,
				"element": "C" 
			},
			{
				"x": 0.0134367137,
				"y": -3.125843,
				"z": 2.7520557269,
				"element": "O" 
			},
			{
				"x": -0.7067219635,
				"y": -1.0774761037,
				"z": 1.7348665505,
				"element": "C" 
			},
			{
				"x": -1.2722562325,
				"y": -1.1549752478,
				"z": -0.0328251214,
				"element": "S" 
			},
			{
				"x": -0.4245662698,
				"y": 0.6241075701,
				"z": -0.7921178048,
				"element": "P" 
			},
			{
				"x": 1.4852908585,
				"y": 0.9307846512,
				"z": -0.5624161527,
				"element": "S" 
			},
			{
				"x": -0.9884460075,
				"y": 0.4491566108,
				"z": -2.3023726413,
				"element": "O" 
			},
			{
				"x": -0.2895856529,
				"y": 0.9969920073,
				"z": -3.4409799965,
				"element": "C" 
			},
			{
				"x": -1.2567054712,
				"y": 1.8666830214,
				"z": -0.163660047,
				"element": "O" 
			},
			{
				"x": -2.6834327054,
				"y": 1.9896996291,
				"z": -0.3392350231,
				"element": "C" 
			},
			{
				"x": 2.941039229,
				"y": -3.3485450312,
				"z": 0.8117048446,
				"element": "H" 
			},
			{
				"x": 2.3136790402,
				"y": -3.6532896776,
				"z": 2.4493526528,
				"element": "H" 
			},
			{
				"x": 3.5425878245,
				"y": -2.3896687951,
				"z": 2.185735468,
				"element": "H" 
			},
			{
				"x": 1.7286754772,
				"y": -1.1249403045,
				"z": 0.9858345132,
				"element": "H" 
			},
			{
				"x": -0.3334439858,
				"y": -0.0723992904,
				"z": 1.9492231832,
				"element": "H" 
			},
			{
				"x": -1.5872155813,
				"y": -1.2709590162,
				"z": 2.3465003289,
				"element": "H" 
			},
			{
				"x": -0.8236139199,
				"y": 0.62995059,
				"z": -4.3178644774,
				"element": "H" 
			},
			{
				"x": 0.746940166,
				"y": 0.6533539747,
				"z": -3.4561657493,
				"element": "H" 
			},
			{
				"x": -0.3142593609,
				"y": 2.0899009359,
				"z": -3.419192524,
				"element": "H" 
			},
			{
				"x": -2.9355869968,
				"y": 2.0568096256,
				"z": -1.4004376956,
				"element": "H" 
			},
			{
				"x": -2.9678129054,
				"y": 2.9089846811,
				"z": 0.1734173086,
				"element": "H" 
			},
			{
				"x": -3.2022011803,
				"y": 1.1365020859,
				"z": 0.1074257831,
				"element": "H" 
			}
		],
		 "valence_orbital": [ 
			{
				"type": "occ",
				"energy": -0.28594,
				"method": "rhf"
			},
			{
				"type": "occ",
				"energy": -0.26064,
				"method": "rhf"
			},
			{
				"type": "occ",
				"energy": -0.25064,
				"method": "rhf"
			},
			{
				"type": "occ",
				"energy": -0.24574,
				"method": "rhf"
			},
			{
				"type": "occ",
				"energy": -0.24244,
				"method": "rhf"
			},
			{
				"type": "unocc",
				"energy": -0.02769,
				"method": "rhf"
			},
			{
				"type": "unocc",
				"energy": -0.0075,
				"method": "rhf"
			},
			{
				"type": "unocc",
				"energy": 0.02985,
				"method": "rhf"
			},
			{
				"type": "unocc",
				"energy": 0.03525,
				"method": "rhf"
			},
			{
				"type": "unocc",
				"energy": 0.06397,
				"method": "rhf"
			}
		],
		"cosmo_sigma_profile": { 
			"-0.025": 0.0,
			"-0.024": 0.0,
			"-0.023": 0.0,
			"-0.022": 0.0,
			"-0.021": 0.0,
			"-0.02": 0.0,
			"-0.019": 0.0,
			"-0.018": 0.0,
			"-0.017": 0.0,
			"-0.016": 0.0,
			"-0.015": 0.0,
			"-0.014": 0.0,
			"-0.013": 0.0,
			"-0.012": 0.0,
			"-0.011": 0.0,
			"-0.01": 0.0,
			"-0.009": 0.0453521265669,
			"-0.008": 1.81923717392,
			"-0.007": 8.63659390046,
			"-0.006": 16.6253171891,
			"-0.005": 24.4762065585,
			"-0.004": 33.8708119829,
			"-0.003": 22.0245444092,
			"-0.002": 21.4025366677,
			"-0.001": 14.6307337736,
			"0.0": 11.0935280546,
			"0.001": 11.5474618872,
			"0.002": 14.5593184194,
			"0.003": 13.2590913441,
			"0.004": 11.2733132546,
			"0.005": 8.85022928587,
			"0.006": 7.8437187827,
			"0.007": 7.03415163487,
			"0.008": 5.82209376849,
			"0.009": 6.41178666183,
			"0.01": 2.9097081082,
			"0.011": 1.91223856206,
			"0.012": 1.97744939394,
			"0.013": 4.73784915204,
			"0.014": 3.28953549248,
			"0.015": 0.38598196246,
			"0.016": 0.0,
			"0.017": 0.0,
			"0.018": 0.0,
			"0.019": 0.0,
			"0.02": 0.0,
			"0.021": 0.0,
			"0.022": 0.0,
			"0.023": 0.0,
			"0.024": 0.0,
			"0.025": 0.0
		}
	}
}
