{
	 "smiles": "CN(C)S(=O)(=O)C1=CC2=C(SC3=CC=CC=C3N2CCCN2CCN(C)CC2)C=C1", 
	 "Tm": 413.15, 
	 "num_atms": 60, 
	 "gaussian": { 
		 "optdone": 1, 
		 "sigma_profile": "yes", 
		 "theory": "DFT", 
		 "functional": "B3LYP", 
		 "basiset": "6-31G**", 
		 "properties": { 
			 "R2extent": 19778.5412, 
			 "electric_dipole_moment_norm": 5.76556875685, 
			 "electric_quadrupole_moment_norm": 37.4584161284, 
			 "total_energy": -2022.14651641, 
			 "HOMO_LUMO_gap": 0.14825, 
			 "cosmo_polarized_energy": -17.91, 
			 "cosmo_cavitation_energy": 60.53, 
			 "cosmo_dispersion_energy": -41.54, 
			 "cosmo_repulsion_energy": 3.0, 
			 "cosmo_total_nonelectrostatic_energy": 21.99, 
			 "SMD_solvation_energy": 3.89 
		},
		"coords": [
			{
				"x": -3.3795917017,
				"y": -0.2855062828,
				"z": 5.7481497387,
				"element": "C" 
			},
			{
				"x": -3.8247292016,
				"y": 0.3081545387,
				"z": 4.4814993509,
				"element": "N" 
			},
			{
				"x": -4.5314134643,
				"y": 1.5867496261,
				"z": 4.6534408378,
				"element": "C" 
			},
			{
				"x": -4.6458806394,
				"y": -0.7948633049,
				"z": 3.4651901986,
				"element": "S" 
			},
			{
				"x": -5.1543521655,
				"y": 0.0026874698,
				"z": 2.3429152429,
				"element": "O" 
			},
			{
				"x": -5.555129375,
				"y": -1.6529916823,
				"z": 4.2397947273,
				"element": "O" 
			},
			{
				"x": -3.292715081,
				"y": -1.8176819718,
				"z": 2.8877123952,
				"element": "C" 
			},
			{
				"x": -2.3720017009,
				"y": -1.2566884479,
				"z": 2.0002436638,
				"element": "C" 
			},
			{
				"x": -1.3183626799,
				"y": -2.0237675739,
				"z": 1.4809171655,
				"element": "C" 
			},
			{
				"x": -1.2412944513,
				"y": -3.3775389119,
				"z": 1.8936060791,
				"element": "C" 
			},
			{
				"x": -0.0719103666,
				"y": -4.4789459301,
				"z": 1.1461903331,
				"element": "S" 
			},
			{
				"x": 1.2256363148,
				"y": -3.3213585607,
				"z": 0.7696568359,
				"element": "C" 
			},
			{
				"x": 2.5325918482,
				"y": -3.8025012765,
				"z": 0.693780477,
				"element": "C" 
			},
			{
				"x": 3.5670869729,
				"y": -2.9850674696,
				"z": 0.2379104129,
				"element": "C" 
			},
			{
				"x": 3.2748509895,
				"y": -1.6745944409,
				"z": -0.127429455,
				"element": "C" 
			},
			{
				"x": 1.9769660575,
				"y": -1.1725697637,
				"z": -0.0134417083,
				"element": "C" 
			},
			{
				"x": 0.9222459016,
				"y": -1.9827136423,
				"z": 0.4456152205,
				"element": "C" 
			},
			{
				"x": -0.3984568415,
				"y": -1.4816757073,
				"z": 0.561836396,
				"element": "N" 
			},
			{
				"x": -0.6938216034,
				"y": -0.1746263389,
				"z": -0.0376877695,
				"element": "C" 
			},
			{
				"x": -0.3393851466,
				"y": 1.0684826787,
				"z": 0.808270904,
				"element": "C" 
			},
			{
				"x": -0.2722321123,
				"y": 2.3294031281,
				"z": -0.0659392791,
				"element": "C" 
			},
			{
				"x": 0.9047528825,
				"y": 2.3398286116,
				"z": -0.9380518631,
				"element": "N" 
			},
			{
				"x": 0.6749716369,
				"y": 3.0789236627,
				"z": -2.1892191396,
				"element": "C" 
			},
			{
				"x": 2.009614184,
				"y": 3.3537297239,
				"z": -2.8837464913,
				"element": "C" 
			},
			{
				"x": 2.9014168719,
				"y": 4.2194769917,
				"z": -2.0877632596,
				"element": "N" 
			},
			{
				"x": 2.9989431404,
				"y": 5.5855007776,
				"z": -2.5753740674,
				"element": "C" 
			},
			{
				"x": 2.5909916693,
				"y": 4.1753218864,
				"z": -0.6575282396,
				"element": "C" 
			},
			{
				"x": 2.1493148255,
				"y": 2.7667069366,
				"z": -0.2574438551,
				"element": "C" 
			},
			{
				"x": -2.1522625649,
				"y": -3.907790687,
				"z": 2.8072937611,
				"element": "C" 
			},
			{
				"x": -3.2027881181,
				"y": -3.1387971896,
				"z": 3.3090972692,
				"element": "C" 
			},
			{
				"x": -2.8145525154,
				"y": -1.1996488397,
				"z": 5.5529740001,
				"element": "H" 
			},
			{
				"x": -4.2134137973,
				"y": -0.5195845939,
				"z": 6.4234915424,
				"element": "H" 
			},
			{
				"x": -2.710187247,
				"y": 0.428142275,
				"z": 6.2367973593,
				"element": "H" 
			},
			{
				"x": -4.846777514,
				"y": 1.9600159573,
				"z": 3.6797678639,
				"element": "H" 
			},
			{
				"x": -5.4094449653,
				"y": 1.5029228188,
				"z": 5.3101446701,
				"element": "H" 
			},
			{
				"x": -3.8279827319,
				"y": 2.2968580174,
				"z": 5.0981731503,
				"element": "H" 
			},
			{
				"x": -2.5055870817,
				"y": -0.2239589689,
				"z": 1.7158018478,
				"element": "H" 
			},
			{
				"x": 2.7285984809,
				"y": -4.8339266108,
				"z": 0.9720543579,
				"element": "H" 
			},
			{
				"x": 4.577821455,
				"y": -3.3733324385,
				"z": 0.164385888,
				"element": "H" 
			},
			{
				"x": 4.0591051273,
				"y": -1.0207363279,
				"z": -0.4974562651,
				"element": "H" 
			},
			{
				"x": 1.7924986246,
				"y": -0.1471847198,
				"z": -0.3066307958,
				"element": "H" 
			},
			{
				"x": -1.7583858833,
				"y": -0.1615259884,
				"z": -0.2921560351,
				"element": "H" 
			},
			{
				"x": -0.1504207776,
				"y": -0.1198601646,
				"z": -0.9834746842,
				"element": "H" 
			},
			{
				"x": -1.0758026144,
				"y": 1.2242075272,
				"z": 1.6032499483,
				"element": "H" 
			},
			{
				"x": 0.6198111625,
				"y": 0.9129278807,
				"z": 1.313060413,
				"element": "H" 
			},
			{
				"x": -0.322447697,
				"y": 3.2307727642,
				"z": 0.5717443851,
				"element": "H" 
			},
			{
				"x": -1.1636701148,
				"y": 2.3626372651,
				"z": -0.7051320413,
				"element": "H" 
			},
			{
				"x": 0.154196963,
				"y": 4.0391508763,
				"z": -2.0155261997,
				"element": "H" 
			},
			{
				"x": 0.0267292628,
				"y": 2.481061488,
				"z": -2.8419619717,
				"element": "H" 
			},
			{
				"x": 1.8256639512,
				"y": 3.8213632732,
				"z": -3.855902133,
				"element": "H" 
			},
			{
				"x": 2.5040778156,
				"y": 2.392309604,
				"z": -3.0808304573,
				"element": "H" 
			},
			{
				"x": 3.3241286033,
				"y": 5.5896732401,
				"z": -3.620345146,
				"element": "H" 
			},
			{
				"x": 2.051814595,
				"y": 6.156636324,
				"z": -2.5062202459,
				"element": "H" 
			},
			{
				"x": 3.7518697394,
				"y": 6.1274053282,
				"z": -1.9922007879,
				"element": "H" 
			},
			{
				"x": 1.7950981407,
				"y": 4.8956671251,
				"z": -0.3804340569,
				"element": "H" 
			},
			{
				"x": 3.4831397786,
				"y": 4.4627985103,
				"z": -0.0857033827,
				"element": "H" 
			},
			{
				"x": 1.9996930582,
				"y": 2.7269908964,
				"z": 0.8260978381,
				"element": "H" 
			},
			{
				"x": 2.9631462475,
				"y": 2.0673652262,
				"z": -0.490680705,
				"element": "H" 
			},
			{
				"x": -2.0493972941,
				"y": -4.9464426039,
				"z": 3.1064422438,
				"element": "H" 
			},
			{
				"x": -3.9369788525,
				"y": -3.5497919913,
				"z": 3.9915735175,
				"element": "H" 
			}
		],
		 "valence_orbital": [ 
			{
				"type": "occ",
				"energy": -0.24837,
				"method": "rhf"
			},
			{
				"type": "occ",
				"energy": -0.23071,
				"method": "rhf"
			},
			{
				"type": "occ",
				"energy": -0.21755,
				"method": "rhf"
			},
			{
				"type": "occ",
				"energy": -0.20873,
				"method": "rhf"
			},
			{
				"type": "occ",
				"energy": -0.1877,
				"method": "rhf"
			},
			{
				"type": "unocc",
				"energy": -0.03945,
				"method": "rhf"
			},
			{
				"type": "unocc",
				"energy": -0.02065,
				"method": "rhf"
			},
			{
				"type": "unocc",
				"energy": -0.00785,
				"method": "rhf"
			},
			{
				"type": "unocc",
				"energy": 0.0102,
				"method": "rhf"
			},
			{
				"type": "unocc",
				"energy": 0.03089,
				"method": "rhf"
			}
		],
		"cosmo_sigma_profile": { 
			"-0.025": 0.0,
			"-0.024": 0.0,
			"-0.023": 0.0,
			"-0.022": 0.0,
			"-0.021": 0.0,
			"-0.02": 0.0,
			"-0.019": 0.0,
			"-0.018": 0.0,
			"-0.017": 0.0,
			"-0.016": 0.0,
			"-0.015": 0.0,
			"-0.014": 0.0,
			"-0.013": 0.0,
			"-0.012": 0.0,
			"-0.011": 0.0,
			"-0.01": 0.0,
			"-0.009": 0.00241703320919,
			"-0.008": 1.14970986115,
			"-0.007": 5.17702182831,
			"-0.006": 15.1354224534,
			"-0.005": 22.2054486047,
			"-0.004": 40.9039358202,
			"-0.003": 56.7988045932,
			"-0.002": 67.2058765292,
			"-0.001": 59.0763803691,
			"0.0": 42.2475318515,
			"0.001": 27.31218162,
			"0.002": 29.6600566397,
			"0.003": 26.0396931165,
			"0.004": 19.5340427198,
			"0.005": 16.8792145329,
			"0.006": 9.21670680375,
			"0.007": 6.77905853186,
			"0.008": 5.45226577478,
			"0.009": 4.83612195782,
			"0.01": 6.26947021194,
			"0.011": 8.63595519388,
			"0.012": 5.173873584,
			"0.013": 0.821612762059,
			"0.014": 0.45554270817,
			"0.015": 0.443942104582,
			"0.016": 0.503410792545,
			"0.017": 0.186525757753,
			"0.018": 0.0,
			"0.019": 0.0,
			"0.02": 0.0,
			"0.021": 0.0,
			"0.022": 0.0,
			"0.023": 0.0,
			"0.024": 0.0,
			"0.025": 0.0
		}
	}
}
