{
	 "smiles": "COC(=O)C1=CC=CC=C1OC(C)=O", 
	 "Tm": 324.95, 
	 "num_atms": 24, 
	 "gaussian": { 
		 "optdone": 1, 
		 "sigma_profile": "yes", 
		 "theory": "DFT", 
		 "functional": "B3LYP", 
		 "basiset": "6-31G**", 
		 "properties": { 
			 "R2extent": 2793.0757, 
			 "electric_dipole_moment_norm": 2.04532905421, 
			 "electric_quadrupole_moment_norm": 12.3409847857, 
			 "total_energy": -688.003230114, 
			 "HOMO_LUMO_gap": 0.20121, 
			 "cosmo_polarized_energy": -11.05, 
			 "cosmo_cavitation_energy": 28.82, 
			 "cosmo_dispersion_energy": -20.56, 
			 "cosmo_repulsion_energy": 1.64, 
			 "cosmo_total_nonelectrostatic_energy": 9.9, 
			 "SMD_solvation_energy": 7.58 
		},
		"coords": [
			{
				"x": -1.1905809439,
				"y": 1.8702072166,
				"z": 3.4552883665,
				"element": "C" 
			},
			{
				"x": -0.4170376986,
				"y": 1.9236144566,
				"z": 2.2474208482,
				"element": "O" 
			},
			{
				"x": -0.6422919969,
				"y": 0.9133786046,
				"z": 1.3743206295,
				"element": "C" 
			},
			{
				"x": -1.4531332533,
				"y": 0.0341013972,
				"z": 1.5968298649,
				"element": "O" 
			},
			{
				"x": 0.202011611,
				"y": 1.0418906619,
				"z": 0.1515110186,
				"element": "C" 
			},
			{
				"x": 1.074018142,
				"y": 2.1335985983,
				"z": 0.0001824449,
				"element": "C" 
			},
			{
				"x": 1.8451102947,
				"y": 2.2898740483,
				"z": -1.1472340564,
				"element": "C" 
			},
			{
				"x": 1.7554898116,
				"y": 1.3496986325,
				"z": -2.1756126491,
				"element": "C" 
			},
			{
				"x": 0.9021488574,
				"y": 0.25628643,
				"z": -2.0456688086,
				"element": "C" 
			},
			{
				"x": 0.133848671,
				"y": 0.1002296618,
				"z": -0.894406942,
				"element": "C" 
			},
			{
				"x": -0.7454752198,
				"y": -0.9686796122,
				"z": -0.8675287549,
				"element": "O" 
			},
			{
				"x": -0.4788977621,
				"y": -2.0146748409,
				"z": -0.0053965014,
				"element": "C" 
			},
			{
				"x": -1.666966792,
				"y": -2.9329368947,
				"z": 0.0602821682,
				"element": "C" 
			},
			{
				"x": 0.5650519025,
				"y": -2.1357121044,
				"z": 0.580422967,
				"element": "O" 
			},
			{
				"x": -0.9905957633,
				"y": 0.9439376452,
				"z": 3.9994194589,
				"element": "H" 
			},
			{
				"x": -2.2590826044,
				"y": 1.9233845919,
				"z": 3.2317022472,
				"element": "H" 
			},
			{
				"x": -0.8783877093,
				"y": 2.7347678923,
				"z": 4.0410142648,
				"element": "H" 
			},
			{
				"x": 1.1329888365,
				"y": 2.8611485454,
				"z": 0.8001792713,
				"element": "H" 
			},
			{
				"x": 2.5104186593,
				"y": 3.1424658906,
				"z": -1.2399034964,
				"element": "H" 
			},
			{
				"x": 2.3512620249,
				"y": 1.4631132083,
				"z": -3.0764807257,
				"element": "H" 
			},
			{
				"x": 0.8151588315,
				"y": -0.4900956662,
				"z": -2.8278786194,
				"element": "H" 
			},
			{
				"x": -2.4375151667,
				"y": -2.4379051778,
				"z": 0.6589971177,
				"element": "H" 
			},
			{
				"x": -2.0776428555,
				"y": -3.1147505695,
				"z": -0.935761834,
				"element": "H" 
			},
			{
				"x": -1.3782998768,
				"y": -3.8704426158,
				"z": 0.5348017203,
				"element": "H" 
			}
		],
		 "valence_orbital": [ 
			{
				"type": "occ",
				"energy": -0.30162,
				"method": "rhf"
			},
			{
				"type": "occ",
				"energy": -0.27362,
				"method": "rhf"
			},
			{
				"type": "occ",
				"energy": -0.27157,
				"method": "rhf"
			},
			{
				"type": "occ",
				"energy": -0.26452,
				"method": "rhf"
			},
			{
				"type": "occ",
				"energy": -0.25123,
				"method": "rhf"
			},
			{
				"type": "unocc",
				"energy": -0.05002,
				"method": "rhf"
			},
			{
				"type": "unocc",
				"energy": -0.01074,
				"method": "rhf"
			},
			{
				"type": "unocc",
				"energy": 0.01875,
				"method": "rhf"
			},
			{
				"type": "unocc",
				"energy": 0.05398,
				"method": "rhf"
			},
			{
				"type": "unocc",
				"energy": 0.08714,
				"method": "rhf"
			}
		],
		"cosmo_sigma_profile": { 
			"-0.025": 0.0,
			"-0.024": 0.0,
			"-0.023": 0.0,
			"-0.022": 0.0,
			"-0.021": 0.0,
			"-0.02": 0.0,
			"-0.019": 0.0,
			"-0.018": 0.0,
			"-0.017": 0.0,
			"-0.016": 0.0,
			"-0.015": 0.0,
			"-0.014": 0.0,
			"-0.013": 0.0,
			"-0.012": 0.0,
			"-0.011": 0.0,
			"-0.01": 0.0,
			"-0.009": 0.0,
			"-0.008": 0.277387304795,
			"-0.007": 6.14620140545,
			"-0.006": 17.2171033001,
			"-0.005": 19.7989166866,
			"-0.004": 21.1349908302,
			"-0.003": 23.0357853868,
			"-0.002": 19.044071,
			"-0.001": 14.8178830092,
			"0.0": 13.411945992,
			"0.001": 14.8605671237,
			"0.002": 15.7133757771,
			"0.003": 16.0964709936,
			"0.004": 9.07027721416,
			"0.005": 5.9612383883,
			"0.006": 4.94234529488,
			"0.007": 5.637318151,
			"0.008": 4.89611036471,
			"0.009": 4.51374224017,
			"0.01": 4.50895561597,
			"0.011": 5.88207025943,
			"0.012": 2.75857770197,
			"0.013": 0.151039332839,
			"0.014": 0.0,
			"0.015": 0.0,
			"0.016": 0.0,
			"0.017": 0.0,
			"0.018": 0.0,
			"0.019": 0.0,
			"0.02": 0.0,
			"0.021": 0.0,
			"0.022": 0.0,
			"0.023": 0.0,
			"0.024": 0.0,
			"0.025": 0.0
		}
	}
}
