{
	 "smiles": "CN1NC(=O)C2=C(C)C(CC(O)=O)=C(C)N=C12", 
	 "Tm": 513.15, 
	 "num_atms": 30, 
	 "gaussian": { 
		 "optdone": 1, 
		 "sigma_profile": "yes", 
		 "theory": "DFT", 
		 "functional": "B3LYP", 
		 "basiset": "6-31G**", 
		 "properties": { 
			 "R2extent": 6627.4645, 
			 "electric_dipole_moment_norm": 1.30194008311, 
			 "electric_quadrupole_moment_norm": 21.4722931267, 
			 "total_energy": -816.949895127, 
			 "HOMO_LUMO_gap": 0.16788, 
			 "cosmo_polarized_energy": -18.09, 
			 "cosmo_cavitation_energy": 33.06, 
			 "cosmo_dispersion_energy": -23.96, 
			 "cosmo_repulsion_energy": 1.85, 
			 "cosmo_total_nonelectrostatic_energy": 10.95, 
			 "SMD_solvation_energy": 5.7 
		},
		"coords": [
			{
				"x": 0.1167854138,
				"y": 4.1045348744,
				"z": 2.5151248859,
				"element": "C" 
			},
			{
				"x": 1.2610547036,
				"y": 3.2468150494,
				"z": 2.221234634,
				"element": "N" 
			},
			{
				"x": 2.0676802891,
				"y": 3.648644106,
				"z": 1.1214534551,
				"element": "N" 
			},
			{
				"x": 2.6376646488,
				"y": 2.5304840967,
				"z": 0.4787299599,
				"element": "C" 
			},
			{
				"x": 3.5413228996,
				"y": 2.6028536094,
				"z": -0.3433407171,
				"element": "O" 
			},
			{
				"x": 1.9157256094,
				"y": 1.3858458056,
				"z": 1.0487298497,
				"element": "C" 
			},
			{
				"x": 1.9315590304,
				"y": 0.0112163864,
				"z": 0.7870722036,
				"element": "C" 
			},
			{
				"x": 2.8312915646,
				"y": -0.5500624105,
				"z": -0.2850030904,
				"element": "C" 
			},
			{
				"x": 1.0581402684,
				"y": -0.7759053096,
				"z": 1.5618734533,
				"element": "C" 
			},
			{
				"x": 0.9947383712,
				"y": -2.2852813209,
				"z": 1.3635796357,
				"element": "C" 
			},
			{
				"x": 1.8775798734,
				"y": -3.0196825906,
				"z": 2.3609732085,
				"element": "C" 
			},
			{
				"x": 3.162405441,
				"y": -3.099084103,
				"z": 1.9371677843,
				"element": "O" 
			},
			{
				"x": 1.5186888375,
				"y": -3.4707222974,
				"z": 3.4268821151,
				"element": "O" 
			},
			{
				"x": 0.2193609464,
				"y": -0.1558263178,
				"z": 2.5302308278,
				"element": "C" 
			},
			{
				"x": -0.7625779302,
				"y": -0.9601214643,
				"z": 3.3480330994,
				"element": "C" 
			},
			{
				"x": 0.2222263243,
				"y": 1.1639412693,
				"z": 2.7791427405,
				"element": "N" 
			},
			{
				"x": 1.0828519157,
				"y": 1.8798149038,
				"z": 2.0604281004,
				"element": "C" 
			},
			{
				"x": -0.5093846145,
				"y": 4.2653532091,
				"z": 1.6281964097,
				"element": "H" 
			},
			{
				"x": 0.4670847859,
				"y": 5.069288383,
				"z": 2.8911780291,
				"element": "H" 
			},
			{
				"x": -0.4660323017,
				"y": 3.6082377268,
				"z": 3.2915900771,
				"element": "H" 
			},
			{
				"x": 2.6882559483,
				"y": 4.4267422674,
				"z": 1.3161544447,
				"element": "H" 
			},
			{
				"x": 3.4446965112,
				"y": 0.2424152789,
				"z": -0.7151363575,
				"element": "H" 
			},
			{
				"x": 2.2405947451,
				"y": -1.0049786592,
				"z": -1.0898470158,
				"element": "H" 
			},
			{
				"x": 3.4807202425,
				"y": -1.3310698952,
				"z": 0.1209859665,
				"element": "H" 
			},
			{
				"x": 1.3150471067,
				"y": -2.5481341296,
				"z": 0.3533576804,
				"element": "H" 
			},
			{
				"x": -0.0220170069,
				"y": -2.6546462276,
				"z": 1.5065603073,
				"element": "H" 
			},
			{
				"x": 3.6591549053,
				"y": -3.5362363729,
				"z": 2.6498583572,
				"element": "H" 
			},
			{
				"x": -1.2198805479,
				"y": -0.3092383635,
				"z": 4.0938254195,
				"element": "H" 
			},
			{
				"x": -0.2804620586,
				"y": -1.8066519627,
				"z": 3.8445566059,
				"element": "H" 
			},
			{
				"x": -1.5602759224,
				"y": -1.3682455411,
				"z": 2.7137079301,
				"element": "H" 
			}
		],
		 "valence_orbital": [ 
			{
				"type": "occ",
				"energy": -0.28014,
				"method": "rhf"
			},
			{
				"type": "occ",
				"energy": -0.27625,
				"method": "rhf"
			},
			{
				"type": "occ",
				"energy": -0.26091,
				"method": "rhf"
			},
			{
				"type": "occ",
				"energy": -0.24677,
				"method": "rhf"
			},
			{
				"type": "occ",
				"energy": -0.21326,
				"method": "rhf"
			},
			{
				"type": "unocc",
				"energy": -0.04538,
				"method": "rhf"
			},
			{
				"type": "unocc",
				"energy": -0.0184,
				"method": "rhf"
			},
			{
				"type": "unocc",
				"energy": 0.00741,
				"method": "rhf"
			},
			{
				"type": "unocc",
				"energy": 0.04911,
				"method": "rhf"
			},
			{
				"type": "unocc",
				"energy": 0.06749,
				"method": "rhf"
			}
		],
		"cosmo_sigma_profile": { 
			"-0.025": 0.0,
			"-0.024": 0.0,
			"-0.023": 0.0,
			"-0.022": 0.0,
			"-0.021": 0.0,
			"-0.02": 0.0,
			"-0.019": 0.0427986760074,
			"-0.018": 0.71759988856,
			"-0.017": 1.23549560482,
			"-0.016": 1.07647060232,
			"-0.015": 2.30215647358,
			"-0.014": 1.37665425,
			"-0.013": 1.84728374737,
			"-0.012": 1.49595099068,
			"-0.011": 2.18756052057,
			"-0.01": 1.79052793717,
			"-0.009": 1.40108723182,
			"-0.008": 2.00282375607,
			"-0.007": 4.7103647112,
			"-0.006": 11.2857788556,
			"-0.005": 15.4374915307,
			"-0.004": 15.9607213956,
			"-0.003": 19.8992471113,
			"-0.002": 21.5395830234,
			"-0.001": 24.1151852914,
			"0.0": 28.4719520708,
			"0.001": 19.7044926405,
			"0.002": 11.7584496187,
			"0.003": 7.8924261047,
			"0.004": 8.89631006674,
			"0.005": 8.71249611835,
			"0.006": 7.04832806372,
			"0.007": 6.1246724071,
			"0.008": 4.96319648035,
			"0.009": 4.07665885275,
			"0.01": 5.02695885284,
			"0.011": 6.66421146569,
			"0.012": 4.65760075851,
			"0.013": 5.33941070064,
			"0.014": 2.11699131336,
			"0.015": 0.107428628999,
			"0.016": 0.0,
			"0.017": 0.0,
			"0.018": 0.0,
			"0.019": 0.0,
			"0.02": 0.0,
			"0.021": 0.0,
			"0.022": 0.0,
			"0.023": 0.0,
			"0.024": 0.0,
			"0.025": 0.0
		}
	}
}
