{
	 "smiles": "OC(=O)C1=CC2=C(OCO2)C=C1", 
	 "Tm": 504.15, 
	 "num_atms": 18, 
	 "gaussian": { 
		 "optdone": 1, 
		 "sigma_profile": "yes", 
		 "theory": "DFT", 
		 "functional": "B3LYP", 
		 "basiset": "6-31G**", 
		 "properties": { 
			 "R2extent": 2630.0854, 
			 "electric_dipole_moment_norm": 5.49692535696, 
			 "electric_quadrupole_moment_norm": 16.0336822293, 
			 "total_energy": -609.341854394, 
			 "HOMO_LUMO_gap": 0.1809, 
			 "cosmo_polarized_energy": -15.46, 
			 "cosmo_cavitation_energy": 22.72, 
			 "cosmo_dispersion_energy": -17.49, 
			 "cosmo_repulsion_energy": 1.38, 
			 "cosmo_total_nonelectrostatic_energy": 6.62, 
			 "SMD_solvation_energy": 5.8 
		},
		"coords": [
			{
				"x": 2.0232422371,
				"y": -0.4731792979,
				"z": 4.0666041374,
				"element": "O" 
			},
			{
				"x": 2.374122024,
				"y": -0.8161031755,
				"z": 2.7950074844,
				"element": "C" 
			},
			{
				"x": 3.4851945713,
				"y": -1.2381512175,
				"z": 2.5735087709,
				"element": "O" 
			},
			{
				"x": 1.3280678333,
				"y": -0.6417261108,
				"z": 1.7397286937,
				"element": "C" 
			},
			{
				"x": 0.2183519938,
				"y": 0.2216449675,
				"z": 1.9120526202,
				"element": "C" 
			},
			{
				"x": -0.6771275471,
				"y": 0.3055969535,
				"z": 0.868505737,
				"element": "C" 
			},
			{
				"x": -0.5082841898,
				"y": -0.4201058882,
				"z": -0.3112661927,
				"element": "C" 
			},
			{
				"x": -1.5342808378,
				"y": -0.1466540214,
				"z": -1.1723973822,
				"element": "O" 
			},
			{
				"x": -2.3719232592,
				"y": 0.8123221552,
				"z": -0.5104312689,
				"element": "C" 
			},
			{
				"x": -1.8142792206,
				"y": 1.0674745023,
				"z": 0.7851966167,
				"element": "O" 
			},
			{
				"x": 0.5731184263,
				"y": -1.2594300022,
				"z": -0.5050903345,
				"element": "C" 
			},
			{
				"x": 1.4973499111,
				"y": -1.352032027,
				"z": 0.545662641,
				"element": "C" 
			},
			{
				"x": 1.0678070165,
				"y": -0.3361040721,
				"z": 4.122784764,
				"element": "H" 
			},
			{
				"x": 0.0835090802,
				"y": 0.8366847205,
				"z": 2.7958638848,
				"element": "H" 
			},
			{
				"x": -2.3913413017,
				"y": 1.7419829964,
				"z": -1.0918135759,
				"element": "H" 
			},
			{
				"x": -3.3814632506,
				"y": 0.399716975,
				"z": -0.4004339006,
				"element": "H" 
			},
			{
				"x": 0.6983128639,
				"y": -1.8136912057,
				"z": -1.4280326786,
				"element": "H" 
			},
			{
				"x": 2.3728236493,
				"y": -1.9842462521,
				"z": 0.4517499833,
				"element": "H" 
			}
		],
		 "valence_orbital": [ 
			{
				"type": "occ",
				"energy": -0.3342,
				"method": "rhf"
			},
			{
				"type": "occ",
				"energy": -0.30964,
				"method": "rhf"
			},
			{
				"type": "occ",
				"energy": -0.27096,
				"method": "rhf"
			},
			{
				"type": "occ",
				"energy": -0.26802,
				"method": "rhf"
			},
			{
				"type": "occ",
				"energy": -0.22569,
				"method": "rhf"
			},
			{
				"type": "unocc",
				"energy": -0.04479,
				"method": "rhf"
			},
			{
				"type": "unocc",
				"energy": -0.01736,
				"method": "rhf"
			},
			{
				"type": "unocc",
				"energy": 0.05451,
				"method": "rhf"
			},
			{
				"type": "unocc",
				"energy": 0.06539,
				"method": "rhf"
			},
			{
				"type": "unocc",
				"energy": 0.08441,
				"method": "rhf"
			}
		],
		"cosmo_sigma_profile": { 
			"-0.025": 0.0,
			"-0.024": 0.0,
			"-0.023": 0.0,
			"-0.022": 0.0,
			"-0.021": 0.0,
			"-0.02": 0.0,
			"-0.019": 0.102348864688,
			"-0.018": 0.638176286099,
			"-0.017": 1.09269469469,
			"-0.016": 1.14414556256,
			"-0.015": 1.05742161834,
			"-0.014": 0.981635787933,
			"-0.013": 0.91666801774,
			"-0.012": 1.30282358329,
			"-0.011": 0.933872371168,
			"-0.01": 1.77501487595,
			"-0.009": 1.36414579391,
			"-0.008": 8.31286441033,
			"-0.007": 11.0373754868,
			"-0.006": 11.3656037005,
			"-0.005": 8.15750725182,
			"-0.004": 7.65445533831,
			"-0.003": 7.69730969058,
			"-0.002": 8.43085619234,
			"-0.001": 10.3523073873,
			"0.0": 10.3160756202,
			"0.001": 14.2495763276,
			"0.002": 15.0023143596,
			"0.003": 10.4426337319,
			"0.004": 5.36909884596,
			"0.005": 4.20042880221,
			"0.006": 4.58950145855,
			"0.007": 5.72343920416,
			"0.008": 5.16423183359,
			"0.009": 5.91413426498,
			"0.01": 3.77922053257,
			"0.011": 5.65151636686,
			"0.012": 5.54859174473,
			"0.013": 2.15329629264,
			"0.014": 0.188476756043,
			"0.015": 0.0,
			"0.016": 0.0,
			"0.017": 0.0,
			"0.018": 0.0,
			"0.019": 0.0,
			"0.02": 0.0,
			"0.021": 0.0,
			"0.022": 0.0,
			"0.023": 0.0,
			"0.024": 0.0,
			"0.025": 0.0
		}
	}
}
