{
	 "smiles": "COC1=CC=C(C=C1)N1C(=O)CC(=O)NC1=S", 
	 "Tm": 515.15, 
	 "num_atms": 27, 
	 "gaussian": { 
		 "optdone": 1, 
		 "sigma_profile": "yes", 
		 "theory": "DFT", 
		 "functional": "B3LYP", 
		 "basiset": "6-31G**", 
		 "properties": { 
			 "R2extent": 6897.5811, 
			 "electric_dipole_moment_norm": 2.4957083203, 
			 "electric_quadrupole_moment_norm": 15.1721555288, 
			 "total_energy": -1158.57351857, 
			 "HOMO_LUMO_gap": 0.14551, 
			 "cosmo_polarized_energy": -19.98, 
			 "cosmo_cavitation_energy": 33.82, 
			 "cosmo_dispersion_energy": -24.27, 
			 "cosmo_repulsion_energy": 1.86, 
			 "cosmo_total_nonelectrostatic_energy": 11.42, 
			 "SMD_solvation_energy": 7.25 
		},
		"coords": [
			{
				"x": -0.8976162541,
				"y": 3.0154976637,
				"z": 2.6326508824,
				"element": "C" 
			},
			{
				"x": 0.4399896395,
				"y": 2.6510180905,
				"z": 2.3249808245,
				"element": "O" 
			},
			{
				"x": 0.6563520838,
				"y": 1.7991677564,
				"z": 1.2857491411,
				"element": "C" 
			},
			{
				"x": 2.0003476601,
				"y": 1.4812846817,
				"z": 1.0320263707,
				"element": "C" 
			},
			{
				"x": 2.3293670563,
				"y": 0.6220798325,
				"z": -0.0057092049,
				"element": "C" 
			},
			{
				"x": 1.32064587,
				"y": 0.0769030068,
				"z": -0.8030848475,
				"element": "C" 
			},
			{
				"x": -0.0121786133,
				"y": 0.3796743548,
				"z": -0.5523626948,
				"element": "C" 
			},
			{
				"x": -0.3531884907,
				"y": 1.2432808258,
				"z": 0.4893473661,
				"element": "C" 
			},
			{
				"x": 1.6652395464,
				"y": -0.8446385137,
				"z": -1.8685372339,
				"element": "N" 
			},
			{
				"x": 1.7173703177,
				"y": -2.2150174843,
				"z": -1.515623478,
				"element": "C" 
			},
			{
				"x": 1.4476761431,
				"y": -2.5838265614,
				"z": -0.3935970771,
				"element": "O" 
			},
			{
				"x": 2.1513360889,
				"y": -3.1968253335,
				"z": -2.5854215906,
				"element": "C" 
			},
			{
				"x": 2.3038366781,
				"y": -2.6752166995,
				"z": -3.9920374808,
				"element": "C" 
			},
			{
				"x": 2.5303800748,
				"y": -3.3790286371,
				"z": -4.955397905,
				"element": "O" 
			},
			{
				"x": 2.1879511458,
				"y": -1.2976487911,
				"z": -4.1167303103,
				"element": "N" 
			},
			{
				"x": 1.8971064938,
				"y": -0.3523482525,
				"z": -3.1487955659,
				"element": "C" 
			},
			{
				"x": 1.8345350018,
				"y": 1.2518339377,
				"z": -3.5643411018,
				"element": "S" 
			},
			{
				"x": -0.8353687061,
				"y": 3.6958334043,
				"z": 3.483032453,
				"element": "H" 
			},
			{
				"x": -1.3791218995,
				"y": 3.5311676353,
				"z": 1.7921554497,
				"element": "H" 
			},
			{
				"x": -1.5001765931,
				"y": 2.1420938794,
				"z": 2.9125922188,
				"element": "H" 
			},
			{
				"x": 2.7652138807,
				"y": 1.9208929491,
				"z": 1.6628333913,
				"element": "H" 
			},
			{
				"x": 3.3676317884,
				"y": 0.3767378642,
				"z": -0.2043048242,
				"element": "H" 
			},
			{
				"x": -0.7901910485,
				"y": -0.0536219915,
				"z": -1.1725469071,
				"element": "H" 
			},
			{
				"x": -1.3967045925,
				"y": 1.4708957951,
				"z": 0.6681627283,
				"element": "H" 
			},
			{
				"x": 1.4483663775,
				"y": -4.0347358365,
				"z": -2.5891198036,
				"element": "H" 
			},
			{
				"x": 3.1137129507,
				"y": -3.6214678914,
				"z": -2.2741386461,
				"element": "H" 
			},
			{
				"x": 2.3233874006,
				"y": -0.9236856847,
				"z": -5.0491821543,
				"element": "H" 
			}
		],
		 "valence_orbital": [ 
			{
				"type": "occ",
				"energy": -0.28263,
				"method": "rhf"
			},
			{
				"type": "occ",
				"energy": -0.26425,
				"method": "rhf"
			},
			{
				"type": "occ",
				"energy": -0.25091,
				"method": "rhf"
			},
			{
				"type": "occ",
				"energy": -0.2413,
				"method": "rhf"
			},
			{
				"type": "occ",
				"energy": -0.22113,
				"method": "rhf"
			},
			{
				"type": "unocc",
				"energy": -0.07562,
				"method": "rhf"
			},
			{
				"type": "unocc",
				"energy": -0.0138,
				"method": "rhf"
			},
			{
				"type": "unocc",
				"energy": -0.00957,
				"method": "rhf"
			},
			{
				"type": "unocc",
				"energy": -0.00462,
				"method": "rhf"
			},
			{
				"type": "unocc",
				"energy": 0.02015,
				"method": "rhf"
			}
		],
		"cosmo_sigma_profile": { 
			"-0.025": 0.0,
			"-0.024": 0.0,
			"-0.023": 0.0,
			"-0.022": 0.0,
			"-0.021": 0.0,
			"-0.02": 0.0,
			"-0.019": 0.0,
			"-0.018": 0.0,
			"-0.017": 0.0,
			"-0.016": 0.307619411534,
			"-0.015": 1.15411156758,
			"-0.014": 0.467630113955,
			"-0.013": 0.558647120968,
			"-0.012": 1.19466967086,
			"-0.011": 3.32614225925,
			"-0.01": 6.61940134805,
			"-0.009": 6.72221707607,
			"-0.008": 5.87819564505,
			"-0.007": 13.1205386882,
			"-0.006": 20.5583615775,
			"-0.005": 21.2847626113,
			"-0.004": 18.6577849323,
			"-0.003": 17.282385475,
			"-0.002": 11.5025444802,
			"-0.001": 9.15060016861,
			"0.0": 8.24207565574,
			"0.001": 10.6626440892,
			"0.002": 12.2898184894,
			"0.003": 14.0996212928,
			"0.004": 13.9564380839,
			"0.005": 11.1780820507,
			"0.006": 12.7347967009,
			"0.007": 11.0867327693,
			"0.008": 9.19171948096,
			"0.009": 10.3688160614,
			"0.01": 7.90765450102,
			"0.011": 10.2339665727,
			"0.012": 3.22803456755,
			"0.013": 0.00366599593233,
			"0.014": 0.0,
			"0.015": 0.0,
			"0.016": 0.0,
			"0.017": 0.0,
			"0.018": 0.0,
			"0.019": 0.0,
			"0.02": 0.0,
			"0.021": 0.0,
			"0.022": 0.0,
			"0.023": 0.0,
			"0.024": 0.0,
			"0.025": 0.0
		}
	}
}
