{
	 "smiles": "NC1=CC2=C(OCCO2)C(=C1)C(O)=O", 
	 "Tm": 487.15, 
	 "num_atms": 23, 
	 "gaussian": { 
		 "optdone": 1, 
		 "sigma_profile": "yes", 
		 "theory": "DFT", 
		 "functional": "B3LYP", 
		 "basiset": "6-31G**", 
		 "properties": { 
			 "R2extent": 3613.0212, 
			 "electric_dipole_moment_norm": 6.22329859881, 
			 "electric_quadrupole_moment_norm": 15.4817337127, 
			 "total_energy": -704.024850761, 
			 "HOMO_LUMO_gap": 0.16461, 
			 "cosmo_polarized_energy": -18.72, 
			 "cosmo_cavitation_energy": 26.52, 
			 "cosmo_dispersion_energy": -20.36, 
			 "cosmo_repulsion_energy": 1.6, 
			 "cosmo_total_nonelectrostatic_energy": 7.76, 
			 "SMD_solvation_energy": 5.9 
		},
		"coords": [
			{
				"x": -0.0193919837,
				"y": -3.8374546918,
				"z": 1.9902308507,
				"element": "N" 
			},
			{
				"x": 0.1963630978,
				"y": -2.9481366123,
				"z": 0.9362519335,
				"element": "C" 
			},
			{
				"x": 0.8803708081,
				"y": -3.36073236,
				"z": -0.216730446,
				"element": "C" 
			},
			{
				"x": 1.1500528157,
				"y": -2.4564884245,
				"z": -1.2402557352,
				"element": "C" 
			},
			{
				"x": 0.7341646304,
				"y": -1.1205611692,
				"z": -1.1387669463,
				"element": "C" 
			},
			{
				"x": 1.0002428925,
				"y": -0.2183876827,
				"z": -2.1635773651,
				"element": "O" 
			},
			{
				"x": 1.2958081867,
				"y": -0.8338270705,
				"z": -3.4220966253,
				"element": "C" 
			},
			{
				"x": 2.3326858407,
				"y": -1.9223505235,
				"z": -3.2086647508,
				"element": "C" 
			},
			{
				"x": 1.8156164649,
				"y": -2.9318394463,
				"z": -2.3443614225,
				"element": "O" 
			},
			{
				"x": 0.0477298911,
				"y": -0.6924334962,
				"z": 0.0102358189,
				"element": "C" 
			},
			{
				"x": -0.205160549,
				"y": -1.6092628709,
				"z": 1.0344074019,
				"element": "C" 
			},
			{
				"x": -0.4667164846,
				"y": 0.7102378923,
				"z": 0.2311784593,
				"element": "C" 
			},
			{
				"x": -0.2739920589,
				"y": 1.6107280128,
				"z": -0.751637778,
				"element": "O" 
			},
			{
				"x": -1.0418694001,
				"y": 1.0269192316,
				"z": 1.250001919,
				"element": "O" 
			},
			{
				"x": -0.0693713361,
				"y": -4.8126531897,
				"z": 1.7302318939,
				"element": "H" 
			},
			{
				"x": -0.7645065463,
				"y": -3.5758515887,
				"z": 2.6208388721,
				"element": "H" 
			},
			{
				"x": 1.2251215542,
				"y": -4.3836281127,
				"z": -0.3339481519,
				"element": "H" 
			},
			{
				"x": 0.3792961226,
				"y": -1.2570594742,
				"z": -3.853009819,
				"element": "H" 
			},
			{
				"x": 1.6717446403,
				"y": -0.0412314365,
				"z": -4.0727486851,
				"element": "H" 
			},
			{
				"x": 2.5849965938,
				"y": -2.4184153057,
				"z": -4.1492791712,
				"element": "H" 
			},
			{
				"x": 3.24426714,
				"y": -1.487411127,
				"z": -2.7770961306,
				"element": "H" 
			},
			{
				"x": -0.7317692017,
				"y": -1.2425743907,
				"z": 1.9089422442,
				"element": "H" 
			},
			{
				"x": 0.1970168815,
				"y": 1.1940138364,
				"z": -1.4977463663,
				"element": "H" 
			}
		],
		 "valence_orbital": [ 
			{
				"type": "occ",
				"energy": -0.30101,
				"method": "rhf"
			},
			{
				"type": "occ",
				"energy": -0.28259,
				"method": "rhf"
			},
			{
				"type": "occ",
				"energy": -0.25825,
				"method": "rhf"
			},
			{
				"type": "occ",
				"energy": -0.23902,
				"method": "rhf"
			},
			{
				"type": "occ",
				"energy": -0.20274,
				"method": "rhf"
			},
			{
				"type": "unocc",
				"energy": -0.03813,
				"method": "rhf"
			},
			{
				"type": "unocc",
				"energy": 0.01377,
				"method": "rhf"
			},
			{
				"type": "unocc",
				"energy": 0.05921,
				"method": "rhf"
			},
			{
				"type": "unocc",
				"energy": 0.06898,
				"method": "rhf"
			},
			{
				"type": "unocc",
				"energy": 0.08261,
				"method": "rhf"
			}
		],
		"cosmo_sigma_profile": { 
			"-0.025": 0.0,
			"-0.024": 0.0,
			"-0.023": 0.0,
			"-0.022": 0.0,
			"-0.021": 0.0,
			"-0.02": 0.0,
			"-0.019": 0.0,
			"-0.018": 0.0,
			"-0.017": 0.0,
			"-0.016": 0.0,
			"-0.015": 0.0,
			"-0.014": 0.0,
			"-0.013": 0.858407712963,
			"-0.012": 2.57595867825,
			"-0.011": 3.11943824576,
			"-0.01": 3.36762360614,
			"-0.009": 3.27270419403,
			"-0.008": 6.75029577223,
			"-0.007": 13.7980927841,
			"-0.006": 17.0399467118,
			"-0.005": 14.6118404904,
			"-0.004": 13.0992350325,
			"-0.003": 9.89204149497,
			"-0.002": 9.75161101766,
			"-0.001": 8.43095315356,
			"0.0": 8.09437333351,
			"0.001": 8.67186220231,
			"0.002": 10.5225173972,
			"0.003": 15.8747628769,
			"0.004": 12.9525378642,
			"0.005": 5.87281354503,
			"0.006": 4.61621426334,
			"0.007": 4.70004781203,
			"0.008": 4.92030902675,
			"0.009": 4.89010392263,
			"0.01": 5.18203269848,
			"0.011": 6.40619895324,
			"0.012": 6.6161252091,
			"0.013": 3.21811861009,
			"0.014": 1.78146470337,
			"0.015": 0.0133621165692,
			"0.016": 0.0,
			"0.017": 0.0,
			"0.018": 0.0,
			"0.019": 0.0,
			"0.02": 0.0,
			"0.021": 0.0,
			"0.022": 0.0,
			"0.023": 0.0,
			"0.024": 0.0,
			"0.025": 0.0
		}
	}
}
