{
	 "smiles": "CC(=O)C1=CC=C(C=C1)C(C)(C)C", 
	 "Tm": 290.65, 
	 "num_atms": 29, 
	 "gaussian": { 
		 "optdone": 1, 
		 "sigma_profile": "yes", 
		 "theory": "DFT", 
		 "functional": "B3LYP", 
		 "basiset": "6-31G**", 
		 "properties": { 
			 "R2extent": 3295.585, 
			 "electric_dipole_moment_norm": 3.40117213031, 
			 "electric_quadrupole_moment_norm": 11.5597519005, 
			 "total_energy": -542.164210084, 
			 "HOMO_LUMO_gap": 0.19291, 
			 "cosmo_polarized_energy": -8.18, 
			 "cosmo_cavitation_energy": 30.72, 
			 "cosmo_dispersion_energy": -21.78, 
			 "cosmo_repulsion_energy": 1.7, 
			 "cosmo_total_nonelectrostatic_energy": 10.65, 
			 "SMD_solvation_energy": 6.09 
		},
		"coords": [
			{
				"x": -1.9011398232,
				"y": 0.0453599218,
				"z": 3.979564569,
				"element": "C" 
			},
			{
				"x": -1.8787643135,
				"y": 0.7651736921,
				"z": 2.6405033984,
				"element": "C" 
			},
			{
				"x": -2.5990732432,
				"y": 1.7338279517,
				"z": 2.4463952403,
				"element": "O" 
			},
			{
				"x": -0.9613129878,
				"y": 0.2670780519,
				"z": 1.5676836822,
				"element": "C" 
			},
			{
				"x": -0.9469083877,
				"y": 0.9369622758,
				"z": 0.3336197825,
				"element": "C" 
			},
			{
				"x": -0.114324718,
				"y": 0.5137596898,
				"z": -0.692567623,
				"element": "C" 
			},
			{
				"x": 0.7419716734,
				"y": -0.5944093699,
				"z": -0.539320144,
				"element": "C" 
			},
			{
				"x": 0.7204843582,
				"y": -1.2562635174,
				"z": 0.6962678485,
				"element": "C" 
			},
			{
				"x": -0.1148301943,
				"y": -0.8354524269,
				"z": 1.7324524852,
				"element": "C" 
			},
			{
				"x": 1.6482419001,
				"y": -1.0295878291,
				"z": -1.703942045,
				"element": "C" 
			},
			{
				"x": 2.5950728004,
				"y": 0.1359663563,
				"z": -2.0789393415,
				"element": "C" 
			},
			{
				"x": 0.7713455339,
				"y": -1.3920344849,
				"z": -2.9267735536,
				"element": "C" 
			},
			{
				"x": 2.5113155129,
				"y": -2.2557065515,
				"z": -1.3506938269,
				"element": "C" 
			},
			{
				"x": -2.6208726581,
				"y": 0.542496355,
				"z": 4.6304323032,
				"element": "H" 
			},
			{
				"x": -2.1868806583,
				"y": -1.0051936461,
				"z": 3.8567946312,
				"element": "H" 
			},
			{
				"x": -0.9124825579,
				"y": 0.0612489496,
				"z": 4.4514596427,
				"element": "H" 
			},
			{
				"x": -1.6034280755,
				"y": 1.7915331134,
				"z": 0.2070896145,
				"element": "H" 
			},
			{
				"x": -0.1298860282,
				"y": 1.0560219769,
				"z": -1.6333516001,
				"element": "H" 
			},
			{
				"x": 1.3599804588,
				"y": -2.1145447313,
				"z": 0.8661179534,
				"element": "H" 
			},
			{
				"x": -0.0975321279,
				"y": -1.3790912099,
				"z": 2.6719802008,
				"element": "H" 
			},
			{
				"x": 3.233109708,
				"y": 0.4107042529,
				"z": -1.2326084035,
				"element": "H" 
			},
			{
				"x": 2.042292122,
				"y": 1.029110501,
				"z": -2.3841927889,
				"element": "H" 
			},
			{
				"x": 3.2434478076,
				"y": -0.1557895951,
				"z": -2.9126667451,
				"element": "H" 
			},
			{
				"x": 0.1623627393,
				"y": -0.5458375899,
				"z": -3.2577572048,
				"element": "H" 
			},
			{
				"x": 0.0940732323,
				"y": -2.2197385053,
				"z": -2.6921270692,
				"element": "H" 
			},
			{
				"x": 1.4026812271,
				"y": -1.6977156731,
				"z": -3.7685567832,
				"element": "H" 
			},
			{
				"x": 3.1356769314,
				"y": -2.5250974238,
				"z": -2.20856143,
				"element": "H" 
			},
			{
				"x": 1.8985363614,
				"y": -3.1286650449,
				"z": -1.1028459246,
				"element": "H" 
			},
			{
				"x": 3.180143407,
				"y": -2.0550154892,
				"z": -0.5072568686,
				"element": "H" 
			}
		],
		 "valence_orbital": [ 
			{
				"type": "occ",
				"energy": -0.3281,
				"method": "rhf"
			},
			{
				"type": "occ",
				"energy": -0.32085,
				"method": "rhf"
			},
			{
				"type": "occ",
				"energy": -0.25541,
				"method": "rhf"
			},
			{
				"type": "occ",
				"energy": -0.24736,
				"method": "rhf"
			},
			{
				"type": "occ",
				"energy": -0.2431,
				"method": "rhf"
			},
			{
				"type": "unocc",
				"energy": -0.05019,
				"method": "rhf"
			},
			{
				"type": "unocc",
				"energy": -0.00588,
				"method": "rhf"
			},
			{
				"type": "unocc",
				"energy": 0.04308,
				"method": "rhf"
			},
			{
				"type": "unocc",
				"energy": 0.0771,
				"method": "rhf"
			},
			{
				"type": "unocc",
				"energy": 0.09813,
				"method": "rhf"
			}
		],
		"cosmo_sigma_profile": { 
			"-0.025": 0.0,
			"-0.024": 0.0,
			"-0.023": 0.0,
			"-0.022": 0.0,
			"-0.021": 0.0,
			"-0.02": 0.0,
			"-0.019": 0.0,
			"-0.018": 0.0,
			"-0.017": 0.0,
			"-0.016": 0.0,
			"-0.015": 0.0,
			"-0.014": 0.0,
			"-0.013": 0.0,
			"-0.012": 0.0,
			"-0.011": 0.0,
			"-0.01": 0.0,
			"-0.009": 0.0,
			"-0.008": 0.0,
			"-0.007": 0.185023637854,
			"-0.006": 8.2535683417,
			"-0.005": 14.991242237,
			"-0.004": 15.6754873562,
			"-0.003": 28.8325698351,
			"-0.002": 28.216733748,
			"-0.001": 29.0096290718,
			"0.0": 24.1915013058,
			"0.001": 28.4902011291,
			"0.002": 14.1678945475,
			"0.003": 11.3150192944,
			"0.004": 11.4505533092,
			"0.005": 7.71386893,
			"0.006": 1.96704547113,
			"0.007": 1.72637467727,
			"0.008": 1.09661164131,
			"0.009": 1.9893023343,
			"0.01": 2.11656133005,
			"0.011": 2.75144949396,
			"0.012": 3.95605874416,
			"0.013": 2.30629258447,
			"0.014": 0.368388389694,
			"0.015": 0.0,
			"0.016": 0.0,
			"0.017": 0.0,
			"0.018": 0.0,
			"0.019": 0.0,
			"0.02": 0.0,
			"0.021": 0.0,
			"0.022": 0.0,
			"0.023": 0.0,
			"0.024": 0.0,
			"0.025": 0.0
		}
	}
}
