{
	 "smiles": "O=S(=O)(NC1=CC2=C(C=NN2)C=C1)C1=CC2=C(CCC2)C=C1", 
	 "Tm": 442.15, 
	 "num_atms": 37, 
	 "gaussian": { 
		 "optdone": 1, 
		 "sigma_profile": "yes", 
		 "theory": "DFT", 
		 "functional": "B3LYP", 
		 "basiset": "6-31G**", 
		 "properties": { 
			 "R2extent": 10948.515, 
			 "electric_dipole_moment_norm": 6.43181255479, 
			 "electric_quadrupole_moment_norm": 10.1830453097, 
			 "total_energy": -1331.55713773, 
			 "HOMO_LUMO_gap": 0.17341, 
			 "cosmo_polarized_energy": -20.76, 
			 "cosmo_cavitation_energy": 41.96, 
			 "cosmo_dispersion_energy": -30.93, 
			 "cosmo_repulsion_energy": 2.3, 
			 "cosmo_total_nonelectrostatic_energy": 13.34, 
			 "SMD_solvation_energy": 4.55 
		},
		"coords": [
			{
				"x": -1.8215823574,
				"y": -1.063634876,
				"z": 0.3332411374,
				"element": "O" 
			},
			{
				"x": -0.6155760752,
				"y": -0.2437678657,
				"z": 0.1898877951,
				"element": "S" 
			},
			{
				"x": -0.4813548749,
				"y": 1.0052891896,
				"z": 0.9501862778,
				"element": "O" 
			},
			{
				"x": -0.4102512073,
				"y": 0.0289526308,
				"z": -1.4998593959,
				"element": "N" 
			},
			{
				"x": -1.4384896171,
				"y": 0.7020768738,
				"z": -2.2325738717,
				"element": "C" 
			},
			{
				"x": -2.721673906,
				"y": 0.1687251973,
				"z": -2.2923235669,
				"element": "C" 
			},
			{
				"x": -3.6550214603,
				"y": 0.8681377385,
				"z": -3.0695385257,
				"element": "C" 
			},
			{
				"x": -3.3311570853,
				"y": 2.040994592,
				"z": -3.7988218371,
				"element": "C" 
			},
			{
				"x": -4.5507543073,
				"y": 2.4000498029,
				"z": -4.451338923,
				"element": "C" 
			},
			{
				"x": -5.5238018607,
				"y": 1.5538583725,
				"z": -4.1650785947,
				"element": "N" 
			},
			{
				"x": -4.9749409256,
				"y": 0.628117901,
				"z": -3.3312649671,
				"element": "N" 
			},
			{
				"x": -2.0205258343,
				"y": 2.5456710085,
				"z": -3.72965653,
				"element": "C" 
			},
			{
				"x": -1.0958391231,
				"y": 1.8850278995,
				"z": -2.9416061033,
				"element": "C" 
			},
			{
				"x": 0.8413162323,
				"y": -1.2394233703,
				"z": 0.4892755478,
				"element": "C" 
			},
			{
				"x": 1.8699255238,
				"y": -0.7070149388,
				"z": 1.2723752262,
				"element": "C" 
			},
			{
				"x": 2.9895108913,
				"y": -1.5008327892,
				"z": 1.5098861565,
				"element": "C" 
			},
			{
				"x": 3.068251069,
				"y": -2.7975145565,
				"z": 0.9792271667,
				"element": "C" 
			},
			{
				"x": 4.365008517,
				"y": -3.458206169,
				"z": 1.3948071823,
				"element": "C" 
			},
			{
				"x": 5.2356554527,
				"y": -2.2651506105,
				"z": 1.8652036425,
				"element": "C" 
			},
			{
				"x": 4.2245139353,
				"y": -1.1851897034,
				"z": 2.3278957273,
				"element": "C" 
			},
			{
				"x": 2.0275987465,
				"y": -3.3179872737,
				"z": 0.208051232,
				"element": "C" 
			},
			{
				"x": 0.9011150712,
				"y": -2.5332726057,
				"z": -0.0394767113,
				"element": "C" 
			},
			{
				"x": 0.4949635601,
				"y": 0.4761564259,
				"z": -1.6282625578,
				"element": "H" 
			},
			{
				"x": -2.9710282827,
				"y": -0.7352082929,
				"z": -1.7518835639,
				"element": "H" 
			},
			{
				"x": -4.7435431915,
				"y": 3.2377644916,
				"z": -5.1083136608,
				"element": "H" 
			},
			{
				"x": -5.5572585081,
				"y": -0.1114467176,
				"z": -2.9731773806,
				"element": "H" 
			},
			{
				"x": -1.7378772505,
				"y": 3.4435479129,
				"z": -4.2709395401,
				"element": "H" 
			},
			{
				"x": -0.0839873113,
				"y": 2.2723465044,
				"z": -2.8562070939,
				"element": "H" 
			},
			{
				"x": 1.7750419308,
				"y": 0.2964117944,
				"z": 1.6744326551,
				"element": "H" 
			},
			{
				"x": 4.8303769928,
				"y": -4.0374391356,
				"z": 0.5906253089,
				"element": "H" 
			},
			{
				"x": 4.177320805,
				"y": -4.1585990467,
				"z": 2.2209341385,
				"element": "H" 
			},
			{
				"x": 5.9492563867,
				"y": -2.5416567719,
				"z": 2.6456886978,
				"element": "H" 
			},
			{
				"x": 5.8107927273,
				"y": -1.8812486417,
				"z": 1.0153748796,
				"element": "H" 
			},
			{
				"x": 4.5918600347,
				"y": -0.1647916936,
				"z": 2.178804984,
				"element": "H" 
			},
			{
				"x": 4.0012570026,
				"y": -1.2879540445,
				"z": 3.3989842745,
				"element": "H" 
			},
			{
				"x": 2.0876683272,
				"y": -4.3230469766,
				"z": -0.2002657284,
				"element": "H" 
			},
			{
				"x": 0.0774299723,
				"y": -2.9121422559,
				"z": -0.6343934776,
				"element": "H" 
			}
		],
		 "valence_orbital": [ 
			{
				"type": "occ",
				"energy": -0.28043,
				"method": "rhf"
			},
			{
				"type": "occ",
				"energy": -0.27013,
				"method": "rhf"
			},
			{
				"type": "occ",
				"energy": -0.25666,
				"method": "rhf"
			},
			{
				"type": "occ",
				"energy": -0.2291,
				"method": "rhf"
			},
			{
				"type": "occ",
				"energy": -0.21407,
				"method": "rhf"
			},
			{
				"type": "unocc",
				"energy": -0.04066,
				"method": "rhf"
			},
			{
				"type": "unocc",
				"energy": -0.02825,
				"method": "rhf"
			},
			{
				"type": "unocc",
				"energy": -0.02218,
				"method": "rhf"
			},
			{
				"type": "unocc",
				"energy": 0.01517,
				"method": "rhf"
			},
			{
				"type": "unocc",
				"energy": 0.05203,
				"method": "rhf"
			}
		],
		"cosmo_sigma_profile": { 
			"-0.025": 0.0,
			"-0.024": 0.0,
			"-0.023": 0.0,
			"-0.022": 0.0,
			"-0.021": 0.0,
			"-0.02": 0.0,
			"-0.019": 0.0,
			"-0.018": 0.0,
			"-0.017": 0.111438154914,
			"-0.016": 1.85901159189,
			"-0.015": 2.4388294983,
			"-0.014": 2.38204145342,
			"-0.013": 2.12942569432,
			"-0.012": 2.09864271893,
			"-0.011": 2.23430444965,
			"-0.01": 2.66872161977,
			"-0.009": 2.54738084055,
			"-0.008": 3.73976648071,
			"-0.007": 7.22077638119,
			"-0.006": 12.0987848942,
			"-0.005": 14.7150832104,
			"-0.004": 24.2138236396,
			"-0.003": 26.6782395666,
			"-0.002": 30.4293516459,
			"-0.001": 25.0670728548,
			"0.0": 24.2384153954,
			"0.001": 17.9042835167,
			"0.002": 23.2406935421,
			"0.003": 32.6120226586,
			"0.004": 19.661315833,
			"0.005": 8.68018817626,
			"0.006": 5.72097030185,
			"0.007": 5.41929343133,
			"0.008": 5.74501258364,
			"0.009": 5.26139439971,
			"0.01": 8.50918206691,
			"0.011": 9.14433817486,
			"0.012": 2.81658576626,
			"0.013": 1.14255620955,
			"0.014": 0.911476704637,
			"0.015": 1.18740588995,
			"0.016": 0.136487916105,
			"0.017": 0.0,
			"0.018": 0.0,
			"0.019": 0.0,
			"0.02": 0.0,
			"0.021": 0.0,
			"0.022": 0.0,
			"0.023": 0.0,
			"0.024": 0.0,
			"0.025": 0.0
		}
	}
}
