{
	 "smiles": "N#CC1=C(OC(=N1)C1=CC=CO1)N1CCNCC1", 
	 "Tm": 403.15, 
	 "num_atms": 30, 
	 "gaussian": { 
		 "optdone": 1, 
		 "sigma_profile": "yes", 
		 "theory": "DFT", 
		 "functional": "B3LYP", 
		 "basiset": "6-31G**", 
		 "properties": { 
			 "R2extent": 5725.3769, 
			 "electric_dipole_moment_norm": 5.72089910241, 
			 "electric_quadrupole_moment_norm": 27.5523279514, 
			 "total_energy": -833.884638924, 
			 "HOMO_LUMO_gap": 0.15461, 
			 "cosmo_polarized_energy": -17.3, 
			 "cosmo_cavitation_energy": 34.88, 
			 "cosmo_dispersion_energy": -25.0, 
			 "cosmo_repulsion_energy": 1.92, 
			 "cosmo_total_nonelectrostatic_energy": 11.81, 
			 "SMD_solvation_energy": 3.22 
		},
		"coords": [
			{
				"x": -2.5615811466,
				"y": 3.0627036959,
				"z": -2.0535144268,
				"element": "N" 
			},
			{
				"x": -1.6510038213,
				"y": 2.3869756894,
				"z": -1.7807197779,
				"element": "C" 
			},
			{
				"x": -0.5517921792,
				"y": 1.5646363775,
				"z": -1.4385995543,
				"element": "C" 
			},
			{
				"x": -0.4667954051,
				"y": 0.5776187938,
				"z": -0.4582456694,
				"element": "C" 
			},
			{
				"x": 0.8023213206,
				"y": 0.089108944,
				"z": -0.4856397162,
				"element": "O" 
			},
			{
				"x": 1.4449923431,
				"y": 0.8037143553,
				"z": -1.4890329647,
				"element": "C" 
			},
			{
				"x": 0.6871072418,
				"y": 1.6718216098,
				"z": -2.0726080695,
				"element": "N" 
			},
			{
				"x": 2.8293335495,
				"y": 0.5042287603,
				"z": -1.7430779985,
				"element": "C" 
			},
			{
				"x": 3.7254948462,
				"y": 1.0233037798,
				"z": -2.6415128536,
				"element": "C" 
			},
			{
				"x": 4.951642826,
				"y": 0.3248842215,
				"z": -2.4238225078,
				"element": "C" 
			},
			{
				"x": 4.7147111692,
				"y": -0.5621472484,
				"z": -1.4155573706,
				"element": "C" 
			},
			{
				"x": 3.4243299921,
				"y": -0.4675535891,
				"z": -0.9871385717,
				"element": "O" 
			},
			{
				"x": -1.3207131247,
				"y": 0.0409951672,
				"z": 0.4367563877,
				"element": "N" 
			},
			{
				"x": -0.8651167336,
				"y": -0.9160903356,
				"z": 1.4561031713,
				"element": "C" 
			},
			{
				"x": -1.6271377141,
				"y": -0.6833901684,
				"z": 2.7595101244,
				"element": "C" 
			},
			{
				"x": -3.0711741929,
				"y": -0.8859237993,
				"z": 2.5652508418,
				"element": "N" 
			},
			{
				"x": -3.5393919455,
				"y": -0.6262324192,
				"z": 1.1992955182,
				"element": "C" 
			},
			{
				"x": -2.7347589963,
				"y": 0.4438066336,
				"z": 0.4522541594,
				"element": "C" 
			},
			{
				"x": 3.5198567256,
				"y": 1.8032445165,
				"z": -3.3590208407,
				"element": "H" 
			},
			{
				"x": 5.8850275008,
				"y": 0.4659107353,
				"z": -2.9491916433,
				"element": "H" 
			},
			{
				"x": 5.3224882335,
				"y": -1.2955854941,
				"z": -0.9093977128,
				"element": "H" 
			},
			{
				"x": 0.2040870881,
				"y": -0.7751585101,
				"z": 1.6199656229,
				"element": "H" 
			},
			{
				"x": -1.0127136099,
				"y": -1.9480471687,
				"z": 1.1094907959,
				"element": "H" 
			},
			{
				"x": -1.2524733594,
				"y": -1.3872310723,
				"z": 3.513616789,
				"element": "H" 
			},
			{
				"x": -1.3832434317,
				"y": 0.3306076399,
				"z": 3.1158907309,
				"element": "H" 
			},
			{
				"x": -3.5869561673,
				"y": -0.315439659,
				"z": 3.2256820271,
				"element": "H" 
			},
			{
				"x": -3.5015963101,
				"y": -1.5558553381,
				"z": 0.6160432983,
				"element": "H" 
			},
			{
				"x": -4.5900068695,
				"y": -0.3250679608,
				"z": 1.234211264,
				"element": "H" 
			},
			{
				"x": -2.8516780571,
				"y": 1.4251238296,
				"z": 0.9329674099,
				"element": "H" 
			},
			{
				"x": -3.0955597722,
				"y": 0.5388380137,
				"z": -0.5761584631,
				"element": "H" 
			}
		],
		 "valence_orbital": [ 
			{
				"type": "occ",
				"energy": -0.29944,
				"method": "rhf"
			},
			{
				"type": "occ",
				"energy": -0.28848,
				"method": "rhf"
			},
			{
				"type": "occ",
				"energy": -0.25211,
				"method": "rhf"
			},
			{
				"type": "occ",
				"energy": -0.23451,
				"method": "rhf"
			},
			{
				"type": "occ",
				"energy": -0.19243,
				"method": "rhf"
			},
			{
				"type": "unocc",
				"energy": -0.03782,
				"method": "rhf"
			},
			{
				"type": "unocc",
				"energy": -0.001,
				"method": "rhf"
			},
			{
				"type": "unocc",
				"energy": 0.03129,
				"method": "rhf"
			},
			{
				"type": "unocc",
				"energy": 0.04143,
				"method": "rhf"
			},
			{
				"type": "unocc",
				"energy": 0.05761,
				"method": "rhf"
			}
		],
		"cosmo_sigma_profile": { 
			"-0.025": 0.0,
			"-0.024": 0.0,
			"-0.023": 0.0,
			"-0.022": 0.0,
			"-0.021": 0.0,
			"-0.02": 0.0,
			"-0.019": 0.0,
			"-0.018": 0.0,
			"-0.017": 0.0,
			"-0.016": 0.0,
			"-0.015": 0.0,
			"-0.014": 0.0,
			"-0.013": 0.0,
			"-0.012": 0.0,
			"-0.011": 0.337013173187,
			"-0.01": 2.1136891468,
			"-0.009": 3.61479911541,
			"-0.008": 5.08255624768,
			"-0.007": 7.16401447523,
			"-0.006": 12.3200101116,
			"-0.005": 24.8835141427,
			"-0.004": 31.3161166892,
			"-0.003": 25.9207331952,
			"-0.002": 23.0730763544,
			"-0.001": 15.2692346467,
			"0.0": 14.6876101827,
			"0.001": 16.6632048184,
			"0.002": 16.7290325,
			"0.003": 15.0303136574,
			"0.004": 13.0558790211,
			"0.005": 7.56261109107,
			"0.006": 5.74538194668,
			"0.007": 7.20450784973,
			"0.008": 4.80225437557,
			"0.009": 4.98933496415,
			"0.01": 4.9951370797,
			"0.011": 4.4440049867,
			"0.012": 4.67436663085,
			"0.013": 3.76996627237,
			"0.014": 1.81775458331,
			"0.015": 0.242561303412,
			"0.016": 0.752319564089,
			"0.017": 0.472629512855,
			"0.018": 0.164873077844,
			"0.019": 0.0,
			"0.02": 0.0,
			"0.021": 0.0,
			"0.022": 0.0,
			"0.023": 0.0,
			"0.024": 0.0,
			"0.025": 0.0
		}
	}
}
