{
	 "smiles": "NC1=C(C=O)C=CC=N1", 
	 "Tm": 374.15, 
	 "num_atms": 15, 
	 "gaussian": { 
		 "optdone": 1, 
		 "sigma_profile": "yes", 
		 "theory": "DFT", 
		 "functional": "B3LYP", 
		 "basiset": "6-31G**", 
		 "properties": { 
			 "R2extent": 1500.9559, 
			 "electric_dipole_moment_norm": 1.74567257812, 
			 "electric_quadrupole_moment_norm": 6.83599633338, 
			 "total_energy": -416.986922628, 
			 "HOMO_LUMO_gap": 0.15807, 
			 "cosmo_polarized_energy": -8.91, 
			 "cosmo_cavitation_energy": 19.15, 
			 "cosmo_dispersion_energy": -14.62, 
			 "cosmo_repulsion_energy": 1.19, 
			 "cosmo_total_nonelectrostatic_energy": 5.71, 
			 "SMD_solvation_energy": 2.87 
		},
		"coords": [
			{
				"x": -1.642336474,
				"y": -2.5859338452,
				"z": -0.424094969,
				"element": "N" 
			},
			{
				"x": -1.6425364387,
				"y": -1.3572862359,
				"z": 0.1306633018,
				"element": "C" 
			},
			{
				"x": -0.6788756386,
				"y": -0.3717426258,
				"z": -0.2621857914,
				"element": "C" 
			},
			{
				"x": 0.3401510313,
				"y": -0.6369397672,
				"z": -1.2673436675,
				"element": "C" 
			},
			{
				"x": 0.4912116703,
				"y": -1.6944253365,
				"z": -1.876280141,
				"element": "O" 
			},
			{
				"x": -0.7429911106,
				"y": 0.882683465,
				"z": 0.3593300459,
				"element": "C" 
			},
			{
				"x": -1.7120698759,
				"y": 1.1398370826,
				"z": 1.3174606439,
				"element": "C" 
			},
			{
				"x": -2.6032612347,
				"y": 0.10074316,
				"z": 1.6234320251,
				"element": "C" 
			},
			{
				"x": -2.5867397347,
				"y": -1.1062973356,
				"z": 1.0646812377,
				"element": "N" 
			},
			{
				"x": -2.3386663446,
				"y": -3.2457027625,
				"z": -0.1166309744,
				"element": "H" 
			},
			{
				"x": -0.9458327686,
				"y": -2.8015140945,
				"z": -1.1274413521,
				"element": "H" 
			},
			{
				"x": 1.0195284406,
				"y": 0.2179942859,
				"z": -1.4713528176,
				"element": "H" 
			},
			{
				"x": -0.0206922187,
				"y": 1.6455342226,
				"z": 0.0758342897,
				"element": "H" 
			},
			{
				"x": -1.7878695894,
				"y": 2.0992482375,
				"z": 1.8159771387,
				"element": "H" 
			},
			{
				"x": -3.3804197136,
				"y": 0.2590015496,
				"z": 2.3706510302,
				"element": "H" 
			}
		],
		 "valence_orbital": [ 
			{
				"type": "occ",
				"energy": -0.33015,
				"method": "rhf"
			},
			{
				"type": "occ",
				"energy": -0.28958,
				"method": "rhf"
			},
			{
				"type": "occ",
				"energy": -0.27299,
				"method": "rhf"
			},
			{
				"type": "occ",
				"energy": -0.25624,
				"method": "rhf"
			},
			{
				"type": "occ",
				"energy": -0.22238,
				"method": "rhf"
			},
			{
				"type": "unocc",
				"energy": -0.06431,
				"method": "rhf"
			},
			{
				"type": "unocc",
				"energy": -0.00719,
				"method": "rhf"
			},
			{
				"type": "unocc",
				"energy": 0.03574,
				"method": "rhf"
			},
			{
				"type": "unocc",
				"energy": 0.09559,
				"method": "rhf"
			},
			{
				"type": "unocc",
				"energy": 0.10631,
				"method": "rhf"
			}
		],
		"cosmo_sigma_profile": { 
			"-0.025": 0.0,
			"-0.024": 0.0,
			"-0.023": 0.0,
			"-0.022": 0.0,
			"-0.021": 0.0,
			"-0.02": 0.0,
			"-0.019": 0.0,
			"-0.018": 0.0,
			"-0.017": 0.0,
			"-0.016": 0.0,
			"-0.015": 0.0,
			"-0.014": 0.442374684173,
			"-0.013": 1.1240460756,
			"-0.012": 1.05722523217,
			"-0.011": 0.525062658778,
			"-0.01": 1.2276842402,
			"-0.009": 1.53643411774,
			"-0.008": 4.08409111836,
			"-0.007": 8.00482762249,
			"-0.006": 10.2261714222,
			"-0.005": 9.71355600068,
			"-0.004": 9.09934873905,
			"-0.003": 7.27155756297,
			"-0.002": 7.42889029708,
			"-0.001": 8.37227186114,
			"0.0": 12.1999889494,
			"0.001": 13.555980966,
			"0.002": 14.3425481131,
			"0.003": 10.0184240629,
			"0.004": 6.40931725018,
			"0.005": 3.82905335136,
			"0.006": 2.28555234231,
			"0.007": 3.14651530499,
			"0.008": 2.43605172523,
			"0.009": 3.05960988634,
			"0.01": 2.9155372752,
			"0.011": 2.62792920082,
			"0.012": 2.77799674153,
			"0.013": 2.21170006859,
			"0.014": 0.836660549841,
			"0.015": 0.668559700484,
			"0.016": 0.107279945096,
			"0.017": 0.0,
			"0.018": 0.0,
			"0.019": 0.0,
			"0.02": 0.0,
			"0.021": 0.0,
			"0.022": 0.0,
			"0.023": 0.0,
			"0.024": 0.0,
			"0.025": 0.0
		}
	}
}
