{
	 "smiles": "CC(=O)C(C(C)=O)=C1SC2=C(N1C1=CC=CC=C1)C(=O)C1=CC=CC=C1C2=O", 
	 "Tm": 527.15, 
	 "num_atms": 43, 
	 "gaussian": { 
		 "optdone": 1, 
		 "sigma_profile": "yes", 
		 "theory": "DFT", 
		 "functional": "B3LYP", 
		 "basiset": "6-31G**", 
		 "properties": { 
			 "R2extent": 11557.1904, 
			 "electric_dipole_moment_norm": 5.73533216039, 
			 "electric_quadrupole_moment_norm": 20.1029138861, 
			 "total_energy": -1601.19578867, 
			 "HOMO_LUMO_gap": 0.09204, 
			 "cosmo_polarized_energy": -19.8, 
			 "cosmo_cavitation_energy": 48.14, 
			 "cosmo_dispersion_energy": -33.21, 
			 "cosmo_repulsion_energy": 2.41, 
			 "cosmo_total_nonelectrostatic_energy": 17.33, 
			 "SMD_solvation_energy": 9.56 
		},
		"coords": [
			{
				"x": 1.7189846795,
				"y": 0.6316728587,
				"z": -3.4436941369,
				"element": "C" 
			},
			{
				"x": 1.1685025966,
				"y": -0.7776525636,
				"z": -3.6263256548,
				"element": "C" 
			},
			{
				"x": 1.8542864746,
				"y": -1.6370989255,
				"z": -4.1576276257,
				"element": "O" 
			},
			{
				"x": -0.2852848949,
				"y": -0.989205698,
				"z": -3.332117037,
				"element": "C" 
			},
			{
				"x": -1.1588102436,
				"y": -1.500309021,
				"z": -4.3973750881,
				"element": "C" 
			},
			{
				"x": -0.5700675174,
				"y": -2.0195232987,
				"z": -5.6935849805,
				"element": "C" 
			},
			{
				"x": -2.3878412262,
				"y": -1.4941105522,
				"z": -4.2484085282,
				"element": "O" 
			},
			{
				"x": -0.8934748804,
				"y": -0.6423164756,
				"z": -2.1385603967,
				"element": "C" 
			},
			{
				"x": -2.6579900785,
				"y": -0.5343405404,
				"z": -1.953803622,
				"element": "S" 
			},
			{
				"x": -2.4360838385,
				"y": -0.0422364645,
				"z": -0.288207005,
				"element": "C" 
			},
			{
				"x": -1.1309453583,
				"y": -0.014590998,
				"z": 0.0999240772,
				"element": "C" 
			},
			{
				"x": -0.2482894675,
				"y": -0.377413611,
				"z": -0.924628342,
				"element": "N" 
			},
			{
				"x": 1.0734780283,
				"y": -0.9240245837,
				"z": -0.6503702263,
				"element": "C" 
			},
			{
				"x": 1.2321990832,
				"y": -2.3122331768,
				"z": -0.6784270046,
				"element": "C" 
			},
			{
				"x": 2.4837287952,
				"y": -2.8664315936,
				"z": -0.4142914659,
				"element": "C" 
			},
			{
				"x": 3.5663905271,
				"y": -2.0385210333,
				"z": -0.1134475542,
				"element": "C" 
			},
			{
				"x": 3.3956593496,
				"y": -0.6534852852,
				"z": -0.0769344699,
				"element": "C" 
			},
			{
				"x": 2.1491842262,
				"y": -0.0901168248,
				"z": -0.3470893589,
				"element": "C" 
			},
			{
				"x": -0.742319423,
				"y": 0.4125572069,
				"z": 1.4699588419,
				"element": "C" 
			},
			{
				"x": 0.4204447218,
				"y": 0.5686654906,
				"z": 1.8198233806,
				"element": "O" 
			},
			{
				"x": -1.8769659114,
				"y": 0.6773751414,
				"z": 2.4113966886,
				"element": "C" 
			},
			{
				"x": -1.5744901415,
				"y": 1.0230495804,
				"z": 3.7320471587,
				"element": "C" 
			},
			{
				"x": -2.6003613362,
				"y": 1.2904658116,
				"z": 4.6383717567,
				"element": "C" 
			},
			{
				"x": -3.9353912494,
				"y": 1.219586937,
				"z": 4.2300265889,
				"element": "C" 
			},
			{
				"x": -4.2461880947,
				"y": 0.8803755461,
				"z": 2.91333324,
				"element": "C" 
			},
			{
				"x": -3.2233971235,
				"y": 0.607374129,
				"z": 2.0021384993,
				"element": "C" 
			},
			{
				"x": -3.5728485437,
				"y": 0.2407831304,
				"z": 0.5992893449,
				"element": "C" 
			},
			{
				"x": -4.7305070359,
				"y": 0.1599225176,
				"z": 0.2038747392,
				"element": "O" 
			},
			{
				"x": 2.7820240748,
				"y": 0.5902519233,
				"z": -3.1997678032,
				"element": "H" 
			},
			{
				"x": 1.6132106528,
				"y": 1.1405827623,
				"z": -4.4105347619,
				"element": "H" 
			},
			{
				"x": 1.1774052364,
				"y": 1.2219774208,
				"z": -2.7032628904,
				"element": "H" 
			},
			{
				"x": 0.1154128657,
				"y": -2.8485810176,
				"z": -5.5051809857,
				"element": "H" 
			},
			{
				"x": -1.3927523911,
				"y": -2.3357928859,
				"z": -6.3357374778,
				"element": "H" 
			},
			{
				"x": 0.0151506227,
				"y": -1.2455065686,
				"z": -6.2013362678,
				"element": "H" 
			},
			{
				"x": 0.3865243118,
				"y": -2.9473735668,
				"z": -0.9208651877,
				"element": "H" 
			},
			{
				"x": 2.6092512668,
				"y": -3.9441692684,
				"z": -0.4440139,
				"element": "H" 
			},
			{
				"x": 4.5407615962,
				"y": -2.4713687011,
				"z": 0.0918284607,
				"element": "H" 
			},
			{
				"x": 4.2330312312,
				"y": -0.0061101208,
				"z": 0.1642320034,
				"element": "H" 
			},
			{
				"x": 2.0059516472,
				"y": 0.9821201363,
				"z": -0.3044355048,
				"element": "H" 
			},
			{
				"x": -0.5319459144,
				"y": 1.077028539,
				"z": 4.0263347715,
				"element": "H" 
			},
			{
				"x": -2.3589969284,
				"y": 1.5553689576,
				"z": 5.6633968028,
				"element": "H" 
			},
			{
				"x": -4.7322364894,
				"y": 1.4295871966,
				"z": 4.9371680907,
				"element": "H" 
			},
			{
				"x": -5.2729938997,
				"y": 0.8199674895,
				"z": 2.5682828309,
				"element": "H" 
			}
		],
		 "valence_orbital": [ 
			{
				"type": "occ",
				"energy": -0.26674,
				"method": "rhf"
			},
			{
				"type": "occ",
				"energy": -0.25946,
				"method": "rhf"
			},
			{
				"type": "occ",
				"energy": -0.25001,
				"method": "rhf"
			},
			{
				"type": "occ",
				"energy": -0.23905,
				"method": "rhf"
			},
			{
				"type": "occ",
				"energy": -0.21354,
				"method": "rhf"
			},
			{
				"type": "unocc",
				"energy": -0.1215,
				"method": "rhf"
			},
			{
				"type": "unocc",
				"energy": -0.06024,
				"method": "rhf"
			},
			{
				"type": "unocc",
				"energy": -0.04305,
				"method": "rhf"
			},
			{
				"type": "unocc",
				"energy": -0.03255,
				"method": "rhf"
			},
			{
				"type": "unocc",
				"energy": -0.02539,
				"method": "rhf"
			}
		],
		"cosmo_sigma_profile": { 
			"-0.025": 0.0,
			"-0.024": 0.0,
			"-0.023": 0.0,
			"-0.022": 0.0,
			"-0.021": 0.0,
			"-0.02": 0.0,
			"-0.019": 0.0,
			"-0.018": 0.0,
			"-0.017": 0.0,
			"-0.016": 0.0,
			"-0.015": 0.0,
			"-0.014": 0.0,
			"-0.013": 0.0,
			"-0.012": 0.0,
			"-0.011": 0.0,
			"-0.01": 0.0,
			"-0.009": 0.0,
			"-0.008": 1.77952542084,
			"-0.007": 14.6383613016,
			"-0.006": 29.4838829537,
			"-0.005": 33.1215469015,
			"-0.004": 32.708813585,
			"-0.003": 28.961866454,
			"-0.002": 28.9279451722,
			"-0.001": 31.7102697372,
			"0.0": 32.9448307809,
			"0.001": 27.2106324379,
			"0.002": 27.5718284358,
			"0.003": 16.05138085,
			"0.004": 14.4203779964,
			"0.005": 10.0816928809,
			"0.006": 9.52112045606,
			"0.007": 7.62903913297,
			"0.008": 7.09596743943,
			"0.009": 7.7662686282,
			"0.01": 9.26215658598,
			"0.011": 7.94213945331,
			"0.012": 5.21011259676,
			"0.013": 3.31928733961,
			"0.014": 0.695853994805,
			"0.015": 0.0,
			"0.016": 0.0,
			"0.017": 0.0,
			"0.018": 0.0,
			"0.019": 0.0,
			"0.02": 0.0,
			"0.021": 0.0,
			"0.022": 0.0,
			"0.023": 0.0,
			"0.024": 0.0,
			"0.025": 0.0
		}
	}
}
