{
	 "smiles": "CC(C)(N)CN1CCN(CC1)C1=CC=CC=C1", 
	 "Tm": 358.15, 
	 "num_atms": 40, 
	 "gaussian": { 
		 "optdone": 1, 
		 "sigma_profile": "yes", 
		 "theory": "DFT", 
		 "functional": "B3LYP", 
		 "basiset": "6-31G**", 
		 "properties": { 
			 "R2extent": 7301.1666, 
			 "electric_dipole_moment_norm": 1.32087217777, 
			 "electric_quadrupole_moment_norm": 16.3075226215, 
			 "total_energy": -711.589737709, 
			 "HOMO_LUMO_gap": 0.19334, 
			 "cosmo_polarized_energy": -10.03, 
			 "cosmo_cavitation_energy": 39.02, 
			 "cosmo_dispersion_energy": -27.6, 
			 "cosmo_repulsion_energy": 2.11, 
			 "cosmo_total_nonelectrostatic_energy": 13.52, 
			 "SMD_solvation_energy": 3.78 
		},
		"coords": [
			{
				"x": 3.0623548416,
				"y": -1.1754643344,
				"z": -0.053710777,
				"element": "C" 
			},
			{
				"x": 2.9805330523,
				"y": 0.1690465736,
				"z": 0.684414818,
				"element": "C" 
			},
			{
				"x": 4.1651161082,
				"y": 0.3212930082,
				"z": 1.6483380064,
				"element": "C" 
			},
			{
				"x": 3.0795663173,
				"y": 1.2308003773,
				"z": -0.3319762325,
				"element": "N" 
			},
			{
				"x": 1.655114352,
				"y": 0.2522103471,
				"z": 1.4963142436,
				"element": "C" 
			},
			{
				"x": 0.4544091428,
				"y": 0.2339842548,
				"z": 0.6593349216,
				"element": "N" 
			},
			{
				"x": -0.4204748675,
				"y": -0.9169999617,
				"z": 0.8842921438,
				"element": "C" 
			},
			{
				"x": -1.7370897502,
				"y": -0.7760355028,
				"z": 0.1223875844,
				"element": "C" 
			},
			{
				"x": -2.4652947595,
				"y": 0.403692063,
				"z": 0.5761627652,
				"element": "N" 
			},
			{
				"x": -1.6723386919,
				"y": 1.486747381,
				"z": 1.1423454983,
				"element": "C" 
			},
			{
				"x": -0.2750129377,
				"y": 1.5002550728,
				"z": 0.5088314252,
				"element": "C" 
			},
			{
				"x": -3.8508767841,
				"y": 0.470527525,
				"z": 0.5097725325,
				"element": "C" 
			},
			{
				"x": -4.5879867888,
				"y": -0.4305214575,
				"z": -0.2920896338,
				"element": "C" 
			},
			{
				"x": -5.97764814,
				"y": -0.3594926698,
				"z": -0.3520599446,
				"element": "C" 
			},
			{
				"x": -6.6831064223,
				"y": 0.6059304629,
				"z": 0.3679745334,
				"element": "C" 
			},
			{
				"x": -5.9642422245,
				"y": 1.5029753638,
				"z": 1.1594463594,
				"element": "C" 
			},
			{
				"x": -4.5749971089,
				"y": 1.4409242081,
				"z": 1.2389770505,
				"element": "C" 
			},
			{
				"x": 2.2102341711,
				"y": -1.2895996668,
				"z": -0.7319150445,
				"element": "H" 
			},
			{
				"x": 3.9792145205,
				"y": -1.2232309341,
				"z": -0.647574479,
				"element": "H" 
			},
			{
				"x": 3.0554649352,
				"y": -2.0154956149,
				"z": 0.6496849178,
				"element": "H" 
			},
			{
				"x": 4.1298168383,
				"y": 1.286903857,
				"z": 2.1682695595,
				"element": "H" 
			},
			{
				"x": 4.1622699994,
				"y": -0.4664757825,
				"z": 2.4092920222,
				"element": "H" 
			},
			{
				"x": 5.108810598,
				"y": 0.2705098278,
				"z": 1.0983259278,
				"element": "H" 
			},
			{
				"x": 3.0501391378,
				"y": 2.1445888926,
				"z": 0.1189141201,
				"element": "H" 
			},
			{
				"x": 2.2553760005,
				"y": 1.1788598523,
				"z": -0.9288672361,
				"element": "H" 
			},
			{
				"x": 1.617338551,
				"y": -0.5820799517,
				"z": 2.2120379532,
				"element": "H" 
			},
			{
				"x": 1.6824719691,
				"y": 1.1718149477,
				"z": 2.1020397307,
				"element": "H" 
			},
			{
				"x": -0.6533593424,
				"y": -1.0593871422,
				"z": 1.9563481654,
				"element": "H" 
			},
			{
				"x": 0.0846025645,
				"y": -1.8295237385,
				"z": 0.5464040402,
				"element": "H" 
			},
			{
				"x": -2.3405294741,
				"y": -1.6690510464,
				"z": 0.3167687897,
				"element": "H" 
			},
			{
				"x": -1.5350799191,
				"y": -0.7478918939,
				"z": -0.961185398,
				"element": "H" 
			},
			{
				"x": -1.590726695,
				"y": 1.4131187753,
				"z": 2.2402595368,
				"element": "H" 
			},
			{
				"x": -2.1582261661,
				"y": 2.4431978742,
				"z": 0.9205065921,
				"element": "H" 
			},
			{
				"x": 0.3079652562,
				"y": 2.3104779464,
				"z": 0.9595316147,
				"element": "H" 
			},
			{
				"x": -0.3902885588,
				"y": 1.7513014172,
				"z": -0.5558616347,
				"element": "H" 
			},
			{
				"x": -4.0728946932,
				"y": -1.17160344,
				"z": -0.892634261,
				"element": "H" 
			},
			{
				"x": -6.511999756,
				"y": -1.0653585232,
				"z": -0.9827493118,
				"element": "H" 
			},
			{
				"x": -7.7658831509,
				"y": 0.6578281483,
				"z": 0.3136672143,
				"element": "H" 
			},
			{
				"x": -6.4891691718,
				"y": 2.2593934084,
				"z": 1.7372583805,
				"element": "H" 
			},
			{
				"x": -4.054572953,
				"y": 2.1326300755,
				"z": 1.8915235058,
				"element": "H" 
			}
		],
		 "valence_orbital": [ 
			{
				"type": "occ",
				"energy": -0.27566,
				"method": "rhf"
			},
			{
				"type": "occ",
				"energy": -0.23859,
				"method": "rhf"
			},
			{
				"type": "occ",
				"energy": -0.23313,
				"method": "rhf"
			},
			{
				"type": "occ",
				"energy": -0.20694,
				"method": "rhf"
			},
			{
				"type": "occ",
				"energy": -0.1837,
				"method": "rhf"
			},
			{
				"type": "unocc",
				"energy": 0.00964,
				"method": "rhf"
			},
			{
				"type": "unocc",
				"energy": 0.02542,
				"method": "rhf"
			},
			{
				"type": "unocc",
				"energy": 0.0633,
				"method": "rhf"
			},
			{
				"type": "unocc",
				"energy": 0.08416,
				"method": "rhf"
			},
			{
				"type": "unocc",
				"energy": 0.10018,
				"method": "rhf"
			}
		],
		"cosmo_sigma_profile": { 
			"-0.025": 0.0,
			"-0.024": 0.0,
			"-0.023": 0.0,
			"-0.022": 0.0,
			"-0.021": 0.0,
			"-0.02": 0.0,
			"-0.019": 0.0,
			"-0.018": 0.0,
			"-0.017": 0.0,
			"-0.016": 0.0,
			"-0.015": 0.0,
			"-0.014": 0.0,
			"-0.013": 0.0,
			"-0.012": 0.0,
			"-0.011": 0.0,
			"-0.01": 0.0,
			"-0.009": 0.330726347383,
			"-0.008": 1.06961576683,
			"-0.007": 1.55931046896,
			"-0.006": 2.92504830355,
			"-0.005": 13.5261788558,
			"-0.004": 25.5781887061,
			"-0.003": 39.2331198158,
			"-0.002": 51.9070142675,
			"-0.001": 36.6764842368,
			"0.0": 25.6214966741,
			"0.001": 21.7304827302,
			"0.002": 17.7148885679,
			"0.003": 10.2389005434,
			"0.004": 10.5384550159,
			"0.005": 10.3398294681,
			"0.006": 10.3271906526,
			"0.007": 8.63769661406,
			"0.008": 6.77159660787,
			"0.009": 1.3935142741,
			"0.01": 0.762149961053,
			"0.011": 0.713101549578,
			"0.012": 0.619256017549,
			"0.013": 0.660479899855,
			"0.014": 0.832308086334,
			"0.015": 0.325916831869,
			"0.016": 0.685979128214,
			"0.017": 0.601561206767,
			"0.018": 0.164921975889,
			"0.019": 0.710720539586,
			"0.02": 0.521918605327,
			"0.021": 0.0,
			"0.022": 0.0,
			"0.023": 0.0,
			"0.024": 0.0,
			"0.025": 0.0
		}
	}
}
