{
	 "smiles": "CC(=O)C1=CC=C(C=C1)N1CCNCC1", 
	 "Tm": 381.15, 
	 "num_atms": 31, 
	 "gaussian": { 
		 "optdone": 1, 
		 "sigma_profile": "yes", 
		 "theory": "DFT", 
		 "functional": "B3LYP", 
		 "basiset": "6-31G**", 
		 "properties": { 
			 "R2extent": 4795.3453, 
			 "electric_dipole_moment_norm": 4.37238749541, 
			 "electric_quadrupole_moment_norm": 18.2997447531, 
			 "total_energy": -651.640918406, 
			 "HOMO_LUMO_gap": 0.16284, 
			 "cosmo_polarized_energy": -13.78, 
			 "cosmo_cavitation_energy": 32.42, 
			 "cosmo_dispersion_energy": -24.0, 
			 "cosmo_repulsion_energy": 1.86, 
			 "cosmo_total_nonelectrostatic_energy": 10.28, 
			 "SMD_solvation_energy": 1.96 
		},
		"coords": [
			{
				"x": 2.3046013433,
				"y": -0.5953462612,
				"z": -4.7744542708,
				"element": "C" 
			},
			{
				"x": 1.6881066854,
				"y": 0.5534109008,
				"z": -3.9885770237,
				"element": "C" 
			},
			{
				"x": 1.5694630196,
				"y": 1.6579367396,
				"z": -4.5043589077,
				"element": "O" 
			},
			{
				"x": 1.2357070751,
				"y": 0.3065617547,
				"z": -2.5919368017,
				"element": "C" 
			},
			{
				"x": 0.6515268761,
				"y": 1.3654491103,
				"z": -1.8728853963,
				"element": "C" 
			},
			{
				"x": 0.2084406924,
				"y": 1.1977444657,
				"z": -0.5737341387,
				"element": "C" 
			},
			{
				"x": 0.330103574,
				"y": -0.0496698452,
				"z": 0.0859114794,
				"element": "C" 
			},
			{
				"x": 0.9196927899,
				"y": -1.109753902,
				"z": -0.6353622223,
				"element": "C" 
			},
			{
				"x": 1.3550422726,
				"y": -0.9305060066,
				"z": -1.9451437703,
				"element": "C" 
			},
			{
				"x": -0.1611148177,
				"y": -0.2148898859,
				"z": 1.3873298225,
				"element": "N" 
			},
			{
				"x": 0.1030743766,
				"y": 0.8360070041,
				"z": 2.3807524199,
				"element": "C" 
			},
			{
				"x": -0.8865451837,
				"y": 0.7446639282,
				"z": 3.5489365809,
				"element": "C" 
			},
			{
				"x": -0.9342846919,
				"y": -0.5777107863,
				"z": 4.1731605613,
				"element": "N" 
			},
			{
				"x": -1.1528517923,
				"y": -1.6096262832,
				"z": 3.1607819323,
				"element": "C" 
			},
			{
				"x": -0.1744688853,
				"y": -1.5531868433,
				"z": 1.9759175119,
				"element": "C" 
			},
			{
				"x": 3.1996456934,
				"y": -0.9810680669,
				"z": -4.2737101501,
				"element": "H" 
			},
			{
				"x": 1.600764023,
				"y": -1.4292159127,
				"z": -4.8728892396,
				"element": "H" 
			},
			{
				"x": 2.5747564343,
				"y": -0.2319121312,
				"z": -5.7663703015,
				"element": "H" 
			},
			{
				"x": 0.5441232313,
				"y": 2.3220353316,
				"z": -2.3738374614,
				"element": "H" 
			},
			{
				"x": -0.2707918341,
				"y": 2.0305065955,
				"z": -0.0710283784,
				"element": "H" 
			},
			{
				"x": 1.0634225928,
				"y": -2.0767094841,
				"z": -0.1693815998,
				"element": "H" 
			},
			{
				"x": 1.8084032967,
				"y": -1.7739878075,
				"z": -2.4569566341,
				"element": "H" 
			},
			{
				"x": 0.0307358717,
				"y": 1.817416086,
				"z": 1.9109703121,
				"element": "H" 
			},
			{
				"x": 1.134778575,
				"y": 0.7370271735,
				"z": 2.7677748768,
				"element": "H" 
			},
			{
				"x": -1.8935765281,
				"y": 0.9813258138,
				"z": 3.1823751607,
				"element": "H" 
			},
			{
				"x": -0.6276677559,
				"y": 1.4910736692,
				"z": 4.3077430211,
				"element": "H" 
			},
			{
				"x": -0.0520947529,
				"y": -0.7552480056,
				"z": 4.6514019013,
				"element": "H" 
			},
			{
				"x": -2.1737178354,
				"y": -1.4906183227,
				"z": 2.776205162,
				"element": "H" 
			},
			{
				"x": -1.0933666899,
				"y": -2.595797944,
				"z": 3.6338649297,
				"element": "H" 
			},
			{
				"x": -0.4973059347,
				"y": -2.2714450918,
				"z": 1.217386895,
				"element": "H" 
			},
			{
				"x": 0.8355982786,
				"y": -1.8554659927,
				"z": 2.3131137296,
				"element": "H" 
			}
		],
		 "valence_orbital": [ 
			{
				"type": "occ",
				"energy": -0.28661,
				"method": "rhf"
			},
			{
				"type": "occ",
				"energy": -0.254,
				"method": "rhf"
			},
			{
				"type": "occ",
				"energy": -0.2355,
				"method": "rhf"
			},
			{
				"type": "occ",
				"energy": -0.23204,
				"method": "rhf"
			},
			{
				"type": "occ",
				"energy": -0.2031,
				"method": "rhf"
			},
			{
				"type": "unocc",
				"energy": -0.04026,
				"method": "rhf"
			},
			{
				"type": "unocc",
				"energy": -0.00291,
				"method": "rhf"
			},
			{
				"type": "unocc",
				"energy": 0.05084,
				"method": "rhf"
			},
			{
				"type": "unocc",
				"energy": 0.07498,
				"method": "rhf"
			},
			{
				"type": "unocc",
				"energy": 0.09192,
				"method": "rhf"
			}
		],
		"cosmo_sigma_profile": { 
			"-0.025": 0.0,
			"-0.024": 0.0,
			"-0.023": 0.0,
			"-0.022": 0.0,
			"-0.021": 0.0,
			"-0.02": 0.0,
			"-0.019": 0.0,
			"-0.018": 0.0,
			"-0.017": 0.0,
			"-0.016": 0.0,
			"-0.015": 0.0,
			"-0.014": 0.0,
			"-0.013": 0.0,
			"-0.012": 0.0,
			"-0.011": 0.0,
			"-0.01": 0.641213259016,
			"-0.009": 1.53101813532,
			"-0.008": 1.95464498007,
			"-0.007": 3.69216093543,
			"-0.006": 10.6230053624,
			"-0.005": 19.6836019074,
			"-0.004": 28.1344149146,
			"-0.003": 35.0466904235,
			"-0.002": 26.5153368111,
			"-0.001": 20.6042716259,
			"0.0": 15.6937305922,
			"0.001": 11.0238655537,
			"0.002": 9.22159655767,
			"0.003": 11.7442119023,
			"0.004": 12.3239832864,
			"0.005": 14.7112909986,
			"0.006": 4.67576633975,
			"0.007": 2.95914751715,
			"0.008": 3.01920344701,
			"0.009": 2.86695909271,
			"0.01": 1.95427984254,
			"0.011": 3.33568238612,
			"0.012": 4.22877444962,
			"0.013": 4.84531710938,
			"0.014": 1.38015609145,
			"0.015": 0.134533734927,
			"0.016": 0.945799477147,
			"0.017": 0.709392597887,
			"0.018": 0.37936311471,
			"0.019": 0.0818971980667,
			"0.02": 0.0,
			"0.021": 0.0,
			"0.022": 0.0,
			"0.023": 0.0,
			"0.024": 0.0,
			"0.025": 0.0
		}
	}
}
