{
	 "smiles": "OC(=O)C1=CC2=C(NC(=O)CC2)C=C1", 
	 "Tm": 535.15, 
	 "num_atms": 23, 
	 "gaussian": { 
		 "optdone": 1, 
		 "sigma_profile": "yes", 
		 "theory": "DFT", 
		 "functional": "B3LYP", 
		 "basiset": "6-31G**", 
		 "properties": { 
			 "R2extent": 3599.8496, 
			 "electric_dipole_moment_norm": 1.68049151441, 
			 "electric_quadrupole_moment_norm": 15.7673859749, 
			 "total_energy": -666.963429249, 
			 "HOMO_LUMO_gap": 0.18039, 
			 "cosmo_polarized_energy": -16.48, 
			 "cosmo_cavitation_energy": 27.26, 
			 "cosmo_dispersion_energy": -20.36, 
			 "cosmo_repulsion_energy": 1.6, 
			 "cosmo_total_nonelectrostatic_energy": 8.49, 
			 "SMD_solvation_energy": 6.08 
		},
		"coords": [
			{
				"x": -3.4162731559,
				"y": -3.2004981036,
				"z": 1.0527438409,
				"element": "O" 
			},
			{
				"x": -2.065369732,
				"y": -3.336126019,
				"z": 0.9979683994,
				"element": "C" 
			},
			{
				"x": -1.5203269035,
				"y": -4.408702272,
				"z": 1.179069947,
				"element": "O" 
			},
			{
				"x": -1.3645036415,
				"y": -2.0654228587,
				"z": 0.7021371677,
				"element": "C" 
			},
			{
				"x": 0.0367584247,
				"y": -2.0855602339,
				"z": 0.6303975136,
				"element": "C" 
			},
			{
				"x": 0.7636919855,
				"y": -0.9336441753,
				"z": 0.3599342595,
				"element": "C" 
			},
			{
				"x": 0.0614663359,
				"y": 0.2696453674,
				"z": 0.1369557088,
				"element": "C" 
			},
			{
				"x": 0.78500543,
				"y": 1.4330721676,
				"z": -0.1455732577,
				"element": "N" 
			},
			{
				"x": 2.1072299388,
				"y": 1.4854798754,
				"z": -0.5624926681,
				"element": "C" 
			},
			{
				"x": 2.6408298189,
				"y": 2.5485719408,
				"z": -0.8278226389,
				"element": "O" 
			},
			{
				"x": 2.7799242592,
				"y": 0.1284427449,
				"z": -0.6977157308,
				"element": "C" 
			},
			{
				"x": 2.2741694902,
				"y": -0.886483118,
				"z": 0.3379645549,
				"element": "C" 
			},
			{
				"x": -1.337760516,
				"y": 0.3027280754,
				"z": 0.2113192898,
				"element": "C" 
			},
			{
				"x": -2.0464396978,
				"y": -0.8582044635,
				"z": 0.496596521,
				"element": "C" 
			},
			{
				"x": -3.7595023298,
				"y": -4.0871393237,
				"z": 1.2502351708,
				"element": "H" 
			},
			{
				"x": 0.5469040157,
				"y": -3.0286400487,
				"z": 0.8015621001,
				"element": "H" 
			},
			{
				"x": 0.3030042022,
				"y": 2.3233218402,
				"z": -0.1581566799,
				"element": "H" 
			},
			{
				"x": 2.5663195283,
				"y": -0.233421021,
				"z": -1.7129375198,
				"element": "H" 
			},
			{
				"x": 3.8578748757,
				"y": 0.2873605624,
				"z": -0.6304978864,
				"element": "H" 
			},
			{
				"x": 2.6865547087,
				"y": -1.8791610007,
				"z": 0.1342830138,
				"element": "H" 
			},
			{
				"x": 2.6399433764,
				"y": -0.5949041425,
				"z": 1.3331907545,
				"element": "H" 
			},
			{
				"x": -1.8641211455,
				"y": 1.2372811987,
				"z": 0.0368734337,
				"element": "H" 
			},
			{
				"x": -3.1285792683,
				"y": -0.8353969924,
				"z": 0.5516647059,
				"element": "H" 
			}
		],
		 "valence_orbital": [ 
			{
				"type": "occ",
				"energy": -0.31163,
				"method": "rhf"
			},
			{
				"type": "occ",
				"energy": -0.27674,
				"method": "rhf"
			},
			{
				"type": "occ",
				"energy": -0.26434,
				"method": "rhf"
			},
			{
				"type": "occ",
				"energy": -0.26222,
				"method": "rhf"
			},
			{
				"type": "occ",
				"energy": -0.23143,
				"method": "rhf"
			},
			{
				"type": "unocc",
				"energy": -0.05104,
				"method": "rhf"
			},
			{
				"type": "unocc",
				"energy": -0.01883,
				"method": "rhf"
			},
			{
				"type": "unocc",
				"energy": 0.01145,
				"method": "rhf"
			},
			{
				"type": "unocc",
				"energy": 0.06114,
				"method": "rhf"
			},
			{
				"type": "unocc",
				"energy": 0.07641,
				"method": "rhf"
			}
		],
		"cosmo_sigma_profile": { 
			"-0.025": 0.0,
			"-0.024": 0.0,
			"-0.023": 0.0,
			"-0.022": 0.0,
			"-0.021": 0.0,
			"-0.02": 0.0,
			"-0.019": 0.0,
			"-0.018": 0.609716959568,
			"-0.017": 0.890792236153,
			"-0.016": 0.905261948836,
			"-0.015": 1.57099853068,
			"-0.014": 2.18014065999,
			"-0.013": 1.50356309573,
			"-0.012": 2.48041724516,
			"-0.011": 1.60399902131,
			"-0.01": 1.73889879621,
			"-0.009": 1.95510931688,
			"-0.008": 1.65976925885,
			"-0.007": 4.01131899331,
			"-0.006": 10.7970385993,
			"-0.005": 17.4712833932,
			"-0.004": 15.9498455077,
			"-0.003": 14.6369771447,
			"-0.002": 17.0030164052,
			"-0.001": 12.6608844788,
			"0.0": 11.4473316455,
			"0.001": 14.8902191211,
			"0.002": 14.058443756,
			"0.003": 14.4399663704,
			"0.004": 9.13247306145,
			"0.005": 3.78601841266,
			"0.006": 4.10900335763,
			"0.007": 4.08342069832,
			"0.008": 3.39829101391,
			"0.009": 3.5050439007,
			"0.01": 2.84690443012,
			"0.011": 4.705957385,
			"0.012": 9.15660989383,
			"0.013": 5.92128935215,
			"0.014": 1.52891758985,
			"0.015": 0.0138983168573,
			"0.016": 0.0,
			"0.017": 0.0,
			"0.018": 0.0,
			"0.019": 0.0,
			"0.02": 0.0,
			"0.021": 0.0,
			"0.022": 0.0,
			"0.023": 0.0,
			"0.024": 0.0,
			"0.025": 0.0
		}
	}
}
