{
	 "smiles": "CC1=CC(=C(C)C=C1)C1=NNC(=O)C2=C1C=CC=C2", 
	 "Tm": 490.15, 
	 "num_atms": 33, 
	 "gaussian": { 
		 "optdone": 1, 
		 "sigma_profile": "yes", 
		 "theory": "DFT", 
		 "functional": "B3LYP", 
		 "basiset": "6-31G**", 
		 "properties": { 
			 "R2extent": 6259.7594, 
			 "electric_dipole_moment_norm": 3.71109012286, 
			 "electric_quadrupole_moment_norm": 16.5101299029, 
			 "total_energy": -802.883492685, 
			 "HOMO_LUMO_gap": 0.17081, 
			 "cosmo_polarized_energy": -12.37, 
			 "cosmo_cavitation_energy": 36.53, 
			 "cosmo_dispersion_energy": -25.86, 
			 "cosmo_repulsion_energy": 1.99, 
			 "cosmo_total_nonelectrostatic_energy": 12.66, 
			 "SMD_solvation_energy": 5.99 
		},
		"coords": [
			{
				"x": -2.4636338388,
				"y": 1.8435806568,
				"z": 0.9882543379,
				"element": "C" 
			},
			{
				"x": -1.3460486051,
				"y": 1.7866084877,
				"z": -0.0267183173,
				"element": "C" 
			},
			{
				"x": -0.3334449398,
				"y": 0.8263756191,
				"z": 0.0659464847,
				"element": "C" 
			},
			{
				"x": 0.7341919853,
				"y": 0.777694582,
				"z": -0.8419240575,
				"element": "C" 
			},
			{
				"x": 0.8047785764,
				"y": 1.7141550861,
				"z": -1.8945465156,
				"element": "C" 
			},
			{
				"x": 1.9279331302,
				"y": 1.7061744987,
				"z": -2.9056160097,
				"element": "C" 
			},
			{
				"x": -0.2166587624,
				"y": 2.6673775286,
				"z": -1.9874120541,
				"element": "C" 
			},
			{
				"x": -1.2709560396,
				"y": 2.7079812014,
				"z": -1.077015451,
				"element": "C" 
			},
			{
				"x": 1.7898729816,
				"y": -0.2650672407,
				"z": -0.6533958643,
				"element": "C" 
			},
			{
				"x": 2.9902028304,
				"y": 0.175547032,
				"z": -0.3982495974,
				"element": "N" 
			},
			{
				"x": 3.9728253803,
				"y": -0.7335853851,
				"z": -0.1980211332,
				"element": "N" 
			},
			{
				"x": 3.8881548886,
				"y": -2.1194266853,
				"z": -0.1922447285,
				"element": "C" 
			},
			{
				"x": 4.8732576412,
				"y": -2.8122370085,
				"z": 0.0413154626,
				"element": "O" 
			},
			{
				"x": 2.5371509575,
				"y": -2.6124374132,
				"z": -0.5015106041,
				"element": "C" 
			},
			{
				"x": 1.4896314587,
				"y": -1.6918027039,
				"z": -0.7408298628,
				"element": "C" 
			},
			{
				"x": 0.2158409115,
				"y": -2.1976489437,
				"z": -1.0752962572,
				"element": "C" 
			},
			{
				"x": 0.0027692646,
				"y": -3.5670858658,
				"z": -1.1461920587,
				"element": "C" 
			},
			{
				"x": 1.0473769569,
				"y": -4.4707811526,
				"z": -0.8899292951,
				"element": "C" 
			},
			{
				"x": 2.3105165843,
				"y": -3.9939927214,
				"z": -0.5723696351,
				"element": "C" 
			},
			{
				"x": -2.6188701982,
				"y": 0.8734064499,
				"z": 1.4694516222,
				"element": "H" 
			},
			{
				"x": -3.408372157,
				"y": 2.1474817627,
				"z": 0.5264309616,
				"element": "H" 
			},
			{
				"x": -2.2432421812,
				"y": 2.5690326569,
				"z": 1.7813717669,
				"element": "H" 
			},
			{
				"x": -0.3661604577,
				"y": 0.0993883041,
				"z": 0.8741107463,
				"element": "H" 
			},
			{
				"x": 1.7153830697,
				"y": 2.3996494709,
				"z": -3.7238066303,
				"element": "H" 
			},
			{
				"x": 2.0777420518,
				"y": 0.7104329175,
				"z": -3.3368063984,
				"element": "H" 
			},
			{
				"x": 2.8776733249,
				"y": 1.9973194435,
				"z": -2.446905149,
				"element": "H" 
			},
			{
				"x": -0.1857932908,
				"y": 3.391288656,
				"z": -2.7979586806,
				"element": "H" 
			},
			{
				"x": -2.0455866857,
				"y": 3.4632885772,
				"z": -1.1868389447,
				"element": "H" 
			},
			{
				"x": 4.8818010182,
				"y": -0.3383105998,
				"z": 0.007834316,
				"element": "H" 
			},
			{
				"x": -0.5944019719,
				"y": -1.5073161375,
				"z": -1.2798384315,
				"element": "H" 
			},
			{
				"x": -0.9828717405,
				"y": -3.9424752167,
				"z": -1.4059365817,
				"element": "H" 
			},
			{
				"x": 0.8657253087,
				"y": -5.5398232903,
				"z": -0.9472812576,
				"element": "H" 
			},
			{
				"x": 3.145112548,
				"y": -4.6592925666,
				"z": -0.3785721829,
				"element": "H" 
			}
		],
		 "valence_orbital": [ 
			{
				"type": "occ",
				"energy": -0.26594,
				"method": "rhf"
			},
			{
				"type": "occ",
				"energy": -0.25485,
				"method": "rhf"
			},
			{
				"type": "occ",
				"energy": -0.24948,
				"method": "rhf"
			},
			{
				"type": "occ",
				"energy": -0.23648,
				"method": "rhf"
			},
			{
				"type": "occ",
				"energy": -0.2244,
				"method": "rhf"
			},
			{
				"type": "unocc",
				"energy": -0.05359,
				"method": "rhf"
			},
			{
				"type": "unocc",
				"energy": -0.04311,
				"method": "rhf"
			},
			{
				"type": "unocc",
				"energy": -0.01206,
				"method": "rhf"
			},
			{
				"type": "unocc",
				"energy": 0.00052,
				"method": "rhf"
			},
			{
				"type": "unocc",
				"energy": 0.03529,
				"method": "rhf"
			}
		],
		"cosmo_sigma_profile": { 
			"-0.025": 0.0,
			"-0.024": 0.0,
			"-0.023": 0.0,
			"-0.022": 0.0,
			"-0.021": 0.0,
			"-0.02": 0.0,
			"-0.019": 0.0,
			"-0.018": 0.0,
			"-0.017": 0.0,
			"-0.016": 0.269094251918,
			"-0.015": 1.24819223096,
			"-0.014": 0.944952338723,
			"-0.013": 0.86649671542,
			"-0.012": 0.909658968646,
			"-0.011": 0.532397278319,
			"-0.01": 1.00194888973,
			"-0.009": 0.619781142408,
			"-0.008": 0.899279864469,
			"-0.007": 3.91482407392,
			"-0.006": 7.63378649073,
			"-0.005": 17.7916209954,
			"-0.004": 24.7849769776,
			"-0.003": 25.2228762491,
			"-0.002": 28.6582543261,
			"-0.001": 28.0301826086,
			"0.0": 32.4779224569,
			"0.001": 24.9749437783,
			"0.002": 22.1248528637,
			"0.003": 17.3956021719,
			"0.004": 10.5319793221,
			"0.005": 10.4307294928,
			"0.006": 7.20889737139,
			"0.007": 3.19244400114,
			"0.008": 2.25953017958,
			"0.009": 1.34200208539,
			"0.01": 2.4265536451,
			"0.011": 2.48026548326,
			"0.012": 2.67491409571,
			"0.013": 5.68887434094,
			"0.014": 2.83998933691,
			"0.015": 0.00857529676846,
			"0.016": 0.0,
			"0.017": 0.0,
			"0.018": 0.0,
			"0.019": 0.0,
			"0.02": 0.0,
			"0.021": 0.0,
			"0.022": 0.0,
			"0.023": 0.0,
			"0.024": 0.0,
			"0.025": 0.0
		}
	}
}
