{
	 "smiles": "CC1(C)CCCCC1=CC(O)=O", 
	 "Tm": 363.15, 
	 "num_atms": 28, 
	 "gaussian": { 
		 "optdone": 1, 
		 "sigma_profile": "yes", 
		 "theory": "DFT", 
		 "functional": "B3LYP", 
		 "basiset": "6-31G**", 
		 "properties": { 
			 "R2extent": 2889.4808, 
			 "electric_dipole_moment_norm": 5.33518696767, 
			 "electric_quadrupole_moment_norm": 21.0767382168, 
			 "total_energy": -541.163221249, 
			 "HOMO_LUMO_gap": 0.22188, 
			 "cosmo_polarized_energy": -12.7, 
			 "cosmo_cavitation_energy": 28.23, 
			 "cosmo_dispersion_energy": -20.29, 
			 "cosmo_repulsion_energy": 1.62, 
			 "cosmo_total_nonelectrostatic_energy": 9.56, 
			 "SMD_solvation_energy": 5.58 
		},
		"coords": [
			{
				"x": 0.9149914163,
				"y": 1.5950129401,
				"z": 1.434649464,
				"element": "C" 
			},
			{
				"x": 0.6256064712,
				"y": 0.7530411892,
				"z": 0.1642517306,
				"element": "C" 
			},
			{
				"x": 1.810756646,
				"y": 0.9398921504,
				"z": -0.7987093581,
				"element": "C" 
			},
			{
				"x": 0.5377859975,
				"y": -0.7590829473,
				"z": 0.5278159759,
				"element": "C" 
			},
			{
				"x": -0.6804568596,
				"y": -1.1383513119,
				"z": 1.3782344226,
				"element": "C" 
			},
			{
				"x": -1.9762836101,
				"y": -0.6770696919,
				"z": 0.7060181451,
				"element": "C" 
			},
			{
				"x": -1.9406725059,
				"y": 0.8342845949,
				"z": 0.3962613059,
				"element": "C" 
			},
			{
				"x": -0.7198582538,
				"y": 1.2024511878,
				"z": -0.4317636265,
				"element": "C" 
			},
			{
				"x": -0.7946583845,
				"y": 1.823459115,
				"z": -1.6257109144,
				"element": "C" 
			},
			{
				"x": -2.0113297264,
				"y": 2.2858682204,
				"z": -2.3567020112,
				"element": "C" 
			},
			{
				"x": -2.9712773753,
				"y": 2.9433681786,
				"z": -1.6392780272,
				"element": "O" 
			},
			{
				"x": -2.154979343,
				"y": 2.1327989845,
				"z": -3.5464438837,
				"element": "O" 
			},
			{
				"x": 0.1451962468,
				"y": 1.4888559711,
				"z": 2.2028297252,
				"element": "H" 
			},
			{
				"x": 0.9919101458,
				"y": 2.6578513024,
				"z": 1.1827656558,
				"element": "H" 
			},
			{
				"x": 1.8673343521,
				"y": 1.2844381914,
				"z": 1.8781431528,
				"element": "H" 
			},
			{
				"x": 1.9738775692,
				"y": 1.9930813336,
				"z": -1.0489998494,
				"element": "H" 
			},
			{
				"x": 1.6683238399,
				"y": 0.3835735604,
				"z": -1.7305782266,
				"element": "H" 
			},
			{
				"x": 2.7271936985,
				"y": 0.5700688549,
				"z": -0.3273338031,
				"element": "H" 
			},
			{
				"x": 1.464823987,
				"y": -1.0489246956,
				"z": 1.0383230125,
				"element": "H" 
			},
			{
				"x": 0.5052812776,
				"y": -1.3320174562,
				"z": -0.4087670339,
				"element": "H" 
			},
			{
				"x": -0.6977755727,
				"y": -2.2238214531,
				"z": 1.5311156957,
				"element": "H" 
			},
			{
				"x": -0.6027843449,
				"y": -0.689702847,
				"z": 2.3771894459,
				"element": "H" 
			},
			{
				"x": -2.8447917274,
				"y": -0.8979411507,
				"z": 1.3368112737,
				"element": "H" 
			},
			{
				"x": -2.1184568048,
				"y": -1.2262213294,
				"z": -0.233798722,
				"element": "H" 
			},
			{
				"x": -1.9226748706,
				"y": 1.3823405722,
				"z": 1.3492467378,
				"element": "H" 
			},
			{
				"x": -2.8623029472,
				"y": 1.1169701361,
				"z": -0.1160112115,
				"element": "H" 
			},
			{
				"x": 0.0978877742,
				"y": 1.9515538699,
				"z": -2.2274924795,
				"element": "H" 
			},
			{
				"x": -2.6389670955,
				"y": 3.1091225305,
				"z": -0.7461665965,
				"element": "H" 
			}
		],
		 "valence_orbital": [ 
			{
				"type": "occ",
				"energy": -0.32236,
				"method": "rhf"
			},
			{
				"type": "occ",
				"energy": -0.31321,
				"method": "rhf"
			},
			{
				"type": "occ",
				"energy": -0.30445,
				"method": "rhf"
			},
			{
				"type": "occ",
				"energy": -0.27393,
				"method": "rhf"
			},
			{
				"type": "occ",
				"energy": -0.25363,
				"method": "rhf"
			},
			{
				"type": "unocc",
				"energy": -0.03175,
				"method": "rhf"
			},
			{
				"type": "unocc",
				"energy": 0.05046,
				"method": "rhf"
			},
			{
				"type": "unocc",
				"energy": 0.07561,
				"method": "rhf"
			},
			{
				"type": "unocc",
				"energy": 0.07955,
				"method": "rhf"
			},
			{
				"type": "unocc",
				"energy": 0.10108,
				"method": "rhf"
			}
		],
		"cosmo_sigma_profile": { 
			"-0.025": 0.0,
			"-0.024": 0.0,
			"-0.023": 0.0,
			"-0.022": 0.0,
			"-0.021": 0.0,
			"-0.02": 0.0,
			"-0.019": 0.0,
			"-0.018": 0.0994970143726,
			"-0.017": 0.586562104224,
			"-0.016": 0.651403540512,
			"-0.015": 0.728002015738,
			"-0.014": 1.10504467407,
			"-0.013": 0.468336058291,
			"-0.012": 0.73535164108,
			"-0.011": 1.05186651581,
			"-0.01": 1.31882347461,
			"-0.009": 0.490212491792,
			"-0.008": 0.857286952512,
			"-0.007": 1.38442720225,
			"-0.006": 1.58532431767,
			"-0.005": 4.46747305388,
			"-0.004": 9.00175098821,
			"-0.003": 29.3158932122,
			"-0.002": 37.6669655341,
			"-0.001": 33.81888489,
			"0.0": 28.659461662,
			"0.001": 21.4146765801,
			"0.002": 5.74860921542,
			"0.003": 2.84557947176,
			"0.004": 2.2078291214,
			"0.005": 2.13922648717,
			"0.006": 2.11009215501,
			"0.007": 2.33914547556,
			"0.008": 2.96497499672,
			"0.009": 2.98462766294,
			"0.01": 4.15593418151,
			"0.011": 5.20879219709,
			"0.012": 6.20534070153,
			"0.013": 3.88806585957,
			"0.014": 0.575354055921,
			"0.015": 0.0,
			"0.016": 0.0,
			"0.017": 0.0,
			"0.018": 0.0,
			"0.019": 0.0,
			"0.02": 0.0,
			"0.021": 0.0,
			"0.022": 0.0,
			"0.023": 0.0,
			"0.024": 0.0,
			"0.025": 0.0
		}
	}
}
