{
	 "smiles": "CC1=NNC(=S)NC1=O", 
	 "Tm": 492.15, 
	 "num_atms": 14, 
	 "gaussian": { 
		 "optdone": 1, 
		 "sigma_profile": "yes", 
		 "theory": "DFT", 
		 "functional": "B3LYP", 
		 "basiset": "6-31G**", 
		 "properties": { 
			 "R2extent": 1770.5397, 
			 "electric_dipole_moment_norm": 2.65316456708, 
			 "electric_quadrupole_moment_norm": 9.34063054349, 
			 "total_energy": -793.105240674, 
			 "HOMO_LUMO_gap": 0.15905, 
			 "cosmo_polarized_energy": -14.15, 
			 "cosmo_cavitation_energy": 20.55, 
			 "cosmo_dispersion_energy": -15.95, 
			 "cosmo_repulsion_energy": 1.27, 
			 "cosmo_total_nonelectrostatic_energy": 5.87, 
			 "SMD_solvation_energy": 2.8 
		},
		"coords": [
			{
				"x": -1.5846120162,
				"y": -1.1579115218,
				"z": 1.5554775003,
				"element": "C" 
			},
			{
				"x": -1.1682211286,
				"y": -0.2596304624,
				"z": 0.4345502521,
				"element": "C" 
			},
			{
				"x": -2.0486729267,
				"y": 0.1479902607,
				"z": -0.423732498,
				"element": "N" 
			},
			{
				"x": -1.6365653594,
				"y": 0.9615255567,
				"z": -1.4273732203,
				"element": "N" 
			},
			{
				"x": -0.3693866278,
				"y": 1.4260973933,
				"z": -1.6630582439,
				"element": "C" 
			},
			{
				"x": 0.0115984583,
				"y": 2.4241769435,
				"z": -2.9352668584,
				"element": "S" 
			},
			{
				"x": 0.5384990854,
				"y": 0.9731007086,
				"z": -0.732441373,
				"element": "N" 
			},
			{
				"x": 0.2607958935,
				"y": 0.134720283,
				"z": 0.3497657037,
				"element": "C" 
			},
			{
				"x": 1.1249110131,
				"y": -0.2211132073,
				"z": 1.1303501212,
				"element": "O" 
			},
			{
				"x": -2.6538214999,
				"y": -1.3630286869,
				"z": 1.4930222056,
				"element": "H" 
			},
			{
				"x": -1.3528011948,
				"y": -0.6957738585,
				"z": 2.5208082008,
				"element": "H" 
			},
			{
				"x": -1.0251442744,
				"y": -2.0985405705,
				"z": 1.518307055,
				"element": "H" 
			},
			{
				"x": -2.3606509288,
				"y": 1.2516610508,
				"z": -2.0701617608,
				"element": "H" 
			},
			{
				"x": 1.4989715063,
				"y": 1.2784261108,
				"z": -0.8456470841,
				"element": "H" 
			}
		],
		 "valence_orbital": [ 
			{
				"type": "occ",
				"energy": -0.34959,
				"method": "rhf"
			},
			{
				"type": "occ",
				"energy": -0.29337,
				"method": "rhf"
			},
			{
				"type": "occ",
				"energy": -0.28519,
				"method": "rhf"
			},
			{
				"type": "occ",
				"energy": -0.24149,
				"method": "rhf"
			},
			{
				"type": "occ",
				"energy": -0.23779,
				"method": "rhf"
			},
			{
				"type": "unocc",
				"energy": -0.07874,
				"method": "rhf"
			},
			{
				"type": "unocc",
				"energy": -0.04778,
				"method": "rhf"
			},
			{
				"type": "unocc",
				"energy": 0.0496,
				"method": "rhf"
			},
			{
				"type": "unocc",
				"energy": 0.0773,
				"method": "rhf"
			},
			{
				"type": "unocc",
				"energy": 0.08905,
				"method": "rhf"
			}
		],
		"cosmo_sigma_profile": { 
			"-0.025": 0.0,
			"-0.024": 0.0,
			"-0.023": 0.0,
			"-0.022": 0.0,
			"-0.021": 0.0,
			"-0.02": 0.0,
			"-0.019": 0.0,
			"-0.018": 0.083254200731,
			"-0.017": 1.36123982631,
			"-0.016": 1.71833057593,
			"-0.015": 1.96534175892,
			"-0.014": 1.02028471777,
			"-0.013": 2.35348894774,
			"-0.012": 1.50419110465,
			"-0.011": 1.41442496184,
			"-0.01": 0.935696059203,
			"-0.009": 3.54005275909,
			"-0.008": 3.51017891866,
			"-0.007": 3.72896175576,
			"-0.006": 8.64921582187,
			"-0.005": 11.1813753369,
			"-0.004": 12.0062240445,
			"-0.003": 12.0723068319,
			"-0.002": 12.6950713713,
			"-0.001": 9.39782584936,
			"0.0": 4.49690147852,
			"0.001": 5.47997252605,
			"0.002": 4.68210388848,
			"0.003": 5.63969925262,
			"0.004": 6.14960620233,
			"0.005": 6.27431818908,
			"0.006": 5.83516765244,
			"0.007": 6.880776907,
			"0.008": 8.38523499785,
			"0.009": 9.00350047766,
			"0.01": 7.41584195663,
			"0.011": 5.44617711994,
			"0.012": 2.139340016,
			"0.013": 0.0,
			"0.014": 0.0,
			"0.015": 0.0,
			"0.016": 0.0,
			"0.017": 0.0,
			"0.018": 0.0,
			"0.019": 0.0,
			"0.02": 0.0,
			"0.021": 0.0,
			"0.022": 0.0,
			"0.023": 0.0,
			"0.024": 0.0,
			"0.025": 0.0
		}
	}
}
