{
	 "smiles": "CCC(=C(CC)C1=CC=C(O)C=C1)C1=CC=C(O)C=C1", 
	 "Tm": 445.5, 
	 "num_atms": 40, 
	 "gaussian": { 
		 "optdone": 1, 
		 "sigma_profile": "yes", 
		 "theory": "DFT", 
		 "functional": "B3LYP", 
		 "basiset": "6-31G**", 
		 "properties": { 
			 "R2extent": 7543.1294, 
			 "electric_dipole_moment_norm": 1.08053724138, 
			 "electric_quadrupole_moment_norm": 21.4576348457, 
			 "total_energy": -848.410090116, 
			 "HOMO_LUMO_gap": 0.19541, 
			 "cosmo_polarized_energy": -14.49, 
			 "cosmo_cavitation_energy": 42.55, 
			 "cosmo_dispersion_energy": -28.41, 
			 "cosmo_repulsion_energy": 2.22, 
			 "cosmo_total_nonelectrostatic_energy": 16.36, 
			 "SMD_solvation_energy": 7.8 
		},
		"coords": [
			{
				"x": -1.554054001,
				"y": 2.0616063767,
				"z": -1.8166651771,
				"element": "C" 
			},
			{
				"x": -1.6569224749,
				"y": 1.1346106131,
				"z": -0.5930996032,
				"element": "C" 
			},
			{
				"x": -0.3439092256,
				"y": 0.9486469295,
				"z": 0.1511877636,
				"element": "C" 
			},
			{
				"x": 0.3202676471,
				"y": -0.2309311339,
				"z": 0.2083368552,
				"element": "C" 
			},
			{
				"x": 1.5588807162,
				"y": -0.4534195761,
				"z": 1.0620771186,
				"element": "C" 
			},
			{
				"x": 2.8405676373,
				"y": -0.7028598546,
				"z": 0.2484083599,
				"element": "C" 
			},
			{
				"x": -0.1338570771,
				"y": -1.4400375873,
				"z": -0.5492447355,
				"element": "C" 
			},
			{
				"x": -0.1201769258,
				"y": -1.4789311611,
				"z": -1.9513589686,
				"element": "C" 
			},
			{
				"x": -0.5154883842,
				"y": -2.617686471,
				"z": -2.6545025295,
				"element": "C" 
			},
			{
				"x": -0.9339727836,
				"y": -3.7559072542,
				"z": -1.9599992559,
				"element": "C" 
			},
			{
				"x": -1.3338209048,
				"y": -4.9033548862,
				"z": -2.5869718843,
				"element": "O" 
			},
			{
				"x": -0.9497375274,
				"y": -3.7440294558,
				"z": -0.5606053744,
				"element": "C" 
			},
			{
				"x": -0.5484801299,
				"y": -2.6027552562,
				"z": 0.1258048563,
				"element": "C" 
			},
			{
				"x": 0.1500217304,
				"y": 2.1770849767,
				"z": 0.850961531,
				"element": "C" 
			},
			{
				"x": 1.3470618313,
				"y": 2.8108471014,
				"z": 0.4738757252,
				"element": "C" 
			},
			{
				"x": 1.7932630524,
				"y": 3.9697796577,
				"z": 1.10340536,
				"element": "C" 
			},
			{
				"x": 1.0392393841,
				"y": 4.5325244608,
				"z": 2.1377291793,
				"element": "C" 
			},
			{
				"x": 1.5183689755,
				"y": 5.6705024892,
				"z": 2.7251824432,
				"element": "O" 
			},
			{
				"x": -0.1592343265,
				"y": 3.9253477069,
				"z": 2.5271050337,
				"element": "C" 
			},
			{
				"x": -0.5946922246,
				"y": 2.7676955932,
				"z": 1.8838973563,
				"element": "C" 
			},
			{
				"x": -0.88912805,
				"y": 1.6389409669,
				"z": -2.5773178016,
				"element": "H" 
			},
			{
				"x": -1.1593506853,
				"y": 3.0438119449,
				"z": -1.5388550643,
				"element": "H" 
			},
			{
				"x": -2.5375331602,
				"y": 2.2099412521,
				"z": -2.2751820267,
				"element": "H" 
			},
			{
				"x": -2.057410884,
				"y": 0.1649024793,
				"z": -0.8983175438,
				"element": "H" 
			},
			{
				"x": -2.3866923854,
				"y": 1.5700591889,
				"z": 0.1039496081,
				"element": "H" 
			},
			{
				"x": 1.7094055032,
				"y": 0.3938263001,
				"z": 1.7353795198,
				"element": "H" 
			},
			{
				"x": 1.3825554557,
				"y": -1.3321558988,
				"z": 1.6982404996,
				"element": "H" 
			},
			{
				"x": 3.1016213266,
				"y": 0.1726860634,
				"z": -0.3553547958,
				"element": "H" 
			},
			{
				"x": 2.7206118038,
				"y": -1.5523404361,
				"z": -0.4310829837,
				"element": "H" 
			},
			{
				"x": 3.6853404443,
				"y": -0.9172699623,
				"z": 0.9114985283,
				"element": "H" 
			},
			{
				"x": 0.2146155371,
				"y": -0.605105377,
				"z": -2.5022629002,
				"element": "H" 
			},
			{
				"x": -0.4920610774,
				"y": -2.6207030745,
				"z": -3.7427075064,
				"element": "H" 
			},
			{
				"x": -1.2748093757,
				"y": -4.7768169101,
				"z": -3.5427327821,
				"element": "H" 
			},
			{
				"x": -1.2796281821,
				"y": -4.6327748473,
				"z": -0.0324511044,
				"element": "H" 
			},
			{
				"x": -0.5734613398,
				"y": -2.6080035015,
				"z": 1.2121835759,
				"element": "H" 
			},
			{
				"x": 1.9339887073,
				"y": 2.3884726413,
				"z": -0.3363105678,
				"element": "H" 
			},
			{
				"x": 2.7173705609,
				"y": 4.4533852412,
				"z": 0.8038329706,
				"element": "H" 
			},
			{
				"x": 0.9043083612,
				"y": 5.9509147631,
				"z": 3.4160036883,
				"element": "H" 
			},
			{
				"x": -0.7504109985,
				"y": 4.3553980137,
				"z": 3.3335771117,
				"element": "H" 
			},
			{
				"x": -1.5245565503,
				"y": 2.306497884,
				"z": 2.2054855209,
				"element": "H" 
			}
		],
		 "valence_orbital": [ 
			{
				"type": "occ",
				"energy": -0.25035,
				"method": "rhf"
			},
			{
				"type": "occ",
				"energy": -0.24897,
				"method": "rhf"
			},
			{
				"type": "occ",
				"energy": -0.24018,
				"method": "rhf"
			},
			{
				"type": "occ",
				"energy": -0.22125,
				"method": "rhf"
			},
			{
				"type": "occ",
				"energy": -0.20044,
				"method": "rhf"
			},
			{
				"type": "unocc",
				"energy": -0.00503,
				"method": "rhf"
			},
			{
				"type": "unocc",
				"energy": -0.00202,
				"method": "rhf"
			},
			{
				"type": "unocc",
				"energy": 0.00031,
				"method": "rhf"
			},
			{
				"type": "unocc",
				"energy": 0.01996,
				"method": "rhf"
			},
			{
				"type": "unocc",
				"energy": 0.04397,
				"method": "rhf"
			}
		],
		"cosmo_sigma_profile": { 
			"-0.025": 0.0,
			"-0.024": 0.0,
			"-0.023": 0.0,
			"-0.022": 0.0,
			"-0.021": 0.0,
			"-0.02": 0.0,
			"-0.019": 0.0,
			"-0.018": 0.301113187117,
			"-0.017": 2.28480494367,
			"-0.016": 1.8786576036,
			"-0.015": 1.99474378492,
			"-0.014": 2.35337739018,
			"-0.013": 2.35944492452,
			"-0.012": 2.06930659503,
			"-0.011": 0.946384318346,
			"-0.01": 1.98017098343,
			"-0.009": 2.44313317899,
			"-0.008": 2.36703376742,
			"-0.007": 2.37984021063,
			"-0.006": 6.75869523655,
			"-0.005": 12.6687625267,
			"-0.004": 19.139399148,
			"-0.003": 22.5896743034,
			"-0.002": 24.3574303701,
			"-0.001": 27.8496301175,
			"0.0": 32.056910758,
			"0.001": 39.4711637065,
			"0.002": 33.6971480781,
			"0.003": 20.5658540177,
			"0.004": 23.8047849846,
			"0.005": 21.753507821,
			"0.006": 9.78765264469,
			"0.007": 2.36864580727,
			"0.008": 2.94135875087,
			"0.009": 2.94626850234,
			"0.01": 3.51451422125,
			"0.011": 3.47479592009,
			"0.012": 2.23824381539,
			"0.013": 0.0,
			"0.014": 0.0,
			"0.015": 0.0,
			"0.016": 0.0,
			"0.017": 0.0,
			"0.018": 0.0,
			"0.019": 0.0,
			"0.02": 0.0,
			"0.021": 0.0,
			"0.022": 0.0,
			"0.023": 0.0,
			"0.024": 0.0,
			"0.025": 0.0
		}
	}
}
