{
	 "smiles": "O=CC1=C(CN2CCOCC2)C=CC=C1", 
	 "Tm": 340.65, 
	 "num_atms": 30, 
	 "gaussian": { 
		 "optdone": 1, 
		 "sigma_profile": "yes", 
		 "theory": "DFT", 
		 "functional": "B3LYP", 
		 "basiset": "6-31G**", 
		 "properties": { 
			 "R2extent": 3576.6397, 
			 "electric_dipole_moment_norm": 2.88446390686, 
			 "electric_quadrupole_moment_norm": 16.9888745448, 
			 "total_energy": -671.472274129, 
			 "HOMO_LUMO_gap": 0.15124, 
			 "cosmo_polarized_energy": -10.86, 
			 "cosmo_cavitation_energy": 31.61, 
			 "cosmo_dispersion_energy": -22.45, 
			 "cosmo_repulsion_energy": 1.74, 
			 "cosmo_total_nonelectrostatic_energy": 10.89, 
			 "SMD_solvation_energy": 5.24 
		},
		"coords": [
			{
				"x": -2.946390922,
				"y": 0.6170482794,
				"z": 1.2493065355,
				"element": "O" 
			},
			{
				"x": -1.9507910676,
				"y": 0.0227848553,
				"z": 0.8722306928,
				"element": "C" 
			},
			{
				"x": -0.6094605826,
				"y": 0.2018219851,
				"z": 1.4937454396,
				"element": "C" 
			},
			{
				"x": 0.5453044957,
				"y": -0.4514628093,
				"z": 1.0052080738,
				"element": "C" 
			},
			{
				"x": 0.5186455032,
				"y": -1.360573855,
				"z": -0.2112970098,
				"element": "C" 
			},
			{
				"x": 0.0700067714,
				"y": -0.6617710668,
				"z": -1.4286518252,
				"element": "N" 
			},
			{
				"x": -0.1625883443,
				"y": -1.5582051497,
				"z": -2.5727958467,
				"element": "C" 
			},
			{
				"x": 1.0943145964,
				"y": -1.7003494677,
				"z": -3.4759111024,
				"element": "C" 
			},
			{
				"x": 2.2725841494,
				"y": -1.4258960134,
				"z": -2.7333542907,
				"element": "O" 
			},
			{
				"x": 2.3266019623,
				"y": -0.0604196568,
				"z": -2.3263703039,
				"element": "C" 
			},
			{
				"x": 0.9380597984,
				"y": 0.4397723278,
				"z": -1.8464750826,
				"element": "C" 
			},
			{
				"x": 1.7555332562,
				"y": -0.2493844161,
				"z": 1.6782028383,
				"element": "C" 
			},
			{
				"x": 1.8333759427,
				"y": 0.5735813416,
				"z": 2.803644456,
				"element": "C" 
			},
			{
				"x": 0.6899501528,
				"y": 1.2202881155,
				"z": 3.2774712502,
				"element": "C" 
			},
			{
				"x": -0.5224224843,
				"y": 1.0309728952,
				"z": 2.6219792565,
				"element": "C" 
			},
			{
				"x": -2.0058715928,
				"y": -0.6924245785,
				"z": 0.033340125,
				"element": "H" 
			},
			{
				"x": 1.5082247516,
				"y": -1.8277808644,
				"z": -0.326256033,
				"element": "H" 
			},
			{
				"x": -0.1912542652,
				"y": -2.179360006,
				"z": -0.0393719908,
				"element": "H" 
			},
			{
				"x": -0.9987557458,
				"y": -1.1679411263,
				"z": -3.1702143099,
				"element": "H" 
			},
			{
				"x": -0.4701506417,
				"y": -2.5347917637,
				"z": -2.1872933872,
				"element": "H" 
			},
			{
				"x": 1.19691952,
				"y": -2.7188846083,
				"z": -3.860776231,
				"element": "H" 
			},
			{
				"x": 1.0265181076,
				"y": -1.0239066303,
				"z": -4.3440338914,
				"element": "H" 
			},
			{
				"x": 2.6981771329,
				"y": 0.5724205557,
				"z": -3.149822857,
				"element": "H" 
			},
			{
				"x": 3.0642529279,
				"y": -0.0247636146,
				"z": -1.5188780939,
				"element": "H" 
			},
			{
				"x": 0.4221452644,
				"y": 0.9680717946,
				"z": -2.6574756307,
				"element": "H" 
			},
			{
				"x": 1.052950082,
				"y": 1.1536078109,
				"z": -1.0258951981,
				"element": "H" 
			},
			{
				"x": 2.6504243185,
				"y": -0.7480486619,
				"z": 1.314344378,
				"element": "H" 
			},
			{
				"x": 2.7867319317,
				"y": 0.7104666491,
				"z": 3.3063348282,
				"element": "H" 
			},
			{
				"x": 0.7458088365,
				"y": 1.8633454395,
				"z": 4.1508673725,
				"element": "H" 
			},
			{
				"x": -1.4332438553,
				"y": 1.5111822391,
				"z": 2.9654978379,
				"element": "H" 
			}
		],
		 "valence_orbital": [ 
			{
				"type": "occ",
				"energy": -0.26824,
				"method": "rhf"
			},
			{
				"type": "occ",
				"energy": -0.25853,
				"method": "rhf"
			},
			{
				"type": "occ",
				"energy": -0.25703,
				"method": "rhf"
			},
			{
				"type": "occ",
				"energy": -0.24513,
				"method": "rhf"
			},
			{
				"type": "occ",
				"energy": -0.21007,
				"method": "rhf"
			},
			{
				"type": "unocc",
				"energy": -0.05883,
				"method": "rhf"
			},
			{
				"type": "unocc",
				"energy": -0.01182,
				"method": "rhf"
			},
			{
				"type": "unocc",
				"energy": 0.04228,
				"method": "rhf"
			},
			{
				"type": "unocc",
				"energy": 0.07003,
				"method": "rhf"
			},
			{
				"type": "unocc",
				"energy": 0.08853,
				"method": "rhf"
			}
		],
		"cosmo_sigma_profile": { 
			"-0.025": 0.0,
			"-0.024": 0.0,
			"-0.023": 0.0,
			"-0.022": 0.0,
			"-0.021": 0.0,
			"-0.02": 0.0,
			"-0.019": 0.0,
			"-0.018": 0.0,
			"-0.017": 0.0,
			"-0.016": 0.0,
			"-0.015": 0.0,
			"-0.014": 0.0,
			"-0.013": 0.0,
			"-0.012": 0.0,
			"-0.011": 0.0,
			"-0.01": 0.0,
			"-0.009": 0.0,
			"-0.008": 0.0,
			"-0.007": 0.947442566646,
			"-0.006": 8.67122174983,
			"-0.005": 18.0109801187,
			"-0.004": 33.8117917991,
			"-0.003": 35.0698063941,
			"-0.002": 26.1028518228,
			"-0.001": 19.444769702,
			"0.0": 14.8536290021,
			"0.001": 14.9450586692,
			"0.002": 14.3001036617,
			"0.003": 14.4208527963,
			"0.004": 11.9235697521,
			"0.005": 5.35964200881,
			"0.006": 4.34416300441,
			"0.007": 2.51420980623,
			"0.008": 3.65490961086,
			"0.009": 4.17995491663,
			"0.01": 3.74910452008,
			"0.011": 4.17524977383,
			"0.012": 4.38402185948,
			"0.013": 3.35548219407,
			"0.014": 0.72033778797,
			"0.015": 0.0,
			"0.016": 0.0,
			"0.017": 0.0,
			"0.018": 0.0,
			"0.019": 0.0,
			"0.02": 0.0,
			"0.021": 0.0,
			"0.022": 0.0,
			"0.023": 0.0,
			"0.024": 0.0,
			"0.025": 0.0
		}
	}
}
