{
	 "smiles": "COC(=O)C1=CC(C(C)=O)=C(O)C=C1", 
	 "Tm": 370.15, 
	 "num_atms": 24, 
	 "gaussian": { 
		 "optdone": 1, 
		 "sigma_profile": "yes", 
		 "theory": "DFT", 
		 "functional": "B3LYP", 
		 "basiset": "6-31G**", 
		 "properties": { 
			 "R2extent": 4111.5299, 
			 "electric_dipole_moment_norm": 2.06063618089, 
			 "electric_quadrupole_moment_norm": 12.4904192772, 
			 "total_energy": -688.015140008, 
			 "HOMO_LUMO_gap": 0.16764, 
			 "cosmo_polarized_energy": -10.23, 
			 "cosmo_cavitation_energy": 28.52, 
			 "cosmo_dispersion_energy": -20.99, 
			 "cosmo_repulsion_energy": 1.64, 
			 "cosmo_total_nonelectrostatic_energy": 9.17, 
			 "SMD_solvation_energy": 7.41 
		},
		"coords": [
			{
				"x": -0.6500305952,
				"y": -1.0755071059,
				"z": -3.8415889401,
				"element": "C" 
			},
			{
				"x": 0.1733865586,
				"y": -0.3327745174,
				"z": -2.9298481304,
				"element": "O" 
			},
			{
				"x": -0.4354417432,
				"y": 0.0469621143,
				"z": -1.781752044,
				"element": "C" 
			},
			{
				"x": -1.5966916129,
				"y": -0.2160161388,
				"z": -1.5283424166,
				"element": "O" 
			},
			{
				"x": 0.4701738636,
				"y": 0.8087963659,
				"z": -0.8862434416,
				"element": "C" 
			},
			{
				"x": -0.0395627911,
				"y": 1.2556753396,
				"z": 0.3293468403,
				"element": "C" 
			},
			{
				"x": 0.7484953873,
				"y": 1.9825942786,
				"z": 1.2345066495,
				"element": "C" 
			},
			{
				"x": 0.2226065621,
				"y": 2.4615518636,
				"z": 2.5242163722,
				"element": "C" 
			},
			{
				"x": -1.2110486428,
				"y": 2.1775745526,
				"z": 2.916325974,
				"element": "C" 
			},
			{
				"x": 0.9455323661,
				"y": 3.1025498624,
				"z": 3.3038187046,
				"element": "O" 
			},
			{
				"x": 2.1046099662,
				"y": 2.2636234161,
				"z": 0.887127172,
				"element": "C" 
			},
			{
				"x": 2.9145897734,
				"y": 2.9478825128,
				"z": 1.6938680355,
				"element": "O" 
			},
			{
				"x": 2.6158605099,
				"y": 1.8094829379,
				"z": -0.3438619782,
				"element": "C" 
			},
			{
				"x": 1.8126327831,
				"y": 1.0955221106,
				"z": -1.2133252058,
				"element": "C" 
			},
			{
				"x": -0.0138662166,
				"y": -1.2976178701,
				"z": -4.6983311476,
				"element": "H" 
			},
			{
				"x": -1.0040344154,
				"y": -1.9989443443,
				"z": -3.3764104394,
				"element": "H" 
			},
			{
				"x": -1.5155453896,
				"y": -0.4832885184,
				"z": -4.1491670726,
				"element": "H" 
			},
			{
				"x": -1.0737297426,
				"y": 1.0222981149,
				"z": 0.5567633767,
				"element": "H" 
			},
			{
				"x": -1.9084399243,
				"y": 2.6051000918,
				"z": 2.1884647526,
				"element": "H" 
			},
			{
				"x": -1.3962645385,
				"y": 2.6149933244,
				"z": 3.8975318465,
				"element": "H" 
			},
			{
				"x": -1.4004459788,
				"y": 1.0998373016,
				"z": 2.955429849,
				"element": "H" 
			},
			{
				"x": 2.3749841022,
				"y": 3.1764017005,
				"z": 2.5003116334,
				"element": "H" 
			},
			{
				"x": 3.6492215869,
				"y": 2.0372305207,
				"z": -0.5819024172,
				"element": "H" 
			},
			{
				"x": 2.2117081319,
				"y": 0.7483720869,
				"z": -2.1597379728,
				"element": "H" 
			}
		],
		 "valence_orbital": [ 
			{
				"type": "occ",
				"energy": -0.30435,
				"method": "rhf"
			},
			{
				"type": "occ",
				"energy": -0.27838,
				"method": "rhf"
			},
			{
				"type": "occ",
				"energy": -0.275,
				"method": "rhf"
			},
			{
				"type": "occ",
				"energy": -0.27035,
				"method": "rhf"
			},
			{
				"type": "occ",
				"energy": -0.2376,
				"method": "rhf"
			},
			{
				"type": "unocc",
				"energy": -0.06996,
				"method": "rhf"
			},
			{
				"type": "unocc",
				"energy": -0.04169,
				"method": "rhf"
			},
			{
				"type": "unocc",
				"energy": 0.0161,
				"method": "rhf"
			},
			{
				"type": "unocc",
				"energy": 0.06928,
				"method": "rhf"
			},
			{
				"type": "unocc",
				"energy": 0.09161,
				"method": "rhf"
			}
		],
		"cosmo_sigma_profile": { 
			"-0.025": 0.0,
			"-0.024": 0.0,
			"-0.023": 0.0,
			"-0.022": 0.0,
			"-0.021": 0.0,
			"-0.02": 0.0,
			"-0.019": 0.0,
			"-0.018": 0.0,
			"-0.017": 0.0,
			"-0.016": 0.0,
			"-0.015": 0.0,
			"-0.014": 0.0,
			"-0.013": 0.0,
			"-0.012": 0.0,
			"-0.011": 0.0,
			"-0.01": 0.0,
			"-0.009": 0.0,
			"-0.008": 0.230947174056,
			"-0.007": 9.08585377351,
			"-0.006": 15.037288311,
			"-0.005": 18.0040609351,
			"-0.004": 18.8212558728,
			"-0.003": 22.7476816876,
			"-0.002": 19.7792499254,
			"-0.001": 15.5970805967,
			"0.0": 17.7832647404,
			"0.001": 20.0903688739,
			"0.002": 15.8705718915,
			"0.003": 7.83790553226,
			"0.004": 6.71202422952,
			"0.005": 6.42466799545,
			"0.006": 5.39450919634,
			"0.007": 4.02113171213,
			"0.008": 2.96127876252,
			"0.009": 5.38055985884,
			"0.01": 4.82088927689,
			"0.011": 4.89961282689,
			"0.012": 5.62585577872,
			"0.013": 0.488627135368,
			"0.014": 0.0,
			"0.015": 0.0,
			"0.016": 0.0,
			"0.017": 0.0,
			"0.018": 0.0,
			"0.019": 0.0,
			"0.02": 0.0,
			"0.021": 0.0,
			"0.022": 0.0,
			"0.023": 0.0,
			"0.024": 0.0,
			"0.025": 0.0
		}
	}
}
