{
	 "smiles": "OC(=O)CCCBr", 
	 "Tm": 305.15, 
	 "num_atms": 14, 
	 "gaussian": { 
		 "optdone": 1, 
		 "sigma_profile": "yes", 
		 "theory": "DFT", 
		 "functional": "B3LYP", 
		 "basiset": "6-31G**", 
		 "properties": { 
			 "R2extent": 2427.2602, 
			 "electric_dipole_moment_norm": 1.97650825953, 
			 "electric_quadrupole_moment_norm": 7.72535385209, 
			 "total_energy": -2878.52277145, 
			 "HOMO_LUMO_gap": 0.27072, 
			 "cosmo_polarized_energy": -9.26, 
			 "cosmo_cavitation_energy": 19.81, 
			 "cosmo_dispersion_energy": -14.98, 
			 "cosmo_repulsion_energy": 1.29, 
			 "cosmo_total_nonelectrostatic_energy": 6.12, 
			 "SMD_solvation_energy": 3.37 
		},
		"coords": [
			{
				"x": 2.6488865961,
				"y": 1.4357587678,
				"z": -0.0603606356,
				"element": "O" 
			},
			{
				"x": 1.5952677738,
				"y": 1.7607029623,
				"z": 0.7233831645,
				"element": "C" 
			},
			{
				"x": 1.5009531887,
				"y": 1.3888803392,
				"z": 1.8746484943,
				"element": "O" 
			},
			{
				"x": 0.5986803112,
				"y": 2.6259116942,
				"z": -0.0172782398,
				"element": "C" 
			},
			{
				"x": -0.609748003,
				"y": 3.0248692316,
				"z": 0.8321898779,
				"element": "C" 
			},
			{
				"x": -1.5374256164,
				"y": 1.8783925227,
				"z": 1.2106490192,
				"element": "C" 
			},
			{
				"x": -2.4055124472,
				"y": 1.0533755063,
				"z": -0.3788266157,
				"element": "Br" 
			},
			{
				"x": 3.2334638008,
				"y": 0.8826461831,
				"z": 0.4849592783,
				"element": "H" 
			},
			{
				"x": 1.1335460845,
				"y": 3.514718201,
				"z": -0.3717142326,
				"element": "H" 
			},
			{
				"x": 0.2824541952,
				"y": 2.0875063384,
				"z": -0.9180781398,
				"element": "H" 
			},
			{
				"x": -0.2579530403,
				"y": 3.4660727467,
				"z": 1.7736920462,
				"element": "H" 
			},
			{
				"x": -1.1789163351,
				"y": 3.7965255834,
				"z": 0.3045781747,
				"element": "H" 
			},
			{
				"x": -1.0069371398,
				"y": 1.0688883413,
				"z": 1.7071187677,
				"element": "H" 
			},
			{
				"x": -2.3648593684,
				"y": 2.2181515822,
				"z": 1.8319390407,
				"element": "H" 
			}
		],
		 "valence_orbital": [ 
			{
				"type": "occ",
				"energy": -0.34671,
				"method": "rhf"
			},
			{
				"type": "occ",
				"energy": -0.32553,
				"method": "rhf"
			},
			{
				"type": "occ",
				"energy": -0.28496,
				"method": "rhf"
			},
			{
				"type": "occ",
				"energy": -0.27221,
				"method": "rhf"
			},
			{
				"type": "occ",
				"energy": -0.26942,
				"method": "rhf"
			},
			{
				"type": "unocc",
				"energy": 0.0013,
				"method": "rhf"
			},
			{
				"type": "unocc",
				"energy": 0.00577,
				"method": "rhf"
			},
			{
				"type": "unocc",
				"energy": 0.07398,
				"method": "rhf"
			},
			{
				"type": "unocc",
				"energy": 0.09155,
				"method": "rhf"
			},
			{
				"type": "unocc",
				"energy": 0.1277,
				"method": "rhf"
			}
		],
		"cosmo_sigma_profile": { 
			"-0.025": 0.0,
			"-0.024": 0.0,
			"-0.023": 0.0,
			"-0.022": 0.0,
			"-0.021": 0.0,
			"-0.02": 0.0,
			"-0.019": 0.0,
			"-0.018": 0.644831185635,
			"-0.017": 1.088031629,
			"-0.016": 0.881870665471,
			"-0.015": 0.757033190472,
			"-0.014": 0.586473188302,
			"-0.013": 0.288736164458,
			"-0.012": 0.775226611822,
			"-0.011": 1.33271210895,
			"-0.01": 0.692936710691,
			"-0.009": 0.0644571554444,
			"-0.008": 0.491336703073,
			"-0.007": 3.96262520556,
			"-0.006": 6.91442940536,
			"-0.005": 11.3274137628,
			"-0.004": 16.1920600897,
			"-0.003": 15.3502305347,
			"-0.002": 12.0821729988,
			"-0.001": 9.28077067003,
			"0.0": 6.71557904851,
			"0.001": 7.41820245429,
			"0.002": 7.30360927439,
			"0.003": 5.57457292741,
			"0.004": 8.88632792773,
			"0.005": 9.28031324529,
			"0.006": 10.4395667818,
			"0.007": 5.5693895449,
			"0.008": 2.9287634706,
			"0.009": 3.58848329607,
			"0.01": 1.93369744824,
			"0.011": 3.44736198523,
			"0.012": 2.9310960984,
			"0.013": 0.0450277569119,
			"0.014": 0.0,
			"0.015": 0.0,
			"0.016": 0.0,
			"0.017": 0.0,
			"0.018": 0.0,
			"0.019": 0.0,
			"0.02": 0.0,
			"0.021": 0.0,
			"0.022": 0.0,
			"0.023": 0.0,
			"0.024": 0.0,
			"0.025": 0.0
		}
	}
}
