{
	 "smiles": "COC1=C(C=CC(SC)=C1)C(O)=O", 
	 "Tm": 385.15, 
	 "num_atms": 23, 
	 "gaussian": { 
		 "optdone": 1, 
		 "sigma_profile": "yes", 
		 "theory": "DFT", 
		 "functional": "B3LYP", 
		 "basiset": "6-31G**", 
		 "properties": { 
			 "R2extent": 3732.1454, 
			 "electric_dipole_moment_norm": 6.10159249541, 
			 "electric_quadrupole_moment_norm": 26.6557775705, 
			 "total_energy": -972.847801593, 
			 "HOMO_LUMO_gap": 0.18047, 
			 "cosmo_polarized_energy": -15.76, 
			 "cosmo_cavitation_energy": 28.31, 
			 "cosmo_dispersion_energy": -21.42, 
			 "cosmo_repulsion_energy": 1.64, 
			 "cosmo_total_nonelectrostatic_energy": 8.52, 
			 "SMD_solvation_energy": 6.76 
		},
		"coords": [
			{
				"x": -0.9555074694,
				"y": 1.7725210556,
				"z": -3.8604117657,
				"element": "C" 
			},
			{
				"x": -0.3047648974,
				"y": 0.601739314,
				"z": -3.3723804367,
				"element": "O" 
			},
			{
				"x": -0.3013097485,
				"y": 0.3317394833,
				"z": -2.0247449669,
				"element": "C" 
			},
			{
				"x": 0.3628804107,
				"y": -0.8464671451,
				"z": -1.6085444333,
				"element": "C" 
			},
			{
				"x": 0.371810485,
				"y": -1.1297088346,
				"z": -0.2393137652,
				"element": "C" 
			},
			{
				"x": -0.2389662988,
				"y": -0.3053136478,
				"z": 0.6996241196,
				"element": "C" 
			},
			{
				"x": -0.8918427645,
				"y": 0.8566790931,
				"z": 0.2709354574,
				"element": "C" 
			},
			{
				"x": -1.7157772994,
				"y": 2.0061800731,
				"z": 1.3467593705,
				"element": "S" 
			},
			{
				"x": -1.4778720633,
				"y": 1.2909251247,
				"z": 3.0049532637,
				"element": "C" 
			},
			{
				"x": -0.9186678765,
				"y": 1.1695289399,
				"z": -1.0987642921,
				"element": "C" 
			},
			{
				"x": 1.0670115619,
				"y": -1.8339817095,
				"z": -2.5002265434,
				"element": "C" 
			},
			{
				"x": 1.0785710145,
				"y": -1.5927582794,
				"z": -3.8257685182,
				"element": "O" 
			},
			{
				"x": 1.6115357369,
				"y": -2.8209343646,
				"z": -2.0520918179,
				"element": "O" 
			},
			{
				"x": -2.0255887128,
				"y": 1.7550653672,
				"z": -3.6265499611,
				"element": "H" 
			},
			{
				"x": -0.5003999674,
				"y": 2.6783511262,
				"z": -3.4451821118,
				"element": "H" 
			},
			{
				"x": -0.8189655245,
				"y": 1.7593850661,
				"z": -4.9419351659,
				"element": "H" 
			},
			{
				"x": 0.8837313176,
				"y": -2.0352478923,
				"z": 0.0684309424,
				"element": "H" 
			},
			{
				"x": -0.2006493341,
				"y": -0.5741166912,
				"z": 1.7478325541,
				"element": "H" 
			},
			{
				"x": -0.4193354432,
				"y": 1.2320607172,
				"z": 3.2670656289,
				"element": "H" 
			},
			{
				"x": -1.9458562489,
				"y": 0.3076415952,
				"z": 3.0874730394,
				"element": "H" 
			},
			{
				"x": -1.975217015,
				"y": 1.978717739,
				"z": 3.6917674445,
				"element": "H" 
			},
			{
				"x": -1.4252907413,
				"y": 2.069972683,
				"z": -1.4242756931,
				"element": "H" 
			},
			{
				"x": 0.5989708783,
				"y": -0.7644788132,
				"z": -4.011052349,
				"element": "H" 
			}
		],
		 "valence_orbital": [ 
			{
				"type": "occ",
				"energy": -0.30293,
				"method": "rhf"
			},
			{
				"type": "occ",
				"energy": -0.28432,
				"method": "rhf"
			},
			{
				"type": "occ",
				"energy": -0.2583,
				"method": "rhf"
			},
			{
				"type": "occ",
				"energy": -0.25091,
				"method": "rhf"
			},
			{
				"type": "occ",
				"energy": -0.22356,
				"method": "rhf"
			},
			{
				"type": "unocc",
				"energy": -0.04309,
				"method": "rhf"
			},
			{
				"type": "unocc",
				"energy": -0.00824,
				"method": "rhf"
			},
			{
				"type": "unocc",
				"energy": 0.02196,
				"method": "rhf"
			},
			{
				"type": "unocc",
				"energy": 0.06002,
				"method": "rhf"
			},
			{
				"type": "unocc",
				"energy": 0.06157,
				"method": "rhf"
			}
		],
		"cosmo_sigma_profile": { 
			"-0.025": 0.0,
			"-0.024": 0.0,
			"-0.023": 0.0,
			"-0.022": 0.0,
			"-0.021": 0.0,
			"-0.02": 0.0,
			"-0.019": 0.0,
			"-0.018": 0.0,
			"-0.017": 0.0,
			"-0.016": 0.0,
			"-0.015": 0.0,
			"-0.014": 0.0,
			"-0.013": 0.0,
			"-0.012": 0.0,
			"-0.011": 0.0,
			"-0.01": 0.403723180491,
			"-0.009": 0.621857923029,
			"-0.008": 2.72276736382,
			"-0.007": 10.8340798316,
			"-0.006": 22.298950218,
			"-0.005": 21.0515651974,
			"-0.004": 20.4306182956,
			"-0.003": 16.2177700576,
			"-0.002": 14.9272236708,
			"-0.001": 11.0213548491,
			"0.0": 11.3932492904,
			"0.001": 12.7320861511,
			"0.002": 13.2010787032,
			"0.003": 16.9094897325,
			"0.004": 9.96304700536,
			"0.005": 6.54434168111,
			"0.006": 5.31061533826,
			"0.007": 4.7667592439,
			"0.008": 4.00722147995,
			"0.009": 3.32683730341,
			"0.01": 3.19151385187,
			"0.011": 4.67214932124,
			"0.012": 6.31677935397,
			"0.013": 3.60959549041,
			"0.014": 1.26992989977,
			"0.015": 0.00937687491953,
			"0.016": 0.0,
			"0.017": 0.0,
			"0.018": 0.0,
			"0.019": 0.0,
			"0.02": 0.0,
			"0.021": 0.0,
			"0.022": 0.0,
			"0.023": 0.0,
			"0.024": 0.0,
			"0.025": 0.0
		}
	}
}
