{
	 "smiles": "CCOCCOCC", 
	 "Tm": 199.15, 
	 "num_atms": 22, 
	 "gaussian": { 
		 "optdone": 1, 
		 "sigma_profile": "yes", 
		 "theory": "DFT", 
		 "functional": "B3LYP", 
		 "basiset": "6-31G**", 
		 "properties": { 
			 "R2extent": 2278.4263, 
			 "electric_dipole_moment_norm": 2.17699727607, 
			 "electric_quadrupole_moment_norm": 8.20567258243, 
			 "total_energy": -387.501422821, 
			 "HOMO_LUMO_gap": 0.32981, 
			 "cosmo_polarized_energy": -7.55, 
			 "cosmo_cavitation_energy": 24.24, 
			 "cosmo_dispersion_energy": -17.64, 
			 "cosmo_repulsion_energy": 1.53, 
			 "cosmo_total_nonelectrostatic_energy": 8.13, 
			 "SMD_solvation_energy": 4.55 
		},
		"coords": [
			{
				"x": 0.0353157609,
				"y": -3.2839720184,
				"z": 1.6596932782,
				"element": "C" 
			},
			{
				"x": 0.94400194,
				"y": -2.1021251878,
				"z": 1.361312329,
				"element": "C" 
			},
			{
				"x": 0.7712203393,
				"y": -1.1434696319,
				"z": 2.3915915868,
				"element": "O" 
			},
			{
				"x": 1.6293996585,
				"y": -0.0226576266,
				"z": 2.3097840381,
				"element": "C" 
			},
			{
				"x": 1.2124824383,
				"y": 1.0259103255,
				"z": 1.2833134168,
				"element": "C" 
			},
			{
				"x": -0.0043516316,
				"y": 1.609604658,
				"z": 1.7011672869,
				"element": "O" 
			},
			{
				"x": -0.6178509753,
				"y": 2.4592139251,
				"z": 0.7442872228,
				"element": "C" 
			},
			{
				"x": 0.0684255903,
				"y": 3.8171403918,
				"z": 0.5946449686,
				"element": "C" 
			},
			{
				"x": 0.1394472252,
				"y": -4.0527046303,
				"z": 0.8873202113,
				"element": "H" 
			},
			{
				"x": -1.0096041965,
				"y": -2.9624605086,
				"z": 1.6923071975,
				"element": "H" 
			},
			{
				"x": 0.2871069399,
				"y": -3.7251605224,
				"z": 2.6283795129,
				"element": "H" 
			},
			{
				"x": 1.9989382084,
				"y": -2.425256191,
				"z": 1.3182805946,
				"element": "H" 
			},
			{
				"x": 0.6974812943,
				"y": -1.677510796,
				"z": 0.3748167133,
				"element": "H" 
			},
			{
				"x": 1.6170519059,
				"y": 0.4422522971,
				"z": 3.3010461606,
				"element": "H" 
			},
			{
				"x": 2.6646479696,
				"y": -0.3366771626,
				"z": 2.0917508309,
				"element": "H" 
			},
			{
				"x": 1.1012202335,
				"y": 0.57349222,
				"z": 0.2832737378,
				"element": "H" 
			},
			{
				"x": 2.0214692954,
				"y": 1.7724336283,
				"z": 1.2099764134,
				"element": "H" 
			},
			{
				"x": -1.6448586018,
				"y": 2.5992520214,
				"z": 1.0979086335,
				"element": "H" 
			},
			{
				"x": -0.6726712448,
				"y": 1.9513142351,
				"z": -0.233421122,
				"element": "H" 
			},
			{
				"x": 1.0812453045,
				"y": 3.7228762506,
				"z": 0.1902924137,
				"element": "H" 
			},
			{
				"x": 0.1325136966,
				"y": 4.3202754998,
				"z": 1.5643127886,
				"element": "H" 
			},
			{
				"x": -0.5023311507,
				"y": 4.4559288227,
				"z": -0.0881382133,
				"element": "H" 
			}
		],
		 "valence_orbital": [ 
			{
				"type": "occ",
				"energy": -0.34539,
				"method": "rhf"
			},
			{
				"type": "occ",
				"energy": -0.31429,
				"method": "rhf"
			},
			{
				"type": "occ",
				"energy": -0.29893,
				"method": "rhf"
			},
			{
				"type": "occ",
				"energy": -0.24892,
				"method": "rhf"
			},
			{
				"type": "occ",
				"energy": -0.24666,
				"method": "rhf"
			},
			{
				"type": "unocc",
				"energy": 0.08315,
				"method": "rhf"
			},
			{
				"type": "unocc",
				"energy": 0.10711,
				"method": "rhf"
			},
			{
				"type": "unocc",
				"energy": 0.1176,
				"method": "rhf"
			},
			{
				"type": "unocc",
				"energy": 0.12326,
				"method": "rhf"
			},
			{
				"type": "unocc",
				"energy": 0.13129,
				"method": "rhf"
			}
		],
		"cosmo_sigma_profile": { 
			"-0.025": 0.0,
			"-0.024": 0.0,
			"-0.023": 0.0,
			"-0.022": 0.0,
			"-0.021": 0.0,
			"-0.02": 0.0,
			"-0.019": 0.0,
			"-0.018": 0.0,
			"-0.017": 0.0,
			"-0.016": 0.0,
			"-0.015": 0.0,
			"-0.014": 0.0,
			"-0.013": 0.0,
			"-0.012": 0.0,
			"-0.011": 0.0,
			"-0.01": 0.0,
			"-0.009": 0.0,
			"-0.008": 0.0,
			"-0.007": 0.0,
			"-0.006": 0.0,
			"-0.005": 1.06169240732,
			"-0.004": 21.3219232448,
			"-0.003": 37.5408729639,
			"-0.002": 33.9706166946,
			"-0.001": 22.7212013755,
			"0.0": 18.657838004,
			"0.001": 15.9921054349,
			"0.002": 5.16725241144,
			"0.003": 2.7677054939,
			"0.004": 2.9657317129,
			"0.005": 2.61596668427,
			"0.006": 1.79533235102,
			"0.007": 2.37076584383,
			"0.008": 2.95767462277,
			"0.009": 2.59766560081,
			"0.01": 1.44985183735,
			"0.011": 2.07406738501,
			"0.012": 2.56582077733,
			"0.013": 3.33366896227,
			"0.014": 2.62047057661,
			"0.015": 0.730686652295,
			"0.016": 0.0,
			"0.017": 0.0,
			"0.018": 0.0,
			"0.019": 0.0,
			"0.02": 0.0,
			"0.021": 0.0,
			"0.022": 0.0,
			"0.023": 0.0,
			"0.024": 0.0,
			"0.025": 0.0
		}
	}
}
