{
	 "smiles": "O=CC1=CNC2=CC=C(OCC3=CC=CC=C3)C=C12", 
	 "Tm": 514.15, 
	 "num_atms": 32, 
	 "gaussian": { 
		 "optdone": 1, 
		 "sigma_profile": "yes", 
		 "theory": "DFT", 
		 "functional": "B3LYP", 
		 "basiset": "6-31G**", 
		 "properties": { 
			 "R2extent": 8629.1539, 
			 "electric_dipole_moment_norm": 5.43426247986, 
			 "electric_quadrupole_moment_norm": 32.3782820548, 
			 "total_energy": -822.722569847, 
			 "HOMO_LUMO_gap": 0.16845, 
			 "cosmo_polarized_energy": -18.27, 
			 "cosmo_cavitation_energy": 37.16, 
			 "cosmo_dispersion_energy": -26.88, 
			 "cosmo_repulsion_energy": 2.04, 
			 "cosmo_total_nonelectrostatic_energy": 12.32, 
			 "SMD_solvation_energy": 7.19 
		},
		"coords": [
			{
				"x": -1.6085239299,
				"y": -3.1141098669,
				"z": -6.0185630661,
				"element": "O" 
			},
			{
				"x": -1.3682157146,
				"y": -2.6396695193,
				"z": -4.9170573683,
				"element": "C" 
			},
			{
				"x": -0.0863465971,
				"y": -2.0740615015,
				"z": -4.5233099104,
				"element": "C" 
			},
			{
				"x": 1.0213357486,
				"y": -2.0026455697,
				"z": -5.3510119571,
				"element": "C" 
			},
			{
				"x": 2.0586971064,
				"y": -1.420939698,
				"z": -4.685366038,
				"element": "N" 
			},
			{
				"x": 1.6599866701,
				"y": -1.091156728,
				"z": -3.3927934532,
				"element": "C" 
			},
			{
				"x": 2.3631892772,
				"y": -0.4859515869,
				"z": -2.3547931753,
				"element": "C" 
			},
			{
				"x": 1.6987334235,
				"y": -0.2750853309,
				"z": -1.1483383478,
				"element": "C" 
			},
			{
				"x": 0.3513422129,
				"y": -0.6687793491,
				"z": -0.9909369656,
				"element": "C" 
			},
			{
				"x": -0.3630525948,
				"y": -0.4883793758,
				"z": 0.1645701285,
				"element": "O" 
			},
			{
				"x": 0.292989348,
				"y": 0.0639566659,
				"z": 1.3001267801,
				"element": "C" 
			},
			{
				"x": -0.66542619,
				"y": 0.0780234242,
				"z": 2.4679595833,
				"element": "C" 
			},
			{
				"x": -1.5863606845,
				"y": -0.9594094415,
				"z": 2.6571854094,
				"element": "C" 
			},
			{
				"x": -2.4305331607,
				"y": -0.9577941658,
				"z": 3.7675262729,
				"element": "C" 
			},
			{
				"x": -2.359023518,
				"y": 0.0746046076,
				"z": 4.7056430864,
				"element": "C" 
			},
			{
				"x": -1.4425906109,
				"y": 1.1110259846,
				"z": 4.5229451467,
				"element": "C" 
			},
			{
				"x": -0.6047529842,
				"y": 1.1138164445,
				"z": 3.4064550307,
				"element": "C" 
			},
			{
				"x": -0.3489305585,
				"y": -1.2739938587,
				"z": -2.0361088749,
				"element": "C" 
			},
			{
				"x": 0.3037854662,
				"y": -1.4913502574,
				"z": -3.2548300294,
				"element": "C" 
			},
			{
				"x": -2.1534095024,
				"y": -2.6174558706,
				"z": -4.1298694523,
				"element": "H" 
			},
			{
				"x": 1.1140762248,
				"y": -2.3372581846,
				"z": -6.373949062,
				"element": "H" 
			},
			{
				"x": 2.9745898045,
				"y": -1.2545238813,
				"z": -5.0714072279,
				"element": "H" 
			},
			{
				"x": 3.399326575,
				"y": -0.1814054708,
				"z": -2.4705043062,
				"element": "H" 
			},
			{
				"x": 2.2318094775,
				"y": 0.1990950566,
				"z": -0.3340287737,
				"element": "H" 
			},
			{
				"x": 0.6422377858,
				"y": 1.0840484732,
				"z": 1.0852785247,
				"element": "H" 
			},
			{
				"x": 1.1799326356,
				"y": -0.5423312486,
				"z": 1.5435942192,
				"element": "H" 
			},
			{
				"x": -1.645895893,
				"y": -1.7557376229,
				"z": 1.9227764285,
				"element": "H" 
			},
			{
				"x": -3.1457825262,
				"y": -1.7646240399,
				"z": 3.9007424034,
				"element": "H" 
			},
			{
				"x": -3.0168486311,
				"y": 0.0736399715,
				"z": 5.5700215311,
				"element": "H" 
			},
			{
				"x": -1.3856944414,
				"y": 1.9227868524,
				"z": 5.2425860978,
				"element": "H" 
			},
			{
				"x": 0.098985309,
				"y": 1.9304815289,
				"z": 3.2623100015,
				"element": "H" 
			},
			{
				"x": -1.3828295277,
				"y": -1.5587164414,
				"z": -1.8738526359,
				"element": "H" 
			}
		],
		 "valence_orbital": [ 
			{
				"type": "occ",
				"energy": -0.251,
				"method": "rhf"
			},
			{
				"type": "occ",
				"energy": -0.24594,
				"method": "rhf"
			},
			{
				"type": "occ",
				"energy": -0.23673,
				"method": "rhf"
			},
			{
				"type": "occ",
				"energy": -0.2218,
				"method": "rhf"
			},
			{
				"type": "occ",
				"energy": -0.20832,
				"method": "rhf"
			},
			{
				"type": "unocc",
				"energy": -0.03987,
				"method": "rhf"
			},
			{
				"type": "unocc",
				"energy": -0.01131,
				"method": "rhf"
			},
			{
				"type": "unocc",
				"energy": -0.0039,
				"method": "rhf"
			},
			{
				"type": "unocc",
				"energy": -0.00237,
				"method": "rhf"
			},
			{
				"type": "unocc",
				"energy": 0.02645,
				"method": "rhf"
			}
		],
		"cosmo_sigma_profile": { 
			"-0.025": 0.0,
			"-0.024": 0.0,
			"-0.023": 0.0,
			"-0.022": 0.0,
			"-0.021": 0.0,
			"-0.02": 0.0,
			"-0.019": 0.0,
			"-0.018": 0.0,
			"-0.017": 0.578237876619,
			"-0.016": 1.88402009233,
			"-0.015": 1.56177421568,
			"-0.014": 1.59855704251,
			"-0.013": 1.17079601669,
			"-0.012": 1.20603202612,
			"-0.011": 1.17700715,
			"-0.01": 1.7404724281,
			"-0.009": 3.46102386148,
			"-0.008": 2.69333566512,
			"-0.007": 4.27914634282,
			"-0.006": 17.9435130951,
			"-0.005": 25.9406187049,
			"-0.004": 22.4805120482,
			"-0.003": 19.9489763486,
			"-0.002": 15.9371639035,
			"-0.001": 16.2191273959,
			"0.0": 14.7425689089,
			"0.001": 16.3172459083,
			"0.002": 20.8857754897,
			"0.003": 21.7066485467,
			"0.004": 23.6548283891,
			"0.005": 24.7289579613,
			"0.006": 12.4028406893,
			"0.007": 3.6491871929,
			"0.008": 2.43134303241,
			"0.009": 2.77698160182,
			"0.01": 2.67135591922,
			"0.011": 1.96252227831,
			"0.012": 3.8755508245,
			"0.013": 4.34746564614,
			"0.014": 1.61968500204,
			"0.015": 0.177086525603,
			"0.016": 0.0,
			"0.017": 0.0,
			"0.018": 0.0,
			"0.019": 0.0,
			"0.02": 0.0,
			"0.021": 0.0,
			"0.022": 0.0,
			"0.023": 0.0,
			"0.024": 0.0,
			"0.025": 0.0
		}
	}
}
