{
	 "smiles": "CC(C)(NC(=O)C1=CC=CC=C1)C(N)=S", 
	 "Tm": 439.15, 
	 "num_atms": 29, 
	 "gaussian": { 
		 "optdone": 1, 
		 "sigma_profile": "yes", 
		 "theory": "DFT", 
		 "functional": "B3LYP", 
		 "basiset": "6-31G**", 
		 "properties": { 
			 "R2extent": 4188.5964, 
			 "electric_dipole_moment_norm": 6.60521462255, 
			 "electric_quadrupole_moment_norm": 16.1501923131, 
			 "total_energy": -1010.53767036, 
			 "HOMO_LUMO_gap": 0.17301, 
			 "cosmo_polarized_energy": -23.02, 
			 "cosmo_cavitation_energy": 32.9, 
			 "cosmo_dispersion_energy": -22.83, 
			 "cosmo_repulsion_energy": 1.75, 
			 "cosmo_total_nonelectrostatic_energy": 11.82, 
			 "SMD_solvation_energy": 5.3 
		},
		"coords": [
			{
				"x": -1.2941484605,
				"y": 2.7575368896,
				"z": 3.006053919,
				"element": "C" 
			},
			{
				"x": -0.731965265,
				"y": 1.8184673131,
				"z": 1.9123159355,
				"element": "C" 
			},
			{
				"x": -0.1431340519,
				"y": 0.5741147794,
				"z": 2.6130235217,
				"element": "C" 
			},
			{
				"x": 0.3132425917,
				"y": 2.5797724958,
				"z": 1.2158102369,
				"element": "N" 
			},
			{
				"x": 1.4525565439,
				"y": 2.2013506807,
				"z": 0.5362853613,
				"element": "C" 
			},
			{
				"x": 2.3769623727,
				"y": 2.9985576423,
				"z": 0.4092964582,
				"element": "O" 
			},
			{
				"x": 1.5480583477,
				"y": 0.8344961826,
				"z": -0.0814385491,
				"element": "C" 
			},
			{
				"x": 0.5327948694,
				"y": 0.3013401158,
				"z": -0.8869859888,
				"element": "C" 
			},
			{
				"x": 0.715252292,
				"y": -0.9320547736,
				"z": -1.5167321383,
				"element": "C" 
			},
			{
				"x": 1.903133855,
				"y": -1.6430344527,
				"z": -1.3392340367,
				"element": "C" 
			},
			{
				"x": 2.9243770167,
				"y": -1.1061129076,
				"z": -0.5496404159,
				"element": "C" 
			},
			{
				"x": 2.7547738579,
				"y": 0.1343041158,
				"z": 0.0610255941,
				"element": "C" 
			},
			{
				"x": -1.9254292187,
				"y": 1.4984293759,
				"z": 0.9610704903,
				"element": "C" 
			},
			{
				"x": -2.4277463284,
				"y": 0.253475613,
				"z": 1.0480584059,
				"element": "N" 
			},
			{
				"x": -2.5971102476,
				"y": 2.6433358722,
				"z": -0.0423091092,
				"element": "S" 
			},
			{
				"x": -2.117587741,
				"y": 2.2741942478,
				"z": 3.5387466748,
				"element": "H" 
			},
			{
				"x": -0.5054306241,
				"y": 2.9983689287,
				"z": 3.7257116128,
				"element": "H" 
			},
			{
				"x": -1.6745481974,
				"y": 3.6773057316,
				"z": 2.555668594,
				"element": "H" 
			},
			{
				"x": -0.8811790382,
				"y": 0.1214286527,
				"z": 3.2837311692,
				"element": "H" 
			},
			{
				"x": 0.2173489773,
				"y": -0.1798332234,
				"z": 1.9106479353,
				"element": "H" 
			},
			{
				"x": 0.7042741468,
				"y": 0.8850454941,
				"z": 3.2287970978,
				"element": "H" 
			},
			{
				"x": 0.3453604273,
				"y": 3.5670178509,
				"z": 1.4363804597,
				"element": "H" 
			},
			{
				"x": -0.3782601264,
				"y": 0.8669447411,
				"z": -1.0515748115,
				"element": "H" 
			},
			{
				"x": -0.0679079407,
				"y": -1.3309740821,
				"z": -2.1553498629,
				"element": "H" 
			},
			{
				"x": 2.0398393713,
				"y": -2.6049792346,
				"z": -1.8251994012,
				"element": "H" 
			},
			{
				"x": 3.8565415486,
				"y": -1.6489427621,
				"z": -0.4220818554,
				"element": "H" 
			},
			{
				"x": 3.5519400726,
				"y": 0.579150316,
				"z": 0.647915209,
				"element": "H" 
			},
			{
				"x": -3.2147012223,
				"y": 0.0136916735,
				"z": 0.4617298279,
				"element": "H" 
			},
			{
				"x": -1.9753078285,
				"y": -0.4790972763,
				"z": 1.5726776655,
				"element": "H" 
			}
		],
		 "valence_orbital": [ 
			{
				"type": "occ",
				"energy": -0.25885,
				"method": "rhf"
			},
			{
				"type": "occ",
				"energy": -0.25623,
				"method": "rhf"
			},
			{
				"type": "occ",
				"energy": -0.24053,
				"method": "rhf"
			},
			{
				"type": "occ",
				"energy": -0.23414,
				"method": "rhf"
			},
			{
				"type": "occ",
				"energy": -0.21466,
				"method": "rhf"
			},
			{
				"type": "unocc",
				"energy": -0.04165,
				"method": "rhf"
			},
			{
				"type": "unocc",
				"energy": -0.02933,
				"method": "rhf"
			},
			{
				"type": "unocc",
				"energy": -0.00803,
				"method": "rhf"
			},
			{
				"type": "unocc",
				"energy": 0.04501,
				"method": "rhf"
			},
			{
				"type": "unocc",
				"energy": 0.05401,
				"method": "rhf"
			}
		],
		"cosmo_sigma_profile": { 
			"-0.025": 0.0,
			"-0.024": 0.0,
			"-0.023": 0.0,
			"-0.022": 0.0,
			"-0.021": 0.0,
			"-0.02": 0.0,
			"-0.019": 0.0,
			"-0.018": 0.0,
			"-0.017": 0.0,
			"-0.016": 0.283094521375,
			"-0.015": 1.65812186807,
			"-0.014": 2.40909001114,
			"-0.013": 2.81609632668,
			"-0.012": 3.03592084428,
			"-0.011": 2.12639284201,
			"-0.01": 3.27741212042,
			"-0.009": 2.73978936364,
			"-0.008": 3.63093300672,
			"-0.007": 2.87265627441,
			"-0.006": 11.4851796398,
			"-0.005": 20.3938132229,
			"-0.004": 22.0078661104,
			"-0.003": 18.6768586292,
			"-0.002": 19.542258872,
			"-0.001": 21.5340433942,
			"0.0": 15.1750807231,
			"0.001": 12.4752510487,
			"0.002": 11.9145567178,
			"0.003": 12.2150727257,
			"0.004": 15.0150262782,
			"0.005": 8.0550306367,
			"0.006": 6.50049973342,
			"0.007": 6.14101740314,
			"0.008": 7.35740447514,
			"0.009": 5.76890247457,
			"0.01": 5.22237353549,
			"0.011": 5.08221255382,
			"0.012": 3.78424375318,
			"0.013": 4.31044284924,
			"0.014": 4.33633364319,
			"0.015": 0.471440605553,
			"0.016": 0.0,
			"0.017": 0.0,
			"0.018": 0.0,
			"0.019": 0.0,
			"0.02": 0.0,
			"0.021": 0.0,
			"0.022": 0.0,
			"0.023": 0.0,
			"0.024": 0.0,
			"0.025": 0.0
		}
	}
}
