{
	 "smiles": "CC(C)CC(C)(C)CO", 
	 "Tm": 203.15, 
	 "num_atms": 27, 
	 "gaussian": { 
		 "optdone": 1, 
		 "sigma_profile": "yes", 
		 "theory": "DFT", 
		 "functional": "B3LYP", 
		 "basiset": "6-31G**", 
		 "properties": { 
			 "R2extent": 1618.0627, 
			 "electric_dipole_moment_norm": 1.45058951465, 
			 "electric_quadrupole_moment_norm": 5.74398321986, 
			 "total_energy": -390.931445524, 
			 "HOMO_LUMO_gap": 0.33587, 
			 "cosmo_polarized_energy": -5.58, 
			 "cosmo_cavitation_energy": 26.58, 
			 "cosmo_dispersion_energy": -18.79, 
			 "cosmo_repulsion_energy": 1.54, 
			 "cosmo_total_nonelectrostatic_energy": 9.33, 
			 "SMD_solvation_energy": 4.75 
		},
		"coords": [
			{
				"x": -0.8439702342,
				"y": 1.1691221701,
				"z": 1.9795750795,
				"element": "C" 
			},
			{
				"x": -0.4823916914,
				"y": -0.264036917,
				"z": 1.5572492339,
				"element": "C" 
			},
			{
				"x": -0.020464997,
				"y": -1.0639635868,
				"z": 2.7886168736,
				"element": "C" 
			},
			{
				"x": 0.6035133419,
				"y": -0.3679752607,
				"z": 0.4608524448,
				"element": "C" 
			},
			{
				"x": 0.3304220507,
				"y": 0.1759465254,
				"z": -0.9736889755,
				"element": "C" 
			},
			{
				"x": -1.0691372345,
				"y": -0.2295856642,
				"z": -1.4721734938,
				"element": "C" 
			},
			{
				"x": 0.5048519887,
				"y": 1.7057105668,
				"z": -1.0738431882,
				"element": "C" 
			},
			{
				"x": 1.3562499317,
				"y": -0.4764338135,
				"z": -1.9231723537,
				"element": "C" 
			},
			{
				"x": 2.6741280618,
				"y": -0.1524024278,
				"z": -1.4942388557,
				"element": "O" 
			},
			{
				"x": 0.052127271,
				"y": 1.7362074009,
				"z": 2.2592492362,
				"element": "H" 
			},
			{
				"x": -1.3559710662,
				"y": 1.7226659915,
				"z": 1.1882956484,
				"element": "H" 
			},
			{
				"x": -1.5113253956,
				"y": 1.1557476251,
				"z": 2.8488462896,
				"element": "H" 
			},
			{
				"x": -1.3978180383,
				"y": -0.7445290537,
				"z": 1.1845144621,
				"element": "H" 
			},
			{
				"x": 0.8925695931,
				"y": -0.6316968983,
				"z": 3.2162864532,
				"element": "H" 
			},
			{
				"x": 0.1961336445,
				"y": -2.1069206448,
				"z": 2.5327535355,
				"element": "H" 
			},
			{
				"x": -0.7863135592,
				"y": -1.0623252686,
				"z": 3.5720065882,
				"element": "H" 
			},
			{
				"x": 0.8324702151,
				"y": -1.4378871267,
				"z": 0.3555424691,
				"element": "H" 
			},
			{
				"x": 1.5284634693,
				"y": 0.0905932456,
				"z": 0.8313789334,
				"element": "H" 
			},
			{
				"x": -1.8572763781,
				"y": 0.2639292934,
				"z": -0.8960243538,
				"element": "H" 
			},
			{
				"x": -1.2074728485,
				"y": 0.0538573906,
				"z": -2.5221328825,
				"element": "H" 
			},
			{
				"x": -1.227112419,
				"y": -1.3117983918,
				"z": -1.3940131438,
				"element": "H" 
			},
			{
				"x": 1.5151156881,
				"y": 1.9971923767,
				"z": -0.7754628015,
				"element": "H" 
			},
			{
				"x": 0.3530827978,
				"y": 2.0385272568,
				"z": -2.1079015596,
				"element": "H" 
			},
			{
				"x": -0.2091722591,
				"y": 2.2454184388,
				"z": -0.4489253788,
				"element": "H" 
			},
			{
				"x": 1.1765130789,
				"y": -0.1126779762,
				"z": -2.9487764232,
				"element": "H" 
			},
			{
				"x": 1.2015980131,
				"y": -1.5685072867,
				"z": -1.9282932807,
				"element": "H" 
			},
			{
				"x": 3.2984869754,
				"y": -0.5658779649,
				"z": -2.1020205567,
				"element": "H" 
			}
		],
		 "valence_orbital": [ 
			{
				"type": "occ",
				"energy": -0.32353,
				"method": "rhf"
			},
			{
				"type": "occ",
				"energy": -0.30376,
				"method": "rhf"
			},
			{
				"type": "occ",
				"energy": -0.30213,
				"method": "rhf"
			},
			{
				"type": "occ",
				"energy": -0.28981,
				"method": "rhf"
			},
			{
				"type": "occ",
				"energy": -0.26184,
				"method": "rhf"
			},
			{
				"type": "unocc",
				"energy": 0.07403,
				"method": "rhf"
			},
			{
				"type": "unocc",
				"energy": 0.08199,
				"method": "rhf"
			},
			{
				"type": "unocc",
				"energy": 0.11679,
				"method": "rhf"
			},
			{
				"type": "unocc",
				"energy": 0.12528,
				"method": "rhf"
			},
			{
				"type": "unocc",
				"energy": 0.13262,
				"method": "rhf"
			}
		],
		"cosmo_sigma_profile": { 
			"-0.025": 0.0,
			"-0.024": 0.0,
			"-0.023": 0.0,
			"-0.022": 0.0,
			"-0.021": 0.0,
			"-0.02": 0.0,
			"-0.019": 0.0,
			"-0.018": 0.0,
			"-0.017": 0.0,
			"-0.016": 0.247093923038,
			"-0.015": 0.961611755475,
			"-0.014": 1.05959975984,
			"-0.013": 1.16679385978,
			"-0.012": 0.470898655874,
			"-0.011": 0.539796433535,
			"-0.01": 1.09937328201,
			"-0.009": 0.536642261747,
			"-0.008": 0.736779316852,
			"-0.007": 1.29679854479,
			"-0.006": 0.736419924476,
			"-0.005": 1.38054578057,
			"-0.004": 0.759403182791,
			"-0.003": 10.0944139069,
			"-0.002": 35.0846231279,
			"-0.001": 35.3297669791,
			"0.0": 33.4150436718,
			"0.001": 30.2062630276,
			"0.002": 26.2301207027,
			"0.003": 4.09918459965,
			"0.004": 1.91096322084,
			"0.005": 1.72299756646,
			"0.006": 1.36215822831,
			"0.007": 1.96164832867,
			"0.008": 1.45994952236,
			"0.009": 1.50351637316,
			"0.01": 2.03280901308,
			"0.011": 2.00234864483,
			"0.012": 1.6158807144,
			"0.013": 1.48097613732,
			"0.014": 0.217430399215,
			"0.015": 0.0,
			"0.016": 0.0,
			"0.017": 0.0,
			"0.018": 0.0,
			"0.019": 0.0,
			"0.02": 0.0,
			"0.021": 0.0,
			"0.022": 0.0,
			"0.023": 0.0,
			"0.024": 0.0,
			"0.025": 0.0
		}
	}
}
