{
	 "smiles": "CCC1=CC(=O)N2N=C(Br)SC2=N1", 
	 "Tm": 396.15, 
	 "num_atms": 19, 
	 "gaussian": { 
		 "optdone": 1, 
		 "sigma_profile": "yes", 
		 "theory": "DFT", 
		 "functional": "B3LYP", 
		 "basiset": "6-31G**", 
		 "properties": { 
			 "R2extent": 6508.4523, 
			 "electric_dipole_moment_norm": 3.5253301278, 
			 "electric_quadrupole_moment_norm": 18.0249654108, 
			 "total_energy": -3479.39902141, 
			 "HOMO_LUMO_gap": 0.17316, 
			 "cosmo_polarized_energy": -11.69, 
			 "cosmo_cavitation_energy": 28.0, 
			 "cosmo_dispersion_energy": -21.59, 
			 "cosmo_repulsion_energy": 1.69, 
			 "cosmo_total_nonelectrostatic_energy": 8.09, 
			 "SMD_solvation_energy": 2.06 
		},
		"coords": [
			{
				"x": 1.9345932633,
				"y": 2.4843616648,
				"z": 0.4026664817,
				"element": "C" 
			},
			{
				"x": 1.0972211734,
				"y": 2.1322998253,
				"z": -0.838452372,
				"element": "C" 
			},
			{
				"x": 0.19920809,
				"y": 0.9427680341,
				"z": -0.6109798837,
				"element": "C" 
			},
			{
				"x": 0.3546477457,
				"y": -0.2362506965,
				"z": -1.2929827484,
				"element": "C" 
			},
			{
				"x": -0.4880549677,
				"y": -1.391838321,
				"z": -1.0808428232,
				"element": "C" 
			},
			{
				"x": -0.4458833027,
				"y": -2.4778584724,
				"z": -1.6192114241,
				"element": "O" 
			},
			{
				"x": -1.4874516476,
				"y": -1.1049901987,
				"z": -0.0637211916,
				"element": "N" 
			},
			{
				"x": -2.4021699602,
				"y": -2.0550070484,
				"z": 0.3054439022,
				"element": "N" 
			},
			{
				"x": -3.1777640376,
				"y": -1.5797016109,
				"z": 1.2095560805,
				"element": "C" 
			},
			{
				"x": -4.5661273115,
				"y": -2.5865874685,
				"z": 1.9712797048,
				"element": "Br" 
			},
			{
				"x": -2.8918720467,
				"y": 0.0829305774,
				"z": 1.7245893024,
				"element": "S" 
			},
			{
				"x": -1.5549643913,
				"y": 0.1219373949,
				"z": 0.5633865097,
				"element": "C" 
			},
			{
				"x": -0.7808335667,
				"y": 1.1323883187,
				"z": 0.3453238792,
				"element": "N" 
			},
			{
				"x": 2.5352251261,
				"y": 3.3799683937,
				"z": 0.217913105,
				"element": "H" 
			},
			{
				"x": 1.2853017321,
				"y": 2.6756159733,
				"z": 1.2610775343,
				"element": "H" 
			},
			{
				"x": 2.6141808317,
				"y": 1.6667996716,
				"z": 0.6634684675,
				"element": "H" 
			},
			{
				"x": 1.7488183362,
				"y": 1.937361758,
				"z": -1.695797843,
				"element": "H" 
			},
			{
				"x": 0.462657607,
				"y": 2.9889132752,
				"z": -1.0977070803,
				"element": "H" 
			},
			{
				"x": 1.1330673263,
				"y": -0.3536110709,
				"z": -2.0373096011,
				"element": "H" 
			}
		],
		 "valence_orbital": [ 
			{
				"type": "occ",
				"energy": -0.31759,
				"method": "rhf"
			},
			{
				"type": "occ",
				"energy": -0.29554,
				"method": "rhf"
			},
			{
				"type": "occ",
				"energy": -0.28713,
				"method": "rhf"
			},
			{
				"type": "occ",
				"energy": -0.27009,
				"method": "rhf"
			},
			{
				"type": "occ",
				"energy": -0.24048,
				"method": "rhf"
			},
			{
				"type": "unocc",
				"energy": -0.06732,
				"method": "rhf"
			},
			{
				"type": "unocc",
				"energy": -0.04497,
				"method": "rhf"
			},
			{
				"type": "unocc",
				"energy": -0.0298,
				"method": "rhf"
			},
			{
				"type": "unocc",
				"energy": -0.02131,
				"method": "rhf"
			},
			{
				"type": "unocc",
				"energy": -0.01205,
				"method": "rhf"
			}
		],
		"cosmo_sigma_profile": { 
			"-0.025": 0.0,
			"-0.024": 0.0,
			"-0.023": 0.0,
			"-0.022": 0.0,
			"-0.021": 0.0,
			"-0.02": 0.0,
			"-0.019": 0.0,
			"-0.018": 0.0,
			"-0.017": 0.0,
			"-0.016": 0.0,
			"-0.015": 0.0,
			"-0.014": 0.0,
			"-0.013": 0.0,
			"-0.012": 0.0,
			"-0.011": 0.0,
			"-0.01": 0.0,
			"-0.009": 0.197682308985,
			"-0.008": 2.48512376396,
			"-0.007": 5.22684823854,
			"-0.006": 8.62317375478,
			"-0.005": 15.2734080136,
			"-0.004": 17.8187155361,
			"-0.003": 23.8468418278,
			"-0.002": 26.2696624481,
			"-0.001": 27.9495462659,
			"0.0": 24.9774865636,
			"0.001": 24.0927540462,
			"0.002": 11.5519963279,
			"0.003": 4.82398297513,
			"0.004": 3.37052862803,
			"0.005": 2.35882952186,
			"0.006": 3.84170645362,
			"0.007": 3.7164549821,
			"0.008": 2.49573976858,
			"0.009": 2.02735348715,
			"0.01": 2.8624452524,
			"0.011": 3.66016654994,
			"0.012": 6.62590882929,
			"0.013": 4.41398157011,
			"0.014": 1.84824791387,
			"0.015": 0.130726908552,
			"0.016": 0.0,
			"0.017": 0.0,
			"0.018": 0.0,
			"0.019": 0.0,
			"0.02": 0.0,
			"0.021": 0.0,
			"0.022": 0.0,
			"0.023": 0.0,
			"0.024": 0.0,
			"0.025": 0.0
		}
	}
}
