{
	 "smiles": "ClC1=C2SC=C(CBr)C2=CC=C1", 
	 "Tm": 358.15, 
	 "num_atms": 18, 
	 "gaussian": { 
		 "optdone": 1, 
		 "sigma_profile": "yes", 
		 "theory": "DFT", 
		 "functional": "B3LYP", 
		 "basiset": "6-31G**", 
		 "properties": { 
			 "R2extent": 6482.9039, 
			 "electric_dipole_moment_norm": 1.88912880715, 
			 "electric_quadrupole_moment_norm": 16.7105998082, 
			 "total_energy": -3776.36442707, 
			 "HOMO_LUMO_gap": 0.18022, 
			 "cosmo_polarized_energy": -7.44, 
			 "cosmo_cavitation_energy": 27.5, 
			 "cosmo_dispersion_energy": -21.11, 
			 "cosmo_repulsion_energy": 1.63, 
			 "cosmo_total_nonelectrostatic_energy": 8.02, 
			 "SMD_solvation_energy": 2.85 
		},
		"coords": [
			{
				"x": 1.8465006555,
				"y": -0.3100018572,
				"z": 2.7939768063,
				"element": "Cl" 
			},
			{
				"x": 1.0740558106,
				"y": -0.3750174397,
				"z": 1.2209366423,
				"element": "C" 
			},
			{
				"x": 1.4411469103,
				"y": -1.3641165963,
				"z": 0.3035610527,
				"element": "C" 
			},
			{
				"x": 2.6383174136,
				"y": -2.627587815,
				"z": 0.5107025201,
				"element": "S" 
			},
			{
				"x": 2.3014406512,
				"y": -3.2293101316,
				"z": -1.0901211901,
				"element": "C" 
			},
			{
				"x": 1.3389991623,
				"y": -2.5311493735,
				"z": -1.7578941593,
				"element": "C" 
			},
			{
				"x": 0.8545621659,
				"y": -2.8939184922,
				"z": -3.1129823846,
				"element": "C" 
			},
			{
				"x": 1.4628120716,
				"y": -1.6046325659,
				"z": -4.5312758827,
				"element": "Br" 
			},
			{
				"x": 0.823072733,
				"y": -1.429127613,
				"z": -0.9691473798,
				"element": "C" 
			},
			{
				"x": -0.1578327555,
				"y": -0.4809816272,
				"z": -1.3077418841,
				"element": "C" 
			},
			{
				"x": -0.5104332746,
				"y": 0.494121937,
				"z": -0.3846922457,
				"element": "C" 
			},
			{
				"x": 0.0982615495,
				"y": 0.5527221303,
				"z": 0.8802634668,
				"element": "C" 
			},
			{
				"x": 2.8479116401,
				"y": -4.0903713126,
				"z": -1.452890398,
				"element": "H" 
			},
			{
				"x": 1.229258812,
				"y": -3.8608616287,
				"z": -3.4413306397,
				"element": "H" 
			},
			{
				"x": -0.2314986251,
				"y": -2.8705366732,
				"z": -3.1933661168,
				"element": "H" 
			},
			{
				"x": -0.6193303514,
				"y": -0.5020768759,
				"z": -2.2894940947,
				"element": "H" 
			},
			{
				"x": -1.2654553243,
				"y": 1.2313799853,
				"z": -0.6390468012,
				"element": "H" 
			},
			{
				"x": -0.1825892449,
				"y": 1.3187659492,
				"z": 1.5943426884,
				"element": "H" 
			}
		],
		 "valence_orbital": [ 
			{
				"type": "occ",
				"energy": -0.28504,
				"method": "rhf"
			},
			{
				"type": "occ",
				"energy": -0.27564,
				"method": "rhf"
			},
			{
				"type": "occ",
				"energy": -0.27082,
				"method": "rhf"
			},
			{
				"type": "occ",
				"energy": -0.25284,
				"method": "rhf"
			},
			{
				"type": "occ",
				"energy": -0.22937,
				"method": "rhf"
			},
			{
				"type": "unocc",
				"energy": -0.04915,
				"method": "rhf"
			},
			{
				"type": "unocc",
				"energy": -0.01944,
				"method": "rhf"
			},
			{
				"type": "unocc",
				"energy": -0.01686,
				"method": "rhf"
			},
			{
				"type": "unocc",
				"energy": 0.00135,
				"method": "rhf"
			},
			{
				"type": "unocc",
				"energy": 0.03868,
				"method": "rhf"
			}
		],
		"cosmo_sigma_profile": { 
			"-0.025": 0.0,
			"-0.024": 0.0,
			"-0.023": 0.0,
			"-0.022": 0.0,
			"-0.021": 0.0,
			"-0.02": 0.0,
			"-0.019": 0.0,
			"-0.018": 0.0,
			"-0.017": 0.0,
			"-0.016": 0.0,
			"-0.015": 0.0,
			"-0.014": 0.0,
			"-0.013": 0.0,
			"-0.012": 0.0,
			"-0.011": 0.0,
			"-0.01": 0.86098077054,
			"-0.009": 3.95258672618,
			"-0.008": 6.76102754686,
			"-0.007": 9.66292868295,
			"-0.006": 11.2256477184,
			"-0.005": 11.4294845991,
			"-0.004": 9.37080963965,
			"-0.003": 9.30339199269,
			"-0.002": 9.8755071852,
			"-0.001": 10.9012351839,
			"0.0": 15.8316902439,
			"0.001": 26.1703506981,
			"0.002": 32.0318551541,
			"0.003": 27.1690064935,
			"0.004": 22.9476956403,
			"0.005": 8.82701835654,
			"0.006": 10.0370998665,
			"0.007": 2.31571094577,
			"0.008": 0.0,
			"0.009": 0.0,
			"0.01": 0.0,
			"0.011": 0.0,
			"0.012": 0.0,
			"0.013": 0.0,
			"0.014": 0.0,
			"0.015": 0.0,
			"0.016": 0.0,
			"0.017": 0.0,
			"0.018": 0.0,
			"0.019": 0.0,
			"0.02": 0.0,
			"0.021": 0.0,
			"0.022": 0.0,
			"0.023": 0.0,
			"0.024": 0.0,
			"0.025": 0.0
		}
	}
}
