{
	 "smiles": "CN(C)C1=CC=C(NC(=O)NN)C=C1", 
	 "Tm": 414.15, 
	 "num_atms": 28, 
	 "gaussian": { 
		 "optdone": 1, 
		 "sigma_profile": "yes", 
		 "theory": "DFT", 
		 "functional": "B3LYP", 
		 "basiset": "6-31G**", 
		 "properties": { 
			 "R2extent": 4677.4463, 
			 "electric_dipole_moment_norm": 5.13074103517, 
			 "electric_quadrupole_moment_norm": 10.6912869595, 
			 "total_energy": -645.607271325, 
			 "HOMO_LUMO_gap": 0.18107, 
			 "cosmo_polarized_energy": -14.82, 
			 "cosmo_cavitation_energy": 31.02, 
			 "cosmo_dispersion_energy": -22.78, 
			 "cosmo_repulsion_energy": 1.8, 
			 "cosmo_total_nonelectrostatic_energy": 10.05, 
			 "SMD_solvation_energy": 6.11 
		},
		"coords": [
			{
				"x": 3.0035097587,
				"y": 0.7722797446,
				"z": -3.3254251142,
				"element": "C" 
			},
			{
				"x": 2.2158162226,
				"y": -0.3433379264,
				"z": -2.8296333971,
				"element": "N" 
			},
			{
				"x": 1.3386196542,
				"y": -1.0283141736,
				"z": -3.7635931535,
				"element": "C" 
			},
			{
				"x": 1.9580927714,
				"y": -0.4375564905,
				"z": -1.4653692973,
				"element": "C" 
			},
			{
				"x": 1.0170731513,
				"y": -1.3582820223,
				"z": -0.9524222304,
				"element": "C" 
			},
			{
				"x": 0.7946114566,
				"y": -1.483922378,
				"z": 0.4157442688,
				"element": "C" 
			},
			{
				"x": 1.4644532438,
				"y": -0.6655881618,
				"z": 1.3348311911,
				"element": "C" 
			},
			{
				"x": 1.2747668893,
				"y": -0.7843781279,
				"z": 2.7358058566,
				"element": "N" 
			},
			{
				"x": 0.1021537416,
				"y": -0.8487265455,
				"z": 3.4673522767,
				"element": "C" 
			},
			{
				"x": 0.1145304508,
				"y": -0.9330214826,
				"z": 4.6920017178,
				"element": "O" 
			},
			{
				"x": -1.0775716704,
				"y": -0.8222671113,
				"z": 2.7387058184,
				"element": "N" 
			},
			{
				"x": -2.2889334682,
				"y": -0.6419341285,
				"z": 3.4501869179,
				"element": "N" 
			},
			{
				"x": 2.3860131032,
				"y": 0.2631837602,
				"z": 0.8354514627,
				"element": "C" 
			},
			{
				"x": 2.6371687982,
				"y": 0.3734225476,
				"z": -0.5275307564,
				"element": "C" 
			},
			{
				"x": 4.0096354441,
				"y": 0.7675164674,
				"z": -2.890878853,
				"element": "H" 
			},
			{
				"x": 2.5470156265,
				"y": 1.7521284051,
				"z": -3.1121081028,
				"element": "H" 
			},
			{
				"x": 3.1163181079,
				"y": 0.6772930099,
				"z": -4.4065850141,
				"element": "H" 
			},
			{
				"x": 0.2927642125,
				"y": -0.6869431122,
				"z": -3.7030974405,
				"element": "H" 
			},
			{
				"x": 1.6949476463,
				"y": -0.8559302089,
				"z": -4.7804276654,
				"element": "H" 
			},
			{
				"x": 1.3501081649,
				"y": -2.110729541,
				"z": -3.5926414134,
				"element": "H" 
			},
			{
				"x": 0.4617234259,
				"y": -2.0040757375,
				"z": -1.6210959297,
				"element": "H" 
			},
			{
				"x": 0.0911146978,
				"y": -2.2275672008,
				"z": 0.7749225477,
				"element": "H" 
			},
			{
				"x": 2.0831846147,
				"y": -0.6896624435,
				"z": 3.3338738638,
				"element": "H" 
			},
			{
				"x": -1.0640277861,
				"y": -0.338882584,
				"z": 1.8499379178,
				"element": "H" 
			},
			{
				"x": -2.6039264146,
				"y": -1.5676278115,
				"z": 3.7365759071,
				"element": "H" 
			},
			{
				"x": -2.0533620752,
				"y": -0.1623912162,
				"z": 4.3209612357,
				"element": "H" 
			},
			{
				"x": 2.9122707752,
				"y": 0.9158667881,
				"z": 1.527309115,
				"element": "H" 
			},
			{
				"x": 3.3599294572,
				"y": 1.1085476811,
				"z": -0.8588517292,
				"element": "H" 
			}
		],
		 "valence_orbital": [ 
			{
				"type": "occ",
				"energy": -0.25722,
				"method": "rhf"
			},
			{
				"type": "occ",
				"energy": -0.25334,
				"method": "rhf"
			},
			{
				"type": "occ",
				"energy": -0.25132,
				"method": "rhf"
			},
			{
				"type": "occ",
				"energy": -0.24053,
				"method": "rhf"
			},
			{
				"type": "occ",
				"energy": -0.18666,
				"method": "rhf"
			},
			{
				"type": "unocc",
				"energy": -0.00559,
				"method": "rhf"
			},
			{
				"type": "unocc",
				"energy": 0.00779,
				"method": "rhf"
			},
			{
				"type": "unocc",
				"energy": 0.06992,
				"method": "rhf"
			},
			{
				"type": "unocc",
				"energy": 0.07967,
				"method": "rhf"
			},
			{
				"type": "unocc",
				"energy": 0.0996,
				"method": "rhf"
			}
		],
		"cosmo_sigma_profile": { 
			"-0.025": 0.0,
			"-0.024": 0.0,
			"-0.023": 0.0,
			"-0.022": 0.0,
			"-0.021": 0.0,
			"-0.02": 0.0,
			"-0.019": 0.0,
			"-0.018": 0.0,
			"-0.017": 0.0,
			"-0.016": 0.0,
			"-0.015": 0.0,
			"-0.014": 0.423509084479,
			"-0.013": 0.858309250565,
			"-0.012": 1.36903497081,
			"-0.011": 2.77510037103,
			"-0.01": 2.99271351346,
			"-0.009": 3.87220359068,
			"-0.008": 4.43383476956,
			"-0.007": 5.21173933852,
			"-0.006": 8.31010948106,
			"-0.005": 16.882270228,
			"-0.004": 19.5443860121,
			"-0.003": 23.3137121755,
			"-0.002": 23.3072870391,
			"-0.001": 23.0948916986,
			"0.0": 12.0119261735,
			"0.001": 12.7174589529,
			"0.002": 10.9082298649,
			"0.003": 10.7017412623,
			"0.004": 11.7501518564,
			"0.005": 11.1773127831,
			"0.006": 11.3045823063,
			"0.007": 4.18554732551,
			"0.008": 3.00694283587,
			"0.009": 1.73167545361,
			"0.01": 1.72508686275,
			"0.011": 2.13659918113,
			"0.012": 2.03897113484,
			"0.013": 2.38636756089,
			"0.014": 6.64007972468,
			"0.015": 2.42534808342,
			"0.016": 0.512986291427,
			"0.017": 0.414098588904,
			"0.018": 0.0653687879765,
			"0.019": 0.0,
			"0.02": 0.0,
			"0.021": 0.0,
			"0.022": 0.0,
			"0.023": 0.0,
			"0.024": 0.0,
			"0.025": 0.0
		}
	}
}
