{
	 "smiles": "CC(=O)C1=CC2=CC(=CC=C2O1)[N+]([O-])=O", 
	 "Tm": 448.15, 
	 "num_atms": 22, 
	 "gaussian": { 
		 "optdone": 1, 
		 "sigma_profile": "yes", 
		 "theory": "DFT", 
		 "functional": "B3LYP", 
		 "basiset": "6-31G**", 
		 "properties": { 
			 "R2extent": 4415.4636, 
			 "electric_dipole_moment_norm": 3.98089317114, 
			 "electric_quadrupole_moment_norm": 15.8940479781, 
			 "total_energy": -740.821999658, 
			 "HOMO_LUMO_gap": 0.16306, 
			 "cosmo_polarized_energy": -12.1, 
			 "cosmo_cavitation_energy": 28.26, 
			 "cosmo_dispersion_energy": -20.61, 
			 "cosmo_repulsion_energy": 1.6, 
			 "cosmo_total_nonelectrostatic_energy": 9.24, 
			 "SMD_solvation_energy": 8.17 
		},
		"coords": [
			{
				"x": -1.1812442363,
				"y": -2.6933401888,
				"z": -3.1784811674,
				"element": "C" 
			},
			{
				"x": -2.1177589607,
				"y": -1.6804264606,
				"z": -2.5577087834,
				"element": "C" 
			},
			{
				"x": -3.3128653147,
				"y": -1.6357059441,
				"z": -2.8042070702,
				"element": "O" 
			},
			{
				"x": -1.5427110028,
				"y": -0.7030547227,
				"z": -1.6084605111,
				"element": "C" 
			},
			{
				"x": -2.1425308837,
				"y": 0.3045230427,
				"z": -0.9124132732,
				"element": "C" 
			},
			{
				"x": -1.1079074568,
				"y": 0.9350324123,
				"z": -0.1427649717,
				"element": "C" 
			},
			{
				"x": -1.0488882105,
				"y": 2.0039453463,
				"z": 0.7604051416,
				"element": "C" 
			},
			{
				"x": 0.1946376713,
				"y": 2.301553417,
				"z": 1.3026311796,
				"element": "C" 
			},
			{
				"x": 1.3691717399,
				"y": 1.5908409774,
				"z": 0.9897053095,
				"element": "C" 
			},
			{
				"x": 1.3223092419,
				"y": 0.5295884534,
				"z": 0.0957973389,
				"element": "C" 
			},
			{
				"x": 0.0767681106,
				"y": 0.2273816245,
				"z": -0.4507125959,
				"element": "C" 
			},
			{
				"x": -0.1840430792,
				"y": -0.7661587632,
				"z": -1.3390017647,
				"element": "O" 
			},
			{
				"x": 0.2919313574,
				"y": 3.4193345073,
				"z": 2.2555653038,
				"element": "N" 
			},
			{
				"x": -0.7401888415,
				"y": 4.0341067141,
				"z": 2.5220356665,
				"element": "O" 
			},
			{
				"x": 1.3996735826,
				"y": 3.672424133,
				"z": 2.7283876929,
				"element": "O" 
			},
			{
				"x": -0.6968136532,
				"y": -3.2956067796,
				"z": -2.4022246096,
				"element": "H" 
			},
			{
				"x": -0.3815991701,
				"y": -2.1892558389,
				"z": -3.7320568913,
				"element": "H" 
			},
			{
				"x": -1.7503042457,
				"y": -3.3373409979,
				"z": -3.8491640958,
				"element": "H" 
			},
			{
				"x": -3.1931169056,
				"y": 0.5498883146,
				"z": -0.9572100672,
				"element": "H" 
			},
			{
				"x": -1.9169792798,
				"y": 2.5872949382,
				"z": 1.0399780577,
				"element": "H" 
			},
			{
				"x": 2.2964974047,
				"y": 1.8916864755,
				"z": 1.4596667655,
				"element": "H" 
			},
			{
				"x": 2.2081621321,
				"y": -0.0374106604,
				"z": -0.1659666545,
				"element": "H" 
			}
		],
		 "valence_orbital": [ 
			{
				"type": "occ",
				"energy": -0.31201,
				"method": "rhf"
			},
			{
				"type": "occ",
				"energy": -0.29501,
				"method": "rhf"
			},
			{
				"type": "occ",
				"energy": -0.27915,
				"method": "rhf"
			},
			{
				"type": "occ",
				"energy": -0.27052,
				"method": "rhf"
			},
			{
				"type": "occ",
				"energy": -0.2568,
				"method": "rhf"
			},
			{
				"type": "unocc",
				"energy": -0.09374,
				"method": "rhf"
			},
			{
				"type": "unocc",
				"energy": -0.0829,
				"method": "rhf"
			},
			{
				"type": "unocc",
				"energy": -0.01971,
				"method": "rhf"
			},
			{
				"type": "unocc",
				"energy": 0.00656,
				"method": "rhf"
			},
			{
				"type": "unocc",
				"energy": 0.06366,
				"method": "rhf"
			}
		],
		"cosmo_sigma_profile": { 
			"-0.025": 0.0,
			"-0.024": 0.0,
			"-0.023": 0.0,
			"-0.022": 0.0,
			"-0.021": 0.0,
			"-0.02": 0.0,
			"-0.019": 0.0,
			"-0.018": 0.0,
			"-0.017": 0.0,
			"-0.016": 0.0,
			"-0.015": 0.0,
			"-0.014": 0.0,
			"-0.013": 0.0,
			"-0.012": 0.0,
			"-0.011": 0.0,
			"-0.01": 0.118973171301,
			"-0.009": 2.56896473272,
			"-0.008": 6.24565112383,
			"-0.007": 9.29971337965,
			"-0.006": 12.5171064197,
			"-0.005": 13.6035607027,
			"-0.004": 14.6859687997,
			"-0.003": 14.3631921504,
			"-0.002": 23.7535260205,
			"-0.001": 26.6571333963,
			"0.0": 22.3784877891,
			"0.001": 14.9887400955,
			"0.002": 7.6261416059,
			"0.003": 5.35387431925,
			"0.004": 4.90562850538,
			"0.005": 5.63812787147,
			"0.006": 5.74846094058,
			"0.007": 9.51163297862,
			"0.008": 8.94711078392,
			"0.009": 5.49217833655,
			"0.01": 5.73048023759,
			"0.011": 4.51514935146,
			"0.012": 2.3690823919,
			"0.013": 0.570004406998,
			"0.014": 0.0,
			"0.015": 0.0,
			"0.016": 0.0,
			"0.017": 0.0,
			"0.018": 0.0,
			"0.019": 0.0,
			"0.02": 0.0,
			"0.021": 0.0,
			"0.022": 0.0,
			"0.023": 0.0,
			"0.024": 0.0,
			"0.025": 0.0
		}
	}
}
