{
	 "smiles": "CCN(CC)C1=NC(=O)C(CC(=O)NC2=CC(=CC=C2)C(O)=O)S1", 
	 "Tm": 510.15, 
	 "num_atms": 43, 
	 "gaussian": { 
		 "optdone": 1, 
		 "sigma_profile": "yes", 
		 "theory": "DFT", 
		 "functional": "B3LYP", 
		 "basiset": "6-31G**", 
		 "properties": { 
			 "R2extent": 14795.7198, 
			 "electric_dipole_moment_norm": 5.45281268613, 
			 "electric_quadrupole_moment_norm": 58.1530681231, 
			 "total_energy": -1484.54058102, 
			 "HOMO_LUMO_gap": 0.18971, 
			 "cosmo_polarized_energy": -34.83, 
			 "cosmo_cavitation_energy": 48.48, 
			 "cosmo_dispersion_energy": -34.61, 
			 "cosmo_repulsion_energy": 2.6, 
			 "cosmo_total_nonelectrostatic_energy": 16.47, 
			 "SMD_solvation_energy": 8.83 
		},
		"coords": [
			{
				"x": -5.2809334058,
				"y": 3.2013895858,
				"z": 2.5294001878,
				"element": "C" 
			},
			{
				"x": -4.569160478,
				"y": 2.0167974686,
				"z": 3.1867553643,
				"element": "C" 
			},
			{
				"x": -3.1470434056,
				"y": 1.8830028007,
				"z": 2.8099519319,
				"element": "N" 
			},
			{
				"x": -2.1152453267,
				"y": 2.3576185084,
				"z": 3.7391600768,
				"element": "C" 
			},
			{
				"x": -1.8244822292,
				"y": 3.8584950737,
				"z": 3.6435428942,
				"element": "C" 
			},
			{
				"x": -2.848641028,
				"y": 1.3558565424,
				"z": 1.6101523561,
				"element": "C" 
			},
			{
				"x": -3.7773997162,
				"y": 0.944206053,
				"z": 0.7810218095,
				"element": "N" 
			},
			{
				"x": -3.2585327269,
				"y": 0.409898445,
				"z": -0.3774130882,
				"element": "C" 
			},
			{
				"x": -3.8989999672,
				"y": -0.1075936673,
				"z": -1.2749195519,
				"element": "O" 
			},
			{
				"x": -1.7060757023,
				"y": 0.5020126599,
				"z": -0.4873282944,
				"element": "C" 
			},
			{
				"x": -1.1118262938,
				"y": -0.8557443262,
				"z": -0.8485963582,
				"element": "C" 
			},
			{
				"x": 0.3796236621,
				"y": -0.7813039022,
				"z": -1.1632754293,
				"element": "C" 
			},
			{
				"x": 1.069072002,
				"y": 0.1774413017,
				"z": -0.846223033,
				"element": "O" 
			},
			{
				"x": 0.8616191032,
				"y": -1.8984125832,
				"z": -1.8130424071,
				"element": "N" 
			},
			{
				"x": 2.182169935,
				"y": -2.1982806806,
				"z": -2.2000284605,
				"element": "C" 
			},
			{
				"x": 3.2591121904,
				"y": -1.3238231348,
				"z": -2.0048371521,
				"element": "C" 
			},
			{
				"x": 4.543971251,
				"y": -1.7103395885,
				"z": -2.4033978737,
				"element": "C" 
			},
			{
				"x": 4.7595383369,
				"y": -2.9476115466,
				"z": -3.0248663851,
				"element": "C" 
			},
			{
				"x": 3.6810465374,
				"y": -3.8075376304,
				"z": -3.2307705626,
				"element": "C" 
			},
			{
				"x": 2.4053144511,
				"y": -3.4427030454,
				"z": -2.8153757269,
				"element": "C" 
			},
			{
				"x": 5.6568183848,
				"y": -0.7282519926,
				"z": -2.1685685468,
				"element": "C" 
			},
			{
				"x": 6.9132552949,
				"y": -1.2481832512,
				"z": -2.0922230759,
				"element": "O" 
			},
			{
				"x": 5.4864760339,
				"y": 0.460873088,
				"z": -2.0509986396,
				"element": "O" 
			},
			{
				"x": -1.1266290559,
				"y": 1.1929059557,
				"z": 1.1014373732,
				"element": "S" 
			},
			{
				"x": -4.8143555741,
				"y": 4.1549065806,
				"z": 2.7930235543,
				"element": "H" 
			},
			{
				"x": -6.324283073,
				"y": 3.2304390304,
				"z": 2.860571252,
				"element": "H" 
			},
			{
				"x": -5.2709856272,
				"y": 3.0891544447,
				"z": 1.4433170716,
				"element": "H" 
			},
			{
				"x": -4.5964533379,
				"y": 2.1038737952,
				"z": 4.2772029158,
				"element": "H" 
			},
			{
				"x": -5.0715121851,
				"y": 1.0882661297,
				"z": 2.905540057,
				"element": "H" 
			},
			{
				"x": -2.4463335644,
				"y": 2.0981826086,
				"z": 4.7503776342,
				"element": "H" 
			},
			{
				"x": -1.200216631,
				"y": 1.7859739066,
				"z": 3.5590925668,
				"element": "H" 
			},
			{
				"x": -1.4966598514,
				"y": 4.1275310531,
				"z": 2.6357219211,
				"element": "H" 
			},
			{
				"x": -1.0277750484,
				"y": 4.1264918583,
				"z": 4.3450500728,
				"element": "H" 
			},
			{
				"x": -2.7066341495,
				"y": 4.4551991828,
				"z": 3.8921698277,
				"element": "H" 
			},
			{
				"x": -1.4598740162,
				"y": 1.2250971767,
				"z": -1.2702487025,
				"element": "H" 
			},
			{
				"x": -1.2628431384,
				"y": -1.565788837,
				"z": -0.0249575849,
				"element": "H" 
			},
			{
				"x": -1.679594015,
				"y": -1.2364892561,
				"z": -1.7065349575,
				"element": "H" 
			},
			{
				"x": 0.1780087422,
				"y": -2.6088978941,
				"z": -2.0347527628,
				"element": "H" 
			},
			{
				"x": 3.1082150954,
				"y": -0.3559338031,
				"z": -1.5489137083,
				"element": "H" 
			},
			{
				"x": 5.7431621002,
				"y": -3.2276746022,
				"z": -3.3918888833,
				"element": "H" 
			},
			{
				"x": 3.831919928,
				"y": -4.7636154925,
				"z": -3.7223510448,
				"element": "H" 
			},
			{
				"x": 1.5712492153,
				"y": -4.1224104358,
				"z": -2.9744195796,
				"element": "H" 
			},
			{
				"x": 6.8680172837,
				"y": -2.2127175799,
				"z": -2.035757058,
				"element": "H" 
			}
		],
		 "valence_orbital": [ 
			{
				"type": "occ",
				"energy": -0.26397,
				"method": "rhf"
			},
			{
				"type": "occ",
				"energy": -0.25292,
				"method": "rhf"
			},
			{
				"type": "occ",
				"energy": -0.24515,
				"method": "rhf"
			},
			{
				"type": "occ",
				"energy": -0.2411,
				"method": "rhf"
			},
			{
				"type": "occ",
				"energy": -0.24036,
				"method": "rhf"
			},
			{
				"type": "unocc",
				"energy": -0.05065,
				"method": "rhf"
			},
			{
				"type": "unocc",
				"energy": -0.02959,
				"method": "rhf"
			},
			{
				"type": "unocc",
				"energy": -0.02458,
				"method": "rhf"
			},
			{
				"type": "unocc",
				"energy": 0.01346,
				"method": "rhf"
			},
			{
				"type": "unocc",
				"energy": 0.01687,
				"method": "rhf"
			}
		],
		"cosmo_sigma_profile": { 
			"-0.025": 0.0,
			"-0.024": 0.0,
			"-0.023": 0.0,
			"-0.022": 0.0,
			"-0.021": 0.0,
			"-0.02": 0.0,
			"-0.019": 0.131402417984,
			"-0.018": 0.562803623448,
			"-0.017": 0.964546424661,
			"-0.016": 2.00144677897,
			"-0.015": 2.74179802637,
			"-0.014": 2.11000786209,
			"-0.013": 2.26438767466,
			"-0.012": 3.11636721308,
			"-0.011": 2.96414608487,
			"-0.01": 2.68847869068,
			"-0.009": 2.86585898583,
			"-0.008": 6.16968062224,
			"-0.007": 16.3526786999,
			"-0.006": 17.6949636581,
			"-0.005": 21.3586101123,
			"-0.004": 27.5685978766,
			"-0.003": 29.5609203499,
			"-0.002": 27.6525444438,
			"-0.001": 28.4471943084,
			"0.0": 31.215128646,
			"0.001": 22.7179452951,
			"0.002": 21.0609187014,
			"0.003": 20.4701092576,
			"0.004": 11.5795631861,
			"0.005": 9.16095907822,
			"0.006": 10.1757287957,
			"0.007": 6.52053797262,
			"0.008": 6.39199631379,
			"0.009": 7.21689569628,
			"0.01": 9.49586842132,
			"0.011": 10.2572578948,
			"0.012": 10.6913930845,
			"0.013": 7.43785481403,
			"0.014": 3.58032431381,
			"0.015": 0.852335660821,
			"0.016": 0.0,
			"0.017": 0.0,
			"0.018": 0.0,
			"0.019": 0.0,
			"0.02": 0.0,
			"0.021": 0.0,
			"0.022": 0.0,
			"0.023": 0.0,
			"0.024": 0.0,
			"0.025": 0.0
		}
	}
}
