{
	 "smiles": "CC1=NC(C)=C(CO)C=N1", 
	 "Tm": 326.15, 
	 "num_atms": 20, 
	 "gaussian": { 
		 "optdone": 1, 
		 "sigma_profile": "yes", 
		 "theory": "DFT", 
		 "functional": "B3LYP", 
		 "basiset": "6-31G**", 
		 "properties": { 
			 "R2extent": 1597.9435, 
			 "electric_dipole_moment_norm": 3.19535117788, 
			 "electric_quadrupole_moment_norm": 8.7133485033, 
			 "total_energy": -457.496475157, 
			 "HOMO_LUMO_gap": 0.21109, 
			 "cosmo_polarized_energy": -11.41, 
			 "cosmo_cavitation_energy": 23.38, 
			 "cosmo_dispersion_energy": -17.34, 
			 "cosmo_repulsion_energy": 1.43, 
			 "cosmo_total_nonelectrostatic_energy": 7.47, 
			 "SMD_solvation_energy": 1.61 
		},
		"coords": [
			{
				"x": 2.2297009224,
				"y": -0.371719909,
				"z": 2.5071074254,
				"element": "C" 
			},
			{
				"x": 1.1450170073,
				"y": -0.0804560554,
				"z": 1.5051423913,
				"element": "C" 
			},
			{
				"x": 1.0651689285,
				"y": -0.9033309928,
				"z": 0.44431401,
				"element": "N" 
			},
			{
				"x": 0.109483725,
				"y": -0.6689641612,
				"z": -0.4621445413,
				"element": "C" 
			},
			{
				"x": 0.0455404573,
				"y": -1.5979464805,
				"z": -1.6455022972,
				"element": "C" 
			},
			{
				"x": -0.7878080067,
				"y": 0.408815635,
				"z": -0.3102048359,
				"element": "C" 
			},
			{
				"x": -1.8806209733,
				"y": 0.706312066,
				"z": -1.3009844869,
				"element": "C" 
			},
			{
				"x": -2.8536396112,
				"y": -0.3380038641,
				"z": -1.2488353484,
				"element": "O" 
			},
			{
				"x": -0.6117699874,
				"y": 1.1866181636,
				"z": 0.8292163499,
				"element": "C" 
			},
			{
				"x": 0.3425212424,
				"y": 0.9654212153,
				"z": 1.7415489927,
				"element": "N" 
			},
			{
				"x": 2.2201130993,
				"y": 0.3735124697,
				"z": 3.3031271339,
				"element": "H" 
			},
			{
				"x": 3.2086824023,
				"y": -0.3745764492,
				"z": 2.0171468546,
				"element": "H" 
			},
			{
				"x": 2.0877612986,
				"y": -1.3678707076,
				"z": 2.9393481975,
				"element": "H" 
			},
			{
				"x": 0.7175304476,
				"y": -2.4416703911,
				"z": -1.4842779307,
				"element": "H" 
			},
			{
				"x": 0.3569221093,
				"y": -1.0781023946,
				"z": -2.561018378,
				"element": "H" 
			},
			{
				"x": -0.9771327804,
				"y": -1.9499055274,
				"z": -1.8025310101,
				"element": "H" 
			},
			{
				"x": -2.3310467887,
				"y": 1.6808153254,
				"z": -1.0570151552,
				"element": "H" 
			},
			{
				"x": -1.4527477319,
				"y": 0.7906938081,
				"z": -2.3127125889,
				"element": "H" 
			},
			{
				"x": -3.4819045969,
				"y": -0.1922254948,
				"z": -1.9680014878,
				"element": "H" 
			},
			{
				"x": -1.2718711635,
				"y": 2.0339837446,
				"z": 1.0182767048,
				"element": "H" 
			}
		],
		 "valence_orbital": [ 
			{
				"type": "occ",
				"energy": -0.29893,
				"method": "rhf"
			},
			{
				"type": "occ",
				"energy": -0.29067,
				"method": "rhf"
			},
			{
				"type": "occ",
				"energy": -0.2815,
				"method": "rhf"
			},
			{
				"type": "occ",
				"energy": -0.26077,
				"method": "rhf"
			},
			{
				"type": "occ",
				"energy": -0.23804,
				"method": "rhf"
			},
			{
				"type": "unocc",
				"energy": -0.02695,
				"method": "rhf"
			},
			{
				"type": "unocc",
				"energy": -0.02214,
				"method": "rhf"
			},
			{
				"type": "unocc",
				"energy": 0.06771,
				"method": "rhf"
			},
			{
				"type": "unocc",
				"energy": 0.1066,
				"method": "rhf"
			},
			{
				"type": "unocc",
				"energy": 0.11923,
				"method": "rhf"
			}
		],
		"cosmo_sigma_profile": { 
			"-0.025": 0.0,
			"-0.024": 0.0,
			"-0.023": 0.0,
			"-0.022": 0.0,
			"-0.021": 0.0,
			"-0.02": 0.0,
			"-0.019": 0.0,
			"-0.018": 0.0,
			"-0.017": 0.00602382001229,
			"-0.016": 0.719259869248,
			"-0.015": 1.42145746991,
			"-0.014": 0.727110322992,
			"-0.013": 0.963718886086,
			"-0.012": 0.713298112179,
			"-0.011": 1.11941187065,
			"-0.01": 0.978776004044,
			"-0.009": 0.49957368322,
			"-0.008": 0.715259435559,
			"-0.007": 3.53881026513,
			"-0.006": 6.05240579714,
			"-0.005": 14.0424664237,
			"-0.004": 15.4043888406,
			"-0.003": 16.3736740509,
			"-0.002": 14.0917977955,
			"-0.001": 20.6969331534,
			"0.0": 21.6379454116,
			"0.001": 11.6171412833,
			"0.002": 6.51672300801,
			"0.003": 6.02615405217,
			"0.004": 5.50525202886,
			"0.005": 5.16028783958,
			"0.006": 3.58017060304,
			"0.007": 3.97084670796,
			"0.008": 3.55311641156,
			"0.009": 3.52362630615,
			"0.01": 2.3313289193,
			"0.011": 3.04319620046,
			"0.012": 3.22210673667,
			"0.013": 2.34013780249,
			"0.014": 2.34119709735,
			"0.015": 1.55237182713,
			"0.016": 0.358752941227,
			"0.017": 0.0,
			"0.018": 0.0,
			"0.019": 0.0,
			"0.02": 0.0,
			"0.021": 0.0,
			"0.022": 0.0,
			"0.023": 0.0,
			"0.024": 0.0,
			"0.025": 0.0
		}
	}
}
