{
	 "smiles": "OC(=O)C1=CC(COC2=CC=C(F)C=C2)=C(F)C=C1", 
	 "Tm": 423.15, 
	 "num_atms": 29, 
	 "gaussian": { 
		 "optdone": 1, 
		 "sigma_profile": "yes", 
		 "theory": "DFT", 
		 "functional": "B3LYP", 
		 "basiset": "6-31G**", 
		 "properties": { 
			 "R2extent": 8001.3624, 
			 "electric_dipole_moment_norm": 0.643819260352, 
			 "electric_quadrupole_moment_norm": 18.1049171338, 
			 "total_energy": -964.866210304, 
			 "HOMO_LUMO_gap": 0.17226, 
			 "cosmo_polarized_energy": -12.0, 
			 "cosmo_cavitation_energy": 35.73, 
			 "cosmo_dispersion_energy": -25.42, 
			 "cosmo_repulsion_energy": 1.89, 
			 "cosmo_total_nonelectrostatic_energy": 12.2, 
			 "SMD_solvation_energy": 8.29 
		},
		"coords": [
			{
				"x": -0.0472417111,
				"y": 1.6876928349,
				"z": -3.8841768089,
				"element": "O" 
			},
			{
				"x": 0.7953482309,
				"y": 2.4775385288,
				"z": -3.1725686614,
				"element": "C" 
			},
			{
				"x": 1.4101559943,
				"y": 3.3921478038,
				"z": -3.6857252742,
				"element": "O" 
			},
			{
				"x": 0.8742976909,
				"y": 2.1029810727,
				"z": -1.7370902997,
				"element": "C" 
			},
			{
				"x": 0.1373020465,
				"y": 1.0339366949,
				"z": -1.2059285284,
				"element": "C" 
			},
			{
				"x": 0.2349858399,
				"y": 0.7093736289,
				"z": 0.1461651817,
				"element": "C" 
			},
			{
				"x": -0.525406131,
				"y": -0.4249237986,
				"z": 0.7904791869,
				"element": "C" 
			},
			{
				"x": -1.3154020051,
				"y": -1.0676053632,
				"z": -0.1930772315,
				"element": "O" 
			},
			{
				"x": -2.0883590943,
				"y": -2.1328615775,
				"z": 0.1879776296,
				"element": "C" 
			},
			{
				"x": -2.8460950848,
				"y": -2.7248862998,
				"z": -0.8330299172,
				"element": "C" 
			},
			{
				"x": -3.6661997017,
				"y": -3.8130211916,
				"z": -0.5583502977,
				"element": "C" 
			},
			{
				"x": -3.7235807676,
				"y": -4.3050432471,
				"z": 0.743497453,
				"element": "C" 
			},
			{
				"x": -4.5206357442,
				"y": -5.3631080277,
				"z": 1.0121842653,
				"element": "F" 
			},
			{
				"x": -2.9828879747,
				"y": -3.7345224957,
				"z": 1.766919482,
				"element": "C" 
			},
			{
				"x": -2.157386904,
				"y": -2.6392709744,
				"z": 1.490536182,
				"element": "C" 
			},
			{
				"x": 1.0862631877,
				"y": 1.4839196845,
				"z": 0.9369327494,
				"element": "C" 
			},
			{
				"x": 1.1831871269,
				"y": 1.1713905548,
				"z": 2.2491457754,
				"element": "F" 
			},
			{
				"x": 1.8284401823,
				"y": 2.5477771853,
				"z": 0.4405804259,
				"element": "C" 
			},
			{
				"x": 1.7182299251,
				"y": 2.8571045156,
				"z": -0.9114178679,
				"element": "C" 
			},
			{
				"x": -0.0162847358,
				"y": 2.0236986485,
				"z": -4.7948616038,
				"element": "H" 
			},
			{
				"x": -0.5146251331,
				"y": 0.4508601424,
				"z": -1.842614309,
				"element": "H" 
			},
			{
				"x": -1.1590011986,
				"y": -0.0377905539,
				"z": 1.6024775599,
				"element": "H" 
			},
			{
				"x": 0.1788612979,
				"y": -1.1369094529,
				"z": 1.2462089396,
				"element": "H" 
			},
			{
				"x": -2.7774436819,
				"y": -2.3162028535,
				"z": -1.8355893783,
				"element": "H" 
			},
			{
				"x": -4.2586070335,
				"y": -4.2824852455,
				"z": -1.3361676604,
				"element": "H" 
			},
			{
				"x": -3.0507496334,
				"y": -4.1422612904,
				"z": 2.7696550254,
				"element": "H" 
			},
			{
				"x": -1.5820515937,
				"y": -2.1994724301,
				"z": 2.2959422765,
				"element": "H" 
			},
			{
				"x": 2.4711116201,
				"y": 3.1086244738,
				"z": 1.1100139529,
				"element": "H" 
			},
			{
				"x": 2.2773749859,
				"y": 3.6783190328,
				"z": -1.3457182472,
				"element": "H" 
			}
		],
		 "valence_orbital": [ 
			{
				"type": "occ",
				"energy": -0.2803,
				"method": "rhf"
			},
			{
				"type": "occ",
				"energy": -0.27113,
				"method": "rhf"
			},
			{
				"type": "occ",
				"energy": -0.26511,
				"method": "rhf"
			},
			{
				"type": "occ",
				"energy": -0.25823,
				"method": "rhf"
			},
			{
				"type": "occ",
				"energy": -0.22345,
				"method": "rhf"
			},
			{
				"type": "unocc",
				"energy": -0.05119,
				"method": "rhf"
			},
			{
				"type": "unocc",
				"energy": -0.02274,
				"method": "rhf"
			},
			{
				"type": "unocc",
				"energy": -0.01451,
				"method": "rhf"
			},
			{
				"type": "unocc",
				"energy": 0.01029,
				"method": "rhf"
			},
			{
				"type": "unocc",
				"energy": 0.05167,
				"method": "rhf"
			}
		],
		"cosmo_sigma_profile": { 
			"-0.025": 0.0,
			"-0.024": 0.0,
			"-0.023": 0.0,
			"-0.022": 0.0,
			"-0.021": 0.0,
			"-0.02": 0.0,
			"-0.019": 0.116348878407,
			"-0.018": 0.797726950265,
			"-0.017": 1.18860588987,
			"-0.016": 0.89163822046,
			"-0.015": 0.213218943906,
			"-0.014": 0.34131042038,
			"-0.013": 0.446714705261,
			"-0.012": 1.38481415877,
			"-0.011": 0.661721802808,
			"-0.01": 1.02154273097,
			"-0.009": 0.472235241383,
			"-0.008": 3.31858543794,
			"-0.007": 12.3645306233,
			"-0.006": 17.0134737194,
			"-0.005": 14.5802936538,
			"-0.004": 13.3258792257,
			"-0.003": 12.5750865417,
			"-0.002": 17.2584277112,
			"-0.001": 18.339513634,
			"0.0": 21.798333003,
			"0.001": 27.9697379508,
			"0.002": 32.8964248567,
			"0.003": 27.7441297484,
			"0.004": 26.675578531,
			"0.005": 13.0176586384,
			"0.006": 4.05708572324,
			"0.007": 3.1761695398,
			"0.008": 1.86998345645,
			"0.009": 1.8355226356,
			"0.01": 1.59464158433,
			"0.011": 3.91350115319,
			"0.012": 3.93583892737,
			"0.013": 0.0728416902635,
			"0.014": 0.0,
			"0.015": 0.0,
			"0.016": 0.0,
			"0.017": 0.0,
			"0.018": 0.0,
			"0.019": 0.0,
			"0.02": 0.0,
			"0.021": 0.0,
			"0.022": 0.0,
			"0.023": 0.0,
			"0.024": 0.0,
			"0.025": 0.0
		}
	}
}
