{
	 "smiles": "OC(=O)CCCCNC(=O)OCC1=CC=CC=C1", 
	 "Tm": 378.15, 
	 "num_atms": 35, 
	 "gaussian": { 
		 "optdone": 1, 
		 "sigma_profile": "yes", 
		 "theory": "DFT", 
		 "functional": "B3LYP", 
		 "basiset": "6-31G**", 
		 "properties": { 
			 "R2extent": 7197.8114, 
			 "electric_dipole_moment_norm": 2.3737911492, 
			 "electric_quadrupole_moment_norm": 18.2942737825, 
			 "total_energy": -861.322680641, 
			 "HOMO_LUMO_gap": 0.23543, 
			 "cosmo_polarized_energy": -18.02, 
			 "cosmo_cavitation_energy": 39.82, 
			 "cosmo_dispersion_energy": -26.83, 
			 "cosmo_repulsion_energy": 2.15, 
			 "cosmo_total_nonelectrostatic_energy": 15.14, 
			 "SMD_solvation_energy": 8.14 
		},
		"coords": [
			{
				"x": -2.1116487474,
				"y": -4.5628542125,
				"z": -1.7424826116,
				"element": "O" 
			},
			{
				"x": -1.4754188723,
				"y": -3.3706605868,
				"z": -1.6330500795,
				"element": "C" 
			},
			{
				"x": -0.2664642879,
				"y": -3.2799353817,
				"z": -1.6292105817,
				"element": "O" 
			},
			{
				"x": -2.4601299199,
				"y": -2.2275607412,
				"z": -1.4996059228,
				"element": "C" 
			},
			{
				"x": -1.8074910552,
				"y": -0.8430471207,
				"z": -1.5443337676,
				"element": "C" 
			},
			{
				"x": -1.2509569022,
				"y": -0.4715236707,
				"z": -2.9241700562,
				"element": "C" 
			},
			{
				"x": -0.6362192624,
				"y": 0.9349149781,
				"z": -2.9826854545,
				"element": "C" 
			},
			{
				"x": -1.5985105198,
				"y": 2.0085921406,
				"z": -2.7600246704,
				"element": "N" 
			},
			{
				"x": -1.7184556677,
				"y": 2.8129735382,
				"z": -1.6642881163,
				"element": "C" 
			},
			{
				"x": -2.5505050273,
				"y": 3.6974613556,
				"z": -1.5509369774,
				"element": "O" 
			},
			{
				"x": -0.7932230818,
				"y": 2.5080336414,
				"z": -0.7127297205,
				"element": "O" 
			},
			{
				"x": -0.8386655211,
				"y": 3.3434027508,
				"z": 0.4652912852,
				"element": "C" 
			},
			{
				"x": 0.0782302096,
				"y": 2.7500786844,
				"z": 1.5029745105,
				"element": "C" 
			},
			{
				"x": -0.1292811857,
				"y": 1.4454872421,
				"z": 1.972876623,
				"element": "C" 
			},
			{
				"x": 0.7052583388,
				"y": 0.9023888632,
				"z": 2.9476276688,
				"element": "C" 
			},
			{
				"x": 1.7555061134,
				"y": 1.6605193387,
				"z": 3.4735405164,
				"element": "C" 
			},
			{
				"x": 1.9677584994,
				"y": 2.9602100794,
				"z": 3.0145818088,
				"element": "C" 
			},
			{
				"x": 1.135056595,
				"y": 3.49849608,
				"z": 2.0304644212,
				"element": "C" 
			},
			{
				"x": -1.4132357281,
				"y": -5.2363422249,
				"z": -1.8023507363,
				"element": "H" 
			},
			{
				"x": -3.2214922892,
				"y": -2.3423195308,
				"z": -2.2809382296,
				"element": "H" 
			},
			{
				"x": -2.9911687629,
				"y": -2.3792019916,
				"z": -0.5508420754,
				"element": "H" 
			},
			{
				"x": -2.5533536257,
				"y": -0.0997721521,
				"z": -1.2417494596,
				"element": "H" 
			},
			{
				"x": -0.9987489157,
				"y": -0.8040920323,
				"z": -0.8060245581,
				"element": "H" 
			},
			{
				"x": -2.0491974207,
				"y": -0.5468099505,
				"z": -3.6771977171,
				"element": "H" 
			},
			{
				"x": -0.476584873,
				"y": -1.1918072509,
				"z": -3.2105021006,
				"element": "H" 
			},
			{
				"x": 0.1487041864,
				"y": 1.0365359795,
				"z": -2.2314560637,
				"element": "H" 
			},
			{
				"x": -0.1677791519,
				"y": 1.0861299399,
				"z": -3.9632856811,
				"element": "H" 
			},
			{
				"x": -2.2799884517,
				"y": 2.2122623151,
				"z": -3.4760559744,
				"element": "H" 
			},
			{
				"x": -1.8746935761,
				"y": 3.3941876402,
				"z": 0.8149029801,
				"element": "H" 
			},
			{
				"x": -0.5336062015,
				"y": 4.3604315343,
				"z": 0.1996905058,
				"element": "H" 
			},
			{
				"x": -0.9450033097,
				"y": 0.8553869815,
				"z": 1.5643890223,
				"element": "H" 
			},
			{
				"x": 0.5363589886,
				"y": -0.1110190899,
				"z": 3.300676887,
				"element": "H" 
			},
			{
				"x": 2.4040203677,
				"y": 1.2380225048,
				"z": 4.2356882833,
				"element": "H" 
			},
			{
				"x": 2.7836886556,
				"y": 3.5544013852,
				"z": 3.4160647554,
				"element": "H" 
			},
			{
				"x": 1.3083404022,
				"y": 4.5089289637,
				"z": 1.6686512867,
				"element": "H" 
			}
		],
		 "valence_orbital": [ 
			{
				"type": "occ",
				"energy": -0.27836,
				"method": "rhf"
			},
			{
				"type": "occ",
				"energy": -0.26634,
				"method": "rhf"
			},
			{
				"type": "occ",
				"energy": -0.25137,
				"method": "rhf"
			},
			{
				"type": "occ",
				"energy": -0.24852,
				"method": "rhf"
			},
			{
				"type": "occ",
				"energy": -0.2439,
				"method": "rhf"
			},
			{
				"type": "unocc",
				"energy": -0.00847,
				"method": "rhf"
			},
			{
				"type": "unocc",
				"energy": -0.00153,
				"method": "rhf"
			},
			{
				"type": "unocc",
				"energy": 0.00617,
				"method": "rhf"
			},
			{
				"type": "unocc",
				"energy": 0.06061,
				"method": "rhf"
			},
			{
				"type": "unocc",
				"energy": 0.07623,
				"method": "rhf"
			}
		],
		"cosmo_sigma_profile": { 
			"-0.025": 0.0,
			"-0.024": 0.0,
			"-0.023": 0.0,
			"-0.022": 0.0,
			"-0.021": 0.0,
			"-0.02": 0.0,
			"-0.019": 0.0,
			"-0.018": 0.480758841712,
			"-0.017": 0.97048070257,
			"-0.016": 0.842280200036,
			"-0.015": 0.905465198103,
			"-0.014": 1.24403420685,
			"-0.013": 1.3374599809,
			"-0.012": 1.56104247508,
			"-0.011": 2.13521538502,
			"-0.01": 1.88109381365,
			"-0.009": 1.21902437066,
			"-0.008": 1.47209169803,
			"-0.007": 2.7183724725,
			"-0.006": 13.0109228188,
			"-0.005": 22.5100263123,
			"-0.004": 28.8968316472,
			"-0.003": 33.0681309873,
			"-0.002": 32.418085575,
			"-0.001": 23.9439359026,
			"0.0": 20.0307449269,
			"0.001": 15.7038288312,
			"0.002": 14.9807450381,
			"0.003": 13.6818177533,
			"0.004": 14.2964098845,
			"0.005": 15.2846680524,
			"0.006": 11.1261619511,
			"0.007": 5.32161170048,
			"0.008": 4.16815891938,
			"0.009": 3.95767319564,
			"0.01": 4.51019542633,
			"0.011": 4.19618647916,
			"0.012": 6.19296114906,
			"0.013": 4.94448944985,
			"0.014": 4.23495177745,
			"0.015": 0.061255910656,
			"0.016": 0.0,
			"0.017": 0.0,
			"0.018": 0.0,
			"0.019": 0.0,
			"0.02": 0.0,
			"0.021": 0.0,
			"0.022": 0.0,
			"0.023": 0.0,
			"0.024": 0.0,
			"0.025": 0.0
		}
	}
}
