{
	 "smiles": "FC1=C(N=CC=C1)C#N", 
	 "Tm": 301.65, 
	 "num_atms": 12, 
	 "gaussian": { 
		 "optdone": 1, 
		 "sigma_profile": "yes", 
		 "theory": "DFT", 
		 "functional": "B3LYP", 
		 "basiset": "6-31G**", 
		 "properties": { 
			 "R2extent": 1750.7077, 
			 "electric_dipole_moment_norm": 5.93473672036, 
			 "electric_quadrupole_moment_norm": 17.8038033945, 
			 "total_energy": -439.748520382, 
			 "HOMO_LUMO_gap": 0.2034, 
			 "cosmo_polarized_energy": -10.42, 
			 "cosmo_cavitation_energy": 18.44, 
			 "cosmo_dispersion_energy": -13.04, 
			 "cosmo_repulsion_energy": 1.05, 
			 "cosmo_total_nonelectrostatic_energy": 6.45, 
			 "SMD_solvation_energy": 3.81 
		},
		"coords": [
			{
				"x": 0.6018905251,
				"y": 0.8581832333,
				"z": -2.0381081608,
				"element": "F" 
			},
			{
				"x": -0.0889740658,
				"y": 1.0841043926,
				"z": -0.9148003919,
				"element": "C" 
			},
			{
				"x": 0.0924737187,
				"y": 2.2871341896,
				"z": -0.2197642475,
				"element": "C" 
			},
			{
				"x": -0.5754132743,
				"y": 2.5642555839,
				"z": 0.9121757324,
				"element": "N" 
			},
			{
				"x": -1.4323368737,
				"y": 1.6515618511,
				"z": 1.3698456603,
				"element": "C" 
			},
			{
				"x": -1.6695905963,
				"y": 0.4267982041,
				"z": 0.7342027428,
				"element": "C" 
			},
			{
				"x": -0.9812036223,
				"y": 0.1325060575,
				"z": -0.43928472,
				"element": "C" 
			},
			{
				"x": 1.019204573,
				"y": 3.2696362455,
				"z": -0.7183596865,
				"element": "C" 
			},
			{
				"x": 1.7709412876,
				"y": 4.0513889229,
				"z": -1.1347590464,
				"element": "N" 
			},
			{
				"x": -1.9562448191,
				"y": 1.906911567,
				"z": 2.2875653514,
				"element": "H" 
			},
			{
				"x": -2.3793266831,
				"y": -0.2796907415,
				"z": 1.1520326083,
				"element": "H" 
			},
			{
				"x": -1.1177201699,
				"y": -0.796889506,
				"z": -0.9812458422,
				"element": "H" 
			}
		],
		 "valence_orbital": [ 
			{
				"type": "occ",
				"energy": -0.36325,
				"method": "rhf"
			},
			{
				"type": "occ",
				"energy": -0.34291,
				"method": "rhf"
			},
			{
				"type": "occ",
				"energy": -0.31593,
				"method": "rhf"
			},
			{
				"type": "occ",
				"energy": -0.29366,
				"method": "rhf"
			},
			{
				"type": "occ",
				"energy": -0.28035,
				"method": "rhf"
			},
			{
				"type": "unocc",
				"energy": -0.07695,
				"method": "rhf"
			},
			{
				"type": "unocc",
				"energy": -0.0447,
				"method": "rhf"
			},
			{
				"type": "unocc",
				"energy": 0.02118,
				"method": "rhf"
			},
			{
				"type": "unocc",
				"energy": 0.0597,
				"method": "rhf"
			},
			{
				"type": "unocc",
				"energy": 0.07215,
				"method": "rhf"
			}
		],
		"cosmo_sigma_profile": { 
			"-0.025": 0.0,
			"-0.024": 0.0,
			"-0.023": 0.0,
			"-0.022": 0.0,
			"-0.021": 0.0,
			"-0.02": 0.0,
			"-0.019": 0.0,
			"-0.018": 0.0,
			"-0.017": 0.0,
			"-0.016": 0.0,
			"-0.015": 0.0,
			"-0.014": 0.0,
			"-0.013": 0.0,
			"-0.012": 0.0,
			"-0.011": 0.0,
			"-0.01": 0.998257579314,
			"-0.009": 3.85250005618,
			"-0.008": 7.66977843079,
			"-0.007": 7.12500095681,
			"-0.006": 5.27404851563,
			"-0.005": 6.78698733201,
			"-0.004": 9.01998825469,
			"-0.003": 13.1040221557,
			"-0.002": 12.1225622924,
			"-0.001": 11.2061554698,
			"0.0": 10.9716282916,
			"0.001": 6.09488699014,
			"0.002": 12.4567784397,
			"0.003": 9.30654168621,
			"0.004": 3.84145633603,
			"0.005": 4.24415946252,
			"0.006": 3.99674182635,
			"0.007": 5.32852242104,
			"0.008": 3.66400774346,
			"0.009": 4.18647576756,
			"0.01": 2.85575340833,
			"0.011": 3.6239739943,
			"0.012": 2.22929862398,
			"0.013": 0.739691310489,
			"0.014": 0.114021504071,
			"0.015": 0.0,
			"0.016": 0.0,
			"0.017": 0.0,
			"0.018": 0.0,
			"0.019": 0.0,
			"0.02": 0.0,
			"0.021": 0.0,
			"0.022": 0.0,
			"0.023": 0.0,
			"0.024": 0.0,
			"0.025": 0.0
		}
	}
}
