{
	 "smiles": "CC1=CC=C(C=C1)C1=NC2=C(C=CC=C2)C(=C1)C(=O)NN", 
	 "Tm": 360.65, 
	 "num_atms": 36, 
	 "gaussian": { 
		 "optdone": 1, 
		 "sigma_profile": "yes", 
		 "theory": "DFT", 
		 "functional": "B3LYP", 
		 "basiset": "6-31G**", 
		 "properties": { 
			 "R2extent": 8134.2549, 
			 "electric_dipole_moment_norm": 2.07872008698, 
			 "electric_quadrupole_moment_norm": 15.5821746772, 
			 "total_energy": -896.334033394, 
			 "HOMO_LUMO_gap": 0.15097, 
			 "cosmo_polarized_energy": -15.57, 
			 "cosmo_cavitation_energy": 40.14, 
			 "cosmo_dispersion_energy": -29.11, 
			 "cosmo_repulsion_energy": 2.21, 
			 "cosmo_total_nonelectrostatic_energy": 13.25, 
			 "SMD_solvation_energy": 6.39 
		},
		"coords": [
			{
				"x": -0.213642494,
				"y": 5.2313453617,
				"z": 3.1265723216,
				"element": "C" 
			},
			{
				"x": -0.1624365146,
				"y": 3.9852857569,
				"z": 2.2758368272,
				"element": "C" 
			},
			{
				"x": -0.1043276095,
				"y": 2.7121304671,
				"z": 2.8639132665,
				"element": "C" 
			},
			{
				"x": -0.081063021,
				"y": 1.5591011729,
				"z": 2.0885424955,
				"element": "C" 
			},
			{
				"x": -0.1203372312,
				"y": 1.6327619745,
				"z": 0.6852814354,
				"element": "C" 
			},
			{
				"x": -0.1677426036,
				"y": 2.9046607312,
				"z": 0.0945423952,
				"element": "C" 
			},
			{
				"x": -0.1865446388,
				"y": 4.0574968392,
				"z": 0.8782667141,
				"element": "C" 
			},
			{
				"x": -0.0972455669,
				"y": 0.3822706044,
				"z": -0.1180585086,
				"element": "C" 
			},
			{
				"x": 0.3144985673,
				"y": -0.7215348416,
				"z": 0.4867172239,
				"element": "N" 
			},
			{
				"x": 0.3637328542,
				"y": -1.8879315632,
				"z": -0.2125573026,
				"element": "C" 
			},
			{
				"x": -0.0073114201,
				"y": -1.9935057644,
				"z": -1.5940358925,
				"element": "C" 
			},
			{
				"x": 0.0937344482,
				"y": -3.2553214399,
				"z": -2.2385002294,
				"element": "C" 
			},
			{
				"x": 0.5350997611,
				"y": -4.3589795826,
				"z": -1.5410637698,
				"element": "C" 
			},
			{
				"x": 0.8959228897,
				"y": -4.2572229617,
				"z": -0.1757436536,
				"element": "C" 
			},
			{
				"x": 0.8134897872,
				"y": -3.047813739,
				"z": 0.4744793645,
				"element": "C" 
			},
			{
				"x": -0.4875856526,
				"y": -0.7967272378,
				"z": -2.2143208257,
				"element": "C" 
			},
			{
				"x": -0.5241160279,
				"y": 0.3688750089,
				"z": -1.4785811304,
				"element": "C" 
			},
			{
				"x": -0.9419366122,
				"y": -0.7851167238,
				"z": -3.6491066171,
				"element": "C" 
			},
			{
				"x": -0.3905158991,
				"y": -1.4101383285,
				"z": -4.550407125,
				"element": "O" 
			},
			{
				"x": -2.0406252596,
				"y": 0.0029495558,
				"z": -3.8942522839,
				"element": "N" 
			},
			{
				"x": -2.6459593638,
				"y": 0.0069608786,
				"z": -5.1686826984,
				"element": "N" 
			},
			{
				"x": -1.2215237319,
				"y": 5.3953767796,
				"z": 3.5283392374,
				"element": "H" 
			},
			{
				"x": 0.0584319831,
				"y": 6.1210569134,
				"z": 2.5515935067,
				"element": "H" 
			},
			{
				"x": 0.4652625316,
				"y": 5.1594854929,
				"z": 3.9825226041,
				"element": "H" 
			},
			{
				"x": -0.076522818,
				"y": 2.6263245754,
				"z": 3.9477357568,
				"element": "H" 
			},
			{
				"x": -0.0281722806,
				"y": 0.5802383611,
				"z": 2.5516214555,
				"element": "H" 
			},
			{
				"x": -0.159100302,
				"y": 3.0101787065,
				"z": -0.9858837659,
				"element": "H" 
			},
			{
				"x": -0.2122470697,
				"y": 5.030316179,
				"z": 0.3935485127,
				"element": "H" 
			},
			{
				"x": -0.1611394818,
				"y": -3.3284939693,
				"z": -3.2881119108,
				"element": "H" 
			},
			{
				"x": 0.6115268954,
				"y": -5.3177836425,
				"z": -2.0454873701,
				"element": "H" 
			},
			{
				"x": 1.2418175793,
				"y": -5.1390154844,
				"z": 0.3559937335,
				"element": "H" 
			},
			{
				"x": 1.0861399766,
				"y": -2.935092968,
				"z": 1.5185622073,
				"element": "H" 
			},
			{
				"x": -0.8785994101,
				"y": 1.2818380348,
				"z": -1.9419394469,
				"element": "H" 
			},
			{
				"x": -2.6616748997,
				"y": 0.2407136736,
				"z": -3.1339216443,
				"element": "H" 
			},
			{
				"x": -2.4860975884,
				"y": -0.919325054,
				"z": -5.5688820743,
				"element": "H" 
			},
			{
				"x": -2.1120897766,
				"y": 0.6465362335,
				"z": -5.7567328085,
				"element": "H" 
			}
		],
		 "valence_orbital": [ 
			{
				"type": "occ",
				"energy": -0.26226,
				"method": "rhf"
			},
			{
				"type": "occ",
				"energy": -0.25283,
				"method": "rhf"
			},
			{
				"type": "occ",
				"energy": -0.25028,
				"method": "rhf"
			},
			{
				"type": "occ",
				"energy": -0.23871,
				"method": "rhf"
			},
			{
				"type": "occ",
				"energy": -0.22041,
				"method": "rhf"
			},
			{
				"type": "unocc",
				"energy": -0.06944,
				"method": "rhf"
			},
			{
				"type": "unocc",
				"energy": -0.03544,
				"method": "rhf"
			},
			{
				"type": "unocc",
				"energy": -0.00204,
				"method": "rhf"
			},
			{
				"type": "unocc",
				"energy": 1e-05,
				"method": "rhf"
			},
			{
				"type": "unocc",
				"energy": 0.01361,
				"method": "rhf"
			}
		],
		"cosmo_sigma_profile": { 
			"-0.025": 0.0,
			"-0.024": 0.0,
			"-0.023": 0.0,
			"-0.022": 0.0,
			"-0.021": 0.0,
			"-0.02": 0.0,
			"-0.019": 0.0,
			"-0.018": 0.0,
			"-0.017": 0.0,
			"-0.016": 0.0,
			"-0.015": 0.13359617494,
			"-0.014": 0.954396942166,
			"-0.013": 1.13141191534,
			"-0.012": 1.36703500768,
			"-0.011": 2.56128357164,
			"-0.01": 4.19239757269,
			"-0.009": 4.49998840074,
			"-0.008": 4.98789383557,
			"-0.007": 4.89285841151,
			"-0.006": 10.9073719065,
			"-0.005": 17.8051893769,
			"-0.004": 26.3616553428,
			"-0.003": 23.7453460975,
			"-0.002": 22.4344147792,
			"-0.001": 23.6422138063,
			"0.0": 27.744791643,
			"0.001": 25.1981095155,
			"0.002": 22.35025262,
			"0.003": 23.5658965394,
			"0.004": 22.0055593666,
			"0.005": 16.5300866921,
			"0.006": 6.83447208475,
			"0.007": 4.38230082027,
			"0.008": 3.69711514571,
			"0.009": 3.25214772275,
			"0.01": 2.89721266412,
			"0.011": 3.14444438416,
			"0.012": 3.91476225179,
			"0.013": 3.83204318278,
			"0.014": 0.471634442592,
			"0.015": 0.696888052893,
			"0.016": 0.690751357168,
			"0.017": 0.0210638110802,
			"0.018": 0.0,
			"0.019": 0.0,
			"0.02": 0.0,
			"0.021": 0.0,
			"0.022": 0.0,
			"0.023": 0.0,
			"0.024": 0.0,
			"0.025": 0.0
		}
	}
}
