{
	 "smiles": "ClC1=CC(OCC#N)=CC(Cl)=C1", 
	 "Tm": 332.15, 
	 "num_atms": 17, 
	 "gaussian": { 
		 "optdone": 1, 
		 "sigma_profile": "yes", 
		 "theory": "DFT", 
		 "functional": "B3LYP", 
		 "basiset": "6-31G**", 
		 "properties": { 
			 "R2extent": 4545.4436, 
			 "electric_dipole_moment_norm": 3.2796686479, 
			 "electric_quadrupole_moment_norm": 8.93134948426, 
			 "total_energy": -1358.18266409, 
			 "HOMO_LUMO_gap": 0.2187, 
			 "cosmo_polarized_energy": -11.01, 
			 "cosmo_cavitation_energy": 26.58, 
			 "cosmo_dispersion_energy": -19.05, 
			 "cosmo_repulsion_energy": 1.54, 
			 "cosmo_total_nonelectrostatic_energy": 9.07, 
			 "SMD_solvation_energy": 5.72 
		},
		"coords": [
			{
				"x": -4.6349401499,
				"y": -3.0563753071,
				"z": -0.3197764217,
				"element": "Cl" 
			},
			{
				"x": -3.2959385649,
				"y": -1.9294072063,
				"z": -0.4236849034,
				"element": "C" 
			},
			{
				"x": -1.9974876148,
				"y": -2.4186420244,
				"z": -0.3733753215,
				"element": "C" 
			},
			{
				"x": -0.9333738069,
				"y": -1.5123679688,
				"z": -0.4602206853,
				"element": "C" 
			},
			{
				"x": 0.3119737608,
				"y": -2.0885419437,
				"z": -0.4118045873,
				"element": "O" 
			},
			{
				"x": 1.4549222118,
				"y": -1.2834063841,
				"z": -0.6328019569,
				"element": "C" 
			},
			{
				"x": 1.8112441641,
				"y": -0.4445990278,
				"z": 0.5279998841,
				"element": "C" 
			},
			{
				"x": 2.1014200758,
				"y": 0.2156148153,
				"z": 1.4365168667,
				"element": "N" 
			},
			{
				"x": -1.1650443412,
				"y": -0.1406208859,
				"z": -0.5888623094,
				"element": "C" 
			},
			{
				"x": -2.4891482495,
				"y": 0.3028431081,
				"z": -0.6386278102,
				"element": "C" 
			},
			{
				"x": -2.7914593911,
				"y": 2.0223630855,
				"z": -0.8026199265,
				"element": "Cl" 
			},
			{
				"x": -3.5719457035,
				"y": -0.5663873311,
				"z": -0.5597452777,
				"element": "C" 
			},
			{
				"x": -1.7923808208,
				"y": -3.4770029475,
				"z": -0.2722748568,
				"element": "H" 
			},
			{
				"x": 1.3357649594,
				"y": -0.6442060588,
				"z": -1.5172680603,
				"element": "H" 
			},
			{
				"x": 2.2747332746,
				"y": -1.9808665079,
				"z": -0.8241301707,
				"element": "H" 
			},
			{
				"x": -0.3626841491,
				"y": 0.5838056452,
				"z": -0.6265482066,
				"element": "H" 
			},
			{
				"x": -4.5897556548,
				"y": -0.2011030608,
				"z": -0.5984762566,
				"element": "H" 
			}
		],
		 "valence_orbital": [ 
			{
				"type": "occ",
				"energy": -0.33149,
				"method": "rhf"
			},
			{
				"type": "occ",
				"energy": -0.32252,
				"method": "rhf"
			},
			{
				"type": "occ",
				"energy": -0.31576,
				"method": "rhf"
			},
			{
				"type": "occ",
				"energy": -0.26287,
				"method": "rhf"
			},
			{
				"type": "occ",
				"energy": -0.25489,
				"method": "rhf"
			},
			{
				"type": "unocc",
				"energy": -0.03619,
				"method": "rhf"
			},
			{
				"type": "unocc",
				"energy": -0.02421,
				"method": "rhf"
			},
			{
				"type": "unocc",
				"energy": -0.01228,
				"method": "rhf"
			},
			{
				"type": "unocc",
				"energy": -0.00095,
				"method": "rhf"
			},
			{
				"type": "unocc",
				"energy": 0.01628,
				"method": "rhf"
			}
		],
		"cosmo_sigma_profile": { 
			"-0.025": 0.0,
			"-0.024": 0.0,
			"-0.023": 0.0,
			"-0.022": 0.0,
			"-0.021": 0.0,
			"-0.02": 0.0,
			"-0.019": 0.0,
			"-0.018": 0.0,
			"-0.017": 0.0,
			"-0.016": 0.0,
			"-0.015": 0.0,
			"-0.014": 0.0,
			"-0.013": 0.0805763183896,
			"-0.012": 1.05830136599,
			"-0.011": 4.37254451915,
			"-0.01": 6.09747138477,
			"-0.009": 5.63173856698,
			"-0.008": 7.32780099906,
			"-0.007": 6.73510165548,
			"-0.006": 5.35377038435,
			"-0.005": 5.65121189947,
			"-0.004": 6.41212771422,
			"-0.003": 7.19932265004,
			"-0.002": 11.7867734317,
			"-0.001": 13.5961678399,
			"0.0": 21.1219861734,
			"0.001": 32.5353420218,
			"0.002": 18.6687328355,
			"0.003": 17.29049434,
			"0.004": 21.4347248593,
			"0.005": 5.88592626113,
			"0.006": 3.64062974704,
			"0.007": 4.52687378756,
			"0.008": 3.36094597125,
			"0.009": 2.87037409644,
			"0.01": 2.76353963103,
			"0.011": 2.26206482389,
			"0.012": 1.6908135464,
			"0.013": 0.155378050809,
			"0.014": 0.0,
			"0.015": 0.0,
			"0.016": 0.0,
			"0.017": 0.0,
			"0.018": 0.0,
			"0.019": 0.0,
			"0.02": 0.0,
			"0.021": 0.0,
			"0.022": 0.0,
			"0.023": 0.0,
			"0.024": 0.0,
			"0.025": 0.0
		}
	}
}
