{
	 "smiles": "CC(C)(C)OC(=O)N1CCN(CC1)C(=O)C1CCCNC1", 
	 "Tm": 393.15, 
	 "num_atms": 48, 
	 "gaussian": { 
		 "optdone": 1, 
		 "sigma_profile": "yes", 
		 "theory": "DFT", 
		 "functional": "B3LYP", 
		 "basiset": "6-31G**", 
		 "properties": { 
			 "R2extent": 10867.0345, 
			 "electric_dipole_moment_norm": 3.99726430199, 
			 "electric_quadrupole_moment_norm": 8.66013214102, 
			 "total_energy": -977.842220326, 
			 "HOMO_LUMO_gap": 0.24628, 
			 "cosmo_polarized_energy": -17.04, 
			 "cosmo_cavitation_energy": 46.34, 
			 "cosmo_dispersion_energy": -32.62, 
			 "cosmo_repulsion_energy": 2.53, 
			 "cosmo_total_nonelectrostatic_energy": 16.25, 
			 "SMD_solvation_energy": 4.8 
		},
		"coords": [
			{
				"x": 4.2040841247,
				"y": 3.4272370285,
				"z": 2.5218883134,
				"element": "C" 
			},
			{
				"x": 2.6783750513,
				"y": 3.4903116862,
				"z": 2.6509285642,
				"element": "C" 
			},
			{
				"x": 2.2167287986,
				"y": 3.4584531668,
				"z": 4.1118417057,
				"element": "C" 
			},
			{
				"x": 2.1240536813,
				"y": 4.7240615309,
				"z": 1.9333724283,
				"element": "C" 
			},
			{
				"x": 2.0639337533,
				"y": 2.3827679737,
				"z": 1.9012144043,
				"element": "O" 
			},
			{
				"x": 2.3018281508,
				"y": 1.0929535589,
				"z": 2.2491260111,
				"element": "C" 
			},
			{
				"x": 3.0360631935,
				"y": 0.7178755878,
				"z": 3.1529477095,
				"element": "O" 
			},
			{
				"x": 1.6034428078,
				"y": 0.2332457852,
				"z": 1.4434583178,
				"element": "N" 
			},
			{
				"x": 1.8078261018,
				"y": -1.2075472718,
				"z": 1.6249341287,
				"element": "C" 
			},
			{
				"x": 1.5703069126,
				"y": -1.94307317,
				"z": 0.3107777202,
				"element": "C" 
			},
			{
				"x": 0.2173207407,
				"y": -1.6823177607,
				"z": -0.197899754,
				"element": "N" 
			},
			{
				"x": -0.3596264498,
				"y": -0.3649524982,
				"z": 0.0923002597,
				"element": "C" 
			},
			{
				"x": 0.7423002711,
				"y": 0.6656221056,
				"z": 0.344970899,
				"element": "C" 
			},
			{
				"x": -0.4356294979,
				"y": -2.7038800098,
				"z": -0.8482617715,
				"element": "C" 
			},
			{
				"x": 0.1238420196,
				"y": -3.7778257128,
				"z": -1.06416519,
				"element": "O" 
			},
			{
				"x": -1.8685358095,
				"y": -2.457309655,
				"z": -1.3263193588,
				"element": "C" 
			},
			{
				"x": -2.7110942709,
				"y": -3.7407545648,
				"z": -1.1954162945,
				"element": "C" 
			},
			{
				"x": -4.1036621801,
				"y": -3.5502659566,
				"z": -1.813772178,
				"element": "C" 
			},
			{
				"x": -3.9981993887,
				"y": -3.0381477465,
				"z": -3.2534217099,
				"element": "C" 
			},
			{
				"x": -3.2196976649,
				"y": -1.7964071633,
				"z": -3.2708834945,
				"element": "N" 
			},
			{
				"x": -1.8498340785,
				"y": -2.002453095,
				"z": -2.8035839617,
				"element": "C" 
			},
			{
				"x": 4.5994607242,
				"y": 2.5367410389,
				"z": 3.0105432749,
				"element": "H" 
			},
			{
				"x": 4.6488847427,
				"y": 4.3141512142,
				"z": 2.9848793273,
				"element": "H" 
			},
			{
				"x": 4.4953711587,
				"y": 3.4132759162,
				"z": 1.4667070351,
				"element": "H" 
			},
			{
				"x": 2.5849065305,
				"y": 4.3484702335,
				"z": 4.6325027616,
				"element": "H" 
			},
			{
				"x": 1.1232150874,
				"y": 3.4631731114,
				"z": 4.1648970117,
				"element": "H" 
			},
			{
				"x": 2.592448124,
				"y": 2.5706231834,
				"z": 4.6205634538,
				"element": "H" 
			},
			{
				"x": 1.0318159403,
				"y": 4.7485298738,
				"z": 1.9924783403,
				"element": "H" 
			},
			{
				"x": 2.5153762948,
				"y": 5.6350190632,
				"z": 2.3958267598,
				"element": "H" 
			},
			{
				"x": 2.4131106654,
				"y": 4.7198797182,
				"z": 0.8783097225,
				"element": "H" 
			},
			{
				"x": 1.1341324729,
				"y": -1.5983871173,
				"z": 2.4000927904,
				"element": "H" 
			},
			{
				"x": 2.8296883593,
				"y": -1.3710395132,
				"z": 1.9733932562,
				"element": "H" 
			},
			{
				"x": 1.6673023067,
				"y": -3.0206917273,
				"z": 0.4496870147,
				"element": "H" 
			},
			{
				"x": 2.3243689718,
				"y": -1.64324345,
				"z": -0.4301101843,
				"element": "H" 
			},
			{
				"x": -1.021259266,
				"y": -0.4063042904,
				"z": 0.9697434834,
				"element": "H" 
			},
			{
				"x": -0.956040362,
				"y": -0.0175282171,
				"z": -0.7548432977,
				"element": "H" 
			},
			{
				"x": 1.3216307052,
				"y": 0.8185978391,
				"z": -0.5773523083,
				"element": "H" 
			},
			{
				"x": 0.2854816891,
				"y": 1.621273646,
				"z": 0.6038385004,
				"element": "H" 
			},
			{
				"x": -2.3507278421,
				"y": -1.6654138112,
				"z": -0.7442357563,
				"element": "H" 
			},
			{
				"x": -2.7944061365,
				"y": -4.0283540693,
				"z": -0.1409182511,
				"element": "H" 
			},
			{
				"x": -2.1750846682,
				"y": -4.5527893758,
				"z": -1.6981078483,
				"element": "H" 
			},
			{
				"x": -4.6787627891,
				"y": -2.8242019266,
				"z": -1.225414245,
				"element": "H" 
			},
			{
				"x": -4.6568905909,
				"y": -4.4964522333,
				"z": -1.7955225775,
				"element": "H" 
			},
			{
				"x": -3.5451748491,
				"y": -3.8293723702,
				"z": -3.8826553033,
				"element": "H" 
			},
			{
				"x": -4.994284712,
				"y": -2.8294096931,
				"z": -3.6592482194,
				"element": "H" 
			},
			{
				"x": -3.2027419527,
				"y": -1.4128189951,
				"z": -4.2117953445,
				"element": "H" 
			},
			{
				"x": -1.3003257289,
				"y": -1.0588639688,
				"z": -2.9080146302,
				"element": "H" 
			},
			{
				"x": -1.2989211423,
				"y": -2.7667578981,
				"z": -3.3830815151,
				"element": "H" 
			}
		],
		 "valence_orbital": [ 
			{
				"type": "occ",
				"energy": -0.26199,
				"method": "rhf"
			},
			{
				"type": "occ",
				"energy": -0.24666,
				"method": "rhf"
			},
			{
				"type": "occ",
				"energy": -0.2395,
				"method": "rhf"
			},
			{
				"type": "occ",
				"energy": -0.23617,
				"method": "rhf"
			},
			{
				"type": "occ",
				"energy": -0.22209,
				"method": "rhf"
			},
			{
				"type": "unocc",
				"energy": 0.02419,
				"method": "rhf"
			},
			{
				"type": "unocc",
				"energy": 0.05203,
				"method": "rhf"
			},
			{
				"type": "unocc",
				"energy": 0.06661,
				"method": "rhf"
			},
			{
				"type": "unocc",
				"energy": 0.08303,
				"method": "rhf"
			},
			{
				"type": "unocc",
				"energy": 0.08911,
				"method": "rhf"
			}
		],
		"cosmo_sigma_profile": { 
			"-0.025": 0.0,
			"-0.024": 0.0,
			"-0.023": 0.0,
			"-0.022": 0.0,
			"-0.021": 0.0,
			"-0.02": 0.0,
			"-0.019": 0.0,
			"-0.018": 0.0,
			"-0.017": 0.0,
			"-0.016": 0.0,
			"-0.015": 0.0,
			"-0.014": 0.0,
			"-0.013": 0.0,
			"-0.012": 0.0,
			"-0.011": 0.0670630840115,
			"-0.01": 0.934125959401,
			"-0.009": 1.43896163459,
			"-0.008": 1.34912430996,
			"-0.007": 1.40838855727,
			"-0.006": 6.46016849194,
			"-0.005": 22.7584652605,
			"-0.004": 39.5175318599,
			"-0.003": 39.6737525947,
			"-0.002": 40.26076689,
			"-0.001": 48.9160157939,
			"0.0": 47.586387869,
			"0.001": 32.0693837394,
			"0.002": 10.1412323865,
			"0.003": 7.48245316657,
			"0.004": 7.26766309643,
			"0.005": 6.64376666861,
			"0.006": 5.5653986681,
			"0.007": 4.27120167992,
			"0.008": 4.27463474468,
			"0.009": 3.47839160418,
			"0.01": 3.93894434672,
			"0.011": 3.63906316867,
			"0.012": 3.07594666692,
			"0.013": 5.31035996858,
			"0.014": 7.18167470428,
			"0.015": 2.41337999326,
			"0.016": 0.167220291634,
			"0.017": 0.570331975986,
			"0.018": 0.223823594726,
			"0.019": 0.0514309676214,
			"0.02": 0.0,
			"0.021": 0.0,
			"0.022": 0.0,
			"0.023": 0.0,
			"0.024": 0.0,
			"0.025": 0.0
		}
	}
}
