{
	 "smiles": "NC1=C(Cl)C=C(C=N1)C(O)=O", 
	 "Tm": 612.15, 
	 "num_atms": 16, 
	 "gaussian": { 
		 "optdone": 1, 
		 "sigma_profile": "yes", 
		 "theory": "DFT", 
		 "functional": "B3LYP", 
		 "basiset": "6-31G**", 
		 "properties": { 
			 "R2extent": 2231.554, 
			 "electric_dipole_moment_norm": 5.21182694839, 
			 "electric_quadrupole_moment_norm": 13.0245980399, 
			 "total_energy": -951.808185997, 
			 "HOMO_LUMO_gap": 0.18431, 
			 "cosmo_polarized_energy": -17.94, 
			 "cosmo_cavitation_energy": 22.8, 
			 "cosmo_dispersion_energy": -17.31, 
			 "cosmo_repulsion_energy": 1.39, 
			 "cosmo_total_nonelectrostatic_energy": 6.88, 
			 "SMD_solvation_energy": 3.46 
		},
		"coords": [
			{
				"x": 1.4601476633,
				"y": 2.3435035907,
				"z": -1.7532831343,
				"element": "N" 
			},
			{
				"x": 0.8945079617,
				"y": 1.4513553231,
				"z": -0.8995704316,
				"element": "C" 
			},
			{
				"x": 0.2598060588,
				"y": 0.2664419582,
				"z": -1.3514104105,
				"element": "C" 
			},
			{
				"x": 0.2479760032,
				"y": -0.1213454727,
				"z": -3.0663007622,
				"element": "Cl" 
			},
			{
				"x": -0.3312375151,
				"y": -0.5838636258,
				"z": -0.437790373,
				"element": "C" 
			},
			{
				"x": -0.2949119265,
				"y": -0.258797051,
				"z": 0.9283662609,
				"element": "C" 
			},
			{
				"x": 0.3771784373,
				"y": 0.9193998194,
				"z": 1.2828539094,
				"element": "C" 
			},
			{
				"x": 0.9443786066,
				"y": 1.7490393653,
				"z": 0.4127683241,
				"element": "N" 
			},
			{
				"x": -0.8775592477,
				"y": -1.0981596078,
				"z": 2.0122348616,
				"element": "C" 
			},
			{
				"x": -1.8052281166,
				"y": -2.0266501174,
				"z": 1.6445533569,
				"element": "O" 
			},
			{
				"x": -0.5649222945,
				"y": -0.9896297299,
				"z": 3.1752621542,
				"element": "O" 
			},
			{
				"x": 1.6151188324,
				"y": 2.1008573115,
				"z": -2.7177605913,
				"element": "H" 
			},
			{
				"x": 2.0048682665,
				"y": 3.0835179586,
				"z": -1.3389986275,
				"element": "H" 
			},
			{
				"x": -0.7804680395,
				"y": -1.5042796058,
				"z": -0.7996151695,
				"element": "H" 
			},
			{
				"x": 0.4465315686,
				"y": 1.1869392976,
				"z": 2.333794819,
				"element": "H" 
			},
			{
				"x": -2.0974862585,
				"y": -1.8754294139,
				"z": 0.7355958138,
				"element": "H" 
			}
		],
		 "valence_orbital": [ 
			{
				"type": "occ",
				"energy": -0.31597,
				"method": "rhf"
			},
			{
				"type": "occ",
				"energy": -0.2959,
				"method": "rhf"
			},
			{
				"type": "occ",
				"energy": -0.28772,
				"method": "rhf"
			},
			{
				"type": "occ",
				"energy": -0.27077,
				"method": "rhf"
			},
			{
				"type": "occ",
				"energy": -0.23691,
				"method": "rhf"
			},
			{
				"type": "unocc",
				"energy": -0.0526,
				"method": "rhf"
			},
			{
				"type": "unocc",
				"energy": -0.04146,
				"method": "rhf"
			},
			{
				"type": "unocc",
				"energy": 0.00801,
				"method": "rhf"
			},
			{
				"type": "unocc",
				"energy": 0.04414,
				"method": "rhf"
			},
			{
				"type": "unocc",
				"energy": 0.06067,
				"method": "rhf"
			}
		],
		"cosmo_sigma_profile": { 
			"-0.025": 0.0,
			"-0.024": 0.0,
			"-0.023": 0.0,
			"-0.022": 0.0,
			"-0.021": 0.0,
			"-0.02": 0.109378445936,
			"-0.019": 0.784726446885,
			"-0.018": 1.06068699132,
			"-0.017": 1.34575955466,
			"-0.016": 0.884278535681,
			"-0.015": 0.809160722421,
			"-0.014": 2.66225445839,
			"-0.013": 3.23390051721,
			"-0.012": 3.26707274594,
			"-0.011": 3.10537066449,
			"-0.01": 3.32210727473,
			"-0.009": 2.98423089551,
			"-0.008": 2.67570753197,
			"-0.007": 4.3620632413,
			"-0.006": 5.40300634478,
			"-0.005": 4.77786014019,
			"-0.004": 5.23236385543,
			"-0.003": 8.21928004537,
			"-0.002": 10.7312328273,
			"-0.001": 14.7836552106,
			"0.0": 19.8525677092,
			"0.001": 13.7487221657,
			"0.002": 9.84864310983,
			"0.003": 11.3792002123,
			"0.004": 9.62274081296,
			"0.005": 4.31969036398,
			"0.006": 3.66623239213,
			"0.007": 3.73178482269,
			"0.008": 4.55077258907,
			"0.009": 3.32221412719,
			"0.01": 5.84452982,
			"0.011": 6.26157280309,
			"0.012": 5.99625425627,
			"0.013": 2.65768814967,
			"0.014": 0.464596453327,
			"0.015": 0.0181258224716,
			"0.016": 0.0,
			"0.017": 0.0,
			"0.018": 0.0,
			"0.019": 0.0,
			"0.02": 0.0,
			"0.021": 0.0,
			"0.022": 0.0,
			"0.023": 0.0,
			"0.024": 0.0,
			"0.025": 0.0
		}
	}
}
