{
	 "smiles": "CCCOC1CCC2C3CC=C4CC5(CCC4(C)C3CCC12C)OCCO5", 
	 "Tm": 487.15, 
	 "num_atms": 65, 
	 "gaussian": { 
		 "optdone": 1, 
		 "sigma_profile": "yes", 
		 "theory": "DFT", 
		 "functional": "B3LYP", 
		 "basiset": "6-31G**", 
		 "properties": { 
			 "R2extent": 15444.5538, 
			 "electric_dipole_moment_norm": 1.12205387126, 
			 "electric_quadrupole_moment_norm": 17.2471350885, 
			 "total_energy": -1163.11882044, 
			 "HOMO_LUMO_gap": 0.25225, 
			 "cosmo_polarized_energy": -9.77, 
			 "cosmo_cavitation_energy": 56.38, 
			 "cosmo_dispersion_energy": -38.62, 
			 "cosmo_repulsion_energy": 2.85, 
			 "cosmo_total_nonelectrostatic_energy": 20.61, 
			 "SMD_solvation_energy": 7.78 
		},
		"coords": [
			{
				"x": -1.1606648412,
				"y": 3.267759946,
				"z": 7.0096994792,
				"element": "C" 
			},
			{
				"x": -0.5874054545,
				"y": 1.8529239502,
				"z": 6.8920990036,
				"element": "C" 
			},
			{
				"x": -1.3406752297,
				"y": 0.9827730975,
				"z": 5.8807020737,
				"element": "C" 
			},
			{
				"x": -1.3029793857,
				"y": 1.5089440795,
				"z": 4.5594188162,
				"element": "O" 
			},
			{
				"x": -0.1595687863,
				"y": 1.1576551556,
				"z": 3.7734305215,
				"element": "C" 
			},
			{
				"x": 0.3162984113,
				"y": 2.4191199208,
				"z": 3.0463373447,
				"element": "C" 
			},
			{
				"x": -0.6653087078,
				"y": 2.5216445326,
				"z": 1.8724113251,
				"element": "C" 
			},
			{
				"x": -0.7760239714,
				"y": 1.0651366774,
				"z": 1.3462657578,
				"element": "C" 
			},
			{
				"x": 0.183450675,
				"y": 0.8072853501,
				"z": 0.1550386361,
				"element": "C" 
			},
			{
				"x": -0.3061827148,
				"y": 1.5480031715,
				"z": -1.1025855324,
				"element": "C" 
			},
			{
				"x": 0.4115067464,
				"y": 1.1302929662,
				"z": -2.354754514,
				"element": "C" 
			},
			{
				"x": 1.2037595204,
				"y": 0.0576770167,
				"z": -2.4628042826,
				"element": "C" 
			},
			{
				"x": 1.9278563316,
				"y": -0.2397876504,
				"z": -3.7597385841,
				"element": "C" 
			},
			{
				"x": 1.7535378724,
				"y": -1.6880872463,
				"z": -4.2308964753,
				"element": "C" 
			},
			{
				"x": 2.0994848152,
				"y": -2.6686852296,
				"z": -3.1088659736,
				"element": "C" 
			},
			{
				"x": 1.2879328535,
				"y": -2.3660422665,
				"z": -1.8423818086,
				"element": "C" 
			},
			{
				"x": 1.4410612481,
				"y": -0.9127785405,
				"z": -1.3007402787,
				"element": "C" 
			},
			{
				"x": 2.8774457915,
				"y": -0.6972677791,
				"z": -0.7576449388,
				"element": "C" 
			},
			{
				"x": 0.3571747285,
				"y": -0.6919035898,
				"z": -0.1896231034,
				"element": "C" 
			},
			{
				"x": 0.5755548003,
				"y": -1.5788365,
				"z": 1.0730389577,
				"element": "C" 
			},
			{
				"x": 0.6942804635,
				"y": -0.771407887,
				"z": 2.3704785791,
				"element": "C" 
			},
			{
				"x": -0.516375423,
				"y": 0.1549991005,
				"z": 2.6141393146,
				"element": "C" 
			},
			{
				"x": -1.7638480554,
				"y": -0.6763123236,
				"z": 2.9538654377,
				"element": "C" 
			},
			{
				"x": 2.5937165158,
				"y": -1.9569955282,
				"z": -5.3610693485,
				"element": "O" 
			},
			{
				"x": 1.7636280205,
				"y": -2.1437455961,
				"z": -6.5027616213,
				"element": "C" 
			},
			{
				"x": 0.4515215922,
				"y": -2.6165619543,
				"z": -5.8838415131,
				"element": "C" 
			},
			{
				"x": 0.404985652,
				"y": -1.8679301572,
				"z": -4.6751413759,
				"element": "O" 
			},
			{
				"x": -2.1931887264,
				"y": 3.2446254328,
				"z": 7.3773639026,
				"element": "H" 
			},
			{
				"x": -1.1686298226,
				"y": 3.7615536125,
				"z": 6.0339446249,
				"element": "H" 
			},
			{
				"x": -0.57370723,
				"y": 3.8811756238,
				"z": 7.7006444419,
				"element": "H" 
			},
			{
				"x": 0.4720785889,
				"y": 1.9001679057,
				"z": 6.6076569988,
				"element": "H" 
			},
			{
				"x": -0.6208454386,
				"y": 1.3478790668,
				"z": 7.8671457358,
				"element": "H" 
			},
			{
				"x": -0.9490428807,
				"y": -0.0450232177,
				"z": 5.9000602293,
				"element": "H" 
			},
			{
				"x": -2.4021076426,
				"y": 0.9311655984,
				"z": 6.1540851927,
				"element": "H" 
			},
			{
				"x": 0.6143619704,
				"y": 0.7328335163,
				"z": 4.4272183355,
				"element": "H" 
			},
			{
				"x": 1.3400903998,
				"y": 2.2745681418,
				"z": 2.6788655623,
				"element": "H" 
			},
			{
				"x": 0.3170237945,
				"y": 3.2913060288,
				"z": 3.7058723272,
				"element": "H" 
			},
			{
				"x": -0.3455924622,
				"y": 3.2342858125,
				"z": 1.1064949528,
				"element": "H" 
			},
			{
				"x": -1.6354879755,
				"y": 2.8606436081,
				"z": 2.2503295763,
				"element": "H" 
			},
			{
				"x": -1.7942348022,
				"y": 0.8767843817,
				"z": 0.9819294567,
				"element": "H" 
			},
			{
				"x": 1.1682232168,
				"y": 1.2184731069,
				"z": 0.4192929004,
				"element": "H" 
			},
			{
				"x": -0.2038616606,
				"y": 2.6333090309,
				"z": -0.9752950962,
				"element": "H" 
			},
			{
				"x": -1.3875751061,
				"y": 1.3737548698,
				"z": -1.2282851136,
				"element": "H" 
			},
			{
				"x": 0.2645806007,
				"y": 1.7624431185,
				"z": -3.2305168388,
				"element": "H" 
			},
			{
				"x": 3.0085269192,
				"y": -0.0837055181,
				"z": -3.6423257195,
				"element": "H" 
			},
			{
				"x": 1.5881703007,
				"y": 0.4327933751,
				"z": -4.5529403448,
				"element": "H" 
			},
			{
				"x": 1.8968713842,
				"y": -3.6881066437,
				"z": -3.4559174553,
				"element": "H" 
			},
			{
				"x": 3.1776618615,
				"y": -2.6084222797,
				"z": -2.9224474504,
				"element": "H" 
			},
			{
				"x": 1.5581672688,
				"y": -3.082453853,
				"z": -1.0584214523,
				"element": "H" 
			},
			{
				"x": 0.2298767345,
				"y": -2.5335560915,
				"z": -2.0759587004,
				"element": "H" 
			},
			{
				"x": 2.9959373935,
				"y": 0.3054511208,
				"z": -0.3370783164,
				"element": "H" 
			},
			{
				"x": 3.6245992344,
				"y": -0.8011215117,
				"z": -1.5491100923,
				"element": "H" 
			},
			{
				"x": 3.1328587123,
				"y": -1.4251709222,
				"z": 0.0188537931,
				"element": "H" 
			},
			{
				"x": -0.5921703376,
				"y": -1.0014859591,
				"z": -0.649805668,
				"element": "H" 
			},
			{
				"x": 1.4703774529,
				"y": -2.1991289528,
				"z": 0.9668542077,
				"element": "H" 
			},
			{
				"x": -0.2538895557,
				"y": -2.2876321159,
				"z": 1.1677056127,
				"element": "H" 
			},
			{
				"x": 1.615449886,
				"y": -0.1739952839,
				"z": 2.3417505858,
				"element": "H" 
			},
			{
				"x": 0.8042316206,
				"y": -1.4563665539,
				"z": 3.2215409737,
				"element": "H" 
			},
			{
				"x": -2.0327358049,
				"y": -1.3400960746,
				"z": 2.1262621914,
				"element": "H" 
			},
			{
				"x": -1.6006055209,
				"y": -1.3021186495,
				"z": 3.8393882034,
				"element": "H" 
			},
			{
				"x": -2.616396926,
				"y": -0.0252948446,
				"z": 3.1584852655,
				"element": "H" 
			},
			{
				"x": 2.2347081671,
				"y": -2.8774010213,
				"z": -7.1636138126,
				"element": "H" 
			},
			{
				"x": 1.6269752913,
				"y": -1.2012365676,
				"z": -7.0530627755,
				"element": "H" 
			},
			{
				"x": -0.4367810607,
				"y": -2.3765705548,
				"z": -6.4743007269,
				"element": "H" 
			},
			{
				"x": 0.470718687,
				"y": -3.6992994516,
				"z": -5.6877414044,
				"element": "H" 
			}
		],
		 "valence_orbital": [ 
			{
				"type": "occ",
				"energy": -0.27062,
				"method": "rhf"
			},
			{
				"type": "occ",
				"energy": -0.26424,
				"method": "rhf"
			},
			{
				"type": "occ",
				"energy": -0.24957,
				"method": "rhf"
			},
			{
				"type": "occ",
				"energy": -0.23467,
				"method": "rhf"
			},
			{
				"type": "occ",
				"energy": -0.21948,
				"method": "rhf"
			},
			{
				"type": "unocc",
				"energy": 0.03277,
				"method": "rhf"
			},
			{
				"type": "unocc",
				"energy": 0.07003,
				"method": "rhf"
			},
			{
				"type": "unocc",
				"energy": 0.08379,
				"method": "rhf"
			},
			{
				"type": "unocc",
				"energy": 0.08602,
				"method": "rhf"
			},
			{
				"type": "unocc",
				"energy": 0.09634,
				"method": "rhf"
			}
		],
		"cosmo_sigma_profile": { 
			"-0.025": 0.0,
			"-0.024": 0.0,
			"-0.023": 0.0,
			"-0.022": 0.0,
			"-0.021": 0.0,
			"-0.02": 0.0,
			"-0.019": 0.0,
			"-0.018": 0.0,
			"-0.017": 0.0,
			"-0.016": 0.0,
			"-0.015": 0.0,
			"-0.014": 0.0,
			"-0.013": 0.0,
			"-0.012": 0.0,
			"-0.011": 0.0,
			"-0.01": 0.0,
			"-0.009": 0.0,
			"-0.008": 0.0,
			"-0.007": 0.0,
			"-0.006": 2.92984184355,
			"-0.005": 9.2496687284,
			"-0.004": 21.6864369148,
			"-0.003": 50.7948541934,
			"-0.002": 67.4808343937,
			"-0.001": 69.667564195,
			"0.0": 64.1731420747,
			"0.001": 57.7420940694,
			"0.002": 30.933638748,
			"0.003": 9.71604796564,
			"0.004": 8.7950289265,
			"0.005": 6.39159604876,
			"0.006": 5.99889178876,
			"0.007": 5.62038809146,
			"0.008": 4.41498578762,
			"0.009": 3.93533901752,
			"0.01": 3.45891942679,
			"0.011": 3.69843589829,
			"0.012": 3.37325227583,
			"0.013": 2.19391293739,
			"0.014": 0.0588334865702,
			"0.015": 0.0,
			"0.016": 0.0,
			"0.017": 0.0,
			"0.018": 0.0,
			"0.019": 0.0,
			"0.02": 0.0,
			"0.021": 0.0,
			"0.022": 0.0,
			"0.023": 0.0,
			"0.024": 0.0,
			"0.025": 0.0
		}
	}
}
