{
	 "smiles": "CC(C)(C)OC(=O)N1CC(O)CC1C(O)=O", 
	 "Tm": 419.15, 
	 "num_atms": 33, 
	 "gaussian": { 
		 "optdone": 1, 
		 "sigma_profile": "yes", 
		 "theory": "DFT", 
		 "functional": "B3LYP", 
		 "basiset": "6-31G**", 
		 "properties": { 
			 "R2extent": 3840.3828, 
			 "electric_dipole_moment_norm": 2.6658475369, 
			 "electric_quadrupole_moment_norm": 22.0371300808, 
			 "total_energy": -822.218134915, 
			 "HOMO_LUMO_gap": 0.2674, 
			 "cosmo_polarized_energy": -20.14, 
			 "cosmo_cavitation_energy": 34.88, 
			 "cosmo_dispersion_energy": -23.34, 
			 "cosmo_repulsion_energy": 1.84, 
			 "cosmo_total_nonelectrostatic_energy": 13.38, 
			 "SMD_solvation_energy": 7.88 
		},
		"coords": [
			{
				"x": 2.7088933059,
				"y": -2.1589053998,
				"z": -1.8525284912,
				"element": "C" 
			},
			{
				"x": 1.2136123869,
				"y": -1.9244883438,
				"z": -2.0856398987,
				"element": "C" 
			},
			{
				"x": 0.4171561029,
				"y": -3.2145548531,
				"z": -1.8809598769,
				"element": "C" 
			},
			{
				"x": 0.9238347658,
				"y": -1.3087887694,
				"z": -3.457323126,
				"element": "C" 
			},
			{
				"x": 0.6772150937,
				"y": -1.0485762795,
				"z": -1.0214160462,
				"element": "O" 
			},
			{
				"x": 1.1402061287,
				"y": 0.2041311453,
				"z": -0.8433798368,
				"element": "C" 
			},
			{
				"x": 1.979086962,
				"y": 0.7782092877,
				"z": -1.5144754301,
				"element": "O" 
			},
			{
				"x": 0.5458395363,
				"y": 0.7678272364,
				"z": 0.2801241666,
				"element": "N" 
			},
			{
				"x": 0.632953909,
				"y": 2.2352820516,
				"z": 0.4485947304,
				"element": "C" 
			},
			{
				"x": -0.7732856066,
				"y": 2.6406660661,
				"z": 0.8917934577,
				"element": "C" 
			},
			{
				"x": -1.5380045877,
				"y": 2.8342453804,
				"z": -0.2924249671,
				"element": "O" 
			},
			{
				"x": -1.2464861902,
				"y": 1.4095937323,
				"z": 1.6787686545,
				"element": "C" 
			},
			{
				"x": -0.7100103345,
				"y": 0.2280729165,
				"z": 0.8402122801,
				"element": "C" 
			},
			{
				"x": -0.5123966765,
				"y": -1.0167691256,
				"z": 1.7091035242,
				"element": "C" 
			},
			{
				"x": 0.73838825,
				"y": -1.1986999181,
				"z": 2.1789882075,
				"element": "O" 
			},
			{
				"x": -1.427792677,
				"y": -1.7430518161,
				"z": 2.0094171753,
				"element": "O" 
			},
			{
				"x": 2.8788846358,
				"y": -2.5556308185,
				"z": -0.8466310468,
				"element": "H" 
			},
			{
				"x": 3.275558733,
				"y": -1.2349499594,
				"z": -1.9729512811,
				"element": "H" 
			},
			{
				"x": 3.079217698,
				"y": -2.8946426061,
				"z": -2.5734305584,
				"element": "H" 
			},
			{
				"x": 0.7274765149,
				"y": -3.9643979767,
				"z": -2.6146212586,
				"element": "H" 
			},
			{
				"x": 0.5838303864,
				"y": -3.6177030737,
				"z": -0.878260083,
				"element": "H" 
			},
			{
				"x": -0.6541340511,
				"y": -3.0319450703,
				"z": -2.0039552307,
				"element": "H" 
			},
			{
				"x": -0.1468206437,
				"y": -1.1096553433,
				"z": -3.5663644669,
				"element": "H" 
			},
			{
				"x": 1.2192552796,
				"y": -2.0127691954,
				"z": -4.2419367188,
				"element": "H" 
			},
			{
				"x": 1.4735458348,
				"y": -0.3773116977,
				"z": -3.5945767089,
				"element": "H" 
			},
			{
				"x": 0.9197424687,
				"y": 2.7055477696,
				"z": -0.4925804449,
				"element": "H" 
			},
			{
				"x": 1.3758242404,
				"y": 2.495819343,
				"z": 1.2108533762,
				"element": "H" 
			},
			{
				"x": -0.75700961,
				"y": 3.5500974969,
				"z": 1.5090385355,
				"element": "H" 
			},
			{
				"x": -2.4542714838,
				"y": 3.0037404339,
				"z": -0.0371348125,
				"element": "H" 
			},
			{
				"x": -2.3305412309,
				"y": 1.3591636272,
				"z": 1.8075691697,
				"element": "H" 
			},
			{
				"x": -0.7900753351,
				"y": 1.4086602706,
				"z": 2.6757432459,
				"element": "H" 
			},
			{
				"x": -1.4148645107,
				"y": -0.0347797555,
				"z": 0.0481864399,
				"element": "H" 
			},
			{
				"x": 1.303070705,
				"y": -0.5278367555,
				"z": 1.7528973203,
				"element": "H" 
			}
		],
		 "valence_orbital": [ 
			{
				"type": "occ",
				"energy": -0.29866,
				"method": "rhf"
			},
			{
				"type": "occ",
				"energy": -0.29067,
				"method": "rhf"
			},
			{
				"type": "occ",
				"energy": -0.28022,
				"method": "rhf"
			},
			{
				"type": "occ",
				"energy": -0.27445,
				"method": "rhf"
			},
			{
				"type": "occ",
				"energy": -0.25317,
				"method": "rhf"
			},
			{
				"type": "unocc",
				"energy": 0.01423,
				"method": "rhf"
			},
			{
				"type": "unocc",
				"energy": 0.03393,
				"method": "rhf"
			},
			{
				"type": "unocc",
				"energy": 0.04985,
				"method": "rhf"
			},
			{
				"type": "unocc",
				"energy": 0.07639,
				"method": "rhf"
			},
			{
				"type": "unocc",
				"energy": 0.08902,
				"method": "rhf"
			}
		],
		"cosmo_sigma_profile": { 
			"-0.025": 0.0,
			"-0.024": 0.0,
			"-0.023": 0.0,
			"-0.022": 0.0,
			"-0.021": 0.0,
			"-0.02": 0.0,
			"-0.019": 0.0,
			"-0.018": 0.0,
			"-0.017": 0.00475213781435,
			"-0.016": 0.764964261274,
			"-0.015": 1.35878728962,
			"-0.014": 1.39187167846,
			"-0.013": 1.82210685098,
			"-0.012": 1.62564829152,
			"-0.011": 3.150421613,
			"-0.01": 2.6237347823,
			"-0.009": 1.56572463932,
			"-0.008": 2.90036767147,
			"-0.007": 5.08526536363,
			"-0.006": 11.6216915554,
			"-0.005": 17.6344825278,
			"-0.004": 23.6166156681,
			"-0.003": 24.5422767824,
			"-0.002": 23.5191982848,
			"-0.001": 22.250499991,
			"0.0": 28.2349336498,
			"0.001": 17.5387107795,
			"0.002": 7.9488790573,
			"0.003": 8.44808658768,
			"0.004": 5.71743038221,
			"0.005": 5.98924378179,
			"0.006": 5.21041071539,
			"0.007": 4.80979470003,
			"0.008": 5.33404744051,
			"0.009": 5.6915149166,
			"0.01": 7.86364280607,
			"0.011": 7.36319872016,
			"0.012": 9.69050777162,
			"0.013": 5.50007387848,
			"0.014": 0.424303184925,
			"0.015": 0.0,
			"0.016": 0.0,
			"0.017": 0.0,
			"0.018": 0.0,
			"0.019": 0.0,
			"0.02": 0.0,
			"0.021": 0.0,
			"0.022": 0.0,
			"0.023": 0.0,
			"0.024": 0.0,
			"0.025": 0.0
		}
	}
}
