{
	 "smiles": "OC(=O)CC1=CC(OCC2=NC=CC=C2)=CC=C1", 
	 "Tm": 397.15, 
	 "num_atms": 31, 
	 "gaussian": { 
		 "optdone": 1, 
		 "sigma_profile": "yes", 
		 "theory": "DFT", 
		 "functional": "B3LYP", 
		 "basiset": "6-31G**", 
		 "properties": { 
			 "R2extent": 8264.673, 
			 "electric_dipole_moment_norm": 2.59007178858, 
			 "electric_quadrupole_moment_norm": 3.91922068146, 
			 "total_energy": -821.752654613, 
			 "HOMO_LUMO_gap": 0.19481, 
			 "cosmo_polarized_energy": -14.23, 
			 "cosmo_cavitation_energy": 36.37, 
			 "cosmo_dispersion_energy": -26.11, 
			 "cosmo_repulsion_energy": 2.02, 
			 "cosmo_total_nonelectrostatic_energy": 12.29, 
			 "SMD_solvation_energy": 6.0 
		},
		"coords": [
			{
				"x": -0.6420983201,
				"y": 3.4132360153,
				"z": 3.9851506041,
				"element": "O" 
			},
			{
				"x": -0.8984688143,
				"y": 4.2191380347,
				"z": 2.9282978971,
				"element": "C" 
			},
			{
				"x": -1.626132595,
				"y": 5.1850871897,
				"z": 3.0023296254,
				"element": "O" 
			},
			{
				"x": -0.2008259421,
				"y": 3.7426287012,
				"z": 1.6672963227,
				"element": "C" 
			},
			{
				"x": -1.1158252511,
				"y": 2.8522572478,
				"z": 0.8382650167,
				"element": "C" 
			},
			{
				"x": -0.7673101594,
				"y": 1.5277559889,
				"z": 0.587477085,
				"element": "C" 
			},
			{
				"x": -1.5998046613,
				"y": 0.7039108101,
				"z": -0.1850150158,
				"element": "C" 
			},
			{
				"x": -1.1524483076,
				"y": -0.5747600478,
				"z": -0.3677404713,
				"element": "O" 
			},
			{
				"x": -1.9441296193,
				"y": -1.466703248,
				"z": -1.1369144145,
				"element": "C" 
			},
			{
				"x": -1.2681543129,
				"y": -2.8182930955,
				"z": -1.2056907573,
				"element": "C" 
			},
			{
				"x": -1.9381554435,
				"y": -3.7264305723,
				"z": -1.9307866733,
				"element": "N" 
			},
			{
				"x": -1.4089948599,
				"y": -4.9489988876,
				"z": -2.0403793634,
				"element": "C" 
			},
			{
				"x": -0.2042874501,
				"y": -5.3256885388,
				"z": -1.443779594,
				"element": "C" 
			},
			{
				"x": 0.4822581221,
				"y": -4.373175841,
				"z": -0.6931271506,
				"element": "C" 
			},
			{
				"x": -0.0558389065,
				"y": -3.0924624826,
				"z": -0.5681181472,
				"element": "C" 
			},
			{
				"x": -2.7941974071,
				"y": 1.2099535319,
				"z": -0.7069141837,
				"element": "C" 
			},
			{
				"x": -3.1392477488,
				"y": 2.5403952258,
				"z": -0.4445929226,
				"element": "C" 
			},
			{
				"x": -2.3168850712,
				"y": 3.3619654507,
				"z": 0.3185882733,
				"element": "C" 
			},
			{
				"x": -1.1594010209,
				"y": 3.7692674369,
				"z": 4.7275976395,
				"element": "H" 
			},
			{
				"x": 0.7113521842,
				"y": 3.2047536281,
				"z": 1.934037712,
				"element": "H" 
			},
			{
				"x": 0.0701435186,
				"y": 4.6368489303,
				"z": 1.0980041295,
				"element": "H" 
			},
			{
				"x": 0.1527724449,
				"y": 1.1062021919,
				"z": 0.9804586041,
				"element": "H" 
			},
			{
				"x": -2.9420268915,
				"y": -1.5856771303,
				"z": -0.6914072791,
				"element": "H" 
			},
			{
				"x": -2.0855103912,
				"y": -1.0831858638,
				"z": -2.1572152747,
				"element": "H" 
			},
			{
				"x": -1.9761943418,
				"y": -5.6633320014,
				"z": -2.6350076907,
				"element": "H" 
			},
			{
				"x": 0.178449722,
				"y": -6.333804697,
				"z": -1.5669325315,
				"element": "H" 
			},
			{
				"x": 1.4235521702,
				"y": -4.6213762813,
				"z": -0.2107127785,
				"element": "H" 
			},
			{
				"x": 0.4400802836,
				"y": -2.318629585,
				"z": 0.004484856,
				"element": "H" 
			},
			{
				"x": -3.4518423739,
				"y": 0.5926519269,
				"z": -1.3066515061,
				"element": "H" 
			},
			{
				"x": -4.0681297458,
				"y": 2.9331178181,
				"z": -0.8483536102,
				"element": "H" 
			},
			{
				"x": -2.5986988104,
				"y": 4.3895481444,
				"z": 0.5249515992,
				"element": "H" 
			}
		],
		 "valence_orbital": [ 
			{
				"type": "occ",
				"energy": -0.27728,
				"method": "rhf"
			},
			{
				"type": "occ",
				"energy": -0.25886,
				"method": "rhf"
			},
			{
				"type": "occ",
				"energy": -0.25825,
				"method": "rhf"
			},
			{
				"type": "occ",
				"energy": -0.24749,
				"method": "rhf"
			},
			{
				"type": "occ",
				"energy": -0.2223,
				"method": "rhf"
			},
			{
				"type": "unocc",
				"energy": -0.02749,
				"method": "rhf"
			},
			{
				"type": "unocc",
				"energy": -0.01321,
				"method": "rhf"
			},
			{
				"type": "unocc",
				"energy": -0.0086,
				"method": "rhf"
			},
			{
				"type": "unocc",
				"energy": 0.00622,
				"method": "rhf"
			},
			{
				"type": "unocc",
				"energy": 0.01903,
				"method": "rhf"
			}
		],
		"cosmo_sigma_profile": { 
			"-0.025": 0.0,
			"-0.024": 0.0,
			"-0.023": 0.0,
			"-0.022": 0.0,
			"-0.021": 0.0,
			"-0.02": 0.0,
			"-0.019": 0.0219574897194,
			"-0.018": 0.584234952252,
			"-0.017": 1.1981699378,
			"-0.016": 0.792935749395,
			"-0.015": 0.665889826914,
			"-0.014": 0.745075665036,
			"-0.013": 0.609229396775,
			"-0.012": 0.833793912068,
			"-0.011": 0.791919188556,
			"-0.01": 0.69835525547,
			"-0.009": 0.442333895657,
			"-0.008": 0.842198566192,
			"-0.007": 7.48800430472,
			"-0.006": 22.5593538853,
			"-0.005": 23.9974408461,
			"-0.004": 22.906990444,
			"-0.003": 19.7285486203,
			"-0.002": 16.2692568413,
			"-0.001": 17.0511368701,
			"0.0": 15.2791889053,
			"0.001": 17.3495019978,
			"0.002": 24.2072743607,
			"0.003": 27.462694358,
			"0.004": 18.4089870314,
			"0.005": 14.2922005558,
			"0.006": 6.99654830433,
			"0.007": 4.41241827685,
			"0.008": 3.89733716562,
			"0.009": 4.26066621002,
			"0.01": 3.50163800845,
			"0.011": 3.9300710184,
			"0.012": 4.94961992727,
			"0.013": 1.37404991411,
			"0.014": 0.588395711923,
			"0.015": 0.599966175555,
			"0.016": 0.432966465936,
			"0.017": 0.0,
			"0.018": 0.0,
			"0.019": 0.0,
			"0.02": 0.0,
			"0.021": 0.0,
			"0.022": 0.0,
			"0.023": 0.0,
			"0.024": 0.0,
			"0.025": 0.0
		}
	}
}
