{
	 "smiles": "CC1=C2C(=NO1)C(=NN=C2C1=CC=CC=C1)C1=CC=C(Cl)C=C1", 
	 "Tm": 444.15, 
	 "num_atms": 35, 
	 "gaussian": { 
		 "optdone": 1, 
		 "sigma_profile": "yes", 
		 "theory": "DFT", 
		 "functional": "B3LYP", 
		 "basiset": "6-31G**", 
		 "properties": { 
			 "R2extent": 12053.4439, 
			 "electric_dipole_moment_norm": 6.04516857499, 
			 "electric_quadrupole_moment_norm": 7.19271918331, 
			 "total_energy": -1392.73958067, 
			 "HOMO_LUMO_gap": 0.13046, 
			 "cosmo_polarized_energy": -14.11, 
			 "cosmo_cavitation_energy": 41.39, 
			 "cosmo_dispersion_energy": -30.4, 
			 "cosmo_repulsion_energy": 2.26, 
			 "cosmo_total_nonelectrostatic_energy": 13.25, 
			 "SMD_solvation_energy": 5.02 
		},
		"coords": [
			{
				"x": -0.94924524,
				"y": 1.5640556332,
				"z": 3.4064243281,
				"element": "C" 
			},
			{
				"x": -0.9252188449,
				"y": 0.4361192959,
				"z": 2.4339395408,
				"element": "C" 
			},
			{
				"x": -0.9522785967,
				"y": 0.3044254867,
				"z": 1.054269455,
				"element": "C" 
			},
			{
				"x": -0.9855307606,
				"y": -1.1136917754,
				"z": 0.8489189474,
				"element": "C" 
			},
			{
				"x": -0.9490210734,
				"y": -1.784246526,
				"z": 1.9900602102,
				"element": "N" 
			},
			{
				"x": -0.9110277403,
				"y": -0.7920011622,
				"z": 2.9705503686,
				"element": "O" 
			},
			{
				"x": -1.1279541297,
				"y": -1.6067341541,
				"z": -0.5039071829,
				"element": "C" 
			},
			{
				"x": -1.2613132715,
				"y": -0.7281652541,
				"z": -1.4798592307,
				"element": "N" 
			},
			{
				"x": -1.1924145143,
				"y": 0.6172750643,
				"z": -1.295534247,
				"element": "N" 
			},
			{
				"x": -1.0194241366,
				"y": 1.1522988879,
				"z": -0.10021651,
				"element": "C" 
			},
			{
				"x": -0.9047105186,
				"y": 2.6289438027,
				"z": -0.060999507,
				"element": "C" 
			},
			{
				"x": 0.0265795944,
				"y": 3.2694313702,
				"z": 0.771851429,
				"element": "C" 
			},
			{
				"x": 0.1475597937,
				"y": 4.6591373427,
				"z": 0.7621674906,
				"element": "C" 
			},
			{
				"x": -0.6618455402,
				"y": 5.4259399446,
				"z": -0.0775532621,
				"element": "C" 
			},
			{
				"x": -1.5816821271,
				"y": 4.795539341,
				"z": -0.9202820781,
				"element": "C" 
			},
			{
				"x": -1.6982012676,
				"y": 3.4080042213,
				"z": -0.9195848919,
				"element": "C" 
			},
			{
				"x": -1.1647760921,
				"y": -3.0379476931,
				"z": -0.8769173318,
				"element": "C" 
			},
			{
				"x": -1.3236509093,
				"y": -3.3892173218,
				"z": -2.2317448375,
				"element": "C" 
			},
			{
				"x": -1.3617094222,
				"y": -4.7198764679,
				"z": -2.62716019,
				"element": "C" 
			},
			{
				"x": -1.2383832034,
				"y": -5.7222071713,
				"z": -1.6618427838,
				"element": "C" 
			},
			{
				"x": -1.2843729771,
				"y": -7.4070040741,
				"z": -2.1557376571,
				"element": "Cl" 
			},
			{
				"x": -1.078797191,
				"y": -5.4048564499,
				"z": -0.3149968824,
				"element": "C" 
			},
			{
				"x": -1.0421666488,
				"y": -4.0664881146,
				"z": 0.0733720624,
				"element": "C" 
			},
			{
				"x": -1.419214738,
				"y": 2.4434512479,
				"z": 2.9653458988,
				"element": "H" 
			},
			{
				"x": 0.0641644748,
				"y": 1.8424247318,
				"z": 3.7180000145,
				"element": "H" 
			},
			{
				"x": -1.502173466,
				"y": 1.2638548216,
				"z": 4.3000220943,
				"element": "H" 
			},
			{
				"x": 0.6861122508,
				"y": 2.6767668177,
				"z": 1.3979888386,
				"element": "H" 
			},
			{
				"x": 0.8814908298,
				"y": 5.1407646269,
				"z": 1.4017368255,
				"element": "H" 
			},
			{
				"x": -0.5708720064,
				"y": 6.5082076689,
				"z": -0.0819588076,
				"element": "H" 
			},
			{
				"x": -2.2081826448,
				"y": 5.3876369509,
				"z": -1.5809335891,
				"element": "H" 
			},
			{
				"x": -2.3971704034,
				"y": 2.9068837472,
				"z": -1.5799247364,
				"element": "H" 
			},
			{
				"x": -1.4158932091,
				"y": -2.5966494111,
				"z": -2.9647006619,
				"element": "H" 
			},
			{
				"x": -1.4843879901,
				"y": -4.9832725969,
				"z": -3.6718730482,
				"element": "H" 
			},
			{
				"x": -0.9842297742,
				"y": -6.1937261864,
				"z": 0.4228045115,
				"element": "H" 
			},
			{
				"x": -0.9205585061,
				"y": -3.8260766445,
				"z": 1.1223754201,
				"element": "H" 
			}
		],
		 "valence_orbital": [ 
			{
				"type": "occ",
				"energy": -0.26519,
				"method": "rhf"
			},
			{
				"type": "occ",
				"energy": -0.26144,
				"method": "rhf"
			},
			{
				"type": "occ",
				"energy": -0.26039,
				"method": "rhf"
			},
			{
				"type": "occ",
				"energy": -0.23749,
				"method": "rhf"
			},
			{
				"type": "occ",
				"energy": -0.22486,
				"method": "rhf"
			},
			{
				"type": "unocc",
				"energy": -0.0944,
				"method": "rhf"
			},
			{
				"type": "unocc",
				"energy": -0.03227,
				"method": "rhf"
			},
			{
				"type": "unocc",
				"energy": -0.02813,
				"method": "rhf"
			},
			{
				"type": "unocc",
				"energy": -0.01533,
				"method": "rhf"
			},
			{
				"type": "unocc",
				"energy": -0.00981,
				"method": "rhf"
			}
		],
		"cosmo_sigma_profile": { 
			"-0.025": 0.0,
			"-0.024": 0.0,
			"-0.023": 0.0,
			"-0.022": 0.0,
			"-0.021": 0.0,
			"-0.02": 0.0,
			"-0.019": 0.0,
			"-0.018": 0.0,
			"-0.017": 0.0,
			"-0.016": 0.0,
			"-0.015": 0.0,
			"-0.014": 0.0,
			"-0.013": 0.0,
			"-0.012": 0.0,
			"-0.011": 0.0,
			"-0.01": 0.0,
			"-0.009": 0.104897211029,
			"-0.008": 3.57630653322,
			"-0.007": 10.6129977351,
			"-0.006": 18.6494563297,
			"-0.005": 24.7333100297,
			"-0.004": 27.3375539515,
			"-0.003": 28.005188603,
			"-0.002": 27.6581443028,
			"-0.001": 19.2946253183,
			"0.0": 20.8123530009,
			"0.001": 28.0791280501,
			"0.002": 30.8941805057,
			"0.003": 29.5186715549,
			"0.004": 25.1763700652,
			"0.005": 13.4066293726,
			"0.006": 6.8921925328,
			"0.007": 3.92383241112,
			"0.008": 4.20717755101,
			"0.009": 3.38053246404,
			"0.01": 2.53113897766,
			"0.011": 1.76895920232,
			"0.012": 1.45625363338,
			"0.013": 1.98729883574,
			"0.014": 1.61651252109,
			"0.015": 1.06629385775,
			"0.016": 0.0273167823926,
			"0.017": 0.0,
			"0.018": 0.0,
			"0.019": 0.0,
			"0.02": 0.0,
			"0.021": 0.0,
			"0.022": 0.0,
			"0.023": 0.0,
			"0.024": 0.0,
			"0.025": 0.0
		}
	}
}
