{
	 "smiles": "OC(=O)C=CC1=CC2=C(OCCO2)C=C1", 
	 "Tm": 440.15, 
	 "num_atms": 25, 
	 "gaussian": { 
		 "optdone": 1, 
		 "sigma_profile": "yes", 
		 "theory": "DFT", 
		 "functional": "B3LYP", 
		 "basiset": "6-31G**", 
		 "properties": { 
			 "R2extent": 4556.1473, 
			 "electric_dipole_moment_norm": 6.63999363705, 
			 "electric_quadrupole_moment_norm": 28.7043749622, 
			 "total_energy": -726.060951535, 
			 "HOMO_LUMO_gap": 0.16221, 
			 "cosmo_polarized_energy": -16.15, 
			 "cosmo_cavitation_energy": 29.02, 
			 "cosmo_dispersion_energy": -21.54, 
			 "cosmo_repulsion_energy": 1.68, 
			 "cosmo_total_nonelectrostatic_energy": 9.16, 
			 "SMD_solvation_energy": 6.42 
		},
		"coords": [
			{
				"x": 2.2300745788,
				"y": -1.6616242661,
				"z": 0.7677893039,
				"element": "O" 
			},
			{
				"x": 2.0816185528,
				"y": -2.1505680167,
				"z": 2.0256428908,
				"element": "C" 
			},
			{
				"x": 2.9377949833,
				"y": -2.864322779,
				"z": 2.4986126591,
				"element": "O" 
			},
			{
				"x": 0.8874558966,
				"y": -1.7450325052,
				"z": 2.8213021994,
				"element": "C" 
			},
			{
				"x": -0.3041224489,
				"y": -1.2397258771,
				"z": 2.443067411,
				"element": "C" 
			},
			{
				"x": -0.8749715905,
				"y": -0.9950955399,
				"z": 1.1062783963,
				"element": "C" 
			},
			{
				"x": -0.6715115289,
				"y": -1.8588415466,
				"z": 0.0146573808,
				"element": "C" 
			},
			{
				"x": -1.2587257894,
				"y": -1.597955485,
				"z": -1.2222282216,
				"element": "C" 
			},
			{
				"x": -2.0591250453,
				"y": -0.4535271498,
				"z": -1.3952040257,
				"element": "C" 
			},
			{
				"x": -2.6364571732,
				"y": -0.1480150131,
				"z": -2.5966609593,
				"element": "O" 
			},
			{
				"x": -2.1059312909,
				"y": -0.8821562359,
				"z": -3.7042451073,
				"element": "C" 
			},
			{
				"x": -1.9522577527,
				"y": -2.3480108052,
				"z": -3.3349827949,
				"element": "C" 
			},
			{
				"x": -1.0414538841,
				"y": -2.486218676,
				"z": -2.2426534417,
				"element": "O" 
			},
			{
				"x": -2.2949891816,
				"y": 0.3905522563,
				"z": -0.3074078218,
				"element": "C" 
			},
			{
				"x": -1.7246346796,
				"y": 0.1157871447,
				"z": 0.928922357,
				"element": "C" 
			},
			{
				"x": 1.478273651,
				"y": -1.0967360583,
				"z": 0.5311068962,
				"element": "H" 
			},
			{
				"x": 1.0588526011,
				"y": -1.8993794791,
				"z": 3.8822359289,
				"element": "H" 
			},
			{
				"x": -0.9685807124,
				"y": -0.9533715997,
				"z": 3.2582507621,
				"element": "H" 
			},
			{
				"x": -0.0883380551,
				"y": -2.767574072,
				"z": 0.1133498762,
				"element": "H" 
			},
			{
				"x": -1.1330188138,
				"y": -0.4632565212,
				"z": -3.9932595822,
				"element": "H" 
			},
			{
				"x": -2.8111080657,
				"y": -0.7495378196,
				"z": -4.5281076056,
				"element": "H" 
			},
			{
				"x": -2.9282208366,
				"y": -2.7714148277,
				"z": -3.0620128679,
				"element": "H" 
			},
			{
				"x": -1.5320283745,
				"y": -2.9242734636,
				"z": -4.1625144339,
				"element": "H" 
			},
			{
				"x": -2.9296816426,
				"y": 1.2577062816,
				"z": -0.4578755693,
				"element": "H" 
			},
			{
				"x": -1.9191133978,
				"y": 0.7782920541,
				"z": 1.7670363695,
				"element": "H" 
			}
		],
		 "valence_orbital": [ 
			{
				"type": "occ",
				"energy": -0.30509,
				"method": "rhf"
			},
			{
				"type": "occ",
				"energy": -0.28707,
				"method": "rhf"
			},
			{
				"type": "occ",
				"energy": -0.26152,
				"method": "rhf"
			},
			{
				"type": "occ",
				"energy": -0.25141,
				"method": "rhf"
			},
			{
				"type": "occ",
				"energy": -0.22359,
				"method": "rhf"
			},
			{
				"type": "unocc",
				"energy": -0.06138,
				"method": "rhf"
			},
			{
				"type": "unocc",
				"energy": -0.01674,
				"method": "rhf"
			},
			{
				"type": "unocc",
				"energy": 0.0111,
				"method": "rhf"
			},
			{
				"type": "unocc",
				"energy": 0.06988,
				"method": "rhf"
			},
			{
				"type": "unocc",
				"energy": 0.08016,
				"method": "rhf"
			}
		],
		"cosmo_sigma_profile": { 
			"-0.025": 0.0,
			"-0.024": 0.0,
			"-0.023": 0.0,
			"-0.022": 0.0,
			"-0.021": 0.0,
			"-0.02": 0.0,
			"-0.019": 0.0,
			"-0.018": 0.0,
			"-0.017": 0.0,
			"-0.016": 0.0,
			"-0.015": 0.0,
			"-0.014": 0.315265472119,
			"-0.013": 0.366102620459,
			"-0.012": 0.660539214787,
			"-0.011": 1.13239927805,
			"-0.01": 0.849426564573,
			"-0.009": 0.665903757559,
			"-0.008": 2.43064378459,
			"-0.007": 16.9493495218,
			"-0.006": 23.1912148287,
			"-0.005": 18.443539348,
			"-0.004": 15.6475847052,
			"-0.003": 12.4128463959,
			"-0.002": 13.530466505,
			"-0.001": 11.7820085953,
			"0.0": 13.4228859343,
			"0.001": 12.6932498383,
			"0.002": 17.2811316687,
			"0.003": 14.9436210353,
			"0.004": 8.72339033307,
			"0.005": 4.64764455445,
			"0.006": 4.31664119511,
			"0.007": 4.62389433045,
			"0.008": 5.16798929589,
			"0.009": 5.94958743187,
			"0.01": 5.75538462144,
			"0.011": 5.39895043831,
			"0.012": 6.11996828406,
			"0.013": 3.64788731061,
			"0.014": 0.44135943413,
			"0.015": 0.0,
			"0.016": 0.0,
			"0.017": 0.0,
			"0.018": 0.0,
			"0.019": 0.0,
			"0.02": 0.0,
			"0.021": 0.0,
			"0.022": 0.0,
			"0.023": 0.0,
			"0.024": 0.0,
			"0.025": 0.0
		}
	}
}
