{
	 "smiles": "CC1=CC=C(C=C1)C1=C2C=CC=CC2=C(Cl)N=N1", 
	 "Tm": 419.15, 
	 "num_atms": 29, 
	 "gaussian": { 
		 "optdone": 1, 
		 "sigma_profile": "yes", 
		 "theory": "DFT", 
		 "functional": "B3LYP", 
		 "basiset": "6-31G**", 
		 "properties": { 
			 "R2extent": 6555.0943, 
			 "electric_dipole_moment_norm": 5.68054417464, 
			 "electric_quadrupole_moment_norm": 23.166621236, 
			 "total_energy": -1147.90244946, 
			 "HOMO_LUMO_gap": 0.16165, 
			 "cosmo_polarized_energy": -12.69, 
			 "cosmo_cavitation_energy": 34.67, 
			 "cosmo_dispersion_energy": -25.56, 
			 "cosmo_repulsion_energy": 1.95, 
			 "cosmo_total_nonelectrostatic_energy": 11.06, 
			 "SMD_solvation_energy": 3.65 
		},
		"coords": [
			{
				"x": -3.8987490666,
				"y": 1.3768732475,
				"z": 2.709272277,
				"element": "C" 
			},
			{
				"x": -2.8847394178,
				"y": 0.7435912741,
				"z": 1.7871999748,
				"element": "C" 
			},
			{
				"x": -3.2595817192,
				"y": 0.2704260712,
				"z": 0.5206631302,
				"element": "C" 
			},
			{
				"x": -2.3273237305,
				"y": -0.2931127796,
				"z": -0.3439792761,
				"element": "C" 
			},
			{
				"x": -0.975801711,
				"y": -0.391052408,
				"z": 0.02468314,
				"element": "C" 
			},
			{
				"x": -0.5987473312,
				"y": 0.0643283031,
				"z": 1.2972286632,
				"element": "C" 
			},
			{
				"x": -1.5413867436,
				"y": 0.6202807199,
				"z": 2.161606691,
				"element": "C" 
			},
			{
				"x": -0.0109402645,
				"y": -1.037941601,
				"z": -0.9038187496,
				"element": "C" 
			},
			{
				"x": 1.3011738218,
				"y": -0.5049171624,
				"z": -1.1731053337,
				"element": "C" 
			},
			{
				"x": 1.7755862256,
				"y": 0.742318454,
				"z": -0.6947045979,
				"element": "C" 
			},
			{
				"x": 3.0509992886,
				"y": 1.1692761224,
				"z": -1.0032629509,
				"element": "C" 
			},
			{
				"x": 3.9010458281,
				"y": 0.3749267063,
				"z": -1.8029959611,
				"element": "C" 
			},
			{
				"x": 3.4572936211,
				"y": -0.8276290939,
				"z": -2.3119353951,
				"element": "C" 
			},
			{
				"x": 2.1494965246,
				"y": -1.277938298,
				"z": -2.0170835338,
				"element": "C" 
			},
			{
				"x": 1.5562063151,
				"y": -2.466643084,
				"z": -2.54254478,
				"element": "C" 
			},
			{
				"x": 2.5018546757,
				"y": -3.5087635262,
				"z": -3.6010277211,
				"element": "Cl" 
			},
			{
				"x": 0.3335034431,
				"y": -2.8541003563,
				"z": -2.3257584986,
				"element": "N" 
			},
			{
				"x": -0.4575453299,
				"y": -2.1423898666,
				"z": -1.4806099062,
				"element": "N" 
			},
			{
				"x": -4.0823101558,
				"y": 2.4235962278,
				"z": 2.435905489,
				"element": "H" 
			},
			{
				"x": -4.8613888698,
				"y": 0.8581221124,
				"z": 2.6612953619,
				"element": "H" 
			},
			{
				"x": -3.5580172868,
				"y": 1.3651080199,
				"z": 3.7484885004,
				"element": "H" 
			},
			{
				"x": -4.2993431491,
				"y": 0.3409099034,
				"z": 0.2106312344,
				"element": "H" 
			},
			{
				"x": -2.6337271448,
				"y": -0.6725102609,
				"z": -1.312800096,
				"element": "H" 
			},
			{
				"x": 0.4280714978,
				"y": -0.048636137,
				"z": 1.6313808211,
				"element": "H" 
			},
			{
				"x": -1.2283030471,
				"y": 0.9527326652,
				"z": 3.1481543349,
				"element": "H" 
			},
			{
				"x": 1.1217215448,
				"y": 1.3655639625,
				"z": -0.0973615179,
				"element": "H" 
			},
			{
				"x": 3.4023819633,
				"y": 2.1282103122,
				"z": -0.6342561879,
				"element": "H" 
			},
			{
				"x": 4.9041399489,
				"y": 0.7217767534,
				"z": -2.0320219531,
				"element": "H" 
			},
			{
				"x": 4.0939302691,
				"y": -1.4314062814,
				"z": -2.9475431591,
				"element": "H" 
			}
		],
		 "valence_orbital": [ 
			{
				"type": "occ",
				"energy": -0.28534,
				"method": "rhf"
			},
			{
				"type": "occ",
				"energy": -0.26289,
				"method": "rhf"
			},
			{
				"type": "occ",
				"energy": -0.25627,
				"method": "rhf"
			},
			{
				"type": "occ",
				"energy": -0.2394,
				"method": "rhf"
			},
			{
				"type": "occ",
				"energy": -0.23385,
				"method": "rhf"
			},
			{
				"type": "unocc",
				"energy": -0.0722,
				"method": "rhf"
			},
			{
				"type": "unocc",
				"energy": -0.052,
				"method": "rhf"
			},
			{
				"type": "unocc",
				"energy": -0.01906,
				"method": "rhf"
			},
			{
				"type": "unocc",
				"energy": -0.00708,
				"method": "rhf"
			},
			{
				"type": "unocc",
				"energy": 0.02297,
				"method": "rhf"
			}
		],
		"cosmo_sigma_profile": { 
			"-0.025": 0.0,
			"-0.024": 0.0,
			"-0.023": 0.0,
			"-0.022": 0.0,
			"-0.021": 0.0,
			"-0.02": 0.0,
			"-0.019": 0.0,
			"-0.018": 0.0,
			"-0.017": 0.0,
			"-0.016": 0.0,
			"-0.015": 0.0,
			"-0.014": 0.0,
			"-0.013": 0.0,
			"-0.012": 0.0,
			"-0.011": 0.0,
			"-0.01": 0.0,
			"-0.009": 0.0,
			"-0.008": 1.07949438286,
			"-0.007": 6.23638436144,
			"-0.006": 13.0775250555,
			"-0.005": 18.38534898,
			"-0.004": 23.5158687943,
			"-0.003": 23.3354560029,
			"-0.002": 28.1507528915,
			"-0.001": 28.8413849032,
			"0.0": 27.2942557698,
			"0.001": 24.4180953782,
			"0.002": 21.6344937874,
			"0.003": 14.4767652081,
			"0.004": 16.3154987098,
			"0.005": 10.6086379485,
			"0.006": 3.936861926,
			"0.007": 2.44244464928,
			"0.008": 1.85611359619,
			"0.009": 2.36616791585,
			"0.01": 2.35939384776,
			"0.011": 2.35099162425,
			"0.012": 2.17405238171,
			"0.013": 2.79592525917,
			"0.014": 2.15905586682,
			"0.015": 1.41134033877,
			"0.016": 0.0719017047973,
			"0.017": 0.0,
			"0.018": 0.0,
			"0.019": 0.0,
			"0.02": 0.0,
			"0.021": 0.0,
			"0.022": 0.0,
			"0.023": 0.0,
			"0.024": 0.0,
			"0.025": 0.0
		}
	}
}
