{
	 "smiles": "Cl[Si](Cl)(Cl)C=C", 
	 "Tm": 178.15, 
	 "num_atms": 9, 
	 "gaussian": { 
		 "optdone": 1, 
		 "sigma_profile": "yes", 
		 "theory": "DFT", 
		 "functional": "B3LYP", 
		 "basiset": "6-31G**", 
		 "properties": { 
			 "R2extent": 1578.2347, 
			 "electric_dipole_moment_norm": 2.80355159396, 
			 "electric_quadrupole_moment_norm": 5.92622059411, 
			 "total_energy": -1748.22523167, 
			 "HOMO_LUMO_gap": 0.24885, 
			 "cosmo_polarized_energy": -3.67, 
			 "cosmo_cavitation_energy": 20.44, 
			 "cosmo_dispersion_energy": -12.9, 
			 "cosmo_repulsion_energy": 1.22, 
			 "cosmo_total_nonelectrostatic_energy": 8.76, 
			 "SMD_solvation_energy": 3.39 
		},
		"coords": [
			{
				"x": 0.1278702237,
				"y": 1.3940804495,
				"z": 1.0163339965,
				"element": "Cl" 
			},
			{
				"x": -0.330799879,
				"y": -0.6177605034,
				"z": 0.9158733096,
				"element": "Si" 
			},
			{
				"x": -1.8952221969,
				"y": -1.0021107991,
				"z": 2.2050727203,
				"element": "Cl" 
			},
			{
				"x": -0.9540593822,
				"y": -1.01203229,
				"z": -1.0139163736,
				"element": "Cl" 
			},
			{
				"x": 1.1124350814,
				"y": -1.6753105876,
				"z": 1.4000851665,
				"element": "C" 
			},
			{
				"x": 2.2892899733,
				"y": -1.6675843775,
				"z": 0.7635032836,
				"element": "C" 
			},
			{
				"x": 0.9702766674,
				"y": -2.3336706608,
				"z": 2.2563206066,
				"element": "H" 
			},
			{
				"x": 2.4851419148,
				"y": -1.0305952957,
				"z": -0.0960554587,
				"element": "H" 
			},
			{
				"x": 3.1128675975,
				"y": -2.3041159355,
				"z": 1.0789827493,
				"element": "H" 
			}
		],
		 "valence_orbital": [ 
			{
				"type": "occ",
				"energy": -0.34215,
				"method": "rhf"
			},
			{
				"type": "occ",
				"energy": -0.3374,
				"method": "rhf"
			},
			{
				"type": "occ",
				"energy": -0.33319,
				"method": "rhf"
			},
			{
				"type": "occ",
				"energy": -0.32489,
				"method": "rhf"
			},
			{
				"type": "occ",
				"energy": -0.30358,
				"method": "rhf"
			},
			{
				"type": "unocc",
				"energy": -0.05473,
				"method": "rhf"
			},
			{
				"type": "unocc",
				"energy": -0.0119,
				"method": "rhf"
			},
			{
				"type": "unocc",
				"energy": 0.01415,
				"method": "rhf"
			},
			{
				"type": "unocc",
				"energy": 0.07357,
				"method": "rhf"
			},
			{
				"type": "unocc",
				"energy": 0.07727,
				"method": "rhf"
			}
		],
		"cosmo_sigma_profile": { 
			"-0.025": 0.0,
			"-0.024": 0.0,
			"-0.023": 0.0,
			"-0.022": 0.0,
			"-0.021": 0.0,
			"-0.02": 0.0,
			"-0.019": 0.0,
			"-0.018": 0.0,
			"-0.017": 0.0,
			"-0.016": 0.0,
			"-0.015": 0.0,
			"-0.014": 0.0,
			"-0.013": 0.0,
			"-0.012": 0.0,
			"-0.011": 0.0,
			"-0.01": 0.0,
			"-0.009": 0.0,
			"-0.008": 2.1770815623,
			"-0.007": 6.35925938097,
			"-0.006": 6.46083914301,
			"-0.005": 7.12832867606,
			"-0.004": 7.4431783816,
			"-0.003": 8.42463222851,
			"-0.002": 8.20032677519,
			"-0.001": 12.447128362,
			"0.0": 16.845381383,
			"0.001": 20.4634290705,
			"0.002": 25.6176976584,
			"0.003": 35.4111875471,
			"0.004": 9.87386893242,
			"0.005": 0.0,
			"0.006": 0.0,
			"0.007": 0.0,
			"0.008": 0.0,
			"0.009": 0.0,
			"0.01": 0.0,
			"0.011": 0.0,
			"0.012": 0.0,
			"0.013": 0.0,
			"0.014": 0.0,
			"0.015": 0.0,
			"0.016": 0.0,
			"0.017": 0.0,
			"0.018": 0.0,
			"0.019": 0.0,
			"0.02": 0.0,
			"0.021": 0.0,
			"0.022": 0.0,
			"0.023": 0.0,
			"0.024": 0.0,
			"0.025": 0.0
		}
	}
}
