{
	 "smiles": "ClC1=CC=C(NN=C(C#N)C2=NC(=CS2)C2=CC=CC=C2)C=C1", 
	 "Tm": 441.15, 
	 "num_atms": 34, 
	 "gaussian": { 
		 "optdone": 1, 
		 "sigma_profile": "yes", 
		 "theory": "DFT", 
		 "functional": "B3LYP", 
		 "basiset": "6-31G**", 
		 "properties": { 
			 "R2extent": 13275.2818, 
			 "electric_dipole_moment_norm": 6.0170493641, 
			 "electric_quadrupole_moment_norm": 29.6140052007, 
			 "total_energy": -1731.7791282, 
			 "HOMO_LUMO_gap": 0.12574, 
			 "cosmo_polarized_energy": -13.72, 
			 "cosmo_cavitation_energy": 44.6, 
			 "cosmo_dispersion_energy": -31.38, 
			 "cosmo_repulsion_energy": 2.32, 
			 "cosmo_total_nonelectrostatic_energy": 15.53, 
			 "SMD_solvation_energy": 7.01 
		},
		"coords": [
			{
				"x": 1.4900870325,
				"y": -0.7976428265,
				"z": 6.4610417913,
				"element": "Cl" 
			},
			{
				"x": 0.4498626327,
				"y": -0.4747947157,
				"z": 5.0834695461,
				"element": "C" 
			},
			{
				"x": -0.9259783475,
				"y": -0.3323281926,
				"z": 5.2753572543,
				"element": "C" 
			},
			{
				"x": -1.7548130009,
				"y": -0.0759911437,
				"z": 4.1879744214,
				"element": "C" 
			},
			{
				"x": -1.2025597807,
				"y": 0.0374765098,
				"z": 2.904513681,
				"element": "C" 
			},
			{
				"x": -1.9939118957,
				"y": 0.2985719343,
				"z": 1.7773332659,
				"element": "N" 
			},
			{
				"x": -3.2986913126,
				"y": 0.4086313046,
				"z": 1.8799639268,
				"element": "N" 
			},
			{
				"x": -4.0261091283,
				"y": 0.6411013371,
				"z": 0.806958926,
				"element": "C" 
			},
			{
				"x": -5.4399390064,
				"y": 0.736320331,
				"z": 1.0236058211,
				"element": "C" 
			},
			{
				"x": -6.5942495158,
				"y": 0.8208433443,
				"z": 1.1470127501,
				"element": "N" 
			},
			{
				"x": -3.5280902897,
				"y": 0.7981975322,
				"z": -0.5529535349,
				"element": "C" 
			},
			{
				"x": -2.2514088232,
				"y": 0.7701858674,
				"z": -0.873674069,
				"element": "N" 
			},
			{
				"x": -2.0485737524,
				"y": 0.9171628662,
				"z": -2.2308626202,
				"element": "C" 
			},
			{
				"x": -3.2086438781,
				"y": 1.0664298324,
				"z": -2.9538428067,
				"element": "C" 
			},
			{
				"x": -4.5994191102,
				"y": 1.0172499943,
				"z": -1.93161589,
				"element": "S" 
			},
			{
				"x": -0.6766908237,
				"y": 0.9224795785,
				"z": -2.7744880684,
				"element": "C" 
			},
			{
				"x": 0.4046063931,
				"y": 1.302882816,
				"z": -1.9632608816,
				"element": "C" 
			},
			{
				"x": 1.7009634251,
				"y": 1.3254335225,
				"z": -2.4743492862,
				"element": "C" 
			},
			{
				"x": 1.9400797424,
				"y": 0.9680103585,
				"z": -3.8027862014,
				"element": "C" 
			},
			{
				"x": 0.8719497605,
				"y": 0.5846554341,
				"z": -4.6168568387,
				"element": "C" 
			},
			{
				"x": -0.4245497938,
				"y": 0.5586873443,
				"z": -4.1073017758,
				"element": "C" 
			},
			{
				"x": 0.1793984236,
				"y": -0.1083444185,
				"z": 2.7208424319,
				"element": "C" 
			},
			{
				"x": 1.0075587908,
				"y": -0.3643071281,
				"z": 3.8100561075,
				"element": "C" 
			},
			{
				"x": -1.345673265,
				"y": -0.4210486803,
				"z": 6.2712298289,
				"element": "H" 
			},
			{
				"x": -2.8237930375,
				"y": 0.0376127888,
				"z": 4.3202515345,
				"element": "H" 
			},
			{
				"x": -1.5689779487,
				"y": 0.396060389,
				"z": 0.8461477401,
				"element": "H" 
			},
			{
				"x": -3.3135182019,
				"y": 1.2354043404,
				"z": -4.0153470438,
				"element": "H" 
			},
			{
				"x": 0.2170210117,
				"y": 1.5988697326,
				"z": -0.9364247752,
				"element": "H" 
			},
			{
				"x": 2.5255227409,
				"y": 1.6285052757,
				"z": -1.8355147603,
				"element": "H" 
			},
			{
				"x": 2.9506580394,
				"y": 0.9846415569,
				"z": -4.1998887714,
				"element": "H" 
			},
			{
				"x": 1.0496315752,
				"y": 0.2949218749,
				"z": -5.6483704954,
				"element": "H" 
			},
			{
				"x": -1.2435104808,
				"y": 0.2306318431,
				"z": -4.7406797911,
				"element": "H" 
			},
			{
				"x": 0.6070866415,
				"y": -0.0263837764,
				"z": 1.7253010408,
				"element": "H" 
			},
			{
				"x": 2.0766751834,
				"y": -0.478726827,
				"z": 3.6713575421,
				"element": "H" 
			}
		],
		 "valence_orbital": [ 
			{
				"type": "occ",
				"energy": -0.27799,
				"method": "rhf"
			},
			{
				"type": "occ",
				"energy": -0.2748,
				"method": "rhf"
			},
			{
				"type": "occ",
				"energy": -0.26639,
				"method": "rhf"
			},
			{
				"type": "occ",
				"energy": -0.245,
				"method": "rhf"
			},
			{
				"type": "occ",
				"energy": -0.21462,
				"method": "rhf"
			},
			{
				"type": "unocc",
				"energy": -0.08888,
				"method": "rhf"
			},
			{
				"type": "unocc",
				"energy": -0.0466,
				"method": "rhf"
			},
			{
				"type": "unocc",
				"energy": -0.02455,
				"method": "rhf"
			},
			{
				"type": "unocc",
				"energy": -0.0186,
				"method": "rhf"
			},
			{
				"type": "unocc",
				"energy": -0.01205,
				"method": "rhf"
			}
		],
		"cosmo_sigma_profile": { 
			"-0.025": 0.0,
			"-0.024": 0.0,
			"-0.023": 0.0,
			"-0.022": 0.0,
			"-0.021": 0.0,
			"-0.02": 0.0,
			"-0.019": 0.0,
			"-0.018": 0.0,
			"-0.017": 0.0,
			"-0.016": 0.0,
			"-0.015": 0.0,
			"-0.014": 0.0,
			"-0.013": 0.0,
			"-0.012": 0.0,
			"-0.011": 0.208290760449,
			"-0.01": 2.29066362922,
			"-0.009": 3.76893343502,
			"-0.008": 4.57146346993,
			"-0.007": 10.9530058772,
			"-0.006": 17.8504283302,
			"-0.005": 20.0002524152,
			"-0.004": 20.6654738298,
			"-0.003": 22.4824792416,
			"-0.002": 26.6055769575,
			"-0.001": 26.4323567145,
			"0.0": 34.5437705163,
			"0.001": 39.561603354,
			"0.002": 36.4924253597,
			"0.003": 33.4079767829,
			"0.004": 23.2368130951,
			"0.005": 21.4159794628,
			"0.006": 4.10783051748,
			"0.007": 3.00970338527,
			"0.008": 2.92058085536,
			"0.009": 3.1371144529,
			"0.01": 2.8289721572,
			"0.011": 2.63430378488,
			"0.012": 2.34411797595,
			"0.013": 0.58056486544,
			"0.014": 0.0,
			"0.015": 0.0,
			"0.016": 0.0,
			"0.017": 0.0,
			"0.018": 0.0,
			"0.019": 0.0,
			"0.02": 0.0,
			"0.021": 0.0,
			"0.022": 0.0,
			"0.023": 0.0,
			"0.024": 0.0,
			"0.025": 0.0
		}
	}
}
