{
	 "smiles": "ClC1=CC2=C(NN=N2)C=C1", 
	 "Tm": 430.15, 
	 "num_atms": 14, 
	 "gaussian": { 
		 "optdone": 1, 
		 "sigma_profile": "yes", 
		 "theory": "DFT", 
		 "functional": "B3LYP", 
		 "basiset": "6-31G**", 
		 "properties": { 
			 "R2extent": 1843.7189, 
			 "electric_dipole_moment_norm": 4.19326258062, 
			 "electric_quadrupole_moment_norm": 13.1049658218, 
			 "total_energy": -855.456802427, 
			 "HOMO_LUMO_gap": 0.18894, 
			 "cosmo_polarized_energy": -13.17, 
			 "cosmo_cavitation_energy": 20.49, 
			 "cosmo_dispersion_energy": -15.83, 
			 "cosmo_repulsion_energy": 1.27, 
			 "cosmo_total_nonelectrostatic_energy": 5.94, 
			 "SMD_solvation_energy": 1.59 
		},
		"coords": [
			{
				"x": -2.2603616685,
				"y": 1.770945015,
				"z": -1.4613960895,
				"element": "Cl" 
			},
			{
				"x": -1.1538324854,
				"y": 0.5820792741,
				"z": -0.7866755164,
				"element": "C" 
			},
			{
				"x": -1.6225470623,
				"y": -0.3318842436,
				"z": 0.1403715072,
				"element": "C" 
			},
			{
				"x": -0.6875523138,
				"y": -1.253046204,
				"z": 0.6389491838,
				"element": "C" 
			},
			{
				"x": 0.6539902245,
				"y": -1.233274092,
				"z": 0.2066433999,
				"element": "C" 
			},
			{
				"x": 1.2167375287,
				"y": -2.2587955022,
				"z": 0.9095850181,
				"element": "N" 
			},
			{
				"x": 0.2944484771,
				"y": -2.8630193054,
				"z": 1.7127564572,
				"element": "N" 
			},
			{
				"x": -0.8432142498,
				"y": -2.2718888055,
				"z": 1.55842424,
				"element": "N" 
			},
			{
				"x": 1.1195902519,
				"y": -0.3027882217,
				"z": -0.7335544852,
				"element": "C" 
			},
			{
				"x": 0.1931033794,
				"y": 0.6045946475,
				"z": -1.2229774503,
				"element": "C" 
			},
			{
				"x": -2.6547331093,
				"y": -0.3423032378,
				"z": 0.4687689345,
				"element": "H" 
			},
			{
				"x": 2.1650035096,
				"y": -2.6027712845,
				"z": 0.9101772481,
				"element": "H" 
			},
			{
				"x": 2.1507469109,
				"y": -0.2829579127,
				"z": -1.0698510378,
				"element": "H" 
			},
			{
				"x": 0.4935206069,
				"y": 1.3483098729,
				"z": -1.9523214095,
				"element": "H" 
			}
		],
		 "valence_orbital": [ 
			{
				"type": "occ",
				"energy": -0.32683,
				"method": "rhf"
			},
			{
				"type": "occ",
				"energy": -0.31957,
				"method": "rhf"
			},
			{
				"type": "occ",
				"energy": -0.27882,
				"method": "rhf"
			},
			{
				"type": "occ",
				"energy": -0.26443,
				"method": "rhf"
			},
			{
				"type": "occ",
				"energy": -0.24603,
				"method": "rhf"
			},
			{
				"type": "unocc",
				"energy": -0.05709,
				"method": "rhf"
			},
			{
				"type": "unocc",
				"energy": -0.00663,
				"method": "rhf"
			},
			{
				"type": "unocc",
				"energy": 0.02209,
				"method": "rhf"
			},
			{
				"type": "unocc",
				"energy": 0.02219,
				"method": "rhf"
			},
			{
				"type": "unocc",
				"energy": 0.06617,
				"method": "rhf"
			}
		],
		"cosmo_sigma_profile": { 
			"-0.025": 0.0,
			"-0.024": 0.0,
			"-0.023": 0.0,
			"-0.022": 0.0,
			"-0.021": 0.0,
			"-0.02": 0.0,
			"-0.019": 0.103748714581,
			"-0.018": 1.32960413122,
			"-0.017": 1.85133365371,
			"-0.016": 1.33358466393,
			"-0.015": 0.587847254761,
			"-0.014": 1.1238767325,
			"-0.013": 1.91071475514,
			"-0.012": 0.932960860196,
			"-0.011": 0.68111285804,
			"-0.01": 1.25772361168,
			"-0.009": 2.02900304326,
			"-0.008": 5.6084997154,
			"-0.007": 6.36101001132,
			"-0.006": 5.89839561956,
			"-0.005": 4.38484650956,
			"-0.004": 5.37467290858,
			"-0.003": 5.82780895389,
			"-0.002": 7.29025446653,
			"-0.001": 11.7425367297,
			"0.0": 14.7353391059,
			"0.001": 19.283243604,
			"0.002": 17.5854576029,
			"0.003": 10.4956231163,
			"0.004": 11.2813547091,
			"0.005": 6.91348521935,
			"0.006": 1.63603569439,
			"0.007": 1.88359493546,
			"0.008": 3.12864036724,
			"0.009": 2.82658680326,
			"0.01": 3.44609766281,
			"0.011": 3.15715127662,
			"0.012": 2.26216387751,
			"0.013": 1.55858719892,
			"0.014": 1.2275721125,
			"0.015": 0.783262083627,
			"0.016": 0.122362308585,
			"0.017": 0.0,
			"0.018": 0.0,
			"0.019": 0.0,
			"0.02": 0.0,
			"0.021": 0.0,
			"0.022": 0.0,
			"0.023": 0.0,
			"0.024": 0.0,
			"0.025": 0.0
		}
	}
}
