{
	 "smiles": "ClC1=C(NCCCC2=CC=CC=C2)C(=O)C(C#N)=C(C#N)C1=O", 
	 "Tm": 452.15, 
	 "num_atms": 35, 
	 "gaussian": { 
		 "optdone": 1, 
		 "sigma_profile": "yes", 
		 "theory": "DFT", 
		 "functional": "B3LYP", 
		 "basiset": "6-31G**", 
		 "properties": { 
			 "R2extent": 10192.51, 
			 "electric_dipole_moment_norm": 8.38706916688, 
			 "electric_quadrupole_moment_norm": 26.9182942569, 
			 "total_energy": -1429.85800015, 
			 "HOMO_LUMO_gap": 0.082, 
			 "cosmo_polarized_energy": -21.59, 
			 "cosmo_cavitation_energy": 44.37, 
			 "cosmo_dispersion_energy": -28.9, 
			 "cosmo_repulsion_energy": 2.21, 
			 "cosmo_total_nonelectrostatic_energy": 17.68, 
			 "SMD_solvation_energy": 9.87 
		},
		"coords": [
			{
				"x": -1.2413969903,
				"y": -2.0233958428,
				"z": -0.9877232771,
				"element": "Cl" 
			},
			{
				"x": -1.4334447876,
				"y": -0.405830422,
				"z": -1.6152014772,
				"element": "C" 
			},
			{
				"x": -1.066163657,
				"y": 0.7231974682,
				"z": -0.915446318,
				"element": "C" 
			},
			{
				"x": -0.5098088302,
				"y": 0.8635093523,
				"z": 0.3014170658,
				"element": "N" 
			},
			{
				"x": -0.1495786593,
				"y": -0.1286830233,
				"z": 1.3195826288,
				"element": "C" 
			},
			{
				"x": 0.5530894404,
				"y": 0.5614072599,
				"z": 2.4918824849,
				"element": "C" 
			},
			{
				"x": 1.9414010223,
				"y": 1.1567876914,
				"z": 2.1613984639,
				"element": "C" 
			},
			{
				"x": 2.9663617131,
				"y": 0.1176993405,
				"z": 1.7544164104,
				"element": "C" 
			},
			{
				"x": 3.3039109851,
				"y": -0.0810096112,
				"z": 0.4091235879,
				"element": "C" 
			},
			{
				"x": 4.2309313602,
				"y": -1.0576323726,
				"z": 0.0380293614,
				"element": "C" 
			},
			{
				"x": 4.8373846597,
				"y": -1.8520871302,
				"z": 1.0112589049,
				"element": "C" 
			},
			{
				"x": 4.5127757717,
				"y": -1.6625305719,
				"z": 2.3567021651,
				"element": "C" 
			},
			{
				"x": 3.5861003044,
				"y": -0.686626401,
				"z": 2.7223870384,
				"element": "C" 
			},
			{
				"x": -1.2928458107,
				"y": 2.0799049398,
				"z": -1.5542950873,
				"element": "C" 
			},
			{
				"x": -0.9914640549,
				"y": 3.0962480111,
				"z": -0.9490871886,
				"element": "O" 
			},
			{
				"x": -1.8841802801,
				"y": 2.1560625667,
				"z": -2.9178343247,
				"element": "C" 
			},
			{
				"x": -2.0648998785,
				"y": 3.4601243034,
				"z": -3.4707968171,
				"element": "C" 
			},
			{
				"x": -2.2106790679,
				"y": 4.5225493675,
				"z": -3.919539399,
				"element": "N" 
			},
			{
				"x": -2.2240493171,
				"y": 1.0147741589,
				"z": -3.5711586651,
				"element": "C" 
			},
			{
				"x": -2.794759919,
				"y": 1.0310018703,
				"z": -4.8785079942,
				"element": "C" 
			},
			{
				"x": -3.2585148375,
				"y": 1.0591957962,
				"z": -5.9444636787,
				"element": "N" 
			},
			{
				"x": -2.0191811183,
				"y": -0.3503746956,
				"z": -2.947823972,
				"element": "C" 
			},
			{
				"x": -2.3564983202,
				"y": -1.3322352848,
				"z": -3.5950101533,
				"element": "O" 
			},
			{
				"x": -0.3990990165,
				"y": 1.8408762063,
				"z": 0.555697047,
				"element": "H" 
			},
			{
				"x": -1.051806175,
				"y": -0.6381230816,
				"z": 1.6745888098,
				"element": "H" 
			},
			{
				"x": 0.5060389004,
				"y": -0.8837408333,
				"z": 0.8811413607,
				"element": "H" 
			},
			{
				"x": -0.0983894234,
				"y": 1.3500042455,
				"z": 2.8925193745,
				"element": "H" 
			},
			{
				"x": 0.6617409255,
				"y": -0.1818240882,
				"z": 3.2892513473,
				"element": "H" 
			},
			{
				"x": 1.8470997434,
				"y": 1.9080111042,
				"z": 1.3680993038,
				"element": "H" 
			},
			{
				"x": 2.2946732764,
				"y": 1.6949931299,
				"z": 3.0486734943,
				"element": "H" 
			},
			{
				"x": 2.8416453196,
				"y": 0.5398342293,
				"z": -0.3546952193,
				"element": "H" 
			},
			{
				"x": 4.4804478944,
				"y": -1.1938259774,
				"z": -1.0103697281,
				"element": "H" 
			},
			{
				"x": 5.5608015244,
				"y": -2.6099627708,
				"z": 0.725414236,
				"element": "H" 
			},
			{
				"x": 4.9860579355,
				"y": -2.2713796614,
				"z": 3.1218615383,
				"element": "H" 
			},
			{
				"x": 3.3464993668,
				"y": -0.5400192734,
				"z": 3.7734086762,
				"element": "H" 
			}
		],
		 "valence_orbital": [ 
			{
				"type": "occ",
				"energy": -0.31765,
				"method": "rhf"
			},
			{
				"type": "occ",
				"energy": -0.29559,
				"method": "rhf"
			},
			{
				"type": "occ",
				"energy": -0.26228,
				"method": "rhf"
			},
			{
				"type": "occ",
				"energy": -0.25585,
				"method": "rhf"
			},
			{
				"type": "occ",
				"energy": -0.24745,
				"method": "rhf"
			},
			{
				"type": "unocc",
				"energy": -0.16545,
				"method": "rhf"
			},
			{
				"type": "unocc",
				"energy": -0.08142,
				"method": "rhf"
			},
			{
				"type": "unocc",
				"energy": -0.02984,
				"method": "rhf"
			},
			{
				"type": "unocc",
				"energy": -0.01632,
				"method": "rhf"
			},
			{
				"type": "unocc",
				"energy": -0.01584,
				"method": "rhf"
			}
		],
		"cosmo_sigma_profile": { 
			"-0.025": 0.0,
			"-0.024": 0.0,
			"-0.023": 0.0,
			"-0.022": 0.0,
			"-0.021": 0.0,
			"-0.02": 0.0,
			"-0.019": 0.0,
			"-0.018": 0.0,
			"-0.017": 0.0,
			"-0.016": 0.0,
			"-0.015": 0.0,
			"-0.014": 0.0,
			"-0.013": 0.0,
			"-0.012": 0.721391780455,
			"-0.011": 2.57229208977,
			"-0.01": 3.90853245962,
			"-0.009": 6.46115124833,
			"-0.008": 10.4223916253,
			"-0.007": 7.58245001579,
			"-0.006": 11.1983283734,
			"-0.005": 24.3017095396,
			"-0.004": 32.029453238,
			"-0.003": 34.3045008298,
			"-0.002": 28.7237844174,
			"-0.001": 23.2231236217,
			"0.0": 20.7360211818,
			"0.001": 16.8050402498,
			"0.002": 16.766987554,
			"0.003": 16.4064491718,
			"0.004": 22.0891075925,
			"0.005": 20.3688567884,
			"0.006": 18.2795282506,
			"0.007": 12.3429034069,
			"0.008": 8.55872047493,
			"0.009": 8.38969835003,
			"0.01": 8.5272281921,
			"0.011": 4.29236540095,
			"0.012": 0.665980417782,
			"0.013": 0.0,
			"0.014": 0.0,
			"0.015": 0.0,
			"0.016": 0.0,
			"0.017": 0.0,
			"0.018": 0.0,
			"0.019": 0.0,
			"0.02": 0.0,
			"0.021": 0.0,
			"0.022": 0.0,
			"0.023": 0.0,
			"0.024": 0.0,
			"0.025": 0.0
		}
	}
}
