{
	 "smiles": "CC(C)(C)OC(=O)N1CCCC(COCC(O)=O)C1", 
	 "Tm": 348.15, 
	 "num_atms": 42, 
	 "gaussian": { 
		 "optdone": 1, 
		 "sigma_profile": "yes", 
		 "theory": "DFT", 
		 "functional": "B3LYP", 
		 "basiset": "6-31G**", 
		 "properties": { 
			 "R2extent": 7913.3398, 
			 "electric_dipole_moment_norm": 2.35781375219, 
			 "electric_quadrupole_moment_norm": 12.6202219909, 
			 "total_energy": -940.159467129, 
			 "HOMO_LUMO_gap": 0.23788, 
			 "cosmo_polarized_energy": -15.76, 
			 "cosmo_cavitation_energy": 42.76, 
			 "cosmo_dispersion_energy": -28.96, 
			 "cosmo_repulsion_energy": 2.3, 
			 "cosmo_total_nonelectrostatic_energy": 16.1, 
			 "SMD_solvation_energy": 8.99 
		},
		"coords": [
			{
				"x": 2.5638348031,
				"y": -2.8778218713,
				"z": 0.4035673033,
				"element": "C" 
			},
			{
				"x": 2.359338879,
				"y": -1.6386101329,
				"z": -0.4726740845,
				"element": "C" 
			},
			{
				"x": 1.5566259037,
				"y": -1.9910263554,
				"z": -1.7297635399,
				"element": "C" 
			},
			{
				"x": 3.7042582875,
				"y": -0.983863618,
				"z": -0.8062707025,
				"element": "C" 
			},
			{
				"x": 1.570899884,
				"y": -0.7580812365,
				"z": 0.4023185265,
				"element": "O" 
			},
			{
				"x": 1.1744075569,
				"y": 0.4688169746,
				"z": -0.02013554,
				"element": "C" 
			},
			{
				"x": 1.4253458378,
				"y": 0.9509842344,
				"z": -1.1177434204,
				"element": "O" 
			},
			{
				"x": 0.4395327875,
				"y": 1.1125064373,
				"z": 0.9425478426,
				"element": "N" 
			},
			{
				"x": 0.1301125228,
				"y": 0.5774783933,
				"z": 2.2686270091,
				"element": "C" 
			},
			{
				"x": -1.3819377169,
				"y": 0.6362130499,
				"z": 2.5276380045,
				"element": "C" 
			},
			{
				"x": -1.9387876903,
				"y": 2.0479085708,
				"z": 2.2838057774,
				"element": "C" 
			},
			{
				"x": -1.5440484452,
				"y": 2.6038537852,
				"z": 0.8987088878,
				"element": "C" 
			},
			{
				"x": -2.3026990853,
				"y": 1.9435656032,
				"z": -0.2547392641,
				"element": "C" 
			},
			{
				"x": -3.7002906615,
				"y": 2.1291201977,
				"z": -0.0374135897,
				"element": "O" 
			},
			{
				"x": -4.519538546,
				"y": 1.5183556588,
				"z": -0.9950069962,
				"element": "C" 
			},
			{
				"x": -4.6316060101,
				"y": 2.2256513113,
				"z": -2.3451384071,
				"element": "C" 
			},
			{
				"x": -4.0645854946,
				"y": 3.4497891757,
				"z": -2.3606506856,
				"element": "O" 
			},
			{
				"x": -5.1998550179,
				"y": 1.7402948107,
				"z": -3.297747759,
				"element": "O" 
			},
			{
				"x": -0.0229230647,
				"y": 2.4770309415,
				"z": 0.6947950204,
				"element": "C" 
			},
			{
				"x": 3.0977756152,
				"y": -2.6176199433,
				"z": 1.3222884156,
				"element": "H" 
			},
			{
				"x": 3.1494243586,
				"y": -3.6277540578,
				"z": -0.1364654681,
				"element": "H" 
			},
			{
				"x": 1.6018327636,
				"y": -3.3214490783,
				"z": 0.6769664331,
				"element": "H" 
			},
			{
				"x": 0.5875664754,
				"y": -2.419101895,
				"z": -1.4533961354,
				"element": "H" 
			},
			{
				"x": 1.3914050128,
				"y": -1.107850764,
				"z": -2.3467853058,
				"element": "H" 
			},
			{
				"x": 2.1015964075,
				"y": -2.73780431,
				"z": -2.3164712312,
				"element": "H" 
			},
			{
				"x": 4.2311210582,
				"y": -0.7103879359,
				"z": 0.1135677959,
				"element": "H" 
			},
			{
				"x": 4.3307562308,
				"y": -1.69220011,
				"z": -1.358286141,
				"element": "H" 
			},
			{
				"x": 3.562143029,
				"y": -0.0892427381,
				"z": -1.41235858,
				"element": "H" 
			},
			{
				"x": 0.5066021106,
				"y": -0.4409564432,
				"z": 2.3348929851,
				"element": "H" 
			},
			{
				"x": 0.656494613,
				"y": 1.1809406461,
				"z": 3.0257146405,
				"element": "H" 
			},
			{
				"x": -1.8821216682,
				"y": -0.0889055766,
				"z": 1.874253446,
				"element": "H" 
			},
			{
				"x": -1.584515998,
				"y": 0.3238525402,
				"z": 3.5589763127,
				"element": "H" 
			},
			{
				"x": -1.5402731672,
				"y": 2.724385938,
				"z": 3.0525137107,
				"element": "H" 
			},
			{
				"x": -3.0275548079,
				"y": 2.0557001677,
				"z": 2.3856571846,
				"element": "H" 
			},
			{
				"x": -1.7947468276,
				"y": 3.6720099696,
				"z": 0.8699920152,
				"element": "H" 
			},
			{
				"x": -2.0755804299,
				"y": 0.8681743503,
				"z": -0.3177136911,
				"element": "H" 
			},
			{
				"x": -1.9995644397,
				"y": 2.4038570919,
				"z": -1.2051996385,
				"element": "H" 
			},
			{
				"x": -4.2204490381,
				"y": 0.4807819244,
				"z": -1.2087482043,
				"element": "H" 
			},
			{
				"x": -5.5339264713,
				"y": 1.4819872945,
				"z": -0.5810550774,
				"element": "H" 
			},
			{
				"x": -4.2083111647,
				"y": 3.7978084749,
				"z": -3.2574791371,
				"element": "H" 
			},
			{
				"x": 0.4865648019,
				"y": 3.1571247703,
				"z": 1.394261252,
				"element": "H" 
			},
			{
				"x": 0.2776768059,
				"y": 2.7490837537,
				"z": -0.3175499639,
				"element": "H" 
			}
		],
		 "valence_orbital": [ 
			{
				"type": "occ",
				"energy": -0.29356,
				"method": "rhf"
			},
			{
				"type": "occ",
				"energy": -0.28436,
				"method": "rhf"
			},
			{
				"type": "occ",
				"energy": -0.25752,
				"method": "rhf"
			},
			{
				"type": "occ",
				"energy": -0.25665,
				"method": "rhf"
			},
			{
				"type": "occ",
				"energy": -0.23206,
				"method": "rhf"
			},
			{
				"type": "unocc",
				"energy": 0.00582,
				"method": "rhf"
			},
			{
				"type": "unocc",
				"energy": 0.05401,
				"method": "rhf"
			},
			{
				"type": "unocc",
				"energy": 0.06539,
				"method": "rhf"
			},
			{
				"type": "unocc",
				"energy": 0.0821,
				"method": "rhf"
			},
			{
				"type": "unocc",
				"energy": 0.09482,
				"method": "rhf"
			}
		],
		"cosmo_sigma_profile": { 
			"-0.025": 0.0,
			"-0.024": 0.0,
			"-0.023": 0.0,
			"-0.022": 0.0,
			"-0.021": 0.0,
			"-0.02": 0.0,
			"-0.019": 0.272744000054,
			"-0.018": 0.72743383361,
			"-0.017": 1.04256545339,
			"-0.016": 0.79827583819,
			"-0.015": 1.06860153518,
			"-0.014": 0.460794399143,
			"-0.013": 0.377472572724,
			"-0.012": 0.409623332143,
			"-0.011": 0.845203180656,
			"-0.01": 0.943289668532,
			"-0.009": 0.672346242987,
			"-0.008": 2.22686607481,
			"-0.007": 4.32977816772,
			"-0.006": 7.24334917691,
			"-0.005": 6.52722408083,
			"-0.004": 27.3966710834,
			"-0.003": 46.6186986137,
			"-0.002": 40.3761258681,
			"-0.001": 35.3848749077,
			"0.0": 37.888191156,
			"0.001": 32.9422819258,
			"0.002": 11.892655836,
			"0.003": 9.16958744034,
			"0.004": 8.11176596931,
			"0.005": 7.07374427108,
			"0.006": 6.36066466801,
			"0.007": 6.35851715516,
			"0.008": 5.53727685843,
			"0.009": 4.14453052022,
			"0.01": 5.26464771176,
			"0.011": 7.11840932295,
			"0.012": 7.12296795618,
			"0.013": 3.1031862784,
			"0.014": 1.75261106462,
			"0.015": 0.0,
			"0.016": 0.0,
			"0.017": 0.0,
			"0.018": 0.0,
			"0.019": 0.0,
			"0.02": 0.0,
			"0.021": 0.0,
			"0.022": 0.0,
			"0.023": 0.0,
			"0.024": 0.0,
			"0.025": 0.0
		}
	}
}
