{
	 "smiles": "FC(F)(F)C(C(=O)NC1=NC2=C(S1)C=CC=C2)C(F)(F)F", 
	 "Tm": 447.15, 
	 "num_atms": 27, 
	 "gaussian": { 
		 "optdone": 1, 
		 "sigma_profile": "yes", 
		 "theory": "DFT", 
		 "functional": "B3LYP", 
		 "basiset": "6-31G**", 
		 "properties": { 
			 "R2extent": 6246.5692, 
			 "electric_dipole_moment_norm": 3.25817075826, 
			 "electric_quadrupole_moment_norm": 8.22358785203, 
			 "total_energy": -1604.75614477, 
			 "HOMO_LUMO_gap": 0.18307, 
			 "cosmo_polarized_energy": -11.41, 
			 "cosmo_cavitation_energy": 35.74, 
			 "cosmo_dispersion_energy": -24.54, 
			 "cosmo_repulsion_energy": 1.71, 
			 "cosmo_total_nonelectrostatic_energy": 12.92, 
			 "SMD_solvation_energy": 7.54 
		},
		"coords": [
			{
				"x": -1.5186261443,
				"y": 0.8282523952,
				"z": 0.2946464247,
				"element": "F" 
			},
			{
				"x": -2.4602101226,
				"y": -0.0698775781,
				"z": -0.0295911967,
				"element": "C" 
			},
			{
				"x": -3.4503889872,
				"y": 0.5927772236,
				"z": -0.6655979853,
				"element": "F" 
			},
			{
				"x": -2.9644699078,
				"y": -0.5683770431,
				"z": 1.1153386842,
				"element": "F" 
			},
			{
				"x": -1.9740243719,
				"y": -1.2120640205,
				"z": -0.9251527578,
				"element": "C" 
			},
			{
				"x": -1.6474555254,
				"y": -0.7977915714,
				"z": -2.377917106,
				"element": "C" 
			},
			{
				"x": -2.2711968291,
				"y": -1.3242022684,
				"z": -3.280475481,
				"element": "O" 
			},
			{
				"x": -0.766230227,
				"y": 0.2302931811,
				"z": -2.6830747111,
				"element": "N" 
			},
			{
				"x": 0.2985164645,
				"y": 0.767221387,
				"z": -1.9672947624,
				"element": "C" 
			},
			{
				"x": 0.9556952701,
				"y": 0.1500948395,
				"z": -1.0497189336,
				"element": "N" 
			},
			{
				"x": 1.9361725867,
				"y": 0.9681123536,
				"z": -0.510550971,
				"element": "C" 
			},
			{
				"x": 2.0414765252,
				"y": 2.2560824367,
				"z": -1.0908200013,
				"element": "C" 
			},
			{
				"x": 0.8001083671,
				"y": 2.44017223,
				"z": -2.3230871908,
				"element": "S" 
			},
			{
				"x": 3.0125130852,
				"y": 3.1670566725,
				"z": -0.6744463384,
				"element": "C" 
			},
			{
				"x": 3.87654596,
				"y": 2.7787555866,
				"z": 0.3483028803,
				"element": "C" 
			},
			{
				"x": 3.7764546559,
				"y": 1.5079836659,
				"z": 0.9383781182,
				"element": "C" 
			},
			{
				"x": 2.8138209311,
				"y": 0.5976597331,
				"z": 0.5164950906,
				"element": "C" 
			},
			{
				"x": -0.9777060662,
				"y": -2.1705190182,
				"z": -0.2346234892,
				"element": "C" 
			},
			{
				"x": -1.6639464092,
				"y": -3.2061063388,
				"z": 0.2971918443,
				"element": "F" 
			},
			{
				"x": -0.1101072065,
				"y": -2.6796067859,
				"z": -1.1259042545,
				"element": "F" 
			},
			{
				"x": -0.289233175,
				"y": -1.6080790339,
				"z": 0.7687638022,
				"element": "F" 
			},
			{
				"x": -2.8647072659,
				"y": -1.8232994603,
				"z": -1.0822926181,
				"element": "H" 
			},
			{
				"x": -0.8187082424,
				"y": 0.4637773906,
				"z": -3.6687562616,
				"element": "H" 
			},
			{
				"x": 3.0921587452,
				"y": 4.1508213054,
				"z": -1.1252935732,
				"element": "H" 
			},
			{
				"x": 4.6367156161,
				"y": 3.4729551718,
				"z": 0.6932664577,
				"element": "H" 
			},
			{
				"x": 4.4615246701,
				"y": 1.2335126863,
				"z": 1.7345947973,
				"element": "H" 
			},
			{
				"x": 2.7215076034,
				"y": -0.3878051402,
				"z": 0.9602195323,
				"element": "H" 
			}
		],
		 "valence_orbital": [ 
			{
				"type": "occ",
				"energy": -0.31265,
				"method": "rhf"
			},
			{
				"type": "occ",
				"energy": -0.30149,
				"method": "rhf"
			},
			{
				"type": "occ",
				"energy": -0.28803,
				"method": "rhf"
			},
			{
				"type": "occ",
				"energy": -0.24733,
				"method": "rhf"
			},
			{
				"type": "occ",
				"energy": -0.24003,
				"method": "rhf"
			},
			{
				"type": "unocc",
				"energy": -0.05696,
				"method": "rhf"
			},
			{
				"type": "unocc",
				"energy": -0.0164,
				"method": "rhf"
			},
			{
				"type": "unocc",
				"energy": -0.01411,
				"method": "rhf"
			},
			{
				"type": "unocc",
				"energy": -0.01257,
				"method": "rhf"
			},
			{
				"type": "unocc",
				"energy": 0.02901,
				"method": "rhf"
			}
		],
		"cosmo_sigma_profile": { 
			"-0.025": 0.0,
			"-0.024": 0.0,
			"-0.023": 0.0,
			"-0.022": 0.0,
			"-0.021": 0.0,
			"-0.02": 0.0,
			"-0.019": 0.0,
			"-0.018": 0.0158045083583,
			"-0.017": 0.75601262295,
			"-0.016": 1.14229394016,
			"-0.015": 1.22599998595,
			"-0.014": 1.03931365039,
			"-0.013": 1.20038483445,
			"-0.012": 1.33149035283,
			"-0.011": 1.7676047298,
			"-0.01": 2.32880029528,
			"-0.009": 2.19794883931,
			"-0.008": 3.19171458577,
			"-0.007": 6.37292169916,
			"-0.006": 10.8444423459,
			"-0.005": 11.3883230886,
			"-0.004": 13.0321715424,
			"-0.003": 11.682262435,
			"-0.002": 14.7745242301,
			"-0.001": 17.0277034068,
			"0.0": 24.0789122409,
			"0.001": 42.872377534,
			"0.002": 58.8022534166,
			"0.003": 23.5132924814,
			"0.004": 15.0027920656,
			"0.005": 6.3423286446,
			"0.006": 2.26001345569,
			"0.007": 2.40662613219,
			"0.008": 2.42442276295,
			"0.009": 2.86849467422,
			"0.01": 3.65997651767,
			"0.011": 3.87349498727,
			"0.012": 0.186502449783,
			"0.013": 0.0,
			"0.014": 0.0,
			"0.015": 0.0,
			"0.016": 0.0,
			"0.017": 0.0,
			"0.018": 0.0,
			"0.019": 0.0,
			"0.02": 0.0,
			"0.021": 0.0,
			"0.022": 0.0,
			"0.023": 0.0,
			"0.024": 0.0,
			"0.025": 0.0
		}
	}
}
