{
	 "smiles": "OC(=O)C1(CCC1)C(O)=O", 
	 "Tm": 432.15, 
	 "num_atms": 18, 
	 "gaussian": { 
		 "optdone": 1, 
		 "sigma_profile": "yes", 
		 "theory": "DFT", 
		 "functional": "B3LYP", 
		 "basiset": "6-31G**", 
		 "properties": { 
			 "R2extent": 2424.0196, 
			 "electric_dipole_moment_norm": 2.54250494788, 
			 "electric_quadrupole_moment_norm": 9.97666394793, 
			 "total_energy": -534.353940871, 
			 "HOMO_LUMO_gap": 0.27508, 
			 "cosmo_polarized_energy": -13.88, 
			 "cosmo_cavitation_energy": 21.9, 
			 "cosmo_dispersion_energy": -15.84, 
			 "cosmo_repulsion_energy": 1.32, 
			 "cosmo_total_nonelectrostatic_energy": 7.39, 
			 "SMD_solvation_energy": 5.96 
		},
		"coords": [
			{
				"x": -0.6093825933,
				"y": 1.2423279332,
				"z": -1.6956267878,
				"element": "O" 
			},
			{
				"x": -0.5538797877,
				"y": 0.008649445,
				"z": -2.2538078777,
				"element": "C" 
			},
			{
				"x": -0.1666236341,
				"y": -0.1755201982,
				"z": -3.3864197079,
				"element": "O" 
			},
			{
				"x": -0.9561330612,
				"y": -1.0856280308,
				"z": -1.2834263262,
				"element": "C" 
			},
			{
				"x": 0.1140476079,
				"y": -1.2893334358,
				"z": -0.1576716126,
				"element": "C" 
			},
			{
				"x": -0.8099860346,
				"y": -0.5503509235,
				"z": 0.844278783,
				"element": "C" 
			},
			{
				"x": -1.9783475282,
				"y": -0.6693145301,
				"z": -0.1682648996,
				"element": "C" 
			},
			{
				"x": -1.3225873342,
				"y": -2.3352912613,
				"z": -2.0654151009,
				"element": "C" 
			},
			{
				"x": -2.4340960984,
				"y": -2.1360263689,
				"z": -2.8086325857,
				"element": "O" 
			},
			{
				"x": -0.7484312924,
				"y": -3.3984455566,
				"z": -2.0063172403,
				"element": "O" 
			},
			{
				"x": -0.2817048884,
				"y": 1.8572618549,
				"z": -2.3735052766,
				"element": "H" 
			},
			{
				"x": 0.226827993,
				"y": -2.3557245634,
				"z": 0.046652599,
				"element": "H" 
			},
			{
				"x": 1.1017835747,
				"y": -0.8614860222,
				"z": -0.3443904785,
				"element": "H" 
			},
			{
				"x": -0.5088175025,
				"y": 0.4874878683,
				"z": 1.0011332611,
				"element": "H" 
			},
			{
				"x": -0.9546563777,
				"y": -1.0272017547,
				"z": 1.8168365173,
				"element": "H" 
			},
			{
				"x": -2.563707907,
				"y": 0.2285129383,
				"z": -0.3712401209,
				"element": "H" 
			},
			{
				"x": -2.6602489509,
				"y": -1.4918194822,
				"z": 0.0626207511,
				"element": "H" 
			},
			{
				"x": -2.6015561851,
				"y": -2.968397912,
				"z": -3.2816038968,
				"element": "H" 
			}
		],
		 "valence_orbital": [ 
			{
				"type": "occ",
				"energy": -0.33079,
				"method": "rhf"
			},
			{
				"type": "occ",
				"energy": -0.31947,
				"method": "rhf"
			},
			{
				"type": "occ",
				"energy": -0.31721,
				"method": "rhf"
			},
			{
				"type": "occ",
				"energy": -0.27828,
				"method": "rhf"
			},
			{
				"type": "occ",
				"energy": -0.2769,
				"method": "rhf"
			},
			{
				"type": "unocc",
				"energy": -0.00182,
				"method": "rhf"
			},
			{
				"type": "unocc",
				"energy": 0.00383,
				"method": "rhf"
			},
			{
				"type": "unocc",
				"energy": 0.06565,
				"method": "rhf"
			},
			{
				"type": "unocc",
				"energy": 0.07329,
				"method": "rhf"
			},
			{
				"type": "unocc",
				"energy": 0.09565,
				"method": "rhf"
			}
		],
		"cosmo_sigma_profile": { 
			"-0.025": 0.0,
			"-0.024": 0.0,
			"-0.023": 0.0,
			"-0.022": 0.0,
			"-0.021": 0.0,
			"-0.02": 0.0,
			"-0.019": 0.277650613692,
			"-0.018": 2.07645447477,
			"-0.017": 1.88388008516,
			"-0.016": 1.58885753233,
			"-0.015": 1.69658652625,
			"-0.014": 1.28014149257,
			"-0.013": 1.13963590812,
			"-0.012": 1.68275301069,
			"-0.011": 1.86361343472,
			"-0.01": 0.991060557607,
			"-0.009": 0.544589408654,
			"-0.008": 1.47789530461,
			"-0.007": 2.44143057954,
			"-0.006": 3.8475901592,
			"-0.005": 6.59299236321,
			"-0.004": 10.9071339587,
			"-0.003": 15.752608984,
			"-0.002": 16.37372155,
			"-0.001": 16.0040458623,
			"0.0": 14.8864021845,
			"0.001": 7.41691633414,
			"0.002": 5.01418767676,
			"0.003": 5.07977141578,
			"0.004": 6.59773477873,
			"0.005": 5.47741676568,
			"0.006": 4.9484350053,
			"0.007": 5.39998018143,
			"0.008": 5.62661362749,
			"0.009": 4.58747829587,
			"0.01": 5.28491987758,
			"0.011": 10.2948675196,
			"0.012": 2.72844618799,
			"0.013": 0.0,
			"0.014": 0.0,
			"0.015": 0.0,
			"0.016": 0.0,
			"0.017": 0.0,
			"0.018": 0.0,
			"0.019": 0.0,
			"0.02": 0.0,
			"0.021": 0.0,
			"0.022": 0.0,
			"0.023": 0.0,
			"0.024": 0.0,
			"0.025": 0.0
		}
	}
}
