{
	 "smiles": "OC(=O)CNS(=O)(=O)C1=C(Br)C=C(F)C=C1F", 
	 "Tm": 410.15, 
	 "num_atms": 23, 
	 "gaussian": { 
		 "optdone": 1, 
		 "sigma_profile": "yes", 
		 "theory": "DFT", 
		 "functional": "B3LYP", 
		 "basiset": "6-31G**", 
		 "properties": { 
			 "R2extent": 6363.8842, 
			 "electric_dipole_moment_norm": 3.85627968903, 
			 "electric_quadrupole_moment_norm": 17.0565445862, 
			 "total_energy": -3833.28938695, 
			 "HOMO_LUMO_gap": 0.21526, 
			 "cosmo_polarized_energy": -19.59, 
			 "cosmo_cavitation_energy": 32.67, 
			 "cosmo_dispersion_energy": -23.42, 
			 "cosmo_repulsion_energy": 1.74, 
			 "cosmo_total_nonelectrostatic_energy": 11.0, 
			 "SMD_solvation_energy": 5.76 
		},
		"coords": [
			{
				"x": 1.6390430131,
				"y": 3.3983343281,
				"z": 2.6852204308,
				"element": "O" 
			},
			{
				"x": 1.4815721543,
				"y": 2.4543347236,
				"z": 1.7311741365,
				"element": "C" 
			},
			{
				"x": 0.4461526038,
				"y": 1.865729472,
				"z": 1.5332146426,
				"element": "O" 
			},
			{
				"x": 2.7804954852,
				"y": 2.272848509,
				"z": 0.9594831922,
				"element": "C" 
			},
			{
				"x": 2.6870364268,
				"y": 1.194217827,
				"z": -0.012538195,
				"element": "N" 
			},
			{
				"x": 1.9635318976,
				"y": 1.5065327247,
				"z": -1.5051280558,
				"element": "S" 
			},
			{
				"x": 2.8112607394,
				"y": 0.8875482008,
				"z": -2.5238438262,
				"element": "O" 
			},
			{
				"x": 1.6303401126,
				"y": 2.9277176872,
				"z": -1.5410087444,
				"element": "O" 
			},
			{
				"x": 0.4450492599,
				"y": 0.5253316859,
				"z": -1.4283220126,
				"element": "C" 
			},
			{
				"x": -0.8597469043,
				"y": 0.9789940635,
				"z": -1.6846408322,
				"element": "C" 
			},
			{
				"x": -1.3021782016,
				"y": 2.7651931183,
				"z": -2.1637638551,
				"element": "Br" 
			},
			{
				"x": -1.9439198133,
				"y": 0.100376618,
				"z": -1.6171493169,
				"element": "C" 
			},
			{
				"x": -1.720985293,
				"y": -1.2307272029,
				"z": -1.297318332,
				"element": "C" 
			},
			{
				"x": -2.7688953273,
				"y": -2.0649108748,
				"z": -1.2322175481,
				"element": "F" 
			},
			{
				"x": -0.4497646475,
				"y": -1.7311571795,
				"z": -1.049913975,
				"element": "C" 
			},
			{
				"x": 0.6041130714,
				"y": -0.8371657218,
				"z": -1.1291367265,
				"element": "C" 
			},
			{
				"x": 1.8371268628,
				"y": -1.3163585021,
				"z": -0.9015227241,
				"element": "F" 
			},
			{
				"x": 0.7776029651,
				"y": 3.4949614345,
				"z": 3.1246041017,
				"element": "H" 
			},
			{
				"x": 3.5704597408,
				"y": 2.0183059339,
				"z": 1.6723442222,
				"element": "H" 
			},
			{
				"x": 3.0422575568,
				"y": 3.2400308467,
				"z": 0.5142121675,
				"element": "H" 
			},
			{
				"x": 3.5322333616,
				"y": 0.6544513606,
				"z": -0.1578189742,
				"element": "H" 
			},
			{
				"x": -2.9494886129,
				"y": 0.4482619417,
				"z": -1.8133996485,
				"element": "H" 
			},
			{
				"x": -0.2788964518,
				"y": -2.7725509944,
				"z": -0.8088301269,
				"element": "H" 
			}
		],
		 "valence_orbital": [ 
			{
				"type": "occ",
				"energy": -0.29728,
				"method": "rhf"
			},
			{
				"type": "occ",
				"energy": -0.29179,
				"method": "rhf"
			},
			{
				"type": "occ",
				"energy": -0.27941,
				"method": "rhf"
			},
			{
				"type": "occ",
				"energy": -0.26474,
				"method": "rhf"
			},
			{
				"type": "occ",
				"energy": -0.26013,
				"method": "rhf"
			},
			{
				"type": "unocc",
				"energy": -0.04487,
				"method": "rhf"
			},
			{
				"type": "unocc",
				"energy": -0.03157,
				"method": "rhf"
			},
			{
				"type": "unocc",
				"energy": -0.01593,
				"method": "rhf"
			},
			{
				"type": "unocc",
				"energy": -0.00346,
				"method": "rhf"
			},
			{
				"type": "unocc",
				"energy": 0.05386,
				"method": "rhf"
			}
		],
		"cosmo_sigma_profile": { 
			"-0.025": 0.0,
			"-0.024": 0.0,
			"-0.023": 0.0,
			"-0.022": 0.0,
			"-0.021": 0.0,
			"-0.02": 0.0,
			"-0.019": 0.220892925621,
			"-0.018": 1.1735936189,
			"-0.017": 0.915800658566,
			"-0.016": 1.00782816643,
			"-0.015": 2.34246235983,
			"-0.014": 1.57371908599,
			"-0.013": 1.65965118358,
			"-0.012": 1.55778746436,
			"-0.011": 2.35403007822,
			"-0.01": 5.20624106324,
			"-0.009": 6.42829655637,
			"-0.008": 5.40717935733,
			"-0.007": 8.65410764968,
			"-0.006": 9.0729604812,
			"-0.005": 10.8723788951,
			"-0.004": 10.4056096861,
			"-0.003": 12.0741533141,
			"-0.002": 22.5432788083,
			"-0.001": 19.542572294,
			"0.0": 14.7385356092,
			"0.001": 13.8739280474,
			"0.002": 17.6455001996,
			"0.003": 25.1871218521,
			"0.004": 11.1241069702,
			"0.005": 8.5657795962,
			"0.006": 7.71112491245,
			"0.007": 7.83630645259,
			"0.008": 8.56218622439,
			"0.009": 9.41618526336,
			"0.01": 10.486089248,
			"0.011": 6.28114663304,
			"0.012": 0.45115432364,
			"0.013": 0.0,
			"0.014": 0.0,
			"0.015": 0.0,
			"0.016": 0.0,
			"0.017": 0.0,
			"0.018": 0.0,
			"0.019": 0.0,
			"0.02": 0.0,
			"0.021": 0.0,
			"0.022": 0.0,
			"0.023": 0.0,
			"0.024": 0.0,
			"0.025": 0.0
		}
	}
}
