{
	 "smiles": "COC1=C(C=CC=C1)N1CC(CC1=O)C(O)=O", 
	 "Tm": 413.15, 
	 "num_atms": 30, 
	 "gaussian": { 
		 "optdone": 1, 
		 "sigma_profile": "yes", 
		 "theory": "DFT", 
		 "functional": "B3LYP", 
		 "basiset": "6-31G**", 
		 "properties": { 
			 "R2extent": 4384.1955, 
			 "electric_dipole_moment_norm": 3.77543139389, 
			 "electric_quadrupole_moment_norm": 13.9304384838, 
			 "total_energy": -820.77040858, 
			 "HOMO_LUMO_gap": 0.20478, 
			 "cosmo_polarized_energy": -20.83, 
			 "cosmo_cavitation_energy": 33.91, 
			 "cosmo_dispersion_energy": -23.42, 
			 "cosmo_repulsion_energy": 1.85, 
			 "cosmo_total_nonelectrostatic_energy": 12.33, 
			 "SMD_solvation_energy": 8.2 
		},
		"coords": [
			{
				"x": 2.440239819,
				"y": -1.0864633348,
				"z": -2.8136161745,
				"element": "C" 
			},
			{
				"x": 1.70082942,
				"y": -0.4053073742,
				"z": -1.8125758479,
				"element": "O" 
			},
			{
				"x": 1.0010832283,
				"y": 0.7031196543,
				"z": -2.1642377193,
				"element": "C" 
			},
			{
				"x": 0.141357585,
				"y": 1.2372052317,
				"z": -1.1766707943,
				"element": "C" 
			},
			{
				"x": -0.5613703233,
				"y": 2.4126232751,
				"z": -1.4391434973,
				"element": "C" 
			},
			{
				"x": -0.4387634469,
				"y": 3.0648854969,
				"z": -2.6678747713,
				"element": "C" 
			},
			{
				"x": 0.384909694,
				"y": 2.5189859162,
				"z": -3.6489510797,
				"element": "C" 
			},
			{
				"x": 1.1001050746,
				"y": 1.3438152592,
				"z": -3.4045946634,
				"element": "C" 
			},
			{
				"x": 0.0218672133,
				"y": 0.5808795433,
				"z": 0.0769661522,
				"element": "N" 
			},
			{
				"x": 0.2606092662,
				"y": 1.263707494,
				"z": 1.3462616792,
				"element": "C" 
			},
			{
				"x": 0.3319590554,
				"y": 0.0983489303,
				"z": 2.3693715773,
				"element": "C" 
			},
			{
				"x": -0.490096502,
				"y": -1.0214276264,
				"z": 1.718342115,
				"element": "C" 
			},
			{
				"x": -0.4888129262,
				"y": -0.7001277064,
				"z": 0.2223060607,
				"element": "C" 
			},
			{
				"x": -0.8845080199,
				"y": -1.4166895501,
				"z": -0.6756559219,
				"element": "O" 
			},
			{
				"x": 1.764108997,
				"y": -0.3434234456,
				"z": 2.6499442306,
				"element": "C" 
			},
			{
				"x": 2.5386335745,
				"y": 0.7016821605,
				"z": 3.0324201446,
				"element": "O" 
			},
			{
				"x": 2.1862616472,
				"y": -1.4756819041,
				"z": 2.5899967863,
				"element": "O" 
			},
			{
				"x": 2.8492875609,
				"y": -1.9742564421,
				"z": -2.3297609762,
				"element": "H" 
			},
			{
				"x": 3.2656480718,
				"y": -0.4730206627,
				"z": -3.1986122016,
				"element": "H" 
			},
			{
				"x": 1.7968329089,
				"y": -1.3922444035,
				"z": -3.6474491757,
				"element": "H" 
			},
			{
				"x": -1.222603593,
				"y": 2.8089011883,
				"z": -0.6740380159,
				"element": "H" 
			},
			{
				"x": -0.9942330779,
				"y": 3.9778201365,
				"z": -2.8571806819,
				"element": "H" 
			},
			{
				"x": 0.4808147367,
				"y": 3.0059569023,
				"z": -4.6150867,
				"element": "H" 
			},
			{
				"x": 1.7440256718,
				"y": 0.9399267981,
				"z": -4.1766951686,
				"element": "H" 
			},
			{
				"x": -0.5630064447,
				"y": 1.9452216509,
				"z": 1.6021495949,
				"element": "H" 
			},
			{
				"x": 1.1815803841,
				"y": 1.8493427501,
				"z": 1.3086573098,
				"element": "H" 
			},
			{
				"x": -0.0763285425,
				"y": 0.4243610554,
				"z": 3.3322678871,
				"element": "H" 
			},
			{
				"x": -0.0632553306,
				"y": -2.0104214212,
				"z": 1.8916601514,
				"element": "H" 
			},
			{
				"x": -1.5266495352,
				"y": -1.0280809206,
				"z": 2.0715940592,
				"element": "H" 
			},
			{
				"x": 3.4210738334,
				"y": 0.3345613486,
				"z": 3.209005641,
				"element": "H" 
			}
		],
		 "valence_orbital": [ 
			{
				"type": "occ",
				"energy": -0.2841,
				"method": "rhf"
			},
			{
				"type": "occ",
				"energy": -0.26639,
				"method": "rhf"
			},
			{
				"type": "occ",
				"energy": -0.24026,
				"method": "rhf"
			},
			{
				"type": "occ",
				"energy": -0.23401,
				"method": "rhf"
			},
			{
				"type": "occ",
				"energy": -0.21272,
				"method": "rhf"
			},
			{
				"type": "unocc",
				"energy": -0.00794,
				"method": "rhf"
			},
			{
				"type": "unocc",
				"energy": -0.00223,
				"method": "rhf"
			},
			{
				"type": "unocc",
				"energy": 0.01089,
				"method": "rhf"
			},
			{
				"type": "unocc",
				"energy": 0.04018,
				"method": "rhf"
			},
			{
				"type": "unocc",
				"energy": 0.06863,
				"method": "rhf"
			}
		],
		"cosmo_sigma_profile": { 
			"-0.025": 0.0,
			"-0.024": 0.0,
			"-0.023": 0.0,
			"-0.022": 0.0,
			"-0.021": 0.0,
			"-0.02": 0.0,
			"-0.019": 0.156326238087,
			"-0.018": 1.01440572882,
			"-0.017": 0.724849003064,
			"-0.016": 0.926921213639,
			"-0.015": 0.698455451053,
			"-0.014": 0.417356321239,
			"-0.013": 0.667851074815,
			"-0.012": 0.989754857047,
			"-0.011": 0.97968015217,
			"-0.01": 0.577009748087,
			"-0.009": 0.16653651934,
			"-0.008": 2.15673113911,
			"-0.007": 7.64893238357,
			"-0.006": 25.0082482652,
			"-0.005": 26.204023142,
			"-0.004": 24.7978028881,
			"-0.003": 24.2552584241,
			"-0.002": 16.7650054359,
			"-0.001": 13.3266603015,
			"0.0": 9.74980231656,
			"0.001": 12.6544845686,
			"0.002": 11.505566903,
			"0.003": 11.0603060767,
			"0.004": 11.4802006814,
			"0.005": 14.69797483,
			"0.006": 8.59765229998,
			"0.007": 5.21365659935,
			"0.008": 5.69952495533,
			"0.009": 4.24537654292,
			"0.01": 4.24105844487,
			"0.011": 6.95352350949,
			"0.012": 4.99323190358,
			"0.013": 4.9536797956,
			"0.014": 4.44403290315,
			"0.015": 0.551722301679,
			"0.016": 0.0,
			"0.017": 0.0,
			"0.018": 0.0,
			"0.019": 0.0,
			"0.02": 0.0,
			"0.021": 0.0,
			"0.022": 0.0,
			"0.023": 0.0,
			"0.024": 0.0,
			"0.025": 0.0
		}
	}
}
