{
	 "smiles": "CCN(CC)C(=O)CC(C)=O", 
	 "Tm": 200.15, 
	 "num_atms": 26, 
	 "gaussian": { 
		 "optdone": 1, 
		 "sigma_profile": "yes", 
		 "theory": "DFT", 
		 "functional": "B3LYP", 
		 "basiset": "6-31G**", 
		 "properties": { 
			 "R2extent": 2298.8232, 
			 "electric_dipole_moment_norm": 1.73277528549, 
			 "electric_quadrupole_moment_norm": 12.4675895537, 
			 "total_energy": -519.114001274, 
			 "HOMO_LUMO_gap": 0.21371, 
			 "cosmo_polarized_energy": -11.08, 
			 "cosmo_cavitation_energy": 28.32, 
			 "cosmo_dispersion_energy": -19.35, 
			 "cosmo_repulsion_energy": 1.58, 
			 "cosmo_total_nonelectrostatic_energy": 10.54, 
			 "SMD_solvation_energy": 6.18 
		},
		"coords": [
			{
				"x": -0.6069776694,
				"y": -1.2895964557,
				"z": -2.848711251,
				"element": "C" 
			},
			{
				"x": 0.7796933817,
				"y": -1.0853634866,
				"z": -2.2327860356,
				"element": "C" 
			},
			{
				"x": 0.7485644223,
				"y": -0.2706301037,
				"z": -1.0102650145,
				"element": "N" 
			},
			{
				"x": 0.5743261245,
				"y": -0.9724362876,
				"z": 0.2682687181,
				"element": "C" 
			},
			{
				"x": 1.891429424,
				"y": -1.4733404012,
				"z": 0.870193449,
				"element": "C" 
			},
			{
				"x": 0.815177603,
				"y": 1.08555133,
				"z": -1.1569299911,
				"element": "C" 
			},
			{
				"x": 0.8565649199,
				"y": 1.6292355879,
				"z": -2.2601992178,
				"element": "O" 
			},
			{
				"x": 0.8118311635,
				"y": 1.9532201849,
				"z": 0.1148859116,
				"element": "C" 
			},
			{
				"x": -0.629047178,
				"y": 2.3304288127,
				"z": 0.4751903423,
				"element": "C" 
			},
			{
				"x": -1.2421122495,
				"y": 3.4518814446,
				"z": -0.3320707265,
				"element": "C" 
			},
			{
				"x": -1.2353854929,
				"y": 1.729316544,
				"z": 1.3436075376,
				"element": "O" 
			},
			{
				"x": -1.0288597017,
				"y": -0.3265497225,
				"z": -3.1464793627,
				"element": "H" 
			},
			{
				"x": -0.5379609813,
				"y": -1.9251042183,
				"z": -3.7379698141,
				"element": "H" 
			},
			{
				"x": -1.2945168089,
				"y": -1.769245901,
				"z": -2.1438956712,
				"element": "H" 
			},
			{
				"x": 1.234364297,
				"y": -2.0482392822,
				"z": -1.9765787791,
				"element": "H" 
			},
			{
				"x": 1.4325091151,
				"y": -0.5834556318,
				"z": -2.9495066442,
				"element": "H" 
			},
			{
				"x": 0.0449547248,
				"y": -0.3252401323,
				"z": 0.9695710086,
				"element": "H" 
			},
			{
				"x": -0.0941598503,
				"y": -1.8206102279,
				"z": 0.0815521459,
				"element": "H" 
			},
			{
				"x": 2.4210952501,
				"y": -2.1353561603,
				"z": 0.1776942545,
				"element": "H" 
			},
			{
				"x": 1.6990969593,
				"y": -2.0326151782,
				"z": 1.7917161933,
				"element": "H" 
			},
			{
				"x": 2.5589164926,
				"y": -0.6397497812,
				"z": 1.1110694753,
				"element": "H" 
			},
			{
				"x": 1.2728396414,
				"y": 1.4645102115,
				"z": 0.9735931754,
				"element": "H" 
			},
			{
				"x": 1.3813752033,
				"y": 2.8471655306,
				"z": -0.1489040824,
				"element": "H" 
			},
			{
				"x": -0.7824193479,
				"y": 4.4040104547,
				"z": -0.0388757589,
				"element": "H" 
			},
			{
				"x": -1.0212197563,
				"y": 3.3081665622,
				"z": -1.3950517137,
				"element": "H" 
			},
			{
				"x": -2.3173796863,
				"y": 3.5019463073,
				"z": -0.1554181489,
				"element": "H" 
			}
		],
		 "valence_orbital": [ 
			{
				"type": "occ",
				"energy": -0.34963,
				"method": "rhf"
			},
			{
				"type": "occ",
				"energy": -0.34583,
				"method": "rhf"
			},
			{
				"type": "occ",
				"energy": -0.25771,
				"method": "rhf"
			},
			{
				"type": "occ",
				"energy": -0.24445,
				"method": "rhf"
			},
			{
				"type": "occ",
				"energy": -0.23952,
				"method": "rhf"
			},
			{
				"type": "unocc",
				"energy": -0.02581,
				"method": "rhf"
			},
			{
				"type": "unocc",
				"energy": 0.03304,
				"method": "rhf"
			},
			{
				"type": "unocc",
				"energy": 0.07678,
				"method": "rhf"
			},
			{
				"type": "unocc",
				"energy": 0.10592,
				"method": "rhf"
			},
			{
				"type": "unocc",
				"energy": 0.10697,
				"method": "rhf"
			}
		],
		"cosmo_sigma_profile": { 
			"-0.025": 0.0,
			"-0.024": 0.0,
			"-0.023": 0.0,
			"-0.022": 0.0,
			"-0.021": 0.0,
			"-0.02": 0.0,
			"-0.019": 0.0,
			"-0.018": 0.0,
			"-0.017": 0.0,
			"-0.016": 0.0,
			"-0.015": 0.0,
			"-0.014": 0.0,
			"-0.013": 0.0,
			"-0.012": 0.0,
			"-0.011": 0.0,
			"-0.01": 0.0,
			"-0.009": 0.0,
			"-0.008": 0.089369403723,
			"-0.007": 3.4972923137,
			"-0.006": 6.40742573411,
			"-0.005": 14.9503045439,
			"-0.004": 22.7650739146,
			"-0.003": 28.3224585316,
			"-0.002": 32.0690550342,
			"-0.001": 24.5928910068,
			"0.0": 22.9457334679,
			"0.001": 16.6546980784,
			"0.002": 5.95990982433,
			"0.003": 3.47760587417,
			"0.004": 3.23637813164,
			"0.005": 3.94843486908,
			"0.006": 2.79359610924,
			"0.007": 3.3878745639,
			"0.008": 2.75119231527,
			"0.009": 2.9852512027,
			"0.01": 3.24485055724,
			"0.011": 5.12068883674,
			"0.012": 4.6061749388,
			"0.013": 2.7483516478,
			"0.014": 3.8728494102,
			"0.015": 0.532012521008,
			"0.016": 0.0,
			"0.017": 0.0,
			"0.018": 0.0,
			"0.019": 0.0,
			"0.02": 0.0,
			"0.021": 0.0,
			"0.022": 0.0,
			"0.023": 0.0,
			"0.024": 0.0,
			"0.025": 0.0
		}
	}
}
