{
	 "smiles": "CCCCCCCCCC1=CC=C(OCCOCCO)C=C1", 
	 "Tm": 316.15, 
	 "num_atms": 54, 
	 "gaussian": { 
		 "optdone": 1, 
		 "sigma_profile": "yes", 
		 "theory": "DFT", 
		 "functional": "B3LYP", 
		 "basiset": "6-31G**", 
		 "properties": { 
			 "R2extent": 14742.8145, 
			 "electric_dipole_moment_norm": 2.96046319856, 
			 "electric_quadrupole_moment_norm": 30.9283983758, 
			 "total_energy": -968.96775048, 
			 "HOMO_LUMO_gap": 0.21313, 
			 "cosmo_polarized_energy": -12.22, 
			 "cosmo_cavitation_energy": 54.35, 
			 "cosmo_dispersion_energy": -36.89, 
			 "cosmo_repulsion_energy": 2.94, 
			 "cosmo_total_nonelectrostatic_energy": 20.4, 
			 "SMD_solvation_energy": 8.3 
		},
		"coords": [
			{
				"x": 0.9541323726,
				"y": 3.7981606967,
				"z": 5.3095602669,
				"element": "C" 
			},
			{
				"x": 1.533176802,
				"y": 2.3980387946,
				"z": 5.0801280349,
				"element": "C" 
			},
			{
				"x": 1.1008118833,
				"y": 1.7851410309,
				"z": 3.740381452,
				"element": "C" 
			},
			{
				"x": 1.5906588675,
				"y": 0.3458069489,
				"z": 3.4982332768,
				"element": "C" 
			},
			{
				"x": 3.1164749184,
				"y": 0.1735826992,
				"z": 3.3530899681,
				"element": "C" 
			},
			{
				"x": 3.7663487249,
				"y": 0.802980681,
				"z": 2.0990555159,
				"element": "C" 
			},
			{
				"x": 3.8877939616,
				"y": -0.1230627534,
				"z": 0.8722003592,
				"element": "C" 
			},
			{
				"x": 2.5848889861,
				"y": -0.5858481149,
				"z": 0.1985497783,
				"element": "C" 
			},
			{
				"x": 1.7556433845,
				"y": 0.550411531,
				"z": -0.4352890538,
				"element": "C" 
			},
			{
				"x": 0.5246049867,
				"y": 0.0522576831,
				"z": -1.1621841567,
				"element": "C" 
			},
			{
				"x": -0.7252253351,
				"y": 0.0098255953,
				"z": -0.5350686502,
				"element": "C" 
			},
			{
				"x": -1.8637064176,
				"y": -0.4772074133,
				"z": -1.1824874078,
				"element": "C" 
			},
			{
				"x": -1.7559969628,
				"y": -0.9505761499,
				"z": -2.493869095,
				"element": "C" 
			},
			{
				"x": -2.8009941551,
				"y": -1.4447829533,
				"z": -3.2363846951,
				"element": "O" 
			},
			{
				"x": -3.927473536,
				"y": -2.0336145929,
				"z": -2.5937502782,
				"element": "C" 
			},
			{
				"x": -5.1474631473,
				"y": -1.1254333724,
				"z": -2.5800337719,
				"element": "C" 
			},
			{
				"x": -4.9891256122,
				"y": -0.1225668047,
				"z": -1.5922436303,
				"element": "O" 
			},
			{
				"x": -5.8791528911,
				"y": 0.9771821335,
				"z": -1.6933547422,
				"element": "C" 
			},
			{
				"x": -7.2570488024,
				"y": 0.6730551589,
				"z": -1.1059108205,
				"element": "C" 
			},
			{
				"x": -8.0121370991,
				"y": 1.8717029936,
				"z": -1.2072298459,
				"element": "O" 
			},
			{
				"x": -0.5158554645,
				"y": -0.9115831384,
				"z": -3.1440178029,
				"element": "C" 
			},
			{
				"x": 0.6020253282,
				"y": -0.4110906217,
				"z": -2.4845364305,
				"element": "C" 
			},
			{
				"x": 1.2758807702,
				"y": 4.4932692513,
				"z": 4.5254540577,
				"element": "H" 
			},
			{
				"x": 1.2737416102,
				"y": 4.2124202859,
				"z": 6.2715266431,
				"element": "H" 
			},
			{
				"x": -0.1418405308,
				"y": 3.7799928037,
				"z": 5.3026199384,
				"element": "H" 
			},
			{
				"x": 2.6279127632,
				"y": 2.4490466976,
				"z": 5.1336527969,
				"element": "H" 
			},
			{
				"x": 1.2199831035,
				"y": 1.7333006748,
				"z": 5.8972616068,
				"element": "H" 
			},
			{
				"x": 1.4323359188,
				"y": 2.439948584,
				"z": 2.9224644231,
				"element": "H" 
			},
			{
				"x": 0.0029353843,
				"y": 1.7883884672,
				"z": 3.6939432476,
				"element": "H" 
			},
			{
				"x": 1.0885623592,
				"y": -0.0501193421,
				"z": 2.6079140658,
				"element": "H" 
			},
			{
				"x": 1.2509979679,
				"y": -0.2802639471,
				"z": 4.3351649223,
				"element": "H" 
			},
			{
				"x": 3.5969974439,
				"y": 0.589225956,
				"z": 4.2472160073,
				"element": "H" 
			},
			{
				"x": 3.3509630621,
				"y": -0.8995356145,
				"z": 3.3707509924,
				"element": "H" 
			},
			{
				"x": 4.7840792106,
				"y": 1.1196747281,
				"z": 2.3596536231,
				"element": "H" 
			},
			{
				"x": 3.2406424848,
				"y": 1.7257749721,
				"z": 1.8234434162,
				"element": "H" 
			},
			{
				"x": 4.4575748258,
				"y": -1.0137363392,
				"z": 1.1713332087,
				"element": "H" 
			},
			{
				"x": 4.5036458262,
				"y": 0.3865329059,
				"z": 0.1175602584,
				"element": "H" 
			},
			{
				"x": 2.8392537551,
				"y": -1.3066653731,
				"z": -0.5893352574,
				"element": "H" 
			},
			{
				"x": 1.9588246385,
				"y": -1.1374081203,
				"z": 0.9105068238,
				"element": "H" 
			},
			{
				"x": 1.4539795403,
				"y": 1.2649812572,
				"z": 0.3393452275,
				"element": "H" 
			},
			{
				"x": 2.3974225617,
				"y": 1.1053566874,
				"z": -1.1328982487,
				"element": "H" 
			},
			{
				"x": -0.8231723471,
				"y": 0.3838575035,
				"z": 0.4818919802,
				"element": "H" 
			},
			{
				"x": -2.8290162109,
				"y": -0.4422690736,
				"z": -0.692548986,
				"element": "H" 
			},
			{
				"x": -3.6796843088,
				"y": -2.3532172363,
				"z": -1.5750110917,
				"element": "H" 
			},
			{
				"x": -4.1758261616,
				"y": -2.9262846527,
				"z": -3.180704651,
				"element": "H" 
			},
			{
				"x": -5.2685494342,
				"y": -0.6735370749,
				"z": -3.57654782,
				"element": "H" 
			},
			{
				"x": -6.0369691697,
				"y": -1.7466599277,
				"z": -2.3824972517,
				"element": "H" 
			},
			{
				"x": -5.4278962546,
				"y": 1.7993737119,
				"z": -1.1302582826,
				"element": "H" 
			},
			{
				"x": -5.9880997877,
				"y": 1.3036114658,
				"z": -2.7381340899,
				"element": "H" 
			},
			{
				"x": -7.7334927216,
				"y": -0.1523762109,
				"z": -1.6587458493,
				"element": "H" 
			},
			{
				"x": -7.1328243018,
				"y": 0.3456586089,
				"z": -0.0621699189,
				"element": "H" 
			},
			{
				"x": -8.8833919231,
				"y": 1.7153936062,
				"z": -0.8242381147,
				"element": "H" 
			},
			{
				"x": -0.4523142267,
				"y": -1.2760234184,
				"z": -4.1644425435,
				"element": "H" 
			},
			{
				"x": 1.5563633597,
				"y": -0.3838918689,
				"z": -3.0060094054,
				"element": "H" 
			}
		],
		 "valence_orbital": [ 
			{
				"type": "occ",
				"energy": -0.29019,
				"method": "rhf"
			},
			{
				"type": "occ",
				"energy": -0.27481,
				"method": "rhf"
			},
			{
				"type": "occ",
				"energy": -0.26136,
				"method": "rhf"
			},
			{
				"type": "occ",
				"energy": -0.23707,
				"method": "rhf"
			},
			{
				"type": "occ",
				"energy": -0.20323,
				"method": "rhf"
			},
			{
				"type": "unocc",
				"energy": 0.0099,
				"method": "rhf"
			},
			{
				"type": "unocc",
				"energy": 0.02291,
				"method": "rhf"
			},
			{
				"type": "unocc",
				"energy": 0.06435,
				"method": "rhf"
			},
			{
				"type": "unocc",
				"energy": 0.07584,
				"method": "rhf"
			},
			{
				"type": "unocc",
				"energy": 0.08695,
				"method": "rhf"
			}
		],
		"cosmo_sigma_profile": { 
			"-0.025": 0.0,
			"-0.024": 0.0,
			"-0.023": 0.0,
			"-0.022": 0.0,
			"-0.021": 0.0,
			"-0.02": 0.0,
			"-0.019": 0.0,
			"-0.018": 0.0,
			"-0.017": 0.0,
			"-0.016": 0.710531275177,
			"-0.015": 1.07820826847,
			"-0.014": 0.947070510987,
			"-0.013": 0.662586756744,
			"-0.012": 1.2085642834,
			"-0.011": 0.883285904519,
			"-0.01": 0.436365878035,
			"-0.009": 0.549711238422,
			"-0.008": 0.951426408365,
			"-0.007": 1.46016153277,
			"-0.006": 3.18914037929,
			"-0.005": 15.9859614067,
			"-0.004": 28.7002906314,
			"-0.003": 31.5185197595,
			"-0.002": 53.492630066,
			"-0.001": 60.6576631386,
			"0.0": 62.2781290302,
			"0.001": 52.5943122676,
			"0.002": 27.2699302692,
			"0.003": 10.5181997301,
			"0.004": 11.6007144214,
			"0.005": 13.6559510095,
			"0.006": 15.8314769028,
			"0.007": 8.01455447603,
			"0.008": 3.77218695475,
			"0.009": 3.55734357983,
			"0.01": 2.15938004294,
			"0.011": 1.79578989695,
			"0.012": 1.9096887064,
			"0.013": 1.83439620843,
			"0.014": 1.67296103255,
			"0.015": 0.0,
			"0.016": 0.0,
			"0.017": 0.0,
			"0.018": 0.0,
			"0.019": 0.0,
			"0.02": 0.0,
			"0.021": 0.0,
			"0.022": 0.0,
			"0.023": 0.0,
			"0.024": 0.0,
			"0.025": 0.0
		}
	}
}
