{
	 "smiles": "CC(C)(C)S(=O)(=O)CC1=CC=C(N)C=C1", 
	 "Tm": 485.15, 
	 "num_atms": 32, 
	 "gaussian": { 
		 "optdone": 1, 
		 "sigma_profile": "yes", 
		 "theory": "DFT", 
		 "functional": "B3LYP", 
		 "basiset": "6-31G**", 
		 "properties": { 
			 "R2extent": 4028.1006, 
			 "electric_dipole_moment_norm": 6.0661483274, 
			 "electric_quadrupole_moment_norm": 7.17451820612, 
			 "total_energy": -1032.76485596, 
			 "HOMO_LUMO_gap": 0.19979, 
			 "cosmo_polarized_energy": -19.21, 
			 "cosmo_cavitation_energy": 34.48, 
			 "cosmo_dispersion_energy": -24.2, 
			 "cosmo_repulsion_energy": 1.83, 
			 "cosmo_total_nonelectrostatic_energy": 12.11, 
			 "SMD_solvation_energy": 5.11 
		},
		"coords": [
			{
				"x": -1.5701238971,
				"y": -1.4493416285,
				"z": -0.1812369859,
				"element": "C" 
			},
			{
				"x": -2.2954428875,
				"y": -0.1214136848,
				"z": 0.0668298188,
				"element": "C" 
			},
			{
				"x": -2.5495903611,
				"y": 0.1345189513,
				"z": 1.5572528561,
				"element": "C" 
			},
			{
				"x": -3.6100848398,
				"y": -0.0615971842,
				"z": -0.7306525556,
				"element": "C" 
			},
			{
				"x": -1.2818509852,
				"y": 1.2943654083,
				"z": -0.625507279,
				"element": "S" 
			},
			{
				"x": -2.0794630352,
				"y": 2.525829007,
				"z": -0.4474909574,
				"element": "O" 
			},
			{
				"x": -0.8279166578,
				"y": 0.90500361,
				"z": -1.9771727399,
				"element": "O" 
			},
			{
				"x": 0.2205217644,
				"y": 1.5580805689,
				"z": 0.4221959875,
				"element": "C" 
			},
			{
				"x": 1.2578766755,
				"y": 0.4740046707,
				"z": 0.447897773,
				"element": "C" 
			},
			{
				"x": 1.9702563847,
				"y": 0.1141784933,
				"z": -0.7073263977,
				"element": "C" 
			},
			{
				"x": 2.9404936936,
				"y": -0.8794231378,
				"z": -0.6712695919,
				"element": "C" 
			},
			{
				"x": 3.2431968358,
				"y": -1.5498487348,
				"z": 0.5286695434,
				"element": "C" 
			},
			{
				"x": 4.2570731521,
				"y": -2.5029503782,
				"z": 0.575865124,
				"element": "N" 
			},
			{
				"x": 2.5375243486,
				"y": -1.1881042482,
				"z": 1.6892043058,
				"element": "C" 
			},
			{
				"x": 1.5651624457,
				"y": -0.1932836065,
				"z": 1.6416359723,
				"element": "C" 
			},
			{
				"x": -2.2297616188,
				"y": -2.2698993616,
				"z": 0.1237835226,
				"element": "H" 
			},
			{
				"x": -1.333621674,
				"y": -1.5713944551,
				"z": -1.2404654634,
				"element": "H" 
			},
			{
				"x": -0.6439579509,
				"y": -1.527925776,
				"z": 0.3918143111,
				"element": "H" 
			},
			{
				"x": -2.983566895,
				"y": 1.1244590948,
				"z": 1.7208123145,
				"element": "H" 
			},
			{
				"x": -3.2571797484,
				"y": -0.613899898,
				"z": 1.9303622746,
				"element": "H" 
			},
			{
				"x": -1.6352423439,
				"y": 0.0431225656,
				"z": 2.1511095703,
				"element": "H" 
			},
			{
				"x": -3.4261824977,
				"y": -0.1936501033,
				"z": -1.8001398886,
				"element": "H" 
			},
			{
				"x": -4.1226890083,
				"y": 0.8907709734,
				"z": -0.5800306216,
				"element": "H" 
			},
			{
				"x": -4.2627380384,
				"y": -0.8723780298,
				"z": -0.3898666864,
				"element": "H" 
			},
			{
				"x": 0.5903856137,
				"y": 2.4839636134,
				"z": -0.0323467404,
				"element": "H" 
			},
			{
				"x": -0.1500934674,
				"y": 1.8083138939,
				"z": 1.4183459205,
				"element": "H" 
			},
			{
				"x": 1.7408917988,
				"y": 0.6051125439,
				"z": -1.6475107164,
				"element": "H" 
			},
			{
				"x": 3.4794914385,
				"y": -1.1397519264,
				"z": -1.578912344,
				"element": "H" 
			},
			{
				"x": 4.4807039231,
				"y": -2.9472946586,
				"z": -0.3034597433,
				"element": "H" 
			},
			{
				"x": 4.2028408722,
				"y": -3.1639940763,
				"z": 1.3378676204,
				"element": "H" 
			},
			{
				"x": 2.7618930437,
				"y": -1.6828061658,
				"z": 2.6309480184,
				"element": "H" 
			},
			{
				"x": 1.0407939161,
				"y": 0.0731336594,
				"z": 2.5566937782,
				"element": "H" 
			}
		],
		 "valence_orbital": [ 
			{
				"type": "occ",
				"energy": -0.29711,
				"method": "rhf"
			},
			{
				"type": "occ",
				"energy": -0.28026,
				"method": "rhf"
			},
			{
				"type": "occ",
				"energy": -0.26579,
				"method": "rhf"
			},
			{
				"type": "occ",
				"energy": -0.25452,
				"method": "rhf"
			},
			{
				"type": "occ",
				"energy": -0.20687,
				"method": "rhf"
			},
			{
				"type": "unocc",
				"energy": -0.00708,
				"method": "rhf"
			},
			{
				"type": "unocc",
				"energy": -0.00284,
				"method": "rhf"
			},
			{
				"type": "unocc",
				"energy": 0.05868,
				"method": "rhf"
			},
			{
				"type": "unocc",
				"energy": 0.0681,
				"method": "rhf"
			},
			{
				"type": "unocc",
				"energy": 0.07283,
				"method": "rhf"
			}
		],
		"cosmo_sigma_profile": { 
			"-0.025": 0.0,
			"-0.024": 0.0,
			"-0.023": 0.0,
			"-0.022": 0.0,
			"-0.021": 0.0,
			"-0.02": 0.0,
			"-0.019": 0.0,
			"-0.018": 0.0,
			"-0.017": 0.0,
			"-0.016": 0.0,
			"-0.015": 0.0,
			"-0.014": 0.0,
			"-0.013": 0.483371601231,
			"-0.012": 2.70125039776,
			"-0.011": 2.88625020484,
			"-0.01": 3.23575095833,
			"-0.009": 2.68058424814,
			"-0.008": 5.79637967135,
			"-0.007": 9.16036354958,
			"-0.006": 10.3598222987,
			"-0.005": 17.6280345233,
			"-0.004": 21.3432003441,
			"-0.003": 22.051241963,
			"-0.002": 23.5331713889,
			"-0.001": 27.1066305317,
			"0.0": 20.6678343,
			"0.001": 10.4359634315,
			"0.002": 9.01194104504,
			"0.003": 10.3943723273,
			"0.004": 12.2693789462,
			"0.005": 12.4677838003,
			"0.006": 8.70043011875,
			"0.007": 4.39780261776,
			"0.008": 3.26747176278,
			"0.009": 3.12858107466,
			"0.01": 4.58270953159,
			"0.011": 6.44796184074,
			"0.012": 8.51777494181,
			"0.013": 5.8553836367,
			"0.014": 0.708297395053,
			"0.015": 0.0338380477295,
			"0.016": 0.0,
			"0.017": 0.0,
			"0.018": 0.0,
			"0.019": 0.0,
			"0.02": 0.0,
			"0.021": 0.0,
			"0.022": 0.0,
			"0.023": 0.0,
			"0.024": 0.0,
			"0.025": 0.0
		}
	}
}
