{
	 "smiles": "CN(C)C(=O)SC1=CC2=C(C=C1)C(=O)CCC2", 
	 "Tm": 373.15, 
	 "num_atms": 32, 
	 "gaussian": { 
		 "optdone": 1, 
		 "sigma_profile": "yes", 
		 "theory": "DFT", 
		 "functional": "B3LYP", 
		 "basiset": "6-31G**", 
		 "properties": { 
			 "R2extent": 6738.0894, 
			 "electric_dipole_moment_norm": 4.92615154558, 
			 "electric_quadrupole_moment_norm": 14.1127654455, 
			 "total_energy": -1107.83607124, 
			 "HOMO_LUMO_gap": 0.17773, 
			 "cosmo_polarized_energy": -13.49, 
			 "cosmo_cavitation_energy": 36.08, 
			 "cosmo_dispersion_energy": -26.67, 
			 "cosmo_repulsion_energy": 2.03, 
			 "cosmo_total_nonelectrostatic_energy": 11.44, 
			 "SMD_solvation_energy": 6.58 
		},
		"coords": [
			{
				"x": 5.1568802678,
				"y": -0.0116108774,
				"z": 1.6236551546,
				"element": "C" 
			},
			{
				"x": 4.1191090545,
				"y": -1.0307525479,
				"z": 1.5729251667,
				"element": "N" 
			},
			{
				"x": 4.4171546973,
				"y": -2.2901419244,
				"z": 2.2492270221,
				"element": "C" 
			},
			{
				"x": 2.9793910069,
				"y": -0.9552832272,
				"z": 0.8231935818,
				"element": "C" 
			},
			{
				"x": 2.1390316257,
				"y": -1.8326487459,
				"z": 0.7582272314,
				"element": "O" 
			},
			{
				"x": 2.8219989418,
				"y": 0.6196174974,
				"z": -0.1304065214,
				"element": "S" 
			},
			{
				"x": 1.163155001,
				"y": 0.471235488,
				"z": -0.7803251399,
				"element": "C" 
			},
			{
				"x": 0.7637515484,
				"y": -0.6292730088,
				"z": -1.5434266662,
				"element": "C" 
			},
			{
				"x": -0.5206616592,
				"y": -0.687640616,
				"z": -2.092713686,
				"element": "C" 
			},
			{
				"x": -1.4023443009,
				"y": 0.39364867,
				"z": -1.8838420219,
				"element": "C" 
			},
			{
				"x": -0.9899174865,
				"y": 1.4987529617,
				"z": -1.1244379998,
				"element": "C" 
			},
			{
				"x": 0.2805976943,
				"y": 1.541767917,
				"z": -0.5676255391,
				"element": "C" 
			},
			{
				"x": -2.7837336253,
				"y": 0.3969445147,
				"z": -2.4535887945,
				"element": "C" 
			},
			{
				"x": -3.5508548733,
				"y": 1.3309888693,
				"z": -2.2699628748,
				"element": "O" 
			},
			{
				"x": -3.1894192801,
				"y": -0.8052595456,
				"z": -3.2962944612,
				"element": "C" 
			},
			{
				"x": -2.4668827239,
				"y": -2.0921062593,
				"z": -2.8809083424,
				"element": "C" 
			},
			{
				"x": -0.947732166,
				"y": -1.8860820218,
				"z": -2.915401917,
				"element": "C" 
			},
			{
				"x": 5.9672630136,
				"y": -0.2150736292,
				"z": 0.9111435704,
				"element": "H" 
			},
			{
				"x": 5.5819246788,
				"y": 0.0090402184,
				"z": 2.6320548756,
				"element": "H" 
			},
			{
				"x": 4.7446931844,
				"y": 0.9765086534,
				"z": 1.4165402683,
				"element": "H" 
			},
			{
				"x": 3.5664793393,
				"y": -2.9585728065,
				"z": 2.13286278,
				"element": "H" 
			},
			{
				"x": 5.3106975999,
				"y": -2.7594340883,
				"z": 1.8180390104,
				"element": "H" 
			},
			{
				"x": 4.5985916372,
				"y": -2.1098144369,
				"z": 3.3148375468,
				"element": "H" 
			},
			{
				"x": 1.4498133762,
				"y": -1.454725318,
				"z": -1.691903781,
				"element": "H" 
			},
			{
				"x": -1.6966549926,
				"y": 2.3090960261,
				"z": -0.9784960115,
				"element": "H" 
			},
			{
				"x": 0.5931414735,
				"y": 2.3889977579,
				"z": 0.0340739161,
				"element": "H" 
			},
			{
				"x": -4.2782189789,
				"y": -0.8954415661,
				"z": -3.24856756,
				"element": "H" 
			},
			{
				"x": -2.9376179272,
				"y": -0.5633144989,
				"z": -4.3403909573,
				"element": "H" 
			},
			{
				"x": -2.7728590953,
				"y": -2.3744061959,
				"z": -1.8656579754,
				"element": "H" 
			},
			{
				"x": -2.7534026999,
				"y": -2.9183710973,
				"z": -3.5403212497,
				"element": "H" 
			},
			{
				"x": -0.4250694197,
				"y": -2.7805147113,
				"z": -2.5600358751,
				"element": "H" 
			},
			{
				"x": -0.6297049118,
				"y": -1.7385314514,
				"z": -3.9588727503,
				"element": "H" 
			}
		],
		 "valence_orbital": [ 
			{
				"type": "occ",
				"energy": -0.26421,
				"method": "rhf"
			},
			{
				"type": "occ",
				"energy": -0.25473,
				"method": "rhf"
			},
			{
				"type": "occ",
				"energy": -0.24757,
				"method": "rhf"
			},
			{
				"type": "occ",
				"energy": -0.23858,
				"method": "rhf"
			},
			{
				"type": "occ",
				"energy": -0.23407,
				"method": "rhf"
			},
			{
				"type": "unocc",
				"energy": -0.05634,
				"method": "rhf"
			},
			{
				"type": "unocc",
				"energy": -0.00696,
				"method": "rhf"
			},
			{
				"type": "unocc",
				"energy": 0.01989,
				"method": "rhf"
			},
			{
				"type": "unocc",
				"energy": 0.02791,
				"method": "rhf"
			},
			{
				"type": "unocc",
				"energy": 0.04397,
				"method": "rhf"
			}
		],
		"cosmo_sigma_profile": { 
			"-0.025": 0.0,
			"-0.024": 0.0,
			"-0.023": 0.0,
			"-0.022": 0.0,
			"-0.021": 0.0,
			"-0.02": 0.0,
			"-0.019": 0.0,
			"-0.018": 0.0,
			"-0.017": 0.0,
			"-0.016": 0.0,
			"-0.015": 0.0,
			"-0.014": 0.0,
			"-0.013": 0.0,
			"-0.012": 0.0,
			"-0.011": 0.0,
			"-0.01": 0.0,
			"-0.009": 0.0,
			"-0.008": 0.0,
			"-0.007": 0.9053536201,
			"-0.006": 10.5314202668,
			"-0.005": 24.9263899082,
			"-0.004": 33.6766759894,
			"-0.003": 36.3727867087,
			"-0.002": 34.2317659438,
			"-0.001": 24.8710828928,
			"0.0": 17.5935848288,
			"0.001": 15.8141330201,
			"0.002": 18.466052041,
			"0.003": 17.3436508739,
			"0.004": 9.35937393304,
			"0.005": 5.93625492634,
			"0.006": 5.56759317485,
			"0.007": 4.61461830008,
			"0.008": 2.99608614071,
			"0.009": 3.4272699284,
			"0.01": 3.2953982598,
			"0.011": 5.43374888812,
			"0.012": 8.08408787679,
			"0.013": 3.3212927711,
			"0.014": 0.366879084074,
			"0.015": 0.0,
			"0.016": 0.0,
			"0.017": 0.0,
			"0.018": 0.0,
			"0.019": 0.0,
			"0.02": 0.0,
			"0.021": 0.0,
			"0.022": 0.0,
			"0.023": 0.0,
			"0.024": 0.0,
			"0.025": 0.0
		}
	}
}
