{
	 "smiles": "CC1=C(C=CC=C1)C1=NN=C(S)N1N", 
	 "Tm": 473.15, 
	 "num_atms": 24, 
	 "gaussian": { 
		 "optdone": 1, 
		 "sigma_profile": "yes", 
		 "theory": "DFT", 
		 "functional": "B3LYP", 
		 "basiset": "6-31G**", 
		 "properties": { 
			 "R2extent": 4598.4387, 
			 "electric_dipole_moment_norm": 4.5857405716, 
			 "electric_quadrupole_moment_norm": 20.3892972628, 
			 "total_energy": -966.120118789, 
			 "HOMO_LUMO_gap": 0.2046, 
			 "cosmo_polarized_energy": -19.7, 
			 "cosmo_cavitation_energy": 29.71, 
			 "cosmo_dispersion_energy": -21.77, 
			 "cosmo_repulsion_energy": 1.67, 
			 "cosmo_total_nonelectrostatic_energy": 9.61, 
			 "SMD_solvation_energy": 3.1 
		},
		"coords": [
			{
				"x": 1.7742639352,
				"y": -0.9639734005,
				"z": 1.9847959695,
				"element": "C" 
			},
			{
				"x": 0.9507730418,
				"y": -1.1192017082,
				"z": 0.7279783066,
				"element": "C" 
			},
			{
				"x": 0.961179637,
				"y": -0.1625410024,
				"z": -0.3102271227,
				"element": "C" 
			},
			{
				"x": 0.2265625644,
				"y": -0.392224605,
				"z": -1.4844974058,
				"element": "C" 
			},
			{
				"x": -0.5458269918,
				"y": -1.5408849834,
				"z": -1.6319127903,
				"element": "C" 
			},
			{
				"x": -0.5836036708,
				"y": -2.4780232788,
				"z": -0.599342992,
				"element": "C" 
			},
			{
				"x": 0.1637280787,
				"y": -2.2653612219,
				"z": 0.5582949541,
				"element": "C" 
			},
			{
				"x": 1.7716123881,
				"y": 1.0692124327,
				"z": -0.2634508978,
				"element": "C" 
			},
			{
				"x": 2.6236558552,
				"y": 1.4487167281,
				"z": -1.1901138179,
				"element": "N" 
			},
			{
				"x": 3.1401714295,
				"y": 2.6882027418,
				"z": -0.836184917,
				"element": "N" 
			},
			{
				"x": 2.5768348553,
				"y": 3.023828281,
				"z": 0.2948499112,
				"element": "C" 
			},
			{
				"x": 2.8206569255,
				"y": 4.4990584244,
				"z": 1.2357421052,
				"element": "S" 
			},
			{
				"x": 1.7071509673,
				"y": 2.0470648819,
				"z": 0.7176271479,
				"element": "N" 
			},
			{
				"x": 0.836341899,
				"y": 2.0756624047,
				"z": 1.8109450126,
				"element": "N" 
			},
			{
				"x": 1.2434086888,
				"y": -0.3657293032,
				"z": 2.7329328889,
				"element": "H" 
			},
			{
				"x": 2.7308878795,
				"y": -0.4719443967,
				"z": 1.7840319984,
				"element": "H" 
			},
			{
				"x": 1.9868631805,
				"y": -1.9404236785,
				"z": 2.428794103,
				"element": "H" 
			},
			{
				"x": 0.2768221914,
				"y": 0.3444831593,
				"z": -2.2795098406,
				"element": "H" 
			},
			{
				"x": -1.1105393349,
				"y": -1.7025542095,
				"z": -2.5451485329,
				"element": "H" 
			},
			{
				"x": -1.1814630413,
				"y": -3.3796153444,
				"z": -0.6987587496,
				"element": "H" 
			},
			{
				"x": 0.1525860077,
				"y": -3.0127376817,
				"z": 1.3477356119,
				"element": "H" 
			},
			{
				"x": 3.7039973838,
				"y": 5.0021801348,
				"z": 0.3536354211,
				"element": "H" 
			},
			{
				"x": 1.3751729377,
				"y": 2.1828030548,
				"z": 2.6671896194,
				"element": "H" 
			},
			{
				"x": 0.2010631925,
				"y": 2.8652025705,
				"z": 1.7146940165,
				"element": "H" 
			}
		],
		 "valence_orbital": [ 
			{
				"type": "occ",
				"energy": -0.29621,
				"method": "rhf"
			},
			{
				"type": "occ",
				"energy": -0.26004,
				"method": "rhf"
			},
			{
				"type": "occ",
				"energy": -0.25066,
				"method": "rhf"
			},
			{
				"type": "occ",
				"energy": -0.24419,
				"method": "rhf"
			},
			{
				"type": "occ",
				"energy": -0.22608,
				"method": "rhf"
			},
			{
				"type": "unocc",
				"energy": -0.02148,
				"method": "rhf"
			},
			{
				"type": "unocc",
				"energy": -0.00391,
				"method": "rhf"
			},
			{
				"type": "unocc",
				"energy": -0.00067,
				"method": "rhf"
			},
			{
				"type": "unocc",
				"energy": 0.02224,
				"method": "rhf"
			},
			{
				"type": "unocc",
				"energy": 0.04401,
				"method": "rhf"
			}
		],
		"cosmo_sigma_profile": { 
			"-0.025": 0.0,
			"-0.024": 0.0,
			"-0.023": 0.0,
			"-0.022": 0.0,
			"-0.021": 0.0,
			"-0.02": 0.0,
			"-0.019": 0.0,
			"-0.018": 0.0,
			"-0.017": 0.0,
			"-0.016": 0.0,
			"-0.015": 0.0,
			"-0.014": 1.37115960482,
			"-0.013": 3.33501901177,
			"-0.012": 4.83607192883,
			"-0.011": 4.81388448113,
			"-0.01": 4.53085473243,
			"-0.009": 3.11953501424,
			"-0.008": 3.21264809962,
			"-0.007": 4.21143511503,
			"-0.006": 7.77267690348,
			"-0.005": 13.6733405098,
			"-0.004": 18.6923135519,
			"-0.003": 15.7864676076,
			"-0.002": 16.1130023071,
			"-0.001": 16.3877961007,
			"0.0": 16.421650994,
			"0.001": 13.7073022362,
			"0.002": 14.9799107548,
			"0.003": 11.1577383334,
			"0.004": 13.6712699856,
			"0.005": 15.1383902054,
			"0.006": 6.40294271066,
			"0.007": 3.85565248159,
			"0.008": 3.34432571508,
			"0.009": 2.85915998767,
			"0.01": 2.75008494172,
			"0.011": 2.21064292328,
			"0.012": 2.94585860856,
			"0.013": 3.6218493777,
			"0.014": 3.12823298339,
			"0.015": 2.07681477406,
			"0.016": 2.36067530555,
			"0.017": 0.746188812861,
			"0.018": 0.0,
			"0.019": 0.0,
			"0.02": 0.0,
			"0.021": 0.0,
			"0.022": 0.0,
			"0.023": 0.0,
			"0.024": 0.0,
			"0.025": 0.0
		}
	}
}
