{
	 "smiles": "CC(=O)C1=CSC(=C1)C(O)=O", 
	 "Tm": 423.15, 
	 "num_atms": 17, 
	 "gaussian": { 
		 "optdone": 1, 
		 "sigma_profile": "yes", 
		 "theory": "DFT", 
		 "functional": "B3LYP", 
		 "basiset": "6-31G**", 
		 "properties": { 
			 "R2extent": 3109.3298, 
			 "electric_dipole_moment_norm": 4.29160123614, 
			 "electric_quadrupole_moment_norm": 19.6257586251, 
			 "total_energy": -894.214752178, 
			 "HOMO_LUMO_gap": 0.18881, 
			 "cosmo_polarized_energy": -17.9, 
			 "cosmo_cavitation_energy": 23.92, 
			 "cosmo_dispersion_energy": -17.95, 
			 "cosmo_repulsion_energy": 1.39, 
			 "cosmo_total_nonelectrostatic_energy": 7.37, 
			 "SMD_solvation_energy": 6.04 
		},
		"coords": [
			{
				"x": 1.6851257674,
				"y": -0.2749515309,
				"z": -1.5004965373,
				"element": "C" 
			},
			{
				"x": 0.3530008766,
				"y": 0.4395223911,
				"z": -1.3796352409,
				"element": "C" 
			},
			{
				"x": -0.0523071265,
				"y": 1.1940949456,
				"z": -2.251049234,
				"element": "O" 
			},
			{
				"x": -0.4706504511,
				"y": 0.20487439,
				"z": -0.1617328402,
				"element": "C" 
			},
			{
				"x": -0.1544843901,
				"y": -0.6128080973,
				"z": 0.9044547394,
				"element": "C" 
			},
			{
				"x": -1.3682828589,
				"y": -0.6164356847,
				"z": 2.1204922431,
				"element": "S" 
			},
			{
				"x": -2.3457294496,
				"y": 0.504777275,
				"z": 1.2010410291,
				"element": "C" 
			},
			{
				"x": -1.7351068602,
				"y": 0.8429446682,
				"z": 0.0207164959,
				"element": "C" 
			},
			{
				"x": -3.6402080585,
				"y": 0.9199404432,
				"z": 1.7892665332,
				"element": "C" 
			},
			{
				"x": -4.3894398114,
				"y": 1.7898542208,
				"z": 1.0688870993,
				"element": "O" 
			},
			{
				"x": -4.0289695503,
				"y": 0.5136440984,
				"z": 2.8605823134,
				"element": "O" 
			},
			{
				"x": 2.3462071317,
				"y": -0.0084378682,
				"z": -0.6682652673,
				"element": "H" 
			},
			{
				"x": 2.1557807572,
				"y": 0.0080954557,
				"z": -2.4422875741,
				"element": "H" 
			},
			{
				"x": 1.5465928639,
				"y": -1.3616492802,
				"z": -1.4749025147,
				"element": "H" 
			},
			{
				"x": 0.7352448442,
				"y": -1.2143393241,
				"z": 1.0337532758,
				"element": "H" 
			},
			{
				"x": -2.1261866851,
				"y": 1.5193272512,
				"z": -0.7321652383,
				"element": "H" 
			},
			{
				"x": -3.9523869993,
				"y": 2.0250466462,
				"z": 0.2387407177,
				"element": "H" 
			}
		],
		 "valence_orbital": [ 
			{
				"type": "occ",
				"energy": -0.32545,
				"method": "rhf"
			},
			{
				"type": "occ",
				"energy": -0.28766,
				"method": "rhf"
			},
			{
				"type": "occ",
				"energy": -0.2827,
				"method": "rhf"
			},
			{
				"type": "occ",
				"energy": -0.27051,
				"method": "rhf"
			},
			{
				"type": "occ",
				"energy": -0.26523,
				"method": "rhf"
			},
			{
				"type": "unocc",
				"energy": -0.07642,
				"method": "rhf"
			},
			{
				"type": "unocc",
				"energy": -0.05458,
				"method": "rhf"
			},
			{
				"type": "unocc",
				"energy": 0.00746,
				"method": "rhf"
			},
			{
				"type": "unocc",
				"energy": 0.04598,
				"method": "rhf"
			},
			{
				"type": "unocc",
				"energy": 0.05411,
				"method": "rhf"
			}
		],
		"cosmo_sigma_profile": { 
			"-0.025": 0.0,
			"-0.024": 0.0,
			"-0.023": 0.0,
			"-0.022": 0.0,
			"-0.021": 0.0,
			"-0.02": 0.245018375604,
			"-0.019": 1.18239237993,
			"-0.018": 0.782833346283,
			"-0.017": 1.36848470381,
			"-0.016": 0.933852307067,
			"-0.015": 0.843120750659,
			"-0.014": 0.429027857734,
			"-0.013": 1.65619387439,
			"-0.012": 1.59497064086,
			"-0.011": 1.25679513317,
			"-0.01": 2.70996828196,
			"-0.009": 3.21416249722,
			"-0.008": 4.28351635934,
			"-0.007": 6.04052444494,
			"-0.006": 9.09373708519,
			"-0.005": 8.38104449745,
			"-0.004": 9.70689123733,
			"-0.003": 11.2361704511,
			"-0.002": 13.234644391,
			"-0.001": 15.9133682486,
			"0.0": 17.5753415149,
			"0.001": 18.1963869547,
			"0.002": 9.3497574127,
			"0.003": 4.08059161622,
			"0.004": 3.64450994735,
			"0.005": 4.36517271283,
			"0.006": 3.56805336314,
			"0.007": 4.09549893163,
			"0.008": 4.79614864855,
			"0.009": 5.8213092987,
			"0.01": 7.08494380983,
			"0.011": 9.01589333401,
			"0.012": 6.13874048324,
			"0.013": 1.8482283012,
			"0.014": 0.015437406276,
			"0.015": 0.0,
			"0.016": 0.0,
			"0.017": 0.0,
			"0.018": 0.0,
			"0.019": 0.0,
			"0.02": 0.0,
			"0.021": 0.0,
			"0.022": 0.0,
			"0.023": 0.0,
			"0.024": 0.0,
			"0.025": 0.0
		}
	}
}
