{
	 "smiles": "ClCC(=O)N1CCNC1=O", 
	 "Tm": 469.15, 
	 "num_atms": 17, 
	 "gaussian": { 
		 "optdone": 1, 
		 "sigma_profile": "yes", 
		 "theory": "DFT", 
		 "functional": "B3LYP", 
		 "basiset": "6-31G**", 
		 "properties": { 
			 "R2extent": 2901.8579, 
			 "electric_dipole_moment_norm": 6.16510436408, 
			 "electric_quadrupole_moment_norm": 28.1944828935, 
			 "total_energy": -914.910079616, 
			 "HOMO_LUMO_gap": 0.2116, 
			 "cosmo_polarized_energy": -21.31, 
			 "cosmo_cavitation_energy": 22.49, 
			 "cosmo_dispersion_energy": -16.87, 
			 "cosmo_repulsion_energy": 1.39, 
			 "cosmo_total_nonelectrostatic_energy": 7.02, 
			 "SMD_solvation_energy": 3.85 
		},
		"coords": [
			{
				"x": 0.8829946606,
				"y": 1.7269569544,
				"z": -1.9664245194,
				"element": "Cl" 
			},
			{
				"x": 1.858839301,
				"y": 2.061041167,
				"z": -0.4696913877,
				"element": "C" 
			},
			{
				"x": 1.002324397,
				"y": 2.6232479341,
				"z": 0.6717332313,
				"element": "C" 
			},
			{
				"x": 1.1006210008,
				"y": 3.7925227237,
				"z": 0.9775713218,
				"element": "O" 
			},
			{
				"x": 0.1577604431,
				"y": 1.7155058321,
				"z": 1.3009768192,
				"element": "N" 
			},
			{
				"x": 0.1181348804,
				"y": 0.2672104081,
				"z": 1.0456079119,
				"element": "C" 
			},
			{
				"x": -1.1775751064,
				"y": -0.1641419887,
				"z": 1.7568016007,
				"element": "C" 
			},
			{
				"x": -1.2931100287,
				"y": 0.8600923878,
				"z": 2.7813058368,
				"element": "N" 
			},
			{
				"x": -0.6834312644,
				"y": 2.047205474,
				"z": 2.411777164,
				"element": "C" 
			},
			{
				"x": -0.8262553093,
				"y": 3.1261347089,
				"z": 2.9340025326,
				"element": "O" 
			},
			{
				"x": 2.5834620948,
				"y": 2.8290875136,
				"z": -0.7296532663,
				"element": "H" 
			},
			{
				"x": 2.3679350877,
				"y": 1.131379404,
				"z": -0.2079946471,
				"element": "H" 
			},
			{
				"x": 0.9891957761,
				"y": -0.2249220878,
				"z": 1.4965319963,
				"element": "H" 
			},
			{
				"x": 0.0916719252,
				"y": 0.0456519413,
				"z": -0.021228384,
				"element": "H" 
			},
			{
				"x": -2.029133913,
				"y": -0.1563483215,
				"z": 1.0616256395,
				"element": "H" 
			},
			{
				"x": -1.0883116074,
				"y": -1.1656161301,
				"z": 2.1861215961,
				"element": "H" 
			},
			{
				"x": -2.1177223376,
				"y": 0.9463920791,
				"z": 3.3574365541,
				"element": "H" 
			}
		],
		 "valence_orbital": [ 
			{
				"type": "occ",
				"energy": -0.3155,
				"method": "rhf"
			},
			{
				"type": "occ",
				"energy": -0.28837,
				"method": "rhf"
			},
			{
				"type": "occ",
				"energy": -0.2775,
				"method": "rhf"
			},
			{
				"type": "occ",
				"energy": -0.26783,
				"method": "rhf"
			},
			{
				"type": "occ",
				"energy": -0.25121,
				"method": "rhf"
			},
			{
				"type": "unocc",
				"energy": -0.03961,
				"method": "rhf"
			},
			{
				"type": "unocc",
				"energy": 0.02488,
				"method": "rhf"
			},
			{
				"type": "unocc",
				"energy": 0.06118,
				"method": "rhf"
			},
			{
				"type": "unocc",
				"energy": 0.06913,
				"method": "rhf"
			},
			{
				"type": "unocc",
				"energy": 0.08306,
				"method": "rhf"
			}
		],
		"cosmo_sigma_profile": { 
			"-0.025": 0.0,
			"-0.024": 0.0,
			"-0.023": 0.0,
			"-0.022": 0.0,
			"-0.021": 0.0,
			"-0.02": 0.0,
			"-0.019": 0.0,
			"-0.018": 0.0,
			"-0.017": 0.0,
			"-0.016": 0.0,
			"-0.015": 0.704461662472,
			"-0.014": 1.49987531717,
			"-0.013": 1.07349130762,
			"-0.012": 0.853057145836,
			"-0.011": 1.16231750342,
			"-0.01": 2.58016732768,
			"-0.009": 5.43231323884,
			"-0.008": 5.57560827522,
			"-0.007": 8.66209661782,
			"-0.006": 18.8561664241,
			"-0.005": 18.487464224,
			"-0.004": 10.930216531,
			"-0.003": 7.05132326015,
			"-0.002": 6.56783582778,
			"-0.001": 6.54282576067,
			"0.0": 7.3203812751,
			"0.001": 6.74642669354,
			"0.002": 6.4261224452,
			"0.003": 8.45211088773,
			"0.004": 8.18786677418,
			"0.005": 9.70061888157,
			"0.006": 4.03873243214,
			"0.007": 2.43328872041,
			"0.008": 2.0202052109,
			"0.009": 1.93551431267,
			"0.01": 3.12978074731,
			"0.011": 5.04523616925,
			"0.012": 7.76906534239,
			"0.013": 5.6136532703,
			"0.014": 1.50533876318,
			"0.015": 1.99854003726,
			"0.016": 1.12554780294,
			"0.017": 0.871328427524,
			"0.018": 0.0610895046216,
			"0.019": 0.0,
			"0.02": 0.0,
			"0.021": 0.0,
			"0.022": 0.0,
			"0.023": 0.0,
			"0.024": 0.0,
			"0.025": 0.0
		}
	}
}
