{
	 "smiles": "CN(CC(O)=O)S(N)(=O)=O", 
	 "Tm": 368.15, 
	 "num_atms": 18, 
	 "gaussian": { 
		 "optdone": 1, 
		 "sigma_profile": "yes", 
		 "theory": "DFT", 
		 "functional": "B3LYP", 
		 "basiset": "6-31G**", 
		 "properties": { 
			 "R2extent": 1774.5343, 
			 "electric_dipole_moment_norm": 6.6725129022, 
			 "electric_quadrupole_moment_norm": 2.69272885193, 
			 "total_energy": -927.656902396, 
			 "HOMO_LUMO_gap": 0.26336, 
			 "cosmo_polarized_energy": -19.98, 
			 "cosmo_cavitation_energy": 22.45, 
			 "cosmo_dispersion_energy": -17.36, 
			 "cosmo_repulsion_energy": 1.36, 
			 "cosmo_total_nonelectrostatic_energy": 6.44, 
			 "SMD_solvation_energy": 3.88 
		},
		"coords": [
			{
				"x": 0.6795635892,
				"y": -0.1576400832,
				"z": 1.302540844,
				"element": "C" 
			},
			{
				"x": -0.59872088,
				"y": -0.5859059485,
				"z": 0.7069135363,
				"element": "N" 
			},
			{
				"x": -0.5125465998,
				"y": -1.7416750933,
				"z": -0.1997829905,
				"element": "C" 
			},
			{
				"x": 0.4586731008,
				"y": -1.6511073848,
				"z": -1.3971274898,
				"element": "C" 
			},
			{
				"x": 0.672691164,
				"y": -0.4549821118,
				"z": -1.9728416648,
				"element": "O" 
			},
			{
				"x": 0.9906156128,
				"y": -2.6516729676,
				"z": -1.8136434935,
				"element": "O" 
			},
			{
				"x": -1.6308426477,
				"y": 0.6333345654,
				"z": 0.1960415943,
				"element": "S" 
			},
			{
				"x": -1.8467873382,
				"y": 1.476412724,
				"z": 1.6253244453,
				"element": "N" 
			},
			{
				"x": -0.9249004678,
				"y": 1.5706807078,
				"z": -0.7017907208,
				"element": "O" 
			},
			{
				"x": -2.8602119562,
				"y": -0.0122991851,
				"z": -0.2555220242,
				"element": "O" 
			},
			{
				"x": 1.1128688899,
				"y": -1.0290718417,
				"z": 1.7999004529,
				"element": "H" 
			},
			{
				"x": 0.487937957,
				"y": 0.6119265897,
				"z": 2.0495633623,
				"element": "H" 
			},
			{
				"x": 1.3895611866,
				"y": 0.2186758224,
				"z": 0.557192434,
				"element": "H" 
			},
			{
				"x": -0.1916220683,
				"y": -2.6053754434,
				"z": 0.3868010694,
				"element": "H" 
			},
			{
				"x": -1.5139051332,
				"y": -1.9586633785,
				"z": -0.5814064641,
				"element": "H" 
			},
			{
				"x": 0.1438983875,
				"y": 0.2787490224,
				"z": -1.5979579525,
				"element": "H" 
			},
			{
				"x": -2.646086564,
				"y": 1.1196863118,
				"z": 2.1424623897,
				"element": "H" 
			},
			{
				"x": -1.9324862326,
				"y": 2.4680276944,
				"z": 1.4198326718,
				"element": "H" 
			}
		],
		 "valence_orbital": [ 
			{
				"type": "occ",
				"energy": -0.3347,
				"method": "rhf"
			},
			{
				"type": "occ",
				"energy": -0.32341,
				"method": "rhf"
			},
			{
				"type": "occ",
				"energy": -0.31028,
				"method": "rhf"
			},
			{
				"type": "occ",
				"energy": -0.29254,
				"method": "rhf"
			},
			{
				"type": "occ",
				"energy": -0.25885,
				"method": "rhf"
			},
			{
				"type": "unocc",
				"energy": 0.00451,
				"method": "rhf"
			},
			{
				"type": "unocc",
				"energy": 0.02951,
				"method": "rhf"
			},
			{
				"type": "unocc",
				"energy": 0.05522,
				"method": "rhf"
			},
			{
				"type": "unocc",
				"energy": 0.06027,
				"method": "rhf"
			},
			{
				"type": "unocc",
				"energy": 0.07469,
				"method": "rhf"
			}
		],
		"cosmo_sigma_profile": { 
			"-0.025": 0.0,
			"-0.024": 0.0,
			"-0.023": 0.0,
			"-0.022": 0.0,
			"-0.021": 0.0,
			"-0.02": 0.0,
			"-0.019": 0.0,
			"-0.018": 0.0,
			"-0.017": 0.149092771826,
			"-0.016": 1.95719137498,
			"-0.015": 2.7720025533,
			"-0.014": 2.64981779025,
			"-0.013": 2.91854278986,
			"-0.012": 1.68082431197,
			"-0.011": 1.97054078574,
			"-0.01": 2.61400487642,
			"-0.009": 3.75515993855,
			"-0.008": 6.45357182598,
			"-0.007": 7.29760273643,
			"-0.006": 8.27891221296,
			"-0.005": 12.4947724815,
			"-0.004": 12.4745328507,
			"-0.003": 10.7869839647,
			"-0.002": 5.83573452196,
			"-0.001": 6.04548113089,
			"0.0": 6.34385259703,
			"0.001": 6.42310943804,
			"0.002": 6.0411138541,
			"0.003": 5.04766446337,
			"0.004": 5.4054440736,
			"0.005": 5.90691023277,
			"0.006": 5.3523932979,
			"0.007": 5.77742651084,
			"0.008": 6.00751902069,
			"0.009": 8.86059432527,
			"0.01": 12.1948114589,
			"0.011": 6.83689470186,
			"0.012": 5.29936961298,
			"0.013": 1.44282936379,
			"0.014": 0.0178513638176,
			"0.015": 0.0,
			"0.016": 0.0,
			"0.017": 0.0,
			"0.018": 0.0,
			"0.019": 0.0,
			"0.02": 0.0,
			"0.021": 0.0,
			"0.022": 0.0,
			"0.023": 0.0,
			"0.024": 0.0,
			"0.025": 0.0
		}
	}
}
