{
	 "smiles": "CC(OC1=CC=C(OC2=CN=C3C=C(Cl)C=CC3=N2)C=C1)C(=O)OCC1CCCO1", 
	 "Tm": 337.15, 
	 "num_atms": 51, 
	 "gaussian": { 
		 "optdone": 1, 
		 "sigma_profile": "yes", 
		 "theory": "DFT", 
		 "functional": "B3LYP", 
		 "basiset": "6-31G**", 
		 "properties": { 
			 "R2extent": 32315.9215, 
			 "electric_dipole_moment_norm": 3.99868669065, 
			 "electric_quadrupole_moment_norm": 12.87599419, 
			 "total_energy": -1796.794008, 
			 "HOMO_LUMO_gap": 0.15037, 
			 "cosmo_polarized_energy": -18.18, 
			 "cosmo_cavitation_energy": 57.66, 
			 "cosmo_dispersion_energy": -40.93, 
			 "cosmo_repulsion_energy": 3.1, 
			 "cosmo_total_nonelectrostatic_energy": 19.83, 
			 "SMD_solvation_energy": 6.96 
		},
		"coords": [
			{
				"x": 2.754725488,
				"y": -0.5767623781,
				"z": 1.9703181516,
				"element": "C" 
			},
			{
				"x": 2.1717396269,
				"y": 0.6832429167,
				"z": 1.341111102,
				"element": "C" 
			},
			{
				"x": 1.5412840126,
				"y": 0.4083673992,
				"z": 0.0906326045,
				"element": "O" 
			},
			{
				"x": 0.2274686061,
				"y": 0.0349672941,
				"z": 0.0487524902,
				"element": "C" 
			},
			{
				"x": -0.3139937019,
				"y": -0.0893836827,
				"z": -1.2407075076,
				"element": "C" 
			},
			{
				"x": -1.641837146,
				"y": -0.457298847,
				"z": -1.4148948299,
				"element": "C" 
			},
			{
				"x": -2.438871101,
				"y": -0.7166480919,
				"z": -0.2957002701,
				"element": "C" 
			},
			{
				"x": -3.7939632591,
				"y": -1.0081955438,
				"z": -0.4384691304,
				"element": "O" 
			},
			{
				"x": -4.1870194856,
				"y": -2.1903077496,
				"z": -0.9924384709,
				"element": "C" 
			},
			{
				"x": -3.3009281177,
				"y": -3.311887409,
				"z": -1.1133395767,
				"element": "C" 
			},
			{
				"x": -3.7010462315,
				"y": -4.4554471826,
				"z": -1.6150228513,
				"element": "N" 
			},
			{
				"x": -5.0034125907,
				"y": -4.5376046933,
				"z": -2.0207705023,
				"element": "C" 
			},
			{
				"x": -5.4819417809,
				"y": -5.7510249125,
				"z": -2.5728686068,
				"element": "C" 
			},
			{
				"x": -6.7960505842,
				"y": -5.828098607,
				"z": -2.9737459359,
				"element": "C" 
			},
			{
				"x": -7.4142797011,
				"y": -7.3211616377,
				"z": -3.6620627513,
				"element": "Cl" 
			},
			{
				"x": -7.6786820185,
				"y": -4.7273412106,
				"z": -2.8466844223,
				"element": "C" 
			},
			{
				"x": -7.2252346383,
				"y": -3.5428947484,
				"z": -2.3104309042,
				"element": "C" 
			},
			{
				"x": -5.8783669437,
				"y": -3.4179334348,
				"z": -1.88556611,
				"element": "C" 
			},
			{
				"x": -5.4404892544,
				"y": -2.2387923143,
				"z": -1.3620224371,
				"element": "N" 
			},
			{
				"x": -1.9141783967,
				"y": -0.595782967,
				"z": 0.9853499148,
				"element": "C" 
			},
			{
				"x": -0.5789797257,
				"y": -0.2212008837,
				"z": 1.1641216643,
				"element": "C" 
			},
			{
				"x": 3.2594974349,
				"y": 1.7359430183,
				"z": 1.0797254925,
				"element": "C" 
			},
			{
				"x": 4.3729898096,
				"y": 1.677227194,
				"z": 1.5567563859,
				"element": "O" 
			},
			{
				"x": 2.7930392919,
				"y": 2.7334229837,
				"z": 0.314211181,
				"element": "O" 
			},
			{
				"x": 3.7019417282,
				"y": 3.8034538476,
				"z": -0.0407340907,
				"element": "C" 
			},
			{
				"x": 3.3855875509,
				"y": 5.0642454589,
				"z": 0.7674954659,
				"element": "C" 
			},
			{
				"x": 3.9189229945,
				"y": 5.0562706751,
				"z": 2.21731256,
				"element": "C" 
			},
			{
				"x": 5.2373052248,
				"y": 5.8390980715,
				"z": 2.0992212009,
				"element": "C" 
			},
			{
				"x": 4.8907664777,
				"y": 6.8497621833,
				"z": 1.0063436155,
				"element": "C" 
			},
			{
				"x": 4.0451676501,
				"y": 6.1458142672,
				"z": 0.0923279973,
				"element": "O" 
			},
			{
				"x": 1.9647115905,
				"y": -1.3054814413,
				"z": 2.1668869933,
				"element": "H" 
			},
			{
				"x": 3.4873672436,
				"y": -1.0265970903,
				"z": 1.2962249409,
				"element": "H" 
			},
			{
				"x": 3.2586654506,
				"y": -0.3338382482,
				"z": 2.9081115521,
				"element": "H" 
			},
			{
				"x": 1.4509210904,
				"y": 1.1626105483,
				"z": 2.0192309082,
				"element": "H" 
			},
			{
				"x": 0.3242311661,
				"y": 0.123774098,
				"z": -2.0913704464,
				"element": "H" 
			},
			{
				"x": -2.0674259348,
				"y": -0.5324560763,
				"z": -2.4105102327,
				"element": "H" 
			},
			{
				"x": -2.2693313325,
				"y": -3.2376263532,
				"z": -0.7812262808,
				"element": "H" 
			},
			{
				"x": -4.8006339018,
				"y": -6.5885839251,
				"z": -2.6653644056,
				"element": "H" 
			},
			{
				"x": -8.7068920469,
				"y": -4.8313045653,
				"z": -3.1750212079,
				"element": "H" 
			},
			{
				"x": -7.8791969427,
				"y": -2.6841498718,
				"z": -2.2019549342,
				"element": "H" 
			},
			{
				"x": -2.5513899537,
				"y": -0.7924996364,
				"z": 1.8411538196,
				"element": "H" 
			},
			{
				"x": -0.1888300071,
				"y": -0.145387438,
				"z": 2.1718685332,
				"element": "H" 
			},
			{
				"x": 4.7321337512,
				"y": 3.4769805052,
				"z": 0.1130978705,
				"element": "H" 
			},
			{
				"x": 3.5282180184,
				"y": 4.0016052957,
				"z": -1.100235041,
				"element": "H" 
			},
			{
				"x": 2.2993761671,
				"y": 5.226302372,
				"z": 0.7406319041,
				"element": "H" 
			},
			{
				"x": 4.0580118828,
				"y": 4.0454382608,
				"z": 2.60652402,
				"element": "H" 
			},
			{
				"x": 3.2215250748,
				"y": 5.5841117566,
				"z": 2.8764147944,
				"element": "H" 
			},
			{
				"x": 6.0482792302,
				"y": 5.1820336813,
				"z": 1.7669735553,
				"element": "H" 
			},
			{
				"x": 5.5448258136,
				"y": 6.3089015267,
				"z": 3.0375300304,
				"element": "H" 
			},
			{
				"x": 4.3569415293,
				"y": 7.7166063586,
				"z": 1.4270919002,
				"element": "H" 
			},
			{
				"x": 5.7566308916,
				"y": 7.218911227,
				"z": 0.4481202976,
				"element": "H" 
			}
		],
		 "valence_orbital": [ 
			{
				"type": "occ",
				"energy": -0.26052,
				"method": "rhf"
			},
			{
				"type": "occ",
				"energy": -0.25993,
				"method": "rhf"
			},
			{
				"type": "occ",
				"energy": -0.25469,
				"method": "rhf"
			},
			{
				"type": "occ",
				"energy": -0.23951,
				"method": "rhf"
			},
			{
				"type": "occ",
				"energy": -0.22539,
				"method": "rhf"
			},
			{
				"type": "unocc",
				"energy": -0.07502,
				"method": "rhf"
			},
			{
				"type": "unocc",
				"energy": -0.02711,
				"method": "rhf"
			},
			{
				"type": "unocc",
				"energy": -0.02181,
				"method": "rhf"
			},
			{
				"type": "unocc",
				"energy": -0.0088,
				"method": "rhf"
			},
			{
				"type": "unocc",
				"energy": -0.00204,
				"method": "rhf"
			}
		],
		"cosmo_sigma_profile": { 
			"-0.025": 0.0,
			"-0.024": 0.0,
			"-0.023": 0.0,
			"-0.022": 0.0,
			"-0.021": 0.0,
			"-0.02": 0.0,
			"-0.019": 0.0,
			"-0.018": 0.0,
			"-0.017": 0.0,
			"-0.016": 0.0,
			"-0.015": 0.0,
			"-0.014": 0.0,
			"-0.013": 0.0,
			"-0.012": 0.0,
			"-0.011": 0.0,
			"-0.01": 0.0352700836582,
			"-0.009": 1.78103412681,
			"-0.008": 7.40355602344,
			"-0.007": 14.2560203805,
			"-0.006": 17.9275244236,
			"-0.005": 22.8809633975,
			"-0.004": 38.7789524896,
			"-0.003": 51.3564798244,
			"-0.002": 41.7427896805,
			"-0.001": 39.7413575434,
			"0.0": 41.0153449843,
			"0.001": 36.7604665372,
			"0.002": 30.9842331566,
			"0.003": 27.8602640514,
			"0.004": 25.2279881194,
			"0.005": 11.7790894843,
			"0.006": 6.60790026787,
			"0.007": 6.22448393364,
			"0.008": 8.14910475183,
			"0.009": 7.78594162465,
			"0.01": 6.17294122817,
			"0.011": 7.76103875847,
			"0.012": 4.24296517683,
			"0.013": 3.21052003322,
			"0.014": 1.62493498449,
			"0.015": 0.24421944216,
			"0.016": 0.0,
			"0.017": 0.0,
			"0.018": 0.0,
			"0.019": 0.0,
			"0.02": 0.0,
			"0.021": 0.0,
			"0.022": 0.0,
			"0.023": 0.0,
			"0.024": 0.0,
			"0.025": 0.0
		}
	}
}
