{
	 "smiles": "CNS(=O)(=O)C1=C(F)C=CC(=C1)C(O)=O", 
	 "Tm": 483.15, 
	 "num_atms": 23, 
	 "gaussian": { 
		 "optdone": 1, 
		 "sigma_profile": "yes", 
		 "theory": "DFT", 
		 "functional": "B3LYP", 
		 "basiset": "6-31G**", 
		 "properties": { 
			 "R2extent": 4649.6134, 
			 "electric_dipole_moment_norm": 2.24014882095, 
			 "electric_quadrupole_moment_norm": 27.1606628214, 
			 "total_energy": -1163.26685906, 
			 "HOMO_LUMO_gap": 0.2074, 
			 "cosmo_polarized_energy": -24.3, 
			 "cosmo_cavitation_energy": 29.9, 
			 "cosmo_dispersion_energy": -21.62, 
			 "cosmo_repulsion_energy": 1.63, 
			 "cosmo_total_nonelectrostatic_energy": 9.91, 
			 "SMD_solvation_energy": 6.2 
		},
		"coords": [
			{
				"x": 3.6439731239,
				"y": 2.016008383,
				"z": -1.7650421645,
				"element": "C" 
			},
			{
				"x": 2.1989079674,
				"y": 1.7444450201,
				"z": -1.7667975426,
				"element": "N" 
			},
			{
				"x": 1.3590768229,
				"y": 1.9058167754,
				"z": -0.3188787067,
				"element": "S" 
			},
			{
				"x": 0.0246717589,
				"y": 2.3914466933,
				"z": -0.6766912907,
				"element": "O" 
			},
			{
				"x": 2.1910254146,
				"y": 2.595133963,
				"z": 0.6679971756,
				"element": "O" 
			},
			{
				"x": 1.2063004106,
				"y": 0.1935872257,
				"z": 0.2268365048,
				"element": "C" 
			},
			{
				"x": 0.6840326494,
				"y": -0.0581032735,
				"z": 1.5018569879,
				"element": "C" 
			},
			{
				"x": 0.3136096648,
				"y": 0.9633312808,
				"z": 2.2801118406,
				"element": "F" 
			},
			{
				"x": 0.5380610014,
				"y": -1.3535806115,
				"z": 1.9816131164,
				"element": "C" 
			},
			{
				"x": 0.9056756011,
				"y": -2.4223952181,
				"z": 1.1668902418,
				"element": "C" 
			},
			{
				"x": 1.4118934782,
				"y": -2.197188393,
				"z": -0.120124337,
				"element": "C" 
			},
			{
				"x": 1.5698384912,
				"y": -0.8811870751,
				"z": -0.5766375047,
				"element": "C" 
			},
			{
				"x": 1.8479432966,
				"y": -3.2972912864,
				"z": -1.0418015109,
				"element": "C" 
			},
			{
				"x": 1.3417415301,
				"y": -4.5354179246,
				"z": -0.8029054556,
				"element": "O" 
			},
			{
				"x": 2.614332179,
				"y": -3.121699479,
				"z": -1.9588365499,
				"element": "O" 
			},
			{
				"x": 4.0136414964,
				"y": 1.8318376628,
				"z": -2.776326884,
				"element": "H" 
			},
			{
				"x": 4.1433814176,
				"y": 1.3187551399,
				"z": -1.0897790238,
				"element": "H" 
			},
			{
				"x": 3.8923207932,
				"y": 3.0373035206,
				"z": -1.4599978158,
				"element": "H" 
			},
			{
				"x": 1.6689000492,
				"y": 2.2377242528,
				"z": -2.4797720029,
				"element": "H" 
			},
			{
				"x": 0.1485784062,
				"y": -1.5027697283,
				"z": 2.9823363149,
				"element": "H" 
			},
			{
				"x": 0.8236807793,
				"y": -3.4298170132,
				"z": 1.5662376909,
				"element": "H" 
			},
			{
				"x": 1.9785380658,
				"y": -0.7070571461,
				"z": -1.564432461,
				"element": "H" 
			},
			{
				"x": 0.6130756022,
				"y": -4.4893827687,
				"z": -0.1688566225,
				"element": "H" 
			}
		],
		 "valence_orbital": [ 
			{
				"type": "occ",
				"energy": -0.31487,
				"method": "rhf"
			},
			{
				"type": "occ",
				"energy": -0.29374,
				"method": "rhf"
			},
			{
				"type": "occ",
				"energy": -0.29022,
				"method": "rhf"
			},
			{
				"type": "occ",
				"energy": -0.28366,
				"method": "rhf"
			},
			{
				"type": "occ",
				"energy": -0.27677,
				"method": "rhf"
			},
			{
				"type": "unocc",
				"energy": -0.06937,
				"method": "rhf"
			},
			{
				"type": "unocc",
				"energy": -0.05386,
				"method": "rhf"
			},
			{
				"type": "unocc",
				"energy": 0.02205,
				"method": "rhf"
			},
			{
				"type": "unocc",
				"energy": 0.03668,
				"method": "rhf"
			},
			{
				"type": "unocc",
				"energy": 0.05154,
				"method": "rhf"
			}
		],
		"cosmo_sigma_profile": { 
			"-0.025": 0.0,
			"-0.024": 0.0,
			"-0.023": 0.0,
			"-0.022": 0.0,
			"-0.021": 0.0,
			"-0.02": 0.205105342755,
			"-0.019": 0.874481512932,
			"-0.018": 1.0597956477,
			"-0.017": 1.67988666993,
			"-0.016": 0.435687971566,
			"-0.015": 1.47684183953,
			"-0.014": 2.50607014062,
			"-0.013": 1.91120524299,
			"-0.012": 2.31452253354,
			"-0.011": 2.84136822542,
			"-0.01": 2.91065800711,
			"-0.009": 4.89878598163,
			"-0.008": 5.30662557303,
			"-0.007": 7.59391726295,
			"-0.006": 9.31024590251,
			"-0.005": 11.7501782746,
			"-0.004": 13.7658957161,
			"-0.003": 18.0049906907,
			"-0.002": 19.8250136775,
			"-0.001": 17.0490602278,
			"0.0": 14.879508426,
			"0.001": 8.32985385763,
			"0.002": 9.77985842086,
			"0.003": 9.90084318164,
			"0.004": 5.92883495455,
			"0.005": 6.15427003881,
			"0.006": 4.83150669082,
			"0.007": 5.15441690056,
			"0.008": 7.14824984254,
			"0.009": 7.53463601648,
			"0.01": 16.699641496,
			"0.011": 12.7000990685,
			"0.012": 3.79883811616,
			"0.013": 0.59035587241,
			"0.014": 0.0,
			"0.015": 0.0,
			"0.016": 0.0,
			"0.017": 0.0,
			"0.018": 0.0,
			"0.019": 0.0,
			"0.02": 0.0,
			"0.021": 0.0,
			"0.022": 0.0,
			"0.023": 0.0,
			"0.024": 0.0,
			"0.025": 0.0
		}
	}
}
