{
	 "smiles": "CC(C)(C)OC(=O)N1CCCC(=O)C1", 
	 "Tm": 311.15, 
	 "num_atms": 31, 
	 "gaussian": { 
		 "optdone": 1, 
		 "sigma_profile": "yes", 
		 "theory": "DFT", 
		 "functional": "B3LYP", 
		 "basiset": "6-31G**", 
		 "properties": { 
			 "R2extent": 3507.855, 
			 "electric_dipole_moment_norm": 1.29705115165, 
			 "electric_quadrupole_moment_norm": 22.1049265464, 
			 "total_energy": -671.766778764, 
			 "HOMO_LUMO_gap": 0.20462, 
			 "cosmo_polarized_energy": -11.48, 
			 "cosmo_cavitation_energy": 32.23, 
			 "cosmo_dispersion_energy": -22.74, 
			 "cosmo_repulsion_energy": 1.82, 
			 "cosmo_total_nonelectrostatic_energy": 11.31, 
			 "SMD_solvation_energy": 6.46 
		},
		"coords": [
			{
				"x": -3.1634640909,
				"y": -0.3946097164,
				"z": 0.8344667267,
				"element": "C" 
			},
			{
				"x": -2.1518542971,
				"y": 0.7390842998,
				"z": 0.6466149362,
				"element": "C" 
			},
			{
				"x": -1.782119159,
				"y": 1.3662834893,
				"z": 1.994704891,
				"element": "C" 
			},
			{
				"x": -2.6752918749,
				"y": 1.7743896101,
				"z": -0.3543306143,
				"element": "C" 
			},
			{
				"x": -0.9881739947,
				"y": 0.0348490761,
				"z": 0.0802497448,
				"element": "O" 
			},
			{
				"x": 0.1500786916,
				"y": 0.7022653121,
				"z": -0.2200255313,
				"element": "C" 
			},
			{
				"x": 0.3217406425,
				"y": 1.9069735252,
				"z": -0.0959523335,
				"element": "O" 
			},
			{
				"x": 1.1183285733,
				"y": -0.1566822854,
				"z": -0.6882553386,
				"element": "N" 
			},
			{
				"x": 2.3936034237,
				"y": 0.3903189144,
				"z": -1.1432900793,
				"element": "C" 
			},
			{
				"x": 3.5547236029,
				"y": -0.3215987926,
				"z": -0.443742612,
				"element": "C" 
			},
			{
				"x": 3.4886913849,
				"y": -1.8413812528,
				"z": -0.6754772359,
				"element": "C" 
			},
			{
				"x": 2.1077287745,
				"y": -2.422919246,
				"z": -0.4142533356,
				"element": "C" 
			},
			{
				"x": 1.938830885,
				"y": -3.5206580458,
				"z": 0.0776630129,
				"element": "O" 
			},
			{
				"x": 0.9110792271,
				"y": -1.5885316308,
				"z": -0.8858494371,
				"element": "C" 
			},
			{
				"x": -4.0940813281,
				"y": -0.0008387536,
				"z": 1.2536612678,
				"element": "H" 
			},
			{
				"x": -2.7712443138,
				"y": -1.1547873239,
				"z": 1.516363469,
				"element": "H" 
			},
			{
				"x": -3.3904573148,
				"y": -0.8730799716,
				"z": -0.1227385637,
				"element": "H" 
			},
			{
				"x": -1.0475833348,
				"y": 2.1616271559,
				"z": 1.8677308785,
				"element": "H" 
			},
			{
				"x": -2.6795950632,
				"y": 1.7839403593,
				"z": 2.4624896941,
				"element": "H" 
			},
			{
				"x": -1.3719950727,
				"y": 0.6062315815,
				"z": 2.6673327551,
				"element": "H" 
			},
			{
				"x": -1.9478492885,
				"y": 2.5713858432,
				"z": -0.508144637,
				"element": "H" 
			},
			{
				"x": -2.8899886077,
				"y": 1.2976108862,
				"z": -1.3160828057,
				"element": "H" 
			},
			{
				"x": -3.6059528354,
				"y": 2.2106049416,
				"z": 0.0229585455,
				"element": "H" 
			},
			{
				"x": 2.4783222232,
				"y": 0.2652903165,
				"z": -2.2350926518,
				"element": "H" 
			},
			{
				"x": 2.3857420311,
				"y": 1.4576941425,
				"z": -0.9256843407,
				"element": "H" 
			},
			{
				"x": 4.5084343778,
				"y": 0.072544108,
				"z": -0.8120699307,
				"element": "H" 
			},
			{
				"x": 3.5070994807,
				"y": -0.1055646509,
				"z": 0.6298087843,
				"element": "H" 
			},
			{
				"x": 3.7122694675,
				"y": -2.052022036,
				"z": -1.7332371353,
				"element": "H" 
			},
			{
				"x": 4.2161705201,
				"y": -2.3957147173,
				"z": -0.0768886471,
				"element": "H" 
			},
			{
				"x": 0.0258760243,
				"y": -1.919471912,
				"z": -0.3493159009,
				"element": "H" 
			},
			{
				"x": 0.7601312455,
				"y": -1.8129332263,
				"z": -1.9573135754,
				"element": "H" 
			}
		],
		 "valence_orbital": [ 
			{
				"type": "occ",
				"energy": -0.33192,
				"method": "rhf"
			},
			{
				"type": "occ",
				"energy": -0.28968,
				"method": "rhf"
			},
			{
				"type": "occ",
				"energy": -0.2717,
				"method": "rhf"
			},
			{
				"type": "occ",
				"energy": -0.26038,
				"method": "rhf"
			},
			{
				"type": "occ",
				"energy": -0.22948,
				"method": "rhf"
			},
			{
				"type": "unocc",
				"energy": -0.02486,
				"method": "rhf"
			},
			{
				"type": "unocc",
				"energy": 0.05089,
				"method": "rhf"
			},
			{
				"type": "unocc",
				"energy": 0.08097,
				"method": "rhf"
			},
			{
				"type": "unocc",
				"energy": 0.09497,
				"method": "rhf"
			},
			{
				"type": "unocc",
				"energy": 0.10113,
				"method": "rhf"
			}
		],
		"cosmo_sigma_profile": { 
			"-0.025": 0.0,
			"-0.024": 0.0,
			"-0.023": 0.0,
			"-0.022": 0.0,
			"-0.021": 0.0,
			"-0.02": 0.0,
			"-0.019": 0.0,
			"-0.018": 0.0,
			"-0.017": 0.0,
			"-0.016": 0.0,
			"-0.015": 0.0,
			"-0.014": 0.0,
			"-0.013": 0.0,
			"-0.012": 0.0,
			"-0.011": 0.0,
			"-0.01": 0.0,
			"-0.009": 0.0227092343966,
			"-0.008": 1.88937761678,
			"-0.007": 4.56512584736,
			"-0.006": 6.16741461793,
			"-0.005": 9.3884342515,
			"-0.004": 28.6819829963,
			"-0.003": 33.5519959081,
			"-0.002": 28.9965480075,
			"-0.001": 26.9502920274,
			"0.0": 31.187045416,
			"0.001": 21.2528492916,
			"0.002": 8.4054755892,
			"0.003": 5.88484247138,
			"0.004": 5.39085211628,
			"0.005": 5.61306647314,
			"0.006": 3.38403057898,
			"0.007": 3.21655625494,
			"0.008": 3.43795040952,
			"0.009": 2.79879202687,
			"0.01": 4.12662975342,
			"0.011": 5.09832397287,
			"0.012": 5.93734827144,
			"0.013": 4.19885075351,
			"0.014": 0.710516031639,
			"0.015": 0.0,
			"0.016": 0.0,
			"0.017": 0.0,
			"0.018": 0.0,
			"0.019": 0.0,
			"0.02": 0.0,
			"0.021": 0.0,
			"0.022": 0.0,
			"0.023": 0.0,
			"0.024": 0.0,
			"0.025": 0.0
		}
	}
}
