{
	 "smiles": "CC(=O)OC1=CC(=CC(OC(C)=O)=C1)C(O)=O", 
	 "Tm": 432.15, 
	 "num_atms": 27, 
	 "gaussian": { 
		 "optdone": 1, 
		 "sigma_profile": "yes", 
		 "theory": "DFT", 
		 "functional": "B3LYP", 
		 "basiset": "6-31G**", 
		 "properties": { 
			 "R2extent": 5616.4031, 
			 "electric_dipole_moment_norm": 4.822283006, 
			 "electric_quadrupole_moment_norm": 32.3391044649, 
			 "total_energy": -876.566747039, 
			 "HOMO_LUMO_gap": 0.20074, 
			 "cosmo_polarized_energy": -17.91, 
			 "cosmo_cavitation_energy": 33.54, 
			 "cosmo_dispersion_energy": -23.92, 
			 "cosmo_repulsion_energy": 1.89, 
			 "cosmo_total_nonelectrostatic_energy": 11.5, 
			 "SMD_solvation_energy": 9.68 
		},
		"coords": [
			{
				"x": -0.421560893,
				"y": 2.270969896,
				"z": -4.4149950385,
				"element": "C" 
			},
			{
				"x": -0.9849198255,
				"y": 1.1392408943,
				"z": -3.5950417386,
				"element": "C" 
			},
			{
				"x": -2.0007357391,
				"y": 0.5304878601,
				"z": -3.8267595969,
				"element": "O" 
			},
			{
				"x": -0.1602208359,
				"y": 0.8979120889,
				"z": -2.5239790856,
				"element": "O" 
			},
			{
				"x": -0.4516191202,
				"y": -0.0602234649,
				"z": -1.5583907522,
				"element": "C" 
			},
			{
				"x": -1.0765630332,
				"y": -1.2754620165,
				"z": -1.8351851153,
				"element": "C" 
			},
			{
				"x": -1.2605230937,
				"y": -2.1884714105,
				"z": -0.7881566908,
				"element": "C" 
			},
			{
				"x": -0.8012614901,
				"y": -1.898110924,
				"z": 0.4980383752,
				"element": "C" 
			},
			{
				"x": -0.1810151155,
				"y": -0.6757370077,
				"z": 0.7442141708,
				"element": "C" 
			},
			{
				"x": 0.2868194681,
				"y": -0.5065722912,
				"z": 2.0413241453,
				"element": "O" 
			},
			{
				"x": 0.351724704,
				"y": 0.7192385902,
				"z": 2.6581530278,
				"element": "C" 
			},
			{
				"x": 0.8676395378,
				"y": 0.5427081391,
				"z": 4.0632392013,
				"element": "C" 
			},
			{
				"x": 0.0370002084,
				"y": 1.7624216996,
				"z": 2.1415663676,
				"element": "O" 
			},
			{
				"x": 0.0017381638,
				"y": 0.2576694877,
				"z": -0.2774746267,
				"element": "C" 
			},
			{
				"x": -1.928470869,
				"y": -3.5174110039,
				"z": -0.9995298627,
				"element": "C" 
			},
			{
				"x": -2.7507894992,
				"y": -3.6192931469,
				"z": -2.0748764143,
				"element": "O" 
			},
			{
				"x": -1.7638537906,
				"y": -4.463468725,
				"z": -0.2662027324,
				"element": "O" 
			},
			{
				"x": -1.0560318109,
				"y": 2.4363657465,
				"z": -5.2847791644,
				"element": "H" 
			},
			{
				"x": -0.3719272641,
				"y": 3.1809845226,
				"z": -3.8097206003,
				"element": "H" 
			},
			{
				"x": 0.5982742875,
				"y": 2.0338869974,
				"z": -4.7314257397,
				"element": "H" 
			},
			{
				"x": -1.3819327839,
				"y": -1.4997918315,
				"z": -2.8472454826,
				"element": "H" 
			},
			{
				"x": -0.9270929683,
				"y": -2.6230261511,
				"z": 1.2931650061,
				"element": "H" 
			},
			{
				"x": 0.1908337777,
				"y": -0.1022046546,
				"z": 4.631442425,
				"element": "H" 
			},
			{
				"x": 0.9447833298,
				"y": 1.5173253525,
				"z": 4.5435006588,
				"element": "H" 
			},
			{
				"x": 1.845414484,
				"y": 0.0526879665,
				"z": 4.0451139172,
				"element": "H" 
			},
			{
				"x": 0.4749946063,
				"y": 1.2116404354,
				"z": -0.0992509911,
				"element": "H" 
			},
			{
				"x": -2.9128044354,
				"y": -2.746667049,
				"z": -2.4613436629,
				"element": "H" 
			}
		],
		 "valence_orbital": [ 
			{
				"type": "occ",
				"energy": -0.29559,
				"method": "rhf"
			},
			{
				"type": "occ",
				"energy": -0.29231,
				"method": "rhf"
			},
			{
				"type": "occ",
				"energy": -0.27825,
				"method": "rhf"
			},
			{
				"type": "occ",
				"energy": -0.26553,
				"method": "rhf"
			},
			{
				"type": "occ",
				"energy": -0.25644,
				"method": "rhf"
			},
			{
				"type": "unocc",
				"energy": -0.0557,
				"method": "rhf"
			},
			{
				"type": "unocc",
				"energy": -0.0361,
				"method": "rhf"
			},
			{
				"type": "unocc",
				"energy": -0.01233,
				"method": "rhf"
			},
			{
				"type": "unocc",
				"energy": 0.00737,
				"method": "rhf"
			},
			{
				"type": "unocc",
				"energy": 0.04973,
				"method": "rhf"
			}
		],
		"cosmo_sigma_profile": { 
			"-0.025": 0.0,
			"-0.024": 0.0,
			"-0.023": 0.0,
			"-0.022": 0.0,
			"-0.021": 0.0,
			"-0.02": 0.0,
			"-0.019": 0.0,
			"-0.018": 0.416073391613,
			"-0.017": 0.52470141642,
			"-0.016": 1.48840234465,
			"-0.015": 0.913472024221,
			"-0.014": 0.494911055076,
			"-0.013": 1.30415559081,
			"-0.012": 1.44707808682,
			"-0.011": 0.826142052151,
			"-0.01": 0.993337409404,
			"-0.009": 1.43003619051,
			"-0.008": 1.33894064853,
			"-0.007": 10.7278222572,
			"-0.006": 17.9641381448,
			"-0.005": 18.5955627828,
			"-0.004": 20.6600005274,
			"-0.003": 22.6480792606,
			"-0.002": 24.6771974198,
			"-0.001": 15.1211321423,
			"0.0": 20.439192395,
			"0.001": 19.414610553,
			"0.002": 10.2937427273,
			"0.003": 7.4461729076,
			"0.004": 8.26844382411,
			"0.005": 7.30163518634,
			"0.006": 7.08048437173,
			"0.007": 5.81904588782,
			"0.008": 5.43376612369,
			"0.009": 8.18006649391,
			"0.01": 10.6308741227,
			"0.011": 10.5795720671,
			"0.012": 5.01741671554,
			"0.013": 0.847856306963,
			"0.014": 0.0,
			"0.015": 0.0,
			"0.016": 0.0,
			"0.017": 0.0,
			"0.018": 0.0,
			"0.019": 0.0,
			"0.02": 0.0,
			"0.021": 0.0,
			"0.022": 0.0,
			"0.023": 0.0,
			"0.024": 0.0,
			"0.025": 0.0
		}
	}
}
