{
	 "smiles": "CCNC1=NC=C(S1)C(O)=O", 
	 "Tm": 461.15, 
	 "num_atms": 19, 
	 "gaussian": { 
		 "optdone": 1, 
		 "sigma_profile": "yes", 
		 "theory": "DFT", 
		 "functional": "B3LYP", 
		 "basiset": "6-31G**", 
		 "properties": { 
			 "R2extent": 3830.2761, 
			 "electric_dipole_moment_norm": 3.47202322861, 
			 "electric_quadrupole_moment_norm": 11.3843671998, 
			 "total_energy": -891.612797633, 
			 "HOMO_LUMO_gap": 0.17229, 
			 "cosmo_polarized_energy": -14.13, 
			 "cosmo_cavitation_energy": 25.15, 
			 "cosmo_dispersion_energy": -18.98, 
			 "cosmo_repulsion_energy": 1.5, 
			 "cosmo_total_nonelectrostatic_energy": 7.68, 
			 "SMD_solvation_energy": 3.29 
		},
		"coords": [
			{
				"x": -0.1799488953,
				"y": -0.5789810516,
				"z": 2.0078520061,
				"element": "C" 
			},
			{
				"x": 0.3826621265,
				"y": -1.3857633768,
				"z": 0.8317455931,
				"element": "C" 
			},
			{
				"x": 0.7888681783,
				"y": -0.5742776304,
				"z": -0.3078290321,
				"element": "N" 
			},
			{
				"x": -0.0429150405,
				"y": -0.0895812054,
				"z": -1.2617271544,
				"element": "C" 
			},
			{
				"x": 0.3532777074,
				"y": 0.7985648871,
				"z": -2.1561809257,
				"element": "N" 
			},
			{
				"x": -0.6609690127,
				"y": 1.0733288637,
				"z": -3.0207663303,
				"element": "C" 
			},
			{
				"x": -1.8545797871,
				"y": 0.4245624977,
				"z": -2.8212596102,
				"element": "C" 
			},
			{
				"x": -1.7145633604,
				"y": -0.6358740899,
				"z": -1.4232495732,
				"element": "S" 
			},
			{
				"x": -3.1065331399,
				"y": 0.5076680558,
				"z": -3.5541982738,
				"element": "C" 
			},
			{
				"x": -3.0377281594,
				"y": 1.3768357144,
				"z": -4.599607821,
				"element": "O" 
			},
			{
				"x": -4.1196942656,
				"y": -0.115767268,
				"z": -3.2880469495,
				"element": "O" 
			},
			{
				"x": -1.0641815934,
				"y": -0.0102214916,
				"z": 1.7066689933,
				"element": "H" 
			},
			{
				"x": 0.5654785906,
				"y": 0.1247630504,
				"z": 2.3915898767,
				"element": "H" 
			},
			{
				"x": -0.4668894819,
				"y": -1.2496042043,
				"z": 2.8243444436,
				"element": "H" 
			},
			{
				"x": -0.3541379852,
				"y": -2.1173442702,
				"z": 0.4809869109,
				"element": "H" 
			},
			{
				"x": 1.2580593812,
				"y": -1.9613122136,
				"z": 1.1492167758,
				"element": "H" 
			},
			{
				"x": 1.6834858943,
				"y": -0.1035576979,
				"z": -0.276184558,
				"element": "H" 
			},
			{
				"x": -0.4989144059,
				"y": 1.7841719864,
				"z": -3.8231320854,
				"element": "H" 
			},
			{
				"x": -3.916576751,
				"y": 1.3524894442,
				"z": -5.011722286,
				"element": "H" 
			}
		],
		 "valence_orbital": [ 
			{
				"type": "occ",
				"energy": -0.3058,
				"method": "rhf"
			},
			{
				"type": "occ",
				"energy": -0.29043,
				"method": "rhf"
			},
			{
				"type": "occ",
				"energy": -0.28048,
				"method": "rhf"
			},
			{
				"type": "occ",
				"energy": -0.26337,
				"method": "rhf"
			},
			{
				"type": "occ",
				"energy": -0.21345,
				"method": "rhf"
			},
			{
				"type": "unocc",
				"energy": -0.04116,
				"method": "rhf"
			},
			{
				"type": "unocc",
				"energy": 0.01288,
				"method": "rhf"
			},
			{
				"type": "unocc",
				"energy": 0.03353,
				"method": "rhf"
			},
			{
				"type": "unocc",
				"energy": 0.05925,
				"method": "rhf"
			},
			{
				"type": "unocc",
				"energy": 0.08666,
				"method": "rhf"
			}
		],
		"cosmo_sigma_profile": { 
			"-0.025": 0.0,
			"-0.024": 0.0,
			"-0.023": 0.0,
			"-0.022": 0.0,
			"-0.021": 0.0,
			"-0.02": 0.0,
			"-0.019": 0.0,
			"-0.018": 0.450733418451,
			"-0.017": 1.28961200282,
			"-0.016": 0.794199863635,
			"-0.015": 0.853240768959,
			"-0.014": 2.16649921158,
			"-0.013": 1.33205479085,
			"-0.012": 1.79825527075,
			"-0.011": 1.86184464176,
			"-0.01": 1.61220222303,
			"-0.009": 1.92114801889,
			"-0.008": 3.20816846427,
			"-0.007": 2.87663097797,
			"-0.006": 7.05713449403,
			"-0.005": 9.09414929334,
			"-0.004": 12.991379777,
			"-0.003": 14.2383016521,
			"-0.002": 14.0372747152,
			"-0.001": 15.7577199742,
			"0.0": 19.4522126514,
			"0.001": 16.3393830871,
			"0.002": 17.0599472968,
			"0.003": 11.3127439541,
			"0.004": 7.63956323388,
			"0.005": 3.9476965406,
			"0.006": 3.88887954506,
			"0.007": 4.13305967057,
			"0.008": 5.25900166728,
			"0.009": 2.47649562402,
			"0.01": 2.98758667756,
			"0.011": 3.42419296553,
			"0.012": 6.53238884423,
			"0.013": 2.13339804078,
			"0.014": 1.04157489986,
			"0.015": 0.494388610432,
			"0.016": 0.0361256679113,
			"0.017": 0.0,
			"0.018": 0.0,
			"0.019": 0.0,
			"0.02": 0.0,
			"0.021": 0.0,
			"0.022": 0.0,
			"0.023": 0.0,
			"0.024": 0.0,
			"0.025": 0.0
		}
	}
}
