{
	 "smiles": "COP(=S)(OC)SCN1N=NC2=CC=CC=C2C1=O", 
	 "Tm": 345.65, 
	 "num_atms": 31, 
	 "gaussian": { 
		 "optdone": 1, 
		 "sigma_profile": "yes", 
		 "theory": "DFT", 
		 "functional": "B3LYP", 
		 "basiset": "6-31G**", 
		 "properties": { 
			 "R2extent": 7462.0929, 
			 "electric_dipole_moment_norm": 0.929210718836, 
			 "electric_quadrupole_moment_norm": 21.7879834175, 
			 "total_energy": -1915.95727055, 
			 "HOMO_LUMO_gap": 0.16263, 
			 "cosmo_polarized_energy": -18.03, 
			 "cosmo_cavitation_energy": 40.66, 
			 "cosmo_dispersion_energy": -28.47, 
			 "cosmo_repulsion_energy": 2.08, 
			 "cosmo_total_nonelectrostatic_energy": 14.27, 
			 "SMD_solvation_energy": 6.39 
		},
		"coords": [
			{
				"x": 2.0540275867,
				"y": 3.8989355429,
				"z": 2.3808262942,
				"element": "C" 
			},
			{
				"x": 2.4401915725,
				"y": 2.8171808793,
				"z": 1.5060886327,
				"element": "O" 
			},
			{
				"x": 1.6971087699,
				"y": 2.6115133746,
				"z": 0.0814611856,
				"element": "P" 
			},
			{
				"x": -0.2290918087,
				"y": 2.8650088071,
				"z": 0.0521495406,
				"element": "S" 
			},
			{
				"x": 2.5576838152,
				"y": 3.6027306492,
				"z": -0.8770512188,
				"element": "O" 
			},
			{
				"x": 2.0494650971,
				"y": 4.076698811,
				"z": -2.1389186204,
				"element": "C" 
			},
			{
				"x": 2.5217441305,
				"y": 0.7532591155,
				"z": -0.5032863044,
				"element": "S" 
			},
			{
				"x": 2.0181123044,
				"y": -0.3576521668,
				"z": 0.8904047394,
				"element": "C" 
			},
			{
				"x": 0.6933954456,
				"y": -0.9309505462,
				"z": 0.7862831771,
				"element": "N" 
			},
			{
				"x": -0.2161591341,
				"y": -0.4290107732,
				"z": 1.6895079254,
				"element": "N" 
			},
			{
				"x": -1.4049827815,
				"y": -0.8559981134,
				"z": 1.6885369374,
				"element": "N" 
			},
			{
				"x": -1.8075729882,
				"y": -1.8283626303,
				"z": 0.7715688886,
				"element": "C" 
			},
			{
				"x": -3.1506385318,
				"y": -2.2444628473,
				"z": 0.805456875,
				"element": "C" 
			},
			{
				"x": -3.5868237096,
				"y": -3.2158596903,
				"z": -0.0824471299,
				"element": "C" 
			},
			{
				"x": -2.6978346905,
				"y": -3.7886765621,
				"z": -1.0115645702,
				"element": "C" 
			},
			{
				"x": -1.3702588332,
				"y": -3.3868973921,
				"z": -1.0520384894,
				"element": "C" 
			},
			{
				"x": -0.9218232991,
				"y": -2.4018137597,
				"z": -0.1605916163,
				"element": "C" 
			},
			{
				"x": 0.4644096892,
				"y": -1.9427045455,
				"z": -0.1632384407,
				"element": "C" 
			},
			{
				"x": 1.3703033648,
				"y": -2.3511843107,
				"z": -0.8773265372,
				"element": "O" 
			},
			{
				"x": 0.9827220667,
				"y": 3.8579088181,
				"z": 2.5921503495,
				"element": "H" 
			},
			{
				"x": 2.6265794011,
				"y": 3.7574026995,
				"z": 3.2980548758,
				"element": "H" 
			},
			{
				"x": 2.3101066805,
				"y": 4.8606528428,
				"z": 1.9277430289,
				"element": "H" 
			},
			{
				"x": 2.7103228834,
				"y": 4.8904929627,
				"z": -2.4404534572,
				"element": "H" 
			},
			{
				"x": 1.0247113767,
				"y": 4.4402952848,
				"z": -2.0321196113,
				"element": "H" 
			},
			{
				"x": 2.0827275438,
				"y": 3.2797093459,
				"z": -2.8877218264,
				"element": "H" 
			},
			{
				"x": 2.0751488856,
				"y": 0.1872052508,
				"z": 1.8306006037,
				"element": "H" 
			},
			{
				"x": 2.7563676089,
				"y": -1.1589649357,
				"z": 0.8539000802,
				"element": "H" 
			},
			{
				"x": -3.8140051453,
				"y": -1.78814212,
				"z": 1.5322427933,
				"element": "H" 
			},
			{
				"x": -4.6232235132,
				"y": -3.539185458,
				"z": -0.0616554213,
				"element": "H" 
			},
			{
				"x": -3.0552487027,
				"y": -4.5486149489,
				"z": -1.6996805079,
				"element": "H" 
			},
			{
				"x": -0.6635650846,
				"y": -3.8104135837,
				"z": -1.7574821759,
				"element": "H" 
			}
		],
		 "valence_orbital": [ 
			{
				"type": "occ",
				"energy": -0.27039,
				"method": "rhf"
			},
			{
				"type": "occ",
				"energy": -0.25587,
				"method": "rhf"
			},
			{
				"type": "occ",
				"energy": -0.25317,
				"method": "rhf"
			},
			{
				"type": "occ",
				"energy": -0.24321,
				"method": "rhf"
			},
			{
				"type": "occ",
				"energy": -0.2352,
				"method": "rhf"
			},
			{
				"type": "unocc",
				"energy": -0.07257,
				"method": "rhf"
			},
			{
				"type": "unocc",
				"energy": -0.05673,
				"method": "rhf"
			},
			{
				"type": "unocc",
				"energy": -0.01241,
				"method": "rhf"
			},
			{
				"type": "unocc",
				"energy": 0.00812,
				"method": "rhf"
			},
			{
				"type": "unocc",
				"energy": 0.00872,
				"method": "rhf"
			}
		],
		"cosmo_sigma_profile": { 
			"-0.025": 0.0,
			"-0.024": 0.0,
			"-0.023": 0.0,
			"-0.022": 0.0,
			"-0.021": 0.0,
			"-0.02": 0.0,
			"-0.019": 0.0,
			"-0.018": 0.0,
			"-0.017": 0.0,
			"-0.016": 0.0,
			"-0.015": 0.0,
			"-0.014": 0.0,
			"-0.013": 0.0,
			"-0.012": 0.0,
			"-0.011": 0.0,
			"-0.01": 0.251424853097,
			"-0.009": 1.50026314877,
			"-0.008": 5.0405183622,
			"-0.007": 17.1604351179,
			"-0.006": 25.8776305472,
			"-0.005": 27.6285449273,
			"-0.004": 27.7556413841,
			"-0.003": 21.0340650372,
			"-0.002": 16.8380300298,
			"-0.001": 20.6372494729,
			"0.0": 23.5860039367,
			"0.001": 21.8782547526,
			"0.002": 21.3780876991,
			"0.003": 11.9977817311,
			"0.004": 12.9769382916,
			"0.005": 13.1632893806,
			"0.006": 14.6741486316,
			"0.007": 11.9925267405,
			"0.008": 9.69200374681,
			"0.009": 8.51562748544,
			"0.01": 5.40406241044,
			"0.011": 4.5842782706,
			"0.012": 4.03674749784,
			"0.013": 0.637194307346,
			"0.014": 0.0430723123357,
			"0.015": 0.0,
			"0.016": 0.0,
			"0.017": 0.0,
			"0.018": 0.0,
			"0.019": 0.0,
			"0.02": 0.0,
			"0.021": 0.0,
			"0.022": 0.0,
			"0.023": 0.0,
			"0.024": 0.0,
			"0.025": 0.0
		}
	}
}
