{
	 "smiles": "CCC1=C(NC(=O)CC(C)=O)C=CC=C1", 
	 "Tm": 363.15, 
	 "num_atms": 30, 
	 "gaussian": { 
		 "optdone": 1, 
		 "sigma_profile": "yes", 
		 "theory": "DFT", 
		 "functional": "B3LYP", 
		 "basiset": "6-31G**", 
		 "properties": { 
			 "R2extent": 3955.6596, 
			 "electric_dipole_moment_norm": 3.16980826707, 
			 "electric_quadrupole_moment_norm": 11.3973723542, 
			 "total_energy": -671.540645637, 
			 "HOMO_LUMO_gap": 0.22493, 
			 "cosmo_polarized_energy": -13.39, 
			 "cosmo_cavitation_energy": 33.38, 
			 "cosmo_dispersion_energy": -22.58, 
			 "cosmo_repulsion_energy": 1.78, 
			 "cosmo_total_nonelectrostatic_energy": 12.58, 
			 "SMD_solvation_energy": 7.18 
		},
		"coords": [
			{
				"x": -0.9602051701,
				"y": -3.2969490377,
				"z": -0.563081799,
				"element": "C" 
			},
			{
				"x": 0.288845835,
				"y": -2.8696210925,
				"z": -1.3579612219,
				"element": "C" 
			},
			{
				"x": 0.3277059857,
				"y": -1.378882148,
				"z": -1.6224677233,
				"element": "C" 
			},
			{
				"x": 1.0500932775,
				"y": -0.483872044,
				"z": -0.8097767735,
				"element": "C" 
			},
			{
				"x": 1.8608524388,
				"y": -0.9750716943,
				"z": 0.2637779928,
				"element": "N" 
			},
			{
				"x": 1.7155430023,
				"y": -0.7915225001,
				"z": 1.6159250113,
				"element": "C" 
			},
			{
				"x": 2.5793247529,
				"y": -1.1680842901,
				"z": 2.4000340166,
				"element": "O" 
			},
			{
				"x": 0.4164836979,
				"y": -0.1443193487,
				"z": 2.1037724496,
				"element": "C" 
			},
			{
				"x": -0.255605252,
				"y": -1.0715814196,
				"z": 3.1278910874,
				"element": "C" 
			},
			{
				"x": 0.2560486129,
				"y": -0.9983782719,
				"z": 4.5458642257,
				"element": "C" 
			},
			{
				"x": -1.1365913401,
				"y": -1.8340537063,
				"z": 2.778541662,
				"element": "O" 
			},
			{
				"x": 1.0236927153,
				"y": 0.8936600566,
				"z": -1.0655453825,
				"element": "C" 
			},
			{
				"x": 0.2643231683,
				"y": 1.4057139789,
				"z": -2.1148017926,
				"element": "C" 
			},
			{
				"x": -0.4520775084,
				"y": 0.530519476,
				"z": -2.9329254289,
				"element": "C" 
			},
			{
				"x": -0.4103634411,
				"y": -0.8404959642,
				"z": -2.6867488977,
				"element": "C" 
			},
			{
				"x": -1.8746534193,
				"y": -3.0373724097,
				"z": -1.1068254137,
				"element": "H" 
			},
			{
				"x": -0.959292598,
				"y": -4.3801760086,
				"z": -0.4035533913,
				"element": "H" 
			},
			{
				"x": -1.0031736142,
				"y": -2.8092286524,
				"z": 0.4151562098,
				"element": "H" 
			},
			{
				"x": 1.1843233168,
				"y": -3.18143135,
				"z": -0.8124573321,
				"element": "H" 
			},
			{
				"x": 0.3058609673,
				"y": -3.3982901356,
				"z": -2.3185732641,
				"element": "H" 
			},
			{
				"x": 2.718285556,
				"y": -1.4636615762,
				"z": 0.0310858344,
				"element": "H" 
			},
			{
				"x": 0.6855620687,
				"y": 0.8071490831,
				"z": 2.5751035206,
				"element": "H" 
			},
			{
				"x": -0.2844544843,
				"y": 0.0387839213,
				"z": 1.2899702222,
				"element": "H" 
			},
			{
				"x": -0.2403410761,
				"y": -1.7464895967,
				"z": 5.1652901051,
				"element": "H" 
			},
			{
				"x": 1.3398148435,
				"y": -1.1566644091,
				"z": 4.5309799039,
				"element": "H" 
			},
			{
				"x": 0.079623622,
				"y": 0.0022781182,
				"z": 4.958784965,
				"element": "H" 
			},
			{
				"x": 1.6135562487,
				"y": 1.553471035,
				"z": -0.4361269128,
				"element": "H" 
			},
			{
				"x": 0.2465197636,
				"y": 2.4752208031,
				"z": -2.3013305474,
				"element": "H" 
			},
			{
				"x": -1.0375788592,
				"y": 0.914126981,
				"z": -3.7634174438,
				"element": "H" 
			},
			{
				"x": -0.9684231106,
				"y": -1.5178777975,
				"z": -3.3285838819,
				"element": "H" 
			}
		],
		 "valence_orbital": [ 
			{
				"type": "occ",
				"energy": -0.28084,
				"method": "rhf"
			},
			{
				"type": "occ",
				"energy": -0.25931,
				"method": "rhf"
			},
			{
				"type": "occ",
				"energy": -0.25529,
				"method": "rhf"
			},
			{
				"type": "occ",
				"energy": -0.24728,
				"method": "rhf"
			},
			{
				"type": "occ",
				"energy": -0.24436,
				"method": "rhf"
			},
			{
				"type": "unocc",
				"energy": -0.01943,
				"method": "rhf"
			},
			{
				"type": "unocc",
				"energy": -0.01782,
				"method": "rhf"
			},
			{
				"type": "unocc",
				"energy": -0.01379,
				"method": "rhf"
			},
			{
				"type": "unocc",
				"energy": 0.02623,
				"method": "rhf"
			},
			{
				"type": "unocc",
				"energy": 0.08567,
				"method": "rhf"
			}
		],
		"cosmo_sigma_profile": { 
			"-0.025": 0.0,
			"-0.024": 0.0,
			"-0.023": 0.0,
			"-0.022": 0.0,
			"-0.021": 0.0,
			"-0.02": 0.0,
			"-0.019": 0.0,
			"-0.018": 0.0,
			"-0.017": 0.0,
			"-0.016": 0.0,
			"-0.015": 0.0,
			"-0.014": 0.852429436694,
			"-0.013": 0.84427371267,
			"-0.012": 0.925757286518,
			"-0.011": 0.855756896817,
			"-0.01": 1.47206869181,
			"-0.009": 0.783182974339,
			"-0.008": 1.74746244001,
			"-0.007": 6.64469973827,
			"-0.006": 12.9767493631,
			"-0.005": 15.8075110001,
			"-0.004": 20.7232349176,
			"-0.003": 22.952881016,
			"-0.002": 24.6672132996,
			"-0.001": 27.4331302544,
			"0.0": 25.4508497378,
			"0.001": 17.9285703742,
			"0.002": 13.7387548455,
			"0.003": 12.0313235958,
			"0.004": 12.2474490959,
			"0.005": 11.2964629698,
			"0.006": 3.43758276265,
			"0.007": 3.26965114459,
			"0.008": 3.1509639836,
			"0.009": 3.17210980245,
			"0.01": 3.83621579763,
			"0.011": 4.7061677644,
			"0.012": 4.47868553283,
			"0.013": 4.57790916007,
			"0.014": 1.47656800017,
			"0.015": 0.023195856575,
			"0.016": 0.0,
			"0.017": 0.0,
			"0.018": 0.0,
			"0.019": 0.0,
			"0.02": 0.0,
			"0.021": 0.0,
			"0.022": 0.0,
			"0.023": 0.0,
			"0.024": 0.0,
			"0.025": 0.0
		}
	}
}
