{
	 "smiles": "CC1(C)C2CCC1(C)C(NC(=O)C1=CC=CC=C1)C2NC(=O)C1=CC=CC=C1", 
	 "Tm": 421.15, 
	 "num_atms": 56, 
	 "gaussian": { 
		 "optdone": 1, 
		 "sigma_profile": "yes", 
		 "theory": "DFT", 
		 "functional": "B3LYP", 
		 "basiset": "6-31G**", 
		 "properties": { 
			 "R2extent": 11603.545, 
			 "electric_dipole_moment_norm": 5.30097545174, 
			 "electric_quadrupole_moment_norm": 22.266824137, 
			 "total_energy": -1191.41810773, 
			 "HOMO_LUMO_gap": 0.19478, 
			 "cosmo_polarized_energy": -22.11, 
			 "cosmo_cavitation_energy": 54.81, 
			 "cosmo_dispersion_energy": -35.06, 
			 "cosmo_repulsion_energy": 2.6, 
			 "cosmo_total_nonelectrostatic_energy": 22.34, 
			 "SMD_solvation_energy": 9.56 
		},
		"coords": [
			{
				"x": -0.9277179367,
				"y": 2.9294020905,
				"z": -2.955646755,
				"element": "C" 
			},
			{
				"x": -1.1154277691,
				"y": 1.8324901055,
				"z": -1.8884408266,
				"element": "C" 
			},
			{
				"x": -2.5959745427,
				"y": 1.4071962505,
				"z": -1.9778610161,
				"element": "C" 
			},
			{
				"x": -0.0978249908,
				"y": 0.6560194883,
				"z": -2.0094595521,
				"element": "C" 
			},
			{
				"x": 1.2613976872,
				"y": 1.3501624774,
				"z": -1.7788038963,
				"element": "C" 
			},
			{
				"x": 0.9175592469,
				"y": 2.4373248434,
				"z": -0.7150859456,
				"element": "C" 
			},
			{
				"x": -0.6055788521,
				"y": 2.2421003231,
				"z": -0.4520039869,
				"element": "C" 
			},
			{
				"x": -1.261669778,
				"y": 3.432989969,
				"z": 0.2333452875,
				"element": "C" 
			},
			{
				"x": -0.6838752868,
				"y": 0.8922328035,
				"z": 0.3534964267,
				"element": "C" 
			},
			{
				"x": -1.9064494385,
				"y": 0.6722512245,
				"z": 1.121575471,
				"element": "N" 
			},
			{
				"x": -2.0787889401,
				"y": 0.8049987448,
				"z": 2.4856532331,
				"element": "C" 
			},
			{
				"x": -3.1691768839,
				"y": 1.1260904646,
				"z": 2.9487019239,
				"element": "O" 
			},
			{
				"x": -0.9237535394,
				"y": 0.488308046,
				"z": 3.3945288835,
				"element": "C" 
			},
			{
				"x": -0.0699557677,
				"y": -0.6040258699,
				"z": 3.1826776262,
				"element": "C" 
			},
			{
				"x": 0.9336225608,
				"y": -0.9017321951,
				"z": 4.1063043561,
				"element": "C" 
			},
			{
				"x": 1.0970092809,
				"y": -0.1071830326,
				"z": 5.2426701156,
				"element": "C" 
			},
			{
				"x": 0.2399078211,
				"y": 0.9740975803,
				"z": 5.4655234393,
				"element": "C" 
			},
			{
				"x": -0.7743632601,
				"y": 1.2609522101,
				"z": 4.5542586,
				"element": "C" 
			},
			{
				"x": -0.4360407671,
				"y": -0.1894012806,
				"z": -0.7494575574,
				"element": "C" 
			},
			{
				"x": 0.55635799,
				"y": -1.181587809,
				"z": -0.3655675768,
				"element": "N" 
			},
			{
				"x": 0.4264274166,
				"y": -2.505882222,
				"z": -0.7012967361,
				"element": "C" 
			},
			{
				"x": -0.5290796775,
				"y": -2.9247177642,
				"z": -1.3494444055,
				"element": "O" 
			},
			{
				"x": 1.5086925815,
				"y": -3.4277910038,
				"z": -0.2074735309,
				"element": "C" 
			},
			{
				"x": 1.1947270873,
				"y": -4.7909711747,
				"z": -0.1217970062,
				"element": "C" 
			},
			{
				"x": 2.1412165708,
				"y": -5.7060741111,
				"z": 0.3328516087,
				"element": "C" 
			},
			{
				"x": 3.419440729,
				"y": -5.2715584806,
				"z": 0.6933882143,
				"element": "C" 
			},
			{
				"x": 3.7480508767,
				"y": -3.9186180059,
				"z": 0.5908361931,
				"element": "C" 
			},
			{
				"x": 2.7977603671,
				"y": -3.0004620307,
				"z": 0.1426247222,
				"element": "C" 
			},
			{
				"x": -1.1366102395,
				"y": 2.5223646398,
				"z": -3.9511784671,
				"element": "H" 
			},
			{
				"x": 0.0749563416,
				"y": 3.3587311601,
				"z": -2.9817743644,
				"element": "H" 
			},
			{
				"x": -1.6324781386,
				"y": 3.7514216687,
				"z": -2.7886805278,
				"element": "H" 
			},
			{
				"x": -2.8659673859,
				"y": 0.5481297231,
				"z": -1.3616038239,
				"element": "H" 
			},
			{
				"x": -2.8402818163,
				"y": 1.1324092946,
				"z": -3.0096870687,
				"element": "H" 
			},
			{
				"x": -3.2549568759,
				"y": 2.2384807284,
				"z": -1.7032388528,
				"element": "H" 
			},
			{
				"x": -0.15506707,
				"y": 0.0683247247,
				"z": -2.9299981153,
				"element": "H" 
			},
			{
				"x": 2.0231025531,
				"y": 0.6428594291,
				"z": -1.4376914953,
				"element": "H" 
			},
			{
				"x": 1.6433792544,
				"y": 1.7931301724,
				"z": -2.7023762238,
				"element": "H" 
			},
			{
				"x": 1.119049265,
				"y": 3.4460200847,
				"z": -1.0873991725,
				"element": "H" 
			},
			{
				"x": 1.4964927572,
				"y": 2.3288245181,
				"z": 0.2088546461,
				"element": "H" 
			},
			{
				"x": -1.1481411831,
				"y": 4.3391453922,
				"z": -0.3708197609,
				"element": "H" 
			},
			{
				"x": -0.7982191977,
				"y": 3.6280797804,
				"z": 1.2073492083,
				"element": "H" 
			},
			{
				"x": -2.3301224224,
				"y": 3.2785883526,
				"z": 0.4108600693,
				"element": "H" 
			},
			{
				"x": 0.1286924154,
				"y": 0.8824316859,
				"z": 1.0828252056,
				"element": "H" 
			},
			{
				"x": -2.7775053643,
				"y": 0.8683109717,
				"z": 0.6436939278,
				"element": "H" 
			},
			{
				"x": -0.2101894143,
				"y": -1.2358225222,
				"z": 2.3113307785,
				"element": "H" 
			},
			{
				"x": 1.5802032421,
				"y": -1.7590554583,
				"z": 3.9415209584,
				"element": "H" 
			},
			{
				"x": 1.8813783239,
				"y": -0.33630516,
				"z": 5.9584854443,
				"element": "H" 
			},
			{
				"x": 0.3562476559,
				"y": 1.586013324,
				"z": 6.3553841513,
				"element": "H" 
			},
			{
				"x": -1.4681528703,
				"y": 2.0767593021,
				"z": 4.729130581,
				"element": "H" 
			},
			{
				"x": -1.3474331933,
				"y": -0.7603593316,
				"z": -0.929198026,
				"element": "H" 
			},
			{
				"x": 1.3024922892,
				"y": -0.9097425678,
				"z": 0.255339907,
				"element": "H" 
			},
			{
				"x": 0.2007561104,
				"y": -5.1061785855,
				"z": -0.4203503859,
				"element": "H" 
			},
			{
				"x": 1.8845417139,
				"y": -6.7590507189,
				"z": 0.4036929661,
				"element": "H" 
			},
			{
				"x": 4.159343097,
				"y": -5.9852960065,
				"z": 1.0441197263,
				"element": "H" 
			},
			{
				"x": 4.7465099148,
				"y": -3.5786090045,
				"z": 0.8500054351,
				"element": "H" 
			},
			{
				"x": 3.0850874524,
				"y": -1.9581172381,
				"z": 0.0331059698,
				"element": "H" 
			}
		],
		 "valence_orbital": [ 
			{
				"type": "occ",
				"energy": -0.2585,
				"method": "rhf"
			},
			{
				"type": "occ",
				"energy": -0.25703,
				"method": "rhf"
			},
			{
				"type": "occ",
				"energy": -0.25005,
				"method": "rhf"
			},
			{
				"type": "occ",
				"energy": -0.24649,
				"method": "rhf"
			},
			{
				"type": "occ",
				"energy": -0.23293,
				"method": "rhf"
			},
			{
				"type": "unocc",
				"energy": -0.03815,
				"method": "rhf"
			},
			{
				"type": "unocc",
				"energy": -0.03144,
				"method": "rhf"
			},
			{
				"type": "unocc",
				"energy": -0.01227,
				"method": "rhf"
			},
			{
				"type": "unocc",
				"energy": -0.0092,
				"method": "rhf"
			},
			{
				"type": "unocc",
				"energy": 0.0476,
				"method": "rhf"
			}
		],
		"cosmo_sigma_profile": { 
			"-0.025": 0.0,
			"-0.024": 0.0,
			"-0.023": 0.0,
			"-0.022": 0.0,
			"-0.021": 0.0,
			"-0.02": 0.0,
			"-0.019": 0.0,
			"-0.018": 0.0,
			"-0.017": 0.0,
			"-0.016": 0.0,
			"-0.015": 0.0,
			"-0.014": 0.0,
			"-0.013": 0.452654712523,
			"-0.012": 1.36954299915,
			"-0.011": 1.6940499662,
			"-0.01": 2.69332974675,
			"-0.009": 3.25298673604,
			"-0.008": 3.94384810577,
			"-0.007": 4.90993900789,
			"-0.006": 17.2585311819,
			"-0.005": 22.9804875277,
			"-0.004": 31.1972431556,
			"-0.003": 41.4962279576,
			"-0.002": 46.4433589022,
			"-0.001": 42.9860092787,
			"0.0": 42.6124824556,
			"0.001": 41.6354640883,
			"0.002": 26.5468225025,
			"0.003": 19.740504889,
			"0.004": 25.5795721338,
			"0.005": 16.1898054906,
			"0.006": 3.20409094036,
			"0.007": 3.18235400942,
			"0.008": 2.5315018934,
			"0.009": 2.24322597239,
			"0.01": 3.50100773637,
			"0.011": 3.11622653686,
			"0.012": 4.18844796857,
			"0.013": 6.9751829696,
			"0.014": 8.72995629809,
			"0.015": 0.850402224173,
			"0.016": 0.0,
			"0.017": 0.0,
			"0.018": 0.0,
			"0.019": 0.0,
			"0.02": 0.0,
			"0.021": 0.0,
			"0.022": 0.0,
			"0.023": 0.0,
			"0.024": 0.0,
			"0.025": 0.0
		}
	}
}
