{
	 "smiles": "CSCN1C(=O)NC(C1=O)(C1=CC=CC=C1)C1=CC=CC=C1", 
	 "Tm": 401.15, 
	 "num_atms": 38, 
	 "gaussian": { 
		 "optdone": 1, 
		 "sigma_profile": "yes", 
		 "theory": "DFT", 
		 "functional": "B3LYP", 
		 "basiset": "6-31G**", 
		 "properties": { 
			 "R2extent": 7205.6228, 
			 "electric_dipole_moment_norm": 3.21375013963, 
			 "electric_quadrupole_moment_norm": 20.0164137152, 
			 "total_energy": -1315.62922352, 
			 "HOMO_LUMO_gap": 0.20172, 
			 "cosmo_polarized_energy": -15.82, 
			 "cosmo_cavitation_energy": 42.94, 
			 "cosmo_dispersion_energy": -29.18, 
			 "cosmo_repulsion_energy": 2.2, 
			 "cosmo_total_nonelectrostatic_energy": 15.96, 
			 "SMD_solvation_energy": 8.44 
		},
		"coords": [
			{
				"x": -3.7954333392,
				"y": -0.8971924555,
				"z": -1.8093188449,
				"element": "C" 
			},
			{
				"x": -2.8719260399,
				"y": -2.3886764542,
				"z": -1.2780165908,
				"element": "S" 
			},
			{
				"x": -1.2980356066,
				"y": -2.1749631447,
				"z": -2.2044379221,
				"element": "C" 
			},
			{
				"x": -0.216835865,
				"y": -1.5543679129,
				"z": -1.4625973246,
				"element": "N" 
			},
			{
				"x": 0.8152949424,
				"y": -2.3181758214,
				"z": -0.8627016176,
				"element": "C" 
			},
			{
				"x": 0.8937845461,
				"y": -3.5288052544,
				"z": -0.8869577286,
				"element": "O" 
			},
			{
				"x": 1.6785134538,
				"y": -1.4162121139,
				"z": -0.2934313072,
				"element": "N" 
			},
			{
				"x": 1.179699351,
				"y": -0.0345529739,
				"z": -0.3177277906,
				"element": "C" 
			},
			{
				"x": -0.1148140014,
				"y": -0.2151138514,
				"z": -1.1623066933,
				"element": "C" 
			},
			{
				"x": -0.8890236781,
				"y": 0.6595997549,
				"z": -1.4971344994,
				"element": "O" 
			},
			{
				"x": 2.1166892892,
				"y": 0.9200919543,
				"z": -1.0708351372,
				"element": "C" 
			},
			{
				"x": 3.3069227336,
				"y": 0.4724424536,
				"z": -1.6515635433,
				"element": "C" 
			},
			{
				"x": 4.1334868031,
				"y": 1.3614530383,
				"z": -2.3441505571,
				"element": "C" 
			},
			{
				"x": 3.772825195,
				"y": 2.7020097277,
				"z": -2.4710092347,
				"element": "C" 
			},
			{
				"x": 2.5783289083,
				"y": 3.1517298833,
				"z": -1.9017723032,
				"element": "C" 
			},
			{
				"x": 1.7557871018,
				"y": 2.2694566683,
				"z": -1.2045341883,
				"element": "C" 
			},
			{
				"x": 0.8636048223,
				"y": 0.4345957011,
				"z": 1.1122108958,
				"element": "C" 
			},
			{
				"x": 1.8634056872,
				"y": 1.048090633,
				"z": 1.879063392,
				"element": "C" 
			},
			{
				"x": 1.6281467503,
				"y": 1.3882697606,
				"z": 3.2117939402,
				"element": "C" 
			},
			{
				"x": 0.3880800386,
				"y": 1.1248747489,
				"z": 3.794729618,
				"element": "C" 
			},
			{
				"x": -0.613000623,
				"y": 0.5144945793,
				"z": 3.0376305918,
				"element": "C" 
			},
			{
				"x": -0.3771571488,
				"y": 0.1673330927,
				"z": 1.7071686653,
				"element": "C" 
			},
			{
				"x": -3.2093901603,
				"y": 0.003558131,
				"z": -1.6273837355,
				"element": "H" 
			},
			{
				"x": -4.7096138649,
				"y": -0.8744602795,
				"z": -1.2117580672,
				"element": "H" 
			},
			{
				"x": -4.0675974076,
				"y": -0.9652739206,
				"z": -2.8655365221,
				"element": "H" 
			},
			{
				"x": -0.9499146368,
				"y": -3.1727233782,
				"z": -2.4727013678,
				"element": "H" 
			},
			{
				"x": -1.4950336644,
				"y": -1.5912628505,
				"z": -3.1056021381,
				"element": "H" 
			},
			{
				"x": 2.299845542,
				"y": -1.7410543617,
				"z": 0.4332126911,
				"element": "H" 
			},
			{
				"x": 3.5839402521,
				"y": -0.5727895397,
				"z": -1.5677792171,
				"element": "H" 
			},
			{
				"x": 5.0576651168,
				"y": 1.0000550712,
				"z": -2.7860638414,
				"element": "H" 
			},
			{
				"x": 4.4146259472,
				"y": 3.3924008639,
				"z": -3.0106972374,
				"element": "H" 
			},
			{
				"x": 2.2854269993,
				"y": 4.1929722759,
				"z": -2.0008933814,
				"element": "H" 
			},
			{
				"x": 0.8247257291,
				"y": 2.6192538636,
				"z": -0.7724771196,
				"element": "H" 
			},
			{
				"x": 2.8262352212,
				"y": 1.2693583278,
				"z": 1.4294181528,
				"element": "H" 
			},
			{
				"x": 2.4142622425,
				"y": 1.8640159453,
				"z": 3.7910559609,
				"element": "H" 
			},
			{
				"x": 0.2020649203,
				"y": 1.395146218,
				"z": 4.8300686106,
				"element": "H" 
			},
			{
				"x": -1.5826188642,
				"y": 0.3069751365,
				"z": 3.4806380564,
				"element": "H" 
			},
			{
				"x": -1.1696666932,
				"y": -0.3085535168,
				"z": 1.1377973356,
				"element": "H" 
			}
		],
		 "valence_orbital": [ 
			{
				"type": "occ",
				"energy": -0.26239,
				"method": "rhf"
			},
			{
				"type": "occ",
				"energy": -0.25678,
				"method": "rhf"
			},
			{
				"type": "occ",
				"energy": -0.2542,
				"method": "rhf"
			},
			{
				"type": "occ",
				"energy": -0.24671,
				"method": "rhf"
			},
			{
				"type": "occ",
				"energy": -0.22949,
				"method": "rhf"
			},
			{
				"type": "unocc",
				"energy": -0.02777,
				"method": "rhf"
			},
			{
				"type": "unocc",
				"energy": -0.01901,
				"method": "rhf"
			},
			{
				"type": "unocc",
				"energy": -0.0157,
				"method": "rhf"
			},
			{
				"type": "unocc",
				"energy": -0.00173,
				"method": "rhf"
			},
			{
				"type": "unocc",
				"energy": 0.00026,
				"method": "rhf"
			}
		],
		"cosmo_sigma_profile": { 
			"-0.025": 0.0,
			"-0.024": 0.0,
			"-0.023": 0.0,
			"-0.022": 0.0,
			"-0.021": 0.0,
			"-0.02": 0.0,
			"-0.019": 0.0,
			"-0.018": 0.0,
			"-0.017": 0.0,
			"-0.016": 0.172267745593,
			"-0.015": 1.08072228515,
			"-0.014": 0.775796207569,
			"-0.013": 0.859881186502,
			"-0.012": 0.86629574288,
			"-0.011": 0.718586282896,
			"-0.01": 1.09492266152,
			"-0.009": 1.67892906987,
			"-0.008": 2.50879490837,
			"-0.007": 5.75726938238,
			"-0.006": 17.1491001014,
			"-0.005": 28.2131412954,
			"-0.004": 34.6496825207,
			"-0.003": 27.5796948953,
			"-0.002": 25.5097141861,
			"-0.001": 25.9503182368,
			"0.0": 22.3855628127,
			"0.001": 20.4327233063,
			"0.002": 19.0602893331,
			"0.003": 23.1741857597,
			"0.004": 22.5835211635,
			"0.005": 22.3912434903,
			"0.006": 8.19470871637,
			"0.007": 5.6942678889,
			"0.008": 4.75713665047,
			"0.009": 5.26937424733,
			"0.01": 4.42476909488,
			"0.011": 4.61926455101,
			"0.012": 5.59690226106,
			"0.013": 1.55684760371,
			"0.014": 0.0104859823289,
			"0.015": 0.0,
			"0.016": 0.0,
			"0.017": 0.0,
			"0.018": 0.0,
			"0.019": 0.0,
			"0.02": 0.0,
			"0.021": 0.0,
			"0.022": 0.0,
			"0.023": 0.0,
			"0.024": 0.0,
			"0.025": 0.0
		}
	}
}
