{
	 "smiles": "COC(=O)NC1=CC=C(Br)C=C1", 
	 "Tm": 396.15, 
	 "num_atms": 20, 
	 "gaussian": { 
		 "optdone": 1, 
		 "sigma_profile": "yes", 
		 "theory": "DFT", 
		 "functional": "B3LYP", 
		 "basiset": "6-31G**", 
		 "properties": { 
			 "R2extent": 6025.8663, 
			 "electric_dipole_moment_norm": 1.08235091352, 
			 "electric_quadrupole_moment_norm": 14.6200512311, 
			 "total_energy": -3086.29368301, 
			 "HOMO_LUMO_gap": 0.20365, 
			 "cosmo_polarized_energy": -10.47, 
			 "cosmo_cavitation_energy": 27.0, 
			 "cosmo_dispersion_energy": -20.38, 
			 "cosmo_repulsion_energy": 1.63, 
			 "cosmo_total_nonelectrostatic_energy": 8.25, 
			 "SMD_solvation_energy": 5.3 
		},
		"coords": [
			{
				"x": 2.519276809,
				"y": -1.6408423853,
				"z": 1.5127232358,
				"element": "C" 
			},
			{
				"x": 1.2669660058,
				"y": -1.5006948948,
				"z": 0.820371838,
				"element": "O" 
			},
			{
				"x": 1.0243167241,
				"y": -2.4643758527,
				"z": -0.0937528212,
				"element": "C" 
			},
			{
				"x": 1.7787444055,
				"y": -3.3876532403,
				"z": -0.3362033249,
				"element": "O" 
			},
			{
				"x": -0.1809213022,
				"y": -2.3114462034,
				"z": -0.7451606009,
				"element": "N" 
			},
			{
				"x": -1.2212179494,
				"y": -1.3657888788,
				"z": -0.6674005496,
				"element": "C" 
			},
			{
				"x": -2.3160250638,
				"y": -1.5656750277,
				"z": -1.5266732848,
				"element": "C" 
			},
			{
				"x": -3.3970711803,
				"y": -0.691099616,
				"z": -1.5311668601,
				"element": "C" 
			},
			{
				"x": -3.3942579002,
				"y": 0.4029107457,
				"z": -0.6679860907,
				"element": "C" 
			},
			{
				"x": -4.8737882855,
				"y": 1.6125846131,
				"z": -0.6643945321,
				"element": "Br" 
			},
			{
				"x": -2.3197054959,
				"y": 0.6176665554,
				"z": 0.1901238127,
				"element": "C" 
			},
			{
				"x": -1.2349470099,
				"y": -0.2590499154,
				"z": 0.1953066151,
				"element": "C" 
			},
			{
				"x": 2.5633755446,
				"y": -0.7991380448,
				"z": 2.2035379349,
				"element": "H" 
			},
			{
				"x": 3.353664348,
				"y": -1.6050752051,
				"z": 0.8087552237,
				"element": "H" 
			},
			{
				"x": 2.5538178576,
				"y": -2.5873912895,
				"z": 2.05668894,
				"element": "H" 
			},
			{
				"x": -0.3136270238,
				"y": -3.0554917863,
				"z": -1.4155939148,
				"element": "H" 
			},
			{
				"x": -2.3213636432,
				"y": -2.4182509,
				"z": -2.2014488449,
				"element": "H" 
			},
			{
				"x": -4.2327620378,
				"y": -0.8605407786,
				"z": -2.200414294,
				"element": "H" 
			},
			{
				"x": -2.3217759261,
				"y": 1.4701594492,
				"z": 0.8600743409,
				"element": "H" 
			},
			{
				"x": -0.4071988763,
				"y": -0.0818073446,
				"z": 0.8656131768,
				"element": "H" 
			}
		],
		 "valence_orbital": [ 
			{
				"type": "occ",
				"energy": -0.28713,
				"method": "rhf"
			},
			{
				"type": "occ",
				"energy": -0.2867,
				"method": "rhf"
			},
			{
				"type": "occ",
				"energy": -0.28539,
				"method": "rhf"
			},
			{
				"type": "occ",
				"energy": -0.26716,
				"method": "rhf"
			},
			{
				"type": "occ",
				"energy": -0.22088,
				"method": "rhf"
			},
			{
				"type": "unocc",
				"energy": -0.01723,
				"method": "rhf"
			},
			{
				"type": "unocc",
				"energy": -0.01658,
				"method": "rhf"
			},
			{
				"type": "unocc",
				"energy": 0.00794,
				"method": "rhf"
			},
			{
				"type": "unocc",
				"energy": 0.05341,
				"method": "rhf"
			},
			{
				"type": "unocc",
				"energy": 0.0757,
				"method": "rhf"
			}
		],
		"cosmo_sigma_profile": { 
			"-0.025": 0.0,
			"-0.024": 0.0,
			"-0.023": 0.0,
			"-0.022": 0.0,
			"-0.021": 0.0,
			"-0.02": 0.0,
			"-0.019": 0.0,
			"-0.018": 0.0,
			"-0.017": 0.0,
			"-0.016": 0.060322441938,
			"-0.015": 0.921813803953,
			"-0.014": 1.2835601624,
			"-0.013": 1.33504381247,
			"-0.012": 0.834659869961,
			"-0.011": 1.3029649349,
			"-0.01": 0.729436613129,
			"-0.009": 1.68090141497,
			"-0.008": 1.6843985464,
			"-0.007": 5.36887770843,
			"-0.006": 11.1553506681,
			"-0.005": 14.1484901489,
			"-0.004": 15.582706739,
			"-0.003": 15.6986548898,
			"-0.002": 13.8904944026,
			"-0.001": 12.2563322015,
			"0.0": 14.5914049056,
			"0.001": 17.0226127123,
			"0.002": 20.1104846267,
			"0.003": 22.524864125,
			"0.004": 20.2124896901,
			"0.005": 10.0507759492,
			"0.006": 1.76692100544,
			"0.007": 1.29993430038,
			"0.008": 0.861249743339,
			"0.009": 1.29543065544,
			"0.01": 1.33248400816,
			"0.011": 2.1940623496,
			"0.012": 3.97057853066,
			"0.013": 4.08612593209,
			"0.014": 0.051824699594,
			"0.015": 0.0,
			"0.016": 0.0,
			"0.017": 0.0,
			"0.018": 0.0,
			"0.019": 0.0,
			"0.02": 0.0,
			"0.021": 0.0,
			"0.022": 0.0,
			"0.023": 0.0,
			"0.024": 0.0,
			"0.025": 0.0
		}
	}
}
