{
	 "smiles": "O1C=CC=C1C=C/C1=CC=C2C=C3C=CC(C=CC4=CC=CO4)=NC3=CC2=N1", 
	 "Tm": 545.15, 
	 "num_atms": 44, 
	 "gaussian": { 
		 "optdone": 1, 
		 "sigma_profile": "yes", 
		 "theory": "DFT", 
		 "functional": "B3LYP", 
		 "basiset": "6-31G**", 
		 "properties": { 
			 "R2extent": 21930.9925, 
			 "electric_dipole_moment_norm": 2.96847870971, 
			 "electric_quadrupole_moment_norm": 42.1657033144, 
			 "total_energy": -1184.08714127, 
			 "HOMO_LUMO_gap": 0.11118, 
			 "cosmo_polarized_energy": -17.42, 
			 "cosmo_cavitation_energy": 50.72, 
			 "cosmo_dispersion_energy": -36.66, 
			 "cosmo_repulsion_energy": 2.66, 
			 "cosmo_total_nonelectrostatic_energy": 16.72, 
			 "SMD_solvation_energy": 7.3 
		},
		"coords": [
			{
				"x": -0.7569233362,
				"y": 1.4329461326,
				"z": -5.4618864735,
				"element": "O" 
			},
			{
				"x": -0.5480743495,
				"y": 1.9756319118,
				"z": -6.6933008883,
				"element": "C" 
			},
			{
				"x": -1.2459381442,
				"y": 1.290946812,
				"z": -7.6431506286,
				"element": "C" 
			},
			{
				"x": -1.9329823931,
				"y": 0.251522228,
				"z": -6.9512181189,
				"element": "C" 
			},
			{
				"x": -1.6128182668,
				"y": 0.370578745,
				"z": -5.6161300059,
				"element": "C" 
			},
			{
				"x": -2.0247933119,
				"y": -0.4629802835,
				"z": -4.5163729156,
				"element": "C" 
			},
			{
				"x": -1.824445625,
				"y": -0.4723574733,
				"z": -3.1737868786,
				"element": "C" 
			},
			{
				"x": -1.1497787023,
				"y": 0.4151442543,
				"z": -2.2180315394,
				"element": "C" 
			},
			{
				"x": -0.7951171784,
				"y": 1.7838897299,
				"z": -2.4836245317,
				"element": "C" 
			},
			{
				"x": -0.201697487,
				"y": 2.5259752008,
				"z": -1.502992623,
				"element": "C" 
			},
			{
				"x": 0.0670277804,
				"y": 1.9457861628,
				"z": -0.2286926224,
				"element": "C" 
			},
			{
				"x": 0.6791673864,
				"y": 2.6345224366,
				"z": 0.8232680698,
				"element": "C" 
			},
			{
				"x": 0.9077933673,
				"y": 2.0122384435,
				"z": 2.0551897158,
				"element": "C" 
			},
			{
				"x": 1.5290615086,
				"y": 2.665872136,
				"z": 3.1606081188,
				"element": "C" 
			},
			{
				"x": 1.7147439832,
				"y": 1.9859657209,
				"z": 4.3295200882,
				"element": "C" 
			},
			{
				"x": 1.2819424378,
				"y": 0.6172424802,
				"z": 4.4344183368,
				"element": "C" 
			},
			{
				"x": 1.4926128591,
				"y": -0.0902506512,
				"z": 5.6980138759,
				"element": "C" 
			},
			{
				"x": 1.1267706156,
				"y": -1.3746481214,
				"z": 5.9067013997,
				"element": "C" 
			},
			{
				"x": 1.3118407683,
				"y": -2.1112841398,
				"z": 7.1262162802,
				"element": "C" 
			},
			{
				"x": 1.8503778667,
				"y": -1.8357515916,
				"z": 8.3642995719,
				"element": "C" 
			},
			{
				"x": 1.7243182799,
				"y": -3.0207607834,
				"z": 9.1443132048,
				"element": "C" 
			},
			{
				"x": 1.1193396208,
				"y": -3.9423817573,
				"z": 8.3378538149,
				"element": "C" 
			},
			{
				"x": 0.8626918855,
				"y": -3.4122044612,
				"z": 7.1163819606,
				"element": "O" 
			},
			{
				"x": 0.7022676185,
				"y": -0.0212496166,
				"z": 3.4311791003,
				"element": "N" 
			},
			{
				"x": 0.5043029256,
				"y": 0.6366971339,
				"z": 2.2495740069,
				"element": "C" 
			},
			{
				"x": -0.1116268685,
				"y": -0.049459603,
				"z": 1.1932510904,
				"element": "C" 
			},
			{
				"x": -0.3381955913,
				"y": 0.5720289766,
				"z": -0.0424154421,
				"element": "C" 
			},
			{
				"x": -0.9437458406,
				"y": -0.148906352,
				"z": -1.0343051528,
				"element": "N" 
			},
			{
				"x": 0.1142384512,
				"y": 2.8268329423,
				"z": -6.7245235745,
				"element": "H" 
			},
			{
				"x": -1.2641363653,
				"y": 1.5003773466,
				"z": -8.7028243967,
				"element": "H" 
			},
			{
				"x": -2.5833536312,
				"y": -0.4993157883,
				"z": -7.3768929547,
				"element": "H" 
			},
			{
				"x": -2.6124991739,
				"y": -1.3008605901,
				"z": -4.8872637814,
				"element": "H" 
			},
			{
				"x": -2.229259523,
				"y": -1.3385481675,
				"z": -2.6570822195,
				"element": "H" 
			},
			{
				"x": -1.0070920692,
				"y": 2.2144754116,
				"z": -3.450762256,
				"element": "H" 
			},
			{
				"x": 0.066553464,
				"y": 3.5650054644,
				"z": -1.6792350537,
				"element": "H" 
			},
			{
				"x": 0.982648513,
				"y": 3.6699186475,
				"z": 0.6818886691,
				"element": "H" 
			},
			{
				"x": 1.8473513812,
				"y": 3.7002927966,
				"z": 3.0563628555,
				"element": "H" 
			},
			{
				"x": 2.1851793749,
				"y": 2.4610706334,
				"z": 5.1852351517,
				"element": "H" 
			},
			{
				"x": 1.9727098138,
				"y": 0.4774852849,
				"z": 6.492334082,
				"element": "H" 
			},
			{
				"x": 0.6498725271,
				"y": -1.91010823,
				"z": 5.0898666896,
				"element": "H" 
			},
			{
				"x": 2.2835804405,
				"y": -0.8958345923,
				"z": 8.6745548105,
				"element": "H" 
			},
			{
				"x": 2.0400875941,
				"y": -3.16982645,
				"z": 10.1668289473,
				"element": "H" 
			},
			{
				"x": 0.8188814256,
				"y": -4.9689586143,
				"z": 8.4803662247,
				"element": "H" 
			},
			{
				"x": -0.4161840314,
				"y": -1.0801597656,
				"z": 1.3335659915,
				"element": "H" 
			}
		],
		 "valence_orbital": [ 
			{
				"type": "occ",
				"energy": -0.24831,
				"method": "rhf"
			},
			{
				"type": "occ",
				"energy": -0.24666,
				"method": "rhf"
			},
			{
				"type": "occ",
				"energy": -0.22097,
				"method": "rhf"
			},
			{
				"type": "occ",
				"energy": -0.19961,
				"method": "rhf"
			},
			{
				"type": "occ",
				"energy": -0.19335,
				"method": "rhf"
			},
			{
				"type": "unocc",
				"energy": -0.08217,
				"method": "rhf"
			},
			{
				"type": "unocc",
				"energy": -0.05598,
				"method": "rhf"
			},
			{
				"type": "unocc",
				"energy": -0.02541,
				"method": "rhf"
			},
			{
				"type": "unocc",
				"energy": -0.01083,
				"method": "rhf"
			},
			{
				"type": "unocc",
				"energy": 0.01465,
				"method": "rhf"
			}
		],
		"cosmo_sigma_profile": { 
			"-0.025": 0.0,
			"-0.024": 0.0,
			"-0.023": 0.0,
			"-0.022": 0.0,
			"-0.021": 0.0,
			"-0.02": 0.0,
			"-0.019": 0.0,
			"-0.018": 0.0,
			"-0.017": 0.0,
			"-0.016": 0.0,
			"-0.015": 0.0,
			"-0.014": 0.0,
			"-0.013": 0.0,
			"-0.012": 0.0,
			"-0.011": 0.0,
			"-0.01": 0.425725901665,
			"-0.009": 3.3747110293,
			"-0.008": 6.31544990079,
			"-0.007": 25.8860856913,
			"-0.006": 23.1603002683,
			"-0.005": 23.7908167714,
			"-0.004": 23.2779125485,
			"-0.003": 20.6388053188,
			"-0.002": 20.4796051424,
			"-0.001": 19.1165628298,
			"0.0": 23.8707897831,
			"0.001": 38.5397649466,
			"0.002": 58.8230406618,
			"0.003": 47.2503233801,
			"0.004": 32.907268018,
			"0.005": 14.5785561736,
			"0.006": 7.5410769286,
			"0.007": 4.95023541467,
			"0.008": 4.06609628247,
			"0.009": 3.49545819881,
			"0.01": 2.14430390305,
			"0.011": 2.20497377253,
			"0.012": 1.41037163289,
			"0.013": 0.949759798075,
			"0.014": 0.650991507779,
			"0.015": 0.495484843075,
			"0.016": 0.0702166667258,
			"0.017": 0.0,
			"0.018": 0.0,
			"0.019": 0.0,
			"0.02": 0.0,
			"0.021": 0.0,
			"0.022": 0.0,
			"0.023": 0.0,
			"0.024": 0.0,
			"0.025": 0.0
		}
	}
}
