{
	 "smiles": "BrC1=CC=CC=C1C#N", 
	 "Tm": 328.35, 
	 "num_atms": 13, 
	 "gaussian": { 
		 "optdone": 1, 
		 "sigma_profile": "yes", 
		 "theory": "DFT", 
		 "functional": "B3LYP", 
		 "basiset": "6-31G**", 
		 "properties": { 
			 "R2extent": 4094.1792, 
			 "electric_dipole_moment_norm": 5.05052242644, 
			 "electric_quadrupole_moment_norm": 11.7946468018, 
			 "total_energy": -2895.28954499, 
			 "HOMO_LUMO_gap": 0.19947, 
			 "cosmo_polarized_energy": -8.95, 
			 "cosmo_cavitation_energy": 20.73, 
			 "cosmo_dispersion_energy": -15.21, 
			 "cosmo_repulsion_energy": 1.24, 
			 "cosmo_total_nonelectrostatic_energy": 6.77, 
			 "SMD_solvation_energy": 3.82 
		},
		"coords": [
			{
				"x": -0.1029821074,
				"y": 3.9622371364,
				"z": 0.7134572899,
				"element": "Br" 
			},
			{
				"x": 0.3713645201,
				"y": 2.9165051538,
				"z": -0.799931623,
				"element": "C" 
			},
			{
				"x": -0.0389440827,
				"y": 3.3299984171,
				"z": -2.0653021884,
				"element": "C" 
			},
			{
				"x": 0.3014940462,
				"y": 2.5726857195,
				"z": -3.1864093959,
				"element": "C" 
			},
			{
				"x": 1.0511039958,
				"y": 1.4024047161,
				"z": -3.0488827247,
				"element": "C" 
			},
			{
				"x": 1.4612455447,
				"y": 0.9887300254,
				"z": -1.7861022072,
				"element": "C" 
			},
			{
				"x": 1.127371794,
				"y": 1.7396034455,
				"z": -0.6438497,
				"element": "C" 
			},
			{
				"x": 1.5673658307,
				"y": 1.282362639,
				"z": 0.6403352086,
				"element": "C" 
			},
			{
				"x": 1.9463030107,
				"y": 0.8722041585,
				"z": 1.6604096784,
				"element": "N" 
			},
			{
				"x": -0.6204835521,
				"y": 4.2388385856,
				"z": -2.1670414002,
				"element": "H" 
			},
			{
				"x": -0.0223009256,
				"y": 2.9020375121,
				"z": -4.1689860716,
				"element": "H" 
			},
			{
				"x": 1.3150818465,
				"y": 0.8144303639,
				"z": -3.921769391,
				"element": "H" 
			},
			{
				"x": 2.043980079,
				"y": 0.0823621272,
				"z": -1.6613274749,
				"element": "H" 
			}
		],
		 "valence_orbital": [ 
			{
				"type": "occ",
				"energy": -0.33739,
				"method": "rhf"
			},
			{
				"type": "occ",
				"energy": -0.3328,
				"method": "rhf"
			},
			{
				"type": "occ",
				"energy": -0.30013,
				"method": "rhf"
			},
			{
				"type": "occ",
				"energy": -0.27921,
				"method": "rhf"
			},
			{
				"type": "occ",
				"energy": -0.26248,
				"method": "rhf"
			},
			{
				"type": "unocc",
				"energy": -0.06301,
				"method": "rhf"
			},
			{
				"type": "unocc",
				"energy": -0.03658,
				"method": "rhf"
			},
			{
				"type": "unocc",
				"energy": -0.00943,
				"method": "rhf"
			},
			{
				"type": "unocc",
				"energy": 0.03112,
				"method": "rhf"
			},
			{
				"type": "unocc",
				"energy": 0.06819,
				"method": "rhf"
			}
		],
		"cosmo_sigma_profile": { 
			"-0.025": 0.0,
			"-0.024": 0.0,
			"-0.023": 0.0,
			"-0.022": 0.0,
			"-0.021": 0.0,
			"-0.02": 0.0,
			"-0.019": 0.0,
			"-0.018": 0.0,
			"-0.017": 0.0,
			"-0.016": 0.0,
			"-0.015": 0.0,
			"-0.014": 0.0,
			"-0.013": 0.0,
			"-0.012": 0.0,
			"-0.011": 0.0,
			"-0.01": 0.0,
			"-0.009": 0.57209519588,
			"-0.008": 6.56301826203,
			"-0.007": 9.69826520189,
			"-0.006": 10.0535896654,
			"-0.005": 8.37738238463,
			"-0.004": 7.7338397293,
			"-0.003": 9.07336964114,
			"-0.002": 11.6812981198,
			"-0.001": 13.6372760153,
			"0.0": 18.1772030937,
			"0.001": 17.5016310479,
			"0.002": 14.6590501334,
			"0.003": 12.33326755,
			"0.004": 6.75341332239,
			"0.005": 3.41072642697,
			"0.006": 2.51294221397,
			"0.007": 3.33987284626,
			"0.008": 3.69985097755,
			"0.009": 2.9791360536,
			"0.01": 3.32921990196,
			"0.011": 2.46556512323,
			"0.012": 2.28394754082,
			"0.013": 0.807198167825,
			"0.014": 0.0,
			"0.015": 0.0,
			"0.016": 0.0,
			"0.017": 0.0,
			"0.018": 0.0,
			"0.019": 0.0,
			"0.02": 0.0,
			"0.021": 0.0,
			"0.022": 0.0,
			"0.023": 0.0,
			"0.024": 0.0,
			"0.025": 0.0
		}
	}
}
