{
	 "smiles": "CCC(=O)N1N=CC2=C(O)N=CN=C12", 
	 "Tm": 534.15, 
	 "num_atms": 22, 
	 "gaussian": { 
		 "optdone": 1, 
		 "sigma_profile": "yes", 
		 "theory": "DFT", 
		 "functional": "B3LYP", 
		 "basiset": "6-31G**", 
		 "properties": { 
			 "R2extent": 2934.4231, 
			 "electric_dipole_moment_norm": 4.16084330275, 
			 "electric_quadrupole_moment_norm": 14.4100334698, 
			 "total_energy": -679.120974874, 
			 "HOMO_LUMO_gap": 0.19898, 
			 "cosmo_polarized_energy": -14.65, 
			 "cosmo_cavitation_energy": 26.8, 
			 "cosmo_dispersion_energy": -19.71, 
			 "cosmo_repulsion_energy": 1.55, 
			 "cosmo_total_nonelectrostatic_energy": 8.64, 
			 "SMD_solvation_energy": 3.42 
		},
		"coords": [
			{
				"x": -2.3359409298,
				"y": -0.0734917965,
				"z": -1.2836799551,
				"element": "C" 
			},
			{
				"x": -2.1757441706,
				"y": -0.8312548727,
				"z": 0.0483990301,
				"element": "C" 
			},
			{
				"x": -0.9116859576,
				"y": -1.6644371167,
				"z": 0.0701522095,
				"element": "C" 
			},
			{
				"x": -0.8771145653,
				"y": -2.8383258528,
				"z": -0.20443989,
				"element": "O" 
			},
			{
				"x": 0.3159289631,
				"y": -0.9835869613,
				"z": 0.4044233675,
				"element": "N" 
			},
			{
				"x": 1.4918894662,
				"y": -1.705555669,
				"z": 0.3402348647,
				"element": "N" 
			},
			{
				"x": 2.4573350647,
				"y": -0.8981981168,
				"z": 0.7056092683,
				"element": "C" 
			},
			{
				"x": 1.9536534896,
				"y": 0.3978533534,
				"z": 1.0315252742,
				"element": "C" 
			},
			{
				"x": 2.4192048092,
				"y": 1.6476917376,
				"z": 1.4686508878,
				"element": "C" 
			},
			{
				"x": 3.7236050389,
				"y": 1.8418840956,
				"z": 1.6941081846,
				"element": "O" 
			},
			{
				"x": 1.5790109546,
				"y": 2.6590156658,
				"z": 1.6669223303,
				"element": "N" 
			},
			{
				"x": 0.2710861646,
				"y": 2.4379860476,
				"z": 1.4329196349,
				"element": "C" 
			},
			{
				"x": -0.308270838,
				"y": 1.3140953866,
				"z": 1.0172602611,
				"element": "N" 
			},
			{
				"x": 0.5636673847,
				"y": 0.312267059,
				"z": 0.8270130793,
				"element": "C" 
			},
			{
				"x": -2.2928238609,
				"y": -0.7610123656,
				"z": -2.1334983312,
				"element": "H" 
			},
			{
				"x": -1.5588172756,
				"y": 0.6855547405,
				"z": -1.4038055997,
				"element": "H" 
			},
			{
				"x": -3.3042646209,
				"y": 0.4343657742,
				"z": -1.3045749976,
				"element": "H" 
			},
			{
				"x": -2.189148907,
				"y": -0.1190464377,
				"z": 0.8752986339,
				"element": "H" 
			},
			{
				"x": -2.9913164634,
				"y": -1.5479578914,
				"z": 0.17164092,
				"element": "H" 
			},
			{
				"x": 3.4795619255,
				"y": -1.2510457348,
				"z": 0.7283777149,
				"element": "H" 
			},
			{
				"x": 3.8197299334,
				"y": 2.7642308569,
				"z": 1.9857525683,
				"element": "H" 
			},
			{
				"x": -0.3880456052,
				"y": 3.2852680978,
				"z": 1.6059105444,
				"element": "H" 
			}
		],
		 "valence_orbital": [ 
			{
				"type": "occ",
				"energy": -0.30447,
				"method": "rhf"
			},
			{
				"type": "occ",
				"energy": -0.2877,
				"method": "rhf"
			},
			{
				"type": "occ",
				"energy": -0.2862,
				"method": "rhf"
			},
			{
				"type": "occ",
				"energy": -0.27046,
				"method": "rhf"
			},
			{
				"type": "occ",
				"energy": -0.26078,
				"method": "rhf"
			},
			{
				"type": "unocc",
				"energy": -0.0618,
				"method": "rhf"
			},
			{
				"type": "unocc",
				"energy": -0.04037,
				"method": "rhf"
			},
			{
				"type": "unocc",
				"energy": -0.00153,
				"method": "rhf"
			},
			{
				"type": "unocc",
				"energy": 0.04819,
				"method": "rhf"
			},
			{
				"type": "unocc",
				"energy": 0.06461,
				"method": "rhf"
			}
		],
		"cosmo_sigma_profile": { 
			"-0.025": 0.0,
			"-0.024": 0.0,
			"-0.023": 0.0,
			"-0.022": 0.0,
			"-0.021": 0.0,
			"-0.02": 0.0,
			"-0.019": 0.173230398742,
			"-0.018": 1.32072321407,
			"-0.017": 0.377365752976,
			"-0.016": 0.802146026514,
			"-0.015": 0.530834794965,
			"-0.014": 1.27689097047,
			"-0.013": 0.664045551944,
			"-0.012": 0.402047737314,
			"-0.011": 0.262640701611,
			"-0.01": 1.29065202311,
			"-0.009": 2.94956542118,
			"-0.008": 4.45526470844,
			"-0.007": 3.913438818,
			"-0.006": 5.1498384206,
			"-0.005": 8.51109575769,
			"-0.004": 18.9986745035,
			"-0.003": 25.0208645071,
			"-0.002": 26.294127359,
			"-0.001": 19.9031416064,
			"0.0": 15.9495911715,
			"0.001": 10.5235339781,
			"0.002": 6.71785921695,
			"0.003": 6.43998440934,
			"0.004": 5.66936238829,
			"0.005": 5.85721062613,
			"0.006": 5.97868649715,
			"0.007": 5.76690100494,
			"0.008": 5.63298876771,
			"0.009": 4.52447761091,
			"0.01": 4.48277209438,
			"0.011": 5.91244209481,
			"0.012": 3.6016878463,
			"0.013": 1.22429577886,
			"0.014": 1.70245682057,
			"0.015": 1.17928838264,
			"0.016": 0.98902597954,
			"0.017": 0.282072449301,
			"0.018": 0.0,
			"0.019": 0.0,
			"0.02": 0.0,
			"0.021": 0.0,
			"0.022": 0.0,
			"0.023": 0.0,
			"0.024": 0.0,
			"0.025": 0.0
		}
	}
}
