{
	 "smiles": "O=C(CSC1=NN=C(NCC2=CC=CC=C2)S1)NCC1CCCCC1", 
	 "Tm": 408.15, 
	 "num_atms": 49, 
	 "gaussian": { 
		 "optdone": 1, 
		 "sigma_profile": "yes", 
		 "theory": "DFT", 
		 "functional": "B3LYP", 
		 "basiset": "6-31G**", 
		 "properties": { 
			 "R2extent": 15225.4862, 
			 "electric_dipole_moment_norm": 6.97139927633, 
			 "electric_quadrupole_moment_norm": 16.2784870909, 
			 "total_energy": -1790.98673168, 
			 "HOMO_LUMO_gap": 0.18783, 
			 "cosmo_polarized_energy": -17.97, 
			 "cosmo_cavitation_energy": 53.18, 
			 "cosmo_dispersion_energy": -36.83, 
			 "cosmo_repulsion_energy": 2.75, 
			 "cosmo_total_nonelectrostatic_energy": 19.1, 
			 "SMD_solvation_energy": 5.68 
		},
		"coords": [
			{
				"x": 0.169162899,
				"y": -3.8367623504,
				"z": -3.3708042428,
				"element": "O" 
			},
			{
				"x": 0.083003691,
				"y": -2.7747451004,
				"z": -2.7617675783,
				"element": "C" 
			},
			{
				"x": -1.0441115612,
				"y": -2.5567969311,
				"z": -1.7420913023,
				"element": "C" 
			},
			{
				"x": -0.5235754782,
				"y": -2.6315035819,
				"z": 0.0265970971,
				"element": "S" 
			},
			{
				"x": -0.1058163992,
				"y": -0.945874859,
				"z": 0.3299150077,
				"element": "C" 
			},
			{
				"x": 0.1572551574,
				"y": -0.0449459047,
				"z": -0.5702236858,
				"element": "N" 
			},
			{
				"x": 0.464044608,
				"y": 1.1896978551,
				"z": -0.0560993359,
				"element": "N" 
			},
			{
				"x": 0.4287500151,
				"y": 1.2086866172,
				"z": 1.2510878234,
				"element": "C" 
			},
			{
				"x": 0.6791566807,
				"y": 2.3376160263,
				"z": 1.9818005361,
				"element": "N" 
			},
			{
				"x": 1.1150921484,
				"y": 2.3060778983,
				"z": 3.3768711543,
				"element": "C" 
			},
			{
				"x": 0.0013900169,
				"y": 1.9985386963,
				"z": 4.3656987031,
				"element": "C" 
			},
			{
				"x": -1.276303411,
				"y": 2.5504526358,
				"z": 4.2071762712,
				"element": "C" 
			},
			{
				"x": -2.272783677,
				"y": 2.3050583734,
				"z": 5.1510100645,
				"element": "C" 
			},
			{
				"x": -2.0037191748,
				"y": 1.5084252164,
				"z": 6.2668952123,
				"element": "C" 
			},
			{
				"x": -0.7339785541,
				"y": 0.9538383135,
				"z": 6.4306939971,
				"element": "C" 
			},
			{
				"x": 0.2614083746,
				"y": 1.1954546966,
				"z": 5.4818308398,
				"element": "C" 
			},
			{
				"x": -0.019414809,
				"y": -0.33629937,
				"z": 1.9874631006,
				"element": "S" 
			},
			{
				"x": 0.9093359065,
				"y": -1.7119027105,
				"z": -2.9347665792,
				"element": "N" 
			},
			{
				"x": 2.0899236281,
				"y": -1.7827224735,
				"z": -3.7879454543,
				"element": "C" 
			},
			{
				"x": 2.0373849328,
				"y": -1.0465717969,
				"z": -5.1461515371,
				"element": "C" 
			},
			{
				"x": 0.9449035581,
				"y": -1.5700658318,
				"z": -6.1105663238,
				"element": "C" 
			},
			{
				"x": -0.4478675199,
				"y": -0.9507235899,
				"z": -5.8966306694,
				"element": "C" 
			},
			{
				"x": -0.3925326068,
				"y": 0.5833630391,
				"z": -5.8747638529,
				"element": "C" 
			},
			{
				"x": 0.595772649,
				"y": 1.085697972,
				"z": -4.8125296457,
				"element": "C" 
			},
			{
				"x": 1.9985970581,
				"y": 0.4965008176,
				"z": -5.0390600718,
				"element": "C" 
			},
			{
				"x": -1.5590521875,
				"y": -1.6045338498,
				"z": -1.8924355211,
				"element": "H" 
			},
			{
				"x": -1.7477524381,
				"y": -3.3818963287,
				"z": -1.8568679162,
				"element": "H" 
			},
			{
				"x": 1.0504886084,
				"y": 3.0807445873,
				"z": 1.404353283,
				"element": "H" 
			},
			{
				"x": 1.9388777053,
				"y": 1.5914617362,
				"z": 3.519344714,
				"element": "H" 
			},
			{
				"x": 1.5239022004,
				"y": 3.3006813489,
				"z": 3.5869337273,
				"element": "H" 
			},
			{
				"x": -1.4868208963,
				"y": 3.1609618184,
				"z": 3.3339672167,
				"element": "H" 
			},
			{
				"x": -3.2611230021,
				"y": 2.7347798569,
				"z": 5.0152352632,
				"element": "H" 
			},
			{
				"x": -2.7814453987,
				"y": 1.3167784832,
				"z": 7.0003506224,
				"element": "H" 
			},
			{
				"x": -0.518928473,
				"y": 0.3263423647,
				"z": 7.2907319123,
				"element": "H" 
			},
			{
				"x": 1.2474183758,
				"y": 0.7545014799,
				"z": 5.60886413,
				"element": "H" 
			},
			{
				"x": 0.773480572,
				"y": -0.9110032836,
				"z": -2.320924706,
				"element": "H" 
			},
			{
				"x": 2.2690290814,
				"y": -2.8454166615,
				"z": -3.9731682805,
				"element": "H" 
			},
			{
				"x": 2.9427292447,
				"y": -1.3937536221,
				"z": -3.216050717,
				"element": "H" 
			},
			{
				"x": 3.0074968343,
				"y": -1.3026988498,
				"z": -5.5978781038,
				"element": "H" 
			},
			{
				"x": 0.8831374303,
				"y": -2.6616951807,
				"z": -6.0380210865,
				"element": "H" 
			},
			{
				"x": 1.264675816,
				"y": -1.3395289261,
				"z": -7.1367841787,
				"element": "H" 
			},
			{
				"x": -1.1213224696,
				"y": -1.294410201,
				"z": -6.6915537,
				"element": "H" 
			},
			{
				"x": -0.8748373224,
				"y": -1.3093618157,
				"z": -4.9539659966,
				"element": "H" 
			},
			{
				"x": -0.0771657225,
				"y": 0.9504815626,
				"z": -6.8628446403,
				"element": "H" 
			},
			{
				"x": -1.3914736192,
				"y": 0.9987090179,
				"z": -5.6933313189,
				"element": "H" 
			},
			{
				"x": 0.6537209268,
				"y": 2.1810542825,
				"z": -4.8343279307,
				"element": "H" 
			},
			{
				"x": 0.2245227719,
				"y": 0.8187265218,
				"z": -3.815767725,
				"element": "H" 
			},
			{
				"x": 2.6856372174,
				"y": 0.8320066202,
				"z": -4.2507252647,
				"element": "H" 
			},
			{
				"x": 2.3901266122,
				"y": 0.9100753809,
				"z": -5.9793733109,
				"element": "H" 
			}
		],
		 "valence_orbital": [ 
			{
				"type": "occ",
				"energy": -0.26256,
				"method": "rhf"
			},
			{
				"type": "occ",
				"energy": -0.25776,
				"method": "rhf"
			},
			{
				"type": "occ",
				"energy": -0.23951,
				"method": "rhf"
			},
			{
				"type": "occ",
				"energy": -0.23253,
				"method": "rhf"
			},
			{
				"type": "occ",
				"energy": -0.21838,
				"method": "rhf"
			},
			{
				"type": "unocc",
				"energy": -0.03055,
				"method": "rhf"
			},
			{
				"type": "unocc",
				"energy": -0.02503,
				"method": "rhf"
			},
			{
				"type": "unocc",
				"energy": -0.01414,
				"method": "rhf"
			},
			{
				"type": "unocc",
				"energy": -0.00728,
				"method": "rhf"
			},
			{
				"type": "unocc",
				"energy": 0.00546,
				"method": "rhf"
			}
		],
		"cosmo_sigma_profile": { 
			"-0.025": 0.0,
			"-0.024": 0.0,
			"-0.023": 0.0,
			"-0.022": 0.0,
			"-0.021": 0.0,
			"-0.02": 0.0,
			"-0.019": 0.0,
			"-0.018": 0.0,
			"-0.017": 0.0,
			"-0.016": 0.0,
			"-0.015": 0.601661538044,
			"-0.014": 1.37996648498,
			"-0.013": 1.23183472752,
			"-0.012": 0.986526054206,
			"-0.011": 0.697867416806,
			"-0.01": 1.57351798178,
			"-0.009": 1.41093140065,
			"-0.008": 3.24781460698,
			"-0.007": 5.88318203808,
			"-0.006": 14.4733168208,
			"-0.005": 23.0177128074,
			"-0.004": 27.0966197512,
			"-0.003": 29.6072589463,
			"-0.002": 40.2315699372,
			"-0.001": 49.9812005455,
			"0.0": 49.173619695,
			"0.001": 47.2025701758,
			"0.002": 32.2333202313,
			"0.003": 20.5605359883,
			"0.004": 16.6037106033,
			"0.005": 18.075800744,
			"0.006": 8.9323741412,
			"0.007": 3.38494554061,
			"0.008": 3.81127066463,
			"0.009": 2.33109918202,
			"0.01": 2.50990269226,
			"0.011": 2.42210071796,
			"0.012": 3.44146634209,
			"0.013": 3.47785238137,
			"0.014": 5.41804728941,
			"0.015": 0.971703755229,
			"0.016": 0.0,
			"0.017": 0.0,
			"0.018": 0.0,
			"0.019": 0.0,
			"0.02": 0.0,
			"0.021": 0.0,
			"0.022": 0.0,
			"0.023": 0.0,
			"0.024": 0.0,
			"0.025": 0.0
		}
	}
}
