{
	 "smiles": "C1COC=CC1", 
	 "Tm": 203.15, 
	 "num_atms": 14, 
	 "gaussian": { 
		 "optdone": 1, 
		 "sigma_profile": "yes", 
		 "theory": "DFT", 
		 "functional": "B3LYP", 
		 "basiset": "6-31G**", 
		 "properties": { 
			 "R2extent": 1326.7954, 
			 "electric_dipole_moment_norm": 1.25371704942, 
			 "electric_quadrupole_moment_norm": 4.64566260505, 
			 "total_energy": -270.550820614, 
			 "HOMO_LUMO_gap": 0.25406, 
			 "cosmo_polarized_energy": -3.47, 
			 "cosmo_cavitation_energy": 16.03, 
			 "cosmo_dispersion_energy": -12.6, 
			 "cosmo_repulsion_energy": 1.09, 
			 "cosmo_total_nonelectrostatic_energy": 4.52, 
			 "SMD_solvation_energy": 3.18 
		},
		"coords": [
			{
				"x": 1.1709143457,
				"y": 2.7492882985,
				"z": -1.7678048058,
				"element": "C" 
			},
			{
				"x": 2.1815243733,
				"y": 1.8422779167,
				"z": -1.0676933504,
				"element": "C" 
			},
			{
				"x": 1.5623106578,
				"y": 0.6789396545,
				"z": -0.5031745431,
				"element": "O" 
			},
			{
				"x": 0.3918089907,
				"y": 0.9220091806,
				"z": 0.1568872796,
				"element": "C" 
			},
			{
				"x": -0.3058389818,
				"y": 2.0632239287,
				"z": 0.1145611879,
				"element": "C" 
			},
			{
				"x": 0.1061507198,
				"y": 3.2188290343,
				"z": -0.7628296969,
				"element": "C" 
			},
			{
				"x": 1.6943241294,
				"y": 3.5969895334,
				"z": -2.2239224244,
				"element": "H" 
			},
			{
				"x": 0.6950067793,
				"y": 2.1842561688,
				"z": -2.5776311931,
				"element": "H" 
			},
			{
				"x": 2.9405943814,
				"y": 1.4652601651,
				"z": -1.7579073161,
				"element": "H" 
			},
			{
				"x": 2.6880154757,
				"y": 2.393180122,
				"z": -0.2612982964,
				"element": "H" 
			},
			{
				"x": 0.0836230391,
				"y": 0.0529794389,
				"z": 0.730568426,
				"element": "H" 
			},
			{
				"x": -1.2141738524,
				"y": 2.1335194831,
				"z": 0.7045353927,
				"element": "H" 
			},
			{
				"x": 0.4925541654,
				"y": 4.0520388692,
				"z": -0.1574860644,
				"element": "H" 
			},
			{
				"x": -0.7651142234,
				"y": 3.6177082062,
				"z": -1.2979045954,
				"element": "H" 
			}
		],
		 "valence_orbital": [ 
			{
				"type": "occ",
				"energy": -0.37138,
				"method": "rhf"
			},
			{
				"type": "occ",
				"energy": -0.33365,
				"method": "rhf"
			},
			{
				"type": "occ",
				"energy": -0.31894,
				"method": "rhf"
			},
			{
				"type": "occ",
				"energy": -0.3043,
				"method": "rhf"
			},
			{
				"type": "occ",
				"energy": -0.21028,
				"method": "rhf"
			},
			{
				"type": "unocc",
				"energy": 0.04378,
				"method": "rhf"
			},
			{
				"type": "unocc",
				"energy": 0.09418,
				"method": "rhf"
			},
			{
				"type": "unocc",
				"energy": 0.13153,
				"method": "rhf"
			},
			{
				"type": "unocc",
				"energy": 0.13805,
				"method": "rhf"
			},
			{
				"type": "unocc",
				"energy": 0.14447,
				"method": "rhf"
			}
		],
		"cosmo_sigma_profile": { 
			"-0.025": 0.0,
			"-0.024": 0.0,
			"-0.023": 0.0,
			"-0.022": 0.0,
			"-0.021": 0.0,
			"-0.02": 0.0,
			"-0.019": 0.0,
			"-0.018": 0.0,
			"-0.017": 0.0,
			"-0.016": 0.0,
			"-0.015": 0.0,
			"-0.014": 0.0,
			"-0.013": 0.0,
			"-0.012": 0.0,
			"-0.011": 0.0,
			"-0.01": 0.0,
			"-0.009": 0.0,
			"-0.008": 0.0,
			"-0.007": 0.324521906957,
			"-0.006": 1.94392627347,
			"-0.005": 4.2739587317,
			"-0.004": 11.4921435153,
			"-0.003": 19.9297997501,
			"-0.002": 18.8340470836,
			"-0.001": 15.2294306585,
			"0.0": 13.3557126658,
			"0.001": 6.3662496944,
			"0.002": 5.24767704133,
			"0.003": 4.24391064308,
			"0.004": 5.04041712895,
			"0.005": 4.40200637316,
			"0.006": 4.02101550063,
			"0.007": 3.39942972111,
			"0.008": 1.51474885124,
			"0.009": 1.12060590536,
			"0.01": 1.91604102331,
			"0.011": 1.45386861409,
			"0.012": 1.33638757042,
			"0.013": 0.0190598204452,
			"0.014": 0.0,
			"0.015": 0.0,
			"0.016": 0.0,
			"0.017": 0.0,
			"0.018": 0.0,
			"0.019": 0.0,
			"0.02": 0.0,
			"0.021": 0.0,
			"0.022": 0.0,
			"0.023": 0.0,
			"0.024": 0.0,
			"0.025": 0.0
		}
	}
}
