{
	 "smiles": "ClC(Cl)=C(C1=CC=C(Cl)C=C1)C1=CC=C(Cl)C=C1", 
	 "Tm": 362.15, 
	 "num_atms": 26, 
	 "gaussian": { 
		 "optdone": 1, 
		 "sigma_profile": "yes", 
		 "theory": "DFT", 
		 "functional": "B3LYP", 
		 "basiset": "6-31G**", 
		 "properties": { 
			 "R2extent": 8642.3338, 
			 "electric_dipole_moment_norm": 0.20784333042, 
			 "electric_quadrupole_moment_norm": 10.2614740671, 
			 "total_energy": -2379.05998556, 
			 "HOMO_LUMO_gap": 0.17682, 
			 "cosmo_polarized_energy": -6.59, 
			 "cosmo_cavitation_energy": 38.1, 
			 "cosmo_dispersion_energy": -26.85, 
			 "cosmo_repulsion_energy": 2.12, 
			 "cosmo_total_nonelectrostatic_energy": 13.38, 
			 "SMD_solvation_energy": 5.35 
		},
		"coords": [
			{
				"x": -3.9111859015,
				"y": 1.6708448735,
				"z": 0.1934472177,
				"element": "Cl" 
			},
			{
				"x": -2.8085037222,
				"y": 0.5723282847,
				"z": -0.5980223603,
				"element": "C" 
			},
			{
				"x": -3.4141823062,
				"y": 0.0241856169,
				"z": -2.14132744,
				"element": "Cl" 
			},
			{
				"x": -1.6235550686,
				"y": 0.1906271025,
				"z": -0.0766385185,
				"element": "C" 
			},
			{
				"x": -0.6515980592,
				"y": -0.6448291814,
				"z": -0.8436661398,
				"element": "C" 
			},
			{
				"x": -0.1362525506,
				"y": -1.8167431559,
				"z": -0.2667911205,
				"element": "C" 
			},
			{
				"x": 0.7950972661,
				"y": -2.601899871,
				"z": -0.9418832607,
				"element": "C" 
			},
			{
				"x": 1.2351139965,
				"y": -2.2004068876,
				"z": -2.2032593807,
				"element": "C" 
			},
			{
				"x": 2.4178405132,
				"y": -3.1771753915,
				"z": -3.0574920722,
				"element": "Cl" 
			},
			{
				"x": 0.7564839149,
				"y": -1.0305686345,
				"z": -2.7918633642,
				"element": "C" 
			},
			{
				"x": -0.1844809851,
				"y": -0.2612798159,
				"z": -2.1099409083,
				"element": "C" 
			},
			{
				"x": -1.2025234422,
				"y": 0.577502144,
				"z": 1.3032469376,
				"element": "C" 
			},
			{
				"x": 0.0498727399,
				"y": 1.1799310535,
				"z": 1.5040737865,
				"element": "C" 
			},
			{
				"x": 0.4862069746,
				"y": 1.5247973986,
				"z": 2.7809101991,
				"element": "C" 
			},
			{
				"x": -0.3305483482,
				"y": 1.2449775986,
				"z": 3.8765822031,
				"element": "C" 
			},
			{
				"x": 0.2154991419,
				"y": 1.6653708017,
				"z": 5.4914309286,
				"element": "Cl" 
			},
			{
				"x": -1.5699559714,
				"y": 0.6285614218,
				"z": 3.7093556496,
				"element": "C" 
			},
			{
				"x": -1.9989774116,
				"y": 0.300291165,
				"z": 2.4246688064,
				"element": "C" 
			},
			{
				"x": -0.4710168183,
				"y": -2.1199311536,
				"z": 0.7203027856,
				"element": "H" 
			},
			{
				"x": 1.1794473768,
				"y": -3.5120249462,
				"z": -0.4951496894,
				"element": "H" 
			},
			{
				"x": 1.1176899406,
				"y": -0.7245240566,
				"z": -3.7673236064,
				"element": "H" 
			},
			{
				"x": -0.5529457708,
				"y": 0.651637066,
				"z": -2.565453294,
				"element": "H" 
			},
			{
				"x": 0.68871264,
				"y": 1.3849537248,
				"z": 0.6507314792,
				"element": "H" 
			},
			{
				"x": 1.4493445953,
				"y": 2.0008649299,
				"z": 2.9270143758,
				"element": "H" 
			},
			{
				"x": -2.1880311723,
				"y": 0.4055058992,
				"z": 4.5718432826,
				"element": "H" 
			},
			{
				"x": -2.9608515714,
				"y": -0.1840959868,
				"z": 2.2949035031,
				"element": "H" 
			}
		],
		 "valence_orbital": [ 
			{
				"type": "occ",
				"energy": -0.28146,
				"method": "rhf"
			},
			{
				"type": "occ",
				"energy": -0.27574,
				"method": "rhf"
			},
			{
				"type": "occ",
				"energy": -0.27151,
				"method": "rhf"
			},
			{
				"type": "occ",
				"energy": -0.26079,
				"method": "rhf"
			},
			{
				"type": "occ",
				"energy": -0.23252,
				"method": "rhf"
			},
			{
				"type": "unocc",
				"energy": -0.0557,
				"method": "rhf"
			},
			{
				"type": "unocc",
				"energy": -0.03616,
				"method": "rhf"
			},
			{
				"type": "unocc",
				"energy": -0.02849,
				"method": "rhf"
			},
			{
				"type": "unocc",
				"energy": -0.01932,
				"method": "rhf"
			},
			{
				"type": "unocc",
				"energy": 0.00046,
				"method": "rhf"
			}
		],
		"cosmo_sigma_profile": { 
			"-0.025": 0.0,
			"-0.024": 0.0,
			"-0.023": 0.0,
			"-0.022": 0.0,
			"-0.021": 0.0,
			"-0.02": 0.0,
			"-0.019": 0.0,
			"-0.018": 0.0,
			"-0.017": 0.0,
			"-0.016": 0.0,
			"-0.015": 0.0,
			"-0.014": 0.0,
			"-0.013": 0.0,
			"-0.012": 0.0,
			"-0.011": 0.0,
			"-0.01": 0.0,
			"-0.009": 0.0,
			"-0.008": 1.64198014015,
			"-0.007": 11.3947664684,
			"-0.006": 14.6671123342,
			"-0.005": 16.7046836313,
			"-0.004": 15.0873059262,
			"-0.003": 18.431955535,
			"-0.002": 20.0108196237,
			"-0.001": 21.2741420347,
			"0.0": 28.447062162,
			"0.001": 35.6939066805,
			"0.002": 41.7241337833,
			"0.003": 50.5883675385,
			"0.004": 30.7673736482,
			"0.005": 9.18522354903,
			"0.006": 0.0,
			"0.007": 0.0,
			"0.008": 0.0,
			"0.009": 0.0,
			"0.01": 0.0,
			"0.011": 0.0,
			"0.012": 0.0,
			"0.013": 0.0,
			"0.014": 0.0,
			"0.015": 0.0,
			"0.016": 0.0,
			"0.017": 0.0,
			"0.018": 0.0,
			"0.019": 0.0,
			"0.02": 0.0,
			"0.021": 0.0,
			"0.022": 0.0,
			"0.023": 0.0,
			"0.024": 0.0,
			"0.025": 0.0
		}
	}
}
