{
	 "smiles": "CCOC1=CC=C(C=C(C#N)C(O)=O)C=C1", 
	 "Tm": 502.15, 
	 "num_atms": 27, 
	 "gaussian": { 
		 "optdone": 1, 
		 "sigma_profile": "yes", 
		 "theory": "DFT", 
		 "functional": "B3LYP", 
		 "basiset": "6-31G**", 
		 "properties": { 
			 "R2extent": 5769.6112, 
			 "electric_dipole_moment_norm": 9.07605167956, 
			 "electric_quadrupole_moment_norm": 33.5132403647, 
			 "total_energy": -744.300555912, 
			 "HOMO_LUMO_gap": 0.14324, 
			 "cosmo_polarized_energy": -19.34, 
			 "cosmo_cavitation_energy": 33.2, 
			 "cosmo_dispersion_energy": -23.43, 
			 "cosmo_repulsion_energy": 1.86, 
			 "cosmo_total_nonelectrostatic_energy": 11.62, 
			 "SMD_solvation_energy": 8.67 
		},
		"coords": [
			{
				"x": 2.2880113387,
				"y": 1.9060185207,
				"z": -4.3283843483,
				"element": "C" 
			},
			{
				"x": 1.5470784487,
				"y": 1.7664613146,
				"z": -3.0110266796,
				"element": "C" 
			},
			{
				"x": 1.6235314207,
				"y": 0.3903513059,
				"z": -2.6185803505,
				"element": "O" 
			},
			{
				"x": 1.029468498,
				"y": -0.0052596983,
				"z": -1.4688936789,
				"element": "C" 
			},
			{
				"x": 1.1589678799,
				"y": -1.3684436056,
				"z": -1.1496958818,
				"element": "C" 
			},
			{
				"x": 0.5936052947,
				"y": -1.8606093269,
				"z": 0.011328961,
				"element": "C" 
			},
			{
				"x": -0.1543508797,
				"y": -1.0348799709,
				"z": 0.8863888243,
				"element": "C" 
			},
			{
				"x": -0.6732900384,
				"y": -1.6645597191,
				"z": 2.0894920792,
				"element": "C" 
			},
			{
				"x": -1.6484125491,
				"y": -1.3622657479,
				"z": 3.0019295151,
				"element": "C" 
			},
			{
				"x": -1.744990998,
				"y": -2.2296607395,
				"z": 4.1437618641,
				"element": "C" 
			},
			{
				"x": -1.7891341243,
				"y": -2.9600351368,
				"z": 5.0482684394,
				"element": "N" 
			},
			{
				"x": -2.6818367714,
				"y": -0.2903416983,
				"z": 3.0041636761,
				"element": "C" 
			},
			{
				"x": -2.8707542619,
				"y": 0.3098713906,
				"z": 1.8038630865,
				"element": "O" 
			},
			{
				"x": -3.3460796681,
				"y": -0.0044848878,
				"z": 3.9780554995,
				"element": "O" 
			},
			{
				"x": -0.2554716271,
				"y": 0.3303397472,
				"z": 0.5560604905,
				"element": "C" 
			},
			{
				"x": 0.3273811622,
				"y": 0.8433078144,
				"z": -0.5968783751,
				"element": "C" 
			},
			{
				"x": 1.8314208123,
				"y": 1.2763074294,
				"z": -5.0967773932,
				"element": "H" 
			},
			{
				"x": 2.2551853324,
				"y": 2.9459689253,
				"z": -4.6667627078,
				"element": "H" 
			},
			{
				"x": 3.3346503961,
				"y": 1.6104986861,
				"z": -4.2158853732,
				"element": "H" 
			},
			{
				"x": 0.4944746626,
				"y": 2.0613512839,
				"z": -3.116884511,
				"element": "H" 
			},
			{
				"x": 2.0008771204,
				"y": 2.3968839481,
				"z": -2.2345698954,
				"element": "H" 
			},
			{
				"x": 1.7176631725,
				"y": -2.0088643934,
				"z": -1.8235891303,
				"element": "H" 
			},
			{
				"x": 0.7153527852,
				"y": -2.9129979463,
				"z": 0.2535413549,
				"element": "H" 
			},
			{
				"x": -0.149367284,
				"y": -2.5896283414,
				"z": 2.3268974904,
				"element": "H" 
			},
			{
				"x": -3.592712796,
				"y": 0.9449749608,
				"z": 1.9470246104,
				"element": "H" 
			},
			{
				"x": -0.7839368942,
				"y": 1.0047223316,
				"z": 1.2147466511,
				"element": "H" 
			},
			{
				"x": 0.2374695676,
				"y": 1.9021735534,
				"z": -0.8061942177,
				"element": "H" 
			}
		],
		 "valence_orbital": [ 
			{
				"type": "occ",
				"energy": -0.32041,
				"method": "rhf"
			},
			{
				"type": "occ",
				"energy": -0.28934,
				"method": "rhf"
			},
			{
				"type": "occ",
				"energy": -0.28756,
				"method": "rhf"
			},
			{
				"type": "occ",
				"energy": -0.27373,
				"method": "rhf"
			},
			{
				"type": "occ",
				"energy": -0.23073,
				"method": "rhf"
			},
			{
				"type": "unocc",
				"energy": -0.08749,
				"method": "rhf"
			},
			{
				"type": "unocc",
				"energy": -0.02137,
				"method": "rhf"
			},
			{
				"type": "unocc",
				"energy": 0.00601,
				"method": "rhf"
			},
			{
				"type": "unocc",
				"energy": 0.03002,
				"method": "rhf"
			},
			{
				"type": "unocc",
				"energy": 0.04652,
				"method": "rhf"
			}
		],
		"cosmo_sigma_profile": { 
			"-0.025": 0.0,
			"-0.024": 0.0,
			"-0.023": 0.0,
			"-0.022": 0.0,
			"-0.021": 0.0,
			"-0.02": 0.0,
			"-0.019": 0.281745236904,
			"-0.018": 0.93498155284,
			"-0.017": 0.976115932067,
			"-0.016": 0.839003073382,
			"-0.015": 0.861611561522,
			"-0.014": 0.435615250911,
			"-0.013": 0.301735846697,
			"-0.012": 1.27289293995,
			"-0.011": 0.929410107543,
			"-0.01": 0.976326570331,
			"-0.009": 3.21360116094,
			"-0.008": 3.84295444176,
			"-0.007": 7.50543900989,
			"-0.006": 13.8562750096,
			"-0.005": 19.1238323462,
			"-0.004": 21.7547597033,
			"-0.003": 20.3195907071,
			"-0.002": 19.4156850312,
			"-0.001": 20.1450993541,
			"0.0": 17.0229195712,
			"0.001": 15.6296900394,
			"0.002": 15.3662194771,
			"0.003": 16.6864773355,
			"0.004": 9.18987370659,
			"0.005": 5.79421130981,
			"0.006": 6.34444124575,
			"0.007": 6.91589366984,
			"0.008": 8.12607466211,
			"0.009": 6.67989965098,
			"0.01": 6.4647576987,
			"0.011": 8.07602438821,
			"0.012": 4.25220253791,
			"0.013": 1.89983696764,
			"0.014": 0.277497330004,
			"0.015": 0.0,
			"0.016": 0.0,
			"0.017": 0.0,
			"0.018": 0.0,
			"0.019": 0.0,
			"0.02": 0.0,
			"0.021": 0.0,
			"0.022": 0.0,
			"0.023": 0.0,
			"0.024": 0.0,
			"0.025": 0.0
		}
	}
}
