{
	 "smiles": "CCCCCCCC(=O)C1=CC=CC=C1", 
	 "Tm": 295.95, 
	 "num_atms": 35, 
	 "gaussian": { 
		 "optdone": 1, 
		 "sigma_profile": "yes", 
		 "theory": "DFT", 
		 "functional": "B3LYP", 
		 "basiset": "6-31G**", 
		 "properties": { 
			 "R2extent": 6004.0204, 
			 "electric_dipole_moment_norm": 2.70626950801, 
			 "electric_quadrupole_moment_norm": 10.260925488, 
			 "total_energy": -620.791570367, 
			 "HOMO_LUMO_gap": 0.19278, 
			 "cosmo_polarized_energy": -7.91, 
			 "cosmo_cavitation_energy": 36.98, 
			 "cosmo_dispersion_energy": -26.06, 
			 "cosmo_repulsion_energy": 2.08, 
			 "cosmo_total_nonelectrostatic_energy": 13.0, 
			 "SMD_solvation_energy": 6.01 
		},
		"coords": [
			{
				"x": -2.3707942482,
				"y": 4.3042588165,
				"z": -3.0227815431,
				"element": "C" 
			},
			{
				"x": -1.1542836408,
				"y": 3.7405165877,
				"z": -2.2784275951,
				"element": "C" 
			},
			{
				"x": -0.6768244583,
				"y": 2.3663778475,
				"z": -2.7791103627,
				"element": "C" 
			},
			{
				"x": -1.6686135741,
				"y": 1.2197667926,
				"z": -2.5327864544,
				"element": "C" 
			},
			{
				"x": -1.1986264766,
				"y": -0.1512112559,
				"z": -3.053977098,
				"element": "C" 
			},
			{
				"x": 0.0663185255,
				"y": -0.7320271442,
				"z": -2.3995334239,
				"element": "C" 
			},
			{
				"x": -0.0946445292,
				"y": -1.0430964568,
				"z": -0.9094080463,
				"element": "C" 
			},
			{
				"x": 1.1383083252,
				"y": -1.6962425012,
				"z": -0.2931644939,
				"element": "C" 
			},
			{
				"x": 2.1347023688,
				"y": -1.9161700173,
				"z": -0.9665818334,
				"element": "O" 
			},
			{
				"x": 1.110812897,
				"y": -2.0660050807,
				"z": 1.1630036336,
				"element": "C" 
			},
			{
				"x": 2.2566991184,
				"y": -2.6638178862,
				"z": 1.7117196933,
				"element": "C" 
			},
			{
				"x": 2.2905708667,
				"y": -3.0280375221,
				"z": 3.0542331356,
				"element": "C" 
			},
			{
				"x": 1.1772221797,
				"y": -2.7994144892,
				"z": 3.8687867258,
				"element": "C" 
			},
			{
				"x": 0.0323592307,
				"y": -2.2057070023,
				"z": 3.3340794887,
				"element": "C" 
			},
			{
				"x": -0.0016747787,
				"y": -1.8404141664,
				"z": 1.988143944,
				"element": "C" 
			},
			{
				"x": -2.1712216956,
				"y": 4.3861313454,
				"z": -4.0977293956,
				"element": "H" 
			},
			{
				"x": -3.2571330693,
				"y": 3.6737302538,
				"z": -2.8985237409,
				"element": "H" 
			},
			{
				"x": -2.6274432128,
				"y": 5.3038595656,
				"z": -2.6565837385,
				"element": "H" 
			},
			{
				"x": -0.3238701406,
				"y": 4.4525519388,
				"z": -2.3672483806,
				"element": "H" 
			},
			{
				"x": -1.3810277696,
				"y": 3.6745451019,
				"z": -1.2050940135,
				"element": "H" 
			},
			{
				"x": 0.2786439984,
				"y": 2.1336945266,
				"z": -2.2923816253,
				"element": "H" 
			},
			{
				"x": -0.4597129267,
				"y": 2.4294457039,
				"z": -3.8555089508,
				"element": "H" 
			},
			{
				"x": -2.6245428416,
				"y": 1.454358304,
				"z": -3.0169534348,
				"element": "H" 
			},
			{
				"x": -1.8889052235,
				"y": 1.159429937,
				"z": -1.4573997617,
				"element": "H" 
			},
			{
				"x": -1.0215981054,
				"y": -0.0713094994,
				"z": -4.1349831196,
				"element": "H" 
			},
			{
				"x": -2.0203505646,
				"y": -0.8716273397,
				"z": -2.9374082556,
				"element": "H" 
			},
			{
				"x": 0.3468473203,
				"y": -1.654758728,
				"z": -2.9186347431,
				"element": "H" 
			},
			{
				"x": 0.917567984,
				"y": -0.0563976685,
				"z": -2.5342797371,
				"element": "H" 
			},
			{
				"x": -0.3183445236,
				"y": -0.1334866629,
				"z": -0.3358747028,
				"element": "H" 
			},
			{
				"x": -0.9561889694,
				"y": -1.7070815113,
				"z": -0.7470938451,
				"element": "H" 
			},
			{
				"x": 3.1069776947,
				"y": -2.8304397782,
				"z": 1.0588711082,
				"element": "H" 
			},
			{
				"x": 3.1819825689,
				"y": -3.489882822,
				"z": 3.4689146235,
				"element": "H" 
			},
			{
				"x": 1.2023532794,
				"y": -3.0833410453,
				"z": 4.9171181482,
				"element": "H" 
			},
			{
				"x": -0.8337570667,
				"y": -2.0271317987,
				"z": 3.9646458732,
				"element": "H" 
			},
			{
				"x": -0.8986085425,
				"y": -1.3800663448,
				"z": 1.5869519217,
				"element": "H" 
			}
		],
		 "valence_orbital": [ 
			{
				"type": "occ",
				"energy": -0.31046,
				"method": "rhf"
			},
			{
				"type": "occ",
				"energy": -0.30332,
				"method": "rhf"
			},
			{
				"type": "occ",
				"energy": -0.25994,
				"method": "rhf"
			},
			{
				"type": "occ",
				"energy": -0.25653,
				"method": "rhf"
			},
			{
				"type": "occ",
				"energy": -0.24558,
				"method": "rhf"
			},
			{
				"type": "unocc",
				"energy": -0.0528,
				"method": "rhf"
			},
			{
				"type": "unocc",
				"energy": -0.0084,
				"method": "rhf"
			},
			{
				"type": "unocc",
				"energy": 0.04139,
				"method": "rhf"
			},
			{
				"type": "unocc",
				"energy": 0.07702,
				"method": "rhf"
			},
			{
				"type": "unocc",
				"energy": 0.09189,
				"method": "rhf"
			}
		],
		"cosmo_sigma_profile": { 
			"-0.025": 0.0,
			"-0.024": 0.0,
			"-0.023": 0.0,
			"-0.022": 0.0,
			"-0.021": 0.0,
			"-0.02": 0.0,
			"-0.019": 0.0,
			"-0.018": 0.0,
			"-0.017": 0.0,
			"-0.016": 0.0,
			"-0.015": 0.0,
			"-0.014": 0.0,
			"-0.013": 0.0,
			"-0.012": 0.0,
			"-0.011": 0.0,
			"-0.01": 0.0,
			"-0.009": 0.0,
			"-0.008": 0.0,
			"-0.007": 0.968291051979,
			"-0.006": 9.28402851146,
			"-0.005": 16.1767719488,
			"-0.004": 16.9110736709,
			"-0.003": 17.4260116892,
			"-0.002": 35.6803445342,
			"-0.001": 39.4540969344,
			"0.0": 41.348217676,
			"0.001": 40.5771620732,
			"0.002": 21.4451098674,
			"0.003": 12.2733660469,
			"0.004": 13.7851231439,
			"0.005": 6.4643885709,
			"0.006": 2.17614611862,
			"0.007": 1.56086205606,
			"0.008": 1.30941323206,
			"0.009": 2.17177614459,
			"0.01": 2.06277873188,
			"0.011": 2.42146489772,
			"0.012": 3.7285069444,
			"0.013": 1.62453922858,
			"0.014": 0.0779876078931,
			"0.015": 0.0,
			"0.016": 0.0,
			"0.017": 0.0,
			"0.018": 0.0,
			"0.019": 0.0,
			"0.02": 0.0,
			"0.021": 0.0,
			"0.022": 0.0,
			"0.023": 0.0,
			"0.024": 0.0,
			"0.025": 0.0
		}
	}
}
