{
	 "smiles": "COC1=C(OCC2=CC=C(Br)C=C2)C=CC(=C1)C(O)=O", 
	 "Tm": 498.15, 
	 "num_atms": 33, 
	 "gaussian": { 
		 "optdone": 1, 
		 "sigma_profile": "yes", 
		 "theory": "DFT", 
		 "functional": "B3LYP", 
		 "basiset": "6-31G**", 
		 "properties": { 
			 "R2extent": 13657.1067, 
			 "electric_dipole_moment_norm": 3.87545148209, 
			 "electric_quadrupole_moment_norm": 37.9698178681, 
			 "total_energy": -3451.7106197, 
			 "HOMO_LUMO_gap": 0.193, 
			 "cosmo_polarized_energy": -17.38, 
			 "cosmo_cavitation_energy": 40.78, 
			 "cosmo_dispersion_energy": -28.84, 
			 "cosmo_repulsion_energy": 2.23, 
			 "cosmo_total_nonelectrostatic_energy": 14.17, 
			 "SMD_solvation_energy": 7.6 
		},
		"coords": [
			{
				"x": 1.8299308912,
				"y": -1.4223739627,
				"z": 2.162415077,
				"element": "C" 
			},
			{
				"x": 1.5031539814,
				"y": -0.0908840739,
				"z": 2.5931323734,
				"element": "O" 
			},
			{
				"x": 0.1640276674,
				"y": 0.2175465814,
				"z": 2.5724400153,
				"element": "C" 
			},
			{
				"x": -0.5511322013,
				"y": 0.343751532,
				"z": 1.364317408,
				"element": "C" 
			},
			{
				"x": 0.0498225191,
				"y": 0.1217941705,
				"z": 0.1497794418,
				"element": "O" 
			},
			{
				"x": 1.0558928042,
				"y": 1.0818295338,
				"z": -0.2309388977,
				"element": "C" 
			},
			{
				"x": 1.6136464722,
				"y": 0.7007836545,
				"z": -1.5796683511,
				"element": "C" 
			},
			{
				"x": 0.8119091877,
				"y": 0.08919347,
				"z": -2.5505356213,
				"element": "C" 
			},
			{
				"x": 1.3259710674,
				"y": -0.2198220788,
				"z": -3.8093479972,
				"element": "C" 
			},
			{
				"x": 2.6525100301,
				"y": 0.0954349025,
				"z": -4.1000508227,
				"element": "C" 
			},
			{
				"x": 3.3633956721,
				"y": -0.3227401314,
				"z": -5.8246979927,
				"element": "Br" 
			},
			{
				"x": 3.4703211465,
				"y": 0.7049588475,
				"z": -3.1509884947,
				"element": "C" 
			},
			{
				"x": 2.9445656429,
				"y": 0.9980831491,
				"z": -1.892368634,
				"element": "C" 
			},
			{
				"x": -1.9153716713,
				"y": 0.6449289534,
				"z": 1.3978902709,
				"element": "C" 
			},
			{
				"x": -2.5660311134,
				"y": 0.8477608908,
				"z": 2.6104699456,
				"element": "C" 
			},
			{
				"x": -1.8512745161,
				"y": 0.7779171922,
				"z": 3.8130443187,
				"element": "C" 
			},
			{
				"x": -0.4893562099,
				"y": 0.4457258255,
				"z": 3.7823850823,
				"element": "C" 
			},
			{
				"x": -2.6010527359,
				"y": 1.0182025455,
				"z": 5.0875188045,
				"element": "C" 
			},
			{
				"x": -1.8601839891,
				"y": 1.3402133094,
				"z": 6.1825884498,
				"element": "O" 
			},
			{
				"x": -3.8041084215,
				"y": 0.9406275403,
				"z": 5.1745852257,
				"element": "O" 
			},
			{
				"x": 1.3511696771,
				"y": -2.1644075933,
				"z": 2.81232567,
				"element": "H" 
			},
			{
				"x": 1.5252586671,
				"y": -1.5920615963,
				"z": 1.1257283907,
				"element": "H" 
			},
			{
				"x": 2.9141774449,
				"y": -1.5102477367,
				"z": 2.249535786,
				"element": "H" 
			},
			{
				"x": 1.8498754858,
				"y": 1.1156312631,
				"z": 0.5222858348,
				"element": "H" 
			},
			{
				"x": 0.5865441303,
				"y": 2.0759555969,
				"z": -0.2723446145,
				"element": "H" 
			},
			{
				"x": -0.2168583309,
				"y": -0.1590100939,
				"z": -2.3131069938,
				"element": "H" 
			},
			{
				"x": 0.7035999134,
				"y": -0.6990602786,
				"z": -4.5565305425,
				"element": "H" 
			},
			{
				"x": 4.5024072085,
				"y": 0.9376979178,
				"z": -3.3868728928,
				"element": "H" 
			},
			{
				"x": 3.5849783805,
				"y": 1.4631174568,
				"z": -1.1469528178,
				"element": "H" 
			},
			{
				"x": -2.4472438846,
				"y": 0.7180143656,
				"z": 0.4546982415,
				"element": "H" 
			},
			{
				"x": -3.6251341861,
				"y": 1.0764586087,
				"z": 2.6481960611,
				"element": "H" 
			},
			{
				"x": 0.0949508596,
				"y": 0.3094318738,
				"z": 4.6884660952,
				"element": "H" 
			},
			{
				"x": -0.9471615893,
				"y": 1.5275483645,
				"z": 5.9245021805,
				"element": "H" 
			}
		],
		 "valence_orbital": [ 
			{
				"type": "occ",
				"energy": -0.27491,
				"method": "rhf"
			},
			{
				"type": "occ",
				"energy": -0.27028,
				"method": "rhf"
			},
			{
				"type": "occ",
				"energy": -0.26654,
				"method": "rhf"
			},
			{
				"type": "occ",
				"energy": -0.25043,
				"method": "rhf"
			},
			{
				"type": "occ",
				"energy": -0.24488,
				"method": "rhf"
			},
			{
				"type": "unocc",
				"energy": -0.05188,
				"method": "rhf"
			},
			{
				"type": "unocc",
				"energy": -0.02394,
				"method": "rhf"
			},
			{
				"type": "unocc",
				"energy": -0.02325,
				"method": "rhf"
			},
			{
				"type": "unocc",
				"energy": -0.02127,
				"method": "rhf"
			},
			{
				"type": "unocc",
				"energy": 0.00321,
				"method": "rhf"
			}
		],
		"cosmo_sigma_profile": { 
			"-0.025": 0.0,
			"-0.024": 0.0,
			"-0.023": 0.0,
			"-0.022": 0.0,
			"-0.021": 0.0,
			"-0.02": 0.0,
			"-0.019": 0.258691386077,
			"-0.018": 0.691979838767,
			"-0.017": 1.01487235156,
			"-0.016": 1.01282750856,
			"-0.015": 1.04200043726,
			"-0.014": 0.853764466933,
			"-0.013": 0.802642712564,
			"-0.012": 1.45215093061,
			"-0.011": 1.43989671687,
			"-0.01": 1.08419843567,
			"-0.009": 1.37599272266,
			"-0.008": 1.27650531588,
			"-0.007": 7.819194137,
			"-0.006": 16.6285224905,
			"-0.005": 20.9126912749,
			"-0.004": 24.1924276668,
			"-0.003": 26.6115219185,
			"-0.002": 25.4588209483,
			"-0.001": 21.203802314,
			"0.0": 20.6165571678,
			"0.001": 24.3120964897,
			"0.002": 28.9632076114,
			"0.003": 28.8796291048,
			"0.004": 23.8378991945,
			"0.005": 12.4843312824,
			"0.006": 4.57029365141,
			"0.007": 3.84945574715,
			"0.008": 4.30784933027,
			"0.009": 4.34901155597,
			"0.01": 5.80094492893,
			"0.011": 5.63350004312,
			"0.012": 5.15529835386,
			"0.013": 1.59724020951,
			"0.014": 0.0802396727364,
			"0.015": 0.0,
			"0.016": 0.0,
			"0.017": 0.0,
			"0.018": 0.0,
			"0.019": 0.0,
			"0.02": 0.0,
			"0.021": 0.0,
			"0.022": 0.0,
			"0.023": 0.0,
			"0.024": 0.0,
			"0.025": 0.0
		}
	}
}
