{
	 "smiles": "BrC1=CC=C(C=C1)C1=NC(=C(N1)C1=CC=CC=C1)C1=CC=CC=C1", 
	 "Tm": 529.15, 
	 "num_atms": 39, 
	 "gaussian": { 
		 "optdone": 1, 
		 "sigma_profile": "yes", 
		 "theory": "DFT", 
		 "functional": "B3LYP", 
		 "basiset": "6-31G**", 
		 "properties": { 
			 "R2extent": 17453.5898, 
			 "electric_dipole_moment_norm": 3.72398296049, 
			 "electric_quadrupole_moment_norm": 10.5742497653, 
			 "total_energy": -3490.20856468, 
			 "HOMO_LUMO_gap": 0.14873, 
			 "cosmo_polarized_energy": -15.15, 
			 "cosmo_cavitation_energy": 45.93, 
			 "cosmo_dispersion_energy": -32.98, 
			 "cosmo_repulsion_energy": 2.48, 
			 "cosmo_total_nonelectrostatic_energy": 15.44, 
			 "SMD_solvation_energy": 4.72 
		},
		"coords": [
			{
				"x": -5.5571387134,
				"y": -2.2240912958,
				"z": 5.3915264737,
				"element": "Br" 
			},
			{
				"x": -4.2427924507,
				"y": -1.9352560189,
				"z": 4.0358878802,
				"element": "C" 
			},
			{
				"x": -3.4809171288,
				"y": -0.7687137017,
				"z": 4.0566294138,
				"element": "C" 
			},
			{
				"x": -2.5233565406,
				"y": -0.5631177215,
				"z": 3.0656248363,
				"element": "C" 
			},
			{
				"x": -2.3137574851,
				"y": -1.5136985153,
				"z": 2.0533493539,
				"element": "C" 
			},
			{
				"x": -3.0999071005,
				"y": -2.6793367166,
				"z": 2.0542036228,
				"element": "C" 
			},
			{
				"x": -4.0598853094,
				"y": -2.8929362051,
				"z": 3.0370577582,
				"element": "C" 
			},
			{
				"x": -1.3135045567,
				"y": -1.3376043336,
				"z": 1.000604031,
				"element": "C" 
			},
			{
				"x": -1.1530040746,
				"y": -2.1361245379,
				"z": -0.0412024744,
				"element": "N" 
			},
			{
				"x": -0.1124515175,
				"y": -1.6247591801,
				"z": -0.7823123498,
				"element": "C" 
			},
			{
				"x": 0.3913387532,
				"y": -0.47877949,
				"z": -0.1634121628,
				"element": "C" 
			},
			{
				"x": -0.4082216238,
				"y": -0.3097466967,
				"z": 0.953983807,
				"element": "N" 
			},
			{
				"x": 1.5082751572,
				"y": 0.4379344541,
				"z": -0.4232706736,
				"element": "C" 
			},
			{
				"x": 2.7506719395,
				"y": -0.0395874026,
				"z": -0.8792134954,
				"element": "C" 
			},
			{
				"x": 3.8148857289,
				"y": 0.8354355216,
				"z": -1.0827745947,
				"element": "C" 
			},
			{
				"x": 3.6687453861,
				"y": 2.2011213798,
				"z": -0.8243922285,
				"element": "C" 
			},
			{
				"x": 2.4433780504,
				"y": 2.6870863068,
				"z": -0.3661444352,
				"element": "C" 
			},
			{
				"x": 1.3721095471,
				"y": 1.8159035089,
				"z": -0.1713923952,
				"element": "C" 
			},
			{
				"x": 0.2770749035,
				"y": -2.2763501586,
				"z": -2.0459637368,
				"element": "C" 
			},
			{
				"x": 0.0666523768,
				"y": -3.657966715,
				"z": -2.196125762,
				"element": "C" 
			},
			{
				"x": 0.4047288142,
				"y": -4.3044578158,
				"z": -3.3830400664,
				"element": "C" 
			},
			{
				"x": 0.9547262406,
				"y": -3.584450453,
				"z": -4.4461308622,
				"element": "C" 
			},
			{
				"x": 1.1542004983,
				"y": -2.2088062068,
				"z": -4.3135290859,
				"element": "C" 
			},
			{
				"x": 0.8144703544,
				"y": -1.5585676651,
				"z": -3.1278702894,
				"element": "C" 
			},
			{
				"x": -3.636270065,
				"y": -0.0287209347,
				"z": 4.8332806222,
				"element": "H" 
			},
			{
				"x": -1.951380098,
				"y": 0.3605760922,
				"z": 3.0883257938,
				"element": "H" 
			},
			{
				"x": -2.9420603118,
				"y": -3.4102167687,
				"z": 1.2689057479,
				"element": "H" 
			},
			{
				"x": -4.6614799768,
				"y": -3.7947601394,
				"z": 3.0309676638,
				"element": "H" 
			},
			{
				"x": -0.2328799965,
				"y": 0.3733977732,
				"z": 1.6748192492,
				"element": "H" 
			},
			{
				"x": 2.8761266132,
				"y": -1.1010866075,
				"z": -1.0638804205,
				"element": "H" 
			},
			{
				"x": 4.7669851351,
				"y": 0.4472898191,
				"z": -1.4331249137,
				"element": "H" 
			},
			{
				"x": 4.5023548273,
				"y": 2.8794658252,
				"z": -0.9800089595,
				"element": "H" 
			},
			{
				"x": 2.3158674208,
				"y": 3.7478973259,
				"z": -0.1700789202,
				"element": "H" 
			},
			{
				"x": 0.4121390734,
				"y": 2.2099369484,
				"z": 0.152280117,
				"element": "H" 
			},
			{
				"x": -0.3697594364,
				"y": -4.2099799618,
				"z": -1.3706492628,
				"element": "H" 
			},
			{
				"x": 0.2383451663,
				"y": -5.3739480381,
				"z": -3.4785915443,
				"element": "H" 
			},
			{
				"x": 1.2182623334,
				"y": -4.088906143,
				"z": -5.3713864314,
				"element": "H" 
			},
			{
				"x": 1.5647383186,
				"y": -1.6357429809,
				"z": -5.1403328923,
				"element": "H" 
			},
			{
				"x": 0.9522897472,
				"y": -0.4856325509,
				"z": -3.0465184138,
				"element": "H" 
			}
		],
		 "valence_orbital": [ 
			{
				"type": "occ",
				"energy": -0.26141,
				"method": "rhf"
			},
			{
				"type": "occ",
				"energy": -0.25535,
				"method": "rhf"
			},
			{
				"type": "occ",
				"energy": -0.24284,
				"method": "rhf"
			},
			{
				"type": "occ",
				"energy": -0.23856,
				"method": "rhf"
			},
			{
				"type": "occ",
				"energy": -0.19549,
				"method": "rhf"
			},
			{
				"type": "unocc",
				"energy": -0.04676,
				"method": "rhf"
			},
			{
				"type": "unocc",
				"energy": -0.02877,
				"method": "rhf"
			},
			{
				"type": "unocc",
				"energy": -0.01637,
				"method": "rhf"
			},
			{
				"type": "unocc",
				"energy": -0.01349,
				"method": "rhf"
			},
			{
				"type": "unocc",
				"energy": 0.00584,
				"method": "rhf"
			}
		],
		"cosmo_sigma_profile": { 
			"-0.025": 0.0,
			"-0.024": 0.0,
			"-0.023": 0.0,
			"-0.022": 0.0,
			"-0.021": 0.0,
			"-0.02": 0.0,
			"-0.019": 0.0,
			"-0.018": 0.0,
			"-0.017": 0.070032820697,
			"-0.016": 1.04625686037,
			"-0.015": 1.4670151328,
			"-0.014": 1.17311498562,
			"-0.013": 0.860321492942,
			"-0.012": 1.37672452372,
			"-0.011": 1.91375104202,
			"-0.01": 1.50547052927,
			"-0.009": 1.78477821284,
			"-0.008": 2.51772397378,
			"-0.007": 5.77461513955,
			"-0.006": 14.9373731489,
			"-0.005": 24.0761399463,
			"-0.004": 27.7960888427,
			"-0.003": 26.5995360655,
			"-0.002": 21.1223226631,
			"-0.001": 23.9014218614,
			"0.0": 23.0725781488,
			"0.001": 29.9417866062,
			"0.002": 40.1539728067,
			"0.003": 41.7743318992,
			"0.004": 32.9840888455,
			"0.005": 24.4761668707,
			"0.006": 12.0886822372,
			"0.007": 2.49823334843,
			"0.008": 2.49712684575,
			"0.009": 1.82900559061,
			"0.01": 1.15524601312,
			"0.011": 0.836250685901,
			"0.012": 1.02508497337,
			"0.013": 0.460637240943,
			"0.014": 0.480975943506,
			"0.015": 0.0169855723659,
			"0.016": 0.0,
			"0.017": 0.0,
			"0.018": 0.0,
			"0.019": 0.0,
			"0.02": 0.0,
			"0.021": 0.0,
			"0.022": 0.0,
			"0.023": 0.0,
			"0.024": 0.0,
			"0.025": 0.0
		}
	}
}
