{
	 "smiles": "CC1=CC(=CC=C1C(O)=O)[N+]([O-])=O", 
	 "Tm": 426.65, 
	 "num_atms": 20, 
	 "gaussian": { 
		 "optdone": 1, 
		 "sigma_profile": "yes", 
		 "theory": "DFT", 
		 "functional": "B3LYP", 
		 "basiset": "6-31G**", 
		 "properties": { 
			 "R2extent": 4604.9099, 
			 "electric_dipole_moment_norm": 3.69429219878, 
			 "electric_quadrupole_moment_norm": 22.3513144164, 
			 "total_energy": -664.638357307, 
			 "HOMO_LUMO_gap": 0.17204, 
			 "cosmo_polarized_energy": -11.2, 
			 "cosmo_cavitation_energy": 25.28, 
			 "cosmo_dispersion_energy": -18.65, 
			 "cosmo_repulsion_energy": 1.46, 
			 "cosmo_total_nonelectrostatic_energy": 8.09, 
			 "SMD_solvation_energy": 7.86 
		},
		"coords": [
			{
				"x": -0.0809147331,
				"y": 0.5229649054,
				"z": 0.3229880776,
				"element": "C" 
			},
			{
				"x": -0.2747585741,
				"y": 0.2614602432,
				"z": -1.1507347293,
				"element": "C" 
			},
			{
				"x": 0.0468405142,
				"y": 1.2796351418,
				"z": -2.056060009,
				"element": "C" 
			},
			{
				"x": -0.1140303684,
				"y": 1.0882658032,
				"z": -3.4234691032,
				"element": "C" 
			},
			{
				"x": -0.5945179223,
				"y": -0.1036965406,
				"z": -3.9556662678,
				"element": "C" 
			},
			{
				"x": -0.9174152997,
				"y": -1.1224357314,
				"z": -3.0688859951,
				"element": "C" 
			},
			{
				"x": -0.7654054241,
				"y": -0.9585343105,
				"z": -1.6809295119,
				"element": "C" 
			},
			{
				"x": -1.1297004822,
				"y": -2.0909678762,
				"z": -0.7790217888,
				"element": "C" 
			},
			{
				"x": -1.5792211487,
				"y": -3.1767351802,
				"z": -1.4573394874,
				"element": "O" 
			},
			{
				"x": -1.0503820395,
				"y": -2.0896467704,
				"z": 0.433768856,
				"element": "O" 
			},
			{
				"x": 0.2377034445,
				"y": 2.1895226428,
				"z": -4.3416958813,
				"element": "N" 
			},
			{
				"x": 0.0851435534,
				"y": 1.9932398157,
				"z": -5.5460430965,
				"element": "O" 
			},
			{
				"x": 0.6604929184,
				"y": 3.2326163312,
				"z": -3.8465818076,
				"element": "O" 
			},
			{
				"x": 0.3061691864,
				"y": 1.5333252208,
				"z": 0.4760504199,
				"element": "H" 
			},
			{
				"x": 0.6130130546,
				"y": -0.19450253,
				"z": 0.7683333964,
				"element": "H" 
			},
			{
				"x": -1.0179830005,
				"y": 0.414033789,
				"z": 0.8748750766,
				"element": "H" 
			},
			{
				"x": 0.4255358448,
				"y": 2.230997021,
				"z": -1.7033231117,
				"element": "H" 
			},
			{
				"x": -0.705939069,
				"y": -0.2144095243,
				"z": -5.0264112577,
				"element": "H" 
			},
			{
				"x": -1.2942507845,
				"y": -2.0642519325,
				"z": -3.4473326377,
				"element": "H" 
			},
			{
				"x": -1.7839796703,
				"y": -3.8424805181,
				"z": -0.7804211415,
				"element": "H" 
			}
		],
		 "valence_orbital": [ 
			{
				"type": "occ",
				"energy": -0.31319,
				"method": "rhf"
			},
			{
				"type": "occ",
				"energy": -0.29764,
				"method": "rhf"
			},
			{
				"type": "occ",
				"energy": -0.29095,
				"method": "rhf"
			},
			{
				"type": "occ",
				"energy": -0.29051,
				"method": "rhf"
			},
			{
				"type": "occ",
				"energy": -0.27648,
				"method": "rhf"
			},
			{
				"type": "unocc",
				"energy": -0.10444,
				"method": "rhf"
			},
			{
				"type": "unocc",
				"energy": -0.04042,
				"method": "rhf"
			},
			{
				"type": "unocc",
				"energy": -0.03126,
				"method": "rhf"
			},
			{
				"type": "unocc",
				"energy": 0.04452,
				"method": "rhf"
			},
			{
				"type": "unocc",
				"energy": 0.06459,
				"method": "rhf"
			}
		],
		"cosmo_sigma_profile": { 
			"-0.025": 0.0,
			"-0.024": 0.0,
			"-0.023": 0.0,
			"-0.022": 0.0,
			"-0.021": 0.0,
			"-0.02": 0.0,
			"-0.019": 0.0763620924035,
			"-0.018": 1.11543462942,
			"-0.017": 0.657495117812,
			"-0.016": 0.6607640494,
			"-0.015": 0.936442095246,
			"-0.014": 0.994653645884,
			"-0.013": 0.605311175075,
			"-0.012": 0.761976831063,
			"-0.011": 0.456944859765,
			"-0.01": 0.99617525876,
			"-0.009": 0.447086679833,
			"-0.008": 2.61396142787,
			"-0.007": 6.4678871659,
			"-0.006": 7.381254746,
			"-0.005": 7.38537505584,
			"-0.004": 13.2393105282,
			"-0.003": 15.6520922331,
			"-0.002": 18.4902472398,
			"-0.001": 23.0821263729,
			"0.0": 23.9975944447,
			"0.001": 13.8009308136,
			"0.002": 5.3015143685,
			"0.003": 5.17417315021,
			"0.004": 5.37461497821,
			"0.005": 6.34628053497,
			"0.006": 7.79555175334,
			"0.007": 11.620307114,
			"0.008": 7.07860205418,
			"0.009": 5.68429699163,
			"0.01": 3.5025163464,
			"0.011": 3.31967261071,
			"0.012": 1.1141802053,
			"0.013": 0.0,
			"0.014": 0.0,
			"0.015": 0.0,
			"0.016": 0.0,
			"0.017": 0.0,
			"0.018": 0.0,
			"0.019": 0.0,
			"0.02": 0.0,
			"0.021": 0.0,
			"0.022": 0.0,
			"0.023": 0.0,
			"0.024": 0.0,
			"0.025": 0.0
		}
	}
}
