{
	 "smiles": "NS(=O)(=O)C1=C(Br)C=C(C=C1)C(F)(F)F", 
	 "Tm": 435.15, 
	 "num_atms": 20, 
	 "gaussian": { 
		 "optdone": 1, 
		 "sigma_profile": "yes", 
		 "theory": "DFT", 
		 "functional": "B3LYP", 
		 "basiset": "6-31G**", 
		 "properties": { 
			 "R2extent": 5382.771, 
			 "electric_dipole_moment_norm": 3.73333697916, 
			 "electric_quadrupole_moment_norm": 20.0220204485, 
			 "total_energy": -3743.99442611, 
			 "HOMO_LUMO_gap": 0.20233, 
			 "cosmo_polarized_energy": -16.03, 
			 "cosmo_cavitation_energy": 29.71, 
			 "cosmo_dispersion_energy": -22.09, 
			 "cosmo_repulsion_energy": 1.62, 
			 "cosmo_total_nonelectrostatic_energy": 9.24, 
			 "SMD_solvation_energy": 4.95 
		},
		"coords": [
			{
				"x": 1.3228763987,
				"y": -2.80077492,
				"z": 0.8242496094,
				"element": "N" 
			},
			{
				"x": 2.0362474211,
				"y": -1.2671540245,
				"z": 0.7998683587,
				"element": "S" 
			},
			{
				"x": 3.1260537985,
				"y": -1.3120339556,
				"z": -0.1748505583,
				"element": "O" 
			},
			{
				"x": 2.2462128014,
				"y": -0.8669388431,
				"z": 2.1911286347,
				"element": "O" 
			},
			{
				"x": 0.7157499018,
				"y": -0.2361048425,
				"z": 0.1141163056,
				"element": "C" 
			},
			{
				"x": 0.9155845205,
				"y": 1.139955535,
				"z": -0.0769997662,
				"element": "C" 
			},
			{
				"x": 2.5464726114,
				"y": 2.011847883,
				"z": 0.360055185,
				"element": "Br" 
			},
			{
				"x": -0.108611636,
				"y": 1.9246645446,
				"z": -0.6043216364,
				"element": "C" 
			},
			{
				"x": -1.3309196873,
				"y": 1.3438856147,
				"z": -0.9413423102,
				"element": "C" 
			},
			{
				"x": -1.5376863341,
				"y": -0.0222051821,
				"z": -0.7519070447,
				"element": "C" 
			},
			{
				"x": -0.5147615378,
				"y": -0.8062023452,
				"z": -0.2253335926,
				"element": "C" 
			},
			{
				"x": -2.4127915853,
				"y": 2.1905863441,
				"z": -1.5643898193,
				"element": "C" 
			},
			{
				"x": -3.6423436815,
				"y": 1.7445315931,
				"z": -1.2311333295,
				"element": "F" 
			},
			{
				"x": -2.3341431459,
				"y": 2.1689222753,
				"z": -2.9128231806,
				"element": "F" 
			},
			{
				"x": -2.3236742772,
				"y": 3.480322223,
				"z": -1.1798231817,
				"element": "F" 
			},
			{
				"x": 1.2888463838,
				"y": -3.1350424387,
				"z": 1.7836329197,
				"element": "H" 
			},
			{
				"x": 1.8569998288,
				"y": -3.4249561975,
				"z": 0.225559816,
				"element": "H" 
			},
			{
				"x": 0.0493289132,
				"y": 2.9870588696,
				"z": -0.741848676,
				"element": "H" 
			},
			{
				"x": -2.4918184287,
				"y": -0.4701538634,
				"z": -1.0050576291,
				"element": "H" 
			},
			{
				"x": -0.6576222656,
				"y": -1.8678082698,
				"z": -0.0687801044,
				"element": "H" 
			}
		],
		 "valence_orbital": [ 
			{
				"type": "occ",
				"energy": -0.31981,
				"method": "rhf"
			},
			{
				"type": "occ",
				"energy": -0.31416,
				"method": "rhf"
			},
			{
				"type": "occ",
				"energy": -0.29109,
				"method": "rhf"
			},
			{
				"type": "occ",
				"energy": -0.29011,
				"method": "rhf"
			},
			{
				"type": "occ",
				"energy": -0.26657,
				"method": "rhf"
			},
			{
				"type": "unocc",
				"energy": -0.06424,
				"method": "rhf"
			},
			{
				"type": "unocc",
				"energy": -0.04385,
				"method": "rhf"
			},
			{
				"type": "unocc",
				"energy": -0.0158,
				"method": "rhf"
			},
			{
				"type": "unocc",
				"energy": 0.0416,
				"method": "rhf"
			},
			{
				"type": "unocc",
				"energy": 0.06431,
				"method": "rhf"
			}
		],
		"cosmo_sigma_profile": { 
			"-0.025": 0.0,
			"-0.024": 0.0,
			"-0.023": 0.0,
			"-0.022": 0.0,
			"-0.021": 0.0,
			"-0.02": 0.0,
			"-0.019": 0.0,
			"-0.018": 0.0,
			"-0.017": 0.0,
			"-0.016": 0.213289859576,
			"-0.015": 2.57193954441,
			"-0.014": 1.86075389206,
			"-0.013": 3.1237168337,
			"-0.012": 2.22476921679,
			"-0.011": 1.74264969908,
			"-0.01": 1.69973073566,
			"-0.009": 3.30733626012,
			"-0.008": 5.63523269624,
			"-0.007": 6.58810569246,
			"-0.006": 7.74659557093,
			"-0.005": 9.36458085717,
			"-0.004": 8.93188271218,
			"-0.003": 11.6008260969,
			"-0.002": 14.0054724339,
			"-0.001": 25.2375579788,
			"0.0": 20.2303199493,
			"0.001": 17.5438685638,
			"0.002": 32.1219934104,
			"0.003": 22.4601751225,
			"0.004": 3.98272948467,
			"0.005": 3.80690944674,
			"0.006": 3.41893328068,
			"0.007": 4.2523369162,
			"0.008": 3.97090233168,
			"0.009": 4.88348594246,
			"0.01": 11.951515706,
			"0.011": 6.9412490541,
			"0.012": 0.213683502391,
			"0.013": 0.0,
			"0.014": 0.0,
			"0.015": 0.0,
			"0.016": 0.0,
			"0.017": 0.0,
			"0.018": 0.0,
			"0.019": 0.0,
			"0.02": 0.0,
			"0.021": 0.0,
			"0.022": 0.0,
			"0.023": 0.0,
			"0.024": 0.0,
			"0.025": 0.0
		}
	}
}
