{
	 "smiles": "NC1=CC=CC(N)=C1N", 
	 "Tm": 376.15, 
	 "num_atms": 18, 
	 "gaussian": { 
		 "optdone": 1, 
		 "sigma_profile": "yes", 
		 "theory": "DFT", 
		 "functional": "B3LYP", 
		 "basiset": "6-31G**", 
		 "properties": { 
			 "R2extent": 1190.5648, 
			 "electric_dipole_moment_norm": 1.70685023655, 
			 "electric_quadrupole_moment_norm": 12.0306332281, 
			 "total_energy": -398.321792781, 
			 "HOMO_LUMO_gap": 0.20981, 
			 "cosmo_polarized_energy": -12.96, 
			 "cosmo_cavitation_energy": 20.91, 
			 "cosmo_dispersion_energy": -15.99, 
			 "cosmo_repulsion_energy": 1.32, 
			 "cosmo_total_nonelectrostatic_energy": 6.24, 
			 "SMD_solvation_energy": 3.61 
		},
		"coords": [
			{
				"x": 1.2745886213,
				"y": 0.6836315034,
				"z": -2.2850562007,
				"element": "N" 
			},
			{
				"x": 0.8258744262,
				"y": -0.1064911335,
				"z": -1.2038049476,
				"element": "C" 
			},
			{
				"x": 1.6051291914,
				"y": -1.153193087,
				"z": -0.689549428,
				"element": "C" 
			},
			{
				"x": 1.1424905039,
				"y": -1.8888512591,
				"z": 0.4002275517,
				"element": "C" 
			},
			{
				"x": -0.0851088111,
				"y": -1.6002370999,
				"z": 0.9911128507,
				"element": "C" 
			},
			{
				"x": -0.8632764311,
				"y": -0.5395624031,
				"z": 0.5016468759,
				"element": "C" 
			},
			{
				"x": -2.1076034469,
				"y": -0.2170445239,
				"z": 1.0473721242,
				"element": "N" 
			},
			{
				"x": -0.4018413637,
				"y": 0.213949579,
				"z": -0.5967906381,
				"element": "C" 
			},
			{
				"x": -1.1898072275,
				"y": 1.3306957082,
				"z": -1.016538916,
				"element": "N" 
			},
			{
				"x": 2.0979708169,
				"y": 0.2993950039,
				"z": -2.7322471373,
				"element": "H" 
			},
			{
				"x": 0.5539232711,
				"y": 0.8449907428,
				"z": -2.9807533708,
				"element": "H" 
			},
			{
				"x": 2.5564882728,
				"y": -1.3953475052,
				"z": -1.1563259876,
				"element": "H" 
			},
			{
				"x": 1.7458682202,
				"y": -2.7039085308,
				"z": 0.7903091002,
				"element": "H" 
			},
			{
				"x": -0.4427395535,
				"y": -2.1820945805,
				"z": 1.836411931,
				"element": "H" 
			},
			{
				"x": -2.2174507443,
				"y": -0.484329525,
				"z": 2.0166446548,
				"element": "H" 
			},
			{
				"x": -2.3455565781,
				"y": 0.7561500856,
				"z": 0.8825229779,
				"element": "H" 
			},
			{
				"x": -0.6243010291,
				"y": 2.0259648321,
				"z": -1.492231929,
				"element": "H" 
			},
			{
				"x": -1.9729481385,
				"y": 1.069982193,
				"z": -1.6112495112,
				"element": "H" 
			}
		],
		 "valence_orbital": [ 
			{
				"type": "occ",
				"energy": -0.31859,
				"method": "rhf"
			},
			{
				"type": "occ",
				"energy": -0.27559,
				"method": "rhf"
			},
			{
				"type": "occ",
				"energy": -0.26803,
				"method": "rhf"
			},
			{
				"type": "occ",
				"energy": -0.19168,
				"method": "rhf"
			},
			{
				"type": "occ",
				"energy": -0.18384,
				"method": "rhf"
			},
			{
				"type": "unocc",
				"energy": 0.02597,
				"method": "rhf"
			},
			{
				"type": "unocc",
				"energy": 0.03621,
				"method": "rhf"
			},
			{
				"type": "unocc",
				"energy": 0.06874,
				"method": "rhf"
			},
			{
				"type": "unocc",
				"energy": 0.10384,
				"method": "rhf"
			},
			{
				"type": "unocc",
				"energy": 0.10787,
				"method": "rhf"
			}
		],
		"cosmo_sigma_profile": { 
			"-0.025": 0.0,
			"-0.024": 0.0,
			"-0.023": 0.0,
			"-0.022": 0.0,
			"-0.021": 0.0,
			"-0.02": 0.0,
			"-0.019": 0.0,
			"-0.018": 0.0,
			"-0.017": 0.0,
			"-0.016": 0.0,
			"-0.015": 0.0,
			"-0.014": 0.0,
			"-0.013": 0.0,
			"-0.012": 1.04811757533,
			"-0.011": 4.62326478964,
			"-0.01": 6.66072206477,
			"-0.009": 6.72045796769,
			"-0.008": 8.5774527673,
			"-0.007": 6.70607924637,
			"-0.006": 6.5754776568,
			"-0.005": 7.84747704792,
			"-0.004": 8.77607696424,
			"-0.003": 6.72630467084,
			"-0.002": 9.24080457172,
			"-0.001": 8.82615166749,
			"0.0": 6.11180263872,
			"0.001": 6.13788947183,
			"0.002": 5.86545102202,
			"0.003": 7.41715067628,
			"0.004": 5.9307265015,
			"0.005": 7.14302657258,
			"0.006": 9.18553388139,
			"0.007": 10.7207552929,
			"0.008": 8.98547324977,
			"0.009": 4.00320948467,
			"0.01": 2.04733300611,
			"0.011": 2.07107975185,
			"0.012": 1.47779659108,
			"0.013": 1.88036239585,
			"0.014": 1.14253101105,
			"0.015": 1.32357559778,
			"0.016": 0.357476569557,
			"0.017": 0.0,
			"0.018": 0.0,
			"0.019": 0.0,
			"0.02": 0.0,
			"0.021": 0.0,
			"0.022": 0.0,
			"0.023": 0.0,
			"0.024": 0.0,
			"0.025": 0.0
		}
	}
}
