{
	 "smiles": "CC1=CN(N=C1)C1=C(F)C=C(C=C1)S(Cl)(=O)=O", 
	 "Tm": 373.15, 
	 "num_atms": 25, 
	 "gaussian": { 
		 "optdone": 1, 
		 "sigma_profile": "yes", 
		 "theory": "DFT", 
		 "functional": "B3LYP", 
		 "basiset": "6-31G**", 
		 "properties": { 
			 "R2extent": 8469.5669, 
			 "electric_dipole_moment_norm": 6.1613792701, 
			 "electric_quadrupole_moment_norm": 15.648197602, 
			 "total_energy": -1603.95309514, 
			 "HOMO_LUMO_gap": 0.15292, 
			 "cosmo_polarized_energy": -13.52, 
			 "cosmo_cavitation_energy": 34.14, 
			 "cosmo_dispersion_energy": -25.04, 
			 "cosmo_repulsion_energy": 1.88, 
			 "cosmo_total_nonelectrostatic_energy": 10.98, 
			 "SMD_solvation_energy": 4.83 
		},
		"coords": [
			{
				"x": 4.7319040213,
				"y": 0.1526752589,
				"z": -1.3079750312,
				"element": "C" 
			},
			{
				"x": 3.5476101012,
				"y": 0.1545978854,
				"z": -0.3886395724,
				"element": "C" 
			},
			{
				"x": 2.3145607729,
				"y": 0.7305015297,
				"z": -0.5916264583,
				"element": "C" 
			},
			{
				"x": 1.546054686,
				"y": 0.4513310395,
				"z": 0.514977795,
				"element": "N" 
			},
			{
				"x": 2.234275067,
				"y": -0.2774280511,
				"z": 1.4382089271,
				"element": "N" 
			},
			{
				"x": 3.4293708532,
				"y": -0.451738015,
				"z": 0.8949067745,
				"element": "C" 
			},
			{
				"x": 0.2354186867,
				"y": 0.8897999181,
				"z": 0.7705784189,
				"element": "C" 
			},
			{
				"x": -0.693849865,
				"y": 0.0658360477,
				"z": 1.4332440982,
				"element": "C" 
			},
			{
				"x": -0.3510874354,
				"y": -1.1681193634,
				"z": 1.8098581777,
				"element": "F" 
			},
			{
				"x": -1.9892596553,
				"y": 0.4945995733,
				"z": 1.6805085835,
				"element": "C" 
			},
			{
				"x": -2.3629466295,
				"y": 1.7630409124,
				"z": 1.2369433839,
				"element": "C" 
			},
			{
				"x": -1.4781745985,
				"y": 2.6048626846,
				"z": 0.5649706712,
				"element": "C" 
			},
			{
				"x": -0.17841818,
				"y": 2.160146009,
				"z": 0.3452363701,
				"element": "C" 
			},
			{
				"x": -4.0350916702,
				"y": 2.3137770738,
				"z": 1.5275541183,
				"element": "S" 
			},
			{
				"x": -3.8458973307,
				"y": 3.2523875043,
				"z": 3.4325698812,
				"element": "Cl" 
			},
			{
				"x": -4.8955505097,
				"y": 1.1554090521,
				"z": 1.7296500021,
				"element": "O" 
			},
			{
				"x": -4.3588676695,
				"y": 3.375258954,
				"z": 0.5829585089,
				"element": "O" 
			},
			{
				"x": 5.0217392904,
				"y": -0.8664223902,
				"z": -1.5870037145,
				"element": "H" 
			},
			{
				"x": 4.5189596097,
				"y": 0.7008265032,
				"z": -2.2297379082,
				"element": "H" 
			},
			{
				"x": 5.6043923813,
				"y": 0.620040592,
				"z": -0.8378227386,
				"element": "H" 
			},
			{
				"x": 1.9149299589,
				"y": 1.2727114223,
				"z": -1.4357325416,
				"element": "H" 
			},
			{
				"x": 4.1822456143,
				"y": -1.008879505,
				"z": 1.4382153325,
				"element": "H" 
			},
			{
				"x": -2.6887444822,
				"y": -0.1657064502,
				"z": 2.1792094621,
				"element": "H" 
			},
			{
				"x": -1.796919775,
				"y": 3.5854705716,
				"z": 0.2323878314,
				"element": "H" 
			},
			{
				"x": 0.539246758,
				"y": 2.8088212431,
				"z": -0.1443403719,
				"element": "H" 
			}
		],
		 "valence_orbital": [ 
			{
				"type": "occ",
				"energy": -0.31328,
				"method": "rhf"
			},
			{
				"type": "occ",
				"energy": -0.30125,
				"method": "rhf"
			},
			{
				"type": "occ",
				"energy": -0.28867,
				"method": "rhf"
			},
			{
				"type": "occ",
				"energy": -0.26527,
				"method": "rhf"
			},
			{
				"type": "occ",
				"energy": -0.24868,
				"method": "rhf"
			},
			{
				"type": "unocc",
				"energy": -0.09576,
				"method": "rhf"
			},
			{
				"type": "unocc",
				"energy": -0.05705,
				"method": "rhf"
			},
			{
				"type": "unocc",
				"energy": -0.04116,
				"method": "rhf"
			},
			{
				"type": "unocc",
				"energy": 0.00375,
				"method": "rhf"
			},
			{
				"type": "unocc",
				"energy": 0.04402,
				"method": "rhf"
			}
		],
		"cosmo_sigma_profile": { 
			"-0.025": 0.0,
			"-0.024": 0.0,
			"-0.023": 0.0,
			"-0.022": 0.0,
			"-0.021": 0.0,
			"-0.02": 0.0,
			"-0.019": 0.0,
			"-0.018": 0.0,
			"-0.017": 0.0,
			"-0.016": 0.0,
			"-0.015": 0.0,
			"-0.014": 0.0,
			"-0.013": 0.0,
			"-0.012": 0.0,
			"-0.011": 0.0,
			"-0.01": 1.66904517954,
			"-0.009": 7.54722919339,
			"-0.008": 7.62125598035,
			"-0.007": 8.46506717123,
			"-0.006": 8.48185392035,
			"-0.005": 11.575804904,
			"-0.004": 15.9374856042,
			"-0.003": 19.3825989119,
			"-0.002": 28.1912507737,
			"-0.001": 27.9389853375,
			"0.0": 24.2103208983,
			"0.001": 14.6370946751,
			"0.002": 18.1286066402,
			"0.003": 26.2077786491,
			"0.004": 15.4810236009,
			"0.005": 5.00117949294,
			"0.006": 6.34231010788,
			"0.007": 8.72019988879,
			"0.008": 11.1731756424,
			"0.009": 5.03997762277,
			"0.01": 0.98189666162,
			"0.011": 1.42467569025,
			"0.012": 1.34120293061,
			"0.013": 1.06431314298,
			"0.014": 0.762129814515,
			"0.015": 0.109490024465,
			"0.016": 0.0,
			"0.017": 0.0,
			"0.018": 0.0,
			"0.019": 0.0,
			"0.02": 0.0,
			"0.021": 0.0,
			"0.022": 0.0,
			"0.023": 0.0,
			"0.024": 0.0,
			"0.025": 0.0
		}
	}
}
