{
	 "smiles": "CC(C)(C)OC(=O)N1C=C(CBr)C2=CC=CC=C12", 
	 "Tm": 379.15, 
	 "num_atms": 34, 
	 "gaussian": { 
		 "optdone": 1, 
		 "sigma_profile": "yes", 
		 "theory": "DFT", 
		 "functional": "B3LYP", 
		 "basiset": "6-31G**", 
		 "properties": { 
			 "R2extent": 7913.4809, 
			 "electric_dipole_moment_norm": 4.08467136989, 
			 "electric_quadrupole_moment_norm": 12.4765887942, 
			 "total_energy": -3319.78136203, 
			 "HOMO_LUMO_gap": 0.18262, 
			 "cosmo_polarized_energy": -9.94, 
			 "cosmo_cavitation_energy": 39.05, 
			 "cosmo_dispersion_energy": -27.34, 
			 "cosmo_repulsion_energy": 2.1, 
			 "cosmo_total_nonelectrostatic_energy": 13.81, 
			 "SMD_solvation_energy": 6.51 
		},
		"coords": [
			{
				"x": 0.0609367259,
				"y": 4.2980565895,
				"z": -0.4127495101,
				"element": "C" 
			},
			{
				"x": -1.1667095063,
				"y": 3.4578637891,
				"z": -0.0510872155,
				"element": "C" 
			},
			{
				"x": -2.2940981763,
				"y": 3.5874626693,
				"z": -1.0787506813,
				"element": "C" 
			},
			{
				"x": -1.6661241771,
				"y": 3.7957380681,
				"z": 1.3549509425,
				"element": "C" 
			},
			{
				"x": -0.7748207593,
				"y": 2.0325241654,
				"z": 0.0842816892,
				"element": "O" 
			},
			{
				"x": -0.2748945098,
				"y": 1.360182806,
				"z": -0.9569592642,
				"element": "C" 
			},
			{
				"x": -0.0861954797,
				"y": 1.780176034,
				"z": -2.0815519435,
				"element": "O" 
			},
			{
				"x": 0.0321558903,
				"y": 0.0361876454,
				"z": -0.6039732232,
				"element": "N" 
			},
			{
				"x": 0.5736873283,
				"y": -0.8367035645,
				"z": -1.5500175868,
				"element": "C" 
			},
			{
				"x": 0.7789228825,
				"y": -2.0652152387,
				"z": -0.9962229754,
				"element": "C" 
			},
			{
				"x": 1.2967842883,
				"y": -3.2536009443,
				"z": -1.7017965941,
				"element": "C" 
			},
			{
				"x": 3.173622497,
				"y": -3.7430033151,
				"z": -1.1431384946,
				"element": "Br" 
			},
			{
				"x": 0.3565067917,
				"y": -1.9812319139,
				"z": 0.3886353763,
				"element": "C" 
			},
			{
				"x": 0.3455600595,
				"y": -2.9141282967,
				"z": 1.4333130502,
				"element": "C" 
			},
			{
				"x": -0.1400012909,
				"y": -2.5214653938,
				"z": 2.6760715917,
				"element": "C" 
			},
			{
				"x": -0.6069841354,
				"y": -1.2127334447,
				"z": 2.8825988956,
				"element": "C" 
			},
			{
				"x": -0.5991991745,
				"y": -0.2640937129,
				"z": 1.8613842535,
				"element": "C" 
			},
			{
				"x": -0.111229539,
				"y": -0.6629191044,
				"z": 0.6148727131,
				"element": "C" 
			},
			{
				"x": 0.4306138689,
				"y": 4.0511830296,
				"z": -1.4081105073,
				"element": "H" 
			},
			{
				"x": -0.2082151524,
				"y": 5.3588323092,
				"z": -0.3910368887,
				"element": "H" 
			},
			{
				"x": 0.8616555244,
				"y": 4.1366138062,
				"z": 0.3155066195,
				"element": "H" 
			},
			{
				"x": -1.9476517821,
				"y": 3.3330231211,
				"z": -2.0805506499,
				"element": "H" 
			},
			{
				"x": -3.1298287742,
				"y": 2.9328253965,
				"z": -0.8128553251,
				"element": "H" 
			},
			{
				"x": -2.6603919885,
				"y": 4.6189418195,
				"z": -1.085021037,
				"element": "H" 
			},
			{
				"x": -0.8715698707,
				"y": 3.6554214537,
				"z": 2.0934901128,
				"element": "H" 
			},
			{
				"x": -2.5142628692,
				"y": 3.1616143154,
				"z": 1.6289838606,
				"element": "H" 
			},
			{
				"x": -1.9906020358,
				"y": 4.8396063621,
				"z": 1.3924546956,
				"element": "H" 
			},
			{
				"x": 0.754373905,
				"y": -0.4723318832,
				"z": -2.5493077066,
				"element": "H" 
			},
			{
				"x": 0.7310069202,
				"y": -4.1583431972,
				"z": -1.4842807983,
				"element": "H" 
			},
			{
				"x": 1.3632971421,
				"y": -3.1051268198,
				"z": -2.7775924639,
				"element": "H" 
			},
			{
				"x": 0.7240397047,
				"y": -3.9193452965,
				"z": 1.2754314311,
				"element": "H" 
			},
			{
				"x": -0.1545563055,
				"y": -3.2310230415,
				"z": 3.4979512429,
				"element": "H" 
			},
			{
				"x": -0.9805560482,
				"y": -0.9274437854,
				"z": 3.8616819833,
				"element": "H" 
			},
			{
				"x": -0.9559719537,
				"y": 0.7418555726,
				"z": 2.0290944075,
				"element": "H" 
			}
		],
		 "valence_orbital": [ 
			{
				"type": "occ",
				"energy": -0.28311,
				"method": "rhf"
			},
			{
				"type": "occ",
				"energy": -0.26499,
				"method": "rhf"
			},
			{
				"type": "occ",
				"energy": -0.26293,
				"method": "rhf"
			},
			{
				"type": "occ",
				"energy": -0.2348,
				"method": "rhf"
			},
			{
				"type": "occ",
				"energy": -0.21859,
				"method": "rhf"
			},
			{
				"type": "unocc",
				"energy": -0.03597,
				"method": "rhf"
			},
			{
				"type": "unocc",
				"energy": -0.00644,
				"method": "rhf"
			},
			{
				"type": "unocc",
				"energy": -0.00527,
				"method": "rhf"
			},
			{
				"type": "unocc",
				"energy": 0.04686,
				"method": "rhf"
			},
			{
				"type": "unocc",
				"energy": 0.07161,
				"method": "rhf"
			}
		],
		"cosmo_sigma_profile": { 
			"-0.025": 0.0,
			"-0.024": 0.0,
			"-0.023": 0.0,
			"-0.022": 0.0,
			"-0.021": 0.0,
			"-0.02": 0.0,
			"-0.019": 0.0,
			"-0.018": 0.0,
			"-0.017": 0.0,
			"-0.016": 0.0,
			"-0.015": 0.0,
			"-0.014": 0.0,
			"-0.013": 0.0,
			"-0.012": 0.0,
			"-0.011": 0.0,
			"-0.01": 0.0,
			"-0.009": 0.689539940588,
			"-0.008": 4.56474906523,
			"-0.007": 5.22810610888,
			"-0.006": 8.26132703343,
			"-0.005": 14.5704570028,
			"-0.004": 28.5987666848,
			"-0.003": 28.7241042509,
			"-0.002": 30.5602870922,
			"-0.001": 32.8301490634,
			"0.0": 34.3535827183,
			"0.001": 22.9904075169,
			"0.002": 17.6180846278,
			"0.003": 16.3254202794,
			"0.004": 17.410298962,
			"0.005": 19.700851932,
			"0.006": 15.3439042707,
			"0.007": 6.97682569595,
			"0.008": 0.919326383383,
			"0.009": 1.89641784615,
			"0.01": 1.59243118415,
			"0.011": 2.70491224465,
			"0.012": 0.769499145283,
			"0.013": 0.0,
			"0.014": 0.0,
			"0.015": 0.0,
			"0.016": 0.0,
			"0.017": 0.0,
			"0.018": 0.0,
			"0.019": 0.0,
			"0.02": 0.0,
			"0.021": 0.0,
			"0.022": 0.0,
			"0.023": 0.0,
			"0.024": 0.0,
			"0.025": 0.0
		}
	}
}
