{
	 "smiles": "CC(C)(C)OC(=O)N1CCN(CC(O)C2=CC=CO2)CC1", 
	 "Tm": 331.15, 
	 "num_atms": 45, 
	 "gaussian": { 
		 "optdone": 1, 
		 "sigma_profile": "yes", 
		 "theory": "DFT", 
		 "functional": "B3LYP", 
		 "basiset": "6-31G**", 
		 "properties": { 
			 "R2extent": 11614.2388, 
			 "electric_dipole_moment_norm": 2.43807439181, 
			 "electric_quadrupole_moment_norm": 12.6076771877, 
			 "total_energy": -996.445990748, 
			 "HOMO_LUMO_gap": 0.23169, 
			 "cosmo_polarized_energy": -14.23, 
			 "cosmo_cavitation_energy": 45.68, 
			 "cosmo_dispersion_energy": -31.71, 
			 "cosmo_repulsion_energy": 2.44, 
			 "cosmo_total_nonelectrostatic_energy": 16.41, 
			 "SMD_solvation_energy": 7.97 
		},
		"coords": [
			{
				"x": -3.3792842785,
				"y": -2.0903540086,
				"z": -3.35794975,
				"element": "C" 
			},
			{
				"x": -2.160756627,
				"y": -1.1941210373,
				"z": -3.6039009624,
				"element": "C" 
			},
			{
				"x": -1.077622362,
				"y": -1.95119231,
				"z": -4.3772421337,
				"element": "C" 
			},
			{
				"x": -2.5321457001,
				"y": 0.1069621377,
				"z": -4.3235488794,
				"element": "C" 
			},
			{
				"x": -1.4897666422,
				"y": -0.8908968396,
				"z": -2.3300917124,
				"element": "O" 
			},
			{
				"x": -2.1414342184,
				"y": -0.2264619672,
				"z": -1.3428817357,
				"element": "C" 
			},
			{
				"x": -3.2848369982,
				"y": 0.2059086494,
				"z": -1.4035828439,
				"element": "O" 
			},
			{
				"x": -1.3412545225,
				"y": -0.0946759336,
				"z": -0.2397008192,
				"element": "N" 
			},
			{
				"x": -1.8403216281,
				"y": 0.6831230379,
				"z": 0.8967915634,
				"element": "C" 
			},
			{
				"x": -0.679904021,
				"y": 1.4142681528,
				"z": 1.5625490863,
				"element": "C" 
			},
			{
				"x": 0.3005214359,
				"y": 0.4614755818,
				"z": 2.1123146068,
				"element": "N" 
			},
			{
				"x": 1.5713162651,
				"y": 1.1003894658,
				"z": 2.4638504176,
				"element": "C" 
			},
			{
				"x": 2.2218300523,
				"y": 0.3611758962,
				"z": 3.6568006613,
				"element": "C" 
			},
			{
				"x": 1.267718408,
				"y": 0.2209272421,
				"z": 4.688876859,
				"element": "O" 
			},
			{
				"x": 3.399193692,
				"y": 1.1078464934,
				"z": 4.1979211053,
				"element": "C" 
			},
			{
				"x": 3.5997531958,
				"y": 1.8412608172,
				"z": 5.3277142005,
				"element": "C" 
			},
			{
				"x": 4.9507261298,
				"y": 2.3234443784,
				"z": 5.2588299813,
				"element": "C" 
			},
			{
				"x": 5.466305234,
				"y": 1.8493514613,
				"z": 4.0932563401,
				"element": "C" 
			},
			{
				"x": 4.5321414608,
				"y": 1.1017724597,
				"z": 3.4298695701,
				"element": "O" 
			},
			{
				"x": 0.4340975376,
				"y": -0.7652283802,
				"z": 1.2954299669,
				"element": "C" 
			},
			{
				"x": 0.0407990467,
				"y": -0.5745834552,
				"z": -0.1727530246,
				"element": "C" 
			},
			{
				"x": -3.8034585259,
				"y": -2.4047400723,
				"z": -4.3171430555,
				"element": "H" 
			},
			{
				"x": -3.0843611605,
				"y": -2.989271001,
				"z": -2.8069969208,
				"element": "H" 
			},
			{
				"x": -4.1442690354,
				"y": -1.5613449196,
				"z": -2.7894372285,
				"element": "H" 
			},
			{
				"x": -0.7844913834,
				"y": -2.8601374402,
				"z": -3.8434982057,
				"element": "H" 
			},
			{
				"x": -1.4508968625,
				"y": -2.2358515335,
				"z": -5.3654328451,
				"element": "H" 
			},
			{
				"x": -0.1892545949,
				"y": -1.3266311839,
				"z": -4.5093753152,
				"element": "H" 
			},
			{
				"x": -1.6461151264,
				"y": 0.7378292938,
				"z": -4.4478719745,
				"element": "H" 
			},
			{
				"x": -3.2853824689,
				"y": 0.6603101429,
				"z": -3.7627067751,
				"element": "H" 
			},
			{
				"x": -2.9270343159,
				"y": -0.1231027572,
				"z": -5.3185371249,
				"element": "H" 
			},
			{
				"x": -2.3430740453,
				"y": 0.0336797215,
				"z": 1.627416031,
				"element": "H" 
			},
			{
				"x": -2.5822522911,
				"y": 1.3921949601,
				"z": 0.5259896142,
				"element": "H" 
			},
			{
				"x": -1.0595722104,
				"y": 2.0411447792,
				"z": 2.3773888224,
				"element": "H" 
			},
			{
				"x": -0.2215042728,
				"y": 2.0904439016,
				"z": 0.8199336421,
				"element": "H" 
			},
			{
				"x": 2.2774588583,
				"y": 1.1651489857,
				"z": 1.6194927461,
				"element": "H" 
			},
			{
				"x": 1.3546595858,
				"y": 2.1218862963,
				"z": 2.7927587656,
				"element": "H" 
			},
			{
				"x": 2.5731221765,
				"y": -0.6274741138,
				"z": 3.3082208564,
				"element": "H" 
			},
			{
				"x": 0.4277561943,
				"y": 0.1036725354,
				"z": 4.2086225058,
				"element": "H" 
			},
			{
				"x": 2.8745764814,
				"y": 2.0008041289,
				"z": 6.1107416503,
				"element": "H" 
			},
			{
				"x": 5.4644278154,
				"y": 2.9366825891,
				"z": 5.985470571,
				"element": "H" 
			},
			{
				"x": 6.4261104112,
				"y": 1.9380073357,
				"z": 3.6087193552,
				"element": "H" 
			},
			{
				"x": 1.4688618886,
				"y": -1.117297474,
				"z": 1.3422475468,
				"element": "H" 
			},
			{
				"x": -0.1898187021,
				"y": -1.5602339342,
				"z": 1.7228918142,
				"element": "H" 
			},
			{
				"x": 0.1190107308,
				"y": -1.525472486,
				"z": -0.7030602077,
				"element": "H" 
			},
			{
				"x": 0.728025393,
				"y": 0.128860404,
				"z": -0.6657867653,
				"element": "H" 
			}
		],
		 "valence_orbital": [ 
			{
				"type": "occ",
				"energy": -0.26793,
				"method": "rhf"
			},
			{
				"type": "occ",
				"energy": -0.26093,
				"method": "rhf"
			},
			{
				"type": "occ",
				"energy": -0.23909,
				"method": "rhf"
			},
			{
				"type": "occ",
				"energy": -0.23177,
				"method": "rhf"
			},
			{
				"type": "occ",
				"energy": -0.21219,
				"method": "rhf"
			},
			{
				"type": "unocc",
				"energy": 0.0195,
				"method": "rhf"
			},
			{
				"type": "unocc",
				"energy": 0.05292,
				"method": "rhf"
			},
			{
				"type": "unocc",
				"energy": 0.06435,
				"method": "rhf"
			},
			{
				"type": "unocc",
				"energy": 0.07953,
				"method": "rhf"
			},
			{
				"type": "unocc",
				"energy": 0.08667,
				"method": "rhf"
			}
		],
		"cosmo_sigma_profile": { 
			"-0.025": 0.0,
			"-0.024": 0.0,
			"-0.023": 0.0,
			"-0.022": 0.0,
			"-0.021": 0.0,
			"-0.02": 0.0,
			"-0.019": 0.0,
			"-0.018": 0.0,
			"-0.017": 0.0,
			"-0.016": 0.0,
			"-0.015": 0.0,
			"-0.014": 0.0,
			"-0.013": 0.0,
			"-0.012": 0.0,
			"-0.011": 0.0,
			"-0.01": 0.0,
			"-0.009": 0.648923704229,
			"-0.008": 2.67429917768,
			"-0.007": 2.92632262727,
			"-0.006": 8.01984674064,
			"-0.005": 15.4908356969,
			"-0.004": 42.4670166859,
			"-0.003": 47.7238997442,
			"-0.002": 39.533689042,
			"-0.001": 32.1964470244,
			"0.0": 33.8031005237,
			"0.001": 32.42625119,
			"0.002": 15.9072051842,
			"0.003": 13.0069235729,
			"0.004": 15.0184330352,
			"0.005": 13.26267765,
			"0.006": 11.2579677574,
			"0.007": 5.6459608102,
			"0.008": 4.128638543,
			"0.009": 3.45729902532,
			"0.01": 3.52877348989,
			"0.011": 2.69515630451,
			"0.012": 3.31547621766,
			"0.013": 3.90111187082,
			"0.014": 2.9075130982,
			"0.015": 0.279022705883,
			"0.016": 0.0,
			"0.017": 0.0,
			"0.018": 0.0,
			"0.019": 0.0,
			"0.02": 0.0,
			"0.021": 0.0,
			"0.022": 0.0,
			"0.023": 0.0,
			"0.024": 0.0,
			"0.025": 0.0
		}
	}
}
