{
	 "smiles": "NC1=NN(C=C1C#N)C1=CC=C(C=C1)[N+]([O-])=O", 
	 "Tm": 552.15, 
	 "num_atms": 24, 
	 "gaussian": { 
		 "optdone": 1, 
		 "sigma_profile": "yes", 
		 "theory": "DFT", 
		 "functional": "B3LYP", 
		 "basiset": "6-31G**", 
		 "properties": { 
			 "R2extent": 6084.7744, 
			 "electric_dipole_moment_norm": 2.72620338383, 
			 "electric_quadrupole_moment_norm": 44.3441390897, 
			 "total_energy": -809.354518663, 
			 "HOMO_LUMO_gap": 0.13635, 
			 "cosmo_polarized_energy": -19.98, 
			 "cosmo_cavitation_energy": 31.43, 
			 "cosmo_dispersion_energy": -22.53, 
			 "cosmo_repulsion_energy": 1.72, 
			 "cosmo_total_nonelectrostatic_energy": 10.63, 
			 "SMD_solvation_energy": 8.61 
		},
		"coords": [
			{
				"x": 0.2136221481,
				"y": 3.2179689888,
				"z": -3.0326713388,
				"element": "N" 
			},
			{
				"x": -0.0769572342,
				"y": 2.3574132002,
				"z": -2.0067117411,
				"element": "C" 
			},
			{
				"x": 0.2876490839,
				"y": 1.0841215092,
				"z": -2.0226098121,
				"element": "N" 
			},
			{
				"x": -0.2352122306,
				"y": 0.5455130415,
				"z": -0.8687314903,
				"element": "N" 
			},
			{
				"x": -0.9140430674,
				"y": 1.4664724404,
				"z": -0.1389901646,
				"element": "C" 
			},
			{
				"x": -0.8425230141,
				"y": 2.6644653625,
				"z": -0.8276842846,
				"element": "C" 
			},
			{
				"x": -1.3869074939,
				"y": 3.9210269404,
				"z": -0.4745342006,
				"element": "C" 
			},
			{
				"x": -1.8084580293,
				"y": 4.9773766531,
				"z": -0.2221823617,
				"element": "N" 
			},
			{
				"x": -0.0367820087,
				"y": -0.8221754392,
				"z": -0.587896385,
				"element": "C" 
			},
			{
				"x": 0.4922836764,
				"y": -1.6532584026,
				"z": -1.5875469132,
				"element": "C" 
			},
			{
				"x": 0.6882064381,
				"y": -3.0034097775,
				"z": -1.3298593788,
				"element": "C" 
			},
			{
				"x": 0.3528193892,
				"y": -3.5148733677,
				"z": -0.0769522078,
				"element": "C" 
			},
			{
				"x": -0.1684326138,
				"y": -2.7007978274,
				"z": 0.9275112885,
				"element": "C" 
			},
			{
				"x": -0.3588124429,
				"y": -1.3491485279,
				"z": 0.6732564628,
				"element": "C" 
			},
			{
				"x": 0.5569928535,
				"y": -4.9413825158,
				"z": 0.1946544647,
				"element": "N" 
			},
			{
				"x": 1.0244479197,
				"y": -5.6332001244,
				"z": -0.7099930636,
				"element": "O" 
			},
			{
				"x": 0.2478969987,
				"y": -5.3595202163,
				"z": 1.3110195691,
				"element": "O" 
			},
			{
				"x": 0.9491607738,
				"y": 2.917738321,
				"z": -3.6560406012,
				"element": "H" 
			},
			{
				"x": 0.2247645417,
				"y": 4.2015886628,
				"z": -2.8057732086,
				"element": "H" 
			},
			{
				"x": -1.4117271338,
				"y": 1.2353295873,
				"z": 0.7888560922,
				"element": "H" 
			},
			{
				"x": 0.7397086802,
				"y": -1.2243354227,
				"z": -2.5493775008,
				"element": "H" 
			},
			{
				"x": 1.0920232535,
				"y": -3.6670241845,
				"z": -2.0840723065,
				"element": "H" 
			},
			{
				"x": -0.4076236183,
				"y": -3.1318713107,
				"z": 1.8913301183,
				"element": "H" 
			},
			{
				"x": -0.7414968698,
				"y": -0.7136175906,
				"z": 1.4630989639,
				"element": "H" 
			}
		],
		 "valence_orbital": [ 
			{
				"type": "occ",
				"energy": -0.29994,
				"method": "rhf"
			},
			{
				"type": "occ",
				"energy": -0.29489,
				"method": "rhf"
			},
			{
				"type": "occ",
				"energy": -0.29264,
				"method": "rhf"
			},
			{
				"type": "occ",
				"energy": -0.27397,
				"method": "rhf"
			},
			{
				"type": "occ",
				"energy": -0.23515,
				"method": "rhf"
			},
			{
				"type": "unocc",
				"energy": -0.0988,
				"method": "rhf"
			},
			{
				"type": "unocc",
				"energy": -0.0488,
				"method": "rhf"
			},
			{
				"type": "unocc",
				"energy": -0.03888,
				"method": "rhf"
			},
			{
				"type": "unocc",
				"energy": 0.00115,
				"method": "rhf"
			},
			{
				"type": "unocc",
				"energy": 0.01176,
				"method": "rhf"
			}
		],
		"cosmo_sigma_profile": { 
			"-0.025": 0.0,
			"-0.024": 0.0,
			"-0.023": 0.0,
			"-0.022": 0.0,
			"-0.021": 0.0,
			"-0.02": 0.0,
			"-0.019": 0.0,
			"-0.018": 0.0,
			"-0.017": 0.0,
			"-0.016": 0.0,
			"-0.015": 0.127867866675,
			"-0.014": 1.66070348724,
			"-0.013": 3.45303476108,
			"-0.012": 5.07105198454,
			"-0.011": 4.60447098671,
			"-0.01": 4.34509913368,
			"-0.009": 4.90093948516,
			"-0.008": 6.62660201613,
			"-0.007": 8.62190018857,
			"-0.006": 11.072693109,
			"-0.005": 9.85543463626,
			"-0.004": 9.59750706133,
			"-0.003": 12.5587664769,
			"-0.002": 16.9484695325,
			"-0.001": 21.8780793643,
			"0.0": 25.306913527,
			"0.001": 18.3689823044,
			"0.002": 8.36011689425,
			"0.003": 7.68565731903,
			"0.004": 6.45923643706,
			"0.005": 7.41749450277,
			"0.006": 8.0067172689,
			"0.007": 12.5983333297,
			"0.008": 13.462884287,
			"0.009": 10.0959466941,
			"0.01": 7.42872952263,
			"0.011": 3.96886169978,
			"0.012": 2.61060047825,
			"0.013": 1.47570263047,
			"0.014": 0.0348423236244,
			"0.015": 0.0,
			"0.016": 0.0,
			"0.017": 0.0,
			"0.018": 0.0,
			"0.019": 0.0,
			"0.02": 0.0,
			"0.021": 0.0,
			"0.022": 0.0,
			"0.023": 0.0,
			"0.024": 0.0,
			"0.025": 0.0
		}
	}
}
