{
	 "smiles": "CC(=O)NC1=C(C)C=CC(=C1)S(Cl)(=O)=O", 
	 "Tm": 419.15, 
	 "num_atms": 25, 
	 "gaussian": { 
		 "optdone": 1, 
		 "sigma_profile": "yes", 
		 "theory": "DFT", 
		 "functional": "B3LYP", 
		 "basiset": "6-31G**", 
		 "properties": { 
			 "R2extent": 6407.9032, 
			 "electric_dipole_moment_norm": 9.42324934882, 
			 "electric_quadrupole_moment_norm": 16.8214046239, 
			 "total_energy": -1487.74697816, 
			 "HOMO_LUMO_gap": 0.16553, 
			 "cosmo_polarized_energy": -19.11, 
			 "cosmo_cavitation_energy": 32.61, 
			 "cosmo_dispersion_energy": -23.8, 
			 "cosmo_repulsion_energy": 1.83, 
			 "cosmo_total_nonelectrostatic_energy": 10.65, 
			 "SMD_solvation_energy": 4.98 
		},
		"coords": [
			{
				"x": -1.8463723804,
				"y": -1.6295371644,
				"z": -2.6670204292,
				"element": "C" 
			},
			{
				"x": -0.9169123071,
				"y": -1.6949001236,
				"z": -1.4649981394,
				"element": "C" 
			},
			{
				"x": -0.2669001241,
				"y": -2.6942211022,
				"z": -1.2069961638,
				"element": "O" 
			},
			{
				"x": -0.8977568058,
				"y": -0.5409475035,
				"z": -0.6970068994,
				"element": "N" 
			},
			{
				"x": -0.1832674953,
				"y": -0.2849809474,
				"z": 0.4872524102,
				"element": "C" 
			},
			{
				"x": -0.3586139331,
				"y": 0.9777725518,
				"z": 1.1075941477,
				"element": "C" 
			},
			{
				"x": -1.2867578103,
				"y": 2.0133438575,
				"z": 0.5194562986,
				"element": "C" 
			},
			{
				"x": 0.3465636041,
				"y": 1.2580566154,
				"z": 2.2811372467,
				"element": "C" 
			},
			{
				"x": 1.2118081075,
				"y": 0.3337227322,
				"z": 2.8613735506,
				"element": "C" 
			},
			{
				"x": 1.356714095,
				"y": -0.8943727411,
				"z": 2.2225785805,
				"element": "C" 
			},
			{
				"x": 0.6847358497,
				"y": -1.2314195591,
				"z": 1.0506266858,
				"element": "C" 
			},
			{
				"x": 2.4730990472,
				"y": -2.0959392686,
				"z": 2.9344107928,
				"element": "S" 
			},
			{
				"x": 1.1432620995,
				"y": -3.2121226443,
				"z": 4.185116312,
				"element": "Cl" 
			},
			{
				"x": 3.3956539605,
				"y": -1.4171068189,
				"z": 3.8371648512,
				"element": "O" 
			},
			{
				"x": 2.9313953317,
				"y": -3.019642202,
				"z": 1.9056890522,
				"element": "O" 
			},
			{
				"x": -2.7178163765,
				"y": -2.2630019584,
				"z": -2.4736389902,
				"element": "H" 
			},
			{
				"x": -1.3234450646,
				"y": -2.0470085043,
				"z": -3.529811168,
				"element": "H" 
			},
			{
				"x": -2.1936133988,
				"y": -0.6213636451,
				"z": -2.9101750608,
				"element": "H" 
			},
			{
				"x": -1.4829812444,
				"y": 0.2117302284,
				"z": -1.0232794227,
				"element": "H" 
			},
			{
				"x": -0.980045359,
				"y": 2.3120441763,
				"z": -0.4917158396,
				"element": "H" 
			},
			{
				"x": -1.2974365443,
				"y": 2.9166343093,
				"z": 1.1326240299,
				"element": "H" 
			},
			{
				"x": -2.3209769937,
				"y": 1.6497531856,
				"z": 0.4594050894,
				"element": "H" 
			},
			{
				"x": 0.2139992508,
				"y": 2.228473342,
				"z": 2.7505285726,
				"element": "H" 
			},
			{
				"x": 1.7611452472,
				"y": 0.5581316544,
				"z": 3.7676063168,
				"element": "H" 
			},
			{
				"x": 0.8239192443,
				"y": -2.1907984701,
				"z": 0.5723781761,
				"element": "H" 
			}
		],
		 "valence_orbital": [ 
			{
				"type": "occ",
				"energy": -0.31912,
				"method": "rhf"
			},
			{
				"type": "occ",
				"energy": -0.30374,
				"method": "rhf"
			},
			{
				"type": "occ",
				"energy": -0.27952,
				"method": "rhf"
			},
			{
				"type": "occ",
				"energy": -0.27192,
				"method": "rhf"
			},
			{
				"type": "occ",
				"energy": -0.24736,
				"method": "rhf"
			},
			{
				"type": "unocc",
				"energy": -0.08183,
				"method": "rhf"
			},
			{
				"type": "unocc",
				"energy": -0.04079,
				"method": "rhf"
			},
			{
				"type": "unocc",
				"energy": -0.03386,
				"method": "rhf"
			},
			{
				"type": "unocc",
				"energy": 0.01914,
				"method": "rhf"
			},
			{
				"type": "unocc",
				"energy": 0.0438,
				"method": "rhf"
			}
		],
		"cosmo_sigma_profile": { 
			"-0.025": 0.0,
			"-0.024": 0.0,
			"-0.023": 0.0,
			"-0.022": 0.0,
			"-0.021": 0.0,
			"-0.02": 0.0,
			"-0.019": 0.0,
			"-0.018": 0.0,
			"-0.017": 0.0,
			"-0.016": 0.0,
			"-0.015": 0.137130516313,
			"-0.014": 1.00438102816,
			"-0.013": 1.59472200309,
			"-0.012": 1.59320001209,
			"-0.011": 1.5535553426,
			"-0.01": 1.9003906228,
			"-0.009": 1.409404603,
			"-0.008": 4.24391418863,
			"-0.007": 8.55705543045,
			"-0.006": 14.0577237629,
			"-0.005": 14.4865506178,
			"-0.004": 17.9679043922,
			"-0.003": 16.4139667857,
			"-0.002": 19.7684805819,
			"-0.001": 22.0003169855,
			"0.0": 20.8755218074,
			"0.001": 22.8921916887,
			"0.002": 17.4001397474,
			"0.003": 16.332800307,
			"0.004": 13.8505072485,
			"0.005": 6.0702562709,
			"0.006": 4.34613643218,
			"0.007": 5.98618242542,
			"0.008": 11.8288569152,
			"0.009": 7.49286063003,
			"0.01": 1.46648716442,
			"0.011": 2.43975333396,
			"0.012": 2.34558439255,
			"0.013": 2.29788736639,
			"0.014": 0.636748603772,
			"0.015": 0.0,
			"0.016": 0.0,
			"0.017": 0.0,
			"0.018": 0.0,
			"0.019": 0.0,
			"0.02": 0.0,
			"0.021": 0.0,
			"0.022": 0.0,
			"0.023": 0.0,
			"0.024": 0.0,
			"0.025": 0.0
		}
	}
}
