{
	 "smiles": "CC(=O)C1=CC=C(OCC#N)C=C1", 
	 "Tm": 356.15, 
	 "num_atms": 22, 
	 "gaussian": { 
		 "optdone": 1, 
		 "sigma_profile": "yes", 
		 "theory": "DFT", 
		 "functional": "B3LYP", 
		 "basiset": "6-31G**", 
		 "properties": { 
			 "R2extent": 4418.8156, 
			 "electric_dipole_moment_norm": 4.46781993147, 
			 "electric_quadrupole_moment_norm": 19.2470429578, 
			 "total_energy": -591.651863912, 
			 "HOMO_LUMO_gap": 0.19091, 
			 "cosmo_polarized_energy": -15.46, 
			 "cosmo_cavitation_energy": 27.62, 
			 "cosmo_dispersion_energy": -19.47, 
			 "cosmo_repulsion_energy": 1.54, 
			 "cosmo_total_nonelectrostatic_energy": 9.69, 
			 "SMD_solvation_energy": 7.18 
		},
		"coords": [
			{
				"x": -1.1684991074,
				"y": -0.6633087279,
				"z": -2.0701937372,
				"element": "C" 
			},
			{
				"x": -1.3682822585,
				"y": -1.0726809426,
				"z": -0.6200333422,
				"element": "C" 
			},
			{
				"x": -2.4229621589,
				"y": -1.5722405875,
				"z": -0.255652939,
				"element": "O" 
			},
			{
				"x": -0.2518827586,
				"y": -0.8536135223,
				"z": 0.3515164843,
				"element": "C" 
			},
			{
				"x": 0.9871075031,
				"y": -0.2972047887,
				"z": -0.0107928902,
				"element": "C" 
			},
			{
				"x": 1.9905922427,
				"y": -0.1198444395,
				"z": 0.9318691557,
				"element": "C" 
			},
			{
				"x": 1.769598267,
				"y": -0.4976217866,
				"z": 2.2626857887,
				"element": "C" 
			},
			{
				"x": 2.8331675506,
				"y": -0.2889690141,
				"z": 3.1069549295,
				"element": "O" 
			},
			{
				"x": 2.7554546034,
				"y": -0.7511644239,
				"z": 4.4417199191,
				"element": "C" 
			},
			{
				"x": 1.9145867643,
				"y": 0.099355519,
				"z": 5.3068843129,
				"element": "C" 
			},
			{
				"x": 1.2608867056,
				"y": 0.7646753583,
				"z": 5.9965225262,
				"element": "N" 
			},
			{
				"x": 0.5395677858,
				"y": -1.0450352428,
				"z": 2.647973289,
				"element": "C" 
			},
			{
				"x": -0.4543945132,
				"y": -1.2186404417,
				"z": 1.6890964702,
				"element": "C" 
			},
			{
				"x": -0.3253777199,
				"y": -1.2004333716,
				"z": -2.5188392005,
				"element": "H" 
			},
			{
				"x": -0.953995299,
				"y": 0.4080935658,
				"z": -2.1512345356,
				"element": "H" 
			},
			{
				"x": -2.0785631287,
				"y": -0.8925560717,
				"z": -2.6250460308,
				"element": "H" 
			},
			{
				"x": 1.1768572444,
				"y": -0.0004203778,
				"z": -1.0370958984,
				"element": "H" 
			},
			{
				"x": 2.9521189959,
				"y": 0.3047118322,
				"z": 0.6638921576,
				"element": "H" 
			},
			{
				"x": 2.3929582786,
				"y": -1.7859427999,
				"z": 4.4932689801,
				"element": "H" 
			},
			{
				"x": 3.7798854468,
				"y": -0.7294019516,
				"z": 4.8231804976,
				"element": "H" 
			},
			{
				"x": 0.3369471545,
				"y": -1.3167785904,
				"z": 3.6772831208,
				"element": "H" 
			},
			{
				"x": -1.4162715985,
				"y": -1.6388791947,
				"z": 1.9630409424,
				"element": "H" 
			}
		],
		 "valence_orbital": [ 
			{
				"type": "occ",
				"energy": -0.34106,
				"method": "rhf"
			},
			{
				"type": "occ",
				"energy": -0.33729,
				"method": "rhf"
			},
			{
				"type": "occ",
				"energy": -0.27176,
				"method": "rhf"
			},
			{
				"type": "occ",
				"energy": -0.24897,
				"method": "rhf"
			},
			{
				"type": "occ",
				"energy": -0.24542,
				"method": "rhf"
			},
			{
				"type": "unocc",
				"energy": -0.05451,
				"method": "rhf"
			},
			{
				"type": "unocc",
				"energy": -0.02148,
				"method": "rhf"
			},
			{
				"type": "unocc",
				"energy": -0.00515,
				"method": "rhf"
			},
			{
				"type": "unocc",
				"energy": 0.02006,
				"method": "rhf"
			},
			{
				"type": "unocc",
				"energy": 0.04006,
				"method": "rhf"
			}
		],
		"cosmo_sigma_profile": { 
			"-0.025": 0.0,
			"-0.024": 0.0,
			"-0.023": 0.0,
			"-0.022": 0.0,
			"-0.021": 0.0,
			"-0.02": 0.0,
			"-0.019": 0.0,
			"-0.018": 0.0,
			"-0.017": 0.0,
			"-0.016": 0.0,
			"-0.015": 0.0,
			"-0.014": 0.0,
			"-0.013": 0.0,
			"-0.012": 0.179156669122,
			"-0.011": 4.01684391886,
			"-0.01": 5.9744591181,
			"-0.009": 4.97630883441,
			"-0.008": 5.28510542528,
			"-0.007": 7.47915218718,
			"-0.006": 14.160828669,
			"-0.005": 14.5646919299,
			"-0.004": 11.9561595094,
			"-0.003": 12.9320280756,
			"-0.002": 11.2397157753,
			"-0.001": 15.2219403635,
			"0.0": 12.2288269983,
			"0.001": 14.3929653431,
			"0.002": 17.3912981472,
			"0.003": 17.1667734094,
			"0.004": 7.58450168083,
			"0.005": 5.0110742929,
			"0.006": 5.80800504315,
			"0.007": 6.33759627748,
			"0.008": 4.51423042979,
			"0.009": 5.29448452883,
			"0.01": 4.63982873358,
			"0.011": 4.7854183052,
			"0.012": 6.05230345535,
			"0.013": 2.18762637128,
			"0.014": 0.407206589164,
			"0.015": 0.0,
			"0.016": 0.0,
			"0.017": 0.0,
			"0.018": 0.0,
			"0.019": 0.0,
			"0.02": 0.0,
			"0.021": 0.0,
			"0.022": 0.0,
			"0.023": 0.0,
			"0.024": 0.0,
			"0.025": 0.0
		}
	}
}
