{
	 "smiles": "CC1=CC(C)=C(C)C=C1C=O", 
	 "Tm": 316.65, 
	 "num_atms": 23, 
	 "gaussian": { 
		 "optdone": 1, 
		 "sigma_profile": "yes", 
		 "theory": "DFT", 
		 "functional": "B3LYP", 
		 "basiset": "6-31G**", 
		 "properties": { 
			 "R2extent": 2006.4526, 
			 "electric_dipole_moment_norm": 3.81995031381, 
			 "electric_quadrupole_moment_norm": 7.428609279, 
			 "total_energy": -463.534573928, 
			 "HOMO_LUMO_gap": 0.18485, 
			 "cosmo_polarized_energy": -7.19, 
			 "cosmo_cavitation_energy": 25.89, 
			 "cosmo_dispersion_energy": -18.7, 
			 "cosmo_repulsion_energy": 1.48, 
			 "cosmo_total_nonelectrostatic_energy": 8.66, 
			 "SMD_solvation_energy": 5.47 
		},
		"coords": [
			{
				"x": 1.4172887108,
				"y": -2.3172797117,
				"z": -0.1260851808,
				"element": "C" 
			},
			{
				"x": 0.6705588408,
				"y": -1.0119053003,
				"z": -0.0157056418,
				"element": "C" 
			},
			{
				"x": 0.2534293664,
				"y": -0.346811552,
				"z": -1.1718511316,
				"element": "C" 
			},
			{
				"x": -0.443705975,
				"y": 0.8677279722,
				"z": -1.151089199,
				"element": "C" 
			},
			{
				"x": -0.8586479802,
				"y": 1.5218748383,
				"z": -2.4456734881,
				"element": "C" 
			},
			{
				"x": -0.7498700207,
				"y": 1.4659782346,
				"z": 0.0902281229,
				"element": "C" 
			},
			{
				"x": -1.4993611052,
				"y": 2.7742432651,
				"z": 0.166942972,
				"element": "C" 
			},
			{
				"x": -0.3384148149,
				"y": 0.8108821256,
				"z": 1.2485387569,
				"element": "C" 
			},
			{
				"x": 0.3602497157,
				"y": -0.4064612723,
				"z": 1.2246613309,
				"element": "C" 
			},
			{
				"x": 0.7321561442,
				"y": -0.98496759,
				"z": 2.5303397515,
				"element": "C" 
			},
			{
				"x": 1.3366115645,
				"y": -2.0270924545,
				"z": 2.7169521974,
				"element": "O" 
			},
			{
				"x": 2.4016896878,
				"y": -2.2564876074,
				"z": 0.3469343305,
				"element": "H" 
			},
			{
				"x": 0.8911864124,
				"y": -3.1244231994,
				"z": 0.3918401459,
				"element": "H" 
			},
			{
				"x": 1.5456832033,
				"y": -2.5951300686,
				"z": -1.1761279879,
				"element": "H" 
			},
			{
				"x": 0.4817355329,
				"y": -0.7950201478,
				"z": -2.136398795,
				"element": "H" 
			},
			{
				"x": -0.5444768235,
				"y": 0.9297920813,
				"z": -3.3086425219,
				"element": "H" 
			},
			{
				"x": -0.4225541818,
				"y": 2.5230639053,
				"z": -2.5474612841,
				"element": "H" 
			},
			{
				"x": -1.9468031619,
				"y": 1.6472747481,
				"z": -2.5014826822,
				"element": "H" 
			},
			{
				"x": -0.9630718843,
				"y": 3.580335619,
				"z": -0.3483717952,
				"element": "H" 
			},
			{
				"x": -2.488206635,
				"y": 2.7037909658,
				"z": -0.3022577114,
				"element": "H" 
			},
			{
				"x": -1.6456250939,
				"y": 3.0833534052,
				"z": 1.2051438913,
				"element": "H" 
			},
			{
				"x": -0.5650910004,
				"y": 1.2564102474,
				"z": 2.2158461052,
				"element": "H" 
			},
			{
				"x": 0.4036394981,
				"y": -0.367548504,
				"z": 3.3981198144,
				"element": "H" 
			}
		],
		 "valence_orbital": [ 
			{
				"type": "occ",
				"energy": -0.3402,
				"method": "rhf"
			},
			{
				"type": "occ",
				"energy": -0.33852,
				"method": "rhf"
			},
			{
				"type": "occ",
				"energy": -0.25291,
				"method": "rhf"
			},
			{
				"type": "occ",
				"energy": -0.24375,
				"method": "rhf"
			},
			{
				"type": "occ",
				"energy": -0.23888,
				"method": "rhf"
			},
			{
				"type": "unocc",
				"energy": -0.05403,
				"method": "rhf"
			},
			{
				"type": "unocc",
				"energy": -0.00198,
				"method": "rhf"
			},
			{
				"type": "unocc",
				"energy": 0.0436,
				"method": "rhf"
			},
			{
				"type": "unocc",
				"energy": 0.08631,
				"method": "rhf"
			},
			{
				"type": "unocc",
				"energy": 0.10803,
				"method": "rhf"
			}
		],
		"cosmo_sigma_profile": { 
			"-0.025": 0.0,
			"-0.024": 0.0,
			"-0.023": 0.0,
			"-0.022": 0.0,
			"-0.021": 0.0,
			"-0.02": 0.0,
			"-0.019": 0.0,
			"-0.018": 0.0,
			"-0.017": 0.0,
			"-0.016": 0.0,
			"-0.015": 0.0,
			"-0.014": 0.0,
			"-0.013": 0.0,
			"-0.012": 0.0,
			"-0.011": 0.0,
			"-0.01": 0.0,
			"-0.009": 0.0,
			"-0.008": 0.0,
			"-0.007": 0.862778711703,
			"-0.006": 5.02565087412,
			"-0.005": 12.3429051641,
			"-0.004": 22.0332646042,
			"-0.003": 19.4330914402,
			"-0.002": 21.1824113568,
			"-0.001": 23.3630750489,
			"0.0": 27.8844774444,
			"0.001": 18.4154513865,
			"0.002": 10.5008961228,
			"0.003": 8.68569084317,
			"0.004": 12.2890460382,
			"0.005": 5.08233698498,
			"0.006": 1.56813053041,
			"0.007": 1.73285996705,
			"0.008": 1.65732139058,
			"0.009": 2.30346537045,
			"0.01": 1.99166217802,
			"0.011": 2.2476273043,
			"0.012": 3.34816609241,
			"0.013": 1.83600042314,
			"0.014": 0.31574278663,
			"0.015": 0.0,
			"0.016": 0.0,
			"0.017": 0.0,
			"0.018": 0.0,
			"0.019": 0.0,
			"0.02": 0.0,
			"0.021": 0.0,
			"0.022": 0.0,
			"0.023": 0.0,
			"0.024": 0.0,
			"0.025": 0.0
		}
	}
}
