{
	 "smiles": "CCCC(C(N)=O)C1=CC=C(O)C(O)=C1", 
	 "Tm": 407.15, 
	 "num_atms": 30, 
	 "gaussian": { 
		 "optdone": 1, 
		 "sigma_profile": "yes", 
		 "theory": "DFT", 
		 "functional": "B3LYP", 
		 "basiset": "6-31G**", 
		 "properties": { 
			 "R2extent": 3800.7774, 
			 "electric_dipole_moment_norm": 2.8675388088, 
			 "electric_quadrupole_moment_norm": 22.2398419347, 
			 "total_energy": -708.656625596, 
			 "HOMO_LUMO_gap": 0.20648, 
			 "cosmo_polarized_energy": -19.08, 
			 "cosmo_cavitation_energy": 33.2, 
			 "cosmo_dispersion_energy": -22.99, 
			 "cosmo_repulsion_energy": 1.85, 
			 "cosmo_total_nonelectrostatic_energy": 12.07, 
			 "SMD_solvation_energy": 6.69 
		},
		"coords": [
			{
				"x": -2.0117414271,
				"y": -1.1050094448,
				"z": -2.2989505733,
				"element": "C" 
			},
			{
				"x": -0.919839484,
				"y": -1.9091400966,
				"z": -1.582643867,
				"element": "C" 
			},
			{
				"x": -1.1800596268,
				"y": -2.1501887395,
				"z": -0.0886673861,
				"element": "C" 
			},
			{
				"x": -1.1707770432,
				"y": -0.88031997,
				"z": 0.7917407567,
				"element": "C" 
			},
			{
				"x": -1.4752240445,
				"y": -1.2608554297,
				"z": 2.2513171894,
				"element": "C" 
			},
			{
				"x": -2.1636375155,
				"y": -0.3138594773,
				"z": 2.96287034,
				"element": "N" 
			},
			{
				"x": -1.1326260719,
				"y": -2.3259575034,
				"z": 2.7466923936,
				"element": "O" 
			},
			{
				"x": 0.1520165268,
				"y": -0.1194197548,
				"z": 0.7438809398,
				"element": "C" 
			},
			{
				"x": 1.3205693014,
				"y": -0.6831917648,
				"z": 1.2717870195,
				"element": "C" 
			},
			{
				"x": 2.5290139223,
				"y": 0.0161831264,
				"z": 1.2222091882,
				"element": "C" 
			},
			{
				"x": 2.5806807105,
				"y": 1.2821271008,
				"z": 0.6483530064,
				"element": "C" 
			},
			{
				"x": 3.7157812514,
				"y": 2.0562841088,
				"z": 0.5484580599,
				"element": "O" 
			},
			{
				"x": 1.4162552377,
				"y": 1.8626034965,
				"z": 0.1196232504,
				"element": "C" 
			},
			{
				"x": 1.4560238211,
				"y": 3.1043675289,
				"z": -0.4413734782,
				"element": "O" 
			},
			{
				"x": 0.2147242116,
				"y": 1.159774513,
				"z": 0.1730085685,
				"element": "C" 
			},
			{
				"x": -2.08728571,
				"y": -0.0820572409,
				"z": -1.9148407252,
				"element": "H" 
			},
			{
				"x": -2.9942187573,
				"y": -1.5771028648,
				"z": -2.1800338613,
				"element": "H" 
			},
			{
				"x": -1.8062775753,
				"y": -1.0321927696,
				"z": -3.3719698619,
				"element": "H" 
			},
			{
				"x": -0.8239231592,
				"y": -2.8877220992,
				"z": -2.0697420128,
				"element": "H" 
			},
			{
				"x": 0.0479256381,
				"y": -1.4092549618,
				"z": -1.7106604021,
				"element": "H" 
			},
			{
				"x": -2.1511464173,
				"y": -2.6467316624,
				"z": 0.0374243296,
				"element": "H" 
			},
			{
				"x": -0.4361922526,
				"y": -2.8439574994,
				"z": 0.3143580517,
				"element": "H" 
			},
			{
				"x": -1.9603663154,
				"y": -0.2014365063,
				"z": 0.4480911864,
				"element": "H" 
			},
			{
				"x": -2.2318215479,
				"y": -0.4539555384,
				"z": 3.960718293,
				"element": "H" 
			},
			{
				"x": -2.245286462,
				"y": 0.629354373,
				"z": 2.6162026592,
				"element": "H" 
			},
			{
				"x": 1.281557423,
				"y": -1.6609407216,
				"z": 1.7404019636,
				"element": "H" 
			},
			{
				"x": 3.4332668653,
				"y": -0.424751349,
				"z": 1.6370998811,
				"element": "H" 
			},
			{
				"x": 4.4687820815,
				"y": 1.5815058895,
				"z": 0.9206356961,
				"element": "H" 
			},
			{
				"x": 2.3715405699,
				"y": 3.4171848513,
				"z": -0.3880514703,
				"element": "H" 
			},
			{
				"x": -0.6693141508,
				"y": 1.6300604063,
				"z": -0.2479391349,
				"element": "H" 
			}
		],
		 "valence_orbital": [ 
			{
				"type": "occ",
				"energy": -0.31321,
				"method": "rhf"
			},
			{
				"type": "occ",
				"energy": -0.26623,
				"method": "rhf"
			},
			{
				"type": "occ",
				"energy": -0.24807,
				"method": "rhf"
			},
			{
				"type": "occ",
				"energy": -0.23538,
				"method": "rhf"
			},
			{
				"type": "occ",
				"energy": -0.20732,
				"method": "rhf"
			},
			{
				"type": "unocc",
				"energy": -0.00084,
				"method": "rhf"
			},
			{
				"type": "unocc",
				"energy": 0.01084,
				"method": "rhf"
			},
			{
				"type": "unocc",
				"energy": 0.03892,
				"method": "rhf"
			},
			{
				"type": "unocc",
				"energy": 0.05151,
				"method": "rhf"
			},
			{
				"type": "unocc",
				"energy": 0.07486,
				"method": "rhf"
			}
		],
		"cosmo_sigma_profile": { 
			"-0.025": 0.0,
			"-0.024": 0.0,
			"-0.023": 0.0,
			"-0.022": 0.0,
			"-0.021": 0.0,
			"-0.02": 0.0,
			"-0.019": 0.00492289808904,
			"-0.018": 0.861140649372,
			"-0.017": 1.08027939224,
			"-0.016": 1.0915743807,
			"-0.015": 1.12440115515,
			"-0.014": 2.27855406082,
			"-0.013": 3.44442988218,
			"-0.012": 4.11854871344,
			"-0.011": 3.10088702443,
			"-0.01": 4.20984083911,
			"-0.009": 4.71871009539,
			"-0.008": 4.34558623197,
			"-0.007": 3.90220133783,
			"-0.006": 6.43674303423,
			"-0.005": 8.87417283012,
			"-0.004": 9.18279520751,
			"-0.003": 13.2126400533,
			"-0.002": 20.6603209073,
			"-0.001": 20.305114069,
			"0.0": 23.5970741133,
			"0.001": 25.4320238543,
			"0.002": 18.0027416485,
			"0.003": 14.0765768643,
			"0.004": 14.2806266585,
			"0.005": 13.1462438426,
			"0.006": 7.47024211954,
			"0.007": 5.58055859305,
			"0.008": 3.66222357223,
			"0.009": 3.77674064755,
			"0.01": 2.38325712157,
			"0.011": 3.82444974253,
			"0.012": 2.8119385131,
			"0.013": 2.81836188724,
			"0.014": 5.01754305625,
			"0.015": 0.817708618157,
			"0.016": 0.0,
			"0.017": 0.0,
			"0.018": 0.0,
			"0.019": 0.0,
			"0.02": 0.0,
			"0.021": 0.0,
			"0.022": 0.0,
			"0.023": 0.0,
			"0.024": 0.0,
			"0.025": 0.0
		}
	}
}
