{
	 "smiles": "OC(=O)C1=C(Cl)C(=CC(Br)=C1)[N+]([O-])=O", 
	 "Tm": 500.15, 
	 "num_atms": 17, 
	 "gaussian": { 
		 "optdone": 1, 
		 "sigma_profile": "yes", 
		 "theory": "DFT", 
		 "functional": "B3LYP", 
		 "basiset": "6-31G**", 
		 "properties": { 
			 "R2extent": 5928.4195, 
			 "electric_dipole_moment_norm": 1.2269293745, 
			 "electric_quadrupole_moment_norm": 20.3021610909, 
			 "total_energy": -3655.67792446, 
			 "HOMO_LUMO_gap": 0.1692, 
			 "cosmo_polarized_energy": -13.33, 
			 "cosmo_cavitation_energy": 27.04, 
			 "cosmo_dispersion_energy": -20.46, 
			 "cosmo_repulsion_energy": 1.6, 
			 "cosmo_total_nonelectrostatic_energy": 8.19, 
			 "SMD_solvation_energy": 6.77 
		},
		"coords": [
			{
				"x": 3.2139759677,
				"y": 2.2358268202,
				"z": -2.2545308896,
				"element": "O" 
			},
			{
				"x": 3.2124392059,
				"y": 2.2054217634,
				"z": -0.9154673669,
				"element": "C" 
			},
			{
				"x": 3.8752537155,
				"y": 2.9973729247,
				"z": -0.2872964701,
				"element": "O" 
			},
			{
				"x": 2.3312101763,
				"y": 1.1963062126,
				"z": -0.1793228302,
				"element": "C" 
			},
			{
				"x": 1.6958715275,
				"y": 0.0471574616,
				"z": -0.6907911571,
				"element": "C" 
			},
			{
				"x": 1.9158879537,
				"y": -0.4555415935,
				"z": -2.3574687308,
				"element": "Cl" 
			},
			{
				"x": 0.9406607065,
				"y": -0.7568793445,
				"z": 0.1779806588,
				"element": "C" 
			},
			{
				"x": 0.8143756308,
				"y": -0.4564468751,
				"z": 1.5307543064,
				"element": "C" 
			},
			{
				"x": 1.4288145041,
				"y": 0.687483852,
				"z": 2.0246319128,
				"element": "C" 
			},
			{
				"x": 1.2495338408,
				"y": 1.1316687551,
				"z": 3.8616411976,
				"element": "Br" 
			},
			{
				"x": 2.177218464,
				"y": 1.4984481455,
				"z": 1.1828457437,
				"element": "C" 
			},
			{
				"x": 0.2176195024,
				"y": -1.9689898078,
				"z": -0.2684107913,
				"element": "N" 
			},
			{
				"x": 0.2024528959,
				"y": -2.9137110104,
				"z": 0.5164753677,
				"element": "O" 
			},
			{
				"x": -0.3445559097,
				"y": -1.9329841077,
				"z": -1.3564157426,
				"element": "O" 
			},
			{
				"x": 2.6637994235,
				"y": 1.5323150255,
				"z": -2.6353395945,
				"element": "H" 
			},
			{
				"x": 0.2427415525,
				"y": -1.1203225151,
				"z": 2.1662540415,
				"element": "H" 
			},
			{
				"x": 2.6805008426,
				"y": 2.3825742936,
				"z": 1.5537603446,
				"element": "H" 
			}
		],
		 "valence_orbital": [ 
			{
				"type": "occ",
				"energy": -0.32565,
				"method": "rhf"
			},
			{
				"type": "occ",
				"energy": -0.31875,
				"method": "rhf"
			},
			{
				"type": "occ",
				"energy": -0.3077,
				"method": "rhf"
			},
			{
				"type": "occ",
				"energy": -0.2973,
				"method": "rhf"
			},
			{
				"type": "occ",
				"energy": -0.28253,
				"method": "rhf"
			},
			{
				"type": "unocc",
				"energy": -0.11333,
				"method": "rhf"
			},
			{
				"type": "unocc",
				"energy": -0.09093,
				"method": "rhf"
			},
			{
				"type": "unocc",
				"energy": -0.05073,
				"method": "rhf"
			},
			{
				"type": "unocc",
				"energy": -0.03004,
				"method": "rhf"
			},
			{
				"type": "unocc",
				"energy": -0.01748,
				"method": "rhf"
			}
		],
		"cosmo_sigma_profile": { 
			"-0.025": 0.0,
			"-0.024": 0.0,
			"-0.023": 0.0,
			"-0.022": 0.0,
			"-0.021": 0.0,
			"-0.02": 0.0,
			"-0.019": 0.0,
			"-0.018": 0.0,
			"-0.017": 0.0,
			"-0.016": 0.0,
			"-0.015": 0.108751366599,
			"-0.014": 0.589831327838,
			"-0.013": 1.88329500683,
			"-0.012": 0.674411533003,
			"-0.011": 1.37644220479,
			"-0.01": 2.89897522902,
			"-0.009": 4.05853367428,
			"-0.008": 4.74751926819,
			"-0.007": 6.45652291174,
			"-0.006": 10.2265086321,
			"-0.005": 12.0268403807,
			"-0.004": 18.4428085723,
			"-0.003": 18.9239767554,
			"-0.002": 18.8897792904,
			"-0.001": 12.3027624258,
			"0.0": 11.8462325378,
			"0.001": 13.0194399909,
			"0.002": 12.0047243714,
			"0.003": 15.0346185376,
			"0.004": 7.62740815227,
			"0.005": 5.48652421545,
			"0.006": 11.1860381919,
			"0.007": 11.8264608167,
			"0.008": 6.57498431294,
			"0.009": 5.78300202159,
			"0.01": 4.9138915537,
			"0.011": 3.69772341322,
			"0.012": 1.5700226544,
			"0.013": 0.0396645000776,
			"0.014": 0.0,
			"0.015": 0.0,
			"0.016": 0.0,
			"0.017": 0.0,
			"0.018": 0.0,
			"0.019": 0.0,
			"0.02": 0.0,
			"0.021": 0.0,
			"0.022": 0.0,
			"0.023": 0.0,
			"0.024": 0.0,
			"0.025": 0.0
		}
	}
}
