{
	 "smiles": "ClCCN(CCCl)P1(=O)OCCCN1CCCl", 
	 "Tm": 323.65, 
	 "num_atms": 35, 
	 "gaussian": { 
		 "optdone": 1, 
		 "sigma_profile": "yes", 
		 "theory": "DFT", 
		 "functional": "B3LYP", 
		 "basiset": "6-31G**", 
		 "properties": { 
			 "R2extent": 6382.8663, 
			 "electric_dipole_moment_norm": 3.45383878315, 
			 "electric_quadrupole_moment_norm": 24.5275862649, 
			 "total_energy": -2335.74188748, 
			 "HOMO_LUMO_gap": 0.26011, 
			 "cosmo_polarized_energy": -18.8, 
			 "cosmo_cavitation_energy": 40.43, 
			 "cosmo_dispersion_energy": -27.47, 
			 "cosmo_repulsion_energy": 2.1, 
			 "cosmo_total_nonelectrostatic_energy": 15.06, 
			 "SMD_solvation_energy": 6.66 
		},
		"coords": [
			{
				"x": -0.112214151,
				"y": 1.0111629292,
				"z": 3.1296473822,
				"element": "Cl" 
			},
			{
				"x": -1.0235552208,
				"y": 0.7307723984,
				"z": 1.5805232317,
				"element": "C" 
			},
			{
				"x": -0.475697367,
				"y": 1.5314143632,
				"z": 0.4033327854,
				"element": "C" 
			},
			{
				"x": 0.9373725121,
				"y": 1.2554028927,
				"z": 0.066072465,
				"element": "N" 
			},
			{
				"x": 1.7787768486,
				"y": 2.4567372643,
				"z": -0.1288101933,
				"element": "C" 
			},
			{
				"x": 2.1335673582,
				"y": 3.20288139,
				"z": 1.1599639595,
				"element": "C" 
			},
			{
				"x": 0.9518940042,
				"y": 4.517087798,
				"z": 1.6133604304,
				"element": "Cl" 
			},
			{
				"x": 1.1951556642,
				"y": 0.0104967657,
				"z": -1.0727328625,
				"element": "P" 
			},
			{
				"x": 0.6187898036,
				"y": 0.2256624819,
				"z": -2.4263860818,
				"element": "O" 
			},
			{
				"x": 2.8171474825,
				"y": -0.1051905879,
				"z": -1.0510969551,
				"element": "O" 
			},
			{
				"x": 3.4488080195,
				"y": -1.128093953,
				"z": -0.24467762,
				"element": "C" 
			},
			{
				"x": 2.6998165551,
				"y": -1.3639006224,
				"z": 1.0620165958,
				"element": "C" 
			},
			{
				"x": 1.3168538862,
				"y": -1.9869551231,
				"z": 0.8171677749,
				"element": "C" 
			},
			{
				"x": 0.6338986681,
				"y": -1.4064735507,
				"z": -0.3630537127,
				"element": "N" 
			},
			{
				"x": -0.2046439589,
				"y": -2.2963670336,
				"z": -1.1736631416,
				"element": "C" 
			},
			{
				"x": -1.6818077479,
				"y": -2.3328526195,
				"z": -0.8011276622,
				"element": "C" 
			},
			{
				"x": -1.9962173295,
				"y": -3.0427772539,
				"z": 0.8471270244,
				"element": "Cl" 
			},
			{
				"x": -0.9899436251,
				"y": -0.3418200452,
				"z": 1.4036355094,
				"element": "H" 
			},
			{
				"x": -2.0550381112,
				"y": 1.0296347262,
				"z": 1.7774235355,
				"element": "H" 
			},
			{
				"x": -0.5692721905,
				"y": 2.594982881,
				"z": 0.6255326278,
				"element": "H" 
			},
			{
				"x": -1.1344134626,
				"y": 1.3336566295,
				"z": -0.456306297,
				"element": "H" 
			},
			{
				"x": 1.331213826,
				"y": 3.1530467086,
				"z": -0.8504750729,
				"element": "H" 
			},
			{
				"x": 2.7238274716,
				"y": 2.1155572777,
				"z": -0.5569896734,
				"element": "H" 
			},
			{
				"x": 2.1788816495,
				"y": 2.5229917796,
				"z": 2.0102409137,
				"element": "H" 
			},
			{
				"x": 3.0878329989,
				"y": 3.7176845972,
				"z": 1.0419018959,
				"element": "H" 
			},
			{
				"x": 4.4667783281,
				"y": -0.7738150372,
				"z": -0.0646502033,
				"element": "H" 
			},
			{
				"x": 3.5077155673,
				"y": -2.049423415,
				"z": -0.8378444095,
				"element": "H" 
			},
			{
				"x": 2.6027505122,
				"y": -0.4154115347,
				"z": 1.5981821942,
				"element": "H" 
			},
			{
				"x": 3.281416806,
				"y": -2.0391297743,
				"z": 1.6994206094,
				"element": "H" 
			},
			{
				"x": 1.436674724,
				"y": -3.0598564477,
				"z": 0.6208276157,
				"element": "H" 
			},
			{
				"x": 0.6997422916,
				"y": -1.8952707255,
				"z": 1.717279204,
				"element": "H" 
			},
			{
				"x": 0.2065401135,
				"y": -3.3125854986,
				"z": -1.1345031649,
				"element": "H" 
			},
			{
				"x": -0.1616583591,
				"y": -1.9543690746,
				"z": -2.2128877405,
				"element": "H" 
			},
			{
				"x": -2.1143314593,
				"y": -1.3317808831,
				"z": -0.7936937295,
				"element": "H" 
			},
			{
				"x": -2.2325621083,
				"y": -2.956299703,
				"z": -1.5082572347,
				"element": "H" 
			}
		],
		 "valence_orbital": [ 
			{
				"type": "occ",
				"energy": -0.29656,
				"method": "rhf"
			},
			{
				"type": "occ",
				"energy": -0.29075,
				"method": "rhf"
			},
			{
				"type": "occ",
				"energy": -0.28984,
				"method": "rhf"
			},
			{
				"type": "occ",
				"energy": -0.25723,
				"method": "rhf"
			},
			{
				"type": "occ",
				"energy": -0.24423,
				"method": "rhf"
			},
			{
				"type": "unocc",
				"energy": 0.01588,
				"method": "rhf"
			},
			{
				"type": "unocc",
				"energy": 0.01913,
				"method": "rhf"
			},
			{
				"type": "unocc",
				"energy": 0.02359,
				"method": "rhf"
			},
			{
				"type": "unocc",
				"energy": 0.05471,
				"method": "rhf"
			},
			{
				"type": "unocc",
				"energy": 0.0648,
				"method": "rhf"
			}
		],
		"cosmo_sigma_profile": { 
			"-0.025": 0.0,
			"-0.024": 0.0,
			"-0.023": 0.0,
			"-0.022": 0.0,
			"-0.021": 0.0,
			"-0.02": 0.0,
			"-0.019": 0.0,
			"-0.018": 0.0,
			"-0.017": 0.0,
			"-0.016": 0.0,
			"-0.015": 0.0,
			"-0.014": 0.0,
			"-0.013": 0.0,
			"-0.012": 0.0,
			"-0.011": 0.0,
			"-0.01": 0.0,
			"-0.009": 0.0,
			"-0.008": 1.97870542882,
			"-0.007": 13.4568420872,
			"-0.006": 24.273190223,
			"-0.005": 35.8085985769,
			"-0.004": 32.101120052,
			"-0.003": 27.5258206789,
			"-0.002": 18.6884442538,
			"-0.001": 16.4288093804,
			"0.0": 16.826534163,
			"0.001": 15.5682147826,
			"0.002": 16.8708051157,
			"0.003": 17.2971841309,
			"0.004": 16.717005831,
			"0.005": 15.0223769192,
			"0.006": 19.6354418785,
			"0.007": 12.2795128848,
			"0.008": 1.68322430699,
			"0.009": 2.00010771899,
			"0.01": 2.54595954023,
			"0.011": 1.92904297758,
			"0.012": 1.80955874393,
			"0.013": 1.01643659055,
			"0.014": 2.64160353846,
			"0.015": 5.04144609788,
			"0.016": 1.74691616756,
			"0.017": 0.0,
			"0.018": 0.0,
			"0.019": 0.0,
			"0.02": 0.0,
			"0.021": 0.0,
			"0.022": 0.0,
			"0.023": 0.0,
			"0.024": 0.0,
			"0.025": 0.0
		}
	}
}
