{
	 "smiles": "COC1=CC=C(C=C1)C(O)C1=CC=C(OC)C=C1", 
	 "Tm": 343.15, 
	 "num_atms": 34, 
	 "gaussian": { 
		 "optdone": 1, 
		 "sigma_profile": "yes", 
		 "theory": "DFT", 
		 "functional": "B3LYP", 
		 "basiset": "6-31G**", 
		 "properties": { 
			 "R2extent": 6868.477, 
			 "electric_dipole_moment_norm": 1.74233735252, 
			 "electric_quadrupole_moment_norm": 17.3119623076, 
			 "total_energy": -806.88023432, 
			 "HOMO_LUMO_gap": 0.20108, 
			 "cosmo_polarized_energy": -12.86, 
			 "cosmo_cavitation_energy": 37.64, 
			 "cosmo_dispersion_energy": -26.84, 
			 "cosmo_repulsion_energy": 2.09, 
			 "cosmo_total_nonelectrostatic_energy": 12.88, 
			 "SMD_solvation_energy": 7.82 
		},
		"coords": [
			{
				"x": 3.4584883638,
				"y": -3.9828173015,
				"z": 1.2697998926,
				"element": "C" 
			},
			{
				"x": 3.0006633563,
				"y": -3.2943393667,
				"z": 0.1175614959,
				"element": "O" 
			},
			{
				"x": 2.3453143843,
				"y": -2.109825716,
				"z": 0.2916463022,
				"element": "C" 
			},
			{
				"x": 1.9063689854,
				"y": -1.4797459749,
				"z": -0.8860715912,
				"element": "C" 
			},
			{
				"x": 1.2274893955,
				"y": -0.2733049201,
				"z": -0.8196849434,
				"element": "C" 
			},
			{
				"x": 0.9680269222,
				"y": 0.3441025218,
				"z": 0.4169378315,
				"element": "C" 
			},
			{
				"x": 1.4168322789,
				"y": -0.2871621253,
				"z": 1.5761971801,
				"element": "C" 
			},
			{
				"x": 2.0982848845,
				"y": -1.50952569,
				"z": 1.5296132619,
				"element": "C" 
			},
			{
				"x": 0.2425803839,
				"y": 1.6806960702,
				"z": 0.4735677634,
				"element": "C" 
			},
			{
				"x": 0.9204473037,
				"y": 2.6649270124,
				"z": -0.3096421391,
				"element": "O" 
			},
			{
				"x": -1.1964561785,
				"y": 1.5986680468,
				"z": -0.0196915688,
				"element": "C" 
			},
			{
				"x": -1.6486248557,
				"y": 2.3580783493,
				"z": -1.0975919598,
				"element": "C" 
			},
			{
				"x": -2.977109155,
				"y": 2.281675146,
				"z": -1.5332145391,
				"element": "C" 
			},
			{
				"x": -3.8747129547,
				"y": 1.4341988846,
				"z": -0.8785501752,
				"element": "C" 
			},
			{
				"x": -5.1912937624,
				"y": 1.2798918426,
				"z": -1.2143697757,
				"element": "O" 
			},
			{
				"x": -5.6925422046,
				"y": 2.0289685678,
				"z": -2.3079516236,
				"element": "C" 
			},
			{
				"x": -3.4308596332,
				"y": 0.6675830564,
				"z": 0.2105698187,
				"element": "C" 
			},
			{
				"x": -2.1107682402,
				"y": 0.7524874602,
				"z": 0.6283310291,
				"element": "C" 
			},
			{
				"x": 4.1901386661,
				"y": -3.389215356,
				"z": 1.8334114014,
				"element": "H" 
			},
			{
				"x": 3.9391582725,
				"y": -4.8927258029,
				"z": 0.9070476901,
				"element": "H" 
			},
			{
				"x": 2.6294132957,
				"y": -4.2541178218,
				"z": 1.9362364346,
				"element": "H" 
			},
			{
				"x": 2.1096144008,
				"y": -1.9635284728,
				"z": -1.8360857004,
				"element": "H" 
			},
			{
				"x": 0.8873074039,
				"y": 0.2070622667,
				"z": -1.7324204345,
				"element": "H" 
			},
			{
				"x": 1.2370346805,
				"y": 0.1775120596,
				"z": 2.5432668731,
				"element": "H" 
			},
			{
				"x": 2.4299722924,
				"y": -1.9706532186,
				"z": 2.4523505977,
				"element": "H" 
			},
			{
				"x": 0.2196005363,
				"y": 2.0000155836,
				"z": 1.529814183,
				"element": "H" 
			},
			{
				"x": 1.8610363072,
				"y": 2.590171587,
				"z": -0.1051832929,
				"element": "H" 
			},
			{
				"x": -0.9566691209,
				"y": 3.022534334,
				"z": -1.6014272072,
				"element": "H" 
			},
			{
				"x": -3.2925791217,
				"y": 2.8867032216,
				"z": -2.3752930451,
				"element": "H" 
			},
			{
				"x": -6.7455841801,
				"y": 1.758491867,
				"z": -2.4032689552,
				"element": "H" 
			},
			{
				"x": -5.6132188388,
				"y": 3.1097925428,
				"z": -2.1312842785,
				"element": "H" 
			},
			{
				"x": -5.1716748795,
				"y": 1.7825462153,
				"z": -3.2426471975,
				"element": "H" 
			},
			{
				"x": -4.1400169624,
				"y": 0.0137471512,
				"z": 0.7079096811,
				"element": "H" 
			},
			{
				"x": -1.7801620262,
				"y": 0.1450079796,
				"z": 1.4672169911,
				"element": "H" 
			}
		],
		 "valence_orbital": [ 
			{
				"type": "occ",
				"energy": -0.27212,
				"method": "rhf"
			},
			{
				"type": "occ",
				"energy": -0.25025,
				"method": "rhf"
			},
			{
				"type": "occ",
				"energy": -0.23978,
				"method": "rhf"
			},
			{
				"type": "occ",
				"energy": -0.21858,
				"method": "rhf"
			},
			{
				"type": "occ",
				"energy": -0.20419,
				"method": "rhf"
			},
			{
				"type": "unocc",
				"energy": -0.00311,
				"method": "rhf"
			},
			{
				"type": "unocc",
				"energy": 0.00401,
				"method": "rhf"
			},
			{
				"type": "unocc",
				"energy": 0.00977,
				"method": "rhf"
			},
			{
				"type": "unocc",
				"energy": 0.02443,
				"method": "rhf"
			},
			{
				"type": "unocc",
				"energy": 0.09237,
				"method": "rhf"
			}
		],
		"cosmo_sigma_profile": { 
			"-0.025": 0.0,
			"-0.024": 0.0,
			"-0.023": 0.0,
			"-0.022": 0.0,
			"-0.021": 0.0,
			"-0.02": 0.0,
			"-0.019": 0.0,
			"-0.018": 0.0,
			"-0.017": 0.0,
			"-0.016": 0.150636064958,
			"-0.015": 0.634373653524,
			"-0.014": 0.738708470545,
			"-0.013": 0.861096910114,
			"-0.012": 1.09440443871,
			"-0.011": 0.508323104654,
			"-0.01": 0.459654943041,
			"-0.009": 0.88296809596,
			"-0.008": 0.683012182879,
			"-0.007": 1.2978251659,
			"-0.006": 12.1997405632,
			"-0.005": 32.2651149587,
			"-0.004": 32.2351268109,
			"-0.003": 34.3808643827,
			"-0.002": 19.2788661863,
			"-0.001": 14.7514458209,
			"0.0": 14.9700676495,
			"0.001": 15.1403373761,
			"0.002": 14.469836654,
			"0.003": 17.6674578821,
			"0.004": 22.0151172709,
			"0.005": 24.2119069741,
			"0.006": 15.6380374947,
			"0.007": 4.17989247696,
			"0.008": 3.95911400662,
			"0.009": 5.51968789776,
			"0.01": 4.21541732488,
			"0.011": 2.29216637608,
			"0.012": 0.645249925634,
			"0.013": 0.876894545372,
			"0.014": 0.0260825543096,
			"0.015": 0.0,
			"0.016": 0.0,
			"0.017": 0.0,
			"0.018": 0.0,
			"0.019": 0.0,
			"0.02": 0.0,
			"0.021": 0.0,
			"0.022": 0.0,
			"0.023": 0.0,
			"0.024": 0.0,
			"0.025": 0.0
		}
	}
}
