{
	 "smiles": "CC(CC(N)C(O)=O)C(F)(F)F", 
	 "Tm": 547.15, 
	 "num_atms": 22, 
	 "gaussian": { 
		 "optdone": 1, 
		 "sigma_profile": "yes", 
		 "theory": "DFT", 
		 "functional": "B3LYP", 
		 "basiset": "6-31G**", 
		 "properties": { 
			 "R2extent": 3509.7145, 
			 "electric_dipole_moment_norm": 4.94780817534, 
			 "electric_quadrupole_moment_norm": 22.0906784375, 
			 "total_energy": -739.4187874, 
			 "HOMO_LUMO_gap": 0.26906, 
			 "cosmo_polarized_energy": -15.11, 
			 "cosmo_cavitation_energy": 25.88, 
			 "cosmo_dispersion_energy": -18.22, 
			 "cosmo_repulsion_energy": 1.41, 
			 "cosmo_total_nonelectrostatic_energy": 9.07, 
			 "SMD_solvation_energy": 6.18 
		},
		"coords": [
			{
				"x": 2.1707521502,
				"y": -0.390020675,
				"z": -3.3539182329,
				"element": "C" 
			},
			{
				"x": 1.2517719303,
				"y": 0.4311982159,
				"z": -2.4348623152,
				"element": "C" 
			},
			{
				"x": 2.0621125501,
				"y": 1.0593194016,
				"z": -1.2828679607,
				"element": "C" 
			},
			{
				"x": 1.2906922584,
				"y": 1.9310968041,
				"z": -0.2774637591,
				"element": "C" 
			},
			{
				"x": 0.5070976526,
				"y": 3.046020489,
				"z": -0.835196493,
				"element": "N" 
			},
			{
				"x": 2.2564081455,
				"y": 2.4858464406,
				"z": 0.7945682932,
				"element": "C" 
			},
			{
				"x": 1.9009280441,
				"y": 3.6927288254,
				"z": 1.2567971408,
				"element": "O" 
			},
			{
				"x": 3.2188002506,
				"y": 1.8755717265,
				"z": 1.198734987,
				"element": "O" 
			},
			{
				"x": 0.0980874552,
				"y": -0.4315588974,
				"z": -1.9429237798,
				"element": "C" 
			},
			{
				"x": 0.4996285265,
				"y": -1.3565867238,
				"z": -1.0459470849,
				"element": "F" 
			},
			{
				"x": -0.5097963905,
				"y": -1.0847359383,
				"z": -2.9558505736,
				"element": "F" 
			},
			{
				"x": -0.8702659134,
				"y": 0.3145860206,
				"z": -1.3365349491,
				"element": "F" 
			},
			{
				"x": 2.9836191245,
				"y": 0.2382066053,
				"z": -3.7275258065,
				"element": "H" 
			},
			{
				"x": 1.623115566,
				"y": -0.7902455063,
				"z": -4.2095921932,
				"element": "H" 
			},
			{
				"x": 2.6149420459,
				"y": -1.2273478399,
				"z": -2.807229927,
				"element": "H" 
			},
			{
				"x": 0.7792469482,
				"y": 1.2262251702,
				"z": -3.0257186432,
				"element": "H" 
			},
			{
				"x": 2.5763939093,
				"y": 0.2759448692,
				"z": -0.7197955042,
				"element": "H" 
			},
			{
				"x": 2.8532201132,
				"y": 1.6681658256,
				"z": -1.7384337564,
				"element": "H" 
			},
			{
				"x": 0.5845308972,
				"y": 1.3016827983,
				"z": 0.2749512896,
				"element": "H" 
			},
			{
				"x": 0.9863334037,
				"y": 3.4740619914,
				"z": -1.6245839425,
				"element": "H" 
			},
			{
				"x": -0.3976480886,
				"y": 2.7219106551,
				"z": -1.1616821293,
				"element": "H" 
			},
			{
				"x": 1.1180294211,
				"y": 3.9478297416,
				"z": 0.71337534,
				"element": "H" 
			}
		],
		 "valence_orbital": [ 
			{
				"type": "occ",
				"energy": -0.3572,
				"method": "rhf"
			},
			{
				"type": "occ",
				"energy": -0.35121,
				"method": "rhf"
			},
			{
				"type": "occ",
				"energy": -0.30339,
				"method": "rhf"
			},
			{
				"type": "occ",
				"energy": -0.29662,
				"method": "rhf"
			},
			{
				"type": "occ",
				"energy": -0.25533,
				"method": "rhf"
			},
			{
				"type": "unocc",
				"energy": 0.01373,
				"method": "rhf"
			},
			{
				"type": "unocc",
				"energy": 0.05269,
				"method": "rhf"
			},
			{
				"type": "unocc",
				"energy": 0.0864,
				"method": "rhf"
			},
			{
				"type": "unocc",
				"energy": 0.1078,
				"method": "rhf"
			},
			{
				"type": "unocc",
				"energy": 0.11095,
				"method": "rhf"
			}
		],
		"cosmo_sigma_profile": { 
			"-0.025": 0.0,
			"-0.024": 0.0,
			"-0.023": 0.0,
			"-0.022": 0.0,
			"-0.021": 0.0,
			"-0.02": 0.0,
			"-0.019": 0.0,
			"-0.018": 0.0,
			"-0.017": 0.0,
			"-0.016": 0.0,
			"-0.015": 0.0,
			"-0.014": 0.0,
			"-0.013": 0.0,
			"-0.012": 0.46051821631,
			"-0.011": 2.51356000001,
			"-0.01": 3.38022479538,
			"-0.009": 4.59940199845,
			"-0.008": 5.6117647906,
			"-0.007": 7.47608390315,
			"-0.006": 8.91782865005,
			"-0.005": 11.2121646058,
			"-0.004": 14.3504815148,
			"-0.003": 13.6017125235,
			"-0.002": 15.2506680853,
			"-0.001": 13.5432401767,
			"0.0": 13.6830850753,
			"0.001": 9.52424389912,
			"0.002": 13.3568923817,
			"0.003": 25.9398100988,
			"0.004": 5.49938382051,
			"0.005": 3.05512181788,
			"0.006": 2.47648130599,
			"0.007": 2.82505003639,
			"0.008": 2.44014645081,
			"0.009": 3.81024117273,
			"0.01": 4.15038813978,
			"0.011": 5.17383118772,
			"0.012": 5.71117028703,
			"0.013": 3.14002087698,
			"0.014": 0.636347439264,
			"0.015": 0.0,
			"0.016": 0.0,
			"0.017": 0.0,
			"0.018": 0.0,
			"0.019": 0.0,
			"0.02": 0.0,
			"0.021": 0.0,
			"0.022": 0.0,
			"0.023": 0.0,
			"0.024": 0.0,
			"0.025": 0.0
		}
	}
}
