{
	 "smiles": "OC(=O)C1=NN(C=C1)C1=C(Cl)C=C(C=C1Cl)[N+]([O-])=O", 
	 "Tm": 480.15, 
	 "num_atms": 24, 
	 "gaussian": { 
		 "optdone": 1, 
		 "sigma_profile": "yes", 
		 "theory": "DFT", 
		 "functional": "B3LYP", 
		 "basiset": "6-31G**", 
		 "properties": { 
			 "R2extent": 7217.5817, 
			 "electric_dipole_moment_norm": 6.17710332842, 
			 "electric_quadrupole_moment_norm": 24.2027460054, 
			 "total_energy": -1769.46959572, 
			 "HOMO_LUMO_gap": 0.15295, 
			 "cosmo_polarized_energy": -24.3, 
			 "cosmo_cavitation_energy": 35.18, 
			 "cosmo_dispersion_energy": -24.6, 
			 "cosmo_repulsion_energy": 1.9, 
			 "cosmo_total_nonelectrostatic_energy": 12.48, 
			 "SMD_solvation_energy": 8.87 
		},
		"coords": [
			{
				"x": -1.5899071727,
				"y": -1.5097120243,
				"z": -4.7437350362,
				"element": "O" 
			},
			{
				"x": -1.8502110845,
				"y": -1.7721164173,
				"z": -3.4319389517,
				"element": "C" 
			},
			{
				"x": -2.4401271065,
				"y": -2.7695575577,
				"z": -3.1082047134,
				"element": "O" 
			},
			{
				"x": -1.3690800374,
				"y": -0.7260193503,
				"z": -2.4809084402,
				"element": "C" 
			},
			{
				"x": -1.1815117228,
				"y": -1.0414349648,
				"z": -1.1994419253,
				"element": "N" 
			},
			{
				"x": -0.7753129584,
				"y": 0.1103581897,
				"z": -0.6244618696,
				"element": "N" 
			},
			{
				"x": -0.7047637274,
				"y": 1.1519081039,
				"z": -1.5102471735,
				"element": "C" 
			},
			{
				"x": -1.0807406667,
				"y": 0.6447289928,
				"z": -2.7312107697,
				"element": "C" 
			},
			{
				"x": -0.4600832358,
				"y": 0.1296203145,
				"z": 0.7595141465,
				"element": "C" 
			},
			{
				"x": 0.7503589603,
				"y": -0.4176669951,
				"z": 1.22256971,
				"element": "C" 
			},
			{
				"x": 1.8970357519,
				"y": -1.0826691711,
				"z": 0.0976489217,
				"element": "Cl" 
			},
			{
				"x": 1.0612590404,
				"y": -0.4229531429,
				"z": 2.5797362171,
				"element": "C" 
			},
			{
				"x": 0.1452151494,
				"y": 0.1348386494,
				"z": 3.462823983,
				"element": "C" 
			},
			{
				"x": -1.0598652318,
				"y": 0.6911759678,
				"z": 3.0530454591,
				"element": "C" 
			},
			{
				"x": -1.3565580842,
				"y": 0.6802915764,
				"z": 1.6926474837,
				"element": "C" 
			},
			{
				"x": -2.8714424444,
				"y": 1.353817736,
				"z": 1.1610930408,
				"element": "Cl" 
			},
			{
				"x": 0.4696381099,
				"y": 0.1401565373,
				"z": 4.9062514334,
				"element": "N" 
			},
			{
				"x": -0.3523540435,
				"y": 0.6458000866,
				"z": 5.6651007132,
				"element": "O" 
			},
			{
				"x": 1.5389159751,
				"y": -0.3595182703,
				"z": 5.243781292,
				"element": "O" 
			},
			{
				"x": -0.9831854389,
				"y": -0.7603278655,
				"z": -4.8220585448,
				"element": "H" 
			},
			{
				"x": -0.4075174126,
				"y": 2.141680875,
				"z": -1.197649631,
				"element": "H" 
			},
			{
				"x": -1.1753635237,
				"y": 1.1992558192,
				"z": -3.6537664524,
				"element": "H" 
			},
			{
				"x": 1.9887874378,
				"y": -0.8412935627,
				"z": 2.9466326061,
				"element": "H" 
			},
			{
				"x": -1.7437865335,
				"y": 1.1093364736,
				"z": 3.7791785013,
				"element": "H" 
			}
		],
		 "valence_orbital": [ 
			{
				"type": "occ",
				"energy": -0.31173,
				"method": "rhf"
			},
			{
				"type": "occ",
				"energy": -0.29121,
				"method": "rhf"
			},
			{
				"type": "occ",
				"energy": -0.28887,
				"method": "rhf"
			},
			{
				"type": "occ",
				"energy": -0.28429,
				"method": "rhf"
			},
			{
				"type": "occ",
				"energy": -0.27355,
				"method": "rhf"
			},
			{
				"type": "unocc",
				"energy": -0.1206,
				"method": "rhf"
			},
			{
				"type": "unocc",
				"energy": -0.06689,
				"method": "rhf"
			},
			{
				"type": "unocc",
				"energy": -0.04555,
				"method": "rhf"
			},
			{
				"type": "unocc",
				"energy": -0.0379,
				"method": "rhf"
			},
			{
				"type": "unocc",
				"energy": -0.027,
				"method": "rhf"
			}
		],
		"cosmo_sigma_profile": { 
			"-0.025": 0.0,
			"-0.024": 0.0,
			"-0.023": 0.0,
			"-0.022": 0.0,
			"-0.021": 0.0,
			"-0.02": 0.0,
			"-0.019": 0.159148435853,
			"-0.018": 1.18614765829,
			"-0.017": 1.0715075776,
			"-0.016": 1.06002881988,
			"-0.015": 0.835078969426,
			"-0.014": 0.871849622461,
			"-0.013": 1.40413921899,
			"-0.012": 1.59945594332,
			"-0.011": 2.99242903749,
			"-0.01": 3.90001218348,
			"-0.009": 6.99027459784,
			"-0.008": 7.3832359996,
			"-0.007": 9.3682378026,
			"-0.006": 9.25694593684,
			"-0.005": 10.8403515666,
			"-0.004": 19.951119729,
			"-0.003": 26.4701402254,
			"-0.002": 17.9313926085,
			"-0.001": 15.6996444189,
			"0.0": 15.7827257321,
			"0.001": 20.7544782422,
			"0.002": 25.8576360393,
			"0.003": 14.4715452484,
			"0.004": 6.73562223501,
			"0.005": 7.86940389457,
			"0.006": 10.6945016184,
			"0.007": 10.3045664982,
			"0.008": 7.66169930166,
			"0.009": 7.41144290024,
			"0.01": 6.16820664084,
			"0.011": 6.80040121298,
			"0.012": 5.66344413045,
			"0.013": 3.12783905943,
			"0.014": 0.555399125036,
			"0.015": 0.0,
			"0.016": 0.0,
			"0.017": 0.0,
			"0.018": 0.0,
			"0.019": 0.0,
			"0.02": 0.0,
			"0.021": 0.0,
			"0.022": 0.0,
			"0.023": 0.0,
			"0.024": 0.0,
			"0.025": 0.0
		}
	}
}
