{
	 "smiles": "CC(=O)OC1=CC=C(C=C1)C(O)=O", 
	 "Tm": 466.15, 
	 "num_atms": 21, 
	 "gaussian": { 
		 "optdone": 1, 
		 "sigma_profile": "yes", 
		 "theory": "DFT", 
		 "functional": "B3LYP", 
		 "basiset": "6-31G**", 
		 "properties": { 
			 "R2extent": 3500.1759, 
			 "electric_dipole_moment_norm": 4.91938843049, 
			 "electric_quadrupole_moment_norm": 14.1640709501, 
			 "total_energy": -648.691818919, 
			 "HOMO_LUMO_gap": 0.20315, 
			 "cosmo_polarized_energy": -16.32, 
			 "cosmo_cavitation_energy": 26.47, 
			 "cosmo_dispersion_energy": -19.44, 
			 "cosmo_repulsion_energy": 1.55, 
			 "cosmo_total_nonelectrostatic_energy": 8.57, 
			 "SMD_solvation_energy": 7.13 
		},
		"coords": [
			{
				"x": -2.0261495129,
				"y": -0.4739016,
				"z": -4.5691468492,
				"element": "C" 
			},
			{
				"x": -1.2979281711,
				"y": 0.2938982221,
				"z": -3.4955924263,
				"element": "C" 
			},
			{
				"x": -1.1762430389,
				"y": 1.4919126262,
				"z": -3.4374103215,
				"element": "O" 
			},
			{
				"x": -0.788964448,
				"y": -0.588752661,
				"z": -2.57325363,
				"element": "O" 
			},
			{
				"x": -0.0741077415,
				"y": -0.1906314087,
				"z": -1.451395222,
				"element": "C" 
			},
			{
				"x": -0.1644847964,
				"y": -1.0662049118,
				"z": -0.3643494735,
				"element": "C" 
			},
			{
				"x": 0.5548904169,
				"y": -0.8046279308,
				"z": 0.7934721572,
				"element": "C" 
			},
			{
				"x": 1.3575643547,
				"y": 0.3414504658,
				"z": 0.8871329229,
				"element": "C" 
			},
			{
				"x": 1.4500452491,
				"y": 1.1958488105,
				"z": -0.2195545559,
				"element": "C" 
			},
			{
				"x": 0.7429089609,
				"y": 0.9415457942,
				"z": -1.3940933986,
				"element": "C" 
			},
			{
				"x": 2.1078951,
				"y": 0.563718228,
				"z": 2.1639448847,
				"element": "C" 
			},
			{
				"x": 2.5482924508,
				"y": 1.8284682643,
				"z": 2.40504884,
				"element": "O" 
			},
			{
				"x": 2.3288492953,
				"y": -0.3144557698,
				"z": 2.9647790127,
				"element": "O" 
			},
			{
				"x": -2.8415158428,
				"y": -1.0543287059,
				"z": -4.127593413,
				"element": "H" 
			},
			{
				"x": -2.4213909705,
				"y": 0.2245679417,
				"z": -5.305614877,
				"element": "H" 
			},
			{
				"x": -1.3453225099,
				"y": -1.1822296057,
				"z": -5.0502970958,
				"element": "H" 
			},
			{
				"x": -0.7962103402,
				"y": -1.9438485339,
				"z": -0.4499483935,
				"element": "H" 
			},
			{
				"x": 0.5084175786,
				"y": -1.4760832798,
				"z": 1.6437255098,
				"element": "H" 
			},
			{
				"x": 2.1104414591,
				"y": 2.0595070032,
				"z": -0.2009751938,
				"element": "H" 
			},
			{
				"x": 0.8209731736,
				"y": 1.6083797805,
				"z": -2.2400227749,
				"element": "H" 
			},
			{
				"x": 2.1533393332,
				"y": 2.4459672711,
				"z": 1.7742442976,
				"element": "H" 
			}
		],
		 "valence_orbital": [ 
			{
				"type": "occ",
				"energy": -0.31522,
				"method": "rhf"
			},
			{
				"type": "occ",
				"energy": -0.29393,
				"method": "rhf"
			},
			{
				"type": "occ",
				"energy": -0.27588,
				"method": "rhf"
			},
			{
				"type": "occ",
				"energy": -0.27388,
				"method": "rhf"
			},
			{
				"type": "occ",
				"energy": -0.25733,
				"method": "rhf"
			},
			{
				"type": "unocc",
				"energy": -0.05418,
				"method": "rhf"
			},
			{
				"type": "unocc",
				"energy": -0.02639,
				"method": "rhf"
			},
			{
				"type": "unocc",
				"energy": -0.00771,
				"method": "rhf"
			},
			{
				"type": "unocc",
				"energy": 0.0506,
				"method": "rhf"
			},
			{
				"type": "unocc",
				"energy": 0.06022,
				"method": "rhf"
			}
		],
		"cosmo_sigma_profile": { 
			"-0.025": 0.0,
			"-0.024": 0.0,
			"-0.023": 0.0,
			"-0.022": 0.0,
			"-0.021": 0.0,
			"-0.02": 0.0,
			"-0.019": 0.170631131726,
			"-0.018": 0.932475241137,
			"-0.017": 0.915195195507,
			"-0.016": 0.971155179542,
			"-0.015": 1.20436473492,
			"-0.014": 0.866944150005,
			"-0.013": 1.1742992973,
			"-0.012": 1.25260000668,
			"-0.011": 1.0144911814,
			"-0.01": 0.697262377046,
			"-0.009": 2.08014878075,
			"-0.008": 2.27346202582,
			"-0.007": 8.87341334626,
			"-0.006": 13.0868302838,
			"-0.005": 13.6446971743,
			"-0.004": 14.6935335141,
			"-0.003": 15.6182412761,
			"-0.002": 14.8899667977,
			"-0.001": 12.9158370242,
			"0.0": 10.6238808307,
			"0.001": 14.9174539245,
			"0.002": 18.054826134,
			"0.003": 8.7622740438,
			"0.004": 5.89388340386,
			"0.005": 5.02047478318,
			"0.006": 4.835558102,
			"0.007": 3.9119219361,
			"0.008": 3.94233043168,
			"0.009": 5.6495753071,
			"0.01": 7.43524323738,
			"0.011": 8.27774988944,
			"0.012": 5.69338411994,
			"0.013": 1.64020042436,
			"0.014": 0.0914056565314,
			"0.015": 0.0,
			"0.016": 0.0,
			"0.017": 0.0,
			"0.018": 0.0,
			"0.019": 0.0,
			"0.02": 0.0,
			"0.021": 0.0,
			"0.022": 0.0,
			"0.023": 0.0,
			"0.024": 0.0,
			"0.025": 0.0
		}
	}
}
