{
	 "smiles": "SC1=NC(=C(O1)C1=CC=CC=C1)C1=CC=CC=C1", 
	 "Tm": 526.15, 
	 "num_atms": 29, 
	 "gaussian": { 
		 "optdone": 1, 
		 "sigma_profile": "yes", 
		 "theory": "DFT", 
		 "functional": "B3LYP", 
		 "basiset": "6-31G**", 
		 "properties": { 
			 "R2extent": 6957.2715, 
			 "electric_dipole_moment_norm": 1.08457315567, 
			 "electric_quadrupole_moment_norm": 10.4417202055, 
			 "total_energy": -1106.37987294, 
			 "HOMO_LUMO_gap": 0.15813, 
			 "cosmo_polarized_energy": -8.44, 
			 "cosmo_cavitation_energy": 35.33, 
			 "cosmo_dispersion_energy": -25.94, 
			 "cosmo_repulsion_energy": 1.96, 
			 "cosmo_total_nonelectrostatic_energy": 11.35, 
			 "SMD_solvation_energy": 4.25 
		},
		"coords": [
			{
				"x": 0.6545901029,
				"y": -3.3379741945,
				"z": 4.1063200064,
				"element": "S" 
			},
			{
				"x": 0.6135403921,
				"y": -1.9064590104,
				"z": 3.0812044396,
				"element": "C" 
			},
			{
				"x": -0.369255725,
				"y": -1.1009627653,
				"z": 2.8404984938,
				"element": "N" 
			},
			{
				"x": 0.1671965871,
				"y": -0.1394235692,
				"z": 1.9755473735,
				"element": "C" 
			},
			{
				"x": 1.4814758943,
				"y": -0.4548501009,
				"z": 1.7160865926,
				"element": "C" 
			},
			{
				"x": 1.7697522509,
				"y": -1.5981944909,
				"z": 2.4557530011,
				"element": "O" 
			},
			{
				"x": 2.5684128945,
				"y": 0.0422165032,
				"z": 0.8757906303,
				"element": "C" 
			},
			{
				"x": 3.9061654653,
				"y": -0.1846239098,
				"z": 1.249356193,
				"element": "C" 
			},
			{
				"x": 4.9511569269,
				"y": 0.2632043599,
				"z": 0.4444590403,
				"element": "C" 
			},
			{
				"x": 4.6839058313,
				"y": 0.9442834871,
				"z": -0.7448357276,
				"element": "C" 
			},
			{
				"x": 3.3590323563,
				"y": 1.1651323079,
				"z": -1.1289289131,
				"element": "C" 
			},
			{
				"x": 2.3090785625,
				"y": 0.7137739597,
				"z": -0.3330030535,
				"element": "C" 
			},
			{
				"x": -0.6739718992,
				"y": 0.989269706,
				"z": 1.5440333954,
				"element": "C" 
			},
			{
				"x": -0.140707803,
				"y": 2.2638813586,
				"z": 1.2881289459,
				"element": "C" 
			},
			{
				"x": -0.9716139114,
				"y": 3.3152872624,
				"z": 0.9050197351,
				"element": "C" 
			},
			{
				"x": -2.3485008161,
				"y": 3.1167538208,
				"z": 0.7806006635,
				"element": "C" 
			},
			{
				"x": -2.8900990881,
				"y": 1.8583468013,
				"z": 1.0513870028,
				"element": "C" 
			},
			{
				"x": -2.062654786,
				"y": 0.8046205418,
				"z": 1.434226124,
				"element": "C" 
			},
			{
				"x": -0.6222200721,
				"y": -3.1825440091,
				"z": 4.5024787841,
				"element": "H" 
			},
			{
				"x": 4.118283395,
				"y": -0.7124832545,
				"z": 2.1730129554,
				"element": "H" 
			},
			{
				"x": 5.9776949971,
				"y": 0.0817539423,
				"z": 0.7496518271,
				"element": "H" 
			},
			{
				"x": 5.4999844551,
				"y": 1.2947203334,
				"z": -1.3698055516,
				"element": "H" 
			},
			{
				"x": 3.1404580743,
				"y": 1.6798303976,
				"z": -2.0601409672,
				"element": "H" 
			},
			{
				"x": 1.284179551,
				"y": 0.8699602702,
				"z": -0.6508737265,
				"element": "H" 
			},
			{
				"x": 0.9243269782,
				"y": 2.4347879372,
				"z": 1.404354563,
				"element": "H" 
			},
			{
				"x": -0.5429960526,
				"y": 4.2953010824,
				"z": 0.7152786174,
				"element": "H" 
			},
			{
				"x": -2.9942787755,
				"y": 3.9380100414,
				"z": 0.4834261406,
				"element": "H" 
			},
			{
				"x": -3.9609749635,
				"y": 1.6967152516,
				"z": 0.9660149136,
				"element": "H" 
			},
			{
				"x": -2.4797608224,
				"y": -0.1713340603,
				"z": 1.657958501,
				"element": "H" 
			}
		],
		 "valence_orbital": [ 
			{
				"type": "occ",
				"energy": -0.26879,
				"method": "rhf"
			},
			{
				"type": "occ",
				"energy": -0.25758,
				"method": "rhf"
			},
			{
				"type": "occ",
				"energy": -0.25215,
				"method": "rhf"
			},
			{
				"type": "occ",
				"energy": -0.2493,
				"method": "rhf"
			},
			{
				"type": "occ",
				"energy": -0.20377,
				"method": "rhf"
			},
			{
				"type": "unocc",
				"energy": -0.04564,
				"method": "rhf"
			},
			{
				"type": "unocc",
				"energy": -0.00871,
				"method": "rhf"
			},
			{
				"type": "unocc",
				"energy": -0.00197,
				"method": "rhf"
			},
			{
				"type": "unocc",
				"energy": 0.00256,
				"method": "rhf"
			},
			{
				"type": "unocc",
				"energy": 0.00585,
				"method": "rhf"
			}
		],
		"cosmo_sigma_profile": { 
			"-0.025": 0.0,
			"-0.024": 0.0,
			"-0.023": 0.0,
			"-0.022": 0.0,
			"-0.021": 0.0,
			"-0.02": 0.0,
			"-0.019": 0.0,
			"-0.018": 0.0,
			"-0.017": 0.0,
			"-0.016": 0.0,
			"-0.015": 0.0,
			"-0.014": 0.0,
			"-0.013": 0.45420749033,
			"-0.012": 1.93173345823,
			"-0.011": 1.23911648077,
			"-0.01": 1.15072152189,
			"-0.009": 1.50665671,
			"-0.008": 1.01198495367,
			"-0.007": 1.59003218473,
			"-0.006": 11.1621127144,
			"-0.005": 19.5173944557,
			"-0.004": 23.9621787321,
			"-0.003": 20.4924157675,
			"-0.002": 19.0403352636,
			"-0.001": 22.1418347023,
			"0.0": 25.3339688429,
			"0.001": 28.1053578743,
			"0.002": 24.5573968556,
			"0.003": 22.4910762795,
			"0.004": 23.9293203484,
			"0.005": 23.5213871566,
			"0.006": 6.65922015142,
			"0.007": 2.0604433762,
			"0.008": 1.17862061025,
			"0.009": 1.11091093297,
			"0.01": 1.0861662596,
			"0.011": 0.763724498174,
			"0.012": 0.525454796769,
			"0.013": 0.797699354682,
			"0.014": 0.0444861164192,
			"0.015": 0.0,
			"0.016": 0.0,
			"0.017": 0.0,
			"0.018": 0.0,
			"0.019": 0.0,
			"0.02": 0.0,
			"0.021": 0.0,
			"0.022": 0.0,
			"0.023": 0.0,
			"0.024": 0.0,
			"0.025": 0.0
		}
	}
}
