{
	 "smiles": "ClC1=CC2=C(OC3=C2C=C(Cl)C(Cl)=C3)C(Cl)=C1", 
	 "Tm": 475.15, 
	 "num_atms": 21, 
	 "gaussian": { 
		 "optdone": 1, 
		 "sigma_profile": "yes", 
		 "theory": "DFT", 
		 "functional": "B3LYP", 
		 "basiset": "6-31G**", 
		 "properties": { 
			 "R2extent": 8079.1769, 
			 "electric_dipole_moment_norm": 0.730833086279, 
			 "electric_quadrupole_moment_norm": 5.87368595092, 
			 "total_energy": -2375.68028716, 
			 "HOMO_LUMO_gap": 0.17624, 
			 "cosmo_polarized_energy": -6.28, 
			 "cosmo_cavitation_energy": 33.59, 
			 "cosmo_dispersion_energy": -25.31, 
			 "cosmo_repulsion_energy": 1.94, 
			 "cosmo_total_nonelectrostatic_energy": 10.22, 
			 "SMD_solvation_energy": 4.51 
		},
		"coords": [
			{
				"x": 1.5934700775,
				"y": -4.0493453397,
				"z": -0.6266448537,
				"element": "Cl" 
			},
			{
				"x": 1.5127885323,
				"y": -2.2964922757,
				"z": -0.5840204817,
				"element": "C" 
			},
			{
				"x": 0.6003469995,
				"y": -1.6791832561,
				"z": 0.2671034055,
				"element": "C" 
			},
			{
				"x": 0.5668222937,
				"y": -0.2818265095,
				"z": 0.2719849159,
				"element": "C" 
			},
			{
				"x": 1.4342354091,
				"y": 0.4493527269,
				"z": -0.5624117975,
				"element": "C" 
			},
			{
				"x": 1.2641567964,
				"y": 1.8027261152,
				"z": -0.4275245753,
				"element": "O" 
			},
			{
				"x": 0.2709977732,
				"y": 1.9611063752,
				"z": 0.5086990285,
				"element": "C" 
			},
			{
				"x": -0.2034277055,
				"y": 0.7245395407,
				"z": 0.9810923011,
				"element": "C" 
			},
			{
				"x": -1.2174594456,
				"y": 0.7077504674,
				"z": 1.9403207378,
				"element": "C" 
			},
			{
				"x": -1.7281441846,
				"y": 1.9206486931,
				"z": 2.3999639898,
				"element": "C" 
			},
			{
				"x": -2.9972620964,
				"y": 1.8842652693,
				"z": 3.6006515194,
				"element": "Cl" 
			},
			{
				"x": -1.2313812203,
				"y": 3.1484180118,
				"z": 1.9066742288,
				"element": "C" 
			},
			{
				"x": -1.8667966446,
				"y": 4.6688434722,
				"z": 2.4784207533,
				"element": "Cl" 
			},
			{
				"x": -0.2172949222,
				"y": 3.1805450341,
				"z": 0.9470987746,
				"element": "C" 
			},
			{
				"x": 2.3423382292,
				"y": -0.1761855486,
				"z": -1.4092955275,
				"element": "C" 
			},
			{
				"x": 3.4021983455,
				"y": 0.7554793677,
				"z": -2.4295388796,
				"element": "Cl" 
			},
			{
				"x": 2.3780617312,
				"y": -1.5703064533,
				"z": -1.416340308,
				"element": "C" 
			},
			{
				"x": -0.0542341059,
				"y": -2.2694367974,
				"z": 0.8975104063,
				"element": "H" 
			},
			{
				"x": -1.6143038124,
				"y": -0.221282439,
				"z": 2.3334281501,
				"element": "H" 
			},
			{
				"x": 0.1644354704,
				"y": 4.1202957752,
				"z": 0.5680929688,
				"element": "H" 
			},
			{
				"x": 3.0740524795,
				"y": -2.0881122294,
				"z": -2.0646647566,
				"element": "H" 
			}
		],
		 "valence_orbital": [ 
			{
				"type": "occ",
				"energy": -0.31831,
				"method": "rhf"
			},
			{
				"type": "occ",
				"energy": -0.29369,
				"method": "rhf"
			},
			{
				"type": "occ",
				"energy": -0.27396,
				"method": "rhf"
			},
			{
				"type": "occ",
				"energy": -0.24725,
				"method": "rhf"
			},
			{
				"type": "occ",
				"energy": -0.24568,
				"method": "rhf"
			},
			{
				"type": "unocc",
				"energy": -0.06944,
				"method": "rhf"
			},
			{
				"type": "unocc",
				"energy": -0.03345,
				"method": "rhf"
			},
			{
				"type": "unocc",
				"energy": -0.02081,
				"method": "rhf"
			},
			{
				"type": "unocc",
				"energy": -0.00875,
				"method": "rhf"
			},
			{
				"type": "unocc",
				"energy": -0.00278,
				"method": "rhf"
			}
		],
		"cosmo_sigma_profile": { 
			"-0.025": 0.0,
			"-0.024": 0.0,
			"-0.023": 0.0,
			"-0.022": 0.0,
			"-0.021": 0.0,
			"-0.02": 0.0,
			"-0.019": 0.0,
			"-0.018": 0.0,
			"-0.017": 0.0,
			"-0.016": 0.0,
			"-0.015": 0.0,
			"-0.014": 0.0,
			"-0.013": 0.0,
			"-0.012": 0.0,
			"-0.011": 0.0,
			"-0.01": 0.309441406544,
			"-0.009": 5.31838465505,
			"-0.008": 8.25355295861,
			"-0.007": 5.32286091137,
			"-0.006": 5.79766059279,
			"-0.005": 6.64465135164,
			"-0.004": 6.93343174068,
			"-0.003": 13.5395551747,
			"-0.002": 20.4599891658,
			"-0.001": 29.7183310717,
			"0.0": 47.2321545095,
			"0.001": 36.1168718744,
			"0.002": 24.3466682383,
			"0.003": 29.043612557,
			"0.004": 30.7890657267,
			"0.005": 8.29572826678,
			"0.006": 2.24488752043,
			"0.007": 1.06430640282,
			"0.008": 0.01973666524,
			"0.009": 0.0,
			"0.01": 0.0,
			"0.011": 0.0,
			"0.012": 0.0,
			"0.013": 0.0,
			"0.014": 0.0,
			"0.015": 0.0,
			"0.016": 0.0,
			"0.017": 0.0,
			"0.018": 0.0,
			"0.019": 0.0,
			"0.02": 0.0,
			"0.021": 0.0,
			"0.022": 0.0,
			"0.023": 0.0,
			"0.024": 0.0,
			"0.025": 0.0
		}
	}
}
