{
	 "smiles": "CC1=C(C=C(/C#N)C2=NC3=C(N2)C=CC=C3)C=CC=C1", 
	 "Tm": 483.15, 
	 "num_atms": 33, 
	 "gaussian": { 
		 "optdone": 1, 
		 "sigma_profile": "yes", 
		 "theory": "DFT", 
		 "functional": "B3LYP", 
		 "basiset": "6-31G**", 
		 "properties": { 
			 "R2extent": 7528.2834, 
			 "electric_dipole_moment_norm": 6.81657382928, 
			 "electric_quadrupole_moment_norm": 18.2787871299, 
			 "total_energy": -819.887539798, 
			 "HOMO_LUMO_gap": 0.13108, 
			 "cosmo_polarized_energy": -21.7, 
			 "cosmo_cavitation_energy": 38.34, 
			 "cosmo_dispersion_energy": -27.14, 
			 "cosmo_repulsion_energy": 2.05, 
			 "cosmo_total_nonelectrostatic_energy": 13.25, 
			 "SMD_solvation_energy": 5.36 
		},
		"coords": [
			{
				"x": 1.6547421417,
				"y": -2.4425701862,
				"z": -2.4303703518,
				"element": "C" 
			},
			{
				"x": 2.7536827423,
				"y": -1.814522908,
				"z": -1.6024507854,
				"element": "C" 
			},
			{
				"x": 2.4784661464,
				"y": -0.8780854766,
				"z": -0.5664514229,
				"element": "C" 
			},
			{
				"x": 1.0941422255,
				"y": -0.4824907181,
				"z": -0.3239739165,
				"element": "C" 
			},
			{
				"x": 0.4978698584,
				"y": 0.0469421888,
				"z": 0.7836883616,
				"element": "C" 
			},
			{
				"x": 1.1813814435,
				"y": 0.2311877485,
				"z": 2.0320059774,
				"element": "C" 
			},
			{
				"x": 1.7425854861,
				"y": 0.3822710096,
				"z": 3.0395179104,
				"element": "N" 
			},
			{
				"x": -0.9161151302,
				"y": 0.4332865313,
				"z": 0.8002288411,
				"element": "C" 
			},
			{
				"x": -1.6229224925,
				"y": 0.6153512172,
				"z": 1.8953015473,
				"element": "N" 
			},
			{
				"x": -2.8908868214,
				"y": 0.9521791796,
				"z": 1.4603573245,
				"element": "C" 
			},
			{
				"x": -2.9375848333,
				"y": 0.9779433585,
				"z": 0.0436028932,
				"element": "C" 
			},
			{
				"x": -1.658781019,
				"y": 0.6286657479,
				"z": -0.3538077843,
				"element": "N" 
			},
			{
				"x": -4.0956564641,
				"y": 1.3034371944,
				"z": -0.6645088981,
				"element": "C" 
			},
			{
				"x": -5.2258545115,
				"y": 1.6022632863,
				"z": 0.0926567146,
				"element": "C" 
			},
			{
				"x": -5.2006157201,
				"y": 1.5752278462,
				"z": 1.5029770662,
				"element": "C" 
			},
			{
				"x": -4.0429835496,
				"y": 1.2521501286,
				"z": 2.2012167395,
				"element": "C" 
			},
			{
				"x": 3.5544699969,
				"y": -0.3361720131,
				"z": 0.1660587889,
				"element": "C" 
			},
			{
				"x": 4.8670414422,
				"y": -0.7118284443,
				"z": -0.0974302565,
				"element": "C" 
			},
			{
				"x": 5.1339513015,
				"y": -1.6393118435,
				"z": -1.10452817,
				"element": "C" 
			},
			{
				"x": 4.0808704201,
				"y": -2.1784888218,
				"z": -1.8441294607,
				"element": "C" 
			},
			{
				"x": 2.0724652697,
				"y": -3.1627728197,
				"z": -3.1378632712,
				"element": "H" 
			},
			{
				"x": 0.9240533587,
				"y": -2.9726572612,
				"z": -1.8098655577,
				"element": "H" 
			},
			{
				"x": 1.1027753972,
				"y": -1.6973374494,
				"z": -3.0174664565,
				"element": "H" 
			},
			{
				"x": 0.4206589608,
				"y": -0.6699951949,
				"z": -1.1556052934,
				"element": "H" 
			},
			{
				"x": -1.2952953234,
				"y": 0.6837352726,
				"z": -1.2918057104,
				"element": "H" 
			},
			{
				"x": -4.1214760351,
				"y": 1.3236896653,
				"z": -1.7498414268,
				"element": "H" 
			},
			{
				"x": -6.1497943162,
				"y": 1.8610688409,
				"z": -0.415858001,
				"element": "H" 
			},
			{
				"x": -6.1076216254,
				"y": 1.8133861367,
				"z": 2.050315237,
				"element": "H" 
			},
			{
				"x": -4.0145886516,
				"y": 1.2301893512,
				"z": 3.2855272027,
				"element": "H" 
			},
			{
				"x": 3.3615256652,
				"y": 0.3958506429,
				"z": 0.9399857871,
				"element": "H" 
			},
			{
				"x": 5.6770228882,
				"y": -0.2767970644,
				"z": 0.4798117829,
				"element": "H" 
			},
			{
				"x": 6.1554473522,
				"y": -1.9407179561,
				"z": -1.3174237783,
				"element": "H" 
			},
			{
				"x": 4.2919243966,
				"y": -2.9013771891,
				"z": -2.6276716329,
				"element": "H" 
			}
		],
		 "valence_orbital": [ 
			{
				"type": "occ",
				"energy": -0.27801,
				"method": "rhf"
			},
			{
				"type": "occ",
				"energy": -0.2596,
				"method": "rhf"
			},
			{
				"type": "occ",
				"energy": -0.25562,
				"method": "rhf"
			},
			{
				"type": "occ",
				"energy": -0.23368,
				"method": "rhf"
			},
			{
				"type": "occ",
				"energy": -0.21703,
				"method": "rhf"
			},
			{
				"type": "unocc",
				"energy": -0.08595,
				"method": "rhf"
			},
			{
				"type": "unocc",
				"energy": -0.01241,
				"method": "rhf"
			},
			{
				"type": "unocc",
				"energy": -0.01111,
				"method": "rhf"
			},
			{
				"type": "unocc",
				"energy": 0.01113,
				"method": "rhf"
			},
			{
				"type": "unocc",
				"energy": 0.01828,
				"method": "rhf"
			}
		],
		"cosmo_sigma_profile": { 
			"-0.025": 0.0,
			"-0.024": 0.0,
			"-0.023": 0.0,
			"-0.022": 0.0,
			"-0.021": 0.0,
			"-0.02": 0.0,
			"-0.019": 0.0,
			"-0.018": 0.0657467159945,
			"-0.017": 1.03738425601,
			"-0.016": 1.53631907044,
			"-0.015": 1.64611956643,
			"-0.014": 0.996952508456,
			"-0.013": 1.61415780683,
			"-0.012": 1.28023451648,
			"-0.011": 1.47602179881,
			"-0.01": 1.70657225281,
			"-0.009": 1.7161374316,
			"-0.008": 2.66599270813,
			"-0.007": 4.57832596442,
			"-0.006": 14.1305712768,
			"-0.005": 22.5966410406,
			"-0.004": 25.9922884733,
			"-0.003": 21.4758574025,
			"-0.002": 20.5353482746,
			"-0.001": 23.5653011838,
			"0.0": 24.530480349,
			"0.001": 18.4718068492,
			"0.002": 19.038472515,
			"0.003": 20.8387974348,
			"0.004": 23.8156594388,
			"0.005": 15.032301142,
			"0.006": 8.28172176557,
			"0.007": 4.06725742774,
			"0.008": 5.01879601958,
			"0.009": 5.10107925059,
			"0.01": 3.95772811834,
			"0.011": 4.28336055639,
			"0.012": 3.35622512202,
			"0.013": 2.28670518232,
			"0.014": 1.06248840687,
			"0.015": 0.72544468351,
			"0.016": 0.671216451715,
			"0.017": 0.00355262952625,
			"0.018": 0.0,
			"0.019": 0.0,
			"0.02": 0.0,
			"0.021": 0.0,
			"0.022": 0.0,
			"0.023": 0.0,
			"0.024": 0.0,
			"0.025": 0.0
		}
	}
}
