{
	 "smiles": "CCCCCCCCCCCCSC1=NC2=C(C3=C(CCCC3)S2)C(=O)N1C1=CC=CC=C1", 
	 "Tm": 358.15, 
	 "num_atms": 71, 
	 "gaussian": { 
		 "optdone": 1, 
		 "sigma_profile": "yes", 
		 "theory": "DFT", 
		 "functional": "B3LYP", 
		 "basiset": "6-31G**", 
		 "properties": { 
			 "R2extent": 23877.2372, 
			 "electric_dipole_moment_norm": 1.55636051415, 
			 "electric_quadrupole_moment_norm": 8.85594525107, 
			 "total_energy": -2071.04807759, 
			 "HOMO_LUMO_gap": 0.16467, 
			 "cosmo_polarized_energy": -12.39, 
			 "cosmo_cavitation_energy": 72.64, 
			 "cosmo_dispersion_energy": -45.96, 
			 "cosmo_repulsion_energy": 3.45, 
			 "cosmo_total_nonelectrostatic_energy": 30.14, 
			 "SMD_solvation_energy": 8.63 
		},
		"coords": [
			{
				"x": -0.2378982072,
				"y": -2.4408265668,
				"z": 5.3077485865,
				"element": "C" 
			},
			{
				"x": 0.6556828353,
				"y": -2.0132569815,
				"z": 4.1389667776,
				"element": "C" 
			},
			{
				"x": 1.1689016455,
				"y": -0.5729318191,
				"z": 4.2620622995,
				"element": "C" 
			},
			{
				"x": 2.0603762092,
				"y": -0.13509205,
				"z": 3.092454354,
				"element": "C" 
			},
			{
				"x": 2.5783845922,
				"y": 1.3022147594,
				"z": 3.2380357016,
				"element": "C" 
			},
			{
				"x": 3.399101175,
				"y": 1.8471856792,
				"z": 2.0550740653,
				"element": "C" 
			},
			{
				"x": 4.7339097711,
				"y": 1.1155036947,
				"z": 1.779774224,
				"element": "C" 
			},
			{
				"x": 4.6845267769,
				"y": -0.0106635463,
				"z": 0.7287760732,
				"element": "C" 
			},
			{
				"x": 4.5366245135,
				"y": 0.494639299,
				"z": -0.7150911769,
				"element": "C" 
			},
			{
				"x": 4.6104145986,
				"y": -0.613815359,
				"z": -1.7814734521,
				"element": "C" 
			},
			{
				"x": 3.462895243,
				"y": -1.6430654843,
				"z": -1.8189123726,
				"element": "C" 
			},
			{
				"x": 2.1630956014,
				"y": -1.2022165289,
				"z": -2.5093104059,
				"element": "C" 
			},
			{
				"x": 1.1502224137,
				"y": -0.0850367867,
				"z": -1.4468534367,
				"element": "S" 
			},
			{
				"x": -0.3163391052,
				"y": 0.0339269553,
				"z": -2.4462325471,
				"element": "C" 
			},
			{
				"x": -0.3781398467,
				"y": -0.5892785843,
				"z": -3.5897864179,
				"element": "N" 
			},
			{
				"x": -1.5365605796,
				"y": -0.4399267158,
				"z": -4.2822953017,
				"element": "C" 
			},
			{
				"x": -2.6439599469,
				"y": 0.3028829809,
				"z": -3.8928539446,
				"element": "C" 
			},
			{
				"x": -3.7202431597,
				"y": 0.2701049033,
				"z": -4.8485895655,
				"element": "C" 
			},
			{
				"x": -3.4121998211,
				"y": -0.4993091732,
				"z": -5.9373130555,
				"element": "C" 
			},
			{
				"x": -4.3126248861,
				"y": -0.7392685105,
				"z": -7.1180758935,
				"element": "C" 
			},
			{
				"x": -5.7579673712,
				"y": -0.3326183662,
				"z": -6.7732011938,
				"element": "C" 
			},
			{
				"x": -5.7987490797,
				"y": 1.0229136902,
				"z": -6.0525677811,
				"element": "C" 
			},
			{
				"x": -5.0492073489,
				"y": 0.9737855457,
				"z": -4.7107289079,
				"element": "C" 
			},
			{
				"x": -1.7988490729,
				"y": -1.1997260895,
				"z": -5.8346356535,
				"element": "S" 
			},
			{
				"x": -2.592534899,
				"y": 1.0023421997,
				"z": -2.6289399307,
				"element": "C" 
			},
			{
				"x": -3.4636017507,
				"y": 1.699698546,
				"z": -2.1287290181,
				"element": "O" 
			},
			{
				"x": -1.3416668119,
				"y": 0.810559958,
				"z": -1.9355562495,
				"element": "N" 
			},
			{
				"x": -1.2098886822,
				"y": 1.4771331719,
				"z": -0.6600062991,
				"element": "C" 
			},
			{
				"x": -0.6504927499,
				"y": 2.7546635135,
				"z": -0.6029528032,
				"element": "C" 
			},
			{
				"x": -0.5420005746,
				"y": 3.4026189988,
				"z": 0.6274498915,
				"element": "C" 
			},
			{
				"x": -0.9992100111,
				"y": 2.7785495943,
				"z": 1.7901718631,
				"element": "C" 
			},
			{
				"x": -1.5646807918,
				"y": 1.5028687807,
				"z": 1.723927235,
				"element": "C" 
			},
			{
				"x": -1.672755684,
				"y": 0.8485494792,
				"z": 0.4971040395,
				"element": "C" 
			},
			{
				"x": 0.299586657,
				"y": -2.3787496378,
				"z": 6.2610166363,
				"element": "H" 
			},
			{
				"x": -0.5874040561,
				"y": -3.4719333223,
				"z": 5.1902503346,
				"element": "H" 
			},
			{
				"x": -1.1221411947,
				"y": -1.7977291641,
				"z": 5.387257569,
				"element": "H" 
			},
			{
				"x": 1.5125040496,
				"y": -2.69689525,
				"z": 4.0648411069,
				"element": "H" 
			},
			{
				"x": 0.1024239975,
				"y": -2.1198014646,
				"z": 3.1958749406,
				"element": "H" 
			},
			{
				"x": 0.3112794188,
				"y": 0.1113239857,
				"z": 4.33874819,
				"element": "H" 
			},
			{
				"x": 1.7245966268,
				"y": -0.4661677814,
				"z": 5.2051242971,
				"element": "H" 
			},
			{
				"x": 2.9057984245,
				"y": -0.8312985127,
				"z": 3.0123978326,
				"element": "H" 
			},
			{
				"x": 1.4956733334,
				"y": -0.2245669995,
				"z": 2.1538526438,
				"element": "H" 
			},
			{
				"x": 1.7172849821,
				"y": 1.9670667485,
				"z": 3.3916401125,
				"element": "H" 
			},
			{
				"x": 3.1834757459,
				"y": 1.3740573575,
				"z": 4.1538362061,
				"element": "H" 
			},
			{
				"x": 3.6136719825,
				"y": 2.9028472268,
				"z": 2.2638656242,
				"element": "H" 
			},
			{
				"x": 2.7743777445,
				"y": 1.8466821275,
				"z": 1.1524076387,
				"element": "H" 
			},
			{
				"x": 5.4849090865,
				"y": 1.8466739724,
				"z": 1.4515930633,
				"element": "H" 
			},
			{
				"x": 5.1148871717,
				"y": 0.7072706173,
				"z": 2.7257446802,
				"element": "H" 
			},
			{
				"x": 5.6134055744,
				"y": -0.5946356257,
				"z": 0.7963780948,
				"element": "H" 
			},
			{
				"x": 3.8718718878,
				"y": -0.7058011148,
				"z": 0.9691856796,
				"element": "H" 
			},
			{
				"x": 3.6056967735,
				"y": 1.0625008336,
				"z": -0.8261331824,
				"element": "H" 
			},
			{
				"x": 5.3477875113,
				"y": 1.2081745304,
				"z": -0.915949388,
				"element": "H" 
			},
			{
				"x": 4.6904115349,
				"y": -0.1518839775,
				"z": -2.7747844073,
				"element": "H" 
			},
			{
				"x": 5.5486973381,
				"y": -1.1651932654,
				"z": -1.6324189307,
				"element": "H" 
			},
			{
				"x": 3.2444964367,
				"y": -2.0229158442,
				"z": -0.8137062013,
				"element": "H" 
			},
			{
				"x": 3.8130239426,
				"y": -2.5112307234,
				"z": -2.3916959079,
				"element": "H" 
			},
			{
				"x": 1.534910264,
				"y": -2.0641907103,
				"z": -2.7396205474,
				"element": "H" 
			},
			{
				"x": 2.3677440759,
				"y": -0.6851497041,
				"z": -3.4501502416,
				"element": "H" 
			},
			{
				"x": -3.9587237314,
				"y": -0.1578121305,
				"z": -7.9820816338,
				"element": "H" 
			},
			{
				"x": -4.2779556208,
				"y": -1.791761555,
				"z": -7.4254813799,
				"element": "H" 
			},
			{
				"x": -6.357349101,
				"y": -0.3016993893,
				"z": -7.6898885206,
				"element": "H" 
			},
			{
				"x": -6.2039652472,
				"y": -1.09972677,
				"z": -6.1269050391,
				"element": "H" 
			},
			{
				"x": -6.8359768683,
				"y": 1.3334492897,
				"z": -5.885166396,
				"element": "H" 
			},
			{
				"x": -5.3420871758,
				"y": 1.785601004,
				"z": -6.6976771033,
				"element": "H" 
			},
			{
				"x": -5.655886241,
				"y": 0.4502809653,
				"z": -3.958649101,
				"element": "H" 
			},
			{
				"x": -4.8956297357,
				"y": 1.9781418696,
				"z": -4.3057648904,
				"element": "H" 
			},
			{
				"x": -0.3095232362,
				"y": 3.2305615634,
				"z": -1.5165514883,
				"element": "H" 
			},
			{
				"x": -0.1077117644,
				"y": 4.3964966111,
				"z": 0.6757906224,
				"element": "H" 
			},
			{
				"x": -0.9212750265,
				"y": 3.2882662498,
				"z": 2.745945868,
				"element": "H" 
			},
			{
				"x": -1.9280506732,
				"y": 1.019404708,
				"z": 2.6255904238,
				"element": "H" 
			},
			{
				"x": -2.1173998829,
				"y": -0.1387659064,
				"z": 0.4279430911,
				"element": "H" 
			}
		],
		 "valence_orbital": [ 
			{
				"type": "occ",
				"energy": -0.25903,
				"method": "rhf"
			},
			{
				"type": "occ",
				"energy": -0.25305,
				"method": "rhf"
			},
			{
				"type": "occ",
				"energy": -0.25274,
				"method": "rhf"
			},
			{
				"type": "occ",
				"energy": -0.24437,
				"method": "rhf"
			},
			{
				"type": "occ",
				"energy": -0.20023,
				"method": "rhf"
			},
			{
				"type": "unocc",
				"energy": -0.03556,
				"method": "rhf"
			},
			{
				"type": "unocc",
				"energy": -0.01991,
				"method": "rhf"
			},
			{
				"type": "unocc",
				"energy": -0.01135,
				"method": "rhf"
			},
			{
				"type": "unocc",
				"energy": 0.00064,
				"method": "rhf"
			},
			{
				"type": "unocc",
				"energy": 0.02337,
				"method": "rhf"
			}
		],
		"cosmo_sigma_profile": { 
			"-0.025": 0.0,
			"-0.024": 0.0,
			"-0.023": 0.0,
			"-0.022": 0.0,
			"-0.021": 0.0,
			"-0.02": 0.0,
			"-0.019": 0.0,
			"-0.018": 0.0,
			"-0.017": 0.0,
			"-0.016": 0.0,
			"-0.015": 0.0,
			"-0.014": 0.0,
			"-0.013": 0.0,
			"-0.012": 0.0,
			"-0.011": 0.0,
			"-0.01": 0.0,
			"-0.009": 0.0,
			"-0.008": 0.0960017395395,
			"-0.007": 4.39491711716,
			"-0.006": 10.9169776959,
			"-0.005": 15.8693083628,
			"-0.004": 27.4485078213,
			"-0.003": 41.0268962462,
			"-0.002": 68.5248816677,
			"-0.001": 90.9823799013,
			"0.0": 90.7444603741,
			"0.001": 81.244173294,
			"0.002": 56.6395321261,
			"0.003": 28.9321786023,
			"0.004": 18.400013316,
			"0.005": 8.68427747621,
			"0.006": 5.79688089269,
			"0.007": 4.08443234982,
			"0.008": 2.77163945135,
			"0.009": 2.06627428667,
			"0.01": 2.34635692291,
			"0.011": 2.15599347935,
			"0.012": 3.06915943636,
			"0.013": 4.16159261302,
			"0.014": 0.294560271253,
			"0.015": 0.0,
			"0.016": 0.0,
			"0.017": 0.0,
			"0.018": 0.0,
			"0.019": 0.0,
			"0.02": 0.0,
			"0.021": 0.0,
			"0.022": 0.0,
			"0.023": 0.0,
			"0.024": 0.0,
			"0.025": 0.0
		}
	}
}
