{
	 "smiles": "NC1=CC=C(SC2=CC=C(C=C2)[N+]([O-])=O)C=C1", 
	 "Tm": 417.15, 
	 "num_atms": 27, 
	 "gaussian": { 
		 "optdone": 1, 
		 "sigma_profile": "yes", 
		 "theory": "DFT", 
		 "functional": "B3LYP", 
		 "basiset": "6-31G**", 
		 "properties": { 
			 "R2extent": 6748.7096, 
			 "electric_dipole_moment_norm": 7.21261826939, 
			 "electric_quadrupole_moment_norm": 32.7103902519, 
			 "total_energy": -1121.34626593, 
			 "HOMO_LUMO_gap": 0.14391, 
			 "cosmo_polarized_energy": -14.68, 
			 "cosmo_cavitation_energy": 34.12, 
			 "cosmo_dispersion_energy": -24.92, 
			 "cosmo_repulsion_energy": 1.89, 
			 "cosmo_total_nonelectrostatic_energy": 11.09, 
			 "SMD_solvation_energy": 7.57 
		},
		"coords": [
			{
				"x": 0.9218186028,
				"y": -4.2312963292,
				"z": 1.8463770219,
				"element": "N" 
			},
			{
				"x": 1.0680652714,
				"y": -2.925959049,
				"z": 1.4050578269,
				"element": "C" 
			},
			{
				"x": 1.5950713967,
				"y": -2.6529371057,
				"z": 0.1276849604,
				"element": "C" 
			},
			{
				"x": 1.7916800728,
				"y": -1.342872714,
				"z": -0.2918764337,
				"element": "C" 
			},
			{
				"x": 1.4635925533,
				"y": -0.2656278365,
				"z": 0.5445893237,
				"element": "C" 
			},
			{
				"x": 1.7863216171,
				"y": 1.4144164811,
				"z": 0.0302004444,
				"element": "S" 
			},
			{
				"x": 0.2803484211,
				"y": 1.9373732419,
				"z": -0.7687619911,
				"element": "C" 
			},
			{
				"x": -0.8554073345,
				"y": 1.1256525187,
				"z": -0.9117972603,
				"element": "C" 
			},
			{
				"x": -1.9895139996,
				"y": 1.6156703481,
				"z": -1.5500469463,
				"element": "C" 
			},
			{
				"x": -1.9851887282,
				"y": 2.9189597277,
				"z": -2.0448229456,
				"element": "C" 
			},
			{
				"x": -0.8664381679,
				"y": 3.7440028476,
				"z": -1.9137239493,
				"element": "C" 
			},
			{
				"x": 0.2627180333,
				"y": 3.2503590744,
				"z": -1.2760604348,
				"element": "C" 
			},
			{
				"x": -3.1787305553,
				"y": 3.4335177844,
				"z": -2.7160360028,
				"element": "N" 
			},
			{
				"x": -3.1443029885,
				"y": 4.5895653198,
				"z": -3.1424111107,
				"element": "O" 
			},
			{
				"x": -4.1506208224,
				"y": 2.6817590124,
				"z": -2.8167169148,
				"element": "O" 
			},
			{
				"x": 0.9451561261,
				"y": -0.5338921223,
				"z": 1.8200964095,
				"element": "C" 
			},
			{
				"x": 0.7461995558,
				"y": -1.8419519183,
				"z": 2.2448311413,
				"element": "C" 
			},
			{
				"x": 0.2808317816,
				"y": -4.3817478103,
				"z": 2.6115543797,
				"element": "H" 
			},
			{
				"x": 0.8706889736,
				"y": -4.9467496932,
				"z": 1.1360930594,
				"element": "H" 
			},
			{
				"x": 1.8576785589,
				"y": -3.4768632622,
				"z": -0.5308737627,
				"element": "H" 
			},
			{
				"x": 2.2028906981,
				"y": -1.1496727345,
				"z": -1.2777269218,
				"element": "H" 
			},
			{
				"x": -0.8506254976,
				"y": 0.1136619954,
				"z": -0.5243411331,
				"element": "H" 
			},
			{
				"x": -2.8764351595,
				"y": 1.0060090386,
				"z": -1.670899999,
				"element": "H" 
			},
			{
				"x": -0.8988040197,
				"y": 4.7511035114,
				"z": -2.3102631444,
				"element": "H" 
			},
			{
				"x": 1.1384199582,
				"y": 3.8835490119,
				"z": -1.1685283668,
				"element": "H" 
			},
			{
				"x": 0.6962114546,
				"y": 0.2901764219,
				"z": 2.4813561016,
				"element": "H" 
			},
			{
				"x": 0.3466741977,
				"y": -2.0333057601,
				"z": 3.2374466484,
				"element": "H" 
			}
		],
		 "valence_orbital": [ 
			{
				"type": "occ",
				"energy": -0.27974,
				"method": "rhf"
			},
			{
				"type": "occ",
				"energy": -0.27327,
				"method": "rhf"
			},
			{
				"type": "occ",
				"energy": -0.26811,
				"method": "rhf"
			},
			{
				"type": "occ",
				"energy": -0.2282,
				"method": "rhf"
			},
			{
				"type": "occ",
				"energy": -0.22293,
				"method": "rhf"
			},
			{
				"type": "unocc",
				"energy": -0.07902,
				"method": "rhf"
			},
			{
				"type": "unocc",
				"energy": -0.02442,
				"method": "rhf"
			},
			{
				"type": "unocc",
				"energy": -0.0197,
				"method": "rhf"
			},
			{
				"type": "unocc",
				"energy": -0.01408,
				"method": "rhf"
			},
			{
				"type": "unocc",
				"energy": 0.00946,
				"method": "rhf"
			}
		],
		"cosmo_sigma_profile": { 
			"-0.025": 0.0,
			"-0.024": 0.0,
			"-0.023": 0.0,
			"-0.022": 0.0,
			"-0.021": 0.0,
			"-0.02": 0.0,
			"-0.019": 0.0,
			"-0.018": 0.0,
			"-0.017": 0.0,
			"-0.016": 0.0,
			"-0.015": 0.0,
			"-0.014": 0.042094952508,
			"-0.013": 1.93076211473,
			"-0.012": 2.73944438568,
			"-0.011": 3.13180301036,
			"-0.01": 2.96540174009,
			"-0.009": 3.57644387866,
			"-0.008": 3.86793666628,
			"-0.007": 9.37129430572,
			"-0.006": 14.9412043755,
			"-0.005": 15.3607603118,
			"-0.004": 14.3586897682,
			"-0.003": 14.2211889461,
			"-0.002": 13.9746035306,
			"-0.001": 20.5065787096,
			"0.0": 21.5767143809,
			"0.001": 23.2399207366,
			"0.002": 27.0129148521,
			"0.003": 15.2872808813,
			"0.004": 15.0029846967,
			"0.005": 13.4237978322,
			"0.006": 7.7202698248,
			"0.007": 7.49536804163,
			"0.008": 10.9433973544,
			"0.009": 5.56838937227,
			"0.01": 4.56525071809,
			"0.011": 1.68920008302,
			"0.012": 0.502673128351,
			"0.013": 0.382036463926,
			"0.014": 0.0,
			"0.015": 0.0,
			"0.016": 0.0,
			"0.017": 0.0,
			"0.018": 0.0,
			"0.019": 0.0,
			"0.02": 0.0,
			"0.021": 0.0,
			"0.022": 0.0,
			"0.023": 0.0,
			"0.024": 0.0,
			"0.025": 0.0
		}
	}
}
