{
	 "smiles": "CC1=NN(C(=O)C1=C/C1=C(O)C=CC=C1)C1=CC=CC=C1", 
	 "Tm": 427.15, 
	 "num_atms": 35, 
	 "gaussian": { 
		 "optdone": 1, 
		 "sigma_profile": "yes", 
		 "theory": "DFT", 
		 "functional": "B3LYP", 
		 "basiset": "6-31G**", 
		 "properties": { 
			 "R2extent": 8153.35, 
			 "electric_dipole_moment_norm": 5.91911704395, 
			 "electric_quadrupole_moment_norm": 18.8922446348, 
			 "total_energy": -916.178273545, 
			 "HOMO_LUMO_gap": 0.11068, 
			 "cosmo_polarized_energy": -15.64, 
			 "cosmo_cavitation_energy": 39.16, 
			 "cosmo_dispersion_energy": -28.67, 
			 "cosmo_repulsion_energy": 2.14, 
			 "cosmo_total_nonelectrostatic_energy": 12.63, 
			 "SMD_solvation_energy": 6.74 
		},
		"coords": [
			{
				"x": -0.5878902603,
				"y": 1.4019166349,
				"z": -3.6071797571,
				"element": "C" 
			},
			{
				"x": -0.7585253621,
				"y": 0.6143851532,
				"z": -2.3471096217,
				"element": "C" 
			},
			{
				"x": -1.7042841472,
				"y": -0.2678571253,
				"z": -2.2415756398,
				"element": "N" 
			},
			{
				"x": -1.6173487215,
				"y": -0.8357778889,
				"z": -0.9689922428,
				"element": "N" 
			},
			{
				"x": -0.5723469148,
				"y": -0.3003796854,
				"z": -0.218076294,
				"element": "C" 
			},
			{
				"x": -0.2754935391,
				"y": -0.6227545764,
				"z": 0.9320436925,
				"element": "O" 
			},
			{
				"x": 0.0456840071,
				"y": 0.7039874869,
				"z": -1.1319532954,
				"element": "C" 
			},
			{
				"x": 1.1007996273,
				"y": 1.5604836928,
				"z": -0.9963755501,
				"element": "C" 
			},
			{
				"x": 2.039551394,
				"y": 1.8433465034,
				"z": 0.0699640541,
				"element": "C" 
			},
			{
				"x": 3.0304715784,
				"y": 2.8365108454,
				"z": -0.1748631521,
				"element": "C" 
			},
			{
				"x": 3.0306823964,
				"y": 3.4534474847,
				"z": -1.3917566113,
				"element": "O" 
			},
			{
				"x": 3.9711407216,
				"y": 3.166358357,
				"z": 0.8021517919,
				"element": "C" 
			},
			{
				"x": 3.9492684167,
				"y": 2.5214359399,
				"z": 2.0367255615,
				"element": "C" 
			},
			{
				"x": 2.9870776653,
				"y": 1.5429269448,
				"z": 2.3022677033,
				"element": "C" 
			},
			{
				"x": 2.0479760282,
				"y": 1.2101413111,
				"z": 1.3338322088,
				"element": "C" 
			},
			{
				"x": -2.5535443019,
				"y": -1.8388447905,
				"z": -0.6099372571,
				"element": "C" 
			},
			{
				"x": -2.5235327841,
				"y": -2.4467828005,
				"z": 0.6557274171,
				"element": "C" 
			},
			{
				"x": -3.4640949167,
				"y": -3.4289267702,
				"z": 0.9658930021,
				"element": "C" 
			},
			{
				"x": -4.4336968302,
				"y": -3.8177467092,
				"z": 0.0414718857,
				"element": "C" 
			},
			{
				"x": -4.4558427659,
				"y": -3.2079034864,
				"z": -1.214086433,
				"element": "C" 
			},
			{
				"x": -3.5265594581,
				"y": -2.2250480702,
				"z": -1.5456332912,
				"element": "C" 
			},
			{
				"x": 0.4001946849,
				"y": 1.2360451903,
				"z": -4.0515224161,
				"element": "H" 
			},
			{
				"x": -1.3494481833,
				"y": 1.0999499012,
				"z": -4.3285712371,
				"element": "H" 
			},
			{
				"x": -0.6877275296,
				"y": 2.4776973811,
				"z": -3.4228120635,
				"element": "H" 
			},
			{
				"x": 1.2822550765,
				"y": 2.1672465974,
				"z": -1.8800689262,
				"element": "H" 
			},
			{
				"x": 3.748938892,
				"y": 4.0984953314,
				"z": -1.4217351221,
				"element": "H" 
			},
			{
				"x": 4.7187527597,
				"y": 3.9284471039,
				"z": 0.5922066609,
				"element": "H" 
			},
			{
				"x": 4.6861323342,
				"y": 2.7860606652,
				"z": 2.7896709104,
				"element": "H" 
			},
			{
				"x": 2.9702360508,
				"y": 1.0406681705,
				"z": 3.2640403695,
				"element": "H" 
			},
			{
				"x": 1.2972166154,
				"y": 0.4530366504,
				"z": 1.528488792,
				"element": "H" 
			},
			{
				"x": -1.7746203549,
				"y": -2.1493614679,
				"z": 1.3752138136,
				"element": "H" 
			},
			{
				"x": -3.4317722238,
				"y": -3.8927037734,
				"z": 1.9479511924,
				"element": "H" 
			},
			{
				"x": -5.1607367894,
				"y": -4.5836285818,
				"z": 0.2946623434,
				"element": "H" 
			},
			{
				"x": -5.2031122744,
				"y": -3.4967939315,
				"z": -1.9480528832,
				"element": "H" 
			},
			{
				"x": -3.5414008912,
				"y": -1.7506776879,
				"z": -2.5179096057,
				"element": "H" 
			}
		],
		 "valence_orbital": [ 
			{
				"type": "occ",
				"energy": -0.24907,
				"method": "rhf"
			},
			{
				"type": "occ",
				"energy": -0.24616,
				"method": "rhf"
			},
			{
				"type": "occ",
				"energy": -0.23719,
				"method": "rhf"
			},
			{
				"type": "occ",
				"energy": -0.22921,
				"method": "rhf"
			},
			{
				"type": "occ",
				"energy": -0.19991,
				"method": "rhf"
			},
			{
				"type": "unocc",
				"energy": -0.08923,
				"method": "rhf"
			},
			{
				"type": "unocc",
				"energy": -0.0045,
				"method": "rhf"
			},
			{
				"type": "unocc",
				"energy": 0.00023,
				"method": "rhf"
			},
			{
				"type": "unocc",
				"energy": 0.00813,
				"method": "rhf"
			},
			{
				"type": "unocc",
				"energy": 0.01485,
				"method": "rhf"
			}
		],
		"cosmo_sigma_profile": { 
			"-0.025": 0.0,
			"-0.024": 0.0,
			"-0.023": 0.0,
			"-0.022": 0.0,
			"-0.021": 0.0,
			"-0.02": 0.0,
			"-0.019": 0.490908252005,
			"-0.018": 1.0646704953,
			"-0.017": 0.959321968625,
			"-0.016": 1.54342728055,
			"-0.015": 0.996148360064,
			"-0.014": 0.567482630643,
			"-0.013": 0.665097865012,
			"-0.012": 0.978320395819,
			"-0.011": 1.4651421783,
			"-0.01": 1.42185074379,
			"-0.009": 0.856728135683,
			"-0.008": 1.04178364877,
			"-0.007": 3.52649203627,
			"-0.006": 13.6682198302,
			"-0.005": 22.1086883333,
			"-0.004": 19.3439172302,
			"-0.003": 22.2684197482,
			"-0.002": 19.3668396245,
			"-0.001": 23.9356781719,
			"0.0": 25.2997177566,
			"0.001": 26.2606061541,
			"0.002": 27.3781319635,
			"0.003": 27.7541491328,
			"0.004": 24.5762092634,
			"0.005": 16.0842269914,
			"0.006": 12.7812878674,
			"0.007": 6.00522450895,
			"0.008": 2.62754560449,
			"0.009": 4.15800185819,
			"0.01": 3.37119565107,
			"0.011": 2.37277339243,
			"0.012": 0.0834743415218,
			"0.013": 0.0,
			"0.014": 0.0,
			"0.015": 0.0,
			"0.016": 0.0,
			"0.017": 0.0,
			"0.018": 0.0,
			"0.019": 0.0,
			"0.02": 0.0,
			"0.021": 0.0,
			"0.022": 0.0,
			"0.023": 0.0,
			"0.024": 0.0,
			"0.025": 0.0
		}
	}
}
