{
	 "smiles": "COC(=O)C1=C(N)C=C(S1)C1=CC=C(Cl)C=C1", 
	 "Tm": 413.15, 
	 "num_atms": 27, 
	 "gaussian": { 
		 "optdone": 1, 
		 "sigma_profile": "yes", 
		 "theory": "DFT", 
		 "functional": "B3LYP", 
		 "basiset": "6-31G**", 
		 "properties": { 
			 "R2extent": 7745.559, 
			 "electric_dipole_moment_norm": 1.40819128317, 
			 "electric_quadrupole_moment_norm": 15.2589824438, 
			 "total_energy": -1526.89931547, 
			 "HOMO_LUMO_gap": 0.14304, 
			 "cosmo_polarized_energy": -12.11, 
			 "cosmo_cavitation_energy": 35.1, 
			 "cosmo_dispersion_energy": -26.44, 
			 "cosmo_repulsion_energy": 2.01, 
			 "cosmo_total_nonelectrostatic_energy": 10.66, 
			 "SMD_solvation_energy": 6.59 
		},
		"coords": [
			{
				"x": -1.296924984,
				"y": 3.9993324728,
				"z": -3.888083165,
				"element": "C" 
			},
			{
				"x": -0.8066905112,
				"y": 2.9866330632,
				"z": -2.9989441038,
				"element": "O" 
			},
			{
				"x": -1.7389582483,
				"y": 2.4095199503,
				"z": -2.2013850698,
				"element": "C" 
			},
			{
				"x": -2.927115484,
				"y": 2.7250795727,
				"z": -2.2328668046,
				"element": "O" 
			},
			{
				"x": -1.1850696843,
				"y": 1.4071181547,
				"z": -1.3216309013,
				"element": "C" 
			},
			{
				"x": -1.9255906304,
				"y": 0.6778473893,
				"z": -0.3877807466,
				"element": "C" 
			},
			{
				"x": -3.2851348189,
				"y": 0.7529547329,
				"z": -0.2643516891,
				"element": "N" 
			},
			{
				"x": -1.0973943033,
				"y": -0.1983806719,
				"z": 0.3801198657,
				"element": "C" 
			},
			{
				"x": 0.2338589508,
				"y": -0.1434183738,
				"z": 0.037423118,
				"element": "C" 
			},
			{
				"x": 0.5195449576,
				"y": 1.0038923546,
				"z": -1.2480357657,
				"element": "S" 
			},
			{
				"x": 1.3366045657,
				"y": -0.9147620083,
				"z": 0.6249748039,
				"element": "C" 
			},
			{
				"x": 2.4899703919,
				"y": -1.2292813484,
				"z": -0.1154314709,
				"element": "C" 
			},
			{
				"x": 3.529902591,
				"y": -1.9651934932,
				"z": 0.4458432414,
				"element": "C" 
			},
			{
				"x": 3.4213035653,
				"y": -2.4031042852,
				"z": 1.7654312092,
				"element": "C" 
			},
			{
				"x": 4.725910118,
				"y": -3.336150614,
				"z": 2.4798603762,
				"element": "Cl" 
			},
			{
				"x": 2.2902733946,
				"y": -2.1068639168,
				"z": 2.5266116716,
				"element": "C" 
			},
			{
				"x": 1.2613175509,
				"y": -1.3633610833,
				"z": 1.9562692027,
				"element": "C" 
			},
			{
				"x": -1.7409309501,
				"y": 4.8259032357,
				"z": -3.3271635741,
				"element": "H" 
			},
			{
				"x": -0.4274374271,
				"y": 4.3428826928,
				"z": -4.4486072867,
				"element": "H" 
			},
			{
				"x": -2.0508525275,
				"y": 3.5888265468,
				"z": -4.5647520788,
				"element": "H" 
			},
			{
				"x": -3.7013104645,
				"y": 0.4659961593,
				"z": 0.6071768085,
				"element": "H" 
			},
			{
				"x": -3.7217748165,
				"y": 1.5155816838,
				"z": -0.7702154648,
				"element": "H" 
			},
			{
				"x": -1.4920816255,
				"y": -0.8785398838,
				"z": 1.1266388384,
				"element": "H" 
			},
			{
				"x": 2.5671388723,
				"y": -0.9124460742,
				"z": -1.1510634467,
				"element": "H" 
			},
			{
				"x": 4.4123621164,
				"y": -2.205732405,
				"z": -0.1364459047,
				"element": "H" 
			},
			{
				"x": 2.2234474185,
				"y": -2.4440767328,
				"z": 3.555030049,
				"element": "H" 
			},
			{
				"x": 0.3968319824,
				"y": -1.1076571181,
				"z": 2.5603782881,
				"element": "H" 
			}
		],
		 "valence_orbital": [ 
			{
				"type": "occ",
				"energy": -0.27378,
				"method": "rhf"
			},
			{
				"type": "occ",
				"energy": -0.27195,
				"method": "rhf"
			},
			{
				"type": "occ",
				"energy": -0.26883,
				"method": "rhf"
			},
			{
				"type": "occ",
				"energy": -0.23299,
				"method": "rhf"
			},
			{
				"type": "occ",
				"energy": -0.20396,
				"method": "rhf"
			},
			{
				"type": "unocc",
				"energy": -0.06092,
				"method": "rhf"
			},
			{
				"type": "unocc",
				"energy": -0.02265,
				"method": "rhf"
			},
			{
				"type": "unocc",
				"energy": -0.0037,
				"method": "rhf"
			},
			{
				"type": "unocc",
				"energy": 0.02201,
				"method": "rhf"
			},
			{
				"type": "unocc",
				"energy": 0.03097,
				"method": "rhf"
			}
		],
		"cosmo_sigma_profile": { 
			"-0.025": 0.0,
			"-0.024": 0.0,
			"-0.023": 0.0,
			"-0.022": 0.0,
			"-0.021": 0.0,
			"-0.02": 0.0,
			"-0.019": 0.0,
			"-0.018": 0.0,
			"-0.017": 0.0,
			"-0.016": 0.0,
			"-0.015": 0.0,
			"-0.014": 0.546479889753,
			"-0.013": 1.63909728844,
			"-0.012": 1.0712685376,
			"-0.011": 1.74874757664,
			"-0.01": 1.7725614149,
			"-0.009": 2.38474024518,
			"-0.008": 5.07754310398,
			"-0.007": 11.0313735644,
			"-0.006": 14.3825432349,
			"-0.005": 15.6149912876,
			"-0.004": 14.920048171,
			"-0.003": 17.2385481952,
			"-0.002": 15.028210646,
			"-0.001": 14.9436289682,
			"0.0": 17.5175986753,
			"0.001": 24.890630955,
			"0.002": 33.6832056699,
			"0.003": 35.8125762122,
			"0.004": 22.8234603891,
			"0.005": 11.9317725552,
			"0.006": 5.03748884191,
			"0.007": 4.14044722694,
			"0.008": 2.19504720933,
			"0.009": 2.01094474564,
			"0.01": 2.56319699706,
			"0.011": 2.14681574832,
			"0.012": 2.47955007193,
			"0.013": 0.850634125393,
			"0.014": 0.0,
			"0.015": 0.0,
			"0.016": 0.0,
			"0.017": 0.0,
			"0.018": 0.0,
			"0.019": 0.0,
			"0.02": 0.0,
			"0.021": 0.0,
			"0.022": 0.0,
			"0.023": 0.0,
			"0.024": 0.0,
			"0.025": 0.0
		}
	}
}
