{
	 "smiles": "CC12CCC3C(=CCC4=CC(O)=CC=C34)C1CCC2=O", 
	 "Tm": 512.15, 
	 "num_atms": 40, 
	 "gaussian": { 
		 "optdone": 1, 
		 "sigma_profile": "yes", 
		 "theory": "DFT", 
		 "functional": "B3LYP", 
		 "basiset": "6-31G**", 
		 "properties": { 
			 "R2extent": 6633.3847, 
			 "electric_dipole_moment_norm": 3.65741000436, 
			 "electric_quadrupole_moment_norm": 12.8787153913, 
			 "total_energy": -848.416083637, 
			 "HOMO_LUMO_gap": 0.19517, 
			 "cosmo_polarized_energy": -13.86, 
			 "cosmo_cavitation_energy": 38.99, 
			 "cosmo_dispersion_energy": -27.82, 
			 "cosmo_repulsion_energy": 2.1, 
			 "cosmo_total_nonelectrostatic_energy": 13.27, 
			 "SMD_solvation_energy": 6.29 
		},
		"coords": [
			{
				"x": 0.2278349912,
				"y": 3.9892641633,
				"z": -1.2681260985,
				"element": "C" 
			},
			{
				"x": 0.1841268391,
				"y": 3.2831949744,
				"z": 0.0999895358,
				"element": "C" 
			},
			{
				"x": -1.0798380625,
				"y": 2.3980127763,
				"z": 0.188406963,
				"element": "C" 
			},
			{
				"x": -0.9944937392,
				"y": 1.3581874133,
				"z": 1.3107839712,
				"element": "C" 
			},
			{
				"x": 0.2013134742,
				"y": 0.3588873498,
				"z": 1.1169399533,
				"element": "C" 
			},
			{
				"x": 1.2464776311,
				"y": 0.9786928022,
				"z": 0.2022473623,
				"element": "C" 
			},
			{
				"x": 1.8634054018,
				"y": 0.2889764841,
				"z": -0.7631257576,
				"element": "C" 
			},
			{
				"x": 1.6092048465,
				"y": -1.1543313834,
				"z": -1.0767650355,
				"element": "C" 
			},
			{
				"x": 0.4274272941,
				"y": -1.7444696931,
				"z": -0.3382984976,
				"element": "C" 
			},
			{
				"x": 0.0070818753,
				"y": -3.0384415063,
				"z": -0.6789755969,
				"element": "C" 
			},
			{
				"x": -1.0443939225,
				"y": -3.6557143529,
				"z": -0.0054606258,
				"element": "C" 
			},
			{
				"x": -1.4848750242,
				"y": -4.9146974549,
				"z": -0.3074986646,
				"element": "O" 
			},
			{
				"x": -1.6865069112,
				"y": -2.9759918202,
				"z": 1.0358704689,
				"element": "C" 
			},
			{
				"x": -1.2723961942,
				"y": -1.6920512732,
				"z": 1.3629469653,
				"element": "C" 
			},
			{
				"x": -0.2284306713,
				"y": -1.0409652048,
				"z": 0.6817099662,
				"element": "C" 
			},
			{
				"x": 1.4881578747,
				"y": 2.4586098936,
				"z": 0.3854079423,
				"element": "C" 
			},
			{
				"x": 1.9635284234,
				"y": 2.8864891773,
				"z": 1.8085589512,
				"element": "C" 
			},
			{
				"x": 1.4776329646,
				"y": 4.3323940557,
				"z": 1.9732392937,
				"element": "C" 
			},
			{
				"x": 0.1628552961,
				"y": 4.366822622,
				"z": 1.2002472699,
				"element": "C" 
			},
			{
				"x": -0.7654707498,
				"y": 5.1204321961,
				"z": 1.4041342849,
				"element": "O" 
			},
			{
				"x": 1.078850751,
				"y": 4.6756085825,
				"z": -1.3439968313,
				"element": "H" 
			},
			{
				"x": -0.6877079337,
				"y": 4.5666348521,
				"z": -1.4287342327,
				"element": "H" 
			},
			{
				"x": 0.3195900821,
				"y": 3.2484625414,
				"z": -2.069803336,
				"element": "H" 
			},
			{
				"x": -1.9481764741,
				"y": 3.049671744,
				"z": 0.3336766248,
				"element": "H" 
			},
			{
				"x": -1.2166629944,
				"y": 1.8815459208,
				"z": -0.7698725933,
				"element": "H" 
			},
			{
				"x": -0.8929169659,
				"y": 1.8752333508,
				"z": 2.2729631246,
				"element": "H" 
			},
			{
				"x": -1.9365057649,
				"y": 0.8068833502,
				"z": 1.3633517898,
				"element": "H" 
			},
			{
				"x": 0.6696779245,
				"y": 0.2404671716,
				"z": 2.1070192337,
				"element": "H" 
			},
			{
				"x": 2.6032062125,
				"y": 0.7938343765,
				"z": -1.3833715053,
				"element": "H" 
			},
			{
				"x": 2.5106334495,
				"y": -1.7472017168,
				"z": -0.8507196561,
				"element": "H" 
			},
			{
				"x": 1.464234763,
				"y": -1.2730072057,
				"z": -2.1609514044,
				"element": "H" 
			},
			{
				"x": 0.5188572281,
				"y": -3.5694038611,
				"z": -1.4813449959,
				"element": "H" 
			},
			{
				"x": -0.9576871923,
				"y": -5.2656339354,
				"z": -1.0368248855,
				"element": "H" 
			},
			{
				"x": -2.4946843093,
				"y": -3.4647837742,
				"z": 1.5696551916,
				"element": "H" 
			},
			{
				"x": -1.7731210161,
				"y": -1.1825990739,
				"z": 2.1818422182,
				"element": "H" 
			},
			{
				"x": 2.2580402612,
				"y": 2.7725602641,
				"z": -0.3295419676,
				"element": "H" 
			},
			{
				"x": 3.0460941145,
				"y": 2.7771583383,
				"z": 1.9169658986,
				"element": "H" 
			},
			{
				"x": 1.5022766705,
				"y": 2.2569554697,
				"z": 2.5766247199,
				"element": "H" 
			},
			{
				"x": 2.1670199157,
				"y": 5.0347836371,
				"z": 1.4824730471,
				"element": "H" 
			},
			{
				"x": 1.3435396407,
				"y": 4.6723287488,
				"z": 3.0029569082,
				"element": "H" 
			}
		],
		 "valence_orbital": [ 
			{
				"type": "occ",
				"energy": -0.29735,
				"method": "rhf"
			},
			{
				"type": "occ",
				"energy": -0.24621,
				"method": "rhf"
			},
			{
				"type": "occ",
				"energy": -0.23777,
				"method": "rhf"
			},
			{
				"type": "occ",
				"energy": -0.22869,
				"method": "rhf"
			},
			{
				"type": "occ",
				"energy": -0.21206,
				"method": "rhf"
			},
			{
				"type": "unocc",
				"energy": -0.01689,
				"method": "rhf"
			},
			{
				"type": "unocc",
				"energy": -0.00264,
				"method": "rhf"
			},
			{
				"type": "unocc",
				"energy": 0.01522,
				"method": "rhf"
			},
			{
				"type": "unocc",
				"energy": 0.02479,
				"method": "rhf"
			},
			{
				"type": "unocc",
				"energy": 0.07166,
				"method": "rhf"
			}
		],
		"cosmo_sigma_profile": { 
			"-0.025": 0.0,
			"-0.024": 0.0,
			"-0.023": 0.0,
			"-0.022": 0.0,
			"-0.021": 0.0,
			"-0.02": 0.0,
			"-0.019": 0.0,
			"-0.018": 0.0206661875249,
			"-0.017": 1.10295299581,
			"-0.016": 0.82406214055,
			"-0.015": 1.08270877466,
			"-0.014": 1.3370290279,
			"-0.013": 0.738116926988,
			"-0.012": 1.04342643363,
			"-0.011": 1.03268966869,
			"-0.01": 0.837812237192,
			"-0.009": 1.08897619608,
			"-0.008": 0.689853961349,
			"-0.007": 1.21240187763,
			"-0.006": 5.42928985308,
			"-0.005": 14.1023217108,
			"-0.004": 25.8513169008,
			"-0.003": 35.8037775988,
			"-0.002": 36.71698689,
			"-0.001": 33.158227569,
			"0.0": 30.7303580683,
			"0.001": 20.6586015318,
			"0.002": 12.6647129553,
			"0.003": 12.207425107,
			"0.004": 14.0888147471,
			"0.005": 12.4813038848,
			"0.006": 11.8228222091,
			"0.007": 5.5229478445,
			"0.008": 2.54446253261,
			"0.009": 3.25381026774,
			"0.01": 3.46911743672,
			"0.011": 5.01646951829,
			"0.012": 5.87299404608,
			"0.013": 2.20182602666,
			"0.014": 0.16071704146,
			"0.015": 0.0,
			"0.016": 0.0,
			"0.017": 0.0,
			"0.018": 0.0,
			"0.019": 0.0,
			"0.02": 0.0,
			"0.021": 0.0,
			"0.022": 0.0,
			"0.023": 0.0,
			"0.024": 0.0,
			"0.025": 0.0
		}
	}
}
