{
	 "smiles": "OC1=C(I)C=CC(C=O)=C1", 
	 "Tm": 405.15, 
	 "num_atms": 15, 
	 "gaussian": { 
		 "optdone": 1, 
		 "sigma_profile": "no", 
		 "theory": "DFT", 
		 "functional": "B3LYP", 
		 "basiset": "6-31G**", 
		 "properties": { 
			 "R2extent": 2044.83, 
			 "electric_dipole_moment_norm": 2.716318076, 
			 "electric_quadrupole_moment_norm": 8.31365336239, 
			 "total_energy": -431.578398274, 
			 "HOMO_LUMO_gap": 0.17089, 
			 "cosmo_polarized_energy": -91464.56, 
			 "cosmo_cavitation_energy": 22.91, 
			 "cosmo_dispersion_energy": -18.38, 
			 "cosmo_repulsion_energy": 1.44, 
			 "cosmo_total_nonelectrostatic_energy": 5.97, 
			 "SMD_solvation_energy": 4.52 
		},
		"coords": [
			{
				"x": -2.7391447613,
				"y": 0.3791359418,
				"z": 0.5583193656,
				"element": "O" 
			},
			{
				"x": -1.466792436,
				"y": 0.8259911607,
				"z": 0.6706876494,
				"element": "C" 
			},
			{
				"x": -0.9150038972,
				"y": 1.3806275375,
				"z": 1.8381886581,
				"element": "C" 
			},
			{
				"x": -2.1242222404,
				"y": 1.5495796029,
				"z": 3.5726532282,
				"element": "I" 
			},
			{
				"x": 0.4132075611,
				"y": 1.8219113107,
				"z": 1.877156386,
				"element": "C" 
			},
			{
				"x": 1.2111487134,
				"y": 1.7146572297,
				"z": 0.7461600428,
				"element": "C" 
			},
			{
				"x": 0.6750962375,
				"y": 1.162948099,
				"z": -0.4277912525,
				"element": "C" 
			},
			{
				"x": 1.5131603814,
				"y": 1.0405912198,
				"z": -1.6453898627,
				"element": "C" 
			},
			{
				"x": 2.6743881684,
				"y": 1.3924834777,
				"z": -1.7161504132,
				"element": "O" 
			},
			{
				"x": -0.6484099249,
				"y": 0.7247670946,
				"z": -0.4619543925,
				"element": "C" 
			},
			{
				"x": -3.2039370098,
				"y": 0.5012741045,
				"z": 1.4018583613,
				"element": "H" 
			},
			{
				"x": 0.8117540164,
				"y": 2.2456826589,
				"z": 2.7921594443,
				"element": "H" 
			},
			{
				"x": 2.2429183227,
				"y": 2.0486812158,
				"z": 0.7493188976,
				"element": "H" 
			},
			{
				"x": 0.9958091954,
				"y": 0.5909360801,
				"z": -2.5214932338,
				"element": "H" 
			},
			{
				"x": -1.0742723267,
				"y": 0.2960332664,
				"z": -1.3649228786,
				"element": "H" 
			}
		],
		 "valence_orbital": [ 
			{
				"type": "occ",
				"energy": -0.31279,
				"method": "rhf"
			},
			{
				"type": "occ",
				"energy": -0.29622,
				"method": "rhf"
			},
			{
				"type": "occ",
				"energy": -0.26601,
				"method": "rhf"
			},
			{
				"type": "occ",
				"energy": -0.26256,
				"method": "rhf"
			},
			{
				"type": "occ",
				"energy": -0.24379,
				"method": "rhf"
			},
			{
				"type": "unocc",
				"energy": -0.0729,
				"method": "rhf"
			},
			{
				"type": "unocc",
				"energy": -0.0572,
				"method": "rhf"
			},
			{
				"type": "unocc",
				"energy": -0.01977,
				"method": "rhf"
			},
			{
				"type": "unocc",
				"energy": 0.02815,
				"method": "rhf"
			},
			{
				"type": "unocc",
				"energy": 0.02938,
				"method": "rhf"
			}
		],
		"cosmo_sigma_profile": { 
			"0.0": 0.0,
			"0.0": 0.0,
			"0.0": 0.0,
			"0.0": 0.0,
			"0.0": 0.0,
			"0.0": 0.0,
			"0.0": 0.0,
			"0.0": 0.0,
			"0.0": 0.0,
			"0.0": 0.0,
			"0.0": 0.0,
			"0.0": 0.0,
			"0.0": 0.0,
			"0.0": 0.0,
			"0.0": 0.0,
			"0.0": 0.0,
			"0.0": 0.0,
			"0.0": 0.0,
			"0.0": 0.0,
			"0.0": 0.0,
			"0.0": 0.0,
			"0.0": 0.0,
			"0.0": 0.0,
			"0.0": 0.0,
			"0.0": 0.0,
			"0.0": 0.0,
			"0.0": 0.0,
			"0.0": 0.0,
			"0.0": 0.0,
			"0.0": 0.0,
			"0.0": 0.0,
			"0.0": 0.0,
			"0.0": 0.0,
			"0.0": 0.0,
			"0.0": 0.0,
			"0.0": 0.0,
			"0.0": 0.0,
			"0.0": 0.0,
			"0.0": 0.0,
			"0.0": 0.0,
			"0.0": 0.0,
			"0.0": 0.0,
			"0.0": 0.0,
			"0.0": 0.0,
			"0.0": 0.0,
			"0.0": 0.0,
			"0.0": 0.0,
			"0.0": 0.0,
			"0.0": 0.0,
			"0.0": 0.0,
			"0.0": 0.0
		}
	}
}
