{
	 "smiles": "CN(C)CCC1=CC=C(C=C1)C(O)=O", 
	 "Tm": 437.15, 
	 "num_atms": 29, 
	 "gaussian": { 
		 "optdone": 1, 
		 "sigma_profile": "yes", 
		 "theory": "DFT", 
		 "functional": "B3LYP", 
		 "basiset": "6-31G**", 
		 "properties": { 
			 "R2extent": 4298.8812, 
			 "electric_dipole_moment_norm": 5.46093259526, 
			 "electric_quadrupole_moment_norm": 20.686885427, 
			 "total_energy": -633.410999766, 
			 "HOMO_LUMO_gap": 0.16839, 
			 "cosmo_polarized_energy": -15.1, 
			 "cosmo_cavitation_energy": 31.72, 
			 "cosmo_dispersion_energy": -22.46, 
			 "cosmo_repulsion_energy": 1.77, 
			 "cosmo_total_nonelectrostatic_energy": 11.03, 
			 "SMD_solvation_energy": 4.19 
		},
		"coords": [
			{
				"x": -0.8166045399,
				"y": -2.1068417,
				"z": -0.2875805917,
				"element": "C" 
			},
			{
				"x": -1.8597421592,
				"y": -1.8252696509,
				"z": 0.6929203147,
				"element": "N" 
			},
			{
				"x": -2.4032037541,
				"y": -3.066679382,
				"z": 1.2327050872,
				"element": "C" 
			},
			{
				"x": -1.4276482804,
				"y": -0.926076691,
				"z": 1.7609870667,
				"element": "C" 
			},
			{
				"x": -1.3321640185,
				"y": 0.5616981744,
				"z": 1.3519484352,
				"element": "C" 
			},
			{
				"x": -0.0895383389,
				"y": 1.000114673,
				"z": 0.6043679067,
				"element": "C" 
			},
			{
				"x": 1.1809294704,
				"y": 0.8793427909,
				"z": 1.1880390126,
				"element": "C" 
			},
			{
				"x": 2.324048433,
				"y": 1.298105691,
				"z": 0.5122662657,
				"element": "C" 
			},
			{
				"x": 2.2281033112,
				"y": 1.8598387515,
				"z": -0.7695779837,
				"element": "C" 
			},
			{
				"x": 0.9605019817,
				"y": 2.0131001151,
				"z": -1.3455284951,
				"element": "C" 
			},
			{
				"x": -0.1769770091,
				"y": 1.5821446644,
				"z": -0.6697349537,
				"element": "C" 
			},
			{
				"x": 3.4126385113,
				"y": 2.3453143086,
				"z": -1.5467098849,
				"element": "C" 
			},
			{
				"x": 4.6288946162,
				"y": 1.8539487378,
				"z": -1.181237183,
				"element": "O" 
			},
			{
				"x": 3.332528161,
				"y": 3.1321093998,
				"z": -2.4610099767,
				"element": "O" 
			},
			{
				"x": 0.0658064685,
				"y": -2.6114460987,
				"z": 0.1531523441,
				"element": "H" 
			},
			{
				"x": -0.4741885439,
				"y": -1.1861071106,
				"z": -0.7621855946,
				"element": "H" 
			},
			{
				"x": -1.2205034113,
				"y": -2.757771527,
				"z": -1.0695070933,
				"element": "H" 
			},
			{
				"x": -3.2390465856,
				"y": -2.8491382094,
				"z": 1.9053247486,
				"element": "H" 
			},
			{
				"x": -2.782164924,
				"y": -3.686346776,
				"z": 0.4137176967,
				"element": "H" 
			},
			{
				"x": -1.6602577432,
				"y": -3.667460358,
				"z": 1.792990476,
				"element": "H" 
			},
			{
				"x": -0.4715246866,
				"y": -1.2528806344,
				"z": 2.2177712789,
				"element": "H" 
			},
			{
				"x": -2.1814601771,
				"y": -0.9880817572,
				"z": 2.55328816,
				"element": "H" 
			},
			{
				"x": -2.2241993686,
				"y": 0.8065804317,
				"z": 0.7668386163,
				"element": "H" 
			},
			{
				"x": -1.3910562884,
				"y": 1.1495779183,
				"z": 2.2778341453,
				"element": "H" 
			},
			{
				"x": 1.2762228627,
				"y": 0.4651310853,
				"z": 2.1881642563,
				"element": "H" 
			},
			{
				"x": 3.2848925855,
				"y": 1.2227995688,
				"z": 1.0168855721,
				"element": "H" 
			},
			{
				"x": 0.8909981466,
				"y": 2.4721706452,
				"z": -2.3259259855,
				"element": "H" 
			},
			{
				"x": -1.1526724966,
				"y": 1.6978968096,
				"z": -1.1341777995,
				"element": "H" 
			},
			{
				"x": 4.5181877774,
				"y": 1.1233261298,
				"z": -0.5575258415,
				"element": "H" 
			}
		],
		 "valence_orbital": [ 
			{
				"type": "occ",
				"energy": -0.31245,
				"method": "rhf"
			},
			{
				"type": "occ",
				"energy": -0.27228,
				"method": "rhf"
			},
			{
				"type": "occ",
				"energy": -0.26897,
				"method": "rhf"
			},
			{
				"type": "occ",
				"energy": -0.25625,
				"method": "rhf"
			},
			{
				"type": "occ",
				"energy": -0.21677,
				"method": "rhf"
			},
			{
				"type": "unocc",
				"energy": -0.04838,
				"method": "rhf"
			},
			{
				"type": "unocc",
				"energy": -0.02144,
				"method": "rhf"
			},
			{
				"type": "unocc",
				"energy": 0.04762,
				"method": "rhf"
			},
			{
				"type": "unocc",
				"energy": 0.06383,
				"method": "rhf"
			},
			{
				"type": "unocc",
				"energy": 0.08066,
				"method": "rhf"
			}
		],
		"cosmo_sigma_profile": { 
			"-0.025": 0.0,
			"-0.024": 0.0,
			"-0.023": 0.0,
			"-0.022": 0.0,
			"-0.021": 0.0,
			"-0.02": 0.0,
			"-0.019": 0.0689563210023,
			"-0.018": 0.617291445974,
			"-0.017": 1.06800876587,
			"-0.016": 1.04782264743,
			"-0.015": 1.28995775789,
			"-0.014": 0.543687006268,
			"-0.013": 0.538652849948,
			"-0.012": 1.29389892315,
			"-0.011": 1.3644653121,
			"-0.01": 1.49420521148,
			"-0.009": 0.752944301082,
			"-0.008": 1.5311767183,
			"-0.007": 2.0915975473,
			"-0.006": 6.61365448947,
			"-0.005": 11.0006749463,
			"-0.004": 21.0109556871,
			"-0.003": 20.943161902,
			"-0.002": 22.1508897263,
			"-0.001": 34.1352672823,
			"0.0": 31.9994634208,
			"0.001": 16.033631017,
			"0.002": 11.8800722541,
			"0.003": 12.4527957628,
			"0.004": 9.00425029083,
			"0.005": 3.58357208038,
			"0.006": 3.63063015776,
			"0.007": 3.49007749034,
			"0.008": 2.55387437913,
			"0.009": 4.61295880715,
			"0.01": 5.22688509925,
			"0.011": 5.32999461395,
			"0.012": 5.48715926192,
			"0.013": 2.82181026389,
			"0.014": 1.24291818854,
			"0.015": 0.108492356427,
			"0.016": 0.380503837404,
			"0.017": 0.0,
			"0.018": 0.0,
			"0.019": 0.0,
			"0.02": 0.0,
			"0.021": 0.0,
			"0.022": 0.0,
			"0.023": 0.0,
			"0.024": 0.0,
			"0.025": 0.0
		}
	}
}
