{
	 "smiles": "BrC1=CC2=C(NNC2=O)N=C1", 
	 "Tm": 493.15, 
	 "num_atms": 15, 
	 "gaussian": { 
		 "optdone": 1, 
		 "sigma_profile": "yes", 
		 "theory": "DFT", 
		 "functional": "B3LYP", 
		 "basiset": "6-31G**", 
		 "properties": { 
			 "R2extent": 3739.5059, 
			 "electric_dipole_moment_norm": 2.55200854622, 
			 "electric_quadrupole_moment_norm": 14.616481423, 
			 "total_energy": -3041.90632164, 
			 "HOMO_LUMO_gap": 0.16514, 
			 "cosmo_polarized_energy": -14.07, 
			 "cosmo_cavitation_energy": 22.46, 
			 "cosmo_dispersion_energy": -17.45, 
			 "cosmo_repulsion_energy": 1.4, 
			 "cosmo_total_nonelectrostatic_energy": 6.4, 
			 "SMD_solvation_energy": 1.63 
		},
		"coords": [
			{
				"x": -0.9346420393,
				"y": 4.0627822183,
				"z": 0.788591881,
				"element": "Br" 
			},
			{
				"x": -0.8388963602,
				"y": 2.1811590603,
				"z": 0.5040785972,
				"element": "C" 
			},
			{
				"x": -1.2093851077,
				"y": 1.6286925304,
				"z": -0.718793502,
				"element": "C" 
			},
			{
				"x": -1.1044982037,
				"y": 0.2451109821,
				"z": -0.8183718669,
				"element": "C" 
			},
			{
				"x": -0.6168807626,
				"y": -0.4794446741,
				"z": 0.275906131,
				"element": "C" 
			},
			{
				"x": -0.5163189718,
				"y": -1.8318158416,
				"z": -0.0430606175,
				"element": "N" 
			},
			{
				"x": -1.1881448231,
				"y": -1.9738709448,
				"z": -1.2904271229,
				"element": "N" 
			},
			{
				"x": -1.4065646868,
				"y": -0.7167675651,
				"z": -1.893007847,
				"element": "C" 
			},
			{
				"x": -1.7483700129,
				"y": -0.5481384248,
				"z": -3.0495528774,
				"element": "O" 
			},
			{
				"x": -0.2909316959,
				"y": 0.0262987689,
				"z": 1.4646506055,
				"element": "N" 
			},
			{
				"x": -0.404932313,
				"y": 1.3546185242,
				"z": 1.5577896647,
				"element": "C" 
			},
			{
				"x": -1.5720223686,
				"y": 2.2340296385,
				"z": -1.542174734,
				"element": "H" 
			},
			{
				"x": -0.8732031182,
				"y": -2.4655854537,
				"z": 0.6683156918,
				"element": "H" 
			},
			{
				"x": -0.8165981977,
				"y": -2.7057193194,
				"z": -1.8854103006,
				"element": "H" 
			},
			{
				"x": -0.1433113383,
				"y": 1.8000505007,
				"z": 2.5137662972,
				"element": "H" 
			}
		],
		 "valence_orbital": [ 
			{
				"type": "occ",
				"energy": -0.30448,
				"method": "rhf"
			},
			{
				"type": "occ",
				"energy": -0.29551,
				"method": "rhf"
			},
			{
				"type": "occ",
				"energy": -0.2757,
				"method": "rhf"
			},
			{
				"type": "occ",
				"energy": -0.26375,
				"method": "rhf"
			},
			{
				"type": "occ",
				"energy": -0.23455,
				"method": "rhf"
			},
			{
				"type": "unocc",
				"energy": -0.06941,
				"method": "rhf"
			},
			{
				"type": "unocc",
				"energy": -0.02967,
				"method": "rhf"
			},
			{
				"type": "unocc",
				"energy": -0.00552,
				"method": "rhf"
			},
			{
				"type": "unocc",
				"energy": 0.03445,
				"method": "rhf"
			},
			{
				"type": "unocc",
				"energy": 0.0761,
				"method": "rhf"
			}
		],
		"cosmo_sigma_profile": { 
			"-0.025": 0.0,
			"-0.024": 0.0,
			"-0.023": 0.0,
			"-0.022": 0.0,
			"-0.021": 0.0,
			"-0.02": 0.0,
			"-0.019": 0.0,
			"-0.018": 0.0,
			"-0.017": 0.0,
			"-0.016": 1.80753728336,
			"-0.015": 3.04088256884,
			"-0.014": 1.79837190303,
			"-0.013": 2.14985446787,
			"-0.012": 2.07224375413,
			"-0.011": 1.90286023915,
			"-0.01": 2.24442364243,
			"-0.009": 3.69198971181,
			"-0.008": 4.68087499683,
			"-0.007": 4.34732589509,
			"-0.006": 4.80013529242,
			"-0.005": 6.38277395585,
			"-0.004": 7.25561211788,
			"-0.003": 9.78035249514,
			"-0.002": 14.3956228771,
			"-0.001": 18.2821976967,
			"0.0": 14.5736067427,
			"0.001": 9.44714750373,
			"0.002": 9.63696311278,
			"0.003": 11.9165441984,
			"0.004": 14.0204512986,
			"0.005": 5.46249766981,
			"0.006": 4.03633196632,
			"0.007": 3.34484699644,
			"0.008": 2.266117016,
			"0.009": 2.00562879394,
			"0.01": 3.05201945462,
			"0.011": 2.82568089848,
			"0.012": 5.01152563978,
			"0.013": 6.40339397909,
			"0.014": 1.57469745663,
			"0.015": 0.0,
			"0.016": 0.0,
			"0.017": 0.0,
			"0.018": 0.0,
			"0.019": 0.0,
			"0.02": 0.0,
			"0.021": 0.0,
			"0.022": 0.0,
			"0.023": 0.0,
			"0.024": 0.0,
			"0.025": 0.0
		}
	}
}
