{
	 "smiles": "CCOC1=NN=C(Cl)C=C1", 
	 "Tm": 334.15, 
	 "num_atms": 17, 
	 "gaussian": { 
		 "optdone": 1, 
		 "sigma_profile": "yes", 
		 "theory": "DFT", 
		 "functional": "B3LYP", 
		 "basiset": "6-31G**", 
		 "properties": { 
			 "R2extent": 3153.9857, 
			 "electric_dipole_moment_norm": 3.77188529386, 
			 "electric_quadrupole_moment_norm": 11.9183344839, 
			 "total_energy": -877.734357023, 
			 "HOMO_LUMO_gap": 0.18723, 
			 "cosmo_polarized_energy": -9.55, 
			 "cosmo_cavitation_energy": 23.32, 
			 "cosmo_dispersion_energy": -17.67, 
			 "cosmo_repulsion_energy": 1.47, 
			 "cosmo_total_nonelectrostatic_energy": 7.11, 
			 "SMD_solvation_energy": 2.8 
		},
		"coords": [
			{
				"x": -1.993998737,
				"y": 0.4748432583,
				"z": 2.8640365405,
				"element": "C" 
			},
			{
				"x": -1.9186137862,
				"y": 0.0602848726,
				"z": 1.4071455301,
				"element": "C" 
			},
			{
				"x": -1.0138882965,
				"y": 0.9798228528,
				"z": 0.7524191722,
				"element": "O" 
			},
			{
				"x": -0.788461824,
				"y": 0.8070846503,
				"z": -0.5588318045,
				"element": "C" 
			},
			{
				"x": -1.393720636,
				"y": -0.1866501376,
				"z": -1.2021520961,
				"element": "N" 
			},
			{
				"x": -1.1694751897,
				"y": -0.3610805061,
				"z": -2.5139933571,
				"element": "N" 
			},
			{
				"x": -0.352363024,
				"y": 0.4573218078,
				"z": -3.1401271574,
				"element": "C" 
			},
			{
				"x": -0.110108294,
				"y": 0.1653779267,
				"z": -4.8528519626,
				"element": "Cl" 
			},
			{
				"x": 0.3241075432,
				"y": 1.5309042056,
				"z": -2.5269742352,
				"element": "C" 
			},
			{
				"x": 0.0976243495,
				"y": 1.7129384826,
				"z": -1.1852939812,
				"element": "C" 
			},
			{
				"x": -2.3714966994,
				"y": 1.4967907584,
				"z": 2.9613473125,
				"element": "H" 
			},
			{
				"x": -2.6704911312,
				"y": -0.1952005523,
				"z": 3.4033004055,
				"element": "H" 
			},
			{
				"x": -1.0091634825,
				"y": 0.423806915,
				"z": 3.3371579069,
				"element": "H" 
			},
			{
				"x": -1.5400245692,
				"y": -0.9597214553,
				"z": 1.2863957654,
				"element": "H" 
			},
			{
				"x": -2.8942368478,
				"y": 0.1067083449,
				"z": 0.9128568049,
				"element": "H" 
			},
			{
				"x": 0.9861319407,
				"y": 2.1717592912,
				"z": -3.0976571789,
				"element": "H" 
			},
			{
				"x": 0.563278684,
				"y": 2.5055092851,
				"z": -0.610177665,
				"element": "H" 
			}
		],
		 "valence_orbital": [ 
			{
				"type": "occ",
				"energy": -0.33174,
				"method": "rhf"
			},
			{
				"type": "occ",
				"energy": -0.31799,
				"method": "rhf"
			},
			{
				"type": "occ",
				"energy": -0.30943,
				"method": "rhf"
			},
			{
				"type": "occ",
				"energy": -0.25276,
				"method": "rhf"
			},
			{
				"type": "occ",
				"energy": -0.24749,
				"method": "rhf"
			},
			{
				"type": "unocc",
				"energy": -0.06026,
				"method": "rhf"
			},
			{
				"type": "unocc",
				"energy": -0.02068,
				"method": "rhf"
			},
			{
				"type": "unocc",
				"energy": 0.02723,
				"method": "rhf"
			},
			{
				"type": "unocc",
				"energy": 0.09667,
				"method": "rhf"
			},
			{
				"type": "unocc",
				"energy": 0.10099,
				"method": "rhf"
			}
		],
		"cosmo_sigma_profile": { 
			"-0.025": 0.0,
			"-0.024": 0.0,
			"-0.023": 0.0,
			"-0.022": 0.0,
			"-0.021": 0.0,
			"-0.02": 0.0,
			"-0.019": 0.0,
			"-0.018": 0.0,
			"-0.017": 0.0,
			"-0.016": 0.0,
			"-0.015": 0.0,
			"-0.014": 0.0,
			"-0.013": 0.0,
			"-0.012": 0.0,
			"-0.011": 0.0,
			"-0.01": 0.696543488889,
			"-0.009": 4.32237328396,
			"-0.008": 4.2400279408,
			"-0.007": 3.90867133555,
			"-0.006": 3.18087486636,
			"-0.005": 7.74209561574,
			"-0.004": 15.6706766027,
			"-0.003": 20.1309180153,
			"-0.002": 23.4767893614,
			"-0.001": 20.3209842625,
			"0.0": 16.4352314502,
			"0.001": 8.88393476638,
			"0.002": 8.78712992846,
			"0.003": 10.1642045591,
			"0.004": 10.4518061805,
			"0.005": 5.9019993408,
			"0.006": 4.00068333767,
			"0.007": 3.49001043064,
			"0.008": 3.29469518808,
			"0.009": 2.53105641974,
			"0.01": 2.22927868928,
			"0.011": 2.16296777201,
			"0.012": 2.73683544201,
			"0.013": 2.14116223886,
			"0.014": 1.33564678903,
			"0.015": 0.221258433039,
			"0.016": 0.0,
			"0.017": 0.0,
			"0.018": 0.0,
			"0.019": 0.0,
			"0.02": 0.0,
			"0.021": 0.0,
			"0.022": 0.0,
			"0.023": 0.0,
			"0.024": 0.0,
			"0.025": 0.0
		}
	}
}
