{
	 "smiles": "OC(=O)CS(=O)CC1=CC=C(Br)C=C1", 
	 "Tm": 415.15, 
	 "num_atms": 23, 
	 "gaussian": { 
		 "optdone": 1, 
		 "sigma_profile": "yes", 
		 "theory": "DFT", 
		 "functional": "B3LYP", 
		 "basiset": "6-31G**", 
		 "properties": { 
			 "R2extent": 5797.6543, 
			 "electric_dipole_moment_norm": 1.78952025135, 
			 "electric_quadrupole_moment_norm": 18.1564202945, 
			 "total_energy": -3543.60201811, 
			 "HOMO_LUMO_gap": 0.20077, 
			 "cosmo_polarized_energy": -20.65, 
			 "cosmo_cavitation_energy": 32.11, 
			 "cosmo_dispersion_energy": -22.83, 
			 "cosmo_repulsion_energy": 1.77, 
			 "cosmo_total_nonelectrostatic_energy": 11.05, 
			 "SMD_solvation_energy": 4.51 
		},
		"coords": [
			{
				"x": 3.027580345,
				"y": 2.4910646106,
				"z": -0.3558616337,
				"element": "O" 
			},
			{
				"x": 2.5512632306,
				"y": 1.4257700825,
				"z": 0.3294247984,
				"element": "C" 
			},
			{
				"x": 3.2293071216,
				"y": 0.4331414738,
				"z": 0.4540033667,
				"element": "O" 
			},
			{
				"x": 1.1466287747,
				"y": 1.5637365339,
				"z": 0.8843010317,
				"element": "C" 
			},
			{
				"x": 0.8515930236,
				"y": 0.5296384429,
				"z": 2.4060248869,
				"element": "S" 
			},
			{
				"x": -0.5614826968,
				"y": 0.863454051,
				"z": 2.8272538973,
				"element": "O" 
			},
			{
				"x": 0.8130348014,
				"y": -1.1619706466,
				"z": 1.5965447491,
				"element": "C" 
			},
			{
				"x": -0.1517909671,
				"y": -1.2847155584,
				"z": 0.4593010478,
				"element": "C" 
			},
			{
				"x": -1.5378363159,
				"y": -1.2486004028,
				"z": 0.6852975491,
				"element": "C" 
			},
			{
				"x": -2.4359113938,
				"y": -1.3403497481,
				"z": -0.3771303835,
				"element": "C" 
			},
			{
				"x": -1.9463828321,
				"y": -1.4713980589,
				"z": -1.6762495398,
				"element": "C" 
			},
			{
				"x": -3.1740090526,
				"y": -1.6098605819,
				"z": -3.1347533341,
				"element": "Br" 
			},
			{
				"x": -0.576151018,
				"y": -1.5034908057,
				"z": -1.9295901861,
				"element": "C" 
			},
			{
				"x": 0.3133666095,
				"y": -1.4039029722,
				"z": -0.859498303,
				"element": "C" 
			},
			{
				"x": 2.3756269401,
				"y": 3.2060398928,
				"z": -0.3788878468,
				"element": "H" 
			},
			{
				"x": 0.4060349169,
				"y": 1.2673071867,
				"z": 0.1337426633,
				"element": "H" 
			},
			{
				"x": 0.9157419367,
				"y": 2.5811001956,
				"z": 1.2140838015,
				"element": "H" 
			},
			{
				"x": 1.8457899283,
				"y": -1.3619035374,
				"z": 1.3064852123,
				"element": "H" 
			},
			{
				"x": 0.5387219943,
				"y": -1.8012541073,
				"z": 2.441254236,
				"element": "H" 
			},
			{
				"x": -1.9118158132,
				"y": -1.1300757745,
				"z": 1.6964148839,
				"element": "H" 
			},
			{
				"x": -3.5046268208,
				"y": -1.3126909984,
				"z": -0.1977318459,
				"element": "H" 
			},
			{
				"x": -0.2096544247,
				"y": -1.6073459753,
				"z": -2.9445243291,
				"element": "H" 
			},
			{
				"x": 1.3829717123,
				"y": -1.4253933025,
				"z": -1.0505047222,
				"element": "H" 
			}
		],
		 "valence_orbital": [ 
			{
				"type": "occ",
				"energy": -0.29108,
				"method": "rhf"
			},
			{
				"type": "occ",
				"energy": -0.27827,
				"method": "rhf"
			},
			{
				"type": "occ",
				"energy": -0.27033,
				"method": "rhf"
			},
			{
				"type": "occ",
				"energy": -0.25126,
				"method": "rhf"
			},
			{
				"type": "occ",
				"energy": -0.23341,
				"method": "rhf"
			},
			{
				"type": "unocc",
				"energy": -0.03264,
				"method": "rhf"
			},
			{
				"type": "unocc",
				"energy": -0.02338,
				"method": "rhf"
			},
			{
				"type": "unocc",
				"energy": -0.02018,
				"method": "rhf"
			},
			{
				"type": "unocc",
				"energy": 0.00291,
				"method": "rhf"
			},
			{
				"type": "unocc",
				"energy": 0.01409,
				"method": "rhf"
			}
		],
		"cosmo_sigma_profile": { 
			"-0.025": 0.0,
			"-0.024": 0.0,
			"-0.023": 0.0,
			"-0.022": 0.0,
			"-0.021": 0.0,
			"-0.02": 0.730999145967,
			"-0.019": 1.3980379808,
			"-0.018": 1.57432915999,
			"-0.017": 1.40414494345,
			"-0.016": 0.878309759855,
			"-0.015": 0.512243480241,
			"-0.014": 0.864300933022,
			"-0.013": 2.33232417913,
			"-0.012": 1.52422032185,
			"-0.011": 1.17939170657,
			"-0.01": 2.03952158847,
			"-0.009": 2.98440006906,
			"-0.008": 5.27185179611,
			"-0.007": 8.28172831799,
			"-0.006": 9.50569567544,
			"-0.005": 13.8519174477,
			"-0.004": 17.6769065106,
			"-0.003": 13.3335703193,
			"-0.002": 17.4276274902,
			"-0.001": 20.6814053105,
			"0.0": 14.4926055151,
			"0.001": 16.1648212555,
			"0.002": 21.2943587429,
			"0.003": 20.9412227438,
			"0.004": 15.9245813629,
			"0.005": 9.66732224922,
			"0.006": 4.19555853678,
			"0.007": 3.65175774789,
			"0.008": 4.43116158772,
			"0.009": 6.25576737056,
			"0.01": 4.84687947022,
			"0.011": 3.26386903266,
			"0.012": 2.62495412251,
			"0.013": 3.16828700808,
			"0.014": 3.50811631128,
			"0.015": 2.50049599039,
			"0.016": 0.0478599123773,
			"0.017": 0.0,
			"0.018": 0.0,
			"0.019": 0.0,
			"0.02": 0.0,
			"0.021": 0.0,
			"0.022": 0.0,
			"0.023": 0.0,
			"0.024": 0.0,
			"0.025": 0.0
		}
	}
}
