{
	 "smiles": "CC1=NN=NN1C1=C(C=CC(N)=C1)C(O)=O", 
	 "Tm": 477.15, 
	 "num_atms": 25, 
	 "gaussian": { 
		 "optdone": 1, 
		 "sigma_profile": "yes", 
		 "theory": "DFT", 
		 "functional": "B3LYP", 
		 "basiset": "6-31G**", 
		 "properties": { 
			 "R2extent": 3580.5451, 
			 "electric_dipole_moment_norm": 9.40983431788, 
			 "electric_quadrupole_moment_norm": 15.4822979997, 
			 "total_energy": -772.551590674, 
			 "HOMO_LUMO_gap": 0.17978, 
			 "cosmo_polarized_energy": -25.79, 
			 "cosmo_cavitation_energy": 30.04, 
			 "cosmo_dispersion_energy": -21.4, 
			 "cosmo_repulsion_energy": 1.66, 
			 "cosmo_total_nonelectrostatic_energy": 10.29, 
			 "SMD_solvation_energy": 4.7 
		},
		"coords": [
			{
				"x": 0.3631199904,
				"y": -0.6371012339,
				"z": 2.4522116524,
				"element": "C" 
			},
			{
				"x": -0.6314062078,
				"y": 0.3923036058,
				"z": 2.0390780289,
				"element": "C" 
			},
			{
				"x": -1.4453437925,
				"y": 1.0519524913,
				"z": 2.8496772585,
				"element": "N" 
			},
			{
				"x": -2.203293546,
				"y": 1.8553329396,
				"z": 2.0699891199,
				"element": "N" 
			},
			{
				"x": -1.8856513723,
				"y": 1.7253958366,
				"z": 0.8250123792,
				"element": "N" 
			},
			{
				"x": -0.8892588654,
				"y": 0.7954671923,
				"z": 0.7691462801,
				"element": "N" 
			},
			{
				"x": -0.2510696158,
				"y": 0.4500926147,
				"z": -0.4680441194,
				"element": "C" 
			},
			{
				"x": -0.951729119,
				"y": -0.1491545004,
				"z": -1.5327850937,
				"element": "C" 
			},
			{
				"x": -0.1878756445,
				"y": -0.4944911092,
				"z": -2.6623089516,
				"element": "C" 
			},
			{
				"x": 1.1683280235,
				"y": -0.2361402279,
				"z": -2.7569798929,
				"element": "C" 
			},
			{
				"x": 1.8515316858,
				"y": 0.3848197788,
				"z": -1.6937745065,
				"element": "C" 
			},
			{
				"x": 3.2120916104,
				"y": 0.6156642837,
				"z": -1.7546106373,
				"element": "N" 
			},
			{
				"x": 1.1152552535,
				"y": 0.7178993004,
				"z": -0.5450473217,
				"element": "C" 
			},
			{
				"x": -2.4112104916,
				"y": -0.5346814044,
				"z": -1.6071573603,
				"element": "C" 
			},
			{
				"x": -3.3193578599,
				"y": 0.1813890824,
				"z": -0.9290360147,
				"element": "O" 
			},
			{
				"x": -2.7607542726,
				"y": -1.4635762219,
				"z": -2.3046736295,
				"element": "O" 
			},
			{
				"x": 0.1394393932,
				"y": -0.938787864,
				"z": 3.4761395799,
				"element": "H" 
			},
			{
				"x": 1.3848654594,
				"y": -0.2460221543,
				"z": 2.423285148,
				"element": "H" 
			},
			{
				"x": 0.320638969,
				"y": -1.5123485859,
				"z": 1.7983978824,
				"element": "H" 
			},
			{
				"x": -0.7074677703,
				"y": -0.9888902904,
				"z": -3.4752408326,
				"element": "H" 
			},
			{
				"x": 1.7122452051,
				"y": -0.5156490851,
				"z": -3.6550628528,
				"element": "H" 
			},
			{
				"x": 3.6322771623,
				"y": 0.624472309,
				"z": -2.6721849755,
				"element": "H" 
			},
			{
				"x": 3.5925076059,
				"y": 1.3100012269,
				"z": -1.1287220344,
				"element": "H" 
			},
			{
				"x": 1.6069778014,
				"y": 1.2010977748,
				"z": 0.2934316904,
				"element": "H" 
			},
			{
				"x": -2.9356596023,
				"y": 0.9584542413,
				"z": -0.4721407966,
				"element": "H" 
			}
		],
		 "valence_orbital": [ 
			{
				"type": "occ",
				"energy": -0.30035,
				"method": "rhf"
			},
			{
				"type": "occ",
				"energy": -0.29934,
				"method": "rhf"
			},
			{
				"type": "occ",
				"energy": -0.279,
				"method": "rhf"
			},
			{
				"type": "occ",
				"energy": -0.26683,
				"method": "rhf"
			},
			{
				"type": "occ",
				"energy": -0.23752,
				"method": "rhf"
			},
			{
				"type": "unocc",
				"energy": -0.05774,
				"method": "rhf"
			},
			{
				"type": "unocc",
				"energy": -0.04011,
				"method": "rhf"
			},
			{
				"type": "unocc",
				"energy": -0.02387,
				"method": "rhf"
			},
			{
				"type": "unocc",
				"energy": 0.0107,
				"method": "rhf"
			},
			{
				"type": "unocc",
				"energy": 0.04305,
				"method": "rhf"
			}
		],
		"cosmo_sigma_profile": { 
			"-0.025": 0.0,
			"-0.024": 0.0,
			"-0.023": 0.0,
			"-0.022": 0.0,
			"-0.021": 0.0,
			"-0.02": 0.0,
			"-0.019": 0.0,
			"-0.018": 0.0,
			"-0.017": 0.0,
			"-0.016": 0.0,
			"-0.015": 0.0,
			"-0.014": 1.49460745809,
			"-0.013": 3.40917508307,
			"-0.012": 3.47485385479,
			"-0.011": 3.4440445631,
			"-0.01": 2.62270762793,
			"-0.009": 6.75398195168,
			"-0.008": 7.74460855592,
			"-0.007": 13.7078127704,
			"-0.006": 14.4205062162,
			"-0.005": 14.3608344779,
			"-0.004": 13.5365116355,
			"-0.003": 16.8513468786,
			"-0.002": 12.575433348,
			"-0.001": 8.61889904053,
			"0.0": 11.0866139371,
			"0.001": 11.7280244431,
			"0.002": 13.2835473595,
			"0.003": 12.020853537,
			"0.004": 6.88623196538,
			"0.005": 5.2842751069,
			"0.006": 6.52828611325,
			"0.007": 7.4632774058,
			"0.008": 6.23785753816,
			"0.009": 5.82698647177,
			"0.01": 8.27217093651,
			"0.011": 8.0464976383,
			"0.012": 8.11530166776,
			"0.013": 4.73958137526,
			"0.014": 1.79312048691,
			"0.015": 0.192984977562,
			"0.016": 0.0,
			"0.017": 0.0,
			"0.018": 0.0,
			"0.019": 0.0,
			"0.02": 0.0,
			"0.021": 0.0,
			"0.022": 0.0,
			"0.023": 0.0,
			"0.024": 0.0,
			"0.025": 0.0
		}
	}
}
