{
	 "smiles": "COC(=O)C1=CN=C(Cl)N=C1C(F)(F)F", 
	 "Tm": 527.15, 
	 "num_atms": 19, 
	 "gaussian": { 
		 "optdone": 1, 
		 "sigma_profile": "yes", 
		 "theory": "DFT", 
		 "functional": "B3LYP", 
		 "basiset": "6-31G**", 
		 "properties": { 
			 "R2extent": 3899.1804, 
			 "electric_dipole_moment_norm": 4.19540957953, 
			 "electric_quadrupole_moment_norm": 12.0782669986, 
			 "total_energy": -1288.80782887, 
			 "HOMO_LUMO_gap": 0.19809, 
			 "cosmo_polarized_energy": -10.12, 
			 "cosmo_cavitation_energy": 27.92, 
			 "cosmo_dispersion_energy": -20.11, 
			 "cosmo_repulsion_energy": 1.54, 
			 "cosmo_total_nonelectrostatic_energy": 9.35, 
			 "SMD_solvation_energy": 4.56 
		},
		"coords": [
			{
				"x": -2.2626917104,
				"y": 0.4260930175,
				"z": 3.3100602644,
				"element": "C" 
			},
			{
				"x": -1.0351828347,
				"y": 0.6056827437,
				"z": 2.5770041164,
				"element": "O" 
			},
			{
				"x": -0.9766518825,
				"y": -0.0363492564,
				"z": 1.391885832,
				"element": "C" 
			},
			{
				"x": -1.8630654287,
				"y": -0.7317872496,
				"z": 0.9513204423,
				"element": "O" 
			},
			{
				"x": 0.310820521,
				"y": 0.2651917256,
				"z": 0.6899730424,
				"element": "C" 
			},
			{
				"x": 0.989028397,
				"y": 1.4654026405,
				"z": 0.9462968202,
				"element": "C" 
			},
			{
				"x": 2.0985415491,
				"y": 1.8348436543,
				"z": 0.3033943458,
				"element": "N" 
			},
			{
				"x": 2.5322601067,
				"y": 0.9747371633,
				"z": -0.6112233412,
				"element": "C" 
			},
			{
				"x": 3.959188972,
				"y": 1.4411292367,
				"z": -1.4946462529,
				"element": "Cl" 
			},
			{
				"x": 2.0107045953,
				"y": -0.2051082548,
				"z": -0.9266390391,
				"element": "N" 
			},
			{
				"x": 0.9040921427,
				"y": -0.5645396661,
				"z": -0.2780246763,
				"element": "C" 
			},
			{
				"x": 0.3681638194,
				"y": -1.9518735019,
				"z": -0.6535950631,
				"element": "C" 
			},
			{
				"x": 1.2820632106,
				"y": -2.643729472,
				"z": -1.3437365341,
				"element": "F" 
			},
			{
				"x": 0.0714791619,
				"y": -2.6581053288,
				"z": 0.4540253019,
				"element": "F" 
			},
			{
				"x": -0.7341844132,
				"y": -1.8482504952,
				"z": -1.4110255685,
				"element": "F" 
			},
			{
				"x": -2.1407795724,
				"y": 1.0015416561,
				"z": 4.2267912713,
				"element": "H" 
			},
			{
				"x": -2.4184017259,
				"y": -0.6313847488,
				"z": 3.5342351732,
				"element": "H" 
			},
			{
				"x": -3.111181848,
				"y": 0.7957869824,
				"z": 2.7296786795,
				"element": "H" 
			},
			{
				"x": 0.6102969403,
				"y": 2.1520191536,
				"z": 1.6971251859,
				"element": "H" 
			}
		],
		 "valence_orbital": [ 
			{
				"type": "occ",
				"energy": -0.33492,
				"method": "rhf"
			},
			{
				"type": "occ",
				"energy": -0.32723,
				"method": "rhf"
			},
			{
				"type": "occ",
				"energy": -0.30549,
				"method": "rhf"
			},
			{
				"type": "occ",
				"energy": -0.29615,
				"method": "rhf"
			},
			{
				"type": "occ",
				"energy": -0.28984,
				"method": "rhf"
			},
			{
				"type": "unocc",
				"energy": -0.09175,
				"method": "rhf"
			},
			{
				"type": "unocc",
				"energy": -0.07966,
				"method": "rhf"
			},
			{
				"type": "unocc",
				"energy": 0.0069,
				"method": "rhf"
			},
			{
				"type": "unocc",
				"energy": 0.02261,
				"method": "rhf"
			},
			{
				"type": "unocc",
				"energy": 0.08694,
				"method": "rhf"
			}
		],
		"cosmo_sigma_profile": { 
			"-0.025": 0.0,
			"-0.024": 0.0,
			"-0.023": 0.0,
			"-0.022": 0.0,
			"-0.021": 0.0,
			"-0.02": 0.0,
			"-0.019": 0.0,
			"-0.018": 0.0,
			"-0.017": 0.0,
			"-0.016": 0.0,
			"-0.015": 0.0,
			"-0.014": 0.0,
			"-0.013": 0.0,
			"-0.012": 0.0,
			"-0.011": 0.0,
			"-0.01": 0.480578173358,
			"-0.009": 1.35644988827,
			"-0.008": 3.35683793614,
			"-0.007": 9.09555668921,
			"-0.006": 13.428866468,
			"-0.005": 17.3796231718,
			"-0.004": 19.8880017109,
			"-0.003": 14.3743532621,
			"-0.002": 11.8082941005,
			"-0.001": 12.2321250502,
			"0.0": 12.5880748169,
			"0.001": 18.3233407785,
			"0.002": 32.7092871135,
			"0.003": 17.2661807953,
			"0.004": 9.00993576771,
			"0.005": 6.72187495445,
			"0.006": 5.97147730779,
			"0.007": 4.2176612922,
			"0.008": 4.2065201498,
			"0.009": 4.7637210054,
			"0.01": 5.36966005263,
			"0.011": 2.56099734841,
			"0.012": 0.509399723417,
			"0.013": 0.0150295296146,
			"0.014": 0.0,
			"0.015": 0.0,
			"0.016": 0.0,
			"0.017": 0.0,
			"0.018": 0.0,
			"0.019": 0.0,
			"0.02": 0.0,
			"0.021": 0.0,
			"0.022": 0.0,
			"0.023": 0.0,
			"0.024": 0.0,
			"0.025": 0.0
		}
	}
}
