{
	 "smiles": "N#CC1=CC(OC2CCC2)=NC=C1", 
	 "Tm": 313.15, 
	 "num_atms": 23, 
	 "gaussian": { 
		 "optdone": 1, 
		 "sigma_profile": "yes", 
		 "theory": "DFT", 
		 "functional": "B3LYP", 
		 "basiset": "6-31G**", 
		 "properties": { 
			 "R2extent": 3317.3097, 
			 "electric_dipole_moment_norm": 3.94869603287, 
			 "electric_quadrupole_moment_norm": 20.0459084144, 
			 "total_energy": -571.768376005, 
			 "HOMO_LUMO_gap": 0.18142, 
			 "cosmo_polarized_energy": -8.49, 
			 "cosmo_cavitation_energy": 27.92, 
			 "cosmo_dispersion_energy": -19.9, 
			 "cosmo_repulsion_energy": 1.61, 
			 "cosmo_total_nonelectrostatic_energy": 9.63, 
			 "SMD_solvation_energy": 5.33 
		},
		"coords": [
			{
				"x": 2.0026138605,
				"y": -1.802227304,
				"z": -4.76995786,
				"element": "N" 
			},
			{
				"x": 1.9030202854,
				"y": -1.4852218273,
				"z": -3.6559218435,
				"element": "C" 
			},
			{
				"x": 1.7850192281,
				"y": -1.100656531,
				"z": -2.2770186564,
				"element": "C" 
			},
			{
				"x": 0.9936193788,
				"y": -0.0124898414,
				"z": -1.9197584322,
				"element": "C" 
			},
			{
				"x": 0.9169371942,
				"y": 0.3164454057,
				"z": -0.5527898263,
				"element": "C" 
			},
			{
				"x": 0.1523800995,
				"y": 1.3782848469,
				"z": -0.2359503323,
				"element": "O" 
			},
			{
				"x": 0.0564260709,
				"y": 1.7504281276,
				"z": 1.1544053116,
				"element": "C" 
			},
			{
				"x": -0.9801294632,
				"y": 0.906753206,
				"z": 1.9385691134,
				"element": "C" 
			},
			{
				"x": -2.0327437289,
				"y": 2.0292558456,
				"z": 1.7131428427,
				"element": "C" 
			},
			{
				"x": -0.8816999351,
				"y": 2.9722012994,
				"z": 1.2617450613,
				"element": "C" 
			},
			{
				"x": 1.554586484,
				"y": -0.3547039343,
				"z": 0.4036196422,
				"element": "N" 
			},
			{
				"x": 2.3136224704,
				"y": -1.3994121066,
				"z": 0.0347926498,
				"element": "C" 
			},
			{
				"x": 2.4692791923,
				"y": -1.8214381365,
				"z": -1.2772826488,
				"element": "C" 
			},
			{
				"x": 0.4520909657,
				"y": 0.5713041336,
				"z": -2.653706907,
				"element": "H" 
			},
			{
				"x": 1.0628872695,
				"y": 1.8235640669,
				"z": 1.5716849269,
				"element": "H" 
			},
			{
				"x": -1.1963270366,
				"y": -0.0839322896,
				"z": 1.5328851998,
				"element": "H" 
			},
			{
				"x": -0.6903357509,
				"y": 0.7972651805,
				"z": 2.9877268471,
				"element": "H" 
			},
			{
				"x": -2.6152466657,
				"y": 2.3424453331,
				"z": 2.5833391452,
				"element": "H" 
			},
			{
				"x": -2.7230204219,
				"y": 1.7968600266,
				"z": 0.8980074121,
				"element": "H" 
			},
			{
				"x": -0.5579181204,
				"y": 3.6575907776,
				"z": 2.0502805317,
				"element": "H" 
			},
			{
				"x": -1.0205183893,
				"y": 3.5371240009,
				"z": 0.3366689506,
				"element": "H" 
			},
			{
				"x": 2.8207667685,
				"y": -1.9239041991,
				"z": 0.8417025333,
				"element": "H" 
			},
			{
				"x": 3.090890244,
				"y": -2.6723360806,
				"z": -1.5277836612,
				"element": "H" 
			}
		],
		 "valence_orbital": [ 
			{
				"type": "occ",
				"energy": -0.31294,
				"method": "rhf"
			},
			{
				"type": "occ",
				"energy": -0.31019,
				"method": "rhf"
			},
			{
				"type": "occ",
				"energy": -0.29371,
				"method": "rhf"
			},
			{
				"type": "occ",
				"energy": -0.28269,
				"method": "rhf"
			},
			{
				"type": "occ",
				"energy": -0.24869,
				"method": "rhf"
			},
			{
				"type": "unocc",
				"energy": -0.06727,
				"method": "rhf"
			},
			{
				"type": "unocc",
				"energy": -0.02084,
				"method": "rhf"
			},
			{
				"type": "unocc",
				"energy": 0.02854,
				"method": "rhf"
			},
			{
				"type": "unocc",
				"energy": 0.07254,
				"method": "rhf"
			},
			{
				"type": "unocc",
				"energy": 0.08097,
				"method": "rhf"
			}
		],
		"cosmo_sigma_profile": { 
			"-0.025": 0.0,
			"-0.024": 0.0,
			"-0.023": 0.0,
			"-0.022": 0.0,
			"-0.021": 0.0,
			"-0.02": 0.0,
			"-0.019": 0.0,
			"-0.018": 0.0,
			"-0.017": 0.0,
			"-0.016": 0.0,
			"-0.015": 0.0,
			"-0.014": 0.0,
			"-0.013": 0.0,
			"-0.012": 0.0,
			"-0.011": 0.0,
			"-0.01": 0.0,
			"-0.009": 1.61608192969,
			"-0.008": 4.66998489537,
			"-0.007": 7.0812861927,
			"-0.006": 6.39805774183,
			"-0.005": 4.98082976436,
			"-0.004": 16.0968004812,
			"-0.003": 22.8672471809,
			"-0.002": 23.5592124103,
			"-0.001": 28.4922455324,
			"0.0": 28.0563107094,
			"0.001": 20.7369472799,
			"0.002": 10.706373011,
			"0.003": 5.88782729544,
			"0.004": 5.61577086451,
			"0.005": 5.99602019122,
			"0.006": 4.38816251316,
			"0.007": 6.35685419036,
			"0.008": 5.88931371732,
			"0.009": 4.02284019437,
			"0.01": 3.79311712331,
			"0.011": 3.03240575402,
			"0.012": 2.68152217001,
			"0.013": 0.3237483102,
			"0.014": 0.0,
			"0.015": 0.0,
			"0.016": 0.0,
			"0.017": 0.0,
			"0.018": 0.0,
			"0.019": 0.0,
			"0.02": 0.0,
			"0.021": 0.0,
			"0.022": 0.0,
			"0.023": 0.0,
			"0.024": 0.0,
			"0.025": 0.0
		}
	}
}
