{
	 "smiles": "CC1=NN(C(=O)OC(C)(C)C)C(C)=C1I", 
	 "Tm": 330.15, 
	 "num_atms": 30, 
	 "gaussian": { 
		 "optdone": 1, 
		 "sigma_profile": "no", 
		 "theory": "DFT", 
		 "functional": "B3LYP", 
		 "basiset": "6-31G**", 
		 "properties": { 
			 "R2extent": 4637.4108, 
			 "electric_dipole_moment_norm": 3.66650063957, 
			 "electric_quadrupole_moment_norm": 8.6283801394, 
			 "total_energy": -661.457611829, 
			 "HOMO_LUMO_gap": 0.20179, 
			 "cosmo_polarized_energy": -93198.96, 
			 "cosmo_cavitation_energy": 35.76, 
			 "cosmo_dispersion_energy": -25.97, 
			 "cosmo_repulsion_energy": 2.0, 
			 "cosmo_total_nonelectrostatic_energy": 11.79, 
			 "SMD_solvation_energy": 5.78 
		},
		"coords": [
			{
				"x": 3.2099462101,
				"y": -4.5267699173,
				"z": -0.1432549547,
				"element": "C" 
			},
			{
				"x": 2.5770663683,
				"y": -3.2080263195,
				"z": 0.1620529542,
				"element": "C" 
			},
			{
				"x": 1.9542073098,
				"y": -2.520665206,
				"z": -0.7744751392,
				"element": "N" 
			},
			{
				"x": 1.5001487443,
				"y": -1.3806042897,
				"z": -0.162101401,
				"element": "N" 
			},
			{
				"x": 0.7849781277,
				"y": -0.4673765606,
				"z": -0.9868679947,
				"element": "C" 
			},
			{
				"x": 0.5860703705,
				"y": -0.6737590546,
				"z": -2.1577334645,
				"element": "O" 
			},
			{
				"x": 0.4001246488,
				"y": 0.5929652183,
				"z": -0.2658452578,
				"element": "O" 
			},
			{
				"x": -0.3679264005,
				"y": 1.693378727,
				"z": -0.9011439678,
				"element": "C" 
			},
			{
				"x": 0.4754940203,
				"y": 2.3418473467,
				"z": -2.0021973334,
				"element": "C" 
			},
			{
				"x": -1.7037091675,
				"y": 1.1561092538,
				"z": -1.4218279868,
				"element": "C" 
			},
			{
				"x": -0.5841594415,
				"y": 2.6610273444,
				"z": 0.2637815978,
				"element": "C" 
			},
			{
				"x": 1.8357893531,
				"y": -1.3346733449,
				"z": 1.1861374422,
				"element": "C" 
			},
			{
				"x": 1.4983591,
				"y": -0.2390501899,
				"z": 2.1426819007,
				"element": "C" 
			},
			{
				"x": 2.5289416534,
				"y": -2.5057095924,
				"z": 1.4052130979,
				"element": "C" 
			},
			{
				"x": 3.3619384174,
				"y": -3.1516752825,
				"z": 3.2101607978,
				"element": "I" 
			},
			{
				"x": 2.7759950106,
				"y": -5.3242914918,
				"z": 0.4693938782,
				"element": "H" 
			},
			{
				"x": 3.0583405833,
				"y": -4.7681368103,
				"z": -1.1967800076,
				"element": "H" 
			},
			{
				"x": 4.2851230662,
				"y": -4.5064155817,
				"z": 0.0647967648,
				"element": "H" 
			},
			{
				"x": 1.4415205746,
				"y": 2.6656615228,
				"z": -1.6025608568,
				"element": "H" 
			},
			{
				"x": 0.6462656739,
				"y": 1.6520533565,
				"z": -2.8288201177,
				"element": "H" 
			},
			{
				"x": -0.0464049598,
				"y": 3.2251270579,
				"z": -2.3837030538,
				"element": "H" 
			},
			{
				"x": -2.2532661767,
				"y": 0.6555901083,
				"z": -0.6185648456,
				"element": "H" 
			},
			{
				"x": -2.313722378,
				"y": 1.9913416342,
				"z": -1.7801301488,
				"element": "H" 
			},
			{
				"x": -1.5556178224,
				"y": 0.4537321934,
				"z": -2.2421799834,
				"element": "H" 
			},
			{
				"x": -1.146812354,
				"y": 2.1814304554,
				"z": 1.0698584319,
				"element": "H" 
			},
			{
				"x": -1.1495448761,
				"y": 3.5322563772,
				"z": -0.0791791512,
				"element": "H" 
			},
			{
				"x": 0.372296513,
				"y": 3.0079336054,
				"z": 0.6652759269,
				"element": "H" 
			},
			{
				"x": 1.8995541611,
				"y": -0.4925604573,
				"z": 3.1254919529,
				"element": "H" 
			},
			{
				"x": 0.417724899,
				"y": -0.099328966,
				"z": 2.2295589698,
				"element": "H" 
			},
			{
				"x": 1.9231787711,
				"y": 0.7168888631,
				"z": 1.8255619495,
				"element": "H" 
			}
		],
		 "valence_orbital": [ 
			{
				"type": "occ",
				"energy": -0.29919,
				"method": "rhf"
			},
			{
				"type": "occ",
				"energy": -0.28104,
				"method": "rhf"
			},
			{
				"type": "occ",
				"energy": -0.26973,
				"method": "rhf"
			},
			{
				"type": "occ",
				"energy": -0.25743,
				"method": "rhf"
			},
			{
				"type": "occ",
				"energy": -0.23424,
				"method": "rhf"
			},
			{
				"type": "unocc",
				"energy": -0.03245,
				"method": "rhf"
			},
			{
				"type": "unocc",
				"energy": -0.02733,
				"method": "rhf"
			},
			{
				"type": "unocc",
				"energy": 0.03954,
				"method": "rhf"
			},
			{
				"type": "unocc",
				"energy": 0.04641,
				"method": "rhf"
			},
			{
				"type": "unocc",
				"energy": 0.05186,
				"method": "rhf"
			}
		],
		"cosmo_sigma_profile": { 
			"0.0": 0.0,
			"0.0": 0.0,
			"0.0": 0.0,
			"0.0": 0.0,
			"0.0": 0.0,
			"0.0": 0.0,
			"0.0": 0.0,
			"0.0": 0.0,
			"0.0": 0.0,
			"0.0": 0.0,
			"0.0": 0.0,
			"0.0": 0.0,
			"0.0": 0.0,
			"0.0": 0.0,
			"0.0": 0.0,
			"0.0": 0.0,
			"0.0": 0.0,
			"0.0": 0.0,
			"0.0": 0.0,
			"0.0": 0.0,
			"0.0": 0.0,
			"0.0": 0.0,
			"0.0": 0.0,
			"0.0": 0.0,
			"0.0": 0.0,
			"0.0": 0.0,
			"0.0": 0.0,
			"0.0": 0.0,
			"0.0": 0.0,
			"0.0": 0.0,
			"0.0": 0.0,
			"0.0": 0.0,
			"0.0": 0.0,
			"0.0": 0.0,
			"0.0": 0.0,
			"0.0": 0.0,
			"0.0": 0.0,
			"0.0": 0.0,
			"0.0": 0.0,
			"0.0": 0.0,
			"0.0": 0.0,
			"0.0": 0.0,
			"0.0": 0.0,
			"0.0": 0.0,
			"0.0": 0.0,
			"0.0": 0.0,
			"0.0": 0.0,
			"0.0": 0.0,
			"0.0": 0.0,
			"0.0": 0.0,
			"0.0": 0.0
		}
	}
}
