{
	 "smiles": "CC(=O)C1=CC=CC(Cl)=C1O", 
	 "Tm": 354.65, 
	 "num_atms": 18, 
	 "gaussian": { 
		 "optdone": 1, 
		 "sigma_profile": "yes", 
		 "theory": "DFT", 
		 "functional": "B3LYP", 
		 "basiset": "6-31G**", 
		 "properties": { 
			 "R2extent": 3208.6922, 
			 "electric_dipole_moment_norm": 4.43024783618, 
			 "electric_quadrupole_moment_norm": 8.5342134951, 
			 "total_energy": -919.721552759, 
			 "HOMO_LUMO_gap": 0.15959, 
			 "cosmo_polarized_energy": -9.13, 
			 "cosmo_cavitation_energy": 23.59, 
			 "cosmo_dispersion_energy": -17.92, 
			 "cosmo_repulsion_energy": 1.42, 
			 "cosmo_total_nonelectrostatic_energy": 7.09, 
			 "SMD_solvation_energy": 4.72 
		},
		"coords": [
			{
				"x": -0.918934182,
				"y": -0.9552852211,
				"z": 1.7405751457,
				"element": "C" 
			},
			{
				"x": -0.9057764306,
				"y": -1.0085138993,
				"z": 0.2272000053,
				"element": "C" 
			},
			{
				"x": -1.9873079967,
				"y": -1.0822847345,
				"z": -0.3774528014,
				"element": "O" 
			},
			{
				"x": 0.3717835536,
				"y": -0.9726382699,
				"z": -0.5054736968,
				"element": "C" 
			},
			{
				"x": 1.612203317,
				"y": -0.8888857047,
				"z": 0.1588675652,
				"element": "C" 
			},
			{
				"x": 2.8024749369,
				"y": -0.856197454,
				"z": -0.5481182405,
				"element": "C" 
			},
			{
				"x": 2.7763967207,
				"y": -0.9071588721,
				"z": -1.9492749912,
				"element": "C" 
			},
			{
				"x": 1.570133986,
				"y": -0.9898089435,
				"z": -2.6281826915,
				"element": "C" 
			},
			{
				"x": 1.5499181764,
				"y": -1.0527532231,
				"z": -4.3749857749,
				"element": "Cl" 
			},
			{
				"x": 0.3428420636,
				"y": -1.0246216647,
				"z": -1.9300704927,
				"element": "C" 
			},
			{
				"x": -0.7925957926,
				"y": -1.1042163953,
				"z": -2.6187421821,
				"element": "O" 
			},
			{
				"x": -1.9545898064,
				"y": -0.9935319465,
				"z": 2.0786381491,
				"element": "H" 
			},
			{
				"x": -0.3656726918,
				"y": -1.797969446,
				"z": 2.1681015571,
				"element": "H" 
			},
			{
				"x": -0.4513047953,
				"y": -0.0347937811,
				"z": 2.1052892723,
				"element": "H" 
			},
			{
				"x": 1.6335385993,
				"y": -0.8494067276,
				"z": 1.2424568684,
				"element": "H" 
			},
			{
				"x": 3.7523185502,
				"y": -0.7916663478,
				"z": -0.0284193856,
				"element": "H" 
			},
			{
				"x": 3.6989606694,
				"y": -0.8826064966,
				"z": -2.5195907273,
				"element": "H" 
			},
			{
				"x": -1.5241888776,
				"y": -1.1156608722,
				"z": -1.9414175788,
				"element": "H" 
			}
		],
		 "valence_orbital": [ 
			{
				"type": "occ",
				"energy": -0.33585,
				"method": "rhf"
			},
			{
				"type": "occ",
				"energy": -0.31002,
				"method": "rhf"
			},
			{
				"type": "occ",
				"energy": -0.27407,
				"method": "rhf"
			},
			{
				"type": "occ",
				"energy": -0.26537,
				"method": "rhf"
			},
			{
				"type": "occ",
				"energy": -0.23287,
				"method": "rhf"
			},
			{
				"type": "unocc",
				"energy": -0.07328,
				"method": "rhf"
			},
			{
				"type": "unocc",
				"energy": -0.00858,
				"method": "rhf"
			},
			{
				"type": "unocc",
				"energy": 0.02258,
				"method": "rhf"
			},
			{
				"type": "unocc",
				"energy": 0.0307,
				"method": "rhf"
			},
			{
				"type": "unocc",
				"energy": 0.08563,
				"method": "rhf"
			}
		],
		"cosmo_sigma_profile": { 
			"-0.025": 0.0,
			"-0.024": 0.0,
			"-0.023": 0.0,
			"-0.022": 0.0,
			"-0.021": 0.0,
			"-0.02": 0.0,
			"-0.019": 0.0,
			"-0.018": 0.0,
			"-0.017": 0.0,
			"-0.016": 0.0,
			"-0.015": 0.0,
			"-0.014": 0.0,
			"-0.013": 0.0,
			"-0.012": 0.0,
			"-0.011": 0.0,
			"-0.01": 0.0,
			"-0.009": 0.0,
			"-0.008": 1.71424367513,
			"-0.007": 10.4357163283,
			"-0.006": 13.7630964357,
			"-0.005": 11.8003636683,
			"-0.004": 11.717801537,
			"-0.003": 13.554763522,
			"-0.002": 15.6637106841,
			"-0.001": 13.2101570565,
			"0.0": 13.2728786199,
			"0.001": 16.1424614222,
			"0.002": 15.2721762249,
			"0.003": 13.9547136633,
			"0.004": 11.0592110191,
			"0.005": 8.43209247817,
			"0.006": 3.37510587462,
			"0.007": 3.15513538113,
			"0.008": 3.39038433148,
			"0.009": 3.63801665116,
			"0.01": 3.50679965103,
			"0.011": 3.02269399327,
			"0.012": 1.06667382894,
			"0.013": 0.0460214297556,
			"0.014": 0.0,
			"0.015": 0.0,
			"0.016": 0.0,
			"0.017": 0.0,
			"0.018": 0.0,
			"0.019": 0.0,
			"0.02": 0.0,
			"0.021": 0.0,
			"0.022": 0.0,
			"0.023": 0.0,
			"0.024": 0.0,
			"0.025": 0.0
		}
	}
}
