{
	 "smiles": "CN(C1CCCCC1)C(=O)C1=C(N)C=CC=C1", 
	 "Tm": 415.15, 
	 "num_atms": 37, 
	 "gaussian": { 
		 "optdone": 1, 
		 "sigma_profile": "yes", 
		 "theory": "DFT", 
		 "functional": "B3LYP", 
		 "basiset": "6-31G**", 
		 "properties": { 
			 "R2extent": 4763.5723, 
			 "electric_dipole_moment_norm": 1.45128557148, 
			 "electric_quadrupole_moment_norm": 10.3409240027, 
			 "total_energy": -730.290230471, 
			 "HOMO_LUMO_gap": 0.17238, 
			 "cosmo_polarized_energy": -9.77, 
			 "cosmo_cavitation_energy": 35.84, 
			 "cosmo_dispersion_energy": -25.92, 
			 "cosmo_repulsion_energy": 1.99, 
			 "cosmo_total_nonelectrostatic_energy": 11.91, 
			 "SMD_solvation_energy": 5.79 
		},
		"coords": [
			{
				"x": 1.9986023001,
				"y": -0.0677964195,
				"z": 0.3157266672,
				"element": "C" 
			},
			{
				"x": 0.615494731,
				"y": 0.4022268904,
				"z": 0.1920805071,
				"element": "N" 
			},
			{
				"x": 0.0029944346,
				"y": 1.154674244,
				"z": 1.3319436338,
				"element": "C" 
			},
			{
				"x": -1.487481125,
				"y": 0.7931481176,
				"z": 1.4894308317,
				"element": "C" 
			},
			{
				"x": -1.7108946006,
				"y": -0.7047230587,
				"z": 1.7980823696,
				"element": "C" 
			},
			{
				"x": -0.5414743024,
				"y": -1.3273324001,
				"z": 2.5932516836,
				"element": "C" 
			},
			{
				"x": 0.1310784077,
				"y": -0.2863348342,
				"z": 3.4983981034,
				"element": "C" 
			},
			{
				"x": 0.6944388931,
				"y": 0.9204072868,
				"z": 2.6984848821,
				"element": "C" 
			},
			{
				"x": 0.1193666341,
				"y": 0.7288693322,
				"z": -1.0609658357,
				"element": "C" 
			},
			{
				"x": -0.6627276717,
				"y": 1.6790373911,
				"z": -1.2067916337,
				"element": "O" 
			},
			{
				"x": 0.4855839104,
				"y": -0.13623204,
				"z": -2.2285952676,
				"element": "C" 
			},
			{
				"x": 0.5839729167,
				"y": 0.4333329972,
				"z": -3.5289996556,
				"element": "C" 
			},
			{
				"x": 0.4435473027,
				"y": 1.7919774925,
				"z": -3.7308110226,
				"element": "N" 
			},
			{
				"x": 0.887124501,
				"y": -0.4192588618,
				"z": -4.6107817206,
				"element": "C" 
			},
			{
				"x": 1.0367446051,
				"y": -1.7875389358,
				"z": -4.4309534609,
				"element": "C" 
			},
			{
				"x": 0.8881709931,
				"y": -2.3592053624,
				"z": -3.1624149355,
				"element": "C" 
			},
			{
				"x": 0.6175090949,
				"y": -1.5269709595,
				"z": -2.0819428704,
				"element": "C" 
			},
			{
				"x": 2.3472848843,
				"y": -0.4316467932,
				"z": -0.6473161853,
				"element": "H" 
			},
			{
				"x": 2.0872970599,
				"y": -0.8805123263,
				"z": 1.0425507889,
				"element": "H" 
			},
			{
				"x": 2.6666043271,
				"y": 0.7467276047,
				"z": 0.6249025235,
				"element": "H" 
			},
			{
				"x": 0.0763816365,
				"y": 2.2195334962,
				"z": 1.0805665956,
				"element": "H" 
			},
			{
				"x": -1.8648380519,
				"y": 1.4030939516,
				"z": 2.3204416237,
				"element": "H" 
			},
			{
				"x": -2.0465910771,
				"y": 1.0964792791,
				"z": 0.6039828481,
				"element": "H" 
			},
			{
				"x": -2.6441399612,
				"y": -0.8093104905,
				"z": 2.3646127957,
				"element": "H" 
			},
			{
				"x": -1.855857525,
				"y": -1.2626954205,
				"z": 0.8669188536,
				"element": "H" 
			},
			{
				"x": 0.2015050759,
				"y": -1.7344780651,
				"z": 1.8975201551,
				"element": "H" 
			},
			{
				"x": -0.8948318861,
				"y": -2.1759239394,
				"z": 3.1902305033,
				"element": "H" 
			},
			{
				"x": 0.931077761,
				"y": -0.7495217139,
				"z": 4.0868746605,
				"element": "H" 
			},
			{
				"x": -0.6088560256,
				"y": 0.0718839553,
				"z": 4.2254168292,
				"element": "H" 
			},
			{
				"x": 1.777207929,
				"y": 0.8347923513,
				"z": 2.5864375032,
				"element": "H" 
			},
			{
				"x": 0.5378320151,
				"y": 1.8350873308,
				"z": 3.2805941103,
				"element": "H" 
			},
			{
				"x": -0.1321316665,
				"y": 2.2523064868,
				"z": -3.0347064339,
				"element": "H" 
			},
			{
				"x": 0.2756716906,
				"y": 2.0766539084,
				"z": -4.6844271592,
				"element": "H" 
			},
			{
				"x": 0.9872173833,
				"y": 0.0137837882,
				"z": -5.6032613589,
				"element": "H" 
			},
			{
				"x": 1.2559261274,
				"y": -2.4160636872,
				"z": -5.2899484256,
				"element": "H" 
			},
			{
				"x": 0.977242722,
				"y": -3.4315756116,
				"z": -3.0224896339,
				"element": "H" 
			},
			{
				"x": 0.4851465567,
				"y": -1.9552949843,
				"z": -1.0928428702,
				"element": "H" 
			}
		],
		 "valence_orbital": [ 
			{
				"type": "occ",
				"energy": -0.29685,
				"method": "rhf"
			},
			{
				"type": "occ",
				"energy": -0.25451,
				"method": "rhf"
			},
			{
				"type": "occ",
				"energy": -0.24102,
				"method": "rhf"
			},
			{
				"type": "occ",
				"energy": -0.23311,
				"method": "rhf"
			},
			{
				"type": "occ",
				"energy": -0.19815,
				"method": "rhf"
			},
			{
				"type": "unocc",
				"energy": -0.02577,
				"method": "rhf"
			},
			{
				"type": "unocc",
				"energy": 0.01485,
				"method": "rhf"
			},
			{
				"type": "unocc",
				"energy": 0.05032,
				"method": "rhf"
			},
			{
				"type": "unocc",
				"energy": 0.07163,
				"method": "rhf"
			},
			{
				"type": "unocc",
				"energy": 0.08869,
				"method": "rhf"
			}
		],
		"cosmo_sigma_profile": { 
			"-0.025": 0.0,
			"-0.024": 0.0,
			"-0.023": 0.0,
			"-0.022": 0.0,
			"-0.021": 0.0,
			"-0.02": 0.0,
			"-0.019": 0.0,
			"-0.018": 0.0,
			"-0.017": 0.0,
			"-0.016": 0.0,
			"-0.015": 0.0,
			"-0.014": 0.0,
			"-0.013": 0.257495598949,
			"-0.012": 1.32912484782,
			"-0.011": 1.28874026605,
			"-0.01": 1.2758976868,
			"-0.009": 1.72758001168,
			"-0.008": 1.97911922519,
			"-0.007": 2.37754055032,
			"-0.006": 3.88743805532,
			"-0.005": 9.14693886327,
			"-0.004": 16.443716456,
			"-0.003": 28.5049250317,
			"-0.002": 42.0716051387,
			"-0.001": 34.3132381093,
			"0.0": 33.3184002623,
			"0.001": 27.7071842089,
			"0.002": 14.6290838484,
			"0.003": 10.2334150233,
			"0.004": 9.07339809342,
			"0.005": 11.7318440214,
			"0.006": 9.53114998901,
			"0.007": 4.16413402225,
			"0.008": 2.62202593738,
			"0.009": 1.6935977584,
			"0.01": 2.2971791236,
			"0.011": 2.89153615347,
			"0.012": 2.35471793538,
			"0.013": 2.73516310951,
			"0.014": 0.377584608289,
			"0.015": 0.0,
			"0.016": 0.0,
			"0.017": 0.0,
			"0.018": 0.0,
			"0.019": 0.0,
			"0.02": 0.0,
			"0.021": 0.0,
			"0.022": 0.0,
			"0.023": 0.0,
			"0.024": 0.0,
			"0.025": 0.0
		}
	}
}
