{
	 "smiles": "CC1=NC(NC(=O)NS(=O)(=O)C2=CC=CS2)=NC(C)=C1C", 
	 "Tm": 461.15, 
	 "num_atms": 35, 
	 "gaussian": { 
		 "optdone": 1, 
		 "sigma_profile": "yes", 
		 "theory": "DFT", 
		 "functional": "B3LYP", 
		 "basiset": "6-31G**", 
		 "properties": { 
			 "R2extent": 9848.0752, 
			 "electric_dipole_moment_norm": 7.5177608701, 
			 "electric_quadrupole_moment_norm": 38.5730779607, 
			 "total_energy": -1706.73333335, 
			 "HOMO_LUMO_gap": 0.19664, 
			 "cosmo_polarized_energy": -20.69, 
			 "cosmo_cavitation_energy": 42.25, 
			 "cosmo_dispersion_energy": -30.93, 
			 "cosmo_repulsion_energy": 2.28, 
			 "cosmo_total_nonelectrostatic_energy": 13.6, 
			 "SMD_solvation_energy": 5.39 
		},
		"coords": [
			{
				"x": 1.4367076337,
				"y": 1.9074393723,
				"z": 2.2212262989,
				"element": "C" 
			},
			{
				"x": 0.8947817101,
				"y": 2.2753272742,
				"z": 0.8629294379,
				"element": "C" 
			},
			{
				"x": 0.0201566166,
				"y": 1.4028012306,
				"z": 0.3289202608,
				"element": "N" 
			},
			{
				"x": -0.4869867452,
				"y": 1.6973482089,
				"z": -0.8716804844,
				"element": "C" 
			},
			{
				"x": -1.3972185993,
				"y": 0.8275913248,
				"z": -1.4573330747,
				"element": "N" 
			},
			{
				"x": -1.9756579972,
				"y": -0.3663369889,
				"z": -1.011113115,
				"element": "C" 
			},
			{
				"x": -2.7965600496,
				"y": -0.9484764671,
				"z": -1.699649691,
				"element": "O" 
			},
			{
				"x": -1.517480373,
				"y": -0.8102054681,
				"z": 0.2121840717,
				"element": "N" 
			},
			{
				"x": -2.2336355208,
				"y": -2.0767337971,
				"z": 1.0879867737,
				"element": "S" 
			},
			{
				"x": -1.4366984886,
				"y": -2.1000755461,
				"z": 2.3155023817,
				"element": "O" 
			},
			{
				"x": -3.6791453207,
				"y": -1.9006023663,
				"z": 1.1119355718,
				"element": "O" 
			},
			{
				"x": -1.8492280246,
				"y": -3.5414339455,
				"z": 0.1773883591,
				"element": "C" 
			},
			{
				"x": -0.9286700282,
				"y": -4.4711243215,
				"z": 0.598451118,
				"element": "C" 
			},
			{
				"x": -0.8851076942,
				"y": -5.6055963236,
				"z": -0.256952423,
				"element": "C" 
			},
			{
				"x": -1.7790387707,
				"y": -5.511705982,
				"z": -1.2931965348,
				"element": "C" 
			},
			{
				"x": -2.6873817731,
				"y": -4.0425538157,
				"z": -1.2629681446,
				"element": "S" 
			},
			{
				"x": -0.2028152456,
				"y": 2.7797427347,
				"z": -1.6065126178,
				"element": "N" 
			},
			{
				"x": 0.6690245347,
				"y": 3.6464761247,
				"z": -1.0797454237,
				"element": "C" 
			},
			{
				"x": 0.9839185308,
				"y": 4.8611604269,
				"z": -1.9116651476,
				"element": "C" 
			},
			{
				"x": 1.2649719113,
				"y": 3.4451011096,
				"z": 0.1837734147,
				"element": "C" 
			},
			{
				"x": 2.2414714616,
				"y": 4.4477707232,
				"z": 0.7462689431,
				"element": "C" 
			},
			{
				"x": 2.5269359509,
				"y": 1.8033428732,
				"z": 2.200530558,
				"element": "H" 
			},
			{
				"x": 1.1974785698,
				"y": 2.6743270091,
				"z": 2.9657246643,
				"element": "H" 
			},
			{
				"x": 1.0027879278,
				"y": 0.9614305977,
				"z": 2.5471763234,
				"element": "H" 
			},
			{
				"x": -1.7376913194,
				"y": 1.1194614896,
				"z": -2.364045424,
				"element": "H" 
			},
			{
				"x": -0.8356411696,
				"y": -0.2252122885,
				"z": 0.7144495628,
				"element": "H" 
			},
			{
				"x": -0.3308529125,
				"y": -4.335384095,
				"z": 1.4908287257,
				"element": "H" 
			},
			{
				"x": -0.2245831177,
				"y": -6.451506468,
				"z": -0.1073192842,
				"element": "H" 
			},
			{
				"x": -1.9480465437,
				"y": -6.2233752339,
				"z": -2.0906710297,
				"element": "H" 
			},
			{
				"x": 0.4229858893,
				"y": 4.821319981,
				"z": -2.8456312256,
				"element": "H" 
			},
			{
				"x": 2.0545190334,
				"y": 4.9176040813,
				"z": -2.1399358546,
				"element": "H" 
			},
			{
				"x": 0.7241775635,
				"y": 5.7830918604,
				"z": -1.3786671863,
				"element": "H" 
			},
			{
				"x": 3.11071662,
				"y": 4.5724670301,
				"z": 0.089570217,
				"element": "H" 
			},
			{
				"x": 1.7818727166,
				"y": 5.4375096518,
				"z": 0.8534690382,
				"element": "H" 
			},
			{
				"x": 2.6129330235,
				"y": 4.151810003,
				"z": 1.7278709401,
				"element": "H" 
			}
		],
		 "valence_orbital": [ 
			{
				"type": "occ",
				"energy": -0.28062,
				"method": "rhf"
			},
			{
				"type": "occ",
				"energy": -0.26875,
				"method": "rhf"
			},
			{
				"type": "occ",
				"energy": -0.25888,
				"method": "rhf"
			},
			{
				"type": "occ",
				"energy": -0.24856,
				"method": "rhf"
			},
			{
				"type": "occ",
				"energy": -0.24386,
				"method": "rhf"
			},
			{
				"type": "unocc",
				"energy": -0.04722,
				"method": "rhf"
			},
			{
				"type": "unocc",
				"energy": -0.03875,
				"method": "rhf"
			},
			{
				"type": "unocc",
				"energy": -0.03177,
				"method": "rhf"
			},
			{
				"type": "unocc",
				"energy": 0.0278,
				"method": "rhf"
			},
			{
				"type": "unocc",
				"energy": 0.04023,
				"method": "rhf"
			}
		],
		"cosmo_sigma_profile": { 
			"-0.025": 0.0,
			"-0.024": 0.0,
			"-0.023": 0.0,
			"-0.022": 0.0,
			"-0.021": 0.0,
			"-0.02": 0.0,
			"-0.019": 0.0,
			"-0.018": 0.0,
			"-0.017": 0.0,
			"-0.016": 0.0,
			"-0.015": 0.442537782081,
			"-0.014": 0.708313883367,
			"-0.013": 0.538141995948,
			"-0.012": 0.741443508936,
			"-0.011": 1.11893795651,
			"-0.01": 1.89340361978,
			"-0.009": 2.92283038909,
			"-0.008": 4.44111630265,
			"-0.007": 6.42306595617,
			"-0.006": 9.73142692382,
			"-0.005": 24.2615724758,
			"-0.004": 27.91233201,
			"-0.003": 28.1758961634,
			"-0.002": 33.9253910489,
			"-0.001": 43.007791378,
			"0.0": 30.724361362,
			"0.001": 22.4405737425,
			"0.002": 18.7059325791,
			"0.003": 13.5149021895,
			"0.004": 7.43816432405,
			"0.005": 5.59494377791,
			"0.006": 6.56016327534,
			"0.007": 6.2028770997,
			"0.008": 6.08549448947,
			"0.009": 8.98321392107,
			"0.01": 14.3708163332,
			"0.011": 7.84741088264,
			"0.012": 3.97585043975,
			"0.013": 0.535474420247,
			"0.014": 0.0,
			"0.015": 0.0,
			"0.016": 0.0,
			"0.017": 0.0,
			"0.018": 0.0,
			"0.019": 0.0,
			"0.02": 0.0,
			"0.021": 0.0,
			"0.022": 0.0,
			"0.023": 0.0,
			"0.024": 0.0,
			"0.025": 0.0
		}
	}
}
