{
	 "smiles": "CC1=CC(COC2=CC(CC(O)=O)=CC=C2)=CC=C1", 
	 "Tm": 365.15, 
	 "num_atms": 35, 
	 "gaussian": { 
		 "optdone": 1, 
		 "sigma_profile": "yes", 
		 "theory": "DFT", 
		 "functional": "B3LYP", 
		 "basiset": "6-31G**", 
		 "properties": { 
			 "R2extent": 6573.5822, 
			 "electric_dipole_moment_norm": 3.6646879608, 
			 "electric_quadrupole_moment_norm": 20.9805755295, 
			 "total_energy": -845.025158749, 
			 "HOMO_LUMO_gap": 0.2105, 
			 "cosmo_polarized_energy": -18.85, 
			 "cosmo_cavitation_energy": 39.27, 
			 "cosmo_dispersion_energy": -26.75, 
			 "cosmo_repulsion_energy": 2.11, 
			 "cosmo_total_nonelectrostatic_energy": 14.63, 
			 "SMD_solvation_energy": 7.82 
		},
		"coords": [
			{
				"x": -3.115423033,
				"y": 2.3369350073,
				"z": -1.5978161606,
				"element": "C" 
			},
			{
				"x": -2.945454371,
				"y": 1.4273821257,
				"z": -0.4029710563,
				"element": "C" 
			},
			{
				"x": -2.1384197699,
				"y": 0.2864045419,
				"z": -0.482587938,
				"element": "C" 
			},
			{
				"x": -1.9425543773,
				"y": -0.5464610371,
				"z": 0.6239434909,
				"element": "C" 
			},
			{
				"x": -1.1141624124,
				"y": -1.8114793643,
				"z": 0.5011845512,
				"element": "C" 
			},
			{
				"x": -0.0372599183,
				"y": -1.7179192777,
				"z": -0.4320127563,
				"element": "O" 
			},
			{
				"x": 1.1248108597,
				"y": -1.1048140143,
				"z": -0.0470666583,
				"element": "C" 
			},
			{
				"x": 1.2880586735,
				"y": -0.397210885,
				"z": 1.1464182121,
				"element": "C" 
			},
			{
				"x": 2.5317696687,
				"y": 0.169479278,
				"z": 1.4593405568,
				"element": "C" 
			},
			{
				"x": 2.7064125062,
				"y": 0.9539499152,
				"z": 2.7399369129,
				"element": "C" 
			},
			{
				"x": 2.3748373555,
				"y": 0.1936234222,
				"z": 4.029153696,
				"element": "C" 
			},
			{
				"x": 2.845352242,
				"y": 0.7798409672,
				"z": 5.1650390858,
				"element": "O" 
			},
			{
				"x": 1.7184220583,
				"y": -0.8124119186,
				"z": 4.1029417835,
				"element": "O" 
			},
			{
				"x": 3.5991273703,
				"y": 0.0365245989,
				"z": 0.5688761965,
				"element": "C" 
			},
			{
				"x": 3.4233130636,
				"y": -0.657367896,
				"z": -0.6325341378,
				"element": "C" 
			},
			{
				"x": 2.1959187906,
				"y": -1.2277677308,
				"z": -0.9448581055,
				"element": "C" 
			},
			{
				"x": -2.5694990779,
				"y": -0.2337712977,
				"z": 1.8349232495,
				"element": "C" 
			},
			{
				"x": -3.3868404826,
				"y": 0.8936255098,
				"z": 1.9263745472,
				"element": "C" 
			},
			{
				"x": -3.5732669179,
				"y": 1.7171908664,
				"z": 0.8165009622,
				"element": "C" 
			},
			{
				"x": -3.0335693548,
				"y": 1.7829868288,
				"z": -2.5377496476,
				"element": "H" 
			},
			{
				"x": -4.0870157734,
				"y": 2.8401562097,
				"z": -1.5834821563,
				"element": "H" 
			},
			{
				"x": -2.3446306788,
				"y": 3.1178624264,
				"z": -1.6134797297,
				"element": "H" 
			},
			{
				"x": -1.6435720938,
				"y": 0.0400447357,
				"z": -1.4181928771,
				"element": "H" 
			},
			{
				"x": -0.741603904,
				"y": -2.127037004,
				"z": 1.4839765241,
				"element": "H" 
			},
			{
				"x": -1.7334333368,
				"y": -2.6249411825,
				"z": 0.1070622133,
				"element": "H" 
			},
			{
				"x": 0.466781499,
				"y": -0.2843416778,
				"z": 1.8406451213,
				"element": "H" 
			},
			{
				"x": 3.7325927009,
				"y": 1.3358800619,
				"z": 2.8030716537,
				"element": "H" 
			},
			{
				"x": 2.0528765935,
				"y": 1.8395872187,
				"z": 2.7380336626,
				"element": "H" 
			},
			{
				"x": 3.362211893,
				"y": 1.5686387937,
				"z": 4.9488085811,
				"element": "H" 
			},
			{
				"x": 4.5643162875,
				"y": 0.4750691788,
				"z": 0.807488909,
				"element": "H" 
			},
			{
				"x": 4.2537233783,
				"y": -0.7583981264,
				"z": -1.3254304946,
				"element": "H" 
			},
			{
				"x": 2.041965608,
				"y": -1.7795155276,
				"z": -1.8663577504,
				"element": "H" 
			},
			{
				"x": -2.4196312222,
				"y": -0.8700341348,
				"z": 2.7040313597,
				"element": "H" 
			},
			{
				"x": -3.8759010838,
				"y": 1.1323995972,
				"z": 2.86673697,
				"element": "H" 
			},
			{
				"x": -4.2103527407,
				"y": 2.5947897913,
				"z": 0.895651229,
				"element": "H" 
			}
		],
		 "valence_orbital": [ 
			{
				"type": "occ",
				"energy": -0.27422,
				"method": "rhf"
			},
			{
				"type": "occ",
				"energy": -0.24682,
				"method": "rhf"
			},
			{
				"type": "occ",
				"energy": -0.24181,
				"method": "rhf"
			},
			{
				"type": "occ",
				"energy": -0.23779,
				"method": "rhf"
			},
			{
				"type": "occ",
				"energy": -0.21676,
				"method": "rhf"
			},
			{
				"type": "unocc",
				"energy": -0.00626,
				"method": "rhf"
			},
			{
				"type": "unocc",
				"energy": -0.00183,
				"method": "rhf"
			},
			{
				"type": "unocc",
				"energy": 0.00205,
				"method": "rhf"
			},
			{
				"type": "unocc",
				"energy": 0.00974,
				"method": "rhf"
			},
			{
				"type": "unocc",
				"energy": 0.01573,
				"method": "rhf"
			}
		],
		"cosmo_sigma_profile": { 
			"-0.025": 0.0,
			"-0.024": 0.0,
			"-0.023": 0.0,
			"-0.022": 0.0,
			"-0.021": 0.0,
			"-0.02": 0.0,
			"-0.019": 0.590320522512,
			"-0.018": 1.18980454361,
			"-0.017": 1.02576760827,
			"-0.016": 1.3233203877,
			"-0.015": 1.35985086744,
			"-0.014": 0.977729011404,
			"-0.013": 1.34323036685,
			"-0.012": 1.03155940374,
			"-0.011": 1.09697027344,
			"-0.01": 1.21670529349,
			"-0.009": 1.83823274476,
			"-0.008": 3.29659180798,
			"-0.007": 5.39091158422,
			"-0.006": 14.0820443009,
			"-0.005": 21.1597085004,
			"-0.004": 27.2287907049,
			"-0.003": 27.6302515882,
			"-0.002": 19.9937394751,
			"-0.001": 21.8082679074,
			"0.0": 21.4235982448,
			"0.001": 17.2641953727,
			"0.002": 15.2124112092,
			"0.003": 17.4355569998,
			"0.004": 19.1466554854,
			"0.005": 19.4280742704,
			"0.006": 16.4020614539,
			"0.007": 5.01650010809,
			"0.008": 4.22421978968,
			"0.009": 4.71230583163,
			"0.01": 5.80939581298,
			"0.011": 5.78157386103,
			"0.012": 4.63953174836,
			"0.013": 1.50954262136,
			"0.014": 0.030975022454,
			"0.015": 0.0,
			"0.016": 0.0,
			"0.017": 0.0,
			"0.018": 0.0,
			"0.019": 0.0,
			"0.02": 0.0,
			"0.021": 0.0,
			"0.022": 0.0,
			"0.023": 0.0,
			"0.024": 0.0,
			"0.025": 0.0
		}
	}
}
