{
	 "smiles": "NC(=O)C1=CN=CC=N1", 
	 "Tm": 462.15, 
	 "num_atms": 14, 
	 "gaussian": { 
		 "optdone": 1, 
		 "sigma_profile": "yes", 
		 "theory": "DFT", 
		 "functional": "B3LYP", 
		 "basiset": "6-31G**", 
		 "properties": { 
			 "R2extent": 1402.1456, 
			 "electric_dipole_moment_norm": 3.77843266183, 
			 "electric_quadrupole_moment_norm": 8.42273108202, 
			 "total_energy": -433.027621144, 
			 "HOMO_LUMO_gap": 0.17778, 
			 "cosmo_polarized_energy": -12.18, 
			 "cosmo_cavitation_energy": 18.87, 
			 "cosmo_dispersion_energy": -14.32, 
			 "cosmo_repulsion_energy": 1.18, 
			 "cosmo_total_nonelectrostatic_energy": 5.73, 
			 "SMD_solvation_energy": 1.94 
		},
		"coords": [
			{
				"x": 0.8733147653,
				"y": -1.123348707,
				"z": 2.3081971077,
				"element": "N" 
			},
			{
				"x": 1.2478060591,
				"y": 0.1427336998,
				"z": 1.9976403318,
				"element": "C" 
			},
			{
				"x": 1.8277912189,
				"y": 0.907052192,
				"z": 2.7605509847,
				"element": "O" 
			},
			{
				"x": 0.8850020045,
				"y": 0.5636866821,
				"z": 0.5935762064,
				"element": "C" 
			},
			{
				"x": 1.2160461236,
				"y": 1.8494657871,
				"z": 0.1505788724,
				"element": "C" 
			},
			{
				"x": 0.9169477438,
				"y": 2.269758174,
				"z": -1.0831793156,
				"element": "N" 
			},
			{
				"x": 0.2837198454,
				"y": 1.3909358482,
				"z": -1.8684119731,
				"element": "C" 
			},
			{
				"x": -0.0489900376,
				"y": 0.1059055634,
				"z": -1.430549905,
				"element": "C" 
			},
			{
				"x": 0.2502047885,
				"y": -0.3128057784,
				"z": -0.1980552436,
				"element": "N" 
			},
			{
				"x": 0.3976781069,
				"y": -1.6872464482,
				"z": 1.6198593457,
				"element": "H" 
			},
			{
				"x": 1.0785925331,
				"y": -1.479942992,
				"z": 3.2276021065,
				"element": "H" 
			},
			{
				"x": 1.7302471924,
				"y": 2.5336361594,
				"z": 0.8183921414,
				"element": "H" 
			},
			{
				"x": 0.0327584269,
				"y": 1.7165691297,
				"z": -2.8756439236,
				"element": "H" 
			},
			{
				"x": -0.5641187707,
				"y": -0.5939993102,
				"z": -2.0846567358,
				"element": "H" 
			}
		],
		 "valence_orbital": [ 
			{
				"type": "occ",
				"energy": -0.32535,
				"method": "rhf"
			},
			{
				"type": "occ",
				"energy": -0.28399,
				"method": "rhf"
			},
			{
				"type": "occ",
				"energy": -0.27578,
				"method": "rhf"
			},
			{
				"type": "occ",
				"energy": -0.27101,
				"method": "rhf"
			},
			{
				"type": "occ",
				"energy": -0.24883,
				"method": "rhf"
			},
			{
				"type": "unocc",
				"energy": -0.07105,
				"method": "rhf"
			},
			{
				"type": "unocc",
				"energy": -0.04619,
				"method": "rhf"
			},
			{
				"type": "unocc",
				"energy": 0.04952,
				"method": "rhf"
			},
			{
				"type": "unocc",
				"energy": 0.08947,
				"method": "rhf"
			},
			{
				"type": "unocc",
				"energy": 0.11209,
				"method": "rhf"
			}
		],
		"cosmo_sigma_profile": { 
			"-0.025": 0.0,
			"-0.024": 0.0,
			"-0.023": 0.0,
			"-0.022": 0.0,
			"-0.021": 0.0,
			"-0.02": 0.0,
			"-0.019": 0.0,
			"-0.018": 0.0,
			"-0.017": 0.0,
			"-0.016": 0.0,
			"-0.015": 0.243366480035,
			"-0.014": 1.20453805459,
			"-0.013": 1.52375091143,
			"-0.012": 1.44145264277,
			"-0.011": 2.14623739034,
			"-0.01": 2.0410074941,
			"-0.009": 2.47990462344,
			"-0.008": 6.56018367784,
			"-0.007": 7.49936125418,
			"-0.006": 5.69637970375,
			"-0.005": 5.23273586823,
			"-0.004": 5.76974896783,
			"-0.003": 9.97873545956,
			"-0.002": 14.5340027801,
			"-0.001": 15.4564893443,
			"0.0": 9.89882424943,
			"0.001": 7.80116963543,
			"0.002": 7.23553642306,
			"0.003": 6.29622080836,
			"0.004": 5.09155556508,
			"0.005": 4.48574895154,
			"0.006": 3.34326086671,
			"0.007": 3.49573767463,
			"0.008": 2.10596115673,
			"0.009": 2.00733048678,
			"0.01": 2.98046634628,
			"0.011": 2.51627699769,
			"0.012": 2.92041764457,
			"0.013": 6.01181197723,
			"0.014": 3.24612363197,
			"0.015": 0.427966459004,
			"0.016": 0.0,
			"0.017": 0.0,
			"0.018": 0.0,
			"0.019": 0.0,
			"0.02": 0.0,
			"0.021": 0.0,
			"0.022": 0.0,
			"0.023": 0.0,
			"0.024": 0.0,
			"0.025": 0.0
		}
	}
}
