{
	 "smiles": "O=C1CNC(=O)C2COCCN12", 
	 "Tm": 444.15, 
	 "num_atms": 22, 
	 "gaussian": { 
		 "optdone": 1, 
		 "sigma_profile": "yes", 
		 "theory": "DFT", 
		 "functional": "B3LYP", 
		 "basiset": "6-31G**", 
		 "properties": { 
			 "R2extent": 1984.6586, 
			 "electric_dipole_moment_norm": 1.63325506275, 
			 "electric_quadrupole_moment_norm": 15.5452904473, 
			 "total_energy": -607.945782988, 
			 "HOMO_LUMO_gap": 0.25496, 
			 "cosmo_polarized_energy": -17.49, 
			 "cosmo_cavitation_energy": 24.13, 
			 "cosmo_dispersion_energy": -18.46, 
			 "cosmo_repulsion_energy": 1.47, 
			 "cosmo_total_nonelectrostatic_energy": 7.14, 
			 "SMD_solvation_energy": 3.87 
		},
		"coords": [
			{
				"x": 2.9298761777,
				"y": -1.430618105,
				"z": -0.8736555052,
				"element": "O" 
			},
			{
				"x": 2.0601207686,
				"y": -0.834740597,
				"z": -0.2503408326,
				"element": "C" 
			},
			{
				"x": 2.3081331075,
				"y": -0.3533019601,
				"z": 1.1792960992,
				"element": "C" 
			},
			{
				"x": 1.5111478298,
				"y": 0.8128144727,
				"z": 1.5294061601,
				"element": "N" 
			},
			{
				"x": 0.2456054799,
				"y": 1.039164503,
				"z": 1.0862144712,
				"element": "C" 
			},
			{
				"x": -0.4519571963,
				"y": 1.9681068911,
				"z": 1.4696548395,
				"element": "O" 
			},
			{
				"x": -0.2611790905,
				"y": 0.0132832089,
				"z": 0.0671467317,
				"element": "C" 
			},
			{
				"x": -1.2959393514,
				"y": 0.6433524231,
				"z": -0.8695303708,
				"element": "C" 
			},
			{
				"x": -1.8707062413,
				"y": -0.3106040377,
				"z": -1.7538155599,
				"element": "O" 
			},
			{
				"x": -0.9991069477,
				"y": -1.3625954695,
				"z": -2.1684619851,
				"element": "C" 
			},
			{
				"x": 0.4743647836,
				"y": -0.9781210292,
				"z": -2.110352413,
				"element": "C" 
			},
			{
				"x": 0.8210106152,
				"y": -0.5585868273,
				"z": -0.746686039,
				"element": "N" 
			},
			{
				"x": 3.3689510763,
				"y": -0.1058952333,
				"z": 1.244690968,
				"element": "H" 
			},
			{
				"x": 2.1270156146,
				"y": -1.1969168858,
				"z": 1.8636703169,
				"element": "H" 
			},
			{
				"x": 1.8452006149,
				"y": 1.4509657156,
				"z": 2.2397594608,
				"element": "H" 
			},
			{
				"x": -0.765931576,
				"y": -0.7823763802,
				"z": 0.6414404633,
				"element": "H" 
			},
			{
				"x": -2.1026431989,
				"y": 1.073367451,
				"z": -0.2749265987,
				"element": "H" 
			},
			{
				"x": -0.8179699951,
				"y": 1.4614593761,
				"z": -1.4287515228,
				"element": "H" 
			},
			{
				"x": -1.2736645836,
				"y": -1.6225039614,
				"z": -3.196068,
				"element": "H" 
			},
			{
				"x": -1.1681113957,
				"y": -2.2527783425,
				"z": -1.542945658,
				"element": "H" 
			},
			{
				"x": 1.1131980231,
				"y": -1.8237480732,
				"z": -2.3751420869,
				"element": "H" 
			},
			{
				"x": 0.6854854853,
				"y": -0.1671271393,
				"z": -2.8192029388,
				"element": "H" 
			}
		],
		 "valence_orbital": [ 
			{
				"type": "occ",
				"energy": -0.28223,
				"method": "rhf"
			},
			{
				"type": "occ",
				"energy": -0.27486,
				"method": "rhf"
			},
			{
				"type": "occ",
				"energy": -0.2613,
				"method": "rhf"
			},
			{
				"type": "occ",
				"energy": -0.25571,
				"method": "rhf"
			},
			{
				"type": "occ",
				"energy": -0.24674,
				"method": "rhf"
			},
			{
				"type": "unocc",
				"energy": 0.00822,
				"method": "rhf"
			},
			{
				"type": "unocc",
				"energy": 0.0111,
				"method": "rhf"
			},
			{
				"type": "unocc",
				"energy": 0.06837,
				"method": "rhf"
			},
			{
				"type": "unocc",
				"energy": 0.08082,
				"method": "rhf"
			},
			{
				"type": "unocc",
				"energy": 0.10361,
				"method": "rhf"
			}
		],
		"cosmo_sigma_profile": { 
			"-0.025": 0.0,
			"-0.024": 0.0,
			"-0.023": 0.0,
			"-0.022": 0.0,
			"-0.021": 0.0,
			"-0.02": 0.0,
			"-0.019": 0.0,
			"-0.018": 0.0,
			"-0.017": 0.0,
			"-0.016": 0.0,
			"-0.015": 0.863522984745,
			"-0.014": 1.32976091297,
			"-0.013": 1.57193701247,
			"-0.012": 0.600570544397,
			"-0.011": 0.898854194836,
			"-0.01": 1.60080492242,
			"-0.009": 0.990104498094,
			"-0.008": 5.81415840861,
			"-0.007": 9.91893058994,
			"-0.006": 13.3199941895,
			"-0.005": 23.3743715169,
			"-0.004": 20.266983842,
			"-0.003": 12.633368759,
			"-0.002": 11.612173643,
			"-0.001": 8.7497644889,
			"0.0": 6.77239998906,
			"0.001": 6.05844973465,
			"0.002": 4.80716637915,
			"0.003": 4.18902597973,
			"0.004": 3.82555670683,
			"0.005": 3.80839626877,
			"0.006": 3.66185628889,
			"0.007": 4.32716161641,
			"0.008": 3.57775922754,
			"0.009": 3.67086497283,
			"0.01": 3.59105820246,
			"0.011": 4.36399062555,
			"0.012": 6.68447612874,
			"0.013": 11.5833925478,
			"0.014": 4.52290638644,
			"0.015": 0.156963984431,
			"0.016": 0.0,
			"0.017": 0.0,
			"0.018": 0.0,
			"0.019": 0.0,
			"0.02": 0.0,
			"0.021": 0.0,
			"0.022": 0.0,
			"0.023": 0.0,
			"0.024": 0.0,
			"0.025": 0.0
		}
	}
}
