{
	 "smiles": "FC1=C(C=CC=C1)C(=O)C1=CC=C(Br)C=C1", 
	 "Tm": 309.15, 
	 "num_atms": 24, 
	 "gaussian": { 
		 "optdone": 1, 
		 "sigma_profile": "yes", 
		 "theory": "DFT", 
		 "functional": "B3LYP", 
		 "basiset": "6-31G**", 
		 "properties": { 
			 "R2extent": 8417.7732, 
			 "electric_dipole_moment_norm": 2.98184954349, 
			 "electric_quadrupole_moment_norm": 11.1212594777, 
			 "total_energy": -3246.66622235, 
			 "HOMO_LUMO_gap": 0.17504, 
			 "cosmo_polarized_energy": -8.45, 
			 "cosmo_cavitation_energy": 31.6, 
			 "cosmo_dispersion_energy": -23.14, 
			 "cosmo_repulsion_energy": 1.77, 
			 "cosmo_total_nonelectrostatic_energy": 10.23, 
			 "SMD_solvation_energy": 5.03 
		},
		"coords": [
			{
				"x": -0.352737374,
				"y": 2.314831534,
				"z": -1.306423374,
				"element": "F" 
			},
			{
				"x": -0.5071114766,
				"y": 1.1312767811,
				"z": -1.9388616393,
				"element": "C" 
			},
			{
				"x": -0.3334210161,
				"y": -0.0626139317,
				"z": -1.2307247263,
				"element": "C" 
			},
			{
				"x": -0.4389079728,
				"y": -1.2619865275,
				"z": -1.9560045517,
				"element": "C" 
			},
			{
				"x": -0.7522645331,
				"y": -1.2627267393,
				"z": -3.3112941357,
				"element": "C" 
			},
			{
				"x": -0.937998053,
				"y": -0.0496492631,
				"z": -3.9819588002,
				"element": "C" 
			},
			{
				"x": -0.8060336214,
				"y": 1.1569471914,
				"z": -3.2967996499,
				"element": "C" 
			},
			{
				"x": 0.0549530884,
				"y": -0.1529630274,
				"z": 0.2201744497,
				"element": "C" 
			},
			{
				"x": 0.8492577571,
				"y": -1.0205528711,
				"z": 0.5638064367,
				"element": "O" 
			},
			{
				"x": -0.5538786462,
				"y": 0.7537396459,
				"z": 1.2420570671,
				"element": "C" 
			},
			{
				"x": -1.771041316,
				"y": 1.4209220519,
				"z": 1.0447646799,
				"element": "C" 
			},
			{
				"x": -2.3310925146,
				"y": 2.1935923128,
				"z": 2.0597748802,
				"element": "C" 
			},
			{
				"x": -1.6578991788,
				"y": 2.3072397041,
				"z": 3.2756394352,
				"element": "C" 
			},
			{
				"x": -2.4117118339,
				"y": 3.3770222027,
				"z": 4.6644823704,
				"element": "Br" 
			},
			{
				"x": -0.4462638216,
				"y": 1.6499939295,
				"z": 3.4987055916,
				"element": "C" 
			},
			{
				"x": 0.0917845107,
				"y": 0.8671631918,
				"z": 2.4832522612,
				"element": "C" 
			},
			{
				"x": -0.266581181,
				"y": -2.190627212,
				"z": -1.422154085,
				"element": "H" 
			},
			{
				"x": -0.8446274988,
				"y": -2.2022435556,
				"z": -3.8466776023,
				"element": "H" 
			},
			{
				"x": -1.1759179615,
				"y": -0.040477102,
				"z": -5.0413625418,
				"element": "H" 
			},
			{
				"x": -0.9184587919,
				"y": 2.1150819256,
				"z": -3.7924325403,
				"element": "H" 
			},
			{
				"x": -2.3008132663,
				"y": 1.3247620616,
				"z": 0.1034815015,
				"element": "H" 
			},
			{
				"x": -3.2771706788,
				"y": 2.7008772167,
				"z": 1.9106902703,
				"element": "H" 
			},
			{
				"x": 0.0598032776,
				"y": 1.7480652616,
				"z": 4.4522244374,
				"element": "H" 
			},
			{
				"x": 1.0213321024,
				"y": 0.3288252193,
				"z": 2.6341402651,
				"element": "H" 
			}
		],
		 "valence_orbital": [ 
			{
				"type": "occ",
				"energy": -0.27589,
				"method": "rhf"
			},
			{
				"type": "occ",
				"energy": -0.27144,
				"method": "rhf"
			},
			{
				"type": "occ",
				"energy": -0.2598,
				"method": "rhf"
			},
			{
				"type": "occ",
				"energy": -0.25684,
				"method": "rhf"
			},
			{
				"type": "occ",
				"energy": -0.249,
				"method": "rhf"
			},
			{
				"type": "unocc",
				"energy": -0.07396,
				"method": "rhf"
			},
			{
				"type": "unocc",
				"energy": -0.02533,
				"method": "rhf"
			},
			{
				"type": "unocc",
				"energy": -0.01968,
				"method": "rhf"
			},
			{
				"type": "unocc",
				"energy": -0.01238,
				"method": "rhf"
			},
			{
				"type": "unocc",
				"energy": 0.00259,
				"method": "rhf"
			}
		],
		"cosmo_sigma_profile": { 
			"-0.025": 0.0,
			"-0.024": 0.0,
			"-0.023": 0.0,
			"-0.022": 0.0,
			"-0.021": 0.0,
			"-0.02": 0.0,
			"-0.019": 0.0,
			"-0.018": 0.0,
			"-0.017": 0.0,
			"-0.016": 0.0,
			"-0.015": 0.0,
			"-0.014": 0.0,
			"-0.013": 0.0,
			"-0.012": 0.0,
			"-0.011": 0.0,
			"-0.01": 0.0,
			"-0.009": 0.0,
			"-0.008": 2.41460567471,
			"-0.007": 10.4317607809,
			"-0.006": 16.0663359415,
			"-0.005": 16.3137104325,
			"-0.004": 14.8364619813,
			"-0.003": 17.0445569012,
			"-0.002": 15.9164037969,
			"-0.001": 16.90801006,
			"0.0": 21.9515874949,
			"0.001": 25.2435877368,
			"0.002": 31.2267375427,
			"0.003": 27.073100775,
			"0.004": 23.9607684967,
			"0.005": 3.0071929789,
			"0.006": 1.94909184896,
			"0.007": 1.65643131605,
			"0.008": 2.2141221293,
			"0.009": 1.77564467453,
			"0.01": 1.96754297171,
			"0.011": 4.08302661348,
			"0.012": 2.1998064725,
			"0.013": 0.0649645474292,
			"0.014": 0.0,
			"0.015": 0.0,
			"0.016": 0.0,
			"0.017": 0.0,
			"0.018": 0.0,
			"0.019": 0.0,
			"0.02": 0.0,
			"0.021": 0.0,
			"0.022": 0.0,
			"0.023": 0.0,
			"0.024": 0.0,
			"0.025": 0.0
		}
	}
}
