{
	 "smiles": "CC(C)(NC(=O)OCC1=CC=CC=C1)C(O)=O", 
	 "Tm": 351.65, 
	 "num_atms": 32, 
	 "gaussian": { 
		 "optdone": 1, 
		 "sigma_profile": "yes", 
		 "theory": "DFT", 
		 "functional": "B3LYP", 
		 "basiset": "6-31G**", 
		 "properties": { 
			 "R2extent": 5396.0501, 
			 "electric_dipole_moment_norm": 4.32321146487, 
			 "electric_quadrupole_moment_norm": 24.1883090728, 
			 "total_energy": -822.002531681, 
			 "HOMO_LUMO_gap": 0.22764, 
			 "cosmo_polarized_energy": -16.57, 
			 "cosmo_cavitation_energy": 35.31, 
			 "cosmo_dispersion_energy": -24.16, 
			 "cosmo_repulsion_energy": 1.87, 
			 "cosmo_total_nonelectrostatic_energy": 13.02, 
			 "SMD_solvation_energy": 7.85 
		},
		"coords": [
			{
				"x": -2.0205246596,
				"y": -0.2069701535,
				"z": -3.2144253285,
				"element": "C" 
			},
			{
				"x": -0.658520351,
				"y": -0.4741193295,
				"z": -2.5601209594,
				"element": "C" 
			},
			{
				"x": 0.2107344332,
				"y": 0.7990242065,
				"z": -2.6336730951,
				"element": "C" 
			},
			{
				"x": -0.9497238491,
				"y": -0.8714559576,
				"z": -1.160827878,
				"element": "N" 
			},
			{
				"x": -0.165857076,
				"y": -0.9827138727,
				"z": -0.0515450726,
				"element": "C" 
			},
			{
				"x": -0.5943523051,
				"y": -1.1568685404,
				"z": 1.0741077992,
				"element": "O" 
			},
			{
				"x": 1.1725217563,
				"y": -0.9161096611,
				"z": -0.3546365435,
				"element": "O" 
			},
			{
				"x": 2.0974314322,
				"y": -0.9671659267,
				"z": 0.7800761016,
				"element": "C" 
			},
			{
				"x": 2.4421245255,
				"y": 0.4123560067,
				"z": 1.2759284386,
				"element": "C" 
			},
			{
				"x": 3.5902736869,
				"y": 1.0653149126,
				"z": 0.810217774,
				"element": "C" 
			},
			{
				"x": 3.9089883152,
				"y": 2.3472820544,
				"z": 1.2599834635,
				"element": "C" 
			},
			{
				"x": 3.0785862307,
				"y": 2.9883382712,
				"z": 2.1810304009,
				"element": "C" 
			},
			{
				"x": 1.9313527023,
				"y": 2.3440305526,
				"z": 2.6507617897,
				"element": "C" 
			},
			{
				"x": 1.6136282277,
				"y": 1.0621892866,
				"z": 2.2024290248,
				"element": "C" 
			},
			{
				"x": 0.0465347278,
				"y": -1.6205398254,
				"z": -3.3484602476,
				"element": "C" 
			},
			{
				"x": 1.1426428828,
				"y": -2.1562812807,
				"z": -2.7860380779,
				"element": "O" 
			},
			{
				"x": -0.338255633,
				"y": -1.9872090319,
				"z": -4.4337159468,
				"element": "O" 
			},
			{
				"x": -2.6579079959,
				"y": -1.094882736,
				"z": -3.1679106812,
				"element": "H" 
			},
			{
				"x": -1.8851173305,
				"y": 0.039000977,
				"z": -4.2672111931,
				"element": "H" 
			},
			{
				"x": -2.5207705382,
				"y": 0.625676772,
				"z": -2.7102782343,
				"element": "H" 
			},
			{
				"x": 0.351109847,
				"y": 1.0795133876,
				"z": -3.6815189881,
				"element": "H" 
			},
			{
				"x": 1.1910285096,
				"y": 0.6606576611,
				"z": -2.1778651732,
				"element": "H" 
			},
			{
				"x": -0.2959883078,
				"y": 1.6200275106,
				"z": -2.1178279616,
				"element": "H" 
			},
			{
				"x": -1.926272461,
				"y": -0.9909227247,
				"z": -0.9324063994,
				"element": "H" 
			},
			{
				"x": 2.9760041602,
				"y": -1.4784421975,
				"z": 0.3826375747,
				"element": "H" 
			},
			{
				"x": 1.6322302158,
				"y": -1.5755019459,
				"z": 1.5560660698,
				"element": "H" 
			},
			{
				"x": 4.2407460353,
				"y": 0.5649594246,
				"z": 0.0966302733,
				"element": "H" 
			},
			{
				"x": 4.8042249369,
				"y": 2.8423750314,
				"z": 0.8951362716,
				"element": "H" 
			},
			{
				"x": 3.3263383712,
				"y": 3.9850953262,
				"z": 2.5346724608,
				"element": "H" 
			},
			{
				"x": 1.2857990829,
				"y": 2.8391277412,
				"z": 3.370476914,
				"element": "H" 
			},
			{
				"x": 0.7201338881,
				"y": 0.5582538351,
				"z": 2.5581064978,
				"element": "H" 
			},
			{
				"x": 1.3172565394,
				"y": -1.7599397741,
				"z": -1.9087990741,
				"element": "H" 
			}
		],
		 "valence_orbital": [ 
			{
				"type": "occ",
				"energy": -0.29506,
				"method": "rhf"
			},
			{
				"type": "occ",
				"energy": -0.29234,
				"method": "rhf"
			},
			{
				"type": "occ",
				"energy": -0.26174,
				"method": "rhf"
			},
			{
				"type": "occ",
				"energy": -0.26008,
				"method": "rhf"
			},
			{
				"type": "occ",
				"energy": -0.25113,
				"method": "rhf"
			},
			{
				"type": "unocc",
				"energy": -0.02349,
				"method": "rhf"
			},
			{
				"type": "unocc",
				"energy": -0.01279,
				"method": "rhf"
			},
			{
				"type": "unocc",
				"energy": 0.01051,
				"method": "rhf"
			},
			{
				"type": "unocc",
				"energy": 0.03305,
				"method": "rhf"
			},
			{
				"type": "unocc",
				"energy": 0.06801,
				"method": "rhf"
			}
		],
		"cosmo_sigma_profile": { 
			"-0.025": 0.0,
			"-0.024": 0.0,
			"-0.023": 0.0,
			"-0.022": 0.0,
			"-0.021": 0.0,
			"-0.02": 0.0,
			"-0.019": 0.0,
			"-0.018": 0.0,
			"-0.017": 0.0,
			"-0.016": 0.0,
			"-0.015": 0.205112452688,
			"-0.014": 0.677148457877,
			"-0.013": 0.716235696674,
			"-0.012": 0.659273725222,
			"-0.011": 1.6152039508,
			"-0.01": 0.967049920738,
			"-0.009": 1.80233840641,
			"-0.008": 2.72566553643,
			"-0.007": 7.27679888446,
			"-0.006": 14.1089324618,
			"-0.005": 24.3664068239,
			"-0.004": 29.1443320632,
			"-0.003": 26.0485427361,
			"-0.002": 20.6840522432,
			"-0.001": 24.1689554668,
			"0.0": 18.7186756216,
			"0.001": 13.0519734776,
			"0.002": 11.8603013311,
			"0.003": 12.3304379221,
			"0.004": 12.3224290962,
			"0.005": 12.3813730625,
			"0.006": 5.24639678478,
			"0.007": 4.28630912025,
			"0.008": 3.69590288517,
			"0.009": 4.99269688685,
			"0.01": 4.79901976853,
			"0.011": 7.96991903543,
			"0.012": 8.59573664919,
			"0.013": 3.74403566424,
			"0.014": 0.111994000155,
			"0.015": 0.0,
			"0.016": 0.0,
			"0.017": 0.0,
			"0.018": 0.0,
			"0.019": 0.0,
			"0.02": 0.0,
			"0.021": 0.0,
			"0.022": 0.0,
			"0.023": 0.0,
			"0.024": 0.0,
			"0.025": 0.0
		}
	}
}
