{
	 "smiles": "CC(C)(C)OC(=O)N1CCC2(CC1)NC(=O)C1=CC(Br)=CC=C1O2", 
	 "Tm": 499.15, 
	 "num_atms": 45, 
	 "gaussian": { 
		 "optdone": 1, 
		 "sigma_profile": "yes", 
		 "theory": "DFT", 
		 "functional": "B3LYP", 
		 "basiset": "6-31G**", 
		 "properties": { 
			 "R2extent": 20116.4916, 
			 "electric_dipole_moment_norm": 4.27464574088, 
			 "electric_quadrupole_moment_norm": 26.8800649583, 
			 "total_energy": -3642.32323515, 
			 "HOMO_LUMO_gap": 0.18029, 
			 "cosmo_polarized_energy": -18.53, 
			 "cosmo_cavitation_energy": 48.51, 
			 "cosmo_dispersion_energy": -34.22, 
			 "cosmo_repulsion_energy": 2.59, 
			 "cosmo_total_nonelectrostatic_energy": 16.89, 
			 "SMD_solvation_energy": 7.19 
		},
		"coords": [
			{
				"x": 2.9109378068,
				"y": 4.2345151167,
				"z": -0.6727097403,
				"element": "C" 
			},
			{
				"x": 2.7493302969,
				"y": 3.1618760266,
				"z": -1.7549614643,
				"element": "C" 
			},
			{
				"x": 2.037107501,
				"y": 3.6963074518,
				"z": -3.0020407912,
				"element": "C" 
			},
			{
				"x": 4.1052057022,
				"y": 2.5537120611,
				"z": -2.1234849287,
				"element": "C" 
			},
			{
				"x": 2.0172010602,
				"y": 2.0039442816,
				"z": -1.2148657092,
				"element": "O" 
			},
			{
				"x": 0.7499491121,
				"y": 2.1385592252,
				"z": -0.7509859008,
				"element": "C" 
			},
			{
				"x": 0.0898456749,
				"y": 3.1685730827,
				"z": -0.7592148972,
				"element": "O" 
			},
			{
				"x": 0.282786241,
				"y": 0.9470449528,
				"z": -0.2590823843,
				"element": "N" 
			},
			{
				"x": 1.06314736,
				"y": -0.2927120102,
				"z": -0.2765009604,
				"element": "C" 
			},
			{
				"x": 0.5752495471,
				"y": -1.232824672,
				"z": 0.8284803089,
				"element": "C" 
			},
			{
				"x": -0.9169812606,
				"y": -1.601797567,
				"z": 0.7033326336,
				"element": "C" 
			},
			{
				"x": -1.6786612903,
				"y": -0.5071263609,
				"z": -0.0835153148,
				"element": "C" 
			},
			{
				"x": -1.1133124289,
				"y": 0.8854904118,
				"z": 0.1909708164,
				"element": "C" 
			},
			{
				"x": -1.0746955483,
				"y": -2.9225715824,
				"z": 0.0998811843,
				"element": "N" 
			},
			{
				"x": -2.2322682694,
				"y": -3.6639790715,
				"z": 0.207512917,
				"element": "C" 
			},
			{
				"x": -2.490389477,
				"y": -4.6003158459,
				"z": -0.5367704864,
				"element": "O" 
			},
			{
				"x": -3.0753239728,
				"y": -3.2593135081,
				"z": 1.363206118,
				"element": "C" 
			},
			{
				"x": -4.2920903152,
				"y": -3.9036924017,
				"z": 1.6089994302,
				"element": "C" 
			},
			{
				"x": -5.0242078933,
				"y": -3.5683137885,
				"z": 2.7395067075,
				"element": "C" 
			},
			{
				"x": -6.6912611609,
				"y": -4.4351669755,
				"z": 3.0852245211,
				"element": "Br" 
			},
			{
				"x": -4.5532245555,
				"y": -2.6050612888,
				"z": 3.6386576558,
				"element": "C" 
			},
			{
				"x": -3.3435151081,
				"y": -1.9601346404,
				"z": 3.3970464484,
				"element": "C" 
			},
			{
				"x": -2.6064683738,
				"y": -2.2827071623,
				"z": 2.2543396856,
				"element": "C" 
			},
			{
				"x": -1.4110749891,
				"y": -1.6503311811,
				"z": 2.0570441679,
				"element": "O" 
			},
			{
				"x": 3.5535880603,
				"y": 5.0383723507,
				"z": -1.0462203652,
				"element": "H" 
			},
			{
				"x": 1.9452404547,
				"y": 4.6556449963,
				"z": -0.3928244338,
				"element": "H" 
			},
			{
				"x": 3.3848656006,
				"y": 3.808005623,
				"z": 0.2172659653,
				"element": "H" 
			},
			{
				"x": 1.9043270625,
				"y": 2.8950184179,
				"z": -3.736047324,
				"element": "H" 
			},
			{
				"x": 1.0609263913,
				"y": 4.1084472962,
				"z": -2.7465448927,
				"element": "H" 
			},
			{
				"x": 2.6447402057,
				"y": 4.4814813421,
				"z": -3.463597351,
				"element": "H" 
			},
			{
				"x": 4.5963786254,
				"y": 2.1370991636,
				"z": -1.2390571611,
				"element": "H" 
			},
			{
				"x": 3.9829547482,
				"y": 1.7541185138,
				"z": -2.8599924161,
				"element": "H" 
			},
			{
				"x": 4.7571034045,
				"y": 3.321122752,
				"z": -2.5511270255,
				"element": "H" 
			},
			{
				"x": 2.1139525057,
				"y": -0.0509101508,
				"z": -0.1155796443,
				"element": "H" 
			},
			{
				"x": 1.0019270952,
				"y": -0.7835157278,
				"z": -1.260831606,
				"element": "H" 
			},
			{
				"x": 0.6997627479,
				"y": -0.7398658511,
				"z": 1.7968790596,
				"element": "H" 
			},
			{
				"x": 1.1780444144,
				"y": -2.1453785936,
				"z": 0.8499731724,
				"element": "H" 
			},
			{
				"x": -2.7422618358,
				"y": -0.5486881125,
				"z": 0.1694619533,
				"element": "H" 
			},
			{
				"x": -1.595630537,
				"y": -0.7269749862,
				"z": -1.1538098597,
				"element": "H" 
			},
			{
				"x": -1.6732396924,
				"y": 1.6534299764,
				"z": -0.3446518648,
				"element": "H" 
			},
			{
				"x": -1.1888519536,
				"y": 1.118439803,
				"z": 1.262065668,
				"element": "H" 
			},
			{
				"x": -0.5012750805,
				"y": -3.1472814026,
				"z": -0.7035914641,
				"element": "H" 
			},
			{
				"x": -4.6254434703,
				"y": -4.6632851708,
				"z": 0.9115870863,
				"element": "H" 
			},
			{
				"x": -5.1345945535,
				"y": -2.3572239698,
				"z": 4.5195428604,
				"element": "H" 
			},
			{
				"x": -2.9636998522,
				"y": -1.2072308236,
				"z": 4.0792296258,
				"element": "H" 
			}
		],
		 "valence_orbital": [ 
			{
				"type": "occ",
				"energy": -0.27302,
				"method": "rhf"
			},
			{
				"type": "occ",
				"energy": -0.26479,
				"method": "rhf"
			},
			{
				"type": "occ",
				"energy": -0.26034,
				"method": "rhf"
			},
			{
				"type": "occ",
				"energy": -0.24335,
				"method": "rhf"
			},
			{
				"type": "occ",
				"energy": -0.23342,
				"method": "rhf"
			},
			{
				"type": "unocc",
				"energy": -0.05313,
				"method": "rhf"
			},
			{
				"type": "unocc",
				"energy": -0.01647,
				"method": "rhf"
			},
			{
				"type": "unocc",
				"energy": 0.00479,
				"method": "rhf"
			},
			{
				"type": "unocc",
				"energy": 0.04565,
				"method": "rhf"
			},
			{
				"type": "unocc",
				"energy": 0.04776,
				"method": "rhf"
			}
		],
		"cosmo_sigma_profile": { 
			"-0.025": 0.0,
			"-0.024": 0.0,
			"-0.023": 0.0,
			"-0.022": 0.0,
			"-0.021": 0.0,
			"-0.02": 0.0,
			"-0.019": 0.0,
			"-0.018": 0.0,
			"-0.017": 0.0,
			"-0.016": 0.0,
			"-0.015": 0.224285634681,
			"-0.014": 0.956234304228,
			"-0.013": 1.16246444072,
			"-0.012": 2.3076873739,
			"-0.011": 1.32744312123,
			"-0.01": 1.06741130655,
			"-0.009": 1.22633242674,
			"-0.008": 3.56422230465,
			"-0.007": 6.49061684059,
			"-0.006": 9.72383101396,
			"-0.005": 18.1519365045,
			"-0.004": 34.3027154921,
			"-0.003": 39.5717886584,
			"-0.002": 32.0842497905,
			"-0.001": 31.3196245676,
			"0.0": 43.064939995,
			"0.001": 43.6309257212,
			"0.002": 28.7506599104,
			"0.003": 16.900680899,
			"0.004": 19.4649305949,
			"0.005": 11.0482819226,
			"0.006": 5.07215977636,
			"0.007": 5.30086079927,
			"0.008": 3.49638162903,
			"0.009": 2.57591192059,
			"0.01": 2.62758807132,
			"0.011": 3.2128946523,
			"0.012": 4.80518327088,
			"0.013": 8.12721111721,
			"0.014": 3.17837813069,
			"0.015": 0.0,
			"0.016": 0.0,
			"0.017": 0.0,
			"0.018": 0.0,
			"0.019": 0.0,
			"0.02": 0.0,
			"0.021": 0.0,
			"0.022": 0.0,
			"0.023": 0.0,
			"0.024": 0.0,
			"0.025": 0.0
		}
	}
}
