{
	 "smiles": "CCOC(=O)C1=CC=C(C=C1NC(=O)C1=CC=CC=C1)[N+]([O-])=O", 
	 "Tm": 452.15, 
	 "num_atms": 37, 
	 "gaussian": { 
		 "optdone": 1, 
		 "sigma_profile": "yes", 
		 "theory": "DFT", 
		 "functional": "B3LYP", 
		 "basiset": "6-31G**", 
		 "properties": { 
			 "R2extent": 9908.9071, 
			 "electric_dipole_moment_norm": 7.95293029329, 
			 "electric_quadrupole_moment_norm": 26.1747632234, 
			 "total_energy": -1103.70875972, 
			 "HOMO_LUMO_gap": 0.14155, 
			 "cosmo_polarized_energy": -14.4, 
			 "cosmo_cavitation_energy": 42.5, 
			 "cosmo_dispersion_energy": -30.33, 
			 "cosmo_repulsion_energy": 2.29, 
			 "cosmo_total_nonelectrostatic_energy": 14.45, 
			 "SMD_solvation_energy": 10.7 
		},
		"coords": [
			{
				"x": -0.8431229953,
				"y": 0.7950865258,
				"z": 4.1715771343,
				"element": "C" 
			},
			{
				"x": 0.5004622936,
				"y": 1.2549428895,
				"z": 3.6282280112,
				"element": "C" 
			},
			{
				"x": 0.3585592664,
				"y": 1.8646979804,
				"z": 2.3179793886,
				"element": "O" 
			},
			{
				"x": 0.3564257146,
				"y": 1.043798944,
				"z": 1.2559730687,
				"element": "C" 
			},
			{
				"x": 0.4794024424,
				"y": -0.1738544364,
				"z": 1.3695729079,
				"element": "O" 
			},
			{
				"x": 0.1958211515,
				"y": 1.7665479588,
				"z": -0.0339065478,
				"element": "C" 
			},
			{
				"x": 0.0490313493,
				"y": 3.164873056,
				"z": -0.0206098631,
				"element": "C" 
			},
			{
				"x": -0.0993138604,
				"y": 3.8935190009,
				"z": -1.1894820912,
				"element": "C" 
			},
			{
				"x": -0.0982619788,
				"y": 3.1860449929,
				"z": -2.3907523715,
				"element": "C" 
			},
			{
				"x": 0.0396828624,
				"y": 1.8105359287,
				"z": -2.4684312687,
				"element": "C" 
			},
			{
				"x": 0.189862154,
				"y": 1.0689244443,
				"z": -1.2798470067,
				"element": "C" 
			},
			{
				"x": 0.3393986183,
				"y": -0.3133348094,
				"z": -1.2877597564,
				"element": "N" 
			},
			{
				"x": 0.3707406975,
				"y": -1.1719018569,
				"z": -2.3763493622,
				"element": "C" 
			},
			{
				"x": 0.2063819253,
				"y": -0.8058271672,
				"z": -3.5343191875,
				"element": "O" 
			},
			{
				"x": 0.6127276857,
				"y": -2.6153896539,
				"z": -2.0382710989,
				"element": "C" 
			},
			{
				"x": 1.1295788577,
				"y": -3.0596006976,
				"z": -0.8112051,
				"element": "C" 
			},
			{
				"x": 1.3343355011,
				"y": -4.4213906194,
				"z": -0.5896900081,
				"element": "C" 
			},
			{
				"x": 1.0267612085,
				"y": -5.3497300226,
				"z": -1.585894015,
				"element": "C" 
			},
			{
				"x": 0.5208995357,
				"y": -4.9123403927,
				"z": -2.8127886972,
				"element": "C" 
			},
			{
				"x": 0.3206998582,
				"y": -3.5534800084,
				"z": -3.0393427575,
				"element": "C" 
			},
			{
				"x": -0.2551804061,
				"y": 3.9437905419,
				"z": -3.6534431882,
				"element": "N" 
			},
			{
				"x": -0.2529880365,
				"y": 3.3120227716,
				"z": -4.7058558676,
				"element": "O" 
			},
			{
				"x": -0.3781074694,
				"y": 5.1649964064,
				"z": -3.5643087903,
				"element": "O" 
			},
			{
				"x": -1.255841913,
				"y": -0.0080737633,
				"z": 3.5565438526,
				"element": "H" 
			},
			{
				"x": -0.7157995546,
				"y": 0.4153863498,
				"z": 5.1905920152,
				"element": "H" 
			},
			{
				"x": -1.5566457186,
				"y": 1.6234716603,
				"z": 4.2011053088,
				"element": "H" 
			},
			{
				"x": 1.2065530304,
				"y": 0.4254114734,
				"z": 3.5538439484,
				"element": "H" 
			},
			{
				"x": 0.933132616,
				"y": 2.0481184942,
				"z": 4.2415123717,
				"element": "H" 
			},
			{
				"x": 0.0548473417,
				"y": 3.6738214324,
				"z": 0.9346322098,
				"element": "H" 
			},
			{
				"x": -0.2126205644,
				"y": 4.9690745832,
				"z": -1.1903757584,
				"element": "H" 
			},
			{
				"x": 0.028734636,
				"y": 1.3065885878,
				"z": -3.4227564426,
				"element": "H" 
			},
			{
				"x": 0.3884917572,
				"y": -0.7126863527,
				"z": -0.3529168637,
				"element": "H" 
			},
			{
				"x": 1.3989083372,
				"y": -2.3578118937,
				"z": -0.0277022604,
				"element": "H" 
			},
			{
				"x": 1.7402241112,
				"y": -4.7555473425,
				"z": 0.36049842,
				"element": "H" 
			},
			{
				"x": 1.1860027274,
				"y": -6.409520496,
				"z": -1.4087163776,
				"element": "H" 
			},
			{
				"x": 0.2847346788,
				"y": -5.6307926093,
				"z": -3.5921853765,
				"element": "H" 
			},
			{
				"x": -0.0610178611,
				"y": -3.1900719,
				"z": -3.9871485799,
				"element": "H" 
			}
		],
		 "valence_orbital": [ 
			{
				"type": "occ",
				"energy": -0.28692,
				"method": "rhf"
			},
			{
				"type": "occ",
				"energy": -0.26838,
				"method": "rhf"
			},
			{
				"type": "occ",
				"energy": -0.2642,
				"method": "rhf"
			},
			{
				"type": "occ",
				"energy": -0.25846,
				"method": "rhf"
			},
			{
				"type": "occ",
				"energy": -0.24185,
				"method": "rhf"
			},
			{
				"type": "unocc",
				"energy": -0.1003,
				"method": "rhf"
			},
			{
				"type": "unocc",
				"energy": -0.05515,
				"method": "rhf"
			},
			{
				"type": "unocc",
				"energy": -0.0382,
				"method": "rhf"
			},
			{
				"type": "unocc",
				"energy": -0.01542,
				"method": "rhf"
			},
			{
				"type": "unocc",
				"energy": -0.01047,
				"method": "rhf"
			}
		],
		"cosmo_sigma_profile": { 
			"-0.025": 0.0,
			"-0.024": 0.0,
			"-0.023": 0.0,
			"-0.022": 0.0,
			"-0.021": 0.0,
			"-0.02": 0.0,
			"-0.019": 0.0,
			"-0.018": 0.0,
			"-0.017": 0.0,
			"-0.016": 0.0,
			"-0.015": 0.0,
			"-0.014": 0.0,
			"-0.013": 0.0,
			"-0.012": 0.0,
			"-0.011": 0.0,
			"-0.01": 0.0,
			"-0.009": 0.0338805385299,
			"-0.008": 1.29629871101,
			"-0.007": 6.29666018138,
			"-0.006": 15.367390331,
			"-0.005": 23.7195895954,
			"-0.004": 32.2416664758,
			"-0.003": 28.029868195,
			"-0.002": 30.9576510317,
			"-0.001": 38.6302125585,
			"0.0": 35.7663954335,
			"0.001": 22.6164664314,
			"0.002": 16.90652321,
			"0.003": 19.6681033957,
			"0.004": 18.5928448068,
			"0.005": 7.79610932102,
			"0.006": 8.13563969417,
			"0.007": 12.5915804282,
			"0.008": 8.13027740108,
			"0.009": 6.35723174462,
			"0.01": 3.59909282738,
			"0.011": 2.31275033773,
			"0.012": 2.20652735405,
			"0.013": 0.256856936265,
			"0.014": 0.0,
			"0.015": 0.0,
			"0.016": 0.0,
			"0.017": 0.0,
			"0.018": 0.0,
			"0.019": 0.0,
			"0.02": 0.0,
			"0.021": 0.0,
			"0.022": 0.0,
			"0.023": 0.0,
			"0.024": 0.0,
			"0.025": 0.0
		}
	}
}
