{
	 "smiles": "OC(=O)C1=C(Cl)C2=C(SC=C2)S1", 
	 "Tm": 527.15, 
	 "num_atms": 15, 
	 "gaussian": { 
		 "optdone": 1, 
		 "sigma_profile": "yes", 
		 "theory": "DFT", 
		 "functional": "B3LYP", 
		 "basiset": "6-31G**", 
		 "properties": { 
			 "R2extent": 4023.9101, 
			 "electric_dipole_moment_norm": 5.43675728629, 
			 "electric_quadrupole_moment_norm": 19.6725370016, 
			 "total_energy": -1675.53926475, 
			 "HOMO_LUMO_gap": 0.1776, 
			 "cosmo_polarized_energy": -14.01, 
			 "cosmo_cavitation_energy": 24.89, 
			 "cosmo_dispersion_energy": -19.84, 
			 "cosmo_repulsion_energy": 1.46, 
			 "cosmo_total_nonelectrostatic_energy": 6.52, 
			 "SMD_solvation_energy": 4.64 
		},
		"coords": [
			{
				"x": 4.0881852022,
				"y": 0.6795677914,
				"z": -1.5783236208,
				"element": "O" 
			},
			{
				"x": 3.3595536136,
				"y": -0.4570238775,
				"z": -1.7598572278,
				"element": "C" 
			},
			{
				"x": 3.6524225387,
				"y": -1.2133406849,
				"z": -2.653955022,
				"element": "O" 
			},
			{
				"x": 2.2291232404,
				"y": -0.6976008771,
				"z": -0.8311683263,
				"element": "C" 
			},
			{
				"x": 1.3590692105,
				"y": -1.7680325317,
				"z": -0.8221839126,
				"element": "C" 
			},
			{
				"x": 1.3907320462,
				"y": -3.1038585606,
				"z": -1.9186684964,
				"element": "Cl" 
			},
			{
				"x": 0.3724026002,
				"y": -1.6997957666,
				"z": 0.2103404611,
				"element": "C" 
			},
			{
				"x": 0.5171236017,
				"y": -0.5517596959,
				"z": 0.9821790588,
				"element": "C" 
			},
			{
				"x": -0.6651315913,
				"y": -0.4414323841,
				"z": 2.2422645044,
				"element": "S" 
			},
			{
				"x": -1.3635970132,
				"y": -1.9669545175,
				"z": 1.718333384,
				"element": "C" 
			},
			{
				"x": -0.7241034507,
				"y": -2.5136137105,
				"z": 0.6485198748,
				"element": "C" 
			},
			{
				"x": 1.8335432806,
				"y": 0.4429122545,
				"z": 0.4702051495,
				"element": "S" 
			},
			{
				"x": 3.7746114301,
				"y": 1.2185494391,
				"z": -0.8386143967,
				"element": "H" 
			},
			{
				"x": -2.217902793,
				"y": -2.3542438128,
				"z": 2.2564510279,
				"element": "H" 
			},
			{
				"x": -1.009731916,
				"y": -3.4497730658,
				"z": 0.1852775421,
				"element": "H" 
			}
		],
		 "valence_orbital": [ 
			{
				"type": "occ",
				"energy": -0.32076,
				"method": "rhf"
			},
			{
				"type": "occ",
				"energy": -0.29523,
				"method": "rhf"
			},
			{
				"type": "occ",
				"energy": -0.2767,
				"method": "rhf"
			},
			{
				"type": "occ",
				"energy": -0.25288,
				"method": "rhf"
			},
			{
				"type": "occ",
				"energy": -0.24636,
				"method": "rhf"
			},
			{
				"type": "unocc",
				"energy": -0.06876,
				"method": "rhf"
			},
			{
				"type": "unocc",
				"energy": -0.03286,
				"method": "rhf"
			},
			{
				"type": "unocc",
				"energy": -0.03259,
				"method": "rhf"
			},
			{
				"type": "unocc",
				"energy": -0.00202,
				"method": "rhf"
			},
			{
				"type": "unocc",
				"energy": 0.01369,
				"method": "rhf"
			}
		],
		"cosmo_sigma_profile": { 
			"-0.025": 0.0,
			"-0.024": 0.0,
			"-0.023": 0.0,
			"-0.022": 0.0,
			"-0.021": 0.0,
			"-0.02": 0.0,
			"-0.019": 0.237027557163,
			"-0.018": 0.462464615212,
			"-0.017": 0.75013164918,
			"-0.016": 1.03914050559,
			"-0.015": 1.00488466505,
			"-0.014": 0.815194756543,
			"-0.013": 0.564201935331,
			"-0.012": 1.12637913959,
			"-0.011": 1.05544197211,
			"-0.01": 1.9793440379,
			"-0.009": 4.00295500634,
			"-0.008": 5.48938369819,
			"-0.007": 6.29281668238,
			"-0.006": 5.86422681296,
			"-0.005": 6.30649379626,
			"-0.004": 8.29693126767,
			"-0.003": 10.4182136603,
			"-0.002": 11.6726962857,
			"-0.001": 20.1958774871,
			"0.0": 26.5836485901,
			"0.001": 21.8681898461,
			"0.002": 20.3136466742,
			"0.003": 14.6658668775,
			"0.004": 5.15477316633,
			"0.005": 3.42476173086,
			"0.006": 2.81124050288,
			"0.007": 2.70619813723,
			"0.008": 3.07053266876,
			"0.009": 3.7805814288,
			"0.01": 5.64471215159,
			"0.011": 5.95566407903,
			"0.012": 3.90955889649,
			"0.013": 0.660155263494,
			"0.014": 0.0,
			"0.015": 0.0,
			"0.016": 0.0,
			"0.017": 0.0,
			"0.018": 0.0,
			"0.019": 0.0,
			"0.02": 0.0,
			"0.021": 0.0,
			"0.022": 0.0,
			"0.023": 0.0,
			"0.024": 0.0,
			"0.025": 0.0
		}
	}
}
