{
	 "smiles": "NCC1=NC2=C(S1)C=CC(Cl)=C2", 
	 "Tm": 342.15, 
	 "num_atms": 19, 
	 "gaussian": { 
		 "optdone": 1, 
		 "sigma_profile": "yes", 
		 "theory": "DFT", 
		 "functional": "B3LYP", 
		 "basiset": "6-31G**", 
		 "properties": { 
			 "R2extent": 3961.6357, 
			 "electric_dipole_moment_norm": 3.59672684951, 
			 "electric_quadrupole_moment_norm": 11.8117592961, 
			 "total_energy": -1276.95754293, 
			 "HOMO_LUMO_gap": 0.19271, 
			 "cosmo_polarized_energy": -9.85, 
			 "cosmo_cavitation_energy": 26.48, 
			 "cosmo_dispersion_energy": -20.58, 
			 "cosmo_repulsion_energy": 1.61, 
			 "cosmo_total_nonelectrostatic_energy": 7.52, 
			 "SMD_solvation_energy": 1.17 
		},
		"coords": [
			{
				"x": -1.0948698371,
				"y": -2.5877990812,
				"z": -1.6069327583,
				"element": "N" 
			},
			{
				"x": -0.7635815408,
				"y": -2.3380078344,
				"z": -0.2067632928,
				"element": "C" 
			},
			{
				"x": -0.4720980634,
				"y": -0.8788939162,
				"z": 0.0205420846,
				"element": "C" 
			},
			{
				"x": -0.5666256384,
				"y": -0.2837935141,
				"z": 1.1643316196,
				"element": "N" 
			},
			{
				"x": -0.1809641718,
				"y": 1.0446915513,
				"z": 1.0641820614,
				"element": "C" 
			},
			{
				"x": 0.2135239362,
				"y": 1.4629122884,
				"z": -0.2300741887,
				"element": "C" 
			},
			{
				"x": 0.0847134736,
				"y": 0.1168560876,
				"z": -1.3450113733,
				"element": "S" 
			},
			{
				"x": 0.6145655683,
				"y": 2.7800341121,
				"z": -0.4681661629,
				"element": "C" 
			},
			{
				"x": 0.6264680523,
				"y": 3.6783618393,
				"z": 0.5945626816,
				"element": "C" 
			},
			{
				"x": 0.2360089769,
				"y": 3.2551965711,
				"z": 1.8757687853,
				"element": "C" 
			},
			{
				"x": 0.2642673314,
				"y": 4.4207319344,
				"z": 3.1944301631,
				"element": "Cl" 
			},
			{
				"x": -0.169567398,
				"y": 1.953377247,
				"z": 2.1323179235,
				"element": "C" 
			},
			{
				"x": -2.047446912,
				"y": -2.2983069375,
				"z": -1.8105390936,
				"element": "H" 
			},
			{
				"x": -1.0244147657,
				"y": -3.5768292532,
				"z": -1.8225565952,
				"element": "H" 
			},
			{
				"x": 0.1453592746,
				"y": -2.905432412,
				"z": 0.0314421614,
				"element": "H" 
			},
			{
				"x": -1.5244816092,
				"y": -2.6393822469,
				"z": 0.5293094457,
				"element": "H" 
			},
			{
				"x": 0.9156897584,
				"y": 3.1063362701,
				"z": -1.4583863765,
				"element": "H" 
			},
			{
				"x": 0.9357510911,
				"y": 4.7059793326,
				"z": 0.4413161413,
				"element": "H" 
			},
			{
				"x": -0.4702975266,
				"y": 1.6340679617,
				"z": 3.1229267737,
				"element": "H" 
			}
		],
		 "valence_orbital": [ 
			{
				"type": "occ",
				"energy": -0.29716,
				"method": "rhf"
			},
			{
				"type": "occ",
				"energy": -0.27892,
				"method": "rhf"
			},
			{
				"type": "occ",
				"energy": -0.26098,
				"method": "rhf"
			},
			{
				"type": "occ",
				"energy": -0.24105,
				"method": "rhf"
			},
			{
				"type": "occ",
				"energy": -0.23154,
				"method": "rhf"
			},
			{
				"type": "unocc",
				"energy": -0.03883,
				"method": "rhf"
			},
			{
				"type": "unocc",
				"energy": -0.01195,
				"method": "rhf"
			},
			{
				"type": "unocc",
				"energy": 0.01593,
				"method": "rhf"
			},
			{
				"type": "unocc",
				"energy": 0.02652,
				"method": "rhf"
			},
			{
				"type": "unocc",
				"energy": 0.0389,
				"method": "rhf"
			}
		],
		"cosmo_sigma_profile": { 
			"-0.025": 0.0,
			"-0.024": 0.0,
			"-0.023": 0.0,
			"-0.022": 0.0,
			"-0.021": 0.0,
			"-0.02": 0.0,
			"-0.019": 0.0,
			"-0.018": 0.0,
			"-0.017": 0.0,
			"-0.016": 0.0,
			"-0.015": 0.0,
			"-0.014": 0.0,
			"-0.013": 0.0,
			"-0.012": 0.114217601178,
			"-0.011": 2.1722975517,
			"-0.01": 3.08616185876,
			"-0.009": 2.88307502991,
			"-0.008": 5.44652411774,
			"-0.007": 11.2411248886,
			"-0.006": 9.70643276646,
			"-0.005": 11.7995364926,
			"-0.004": 11.0090482731,
			"-0.003": 11.1856895891,
			"-0.002": 10.1314005219,
			"-0.001": 10.6133355539,
			"0.0": 13.1967368332,
			"0.001": 19.1279248432,
			"0.002": 26.3055643035,
			"0.003": 22.6127604154,
			"0.004": 17.5571285092,
			"0.005": 10.7381963283,
			"0.006": 2.35430356585,
			"0.007": 2.64370056806,
			"0.008": 1.80105624382,
			"0.009": 2.49054904722,
			"0.01": 1.17216763204,
			"0.011": 1.51962318334,
			"0.012": 1.83622436057,
			"0.013": 1.5376031891,
			"0.014": 1.0685352459,
			"0.015": 0.672787386377,
			"0.016": 0.0,
			"0.017": 0.0,
			"0.018": 0.0,
			"0.019": 0.0,
			"0.02": 0.0,
			"0.021": 0.0,
			"0.022": 0.0,
			"0.023": 0.0,
			"0.024": 0.0,
			"0.025": 0.0
		}
	}
}
