{
	 "smiles": "O=C1CCOC2=C(N1)C=CC=C2", 
	 "Tm": 383.15, 
	 "num_atms": 21, 
	 "gaussian": { 
		 "optdone": 1, 
		 "sigma_profile": "yes", 
		 "theory": "DFT", 
		 "functional": "B3LYP", 
		 "basiset": "6-31G**", 
		 "properties": { 
			 "R2extent": 2241.2612, 
			 "electric_dipole_moment_norm": 2.2666865553, 
			 "electric_quadrupole_moment_norm": 11.1396767731, 
			 "total_energy": -553.583626792, 
			 "HOMO_LUMO_gap": 0.19865, 
			 "cosmo_polarized_energy": -11.69, 
			 "cosmo_cavitation_energy": 24.13, 
			 "cosmo_dispersion_energy": -18.43, 
			 "cosmo_repulsion_energy": 1.46, 
			 "cosmo_total_nonelectrostatic_energy": 7.16, 
			 "SMD_solvation_energy": 4.72 
		},
		"coords": [
			{
				"x": 0.6903437337,
				"y": -2.936847433,
				"z": 2.2593108555,
				"element": "O" 
			},
			{
				"x": 0.8262101553,
				"y": -2.3222779786,
				"z": 1.2093905943,
				"element": "C" 
			},
			{
				"x": 1.6428116379,
				"y": -2.8853110176,
				"z": 0.063581617,
				"element": "C" 
			},
			{
				"x": 1.2189515015,
				"y": -2.4526730465,
				"z": -1.3331958399,
				"element": "C" 
			},
			{
				"x": 1.6157220871,
				"y": -1.1137728598,
				"z": -1.6202008358,
				"element": "O" 
			},
			{
				"x": 0.8267689975,
				"y": -0.0915781752,
				"z": -1.1583846682,
				"element": "C" 
			},
			{
				"x": 0.1721799216,
				"y": -0.0754134155,
				"z": 0.0912229286,
				"element": "C" 
			},
			{
				"x": 0.2103747981,
				"y": -1.09277407,
				"z": 1.06925668,
				"element": "N" 
			},
			{
				"x": -0.5806744727,
				"y": 1.0670423802,
				"z": 0.4226066387,
				"element": "C" 
			},
			{
				"x": -0.6722076003,
				"y": 2.1630115126,
				"z": -0.4260609174,
				"element": "C" 
			},
			{
				"x": -0.0033013729,
				"y": 2.144679733,
				"z": -1.6513942025,
				"element": "C" 
			},
			{
				"x": 0.7293527671,
				"y": 1.0176680025,
				"z": -2.0058520082,
				"element": "C" 
			},
			{
				"x": 2.6926528467,
				"y": -2.6055313487,
				"z": 0.2130031216,
				"element": "H" 
			},
			{
				"x": 1.5851245095,
				"y": -3.9729859697,
				"z": 0.1643108388,
				"element": "H" 
			},
			{
				"x": 1.7313056358,
				"y": -3.0660208459,
				"z": -2.0788823364,
				"element": "H" 
			},
			{
				"x": 0.1374456297,
				"y": -2.5703767381,
				"z": -1.4823591791,
				"element": "H" 
			},
			{
				"x": -0.2954469764,
				"y": -0.8691875878,
				"z": 1.9184976582,
				"element": "H" 
			},
			{
				"x": -1.0934537303,
				"y": 1.0852323417,
				"z": 1.3815488594,
				"element": "H" 
			},
			{
				"x": -1.2596042679,
				"y": 3.0253670768,
				"z": -0.1271306539,
				"element": "H" 
			},
			{
				"x": -0.0601509995,
				"y": 2.9911983105,
				"z": -2.3281378794,
				"element": "H" 
			},
			{
				"x": 1.2538951986,
				"y": 0.9581511291,
				"z": -2.9539312712,
				"element": "H" 
			}
		],
		 "valence_orbital": [ 
			{
				"type": "occ",
				"energy": -0.31376,
				"method": "rhf"
			},
			{
				"type": "occ",
				"energy": -0.3073,
				"method": "rhf"
			},
			{
				"type": "occ",
				"energy": -0.25656,
				"method": "rhf"
			},
			{
				"type": "occ",
				"energy": -0.24113,
				"method": "rhf"
			},
			{
				"type": "occ",
				"energy": -0.21458,
				"method": "rhf"
			},
			{
				"type": "unocc",
				"energy": -0.01593,
				"method": "rhf"
			},
			{
				"type": "unocc",
				"energy": -0.00428,
				"method": "rhf"
			},
			{
				"type": "unocc",
				"energy": 0.03807,
				"method": "rhf"
			},
			{
				"type": "unocc",
				"energy": 0.07741,
				"method": "rhf"
			},
			{
				"type": "unocc",
				"energy": 0.08718,
				"method": "rhf"
			}
		],
		"cosmo_sigma_profile": { 
			"-0.025": 0.0,
			"-0.024": 0.0,
			"-0.023": 0.0,
			"-0.022": 0.0,
			"-0.021": 0.0,
			"-0.02": 0.0,
			"-0.019": 0.0,
			"-0.018": 0.0,
			"-0.017": 0.0,
			"-0.016": 0.0,
			"-0.015": 0.128628570206,
			"-0.014": 1.13192525695,
			"-0.013": 1.08040523607,
			"-0.012": 1.07493309461,
			"-0.011": 1.33694503109,
			"-0.01": 0.517691438045,
			"-0.009": 1.1253553737,
			"-0.008": 1.13841462628,
			"-0.007": 4.2302765411,
			"-0.006": 17.1664278266,
			"-0.005": 18.7054926833,
			"-0.004": 18.4602385413,
			"-0.003": 14.0670202736,
			"-0.002": 8.81920291828,
			"-0.001": 10.7963434693,
			"0.0": 8.33240804393,
			"0.001": 11.2705517066,
			"0.002": 11.1944643017,
			"0.003": 9.77251174259,
			"0.004": 11.6356985446,
			"0.005": 11.0341526341,
			"0.006": 5.68031212395,
			"0.007": 3.15567535041,
			"0.008": 1.62638981599,
			"0.009": 1.97114406383,
			"0.01": 3.1790131092,
			"0.011": 1.82769001753,
			"0.012": 2.41203220319,
			"0.013": 5.48335862495,
			"0.014": 3.15023073605,
			"0.015": 0.306588199964,
			"0.016": 0.0,
			"0.017": 0.0,
			"0.018": 0.0,
			"0.019": 0.0,
			"0.02": 0.0,
			"0.021": 0.0,
			"0.022": 0.0,
			"0.023": 0.0,
			"0.024": 0.0,
			"0.025": 0.0
		}
	}
}
