{
	 "smiles": "NC1=NN=C(CCCC2=CC=CC=C2)O1", 
	 "Tm": 439.15, 
	 "num_atms": 28, 
	 "gaussian": { 
		 "optdone": 1, 
		 "sigma_profile": "yes", 
		 "theory": "DFT", 
		 "functional": "B3LYP", 
		 "basiset": "6-31G**", 
		 "properties": { 
			 "R2extent": 4301.6196, 
			 "electric_dipole_moment_norm": 4.04085327004, 
			 "electric_quadrupole_moment_norm": 22.2296371221, 
			 "total_energy": -666.469013731, 
			 "HOMO_LUMO_gap": 0.2354, 
			 "cosmo_polarized_energy": -16.59, 
			 "cosmo_cavitation_energy": 31.79, 
			 "cosmo_dispersion_energy": -22.71, 
			 "cosmo_repulsion_energy": 1.8, 
			 "cosmo_total_nonelectrostatic_energy": 10.88, 
			 "SMD_solvation_energy": 3.55 
		},
		"coords": [
			{
				"x": -0.5529789412,
				"y": 2.2799515001,
				"z": -4.7043893608,
				"element": "N" 
			},
			{
				"x": -0.6248159611,
				"y": 1.9518409193,
				"z": -3.3766365879,
				"element": "C" 
			},
			{
				"x": -1.6487529747,
				"y": 1.5243153348,
				"z": -2.7021397893,
				"element": "N" 
			},
			{
				"x": -1.2044878844,
				"y": 1.4424253033,
				"z": -1.3711821974,
				"element": "N" 
			},
			{
				"x": 0.0329464533,
				"y": 1.8093252369,
				"z": -1.3538219359,
				"element": "C" 
			},
			{
				"x": 0.9937277791,
				"y": 1.86224773,
				"z": -0.2177769194,
				"element": "C" 
			},
			{
				"x": 2.0185822881,
				"y": 0.7059333707,
				"z": -0.220453631,
				"element": "C" 
			},
			{
				"x": 1.3971436166,
				"y": -0.6943528877,
				"z": -0.0207678168,
				"element": "C" 
			},
			{
				"x": 0.7697792698,
				"y": -0.9004193782,
				"z": 1.3436043347,
				"element": "C" 
			},
			{
				"x": -0.5959842225,
				"y": -0.6607269645,
				"z": 1.5575576674,
				"element": "C" 
			},
			{
				"x": -1.158786056,
				"y": -0.8319195133,
				"z": 2.8244651744,
				"element": "C" 
			},
			{
				"x": -0.3678421859,
				"y": -1.2473730957,
				"z": 3.8967565037,
				"element": "C" 
			},
			{
				"x": 0.992576623,
				"y": -1.4904823084,
				"z": 3.6953957518,
				"element": "C" 
			},
			{
				"x": 1.5530798661,
				"y": -1.3179101886,
				"z": 2.4294853373,
				"element": "C" 
			},
			{
				"x": 0.4830281634,
				"y": 2.1553731064,
				"z": -2.6162134253,
				"element": "O" 
			},
			{
				"x": 0.3456909826,
				"y": 2.1268015724,
				"z": -5.1409685641,
				"element": "H" 
			},
			{
				"x": -1.3353303576,
				"y": 1.9283735656,
				"z": -5.2391434517,
				"element": "H" 
			},
			{
				"x": 1.5257982254,
				"y": 2.8199984275,
				"z": -0.2478480895,
				"element": "H" 
			},
			{
				"x": 0.404552582,
				"y": 1.8403938869,
				"z": 0.7024917208,
				"element": "H" 
			},
			{
				"x": 2.7472165409,
				"y": 0.8961206983,
				"z": 0.5762995424,
				"element": "H" 
			},
			{
				"x": 2.5737708131,
				"y": 0.7215185217,
				"z": -1.1663653552,
				"element": "H" 
			},
			{
				"x": 0.6469500656,
				"y": -0.8702219408,
				"z": -0.8000188528,
				"element": "H" 
			},
			{
				"x": 2.1872922371,
				"y": -1.4392492671,
				"z": -0.1728497967,
				"element": "H" 
			},
			{
				"x": -1.2169492643,
				"y": -0.3305704668,
				"z": 0.7283685894,
				"element": "H" 
			},
			{
				"x": -2.2186689394,
				"y": -0.6425784734,
				"z": 2.9706641969,
				"element": "H" 
			},
			{
				"x": -0.8075113432,
				"y": -1.384263544,
				"z": 4.880724875,
				"element": "H" 
			},
			{
				"x": 1.6157808965,
				"y": -1.8202495569,
				"z": 4.5222886765,
				"element": "H" 
			},
			{
				"x": 2.6119917275,
				"y": -1.5176015886,
				"z": 2.2783734035,
				"element": "H" 
			}
		],
		 "valence_orbital": [ 
			{
				"type": "occ",
				"energy": -0.30707,
				"method": "rhf"
			},
			{
				"type": "occ",
				"energy": -0.26902,
				"method": "rhf"
			},
			{
				"type": "occ",
				"energy": -0.24128,
				"method": "rhf"
			},
			{
				"type": "occ",
				"energy": -0.23593,
				"method": "rhf"
			},
			{
				"type": "occ",
				"energy": -0.23034,
				"method": "rhf"
			},
			{
				"type": "unocc",
				"energy": 0.00506,
				"method": "rhf"
			},
			{
				"type": "unocc",
				"energy": 0.00663,
				"method": "rhf"
			},
			{
				"type": "unocc",
				"energy": 0.00935,
				"method": "rhf"
			},
			{
				"type": "unocc",
				"energy": 0.05091,
				"method": "rhf"
			},
			{
				"type": "unocc",
				"energy": 0.06901,
				"method": "rhf"
			}
		],
		"cosmo_sigma_profile": { 
			"-0.025": 0.0,
			"-0.024": 0.0,
			"-0.023": 0.0,
			"-0.022": 0.0,
			"-0.021": 0.0,
			"-0.02": 0.0,
			"-0.019": 0.0,
			"-0.018": 0.0,
			"-0.017": 0.0,
			"-0.016": 0.0350977653182,
			"-0.015": 1.50244962566,
			"-0.014": 3.03939593014,
			"-0.013": 2.52449150801,
			"-0.012": 1.80668245101,
			"-0.011": 2.81455872993,
			"-0.01": 1.99152368423,
			"-0.009": 1.76210359843,
			"-0.008": 1.97355214993,
			"-0.007": 1.65244594201,
			"-0.006": 5.16331920082,
			"-0.005": 11.7782979525,
			"-0.004": 19.308793671,
			"-0.003": 30.8687462919,
			"-0.002": 27.0948745014,
			"-0.001": 21.5671807931,
			"0.0": 17.2478931258,
			"0.001": 12.4930356723,
			"0.002": 13.0698170323,
			"0.003": 11.3560426466,
			"0.004": 11.1750714493,
			"0.005": 11.5640104411,
			"0.006": 12.1114521679,
			"0.007": 5.95870549102,
			"0.008": 2.07757267196,
			"0.009": 2.81497610678,
			"0.01": 2.49536340057,
			"0.011": 2.8272440072,
			"0.012": 2.80157943796,
			"0.013": 3.34589448674,
			"0.014": 2.65868327067,
			"0.015": 1.60560860293,
			"0.016": 1.08801242576,
			"0.017": 0.266356228777,
			"0.018": 0.0,
			"0.019": 0.0,
			"0.02": 0.0,
			"0.021": 0.0,
			"0.022": 0.0,
			"0.023": 0.0,
			"0.024": 0.0,
			"0.025": 0.0
		}
	}
}
