{
	 "smiles": "C1CN(CCO1)C(C1=CC=CC=C1)(C1=CC=CC=C1)C1=CC=CC=C1", 
	 "Tm": 448.15, 
	 "num_atms": 48, 
	 "gaussian": { 
		 "optdone": 1, 
		 "sigma_profile": "yes", 
		 "theory": "DFT", 
		 "functional": "B3LYP", 
		 "basiset": "6-31G**", 
		 "properties": { 
			 "R2extent": 7479.8645, 
			 "electric_dipole_moment_norm": 1.52946456971, 
			 "electric_quadrupole_moment_norm": 14.5173440191, 
			 "total_energy": -1020.23738307, 
			 "HOMO_LUMO_gap": 0.19089, 
			 "cosmo_polarized_energy": -9.67, 
			 "cosmo_cavitation_energy": 45.93, 
			 "cosmo_dispersion_energy": -31.34, 
			 "cosmo_repulsion_energy": 2.39, 
			 "cosmo_total_nonelectrostatic_energy": 16.98, 
			 "SMD_solvation_energy": 7.09 
		},
		"coords": [
			{
				"x": 0.4867673417,
				"y": -0.3268528232,
				"z": 3.4109229592,
				"element": "C" 
			},
			{
				"x": 0.0096332483,
				"y": -0.8174041928,
				"z": 2.0455766942,
				"element": "C" 
			},
			{
				"x": -0.7097496564,
				"y": 0.2338405176,
				"z": 1.2822919014,
				"element": "N" 
			},
			{
				"x": -1.0348994334,
				"y": 1.3852830327,
				"z": 2.1353731046,
				"element": "C" 
			},
			{
				"x": -1.5588238906,
				"y": 0.8923237695,
				"z": 3.4796127152,
				"element": "C" 
			},
			{
				"x": -0.5854727693,
				"y": 0.1498689681,
				"z": 4.2153821596,
				"element": "O" 
			},
			{
				"x": -0.1747710729,
				"y": 0.5473061469,
				"z": -0.0789044818,
				"element": "C" 
			},
			{
				"x": -1.198174112,
				"y": 1.4250055008,
				"z": -0.850834499,
				"element": "C" 
			},
			{
				"x": -0.7965110159,
				"y": 2.2795673015,
				"z": -1.8870561921,
				"element": "C" 
			},
			{
				"x": -1.7352042755,
				"y": 2.9770275434,
				"z": -2.6500009581,
				"element": "C" 
			},
			{
				"x": -3.098824168,
				"y": 2.8303917915,
				"z": -2.3979338946,
				"element": "C" 
			},
			{
				"x": -3.5130640631,
				"y": 1.9671378599,
				"z": -1.3823099377,
				"element": "C" 
			},
			{
				"x": -2.5739509652,
				"y": 1.2677960877,
				"z": -0.6249647748,
				"element": "C" 
			},
			{
				"x": -0.1322675197,
				"y": -0.7515452743,
				"z": -0.9272165197,
				"element": "C" 
			},
			{
				"x": 0.6854928651,
				"y": -0.8463659048,
				"z": -2.0635807816,
				"element": "C" 
			},
			{
				"x": 0.6471353722,
				"y": -1.9718394024,
				"z": -2.8872104655,
				"element": "C" 
			},
			{
				"x": -0.2190737756,
				"y": -3.0271240428,
				"z": -2.5994849723,
				"element": "C" 
			},
			{
				"x": -1.054801969,
				"y": -2.9353237465,
				"z": -1.4864250934,
				"element": "C" 
			},
			{
				"x": -1.0163103687,
				"y": -1.807922209,
				"z": -0.6650563757,
				"element": "C" 
			},
			{
				"x": 1.2117919197,
				"y": 1.2221752355,
				"z": 0.0750019399,
				"element": "C" 
			},
			{
				"x": 1.3144901687,
				"y": 2.6010101301,
				"z": 0.3362616503,
				"element": "C" 
			},
			{
				"x": 2.5406131884,
				"y": 3.197313083,
				"z": 0.6349529244,
				"element": "C" 
			},
			{
				"x": 3.7044071463,
				"y": 2.4302527456,
				"z": 0.6865268275,
				"element": "C" 
			},
			{
				"x": 3.6249731925,
				"y": 1.0612182378,
				"z": 0.4330024965,
				"element": "C" 
			},
			{
				"x": 2.3974268287,
				"y": 0.4678862127,
				"z": 0.1323327751,
				"element": "C" 
			},
			{
				"x": 0.9414880647,
				"y": -1.1571307602,
				"z": 3.9614185319,
				"element": "H" 
			},
			{
				"x": 1.2571585368,
				"y": 0.4488095431,
				"z": 3.2852406729,
				"element": "H" 
			},
			{
				"x": -0.6531334357,
				"y": -1.6796053983,
				"z": 2.1996086614,
				"element": "H" 
			},
			{
				"x": 0.8752584819,
				"y": -1.1836449497,
				"z": 1.4892871306,
				"element": "H" 
			},
			{
				"x": -0.1744982204,
				"y": 2.0497314484,
				"z": 2.313880251,
				"element": "H" 
			},
			{
				"x": -1.8081531447,
				"y": 1.9910326222,
				"z": 1.6559593455,
				"element": "H" 
			},
			{
				"x": -1.8554284856,
				"y": 1.7496808639,
				"z": 4.0955485006,
				"element": "H" 
			},
			{
				"x": -2.451012139,
				"y": 0.2680987885,
				"z": 3.3166676546,
				"element": "H" 
			},
			{
				"x": 0.2580834985,
				"y": 2.4045630785,
				"z": -2.1069572101,
				"element": "H" 
			},
			{
				"x": -1.3943739807,
				"y": 3.6352990554,
				"z": -3.4443791513,
				"element": "H" 
			},
			{
				"x": -3.8291921045,
				"y": 3.3752425907,
				"z": -2.9891154013,
				"element": "H" 
			},
			{
				"x": -4.5720219017,
				"y": 1.8310635619,
				"z": -1.1802678871,
				"element": "H" 
			},
			{
				"x": -2.9029195593,
				"y": 0.5822096695,
				"z": 0.1482987654,
				"element": "H" 
			},
			{
				"x": 1.3583958162,
				"y": -0.0331597257,
				"z": -2.3135394592,
				"element": "H" 
			},
			{
				"x": 1.2955699555,
				"y": -2.0192187509,
				"z": -3.757716564,
				"element": "H" 
			},
			{
				"x": -0.2478018666,
				"y": -3.9048336026,
				"z": -3.2387016634,
				"element": "H" 
			},
			{
				"x": -1.745569234,
				"y": -3.7415313436,
				"z": -1.2550186232,
				"element": "H" 
			},
			{
				"x": -1.6866254169,
				"y": -1.7370082022,
				"z": 0.1830438018,
				"element": "H" 
			},
			{
				"x": 0.4276694757,
				"y": 3.2231194308,
				"z": 0.2906859599,
				"element": "H" 
			},
			{
				"x": 2.5820708482,
				"y": 4.2661219884,
				"z": 0.8258517114,
				"element": "H" 
			},
			{
				"x": 4.6595531586,
				"y": 2.8934313799,
				"z": 0.9164216389,
				"element": "H" 
			},
			{
				"x": 4.5210846216,
				"y": 0.4474688784,
				"z": 0.4626626032,
				"element": "H" 
			},
			{
				"x": 2.3716648151,
				"y": -0.594866735,
				"z": -0.0804384709,
				"element": "H" 
			}
		],
		 "valence_orbital": [ 
			{
				"type": "occ",
				"energy": -0.247,
				"method": "rhf"
			},
			{
				"type": "occ",
				"energy": -0.24197,
				"method": "rhf"
			},
			{
				"type": "occ",
				"energy": -0.23987,
				"method": "rhf"
			},
			{
				"type": "occ",
				"energy": -0.22596,
				"method": "rhf"
			},
			{
				"type": "occ",
				"energy": -0.20824,
				"method": "rhf"
			},
			{
				"type": "unocc",
				"energy": -0.01735,
				"method": "rhf"
			},
			{
				"type": "unocc",
				"energy": -0.01085,
				"method": "rhf"
			},
			{
				"type": "unocc",
				"energy": -0.00625,
				"method": "rhf"
			},
			{
				"type": "unocc",
				"energy": -0.00269,
				"method": "rhf"
			},
			{
				"type": "unocc",
				"energy": 0.01373,
				"method": "rhf"
			}
		],
		"cosmo_sigma_profile": { 
			"-0.025": 0.0,
			"-0.024": 0.0,
			"-0.023": 0.0,
			"-0.022": 0.0,
			"-0.021": 0.0,
			"-0.02": 0.0,
			"-0.019": 0.0,
			"-0.018": 0.0,
			"-0.017": 0.0,
			"-0.016": 0.0,
			"-0.015": 0.0,
			"-0.014": 0.0,
			"-0.013": 0.0,
			"-0.012": 0.0,
			"-0.011": 0.0,
			"-0.01": 0.0,
			"-0.009": 0.0,
			"-0.008": 0.0,
			"-0.007": 0.0,
			"-0.006": 5.59276173793,
			"-0.005": 26.1169324272,
			"-0.004": 39.2937058198,
			"-0.003": 47.354492858,
			"-0.002": 40.6853046629,
			"-0.001": 34.9659076671,
			"0.0": 25.722064672,
			"0.001": 24.8455696132,
			"0.002": 21.6737882398,
			"0.003": 20.8020224699,
			"0.004": 20.8938926536,
			"0.005": 22.7387477267,
			"0.006": 20.4245738185,
			"0.007": 3.02047346497,
			"0.008": 1.41604911822,
			"0.009": 1.59696831793,
			"0.01": 0.905885563018,
			"0.011": 1.17206787077,
			"0.012": 1.42116630692,
			"0.013": 1.83654026387,
			"0.014": 1.28744193686,
			"0.015": 0.0,
			"0.016": 0.0,
			"0.017": 0.0,
			"0.018": 0.0,
			"0.019": 0.0,
			"0.02": 0.0,
			"0.021": 0.0,
			"0.022": 0.0,
			"0.023": 0.0,
			"0.024": 0.0,
			"0.025": 0.0
		}
	}
}
