{
	 "smiles": "COC1=C(C)C(CN2C=CC(N)=N2)=NC=C1C", 
	 "Tm": 333.15, 
	 "num_atms": 33, 
	 "gaussian": { 
		 "optdone": 1, 
		 "sigma_profile": "yes", 
		 "theory": "DFT", 
		 "functional": "B3LYP", 
		 "basiset": "6-31G**", 
		 "properties": { 
			 "R2extent": 5153.1073, 
			 "electric_dipole_moment_norm": 1.89923759967, 
			 "electric_quadrupole_moment_norm": 15.5711489306, 
			 "total_energy": -761.123377593, 
			 "HOMO_LUMO_gap": 0.17574, 
			 "cosmo_polarized_energy": -14.5, 
			 "cosmo_cavitation_energy": 36.33, 
			 "cosmo_dispersion_energy": -25.23, 
			 "cosmo_repulsion_energy": 1.97, 
			 "cosmo_total_nonelectrostatic_energy": 13.07, 
			 "SMD_solvation_energy": 5.0 
		},
		"coords": [
			{
				"x": 1.9761506213,
				"y": -1.1780420268,
				"z": -3.3209201446,
				"element": "C" 
			},
			{
				"x": 1.5413978206,
				"y": -1.8344851351,
				"z": -2.1293903939,
				"element": "O" 
			},
			{
				"x": 0.2482496727,
				"y": -1.54428218,
				"z": -1.7443353447,
				"element": "C" 
			},
			{
				"x": -0.0275550445,
				"y": -0.3978344852,
				"z": -0.983158861,
				"element": "C" 
			},
			{
				"x": 1.0765333718,
				"y": 0.5456879372,
				"z": -0.5690905763,
				"element": "C" 
			},
			{
				"x": -1.3721198392,
				"y": -0.1989542163,
				"z": -0.6137321788,
				"element": "C" 
			},
			{
				"x": -1.8154242977,
				"y": 0.9990384863,
				"z": 0.2129107681,
				"element": "C" 
			},
			{
				"x": -1.7053695981,
				"y": 0.7781270768,
				"z": 1.6496144592,
				"element": "N" 
			},
			{
				"x": -2.5019223472,
				"y": 0.0126732228,
				"z": 2.4340313493,
				"element": "C" 
			},
			{
				"x": -1.9499444467,
				"y": 0.0097366622,
				"z": 3.7009115951,
				"element": "C" 
			},
			{
				"x": -0.7878144776,
				"y": 0.8141631542,
				"z": 3.5792490477,
				"element": "C" 
			},
			{
				"x": 0.1658377296,
				"y": 1.0882376304,
				"z": 4.5640689421,
				"element": "N" 
			},
			{
				"x": -0.6393357216,
				"y": 1.2820771879,
				"z": 2.3387744251,
				"element": "N" 
			},
			{
				"x": -2.3600191999,
				"y": -1.0462096783,
				"z": -0.9337539321,
				"element": "N" 
			},
			{
				"x": -2.0508371834,
				"y": -2.1428481844,
				"z": -1.6313384953,
				"element": "C" 
			},
			{
				"x": -0.7652994648,
				"y": -2.4562510122,
				"z": -2.0759501279,
				"element": "C" 
			},
			{
				"x": -0.4727249656,
				"y": -3.7129097742,
				"z": -2.8527291973,
				"element": "C" 
			},
			{
				"x": 1.3366621354,
				"y": -1.4341821536,
				"z": -4.1751639491,
				"element": "H" 
			},
			{
				"x": 2.9920784124,
				"y": -1.5282134691,
				"z": -3.5140504757,
				"element": "H" 
			},
			{
				"x": 1.9871337408,
				"y": -0.0879397682,
				"z": -3.2013004989,
				"element": "H" 
			},
			{
				"x": 2.0446267603,
				"y": 0.0463076999,
				"z": -0.6431032402,
				"element": "H" 
			},
			{
				"x": 0.935149566,
				"y": 0.8877372383,
				"z": 0.4593247882,
				"element": "H" 
			},
			{
				"x": 1.108653586,
				"y": 1.435791708,
				"z": -1.2115039623,
				"element": "H" 
			},
			{
				"x": -1.2295424004,
				"y": 1.8931646704,
				"z": -0.0048678695,
				"element": "H" 
			},
			{
				"x": -2.8633260367,
				"y": 1.1950493572,
				"z": -0.0269349122,
				"element": "H" 
			},
			{
				"x": -3.3796898502,
				"y": -0.472599457,
				"z": 2.0324827587,
				"element": "H" 
			},
			{
				"x": -2.3219834454,
				"y": -0.4951488386,
				"z": 4.5798821218,
				"element": "H" 
			},
			{
				"x": 0.7705592922,
				"y": 1.8540618794,
				"z": 4.2910755183,
				"element": "H" 
			},
			{
				"x": -0.2401799207,
				"y": 1.2625725503,
				"z": 5.4749001252,
				"element": "H" 
			},
			{
				"x": -2.8766351102,
				"y": -2.8166218083,
				"z": -1.8587632718,
				"element": "H" 
			},
			{
				"x": -1.3601381715,
				"y": -4.3493593352,
				"z": -2.9068233018,
				"element": "H" 
			},
			{
				"x": -0.1567539263,
				"y": -3.493852804,
				"z": -3.879207583,
				"element": "H" 
			},
			{
				"x": 0.3369827387,
				"y": -4.2829921351,
				"z": -2.3874075824,
				"element": "H" 
			}
		],
		 "valence_orbital": [ 
			{
				"type": "occ",
				"energy": -0.2575,
				"method": "rhf"
			},
			{
				"type": "occ",
				"energy": -0.25177,
				"method": "rhf"
			},
			{
				"type": "occ",
				"energy": -0.24368,
				"method": "rhf"
			},
			{
				"type": "occ",
				"energy": -0.22944,
				"method": "rhf"
			},
			{
				"type": "occ",
				"energy": -0.1925,
				"method": "rhf"
			},
			{
				"type": "unocc",
				"energy": -0.01676,
				"method": "rhf"
			},
			{
				"type": "unocc",
				"energy": -0.00691,
				"method": "rhf"
			},
			{
				"type": "unocc",
				"energy": 0.03698,
				"method": "rhf"
			},
			{
				"type": "unocc",
				"energy": 0.08109,
				"method": "rhf"
			},
			{
				"type": "unocc",
				"energy": 0.08577,
				"method": "rhf"
			}
		],
		"cosmo_sigma_profile": { 
			"-0.025": 0.0,
			"-0.024": 0.0,
			"-0.023": 0.0,
			"-0.022": 0.0,
			"-0.021": 0.0,
			"-0.02": 0.0,
			"-0.019": 0.0,
			"-0.018": 0.0,
			"-0.017": 0.0,
			"-0.016": 0.0,
			"-0.015": 0.0,
			"-0.014": 0.0,
			"-0.013": 0.0938992258872,
			"-0.012": 1.58912305544,
			"-0.011": 2.21038238115,
			"-0.01": 2.65748655463,
			"-0.009": 2.30171229083,
			"-0.008": 3.48788507743,
			"-0.007": 3.45056421208,
			"-0.006": 10.5663110524,
			"-0.005": 19.6469267112,
			"-0.004": 26.5132042921,
			"-0.003": 31.8424377284,
			"-0.002": 25.3722015314,
			"-0.001": 20.6109627787,
			"0.0": 19.9930128683,
			"0.001": 18.5033491777,
			"0.002": 19.4115182156,
			"0.003": 15.1432368568,
			"0.004": 10.1418598676,
			"0.005": 10.2100725181,
			"0.006": 11.4714786757,
			"0.007": 7.74613937115,
			"0.008": 4.9951730817,
			"0.009": 3.999137366,
			"0.01": 2.92860056689,
			"0.011": 3.53125605492,
			"0.012": 2.54203687954,
			"0.013": 1.86864253725,
			"0.014": 1.97126705286,
			"0.015": 1.49871123556,
			"0.016": 0.630907108768,
			"0.017": 0.0,
			"0.018": 0.0,
			"0.019": 0.0,
			"0.02": 0.0,
			"0.021": 0.0,
			"0.022": 0.0,
			"0.023": 0.0,
			"0.024": 0.0,
			"0.025": 0.0
		}
	}
}
