{
	 "smiles": "[O-][N+](=O)C1=CC(I)=CC=C1", 
	 "Tm": 310.95, 
	 "num_atms": 14, 
	 "gaussian": { 
		 "optdone": 1, 
		 "sigma_profile": "no", 
		 "theory": "DFT", 
		 "functional": "B3LYP", 
		 "basiset": "6-31G**", 
		 "properties": { 
			 "R2extent": 1775.3117, 
			 "electric_dipole_moment_norm": 3.86569089038, 
			 "electric_quadrupole_moment_norm": 7.53035588468, 
			 "total_energy": -447.529569169, 
			 "HOMO_LUMO_gap": 0.16262, 
			 "cosmo_polarized_energy": -96978.63, 
			 "cosmo_cavitation_energy": 22.47, 
			 "cosmo_dispersion_energy": -18.03, 
			 "cosmo_repulsion_energy": 1.42, 
			 "cosmo_total_nonelectrostatic_energy": 5.86, 
			 "SMD_solvation_energy": 5.31 
		},
		"coords": [
			{
				"x": 0.7828588075,
				"y": -1.3370111265,
				"z": -2.1493190513,
				"element": "O" 
			},
			{
				"x": -0.1255910817,
				"y": -1.6294071068,
				"z": -1.3744133678,
				"element": "N" 
			},
			{
				"x": -1.1151562713,
				"y": -2.2973940189,
				"z": -1.6682443522,
				"element": "O" 
			},
			{
				"x": -0.0225437426,
				"y": -1.1425967036,
				"z": 0.0150797519,
				"element": "C" 
			},
			{
				"x": 1.0914657147,
				"y": -0.3833197014,
				"z": 0.3695139223,
				"element": "C" 
			},
			{
				"x": 1.1782403644,
				"y": 0.0709343185,
				"z": 1.6839348935,
				"element": "C" 
			},
			{
				"x": 2.8490718014,
				"y": 1.2279143801,
				"z": 2.2745959481,
				"element": "I" 
			},
			{
				"x": 0.1778950492,
				"y": -0.2272827393,
				"z": 2.6150626368,
				"element": "C" 
			},
			{
				"x": -0.924428855,
				"y": -0.9911935634,
				"z": 2.2232666999,
				"element": "C" 
			},
			{
				"x": -1.0365134557,
				"y": -1.4581405171,
				"z": 0.915557994,
				"element": "C" 
			},
			{
				"x": 1.8485685609,
				"y": -0.1692065777,
				"z": -0.3728418105,
				"element": "H" 
			},
			{
				"x": 0.2560676041,
				"y": 0.131506396,
				"z": 3.6351044293,
				"element": "H" 
			},
			{
				"x": -1.6996229794,
				"y": -1.22154266,
				"z": 2.947196252,
				"element": "H" 
			},
			{
				"x": -1.8790115168,
				"y": -2.0516603801,
				"z": 0.5846060539,
				"element": "H" 
			}
		],
		 "valence_orbital": [ 
			{
				"type": "occ",
				"energy": -0.316,
				"method": "rhf"
			},
			{
				"type": "occ",
				"energy": -0.30038,
				"method": "rhf"
			},
			{
				"type": "occ",
				"energy": -0.29503,
				"method": "rhf"
			},
			{
				"type": "occ",
				"energy": -0.28407,
				"method": "rhf"
			},
			{
				"type": "occ",
				"energy": -0.26165,
				"method": "rhf"
			},
			{
				"type": "unocc",
				"energy": -0.09903,
				"method": "rhf"
			},
			{
				"type": "unocc",
				"energy": -0.05593,
				"method": "rhf"
			},
			{
				"type": "unocc",
				"energy": -0.04372,
				"method": "rhf"
			},
			{
				"type": "unocc",
				"energy": -0.0131,
				"method": "rhf"
			},
			{
				"type": "unocc",
				"energy": 0.03565,
				"method": "rhf"
			}
		],
		"cosmo_sigma_profile": { 
			"0.0": 0.0,
			"0.0": 0.0,
			"0.0": 0.0,
			"0.0": 0.0,
			"0.0": 0.0,
			"0.0": 0.0,
			"0.0": 0.0,
			"0.0": 0.0,
			"0.0": 0.0,
			"0.0": 0.0,
			"0.0": 0.0,
			"0.0": 0.0,
			"0.0": 0.0,
			"0.0": 0.0,
			"0.0": 0.0,
			"0.0": 0.0,
			"0.0": 0.0,
			"0.0": 0.0,
			"0.0": 0.0,
			"0.0": 0.0,
			"0.0": 0.0,
			"0.0": 0.0,
			"0.0": 0.0,
			"0.0": 0.0,
			"0.0": 0.0,
			"0.0": 0.0,
			"0.0": 0.0,
			"0.0": 0.0,
			"0.0": 0.0,
			"0.0": 0.0,
			"0.0": 0.0,
			"0.0": 0.0,
			"0.0": 0.0,
			"0.0": 0.0,
			"0.0": 0.0,
			"0.0": 0.0,
			"0.0": 0.0,
			"0.0": 0.0,
			"0.0": 0.0,
			"0.0": 0.0,
			"0.0": 0.0,
			"0.0": 0.0,
			"0.0": 0.0,
			"0.0": 0.0,
			"0.0": 0.0,
			"0.0": 0.0,
			"0.0": 0.0,
			"0.0": 0.0,
			"0.0": 0.0,
			"0.0": 0.0,
			"0.0": 0.0
		}
	}
}
