{
	 "smiles": "OC(=O)C1=C(NCCC2=CCCCC2)C=CC=C1", 
	 "Tm": 403.15, 
	 "num_atms": 37, 
	 "gaussian": { 
		 "optdone": 1, 
		 "sigma_profile": "yes", 
		 "theory": "DFT", 
		 "functional": "B3LYP", 
		 "basiset": "6-31G**", 
		 "properties": { 
			 "R2extent": 5845.8407, 
			 "electric_dipole_moment_norm": 0.970216733519, 
			 "electric_quadrupole_moment_norm": 6.82810686501, 
			 "total_energy": -788.275249498, 
			 "HOMO_LUMO_gap": 0.1567, 
			 "cosmo_polarized_energy": -9.54, 
			 "cosmo_cavitation_energy": 38.5, 
			 "cosmo_dispersion_energy": -26.62, 
			 "cosmo_repulsion_energy": 2.08, 
			 "cosmo_total_nonelectrostatic_energy": 13.96, 
			 "SMD_solvation_energy": 6.0 
		},
		"coords": [
			{
				"x": -1.0109697025,
				"y": 4.4523918916,
				"z": -1.4337444255,
				"element": "O" 
			},
			{
				"x": -0.8228163033,
				"y": 3.4237314913,
				"z": -0.5668460841,
				"element": "C" 
			},
			{
				"x": -1.7619311516,
				"y": 2.6761779215,
				"z": -0.2973850622,
				"element": "O" 
			},
			{
				"x": 0.5418976697,
				"y": 3.3275864994,
				"z": -0.0384220653,
				"element": "C" 
			},
			{
				"x": 0.8923947621,
				"y": 2.2936568893,
				"z": 0.8927779791,
				"element": "C" 
			},
			{
				"x": -0.0428002142,
				"y": 1.4082491433,
				"z": 1.3415309051,
				"element": "N" 
			},
			{
				"x": 0.2225543114,
				"y": 0.2495441833,
				"z": 2.1707781549,
				"element": "C" 
			},
			{
				"x": 0.8108127223,
				"y": -0.9650772643,
				"z": 1.4093657824,
				"element": "C" 
			},
			{
				"x": -0.1117350314,
				"y": -1.529832142,
				"z": 0.3540520471,
				"element": "C" 
			},
			{
				"x": 0.1654071599,
				"y": -1.4126075163,
				"z": -0.9526467674,
				"element": "C" 
			},
			{
				"x": -0.7218000034,
				"y": -1.9108420316,
				"z": -2.0662913351,
				"element": "C" 
			},
			{
				"x": -2.1278550619,
				"y": -2.2803585744,
				"z": -1.5713690899,
				"element": "C" 
			},
			{
				"x": -2.0468951236,
				"y": -3.0640201012,
				"z": -0.2561387202,
				"element": "C" 
			},
			{
				"x": -1.3730568409,
				"y": -2.2222257992,
				"z": 0.8378594134,
				"element": "C" 
			},
			{
				"x": 2.2373867931,
				"y": 2.250619747,
				"z": 1.3420574649,
				"element": "C" 
			},
			{
				"x": 3.1691759961,
				"y": 3.1804915625,
				"z": 0.9112670448,
				"element": "C" 
			},
			{
				"x": 2.8224745028,
				"y": 4.1956567323,
				"z": 0.0077732327,
				"element": "C" 
			},
			{
				"x": 1.5183785487,
				"y": 4.2535598651,
				"z": -0.4545374271,
				"element": "C" 
			},
			{
				"x": -1.9429224122,
				"y": 4.3925575995,
				"z": -1.6988246838,
				"element": "H" 
			},
			{
				"x": -0.9457639232,
				"y": 1.4851375378,
				"z": 0.884699172,
				"element": "H" 
			},
			{
				"x": 0.8948989742,
				"y": 0.5266613083,
				"z": 2.9908486588,
				"element": "H" 
			},
			{
				"x": -0.7255965127,
				"y": -0.0323648768,
				"z": 2.6400978724,
				"element": "H" 
			},
			{
				"x": 1.7597654137,
				"y": -0.6662476743,
				"z": 0.9508157219,
				"element": "H" 
			},
			{
				"x": 1.0438080678,
				"y": -1.7382151865,
				"z": 2.1568169884,
				"element": "H" 
			},
			{
				"x": 1.0940174383,
				"y": -0.9261137441,
				"z": -1.2502501809,
				"element": "H" 
			},
			{
				"x": -0.2493180321,
				"y": -2.7835686906,
				"z": -2.5442037976,
				"element": "H" 
			},
			{
				"x": -0.7848646729,
				"y": -1.1476483639,
				"z": -2.8532128603,
				"element": "H" 
			},
			{
				"x": -2.6603698176,
				"y": -2.8577604677,
				"z": -2.3357644769,
				"element": "H" 
			},
			{
				"x": -2.7067073817,
				"y": -1.3618423858,
				"z": -1.4070220319,
				"element": "H" 
			},
			{
				"x": -3.0443009988,
				"y": -3.3780950638,
				"z": 0.0723663579,
				"element": "H" 
			},
			{
				"x": -1.4640191933,
				"y": -3.9807917418,
				"z": -0.4177072756,
				"element": "H" 
			},
			{
				"x": -2.0870956512,
				"y": -1.4727364432,
				"z": 1.2131832821,
				"element": "H" 
			},
			{
				"x": -1.1321992632,
				"y": -2.85353778,
				"z": 1.7048719515,
				"element": "H" 
			},
			{
				"x": 2.5436801081,
				"y": 1.4776798626,
				"z": 2.0366037731,
				"element": "H" 
			},
			{
				"x": 4.1883884421,
				"y": 3.1126038946,
				"z": 1.2831181352,
				"element": "H" 
			},
			{
				"x": 3.5600316109,
				"y": 4.9178580638,
				"z": -0.3255561166,
				"element": "H" 
			},
			{
				"x": 1.2226447706,
				"y": 5.0240216542,
				"z": -1.1570615369,
				"element": "H" 
			}
		],
		 "valence_orbital": [ 
			{
				"type": "occ",
				"energy": -0.29261,
				"method": "rhf"
			},
			{
				"type": "occ",
				"energy": -0.27106,
				"method": "rhf"
			},
			{
				"type": "occ",
				"energy": -0.25236,
				"method": "rhf"
			},
			{
				"type": "occ",
				"energy": -0.22876,
				"method": "rhf"
			},
			{
				"type": "occ",
				"energy": -0.19438,
				"method": "rhf"
			},
			{
				"type": "unocc",
				"energy": -0.03768,
				"method": "rhf"
			},
			{
				"type": "unocc",
				"energy": 0.01746,
				"method": "rhf"
			},
			{
				"type": "unocc",
				"energy": 0.02941,
				"method": "rhf"
			},
			{
				"type": "unocc",
				"energy": 0.06412,
				"method": "rhf"
			},
			{
				"type": "unocc",
				"energy": 0.08203,
				"method": "rhf"
			}
		],
		"cosmo_sigma_profile": { 
			"-0.025": 0.0,
			"-0.024": 0.0,
			"-0.023": 0.0,
			"-0.022": 0.0,
			"-0.021": 0.0,
			"-0.02": 0.0,
			"-0.019": 0.0,
			"-0.018": 0.405728742784,
			"-0.017": 0.842511108371,
			"-0.016": 1.07657247851,
			"-0.015": 0.378597390334,
			"-0.014": 0.554783062282,
			"-0.013": 0.545154542624,
			"-0.012": 0.787807420594,
			"-0.011": 0.94333835608,
			"-0.01": 1.20605990738,
			"-0.009": 0.300093813971,
			"-0.008": 0.325447760765,
			"-0.007": 1.54879295584,
			"-0.006": 6.12850268525,
			"-0.005": 12.5705456698,
			"-0.004": 15.3662234572,
			"-0.003": 27.6129738263,
			"-0.002": 35.5082128442,
			"-0.001": 38.2534455592,
			"0.0": 36.4178223123,
			"0.001": 28.3775154679,
			"0.002": 17.7667089403,
			"0.003": 17.4950274463,
			"0.004": 17.5468819822,
			"0.005": 15.8342027786,
			"0.006": 9.22916595614,
			"0.007": 4.91523407437,
			"0.008": 2.6084147438,
			"0.009": 1.43422591236,
			"0.01": 1.3212599512,
			"0.011": 2.33143401939,
			"0.012": 2.18429788341,
			"0.013": 0.356560799129,
			"0.014": 0.0,
			"0.015": 0.0,
			"0.016": 0.0,
			"0.017": 0.0,
			"0.018": 0.0,
			"0.019": 0.0,
			"0.02": 0.0,
			"0.021": 0.0,
			"0.022": 0.0,
			"0.023": 0.0,
			"0.024": 0.0,
			"0.025": 0.0
		}
	}
}
