{
	 "smiles": "COC(=O)C1=CC(=CC=C1OC)[N+]([O-])=O", 
	 "Tm": 374.15, 
	 "num_atms": 24, 
	 "gaussian": { 
		 "optdone": 1, 
		 "sigma_profile": "yes", 
		 "theory": "DFT", 
		 "functional": "B3LYP", 
		 "basiset": "6-31G**", 
		 "properties": { 
			 "R2extent": 4474.1845, 
			 "electric_dipole_moment_norm": 6.52200460671, 
			 "electric_quadrupole_moment_norm": 16.0016772315, 
			 "total_energy": -779.139358767, 
			 "HOMO_LUMO_gap": 0.1801, 
			 "cosmo_polarized_energy": -13.1, 
			 "cosmo_cavitation_energy": 29.69, 
			 "cosmo_dispersion_energy": -21.05, 
			 "cosmo_repulsion_energy": 1.65, 
			 "cosmo_total_nonelectrostatic_energy": 10.29, 
			 "SMD_solvation_energy": 9.8 
		},
		"coords": [
			{
				"x": 2.5267781385,
				"y": -1.0584774177,
				"z": -0.4510820542,
				"element": "C" 
			},
			{
				"x": 1.1032320965,
				"y": -0.9863992595,
				"z": -0.6487470523,
				"element": "O" 
			},
			{
				"x": 0.4681261817,
				"y": -0.0886805651,
				"z": 0.1281994177,
				"element": "C" 
			},
			{
				"x": 1.0426278723,
				"y": 0.6352392094,
				"z": 0.9166219435,
				"element": "O" 
			},
			{
				"x": -1.0099959505,
				"y": -0.0210458484,
				"z": -0.1113402054,
				"element": "C" 
			},
			{
				"x": -1.6310715008,
				"y": 1.1734538012,
				"z": 0.2722468266,
				"element": "C" 
			},
			{
				"x": -2.9924567188,
				"y": 1.3432430059,
				"z": 0.0630769483,
				"element": "C" 
			},
			{
				"x": -3.7800551209,
				"y": 0.3391331036,
				"z": -0.5028169022,
				"element": "C" 
			},
			{
				"x": -3.174522768,
				"y": -0.8577831885,
				"z": -0.85678045,
				"element": "C" 
			},
			{
				"x": -1.797587925,
				"y": -1.0540298337,
				"z": -0.6645646145,
				"element": "C" 
			},
			{
				"x": -1.2611215494,
				"y": -2.2782776765,
				"z": -0.9343141924,
				"element": "O" 
			},
			{
				"x": -1.0651663229,
				"y": -2.5923915718,
				"z": -2.3161796646,
				"element": "C" 
			},
			{
				"x": -3.6249813831,
				"y": 2.6109675723,
				"z": 0.4537209566,
				"element": "N" 
			},
			{
				"x": -2.9091945097,
				"y": 3.4781949331,
				"z": 0.951274249,
				"element": "O" 
			},
			{
				"x": -4.8349874745,
				"y": 2.7254582509,
				"z": 0.2556431265,
				"element": "O" 
			},
			{
				"x": 2.8771407794,
				"y": -1.8304616375,
				"z": -1.1356186817,
				"element": "H" 
			},
			{
				"x": 2.7567659917,
				"y": -1.3268903747,
				"z": 0.5825263799,
				"element": "H" 
			},
			{
				"x": 2.9954284136,
				"y": -0.0980586751,
				"z": -0.679093301,
				"element": "H" 
			},
			{
				"x": -1.0423872045,
				"y": 1.9612179679,
				"z": 0.724826694,
				"element": "H" 
			},
			{
				"x": -4.84134461,
				"y": 0.5057969425,
				"z": -0.6386783289,
				"element": "H" 
			},
			{
				"x": -3.7629088511,
				"y": -1.6747437685,
				"z": -1.2611538481,
				"element": "H" 
			},
			{
				"x": -1.9943443275,
				"y": -2.4855461077,
				"z": -2.8891137553,
				"element": "H" 
			},
			{
				"x": -0.7389708003,
				"y": -3.6328767583,
				"z": -2.3484120438,
				"element": "H" 
			},
			{
				"x": -0.2896024568,
				"y": -1.9509421037,
				"z": -2.7479414477,
				"element": "H" 
			}
		],
		 "valence_orbital": [ 
			{
				"type": "occ",
				"energy": -0.29988,
				"method": "rhf"
			},
			{
				"type": "occ",
				"energy": -0.29182,
				"method": "rhf"
			},
			{
				"type": "occ",
				"energy": -0.29028,
				"method": "rhf"
			},
			{
				"type": "occ",
				"energy": -0.28103,
				"method": "rhf"
			},
			{
				"type": "occ",
				"energy": -0.27023,
				"method": "rhf"
			},
			{
				"type": "unocc",
				"energy": -0.09013,
				"method": "rhf"
			},
			{
				"type": "unocc",
				"energy": -0.06009,
				"method": "rhf"
			},
			{
				"type": "unocc",
				"energy": -0.01088,
				"method": "rhf"
			},
			{
				"type": "unocc",
				"energy": 0.04113,
				"method": "rhf"
			},
			{
				"type": "unocc",
				"energy": 0.07818,
				"method": "rhf"
			}
		],
		"cosmo_sigma_profile": { 
			"-0.025": 0.0,
			"-0.024": 0.0,
			"-0.023": 0.0,
			"-0.022": 0.0,
			"-0.021": 0.0,
			"-0.02": 0.0,
			"-0.019": 0.0,
			"-0.018": 0.0,
			"-0.017": 0.0,
			"-0.016": 0.0,
			"-0.015": 0.0,
			"-0.014": 0.0,
			"-0.013": 0.0,
			"-0.012": 0.0,
			"-0.011": 0.0,
			"-0.01": 0.0,
			"-0.009": 0.311954074978,
			"-0.008": 3.31253181567,
			"-0.007": 6.66545128115,
			"-0.006": 14.213812189,
			"-0.005": 17.9712375319,
			"-0.004": 24.1436519427,
			"-0.003": 27.6832135571,
			"-0.002": 20.2336366677,
			"-0.001": 21.8632067147,
			"0.0": 16.5473686594,
			"0.001": 10.685876704,
			"0.002": 7.38254210118,
			"0.003": 7.08564431294,
			"0.004": 6.44660201605,
			"0.005": 6.04542774422,
			"0.006": 6.23751056403,
			"0.007": 10.004379625,
			"0.008": 10.069434676,
			"0.009": 7.76658843488,
			"0.01": 6.13753265744,
			"0.011": 4.43688230636,
			"0.012": 1.9657168447,
			"0.013": 0.0,
			"0.014": 0.0,
			"0.015": 0.0,
			"0.016": 0.0,
			"0.017": 0.0,
			"0.018": 0.0,
			"0.019": 0.0,
			"0.02": 0.0,
			"0.021": 0.0,
			"0.022": 0.0,
			"0.023": 0.0,
			"0.024": 0.0,
			"0.025": 0.0
		}
	}
}
