{
	 "smiles": "NC1=C(CC(O)=O)C=CC=C1", 
	 "Tm": 393.15, 
	 "num_atms": 20, 
	 "gaussian": { 
		 "optdone": 1, 
		 "sigma_profile": "yes", 
		 "theory": "DFT", 
		 "functional": "B3LYP", 
		 "basiset": "6-31G**", 
		 "properties": { 
			 "R2extent": 2153.5777, 
			 "electric_dipole_moment_norm": 6.43812152883, 
			 "electric_quadrupole_moment_norm": 11.3319858441, 
			 "total_energy": -515.494279847, 
			 "HOMO_LUMO_gap": 0.21868, 
			 "cosmo_polarized_energy": -17.87, 
			 "cosmo_cavitation_energy": 23.45, 
			 "cosmo_dispersion_energy": -17.41, 
			 "cosmo_repulsion_energy": 1.4, 
			 "cosmo_total_nonelectrostatic_energy": 7.44, 
			 "SMD_solvation_energy": 5.44 
		},
		"coords": [
			{
				"x": -0.5003320797,
				"y": -0.8199850786,
				"z": -2.1865028647,
				"element": "N" 
			},
			{
				"x": -1.3721288918,
				"y": -0.1027230155,
				"z": -1.3035229961,
				"element": "C" 
			},
			{
				"x": -1.6481237326,
				"y": -0.6540141432,
				"z": -0.0363826419,
				"element": "C" 
			},
			{
				"x": -1.0660009219,
				"y": -1.987538339,
				"z": 0.393903772,
				"element": "C" 
			},
			{
				"x": 0.4256784614,
				"y": -1.9426915051,
				"z": 0.7894161918,
				"element": "C" 
			},
			{
				"x": 1.277447721,
				"y": -1.5014840424,
				"z": -0.1498753571,
				"element": "O" 
			},
			{
				"x": 0.8102998489,
				"y": -2.3050964862,
				"z": 1.8760665561,
				"element": "O" 
			},
			{
				"x": -2.456773338,
				"y": 0.0768407845,
				"z": 0.8401642567,
				"element": "C" 
			},
			{
				"x": -2.96440907,
				"y": 1.3297020082,
				"z": 0.4930218677,
				"element": "C" 
			},
			{
				"x": -2.6672936686,
				"y": 1.8708833781,
				"z": -0.7566676653,
				"element": "C" 
			},
			{
				"x": -1.8790189501,
				"y": 1.1507864721,
				"z": -1.6546062931,
				"element": "C" 
			},
			{
				"x": -0.883312903,
				"y": -1.7229393386,
				"z": -2.4597439097,
				"element": "H" 
			},
			{
				"x": -0.3003112341,
				"y": -0.2928018104,
				"z": -3.0305540445,
				"element": "H" 
			},
			{
				"x": -1.1774549827,
				"y": -2.741514196,
				"z": -0.3981186377,
				"element": "H" 
			},
			{
				"x": -1.5984546713,
				"y": -2.364106176,
				"z": 1.2678176806,
				"element": "H" 
			},
			{
				"x": 0.7939653645,
				"y": -1.2438847387,
				"z": -0.9743637976,
				"element": "H" 
			},
			{
				"x": -2.6776247995,
				"y": -0.3423578467,
				"z": 1.8180931151,
				"element": "H" 
			},
			{
				"x": -3.582098893,
				"y": 1.8788122508,
				"z": 1.1968066725,
				"element": "H" 
			},
			{
				"x": -3.0524318933,
				"y": 2.8456987084,
				"z": -1.0403334179,
				"element": "H" 
			},
			{
				"x": -1.6542213662,
				"y": 1.5625131142,
				"z": -2.635918487,
				"element": "H" 
			}
		],
		 "valence_orbital": [ 
			{
				"type": "occ",
				"energy": -0.31908,
				"method": "rhf"
			},
			{
				"type": "occ",
				"energy": -0.29065,
				"method": "rhf"
			},
			{
				"type": "occ",
				"energy": -0.26923,
				"method": "rhf"
			},
			{
				"type": "occ",
				"energy": -0.246,
				"method": "rhf"
			},
			{
				"type": "occ",
				"energy": -0.23513,
				"method": "rhf"
			},
			{
				"type": "unocc",
				"energy": -0.01645,
				"method": "rhf"
			},
			{
				"type": "unocc",
				"energy": -0.00933,
				"method": "rhf"
			},
			{
				"type": "unocc",
				"energy": 0.03018,
				"method": "rhf"
			},
			{
				"type": "unocc",
				"energy": 0.0524,
				"method": "rhf"
			},
			{
				"type": "unocc",
				"energy": 0.08063,
				"method": "rhf"
			}
		],
		"cosmo_sigma_profile": { 
			"-0.025": 0.0,
			"-0.024": 0.0,
			"-0.023": 0.0,
			"-0.022": 0.0,
			"-0.021": 0.0,
			"-0.02": 0.0,
			"-0.019": 0.0,
			"-0.018": 0.0,
			"-0.017": 0.0,
			"-0.016": 0.0,
			"-0.015": 0.0,
			"-0.014": 0.0749982293235,
			"-0.013": 2.44964328732,
			"-0.012": 4.09023248067,
			"-0.011": 4.13850013767,
			"-0.01": 4.02608052929,
			"-0.009": 3.49673955785,
			"-0.008": 3.84226777777,
			"-0.007": 3.75837725745,
			"-0.006": 9.89151851236,
			"-0.005": 11.979343431,
			"-0.004": 13.026692214,
			"-0.003": 11.898257732,
			"-0.002": 11.1400209616,
			"-0.001": 13.2587058807,
			"0.0": 8.65932185826,
			"0.001": 7.89083410746,
			"0.002": 8.85709288893,
			"0.003": 8.83876582179,
			"0.004": 8.75430266848,
			"0.005": 9.61622190963,
			"0.006": 7.39612376289,
			"0.007": 2.58895570784,
			"0.008": 2.10930111295,
			"0.009": 2.77349006741,
			"0.01": 3.35875383003,
			"0.011": 4.1149059937,
			"0.012": 7.37442133061,
			"0.013": 5.24559945452,
			"0.014": 1.44126938943,
			"0.015": 0.0,
			"0.016": 0.0,
			"0.017": 0.0,
			"0.018": 0.0,
			"0.019": 0.0,
			"0.02": 0.0,
			"0.021": 0.0,
			"0.022": 0.0,
			"0.023": 0.0,
			"0.024": 0.0,
			"0.025": 0.0
		}
	}
}
