{
	 "smiles": "COC(=O)C1=CC(Br)=CC(Br)=C1", 
	 "Tm": 336.15, 
	 "num_atms": 18, 
	 "gaussian": { 
		 "optdone": 1, 
		 "sigma_profile": "yes", 
		 "theory": "DFT", 
		 "functional": "B3LYP", 
		 "basiset": "6-31G**", 
		 "properties": { 
			 "R2extent": 6281.3691, 
			 "electric_dipole_moment_norm": 2.05796910813, 
			 "electric_quadrupole_moment_norm": 10.2776053767, 
			 "total_energy": -5601.73219727, 
			 "HOMO_LUMO_gap": 0.18921, 
			 "cosmo_polarized_energy": -6.62, 
			 "cosmo_cavitation_energy": 27.9, 
			 "cosmo_dispersion_energy": -21.15, 
			 "cosmo_repulsion_energy": 1.7, 
			 "cosmo_total_nonelectrostatic_energy": 8.45, 
			 "SMD_solvation_energy": 4.11 
		},
		"coords": [
			{
				"x": -0.9148244185,
				"y": -3.3327950414,
				"z": 0.8845100235,
				"element": "C" 
			},
			{
				"x": -0.126699641,
				"y": -2.2538015979,
				"z": 0.3532830847,
				"element": "O" 
			},
			{
				"x": -0.7507752838,
				"y": -1.0594476909,
				"z": 0.2952355044,
				"element": "C" 
			},
			{
				"x": -1.8955700329,
				"y": -0.8805810954,
				"z": 0.658891238,
				"element": "O" 
			},
			{
				"x": 0.1270226619,
				"y": 0.013030783,
				"z": -0.2662596629,
				"element": "C" 
			},
			{
				"x": -0.417756298,
				"y": 1.2980265519,
				"z": -0.3736994696,
				"element": "C" 
			},
			{
				"x": 0.3674362882,
				"y": 2.3219526702,
				"z": -0.8911739614,
				"element": "C" 
			},
			{
				"x": -0.3581012959,
				"y": 4.0796831699,
				"z": -1.0453528595,
				"element": "Br" 
			},
			{
				"x": 1.6812431504,
				"y": 2.095916002,
				"z": -1.3035945896,
				"element": "C" 
			},
			{
				"x": 2.2001302817,
				"y": 0.8066860106,
				"z": -1.1859861312,
				"element": "C" 
			},
			{
				"x": 3.9956553049,
				"y": 0.480100246,
				"z": -1.745486657,
				"element": "Br" 
			},
			{
				"x": 1.4424524395,
				"y": -0.2419002741,
				"z": -0.672565966,
				"element": "C" 
			},
			{
				"x": -1.2254968244,
				"y": -3.1115259484,
				"z": 1.9084006583,
				"element": "H" 
			},
			{
				"x": -1.805063112,
				"y": -3.4939273957,
				"z": 0.271856811,
				"element": "H" 
			},
			{
				"x": -0.2669776133,
				"y": -4.2084877007,
				"z": 0.8596968194,
				"element": "H" 
			},
			{
				"x": -1.4376227924,
				"y": 1.4695011099,
				"z": -0.0526113001,
				"element": "H" 
			},
			{
				"x": 2.2829354934,
				"y": 2.9012846943,
				"z": -1.7049451759,
				"element": "H" 
			},
			{
				"x": 1.8580116923,
				"y": -1.2370144934,
				"z": -0.587198366,
				"element": "H" 
			}
		],
		 "valence_orbital": [ 
			{
				"type": "occ",
				"energy": -0.30296,
				"method": "rhf"
			},
			{
				"type": "occ",
				"energy": -0.29628,
				"method": "rhf"
			},
			{
				"type": "occ",
				"energy": -0.28724,
				"method": "rhf"
			},
			{
				"type": "occ",
				"energy": -0.26825,
				"method": "rhf"
			},
			{
				"type": "occ",
				"energy": -0.25491,
				"method": "rhf"
			},
			{
				"type": "unocc",
				"energy": -0.0657,
				"method": "rhf"
			},
			{
				"type": "unocc",
				"energy": -0.03304,
				"method": "rhf"
			},
			{
				"type": "unocc",
				"energy": -0.02189,
				"method": "rhf"
			},
			{
				"type": "unocc",
				"energy": 0.01787,
				"method": "rhf"
			},
			{
				"type": "unocc",
				"energy": 0.03713,
				"method": "rhf"
			}
		],
		"cosmo_sigma_profile": { 
			"-0.025": 0.0,
			"-0.024": 0.0,
			"-0.023": 0.0,
			"-0.022": 0.0,
			"-0.021": 0.0,
			"-0.02": 0.0,
			"-0.019": 0.0,
			"-0.018": 0.0,
			"-0.017": 0.0,
			"-0.016": 0.0,
			"-0.015": 0.0,
			"-0.014": 0.0,
			"-0.013": 0.0,
			"-0.012": 0.0,
			"-0.011": 0.0,
			"-0.01": 0.0,
			"-0.009": 0.512982696438,
			"-0.008": 1.55734725218,
			"-0.007": 3.90011002288,
			"-0.006": 10.407364225,
			"-0.005": 13.1464375036,
			"-0.004": 17.7890210472,
			"-0.003": 18.0867826518,
			"-0.002": 15.1503615784,
			"-0.001": 20.5903093497,
			"0.0": 34.4083799889,
			"0.001": 21.4422358791,
			"0.002": 14.0276787789,
			"0.003": 20.9931019643,
			"0.004": 21.0952329225,
			"0.005": 3.63009928052,
			"0.006": 1.60009345818,
			"0.007": 1.65178118519,
			"0.008": 1.32657268071,
			"0.009": 1.5647782606,
			"0.01": 2.18799669038,
			"0.011": 4.1595231682,
			"0.012": 1.53746172042,
			"0.013": 0.0,
			"0.014": 0.0,
			"0.015": 0.0,
			"0.016": 0.0,
			"0.017": 0.0,
			"0.018": 0.0,
			"0.019": 0.0,
			"0.02": 0.0,
			"0.021": 0.0,
			"0.022": 0.0,
			"0.023": 0.0,
			"0.024": 0.0,
			"0.025": 0.0
		}
	}
}
