{
	 "smiles": "NC1=NN(CC2=CSC=C2)C=C1", 
	 "Tm": 317.15, 
	 "num_atms": 21, 
	 "gaussian": { 
		 "optdone": 1, 
		 "sigma_profile": "yes", 
		 "theory": "DFT", 
		 "functional": "B3LYP", 
		 "basiset": "6-31G**", 
		 "properties": { 
			 "R2extent": 3106.9049, 
			 "electric_dipole_moment_norm": 1.58107133931, 
			 "electric_quadrupole_moment_norm": 11.2693643725, 
			 "total_energy": -872.676586136, 
			 "HOMO_LUMO_gap": 0.18861, 
			 "cosmo_polarized_energy": -12.39, 
			 "cosmo_cavitation_energy": 26.87, 
			 "cosmo_dispersion_energy": -20.08, 
			 "cosmo_repulsion_energy": 1.57, 
			 "cosmo_total_nonelectrostatic_energy": 8.36, 
			 "SMD_solvation_energy": 4.19 
		},
		"coords": [
			{
				"x": -1.854087436,
				"y": 3.0509229981,
				"z": 1.8082211368,
				"element": "N" 
			},
			{
				"x": -0.9192336712,
				"y": 2.0349764455,
				"z": 1.59892099,
				"element": "C" 
			},
			{
				"x": -0.8153074068,
				"y": 1.4399094255,
				"z": 0.409045545,
				"element": "N" 
			},
			{
				"x": 0.2458143052,
				"y": 0.5909674697,
				"z": 0.5397433531,
				"element": "N" 
			},
			{
				"x": 0.5953703953,
				"y": -0.2922085264,
				"z": -0.5571560305,
				"element": "C" 
			},
			{
				"x": -0.2606978531,
				"y": -1.5382909912,
				"z": -0.6601984858,
				"element": "C" 
			},
			{
				"x": -1.5812162966,
				"y": -1.608663669,
				"z": -0.3039943068,
				"element": "C" 
			},
			{
				"x": -2.2450811946,
				"y": -3.1815862794,
				"z": -0.5981546319,
				"element": "S" 
			},
			{
				"x": -0.7315825167,
				"y": -3.7586993186,
				"z": -1.2166906269,
				"element": "C" 
			},
			{
				"x": 0.2233710266,
				"y": -2.781266704,
				"z": -1.1858172222,
				"element": "C" 
			},
			{
				"x": 0.7737387669,
				"y": 0.6266937977,
				"z": 1.7881581511,
				"element": "C" 
			},
			{
				"x": 0.0566159008,
				"y": 1.5582849564,
				"z": 2.5126395398,
				"element": "C" 
			},
			{
				"x": -2.5548871971,
				"y": 3.0709903543,
				"z": 1.0769666691,
				"element": "H" 
			},
			{
				"x": -2.2865382667,
				"y": 3.0188142766,
				"z": 2.722711953,
				"element": "H" 
			},
			{
				"x": 1.6459211533,
				"y": -0.5735953268,
				"z": -0.4331845233,
				"element": "H" 
			},
			{
				"x": 0.524210911,
				"y": 0.2993035744,
				"z": -1.4765770746,
				"element": "H" 
			},
			{
				"x": -2.1890109205,
				"y": -0.8137272443,
				"z": 0.103638903,
				"element": "H" 
			},
			{
				"x": -0.6340362108,
				"y": -4.7815206119,
				"z": -1.5527785092,
				"element": "H" 
			},
			{
				"x": 1.2435376235,
				"y": -2.9352303093,
				"z": -1.5222970992,
				"element": "H" 
			},
			{
				"x": 1.6132919792,
				"y": 0.0041970885,
				"z": 2.0637057714,
				"element": "H" 
			},
			{
				"x": 0.2267069083,
				"y": 1.8733285942,
				"z": 3.5311964981,
				"element": "H" 
			}
		],
		 "valence_orbital": [ 
			{
				"type": "occ",
				"energy": -0.2817,
				"method": "rhf"
			},
			{
				"type": "occ",
				"energy": -0.24687,
				"method": "rhf"
			},
			{
				"type": "occ",
				"energy": -0.2365,
				"method": "rhf"
			},
			{
				"type": "occ",
				"energy": -0.23122,
				"method": "rhf"
			},
			{
				"type": "occ",
				"energy": -0.19837,
				"method": "rhf"
			},
			{
				"type": "unocc",
				"energy": -0.00976,
				"method": "rhf"
			},
			{
				"type": "unocc",
				"energy": 0.02847,
				"method": "rhf"
			},
			{
				"type": "unocc",
				"energy": 0.03458,
				"method": "rhf"
			},
			{
				"type": "unocc",
				"energy": 0.0597,
				"method": "rhf"
			},
			{
				"type": "unocc",
				"energy": 0.08172,
				"method": "rhf"
			}
		],
		"cosmo_sigma_profile": { 
			"-0.025": 0.0,
			"-0.024": 0.0,
			"-0.023": 0.0,
			"-0.022": 0.0,
			"-0.021": 0.0,
			"-0.02": 0.0,
			"-0.019": 0.0,
			"-0.018": 0.0,
			"-0.017": 0.0,
			"-0.016": 0.0,
			"-0.015": 0.0,
			"-0.014": 0.0,
			"-0.013": 0.132434986826,
			"-0.012": 1.31633354801,
			"-0.011": 2.36771535984,
			"-0.01": 2.67254396323,
			"-0.009": 3.5657326706,
			"-0.008": 7.30823601555,
			"-0.007": 10.8370993509,
			"-0.006": 14.0534987767,
			"-0.005": 13.358296259,
			"-0.004": 13.7449535726,
			"-0.003": 11.3677288806,
			"-0.002": 10.8387451137,
			"-0.001": 9.94922129408,
			"0.0": 10.4100359874,
			"0.001": 10.0219359775,
			"0.002": 14.6033486106,
			"0.003": 13.9100684347,
			"0.004": 19.8131422933,
			"0.005": 17.9135176054,
			"0.006": 8.63296572812,
			"0.007": 4.39880582636,
			"0.008": 3.10072669142,
			"0.009": 2.55975397998,
			"0.01": 1.57476198313,
			"0.011": 1.86190650816,
			"0.012": 1.26549785312,
			"0.013": 1.06710248328,
			"0.014": 1.61155256317,
			"0.015": 1.54502742188,
			"0.016": 0.848508239573,
			"0.017": 0.0403126402308,
			"0.018": 0.0,
			"0.019": 0.0,
			"0.02": 0.0,
			"0.021": 0.0,
			"0.022": 0.0,
			"0.023": 0.0,
			"0.024": 0.0,
			"0.025": 0.0
		}
	}
}
