{
	 "smiles": "OC(=O)C1=NOC(=C1)C1=CC=CC=C1", 
	 "Tm": 469.15, 
	 "num_atms": 21, 
	 "gaussian": { 
		 "optdone": 1, 
		 "sigma_profile": "yes", 
		 "theory": "DFT", 
		 "functional": "B3LYP", 
		 "basiset": "6-31G**", 
		 "properties": { 
			 "R2extent": 3762.1657, 
			 "electric_dipole_moment_norm": 5.22572313178, 
			 "electric_quadrupole_moment_norm": 14.7461054621, 
			 "total_energy": -665.667377233, 
			 "HOMO_LUMO_gap": 0.17762, 
			 "cosmo_polarized_energy": -11.61, 
			 "cosmo_cavitation_energy": 26.8, 
			 "cosmo_dispersion_energy": -19.91, 
			 "cosmo_repulsion_energy": 1.54, 
			 "cosmo_total_nonelectrostatic_energy": 8.43, 
			 "SMD_solvation_energy": 5.84 
		},
		"coords": [
			{
				"x": -0.477757722,
				"y": -3.0860393884,
				"z": 3.556161431,
				"element": "O" 
			},
			{
				"x": 0.10085972,
				"y": -3.0768113818,
				"z": 2.3396550977,
				"element": "C" 
			},
			{
				"x": 0.8531270903,
				"y": -3.9448047977,
				"z": 1.9688236361,
				"element": "O" 
			},
			{
				"x": -0.2617579548,
				"y": -1.9059191286,
				"z": 1.4842190031,
				"element": "C" 
			},
			{
				"x": -1.0894340457,
				"y": -0.9929855838,
				"z": 1.9503897235,
				"element": "N" 
			},
			{
				"x": -1.220546501,
				"y": -0.0603192332,
				"z": 0.9410211625,
				"element": "O" 
			},
			{
				"x": -0.4607782881,
				"y": -0.4327154785,
				"z": -0.1270498203,
				"element": "C" 
			},
			{
				"x": 0.1744966173,
				"y": -1.6104238203,
				"z": 0.1707699837,
				"element": "C" 
			},
			{
				"x": -0.4766328601,
				"y": 0.4419243417,
				"z": -1.2965130506,
				"element": "C" 
			},
			{
				"x": -1.2487539389,
				"y": 1.6160889685,
				"z": -1.3054508796,
				"element": "C" 
			},
			{
				"x": -1.2542823834,
				"y": 2.4406704722,
				"z": -2.4278749664,
				"element": "C" 
			},
			{
				"x": -0.4940656818,
				"y": 2.1077266813,
				"z": -3.550980149,
				"element": "C" 
			},
			{
				"x": 0.2756776171,
				"y": 0.9415807659,
				"z": -3.5480599139,
				"element": "C" 
			},
			{
				"x": 0.2861819944,
				"y": 0.1126921748,
				"z": -2.4300570137,
				"element": "C" 
			},
			{
				"x": -1.0422372994,
				"y": -2.297553172,
				"z": 3.6461518934,
				"element": "H" 
			},
			{
				"x": 0.8504002951,
				"y": -2.1945147751,
				"z": -0.4318549602,
				"element": "H" 
			},
			{
				"x": -1.8392235072,
				"y": 1.8748760656,
				"z": -0.4334915667,
				"element": "H" 
			},
			{
				"x": -1.8541148454,
				"y": 3.3457845598,
				"z": -2.425116825,
				"element": "H" 
			},
			{
				"x": -0.5007639445,
				"y": 2.7529484514,
				"z": -4.42434279,
				"element": "H" 
			},
			{
				"x": 0.8688274822,
				"y": 0.6774482021,
				"z": -4.4183061341,
				"element": "H" 
			},
			{
				"x": 0.8867781558,
				"y": -0.7915539238,
				"z": -2.4355938617,
				"element": "H" 
			}
		],
		 "valence_orbital": [ 
			{
				"type": "occ",
				"energy": -0.31779,
				"method": "rhf"
			},
			{
				"type": "occ",
				"energy": -0.31046,
				"method": "rhf"
			},
			{
				"type": "occ",
				"energy": -0.28504,
				"method": "rhf"
			},
			{
				"type": "occ",
				"energy": -0.27271,
				"method": "rhf"
			},
			{
				"type": "occ",
				"energy": -0.24908,
				"method": "rhf"
			},
			{
				"type": "unocc",
				"energy": -0.07146,
				"method": "rhf"
			},
			{
				"type": "unocc",
				"energy": -0.0413,
				"method": "rhf"
			},
			{
				"type": "unocc",
				"energy": -0.02117,
				"method": "rhf"
			},
			{
				"type": "unocc",
				"energy": 0.03889,
				"method": "rhf"
			},
			{
				"type": "unocc",
				"energy": 0.06219,
				"method": "rhf"
			}
		],
		"cosmo_sigma_profile": { 
			"-0.025": 0.0,
			"-0.024": 0.0,
			"-0.023": 0.0,
			"-0.022": 0.0,
			"-0.021": 0.0,
			"-0.02": 0.0,
			"-0.019": 0.0,
			"-0.018": 0.0,
			"-0.017": 0.0166994745145,
			"-0.016": 0.369190510825,
			"-0.015": 0.791383865956,
			"-0.014": 0.373874929222,
			"-0.013": 0.706592701374,
			"-0.012": 0.589412361465,
			"-0.011": 0.896866334934,
			"-0.01": 1.52546342984,
			"-0.009": 3.46992825822,
			"-0.008": 4.4963194014,
			"-0.007": 4.92785015584,
			"-0.006": 13.8964324845,
			"-0.005": 15.1104078171,
			"-0.004": 12.6813429055,
			"-0.003": 11.0283576526,
			"-0.002": 15.0129547726,
			"-0.001": 18.9244834391,
			"0.0": 17.1089593279,
			"0.001": 13.7677697777,
			"0.002": 11.9599807819,
			"0.003": 14.8993240961,
			"0.004": 15.1838199934,
			"0.005": 6.63246109397,
			"0.006": 5.16607785222,
			"0.007": 4.62720284598,
			"0.008": 4.9291012511,
			"0.009": 5.57761604308,
			"0.01": 4.97615615801,
			"0.011": 5.0662151784,
			"0.012": 1.60466019347,
			"0.013": 0.0339849097117,
			"0.014": 0.0,
			"0.015": 0.0,
			"0.016": 0.0,
			"0.017": 0.0,
			"0.018": 0.0,
			"0.019": 0.0,
			"0.02": 0.0,
			"0.021": 0.0,
			"0.022": 0.0,
			"0.023": 0.0,
			"0.024": 0.0,
			"0.025": 0.0
		}
	}
}
