{
	 "smiles": "COC1=CC=C(C=C1N)C(=O)NC1=CC=CC=C1", 
	 "Tm": 428.15, 
	 "num_atms": 32, 
	 "gaussian": { 
		 "optdone": 1, 
		 "sigma_profile": "yes", 
		 "theory": "DFT", 
		 "functional": "B3LYP", 
		 "basiset": "6-31G**", 
		 "properties": { 
			 "R2extent": 7721.3074, 
			 "electric_dipole_moment_norm": 4.63622705009, 
			 "electric_quadrupole_moment_norm": 20.1100224159, 
			 "total_energy": -801.891907408, 
			 "HOMO_LUMO_gap": 0.16997, 
			 "cosmo_polarized_energy": -17.97, 
			 "cosmo_cavitation_energy": 36.07, 
			 "cosmo_dispersion_energy": -26.6, 
			 "cosmo_repulsion_energy": 2.03, 
			 "cosmo_total_nonelectrostatic_energy": 11.51, 
			 "SMD_solvation_energy": 7.13 
		},
		"coords": [
			{
				"x": -5.1156011653,
				"y": -3.8381745188,
				"z": -0.8640744141,
				"element": "C" 
			},
			{
				"x": -4.9103396221,
				"y": -2.4407864178,
				"z": -0.7213251909,
				"element": "O" 
			},
			{
				"x": -3.6271369967,
				"y": -1.9652129778,
				"z": -0.7716684549,
				"element": "C" 
			},
			{
				"x": -2.4876987557,
				"y": -2.7441062937,
				"z": -0.9616451757,
				"element": "C" 
			},
			{
				"x": -1.22389611,
				"y": -2.150131678,
				"z": -0.9768607775,
				"element": "C" 
			},
			{
				"x": -1.0938603634,
				"y": -0.7702267133,
				"z": -0.8142462025,
				"element": "C" 
			},
			{
				"x": -2.2454930995,
				"y": 0.0097564779,
				"z": -0.6085337437,
				"element": "C" 
			},
			{
				"x": -3.5175133884,
				"y": -0.5642305981,
				"z": -0.5842087826,
				"element": "C" 
			},
			{
				"x": -4.6771658558,
				"y": 0.190553358,
				"z": -0.4239830922,
				"element": "N" 
			},
			{
				"x": 0.2933138671,
				"y": -0.2004089224,
				"z": -0.8453139641,
				"element": "C" 
			},
			{
				"x": 1.2773339219,
				"y": -0.8820886934,
				"z": -0.5748173458,
				"element": "O" 
			},
			{
				"x": 0.3652152597,
				"y": 1.1282005497,
				"z": -1.2192047629,
				"element": "N" 
			},
			{
				"x": 1.4980520933,
				"y": 1.9595914154,
				"z": -1.3258812824,
				"element": "C" 
			},
			{
				"x": 2.7923844424,
				"y": 1.5562215063,
				"z": -0.9593619354,
				"element": "C" 
			},
			{
				"x": 3.8504934551,
				"y": 2.4563903206,
				"z": -1.0879349511,
				"element": "C" 
			},
			{
				"x": 3.6506404924,
				"y": 3.7490107785,
				"z": -1.574345669,
				"element": "C" 
			},
			{
				"x": 2.3623639405,
				"y": 4.1455806043,
				"z": -1.9388161828,
				"element": "C" 
			},
			{
				"x": 1.2949542043,
				"y": 3.2610261016,
				"z": -1.8155012936,
				"element": "C" 
			},
			{
				"x": -4.608893854,
				"y": -4.4025601366,
				"z": -0.0710968722,
				"element": "H" 
			},
			{
				"x": -4.7661543975,
				"y": -4.1967665273,
				"z": -1.8401702653,
				"element": "H" 
			},
			{
				"x": -6.1925148187,
				"y": -3.9954146539,
				"z": -0.7877551475,
				"element": "H" 
			},
			{
				"x": -2.5744600724,
				"y": -3.8161744108,
				"z": -1.0944948507,
				"element": "H" 
			},
			{
				"x": -0.3298227071,
				"y": -2.7473110707,
				"z": -1.1127092284,
				"element": "H" 
			},
			{
				"x": -2.1655130626,
				"y": 1.0775382774,
				"z": -0.4183222289,
				"element": "H" 
			},
			{
				"x": -4.5618891802,
				"y": 1.0503504413,
				"z": 0.0938505559,
				"element": "H" 
			},
			{
				"x": -5.4776475116,
				"y": -0.3479388392,
				"z": -0.1226323626,
				"element": "H" 
			},
			{
				"x": -0.4933593919,
				"y": 1.5342212274,
				"z": -1.5606619326,
				"element": "H" 
			},
			{
				"x": 2.948809572,
				"y": 0.5526056371,
				"z": -0.5913163521,
				"element": "H" 
			},
			{
				"x": 4.8480310938,
				"y": 2.1340060128,
				"z": -0.8022885747,
				"element": "H" 
			},
			{
				"x": 4.4849717279,
				"y": 4.4372140385,
				"z": -1.669659149,
				"element": "H" 
			},
			{
				"x": 2.1839580867,
				"y": 5.1468533547,
				"z": -2.3206198945,
				"element": "H" 
			},
			{
				"x": 0.2935381956,
				"y": 3.5777123504,
				"z": -2.1003004765,
				"element": "H" 
			}
		],
		 "valence_orbital": [ 
			{
				"type": "occ",
				"energy": -0.24801,
				"method": "rhf"
			},
			{
				"type": "occ",
				"energy": -0.24411,
				"method": "rhf"
			},
			{
				"type": "occ",
				"energy": -0.23986,
				"method": "rhf"
			},
			{
				"type": "occ",
				"energy": -0.2119,
				"method": "rhf"
			},
			{
				"type": "occ",
				"energy": -0.19893,
				"method": "rhf"
			},
			{
				"type": "unocc",
				"energy": -0.02896,
				"method": "rhf"
			},
			{
				"type": "unocc",
				"energy": 0.00345,
				"method": "rhf"
			},
			{
				"type": "unocc",
				"energy": 0.00578,
				"method": "rhf"
			},
			{
				"type": "unocc",
				"energy": 0.01967,
				"method": "rhf"
			},
			{
				"type": "unocc",
				"energy": 0.0757,
				"method": "rhf"
			}
		],
		"cosmo_sigma_profile": { 
			"-0.025": 0.0,
			"-0.024": 0.0,
			"-0.023": 0.0,
			"-0.022": 0.0,
			"-0.021": 0.0,
			"-0.02": 0.0,
			"-0.019": 0.0,
			"-0.018": 0.0,
			"-0.017": 0.0,
			"-0.016": 0.0,
			"-0.015": 0.076057520678,
			"-0.014": 0.725249338693,
			"-0.013": 1.8826483049,
			"-0.012": 2.91128741686,
			"-0.011": 3.43055380545,
			"-0.01": 3.44341925415,
			"-0.009": 4.55222985186,
			"-0.008": 4.35795545469,
			"-0.007": 5.40832988583,
			"-0.006": 14.4491882121,
			"-0.005": 20.9620525756,
			"-0.004": 23.4229593364,
			"-0.003": 21.0852815819,
			"-0.002": 15.054162583,
			"-0.001": 13.7459756625,
			"0.0": 14.7052277215,
			"0.001": 17.1839475175,
			"0.002": 17.2309991079,
			"0.003": 20.8378690789,
			"0.004": 21.5635292543,
			"0.005": 22.2204318706,
			"0.006": 14.3145114775,
			"0.007": 4.36135096575,
			"0.008": 3.63233271205,
			"0.009": 2.88285108564,
			"0.01": 2.56668813813,
			"0.011": 2.37658843073,
			"0.012": 2.51849461167,
			"0.013": 3.75488366439,
			"0.014": 2.06697236735,
			"0.015": 0.0998158102904,
			"0.016": 0.0,
			"0.017": 0.0,
			"0.018": 0.0,
			"0.019": 0.0,
			"0.02": 0.0,
			"0.021": 0.0,
			"0.022": 0.0,
			"0.023": 0.0,
			"0.024": 0.0,
			"0.025": 0.0
		}
	}
}
