{
	 "smiles": "C1CC2=C1C=CC1=C2C=CC2=C1CC2", 
	 "Tm": 436.15, 
	 "num_atms": 26, 
	 "gaussian": { 
		 "optdone": 1, 
		 "sigma_profile": "yes", 
		 "theory": "DFT", 
		 "functional": "B3LYP", 
		 "basiset": "6-31G**", 
		 "properties": { 
			 "R2extent": 3415.4815, 
			 "electric_dipole_moment_norm": 0.0, 
			 "electric_quadrupole_moment_norm": 6.2563665182, 
			 "total_energy": -540.663791869, 
			 "HOMO_LUMO_gap": 0.16755, 
			 "cosmo_polarized_energy": -3.93, 
			 "cosmo_cavitation_energy": 28.52, 
			 "cosmo_dispersion_energy": -21.25, 
			 "cosmo_repulsion_energy": 1.68, 
			 "cosmo_total_nonelectrostatic_energy": 8.95, 
			 "SMD_solvation_energy": 3.42 
		},
		"coords": [
			{
				"x": -1.6836172688,
				"y": -2.2023447329,
				"z": 3.2476891138,
				"element": "C" 
			},
			{
				"x": -1.5934715153,
				"y": -0.6902033633,
				"z": 2.7941399904,
				"element": "C" 
			},
			{
				"x": -0.854437977,
				"y": -1.2091174764,
				"z": 1.5701348292,
				"element": "C" 
			},
			{
				"x": -0.9327512788,
				"y": -2.5266002773,
				"z": 1.9648481731,
				"element": "C" 
			},
			{
				"x": -0.3955125235,
				"y": -3.5835120767,
				"z": 1.2063662757,
				"element": "C" 
			},
			{
				"x": 0.2286029439,
				"y": -3.2351301792,
				"z": 0.020903092,
				"element": "C" 
			},
			{
				"x": 0.3256552468,
				"y": -1.8802061286,
				"z": -0.4146281976,
				"element": "C" 
			},
			{
				"x": -0.2305594741,
				"y": -0.796091242,
				"z": 0.3725689794,
				"element": "C" 
			},
			{
				"x": -0.1335049969,
				"y": 0.5588367048,
				"z": -0.0629617305,
				"element": "C" 
			},
			{
				"x": 0.490609808,
				"y": 0.907218107,
				"z": -1.2484220579,
				"element": "C" 
			},
			{
				"x": 1.0278497588,
				"y": -0.1496964909,
				"z": -2.0069060559,
				"element": "C" 
			},
			{
				"x": 0.9495336554,
				"y": -1.4671776975,
				"z": -1.6121966931,
				"element": "C" 
			},
			{
				"x": 1.6885796668,
				"y": -1.9860892589,
				"z": -2.8361975813,
				"element": "C" 
			},
			{
				"x": 1.7787391409,
				"y": -0.4739425294,
				"z": -3.2897328737,
				"element": "C" 
			},
			{
				"x": -1.157730229,
				"y": -2.431074848,
				"z": 4.1812938938,
				"element": "H" 
			},
			{
				"x": -2.7030148924,
				"y": -2.5976182273,
				"z": 3.3189442982,
				"element": "H" 
			},
			{
				"x": -1.015480495,
				"y": -0.045235881,
				"z": 3.4655271825,
				"element": "H" 
			},
			{
				"x": -2.5606663875,
				"y": -0.2117933451,
				"z": 2.6031527986,
				"element": "H" 
			},
			{
				"x": -0.4584479373,
				"y": -4.6220250885,
				"z": 1.5196775251,
				"element": "H" 
			},
			{
				"x": 0.6644059361,
				"y": -4.0044702494,
				"z": -0.6112994224,
				"element": "H" 
			},
			{
				"x": -0.5693081955,
				"y": 1.3281733216,
				"z": 0.5692448606,
				"element": "H" 
			},
			{
				"x": 0.5535510138,
				"y": 1.9457302209,
				"z": -1.5617355644,
				"element": "H" 
			},
			{
				"x": 1.1105923329,
				"y": -2.6310467377,
				"z": -3.5075980972,
				"element": "H" 
			},
			{
				"x": 2.6557688261,
				"y": -2.464505588,
				"z": -2.6452005653,
				"element": "H" 
			},
			{
				"x": 1.2528747246,
				"y": -0.2452049619,
				"z": -4.2233479845,
				"element": "H" 
			},
			{
				"x": 2.798140117,
				"y": -0.0786719743,
				"z": -3.3609641887,
				"element": "H" 
			}
		],
		 "valence_orbital": [ 
			{
				"type": "occ",
				"energy": -0.30454,
				"method": "rhf"
			},
			{
				"type": "occ",
				"energy": -0.30205,
				"method": "rhf"
			},
			{
				"type": "occ",
				"energy": -0.26457,
				"method": "rhf"
			},
			{
				"type": "occ",
				"energy": -0.23242,
				"method": "rhf"
			},
			{
				"type": "occ",
				"energy": -0.19883,
				"method": "rhf"
			},
			{
				"type": "unocc",
				"energy": -0.03128,
				"method": "rhf"
			},
			{
				"type": "unocc",
				"energy": -0.00344,
				"method": "rhf"
			},
			{
				"type": "unocc",
				"energy": 0.04395,
				"method": "rhf"
			},
			{
				"type": "unocc",
				"energy": 0.10191,
				"method": "rhf"
			},
			{
				"type": "unocc",
				"energy": 0.10565,
				"method": "rhf"
			}
		],
		"cosmo_sigma_profile": { 
			"-0.025": 0.0,
			"-0.024": 0.0,
			"-0.023": 0.0,
			"-0.022": 0.0,
			"-0.021": 0.0,
			"-0.02": 0.0,
			"-0.019": 0.0,
			"-0.018": 0.0,
			"-0.017": 0.0,
			"-0.016": 0.0,
			"-0.015": 0.0,
			"-0.014": 0.0,
			"-0.013": 0.0,
			"-0.012": 0.0,
			"-0.011": 0.0,
			"-0.01": 0.0,
			"-0.009": 0.0,
			"-0.008": 0.0,
			"-0.007": 0.0,
			"-0.006": 1.6836416687,
			"-0.005": 7.56865698182,
			"-0.004": 18.3795282024,
			"-0.003": 25.273638882,
			"-0.002": 29.0768974918,
			"-0.001": 29.8050141642,
			"0.0": 30.733656044,
			"0.001": 18.0550539021,
			"0.002": 12.8282674982,
			"0.003": 10.6664732544,
			"0.004": 13.6715240951,
			"0.005": 21.3376935386,
			"0.006": 8.0393456885,
			"0.007": 0.0915981980044,
			"0.008": 0.0,
			"0.009": 0.0,
			"0.01": 0.0,
			"0.011": 0.0,
			"0.012": 0.0,
			"0.013": 0.0,
			"0.014": 0.0,
			"0.015": 0.0,
			"0.016": 0.0,
			"0.017": 0.0,
			"0.018": 0.0,
			"0.019": 0.0,
			"0.02": 0.0,
			"0.021": 0.0,
			"0.022": 0.0,
			"0.023": 0.0,
			"0.024": 0.0,
			"0.025": 0.0
		}
	}
}
