{
	 "smiles": "OCCN1CCN(CC2=CSC=C2)CC1", 
	 "Tm": 342.15, 
	 "num_atms": 33, 
	 "gaussian": { 
		 "optdone": 1, 
		 "sigma_profile": "yes", 
		 "theory": "DFT", 
		 "functional": "B3LYP", 
		 "basiset": "6-31G**", 
		 "properties": { 
			 "R2extent": 5754.493, 
			 "electric_dipole_moment_norm": 1.92230715808, 
			 "electric_quadrupole_moment_norm": 9.91173537278, 
			 "total_energy": -1012.87197161, 
			 "HOMO_LUMO_gap": 0.18938, 
			 "cosmo_polarized_energy": -11.46, 
			 "cosmo_cavitation_energy": 35.49, 
			 "cosmo_dispersion_energy": -25.67, 
			 "cosmo_repulsion_energy": 1.98, 
			 "cosmo_total_nonelectrostatic_energy": 11.8, 
			 "SMD_solvation_energy": 1.74 
		},
		"coords": [
			{
				"x": -1.0944480374,
				"y": 1.7814211122,
				"z": 4.6049792348,
				"element": "O" 
			},
			{
				"x": -0.8941139164,
				"y": 1.1485790993,
				"z": 3.3464731905,
				"element": "C" 
			},
			{
				"x": 0.5312782513,
				"y": 0.5726855657,
				"z": 3.2236266727,
				"element": "C" 
			},
			{
				"x": 0.8937384996,
				"y": -0.04390158,
				"z": 1.958595707,
				"element": "N" 
			},
			{
				"x": 1.0164239776,
				"y": 0.852749223,
				"z": 0.797616541,
				"element": "C" 
			},
			{
				"x": 0.0093692582,
				"y": 0.5298435817,
				"z": -0.3074301844,
				"element": "C" 
			},
			{
				"x": 0.2079793858,
				"y": -0.8391758569,
				"z": -0.801263771,
				"element": "N" 
			},
			{
				"x": -0.9304822321,
				"y": -1.312234267,
				"z": -1.586144947,
				"element": "C" 
			},
			{
				"x": -1.1012494821,
				"y": -0.5353576197,
				"z": -2.8702556465,
				"element": "C" 
			},
			{
				"x": -2.2846495848,
				"y": 0.0000884006,
				"z": -3.3040947298,
				"element": "C" 
			},
			{
				"x": -2.1236364277,
				"y": 0.7813872771,
				"z": -4.845513764,
				"element": "S" 
			},
			{
				"x": -0.4318126061,
				"y": 0.3924363212,
				"z": -4.9088551858,
				"element": "C" 
			},
			{
				"x": -0.0347223496,
				"y": -0.3012371238,
				"z": -3.8022099861,
				"element": "C" 
			},
			{
				"x": 0.6494850605,
				"y": -1.7695410487,
				"z": 0.2570714903,
				"element": "C" 
			},
			{
				"x": 0.2429340978,
				"y": -1.3179999438,
				"z": 1.6623015658,
				"element": "C" 
			},
			{
				"x": -1.0100480005,
				"y": 1.1056435131,
				"z": 5.2901976844,
				"element": "H" 
			},
			{
				"x": -1.6479488428,
				"y": 0.3664658939,
				"z": 3.1670670661,
				"element": "H" 
			},
			{
				"x": -1.0538752407,
				"y": 1.9281892819,
				"z": 2.5942646532,
				"element": "H" 
			},
			{
				"x": 1.2375679101,
				"y": 1.3829777212,
				"z": 3.4422620048,
				"element": "H" 
			},
			{
				"x": 0.6707127133,
				"y": -0.1786309688,
				"z": 4.0163272429,
				"element": "H" 
			},
			{
				"x": 0.873731898,
				"y": 1.8905521853,
				"z": 1.1164723343,
				"element": "H" 
			},
			{
				"x": 2.030992223,
				"y": 0.7894528034,
				"z": 0.3765203641,
				"element": "H" 
			},
			{
				"x": 0.1268466069,
				"y": 1.2340652148,
				"z": -1.1388094084,
				"element": "H" 
			},
			{
				"x": -1.0160598991,
				"y": 0.674115434,
				"z": 0.0860747746,
				"element": "H" 
			},
			{
				"x": -1.8832981928,
				"y": -1.2817685344,
				"z": -1.0204802578,
				"element": "H" 
			},
			{
				"x": -0.7455279886,
				"y": -2.3652184343,
				"z": -1.8337860824,
				"element": "H" 
			},
			{
				"x": -3.2441053407,
				"y": -0.0201538257,
				"z": -2.8050439073,
				"element": "H" 
			},
			{
				"x": 0.1624253362,
				"y": 0.7007396949,
				"z": -5.7579466208,
				"element": "H" 
			},
			{
				"x": 0.981711459,
				"y": -0.6341124849,
				"z": -3.6274014702,
				"element": "H" 
			},
			{
				"x": 0.2391152175,
				"y": -2.7639990263,
				"z": 0.0562527014,
				"element": "H" 
			},
			{
				"x": 1.7438335308,
				"y": -1.8617149141,
				"z": 0.2308437097,
				"element": "H" 
			},
			{
				"x": -0.8612496179,
				"y": -1.2787709776,
				"z": 1.7191144143,
				"element": "H" 
			},
			{
				"x": 0.5673823337,
				"y": -2.0646757171,
				"z": 2.4005746095,
				"element": "H" 
			}
		],
		 "valence_orbital": [ 
			{
				"type": "occ",
				"energy": -0.27482,
				"method": "rhf"
			},
			{
				"type": "occ",
				"energy": -0.2426,
				"method": "rhf"
			},
			{
				"type": "occ",
				"energy": -0.23056,
				"method": "rhf"
			},
			{
				"type": "occ",
				"energy": -0.20704,
				"method": "rhf"
			},
			{
				"type": "occ",
				"energy": -0.1956,
				"method": "rhf"
			},
			{
				"type": "unocc",
				"energy": -0.00622,
				"method": "rhf"
			},
			{
				"type": "unocc",
				"energy": 0.03643,
				"method": "rhf"
			},
			{
				"type": "unocc",
				"energy": 0.05745,
				"method": "rhf"
			},
			{
				"type": "unocc",
				"energy": 0.07163,
				"method": "rhf"
			},
			{
				"type": "unocc",
				"energy": 0.07567,
				"method": "rhf"
			}
		],
		"cosmo_sigma_profile": { 
			"-0.025": 0.0,
			"-0.024": 0.0,
			"-0.023": 0.0,
			"-0.022": 0.0,
			"-0.021": 0.0,
			"-0.02": 0.0,
			"-0.019": 0.0,
			"-0.018": 0.0,
			"-0.017": 0.0,
			"-0.016": 0.0,
			"-0.015": 0.937588536191,
			"-0.014": 0.692281980372,
			"-0.013": 0.969965061142,
			"-0.012": 1.2815924099,
			"-0.011": 1.27539069488,
			"-0.01": 0.416010813023,
			"-0.009": 0.961934209016,
			"-0.008": 3.06689255388,
			"-0.007": 4.87842073123,
			"-0.006": 5.15212758355,
			"-0.005": 11.439339185,
			"-0.004": 17.9265604232,
			"-0.003": 30.8209930189,
			"-0.002": 41.3316372434,
			"-0.001": 31.893357564,
			"0.0": 21.5929990364,
			"0.001": 15.6247861068,
			"0.002": 14.1924312517,
			"0.003": 13.5923016858,
			"0.004": 14.5580187324,
			"0.005": 17.4806883547,
			"0.006": 6.44422199197,
			"0.007": 3.02961883168,
			"0.008": 2.84541870633,
			"0.009": 1.93367322184,
			"0.01": 2.94056826311,
			"0.011": 2.77487028019,
			"0.012": 2.26042587193,
			"0.013": 1.79827299244,
			"0.014": 2.94714833524,
			"0.015": 1.42395668093,
			"0.016": 0.0599852037087,
			"0.017": 0.0,
			"0.018": 0.0,
			"0.019": 0.0,
			"0.02": 0.0,
			"0.021": 0.0,
			"0.022": 0.0,
			"0.023": 0.0,
			"0.024": 0.0,
			"0.025": 0.0
		}
	}
}
