{
	 "smiles": "CC(C)C1=C(C=NN1C1=NC=C(C=C1)C(F)(F)F)C(O)=O", 
	 "Tm": 442.15, 
	 "num_atms": 33, 
	 "gaussian": { 
		 "optdone": 1, 
		 "sigma_profile": "yes", 
		 "theory": "DFT", 
		 "functional": "B3LYP", 
		 "basiset": "6-31G**", 
		 "properties": { 
			 "R2extent": 9142.9121, 
			 "electric_dipole_moment_norm": 4.00301338619, 
			 "electric_quadrupole_moment_norm": 29.2915182157, 
			 "total_energy": -1116.83858573, 
			 "HOMO_LUMO_gap": 0.18678, 
			 "cosmo_polarized_energy": -15.05, 
			 "cosmo_cavitation_energy": 38.11, 
			 "cosmo_dispersion_energy": -26.59, 
			 "cosmo_repulsion_energy": 1.95, 
			 "cosmo_total_nonelectrostatic_energy": 13.46, 
			 "SMD_solvation_energy": 7.88 
		},
		"coords": [
			{
				"x": -2.7715199118,
				"y": 0.8328649556,
				"z": 0.7030608276,
				"element": "C" 
			},
			{
				"x": -1.8265569072,
				"y": -0.2478958386,
				"z": 0.141039577,
				"element": "C" 
			},
			{
				"x": -2.3392738752,
				"y": -0.8528342775,
				"z": -1.182211947,
				"element": "C" 
			},
			{
				"x": -1.4815794477,
				"y": -1.3096124597,
				"z": 1.1687167941,
				"element": "C" 
			},
			{
				"x": -2.2565396515,
				"y": -1.962919281,
				"z": 2.1305213399,
				"element": "C" 
			},
			{
				"x": -1.3375912655,
				"y": -2.711333335,
				"z": 2.9134155195,
				"element": "C" 
			},
			{
				"x": -0.1012611881,
				"y": -2.5844923231,
				"z": 2.4863153754,
				"element": "N" 
			},
			{
				"x": -0.186408098,
				"y": -1.7298609985,
				"z": 1.4171770488,
				"element": "N" 
			},
			{
				"x": 1.0278507715,
				"y": -1.4370067914,
				"z": 0.7451967857,
				"element": "C" 
			},
			{
				"x": 0.9493701873,
				"y": -1.0609123465,
				"z": -0.5304731517,
				"element": "N" 
			},
			{
				"x": 2.0904222625,
				"y": -0.7912231673,
				"z": -1.1753525853,
				"element": "C" 
			},
			{
				"x": 3.3458926804,
				"y": -0.9082899863,
				"z": -0.5849831977,
				"element": "C" 
			},
			{
				"x": 3.4132955747,
				"y": -1.3195232862,
				"z": 0.7517797659,
				"element": "C" 
			},
			{
				"x": 2.240422041,
				"y": -1.5861446346,
				"z": 1.4389934111,
				"element": "C" 
			},
			{
				"x": 4.5977198706,
				"y": -0.5636246224,
				"z": -1.3412862554,
				"element": "C" 
			},
			{
				"x": 4.3976831518,
				"y": -0.575922619,
				"z": -2.6755797371,
				"element": "F" 
			},
			{
				"x": 5.0495496521,
				"y": 0.6682510952,
				"z": -1.01476042,
				"element": "F" 
			},
			{
				"x": 5.5943655405,
				"y": -1.4323668995,
				"z": -1.0641221997,
				"element": "F" 
			},
			{
				"x": -3.7050378636,
				"y": -1.9773559906,
				"z": 2.4463544884,
				"element": "C" 
			},
			{
				"x": -4.5795659973,
				"y": -1.7680549572,
				"z": 1.4228979087,
				"element": "O" 
			},
			{
				"x": -4.1251330609,
				"y": -2.2046321784,
				"z": 3.5570402774,
				"element": "O" 
			},
			{
				"x": -2.890728939,
				"y": 1.6287872226,
				"z": -0.0389431661,
				"element": "H" 
			},
			{
				"x": -3.7653799409,
				"y": 0.4476761516,
				"z": 0.9401651567,
				"element": "H" 
			},
			{
				"x": -2.3587388442,
				"y": 1.278868364,
				"z": 1.6126470638,
				"element": "H" 
			},
			{
				"x": -0.8878455292,
				"y": 0.2478141772,
				"z": -0.1098567012,
				"element": "H" 
			},
			{
				"x": -3.2940949937,
				"y": -1.3841883085,
				"z": -1.0745037044,
				"element": "H" 
			},
			{
				"x": -1.6086172075,
				"y": -1.5527596191,
				"z": -1.5930736633,
				"element": "H" 
			},
			{
				"x": -2.5048718307,
				"y": -0.0565717205,
				"z": -1.9146783487,
				"element": "H" 
			},
			{
				"x": -1.5730279761,
				"y": -3.3418495177,
				"z": 3.7595487974,
				"element": "H" 
			},
			{
				"x": 1.9958003794,
				"y": -0.4867521236,
				"z": -2.2135408733,
				"element": "H" 
			},
			{
				"x": 4.3744709805,
				"y": -1.4288689261,
				"z": 1.243345512,
				"element": "H" 
			},
			{
				"x": 2.2351818799,
				"y": -1.9111498286,
				"z": 2.4702606677,
				"element": "H" 
			},
			{
				"x": -4.105352444,
				"y": -1.7614159293,
				"z": 0.5796896336,
				"element": "H" 
			}
		],
		 "valence_orbital": [ 
			{
				"type": "occ",
				"energy": -0.30983,
				"method": "rhf"
			},
			{
				"type": "occ",
				"energy": -0.2962,
				"method": "rhf"
			},
			{
				"type": "occ",
				"energy": -0.27734,
				"method": "rhf"
			},
			{
				"type": "occ",
				"energy": -0.26813,
				"method": "rhf"
			},
			{
				"type": "occ",
				"energy": -0.25746,
				"method": "rhf"
			},
			{
				"type": "unocc",
				"energy": -0.07068,
				"method": "rhf"
			},
			{
				"type": "unocc",
				"energy": -0.05382,
				"method": "rhf"
			},
			{
				"type": "unocc",
				"energy": -0.01931,
				"method": "rhf"
			},
			{
				"type": "unocc",
				"energy": 0.00703,
				"method": "rhf"
			},
			{
				"type": "unocc",
				"energy": 0.04602,
				"method": "rhf"
			}
		],
		"cosmo_sigma_profile": { 
			"-0.025": 0.0,
			"-0.024": 0.0,
			"-0.023": 0.0,
			"-0.022": 0.0,
			"-0.021": 0.0,
			"-0.02": 0.0,
			"-0.019": 0.0,
			"-0.018": 0.0,
			"-0.017": 0.0,
			"-0.016": 0.0,
			"-0.015": 0.521407528285,
			"-0.014": 1.03790975386,
			"-0.013": 1.24516346671,
			"-0.012": 1.31624840885,
			"-0.011": 1.15093767655,
			"-0.01": 0.780573389173,
			"-0.009": 2.97238123503,
			"-0.008": 6.66897724277,
			"-0.007": 6.90069499278,
			"-0.006": 8.843707402,
			"-0.005": 8.39924402478,
			"-0.004": 19.1251373101,
			"-0.003": 24.2148628448,
			"-0.002": 30.7185332017,
			"-0.001": 34.4757619945,
			"0.0": 32.8619904623,
			"0.001": 22.0904417267,
			"0.002": 29.7881799808,
			"0.003": 23.9178027789,
			"0.004": 5.50793676914,
			"0.005": 6.61479746186,
			"0.006": 5.69330654123,
			"0.007": 3.55329614175,
			"0.008": 4.12939790307,
			"0.009": 3.76605491018,
			"0.01": 5.70003147087,
			"0.011": 6.30237783759,
			"0.012": 5.221139448,
			"0.013": 1.44564431254,
			"0.014": 0.0447213802153,
			"0.015": 0.0,
			"0.016": 0.0,
			"0.017": 0.0,
			"0.018": 0.0,
			"0.019": 0.0,
			"0.02": 0.0,
			"0.021": 0.0,
			"0.022": 0.0,
			"0.023": 0.0,
			"0.024": 0.0,
			"0.025": 0.0
		}
	}
}
