{
	 "smiles": "CC1=NC(=NO1)C1=CC(=CC=C1)C(O)=O", 
	 "Tm": 497.15, 
	 "num_atms": 23, 
	 "gaussian": { 
		 "optdone": 1, 
		 "sigma_profile": "yes", 
		 "theory": "DFT", 
		 "functional": "B3LYP", 
		 "basiset": "6-31G**", 
		 "properties": { 
			 "R2extent": 3983.8941, 
			 "electric_dipole_moment_norm": 4.91038503175, 
			 "electric_quadrupole_moment_norm": 26.1114283141, 
			 "total_energy": -721.041398305, 
			 "HOMO_LUMO_gap": 0.19328, 
			 "cosmo_polarized_energy": -16.47, 
			 "cosmo_cavitation_energy": 28.79, 
			 "cosmo_dispersion_energy": -21.28, 
			 "cosmo_repulsion_energy": 1.65, 
			 "cosmo_total_nonelectrostatic_energy": 9.16, 
			 "SMD_solvation_energy": 4.82 
		},
		"coords": [
			{
				"x": -4.3942281071,
				"y": -0.9882955645,
				"z": 1.9655816257,
				"element": "C" 
			},
			{
				"x": -3.0076852654,
				"y": -1.2602654211,
				"z": 1.5014651625,
				"element": "C" 
			},
			{
				"x": -2.155907913,
				"y": -0.4418705679,
				"z": 0.9573662171,
				"element": "N" 
			},
			{
				"x": -1.0549110319,
				"y": -1.2511935541,
				"z": 0.7464222223,
				"element": "C" 
			},
			{
				"x": -1.2158526279,
				"y": -2.4956888115,
				"z": 1.1359660952,
				"element": "N" 
			},
			{
				"x": -2.5237078681,
				"y": -2.507995425,
				"z": 1.6428895567,
				"element": "O" 
			},
			{
				"x": 0.1879813712,
				"y": -0.7587929544,
				"z": 0.1368692933,
				"element": "C" 
			},
			{
				"x": 0.2861658294,
				"y": 0.5889647219,
				"z": -0.2293035027,
				"element": "C" 
			},
			{
				"x": 1.460899483,
				"y": 1.0825638809,
				"z": -0.8068955214,
				"element": "C" 
			},
			{
				"x": 2.5506354574,
				"y": 0.222291633,
				"z": -0.9981964725,
				"element": "C" 
			},
			{
				"x": 2.452264361,
				"y": -1.121488665,
				"z": -0.6422295993,
				"element": "C" 
			},
			{
				"x": 1.2774337675,
				"y": -1.6159464166,
				"z": -0.0787802482,
				"element": "C" 
			},
			{
				"x": 1.6317433241,
				"y": 2.5190286871,
				"z": -1.2090470543,
				"element": "C" 
			},
			{
				"x": 0.4994782936,
				"y": 3.2524630428,
				"z": -1.3691419628,
				"element": "O" 
			},
			{
				"x": 2.7125262466,
				"y": 3.0283103321,
				"z": -1.3914802086,
				"element": "O" 
			},
			{
				"x": -4.4904327151,
				"y": -1.202111517,
				"z": 3.0343840706,
				"element": "H" 
			},
			{
				"x": -5.1094334282,
				"y": -1.622963445,
				"z": 1.433588036,
				"element": "H" 
			},
			{
				"x": -4.6347582768,
				"y": 0.05900066,
				"z": 1.7836533989,
				"element": "H" 
			},
			{
				"x": -0.5634458963,
				"y": 1.230760121,
				"z": -0.0148216245,
				"element": "H" 
			},
			{
				"x": 3.459841873,
				"y": 0.6293150531,
				"z": -1.4269982531,
				"element": "H" 
			},
			{
				"x": 3.2950231569,
				"y": -1.7870133155,
				"z": -0.8013118967,
				"element": "H" 
			},
			{
				"x": 1.1950586426,
				"y": -2.6604152401,
				"z": 0.202910824,
				"element": "H" 
			},
			{
				"x": -0.2808886766,
				"y": 2.6823427657,
				"z": -1.331990158,
				"element": "H" 
			}
		],
		 "valence_orbital": [ 
			{
				"type": "occ",
				"energy": -0.30892,
				"method": "rhf"
			},
			{
				"type": "occ",
				"energy": -0.30734,
				"method": "rhf"
			},
			{
				"type": "occ",
				"energy": -0.27971,
				"method": "rhf"
			},
			{
				"type": "occ",
				"energy": -0.27359,
				"method": "rhf"
			},
			{
				"type": "occ",
				"energy": -0.25865,
				"method": "rhf"
			},
			{
				"type": "unocc",
				"energy": -0.06537,
				"method": "rhf"
			},
			{
				"type": "unocc",
				"energy": -0.04749,
				"method": "rhf"
			},
			{
				"type": "unocc",
				"energy": -0.01949,
				"method": "rhf"
			},
			{
				"type": "unocc",
				"energy": 0.03183,
				"method": "rhf"
			},
			{
				"type": "unocc",
				"energy": 0.05962,
				"method": "rhf"
			}
		],
		"cosmo_sigma_profile": { 
			"-0.025": 0.0,
			"-0.024": 0.0,
			"-0.023": 0.0,
			"-0.022": 0.0,
			"-0.021": 0.0,
			"-0.02": 0.0,
			"-0.019": 0.319965660336,
			"-0.018": 0.89179332888,
			"-0.017": 1.26873697687,
			"-0.016": 0.554456729537,
			"-0.015": 1.22408937715,
			"-0.014": 0.864555722643,
			"-0.013": 1.07346695758,
			"-0.012": 0.886862206891,
			"-0.011": 1.14472063041,
			"-0.01": 0.839806192391,
			"-0.009": 0.928156661836,
			"-0.008": 2.27006014453,
			"-0.007": 11.4877497508,
			"-0.006": 14.1341731474,
			"-0.005": 14.5948217623,
			"-0.004": 15.2896562521,
			"-0.003": 17.8909294509,
			"-0.002": 14.1061958787,
			"-0.001": 15.5486083589,
			"0.0": 15.9074910353,
			"0.001": 17.8055677906,
			"0.002": 16.4759564815,
			"0.003": 7.64468682883,
			"0.004": 6.43745591165,
			"0.005": 4.68384588302,
			"0.006": 8.50663961325,
			"0.007": 6.54483395372,
			"0.008": 5.28679158626,
			"0.009": 5.96942890879,
			"0.01": 7.44861565523,
			"0.011": 7.43610747641,
			"0.012": 5.09833666332,
			"0.013": 1.13703998997,
			"0.014": 0.0,
			"0.015": 0.0,
			"0.016": 0.0,
			"0.017": 0.0,
			"0.018": 0.0,
			"0.019": 0.0,
			"0.02": 0.0,
			"0.021": 0.0,
			"0.022": 0.0,
			"0.023": 0.0,
			"0.024": 0.0,
			"0.025": 0.0
		}
	}
}
