{
	 "smiles": "FC1=C(C=CC=C1)C1CC(=O)NC1=O", 
	 "Tm": 371.15, 
	 "num_atms": 22, 
	 "gaussian": { 
		 "optdone": 1, 
		 "sigma_profile": "yes", 
		 "theory": "DFT", 
		 "functional": "B3LYP", 
		 "basiset": "6-31G**", 
		 "properties": { 
			 "R2extent": 3171.1261, 
			 "electric_dipole_moment_norm": 2.02272387636, 
			 "electric_quadrupole_moment_norm": 10.7456668746, 
			 "total_energy": -690.950926687, 
			 "HOMO_LUMO_gap": 0.22188, 
			 "cosmo_polarized_energy": -13.64, 
			 "cosmo_cavitation_energy": 26.77, 
			 "cosmo_dispersion_energy": -19.46, 
			 "cosmo_repulsion_energy": 1.51, 
			 "cosmo_total_nonelectrostatic_energy": 8.82, 
			 "SMD_solvation_energy": 6.21 
		},
		"coords": [
			{
				"x": 2.4439457953,
				"y": 0.8241752499,
				"z": -1.915130526,
				"element": "F" 
			},
			{
				"x": 1.9295503206,
				"y": 1.4461126861,
				"z": -0.8233161319,
				"element": "C" 
			},
			{
				"x": 1.3756771068,
				"y": 0.6483831392,
				"z": 0.181972634,
				"element": "C" 
			},
			{
				"x": 0.8527168021,
				"y": 1.3086534575,
				"z": 1.3004147463,
				"element": "C" 
			},
			{
				"x": 0.8822628319,
				"y": 2.7026776385,
				"z": 1.3888111924,
				"element": "C" 
			},
			{
				"x": 1.4399437838,
				"y": 3.4638436265,
				"z": 0.3613458015,
				"element": "C" 
			},
			{
				"x": 1.9741747889,
				"y": 2.8308667467,
				"z": -0.7624789317,
				"element": "C" 
			},
			{
				"x": 1.366507378,
				"y": -0.8538910977,
				"z": -0.0256224778,
				"element": "C" 
			},
			{
				"x": 0.4663985899,
				"y": -1.3510077686,
				"z": -1.1863211141,
				"element": "C" 
			},
			{
				"x": -0.2161796154,
				"y": -2.609366853,
				"z": -0.6639776789,
				"element": "C" 
			},
			{
				"x": -0.9032488489,
				"y": -3.3988285776,
				"z": -1.2717158449,
				"element": "O" 
			},
			{
				"x": 0.0773561507,
				"y": -2.6855099418,
				"z": 0.6980470519,
				"element": "N" 
			},
			{
				"x": 0.9188239871,
				"y": -1.6907436275,
				"z": 1.1828780009,
				"element": "C" 
			},
			{
				"x": 1.2463153303,
				"y": -1.5668560155,
				"z": 2.3437332565,
				"element": "O" 
			},
			{
				"x": 0.4438860473,
				"y": 0.7255957856,
				"z": 2.1170880352,
				"element": "H" 
			},
			{
				"x": 0.4719794155,
				"y": 3.19132228,
				"z": 2.2669568937,
				"element": "H" 
			},
			{
				"x": 1.4645726332,
				"y": 4.5470200278,
				"z": 0.4306158509,
				"element": "H" 
			},
			{
				"x": 2.4189342464,
				"y": 3.3851472265,
				"z": -1.5817598416,
				"element": "H" 
			},
			{
				"x": 2.3985311282,
				"y": -1.1729433834,
				"z": -0.2247933651,
				"element": "H" 
			},
			{
				"x": 1.0114754984,
				"y": -1.5668961379,
				"z": -2.1065574879,
				"element": "H" 
			},
			{
				"x": -0.3122702695,
				"y": -0.6215544192,
				"z": -1.4330726666,
				"element": "H" 
			},
			{
				"x": -0.2968531005,
				"y": -3.4124000422,
				"z": 1.2953826033,
				"element": "H" 
			}
		],
		 "valence_orbital": [ 
			{
				"type": "occ",
				"energy": -0.29745,
				"method": "rhf"
			},
			{
				"type": "occ",
				"energy": -0.29259,
				"method": "rhf"
			},
			{
				"type": "occ",
				"energy": -0.2698,
				"method": "rhf"
			},
			{
				"type": "occ",
				"energy": -0.25836,
				"method": "rhf"
			},
			{
				"type": "occ",
				"energy": -0.25018,
				"method": "rhf"
			},
			{
				"type": "unocc",
				"energy": -0.0283,
				"method": "rhf"
			},
			{
				"type": "unocc",
				"energy": -0.01782,
				"method": "rhf"
			},
			{
				"type": "unocc",
				"energy": -0.00827,
				"method": "rhf"
			},
			{
				"type": "unocc",
				"energy": 0.02168,
				"method": "rhf"
			},
			{
				"type": "unocc",
				"energy": 0.07583,
				"method": "rhf"
			}
		],
		"cosmo_sigma_profile": { 
			"-0.025": 0.0,
			"-0.024": 0.0,
			"-0.023": 0.0,
			"-0.022": 0.0,
			"-0.021": 0.0,
			"-0.02": 0.0,
			"-0.019": 0.0,
			"-0.018": 0.0,
			"-0.017": 0.271060868306,
			"-0.016": 1.30106448147,
			"-0.015": 1.10261227039,
			"-0.014": 1.01750464344,
			"-0.013": 0.81449710083,
			"-0.012": 0.796310653976,
			"-0.011": 0.899295029989,
			"-0.01": 0.75763945822,
			"-0.009": 2.17484854395,
			"-0.008": 6.03094618548,
			"-0.007": 10.9074337187,
			"-0.006": 12.7501110574,
			"-0.005": 14.5171083701,
			"-0.004": 16.4340306303,
			"-0.003": 13.2983312908,
			"-0.002": 13.5238180158,
			"-0.001": 8.9205844899,
			"0.0": 11.1201174984,
			"0.001": 12.4698081107,
			"0.002": 11.6452611742,
			"0.003": 13.1591195829,
			"0.004": 17.3225963978,
			"0.005": 9.25759870719,
			"0.006": 2.6715134569,
			"0.007": 2.35573382341,
			"0.008": 2.92473624216,
			"0.009": 3.1388116139,
			"0.01": 4.65559202081,
			"0.011": 8.10397766199,
			"0.012": 8.33896001209,
			"0.013": 1.29953089069,
			"0.014": 0.0,
			"0.015": 0.0,
			"0.016": 0.0,
			"0.017": 0.0,
			"0.018": 0.0,
			"0.019": 0.0,
			"0.02": 0.0,
			"0.021": 0.0,
			"0.022": 0.0,
			"0.023": 0.0,
			"0.024": 0.0,
			"0.025": 0.0
		}
	}
}
