{
	 "smiles": "CC1=C(C=CC=C1)C(O)CN", 
	 "Tm": 362.15, 
	 "num_atms": 24, 
	 "gaussian": { 
		 "optdone": 1, 
		 "sigma_profile": "yes", 
		 "theory": "DFT", 
		 "functional": "B3LYP", 
		 "basiset": "6-31G**", 
		 "properties": { 
			 "R2extent": 2002.5585, 
			 "electric_dipole_moment_norm": 1.07404566476, 
			 "electric_quadrupole_moment_norm": 8.77995602893, 
			 "total_energy": -480.758617885, 
			 "HOMO_LUMO_gap": 0.22817, 
			 "cosmo_polarized_energy": -10.42, 
			 "cosmo_cavitation_energy": 25.96, 
			 "cosmo_dispersion_energy": -18.96, 
			 "cosmo_repulsion_energy": 1.54, 
			 "cosmo_total_nonelectrostatic_energy": 8.55, 
			 "SMD_solvation_energy": 3.64 
		},
		"coords": [
			{
				"x": -2.4419437318,
				"y": 0.6333584695,
				"z": -0.7495176916,
				"element": "C" 
			},
			{
				"x": -1.0566871831,
				"y": 0.0260820778,
				"z": -0.7579283684,
				"element": "C" 
			},
			{
				"x": 0.0307314009,
				"y": 0.6463048388,
				"z": -0.0958972663,
				"element": "C" 
			},
			{
				"x": 1.2849038476,
				"y": 0.0242932643,
				"z": -0.1145855591,
				"element": "C" 
			},
			{
				"x": 1.4852946108,
				"y": -1.1835915797,
				"z": -0.7854664355,
				"element": "C" 
			},
			{
				"x": 0.4206121346,
				"y": -1.7886390854,
				"z": -1.4481276002,
				"element": "C" 
			},
			{
				"x": -0.8370108297,
				"y": -1.1837215948,
				"z": -1.4258957116,
				"element": "C" 
			},
			{
				"x": -0.1799004223,
				"y": 2.001031839,
				"z": 0.5698273008,
				"element": "C" 
			},
			{
				"x": -0.4757676247,
				"y": 3.0113018225,
				"z": -0.4115164217,
				"element": "O" 
			},
			{
				"x": 0.9538384467,
				"y": 2.520526045,
				"z": 1.4656937848,
				"element": "C" 
			},
			{
				"x": 1.2128043515,
				"y": 1.6349416099,
				"z": 2.6024750041,
				"element": "N" 
			},
			{
				"x": -3.1174283688,
				"y": 0.0710383653,
				"z": -1.3996789191,
				"element": "H" 
			},
			{
				"x": -2.8757229414,
				"y": 0.624505028,
				"z": 0.259072506,
				"element": "H" 
			},
			{
				"x": -2.4200247341,
				"y": 1.6757224974,
				"z": -1.0769028539,
				"element": "H" 
			},
			{
				"x": 2.1086529462,
				"y": 0.4676675159,
				"z": 0.4318716037,
				"element": "H" 
			},
			{
				"x": 2.4675760252,
				"y": -1.6474785669,
				"z": -0.7827270132,
				"element": "H" 
			},
			{
				"x": 0.5619177273,
				"y": -2.72848187,
				"z": -1.9747606583,
				"element": "H" 
			},
			{
				"x": -1.6705499888,
				"y": -1.6594976194,
				"z": -1.9370455933,
				"element": "H" 
			},
			{
				"x": -1.0889983462,
				"y": 1.9514173282,
				"z": 1.1849440665,
				"element": "H" 
			},
			{
				"x": 0.1624022197,
				"y": 2.8976236204,
				"z": -1.1290695072,
				"element": "H" 
			},
			{
				"x": 1.8746391044,
				"y": 2.5995052963,
				"z": 0.8726721967,
				"element": "H" 
			},
			{
				"x": 0.6723134994,
				"y": 3.5505995581,
				"z": 1.7377061174,
				"element": "H" 
			},
			{
				"x": 1.9409924722,
				"y": 2.0308244801,
				"z": 3.1910750366,
				"element": "H" 
			},
			{
				"x": 0.3813553844,
				"y": 1.5672666599,
				"z": 3.1855819825,
				"element": "H" 
			}
		],
		 "valence_orbital": [ 
			{
				"type": "occ",
				"energy": -0.31123,
				"method": "rhf"
			},
			{
				"type": "occ",
				"energy": -0.27033,
				"method": "rhf"
			},
			{
				"type": "occ",
				"energy": -0.245,
				"method": "rhf"
			},
			{
				"type": "occ",
				"energy": -0.2313,
				"method": "rhf"
			},
			{
				"type": "occ",
				"energy": -0.22967,
				"method": "rhf"
			},
			{
				"type": "unocc",
				"energy": -0.0015,
				"method": "rhf"
			},
			{
				"type": "unocc",
				"energy": 0.01081,
				"method": "rhf"
			},
			{
				"type": "unocc",
				"energy": 0.07737,
				"method": "rhf"
			},
			{
				"type": "unocc",
				"energy": 0.09432,
				"method": "rhf"
			},
			{
				"type": "unocc",
				"energy": 0.10687,
				"method": "rhf"
			}
		],
		"cosmo_sigma_profile": { 
			"-0.025": 0.0,
			"-0.024": 0.0,
			"-0.023": 0.0,
			"-0.022": 0.0,
			"-0.021": 0.0,
			"-0.02": 0.0,
			"-0.019": 0.0,
			"-0.018": 0.0,
			"-0.017": 0.0,
			"-0.016": 0.0,
			"-0.015": 0.326608696192,
			"-0.014": 1.03474120205,
			"-0.013": 0.460466431945,
			"-0.012": 0.600488773005,
			"-0.011": 1.11276842757,
			"-0.01": 1.90249787619,
			"-0.009": 3.84379638888,
			"-0.008": 3.81582126864,
			"-0.007": 4.35661226278,
			"-0.006": 5.05943546716,
			"-0.005": 10.0623376687,
			"-0.004": 18.5416852338,
			"-0.003": 19.4230417577,
			"-0.002": 17.5082410581,
			"-0.001": 18.5784900557,
			"0.0": 13.3772901863,
			"0.001": 13.8394592763,
			"0.002": 11.1727686957,
			"0.003": 8.7332831136,
			"0.004": 8.77777038768,
			"0.005": 9.04098606377,
			"0.006": 9.34277871978,
			"0.007": 6.02493051426,
			"0.008": 1.92968548931,
			"0.009": 1.9933988225,
			"0.01": 2.26765599919,
			"0.011": 2.06393753198,
			"0.012": 1.51219796862,
			"0.013": 1.66079124531,
			"0.014": 2.61437832399,
			"0.015": 0.762763774954,
			"0.016": 0.86377812287,
			"0.017": 0.307605708435,
			"0.018": 0.0,
			"0.019": 0.0,
			"0.02": 0.0,
			"0.021": 0.0,
			"0.022": 0.0,
			"0.023": 0.0,
			"0.024": 0.0,
			"0.025": 0.0
		}
	}
}
