{
	 "smiles": "CC1=CC(C(O)=O)=C(NS(C)(=O)=O)C=C1", 
	 "Tm": 469.15, 
	 "num_atms": 26, 
	 "gaussian": { 
		 "optdone": 1, 
		 "sigma_profile": "yes", 
		 "theory": "DFT", 
		 "functional": "B3LYP", 
		 "basiset": "6-31G**", 
		 "properties": { 
			 "R2extent": 4291.8367, 
			 "electric_dipole_moment_norm": 4.48924439188, 
			 "electric_quadrupole_moment_norm": 17.5151738216, 
			 "total_energy": -1103.36881578, 
			 "HOMO_LUMO_gap": 0.1849, 
			 "cosmo_polarized_energy": -21.37, 
			 "cosmo_cavitation_energy": 31.2, 
			 "cosmo_dispersion_energy": -22.89, 
			 "cosmo_repulsion_energy": 1.75, 
			 "cosmo_total_nonelectrostatic_energy": 10.06, 
			 "SMD_solvation_energy": 6.1 
		},
		"coords": [
			{
				"x": 3.2262208133,
				"y": -0.6776676312,
				"z": -1.7679686775,
				"element": "C" 
			},
			{
				"x": 2.0379500784,
				"y": -0.1366217714,
				"z": -1.0097787018,
				"element": "C" 
			},
			{
				"x": 2.0492036253,
				"y": -0.0161545044,
				"z": 0.3774712678,
				"element": "C" 
			},
			{
				"x": 0.9631751405,
				"y": 0.5072560463,
				"z": 1.0957553474,
				"element": "C" 
			},
			{
				"x": 1.1396581834,
				"y": 0.6033297859,
				"z": 2.5792298077,
				"element": "C" 
			},
			{
				"x": 0.5268402102,
				"y": 1.6613806314,
				"z": 3.2028825792,
				"element": "O" 
			},
			{
				"x": 1.7794401854,
				"y": -0.1816658726,
				"z": 3.2341325358,
				"element": "O" 
			},
			{
				"x": -0.2130971335,
				"y": 0.8820441353,
				"z": 0.4043621063,
				"element": "C" 
			},
			{
				"x": -1.3433858973,
				"y": 1.3532868181,
				"z": 1.1218969298,
				"element": "N" 
			},
			{
				"x": -2.9584708836,
				"y": 1.302495052,
				"z": 0.5934421565,
				"element": "S" 
			},
			{
				"x": -3.2979657521,
				"y": -0.4481894137,
				"z": 0.3196613035,
				"element": "C" 
			},
			{
				"x": -3.7157418837,
				"y": 1.7514518007,
				"z": 1.7582053143,
				"element": "O" 
			},
			{
				"x": -3.0503129389,
				"y": 1.980868581,
				"z": -0.6974030049,
				"element": "O" 
			},
			{
				"x": -0.2267277642,
				"y": 0.7819628436,
				"z": -0.9966306133,
				"element": "C" 
			},
			{
				"x": 0.8784833967,
				"y": 0.2835019585,
				"z": -1.677979951,
				"element": "C" 
			},
			{
				"x": 3.7014922983,
				"y": 0.102933128,
				"z": -2.3737331569,
				"element": "H" 
			},
			{
				"x": 2.931384308,
				"y": -1.481267012,
				"z": -2.4515267775,
				"element": "H" 
			},
			{
				"x": 3.9833225195,
				"y": -1.0765252821,
				"z": -1.0879243876,
				"element": "H" 
			},
			{
				"x": 2.9183814562,
				"y": -0.3258484076,
				"z": 0.9496116027,
				"element": "H" 
			},
			{
				"x": 0.3109322446,
				"y": 2.3543547581,
				"z": 2.5591640204,
				"element": "H" 
			},
			{
				"x": -1.3184899824,
				"y": 1.2410534371,
				"z": 2.1308888284,
				"element": "H" 
			},
			{
				"x": -2.5762464394,
				"y": -0.8448454238,
				"z": -0.3957789323,
				"element": "H" 
			},
			{
				"x": -3.2363462003,
				"y": -0.971618261,
				"z": 1.2743780597,
				"element": "H" 
			},
			{
				"x": -4.308806541,
				"y": -0.5115061817,
				"z": -0.086996057,
				"element": "H" 
			},
			{
				"x": -1.0986010436,
				"y": 1.1119115802,
				"z": -1.5479012374,
				"element": "H" 
			},
			{
				"x": 0.8340080001,
				"y": 0.2221792052,
				"z": -2.7626603623,
				"element": "H" 
			}
		],
		 "valence_orbital": [ 
			{
				"type": "occ",
				"energy": -0.32236,
				"method": "rhf"
			},
			{
				"type": "occ",
				"energy": -0.31664,
				"method": "rhf"
			},
			{
				"type": "occ",
				"energy": -0.2922,
				"method": "rhf"
			},
			{
				"type": "occ",
				"energy": -0.27116,
				"method": "rhf"
			},
			{
				"type": "occ",
				"energy": -0.24208,
				"method": "rhf"
			},
			{
				"type": "unocc",
				"energy": -0.05718,
				"method": "rhf"
			},
			{
				"type": "unocc",
				"energy": -0.02244,
				"method": "rhf"
			},
			{
				"type": "unocc",
				"energy": 0.02416,
				"method": "rhf"
			},
			{
				"type": "unocc",
				"energy": 0.04266,
				"method": "rhf"
			},
			{
				"type": "unocc",
				"energy": 0.05865,
				"method": "rhf"
			}
		],
		"cosmo_sigma_profile": { 
			"-0.025": 0.0,
			"-0.024": 0.0,
			"-0.023": 0.0,
			"-0.022": 0.0,
			"-0.021": 0.0,
			"-0.02": 0.0,
			"-0.019": 0.275300765313,
			"-0.018": 0.653642752292,
			"-0.017": 0.668150834501,
			"-0.016": 0.649116829594,
			"-0.015": 1.00902987169,
			"-0.014": 1.60974744121,
			"-0.013": 2.02761807268,
			"-0.012": 2.30740667689,
			"-0.011": 2.35605309221,
			"-0.01": 3.39197181441,
			"-0.009": 5.38301668492,
			"-0.008": 6.10173042917,
			"-0.007": 7.83061374931,
			"-0.006": 11.2279743157,
			"-0.005": 17.9197121589,
			"-0.004": 20.4409327017,
			"-0.003": 15.1503498473,
			"-0.002": 13.738869332,
			"-0.001": 13.7888152764,
			"0.0": 15.3099043842,
			"0.001": 11.2325350619,
			"0.002": 12.3219946255,
			"0.003": 13.3207977729,
			"0.004": 8.91683096719,
			"0.005": 4.64404991587,
			"0.006": 5.12721014012,
			"0.007": 5.53605475534,
			"0.008": 5.30755307439,
			"0.009": 8.29880802887,
			"0.01": 13.9269485327,
			"0.011": 13.7794046082,
			"0.012": 3.76206487329,
			"0.013": 0.41578444754,
			"0.014": 0.0,
			"0.015": 0.0,
			"0.016": 0.0,
			"0.017": 0.0,
			"0.018": 0.0,
			"0.019": 0.0,
			"0.02": 0.0,
			"0.021": 0.0,
			"0.022": 0.0,
			"0.023": 0.0,
			"0.024": 0.0,
			"0.025": 0.0
		}
	}
}
