{
	 "smiles": "CC(C)CC(C)(N)P(O)(O)=O", 
	 "Tm": 509.15, 
	 "num_atms": 27, 
	 "gaussian": { 
		 "optdone": 1, 
		 "sigma_profile": "yes", 
		 "theory": "DFT", 
		 "functional": "B3LYP", 
		 "basiset": "6-31G**", 
		 "properties": { 
			 "R2extent": 2653.2286, 
			 "electric_dipole_moment_norm": 3.80676077131, 
			 "electric_quadrupole_moment_norm": 14.9806693005, 
			 "total_energy": -860.142426601, 
			 "HOMO_LUMO_gap": 0.31143, 
			 "cosmo_polarized_energy": -17.21, 
			 "cosmo_cavitation_energy": 28.89, 
			 "cosmo_dispersion_energy": -20.59, 
			 "cosmo_repulsion_energy": 1.62, 
			 "cosmo_total_nonelectrostatic_energy": 9.93, 
			 "SMD_solvation_energy": 6.91 
		},
		"coords": [
			{
				"x": -2.5612594804,
				"y": 1.2001814527,
				"z": -0.7443964636,
				"element": "C" 
			},
			{
				"x": -1.4574399917,
				"y": 0.2497905141,
				"z": -0.2501913442,
				"element": "C" 
			},
			{
				"x": -1.2001109937,
				"y": -0.843178637,
				"z": -1.3011702792,
				"element": "C" 
			},
			{
				"x": -0.2001591957,
				"y": 1.0848109306,
				"z": 0.0967630279,
				"element": "C" 
			},
			{
				"x": 0.9178624468,
				"y": 0.5123517361,
				"z": 1.0040240717,
				"element": "C" 
			},
			{
				"x": 2.0040625785,
				"y": 1.5852725599,
				"z": 1.2026792523,
				"element": "C" 
			},
			{
				"x": 1.4726446316,
				"y": -0.7476489943,
				"z": 0.4394423343,
				"element": "N" 
			},
			{
				"x": 0.2973548848,
				"y": -0.0264558949,
				"z": 2.6799333866,
				"element": "P" 
			},
			{
				"x": -0.9932573441,
				"y": 0.9065916225,
				"z": 3.012553547,
				"element": "O" 
			},
			{
				"x": -0.3729971556,
				"y": -1.4540197871,
				"z": 2.3344746975,
				"element": "O" 
			},
			{
				"x": 1.3269141086,
				"y": 0.0013569491,
				"z": 3.7538616723,
				"element": "O" 
			},
			{
				"x": -2.8258159841,
				"y": 1.9361024592,
				"z": 0.0220279625,
				"element": "H" 
			},
			{
				"x": -2.2410972245,
				"y": 1.7473596773,
				"z": -1.6402442799,
				"element": "H" 
			},
			{
				"x": -3.4686456689,
				"y": 0.6449647082,
				"z": -1.0040868614,
				"element": "H" 
			},
			{
				"x": -1.8211922016,
				"y": -0.2340151631,
				"z": 0.6623186112,
				"element": "H" 
			},
			{
				"x": -0.4866914963,
				"y": -1.5936024742,
				"z": -0.9528522831,
				"element": "H" 
			},
			{
				"x": -2.1317649906,
				"y": -1.3621556579,
				"z": -1.5505452378,
				"element": "H" 
			},
			{
				"x": -0.8104037539,
				"y": -0.408076447,
				"z": -2.2310698114,
				"element": "H" 
			},
			{
				"x": 0.2837726574,
				"y": 1.3934602916,
				"z": -0.8439378674,
				"element": "H" 
			},
			{
				"x": -0.5317393354,
				"y": 2.0102156148,
				"z": 0.5784968747,
				"element": "H" 
			},
			{
				"x": 1.5918709283,
				"y": 2.4920531393,
				"z": 1.6571653484,
				"element": "H" 
			},
			{
				"x": 2.4382793888,
				"y": 1.8599093401,
				"z": 0.2344038549,
				"element": "H" 
			},
			{
				"x": 2.7965244715,
				"y": 1.2188468827,
				"z": 1.8605596902,
				"element": "H" 
			},
			{
				"x": 1.6063959592,
				"y": -0.6498520075,
				"z": -0.5645534599,
				"element": "H" 
			},
			{
				"x": 2.3904692109,
				"y": -0.9289870723,
				"z": 0.8429976754,
				"element": "H" 
			},
			{
				"x": -0.9122361157,
				"y": 1.236965103,
				"z": 3.9191060338,
				"element": "H" 
			},
			{
				"x": 0.1262596657,
				"y": -1.7867408463,
				"z": 1.5557398472,
				"element": "H" 
			}
		],
		 "valence_orbital": [ 
			{
				"type": "occ",
				"energy": -0.32249,
				"method": "rhf"
			},
			{
				"type": "occ",
				"energy": -0.31165,
				"method": "rhf"
			},
			{
				"type": "occ",
				"energy": -0.28481,
				"method": "rhf"
			},
			{
				"type": "occ",
				"energy": -0.27862,
				"method": "rhf"
			},
			{
				"type": "occ",
				"energy": -0.26462,
				"method": "rhf"
			},
			{
				"type": "unocc",
				"energy": 0.04681,
				"method": "rhf"
			},
			{
				"type": "unocc",
				"energy": 0.05904,
				"method": "rhf"
			},
			{
				"type": "unocc",
				"energy": 0.08467,
				"method": "rhf"
			},
			{
				"type": "unocc",
				"energy": 0.0944,
				"method": "rhf"
			},
			{
				"type": "unocc",
				"energy": 0.1113,
				"method": "rhf"
			}
		],
		"cosmo_sigma_profile": { 
			"-0.025": 0.0,
			"-0.024": 0.0,
			"-0.023": 0.0,
			"-0.022": 0.0,
			"-0.021": 0.0,
			"-0.02": 0.0,
			"-0.019": 0.206556377779,
			"-0.018": 0.869386082772,
			"-0.017": 0.80857751785,
			"-0.016": 0.873859398697,
			"-0.015": 0.622669175297,
			"-0.014": 0.430267658385,
			"-0.013": 1.05539723097,
			"-0.012": 0.862418679449,
			"-0.011": 1.9410235779,
			"-0.01": 3.78182410372,
			"-0.009": 4.1846619544,
			"-0.008": 4.56223346223,
			"-0.007": 4.54734127787,
			"-0.006": 4.93918410188,
			"-0.005": 6.53626410657,
			"-0.004": 12.4675276293,
			"-0.003": 16.8332954377,
			"-0.002": 25.6406193201,
			"-0.001": 21.1348010306,
			"0.0": 24.8467110667,
			"0.001": 20.8068095338,
			"0.002": 13.5959097061,
			"0.003": 3.33988781502,
			"0.004": 4.32589318962,
			"0.005": 3.98217048582,
			"0.006": 3.51933753395,
			"0.007": 4.63546661705,
			"0.008": 3.06031270174,
			"0.009": 5.37738371676,
			"0.01": 3.22843829102,
			"0.011": 3.29173742116,
			"0.012": 2.08807085142,
			"0.013": 1.48710827569,
			"0.014": 2.33912218263,
			"0.015": 6.04059917389,
			"0.016": 1.8955070772,
			"0.017": 0.0,
			"0.018": 0.0,
			"0.019": 0.0,
			"0.02": 0.0,
			"0.021": 0.0,
			"0.022": 0.0,
			"0.023": 0.0,
			"0.024": 0.0,
			"0.025": 0.0
		}
	}
}
