{
	 "smiles": "NC1=C(SC2=C1C(C1=CC=CO1)=C(C#N)C(N)=N2)C(=O)NC1=CC=C(Br)C=C1", 
	 "Tm": 531.15, 
	 "num_atms": 40, 
	 "gaussian": { 
		 "optdone": 1, 
		 "sigma_profile": "yes", 
		 "theory": "DFT", 
		 "functional": "B3LYP", 
		 "basiset": "6-31G**", 
		 "properties": { 
			 "R2extent": 18954.4557, 
			 "electric_dipole_moment_norm": 1.85204414094, 
			 "electric_quadrupole_moment_norm": 15.4386299907, 
			 "total_energy": -4125.04181271, 
			 "HOMO_LUMO_gap": 0.12059, 
			 "cosmo_polarized_energy": -21.2, 
			 "cosmo_cavitation_energy": 49.52, 
			 "cosmo_dispersion_energy": -35.67, 
			 "cosmo_repulsion_energy": 2.63, 
			 "cosmo_total_nonelectrostatic_energy": 16.48, 
			 "SMD_solvation_energy": 6.71 
		},
		"coords": [
			{
				"x": -2.1936867147,
				"y": 0.375885904,
				"z": -0.3951588327,
				"element": "N" 
			},
			{
				"x": -0.911470706,
				"y": 0.4944641198,
				"z": 0.0320364853,
				"element": "C" 
			},
			{
				"x": 0.1440135157,
				"y": 0.8294293073,
				"z": -0.8251603702,
				"element": "C" 
			},
			{
				"x": 1.6558969606,
				"y": 1.1417888535,
				"z": 0.0548847155,
				"element": "S" 
			},
			{
				"x": 0.8830726763,
				"y": 0.7583223124,
				"z": 1.5665953918,
				"element": "C" 
			},
			{
				"x": -0.4842662035,
				"y": 0.3905988287,
				"z": 1.4228976708,
				"element": "C" 
			},
			{
				"x": -1.1832823797,
				"y": 0.089840357,
				"z": 2.6195240004,
				"element": "C" 
			},
			{
				"x": -2.5874361956,
				"y": -0.3225997997,
				"z": 2.6865430652,
				"element": "C" 
			},
			{
				"x": -3.6101593442,
				"y": 0.0060734279,
				"z": 3.5366412499,
				"element": "C" 
			},
			{
				"x": -4.7462682222,
				"y": -0.7632312557,
				"z": 3.1386513824,
				"element": "C" 
			},
			{
				"x": -4.3437600225,
				"y": -1.5167627296,
				"z": 2.0799085538,
				"element": "C" 
			},
			{
				"x": -3.0346516827,
				"y": -1.2630342326,
				"z": 1.784355948,
				"element": "O" 
			},
			{
				"x": -0.4698264556,
				"y": 0.1961367833,
				"z": 3.8333793078,
				"element": "C" 
			},
			{
				"x": -1.0383615471,
				"y": -0.1174023379,
				"z": 5.1011547979,
				"element": "C" 
			},
			{
				"x": -1.3888856233,
				"y": -0.341992409,
				"z": 6.1905035782,
				"element": "N" 
			},
			{
				"x": 0.9098041028,
				"y": 0.5928500182,
				"z": 3.8299040718,
				"element": "C" 
			},
			{
				"x": 1.6015156723,
				"y": 0.7184933103,
				"z": 4.9906166414,
				"element": "N" 
			},
			{
				"x": 1.5700180774,
				"y": 0.8541353346,
				"z": 2.7001842142,
				"element": "N" 
			},
			{
				"x": -0.0377364556,
				"y": 1.030618181,
				"z": -2.2533410094,
				"element": "C" 
			},
			{
				"x": -1.1679119878,
				"y": 1.0725729174,
				"z": -2.7720651355,
				"element": "O" 
			},
			{
				"x": 1.0583678488,
				"y": 1.2640043147,
				"z": -3.0826955923,
				"element": "N" 
			},
			{
				"x": 2.3575882823,
				"y": 0.6993971767,
				"z": -3.0535931263,
				"element": "C" 
			},
			{
				"x": 2.6063853788,
				"y": -0.5845601831,
				"z": -2.547547551,
				"element": "C" 
			},
			{
				"x": 3.8941109504,
				"y": -1.1164634605,
				"z": -2.5745557542,
				"element": "C" 
			},
			{
				"x": 4.9328519102,
				"y": -0.3766234137,
				"z": -3.1362494347,
				"element": "C" 
			},
			{
				"x": 6.6954160369,
				"y": -1.1134438936,
				"z": -3.1902145701,
				"element": "Br" 
			},
			{
				"x": 4.701276282,
				"y": 0.8929670347,
				"z": -3.6636307233,
				"element": "C" 
			},
			{
				"x": 3.4170057976,
				"y": 1.4294572308,
				"z": -3.6109852457,
				"element": "C" 
			},
			{
				"x": -2.8202609021,
				"y": -0.2268103916,
				"z": 0.1117988873,
				"element": "H" 
			},
			{
				"x": -2.30747336,
				"y": 0.5068470514,
				"z": -1.3978280472,
				"element": "H" 
			},
			{
				"x": -3.5601595014,
				"y": 0.7153497518,
				"z": 4.3486436997,
				"element": "H" 
			},
			{
				"x": -5.7287229172,
				"y": -0.7550018703,
				"z": 3.5873346258,
				"element": "H" 
			},
			{
				"x": -4.8287290041,
				"y": -2.2528873413,
				"z": 1.4578653871,
				"element": "H" 
			},
			{
				"x": 1.2043865162,
				"y": 0.4264488094,
				"z": 5.8690530304,
				"element": "H" 
			},
			{
				"x": 2.5911066657,
				"y": 0.8947210901,
				"z": 4.9244220663,
				"element": "H" 
			},
			{
				"x": 0.7394156457,
				"y": 1.5744173112,
				"z": -3.9933772839,
				"element": "H" 
			},
			{
				"x": 1.7908739042,
				"y": -1.1701128309,
				"z": -2.1375486011,
				"element": "H" 
			},
			{
				"x": 4.0828289675,
				"y": -2.1072187462,
				"z": -2.1773757887,
				"element": "H" 
			},
			{
				"x": 5.51551081,
				"y": 1.4612014176,
				"z": -4.0984936977,
				"element": "H" 
			},
			{
				"x": 3.230203224,
				"y": 2.4267240519,
				"z": -3.9982780071,
				"element": "H" 
			}
		],
		 "valence_orbital": [ 
			{
				"type": "occ",
				"energy": -0.26064,
				"method": "rhf"
			},
			{
				"type": "occ",
				"energy": -0.24723,
				"method": "rhf"
			},
			{
				"type": "occ",
				"energy": -0.23441,
				"method": "rhf"
			},
			{
				"type": "occ",
				"energy": -0.22421,
				"method": "rhf"
			},
			{
				"type": "occ",
				"energy": -0.19946,
				"method": "rhf"
			},
			{
				"type": "unocc",
				"energy": -0.07887,
				"method": "rhf"
			},
			{
				"type": "unocc",
				"energy": -0.04865,
				"method": "rhf"
			},
			{
				"type": "unocc",
				"energy": -0.02164,
				"method": "rhf"
			},
			{
				"type": "unocc",
				"energy": -0.01614,
				"method": "rhf"
			},
			{
				"type": "unocc",
				"energy": -0.00439,
				"method": "rhf"
			}
		],
		"cosmo_sigma_profile": { 
			"-0.025": 0.0,
			"-0.024": 0.0,
			"-0.023": 0.0,
			"-0.022": 0.0,
			"-0.021": 0.0,
			"-0.02": 0.0,
			"-0.019": 0.0,
			"-0.018": 0.0,
			"-0.017": 0.0,
			"-0.016": 0.0,
			"-0.015": 0.563280000034,
			"-0.014": 1.95510768871,
			"-0.013": 2.73832398022,
			"-0.012": 3.76343820754,
			"-0.011": 2.24233610386,
			"-0.01": 5.0321846953,
			"-0.009": 5.0299951468,
			"-0.008": 9.40888611171,
			"-0.007": 18.3048227684,
			"-0.006": 17.1130741017,
			"-0.005": 17.2952091992,
			"-0.004": 17.3573561278,
			"-0.003": 17.6827519476,
			"-0.002": 26.0554126562,
			"-0.001": 26.9882697469,
			"0.0": 32.6390313863,
			"0.001": 36.2376866981,
			"0.002": 37.7100655603,
			"0.003": 39.5074681356,
			"0.004": 28.1369089171,
			"0.005": 16.6879444065,
			"0.006": 6.74052316875,
			"0.007": 5.7537854575,
			"0.008": 4.72630796038,
			"0.009": 6.16795334679,
			"0.01": 5.14122291802,
			"0.011": 5.02132337164,
			"0.012": 4.82375692333,
			"0.013": 3.58175417153,
			"0.014": 0.815390851244,
			"0.015": 0.0,
			"0.016": 0.0,
			"0.017": 0.0,
			"0.018": 0.0,
			"0.019": 0.0,
			"0.02": 0.0,
			"0.021": 0.0,
			"0.022": 0.0,
			"0.023": 0.0,
			"0.024": 0.0,
			"0.025": 0.0
		}
	}
}
