{
	 "smiles": "OC(CC1COCCN1)C1=CC=CS1", 
	 "Tm": 383.15, 
	 "num_atms": 29, 
	 "gaussian": { 
		 "optdone": 1, 
		 "sigma_profile": "yes", 
		 "theory": "DFT", 
		 "functional": "B3LYP", 
		 "basiset": "6-31G**", 
		 "properties": { 
			 "R2extent": 3351.2646, 
			 "electric_dipole_moment_norm": 2.59294215902, 
			 "electric_quadrupole_moment_norm": 13.4776560952, 
			 "total_energy": -993.434438119, 
			 "HOMO_LUMO_gap": 0.21245, 
			 "cosmo_polarized_energy": -12.94, 
			 "cosmo_cavitation_energy": 31.26, 
			 "cosmo_dispersion_energy": -22.92, 
			 "cosmo_repulsion_energy": 1.76, 
			 "cosmo_total_nonelectrostatic_energy": 10.1, 
			 "SMD_solvation_energy": 3.7 
		},
		"coords": [
			{
				"x": -2.3850320728,
				"y": -0.7180955093,
				"z": -1.9783968129,
				"element": "O" 
			},
			{
				"x": -1.2830088688,
				"y": -0.2969757052,
				"z": -1.1606501191,
				"element": "C" 
			},
			{
				"x": 0.0270228506,
				"y": -0.2917711983,
				"z": -1.9792674602,
				"element": "C" 
			},
			{
				"x": 1.0612219251,
				"y": 0.7786415555,
				"z": -1.581900701,
				"element": "C" 
			},
			{
				"x": 1.5101804838,
				"y": 0.7502593146,
				"z": -0.096484632,
				"element": "C" 
			},
			{
				"x": 0.7108381078,
				"y": 1.605951802,
				"z": 0.7036239265,
				"element": "O" 
			},
			{
				"x": 0.8848359922,
				"y": 2.9814200246,
				"z": 0.3676933753,
				"element": "C" 
			},
			{
				"x": 1.1924593992,
				"y": 3.1692981071,
				"z": -1.1297890795,
				"element": "C" 
			},
			{
				"x": 0.50048333,
				"y": 2.111584272,
				"z": -1.8560387726,
				"element": "N" 
			},
			{
				"x": -1.2220054501,
				"y": -1.0954210165,
				"z": 0.1184415323,
				"element": "C" 
			},
			{
				"x": -1.5172338362,
				"y": -0.688812283,
				"z": 1.3915013958,
				"element": "C" 
			},
			{
				"x": -1.4343157883,
				"y": -1.7333553404,
				"z": 2.3636462556,
				"element": "C" 
			},
			{
				"x": -1.083577449,
				"y": -2.9367354473,
				"z": 1.8213149787,
				"element": "C" 
			},
			{
				"x": -0.8271336912,
				"y": -2.8095313157,
				"z": 0.1080851233,
				"element": "S" 
			},
			{
				"x": -2.3109508945,
				"y": -1.673181754,
				"z": -2.1089750656,
				"element": "H" 
			},
			{
				"x": -1.5101199502,
				"y": 0.7381708573,
				"z": -0.8939658989,
				"element": "H" 
			},
			{
				"x": -0.2635206636,
				"y": -0.1026648468,
				"z": -3.0198761697,
				"element": "H" 
			},
			{
				"x": 0.5032581122,
				"y": -1.2811262822,
				"z": -1.9590997521,
				"element": "H" 
			},
			{
				"x": 1.9690077684,
				"y": 0.5855785809,
				"z": -2.1853022679,
				"element": "H" 
			},
			{
				"x": 2.5711796687,
				"y": 1.0366636545,
				"z": -0.0206837599,
				"element": "H" 
			},
			{
				"x": 1.4081131855,
				"y": -0.2531518785,
				"z": 0.3220032558,
				"element": "H" 
			},
			{
				"x": -0.0584289949,
				"y": 3.4712759762,
				"z": 0.6283221856,
				"element": "H" 
			},
			{
				"x": 1.6870601971,
				"y": 3.4275947133,
				"z": 0.977820234,
				"element": "H" 
			},
			{
				"x": 0.8199849767,
				"y": 4.1438371438,
				"z": -1.4619435048,
				"element": "H" 
			},
			{
				"x": 2.285785908,
				"y": 3.1716306355,
				"z": -1.2988845216,
				"element": "H" 
			},
			{
				"x": 0.4967897079,
				"y": 2.2912475142,
				"z": -2.8550089894,
				"element": "H" 
			},
			{
				"x": -1.7688359959,
				"y": 0.3386433255,
				"z": 1.6250091761,
				"element": "H" 
			},
			{
				"x": -1.6287763436,
				"y": -1.5909497028,
				"z": 3.4208029569,
				"element": "H" 
			},
			{
				"x": -0.9483816142,
				"y": -3.8878251969,
				"z": 2.3173031111,
				"element": "H" 
			}
		],
		 "valence_orbital": [ 
			{
				"type": "occ",
				"energy": -0.26281,
				"method": "rhf"
			},
			{
				"type": "occ",
				"energy": -0.24704,
				"method": "rhf"
			},
			{
				"type": "occ",
				"energy": -0.24464,
				"method": "rhf"
			},
			{
				"type": "occ",
				"energy": -0.22257,
				"method": "rhf"
			},
			{
				"type": "occ",
				"energy": -0.22126,
				"method": "rhf"
			},
			{
				"type": "unocc",
				"energy": -0.00881,
				"method": "rhf"
			},
			{
				"type": "unocc",
				"energy": 0.02977,
				"method": "rhf"
			},
			{
				"type": "unocc",
				"energy": 0.06612,
				"method": "rhf"
			},
			{
				"type": "unocc",
				"energy": 0.07148,
				"method": "rhf"
			},
			{
				"type": "unocc",
				"energy": 0.08856,
				"method": "rhf"
			}
		],
		"cosmo_sigma_profile": { 
			"-0.025": 0.0,
			"-0.024": 0.0,
			"-0.023": 0.0,
			"-0.022": 0.0,
			"-0.021": 0.0,
			"-0.02": 0.0,
			"-0.019": 0.0,
			"-0.018": 0.0,
			"-0.017": 0.0,
			"-0.016": 0.0,
			"-0.015": 0.0,
			"-0.014": 0.423868842259,
			"-0.013": 0.650986969523,
			"-0.012": 1.20683511267,
			"-0.011": 1.35564476186,
			"-0.01": 2.04637864185,
			"-0.009": 2.24304609861,
			"-0.008": 3.54908769196,
			"-0.007": 5.19322507833,
			"-0.006": 7.53673430592,
			"-0.005": 8.90288191157,
			"-0.004": 17.9967448549,
			"-0.003": 36.2966861121,
			"-0.002": 31.0140404629,
			"-0.001": 21.3977981107,
			"0.0": 13.5140480346,
			"0.001": 10.6212447487,
			"0.002": 10.8706309011,
			"0.003": 11.0872463451,
			"0.004": 12.6278938989,
			"0.005": 11.609981128,
			"0.006": 8.8302294298,
			"0.007": 5.19305813946,
			"0.008": 3.62353716473,
			"0.009": 3.37268429998,
			"0.01": 3.53421085002,
			"0.011": 2.21567369082,
			"0.012": 2.98694855481,
			"0.013": 2.96952726213,
			"0.014": 2.46765870699,
			"0.015": 0.666220430829,
			"0.016": 0.0,
			"0.017": 0.0,
			"0.018": 0.0,
			"0.019": 0.0,
			"0.02": 0.0,
			"0.021": 0.0,
			"0.022": 0.0,
			"0.023": 0.0,
			"0.024": 0.0,
			"0.025": 0.0
		}
	}
}
