{
	 "smiles": "NC1=C(C=C(C=N1)[N+]([O-])=O)C(O)=O", 
	 "Tm": 513.15, 
	 "num_atms": 18, 
	 "gaussian": { 
		 "optdone": 1, 
		 "sigma_profile": "yes", 
		 "theory": "DFT", 
		 "functional": "B3LYP", 
		 "basiset": "6-31G**", 
		 "properties": { 
			 "R2extent": 2635.3083, 
			 "electric_dipole_moment_norm": 5.91119535458, 
			 "electric_quadrupole_moment_norm": 13.8073751546, 
			 "total_energy": -696.713041715, 
			 "HOMO_LUMO_gap": 0.17498, 
			 "cosmo_polarized_energy": -20.04, 
			 "cosmo_cavitation_energy": 23.93, 
			 "cosmo_dispersion_energy": -17.88, 
			 "cosmo_repulsion_energy": 1.41, 
			 "cosmo_total_nonelectrostatic_energy": 7.46, 
			 "SMD_solvation_energy": 6.44 
		},
		"coords": [
			{
				"x": -0.0565826149,
				"y": 1.6998285951,
				"z": -1.77566884,
				"element": "N" 
			},
			{
				"x": 0.1730605419,
				"y": 0.5449227615,
				"z": -1.0344560656,
				"element": "C" 
			},
			{
				"x": 0.0750121481,
				"y": 0.5412870502,
				"z": 0.38169869,
				"element": "C" 
			},
			{
				"x": 0.2705454049,
				"y": -0.67145101,
				"z": 1.0358472542,
				"element": "C" 
			},
			{
				"x": 0.6163724259,
				"y": -1.7879710241,
				"z": 0.2835149156,
				"element": "C" 
			},
			{
				"x": 0.7680901221,
				"y": -1.6738981947,
				"z": -1.0995125705,
				"element": "C" 
			},
			{
				"x": 0.5353160507,
				"y": -0.5342593448,
				"z": -1.7461868637,
				"element": "N" 
			},
			{
				"x": 0.8439402835,
				"y": -3.0759691445,
				"z": 0.937178949,
				"element": "N" 
			},
			{
				"x": 1.1572895337,
				"y": -4.0260690194,
				"z": 0.2193954691,
				"element": "O" 
			},
			{
				"x": 0.7078277095,
				"y": -3.1243218215,
				"z": 2.1582184546,
				"element": "O" 
			},
			{
				"x": -0.1961180911,
				"y": 1.749283995,
				"z": 1.2351879176,
				"element": "C" 
			},
			{
				"x": 0.0708901332,
				"y": 2.9586275474,
				"z": 0.6861704695,
				"element": "O" 
			},
			{
				"x": -0.6110666315,
				"y": 1.6617707834,
				"z": 2.3657777709,
				"element": "O" 
			},
			{
				"x": 0.0096036653,
				"y": 1.5219683803,
				"z": -2.7718280204,
				"element": "H" 
			},
			{
				"x": -0.8825923248,
				"y": 2.2320165185,
				"z": -1.5268231592,
				"element": "H" 
			},
			{
				"x": 0.1725040842,
				"y": -0.7284452202,
				"z": 2.1133832897,
				"element": "H" 
			},
			{
				"x": 1.073271001,
				"y": -2.5341015344,
				"z": -1.6864582345,
				"element": "H" 
			},
			{
				"x": 0.5036365582,
				"y": 2.8568806822,
				"z": -0.1811394264,
				"element": "H" 
			}
		],
		 "valence_orbital": [ 
			{
				"type": "occ",
				"energy": -0.31779,
				"method": "rhf"
			},
			{
				"type": "occ",
				"energy": -0.30762,
				"method": "rhf"
			},
			{
				"type": "occ",
				"energy": -0.30322,
				"method": "rhf"
			},
			{
				"type": "occ",
				"energy": -0.28712,
				"method": "rhf"
			},
			{
				"type": "occ",
				"energy": -0.27635,
				"method": "rhf"
			},
			{
				"type": "unocc",
				"energy": -0.10137,
				"method": "rhf"
			},
			{
				"type": "unocc",
				"energy": -0.08087,
				"method": "rhf"
			},
			{
				"type": "unocc",
				"energy": -0.03058,
				"method": "rhf"
			},
			{
				"type": "unocc",
				"energy": 0.02925,
				"method": "rhf"
			},
			{
				"type": "unocc",
				"energy": 0.0499,
				"method": "rhf"
			}
		],
		"cosmo_sigma_profile": { 
			"-0.025": 0.0,
			"-0.024": 0.0,
			"-0.023": 0.0,
			"-0.022": 0.0,
			"-0.021": 0.0,
			"-0.02": 0.0,
			"-0.019": 0.0,
			"-0.018": 0.0,
			"-0.017": 0.0,
			"-0.016": 0.495156373021,
			"-0.015": 1.9761697155,
			"-0.014": 3.00682152714,
			"-0.013": 3.5975235268,
			"-0.012": 4.14223919187,
			"-0.011": 3.97433762544,
			"-0.01": 2.94385214351,
			"-0.009": 2.57246870676,
			"-0.008": 5.14223335589,
			"-0.007": 4.17312664667,
			"-0.006": 7.503998761,
			"-0.005": 9.38496348477,
			"-0.004": 14.9772541867,
			"-0.003": 14.6876812371,
			"-0.002": 11.45551176,
			"-0.001": 9.45959273351,
			"0.0": 6.70001003943,
			"0.001": 6.57359759781,
			"0.002": 5.48371432734,
			"0.003": 6.0684564864,
			"0.004": 5.90796380144,
			"0.005": 7.52068260272,
			"0.006": 6.02582895675,
			"0.007": 11.6389501776,
			"0.008": 10.4071926398,
			"0.009": 8.55546009737,
			"0.01": 8.17472070976,
			"0.011": 5.97113440211,
			"0.012": 3.31675877341,
			"0.013": 0.431330622355,
			"0.014": 0.0,
			"0.015": 0.0,
			"0.016": 0.0,
			"0.017": 0.0,
			"0.018": 0.0,
			"0.019": 0.0,
			"0.02": 0.0,
			"0.021": 0.0,
			"0.022": 0.0,
			"0.023": 0.0,
			"0.024": 0.0,
			"0.025": 0.0
		}
	}
}
