{
	 "smiles": "CC(C)(C)OC(=O)N1CCC(CC1)NC(N)=O", 
	 "Tm": 491.15, 
	 "num_atms": 38, 
	 "gaussian": { 
		 "optdone": 1, 
		 "sigma_profile": "yes", 
		 "theory": "DFT", 
		 "functional": "B3LYP", 
		 "basiset": "6-31G**", 
		 "properties": { 
			 "R2extent": 6830.6098, 
			 "electric_dipole_moment_norm": 4.29914215397, 
			 "electric_quadrupole_moment_norm": 22.9760225348, 
			 "total_energy": -821.824701707, 
			 "HOMO_LUMO_gap": 0.28135, 
			 "cosmo_polarized_energy": -20.09, 
			 "cosmo_cavitation_energy": 38.81, 
			 "cosmo_dispersion_energy": -27.07, 
			 "cosmo_repulsion_energy": 2.14, 
			 "cosmo_total_nonelectrostatic_energy": 13.88, 
			 "SMD_solvation_energy": 7.32 
		},
		"coords": [
			{
				"x": 0.8063051412,
				"y": -3.3980690864,
				"z": -2.0177687878,
				"element": "C" 
			},
			{
				"x": -0.5529363617,
				"y": -2.6953522582,
				"z": -2.1003402777,
				"element": "C" 
			},
			{
				"x": -0.8749362972,
				"y": -2.3066985729,
				"z": -3.5459955035,
				"element": "C" 
			},
			{
				"x": -1.682600772,
				"y": -3.5403355965,
				"z": -1.501870606,
				"element": "C" 
			},
			{
				"x": -0.4887570551,
				"y": -1.3877784399,
				"z": -1.4271276161,
				"element": "O" 
			},
			{
				"x": -0.2153784835,
				"y": -1.3011527299,
				"z": -0.1023057139,
				"element": "C" 
			},
			{
				"x": -0.0124663092,
				"y": -2.2512308986,
				"z": 0.641464998,
				"element": "O" 
			},
			{
				"x": -0.185146879,
				"y": 0.00787146,
				"z": 0.3136197122,
				"element": "N" 
			},
			{
				"x": 0.0418711232,
				"y": 0.2996560767,
				"z": 1.7255527909,
				"element": "C" 
			},
			{
				"x": 1.169094622,
				"y": 1.3257141598,
				"z": 1.8992403398,
				"element": "C" 
			},
			{
				"x": 0.9077420969,
				"y": 2.5921820203,
				"z": 1.0677014492,
				"element": "C" 
			},
			{
				"x": 0.6558162346,
				"y": 2.2069914155,
				"z": -0.4041947194,
				"element": "C" 
			},
			{
				"x": -0.465028612,
				"y": 1.1650514084,
				"z": -0.5316165316,
				"element": "C" 
			},
			{
				"x": 2.0097046028,
				"y": 3.5365071713,
				"z": 1.2166989517,
				"element": "N" 
			},
			{
				"x": 1.9287840984,
				"y": 4.8962803652,
				"z": 1.4294440393,
				"element": "C" 
			},
			{
				"x": 0.677134009,
				"y": 5.4663984569,
				"z": 1.2025822742,
				"element": "N" 
			},
			{
				"x": 2.8854786684,
				"y": 5.553097566,
				"z": 1.8197726451,
				"element": "O" 
			},
			{
				"x": 1.5935269171,
				"y": -2.7501227918,
				"z": -2.416500119,
				"element": "H" 
			},
			{
				"x": 1.0490427812,
				"y": -3.6582888202,
				"z": -0.9875340401,
				"element": "H" 
			},
			{
				"x": 0.7834781141,
				"y": -4.3126924182,
				"z": -2.6192124503,
				"element": "H" 
			},
			{
				"x": -0.0886745991,
				"y": -1.6681500226,
				"z": -3.9595401158,
				"element": "H" 
			},
			{
				"x": -0.953886985,
				"y": -3.2036664088,
				"z": -4.1673020652,
				"element": "H" 
			},
			{
				"x": -1.8240248335,
				"y": -1.7650864492,
				"z": -3.5987031213,
				"element": "H" 
			},
			{
				"x": -1.4675508634,
				"y": -3.8016636232,
				"z": -0.4658221448,
				"element": "H" 
			},
			{
				"x": -1.7999182445,
				"y": -4.4604821723,
				"z": -2.0835642618,
				"element": "H" 
			},
			{
				"x": -2.6289004108,
				"y": -2.9913212307,
				"z": -1.5414824936,
				"element": "H" 
			},
			{
				"x": -0.8856407449,
				"y": 0.6953125002,
				"z": 2.1690175647,
				"element": "H" 
			},
			{
				"x": 0.2776498797,
				"y": -0.6392014687,
				"z": 2.2253953748,
				"element": "H" 
			},
			{
				"x": 1.2695174118,
				"y": 1.5909277334,
				"z": 2.957452146,
				"element": "H" 
			},
			{
				"x": 2.1170517964,
				"y": 0.8724320593,
				"z": 1.5789143398,
				"element": "H" 
			},
			{
				"x": 0.0040384213,
				"y": 3.0733118778,
				"z": 1.4656940875,
				"element": "H" 
			},
			{
				"x": 0.3989590915,
				"y": 3.0966656596,
				"z": -0.9928131991,
				"element": "H" 
			},
			{
				"x": 1.5829052905,
				"y": 1.8011874328,
				"z": -0.8269219809,
				"element": "H" 
			},
			{
				"x": -0.5742800143,
				"y": 0.8330710973,
				"z": -1.5616052773,
				"element": "H" 
			},
			{
				"x": -1.4230419979,
				"y": 1.6147011543,
				"z": -0.2227968305,
				"element": "H" 
			},
			{
				"x": 2.9200023302,
				"y": 3.1680878216,
				"z": 1.4545874765,
				"element": "H" 
			},
			{
				"x": 0.1113205365,
				"y": 5.0887491035,
				"z": 0.4553627406,
				"element": "H" 
			},
			{
				"x": 0.7283462961,
				"y": 6.4755964481,
				"z": 1.2058169253,
				"element": "H" 
			}
		],
		 "valence_orbital": [ 
			{
				"type": "occ",
				"energy": -0.27204,
				"method": "rhf"
			},
			{
				"type": "occ",
				"energy": -0.26311,
				"method": "rhf"
			},
			{
				"type": "occ",
				"energy": -0.25008,
				"method": "rhf"
			},
			{
				"type": "occ",
				"energy": -0.24353,
				"method": "rhf"
			},
			{
				"type": "occ",
				"energy": -0.23884,
				"method": "rhf"
			},
			{
				"type": "unocc",
				"energy": 0.04251,
				"method": "rhf"
			},
			{
				"type": "unocc",
				"energy": 0.0553,
				"method": "rhf"
			},
			{
				"type": "unocc",
				"energy": 0.07732,
				"method": "rhf"
			},
			{
				"type": "unocc",
				"energy": 0.08087,
				"method": "rhf"
			},
			{
				"type": "unocc",
				"energy": 0.08772,
				"method": "rhf"
			}
		],
		"cosmo_sigma_profile": { 
			"-0.025": 0.0,
			"-0.024": 0.0,
			"-0.023": 0.0,
			"-0.022": 0.0,
			"-0.021": 0.0,
			"-0.02": 0.0,
			"-0.019": 0.0,
			"-0.018": 0.0,
			"-0.017": 0.0,
			"-0.016": 0.0,
			"-0.015": 0.0,
			"-0.014": 0.0,
			"-0.013": 0.809791227337,
			"-0.012": 3.02111730364,
			"-0.011": 3.53495363873,
			"-0.01": 3.76689639989,
			"-0.009": 4.39538122047,
			"-0.008": 4.46227050618,
			"-0.007": 2.69513830659,
			"-0.006": 4.78790376909,
			"-0.005": 9.7891493141,
			"-0.004": 28.8526139982,
			"-0.003": 36.8216465566,
			"-0.002": 31.2774937299,
			"-0.001": 28.0256773719,
			"0.0": 31.8924729539,
			"0.001": 28.7361171109,
			"0.002": 11.5281027569,
			"0.003": 8.31468432233,
			"0.004": 8.48854460507,
			"0.005": 6.25161914306,
			"0.006": 5.69168038238,
			"0.007": 3.7890519425,
			"0.008": 3.47309467718,
			"0.009": 3.13742606753,
			"0.01": 2.82496369013,
			"0.011": 3.99109121227,
			"0.012": 3.28536869797,
			"0.013": 4.41043694131,
			"0.014": 5.88945834954,
			"0.015": 6.15427793342,
			"0.016": 0.672687797941,
			"0.017": 0.0,
			"0.018": 0.0,
			"0.019": 0.0,
			"0.02": 0.0,
			"0.021": 0.0,
			"0.022": 0.0,
			"0.023": 0.0,
			"0.024": 0.0,
			"0.025": 0.0
		}
	}
}
