{
	 "smiles": "FC(F)(F)C(F)(F)C(F)(F)C(F)(F)C(F)(F)C(F)(F)C(F)(F)C(F)(F)C(F)(F)C(F)(F)C(F)(F)C(F)(F)F", 
	 "Tm": 349.15, 
	 "num_atms": 38, 
	 "gaussian": { 
		 "optdone": 1, 
		 "sigma_profile": "yes", 
		 "theory": "DFT", 
		 "functional": "B3LYP", 
		 "basiset": "6-31G**", 
		 "properties": { 
			 "R2extent": 19400.2318, 
			 "electric_dipole_moment_norm": 0.311654889261, 
			 "electric_quadrupole_moment_norm": 0.561712097075, 
			 "total_energy": -3053.01350032, 
			 "HOMO_LUMO_gap": 0.34401, 
			 "cosmo_polarized_energy": -1.66, 
			 "cosmo_cavitation_energy": 50.55, 
			 "cosmo_dispersion_energy": -31.87, 
			 "cosmo_repulsion_energy": 1.91, 
			 "cosmo_total_nonelectrostatic_energy": 20.6, 
			 "SMD_solvation_energy": 16.25 
		},
		"coords": [
			{
				"x": -2.1529501062,
				"y": -5.1032008524,
				"z": -0.601275166,
				"element": "F" 
			},
			{
				"x": -2.5871588473,
				"y": -5.0871145608,
				"z": 0.6661893781,
				"element": "C" 
			},
			{
				"x": -2.5107187705,
				"y": -6.3250722833,
				"z": 1.1670381652,
				"element": "F" 
			},
			{
				"x": -3.8628375561,
				"y": -4.6894088986,
				"z": 0.6895918152,
				"element": "F" 
			},
			{
				"x": -1.7056116979,
				"y": -4.1426277249,
				"z": 1.5267847902,
				"element": "C" 
			},
			{
				"x": -0.5003945737,
				"y": -4.7299989852,
				"z": 1.6819508659,
				"element": "F" 
			},
			{
				"x": -2.301071167,
				"y": -4.0142534364,
				"z": 2.7349680642,
				"element": "F" 
			},
			{
				"x": -1.4925599497,
				"y": -2.7335500954,
				"z": 0.9025473365,
				"element": "C" 
			},
			{
				"x": -0.6109495297,
				"y": -2.8568939223,
				"z": -0.1146043851,
				"element": "F" 
			},
			{
				"x": -2.6767711387,
				"y": -2.2911024732,
				"z": 0.4133985828,
				"element": "F" 
			},
			{
				"x": -0.9650393663,
				"y": -1.678020538,
				"z": 1.9137565407,
				"element": "C" 
			},
			{
				"x": 0.0302482258,
				"y": -2.2464702198,
				"z": 2.6380291165,
				"element": "F" 
			},
			{
				"x": -1.9691276055,
				"y": -1.3311673281,
				"z": 2.7436941881,
				"element": "F" 
			},
			{
				"x": -0.3489145758,
				"y": -0.3724974534,
				"z": 1.308405315,
				"element": "C" 
			},
			{
				"x": -0.046094029,
				"y": 0.4135376622,
				"z": 2.3690038475,
				"element": "F" 
			},
			{
				"x": 0.7920656589,
				"y": -0.7034684104,
				"z": 0.6650696638,
				"element": "F" 
			},
			{
				"x": -1.2527520823,
				"y": 0.437201102,
				"z": 0.3432257336,
				"element": "C" 
			},
			{
				"x": -1.352510863,
				"y": -0.2318401122,
				"z": -0.8263988792,
				"element": "F" 
			},
			{
				"x": -2.4881192011,
				"y": 0.5251729122,
				"z": 0.8937689482,
				"element": "F" 
			},
			{
				"x": -0.8327775979,
				"y": 1.915903913,
				"z": 0.0466532944,
				"element": "C" 
			},
			{
				"x": -1.6771337235,
				"y": 2.3511471234,
				"z": -0.9180674349,
				"element": "F" 
			},
			{
				"x": -1.0557524505,
				"y": 2.6229918658,
				"z": 1.1769137558,
				"element": "F" 
			},
			{
				"x": 0.6184378612,
				"y": 2.2907509913,
				"z": -0.3992605379,
				"element": "C" 
			},
			{
				"x": 1.4861688576,
				"y": 1.8904271323,
				"z": 0.5592529896,
				"element": "F" 
			},
			{
				"x": 0.626545078,
				"y": 3.641846189,
				"z": -0.4616199518,
				"element": "F" 
			},
			{
				"x": 1.1016609935,
				"y": 1.7563877937,
				"z": -1.7768253807,
				"element": "C" 
			},
			{
				"x": 0.3393522249,
				"y": 2.3203761061,
				"z": -2.7388587458,
				"element": "F" 
			},
			{
				"x": 0.9406845466,
				"y": 0.4110295384,
				"z": -1.8112948572,
				"element": "F" 
			},
			{
				"x": 2.6038950783,
				"y": 2.0435974821,
				"z": -2.0708255296,
				"element": "C" 
			},
			{
				"x": 3.3497573808,
				"y": 1.2121584427,
				"z": -1.3120251428,
				"element": "F" 
			},
			{
				"x": 2.8870612359,
				"y": 3.3230232203,
				"z": -1.7318933309,
				"element": "F" 
			},
			{
				"x": 3.0577337847,
				"y": 1.8861611229,
				"z": -3.5551478822,
				"element": "C" 
			},
			{
				"x": 4.3952140263,
				"y": 2.0924589752,
				"z": -3.5566165411,
				"element": "F" 
			},
			{
				"x": 2.4632484595,
				"y": 2.8450990743,
				"z": -4.2968168005,
				"element": "F" 
			},
			{
				"x": 2.8027878854,
				"y": 0.5213167672,
				"z": -4.2390976544,
				"element": "C" 
			},
			{
				"x": 3.4427261606,
				"y": 0.4989636479,
				"z": -5.4129278562,
				"element": "F" 
			},
			{
				"x": 3.2562616529,
				"y": -0.4803535198,
				"z": -3.4762341555,
				"element": "F" 
			},
			{
				"x": 1.4928957207,
				"y": 0.3481897523,
				"z": -4.4605521596,
				"element": "F" 
			}
		],
		 "valence_orbital": [ 
			{
				"type": "occ",
				"energy": -0.40265,
				"method": "rhf"
			},
			{
				"type": "occ",
				"energy": -0.38613,
				"method": "rhf"
			},
			{
				"type": "occ",
				"energy": -0.37199,
				"method": "rhf"
			},
			{
				"type": "occ",
				"energy": -0.35383,
				"method": "rhf"
			},
			{
				"type": "occ",
				"energy": -0.34901,
				"method": "rhf"
			},
			{
				"type": "unocc",
				"energy": -0.005,
				"method": "rhf"
			},
			{
				"type": "unocc",
				"energy": 0.00561,
				"method": "rhf"
			},
			{
				"type": "unocc",
				"energy": 0.0108,
				"method": "rhf"
			},
			{
				"type": "unocc",
				"energy": 0.01927,
				"method": "rhf"
			},
			{
				"type": "unocc",
				"energy": 0.03732,
				"method": "rhf"
			}
		],
		"cosmo_sigma_profile": { 
			"-0.025": 0.0,
			"-0.024": 0.0,
			"-0.023": 0.0,
			"-0.022": 0.0,
			"-0.021": 0.0,
			"-0.02": 0.0,
			"-0.019": 0.0,
			"-0.018": 0.0,
			"-0.017": 0.0,
			"-0.016": 0.0,
			"-0.015": 0.0,
			"-0.014": 0.0,
			"-0.013": 0.0,
			"-0.012": 0.0,
			"-0.011": 0.0,
			"-0.01": 0.0,
			"-0.009": 0.0,
			"-0.008": 0.0,
			"-0.007": 0.00149202639884,
			"-0.006": 0.115331699561,
			"-0.005": 0.994106474124,
			"-0.004": 4.91840659154,
			"-0.003": 11.5186739989,
			"-0.002": 25.8181619276,
			"-0.001": 52.9925851749,
			"0.0": 143.801506751,
			"0.001": 162.696292642,
			"0.002": 4.16534773596,
			"0.003": 0.0,
			"0.004": 0.0,
			"0.005": 0.0,
			"0.006": 0.0,
			"0.007": 0.0,
			"0.008": 0.0,
			"0.009": 0.0,
			"0.01": 0.0,
			"0.011": 0.0,
			"0.012": 0.0,
			"0.013": 0.0,
			"0.014": 0.0,
			"0.015": 0.0,
			"0.016": 0.0,
			"0.017": 0.0,
			"0.018": 0.0,
			"0.019": 0.0,
			"0.02": 0.0,
			"0.021": 0.0,
			"0.022": 0.0,
			"0.023": 0.0,
			"0.024": 0.0,
			"0.025": 0.0
		}
	}
}
