{
	 "smiles": "CC1=C(N)C=C(C=C1)S(=O)(=O)NC(C)(C)C", 
	 "Tm": 398.15, 
	 "num_atms": 34, 
	 "gaussian": { 
		 "optdone": 1, 
		 "sigma_profile": "yes", 
		 "theory": "DFT", 
		 "functional": "B3LYP", 
		 "basiset": "6-31G**", 
		 "properties": { 
			 "R2extent": 5004.0771, 
			 "electric_dipole_moment_norm": 7.18837868299, 
			 "electric_quadrupole_moment_norm": 22.5984057637, 
			 "total_energy": -1088.10933627, 
			 "HOMO_LUMO_gap": 0.19, 
			 "cosmo_polarized_energy": -20.44, 
			 "cosmo_cavitation_energy": 36.58, 
			 "cosmo_dispersion_energy": -25.65, 
			 "cosmo_repulsion_energy": 1.95, 
			 "cosmo_total_nonelectrostatic_energy": 12.89, 
			 "SMD_solvation_energy": 5.2 
		},
		"coords": [
			{
				"x": 3.8011643406,
				"y": -2.7125314898,
				"z": -0.9019991392,
				"element": "C" 
			},
			{
				"x": 2.7086125653,
				"y": -1.7031358358,
				"z": -1.1461847689,
				"element": "C" 
			},
			{
				"x": 1.3536975099,
				"y": -2.1185932946,
				"z": -1.1736388235,
				"element": "C" 
			},
			{
				"x": 1.0307189842,
				"y": -3.4659302137,
				"z": -1.025963918,
				"element": "N" 
			},
			{
				"x": 0.3471970872,
				"y": -1.1734100723,
				"z": -1.418475754,
				"element": "C" 
			},
			{
				"x": 0.683267494,
				"y": 0.1614855749,
				"z": -1.6357881549,
				"element": "C" 
			},
			{
				"x": 2.0095457685,
				"y": 0.5901012144,
				"z": -1.6248187958,
				"element": "C" 
			},
			{
				"x": 3.0037700586,
				"y": -0.3579651715,
				"z": -1.3760495051,
				"element": "C" 
			},
			{
				"x": -0.6385088478,
				"y": 1.3493924765,
				"z": -1.9284395226,
				"element": "S" 
			},
			{
				"x": -1.7171378243,
				"y": 0.6271600907,
				"z": -2.6114948201,
				"element": "O" 
			},
			{
				"x": -0.0153945792,
				"y": 2.5421999294,
				"z": -2.5040108873,
				"element": "O" 
			},
			{
				"x": -1.3342310014,
				"y": 1.7774896142,
				"z": -0.4628602365,
				"element": "N" 
			},
			{
				"x": -0.7317595206,
				"y": 2.4770359431,
				"z": 0.7071533794,
				"element": "C" 
			},
			{
				"x": 0.0363678217,
				"y": 3.7281482607,
				"z": 0.2566634031,
				"element": "C" 
			},
			{
				"x": 0.181701904,
				"y": 1.5456177745,
				"z": 1.5284665779,
				"element": "C" 
			},
			{
				"x": -1.9392991771,
				"y": 2.9020841593,
				"z": 1.5639936805,
				"element": "C" 
			},
			{
				"x": 3.7232064895,
				"y": -3.170218083,
				"z": 0.0946276503,
				"element": "H" 
			},
			{
				"x": 4.7880434149,
				"y": -2.2486734045,
				"z": -0.9678137457,
				"element": "H" 
			},
			{
				"x": 3.7605331686,
				"y": -3.5284783932,
				"z": -1.6342205161,
				"element": "H" 
			},
			{
				"x": 1.6625265527,
				"y": -4.0195267324,
				"z": -0.4659290876,
				"element": "H" 
			},
			{
				"x": 0.0610944115,
				"y": -3.6610160739,
				"z": -0.8208995472,
				"element": "H" 
			},
			{
				"x": -0.6916866711,
				"y": -1.4844652774,
				"z": -1.4762504435,
				"element": "H" 
			},
			{
				"x": 2.2513743961,
				"y": 1.625254145,
				"z": -1.8334104156,
				"element": "H" 
			},
			{
				"x": 4.0452158734,
				"y": -0.0464168163,
				"z": -1.3713621736,
				"element": "H" 
			},
			{
				"x": -2.0175322353,
				"y": 1.0696207822,
				"z": -0.2127773669,
				"element": "H" 
			},
			{
				"x": 0.9255613507,
				"y": 3.4769612132,
				"z": -0.3236680761,
				"element": "H" 
			},
			{
				"x": 0.3513454858,
				"y": 4.2894323667,
				"z": 1.1421598617,
				"element": "H" 
			},
			{
				"x": -0.5944230549,
				"y": 4.3688799072,
				"z": -0.3633758056,
				"element": "H" 
			},
			{
				"x": 1.0552461087,
				"y": 1.231275804,
				"z": 0.9525977418,
				"element": "H" 
			},
			{
				"x": 0.5357961327,
				"y": 2.0584479574,
				"z": 2.4291572216,
				"element": "H" 
			},
			{
				"x": -0.359608971,
				"y": 0.6469978426,
				"z": 1.845131017,
				"element": "H" 
			},
			{
				"x": -2.5990825441,
				"y": 3.5658005104,
				"z": 0.9990038302,
				"element": "H" 
			},
			{
				"x": -1.5980316658,
				"y": 3.4258410777,
				"z": 2.4621619855,
				"element": "H" 
			},
			{
				"x": -2.5217908262,
				"y": 2.031634214,
				"z": 1.889315155,
				"element": "H" 
			}
		],
		 "valence_orbital": [ 
			{
				"type": "occ",
				"energy": -0.29008,
				"method": "rhf"
			},
			{
				"type": "occ",
				"energy": -0.2882,
				"method": "rhf"
			},
			{
				"type": "occ",
				"energy": -0.2719,
				"method": "rhf"
			},
			{
				"type": "occ",
				"energy": -0.24705,
				"method": "rhf"
			},
			{
				"type": "occ",
				"energy": -0.21582,
				"method": "rhf"
			},
			{
				"type": "unocc",
				"energy": -0.02582,
				"method": "rhf"
			},
			{
				"type": "unocc",
				"energy": -0.00054,
				"method": "rhf"
			},
			{
				"type": "unocc",
				"energy": 0.05914,
				"method": "rhf"
			},
			{
				"type": "unocc",
				"energy": 0.0645,
				"method": "rhf"
			},
			{
				"type": "unocc",
				"energy": 0.07813,
				"method": "rhf"
			}
		],
		"cosmo_sigma_profile": { 
			"-0.025": 0.0,
			"-0.024": 0.0,
			"-0.023": 0.0,
			"-0.022": 0.0,
			"-0.021": 0.0,
			"-0.02": 0.0,
			"-0.019": 0.0,
			"-0.018": 0.0,
			"-0.017": 0.0,
			"-0.016": 0.0,
			"-0.015": 0.0,
			"-0.014": 0.18046123166,
			"-0.013": 1.51688269414,
			"-0.012": 3.60965496839,
			"-0.011": 3.56289308311,
			"-0.01": 4.60097487962,
			"-0.009": 4.65435540492,
			"-0.008": 4.62494226207,
			"-0.007": 4.06835144561,
			"-0.006": 7.33981153686,
			"-0.005": 12.4007903627,
			"-0.004": 21.6509313263,
			"-0.003": 24.5593811353,
			"-0.002": 23.9894933822,
			"-0.001": 26.0081456211,
			"0.0": 31.8090751668,
			"0.001": 23.0650222119,
			"0.002": 11.6620881791,
			"0.003": 12.3725606347,
			"0.004": 12.0800863878,
			"0.005": 7.4856943568,
			"0.006": 5.18211616963,
			"0.007": 4.98412428341,
			"0.008": 5.52784469871,
			"0.009": 5.35901416003,
			"0.01": 4.65568112367,
			"0.011": 8.66278344773,
			"0.012": 8.58882282179,
			"0.013": 1.79264682847,
			"0.014": 0.118094443495,
			"0.015": 0.0,
			"0.016": 0.0,
			"0.017": 0.0,
			"0.018": 0.0,
			"0.019": 0.0,
			"0.02": 0.0,
			"0.021": 0.0,
			"0.022": 0.0,
			"0.023": 0.0,
			"0.024": 0.0,
			"0.025": 0.0
		}
	}
}
