{
	 "smiles": "NC(=N)NC(N)=S", 
	 "Tm": 445.15, 
	 "num_atms": 13, 
	 "gaussian": { 
		 "optdone": 1, 
		 "sigma_profile": "yes", 
		 "theory": "DFT", 
		 "functional": "B3LYP", 
		 "basiset": "6-31G**", 
		 "properties": { 
			 "R2extent": 1300.7869, 
			 "electric_dipole_moment_norm": 4.38262701356, 
			 "electric_quadrupole_moment_norm": 10.0112843007, 
			 "total_energy": -697.032858163, 
			 "HOMO_LUMO_gap": 0.18935, 
			 "cosmo_polarized_energy": -23.09, 
			 "cosmo_cavitation_energy": 18.62, 
			 "cosmo_dispersion_energy": -14.66, 
			 "cosmo_repulsion_energy": 1.21, 
			 "cosmo_total_nonelectrostatic_energy": 5.17, 
			 "SMD_solvation_energy": 1.65 
		},
		"coords": [
			{
				"x": 2.962537571,
				"y": -0.2479590288,
				"z": 0.9016473455,
				"element": "N" 
			},
			{
				"x": 1.7847591448,
				"y": -0.2983027558,
				"z": 1.585337679,
				"element": "C" 
			},
			{
				"x": 1.7490672101,
				"y": -0.3914446935,
				"z": 2.8639592513,
				"element": "N" 
			},
			{
				"x": 0.5948884523,
				"y": -0.3270405727,
				"z": 0.7915937783,
				"element": "N" 
			},
			{
				"x": 0.3362767064,
				"y": -0.0176746517,
				"z": -0.5205485624,
				"element": "C" 
			},
			{
				"x": -0.9683234011,
				"y": -0.239200787,
				"z": -0.8631914633,
				"element": "N" 
			},
			{
				"x": 1.4035721169,
				"y": 0.6275686232,
				"z": -1.6476170613,
				"element": "S" 
			},
			{
				"x": 2.9518852855,
				"y": 0.1631595835,
				"z": -0.0276076851,
				"element": "H" 
			},
			{
				"x": 3.7573379323,
				"y": -0.0621670594,
				"z": 1.4951559685,
				"element": "H" 
			},
			{
				"x": 0.8002426605,
				"y": -0.4789724929,
				"z": 3.2245122801,
				"element": "H" 
			},
			{
				"x": -0.2229059076,
				"y": -0.501617509,
				"z": 1.3614408258,
				"element": "H" 
			},
			{
				"x": -1.1897391544,
				"y": -0.1086932526,
				"z": -1.838691054,
				"element": "H" 
			},
			{
				"x": -1.5234986168,
				"y": -0.9188554033,
				"z": -0.3608913025,
				"element": "H" 
			}
		],
		 "valence_orbital": [ 
			{
				"type": "occ",
				"energy": -0.29177,
				"method": "rhf"
			},
			{
				"type": "occ",
				"energy": -0.26965,
				"method": "rhf"
			},
			{
				"type": "occ",
				"energy": -0.2455,
				"method": "rhf"
			},
			{
				"type": "occ",
				"energy": -0.234,
				"method": "rhf"
			},
			{
				"type": "occ",
				"energy": -0.22257,
				"method": "rhf"
			},
			{
				"type": "unocc",
				"energy": -0.03322,
				"method": "rhf"
			},
			{
				"type": "unocc",
				"energy": 0.03447,
				"method": "rhf"
			},
			{
				"type": "unocc",
				"energy": 0.06197,
				"method": "rhf"
			},
			{
				"type": "unocc",
				"energy": 0.0727,
				"method": "rhf"
			},
			{
				"type": "unocc",
				"energy": 0.08621,
				"method": "rhf"
			}
		],
		"cosmo_sigma_profile": { 
			"-0.025": 0.0,
			"-0.024": 0.0,
			"-0.023": 0.0,
			"-0.022": 0.0,
			"-0.021": 0.0,
			"-0.02": 0.0331120074018,
			"-0.019": 0.667016457652,
			"-0.018": 1.59761663729,
			"-0.017": 2.08845845735,
			"-0.016": 2.5057531783,
			"-0.015": 3.13656070117,
			"-0.014": 3.30615623049,
			"-0.013": 3.89822331496,
			"-0.012": 4.62003176433,
			"-0.011": 3.77656769781,
			"-0.01": 2.80771450445,
			"-0.009": 3.98481295103,
			"-0.008": 4.04954455129,
			"-0.007": 3.14118477741,
			"-0.006": 2.9772140874,
			"-0.005": 3.46832504462,
			"-0.004": 3.58158960321,
			"-0.003": 4.36371453166,
			"-0.002": 3.6645181361,
			"-0.001": 4.90983254224,
			"0.0": 6.82168502086,
			"0.001": 6.89836456999,
			"0.002": 6.02085841494,
			"0.003": 6.50201447618,
			"0.004": 8.35047660955,
			"0.005": 7.04806544689,
			"0.006": 6.10606216989,
			"0.007": 6.01611978726,
			"0.008": 6.89914039962,
			"0.009": 7.8926456909,
			"0.01": 6.46712456804,
			"0.011": 3.06057720328,
			"0.012": 1.56731763211,
			"0.013": 1.20460033447,
			"0.014": 1.43917625181,
			"0.015": 0.89335483127,
			"0.016": 1.07959925577,
			"0.017": 1.37033359397,
			"0.018": 1.05938381691,
			"0.019": 0.369762212122,
			"0.02": 0.0,
			"0.021": 0.0,
			"0.022": 0.0,
			"0.023": 0.0,
			"0.024": 0.0,
			"0.025": 0.0
		}
	}
}
