{
	 "smiles": "ClCC(=O)C1=CC2=C(CCC2)C=C1", 
	 "Tm": 325.65, 
	 "num_atms": 24, 
	 "gaussian": { 
		 "optdone": 1, 
		 "sigma_profile": "yes", 
		 "theory": "DFT", 
		 "functional": "B3LYP", 
		 "basiset": "6-31G**", 
		 "properties": { 
			 "R2extent": 4100.1262, 
			 "electric_dipole_moment_norm": 5.67443016522, 
			 "electric_quadrupole_moment_norm": 16.6220439363, 
			 "total_energy": -961.225999792, 
			 "HOMO_LUMO_gap": 0.18765, 
			 "cosmo_polarized_energy": -11.53, 
			 "cosmo_cavitation_energy": 28.74, 
			 "cosmo_dispersion_energy": -21.47, 
			 "cosmo_repulsion_energy": 1.72, 
			 "cosmo_total_nonelectrostatic_energy": 8.99, 
			 "SMD_solvation_energy": 4.37 
		},
		"coords": [
			{
				"x": -3.6941888538,
				"y": -0.5142656796,
				"z": -3.776353393,
				"element": "Cl" 
			},
			{
				"x": -2.6560489039,
				"y": -0.5411878169,
				"z": -2.318265769,
				"element": "C" 
			},
			{
				"x": -1.307567173,
				"y": 0.1646562261,
				"z": -2.5211797755,
				"element": "C" 
			},
			{
				"x": -1.0114072577,
				"y": 0.678861612,
				"z": -3.5824910903,
				"element": "O" 
			},
			{
				"x": -0.3802995802,
				"y": 0.1868009889,
				"z": -1.346246293,
				"element": "C" 
			},
			{
				"x": -0.6949177446,
				"y": -0.397481669,
				"z": -0.1051218629,
				"element": "C" 
			},
			{
				"x": 0.2283399679,
				"y": -0.3404271472,
				"z": 0.9336607391,
				"element": "C" 
			},
			{
				"x": 1.4646450889,
				"y": 0.2979918026,
				"z": 0.7515781494,
				"element": "C" 
			},
			{
				"x": 2.2801957689,
				"y": 0.2414522695,
				"z": 2.0247393845,
				"element": "C" 
			},
			{
				"x": 1.5798958693,
				"y": -0.8724516462,
				"z": 2.8442322066,
				"element": "C" 
			},
			{
				"x": 0.1118799295,
				"y": -0.8765481815,
				"z": 2.3460346545,
				"element": "C" 
			},
			{
				"x": 1.7830427608,
				"y": 0.8844555946,
				"z": -0.4742812684,
				"element": "C" 
			},
			{
				"x": 0.8613785325,
				"y": 0.824439702,
				"z": -1.5163982768,
				"element": "C" 
			},
			{
				"x": -2.4935319635,
				"y": -1.5871749526,
				"z": -2.0464824918,
				"element": "H" 
			},
			{
				"x": -3.2108030701,
				"y": -0.0619771906,
				"z": -1.5077111815,
				"element": "H" 
			},
			{
				"x": -1.6461262604,
				"y": -0.8980153504,
				"z": 0.0515119313,
				"element": "H" 
			},
			{
				"x": 2.2253875679,
				"y": 1.2075430539,
				"z": 2.5467158063,
				"element": "H" 
			},
			{
				"x": 3.3417796565,
				"y": 0.0398563161,
				"z": 1.8476687,
				"element": "H" 
			},
			{
				"x": 2.0431533639,
				"y": -1.8372780547,
				"z": 2.6100975346,
				"element": "H" 
			},
			{
				"x": 1.6625794753,
				"y": -0.7225476455,
				"z": 3.9239863784,
				"element": "H" 
			},
			{
				"x": -0.35110458,
				"y": -1.8676258562,
				"z": 2.3959557058,
				"element": "H" 
			},
			{
				"x": -0.5102001371,
				"y": -0.2053711205,
				"z": 2.9550096199,
				"element": "H" 
			},
			{
				"x": 2.7405396105,
				"y": 1.377146837,
				"z": -0.6214271105,
				"element": "H" 
			},
			{
				"x": 1.0788779325,
				"y": 1.2622479082,
				"z": -2.4846322978,
				"element": "H" 
			}
		],
		 "valence_orbital": [ 
			{
				"type": "occ",
				"energy": -0.2957,
				"method": "rhf"
			},
			{
				"type": "occ",
				"energy": -0.29509,
				"method": "rhf"
			},
			{
				"type": "occ",
				"energy": -0.26281,
				"method": "rhf"
			},
			{
				"type": "occ",
				"energy": -0.25881,
				"method": "rhf"
			},
			{
				"type": "occ",
				"energy": -0.24824,
				"method": "rhf"
			},
			{
				"type": "unocc",
				"energy": -0.06059,
				"method": "rhf"
			},
			{
				"type": "unocc",
				"energy": -0.01549,
				"method": "rhf"
			},
			{
				"type": "unocc",
				"energy": 0.02814,
				"method": "rhf"
			},
			{
				"type": "unocc",
				"energy": 0.03382,
				"method": "rhf"
			},
			{
				"type": "unocc",
				"energy": 0.08728,
				"method": "rhf"
			}
		],
		"cosmo_sigma_profile": { 
			"-0.025": 0.0,
			"-0.024": 0.0,
			"-0.023": 0.0,
			"-0.022": 0.0,
			"-0.021": 0.0,
			"-0.02": 0.0,
			"-0.019": 0.0,
			"-0.018": 0.0,
			"-0.017": 0.0,
			"-0.016": 0.0,
			"-0.015": 0.0,
			"-0.014": 0.0,
			"-0.013": 0.0,
			"-0.012": 0.0,
			"-0.011": 0.0,
			"-0.01": 0.0719393551594,
			"-0.009": 6.02919321644,
			"-0.008": 7.07624411231,
			"-0.007": 5.27550767091,
			"-0.006": 4.89586840571,
			"-0.005": 7.78870037179,
			"-0.004": 16.3872859784,
			"-0.003": 22.9015272104,
			"-0.002": 25.076946816,
			"-0.001": 23.7646025961,
			"0.0": 19.8848857849,
			"0.001": 13.9861797895,
			"0.002": 11.8441626197,
			"0.003": 12.870982351,
			"0.004": 15.251413225,
			"0.005": 8.61252622644,
			"0.006": 8.81313650611,
			"0.007": 3.38994323553,
			"0.008": 2.40584237713,
			"0.009": 2.48142934777,
			"0.01": 2.94602247408,
			"0.011": 3.85149003256,
			"0.012": 2.91064069972,
			"0.013": 1.46254568184,
			"0.014": 0.0863836574041,
			"0.015": 0.0,
			"0.016": 0.0,
			"0.017": 0.0,
			"0.018": 0.0,
			"0.019": 0.0,
			"0.02": 0.0,
			"0.021": 0.0,
			"0.022": 0.0,
			"0.023": 0.0,
			"0.024": 0.0,
			"0.025": 0.0
		}
	}
}
