{
	 "smiles": "NC(CO)C1=CC=C(Br)C=C1", 
	 "Tm": 363.15, 
	 "num_atms": 21, 
	 "gaussian": { 
		 "optdone": 1, 
		 "sigma_profile": "yes", 
		 "theory": "DFT", 
		 "functional": "B3LYP", 
		 "basiset": "6-31G**", 
		 "properties": { 
			 "R2extent": 5176.0913, 
			 "electric_dipole_moment_norm": 0.727118401638, 
			 "electric_quadrupole_moment_norm": 11.4958897316, 
			 "total_energy": -3012.24652424, 
			 "HOMO_LUMO_gap": 0.2115, 
			 "cosmo_polarized_energy": -10.65, 
			 "cosmo_cavitation_energy": 26.34, 
			 "cosmo_dispersion_energy": -19.59, 
			 "cosmo_repulsion_energy": 1.59, 
			 "cosmo_total_nonelectrostatic_energy": 8.33, 
			 "SMD_solvation_energy": 2.06 
		},
		"coords": [
			{
				"x": 2.5300075473,
				"y": -1.1159907676,
				"z": 0.3931255966,
				"element": "N" 
			},
			{
				"x": 1.787233201,
				"y": -0.1266203849,
				"z": -0.3819083224,
				"element": "C" 
			},
			{
				"x": 1.3738082046,
				"y": 1.0039079532,
				"z": 0.5857372234,
				"element": "C" 
			},
			{
				"x": 0.518740786,
				"y": 0.5365302187,
				"z": 1.6201687162,
				"element": "O" 
			},
			{
				"x": 0.5675509848,
				"y": -0.6401088589,
				"z": -1.1494188546,
				"element": "C" 
			},
			{
				"x": -0.2373970307,
				"y": -1.6727556622,
				"z": -0.6491461327,
				"element": "C" 
			},
			{
				"x": -1.379144074,
				"y": -2.0993596662,
				"z": -1.3312922213,
				"element": "C" 
			},
			{
				"x": -1.7208198286,
				"y": -1.4851810809,
				"z": -2.53362783,
				"element": "C" 
			},
			{
				"x": -3.2765994048,
				"y": -2.0654096461,
				"z": -3.4812852178,
				"element": "Br" 
			},
			{
				"x": -0.9382054236,
				"y": -0.4581277748,
				"z": -3.0605151765,
				"element": "C" 
			},
			{
				"x": 0.1961023276,
				"y": -0.0448061229,
				"z": -2.3634296465,
				"element": "C" 
			},
			{
				"x": 2.6358295794,
				"y": -1.9858032858,
				"z": -0.1204780435,
				"element": "H" 
			},
			{
				"x": 2.0244963092,
				"y": -1.3160994105,
				"z": 1.2525907265,
				"element": "H" 
			},
			{
				"x": 2.4716681726,
				"y": 0.3226251578,
				"z": -1.1156728358,
				"element": "H" 
			},
			{
				"x": 0.914918982,
				"y": 1.8284166584,
				"z": 0.0219638889,
				"element": "H" 
			},
			{
				"x": 2.2716654173,
				"y": 1.3796297875,
				"z": 1.0842827669,
				"element": "H" 
			},
			{
				"x": -0.3242950939,
				"y": 0.2925597733,
				"z": 1.213279787,
				"element": "H" 
			},
			{
				"x": 0.0414385764,
				"y": -2.1693487971,
				"z": 0.27561361,
				"element": "H" 
			},
			{
				"x": -1.9915406922,
				"y": -2.9017222082,
				"z": -0.9351870204,
				"element": "H" 
			},
			{
				"x": -1.2091368352,
				"y": 0.0056917468,
				"z": -4.0023391026,
				"element": "H" 
			},
			{
				"x": 0.8082782948,
				"y": 0.7530723704,
				"z": -2.7778619114,
				"element": "H" 
			}
		],
		 "valence_orbital": [ 
			{
				"type": "occ",
				"energy": -0.29051,
				"method": "rhf"
			},
			{
				"type": "occ",
				"energy": -0.28128,
				"method": "rhf"
			},
			{
				"type": "occ",
				"energy": -0.27005,
				"method": "rhf"
			},
			{
				"type": "occ",
				"energy": -0.24954,
				"method": "rhf"
			},
			{
				"type": "occ",
				"energy": -0.2346,
				"method": "rhf"
			},
			{
				"type": "unocc",
				"energy": -0.0231,
				"method": "rhf"
			},
			{
				"type": "unocc",
				"energy": -0.02052,
				"method": "rhf"
			},
			{
				"type": "unocc",
				"energy": 0.00367,
				"method": "rhf"
			},
			{
				"type": "unocc",
				"energy": 0.07451,
				"method": "rhf"
			},
			{
				"type": "unocc",
				"energy": 0.1015,
				"method": "rhf"
			}
		],
		"cosmo_sigma_profile": { 
			"-0.025": 0.0,
			"-0.024": 0.0,
			"-0.023": 0.0,
			"-0.022": 0.0,
			"-0.021": 0.0,
			"-0.02": 0.0,
			"-0.019": 0.0,
			"-0.018": 0.0,
			"-0.017": 0.0,
			"-0.016": 0.0,
			"-0.015": 0.0,
			"-0.014": 0.151078010735,
			"-0.013": 0.459883660909,
			"-0.012": 0.818050539108,
			"-0.011": 1.34127417242,
			"-0.01": 1.03839058873,
			"-0.009": 1.69659790515,
			"-0.008": 3.40917106845,
			"-0.007": 7.25563846449,
			"-0.006": 11.7537027277,
			"-0.005": 14.5317371685,
			"-0.004": 19.2252246754,
			"-0.003": 16.8958744129,
			"-0.002": 13.8100115473,
			"-0.001": 11.7254258349,
			"0.0": 11.0397341567,
			"0.001": 12.1202329253,
			"0.002": 15.2859067165,
			"0.003": 19.135416302,
			"0.004": 19.7436718606,
			"0.005": 10.5349640351,
			"0.006": 1.89366496436,
			"0.007": 1.371872897,
			"0.008": 1.58802355875,
			"0.009": 2.23130245205,
			"0.01": 1.69410912655,
			"0.011": 1.4216397416,
			"0.012": 2.12927249892,
			"0.013": 2.11991818041,
			"0.014": 1.78298885326,
			"0.015": 0.53453682066,
			"0.016": 0.620946633055,
			"0.017": 0.704334132278,
			"0.018": 0.547357132961,
			"0.019": 0.370459983098,
			"0.02": 0.0357240900636,
			"0.021": 0.0,
			"0.022": 0.0,
			"0.023": 0.0,
			"0.024": 0.0,
			"0.025": 0.0
		}
	}
}
