{
	 "smiles": "CCOC(=O)C1=C(CBr)C(C)(C)OC1=O", 
	 "Tm": 361.15, 
	 "num_atms": 28, 
	 "gaussian": { 
		 "optdone": 1, 
		 "sigma_profile": "yes", 
		 "theory": "DFT", 
		 "functional": "B3LYP", 
		 "basiset": "6-31G**", 
		 "properties": { 
			 "R2extent": 4444.5801, 
			 "electric_dipole_moment_norm": 6.12844540973, 
			 "electric_quadrupole_moment_norm": 27.5153236045, 
			 "total_energy": -3261.21730406, 
			 "HOMO_LUMO_gap": 0.17988, 
			 "cosmo_polarized_energy": -18.62, 
			 "cosmo_cavitation_energy": 34.18, 
			 "cosmo_dispersion_energy": -23.21, 
			 "cosmo_repulsion_energy": 1.85, 
			 "cosmo_total_nonelectrostatic_energy": 12.82, 
			 "SMD_solvation_energy": 7.05 
		},
		"coords": [
			{
				"x": 0.1112558371,
				"y": 3.0961565034,
				"z": 2.8707916543,
				"element": "C" 
			},
			{
				"x": 1.0156674154,
				"y": 1.8802400106,
				"z": 2.8216292727,
				"element": "C" 
			},
			{
				"x": 0.9273985122,
				"y": 1.3221380491,
				"z": 1.4850714866,
				"element": "O" 
			},
			{
				"x": 1.6603561386,
				"y": 0.203137902,
				"z": 1.2742735351,
				"element": "C" 
			},
			{
				"x": 2.3721561204,
				"y": -0.3053449915,
				"z": 2.1092868384,
				"element": "O" 
			},
			{
				"x": 1.4807911474,
				"y": -0.3343462582,
				"z": -0.1014352647,
				"element": "C" 
			},
			{
				"x": 0.4073413674,
				"y": -0.2935005942,
				"z": -0.915680084,
				"element": "C" 
			},
			{
				"x": -0.8915518917,
				"y": 0.3988711203,
				"z": -0.6980628814,
				"element": "C" 
			},
			{
				"x": -2.204972694,
				"y": -0.7835250131,
				"z": 0.2354165503,
				"element": "Br" 
			},
			{
				"x": 0.7146641246,
				"y": -1.0788480362,
				"z": -2.1829755496,
				"element": "C" 
			},
			{
				"x": -0.1782045369,
				"y": -2.3133884057,
				"z": -2.3620895801,
				"element": "C" 
			},
			{
				"x": 0.7140835702,
				"y": -0.1862974598,
				"z": -3.4333549078,
				"element": "C" 
			},
			{
				"x": 2.0690983645,
				"y": -1.5376695846,
				"z": -1.9816796516,
				"element": "O" 
			},
			{
				"x": 2.5588321837,
				"y": -1.1280946985,
				"z": -0.766720529,
				"element": "C" 
			},
			{
				"x": 3.6740277146,
				"y": -1.3804244722,
				"z": -0.3976814648,
				"element": "O" 
			},
			{
				"x": 0.1610891992,
				"y": 3.5515912869,
				"z": 3.8645576587,
				"element": "H" 
			},
			{
				"x": 0.419191903,
				"y": 3.845275694,
				"z": 2.1355452268,
				"element": "H" 
			},
			{
				"x": -0.9291979454,
				"y": 2.8211146086,
				"z": 2.6740166382,
				"element": "H" 
			},
			{
				"x": 2.060778835,
				"y": 2.1336140261,
				"z": 3.0227816152,
				"element": "H" 
			},
			{
				"x": 0.7168142822,
				"y": 1.1122529741,
				"z": 3.541106716,
				"element": "H" 
			},
			{
				"x": -0.7844027959,
				"y": 1.2593568658,
				"z": -0.0463645847,
				"element": "H" 
			},
			{
				"x": -1.381031528,
				"y": 0.6694380367,
				"z": -1.6315236834,
				"element": "H" 
			},
			{
				"x": -1.2212619208,
				"y": -2.0252201769,
				"z": -2.5162689002,
				"element": "H" 
			},
			{
				"x": -0.1247932198,
				"y": -2.9559627174,
				"z": -1.4805565363,
				"element": "H" 
			},
			{
				"x": 0.1631890307,
				"y": -2.8806835164,
				"z": -3.2322229045,
				"element": "H" 
			},
			{
				"x": 1.3782089914,
				"y": 0.6713172964,
				"z": -3.2970690736,
				"element": "H" 
			},
			{
				"x": -0.2927342273,
				"y": 0.1769241742,
				"z": -3.6600006701,
				"element": "H" 
			},
			{
				"x": 1.0680060223,
				"y": -0.7656226236,
				"z": -4.2898909266,
				"element": "H" 
			}
		],
		 "valence_orbital": [ 
			{
				"type": "occ",
				"energy": -0.29616,
				"method": "rhf"
			},
			{
				"type": "occ",
				"energy": -0.29107,
				"method": "rhf"
			},
			{
				"type": "occ",
				"energy": -0.28926,
				"method": "rhf"
			},
			{
				"type": "occ",
				"energy": -0.28158,
				"method": "rhf"
			},
			{
				"type": "occ",
				"energy": -0.26907,
				"method": "rhf"
			},
			{
				"type": "unocc",
				"energy": -0.08919,
				"method": "rhf"
			},
			{
				"type": "unocc",
				"energy": -0.00563,
				"method": "rhf"
			},
			{
				"type": "unocc",
				"energy": 0.00817,
				"method": "rhf"
			},
			{
				"type": "unocc",
				"energy": 0.06421,
				"method": "rhf"
			},
			{
				"type": "unocc",
				"energy": 0.08472,
				"method": "rhf"
			}
		],
		"cosmo_sigma_profile": { 
			"-0.025": 0.0,
			"-0.024": 0.0,
			"-0.023": 0.0,
			"-0.022": 0.0,
			"-0.021": 0.0,
			"-0.02": 0.0,
			"-0.019": 0.0,
			"-0.018": 0.0,
			"-0.017": 0.0,
			"-0.016": 0.0,
			"-0.015": 0.0,
			"-0.014": 0.0,
			"-0.013": 0.0,
			"-0.012": 0.0,
			"-0.011": 0.132417286261,
			"-0.01": 1.12635577553,
			"-0.009": 2.87696113801,
			"-0.008": 2.83448525722,
			"-0.007": 3.7168673572,
			"-0.006": 11.7062290581,
			"-0.005": 25.7333851327,
			"-0.004": 28.6687843023,
			"-0.003": 28.6584131013,
			"-0.002": 27.5796317834,
			"-0.001": 27.4833271302,
			"0.0": 18.3997420866,
			"0.001": 11.0505581702,
			"0.002": 9.81056797816,
			"0.003": 9.14973667883,
			"0.004": 11.077209761,
			"0.005": 10.6012655531,
			"0.006": 3.94821095428,
			"0.007": 3.57457721122,
			"0.008": 4.13558436994,
			"0.009": 5.09419497358,
			"0.01": 5.92516018693,
			"0.011": 9.43092836258,
			"0.012": 6.24172183238,
			"0.013": 2.5512741204,
			"0.014": 1.176714079,
			"0.015": 0.0759573095803,
			"0.016": 0.0,
			"0.017": 0.0,
			"0.018": 0.0,
			"0.019": 0.0,
			"0.02": 0.0,
			"0.021": 0.0,
			"0.022": 0.0,
			"0.023": 0.0,
			"0.024": 0.0,
			"0.025": 0.0
		}
	}
}
