{
	 "smiles": "NC(=NO)C1=CC(OC2=CC=CC=C2)=CC=C1", 
	 "Tm": 340.15, 
	 "num_atms": 29, 
	 "gaussian": { 
		 "optdone": 1, 
		 "sigma_profile": "yes", 
		 "theory": "DFT", 
		 "functional": "B3LYP", 
		 "basiset": "6-31G**", 
		 "properties": { 
			 "R2extent": 5229.0504, 
			 "electric_dipole_moment_norm": 2.06378529407, 
			 "electric_quadrupole_moment_norm": 7.03473105811, 
			 "total_energy": -762.509043017, 
			 "HOMO_LUMO_gap": 0.17959, 
			 "cosmo_polarized_energy": -13.45, 
			 "cosmo_cavitation_energy": 33.81, 
			 "cosmo_dispersion_energy": -24.27, 
			 "cosmo_repulsion_energy": 1.91, 
			 "cosmo_total_nonelectrostatic_energy": 11.45, 
			 "SMD_solvation_energy": 6.03 
		},
		"coords": [
			{
				"x": 2.9405869203,
				"y": -0.199806431,
				"z": -0.1563102187,
				"element": "N" 
			},
			{
				"x": 2.592215831,
				"y": 0.6470593928,
				"z": 0.8791018893,
				"element": "C" 
			},
			{
				"x": 3.4447348238,
				"y": 1.3364351212,
				"z": 1.5672469198,
				"element": "N" 
			},
			{
				"x": 4.7467616994,
				"y": 1.167683504,
				"z": 1.0196060671,
				"element": "O" 
			},
			{
				"x": 1.1638026835,
				"y": 0.7287947681,
				"z": 1.270195211,
				"element": "C" 
			},
			{
				"x": 0.2845801839,
				"y": -0.3108768611,
				"z": 0.936848229,
				"element": "C" 
			},
			{
				"x": -1.0622090103,
				"y": -0.2230176599,
				"z": 1.2981609849,
				"element": "C" 
			},
			{
				"x": -1.9572923375,
				"y": -1.2473988743,
				"z": 1.0576016704,
				"element": "O" 
			},
			{
				"x": -1.9164267687,
				"y": -1.9511505861,
				"z": -0.1309719043,
				"element": "C" 
			},
			{
				"x": -1.7178109489,
				"y": -1.3269873771,
				"z": -1.366823339,
				"element": "C" 
			},
			{
				"x": -1.7637059311,
				"y": -2.0930284959,
				"z": -2.5322065926,
				"element": "C" 
			},
			{
				"x": -2.0132499135,
				"y": -3.4659966055,
				"z": -2.4727080634,
				"element": "C" 
			},
			{
				"x": -2.2195183181,
				"y": -4.0746104094,
				"z": -1.2327616196,
				"element": "C" 
			},
			{
				"x": -2.1685312317,
				"y": -3.3226689338,
				"z": -0.0590842174,
				"element": "C" 
			},
			{
				"x": -1.5410865312,
				"y": 0.8795563914,
				"z": 2.0057699007,
				"element": "C" 
			},
			{
				"x": -0.6562247765,
				"y": 1.9034175724,
				"z": 2.3496958408,
				"element": "C" 
			},
			{
				"x": 0.6845891754,
				"y": 1.8410224245,
				"z": 1.9806162657,
				"element": "C" 
			},
			{
				"x": 3.8968061744,
				"y": -0.0855217326,
				"z": -0.4644448589,
				"element": "H" 
			},
			{
				"x": 2.2667275445,
				"y": -0.283043982,
				"z": -0.9036640852,
				"element": "H" 
			},
			{
				"x": 5.2835186789,
				"y": 1.7059919405,
				"z": 1.6132939383,
				"element": "H" 
			},
			{
				"x": 0.6482121603,
				"y": -1.1987718797,
				"z": 0.4325341818,
				"element": "H" 
			},
			{
				"x": -1.5389499277,
				"y": -0.2579194196,
				"z": -1.4106009422,
				"element": "H" 
			},
			{
				"x": -1.6130531979,
				"y": -1.6087078542,
				"z": -3.492981281,
				"element": "H" 
			},
			{
				"x": -2.0497799722,
				"y": -4.054721749,
				"z": -3.384120407,
				"element": "H" 
			},
			{
				"x": -2.4161613215,
				"y": -5.1412782635,
				"z": -1.1749566234,
				"element": "H" 
			},
			{
				"x": -2.3239654441,
				"y": -3.7762094551,
				"z": 0.9141937828,
				"element": "H" 
			},
			{
				"x": -2.5905916104,
				"y": 0.9161777777,
				"z": 2.2777798053,
				"element": "H" 
			},
			{
				"x": -1.0243598721,
				"y": 2.764825172,
				"z": 2.8992240077,
				"element": "H" 
			},
			{
				"x": 1.372781238,
				"y": 2.6393525055,
				"z": 2.2315654579,
				"element": "H" 
			}
		],
		 "valence_orbital": [ 
			{
				"type": "occ",
				"energy": -0.25981,
				"method": "rhf"
			},
			{
				"type": "occ",
				"energy": -0.25592,
				"method": "rhf"
			},
			{
				"type": "occ",
				"energy": -0.25185,
				"method": "rhf"
			},
			{
				"type": "occ",
				"energy": -0.2222,
				"method": "rhf"
			},
			{
				"type": "occ",
				"energy": -0.20803,
				"method": "rhf"
			},
			{
				"type": "unocc",
				"energy": -0.02844,
				"method": "rhf"
			},
			{
				"type": "unocc",
				"energy": -0.00936,
				"method": "rhf"
			},
			{
				"type": "unocc",
				"energy": -0.00348,
				"method": "rhf"
			},
			{
				"type": "unocc",
				"energy": 0.00868,
				"method": "rhf"
			},
			{
				"type": "unocc",
				"energy": 0.06135,
				"method": "rhf"
			}
		],
		"cosmo_sigma_profile": { 
			"-0.025": 0.0,
			"-0.024": 0.0,
			"-0.023": 0.0,
			"-0.022": 0.0,
			"-0.021": 0.0,
			"-0.02": 0.0,
			"-0.019": 0.0,
			"-0.018": 0.0,
			"-0.017": 0.531090833377,
			"-0.016": 0.846122117485,
			"-0.015": 0.948100878663,
			"-0.014": 0.87141653998,
			"-0.013": 1.70053639422,
			"-0.012": 1.57920402804,
			"-0.011": 2.27474487534,
			"-0.01": 3.04099041136,
			"-0.009": 3.19318306498,
			"-0.008": 3.28238121887,
			"-0.007": 3.93416076211,
			"-0.006": 13.3726609083,
			"-0.005": 18.8182695808,
			"-0.004": 19.242940937,
			"-0.003": 17.5926567358,
			"-0.002": 16.2490692333,
			"-0.001": 14.8978820677,
			"0.0": 13.2463656767,
			"0.001": 16.9110258013,
			"0.002": 20.1492527344,
			"0.003": 23.0675625688,
			"0.004": 23.4966582876,
			"0.005": 17.730064017,
			"0.006": 8.40214717713,
			"0.007": 6.46201415284,
			"0.008": 6.22495996645,
			"0.009": 5.46242271958,
			"0.01": 2.47618600028,
			"0.011": 1.81914601473,
			"0.012": 1.15586131793,
			"0.013": 0.903780971776,
			"0.014": 0.213780316377,
			"0.015": 0.0,
			"0.016": 0.0,
			"0.017": 0.0,
			"0.018": 0.0,
			"0.019": 0.0,
			"0.02": 0.0,
			"0.021": 0.0,
			"0.022": 0.0,
			"0.023": 0.0,
			"0.024": 0.0,
			"0.025": 0.0
		}
	}
}
