{
	 "smiles": "NS(=O)(=O)C1=CC(C(O)=O)=C(F)C=C1", 
	 "Tm": 460.15, 
	 "num_atms": 20, 
	 "gaussian": { 
		 "optdone": 1, 
		 "sigma_profile": "yes", 
		 "theory": "DFT", 
		 "functional": "B3LYP", 
		 "basiset": "6-31G**", 
		 "properties": { 
			 "R2extent": 3622.9805, 
			 "electric_dipole_moment_norm": 6.23679212737, 
			 "electric_quadrupole_moment_norm": 20.1697548285, 
			 "total_energy": -1123.96565566, 
			 "HOMO_LUMO_gap": 0.20772, 
			 "cosmo_polarized_energy": -25.32, 
			 "cosmo_cavitation_energy": 27.05, 
			 "cosmo_dispersion_energy": -20.35, 
			 "cosmo_repulsion_energy": 1.53, 
			 "cosmo_total_nonelectrostatic_energy": 8.22, 
			 "SMD_solvation_energy": 5.94 
		},
		"coords": [
			{
				"x": 0.6631072079,
				"y": 2.6315951523,
				"z": -0.9235075764,
				"element": "N" 
			},
			{
				"x": -0.7824984544,
				"y": 1.8960087571,
				"z": -1.3364070652,
				"element": "S" 
			},
			{
				"x": -1.7805714435,
				"y": 2.4395837928,
				"z": -0.4209929648,
				"element": "O" 
			},
			{
				"x": -0.8821657269,
				"y": 1.9952057388,
				"z": -2.7909160941,
				"element": "O" 
			},
			{
				"x": -0.6076934064,
				"y": 0.1409077928,
				"z": -0.9536157879,
				"element": "C" 
			},
			{
				"x": -0.7654055391,
				"y": -0.2970746205,
				"z": 0.3578760218,
				"element": "C" 
			},
			{
				"x": -0.6226934059,
				"y": -1.6537266484,
				"z": 0.6781280733,
				"element": "C" 
			},
			{
				"x": -0.7914550581,
				"y": -2.0350068483,
				"z": 2.1305492716,
				"element": "C" 
			},
			{
				"x": -0.7065042674,
				"y": -3.3385493716,
				"z": 2.4545811689,
				"element": "O" 
			},
			{
				"x": -0.9926264075,
				"y": -1.1971402461,
				"z": 2.9779116245,
				"element": "O" 
			},
			{
				"x": -0.3345024879,
				"y": -2.5267201456,
				"z": -0.3762314054,
				"element": "C" 
			},
			{
				"x": -0.1923239345,
				"y": -3.8590906396,
				"z": -0.1260629611,
				"element": "F" 
			},
			{
				"x": -0.1871350812,
				"y": -2.1119105824,
				"z": -1.692798786,
				"element": "C" 
			},
			{
				"x": -0.3251226329,
				"y": -0.7578645904,
				"z": -1.9869817701,
				"element": "C" 
			},
			{
				"x": 0.8450639278,
				"y": 2.6494063954,
				"z": 0.0742773758,
				"element": "H" 
			},
			{
				"x": 1.4532257279,
				"y": 2.3369028087,
				"z": -1.4869835153,
				"element": "H" 
			},
			{
				"x": -1.0178083972,
				"y": 0.3876108011,
				"z": 1.1607178853,
				"element": "H" 
			},
			{
				"x": -0.5387427926,
				"y": -3.8815670612,
				"z": 1.6688396002,
				"element": "H" 
			},
			{
				"x": 0.0240305353,
				"y": -2.8469399054,
				"z": -2.4613351114,
				"element": "H" 
			},
			{
				"x": -0.2366783635,
				"y": -0.3959305793,
				"z": -3.0053479836,
				"element": "H" 
			}
		],
		 "valence_orbital": [ 
			{
				"type": "occ",
				"energy": -0.31846,
				"method": "rhf"
			},
			{
				"type": "occ",
				"energy": -0.31776,
				"method": "rhf"
			},
			{
				"type": "occ",
				"energy": -0.30133,
				"method": "rhf"
			},
			{
				"type": "occ",
				"energy": -0.29258,
				"method": "rhf"
			},
			{
				"type": "occ",
				"energy": -0.28796,
				"method": "rhf"
			},
			{
				"type": "unocc",
				"energy": -0.08024,
				"method": "rhf"
			},
			{
				"type": "unocc",
				"energy": -0.05921,
				"method": "rhf"
			},
			{
				"type": "unocc",
				"energy": 0.0193,
				"method": "rhf"
			},
			{
				"type": "unocc",
				"energy": 0.03565,
				"method": "rhf"
			},
			{
				"type": "unocc",
				"energy": 0.05723,
				"method": "rhf"
			}
		],
		"cosmo_sigma_profile": { 
			"-0.025": 0.0,
			"-0.024": 0.0,
			"-0.023": 0.0,
			"-0.022": 0.0,
			"-0.021": 0.0,
			"-0.02": 0.0,
			"-0.019": 0.0,
			"-0.018": 0.0,
			"-0.017": 0.0,
			"-0.016": 0.970226559047,
			"-0.015": 2.62463459881,
			"-0.014": 2.64478054871,
			"-0.013": 4.62260590571,
			"-0.012": 4.08687889729,
			"-0.011": 4.00933859709,
			"-0.01": 4.11678586048,
			"-0.009": 6.29053108465,
			"-0.008": 7.17604160727,
			"-0.007": 8.81185135236,
			"-0.006": 6.64428255526,
			"-0.005": 7.73075586196,
			"-0.004": 9.55601637688,
			"-0.003": 12.2431107761,
			"-0.002": 15.7120007743,
			"-0.001": 15.9654290636,
			"0.0": 12.3802550661,
			"0.001": 7.44852671066,
			"0.002": 7.09162035189,
			"0.003": 5.73548349011,
			"0.004": 4.83096927451,
			"0.005": 4.56718988961,
			"0.006": 5.91433375557,
			"0.007": 7.25619632891,
			"0.008": 7.08717001404,
			"0.009": 8.31095867613,
			"0.01": 13.4204292667,
			"0.011": 15.4190932844,
			"0.012": 4.14248125615,
			"0.013": 0.499230885605,
			"0.014": 0.0,
			"0.015": 0.0,
			"0.016": 0.0,
			"0.017": 0.0,
			"0.018": 0.0,
			"0.019": 0.0,
			"0.02": 0.0,
			"0.021": 0.0,
			"0.022": 0.0,
			"0.023": 0.0,
			"0.024": 0.0,
			"0.025": 0.0
		}
	}
}
