{
	 "smiles": "CCC1NC(=O)NC1=O", 
	 "Tm": 390.15, 
	 "num_atms": 17, 
	 "gaussian": { 
		 "optdone": 1, 
		 "sigma_profile": "yes", 
		 "theory": "DFT", 
		 "functional": "B3LYP", 
		 "basiset": "6-31G**", 
		 "properties": { 
			 "R2extent": 1792.8117, 
			 "electric_dipole_moment_norm": 2.54900055708, 
			 "electric_quadrupole_moment_norm": 12.2661817429, 
			 "total_energy": -455.349897306, 
			 "HOMO_LUMO_gap": 0.25188, 
			 "cosmo_polarized_energy": -15.13, 
			 "cosmo_cavitation_energy": 20.69, 
			 "cosmo_dispersion_energy": -15.23, 
			 "cosmo_repulsion_energy": 1.29, 
			 "cosmo_total_nonelectrostatic_energy": 6.75, 
			 "SMD_solvation_energy": 4.84 
		},
		"coords": [
			{
				"x": 2.3144260913,
				"y": -0.7330080592,
				"z": -2.7888825165,
				"element": "C" 
			},
			{
				"x": 0.8637682104,
				"y": -1.1272869251,
				"z": -2.5012716151,
				"element": "C" 
			},
			{
				"x": 0.4548890964,
				"y": -1.0131207065,
				"z": -1.0236181026,
				"element": "C" 
			},
			{
				"x": 0.6603748847,
				"y": 0.2975665878,
				"z": -0.4197301398,
				"element": "N" 
			},
			{
				"x": 1.3559892605,
				"y": 0.2500639816,
				"z": 0.7647623008,
				"element": "C" 
			},
			{
				"x": 1.5959569238,
				"y": 1.1518579671,
				"z": 1.5391954062,
				"element": "O" 
			},
			{
				"x": 1.7577339291,
				"y": -1.0965123465,
				"z": 0.9067465951,
				"element": "N" 
			},
			{
				"x": 1.3009332663,
				"y": -1.9149953771,
				"z": -0.1048348965,
				"element": "C" 
			},
			{
				"x": 1.5186018878,
				"y": -3.0991516741,
				"z": -0.250328878,
				"element": "O" 
			},
			{
				"x": 2.5238717133,
				"y": -0.8018606825,
				"z": -3.8603308164,
				"element": "H" 
			},
			{
				"x": 3.0148897699,
				"y": -1.3971643973,
				"z": -2.2724632246,
				"element": "H" 
			},
			{
				"x": 2.519017846,
				"y": 0.2933362299,
				"z": -2.4700365419,
				"element": "H" 
			},
			{
				"x": 0.6883351237,
				"y": -2.1681119987,
				"z": -2.7948575204,
				"element": "H" 
			},
			{
				"x": 0.177963374,
				"y": -0.5112779839,
				"z": -3.0961400291,
				"element": "H" 
			},
			{
				"x": -0.5916144474,
				"y": -1.3363448478,
				"z": -0.919495768,
				"element": "H" 
			},
			{
				"x": 0.1057392047,
				"y": 1.1124280098,
				"z": -0.6317043101,
				"element": "H" 
			},
			{
				"x": 2.3466238655,
				"y": -1.4040177775,
				"z": 1.6672900571,
				"element": "H" 
			}
		],
		 "valence_orbital": [ 
			{
				"type": "occ",
				"energy": -0.35705,
				"method": "rhf"
			},
			{
				"type": "occ",
				"energy": -0.29182,
				"method": "rhf"
			},
			{
				"type": "occ",
				"energy": -0.29061,
				"method": "rhf"
			},
			{
				"type": "occ",
				"energy": -0.27051,
				"method": "rhf"
			},
			{
				"type": "occ",
				"energy": -0.26373,
				"method": "rhf"
			},
			{
				"type": "unocc",
				"energy": -0.01185,
				"method": "rhf"
			},
			{
				"type": "unocc",
				"energy": 0.05645,
				"method": "rhf"
			},
			{
				"type": "unocc",
				"energy": 0.07209,
				"method": "rhf"
			},
			{
				"type": "unocc",
				"energy": 0.09614,
				"method": "rhf"
			},
			{
				"type": "unocc",
				"energy": 0.10929,
				"method": "rhf"
			}
		],
		"cosmo_sigma_profile": { 
			"-0.025": 0.0,
			"-0.024": 0.0,
			"-0.023": 0.0,
			"-0.022": 0.0,
			"-0.021": 0.0,
			"-0.02": 0.0,
			"-0.019": 0.0,
			"-0.018": 0.0,
			"-0.017": 0.170623795585,
			"-0.016": 1.50418905572,
			"-0.015": 2.37488368607,
			"-0.014": 2.27775279967,
			"-0.013": 1.24408637012,
			"-0.012": 1.87963395575,
			"-0.011": 1.61212932664,
			"-0.01": 2.63961834872,
			"-0.009": 1.94784562325,
			"-0.008": 2.62416342566,
			"-0.007": 6.5707984771,
			"-0.006": 5.25929589133,
			"-0.005": 5.37074606026,
			"-0.004": 8.7997712895,
			"-0.003": 13.0929992374,
			"-0.002": 15.7060974475,
			"-0.001": 17.7718762115,
			"0.0": 11.838772629,
			"0.001": 9.86221414056,
			"0.002": 5.20162252443,
			"0.003": 3.47315976349,
			"0.004": 2.90492218173,
			"0.005": 2.91625442863,
			"0.006": 1.86360053107,
			"0.007": 1.36891595896,
			"0.008": 2.36726818106,
			"0.009": 2.86376862751,
			"0.01": 3.57962319583,
			"0.011": 4.89116209696,
			"0.012": 8.9940653848,
			"0.013": 8.37854029469,
			"0.014": 1.05492484642,
			"0.015": 0.0,
			"0.016": 0.0,
			"0.017": 0.0,
			"0.018": 0.0,
			"0.019": 0.0,
			"0.02": 0.0,
			"0.021": 0.0,
			"0.022": 0.0,
			"0.023": 0.0,
			"0.024": 0.0,
			"0.025": 0.0
		}
	}
}
