{
	 "smiles": "CC1=NN(C(Cl)=C1C=O)C1=CC=C(C)C=C1", 
	 "Tm": 409.15, 
	 "num_atms": 27, 
	 "gaussian": { 
		 "optdone": 1, 
		 "sigma_profile": "yes", 
		 "theory": "DFT", 
		 "functional": "B3LYP", 
		 "basiset": "6-31G**", 
		 "properties": { 
			 "R2extent": 5324.8665, 
			 "electric_dipole_moment_norm": 4.67525575878, 
			 "electric_quadrupole_moment_norm": 11.2844233473, 
			 "total_energy": -1108.80564798, 
			 "HOMO_LUMO_gap": 0.18669, 
			 "cosmo_polarized_energy": -9.54, 
			 "cosmo_cavitation_energy": 33.4, 
			 "cosmo_dispersion_energy": -23.86, 
			 "cosmo_repulsion_energy": 1.86, 
			 "cosmo_total_nonelectrostatic_energy": 11.4, 
			 "SMD_solvation_energy": 5.84 
		},
		"coords": [
			{
				"x": 2.6913495851,
				"y": -0.1155247622,
				"z": -3.7824774498,
				"element": "C" 
			},
			{
				"x": 1.7541029658,
				"y": -0.6017044671,
				"z": -2.7251321581,
				"element": "C" 
			},
			{
				"x": 1.1460529788,
				"y": 0.2478571477,
				"z": -1.9104320319,
				"element": "N" 
			},
			{
				"x": 0.3587635295,
				"y": -0.5153483099,
				"z": -1.0804860335,
				"element": "N" 
			},
			{
				"x": 0.491340251,
				"y": -1.8332395688,
				"z": -1.3745833532,
				"element": "C" 
			},
			{
				"x": -0.2763382867,
				"y": -3.0936355104,
				"z": -0.4825531301,
				"element": "Cl" 
			},
			{
				"x": 1.3794148904,
				"y": -1.9514408747,
				"z": -2.4398461427,
				"element": "C" 
			},
			{
				"x": 1.8266764826,
				"y": -3.1715426589,
				"z": -3.0979938611,
				"element": "C" 
			},
			{
				"x": 2.6188849524,
				"y": -3.1948998029,
				"z": -4.0275749396,
				"element": "O" 
			},
			{
				"x": -0.402913984,
				"y": 0.1345971868,
				"z": -0.0633117964,
				"element": "C" 
			},
			{
				"x": 0.2015528604,
				"y": 1.1564254567,
				"z": 0.674203114,
				"element": "C" 
			},
			{
				"x": -0.5309973821,
				"y": 1.8198571493,
				"z": 1.6536242184,
				"element": "C" 
			},
			{
				"x": -1.8644939099,
				"y": 1.4793829814,
				"z": 1.9244905643,
				"element": "C" 
			},
			{
				"x": -2.6374854467,
				"y": 2.1804746125,
				"z": 3.0157083991,
				"element": "C" 
			},
			{
				"x": -2.4506135665,
				"y": 0.4607897735,
				"z": 1.162993701,
				"element": "C" 
			},
			{
				"x": -1.736909205,
				"y": -0.2060128423,
				"z": 0.1681133402,
				"element": "C" 
			},
			{
				"x": 2.7705182818,
				"y": 0.9724596347,
				"z": -3.7314168955,
				"element": "H" 
			},
			{
				"x": 3.682425775,
				"y": -0.5615765558,
				"z": -3.6587618812,
				"element": "H" 
			},
			{
				"x": 2.3420401758,
				"y": -0.4088034396,
				"z": -4.7768514847,
				"element": "H" 
			},
			{
				"x": 1.3935952772,
				"y": -4.1109868676,
				"z": -2.6954197561,
				"element": "H" 
			},
			{
				"x": 1.2295717301,
				"y": 1.4262376142,
				"z": 0.4621991082,
				"element": "H" 
			},
			{
				"x": -0.0560862214,
				"y": 2.6160244588,
				"z": 2.2209085046,
				"element": "H" 
			},
			{
				"x": -2.3628353635,
				"y": 3.2374419763,
				"z": 3.0847689968,
				"element": "H" 
			},
			{
				"x": -3.7160155108,
				"y": 2.1202832867,
				"z": 2.8444077636,
				"element": "H" 
			},
			{
				"x": -2.4359201767,
				"y": 1.7283615588,
				"z": 3.99487732,
				"element": "H" 
			},
			{
				"x": -3.489090022,
				"y": 0.192127839,
				"z": 1.3370151701,
				"element": "H" 
			},
			{
				"x": -2.2197906604,
				"y": -0.9685050162,
				"z": -0.4317692864,
				"element": "H" 
			}
		],
		 "valence_orbital": [ 
			{
				"type": "occ",
				"energy": -0.284,
				"method": "rhf"
			},
			{
				"type": "occ",
				"energy": -0.2657,
				"method": "rhf"
			},
			{
				"type": "occ",
				"energy": -0.25735,
				"method": "rhf"
			},
			{
				"type": "occ",
				"energy": -0.24991,
				"method": "rhf"
			},
			{
				"type": "occ",
				"energy": -0.23884,
				"method": "rhf"
			},
			{
				"type": "unocc",
				"energy": -0.05215,
				"method": "rhf"
			},
			{
				"type": "unocc",
				"energy": -0.01996,
				"method": "rhf"
			},
			{
				"type": "unocc",
				"energy": -0.01667,
				"method": "rhf"
			},
			{
				"type": "unocc",
				"energy": 0.01358,
				"method": "rhf"
			},
			{
				"type": "unocc",
				"energy": 0.01858,
				"method": "rhf"
			}
		],
		"cosmo_sigma_profile": { 
			"-0.025": 0.0,
			"-0.024": 0.0,
			"-0.023": 0.0,
			"-0.022": 0.0,
			"-0.021": 0.0,
			"-0.02": 0.0,
			"-0.019": 0.0,
			"-0.018": 0.0,
			"-0.017": 0.0,
			"-0.016": 0.0,
			"-0.015": 0.0,
			"-0.014": 0.0,
			"-0.013": 0.0,
			"-0.012": 0.0,
			"-0.011": 0.0,
			"-0.01": 0.0,
			"-0.009": 0.0,
			"-0.008": 0.0,
			"-0.007": 1.92848580125,
			"-0.006": 8.67252940976,
			"-0.005": 20.9908767454,
			"-0.004": 24.187323143,
			"-0.003": 24.7573988086,
			"-0.002": 28.4607183586,
			"-0.001": 32.7326359076,
			"0.0": 30.1475179806,
			"0.001": 19.4772052749,
			"0.002": 17.9044594109,
			"0.003": 13.0810365995,
			"0.004": 15.3648779396,
			"0.005": 5.70773398837,
			"0.006": 3.40353045384,
			"0.007": 2.04949773777,
			"0.008": 3.7864349519,
			"0.009": 3.02072234349,
			"0.01": 2.70220558555,
			"0.011": 4.2405008819,
			"0.012": 4.12379818139,
			"0.013": 1.99856229187,
			"0.014": 0.400839994271,
			"0.015": 0.0,
			"0.016": 0.0,
			"0.017": 0.0,
			"0.018": 0.0,
			"0.019": 0.0,
			"0.02": 0.0,
			"0.021": 0.0,
			"0.022": 0.0,
			"0.023": 0.0,
			"0.024": 0.0,
			"0.025": 0.0
		}
	}
}
