{
	 "smiles": "CC1(C)N(O)C(C)(C)[N+]([O-])=C1C=NO", 
	 "Tm": 431.15, 
	 "num_atms": 29, 
	 "gaussian": { 
		 "optdone": 1, 
		 "sigma_profile": "yes", 
		 "theory": "DFT", 
		 "functional": "B3LYP", 
		 "basiset": "6-31G**", 
		 "properties": { 
			 "R2extent": 2702.7797, 
			 "electric_dipole_moment_norm": 3.34539870569, 
			 "electric_quadrupole_moment_norm": 12.0231803526, 
			 "total_energy": -703.638837208, 
			 "HOMO_LUMO_gap": 0.15381, 
			 "cosmo_polarized_energy": -13.52, 
			 "cosmo_cavitation_energy": 30.15, 
			 "cosmo_dispersion_energy": -21.11, 
			 "cosmo_repulsion_energy": 1.64, 
			 "cosmo_total_nonelectrostatic_energy": 10.68, 
			 "SMD_solvation_energy": 6.09 
		},
		"coords": [
			{
				"x": -1.511549665,
				"y": -0.8392364074,
				"z": -1.114498857,
				"element": "C" 
			},
			{
				"x": -0.6930646961,
				"y": -0.2417171284,
				"z": 0.0485868054,
				"element": "C" 
			},
			{
				"x": -1.4712076343,
				"y": -0.3605388856,
				"z": 1.3707549908,
				"element": "C" 
			},
			{
				"x": 0.6349694508,
				"y": -0.9144676428,
				"z": 0.2657649109,
				"element": "N" 
			},
			{
				"x": 0.6104662609,
				"y": -2.2771095865,
				"z": -0.1672862412,
				"element": "O" 
			},
			{
				"x": 1.7056908353,
				"y": -0.1802656183,
				"z": -0.4279784421,
				"element": "C" 
			},
			{
				"x": 2.9574637349,
				"y": -0.1014686126,
				"z": 0.4449511879,
				"element": "C" 
			},
			{
				"x": 2.045868351,
				"y": -0.6400226446,
				"z": -1.851475617,
				"element": "C" 
			},
			{
				"x": 1.0809214601,
				"y": 1.1863869217,
				"z": -0.5095261422,
				"element": "N" 
			},
			{
				"x": 1.8106439031,
				"y": 2.1686407273,
				"z": -0.8215666674,
				"element": "O" 
			},
			{
				"x": -0.2241632702,
				"y": 1.1724980108,
				"z": -0.2550761363,
				"element": "C" 
			},
			{
				"x": -0.8903716668,
				"y": 2.458543474,
				"z": -0.2997971025,
				"element": "C" 
			},
			{
				"x": -2.1234684335,
				"y": 2.8301657135,
				"z": -0.2717762276,
				"element": "N" 
			},
			{
				"x": -3.0392139433,
				"y": 1.7697706103,
				"z": -0.2072447194,
				"element": "O" 
			},
			{
				"x": -2.4428399441,
				"y": -0.280595473,
				"z": -1.2176191302,
				"element": "H" 
			},
			{
				"x": -0.9701544609,
				"y": -0.7858160657,
				"z": -2.0618682535,
				"element": "H" 
			},
			{
				"x": -1.7380468036,
				"y": -1.887764862,
				"z": -0.9111994502,
				"element": "H" 
			},
			{
				"x": -2.4356139261,
				"y": 0.143859163,
				"z": 1.3077050174,
				"element": "H" 
			},
			{
				"x": -0.8904904972,
				"y": 0.0677359581,
				"z": 2.1919381668,
				"element": "H" 
			},
			{
				"x": -1.6405352822,
				"y": -1.4207429785,
				"z": 1.5876193923,
				"element": "H" 
			},
			{
				"x": 0.7576469919,
				"y": -2.7596760791,
				"z": 0.6572032646,
				"element": "H" 
			},
			{
				"x": 3.6896363309,
				"y": 0.5753945051,
				"z": 0.0009398494,
				"element": "H" 
			},
			{
				"x": 3.393858718,
				"y": -1.1008058207,
				"z": 0.5302993099,
				"element": "H" 
			},
			{
				"x": 2.6973586262,
				"y": 0.2523836235,
				"z": 1.4452026457,
				"element": "H" 
			},
			{
				"x": 1.1563702897,
				"y": -0.7025870409,
				"z": -2.4806699316,
				"element": "H" 
			},
			{
				"x": 2.5141456481,
				"y": -1.62469925,
				"z": -1.8191114521,
				"element": "H" 
			},
			{
				"x": 2.7388998896,
				"y": 0.0800580119,
				"z": -2.2925383644,
				"element": "H" 
			},
			{
				"x": -0.1986481391,
				"y": 3.2931273221,
				"z": -0.3915287443,
				"element": "H" 
			},
			{
				"x": -3.886672128,
				"y": 2.2343500548,
				"z": -0.2000040621,
				"element": "H" 
			}
		],
		 "valence_orbital": [ 
			{
				"type": "occ",
				"energy": -0.28798,
				"method": "rhf"
			},
			{
				"type": "occ",
				"energy": -0.28307,
				"method": "rhf"
			},
			{
				"type": "occ",
				"energy": -0.25353,
				"method": "rhf"
			},
			{
				"type": "occ",
				"energy": -0.23444,
				"method": "rhf"
			},
			{
				"type": "occ",
				"energy": -0.21386,
				"method": "rhf"
			},
			{
				"type": "unocc",
				"energy": -0.06005,
				"method": "rhf"
			},
			{
				"type": "unocc",
				"energy": 0.05002,
				"method": "rhf"
			},
			{
				"type": "unocc",
				"energy": 0.06376,
				"method": "rhf"
			},
			{
				"type": "unocc",
				"energy": 0.06844,
				"method": "rhf"
			},
			{
				"type": "unocc",
				"energy": 0.09461,
				"method": "rhf"
			}
		],
		"cosmo_sigma_profile": { 
			"-0.025": 0.0,
			"-0.024": 0.0,
			"-0.023": 0.0,
			"-0.022": 0.0,
			"-0.021": 0.0,
			"-0.02": 0.0,
			"-0.019": 0.0,
			"-0.018": 0.495652740467,
			"-0.017": 1.14101688624,
			"-0.016": 2.04446938977,
			"-0.015": 2.019471427,
			"-0.014": 1.17045729762,
			"-0.013": 0.934713838799,
			"-0.012": 1.62310852277,
			"-0.011": 2.00424847776,
			"-0.01": 1.03360902394,
			"-0.009": 1.3221598378,
			"-0.008": 1.2452611536,
			"-0.007": 1.39749941146,
			"-0.006": 4.46370519781,
			"-0.005": 6.13907250652,
			"-0.004": 15.2175955199,
			"-0.003": 20.9497869975,
			"-0.002": 21.4065512315,
			"-0.001": 27.5059824324,
			"0.0": 26.7532293513,
			"0.001": 23.5623165465,
			"0.002": 13.6451288214,
			"0.003": 9.16467393254,
			"0.004": 8.86574200321,
			"0.005": 6.45717498672,
			"0.006": 5.89551244679,
			"0.007": 4.1984438541,
			"0.008": 4.71645427617,
			"0.009": 3.43349961041,
			"0.01": 4.32961283232,
			"0.011": 5.07879565133,
			"0.012": 6.07581721824,
			"0.013": 0.640513519215,
			"0.014": 0.0,
			"0.015": 0.0,
			"0.016": 0.0,
			"0.017": 0.0,
			"0.018": 0.0,
			"0.019": 0.0,
			"0.02": 0.0,
			"0.021": 0.0,
			"0.022": 0.0,
			"0.023": 0.0,
			"0.024": 0.0,
			"0.025": 0.0
		}
	}
}
