{
	 "smiles": "CCN(CC)S(=O)(=O)C1=CC=C(C=C1)C(=O)NCC(O)=O", 
	 "Tm": 417.15, 
	 "num_atms": 39, 
	 "gaussian": { 
		 "optdone": 1, 
		 "sigma_profile": "yes", 
		 "theory": "DFT", 
		 "functional": "B3LYP", 
		 "basiset": "6-31G**", 
		 "properties": { 
			 "R2extent": 8853.8682, 
			 "electric_dipole_moment_norm": 4.56412162962, 
			 "electric_quadrupole_moment_norm": 26.78018719, 
			 "total_energy": -1389.99358033, 
			 "HOMO_LUMO_gap": 0.17529, 
			 "cosmo_polarized_energy": -27.85, 
			 "cosmo_cavitation_energy": 43.55, 
			 "cosmo_dispersion_energy": -29.68, 
			 "cosmo_repulsion_energy": 2.26, 
			 "cosmo_total_nonelectrostatic_energy": 16.13, 
			 "SMD_solvation_energy": 8.72 
		},
		"coords": [
			{
				"x": 3.4967133665,
				"y": 4.3787586931,
				"z": -1.0709795883,
				"element": "C" 
			},
			{
				"x": 2.1430486514,
				"y": 3.6876367947,
				"z": -0.8952145439,
				"element": "C" 
			},
			{
				"x": 2.1396678023,
				"y": 2.6744022025,
				"z": 0.1732079078,
				"element": "N" 
			},
			{
				"x": 1.9076116809,
				"y": 3.097767829,
				"z": 1.5625298741,
				"element": "C" 
			},
			{
				"x": 0.4370132608,
				"y": 3.3667035845,
				"z": 1.89491166,
				"element": "C" 
			},
			{
				"x": 2.4552952726,
				"y": 1.085203195,
				"z": -0.2022493456,
				"element": "S" 
			},
			{
				"x": 3.2450617426,
				"y": 1.0812852133,
				"z": -1.436873251,
				"element": "O" 
			},
			{
				"x": 2.911807564,
				"y": 0.4255503032,
				"z": 1.0240183576,
				"element": "O" 
			},
			{
				"x": 0.8656322415,
				"y": 0.3387495771,
				"z": -0.623583258,
				"element": "C" 
			},
			{
				"x": 0.4367372254,
				"y": 0.3342483367,
				"z": -1.9538273067,
				"element": "C" 
			},
			{
				"x": -0.7998778325,
				"y": -0.2215931792,
				"z": -2.2677657385,
				"element": "C" 
			},
			{
				"x": -1.6165211783,
				"y": -0.7563833653,
				"z": -1.2606507203,
				"element": "C" 
			},
			{
				"x": -1.1572611241,
				"y": -0.7721527849,
				"z": 0.0656584014,
				"element": "C" 
			},
			{
				"x": 0.0867205893,
				"y": -0.2313148896,
				"z": 0.3855581164,
				"element": "C" 
			},
			{
				"x": -2.9083649048,
				"y": -1.3834142409,
				"z": -1.6938398954,
				"element": "C" 
			},
			{
				"x": -3.0270066513,
				"y": -1.9136829903,
				"z": -2.7871467505,
				"element": "O" 
			},
			{
				"x": -3.9826779872,
				"y": -1.3990817191,
				"z": -0.7939273802,
				"element": "N" 
			},
			{
				"x": -4.3126518903,
				"y": -0.3270722435,
				"z": 0.148401376,
				"element": "C" 
			},
			{
				"x": -4.4056157003,
				"y": -0.7941963161,
				"z": 1.6094343733,
				"element": "C" 
			},
			{
				"x": -4.0238370365,
				"y": -2.0690517651,
				"z": 1.8261186956,
				"element": "O" 
			},
			{
				"x": -4.772504883,
				"y": -0.06228094,
				"z": 2.4930665522,
				"element": "O" 
			},
			{
				"x": 3.4273205933,
				"y": 5.1547422823,
				"z": -1.8411159252,
				"element": "H" 
			},
			{
				"x": 3.8246003808,
				"y": 4.8566538995,
				"z": -0.1422496944,
				"element": "H" 
			},
			{
				"x": 4.2530060966,
				"y": 3.6513376824,
				"z": -1.3737137563,
				"element": "H" 
			},
			{
				"x": 1.8435183873,
				"y": 3.2135917796,
				"z": -1.8330004611,
				"element": "H" 
			},
			{
				"x": 1.362890717,
				"y": 4.4176396686,
				"z": -0.6507649604,
				"element": "H" 
			},
			{
				"x": 2.5053495484,
				"y": 4.0016918534,
				"z": 1.7313064959,
				"element": "H" 
			},
			{
				"x": 2.3181825139,
				"y": 2.3272289676,
				"z": 2.2167242237,
				"element": "H" 
			},
			{
				"x": 0.0087031063,
				"y": 4.1386166034,
				"z": 1.2472729938,
				"element": "H" 
			},
			{
				"x": -0.1655582078,
				"y": 2.4606320014,
				"z": 1.784670217,
				"element": "H" 
			},
			{
				"x": 0.344483802,
				"y": 3.7128817639,
				"z": 2.9296597112,
				"element": "H" 
			},
			{
				"x": 1.0830272678,
				"y": 0.7307262497,
				"z": -2.7287977269,
				"element": "H" 
			},
			{
				"x": -1.1447782076,
				"y": -0.2637497741,
				"z": -3.295222406,
				"element": "H" 
			},
			{
				"x": -1.7460992394,
				"y": -1.237140803,
				"z": 0.84907574,
				"element": "H" 
			},
			{
				"x": 0.4652392281,
				"y": -0.2748597171,
				"z": 1.4008082981,
				"element": "H" 
			},
			{
				"x": -4.7843432934,
				"y": -1.8182412617,
				"z": -1.2550996171,
				"element": "H" 
			},
			{
				"x": -3.5572924936,
				"y": 0.460558604,
				"z": 0.1068200352,
				"element": "H" 
			},
			{
				"x": -5.2685514821,
				"y": 0.1381623367,
				"z": -0.110713856,
				"element": "H" 
			},
			{
				"x": -3.8137889266,
				"y": -2.4582534316,
				"z": 0.9547931526,
				"element": "H" 
			}
		],
		 "valence_orbital": [ 
			{
				"type": "occ",
				"energy": -0.29735,
				"method": "rhf"
			},
			{
				"type": "occ",
				"energy": -0.28959,
				"method": "rhf"
			},
			{
				"type": "occ",
				"energy": -0.28509,
				"method": "rhf"
			},
			{
				"type": "occ",
				"energy": -0.26952,
				"method": "rhf"
			},
			{
				"type": "occ",
				"energy": -0.2507,
				"method": "rhf"
			},
			{
				"type": "unocc",
				"energy": -0.07541,
				"method": "rhf"
			},
			{
				"type": "unocc",
				"energy": -0.0382,
				"method": "rhf"
			},
			{
				"type": "unocc",
				"energy": -0.00437,
				"method": "rhf"
			},
			{
				"type": "unocc",
				"energy": 0.00817,
				"method": "rhf"
			},
			{
				"type": "unocc",
				"energy": 0.04536,
				"method": "rhf"
			}
		],
		"cosmo_sigma_profile": { 
			"-0.025": 0.0,
			"-0.024": 0.0,
			"-0.023": 0.0,
			"-0.022": 0.0,
			"-0.021": 0.0,
			"-0.02": 0.0,
			"-0.019": 0.0,
			"-0.018": 0.0,
			"-0.017": 0.0,
			"-0.016": 0.0,
			"-0.015": 1.08586411348,
			"-0.014": 2.49551022357,
			"-0.013": 2.36042677308,
			"-0.012": 3.51387234049,
			"-0.011": 3.32401137415,
			"-0.01": 2.92588322442,
			"-0.009": 4.2231844745,
			"-0.008": 7.05110452442,
			"-0.007": 13.9401825572,
			"-0.006": 15.4048342675,
			"-0.005": 22.4237564975,
			"-0.004": 23.3553599112,
			"-0.003": 28.0821017026,
			"-0.002": 27.7159215815,
			"-0.001": 24.0696423019,
			"0.0": 26.2863349643,
			"0.001": 29.0083471134,
			"0.002": 15.2267981331,
			"0.003": 6.77591477224,
			"0.004": 6.53000171615,
			"0.005": 6.99025713564,
			"0.006": 6.39868681603,
			"0.007": 5.8404332453,
			"0.008": 7.88411137751,
			"0.009": 9.61363293703,
			"0.01": 12.6952649332,
			"0.011": 13.7183171407,
			"0.012": 13.1624259732,
			"0.013": 2.53765234261,
			"0.014": 0.00123356507425,
			"0.015": 0.0,
			"0.016": 0.0,
			"0.017": 0.0,
			"0.018": 0.0,
			"0.019": 0.0,
			"0.02": 0.0,
			"0.021": 0.0,
			"0.022": 0.0,
			"0.023": 0.0,
			"0.024": 0.0,
			"0.0": 0.0
		}
	}
}
