{
	 "smiles": "NC(=S)NCCC1=CC=CC=C1", 
	 "Tm": 424.15, 
	 "num_atms": 24, 
	 "gaussian": { 
		 "optdone": 1, 
		 "sigma_profile": "yes", 
		 "theory": "DFT", 
		 "functional": "B3LYP", 
		 "basiset": "6-31G**", 
		 "properties": { 
			 "R2extent": 3505.2635, 
			 "electric_dipole_moment_norm": 5.01795404024, 
			 "electric_quadrupole_moment_norm": 21.9586166422, 
			 "total_energy": -857.904457381, 
			 "HOMO_LUMO_gap": 0.19279, 
			 "cosmo_polarized_energy": -18.34, 
			 "cosmo_cavitation_energy": 29.17, 
			 "cosmo_dispersion_energy": -20.88, 
			 "cosmo_repulsion_energy": 1.65, 
			 "cosmo_total_nonelectrostatic_energy": 9.93, 
			 "SMD_solvation_energy": 3.35 
		},
		"coords": [
			{
				"x": -3.2489362597,
				"y": 2.6978860935,
				"z": 0.9140535529,
				"element": "N" 
			},
			{
				"x": -2.116200599,
				"y": 2.8532114156,
				"z": 0.1555822283,
				"element": "C" 
			},
			{
				"x": -2.1085030314,
				"y": 3.8496120404,
				"z": -1.1998847637,
				"element": "S" 
			},
			{
				"x": -1.0525596269,
				"y": 2.1274383424,
				"z": 0.5949614595,
				"element": "N" 
			},
			{
				"x": 0.2075659975,
				"y": 1.9978609915,
				"z": -0.1246830791,
				"element": "C" 
			},
			{
				"x": 0.2338768805,
				"y": 0.8023117089,
				"z": -1.1023127544,
				"element": "C" 
			},
			{
				"x": 0.0395731912,
				"y": -0.5316161821,
				"z": -0.4140153473,
				"element": "C" 
			},
			{
				"x": 1.126770243,
				"y": -1.2111604452,
				"z": 0.1560694472,
				"element": "C" 
			},
			{
				"x": 0.945673658,
				"y": -2.4183624326,
				"z": 0.8314403847,
				"element": "C" 
			},
			{
				"x": -0.3320860105,
				"y": -2.9697888977,
				"z": 0.9515440708,
				"element": "C" 
			},
			{
				"x": -1.423280625,
				"y": -2.3064600814,
				"z": 0.3885670404,
				"element": "C" 
			},
			{
				"x": -1.2376210106,
				"y": -1.0985299761,
				"z": -0.2882033922,
				"element": "C" 
			},
			{
				"x": -3.1605599964,
				"y": 2.4273962591,
				"z": 1.8852144649,
				"element": "H" 
			},
			{
				"x": -3.9899406647,
				"y": 3.3495585371,
				"z": 0.7042326859,
				"element": "H" 
			},
			{
				"x": -1.2484115011,
				"y": 1.3905833749,
				"z": 1.2614169232,
				"element": "H" 
			},
			{
				"x": 0.3613268992,
				"y": 2.9286374561,
				"z": -0.6735268691,
				"element": "H" 
			},
			{
				"x": 1.0057767771,
				"y": 1.8932489089,
				"z": 0.618775068,
				"element": "H" 
			},
			{
				"x": -0.5429066939,
				"y": 0.9638534981,
				"z": -1.8565402376,
				"element": "H" 
			},
			{
				"x": 1.1990477774,
				"y": 0.8198081406,
				"z": -1.6225751041,
				"element": "H" 
			},
			{
				"x": 2.1262848652,
				"y": -0.7923015449,
				"z": 0.0616249654,
				"element": "H" 
			},
			{
				"x": 1.802444256,
				"y": -2.9315826695,
				"z": 1.2593052895,
				"element": "H" 
			},
			{
				"x": -0.4740295601,
				"y": -3.9117600571,
				"z": 1.4734292237,
				"element": "H" 
			},
			{
				"x": -2.4199288463,
				"y": -2.731831358,
				"z": 0.4684129117,
				"element": "H" 
			},
			{
				"x": -2.0901761196,
				"y": -0.5943131223,
				"z": -0.7365881688,
				"element": "H" 
			}
		],
		 "valence_orbital": [ 
			{
				"type": "occ",
				"energy": -0.26987,
				"method": "rhf"
			},
			{
				"type": "occ",
				"energy": -0.25534,
				"method": "rhf"
			},
			{
				"type": "occ",
				"energy": -0.24681,
				"method": "rhf"
			},
			{
				"type": "occ",
				"energy": -0.21383,
				"method": "rhf"
			},
			{
				"type": "occ",
				"energy": -0.20133,
				"method": "rhf"
			},
			{
				"type": "unocc",
				"energy": -0.00854,
				"method": "rhf"
			},
			{
				"type": "unocc",
				"energy": -0.00733,
				"method": "rhf"
			},
			{
				"type": "unocc",
				"energy": 0.00184,
				"method": "rhf"
			},
			{
				"type": "unocc",
				"energy": 0.06014,
				"method": "rhf"
			},
			{
				"type": "unocc",
				"energy": 0.08687,
				"method": "rhf"
			}
		],
		"cosmo_sigma_profile": { 
			"-0.025": 0.0,
			"-0.024": 0.0,
			"-0.023": 0.0,
			"-0.022": 0.0,
			"-0.021": 0.0,
			"-0.02": 0.0,
			"-0.019": 0.0,
			"-0.018": 0.0,
			"-0.017": 0.174056053696,
			"-0.016": 1.29028419492,
			"-0.015": 1.96475952179,
			"-0.014": 2.09521870343,
			"-0.013": 2.71515794018,
			"-0.012": 2.96185329661,
			"-0.011": 2.90295760422,
			"-0.01": 2.55074159599,
			"-0.009": 2.57621999943,
			"-0.008": 1.94124928783,
			"-0.007": 2.46774096355,
			"-0.006": 4.34620177137,
			"-0.005": 15.9813164987,
			"-0.004": 21.1270411126,
			"-0.003": 22.5853462216,
			"-0.002": 16.627749786,
			"-0.001": 13.8113222128,
			"0.0": 12.3564826645,
			"0.001": 11.0820638927,
			"0.002": 10.8079521535,
			"0.003": 10.2898510013,
			"0.004": 13.5009372599,
			"0.005": 12.0252184638,
			"0.006": 12.3935329208,
			"0.007": 4.87322105412,
			"0.008": 4.36371602167,
			"0.009": 4.91545305015,
			"0.01": 5.87706744953,
			"0.011": 7.47391413446,
			"0.012": 4.10675472914,
			"0.013": 0.875528336649,
			"0.014": 0.0,
			"0.015": 0.0,
			"0.016": 0.0,
			"0.017": 0.0,
			"0.018": 0.0,
			"0.019": 0.0,
			"0.02": 0.0,
			"0.021": 0.0,
			"0.022": 0.0,
			"0.023": 0.0,
			"0.024": 0.0,
			"0.025": 0.0
		}
	}
}
