{
	 "smiles": "CC(Cl)C(N)=O", 
	 "Tm": 351.65, 
	 "num_atms": 12, 
	 "gaussian": { 
		 "optdone": 1, 
		 "sigma_profile": "yes", 
		 "theory": "DFT", 
		 "functional": "B3LYP", 
		 "basiset": "6-31G**", 
		 "properties": { 
			 "R2extent": 799.3382, 
			 "electric_dipole_moment_norm": 1.56178401516, 
			 "electric_quadrupole_moment_norm": 9.89907253635, 
			 "total_energy": -708.127353637, 
			 "HOMO_LUMO_gap": 0.26904, 
			 "cosmo_polarized_energy": -10.01, 
			 "cosmo_cavitation_energy": 17.14, 
			 "cosmo_dispersion_energy": -12.97, 
			 "cosmo_repulsion_energy": 1.14, 
			 "cosmo_total_nonelectrostatic_energy": 5.31, 
			 "SMD_solvation_energy": 3.64 
		},
		"coords": [
			{
				"x": 1.0996802953,
				"y": 1.826875322,
				"z": -0.3961481597,
				"element": "C" 
			},
			{
				"x": 0.5876234814,
				"y": 0.4442012911,
				"z": -0.7854884092,
				"element": "C" 
			},
			{
				"x": 1.9558431107,
				"y": -0.7814292092,
				"z": -0.6939763695,
				"element": "Cl" 
			},
			{
				"x": -0.655800989,
				"y": 0.0624659962,
				"z": 0.0381404069,
				"element": "C" 
			},
			{
				"x": -0.6110062406,
				"y": -1.0630551213,
				"z": 0.788508237,
				"element": "N" 
			},
			{
				"x": -1.6247509709,
				"y": 0.8066485765,
				"z": -0.0251767778,
				"element": "O" 
			},
			{
				"x": 1.9029261975,
				"y": 2.1439356513,
				"z": -1.0643942558,
				"element": "H" 
			},
			{
				"x": 0.2666939861,
				"y": 2.5303868477,
				"z": -0.469155521,
				"element": "H" 
			},
			{
				"x": 1.4739669733,
				"y": 1.8293083948,
				"z": 0.6311507288,
				"element": "H" 
			},
			{
				"x": 0.2817047674,
				"y": 0.4305214398,
				"z": -1.8332770396,
				"element": "H" 
			},
			{
				"x": -1.4358563011,
				"y": -1.3109261668,
				"z": 1.3129453412,
				"element": "H" 
			},
			{
				"x": 0.1956756901,
				"y": -1.6664330222,
				"z": 0.7967718189,
				"element": "H" 
			}
		],
		 "valence_orbital": [ 
			{
				"type": "occ",
				"energy": -0.37313,
				"method": "rhf"
			},
			{
				"type": "occ",
				"energy": -0.32307,
				"method": "rhf"
			},
			{
				"type": "occ",
				"energy": -0.30899,
				"method": "rhf"
			},
			{
				"type": "occ",
				"energy": -0.27647,
				"method": "rhf"
			},
			{
				"type": "occ",
				"energy": -0.25831,
				"method": "rhf"
			},
			{
				"type": "unocc",
				"energy": 0.01073,
				"method": "rhf"
			},
			{
				"type": "unocc",
				"energy": 0.01788,
				"method": "rhf"
			},
			{
				"type": "unocc",
				"energy": 0.08123,
				"method": "rhf"
			},
			{
				"type": "unocc",
				"energy": 0.11462,
				"method": "rhf"
			},
			{
				"type": "unocc",
				"energy": 0.13159,
				"method": "rhf"
			}
		],
		"cosmo_sigma_profile": { 
			"-0.025": 0.0,
			"-0.024": 0.0,
			"-0.023": 0.0,
			"-0.022": 0.0,
			"-0.021": 0.0,
			"-0.02": 0.0,
			"-0.019": 0.0,
			"-0.018": 0.0,
			"-0.017": 0.0,
			"-0.016": 0.0,
			"-0.015": 0.437277410189,
			"-0.014": 1.32333158561,
			"-0.013": 1.51594143375,
			"-0.012": 2.18242196947,
			"-0.011": 1.78588517639,
			"-0.01": 1.72420326174,
			"-0.009": 1.76047024726,
			"-0.008": 4.30402923872,
			"-0.007": 4.08471857868,
			"-0.006": 3.17691714159,
			"-0.005": 7.30349174006,
			"-0.004": 9.69754125346,
			"-0.003": 9.1498704904,
			"-0.002": 10.2188092038,
			"-0.001": 11.0762259211,
			"0.0": 8.74126473453,
			"0.001": 7.12415991796,
			"0.002": 7.17902980846,
			"0.003": 7.53696438905,
			"0.004": 5.58840785037,
			"0.005": 7.08707050808,
			"0.006": 6.92387334066,
			"0.007": 1.4611481925,
			"0.008": 1.03834866099,
			"0.009": 0.904886757842,
			"0.01": 1.71129778691,
			"0.011": 1.29588321166,
			"0.012": 2.26880287546,
			"0.013": 5.63342108166,
			"0.014": 2.54814343966,
			"0.015": 0.026810065034,
			"0.016": 0.0,
			"0.017": 0.0,
			"0.018": 0.0,
			"0.019": 0.0,
			"0.02": 0.0,
			"0.021": 0.0,
			"0.022": 0.0,
			"0.023": 0.0,
			"0.024": 0.0,
			"0.025": 0.0
		}
	}
}
