{
	 "smiles": "C[Si](C)(C)CC(O)(CN1C=NC=N1)C1=CC=C(F)C=C1", 
	 "Tm": 392.15, 
	 "num_atms": 40, 
	 "gaussian": { 
		 "optdone": 1, 
		 "sigma_profile": "yes", 
		 "theory": "DFT", 
		 "functional": "B3LYP", 
		 "basiset": "6-31G**", 
		 "properties": { 
			 "R2extent": 7271.7932, 
			 "electric_dipole_moment_norm": 1.36620128458, 
			 "electric_quadrupole_moment_norm": 17.8765551665, 
			 "total_energy": -1174.37437836, 
			 "HOMO_LUMO_gap": 0.22657, 
			 "cosmo_polarized_energy": -13.87, 
			 "cosmo_cavitation_energy": 42.97, 
			 "cosmo_dispersion_energy": -26.54, 
			 "cosmo_repulsion_energy": 2.07, 
			 "cosmo_total_nonelectrostatic_energy": 18.51, 
			 "SMD_solvation_energy": 7.09 
		},
		"coords": [
			{
				"x": -2.5036617147,
				"y": -2.3634379117,
				"z": -1.681912055,
				"element": "C" 
			},
			{
				"x": -1.1379481522,
				"y": -1.5370066479,
				"z": -0.6615097504,
				"element": "Si" 
			},
			{
				"x": -0.935763399,
				"y": -2.491938009,
				"z": 0.9606281836,
				"element": "C" 
			},
			{
				"x": 0.4749186152,
				"y": -1.5763153478,
				"z": -1.6508617707,
				"element": "C" 
			},
			{
				"x": -1.7481691448,
				"y": 0.2687934869,
				"z": -0.4224265356,
				"element": "C" 
			},
			{
				"x": -1.1693326423,
				"y": 1.2708256208,
				"z": 0.6019686047,
				"element": "C" 
			},
			{
				"x": -1.7662876443,
				"y": 2.5626801215,
				"z": 0.3802325101,
				"element": "O" 
			},
			{
				"x": -1.4977053854,
				"y": 0.8794490235,
				"z": 2.0712060987,
				"element": "C" 
			},
			{
				"x": -2.9273670042,
				"y": 0.8492449996,
				"z": 2.3398660582,
				"element": "N" 
			},
			{
				"x": -3.7629984349,
				"y": 1.8722382481,
				"z": 2.6367820949,
				"element": "C" 
			},
			{
				"x": -5.0061485124,
				"y": 1.4362484757,
				"z": 2.7667273316,
				"element": "N" 
			},
			{
				"x": -4.8747226347,
				"y": 0.1022716769,
				"z": 2.528488651,
				"element": "C" 
			},
			{
				"x": -3.6411389343,
				"y": -0.3079190352,
				"z": 2.2639419619,
				"element": "N" 
			},
			{
				"x": 0.3400171355,
				"y": 1.4714705436,
				"z": 0.4284932364,
				"element": "C" 
			},
			{
				"x": 1.2906771579,
				"y": 0.7394408155,
				"z": 1.153759131,
				"element": "C" 
			},
			{
				"x": 2.6596400341,
				"y": 0.9218698768,
				"z": 0.9462111384,
				"element": "C" 
			},
			{
				"x": 3.0741091266,
				"y": 1.8506480217,
				"z": 0.0009790483,
				"element": "C" 
			},
			{
				"x": 4.3945248009,
				"y": 2.0347762046,
				"z": -0.2049399377,
				"element": "F" 
			},
			{
				"x": 2.1616836888,
				"y": 2.6001468972,
				"z": -0.7327213751,
				"element": "C" 
			},
			{
				"x": 0.799911545,
				"y": 2.4070898355,
				"z": -0.5102943847,
				"element": "C" 
			},
			{
				"x": -3.4478311052,
				"y": -2.3988090025,
				"z": -1.1275478897,
				"element": "H" 
			},
			{
				"x": -2.6876372665,
				"y": -1.8281119449,
				"z": -2.6202608141,
				"element": "H" 
			},
			{
				"x": -2.2316703167,
				"y": -3.3931729662,
				"z": -1.9394053124,
				"element": "H" 
			},
			{
				"x": -1.8224633806,
				"y": -2.3842128471,
				"z": 1.5934521291,
				"element": "H" 
			},
			{
				"x": -0.8010100454,
				"y": -3.5585369751,
				"z": 0.7462955133,
				"element": "H" 
			},
			{
				"x": -0.0601883071,
				"y": -2.1696881521,
				"z": 1.5346796903,
				"element": "H" 
			},
			{
				"x": 1.3049371642,
				"y": -1.1160814781,
				"z": -1.1071801736,
				"element": "H" 
			},
			{
				"x": 0.7568576082,
				"y": -2.6105843375,
				"z": -1.8797674495,
				"element": "H" 
			},
			{
				"x": 0.3682872818,
				"y": -1.0467347566,
				"z": -2.6042261,
				"element": "H" 
			},
			{
				"x": -2.82806217,
				"y": 0.1850674918,
				"z": -0.232905382,
				"element": "H" 
			},
			{
				"x": -1.6446314635,
				"y": 0.7401731078,
				"z": -1.4096639367,
				"element": "H" 
			},
			{
				"x": -2.671200363,
				"y": 2.4125422383,
				"z": 0.0766972142,
				"element": "H" 
			},
			{
				"x": -1.0462971366,
				"y": 1.62404213,
				"z": 2.7311806491,
				"element": "H" 
			},
			{
				"x": -1.114655551,
				"y": -0.1050860334,
				"z": 2.3340300932,
				"element": "H" 
			},
			{
				"x": -3.4199489925,
				"y": 2.8908779351,
				"z": 2.7487122217,
				"element": "H" 
			},
			{
				"x": -5.7059835365,
				"y": -0.5889680203,
				"z": 2.5560386086,
				"element": "H" 
			},
			{
				"x": 0.9828532592,
				"y": 0.0099617326,
				"z": 1.8948272357,
				"element": "H" 
			},
			{
				"x": 3.3976233874,
				"y": 0.3593501726,
				"z": 1.5076815704,
				"element": "H" 
			},
			{
				"x": 2.5213380848,
				"y": 3.3240175517,
				"z": -1.4561982588,
				"element": "H" 
			},
			{
				"x": 0.0753443485,
				"y": 2.9998772575,
				"z": -1.0555578483,
				"element": "H" 
			}
		],
		 "valence_orbital": [ 
			{
				"type": "occ",
				"energy": -0.28011,
				"method": "rhf"
			},
			{
				"type": "occ",
				"energy": -0.27669,
				"method": "rhf"
			},
			{
				"type": "occ",
				"energy": -0.26772,
				"method": "rhf"
			},
			{
				"type": "occ",
				"energy": -0.2654,
				"method": "rhf"
			},
			{
				"type": "occ",
				"energy": -0.24477,
				"method": "rhf"
			},
			{
				"type": "unocc",
				"energy": -0.0182,
				"method": "rhf"
			},
			{
				"type": "unocc",
				"energy": -0.008,
				"method": "rhf"
			},
			{
				"type": "unocc",
				"energy": 0.00118,
				"method": "rhf"
			},
			{
				"type": "unocc",
				"energy": 0.04658,
				"method": "rhf"
			},
			{
				"type": "unocc",
				"energy": 0.06109,
				"method": "rhf"
			}
		],
		"cosmo_sigma_profile": { 
			"-0.025": 0.0,
			"-0.024": 0.0,
			"-0.023": 0.0,
			"-0.022": 0.0,
			"-0.021": 0.0,
			"-0.02": 0.0,
			"-0.019": 0.0,
			"-0.018": 0.0,
			"-0.017": 0.0,
			"-0.016": 0.0,
			"-0.015": 0.264643737515,
			"-0.014": 0.565874019897,
			"-0.013": 0.792271165661,
			"-0.012": 1.35817352951,
			"-0.011": 1.51949055045,
			"-0.01": 2.04502519226,
			"-0.009": 3.12224720081,
			"-0.008": 5.94137380973,
			"-0.007": 12.3753294515,
			"-0.006": 10.4082180474,
			"-0.005": 13.6130742802,
			"-0.004": 16.6926495364,
			"-0.003": 25.7541991991,
			"-0.002": 26.1835070408,
			"-0.001": 26.8091207708,
			"0.0": 30.6361076991,
			"0.001": 39.4853377534,
			"0.002": 32.4714962827,
			"0.003": 21.5013115826,
			"0.004": 22.5512822102,
			"0.005": 10.1388252882,
			"0.006": 4.32992624496,
			"0.007": 5.00684285367,
			"0.008": 4.47771966073,
			"0.009": 3.51067177558,
			"0.01": 2.9514197901,
			"0.011": 1.90883057275,
			"0.012": 2.12639901561,
			"0.013": 1.33588630552,
			"0.014": 1.7459379256,
			"0.015": 0.969467178633,
			"0.016": 1.02078783615,
			"0.017": 0.421255210368,
			"0.018": 0.0,
			"0.019": 0.0,
			"0.02": 0.0,
			"0.021": 0.0,
			"0.022": 0.0,
			"0.023": 0.0,
			"0.024": 0.0,
			"0.025": 0.0
		}
	}
}
