{
	 "smiles": "CS(=O)(=O)OCC1CCOCC1", 
	 "Tm": 335.15, 
	 "num_atms": 26, 
	 "gaussian": { 
		 "optdone": 1, 
		 "sigma_profile": "yes", 
		 "theory": "DFT", 
		 "functional": "B3LYP", 
		 "basiset": "6-31G**", 
		 "properties": { 
			 "R2extent": 3925.3263, 
			 "electric_dipole_moment_norm": 2.9919207426, 
			 "electric_quadrupole_moment_norm": 25.5121501203, 
			 "total_energy": -974.18428819, 
			 "HOMO_LUMO_gap": 0.28748, 
			 "cosmo_polarized_energy": -14.83, 
			 "cosmo_cavitation_energy": 29.23, 
			 "cosmo_dispersion_energy": -21.76, 
			 "cosmo_repulsion_energy": 1.71, 
			 "cosmo_total_nonelectrostatic_energy": 9.19, 
			 "SMD_solvation_energy": 3.97 
		},
		"coords": [
			{
				"x": 2.6995937574,
				"y": -0.1827642396,
				"z": 4.021824295,
				"element": "C" 
			},
			{
				"x": 2.9316338411,
				"y": 0.2327519151,
				"z": 2.2936620636,
				"element": "S" 
			},
			{
				"x": 3.8435012863,
				"y": -0.7242055604,
				"z": 1.6692641924,
				"element": "O" 
			},
			{
				"x": 3.1773944573,
				"y": 1.6672408441,
				"z": 2.1559532778,
				"element": "O" 
			},
			{
				"x": 1.3951754465,
				"y": -0.0997642465,
				"z": 1.8189107052,
				"element": "O" 
			},
			{
				"x": 1.1353675429,
				"y": 0.0920790551,
				"z": 0.3985561735,
				"element": "C" 
			},
			{
				"x": -0.342490672,
				"y": -0.1861392212,
				"z": 0.1539098417,
				"element": "C" 
			},
			{
				"x": -1.2536129846,
				"y": 0.7315874568,
				"z": 1.001624593,
				"element": "C" 
			},
			{
				"x": -2.6420247533,
				"y": 0.8393809487,
				"z": 0.3751239676,
				"element": "C" 
			},
			{
				"x": -2.6225361205,
				"y": 1.4129551666,
				"z": -0.9339798216,
				"element": "O" 
			},
			{
				"x": -1.3825868144,
				"y": 1.3081715164,
				"z": -1.6261427985,
				"element": "C" 
			},
			{
				"x": -0.6743374053,
				"y": -0.0198663714,
				"z": -1.357685452,
				"element": "C" 
			},
			{
				"x": 3.6595563031,
				"y": -0.0140206168,
				"z": 4.5120792967,
				"element": "H" 
			},
			{
				"x": 1.9347341992,
				"y": 0.4712707093,
				"z": 4.43992245,
				"element": "H" 
			},
			{
				"x": 2.4100853383,
				"y": -1.2308564908,
				"z": 4.09416899,
				"element": "H" 
			},
			{
				"x": 1.7696371234,
				"y": -0.5971273611,
				"z": -0.1684933619,
				"element": "H" 
			},
			{
				"x": 1.3942436511,
				"y": 1.1232353187,
				"z": 0.1300960564,
				"element": "H" 
			},
			{
				"x": -0.5319622814,
				"y": -1.227586868,
				"z": 0.4410069834,
				"element": "H" 
			},
			{
				"x": -0.8146122502,
				"y": 1.7346053624,
				"z": 1.0747304475,
				"element": "H" 
			},
			{
				"x": -1.3346759452,
				"y": 0.3529444309,
				"z": 2.0248458721,
				"element": "H" 
			},
			{
				"x": -3.1053803353,
				"y": -0.160486833,
				"z": 0.3326408323,
				"element": "H" 
			},
			{
				"x": -3.2958219512,
				"y": 1.4729882614,
				"z": 0.9848714413,
				"element": "H" 
			},
			{
				"x": -0.7194786373,
				"y": 2.1478714902,
				"z": -1.3591328101,
				"element": "H" 
			},
			{
				"x": -1.6210498851,
				"y": 1.4130398371,
				"z": -2.6893932892,
				"element": "H" 
			},
			{
				"x": -1.3289355135,
				"y": -0.8348080845,
				"z": -1.6843234311,
				"element": "H" 
			},
			{
				"x": 0.2324826024,
				"y": -0.0838964195,
				"z": -1.9720405151,
				"element": "H" 
			}
		],
		 "valence_orbital": [ 
			{
				"type": "occ",
				"energy": -0.32027,
				"method": "rhf"
			},
			{
				"type": "occ",
				"energy": -0.31826,
				"method": "rhf"
			},
			{
				"type": "occ",
				"energy": -0.29357,
				"method": "rhf"
			},
			{
				"type": "occ",
				"energy": -0.29024,
				"method": "rhf"
			},
			{
				"type": "occ",
				"energy": -0.24471,
				"method": "rhf"
			},
			{
				"type": "unocc",
				"energy": 0.04277,
				"method": "rhf"
			},
			{
				"type": "unocc",
				"energy": 0.06176,
				"method": "rhf"
			},
			{
				"type": "unocc",
				"energy": 0.07323,
				"method": "rhf"
			},
			{
				"type": "unocc",
				"energy": 0.08962,
				"method": "rhf"
			},
			{
				"type": "unocc",
				"energy": 0.09428,
				"method": "rhf"
			}
		],
		"cosmo_sigma_profile": { 
			"-0.025": 0.0,
			"-0.024": 0.0,
			"-0.023": 0.0,
			"-0.022": 0.0,
			"-0.021": 0.0,
			"-0.02": 0.0,
			"-0.019": 0.0,
			"-0.018": 0.0,
			"-0.017": 0.0,
			"-0.016": 0.0,
			"-0.015": 0.0,
			"-0.014": 0.0,
			"-0.013": 0.0,
			"-0.012": 0.0,
			"-0.011": 0.147879967871,
			"-0.01": 1.53405454949,
			"-0.009": 5.38279040544,
			"-0.008": 4.39574062894,
			"-0.007": 5.16899183685,
			"-0.006": 9.27764977667,
			"-0.005": 16.5882982053,
			"-0.004": 25.8811873901,
			"-0.003": 32.8013852445,
			"-0.002": 22.785493123,
			"-0.001": 16.2003018572,
			"0.0": 9.34992244621,
			"0.001": 7.25529584638,
			"0.002": 6.49247125403,
			"0.003": 7.15109464571,
			"0.004": 4.77197392028,
			"0.005": 5.44277269583,
			"0.006": 5.03010242297,
			"0.007": 4.38073438486,
			"0.008": 4.0248974351,
			"0.009": 5.15758111168,
			"0.01": 11.9359544078,
			"0.011": 10.7408466388,
			"0.012": 2.17355624059,
			"0.013": 1.62591188456,
			"0.014": 1.68765148918,
			"0.015": 0.158395963596,
			"0.016": 0.0,
			"0.017": 0.0,
			"0.018": 0.0,
			"0.019": 0.0,
			"0.02": 0.0,
			"0.021": 0.0,
			"0.022": 0.0,
			"0.023": 0.0,
			"0.024": 0.0,
			"0.025": 0.0
		}
	}
}
