{
	 "smiles": "CCOC1=CC=C(CC(O)=O)C=C1", 
	 "Tm": 361.95, 
	 "num_atms": 25, 
	 "gaussian": { 
		 "optdone": 1, 
		 "sigma_profile": "yes", 
		 "theory": "DFT", 
		 "functional": "B3LYP", 
		 "basiset": "6-31G**", 
		 "properties": { 
			 "R2extent": 3816.8597, 
			 "electric_dipole_moment_norm": 2.79369446075, 
			 "electric_quadrupole_moment_norm": 5.21317775354, 
			 "total_energy": -613.982156976, 
			 "HOMO_LUMO_gap": 0.21179, 
			 "cosmo_polarized_energy": -11.54, 
			 "cosmo_cavitation_energy": 29.31, 
			 "cosmo_dispersion_energy": -21.17, 
			 "cosmo_repulsion_energy": 1.71, 
			 "cosmo_total_nonelectrostatic_energy": 9.86, 
			 "SMD_solvation_energy": 6.46 
		},
		"coords": [
			{
				"x": 3.2008363761,
				"y": -2.2472949322,
				"z": 2.3335386793,
				"element": "C" 
			},
			{
				"x": 2.6290919455,
				"y": -1.4563534694,
				"z": 1.1697993622,
				"element": "C" 
			},
			{
				"x": 1.341732727,
				"y": -0.9836288261,
				"z": 1.5621215,
				"element": "O" 
			},
			{
				"x": 0.6183085705,
				"y": -0.2390613976,
				"z": 0.677014411,
				"element": "C" 
			},
			{
				"x": 1.0438910713,
				"y": 0.1088052342,
				"z": -0.6095069461,
				"element": "C" 
			},
			{
				"x": 0.2107697107,
				"y": 0.8799532667,
				"z": -1.4268533434,
				"element": "C" 
			},
			{
				"x": -1.0383620511,
				"y": 1.3185404728,
				"z": -0.988058687,
				"element": "C" 
			},
			{
				"x": -1.934046968,
				"y": 2.1639963292,
				"z": -1.8807037718,
				"element": "C" 
			},
			{
				"x": -3.2268695831,
				"y": 1.4368650004,
				"z": -2.2011453536,
				"element": "C" 
			},
			{
				"x": -3.1609736459,
				"y": 0.7738033488,
				"z": -3.3800831933,
				"element": "O" 
			},
			{
				"x": -4.2077273153,
				"y": 1.4087655709,
				"z": -1.4897833052,
				"element": "O" 
			},
			{
				"x": -1.4536991093,
				"y": 0.9574085173,
				"z": 0.3046288818,
				"element": "C" 
			},
			{
				"x": -0.6403995092,
				"y": 0.191116247,
				"z": 1.1272592418,
				"element": "C" 
			},
			{
				"x": 4.1928481459,
				"y": -2.6313477353,
				"z": 2.076645102,
				"element": "H" 
			},
			{
				"x": 3.2920783248,
				"y": -1.6150498141,
				"z": 3.2211218706,
				"element": "H" 
			},
			{
				"x": 2.5533466768,
				"y": -3.093667367,
				"z": 2.579015486,
				"element": "H" 
			},
			{
				"x": 3.279361045,
				"y": -0.6065830978,
				"z": 0.917027944,
				"element": "H" 
			},
			{
				"x": 2.539578842,
				"y": -2.0874886413,
				"z": 0.2740080457,
				"element": "H" 
			},
			{
				"x": 2.0087050666,
				"y": -0.209694335,
				"z": -0.9855300383,
				"element": "H" 
			},
			{
				"x": 0.5520080292,
				"y": 1.1422568361,
				"z": -2.4251223166,
				"element": "H" 
			},
			{
				"x": -2.2115406692,
				"y": 3.0936172444,
				"z": -1.3738512714,
				"element": "H" 
			},
			{
				"x": -1.4147998974,
				"y": 2.4134576314,
				"z": -2.8088079861,
				"element": "H" 
			},
			{
				"x": -4.0094710121,
				"y": 0.308187248,
				"z": -3.4741252642,
				"element": "H" 
			},
			{
				"x": -2.4303197462,
				"y": 1.2751484108,
				"z": 0.6584968649,
				"element": "H" 
			},
			{
				"x": -0.9554470248,
				"y": -0.0897517424,
				"z": 2.1269940878,
				"element": "H" 
			}
		],
		 "valence_orbital": [ 
			{
				"type": "occ",
				"energy": -0.31557,
				"method": "rhf"
			},
			{
				"type": "occ",
				"energy": -0.31211,
				"method": "rhf"
			},
			{
				"type": "occ",
				"energy": -0.27241,
				"method": "rhf"
			},
			{
				"type": "occ",
				"energy": -0.24976,
				"method": "rhf"
			},
			{
				"type": "occ",
				"energy": -0.21493,
				"method": "rhf"
			},
			{
				"type": "unocc",
				"energy": -0.00314,
				"method": "rhf"
			},
			{
				"type": "unocc",
				"energy": 0.00038,
				"method": "rhf"
			},
			{
				"type": "unocc",
				"energy": 0.0262,
				"method": "rhf"
			},
			{
				"type": "unocc",
				"energy": 0.08079,
				"method": "rhf"
			},
			{
				"type": "unocc",
				"energy": 0.09549,
				"method": "rhf"
			}
		],
		"cosmo_sigma_profile": { 
			"-0.025": 0.0,
			"-0.024": 0.0,
			"-0.023": 0.0,
			"-0.022": 0.0,
			"-0.021": 0.0,
			"-0.02": 0.0,
			"-0.019": 0.0,
			"-0.018": 0.556859403753,
			"-0.017": 1.22022710316,
			"-0.016": 0.772215987076,
			"-0.015": 0.701423453525,
			"-0.014": 0.562225249131,
			"-0.013": 0.560941855379,
			"-0.012": 0.705572747212,
			"-0.011": 1.1471368717,
			"-0.01": 0.705487821366,
			"-0.009": 0.314711708639,
			"-0.008": 0.521713300389,
			"-0.007": 1.77473640421,
			"-0.006": 10.1025228017,
			"-0.005": 16.0187627705,
			"-0.004": 24.4945995882,
			"-0.003": 24.4807591829,
			"-0.002": 18.7863871531,
			"-0.001": 15.9013261256,
			"0.0": 15.1193165405,
			"0.001": 12.711638022,
			"0.002": 10.9609820625,
			"0.003": 13.9010184823,
			"0.004": 12.466231981,
			"0.005": 14.9800393406,
			"0.006": 7.42186752566,
			"0.007": 4.25261788124,
			"0.008": 4.23782851365,
			"0.009": 3.79476756246,
			"0.01": 3.84626885489,
			"0.011": 3.73315801077,
			"0.012": 4.21365391424,
			"0.013": 0.447986074654,
			"0.014": 0.0,
			"0.015": 0.0,
			"0.016": 0.0,
			"0.017": 0.0,
			"0.018": 0.0,
			"0.019": 0.0,
			"0.02": 0.0,
			"0.021": 0.0,
			"0.022": 0.0,
			"0.023": 0.0,
			"0.024": 0.0,
			"0.025": 0.0
		}
	}
}
