{
	 "smiles": "OCC1=NNC(=C1)C1=CC=CO1", 
	 "Tm": 432.15, 
	 "num_atms": 20, 
	 "gaussian": { 
		 "optdone": 1, 
		 "sigma_profile": "yes", 
		 "theory": "DFT", 
		 "functional": "B3LYP", 
		 "basiset": "6-31G**", 
		 "properties": { 
			 "R2extent": 2756.8205, 
			 "electric_dipole_moment_norm": 4.75340774392, 
			 "electric_quadrupole_moment_norm": 9.08079957658, 
			 "total_energy": -569.566434637, 
			 "HOMO_LUMO_gap": 0.1817, 
			 "cosmo_polarized_energy": -12.79, 
			 "cosmo_cavitation_energy": 24.79, 
			 "cosmo_dispersion_energy": -18.7, 
			 "cosmo_repulsion_energy": 1.5, 
			 "cosmo_total_nonelectrostatic_energy": 7.58, 
			 "SMD_solvation_energy": 4.36 
		},
		"coords": [
			{
				"x": -2.1602567011,
				"y": -1.0283637351,
				"z": 3.139974582,
				"element": "O" 
			},
			{
				"x": -1.3048497725,
				"y": 0.0561635568,
				"z": 2.8462213387,
				"element": "C" 
			},
			{
				"x": -0.5982911782,
				"y": -0.1085405046,
				"z": 1.5254781859,
				"element": "C" 
			},
			{
				"x": -0.6600853723,
				"y": -1.2910776061,
				"z": 0.9149104772,
				"element": "N" 
			},
			{
				"x": 0.0821849634,
				"y": -1.1438741322,
				"z": -0.2041191945,
				"element": "N" 
			},
			{
				"x": 0.6149204271,
				"y": 0.1072079331,
				"z": -0.3254678362,
				"element": "C" 
			},
			{
				"x": 0.1893493545,
				"y": 0.8095349587,
				"z": 0.7952464371,
				"element": "C" 
			},
			{
				"x": 1.4397675936,
				"y": 0.5084072153,
				"z": -1.4405667983,
				"element": "C" 
			},
			{
				"x": 1.9056798938,
				"y": -0.1316035472,
				"z": -2.560856082,
				"element": "C" 
			},
			{
				"x": 2.6834525715,
				"y": 0.8276366478,
				"z": -3.2821183197,
				"element": "C" 
			},
			{
				"x": 2.6372746334,
				"y": 1.9776396739,
				"z": -2.5543619076,
				"element": "C" 
			},
			{
				"x": 1.8853706902,
				"y": 1.8018600824,
				"z": -1.4314639288,
				"element": "O" 
			},
			{
				"x": -1.8976852271,
				"y": -1.7528697473,
				"z": 2.5523917229,
				"element": "H" 
			},
			{
				"x": -1.899021455,
				"y": 0.9804682836,
				"z": 2.8331034343,
				"element": "H" 
			},
			{
				"x": -0.5489866668,
				"y": 0.1824040085,
				"z": 3.6406061285,
				"element": "H" 
			},
			{
				"x": 0.1631437964,
				"y": -1.9163187527,
				"z": -0.845602544,
				"element": "H" 
			},
			{
				"x": 0.4215824481,
				"y": 1.8359615254,
				"z": 1.0338769685,
				"element": "H" 
			},
			{
				"x": 1.7232874919,
				"y": -1.1589694299,
				"z": -2.8430139071,
				"element": "H" 
			},
			{
				"x": 3.2049802909,
				"y": 0.6762012124,
				"z": -4.2159154182,
				"element": "H" 
			},
			{
				"x": 3.0609822182,
				"y": 2.9608323571,
				"z": -2.6856233386,
				"element": "H" 
			}
		],
		 "valence_orbital": [ 
			{
				"type": "occ",
				"energy": -0.29688,
				"method": "rhf"
			},
			{
				"type": "occ",
				"energy": -0.28587,
				"method": "rhf"
			},
			{
				"type": "occ",
				"energy": -0.26732,
				"method": "rhf"
			},
			{
				"type": "occ",
				"energy": -0.24336,
				"method": "rhf"
			},
			{
				"type": "occ",
				"energy": -0.21455,
				"method": "rhf"
			},
			{
				"type": "unocc",
				"energy": -0.03285,
				"method": "rhf"
			},
			{
				"type": "unocc",
				"energy": 0.0341,
				"method": "rhf"
			},
			{
				"type": "unocc",
				"energy": 0.05636,
				"method": "rhf"
			},
			{
				"type": "unocc",
				"energy": 0.06321,
				"method": "rhf"
			},
			{
				"type": "unocc",
				"energy": 0.1075,
				"method": "rhf"
			}
		],
		"cosmo_sigma_profile": { 
			"-0.025": 0.0,
			"-0.024": 0.0,
			"-0.023": 0.0,
			"-0.022": 0.0,
			"-0.021": 0.0,
			"-0.02": 0.0,
			"-0.019": 0.0,
			"-0.018": 0.0,
			"-0.017": 0.225781425734,
			"-0.016": 1.09539577546,
			"-0.015": 1.39094626168,
			"-0.014": 1.47908469521,
			"-0.013": 1.09214428922,
			"-0.012": 1.33488190897,
			"-0.011": 1.45315607373,
			"-0.01": 2.08944772358,
			"-0.009": 3.33203345148,
			"-0.008": 4.07552061399,
			"-0.007": 7.33444171633,
			"-0.006": 7.06180003148,
			"-0.005": 9.38243086548,
			"-0.004": 15.3448144172,
			"-0.003": 12.1401563448,
			"-0.002": 9.90559677052,
			"-0.001": 9.57625919934,
			"0.0": 9.68383362238,
			"0.001": 11.8262233714,
			"0.002": 19.5708099106,
			"0.003": 16.4891192545,
			"0.004": 16.5379466548,
			"0.005": 11.0470518903,
			"0.006": 4.90305629807,
			"0.007": 3.13996401653,
			"0.008": 2.76780681222,
			"0.009": 3.22848632427,
			"0.01": 2.26451205772,
			"0.011": 2.23617260473,
			"0.012": 1.46544231903,
			"0.013": 1.49789730763,
			"0.014": 2.68600893013,
			"0.015": 0.65673453656,
			"0.016": 0.0,
			"0.017": 0.0,
			"0.018": 0.0,
			"0.019": 0.0,
			"0.02": 0.0,
			"0.021": 0.0,
			"0.022": 0.0,
			"0.023": 0.0,
			"0.024": 0.0,
			"0.025": 0.0
		}
	}
}
