{
	 "smiles": "OC1=CC=CC(O)=C1[N+]([O-])=O", 
	 "Tm": 355.65, 
	 "num_atms": 16, 
	 "gaussian": { 
		 "optdone": 1, 
		 "sigma_profile": "yes", 
		 "theory": "DFT", 
		 "functional": "B3LYP", 
		 "basiset": "6-31G**", 
		 "properties": { 
			 "R2extent": 1657.5633, 
			 "electric_dipole_moment_norm": 2.52659800918, 
			 "electric_quadrupole_moment_norm": 1.99130147642, 
			 "total_energy": -587.2056137, 
			 "HOMO_LUMO_gap": 0.12723, 
			 "cosmo_polarized_energy": -7.62, 
			 "cosmo_cavitation_energy": 20.34, 
			 "cosmo_dispersion_energy": -16.02, 
			 "cosmo_repulsion_energy": 1.26, 
			 "cosmo_total_nonelectrostatic_energy": 5.58, 
			 "SMD_solvation_energy": 6.15 
		},
		"coords": [
			{
				"x": -0.8758122237,
				"y": -1.769628157,
				"z": 1.4773555518,
				"element": "O" 
			},
			{
				"x": -0.5833156934,
				"y": -0.6861213892,
				"z": 0.7545583299,
				"element": "C" 
			},
			{
				"x": -0.9174364735,
				"y": 0.5635057415,
				"z": 1.2775167308,
				"element": "C" 
			},
			{
				"x": -0.6300177316,
				"y": 1.7193667306,
				"z": 0.5561329925,
				"element": "C" 
			},
			{
				"x": -0.0106256476,
				"y": 1.6793032078,
				"z": -0.6903666709,
				"element": "C" 
			},
			{
				"x": 0.34244768,
				"y": 0.4530395877,
				"z": -1.2545488558,
				"element": "C" 
			},
			{
				"x": 0.9343588669,
				"y": 0.4576689674,
				"z": -2.4510336827,
				"element": "O" 
			},
			{
				"x": 0.0559033995,
				"y": -0.7518654803,
				"z": -0.528976898,
				"element": "C" 
			},
			{
				"x": 0.4056419979,
				"y": -2.011359356,
				"z": -1.0820949181,
				"element": "N" 
			},
			{
				"x": 0.1566651245,
				"y": -3.0611568184,
				"z": -0.4512352509,
				"element": "O" 
			},
			{
				"x": 0.9621412164,
				"y": -2.0695323636,
				"z": -2.1996850392,
				"element": "O" 
			},
			{
				"x": -0.5724979451,
				"y": -2.5525433665,
				"z": 0.9593764624,
				"element": "H" 
			},
			{
				"x": -1.3993715438,
				"y": 0.5963361295,
				"z": 2.2472088368,
				"element": "H" 
			},
			{
				"x": -0.8975361728,
				"y": 2.683205598,
				"z": 0.9793468566,
				"element": "H" 
			},
			{
				"x": 0.2123802274,
				"y": 2.5794666497,
				"z": -1.2503825919,
				"element": "H" 
			},
			{
				"x": 1.1091749189,
				"y": -0.4833856811,
				"z": -2.6900718532,
				"element": "H" 
			}
		],
		 "valence_orbital": [ 
			{
				"type": "occ",
				"energy": -0.33595,
				"method": "rhf"
			},
			{
				"type": "occ",
				"energy": -0.32932,
				"method": "rhf"
			},
			{
				"type": "occ",
				"energy": -0.31758,
				"method": "rhf"
			},
			{
				"type": "occ",
				"energy": -0.28121,
				"method": "rhf"
			},
			{
				"type": "occ",
				"energy": -0.23659,
				"method": "rhf"
			},
			{
				"type": "unocc",
				"energy": -0.10936,
				"method": "rhf"
			},
			{
				"type": "unocc",
				"energy": -0.00742,
				"method": "rhf"
			},
			{
				"type": "unocc",
				"energy": -0.00645,
				"method": "rhf"
			},
			{
				"type": "unocc",
				"energy": 0.07269,
				"method": "rhf"
			},
			{
				"type": "unocc",
				"energy": 0.1229,
				"method": "rhf"
			}
		],
		"cosmo_sigma_profile": { 
			"-0.025": 0.0,
			"-0.024": 0.0,
			"-0.023": 0.0,
			"-0.022": 0.0,
			"-0.021": 0.0,
			"-0.02": 0.0,
			"-0.019": 0.0,
			"-0.018": 0.0,
			"-0.017": 0.0,
			"-0.016": 0.0,
			"-0.015": 0.0,
			"-0.014": 0.0,
			"-0.013": 0.0,
			"-0.012": 0.0,
			"-0.011": 0.156586139522,
			"-0.01": 0.898875816846,
			"-0.009": 1.04381377787,
			"-0.008": 4.61876455651,
			"-0.007": 11.6857549118,
			"-0.006": 11.9586137271,
			"-0.005": 11.4184889913,
			"-0.004": 8.42369684041,
			"-0.003": 7.8543645285,
			"-0.002": 8.46434897653,
			"-0.001": 11.3480461626,
			"0.0": 9.08634095861,
			"0.001": 12.3239740468,
			"0.002": 14.4629597481,
			"0.003": 10.3497460867,
			"0.004": 4.77186369827,
			"0.005": 6.35067603168,
			"0.006": 5.16782573914,
			"0.007": 6.52388272325,
			"0.008": 5.98076750788,
			"0.009": 7.37080626202,
			"0.01": 3.46558411443,
			"0.011": 0.0786412382191,
			"0.012": 0.0,
			"0.013": 0.0,
			"0.014": 0.0,
			"0.015": 0.0,
			"0.016": 0.0,
			"0.017": 0.0,
			"0.018": 0.0,
			"0.019": 0.0,
			"0.02": 0.0,
			"0.021": 0.0,
			"0.022": 0.0,
			"0.023": 0.0,
			"0.024": 0.0,
			"0.025": 0.0
		}
	}
}
