{
	 "smiles": "NC1=C(Cl)C=NN=C1", 
	 "Tm": 353.15, 
	 "num_atms": 12, 
	 "gaussian": { 
		 "optdone": 1, 
		 "sigma_profile": "yes", 
		 "theory": "DFT", 
		 "functional": "B3LYP", 
		 "basiset": "6-31G**", 
		 "properties": { 
			 "R2extent": 1533.1214, 
			 "electric_dipole_moment_norm": 4.92136587849, 
			 "electric_quadrupole_moment_norm": 14.7524462995, 
			 "total_energy": -779.241390095, 
			 "HOMO_LUMO_gap": 0.1946, 
			 "cosmo_polarized_energy": -15.07, 
			 "cosmo_cavitation_energy": 18.12, 
			 "cosmo_dispersion_energy": -13.97, 
			 "cosmo_repulsion_energy": 1.16, 
			 "cosmo_total_nonelectrostatic_energy": 5.31, 
			 "SMD_solvation_energy": 1.4 
		},
		"coords": [
			{
				"x": -0.202203867,
				"y": -0.9847588379,
				"z": -0.638532041,
				"element": "N" 
			},
			{
				"x": 0.1768784633,
				"y": -0.6437524063,
				"z": 0.628410599,
				"element": "C" 
			},
			{
				"x": 1.3897154438,
				"y": -0.0231367308,
				"z": 0.9396562774,
				"element": "C" 
			},
			{
				"x": 2.5119397265,
				"y": 0.4249996327,
				"z": -0.3320894442,
				"element": "Cl" 
			},
			{
				"x": 1.6839161051,
				"y": 0.2358283387,
				"z": 2.2758406379,
				"element": "C" 
			},
			{
				"x": 0.8699188379,
				"y": -0.0733008766,
				"z": 3.288181899,
				"element": "N" 
			},
			{
				"x": -0.2978953435,
				"y": -0.6642408058,
				"z": 3.0125441659,
				"element": "N" 
			},
			{
				"x": -0.6272415361,
				"y": -0.9346709916,
				"z": 1.7585267165,
				"element": "C" 
			},
			{
				"x": 0.2956856493,
				"y": -0.5720864209,
				"z": -1.4127313635,
				"element": "H" 
			},
			{
				"x": -1.1701826666,
				"y": -1.2128995123,
				"z": -0.8023131552,
				"element": "H" 
			},
			{
				"x": 2.6195940328,
				"y": 0.7175099705,
				"z": 2.5459922192,
				"element": "H" 
			},
			{
				"x": -1.5929248454,
				"y": -1.4182913595,
				"z": 1.6176134892,
				"element": "H" 
			}
		],
		 "valence_orbital": [ 
			{
				"type": "occ",
				"energy": -0.34434,
				"method": "rhf"
			},
			{
				"type": "occ",
				"energy": -0.30769,
				"method": "rhf"
			},
			{
				"type": "occ",
				"energy": -0.2868,
				"method": "rhf"
			},
			{
				"type": "occ",
				"energy": -0.24572,
				"method": "rhf"
			},
			{
				"type": "occ",
				"energy": -0.23477,
				"method": "rhf"
			},
			{
				"type": "unocc",
				"energy": -0.04017,
				"method": "rhf"
			},
			{
				"type": "unocc",
				"energy": -0.02422,
				"method": "rhf"
			},
			{
				"type": "unocc",
				"energy": 0.01315,
				"method": "rhf"
			},
			{
				"type": "unocc",
				"energy": 0.06003,
				"method": "rhf"
			},
			{
				"type": "unocc",
				"energy": 0.10857,
				"method": "rhf"
			}
		],
		"cosmo_sigma_profile": { 
			"-0.025": 0.0,
			"-0.024": 0.0,
			"-0.023": 0.0,
			"-0.022": 0.0,
			"-0.021": 0.0,
			"-0.02": 0.0,
			"-0.019": 0.0,
			"-0.018": 0.0,
			"-0.017": 0.0,
			"-0.016": 0.0458880860409,
			"-0.015": 1.35208727638,
			"-0.014": 2.25425969798,
			"-0.013": 2.55392994081,
			"-0.012": 1.9392893058,
			"-0.011": 3.22404989667,
			"-0.01": 2.74201336202,
			"-0.009": 2.96315697818,
			"-0.008": 4.78805524944,
			"-0.007": 4.38976513125,
			"-0.006": 4.5051172086,
			"-0.005": 4.40059380044,
			"-0.004": 4.96320926336,
			"-0.003": 5.43654061518,
			"-0.002": 8.70773440463,
			"-0.001": 15.7249270239,
			"0.0": 14.1882761308,
			"0.001": 9.91702842383,
			"0.002": 8.36706613163,
			"0.003": 10.4741207206,
			"0.004": 6.21298059932,
			"0.005": 2.09422372681,
			"0.006": 3.21923905569,
			"0.007": 2.89063906756,
			"0.008": 2.47969622827,
			"0.009": 1.92903190028,
			"0.01": 1.41729090632,
			"0.011": 1.97115754728,
			"0.012": 1.97764020628,
			"0.013": 2.94420062013,
			"0.014": 3.20544175598,
			"0.015": 2.26779079412,
			"0.016": 1.91842312733,
			"0.017": 0.290678438033,
			"0.018": 0.0,
			"0.019": 0.0,
			"0.02": 0.0,
			"0.021": 0.0,
			"0.022": 0.0,
			"0.023": 0.0,
			"0.024": 0.0,
			"0.025": 0.0
		}
	}
}
