{
	 "smiles": "CN1C2=CC=CC=C2C2=C1C=CC(=C2)[N+]([O-])=O", 
	 "Tm": 446.15, 
	 "num_atms": 27, 
	 "gaussian": { 
		 "optdone": 1, 
		 "sigma_profile": "yes", 
		 "theory": "DFT", 
		 "functional": "B3LYP", 
		 "basiset": "6-31G**", 
		 "properties": { 
			 "R2extent": 4745.1659, 
			 "electric_dipole_moment_norm": 7.18915175873, 
			 "electric_quadrupole_moment_norm": 22.073676216, 
			 "total_energy": -761.287692808, 
			 "HOMO_LUMO_gap": 0.14689, 
			 "cosmo_polarized_energy": -12.7, 
			 "cosmo_cavitation_energy": 31.38, 
			 "cosmo_dispersion_energy": -23.04, 
			 "cosmo_repulsion_energy": 1.73, 
			 "cosmo_total_nonelectrostatic_energy": 10.07, 
			 "SMD_solvation_energy": 7.09 
		},
		"coords": [
			{
				"x": -3.446239769,
				"y": -1.4478766516,
				"z": 1.2032012024,
				"element": "C" 
			},
			{
				"x": -2.2234626198,
				"y": -0.8905883095,
				"z": 0.6607520332,
				"element": "N" 
			},
			{
				"x": -1.5662534261,
				"y": -1.3596236823,
				"z": -0.4774769123,
				"element": "C" 
			},
			{
				"x": -1.9262532931,
				"y": -2.398664449,
				"z": -1.3392097356,
				"element": "C" 
			},
			{
				"x": -1.088612252,
				"y": -2.6566442298,
				"z": -2.4231674741,
				"element": "C" 
			},
			{
				"x": 0.0785986791,
				"y": -1.9053261371,
				"z": -2.6430829169,
				"element": "C" 
			},
			{
				"x": 0.4352883564,
				"y": -0.8751110991,
				"z": -1.7768395681,
				"element": "C" 
			},
			{
				"x": -0.3885192222,
				"y": -0.5960083516,
				"z": -0.6811705611,
				"element": "C" 
			},
			{
				"x": -0.3332611053,
				"y": 0.3673160717,
				"z": 0.399012689,
				"element": "C" 
			},
			{
				"x": -1.4854639087,
				"y": 0.1395508641,
				"z": 1.2090168581,
				"element": "C" 
			},
			{
				"x": -1.7338689999,
				"y": 0.9005881145,
				"z": 2.3603153141,
				"element": "C" 
			},
			{
				"x": -0.8304149913,
				"y": 1.9003130947,
				"z": 2.691196776,
				"element": "C" 
			},
			{
				"x": 0.2981600278,
				"y": 2.1240973659,
				"z": 1.8850888942,
				"element": "C" 
			},
			{
				"x": 0.5655566012,
				"y": 1.3732558084,
				"z": 0.7420636091,
				"element": "C" 
			},
			{
				"x": 1.2309284709,
				"y": 3.1846197276,
				"z": 2.2635705414,
				"element": "N" 
			},
			{
				"x": 2.2172785722,
				"y": 3.3679288564,
				"z": 1.5461284085,
				"element": "O" 
			},
			{
				"x": 0.9802678713,
				"y": 3.8380989674,
				"z": 3.2791860317,
				"element": "O" 
			},
			{
				"x": -4.1136940392,
				"y": -1.7342446591,
				"z": 0.3864610694,
				"element": "H" 
			},
			{
				"x": -3.957546099,
				"y": -0.6941667735,
				"z": 1.8044936711,
				"element": "H" 
			},
			{
				"x": -3.2537897668,
				"y": -2.3286600729,
				"z": 1.8277840738,
				"element": "H" 
			},
			{
				"x": -2.8197179925,
				"y": -2.9922566734,
				"z": -1.1751921317,
				"element": "H" 
			},
			{
				"x": -1.343850186,
				"y": -3.4587005397,
				"z": -3.1094002797,
				"element": "H" 
			},
			{
				"x": 0.7087826979,
				"y": -2.1342627581,
				"z": -3.496752166,
				"element": "H" 
			},
			{
				"x": 1.3398350716,
				"y": -0.2985704938,
				"z": -1.947451247,
				"element": "H" 
			},
			{
				"x": -2.5999731879,
				"y": 0.7203055972,
				"z": 2.9877068182,
				"element": "H" 
			},
			{
				"x": -0.9725576264,
				"y": 2.5183047256,
				"z": 3.5683535026,
				"element": "H" 
			},
			{
				"x": 1.4530821365,
				"y": 1.5860256871,
				"z": 0.1590114995,
				"element": "H" 
			}
		],
		 "valence_orbital": [ 
			{
				"type": "occ",
				"energy": -0.29312,
				"method": "rhf"
			},
			{
				"type": "occ",
				"energy": -0.27614,
				"method": "rhf"
			},
			{
				"type": "occ",
				"energy": -0.27124,
				"method": "rhf"
			},
			{
				"type": "occ",
				"energy": -0.23185,
				"method": "rhf"
			},
			{
				"type": "occ",
				"energy": -0.22009,
				"method": "rhf"
			},
			{
				"type": "unocc",
				"energy": -0.0732,
				"method": "rhf"
			},
			{
				"type": "unocc",
				"energy": -0.04494,
				"method": "rhf"
			},
			{
				"type": "unocc",
				"energy": -0.00229,
				"method": "rhf"
			},
			{
				"type": "unocc",
				"energy": 0.01912,
				"method": "rhf"
			},
			{
				"type": "unocc",
				"energy": 0.035,
				"method": "rhf"
			}
		],
		"cosmo_sigma_profile": { 
			"-0.025": 0.0,
			"-0.024": 0.0,
			"-0.023": 0.0,
			"-0.022": 0.0,
			"-0.021": 0.0,
			"-0.02": 0.0,
			"-0.019": 0.0,
			"-0.018": 0.0,
			"-0.017": 0.0,
			"-0.016": 0.0,
			"-0.015": 0.0,
			"-0.014": 0.0,
			"-0.013": 0.0,
			"-0.012": 0.0,
			"-0.011": 0.0,
			"-0.01": 0.0,
			"-0.009": 0.650049526466,
			"-0.008": 3.13963831009,
			"-0.007": 9.42642997032,
			"-0.006": 16.9030663591,
			"-0.005": 20.0673891842,
			"-0.004": 21.2898345078,
			"-0.003": 22.1522174832,
			"-0.002": 12.7038528256,
			"-0.001": 12.1458158794,
			"0.0": 19.2821325036,
			"0.001": 20.625665616,
			"0.002": 21.4675737662,
			"0.003": 16.2165597444,
			"0.004": 11.6847101461,
			"0.005": 11.9550419368,
			"0.006": 6.39407394342,
			"0.007": 3.59721020387,
			"0.008": 9.46610636634,
			"0.009": 6.39077170945,
			"0.01": 4.4534802426,
			"0.011": 2.32698595158,
			"0.012": 0.0180964843725,
			"0.013": 0.0,
			"0.014": 0.0,
			"0.015": 0.0,
			"0.016": 0.0,
			"0.017": 0.0,
			"0.018": 0.0,
			"0.019": 0.0,
			"0.02": 0.0,
			"0.021": 0.0,
			"0.022": 0.0,
			"0.023": 0.0,
			"0.024": 0.0,
			"0.025": 0.0
		}
	}
}
