{
	 "smiles": "CCOCCCNC(=O)CC#N", 
	 "Tm": 320.15, 
	 "num_atms": 26, 
	 "gaussian": { 
		 "optdone": 1, 
		 "sigma_profile": "yes", 
		 "theory": "DFT", 
		 "functional": "B3LYP", 
		 "basiset": "6-31G**", 
		 "properties": { 
			 "R2extent": 3993.2835, 
			 "electric_dipole_moment_norm": 5.9403633399, 
			 "electric_quadrupole_moment_norm": 22.356150135, 
			 "total_energy": -573.227357459, 
			 "HOMO_LUMO_gap": 0.26573, 
			 "cosmo_polarized_energy": -16.09, 
			 "cosmo_cavitation_energy": 29.59, 
			 "cosmo_dispersion_energy": -19.95, 
			 "cosmo_repulsion_energy": 1.66, 
			 "cosmo_total_nonelectrostatic_energy": 11.29, 
			 "SMD_solvation_energy": 6.92 
		},
		"coords": [
			{
				"x": -1.8991098198,
				"y": 1.0526094243,
				"z": 1.6766340583,
				"element": "C" 
			},
			{
				"x": -1.0520365035,
				"y": -0.2171867633,
				"z": 1.7010149678,
				"element": "C" 
			},
			{
				"x": 0.120158825,
				"y": -0.1204334601,
				"z": 0.890157816,
				"element": "O" 
			},
			{
				"x": 1.2060975927,
				"y": 0.5602898261,
				"z": 1.5083531226,
				"element": "C" 
			},
			{
				"x": 2.2970526331,
				"y": 0.7956061916,
				"z": 0.4694025579,
				"element": "C" 
			},
			{
				"x": 2.8073451316,
				"y": -0.4807361777,
				"z": -0.2194083373,
				"element": "C" 
			},
			{
				"x": 3.3947099555,
				"y": -1.4456788143,
				"z": 0.7032956139,
				"element": "N" 
			},
			{
				"x": 2.9116713062,
				"y": -2.6496276034,
				"z": 1.1286945801,
				"element": "C" 
			},
			{
				"x": 3.4813920468,
				"y": -3.3215468562,
				"z": 1.974175375,
				"element": "O" 
			},
			{
				"x": 1.5835977134,
				"y": -3.1349762945,
				"z": 0.5030321242,
				"element": "C" 
			},
			{
				"x": 1.7071213619,
				"y": -3.4935126439,
				"z": -0.9097074837,
				"element": "C" 
			},
			{
				"x": 1.8132415856,
				"y": -3.7625703985,
				"z": -2.034261718,
				"element": "N" 
			},
			{
				"x": -2.8161069322,
				"y": 0.9037288582,
				"z": 2.256612036,
				"element": "H" 
			},
			{
				"x": -1.3701950128,
				"y": 1.9079169304,
				"z": 2.1082478094,
				"element": "H" 
			},
			{
				"x": -2.1776375688,
				"y": 1.3039447679,
				"z": 0.6492082222,
				"element": "H" 
			},
			{
				"x": -0.775885585,
				"y": -0.4822489646,
				"z": 2.7334324678,
				"element": "H" 
			},
			{
				"x": -1.6249498104,
				"y": -1.0545053956,
				"z": 1.289230919,
				"element": "H" 
			},
			{
				"x": 0.8832568122,
				"y": 1.5287830105,
				"z": 1.9158590969,
				"element": "H" 
			},
			{
				"x": 1.5932586372,
				"y": -0.0372170232,
				"z": 2.3494514545,
				"element": "H" 
			},
			{
				"x": 3.1309401314,
				"y": 1.3139869313,
				"z": 0.9604477558,
				"element": "H" 
			},
			{
				"x": 1.9160214185,
				"y": 1.4693873796,
				"z": -0.3070928724,
				"element": "H" 
			},
			{
				"x": 1.9894895804,
				"y": -0.9563055452,
				"z": -0.759587911,
				"element": "H" 
			},
			{
				"x": 3.5585319015,
				"y": -0.2114013432,
				"z": -0.9710550648,
				"element": "H" 
			},
			{
				"x": 4.2669191298,
				"y": -1.1968207734,
				"z": 1.1541152676,
				"element": "H" 
			},
			{
				"x": 1.2859472665,
				"y": -4.0151343804,
				"z": 1.0770822172,
				"element": "H" 
			},
			{
				"x": 0.8142682033,
				"y": -2.3595508824,
				"z": 0.6052659249,
				"element": "H" 
			}
		],
		 "valence_orbital": [ 
			{
				"type": "occ",
				"energy": -0.32899,
				"method": "rhf"
			},
			{
				"type": "occ",
				"energy": -0.3219,
				"method": "rhf"
			},
			{
				"type": "occ",
				"energy": -0.27246,
				"method": "rhf"
			},
			{
				"type": "occ",
				"energy": -0.26137,
				"method": "rhf"
			},
			{
				"type": "occ",
				"energy": -0.2582,
				"method": "rhf"
			},
			{
				"type": "unocc",
				"energy": 0.00753,
				"method": "rhf"
			},
			{
				"type": "unocc",
				"energy": 0.03752,
				"method": "rhf"
			},
			{
				"type": "unocc",
				"energy": 0.04844,
				"method": "rhf"
			},
			{
				"type": "unocc",
				"energy": 0.06263,
				"method": "rhf"
			},
			{
				"type": "unocc",
				"energy": 0.08755,
				"method": "rhf"
			}
		],
		"cosmo_sigma_profile": { 
			"-0.025": 0.0,
			"-0.024": 0.0,
			"-0.023": 0.0,
			"-0.022": 0.0,
			"-0.021": 0.0,
			"-0.02": 0.0,
			"-0.019": 0.0,
			"-0.018": 0.0,
			"-0.017": 0.0,
			"-0.016": 0.0,
			"-0.015": 0.0,
			"-0.014": 0.782836882909,
			"-0.013": 1.14216150075,
			"-0.012": 1.03526483181,
			"-0.011": 0.815315076423,
			"-0.01": 1.69574834467,
			"-0.009": 2.72351039105,
			"-0.008": 2.53360471824,
			"-0.007": 3.19739626351,
			"-0.006": 5.09828759374,
			"-0.005": 12.41348277,
			"-0.004": 27.4643648645,
			"-0.003": 36.9403079471,
			"-0.002": 27.9830384439,
			"-0.001": 20.0198322639,
			"0.0": 14.384529102,
			"0.001": 10.6944236222,
			"0.002": 6.12363521454,
			"0.003": 4.46618198212,
			"0.004": 4.53558210832,
			"0.005": 4.07838812934,
			"0.006": 4.51649967702,
			"0.007": 4.61292752134,
			"0.008": 4.57740915665,
			"0.009": 4.86404982161,
			"0.01": 5.38484985958,
			"0.011": 5.08189128021,
			"0.012": 5.40865535577,
			"0.013": 7.6935073448,
			"0.014": 2.05962502003,
			"0.015": 0.0,
			"0.016": 0.0,
			"0.017": 0.0,
			"0.018": 0.0,
			"0.019": 0.0,
			"0.02": 0.0,
			"0.021": 0.0,
			"0.022": 0.0,
			"0.023": 0.0,
			"0.024": 0.0,
			"0.0": 0.0
		}
	}
}
