{
	 "smiles": "ClC1=C(Cl)C=C(CN=C=S)C=C1", 
	 "Tm": 300.15, 
	 "num_atms": 17, 
	 "gaussian": { 
		 "optdone": 1, 
		 "sigma_profile": "yes", 
		 "theory": "DFT", 
		 "functional": "B3LYP", 
		 "basiset": "6-31G**", 
		 "properties": { 
			 "R2extent": 4706.7364, 
			 "electric_dipole_moment_norm": 3.28925895758, 
			 "electric_quadrupole_moment_norm": 16.407392898, 
			 "total_energy": -1681.17447174, 
			 "HOMO_LUMO_gap": 0.20301, 
			 "cosmo_polarized_energy": -8.74, 
			 "cosmo_cavitation_energy": 28.38, 
			 "cosmo_dispersion_energy": -20.7, 
			 "cosmo_repulsion_energy": 1.65, 
			 "cosmo_total_nonelectrostatic_energy": 9.33, 
			 "SMD_solvation_energy": 3.33 
		},
		"coords": [
			{
				"x": 0.5845227256,
				"y": 1.8780548793,
				"z": -2.8722692415,
				"element": "Cl" 
			},
			{
				"x": 0.1558987301,
				"y": 1.1633807794,
				"z": -1.3403613513,
				"element": "C" 
			},
			{
				"x": -1.0883350944,
				"y": 0.5513329247,
				"z": -1.1390391004,
				"element": "C" 
			},
			{
				"x": -2.2815558527,
				"y": 0.4687579109,
				"z": -2.4095876162,
				"element": "Cl" 
			},
			{
				"x": -1.3914492881,
				"y": -0.0117016534,
				"z": 0.1028446551,
				"element": "C" 
			},
			{
				"x": -0.4666085039,
				"y": 0.0238506994,
				"z": 1.1472671775,
				"element": "C" 
			},
			{
				"x": -0.8152443308,
				"y": -0.5768912116,
				"z": 2.496308799,
				"element": "C" 
			},
			{
				"x": -1.248976572,
				"y": 0.4041898376,
				"z": 3.4578797966,
				"element": "N" 
			},
			{
				"x": -1.1867453499,
				"y": 1.5274024451,
				"z": 3.8631087084,
				"element": "C" 
			},
			{
				"x": -1.1827272763,
				"y": 2.9889553524,
				"z": 4.4903380841,
				"element": "S" 
			},
			{
				"x": 0.774259081,
				"y": 0.6368915443,
				"z": 0.938325264,
				"element": "C" 
			},
			{
				"x": 1.0823662587,
				"y": 1.2025726714,
				"z": -0.2943294178,
				"element": "C" 
			},
			{
				"x": -2.3610885714,
				"y": -0.4787283191,
				"z": 0.2413440318,
				"element": "H" 
			},
			{
				"x": -1.6126010049,
				"y": -1.3182532826,
				"z": 2.3885790811,
				"element": "H" 
			},
			{
				"x": 0.0527331814,
				"y": -1.099988038,
				"z": 2.916190351,
				"element": "H" 
			},
			{
				"x": 1.5060247071,
				"y": 0.6740637003,
				"z": 1.7402620826,
				"element": "H" 
			},
			{
				"x": 2.0432271606,
				"y": 1.6763097597,
				"z": -0.4611613038,
				"element": "H" 
			}
		],
		 "valence_orbital": [ 
			{
				"type": "occ",
				"energy": -0.31822,
				"method": "rhf"
			},
			{
				"type": "occ",
				"energy": -0.27684,
				"method": "rhf"
			},
			{
				"type": "occ",
				"energy": -0.26567,
				"method": "rhf"
			},
			{
				"type": "occ",
				"energy": -0.25441,
				"method": "rhf"
			},
			{
				"type": "occ",
				"energy": -0.25047,
				"method": "rhf"
			},
			{
				"type": "unocc",
				"energy": -0.04746,
				"method": "rhf"
			},
			{
				"type": "unocc",
				"energy": -0.03774,
				"method": "rhf"
			},
			{
				"type": "unocc",
				"energy": -0.01586,
				"method": "rhf"
			},
			{
				"type": "unocc",
				"energy": -0.0062,
				"method": "rhf"
			},
			{
				"type": "unocc",
				"energy": 0.00498,
				"method": "rhf"
			}
		],
		"cosmo_sigma_profile": { 
			"-0.025": 0.0,
			"-0.024": 0.0,
			"-0.023": 0.0,
			"-0.022": 0.0,
			"-0.021": 0.0,
			"-0.02": 0.0,
			"-0.019": 0.0,
			"-0.018": 0.0,
			"-0.017": 0.0,
			"-0.016": 0.0,
			"-0.015": 0.0,
			"-0.014": 0.0,
			"-0.013": 0.0,
			"-0.012": 0.0,
			"-0.011": 0.0,
			"-0.01": 0.0618950459327,
			"-0.009": 2.7211810364,
			"-0.008": 10.9381677536,
			"-0.007": 11.4060225409,
			"-0.006": 10.0571565929,
			"-0.005": 7.89095600515,
			"-0.004": 7.43968653157,
			"-0.003": 8.81787285769,
			"-0.002": 10.112353262,
			"-0.001": 15.786671033,
			"0.0": 25.3770236559,
			"0.001": 31.2814769295,
			"0.002": 23.183883631,
			"0.003": 21.6954808418,
			"0.004": 23.5743746113,
			"0.005": 14.0354772825,
			"0.006": 10.7014706622,
			"0.007": 1.4693140997,
			"0.008": 0.0,
			"0.009": 0.0,
			"0.01": 0.0,
			"0.011": 0.0,
			"0.012": 0.0,
			"0.013": 0.0,
			"0.014": 0.0,
			"0.015": 0.0,
			"0.016": 0.0,
			"0.017": 0.0,
			"0.018": 0.0,
			"0.019": 0.0,
			"0.02": 0.0,
			"0.021": 0.0,
			"0.022": 0.0,
			"0.023": 0.0,
			"0.024": 0.0,
			"0.025": 0.0
		}
	}
}
