{
	 "smiles": "NC(CS(=O)(=O)C1=CC=CC=C1)=NO", 
	 "Tm": 435.15, 
	 "num_atms": 24, 
	 "gaussian": { 
		 "optdone": 1, 
		 "sigma_profile": "yes", 
		 "theory": "DFT", 
		 "functional": "B3LYP", 
		 "basiset": "6-31G**", 
		 "properties": { 
			 "R2extent": 3035.1795, 
			 "electric_dipole_moment_norm": 4.54371399848, 
			 "electric_quadrupole_moment_norm": 13.6611541357, 
			 "total_energy": -1044.11910202, 
			 "HOMO_LUMO_gap": 0.17564, 
			 "cosmo_polarized_energy": -17.53, 
			 "cosmo_cavitation_energy": 29.61, 
			 "cosmo_dispersion_energy": -21.11, 
			 "cosmo_repulsion_energy": 1.64, 
			 "cosmo_total_nonelectrostatic_energy": 10.14, 
			 "SMD_solvation_energy": 4.13 
		},
		"coords": [
			{
				"x": 1.4053287613,
				"y": -2.5469798299,
				"z": 0.6903474439,
				"element": "N" 
			},
			{
				"x": 1.1948468179,
				"y": -1.1884523488,
				"z": 0.8783819741,
				"element": "C" 
			},
			{
				"x": 1.2207948124,
				"y": -0.3408106387,
				"z": -0.3640649919,
				"element": "C" 
			},
			{
				"x": -0.26203473,
				"y": -0.5430836519,
				"z": -1.4220873834,
				"element": "S" 
			},
			{
				"x": -0.498391049,
				"y": -1.9966986776,
				"z": -1.553920245,
				"element": "O" 
			},
			{
				"x": -0.0469201789,
				"y": 0.2955941704,
				"z": -2.6102424877,
				"element": "O" 
			},
			{
				"x": -1.6189690263,
				"y": 0.1551658091,
				"z": -0.4741854841,
				"element": "C" 
			},
			{
				"x": -2.3668776328,
				"y": -0.673830084,
				"z": 0.3634506425,
				"element": "C" 
			},
			{
				"x": -3.4181923468,
				"y": -0.1187569468,
				"z": 1.0933648247,
				"element": "C" 
			},
			{
				"x": -3.709654809,
				"y": 1.2423301047,
				"z": 0.9772136758,
				"element": "C" 
			},
			{
				"x": -2.9578966592,
				"y": 2.0571040766,
				"z": 0.1266248874,
				"element": "C" 
			},
			{
				"x": -1.9039613203,
				"y": 1.515506933,
				"z": -0.6085325901,
				"element": "C" 
			},
			{
				"x": 1.061760307,
				"y": -0.7344483997,
				"z": 2.077105511,
				"element": "N" 
			},
			{
				"x": 0.9712247725,
				"y": 0.6803184853,
				"z": 2.0957393476,
				"element": "O" 
			},
			{
				"x": 1.2546080466,
				"y": -3.0887774686,
				"z": 1.5329932839,
				"element": "H" 
			},
			{
				"x": 0.912804589,
				"y": -2.9186947108,
				"z": -0.1169610063,
				"element": "H" 
			},
			{
				"x": 2.0381762055,
				"y": -0.6434419944,
				"z": -1.025406745,
				"element": "H" 
			},
			{
				"x": 1.3054938415,
				"y": 0.7175314337,
				"z": -0.1223948291,
				"element": "H" 
			},
			{
				"x": -2.1370450176,
				"y": -1.731588277,
				"z": 0.4228957006,
				"element": "H" 
			},
			{
				"x": -4.0122234996,
				"y": -0.7500579302,
				"z": 1.7470435414,
				"element": "H" 
			},
			{
				"x": -4.5308136824,
				"y": 1.6686717861,
				"z": 1.5460364714,
				"element": "H" 
			},
			{
				"x": -3.1963556391,
				"y": 3.1118638902,
				"z": 0.0298958175,
				"element": "H" 
			},
			{
				"x": -1.3215552287,
				"y": 2.1250334337,
				"z": -1.2910527817,
				"element": "H" 
			},
			{
				"x": 0.9213526661,
				"y": 0.8582008357,
				"z": 3.0429554226,
				"element": "H" 
			}
		],
		 "valence_orbital": [ 
			{
				"type": "occ",
				"energy": -0.29324,
				"method": "rhf"
			},
			{
				"type": "occ",
				"energy": -0.27932,
				"method": "rhf"
			},
			{
				"type": "occ",
				"energy": -0.27511,
				"method": "rhf"
			},
			{
				"type": "occ",
				"energy": -0.27307,
				"method": "rhf"
			},
			{
				"type": "occ",
				"energy": -0.21915,
				"method": "rhf"
			},
			{
				"type": "unocc",
				"energy": -0.04351,
				"method": "rhf"
			},
			{
				"type": "unocc",
				"energy": -0.02382,
				"method": "rhf"
			},
			{
				"type": "unocc",
				"energy": -0.00081,
				"method": "rhf"
			},
			{
				"type": "unocc",
				"energy": 0.06156,
				"method": "rhf"
			},
			{
				"type": "unocc",
				"energy": 0.06959,
				"method": "rhf"
			}
		],
		"cosmo_sigma_profile": { 
			"-0.025": 0.0,
			"-0.024": 0.0,
			"-0.023": 0.0,
			"-0.022": 0.0,
			"-0.021": 0.0,
			"-0.02": 0.0,
			"-0.019": 0.0,
			"-0.018": 0.0,
			"-0.017": 0.621427821441,
			"-0.016": 1.02934922111,
			"-0.015": 0.677122562613,
			"-0.014": 1.11882896818,
			"-0.013": 1.19675673269,
			"-0.012": 1.7516863647,
			"-0.011": 1.47711456377,
			"-0.01": 3.13466067383,
			"-0.009": 5.3801003554,
			"-0.008": 5.22068649072,
			"-0.007": 14.0896399527,
			"-0.006": 16.0802424056,
			"-0.005": 15.6947085594,
			"-0.004": 12.8542236195,
			"-0.003": 10.4845520745,
			"-0.002": 12.6763169641,
			"-0.001": 9.69649619574,
			"0.0": 10.2938537205,
			"0.001": 13.4069285494,
			"0.002": 13.9460677417,
			"0.003": 15.8329263673,
			"0.004": 11.3231112918,
			"0.005": 7.97880328495,
			"0.006": 7.37105136459,
			"0.007": 7.62738224477,
			"0.008": 5.46387049674,
			"0.009": 6.28274703324,
			"0.01": 7.47411173628,
			"0.011": 9.75739424587,
			"0.012": 4.05939430204,
			"0.013": 1.13114301863,
			"0.014": 0.38481095326,
			"0.015": 0.0,
			"0.016": 0.0,
			"0.017": 0.0,
			"0.018": 0.0,
			"0.019": 0.0,
			"0.02": 0.0,
			"0.021": 0.0,
			"0.022": 0.0,
			"0.023": 0.0,
			"0.024": 0.0,
			"0.025": 0.0
		}
	}
}
