{
	 "smiles": "CC(=O)C1=CC=CS1", 
	 "Tm": 283.35, 
	 "num_atms": 14, 
	 "gaussian": { 
		 "optdone": 1, 
		 "sigma_profile": "yes", 
		 "theory": "DFT", 
		 "functional": "B3LYP", 
		 "basiset": "6-31G**", 
		 "properties": { 
			 "R2extent": 1862.1033, 
			 "electric_dipole_moment_norm": 3.64419404807, 
			 "electric_quadrupole_moment_norm": 16.0233948232, 
			 "total_energy": -705.653620361, 
			 "HOMO_LUMO_gap": 0.18478, 
			 "cosmo_polarized_energy": -8.98, 
			 "cosmo_cavitation_energy": 19.73, 
			 "cosmo_dispersion_energy": -15.09, 
			 "cosmo_repulsion_energy": 1.2, 
			 "cosmo_total_nonelectrostatic_energy": 5.83, 
			 "SMD_solvation_energy": 4.25 
		},
		"coords": [
			{
				"x": -2.5487494748,
				"y": -1.3512059827,
				"z": -3.0411500447,
				"element": "C" 
			},
			{
				"x": -1.1275789433,
				"y": -0.8127797893,
				"z": -3.0228758456,
				"element": "C" 
			},
			{
				"x": -0.465566183,
				"y": -0.7185548009,
				"z": -4.0478169751,
				"element": "O" 
			},
			{
				"x": -0.5684424981,
				"y": -0.406499547,
				"z": -1.7216089073,
				"element": "C" 
			},
			{
				"x": -1.1338796405,
				"y": -0.4299563149,
				"z": -0.4631923498,
				"element": "C" 
			},
			{
				"x": -0.2614373287,
				"y": 0.050694841,
				"z": 0.5492720817,
				"element": "C" 
			},
			{
				"x": 0.9574818848,
				"y": 0.433591889,
				"z": 0.045318035,
				"element": "C" 
			},
			{
				"x": 1.0626727938,
				"y": 0.2163200367,
				"z": -1.6633795166,
				"element": "S" 
			},
			{
				"x": -2.8127551535,
				"y": -1.6058009804,
				"z": -4.0679714607,
				"element": "H" 
			},
			{
				"x": -3.2528527189,
				"y": -0.605243982,
				"z": -2.6570314121,
				"element": "H" 
			},
			{
				"x": -2.6359687277,
				"y": -2.2420213378,
				"z": -2.409793806,
				"element": "H" 
			},
			{
				"x": -2.1419179848,
				"y": -0.780785702,
				"z": -0.273166356,
				"element": "H" 
			},
			{
				"x": -0.5225603486,
				"y": 0.1103987151,
				"z": 1.5995417099,
				"element": "H" 
			},
			{
				"x": 1.8011543234,
				"y": 0.8333429553,
				"z": 0.5920548474,
				"element": "H" 
			}
		],
		 "valence_orbital": [ 
			{
				"type": "occ",
				"energy": -0.35377,
				"method": "rhf"
			},
			{
				"type": "occ",
				"energy": -0.35161,
				"method": "rhf"
			},
			{
				"type": "occ",
				"energy": -0.26264,
				"method": "rhf"
			},
			{
				"type": "occ",
				"energy": -0.25184,
				"method": "rhf"
			},
			{
				"type": "occ",
				"energy": -0.24692,
				"method": "rhf"
			},
			{
				"type": "unocc",
				"energy": -0.06214,
				"method": "rhf"
			},
			{
				"type": "unocc",
				"energy": 0.02206,
				"method": "rhf"
			},
			{
				"type": "unocc",
				"energy": 0.03158,
				"method": "rhf"
			},
			{
				"type": "unocc",
				"energy": 0.08082,
				"method": "rhf"
			},
			{
				"type": "unocc",
				"energy": 0.08936,
				"method": "rhf"
			}
		],
		"cosmo_sigma_profile": { 
			"-0.025": 0.0,
			"-0.024": 0.0,
			"-0.023": 0.0,
			"-0.022": 0.0,
			"-0.021": 0.0,
			"-0.02": 0.0,
			"-0.019": 0.0,
			"-0.018": 0.0,
			"-0.017": 0.0,
			"-0.016": 0.0,
			"-0.015": 0.0,
			"-0.014": 0.0,
			"-0.013": 0.0,
			"-0.012": 0.0,
			"-0.011": 0.0,
			"-0.01": 0.069309433341,
			"-0.009": 1.84307534902,
			"-0.008": 3.30501634004,
			"-0.007": 5.66161800422,
			"-0.006": 12.0348288746,
			"-0.005": 12.719560772,
			"-0.004": 11.176083137,
			"-0.003": 10.841672906,
			"-0.002": 9.51005431778,
			"-0.001": 12.3698690583,
			"0.0": 9.30915069143,
			"0.001": 8.50308966448,
			"0.002": 13.91727567,
			"0.003": 18.7818164934,
			"0.004": 9.07181048605,
			"0.005": 1.92117800498,
			"0.006": 2.16590379688,
			"0.007": 1.47507367664,
			"0.008": 1.6883704479,
			"0.009": 2.28938419996,
			"0.01": 2.01545333006,
			"0.011": 2.52202834958,
			"0.012": 4.85828467008,
			"0.013": 1.68413421799,
			"0.014": 0.236101154312,
			"0.015": 0.0,
			"0.016": 0.0,
			"0.017": 0.0,
			"0.018": 0.0,
			"0.019": 0.0,
			"0.02": 0.0,
			"0.021": 0.0,
			"0.022": 0.0,
			"0.023": 0.0,
			"0.024": 0.0,
			"0.025": 0.0
		}
	}
}
