{
	 "smiles": "[O-][N+](=O)C1=C(Cl)C=CC(C=O)=C1", 
	 "Tm": 336.15, 
	 "num_atms": 16, 
	 "gaussian": { 
		 "optdone": 1, 
		 "sigma_profile": "yes", 
		 "theory": "DFT", 
		 "functional": "B3LYP", 
		 "basiset": "6-31G**", 
		 "properties": { 
			 "R2extent": 3148.8672, 
			 "electric_dipole_moment_norm": 2.07076141069, 
			 "electric_quadrupole_moment_norm": 16.4116637292, 
			 "total_energy": -1009.64556989, 
			 "HOMO_LUMO_gap": 0.17331, 
			 "cosmo_polarized_energy": -11.32, 
			 "cosmo_cavitation_energy": 23.88, 
			 "cosmo_dispersion_energy": -17.44, 
			 "cosmo_repulsion_energy": 1.38, 
			 "cosmo_total_nonelectrostatic_energy": 7.82, 
			 "SMD_solvation_energy": 7.22 
		},
		"coords": [
			{
				"x": 0.8273581883,
				"y": -1.6102836455,
				"z": 2.9559781728,
				"element": "O" 
			},
			{
				"x": 0.8827838256,
				"y": -0.8925997432,
				"z": 1.9644527131,
				"element": "N" 
			},
			{
				"x": 1.9131036475,
				"y": -0.4260482034,
				"z": 1.4790541469,
				"element": "O" 
			},
			{
				"x": -0.3746398155,
				"y": -0.5827589234,
				"z": 1.2571721236,
				"element": "C" 
			},
			{
				"x": -1.6197105991,
				"y": -0.483750643,
				"z": 1.9001684743,
				"element": "C" 
			},
			{
				"x": -1.8300902143,
				"y": -0.6200673278,
				"z": 3.6185151889,
				"element": "Cl" 
			},
			{
				"x": -2.7594342032,
				"y": -0.2044901333,
				"z": 1.1311100127,
				"element": "C" 
			},
			{
				"x": -2.6628220542,
				"y": -0.0426676118,
				"z": -0.2428066615,
				"element": "C" 
			},
			{
				"x": -1.4160095884,
				"y": -0.1351607937,
				"z": -0.8799612852,
				"element": "C" 
			},
			{
				"x": -1.3078651416,
				"y": 0.0472999878,
				"z": -2.3491441665,
				"element": "C" 
			},
			{
				"x": -2.2560952784,
				"y": 0.2759703667,
				"z": -3.0726038099,
				"element": "O" 
			},
			{
				"x": -0.2766069372,
				"y": -0.3937766846,
				"z": -0.1209273442,
				"element": "C" 
			},
			{
				"x": -3.7150316715,
				"y": -0.1155331846,
				"z": 1.6352715431,
				"element": "H" 
			},
			{
				"x": -3.5414867296,
				"y": 0.1647407556,
				"z": -0.8450135716,
				"element": "H" 
			},
			{
				"x": -0.2775794867,
				"y": -0.0402358207,
				"z": -2.7559238358,
				"element": "H" 
			},
			{
				"x": 0.7043260582,
				"y": -0.454938395,
				"z": -0.5802417008,
				"element": "H" 
			}
		],
		 "valence_orbital": [ 
			{
				"type": "occ",
				"energy": -0.32281,
				"method": "rhf"
			},
			{
				"type": "occ",
				"energy": -0.31227,
				"method": "rhf"
			},
			{
				"type": "occ",
				"energy": -0.29565,
				"method": "rhf"
			},
			{
				"type": "occ",
				"energy": -0.28549,
				"method": "rhf"
			},
			{
				"type": "occ",
				"energy": -0.28003,
				"method": "rhf"
			},
			{
				"type": "unocc",
				"energy": -0.10672,
				"method": "rhf"
			},
			{
				"type": "unocc",
				"energy": -0.08749,
				"method": "rhf"
			},
			{
				"type": "unocc",
				"energy": -0.03743,
				"method": "rhf"
			},
			{
				"type": "unocc",
				"energy": -0.00133,
				"method": "rhf"
			},
			{
				"type": "unocc",
				"energy": 0.01122,
				"method": "rhf"
			}
		],
		"cosmo_sigma_profile": { 
			"-0.025": 0.0,
			"-0.024": 0.0,
			"-0.023": 0.0,
			"-0.022": 0.0,
			"-0.021": 0.0,
			"-0.02": 0.0,
			"-0.019": 0.0,
			"-0.018": 0.0,
			"-0.017": 0.0,
			"-0.016": 0.0,
			"-0.015": 0.0,
			"-0.014": 0.0,
			"-0.013": 0.0,
			"-0.012": 0.0,
			"-0.011": 0.346129862764,
			"-0.01": 1.92366283136,
			"-0.009": 4.43512711418,
			"-0.008": 8.83133752003,
			"-0.007": 9.42435180814,
			"-0.006": 8.09933529351,
			"-0.005": 9.55369002092,
			"-0.004": 9.65569856548,
			"-0.003": 13.3481706575,
			"-0.002": 20.6236687491,
			"-0.001": 17.5735430823,
			"0.0": 12.2964888169,
			"0.001": 8.57724477379,
			"0.002": 9.33871821049,
			"0.003": 9.1051577299,
			"0.004": 5.50714291889,
			"0.005": 4.54091705192,
			"0.006": 7.96561009629,
			"0.007": 12.6821865793,
			"0.008": 7.4928127818,
			"0.009": 5.19802387108,
			"0.01": 4.35646113334,
			"0.011": 3.01025259812,
			"0.012": 1.07952293788,
			"0.013": 0.0227947281423,
			"0.014": 0.0,
			"0.015": 0.0,
			"0.016": 0.0,
			"0.017": 0.0,
			"0.018": 0.0,
			"0.019": 0.0,
			"0.02": 0.0,
			"0.021": 0.0,
			"0.022": 0.0,
			"0.023": 0.0,
			"0.024": 0.0,
			"0.025": 0.0
		}
	}
}
