{
	 "smiles": "NS(=O)(=O)N1CCN(CC2=CC=CC=C2)CC1", 
	 "Tm": 421.15, 
	 "num_atms": 34, 
	 "gaussian": { 
		 "optdone": 1, 
		 "sigma_profile": "yes", 
		 "theory": "DFT", 
		 "functional": "B3LYP", 
		 "basiset": "6-31G**", 
		 "properties": { 
			 "R2extent": 5356.2472, 
			 "electric_dipole_moment_norm": 4.74355666246, 
			 "electric_quadrupole_moment_norm": 21.9282874329, 
			 "total_energy": -1142.21019768, 
			 "HOMO_LUMO_gap": 0.20206, 
			 "cosmo_polarized_energy": -19.89, 
			 "cosmo_cavitation_energy": 36.45, 
			 "cosmo_dispersion_energy": -25.97, 
			 "cosmo_repulsion_energy": 1.97, 
			 "cosmo_total_nonelectrostatic_energy": 12.45, 
			 "SMD_solvation_energy": 1.77 
		},
		"coords": [
			{
				"x": -3.3761338562,
				"y": 3.519632357,
				"z": 0.2848615244,
				"element": "N" 
			},
			{
				"x": -2.1320994485,
				"y": 2.8363862938,
				"z": 1.1747396899,
				"element": "S" 
			},
			{
				"x": -2.6979270016,
				"y": 1.605726261,
				"z": 1.7286001646,
				"element": "O" 
			},
			{
				"x": -1.578350397,
				"y": 3.8828287838,
				"z": 2.0259948311,
				"element": "O" 
			},
			{
				"x": -0.9416420065,
				"y": 2.495924289,
				"z": 0.0128818615,
				"element": "N" 
			},
			{
				"x": -1.2106407425,
				"y": 1.2864801932,
				"z": -0.7979993048,
				"element": "C" 
			},
			{
				"x": 0.017770516,
				"y": 0.9855044052,
				"z": -1.661796179,
				"element": "C" 
			},
			{
				"x": 1.2332273443,
				"y": 0.7320141651,
				"z": -0.8753601352,
				"element": "N" 
			},
			{
				"x": 1.7939165758,
				"y": -0.6220682274,
				"z": -0.9585685096,
				"element": "C" 
			},
			{
				"x": 0.9556577723,
				"y": -1.7544460545,
				"z": -0.3779769831,
				"element": "C" 
			},
			{
				"x": 0.0864547384,
				"y": -2.494222861,
				"z": -1.1937434838,
				"element": "C" 
			},
			{
				"x": -0.7167186371,
				"y": -3.5041931437,
				"z": -0.661331044,
				"element": "C" 
			},
			{
				"x": -0.6592040218,
				"y": -3.7969329995,
				"z": 0.7022670891,
				"element": "C" 
			},
			{
				"x": 0.2142322401,
				"y": -3.0828364524,
				"z": 1.5245775246,
				"element": "C" 
			},
			{
				"x": 1.0163697945,
				"y": -2.075297289,
				"z": 0.9868295744,
				"element": "C" 
			},
			{
				"x": 1.1900199608,
				"y": 1.2994981714,
				"z": 0.4723307714,
				"element": "C" 
			},
			{
				"x": 0.4750950056,
				"y": 2.6474416633,
				"z": 0.4406206738,
				"element": "C" 
			},
			{
				"x": -3.0532811208,
				"y": 4.2611453052,
				"z": -0.3281570225,
				"element": "H" 
			},
			{
				"x": -3.9366863895,
				"y": 2.8212559486,
				"z": -0.1910955306,
				"element": "H" 
			},
			{
				"x": -1.4484213736,
				"y": 0.4244521748,
				"z": -0.1633276511,
				"element": "H" 
			},
			{
				"x": -2.0758705557,
				"y": 1.4791285431,
				"z": -1.4440148383,
				"element": "H" 
			},
			{
				"x": -0.2127215617,
				"y": 0.1157227764,
				"z": -2.2829537335,
				"element": "H" 
			},
			{
				"x": 0.1830077167,
				"y": 1.8308740451,
				"z": -2.3459620507,
				"element": "H" 
			},
			{
				"x": 2.766637724,
				"y": -0.5932292485,
				"z": -0.4516713919,
				"element": "H" 
			},
			{
				"x": 1.9979912916,
				"y": -0.8303980812,
				"z": -2.0155612425,
				"element": "H" 
			},
			{
				"x": 0.0523435182,
				"y": -2.2910128673,
				"z": -2.2619158257,
				"element": "H" 
			},
			{
				"x": -1.3797580714,
				"y": -4.0676284747,
				"z": -1.3120461828,
				"element": "H" 
			},
			{
				"x": -1.2820983663,
				"y": -4.5829039149,
				"z": 1.119254805,
				"element": "H" 
			},
			{
				"x": 0.2760391785,
				"y": -3.3143533847,
				"z": 2.5841212762,
				"element": "H" 
			},
			{
				"x": 1.7098581582,
				"y": -1.5416836349,
				"z": 1.6318673989,
				"element": "H" 
			},
			{
				"x": 0.6812794391,
				"y": 0.649682015,
				"z": 1.2053500292,
				"element": "H" 
			},
			{
				"x": 2.2188895315,
				"y": 1.4429238784,
				"z": 0.8293678413,
				"element": "H" 
			},
			{
				"x": 0.4982227406,
				"y": 3.1258636501,
				"z": 1.4196171881,
				"element": "H" 
			},
			{
				"x": 0.9784403042,
				"y": 3.3147217143,
				"z": -0.2687011345,
				"element": "H" 
			}
		],
		 "valence_orbital": [ 
			{
				"type": "occ",
				"energy": -0.29788,
				"method": "rhf"
			},
			{
				"type": "occ",
				"energy": -0.25373,
				"method": "rhf"
			},
			{
				"type": "occ",
				"energy": -0.25031,
				"method": "rhf"
			},
			{
				"type": "occ",
				"energy": -0.24516,
				"method": "rhf"
			},
			{
				"type": "occ",
				"energy": -0.20955,
				"method": "rhf"
			},
			{
				"type": "unocc",
				"energy": -0.00749,
				"method": "rhf"
			},
			{
				"type": "unocc",
				"energy": -0.00628,
				"method": "rhf"
			},
			{
				"type": "unocc",
				"energy": 0.04691,
				"method": "rhf"
			},
			{
				"type": "unocc",
				"energy": 0.07315,
				"method": "rhf"
			},
			{
				"type": "unocc",
				"energy": 0.07444,
				"method": "rhf"
			}
		],
		"cosmo_sigma_profile": { 
			"-0.025": 0.0,
			"-0.024": 0.0,
			"-0.023": 0.0,
			"-0.022": 0.0,
			"-0.021": 0.0,
			"-0.02": 0.0,
			"-0.019": 0.0,
			"-0.018": 0.0,
			"-0.017": 0.0,
			"-0.016": 0.0231046173463,
			"-0.015": 1.49717389785,
			"-0.014": 2.48310097922,
			"-0.013": 1.90988830609,
			"-0.012": 3.05998214573,
			"-0.011": 2.92649008401,
			"-0.01": 2.68623487061,
			"-0.009": 1.48756742271,
			"-0.008": 1.57848163836,
			"-0.007": 2.33520343475,
			"-0.006": 7.96117890596,
			"-0.005": 19.513805571,
			"-0.004": 32.2588701153,
			"-0.003": 31.8030049376,
			"-0.002": 26.12911039,
			"-0.001": 19.671476072,
			"0.0": 15.6654373211,
			"0.001": 12.1708701241,
			"0.002": 11.1433714756,
			"0.003": 12.5772083354,
			"0.004": 11.5191180179,
			"0.005": 12.8555544379,
			"0.006": 11.6027226477,
			"0.007": 5.09193974579,
			"0.008": 5.15730341892,
			"0.009": 4.90462483306,
			"0.01": 7.93593941033,
			"0.011": 11.8657714311,
			"0.012": 5.30231874288,
			"0.013": 0.411136654907,
			"0.014": 0.387118528017,
			"0.015": 0.158709066665,
			"0.016": 0.0,
			"0.017": 0.0,
			"0.018": 0.0,
			"0.019": 0.0,
			"0.02": 0.0,
			"0.021": 0.0,
			"0.022": 0.0,
			"0.023": 0.0,
			"0.024": 0.0,
			"0.025": 0.0
		}
	}
}
