{
	 "smiles": "CC1(C)C(C(Br)C(Br)(Br)Br)C1C(=O)OC(C#N)C1=CC=CC(OC2=CC=CC=C2)=C1", 
	 "Tm": 416.15, 
	 "num_atms": 49, 
	 "gaussian": { 
		 "optdone": 1, 
		 "sigma_profile": "yes", 
		 "theory": "DFT", 
		 "functional": "B3LYP", 
		 "basiset": "6-31G**", 
		 "properties": { 
			 "R2extent": 31039.5447, 
			 "electric_dipole_moment_norm": 2.21250065085, 
			 "electric_quadrupole_moment_norm": 18.4427394001, 
			 "total_energy": -11415.7677969, 
			 "HOMO_LUMO_gap": 0.15078, 
			 "cosmo_polarized_energy": -15.65, 
			 "cosmo_cavitation_energy": 61.91, 
			 "cosmo_dispersion_energy": -40.33, 
			 "cosmo_repulsion_energy": 3.07, 
			 "cosmo_total_nonelectrostatic_energy": 24.66, 
			 "SMD_solvation_energy": 8.17 
		},
		"coords": [
			{
				"x": -3.5939741385,
				"y": -1.8950479073,
				"z": -0.4117981525,
				"element": "C" 
			},
			{
				"x": -3.2699630008,
				"y": -0.4863901517,
				"z": 0.057726952,
				"element": "C" 
			},
			{
				"x": -3.9786707565,
				"y": -0.1146650322,
				"z": 1.3518998404,
				"element": "C" 
			},
			{
				"x": -2.9923500656,
				"y": 0.6632405982,
				"z": -0.8888822325,
				"element": "C" 
			},
			{
				"x": -3.0286068376,
				"y": 0.6055941724,
				"z": -2.3972966896,
				"element": "C" 
			},
			{
				"x": -1.4962172095,
				"y": 1.6814536216,
				"z": -3.1056690631,
				"element": "Br" 
			},
			{
				"x": -4.339489348,
				"y": 1.1245459076,
				"z": -3.0292022579,
				"element": "C" 
			},
			{
				"x": -4.7055729821,
				"y": 3.0065622808,
				"z": -2.5846691626,
				"element": "Br" 
			},
			{
				"x": -5.8549827524,
				"y": 0.040717913,
				"z": -2.3549466498,
				"element": "Br" 
			},
			{
				"x": -4.3040631284,
				"y": 0.9128148047,
				"z": -4.9830050045,
				"element": "Br" 
			},
			{
				"x": -1.8406100247,
				"y": 0.0560103836,
				"z": -0.0884397108,
				"element": "C" 
			},
			{
				"x": -0.7841375098,
				"y": -0.7493828988,
				"z": -0.7507537974,
				"element": "C" 
			},
			{
				"x": -0.9080917896,
				"y": -1.4483027168,
				"z": -1.7395026124,
				"element": "O" 
			},
			{
				"x": 0.3887115795,
				"y": -0.6129163706,
				"z": -0.0742101247,
				"element": "O" 
			},
			{
				"x": 1.527107073,
				"y": -1.3516324438,
				"z": -0.6045644683,
				"element": "C" 
			},
			{
				"x": 2.132668292,
				"y": -2.0519653241,
				"z": 0.5377962252,
				"element": "C" 
			},
			{
				"x": 2.6135693142,
				"y": -2.6181117143,
				"z": 1.4287409314,
				"element": "N" 
			},
			{
				"x": 2.477721284,
				"y": -0.4131487418,
				"z": -1.3238049418,
				"element": "C" 
			},
			{
				"x": 2.2720239488,
				"y": -0.1748477672,
				"z": -2.6873461342,
				"element": "C" 
			},
			{
				"x": 3.1114304617,
				"y": 0.7124639861,
				"z": -3.362392539,
				"element": "C" 
			},
			{
				"x": 4.1436033861,
				"y": 1.3617613379,
				"z": -2.6899690613,
				"element": "C" 
			},
			{
				"x": 4.340721394,
				"y": 1.1203255121,
				"z": -1.3263255911,
				"element": "C" 
			},
			{
				"x": 5.4178459197,
				"y": 1.7514252915,
				"z": -0.7498475443,
				"element": "O" 
			},
			{
				"x": 5.4494312181,
				"y": 1.9976389581,
				"z": 0.6147789266,
				"element": "C" 
			},
			{
				"x": 6.5987999488,
				"y": 1.617201417,
				"z": 1.3069763653,
				"element": "C" 
			},
			{
				"x": 6.713230964,
				"y": 1.9240121587,
				"z": 2.6635826284,
				"element": "C" 
			},
			{
				"x": 5.6844862796,
				"y": 2.5984832913,
				"z": 3.3238515033,
				"element": "C" 
			},
			{
				"x": 4.5388490389,
				"y": 2.9742617981,
				"z": 2.6182020263,
				"element": "C" 
			},
			{
				"x": 4.4156086473,
				"y": 2.6818452077,
				"z": 1.2597305197,
				"element": "C" 
			},
			{
				"x": 3.5127575145,
				"y": 0.2300279574,
				"z": -0.6373338229,
				"element": "C" 
			},
			{
				"x": -3.0964968988,
				"y": -2.1653017759,
				"z": -1.3422053013,
				"element": "H" 
			},
			{
				"x": -4.6730700937,
				"y": -2.0027358169,
				"z": -0.5467363109,
				"element": "H" 
			},
			{
				"x": -3.2778316688,
				"y": -2.6127301111,
				"z": 0.3536289979,
				"element": "H" 
			},
			{
				"x": -5.0639562057,
				"y": -0.1279825064,
				"z": 1.2043107765,
				"element": "H" 
			},
			{
				"x": -3.7356931394,
				"y": -0.830901151,
				"z": 2.1442960963,
				"element": "H" 
			},
			{
				"x": -3.6979540461,
				"y": 0.8839840995,
				"z": 1.7003511081,
				"element": "H" 
			},
			{
				"x": -3.2854612107,
				"y": 1.6408849199,
				"z": -0.5153888665,
				"element": "H" 
			},
			{
				"x": -2.8341646463,
				"y": -0.3929131684,
				"z": -2.7831667783,
				"element": "H" 
			},
			{
				"x": -1.4618578546,
				"y": 0.6620447409,
				"z": 0.7275256941,
				"element": "H" 
			},
			{
				"x": 1.1392041965,
				"y": -2.0959167737,
				"z": -1.3060529415,
				"element": "H" 
			},
			{
				"x": 1.457579766,
				"y": -0.6689567755,
				"z": -3.2069785924,
				"element": "H" 
			},
			{
				"x": 2.9598810817,
				"y": 0.9002480225,
				"z": -4.4209806334,
				"element": "H" 
			},
			{
				"x": 4.808436106,
				"y": 2.0515910955,
				"z": -3.1989213659,
				"element": "H" 
			},
			{
				"x": 7.3849034883,
				"y": 1.0926230065,
				"z": 0.7741891217,
				"element": "H" 
			},
			{
				"x": 7.6074141832,
				"y": 1.6289654352,
				"z": 3.204693957,
				"element": "H" 
			},
			{
				"x": 5.7746408336,
				"y": 2.8314317334,
				"z": 4.3803480943,
				"element": "H" 
			},
			{
				"x": 3.7377365847,
				"y": 3.5056026577,
				"z": 3.123782244,
				"element": "H" 
			},
			{
				"x": 3.5343671773,
				"y": 2.9809915621,
				"z": 0.7018069337,
				"element": "H" 
			},
			{
				"x": 3.6832856258,
				"y": 0.0309952767,
				"z": 0.4148714087,
				"element": "H" 
			}
		],
		 "valence_orbital": [ 
			{
				"type": "occ",
				"energy": -0.27253,
				"method": "rhf"
			},
			{
				"type": "occ",
				"energy": -0.26652,
				"method": "rhf"
			},
			{
				"type": "occ",
				"energy": -0.25867,
				"method": "rhf"
			},
			{
				"type": "occ",
				"energy": -0.25512,
				"method": "rhf"
			},
			{
				"type": "occ",
				"energy": -0.22725,
				"method": "rhf"
			},
			{
				"type": "unocc",
				"energy": -0.07647,
				"method": "rhf"
			},
			{
				"type": "unocc",
				"energy": -0.05677,
				"method": "rhf"
			},
			{
				"type": "unocc",
				"energy": -0.03371,
				"method": "rhf"
			},
			{
				"type": "unocc",
				"energy": -0.02563,
				"method": "rhf"
			},
			{
				"type": "unocc",
				"energy": -0.01736,
				"method": "rhf"
			}
		],
		"cosmo_sigma_profile": { 
			"-0.025": 0.0,
			"-0.024": 0.0,
			"-0.023": 0.0,
			"-0.022": 0.0,
			"-0.021": 0.0,
			"-0.02": 0.0,
			"-0.019": 0.0,
			"-0.018": 0.0,
			"-0.017": 0.0,
			"-0.016": 0.0,
			"-0.015": 0.0,
			"-0.014": 0.0,
			"-0.013": 0.0,
			"-0.012": 0.0,
			"-0.011": 0.169297600545,
			"-0.01": 1.43130189624,
			"-0.009": 1.02483159019,
			"-0.008": 3.62506412706,
			"-0.007": 11.1684640757,
			"-0.006": 24.5176840017,
			"-0.005": 29.1303246463,
			"-0.004": 38.2205487403,
			"-0.003": 36.8138170408,
			"-0.002": 40.635294304,
			"-0.001": 41.5888058706,
			"0.0": 44.1300258757,
			"0.001": 40.5067714553,
			"0.002": 47.0636597434,
			"0.003": 57.8832833503,
			"0.004": 33.3411490167,
			"0.005": 23.0980364925,
			"0.006": 7.89882726925,
			"0.007": 5.27561293678,
			"0.008": 5.8557570834,
			"0.009": 4.2828162927,
			"0.01": 4.3308786345,
			"0.011": 2.18774759129,
			"0.012": 1.65424296,
			"0.013": 0.0848939307935,
			"0.014": 0.0,
			"0.015": 0.0,
			"0.016": 0.0,
			"0.017": 0.0,
			"0.018": 0.0,
			"0.019": 0.0,
			"0.02": 0.0,
			"0.021": 0.0,
			"0.022": 0.0,
			"0.023": 0.0,
			"0.024": 0.0,
			"0.025": 0.0
		}
	}
}
