{
	 "smiles": "[O-][N+](=O)C1=C(C=CC=C1)N1CCNC1=O", 
	 "Tm": 427.15, 
	 "num_atms": 24, 
	 "gaussian": { 
		 "optdone": 1, 
		 "sigma_profile": "yes", 
		 "theory": "DFT", 
		 "functional": "B3LYP", 
		 "basiset": "6-31G**", 
		 "properties": { 
			 "R2extent": 2900.2693, 
			 "electric_dipole_moment_norm": 6.48378398545, 
			 "electric_quadrupole_moment_norm": 17.1884870483, 
			 "total_energy": -738.216912102, 
			 "HOMO_LUMO_gap": 0.16154, 
			 "cosmo_polarized_energy": -19.61, 
			 "cosmo_cavitation_energy": 28.06, 
			 "cosmo_dispersion_energy": -20.44, 
			 "cosmo_repulsion_energy": 1.59, 
			 "cosmo_total_nonelectrostatic_energy": 9.21, 
			 "SMD_solvation_energy": 6.48 
		},
		"coords": [
			{
				"x": -0.6217041731,
				"y": 2.0709499949,
				"z": 1.322580855,
				"element": "O" 
			},
			{
				"x": -1.2328748388,
				"y": 1.0087124669,
				"z": 1.2285610693,
				"element": "N" 
			},
			{
				"x": -2.4314928132,
				"y": 0.8652264299,
				"z": 1.4539201304,
				"element": "O" 
			},
			{
				"x": -0.4545012012,
				"y": -0.2045230988,
				"z": 0.9207679971,
				"element": "C" 
			},
			{
				"x": 0.6967115562,
				"y": -0.186258813,
				"z": 0.1044284649,
				"element": "C" 
			},
			{
				"x": 1.4642564697,
				"y": -1.3613735111,
				"z": 0.0507291795,
				"element": "C" 
			},
			{
				"x": 1.0895830297,
				"y": -2.5057407115,
				"z": 0.7498667249,
				"element": "C" 
			},
			{
				"x": -0.0848756231,
				"y": -2.5204533478,
				"z": 1.5036163664,
				"element": "C" 
			},
			{
				"x": -0.856065767,
				"y": -1.3653747512,
				"z": 1.5810457262,
				"element": "C" 
			},
			{
				"x": 1.0759639799,
				"y": 0.9303305561,
				"z": -0.647538185,
				"element": "N" 
			},
			{
				"x": 2.4570075801,
				"y": 1.2412132522,
				"z": -1.0106322825,
				"element": "C" 
			},
			{
				"x": 2.3025820559,
				"y": 2.6394835819,
				"z": -1.6389300104,
				"element": "C" 
			},
			{
				"x": 0.9521217889,
				"y": 2.5514003723,
				"z": -2.1791941544,
				"element": "N" 
			},
			{
				"x": 0.1808304659,
				"y": 1.6621888683,
				"z": -1.4495273285,
				"element": "C" 
			},
			{
				"x": -1.022268405,
				"y": 1.5086607153,
				"z": -1.5122227194,
				"element": "O" 
			},
			{
				"x": 2.3530031713,
				"y": -1.3809519099,
				"z": -0.5703629305,
				"element": "H" 
			},
			{
				"x": 1.7088185304,
				"y": -3.3953862188,
				"z": 0.684675938,
				"element": "H" 
			},
			{
				"x": -0.3920962668,
				"y": -3.4152349395,
				"z": 2.0345315773,
				"element": "H" 
			},
			{
				"x": -1.7642479186,
				"y": -1.3276754729,
				"z": 2.1702223052,
				"element": "H" 
			},
			{
				"x": 3.1072012619,
				"y": 1.2404707198,
				"z": -0.1324202296,
				"element": "H" 
			},
			{
				"x": 2.855529898,
				"y": 0.5305274582,
				"z": -1.7489089671,
				"element": "H" 
			},
			{
				"x": 2.394582264,
				"y": 3.4228230683,
				"z": -0.8736137131,
				"element": "H" 
			},
			{
				"x": 3.0442037721,
				"y": 2.8206525872,
				"z": -2.4213300471,
				"element": "H" 
			},
			{
				"x": 0.4726311827,
				"y": 3.3655327031,
				"z": -2.5354657667,
				"element": "H" 
			}
		],
		 "valence_orbital": [ 
			{
				"type": "occ",
				"energy": -0.28559,
				"method": "rhf"
			},
			{
				"type": "occ",
				"energy": -0.27316,
				"method": "rhf"
			},
			{
				"type": "occ",
				"energy": -0.26443,
				"method": "rhf"
			},
			{
				"type": "occ",
				"energy": -0.26028,
				"method": "rhf"
			},
			{
				"type": "occ",
				"energy": -0.23282,
				"method": "rhf"
			},
			{
				"type": "unocc",
				"energy": -0.07128,
				"method": "rhf"
			},
			{
				"type": "unocc",
				"energy": -0.02223,
				"method": "rhf"
			},
			{
				"type": "unocc",
				"energy": -0.00151,
				"method": "rhf"
			},
			{
				"type": "unocc",
				"energy": 0.04985,
				"method": "rhf"
			},
			{
				"type": "unocc",
				"energy": 0.07292,
				"method": "rhf"
			}
		],
		"cosmo_sigma_profile": { 
			"-0.025": 0.0,
			"-0.024": 0.0,
			"-0.023": 0.0,
			"-0.022": 0.0,
			"-0.021": 0.0,
			"-0.02": 0.0,
			"-0.019": 0.0,
			"-0.018": 0.0,
			"-0.017": 0.0,
			"-0.016": 0.0,
			"-0.015": 0.19271695987,
			"-0.014": 1.47782616238,
			"-0.013": 0.701372200096,
			"-0.012": 1.53388331909,
			"-0.011": 0.952531242222,
			"-0.01": 1.03041207989,
			"-0.009": 1.0625544326,
			"-0.008": 3.23428766247,
			"-0.007": 11.359201118,
			"-0.006": 20.823140874,
			"-0.005": 26.1049357844,
			"-0.004": 17.7302074232,
			"-0.003": 12.4870470254,
			"-0.002": 8.57333330481,
			"-0.001": 8.1801964451,
			"0.0": 8.7392290032,
			"0.001": 11.4710639457,
			"0.002": 14.8690403381,
			"0.003": 10.7105286256,
			"0.004": 4.91966242259,
			"0.005": 4.95421465078,
			"0.006": 6.69967867136,
			"0.007": 10.6195636416,
			"0.008": 13.3603198773,
			"0.009": 7.24454472171,
			"0.01": 4.42089859982,
			"0.011": 2.62482842413,
			"0.012": 2.3879318152,
			"0.013": 3.76446908544,
			"0.014": 1.35171879887,
			"0.015": 0.0,
			"0.016": 0.0,
			"0.017": 0.0,
			"0.018": 0.0,
			"0.019": 0.0,
			"0.02": 0.0,
			"0.021": 0.0,
			"0.022": 0.0,
			"0.023": 0.0,
			"0.024": 0.0,
			"0.025": 0.0
		}
	}
}
