{
	 "smiles": "COC1N(N=C(N1C1=CC=CC=C1)C1=CC=CC=C1)C1=CC=CC=C1", 
	 "Tm": 353.15, 
	 "num_atms": 44, 
	 "gaussian": { 
		 "optdone": 1, 
		 "sigma_profile": "yes", 
		 "theory": "DFT", 
		 "functional": "B3LYP", 
		 "basiset": "6-31G**", 
		 "properties": { 
			 "R2extent": 9249.5596, 
			 "electric_dipole_moment_norm": 2.42935836385, 
			 "electric_quadrupole_moment_norm": 6.74092638218, 
			 "total_energy": -1051.13013988, 
			 "HOMO_LUMO_gap": 0.14381, 
			 "cosmo_polarized_energy": -10.27, 
			 "cosmo_cavitation_energy": 46.8, 
			 "cosmo_dispersion_energy": -31.85, 
			 "cosmo_repulsion_energy": 2.41, 
			 "cosmo_total_nonelectrostatic_energy": 17.36, 
			 "SMD_solvation_energy": 7.44 
		},
		"coords": [
			{
				"x": -2.3474204582,
				"y": -0.7092044795,
				"z": 1.8021625915,
				"element": "C" 
			},
			{
				"x": -0.9956780065,
				"y": -1.1654250318,
				"z": 1.7392962689,
				"element": "O" 
			},
			{
				"x": -0.1148868923,
				"y": -0.3536180653,
				"z": 0.984475482,
				"element": "C" 
			},
			{
				"x": -0.0872105433,
				"y": 1.0397136092,
				"z": 1.3852422076,
				"element": "N" 
			},
			{
				"x": -0.5464126466,
				"y": 1.884299322,
				"z": 0.3949951128,
				"element": "N" 
			},
			{
				"x": -0.7586520286,
				"y": 1.1477325538,
				"z": -0.6529942663,
				"element": "C" 
			},
			{
				"x": -0.4758725855,
				"y": -0.2090060412,
				"z": -0.422039189,
				"element": "N" 
			},
			{
				"x": -0.0097104454,
				"y": -1.1629233036,
				"z": -1.3670523073,
				"element": "C" 
			},
			{
				"x": 0.6557157249,
				"y": -0.774664436,
				"z": -2.5393850826,
				"element": "C" 
			},
			{
				"x": 1.1112872206,
				"y": -1.7434172612,
				"z": -3.4321592631,
				"element": "C" 
			},
			{
				"x": 0.9376144276,
				"y": -3.1018459035,
				"z": -3.1586425669,
				"element": "C" 
			},
			{
				"x": 0.295408752,
				"y": -3.4864588886,
				"z": -1.9807875849,
				"element": "C" 
			},
			{
				"x": -0.1878664371,
				"y": -2.5268917264,
				"z": -1.0914020615,
				"element": "C" 
			},
			{
				"x": -1.3796276449,
				"y": 1.6861322051,
				"z": -1.8714688917,
				"element": "C" 
			},
			{
				"x": -1.2047097688,
				"y": 3.0449791836,
				"z": -2.1867987466,
				"element": "C" 
			},
			{
				"x": -1.8200623644,
				"y": 3.5919499079,
				"z": -3.3090767771,
				"element": "C" 
			},
			{
				"x": -2.615543482,
				"y": 2.7938971203,
				"z": -4.1363435099,
				"element": "C" 
			},
			{
				"x": -2.79541421,
				"y": 1.4443621144,
				"z": -3.8281370543,
				"element": "C" 
			},
			{
				"x": -2.1836192949,
				"y": 0.8904160921,
				"z": -2.7044501449,
				"element": "C" 
			},
			{
				"x": 0.4955428939,
				"y": 1.5354517628,
				"z": 2.5561850542,
				"element": "C" 
			},
			{
				"x": 0.8482539367,
				"y": 0.6581236374,
				"z": 3.59716907,
				"element": "C" 
			},
			{
				"x": 1.4513235721,
				"y": 1.1600042198,
				"z": 4.7497538591,
				"element": "C" 
			},
			{
				"x": 1.6932808526,
				"y": 2.52636356,
				"z": 4.8966389724,
				"element": "C" 
			},
			{
				"x": 1.3229371828,
				"y": 3.3944668781,
				"z": 3.865961834,
				"element": "C" 
			},
			{
				"x": 0.7340915839,
				"y": 2.9132660781,
				"z": 2.7001461768,
				"element": "C" 
			},
			{
				"x": -2.4112955948,
				"y": 0.2939576752,
				"z": 2.2379779874,
				"element": "H" 
			},
			{
				"x": -2.8767374348,
				"y": -1.4168174303,
				"z": 2.4422930204,
				"element": "H" 
			},
			{
				"x": -2.8122687601,
				"y": -0.7012202896,
				"z": 0.8090401804,
				"element": "H" 
			},
			{
				"x": 0.8519355697,
				"y": -0.8554661761,
				"z": 1.1080873991,
				"element": "H" 
			},
			{
				"x": 0.8198993229,
				"y": 0.2766459138,
				"z": -2.7460515095,
				"element": "H" 
			},
			{
				"x": 1.6215648453,
				"y": -1.4310552891,
				"z": -4.3387600522,
				"element": "H" 
			},
			{
				"x": 1.3025324952,
				"y": -3.851261085,
				"z": -3.854397082,
				"element": "H" 
			},
			{
				"x": 0.1565881276,
				"y": -4.5396212232,
				"z": -1.7538497732,
				"element": "H" 
			},
			{
				"x": -0.7001980574,
				"y": -2.8196141635,
				"z": -0.1813384009,
				"element": "H" 
			},
			{
				"x": -0.5865167825,
				"y": 3.6576744911,
				"z": -1.5395379505,
				"element": "H" 
			},
			{
				"x": -1.6754066369,
				"y": 4.6429795292,
				"z": -3.5419854374,
				"element": "H" 
			},
			{
				"x": -3.0912222082,
				"y": 3.2214669837,
				"z": -5.0141343978,
				"element": "H" 
			},
			{
				"x": -3.4177565892,
				"y": 0.8189329393,
				"z": -4.4615933814,
				"element": "H" 
			},
			{
				"x": -2.3373896139,
				"y": -0.1566103684,
				"z": -2.4672697889,
				"element": "H" 
			},
			{
				"x": 0.6234678085,
				"y": -0.3991475523,
				"z": 3.5157342349,
				"element": "H" 
			},
			{
				"x": 1.7213172414,
				"y": 0.470514621,
				"z": 5.544977454,
				"element": "H" 
			},
			{
				"x": 2.1567539912,
				"y": 2.9098562393,
				"z": 5.8003262642,
				"element": "H" 
			},
			{
				"x": 1.5015563981,
				"y": 4.4618553215,
				"z": 3.9643711017,
				"element": "H" 
			},
			{
				"x": 0.4566065393,
				"y": 3.5823267559,
				"z": 1.8951209483,
				"element": "H" 
			}
		],
		 "valence_orbital": [ 
			{
				"type": "occ",
				"energy": -0.25323,
				"method": "rhf"
			},
			{
				"type": "occ",
				"energy": -0.24731,
				"method": "rhf"
			},
			{
				"type": "occ",
				"energy": -0.24115,
				"method": "rhf"
			},
			{
				"type": "occ",
				"energy": -0.22624,
				"method": "rhf"
			},
			{
				"type": "occ",
				"energy": -0.18217,
				"method": "rhf"
			},
			{
				"type": "unocc",
				"energy": -0.03836,
				"method": "rhf"
			},
			{
				"type": "unocc",
				"energy": -0.01284,
				"method": "rhf"
			},
			{
				"type": "unocc",
				"energy": -0.00514,
				"method": "rhf"
			},
			{
				"type": "unocc",
				"energy": 0.00085,
				"method": "rhf"
			},
			{
				"type": "unocc",
				"energy": 0.00798,
				"method": "rhf"
			}
		],
		"cosmo_sigma_profile": { 
			"-0.025": 0.0,
			"-0.024": 0.0,
			"-0.023": 0.0,
			"-0.022": 0.0,
			"-0.021": 0.0,
			"-0.02": 0.0,
			"-0.019": 0.0,
			"-0.018": 0.0,
			"-0.017": 0.0,
			"-0.016": 0.0,
			"-0.015": 0.0,
			"-0.014": 0.0,
			"-0.013": 0.0,
			"-0.012": 0.0,
			"-0.011": 0.0,
			"-0.01": 0.0,
			"-0.009": 0.0,
			"-0.008": 0.273532367126,
			"-0.007": 2.04093673919,
			"-0.006": 15.1737997944,
			"-0.005": 30.103985528,
			"-0.004": 38.4306960322,
			"-0.003": 37.3811869522,
			"-0.002": 33.42862119,
			"-0.001": 26.5915075864,
			"0.0": 26.7000699625,
			"0.001": 25.62359543,
			"0.002": 23.7457593432,
			"0.003": 28.5529599184,
			"0.004": 31.0697941599,
			"0.005": 28.7361021753,
			"0.006": 14.4994900576,
			"0.007": 5.42780016431,
			"0.008": 2.15662556135,
			"0.009": 1.25990471664,
			"0.01": 1.12931975539,
			"0.011": 1.30221178254,
			"0.012": 0.824940811849,
			"0.013": 0.124620407499,
			"0.014": 0.0,
			"0.015": 0.0,
			"0.016": 0.0,
			"0.017": 0.0,
			"0.018": 0.0,
			"0.019": 0.0,
			"0.02": 0.0,
			"0.021": 0.0,
			"0.022": 0.0,
			"0.023": 0.0,
			"0.024": 0.0,
			"0.025": 0.0
		}
	}
}
