{
	 "smiles": "BrC1=CC=C(C=C1)C(=O)C=CC1=CC=CC=C1", 
	 "Tm": 378.15, 
	 "num_atms": 28, 
	 "gaussian": { 
		 "optdone": 1, 
		 "sigma_profile": "yes", 
		 "theory": "DFT", 
		 "functional": "B3LYP", 
		 "basiset": "6-31G**", 
		 "properties": { 
			 "R2extent": 8630.3914, 
			 "electric_dipole_moment_norm": 2.86166293962, 
			 "electric_quadrupole_moment_norm": 10.8407803063, 
			 "total_energy": -3224.83325781, 
			 "HOMO_LUMO_gap": 0.16312, 
			 "cosmo_polarized_energy": -9.56, 
			 "cosmo_cavitation_energy": 34.97, 
			 "cosmo_dispersion_energy": -24.45, 
			 "cosmo_repulsion_energy": 1.92, 
			 "cosmo_total_nonelectrostatic_energy": 12.44, 
			 "SMD_solvation_energy": 5.22 
		},
		"coords": [
			{
				"x": -4.3967619631,
				"y": -0.1862307683,
				"z": -4.307018609,
				"element": "Br" 
			},
			{
				"x": -3.0566325633,
				"y": 0.6187670448,
				"z": -3.2117796184,
				"element": "C" 
			},
			{
				"x": -1.7258659611,
				"y": 0.232345907,
				"z": -3.3657991758,
				"element": "C" 
			},
			{
				"x": -0.7521503141,
				"y": 0.8203631831,
				"z": -2.5605191718,
				"element": "C" 
			},
			{
				"x": -1.1008092795,
				"y": 1.7889846991,
				"z": -1.6090309254,
				"element": "C" 
			},
			{
				"x": -2.4463044535,
				"y": 2.1693085738,
				"z": -1.4834926475,
				"element": "C" 
			},
			{
				"x": -3.4289876014,
				"y": 1.5859755599,
				"z": -2.2752588013,
				"element": "C" 
			},
			{
				"x": -0.0915004535,
				"y": 2.4868163077,
				"z": -0.7486370061,
				"element": "C" 
			},
			{
				"x": -0.4088923203,
				"y": 3.4742589311,
				"z": -0.0943544133,
				"element": "O" 
			},
			{
				"x": 1.342609126,
				"y": 2.0514713549,
				"z": -0.7432370396,
				"element": "C" 
			},
			{
				"x": 1.874244298,
				"y": 0.860379011,
				"z": -0.4094970833,
				"element": "C" 
			},
			{
				"x": 1.2028243873,
				"y": -0.3609061144,
				"z": 0.063729336,
				"element": "C" 
			},
			{
				"x": 0.0034410193,
				"y": -0.3356480212,
				"z": 0.7985140974,
				"element": "C" 
			},
			{
				"x": -0.5915991707,
				"y": -1.5201647364,
				"z": 1.2275260092,
				"element": "C" 
			},
			{
				"x": 0.0011805001,
				"y": -2.7519162665,
				"z": 0.9404155301,
				"element": "C" 
			},
			{
				"x": 1.2044118988,
				"y": -2.7918149428,
				"z": 0.2322126161,
				"element": "C" 
			},
			{
				"x": 1.8032978765,
				"y": -1.6076192652,
				"z": -0.1912323156,
				"element": "C" 
			},
			{
				"x": -1.4569322747,
				"y": -0.5147178317,
				"z": -4.1035682077,
				"element": "H" 
			},
			{
				"x": 0.2851810658,
				"y": 0.5280127633,
				"z": -2.6783764383,
				"element": "H" 
			},
			{
				"x": -2.7004080884,
				"y": 2.9319794243,
				"z": -0.7548932367,
				"element": "H" 
			},
			{
				"x": -4.4689458384,
				"y": 1.8749755062,
				"z": -2.1748193659,
				"element": "H" 
			},
			{
				"x": 2.0261412159,
				"y": 2.8700924284,
				"z": -0.9604815605,
				"element": "H" 
			},
			{
				"x": 2.9594909327,
				"y": 0.780614449,
				"z": -0.4741705929,
				"element": "H" 
			},
			{
				"x": -0.446038101,
				"y": 0.6159102801,
				"z": 1.0619582535,
				"element": "H" 
			},
			{
				"x": -1.514881201,
				"y": -1.4807022773,
				"z": 1.7981363836,
				"element": "H" 
			},
			{
				"x": -0.4636938309,
				"y": -3.6732103141,
				"z": 1.2789916024,
				"element": "H" 
			},
			{
				"x": 1.6789807786,
				"y": -3.7446663666,
				"z": 0.0162089421,
				"element": "H" 
			},
			{
				"x": 2.743200316,
				"y": -1.6421585193,
				"z": -0.7366265615,
				"element": "H" 
			}
		],
		 "valence_orbital": [ 
			{
				"type": "occ",
				"energy": -0.27063,
				"method": "rhf"
			},
			{
				"type": "occ",
				"energy": -0.26042,
				"method": "rhf"
			},
			{
				"type": "occ",
				"energy": -0.25911,
				"method": "rhf"
			},
			{
				"type": "occ",
				"energy": -0.24793,
				"method": "rhf"
			},
			{
				"type": "occ",
				"energy": -0.23497,
				"method": "rhf"
			},
			{
				"type": "unocc",
				"energy": -0.07185,
				"method": "rhf"
			},
			{
				"type": "unocc",
				"energy": -0.03977,
				"method": "rhf"
			},
			{
				"type": "unocc",
				"energy": -0.01885,
				"method": "rhf"
			},
			{
				"type": "unocc",
				"energy": -0.00838,
				"method": "rhf"
			},
			{
				"type": "unocc",
				"energy": 0.00282,
				"method": "rhf"
			}
		],
		"cosmo_sigma_profile": { 
			"-0.025": 0.0,
			"-0.024": 0.0,
			"-0.023": 0.0,
			"-0.022": 0.0,
			"-0.021": 0.0,
			"-0.02": 0.0,
			"-0.019": 0.0,
			"-0.018": 0.0,
			"-0.017": 0.0,
			"-0.016": 0.0,
			"-0.015": 0.0,
			"-0.014": 0.0,
			"-0.013": 0.0,
			"-0.012": 0.0,
			"-0.011": 0.0,
			"-0.01": 0.0,
			"-0.009": 0.0,
			"-0.008": 0.894792892109,
			"-0.007": 7.39232955184,
			"-0.006": 18.9192757632,
			"-0.005": 21.4608753137,
			"-0.004": 23.4144731426,
			"-0.003": 20.3113264796,
			"-0.002": 18.9207799436,
			"-0.001": 18.8394023398,
			"0.0": 19.7161132134,
			"0.001": 25.2197960879,
			"0.002": 31.288874767,
			"0.003": 23.3970600145,
			"0.004": 24.4822278843,
			"0.005": 12.6992546998,
			"0.006": 2.45156516321,
			"0.007": 1.64088757777,
			"0.008": 1.25824776588,
			"0.009": 1.55865406049,
			"0.01": 2.1172939992,
			"0.011": 3.63101098694,
			"0.012": 3.44648906903,
			"0.013": 1.23794018759,
			"0.014": 0.0768780254183,
			"0.015": 0.0,
			"0.016": 0.0,
			"0.017": 0.0,
			"0.018": 0.0,
			"0.019": 0.0,
			"0.02": 0.0,
			"0.021": 0.0,
			"0.022": 0.0,
			"0.023": 0.0,
			"0.024": 0.0,
			"0.025": 0.0
		}
	}
}
