{
	 "smiles": "CCCCCCCCCC(=O)N[C@@H](CCC(N)=O)C(O)=O", 
	 "Tm": 403.15, 
	 "num_atms": 49, 
	 "gaussian": { 
		 "optdone": 1, 
		 "sigma_profile": "yes", 
		 "theory": "DFT", 
		 "functional": "B3LYP", 
		 "basiset": "6-31G**", 
		 "properties": { 
			 "R2extent": 13800.4274, 
			 "electric_dipole_moment_norm": 6.38702858378, 
			 "electric_quadrupole_moment_norm": 54.8431449447, 
			 "total_energy": -998.956834888, 
			 "HOMO_LUMO_gap": 0.24845, 
			 "cosmo_polarized_energy": -22.66, 
			 "cosmo_cavitation_energy": 50.31, 
			 "cosmo_dispersion_energy": -34.18, 
			 "cosmo_repulsion_energy": 2.73, 
			 "cosmo_total_nonelectrostatic_energy": 18.86, 
			 "SMD_solvation_energy": 9.55 
		},
		"coords": [
			{
				"x": 6.1237213326,
				"y": 4.0909962304,
				"z": 0.0266877198,
				"element": "C" 
			},
			{
				"x": 5.836335695,
				"y": 2.5971946718,
				"z": -0.1680964111,
				"element": "C" 
			},
			{
				"x": 4.3958096274,
				"y": 2.1725496661,
				"z": 0.1658094218,
				"element": "C" 
			},
			{
				"x": 4.0214834031,
				"y": 2.3038709293,
				"z": 1.6499215606,
				"element": "C" 
			},
			{
				"x": 2.5780098494,
				"y": 1.8881053591,
				"z": 1.9835325606,
				"element": "C" 
			},
			{
				"x": 2.285774739,
				"y": 0.3905293991,
				"z": 1.799236039,
				"element": "C" 
			},
			{
				"x": 0.8941357842,
				"y": -0.055559432,
				"z": 2.2774683624,
				"element": "C" 
			},
			{
				"x": -0.2678311433,
				"y": 0.5445411706,
				"z": 1.4724973613,
				"element": "C" 
			},
			{
				"x": -1.6605423032,
				"y": 0.0050536089,
				"z": 1.8754991199,
				"element": "C" 
			},
			{
				"x": -1.8451536405,
				"y": -1.4632846718,
				"z": 1.5210516699,
				"element": "C" 
			},
			{
				"x": -1.3833697925,
				"y": -2.3740596614,
				"z": 2.1979445569,
				"element": "O" 
			},
			{
				"x": -2.515662476,
				"y": -1.6906565128,
				"z": 0.3276725497,
				"element": "N" 
			},
			{
				"x": -2.947702219,
				"y": -3.0420851687,
				"z": -0.0157198721,
				"element": "C" 
			},
			{
				"x": -4.4743356607,
				"y": -3.2631540371,
				"z": 0.0483388337,
				"element": "C" 
			},
			{
				"x": -5.3342802081,
				"y": -2.6923296549,
				"z": -1.0963328542,
				"element": "C" 
			},
			{
				"x": -5.5555413462,
				"y": -1.1846915902,
				"z": -1.1066323113,
				"element": "C" 
			},
			{
				"x": -6.7342760697,
				"y": -0.7798525629,
				"z": -1.6487618165,
				"element": "N" 
			},
			{
				"x": -4.7410751267,
				"y": -0.3580081376,
				"z": -0.6885948128,
				"element": "O" 
			},
			{
				"x": -2.3722845557,
				"y": -3.495453284,
				"z": -1.3701753065,
				"element": "C" 
			},
			{
				"x": -1.3131950801,
				"y": -2.7908171764,
				"z": -1.8021569542,
				"element": "O" 
			},
			{
				"x": -2.8200364022,
				"y": -4.4317890122,
				"z": -1.9933815156,
				"element": "O" 
			},
			{
				"x": 5.4420914572,
				"y": 4.7047733988,
				"z": -0.5740878066,
				"element": "H" 
			},
			{
				"x": 7.1464203014,
				"y": 4.3377548884,
				"z": -0.2773535866,
				"element": "H" 
			},
			{
				"x": 6.0108316502,
				"y": 4.3982047304,
				"z": 1.0713884854,
				"element": "H" 
			},
			{
				"x": 6.5356703637,
				"y": 2.0080500461,
				"z": 0.4411980372,
				"element": "H" 
			},
			{
				"x": 6.0467432948,
				"y": 2.3295644616,
				"z": -1.2115359688,
				"element": "H" 
			},
			{
				"x": 3.6950098957,
				"y": 2.7696046514,
				"z": -0.4365786508,
				"element": "H" 
			},
			{
				"x": 4.2594610489,
				"y": 1.1318881062,
				"z": -0.1531875,
				"element": "H" 
			},
			{
				"x": 4.164131452,
				"y": 3.343546595,
				"z": 1.9697394903,
				"element": "H" 
			},
			{
				"x": 4.7187898653,
				"y": 1.7025671597,
				"z": 2.2516764902,
				"element": "H" 
			},
			{
				"x": 1.8874533938,
				"y": 2.4846663406,
				"z": 1.3717802885,
				"element": "H" 
			},
			{
				"x": 2.3670135448,
				"y": 2.1576693099,
				"z": 3.0278927998,
				"element": "H" 
			},
			{
				"x": 3.0429160929,
				"y": -0.1835495912,
				"z": 2.3507087108,
				"element": "H" 
			},
			{
				"x": 2.4057086255,
				"y": 0.1112733129,
				"z": 0.7438419962,
				"element": "H" 
			},
			{
				"x": 0.7683800205,
				"y": 0.2131533807,
				"z": 3.3361264307,
				"element": "H" 
			},
			{
				"x": 0.8302039532,
				"y": -1.1478762703,
				"z": 2.2370172841,
				"element": "H" 
			},
			{
				"x": -0.2865636241,
				"y": 1.6336829702,
				"z": 1.5945382284,
				"element": "H" 
			},
			{
				"x": -0.1085788434,
				"y": 0.3633276347,
				"z": 0.3998327255,
				"element": "H" 
			},
			{
				"x": -2.4400272534,
				"y": 0.6089281432,
				"z": 1.3978010772,
				"element": "H" 
			},
			{
				"x": -1.785488594,
				"y": 0.0909941802,
				"z": 2.9598656572,
				"element": "H" 
			},
			{
				"x": -3.1454782384,
				"y": -0.9599455438,
				"z": -0.0167486411,
				"element": "H" 
			},
			{
				"x": -2.4848678865,
				"y": -3.6929947414,
				"z": 0.737367019,
				"element": "H" 
			},
			{
				"x": -4.8324703973,
				"y": -2.8958502453,
				"z": 1.0156462189,
				"element": "H" 
			},
			{
				"x": -4.628845677,
				"y": -4.3453287823,
				"z": 0.0381353619,
				"element": "H" 
			},
			{
				"x": -6.3107293787,
				"y": -3.189912183,
				"z": -1.0738270767,
				"element": "H" 
			},
			{
				"x": -4.883043591,
				"y": -2.9702865549,
				"z": -2.0570409141,
				"element": "H" 
			},
			{
				"x": -7.4028265845,
				"y": -1.4260784188,
				"z": -2.0347593122,
				"element": "H" 
			},
			{
				"x": -6.8936481077,
				"y": 0.2108915203,
				"z": -1.7557536254,
				"element": "H" 
			},
			{
				"x": -1.1908411909,
				"y": -2.0598186327,
				"z": -1.1653911209,
				"element": "H" 
			}
		],
		 "valence_orbital": [ 
			{
				"type": "occ",
				"energy": -0.29469,
				"method": "rhf"
			},
			{
				"type": "occ",
				"energy": -0.2895,
				"method": "rhf"
			},
			{
				"type": "occ",
				"energy": -0.27648,
				"method": "rhf"
			},
			{
				"type": "occ",
				"energy": -0.25268,
				"method": "rhf"
			},
			{
				"type": "occ",
				"energy": -0.24567,
				"method": "rhf"
			},
			{
				"type": "unocc",
				"energy": 0.00278,
				"method": "rhf"
			},
			{
				"type": "unocc",
				"energy": 0.01385,
				"method": "rhf"
			},
			{
				"type": "unocc",
				"energy": 0.01591,
				"method": "rhf"
			},
			{
				"type": "unocc",
				"energy": 0.05317,
				"method": "rhf"
			},
			{
				"type": "unocc",
				"energy": 0.07616,
				"method": "rhf"
			}
		],
		"cosmo_sigma_profile": { 
			"-0.025": 0.0,
			"-0.024": 0.0,
			"-0.023": 0.0,
			"-0.022": 0.0,
			"-0.021": 0.0,
			"-0.02": 0.0,
			"-0.019": 0.0,
			"-0.018": 0.0,
			"-0.017": 0.0,
			"-0.016": 0.0,
			"-0.015": 0.572127264105,
			"-0.014": 2.60113690211,
			"-0.013": 2.69112335057,
			"-0.012": 2.88489591445,
			"-0.011": 3.58772354646,
			"-0.01": 3.92166493622,
			"-0.009": 3.65153139928,
			"-0.008": 3.41626322046,
			"-0.007": 5.62791795507,
			"-0.006": 9.60292428048,
			"-0.005": 13.9751738494,
			"-0.004": 18.8355367419,
			"-0.003": 27.1555773127,
			"-0.002": 44.3394096728,
			"-0.001": 55.0665596443,
			"0.0": 51.6828499944,
			"0.001": 45.7348566415,
			"0.002": 20.2408609931,
			"0.003": 6.51928076579,
			"0.004": 6.71347635264,
			"0.005": 5.2072724332,
			"0.006": 6.02183459744,
			"0.007": 4.86608842451,
			"0.008": 5.21552167592,
			"0.009": 5.81978436628,
			"0.01": 8.0367879938,
			"0.011": 6.49475151134,
			"0.012": 8.86669370734,
			"0.013": 7.10123096862,
			"0.014": 2.76367089619,
			"0.015": 0.218610273576,
			"0.016": 0.0,
			"0.017": 0.0,
			"0.018": 0.0,
			"0.019": 0.0,
			"0.02": 0.0,
			"0.021": 0.0,
			"0.022": 0.0,
			"0.023": 0.0,
			"0.024": 0.0,
			"0.025": 0.0
		}
	}
}
