{
	 "smiles": "COC1=CC2=C(C=C1C)C(C2)C#N", 
	 "Tm": 340.15, 
	 "num_atms": 24, 
	 "gaussian": { 
		 "optdone": 1, 
		 "sigma_profile": "yes", 
		 "theory": "DFT", 
		 "functional": "B3LYP", 
		 "basiset": "6-31G**", 
		 "properties": { 
			 "R2extent": 3816.9146, 
			 "electric_dipole_moment_norm": 5.20467846269, 
			 "electric_quadrupole_moment_norm": 17.7742920827, 
			 "total_energy": -555.714103992, 
			 "HOMO_LUMO_gap": 0.20864, 
			 "cosmo_polarized_energy": -10.89, 
			 "cosmo_cavitation_energy": 28.42, 
			 "cosmo_dispersion_energy": -20.11, 
			 "cosmo_repulsion_energy": 1.62, 
			 "cosmo_total_nonelectrostatic_energy": 9.93, 
			 "SMD_solvation_energy": 6.69 
		},
		"coords": [
			{
				"x": -0.2671113901,
				"y": -1.7683247664,
				"z": 2.4663094608,
				"element": "C" 
			},
			{
				"x": -1.2288630097,
				"y": -1.0348846849,
				"z": 1.7257791017,
				"element": "O" 
			},
			{
				"x": -0.901959874,
				"y": 0.2185663943,
				"z": 1.2880477263,
				"element": "C" 
			},
			{
				"x": 0.3399875797,
				"y": 0.8258562409,
				"z": 1.5408710332,
				"element": "C" 
			},
			{
				"x": 0.5019232199,
				"y": 2.1027276406,
				"z": 1.0164128461,
				"element": "C" 
			},
			{
				"x": -0.4953080616,
				"y": 2.7428987983,
				"z": 0.3004131866,
				"element": "C" 
			},
			{
				"x": -1.7257183187,
				"y": 2.1509250372,
				"z": 0.0433966737,
				"element": "C" 
			},
			{
				"x": -1.9325731635,
				"y": 0.8610300485,
				"z": 0.5471778216,
				"element": "C" 
			},
			{
				"x": -3.2329994124,
				"y": 0.1313191535,
				"z": 0.3196746743,
				"element": "C" 
			},
			{
				"x": 0.3273196167,
				"y": 4.0188328434,
				"z": 0.1048335791,
				"element": "C" 
			},
			{
				"x": 1.4841815017,
				"y": 3.2557648362,
				"z": 0.8945464796,
				"element": "C" 
			},
			{
				"x": 0.6420691561,
				"y": 4.4169362772,
				"z": -1.2655859082,
				"element": "C" 
			},
			{
				"x": 0.8932703269,
				"y": 4.7242201227,
				"z": -2.3572903132,
				"element": "N" 
			},
			{
				"x": -0.7350072183,
				"y": -2.7250704659,
				"z": 2.7033305058,
				"element": "H" 
			},
			{
				"x": 0.0013052095,
				"y": -1.2571649248,
				"z": 3.3998982267,
				"element": "H" 
			},
			{
				"x": 0.6439779774,
				"y": -1.9473826681,
				"z": 1.881046003,
				"element": "H" 
			},
			{
				"x": 1.1170434138,
				"y": 0.3225458571,
				"z": 2.1035644652,
				"element": "H" 
			},
			{
				"x": -2.5110703808,
				"y": 2.6413196429,
				"z": -0.5251341116,
				"element": "H" 
			},
			{
				"x": -3.7151262163,
				"y": -0.129495199,
				"z": 1.2681485497,
				"element": "H" 
			},
			{
				"x": -3.0721096566,
				"y": -0.8108031798,
				"z": -0.2155089805,
				"element": "H" 
			},
			{
				"x": -3.9250456393,
				"y": 0.7449463075,
				"z": -0.2626034365,
				"element": "H" 
			},
			{
				"x": -0.0505971455,
				"y": 4.8939040111,
				"z": 0.6467741005,
				"element": "H" 
			},
			{
				"x": 2.3761002872,
				"y": 3.063839164,
				"z": 0.2910665621,
				"element": "H" 
			},
			{
				"x": 1.7822111979,
				"y": 3.7517935135,
				"z": 1.823831754,
				"element": "H" 
			}
		],
		 "valence_orbital": [ 
			{
				"type": "occ",
				"energy": -0.32351,
				"method": "rhf"
			},
			{
				"type": "occ",
				"energy": -0.31023,
				"method": "rhf"
			},
			{
				"type": "occ",
				"energy": -0.30851,
				"method": "rhf"
			},
			{
				"type": "occ",
				"energy": -0.2526,
				"method": "rhf"
			},
			{
				"type": "occ",
				"energy": -0.22015,
				"method": "rhf"
			},
			{
				"type": "unocc",
				"energy": -0.01151,
				"method": "rhf"
			},
			{
				"type": "unocc",
				"energy": 0.00247,
				"method": "rhf"
			},
			{
				"type": "unocc",
				"energy": 0.0308,
				"method": "rhf"
			},
			{
				"type": "unocc",
				"energy": 0.04525,
				"method": "rhf"
			},
			{
				"type": "unocc",
				"energy": 0.092,
				"method": "rhf"
			}
		],
		"cosmo_sigma_profile": { 
			"-0.025": 0.0,
			"-0.024": 0.0,
			"-0.023": 0.0,
			"-0.022": 0.0,
			"-0.021": 0.0,
			"-0.02": 0.0,
			"-0.019": 0.0,
			"-0.018": 0.0,
			"-0.017": 0.0,
			"-0.016": 0.0,
			"-0.015": 0.0,
			"-0.014": 0.0,
			"-0.013": 0.0,
			"-0.012": 0.0,
			"-0.011": 0.0,
			"-0.01": 0.0,
			"-0.009": 0.162678136005,
			"-0.008": 2.67374807805,
			"-0.007": 3.6310236761,
			"-0.006": 12.7595435728,
			"-0.005": 21.2679823747,
			"-0.004": 22.4972791744,
			"-0.003": 24.1292810563,
			"-0.002": 19.3443432809,
			"-0.001": 14.732654024,
			"0.0": 15.3612595145,
			"0.001": 14.045335636,
			"0.002": 11.1576221906,
			"0.003": 11.0944161391,
			"0.004": 13.1184235944,
			"0.005": 10.5313771855,
			"0.006": 5.25324740051,
			"0.007": 3.62771134755,
			"0.008": 5.37379785373,
			"0.009": 4.23060883638,
			"0.01": 3.61361164846,
			"0.011": 2.84113910807,
			"0.012": 2.57305232765,
			"0.013": 2.21832919497,
			"0.014": 0.385372282278,
			"0.015": 0.0,
			"0.016": 0.0,
			"0.017": 0.0,
			"0.018": 0.0,
			"0.019": 0.0,
			"0.02": 0.0,
			"0.021": 0.0,
			"0.022": 0.0,
			"0.023": 0.0,
			"0.024": 0.0,
			"0.025": 0.0
		}
	}
}
