{
	 "smiles": "CSC1=C(C=C)C(C)=C(S1)C(O)=O", 
	 "Tm": 446.15, 
	 "num_atms": 23, 
	 "gaussian": { 
		 "optdone": 1, 
		 "sigma_profile": "yes", 
		 "theory": "DFT", 
		 "functional": "B3LYP", 
		 "basiset": "6-31G**", 
		 "properties": { 
			 "R2extent": 3583.3985, 
			 "electric_dipole_moment_norm": 4.33332142127, 
			 "electric_quadrupole_moment_norm": 19.6205378395, 
			 "total_energy": -1295.7844618, 
			 "HOMO_LUMO_gap": 0.15905, 
			 "cosmo_polarized_energy": -14.94, 
			 "cosmo_cavitation_energy": 29.51, 
			 "cosmo_dispersion_energy": -22.26, 
			 "cosmo_repulsion_energy": 1.66, 
			 "cosmo_total_nonelectrostatic_energy": 8.91, 
			 "SMD_solvation_energy": 6.47 
		},
		"coords": [
			{
				"x": 3.0504033419,
				"y": -2.2709181029,
				"z": -2.4461757461,
				"element": "C" 
			},
			{
				"x": 2.5857224189,
				"y": -0.506702687,
				"z": -2.3460047918,
				"element": "S" 
			},
			{
				"x": 1.4154833753,
				"y": -0.4990970187,
				"z": -1.0306067061,
				"element": "C" 
			},
			{
				"x": 1.0379387179,
				"y": 0.6443256655,
				"z": -0.3306022231,
				"element": "C" 
			},
			{
				"x": 1.6905711614,
				"y": 1.9371367832,
				"z": -0.573117491,
				"element": "C" 
			},
			{
				"x": 1.1379781115,
				"y": 3.1559182786,
				"z": -0.5035802033,
				"element": "C" 
			},
			{
				"x": 0.0127525574,
				"y": 0.3622834537,
				"z": 0.6418554686,
				"element": "C" 
			},
			{
				"x": -0.4883613076,
				"y": 1.389146508,
				"z": 1.6285231575,
				"element": "C" 
			},
			{
				"x": -0.3706359076,
				"y": -0.967950575,
				"z": 0.6327410517,
				"element": "C" 
			},
			{
				"x": 0.5301243507,
				"y": -1.9043885509,
				"z": -0.5358927327,
				"element": "S" 
			},
			{
				"x": -1.3241178454,
				"y": -1.7476092606,
				"z": 1.4470889128,
				"element": "C" 
			},
			{
				"x": -2.2591556505,
				"y": -1.0574152792,
				"z": 2.1575137304,
				"element": "O" 
			},
			{
				"x": -1.311398297,
				"y": -2.9588749952,
				"z": 1.4885783373,
				"element": "O" 
			},
			{
				"x": 3.8405127723,
				"y": -2.3242886283,
				"z": -3.1977802827,
				"element": "H" 
			},
			{
				"x": 2.208953603,
				"y": -2.8853580578,
				"z": -2.7731548936,
				"element": "H" 
			},
			{
				"x": 3.4341777893,
				"y": -2.6300380279,
				"z": -1.4894006638,
				"element": "H" 
			},
			{
				"x": 2.738760355,
				"y": 1.866652375,
				"z": -0.8642089032,
				"element": "H" 
			},
			{
				"x": 0.0893608601,
				"y": 3.3154962117,
				"z": -0.2754692772,
				"element": "H" 
			},
			{
				"x": 1.730465958,
				"y": 4.0434577236,
				"z": -0.7015566899,
				"element": "H" 
			},
			{
				"x": -1.3762782618,
				"y": 1.9225579095,
				"z": 1.261743058,
				"element": "H" 
			},
			{
				"x": -0.7320447425,
				"y": 0.9351357531,
				"z": 2.5928868407,
				"element": "H" 
			},
			{
				"x": 0.2765228517,
				"y": 2.148128689,
				"z": 1.8052126808,
				"element": "H" 
			},
			{
				"x": -2.262536212,
				"y": -0.1263981673,
				"z": 1.8990073665,
				"element": "H" 
			}
		],
		 "valence_orbital": [ 
			{
				"type": "occ",
				"energy": -0.30104,
				"method": "rhf"
			},
			{
				"type": "occ",
				"energy": -0.28905,
				"method": "rhf"
			},
			{
				"type": "occ",
				"energy": -0.27267,
				"method": "rhf"
			},
			{
				"type": "occ",
				"energy": -0.24924,
				"method": "rhf"
			},
			{
				"type": "occ",
				"energy": -0.21528,
				"method": "rhf"
			},
			{
				"type": "unocc",
				"energy": -0.05623,
				"method": "rhf"
			},
			{
				"type": "unocc",
				"energy": -0.02552,
				"method": "rhf"
			},
			{
				"type": "unocc",
				"energy": 0.00992,
				"method": "rhf"
			},
			{
				"type": "unocc",
				"energy": 0.02109,
				"method": "rhf"
			},
			{
				"type": "unocc",
				"energy": 0.05787,
				"method": "rhf"
			}
		],
		"cosmo_sigma_profile": { 
			"-0.025": 0.0,
			"-0.024": 0.0,
			"-0.023": 0.0,
			"-0.022": 0.0,
			"-0.021": 0.0,
			"-0.02": 0.0,
			"-0.019": 0.0,
			"-0.018": 0.0,
			"-0.017": 0.154342014387,
			"-0.016": 0.835397579666,
			"-0.015": 0.709087840643,
			"-0.014": 1.0682468549,
			"-0.013": 1.26446381777,
			"-0.012": 1.02813588839,
			"-0.011": 0.992764567599,
			"-0.01": 1.05736415897,
			"-0.009": 0.954875742653,
			"-0.008": 2.66489234756,
			"-0.007": 5.83087010724,
			"-0.006": 13.0997691162,
			"-0.005": 16.559322724,
			"-0.004": 16.378804202,
			"-0.003": 20.1387117856,
			"-0.002": 18.8553120377,
			"-0.001": 16.5659843879,
			"0.0": 12.3862114379,
			"0.001": 18.7611156291,
			"0.002": 23.2814136887,
			"0.003": 15.8917835068,
			"0.004": 10.0737042994,
			"0.005": 7.62342676146,
			"0.006": 5.40841019718,
			"0.007": 3.779405612,
			"0.008": 3.41045537808,
			"0.009": 3.09309634952,
			"0.01": 4.47194166157,
			"0.011": 5.20955695102,
			"0.012": 5.19403329241,
			"0.013": 2.05713052274,
			"0.014": 0.171389394004,
			"0.015": 0.0,
			"0.016": 0.0,
			"0.017": 0.0,
			"0.018": 0.0,
			"0.019": 0.0,
			"0.02": 0.0,
			"0.021": 0.0,
			"0.022": 0.0,
			"0.023": 0.0,
			"0.024": 0.0,
			"0.025": 0.0
		}
	}
}
