{
	 "smiles": "COC(=O)C1=C(OC)C=C(N)C(Cl)=C1", 
	 "Tm": 398.15, 
	 "num_atms": 24, 
	 "gaussian": { 
		 "optdone": 1, 
		 "sigma_profile": "yes", 
		 "theory": "DFT", 
		 "functional": "B3LYP", 
		 "basiset": "6-31G**", 
		 "properties": { 
			 "R2extent": 3762.0055, 
			 "electric_dipole_moment_norm": 5.40093298792, 
			 "electric_quadrupole_moment_norm": 10.9441821325, 
			 "total_energy": -1089.59968169, 
			 "HOMO_LUMO_gap": 0.18094, 
			 "cosmo_polarized_energy": -15.57, 
			 "cosmo_cavitation_energy": 29.95, 
			 "cosmo_dispersion_energy": -22.09, 
			 "cosmo_repulsion_energy": 1.76, 
			 "cosmo_total_nonelectrostatic_energy": 9.61, 
			 "SMD_solvation_energy": 7.19 
		},
		"coords": [
			{
				"x": -3.1821883587,
				"y": -0.9870963234,
				"z": -2.3818591729,
				"element": "C" 
			},
			{
				"x": -2.1799832208,
				"y": -0.8805882784,
				"z": -1.3615575844,
				"element": "O" 
			},
			{
				"x": -1.0653447749,
				"y": -0.2160341867,
				"z": -1.7315995892,
				"element": "C" 
			},
			{
				"x": -0.9291375649,
				"y": 0.2550351517,
				"z": -2.8490677504,
				"element": "O" 
			},
			{
				"x": -0.025896579,
				"y": -0.1068628188,
				"z": -0.6734023404,
				"element": "C" 
			},
			{
				"x": -0.0884754843,
				"y": -0.6137664042,
				"z": 0.6522790715,
				"element": "C" 
			},
			{
				"x": -1.2079714984,
				"y": -1.2784692814,
				"z": 1.0286933296,
				"element": "O" 
			},
			{
				"x": -1.2934874958,
				"y": -1.8024518574,
				"z": 2.3442048275,
				"element": "C" 
			},
			{
				"x": 0.9874032123,
				"y": -0.4165619752,
				"z": 1.5221429374,
				"element": "C" 
			},
			{
				"x": 2.1492844307,
				"y": 0.2718698029,
				"z": 1.1287202037,
				"element": "C" 
			},
			{
				"x": 3.2125572246,
				"y": 0.4078824378,
				"z": 1.9911995273,
				"element": "N" 
			},
			{
				"x": 2.1948358202,
				"y": 0.7701833428,
				"z": -0.1892592081,
				"element": "C" 
			},
			{
				"x": 3.6233618592,
				"y": 1.6545706707,
				"z": -0.7280831229,
				"element": "Cl" 
			},
			{
				"x": 1.1354300994,
				"y": 0.5809789409,
				"z": -1.0548490504,
				"element": "C" 
			},
			{
				"x": -3.5205109333,
				"y": 0.0025974034,
				"z": -2.6999077476,
				"element": "H" 
			},
			{
				"x": -4.002042185,
				"y": -1.5441539496,
				"z": -1.9275648118,
				"element": "H" 
			},
			{
				"x": -2.7940558522,
				"y": -1.5187671999,
				"z": -3.2546210988,
				"element": "H" 
			},
			{
				"x": -1.2387926052,
				"y": -1.0101141165,
				"z": 3.1017121405,
				"element": "H" 
			},
			{
				"x": -0.5074109394,
				"y": -2.5431760339,
				"z": 2.5384481159,
				"element": "H" 
			},
			{
				"x": -2.2678219733,
				"y": -2.2890883558,
				"z": 2.4047257976,
				"element": "H" 
			},
			{
				"x": 0.9506440153,
				"y": -0.8069406721,
				"z": 2.5318792507,
				"element": "H" 
			},
			{
				"x": 3.0237385905,
				"y": 0.3089198945,
				"z": 2.9765954093,
				"element": "H" 
			},
			{
				"x": 3.9041989139,
				"y": 1.1042821794,
				"z": 1.7555979737,
				"element": "H" 
			},
			{
				"x": 1.176265299,
				"y": 0.9693516289,
				"z": -2.0656271079,
				"element": "H" 
			}
		],
		 "valence_orbital": [ 
			{
				"type": "occ",
				"energy": -0.29614,
				"method": "rhf"
			},
			{
				"type": "occ",
				"energy": -0.28387,
				"method": "rhf"
			},
			{
				"type": "occ",
				"energy": -0.26137,
				"method": "rhf"
			},
			{
				"type": "occ",
				"energy": -0.23621,
				"method": "rhf"
			},
			{
				"type": "occ",
				"energy": -0.21053,
				"method": "rhf"
			},
			{
				"type": "unocc",
				"energy": -0.02959,
				"method": "rhf"
			},
			{
				"type": "unocc",
				"energy": 0.00233,
				"method": "rhf"
			},
			{
				"type": "unocc",
				"energy": 0.03214,
				"method": "rhf"
			},
			{
				"type": "unocc",
				"energy": 0.06449,
				"method": "rhf"
			},
			{
				"type": "unocc",
				"energy": 0.07582,
				"method": "rhf"
			}
		],
		"cosmo_sigma_profile": { 
			"-0.025": 0.0,
			"-0.024": 0.0,
			"-0.023": 0.0,
			"-0.022": 0.0,
			"-0.021": 0.0,
			"-0.02": 0.0,
			"-0.019": 0.0,
			"-0.018": 0.0,
			"-0.017": 0.0,
			"-0.016": 0.0,
			"-0.015": 0.0361651970715,
			"-0.014": 0.916781921334,
			"-0.013": 1.92160408048,
			"-0.012": 2.00437066255,
			"-0.011": 3.03200651493,
			"-0.01": 2.82457259359,
			"-0.009": 1.89274679792,
			"-0.008": 2.94044023998,
			"-0.007": 4.44773303653,
			"-0.006": 12.0917191433,
			"-0.005": 17.5283354443,
			"-0.004": 17.7029443387,
			"-0.003": 19.7834043895,
			"-0.002": 12.5982050518,
			"-0.001": 13.2291644708,
			"0.0": 13.2105587808,
			"0.001": 15.0267703089,
			"0.002": 22.1176335828,
			"0.003": 23.6334220223,
			"0.004": 12.9927808412,
			"0.005": 9.126965551,
			"0.006": 4.32513818658,
			"0.007": 4.69717556653,
			"0.008": 3.43068864087,
			"0.009": 3.05979148762,
			"0.01": 3.0607213287,
			"0.011": 3.69645688031,
			"0.012": 5.17482567678,
			"0.013": 3.79643110503,
			"0.014": 0.0161170458931,
			"0.015": 0.0,
			"0.016": 0.0,
			"0.017": 0.0,
			"0.018": 0.0,
			"0.019": 0.0,
			"0.02": 0.0,
			"0.021": 0.0,
			"0.022": 0.0,
			"0.023": 0.0,
			"0.024": 0.0,
			"0.025": 0.0
		}
	}
}
