{
	 "smiles": "NC(=S)NNC(N)=S", 
	 "Tm": 475.15, 
	 "num_atms": 14, 
	 "gaussian": { 
		 "optdone": 1, 
		 "sigma_profile": "yes", 
		 "theory": "DFT", 
		 "functional": "B3LYP", 
		 "basiset": "6-31G**", 
		 "properties": { 
			 "R2extent": 2217.9246, 
			 "electric_dipole_moment_norm": 1.46028618086, 
			 "electric_quadrupole_moment_norm": 26.5190010992, 
			 "total_energy": -1095.21217486, 
			 "HOMO_LUMO_gap": 0.19825, 
			 "cosmo_polarized_energy": -27.03, 
			 "cosmo_cavitation_energy": 22.16, 
			 "cosmo_dispersion_energy": -17.13, 
			 "cosmo_repulsion_energy": 1.38, 
			 "cosmo_total_nonelectrostatic_energy": 6.41, 
			 "SMD_solvation_energy": 2.99 
		},
		"coords": [
			{
				"x": -0.1657649186,
				"y": 1.9617639023,
				"z": -2.0533006453,
				"element": "N" 
			},
			{
				"x": 0.1376617225,
				"y": 1.783420217,
				"z": -0.7558831176,
				"element": "C" 
			},
			{
				"x": 0.2002139595,
				"y": 2.9970512401,
				"z": 0.3915717334,
				"element": "S" 
			},
			{
				"x": 0.3729404522,
				"y": 0.4640296456,
				"z": -0.3828428081,
				"element": "N" 
			},
			{
				"x": 0.6011795593,
				"y": -0.5135556247,
				"z": -1.3448042346,
				"element": "N" 
			},
			{
				"x": -0.205261357,
				"y": -1.645253828,
				"z": -1.4096832723,
				"element": "C" 
			},
			{
				"x": -1.3589152891,
				"y": -1.5611068116,
				"z": -0.7247166815,
				"element": "N" 
			},
			{
				"x": 0.2717879308,
				"y": -2.9561174756,
				"z": -2.3303035794,
				"element": "S" 
			},
			{
				"x": -0.3764789159,
				"y": 2.8945218539,
				"z": -2.367563782,
				"element": "H" 
			},
			{
				"x": -0.1646003935,
				"y": 1.1858868963,
				"z": -2.7007904543,
				"element": "H" 
			},
			{
				"x": 0.8271773343,
				"y": 0.3624772233,
				"z": 0.5195907884,
				"element": "H" 
			},
			{
				"x": 1.5559710533,
				"y": -0.6658522944,
				"z": -1.6549805775,
				"element": "H" 
			},
			{
				"x": -1.5771238479,
				"y": -0.7461311614,
				"z": -0.1684544818,
				"element": "H" 
			},
			{
				"x": -1.99318729,
				"y": -2.3416337828,
				"z": -0.7656388877,
				"element": "H" 
			}
		],
		 "valence_orbital": [ 
			{
				"type": "occ",
				"energy": -0.30519,
				"method": "rhf"
			},
			{
				"type": "occ",
				"energy": -0.23445,
				"method": "rhf"
			},
			{
				"type": "occ",
				"energy": -0.23358,
				"method": "rhf"
			},
			{
				"type": "occ",
				"energy": -0.22876,
				"method": "rhf"
			},
			{
				"type": "occ",
				"energy": -0.22044,
				"method": "rhf"
			},
			{
				"type": "unocc",
				"energy": -0.02219,
				"method": "rhf"
			},
			{
				"type": "unocc",
				"energy": -0.02154,
				"method": "rhf"
			},
			{
				"type": "unocc",
				"energy": 0.04644,
				"method": "rhf"
			},
			{
				"type": "unocc",
				"energy": 0.0686,
				"method": "rhf"
			},
			{
				"type": "unocc",
				"energy": 0.07766,
				"method": "rhf"
			}
		],
		"cosmo_sigma_profile": { 
			"-0.025": 0.0,
			"-0.024": 0.0,
			"-0.023": 0.0,
			"-0.022": 0.0,
			"-0.021": 0.0,
			"-0.02": 0.0,
			"-0.019": 0.0,
			"-0.018": 0.0,
			"-0.017": 0.0,
			"-0.016": 0.68580328427,
			"-0.015": 4.58553061615,
			"-0.014": 6.99740177393,
			"-0.013": 6.08441575605,
			"-0.012": 6.46924928788,
			"-0.011": 6.39448655698,
			"-0.01": 5.21637604702,
			"-0.009": 4.56183347396,
			"-0.008": 6.1561656453,
			"-0.007": 5.69774947206,
			"-0.006": 5.24686569145,
			"-0.005": 6.30565568865,
			"-0.004": 4.31346015858,
			"-0.003": 4.88771564717,
			"-0.002": 4.34335003332,
			"-0.001": 3.96771294329,
			"0.0": 4.7879371105,
			"0.001": 5.0028137791,
			"0.002": 5.8126452361,
			"0.003": 7.32257746147,
			"0.004": 5.5076023727,
			"0.005": 7.03294977574,
			"0.006": 5.41908109211,
			"0.007": 6.90861518257,
			"0.008": 7.96238462475,
			"0.009": 9.18849352161,
			"0.01": 14.3184136557,
			"0.011": 14.273456669,
			"0.012": 5.44940704953,
			"0.013": 0.0547590231055,
			"0.014": 0.0,
			"0.015": 0.0,
			"0.016": 0.0,
			"0.017": 0.0,
			"0.018": 0.0,
			"0.019": 0.0,
			"0.02": 0.0,
			"0.021": 0.0,
			"0.022": 0.0,
			"0.023": 0.0,
			"0.024": 0.0,
			"0.025": 0.0
		}
	}
}
