{
	 "smiles": "COC1=C(NN=C(C#N)C2=NC3=C(C=CC=C3)C(=O)N2)C=CC=C1", 
	 "Tm": 528.15, 
	 "num_atms": 37, 
	 "gaussian": { 
		 "optdone": 1, 
		 "sigma_profile": "yes", 
		 "theory": "DFT", 
		 "functional": "B3LYP", 
		 "basiset": "6-31G**", 
		 "properties": { 
			 "R2extent": 10712.929, 
			 "electric_dipole_moment_norm": 4.66640946446, 
			 "electric_quadrupole_moment_norm": 47.8634278803, 
			 "total_energy": -1079.79581081, 
			 "HOMO_LUMO_gap": 0.13874, 
			 "cosmo_polarized_energy": -25.77, 
			 "cosmo_cavitation_energy": 44.11, 
			 "cosmo_dispersion_energy": -30.48, 
			 "cosmo_repulsion_energy": 2.33, 
			 "cosmo_total_nonelectrostatic_energy": 15.95, 
			 "SMD_solvation_energy": 8.57 
		},
		"coords": [
			{
				"x": -0.0725839584,
				"y": -1.3018816434,
				"z": 5.2079263345,
				"element": "C" 
			},
			{
				"x": -0.0253874743,
				"y": -1.3401979509,
				"z": 3.7884274371,
				"element": "O" 
			},
			{
				"x": 0.9682840574,
				"y": -2.0449484255,
				"z": 3.1913154487,
				"element": "C" 
			},
			{
				"x": 0.9589203397,
				"y": -2.0807535712,
				"z": 1.7769612269,
				"element": "C" 
			},
			{
				"x": -0.0420174371,
				"y": -1.3978639855,
				"z": 1.0385378472,
				"element": "N" 
			},
			{
				"x": -1.3283278871,
				"y": -1.6090975346,
				"z": 1.3106183664,
				"element": "N" 
			},
			{
				"x": -2.2733220301,
				"y": -1.0916056247,
				"z": 0.5774207094,
				"element": "C" 
			},
			{
				"x": -3.6130718056,
				"y": -1.4502467477,
				"z": 0.9507321314,
				"element": "C" 
			},
			{
				"x": -4.6995141011,
				"y": -1.7302829161,
				"z": 1.2567262714,
				"element": "N" 
			},
			{
				"x": -2.1337527267,
				"y": -0.1833151625,
				"z": -0.5949763737,
				"element": "C" 
			},
			{
				"x": -2.9485484701,
				"y": -0.3049895012,
				"z": -1.5928254279,
				"element": "N" 
			},
			{
				"x": -2.801677265,
				"y": 0.5721089182,
				"z": -2.6583235289,
				"element": "C" 
			},
			{
				"x": -1.8030910161,
				"y": 1.5774973735,
				"z": -2.6910832239,
				"element": "C" 
			},
			{
				"x": -1.6935758269,
				"y": 2.4364410684,
				"z": -3.7945369465,
				"element": "C" 
			},
			{
				"x": -2.5661903519,
				"y": 2.3006467638,
				"z": -4.8643548661,
				"element": "C" 
			},
			{
				"x": -3.5600928865,
				"y": 1.305651027,
				"z": -4.8382891437,
				"element": "C" 
			},
			{
				"x": -3.6804059975,
				"y": 0.4513874747,
				"z": -3.7524608735,
				"element": "C" 
			},
			{
				"x": -0.898734679,
				"y": 1.7284024988,
				"z": -1.5465232332,
				"element": "C" 
			},
			{
				"x": -0.0190673984,
				"y": 2.5653307375,
				"z": -1.4113352091,
				"element": "O" 
			},
			{
				"x": -1.1356906508,
				"y": 0.7749826753,
				"z": -0.5381149221,
				"element": "N" 
			},
			{
				"x": 1.9848668645,
				"y": -2.7269920945,
				"z": 1.0890155103,
				"element": "C" 
			},
			{
				"x": 3.0214622434,
				"y": -3.3589940557,
				"z": 1.7775203044,
				"element": "C" 
			},
			{
				"x": 3.0147282858,
				"y": -3.3540969037,
				"z": 3.169518059,
				"element": "C" 
			},
			{
				"x": 1.9966223489,
				"y": -2.7045514749,
				"z": 3.8731622495,
				"element": "C" 
			},
			{
				"x": 0.8243223606,
				"y": -0.8309520459,
				"z": 5.6300271356,
				"element": "H" 
			},
			{
				"x": -0.1888830011,
				"y": -2.3064594247,
				"z": 5.6323832841,
				"element": "H" 
			},
			{
				"x": -0.947896842,
				"y": -0.7021143447,
				"z": 5.4592694531,
				"element": "H" 
			},
			{
				"x": 0.2278777176,
				"y": -1.0869599684,
				"z": 0.1078995855,
				"element": "H" 
			},
			{
				"x": -0.9197240031,
				"y": 3.1968108089,
				"z": -3.7806549856,
				"element": "H" 
			},
			{
				"x": -2.4848046039,
				"y": 2.9623861398,
				"z": -5.7210950396,
				"element": "H" 
			},
			{
				"x": -4.2420253166,
				"y": 1.20554152,
				"z": -5.6777570877,
				"element": "H" 
			},
			{
				"x": -4.4412053638,
				"y": -0.3208240846,
				"z": -3.7137006941,
				"element": "H" 
			},
			{
				"x": -0.6039136529,
				"y": 0.9125981483,
				"z": 0.3148445147,
				"element": "H" 
			},
			{
				"x": 1.9595993229,
				"y": -2.7423685214,
				"z": 0.0022267493,
				"element": "H" 
			},
			{
				"x": 3.811760709,
				"y": -3.8594476525,
				"z": 1.2280955954,
				"element": "H" 
			},
			{
				"x": 3.8054490988,
				"y": -3.8522849155,
				"z": 3.7221435083,
				"element": "H" 
			},
			{
				"x": 2.0183113972,
				"y": -2.6982566046,
				"z": 4.9560598334,
				"element": "H" 
			}
		],
		 "valence_orbital": [ 
			{
				"type": "occ",
				"energy": -0.27398,
				"method": "rhf"
			},
			{
				"type": "occ",
				"energy": -0.26955,
				"method": "rhf"
			},
			{
				"type": "occ",
				"energy": -0.25276,
				"method": "rhf"
			},
			{
				"type": "occ",
				"energy": -0.24069,
				"method": "rhf"
			},
			{
				"type": "occ",
				"energy": -0.22063,
				"method": "rhf"
			},
			{
				"type": "unocc",
				"energy": -0.08189,
				"method": "rhf"
			},
			{
				"type": "unocc",
				"energy": -0.05148,
				"method": "rhf"
			},
			{
				"type": "unocc",
				"energy": -0.02795,
				"method": "rhf"
			},
			{
				"type": "unocc",
				"energy": -0.0131,
				"method": "rhf"
			},
			{
				"type": "unocc",
				"energy": -0.00484,
				"method": "rhf"
			}
		],
		"cosmo_sigma_profile": { 
			"-0.025": 0.0,
			"-0.024": 0.0,
			"-0.023": 0.0,
			"-0.022": 0.0,
			"-0.021": 0.0,
			"-0.02": 0.0,
			"-0.019": 0.0,
			"-0.018": 0.0,
			"-0.017": 0.0140323080986,
			"-0.016": 0.920828203386,
			"-0.015": 2.54810265926,
			"-0.014": 3.40794301071,
			"-0.013": 2.93755996569,
			"-0.012": 2.27024215464,
			"-0.011": 2.30213453043,
			"-0.01": 1.7903339213,
			"-0.009": 2.59618654589,
			"-0.008": 2.529885899,
			"-0.007": 9.91361888478,
			"-0.006": 23.5164756514,
			"-0.005": 30.1863509316,
			"-0.004": 27.0400898394,
			"-0.003": 23.4436264738,
			"-0.002": 17.0349389164,
			"-0.001": 18.2409968852,
			"0.0": 17.9975867126,
			"0.001": 22.0391703905,
			"0.002": 27.0586823122,
			"0.003": 26.2593549974,
			"0.004": 18.0661927109,
			"0.005": 14.401799537,
			"0.006": 8.48448849097,
			"0.007": 8.30877052297,
			"0.008": 8.47762492758,
			"0.009": 7.90908522554,
			"0.01": 6.42926369754,
			"0.011": 6.81014128255,
			"0.012": 9.21195745959,
			"0.013": 3.73362288062,
			"0.014": 0.0,
			"0.015": 0.0,
			"0.016": 0.0,
			"0.017": 0.0,
			"0.018": 0.0,
			"0.019": 0.0,
			"0.02": 0.0,
			"0.021": 0.0,
			"0.022": 0.0,
			"0.023": 0.0,
			"0.024": 0.0,
			"0.025": 0.0
		}
	}
}
