{
	 "smiles": "ClCC(=O)NC1=C(C(=O)NCC2=CC=CC=C2)C2=C(CCCC2)S1", 
	 "Tm": 580.15, 
	 "num_atms": 43, 
	 "gaussian": { 
		 "optdone": 1, 
		 "sigma_profile": "yes", 
		 "theory": "DFT", 
		 "functional": "B3LYP", 
		 "basiset": "6-31G**", 
		 "properties": { 
			 "R2extent": 12821.0782, 
			 "electric_dipole_moment_norm": 8.93299996362, 
			 "electric_quadrupole_moment_norm": 28.7438821513, 
			 "total_energy": -1815.73250387, 
			 "HOMO_LUMO_gap": 0.16786, 
			 "cosmo_polarized_energy": -20.08, 
			 "cosmo_cavitation_energy": 48.21, 
			 "cosmo_dispersion_energy": -34.79, 
			 "cosmo_repulsion_energy": 2.64, 
			 "cosmo_total_nonelectrostatic_energy": 16.06, 
			 "SMD_solvation_energy": 6.89 
		},
		"coords": [
			{
				"x": -5.8299138173,
				"y": 2.1565932922,
				"z": 3.1572484081,
				"element": "Cl" 
			},
			{
				"x": -4.276939845,
				"y": 1.3984695592,
				"z": 2.6942547319,
				"element": "C" 
			},
			{
				"x": -3.9033724191,
				"y": 1.6828726422,
				"z": 1.2376710411,
				"element": "C" 
			},
			{
				"x": -4.5532642346,
				"y": 2.4085293724,
				"z": 0.5119485062,
				"element": "O" 
			},
			{
				"x": -2.7566697305,
				"y": 1.070350278,
				"z": 0.7481871729,
				"element": "N" 
			},
			{
				"x": -1.812180047,
				"y": 0.2056177472,
				"z": 1.2631490006,
				"element": "C" 
			},
			{
				"x": -0.8304894635,
				"y": -0.4232534143,
				"z": 0.4968417916,
				"element": "C" 
			},
			{
				"x": -0.8192788172,
				"y": -0.2287723623,
				"z": -0.9766821416,
				"element": "C" 
			},
			{
				"x": -1.4489358966,
				"y": 0.6997637825,
				"z": -1.5170800375,
				"element": "O" 
			},
			{
				"x": -0.1251324836,
				"y": -1.1207664013,
				"z": -1.738560672,
				"element": "N" 
			},
			{
				"x": -0.0189969528,
				"y": -0.9921578362,
				"z": -3.1921241055,
				"element": "C" 
			},
			{
				"x": 1.3009419995,
				"y": -0.3972877077,
				"z": -3.6485426191,
				"element": "C" 
			},
			{
				"x": 1.5912651584,
				"y": 0.9509220713,
				"z": -3.3903482977,
				"element": "C" 
			},
			{
				"x": 2.8054810342,
				"y": 1.5013454742,
				"z": -3.7970065962,
				"element": "C" 
			},
			{
				"x": 3.7453258743,
				"y": 0.7140032557,
				"z": -4.4692392899,
				"element": "C" 
			},
			{
				"x": 3.4630663361,
				"y": -0.6260681653,
				"z": -4.7331928844,
				"element": "C" 
			},
			{
				"x": 2.2462183998,
				"y": -1.1770361841,
				"z": -4.322708681,
				"element": "C" 
			},
			{
				"x": 0.0730410306,
				"y": -1.2164351468,
				"z": 1.3134682979,
				"element": "C" 
			},
			{
				"x": -0.2507502534,
				"y": -1.2037043717,
				"z": 2.6397437245,
				"element": "C" 
			},
			{
				"x": 0.4708482666,
				"y": -1.9040727045,
				"z": 3.7587402503,
				"element": "C" 
			},
			{
				"x": 1.4564002966,
				"y": -2.9369545648,
				"z": 3.1866900261,
				"element": "C" 
			},
			{
				"x": 2.2366164112,
				"y": -2.3433518931,
				"z": 2.0083096752,
				"element": "C" 
			},
			{
				"x": 1.302131062,
				"y": -1.971189823,
				"z": 0.8435915835,
				"element": "C" 
			},
			{
				"x": -1.6530628525,
				"y": -0.2049504602,
				"z": 2.9571746697,
				"element": "S" 
			},
			{
				"x": -3.5093956019,
				"y": 1.7907654921,
				"z": 3.3657598049,
				"element": "H" 
			},
			{
				"x": -4.3684954366,
				"y": 0.3240526136,
				"z": 2.8670357731,
				"element": "H" 
			},
			{
				"x": -2.5620516497,
				"y": 1.2681032592,
				"z": -0.2449277708,
				"element": "H" 
			},
			{
				"x": 0.391328398,
				"y": -1.8597440897,
				"z": -1.2922052385,
				"element": "H" 
			},
			{
				"x": -0.8538463354,
				"y": -0.3610426246,
				"z": -3.503271277,
				"element": "H" 
			},
			{
				"x": -0.1579114354,
				"y": -1.9836746757,
				"z": -3.6358582676,
				"element": "H" 
			},
			{
				"x": 0.8554487448,
				"y": 1.5620767118,
				"z": -2.8747880476,
				"element": "H" 
			},
			{
				"x": 3.0175977264,
				"y": 2.5476772998,
				"z": -3.5958047658,
				"element": "H" 
			},
			{
				"x": 4.6896984242,
				"y": 1.1456469818,
				"z": -4.7883198961,
				"element": "H" 
			},
			{
				"x": 4.1866151099,
				"y": -1.2432872763,
				"z": -5.2583757791,
				"element": "H" 
			},
			{
				"x": 2.0280581358,
				"y": -2.2217159772,
				"z": -4.5340676635,
				"element": "H" 
			},
			{
				"x": 1.0164204571,
				"y": -1.1713099328,
				"z": 4.3708728387,
				"element": "H" 
			},
			{
				"x": -0.2427961323,
				"y": -2.3935258192,
				"z": 4.4329576235,
				"element": "H" 
			},
			{
				"x": 0.9030613246,
				"y": -3.8227497469,
				"z": 2.8489900694,
				"element": "H" 
			},
			{
				"x": 2.1403970446,
				"y": -3.2696200006,
				"z": 3.9746231958,
				"element": "H" 
			},
			{
				"x": 2.7702816295,
				"y": -1.44453797,
				"z": 2.3428615889,
				"element": "H" 
			},
			{
				"x": 2.9960013153,
				"y": -3.0483969636,
				"z": 1.6535434897,
				"element": "H" 
			},
			{
				"x": 0.9999249255,
				"y": -2.8988549611,
				"z": 0.3302296174,
				"element": "H" 
			},
			{
				"x": 1.8574142994,
				"y": -1.3714287599,
				"z": 0.1133111501,
				"element": "H" 
			}
		],
		 "valence_orbital": [ 
			{
				"type": "occ",
				"energy": -0.2651,
				"method": "rhf"
			},
			{
				"type": "occ",
				"energy": -0.26011,
				"method": "rhf"
			},
			{
				"type": "occ",
				"energy": -0.25444,
				"method": "rhf"
			},
			{
				"type": "occ",
				"energy": -0.24664,
				"method": "rhf"
			},
			{
				"type": "occ",
				"energy": -0.21135,
				"method": "rhf"
			},
			{
				"type": "unocc",
				"energy": -0.04349,
				"method": "rhf"
			},
			{
				"type": "unocc",
				"energy": -0.01,
				"method": "rhf"
			},
			{
				"type": "unocc",
				"energy": -0.00664,
				"method": "rhf"
			},
			{
				"type": "unocc",
				"energy": -0.00496,
				"method": "rhf"
			},
			{
				"type": "unocc",
				"energy": 0.00437,
				"method": "rhf"
			}
		],
		"cosmo_sigma_profile": { 
			"-0.025": 0.0,
			"-0.024": 0.0,
			"-0.023": 0.0,
			"-0.022": 0.0,
			"-0.021": 0.0,
			"-0.02": 0.0,
			"-0.019": 0.0,
			"-0.018": 0.0,
			"-0.017": 0.0,
			"-0.016": 0.0,
			"-0.015": 0.0,
			"-0.014": 0.0,
			"-0.013": 0.456248494558,
			"-0.012": 0.963452651892,
			"-0.011": 1.03538633819,
			"-0.01": 2.44411011041,
			"-0.009": 5.95173551716,
			"-0.008": 5.72737484024,
			"-0.007": 4.46955043342,
			"-0.006": 12.1769719939,
			"-0.005": 20.051021895,
			"-0.004": 29.3565635869,
			"-0.003": 39.2464062683,
			"-0.002": 39.0712764269,
			"-0.001": 37.7593029855,
			"0.0": 32.0215249466,
			"0.001": 26.895998067,
			"0.002": 24.1846709684,
			"0.003": 25.024914248,
			"0.004": 16.8823734781,
			"0.005": 17.9240740778,
			"0.006": 14.8448560679,
			"0.007": 4.03017144455,
			"0.008": 3.93631720547,
			"0.009": 3.19582067113,
			"0.01": 3.25339111272,
			"0.011": 4.96862552286,
			"0.012": 6.81210176558,
			"0.013": 3.4536421395,
			"0.014": 0.375617532952,
			"0.015": 0.0,
			"0.016": 0.0,
			"0.017": 0.0,
			"0.018": 0.0,
			"0.019": 0.0,
			"0.02": 0.0,
			"0.021": 0.0,
			"0.022": 0.0,
			"0.023": 0.0,
			"0.024": 0.0,
			"0.025": 0.0
		}
	}
}
