{
	 "smiles": "CC(C)(C)C1=NN=C(NS(=O)(=O)C2=CC=CC=C2)S1", 
	 "Tm": 436.15, 
	 "num_atms": 34, 
	 "gaussian": { 
		 "optdone": 1, 
		 "sigma_profile": "yes", 
		 "theory": "DFT", 
		 "functional": "B3LYP", 
		 "basiset": "6-31G**", 
		 "properties": { 
			 "R2extent": 8169.1659, 
			 "electric_dipole_moment_norm": 4.41370454267, 
			 "electric_quadrupole_moment_norm": 32.352807938, 
			 "total_energy": -1577.30220856, 
			 "HOMO_LUMO_gap": 0.18888, 
			 "cosmo_polarized_energy": -17.51, 
			 "cosmo_cavitation_energy": 40.34, 
			 "cosmo_dispersion_energy": -29.24, 
			 "cosmo_repulsion_energy": 2.16, 
			 "cosmo_total_nonelectrostatic_energy": 13.26, 
			 "SMD_solvation_energy": 4.4 
		},
		"coords": [
			{
				"x": 4.4282107462,
				"y": -2.2852687981,
				"z": -0.8848023928,
				"element": "C" 
			},
			{
				"x": 3.8222795389,
				"y": -2.3815906886,
				"z": 0.5359933634,
				"element": "C" 
			},
			{
				"x": 3.2460717299,
				"y": -3.7980687007,
				"z": 0.7568899171,
				"element": "C" 
			},
			{
				"x": 4.9174615386,
				"y": -2.1004652264,
				"z": 1.5824844413,
				"element": "C" 
			},
			{
				"x": 2.7208149088,
				"y": -1.345489742,
				"z": 0.6778137553,
				"element": "C" 
			},
			{
				"x": 2.8051955462,
				"y": -0.2797044287,
				"z": 1.4158254703,
				"element": "N" 
			},
			{
				"x": 1.7132038375,
				"y": 0.5443091682,
				"z": 1.3350269973,
				"element": "N" 
			},
			{
				"x": 0.8001211266,
				"y": 0.0788500853,
				"z": 0.5285691768,
				"element": "C" 
			},
			{
				"x": -0.438989138,
				"y": 0.721306191,
				"z": 0.4275556033,
				"element": "N" 
			},
			{
				"x": -1.2131003775,
				"y": 0.9529889852,
				"z": -1.0961404962,
				"element": "S" 
			},
			{
				"x": -1.0927908402,
				"y": -0.3351455385,
				"z": -1.7800927272,
				"element": "O" 
			},
			{
				"x": -0.7508209909,
				"y": 2.1928012059,
				"z": -1.722918,
				"element": "O" 
			},
			{
				"x": -2.8952540126,
				"y": 1.199021469,
				"z": -0.5399275726,
				"element": "C" 
			},
			{
				"x": -3.4544953132,
				"y": 2.4745138924,
				"z": -0.6250206908,
				"element": "C" 
			},
			{
				"x": -4.7749242253,
				"y": 2.6561158795,
				"z": -0.2095364155,
				"element": "C" 
			},
			{
				"x": -5.5113465684,
				"y": 1.5738914078,
				"z": 0.2751598922,
				"element": "C" 
			},
			{
				"x": -4.937720778,
				"y": 0.3002835515,
				"z": 0.345222266,
				"element": "C" 
			},
			{
				"x": -3.6214499518,
				"y": 0.1029149889,
				"z": -0.0660132841,
				"element": "C" 
			},
			{
				"x": 1.1988086097,
				"y": -1.4455059556,
				"z": -0.2285964511,
				"element": "S" 
			},
			{
				"x": 3.6807314243,
				"y": -2.4901429015,
				"z": -1.6579062625,
				"element": "H" 
			},
			{
				"x": 4.8408608839,
				"y": -1.2884398318,
				"z": -1.0670221419,
				"element": "H" 
			},
			{
				"x": 5.2364638405,
				"y": -3.0161395363,
				"z": -0.9949349469,
				"element": "H" 
			},
			{
				"x": 2.4823356038,
				"y": -4.0481036254,
				"z": 0.012633924,
				"element": "H" 
			},
			{
				"x": 4.0453922236,
				"y": -4.5417843773,
				"z": 0.6738532758,
				"element": "H" 
			},
			{
				"x": 2.7958978848,
				"y": -3.891409537,
				"z": 1.7501260322,
				"element": "H" 
			},
			{
				"x": 4.5186120346,
				"y": -2.1600694027,
				"z": 2.5985790204,
				"element": "H" 
			},
			{
				"x": 5.3420981487,
				"y": -1.1027289807,
				"z": 1.4528420673,
				"element": "H" 
			},
			{
				"x": 5.7177323947,
				"y": -2.84058734,
				"z": 1.478071213,
				"element": "H" 
			},
			{
				"x": -0.4155213134,
				"y": 1.5869872462,
				"z": 0.9663649542,
				"element": "H" 
			},
			{
				"x": -2.8650911447,
				"y": 3.296016142,
				"z": -1.0168261366,
				"element": "H" 
			},
			{
				"x": -5.2266028609,
				"y": 3.6413985347,
				"z": -0.2692437778,
				"element": "H" 
			},
			{
				"x": -6.5383369454,
				"y": 1.720478863,
				"z": 0.596252721,
				"element": "H" 
			},
			{
				"x": -5.517320064,
				"y": -0.5391004814,
				"z": 0.7165201122,
				"element": "H" 
			},
			{
				"x": -3.1633274972,
				"y": -0.879332518,
				"z": -0.0280029071,
				"element": "H" 
			}
		],
		 "valence_orbital": [ 
			{
				"type": "occ",
				"energy": -0.28603,
				"method": "rhf"
			},
			{
				"type": "occ",
				"energy": -0.28547,
				"method": "rhf"
			},
			{
				"type": "occ",
				"energy": -0.28202,
				"method": "rhf"
			},
			{
				"type": "occ",
				"energy": -0.25992,
				"method": "rhf"
			},
			{
				"type": "occ",
				"energy": -0.24314,
				"method": "rhf"
			},
			{
				"type": "unocc",
				"energy": -0.05426,
				"method": "rhf"
			},
			{
				"type": "unocc",
				"energy": -0.03276,
				"method": "rhf"
			},
			{
				"type": "unocc",
				"energy": -0.02667,
				"method": "rhf"
			},
			{
				"type": "unocc",
				"energy": 0.01108,
				"method": "rhf"
			},
			{
				"type": "unocc",
				"energy": 0.03078,
				"method": "rhf"
			}
		],
		"cosmo_sigma_profile": { 
			"-0.025": 0.0,
			"-0.024": 0.0,
			"-0.023": 0.0,
			"-0.022": 0.0,
			"-0.021": 0.0,
			"-0.02": 0.0,
			"-0.019": 0.0,
			"-0.018": 0.00305779541854,
			"-0.017": 0.553973449971,
			"-0.016": 0.914504116341,
			"-0.015": 0.949052277578,
			"-0.014": 1.02450563482,
			"-0.013": 0.710128260126,
			"-0.012": 0.791972396013,
			"-0.011": 0.755048332648,
			"-0.01": 1.19830077748,
			"-0.009": 0.642445157817,
			"-0.008": 2.63264777454,
			"-0.007": 10.8328875607,
			"-0.006": 13.0241791608,
			"-0.005": 13.6156302168,
			"-0.004": 21.2784905385,
			"-0.003": 29.8818087668,
			"-0.002": 29.7254227944,
			"-0.001": 32.2609871501,
			"0.0": 37.7548285515,
			"0.001": 27.9707457653,
			"0.002": 21.4058920499,
			"0.003": 14.9581018612,
			"0.004": 6.72631319231,
			"0.005": 5.5518282502,
			"0.006": 4.50319312701,
			"0.007": 6.20117768845,
			"0.008": 5.34063195693,
			"0.009": 9.41191435786,
			"0.01": 9.90343451034,
			"0.011": 4.49601077711,
			"0.012": 3.35396968829,
			"0.013": 2.2030094742,
			"0.014": 1.47651011092,
			"0.015": 0.001099715548,
			"0.016": 0.0,
			"0.017": 0.0,
			"0.018": 0.0,
			"0.019": 0.0,
			"0.02": 0.0,
			"0.021": 0.0,
			"0.022": 0.0,
			"0.023": 0.0,
			"0.024": 0.0,
			"0.025": 0.0
		}
	}
}
