{
	 "smiles": "OC(=O)C1=CC(F)=C(F)C(F)=C1", 
	 "Tm": 371.15, 
	 "num_atms": 15, 
	 "gaussian": { 
		 "optdone": 1, 
		 "sigma_profile": "yes", 
		 "theory": "DFT", 
		 "functional": "B3LYP", 
		 "basiset": "6-31G**", 
		 "properties": { 
			 "R2extent": 3230.4311, 
			 "electric_dipole_moment_norm": 2.78563425094, 
			 "electric_quadrupole_moment_norm": 16.9877109473, 
			 "total_energy": -718.491770926, 
			 "HOMO_LUMO_gap": 0.20674, 
			 "cosmo_polarized_energy": -12.88, 
			 "cosmo_cavitation_energy": 22.07, 
			 "cosmo_dispersion_energy": -15.84, 
			 "cosmo_repulsion_energy": 1.19, 
			 "cosmo_total_nonelectrostatic_energy": 7.42, 
			 "SMD_solvation_energy": 6.57 
		},
		"coords": [
			{
				"x": -2.1860677996,
				"y": -2.5910832876,
				"z": -1.9931597202,
				"element": "O" 
			},
			{
				"x": -1.4468595418,
				"y": -1.4557817538,
				"z": -2.0879126134,
				"element": "C" 
			},
			{
				"x": -1.8616825434,
				"y": -0.5086619028,
				"z": -2.7108741839,
				"element": "O" 
			},
			{
				"x": -0.1170826369,
				"y": -1.4537245438,
				"z": -1.3899909836,
				"element": "C" 
			},
			{
				"x": 0.4555420199,
				"y": -0.2059886479,
				"z": -1.113700684,
				"element": "C" 
			},
			{
				"x": 1.6850926546,
				"y": -0.1480967459,
				"z": -0.4775088185,
				"element": "C" 
			},
			{
				"x": 2.2507276129,
				"y": 1.0298495496,
				"z": -0.1866103477,
				"element": "F" 
			},
			{
				"x": 2.3691126701,
				"y": -1.3125886117,
				"z": -0.1236442934,
				"element": "C" 
			},
			{
				"x": 3.5545376649,
				"y": -1.2452580095,
				"z": 0.4845893259,
				"element": "F" 
			},
			{
				"x": 1.7975821683,
				"y": -2.5479928942,
				"z": -0.4230841086,
				"element": "C" 
			},
			{
				"x": 2.472039867,
				"y": -3.6593980409,
				"z": -0.0989916085,
				"element": "F" 
			},
			{
				"x": 0.5622789217,
				"y": -2.6325636345,
				"z": -1.0513196663,
				"element": "C" 
			},
			{
				"x": -1.8197523917,
				"y": -3.1816069917,
				"z": -1.3205717521,
				"element": "H" 
			},
			{
				"x": -0.0602240101,
				"y": 0.7035742585,
				"z": -1.3972026707,
				"element": "H" 
			},
			{
				"x": 0.187255344,
				"y": -3.6197787438,
				"z": -1.3005178749,
				"element": "H" 
			}
		],
		 "valence_orbital": [ 
			{
				"type": "occ",
				"energy": -0.37897,
				"method": "rhf"
			},
			{
				"type": "occ",
				"energy": -0.33078,
				"method": "rhf"
			},
			{
				"type": "occ",
				"energy": -0.29203,
				"method": "rhf"
			},
			{
				"type": "occ",
				"energy": -0.28187,
				"method": "rhf"
			},
			{
				"type": "occ",
				"energy": -0.2753,
				"method": "rhf"
			},
			{
				"type": "unocc",
				"energy": -0.06856,
				"method": "rhf"
			},
			{
				"type": "unocc",
				"energy": -0.03572,
				"method": "rhf"
			},
			{
				"type": "unocc",
				"energy": 0.02616,
				"method": "rhf"
			},
			{
				"type": "unocc",
				"energy": 0.03728,
				"method": "rhf"
			},
			{
				"type": "unocc",
				"energy": 0.0619,
				"method": "rhf"
			}
		],
		"cosmo_sigma_profile": { 
			"-0.025": 0.0,
			"-0.024": 0.0,
			"-0.023": 0.0,
			"-0.022": 0.0,
			"-0.021": 0.0,
			"-0.02": 0.0663566179436,
			"-0.019": 1.11612338597,
			"-0.018": 1.14365071931,
			"-0.017": 0.721941379461,
			"-0.016": 0.93451197084,
			"-0.015": 1.05161753292,
			"-0.014": 1.02729580732,
			"-0.013": 2.07072099937,
			"-0.012": 0.943076295201,
			"-0.011": 1.06621257603,
			"-0.01": 1.44621151158,
			"-0.009": 1.85850613085,
			"-0.008": 2.92084562699,
			"-0.007": 3.19592947997,
			"-0.006": 3.29677127165,
			"-0.005": 3.82873595803,
			"-0.004": 8.6630981245,
			"-0.003": 15.6517004552,
			"-0.002": 15.8259358008,
			"-0.001": 14.5128880348,
			"0.0": 10.9078960279,
			"0.001": 9.26425497145,
			"0.002": 19.8948945356,
			"0.003": 27.1357390532,
			"0.004": 2.46029063941,
			"0.005": 2.38429265617,
			"0.006": 2.17054199359,
			"0.007": 2.51972230263,
			"0.008": 2.8656654386,
			"0.009": 3.87622043136,
			"0.01": 5.20834865639,
			"0.011": 5.45813902778,
			"0.012": 2.71394736327,
			"0.013": 0.432296723889,
			"0.014": 0.0,
			"0.015": 0.0,
			"0.016": 0.0,
			"0.017": 0.0,
			"0.018": 0.0,
			"0.019": 0.0,
			"0.02": 0.0,
			"0.021": 0.0,
			"0.022": 0.0,
			"0.023": 0.0,
			"0.024": 0.0,
			"0.025": 0.0
		}
	}
}
