{
	 "smiles": "O=C1C(=O)C(NC2=CC=CC=C2)=C1NC1=CC=CC=C1", 
	 "Tm": 543.15, 
	 "num_atms": 32, 
	 "gaussian": { 
		 "optdone": 1, 
		 "sigma_profile": "yes", 
		 "theory": "DFT", 
		 "functional": "B3LYP", 
		 "basiset": "6-31G**", 
		 "properties": { 
			 "R2extent": 6718.4819, 
			 "electric_dipole_moment_norm": 7.52206910231, 
			 "electric_quadrupole_moment_norm": 25.365956652, 
			 "total_energy": -876.851472774, 
			 "HOMO_LUMO_gap": 0.15273, 
			 "cosmo_polarized_energy": -20.92, 
			 "cosmo_cavitation_energy": 37.43, 
			 "cosmo_dispersion_energy": -26.34, 
			 "cosmo_repulsion_energy": 2.0, 
			 "cosmo_total_nonelectrostatic_energy": 13.09, 
			 "SMD_solvation_energy": 7.36 
		},
		"coords": [
			{
				"x": 1.2522787909,
				"y": 2.9911389498,
				"z": 3.5344283829,
				"element": "O" 
			},
			{
				"x": 1.0197294226,
				"y": 2.1556115174,
				"z": 2.6858553421,
				"element": "C" 
			},
			{
				"x": 1.3401673687,
				"y": 0.6773988323,
				"z": 2.4062152606,
				"element": "C" 
			},
			{
				"x": 1.9186016552,
				"y": -0.2179746871,
				"z": 2.9820527592,
				"element": "O" 
			},
			{
				"x": 0.6056689307,
				"y": 0.8471880265,
				"z": 1.0983074214,
				"element": "C" 
			},
			{
				"x": 0.3465046301,
				"y": 0.1045762576,
				"z": -0.0052003094,
				"element": "N" 
			},
			{
				"x": 0.6280285898,
				"y": -1.249680854,
				"z": -0.2940854228,
				"element": "C" 
			},
			{
				"x": 0.2361762743,
				"y": -1.722295325,
				"z": -1.5568746199,
				"element": "C" 
			},
			{
				"x": 0.4762623688,
				"y": -3.0458283533,
				"z": -1.9155337908,
				"element": "C" 
			},
			{
				"x": 1.1083294708,
				"y": -3.9133805905,
				"z": -1.0229113449,
				"element": "C" 
			},
			{
				"x": 1.4960814701,
				"y": -3.4364080325,
				"z": 0.2304330156,
				"element": "C" 
			},
			{
				"x": 1.2631762903,
				"y": -2.1138314242,
				"z": 0.6077184272,
				"element": "C" 
			},
			{
				"x": 0.2934855953,
				"y": 2.1794887704,
				"z": 1.4031502805,
				"element": "C" 
			},
			{
				"x": -0.3309617586,
				"y": 3.2355783437,
				"z": 0.8315306294,
				"element": "N" 
			},
			{
				"x": -1.2070201665,
				"y": 3.2417685499,
				"z": -0.2728476768,
				"element": "C" 
			},
			{
				"x": -1.2481654045,
				"y": 4.3702792495,
				"z": -1.1053233809,
				"element": "C" 
			},
			{
				"x": -2.1158906254,
				"y": 4.4018376578,
				"z": -2.1939082235,
				"element": "C" 
			},
			{
				"x": -2.9403879648,
				"y": 3.3092286006,
				"z": -2.477313038,
				"element": "C" 
			},
			{
				"x": -2.9072342701,
				"y": 2.1917212603,
				"z": -1.6428269706,
				"element": "C" 
			},
			{
				"x": -2.0588770413,
				"y": 2.1564941553,
				"z": -0.5339994606,
				"element": "C" 
			},
			{
				"x": -0.1273038845,
				"y": 0.5976594255,
				"z": -0.7514732497,
				"element": "H" 
			},
			{
				"x": -0.2564506631,
				"y": -1.0504727325,
				"z": -2.2565342059,
				"element": "H" 
			},
			{
				"x": 0.1675547517,
				"y": -3.3965163146,
				"z": -2.8960482153,
				"element": "H" 
			},
			{
				"x": 1.2962761197,
				"y": -4.9457072703,
				"z": -1.3009367426,
				"element": "H" 
			},
			{
				"x": 1.9904125255,
				"y": -4.100014069,
				"z": 0.9340640666,
				"element": "H" 
			},
			{
				"x": 1.5778380305,
				"y": -1.7572715193,
				"z": 1.5824812316,
				"element": "H" 
			},
			{
				"x": -0.1664669385,
				"y": 4.11784747,
				"z": 1.3023139695,
				"element": "H" 
			},
			{
				"x": -0.5894088684,
				"y": 5.2100251599,
				"z": -0.901856127,
				"element": "H" 
			},
			{
				"x": -2.1384467005,
				"y": 5.2806538482,
				"z": -2.8314733946,
				"element": "H" 
			},
			{
				"x": -3.6086443437,
				"y": 3.3350210936,
				"z": -3.3320605105,
				"element": "H" 
			},
			{
				"x": -3.563770644,
				"y": 1.3481286302,
				"z": -1.83504018,
				"element": "H" 
			},
			{
				"x": -2.091043011,
				"y": 1.3167353739,
				"z": 0.1522960773,
				"element": "H" 
			}
		],
		 "valence_orbital": [ 
			{
				"type": "occ",
				"energy": -0.27802,
				"method": "rhf"
			},
			{
				"type": "occ",
				"energy": -0.25548,
				"method": "rhf"
			},
			{
				"type": "occ",
				"energy": -0.24781,
				"method": "rhf"
			},
			{
				"type": "occ",
				"energy": -0.2284,
				"method": "rhf"
			},
			{
				"type": "occ",
				"energy": -0.20113,
				"method": "rhf"
			},
			{
				"type": "unocc",
				"energy": -0.0484,
				"method": "rhf"
			},
			{
				"type": "unocc",
				"energy": -0.03803,
				"method": "rhf"
			},
			{
				"type": "unocc",
				"energy": -0.03097,
				"method": "rhf"
			},
			{
				"type": "unocc",
				"energy": -0.00709,
				"method": "rhf"
			},
			{
				"type": "unocc",
				"energy": -0.00426,
				"method": "rhf"
			}
		],
		"cosmo_sigma_profile": { 
			"-0.025": 0.0,
			"-0.024": 0.0,
			"-0.023": 0.0,
			"-0.022": 0.0,
			"-0.021": 0.0,
			"-0.02": 0.0,
			"-0.019": 0.0,
			"-0.018": 0.0,
			"-0.017": 0.0,
			"-0.016": 0.482151597711,
			"-0.015": 0.772363421441,
			"-0.014": 1.06346785892,
			"-0.013": 1.46115840043,
			"-0.012": 1.6444883852,
			"-0.011": 3.56090803192,
			"-0.01": 2.34115326049,
			"-0.009": 2.68935337953,
			"-0.008": 3.80355387465,
			"-0.007": 6.46608886153,
			"-0.006": 17.7511358403,
			"-0.005": 22.3893150302,
			"-0.004": 24.072616766,
			"-0.003": 22.8805800665,
			"-0.002": 21.7891723505,
			"-0.001": 16.7683525418,
			"0.0": 18.1808216471,
			"0.001": 17.6434189805,
			"0.002": 18.0497973256,
			"0.003": 19.734150633,
			"0.004": 19.4655723069,
			"0.005": 18.1824488101,
			"0.006": 7.74259576384,
			"0.007": 2.98609797979,
			"0.008": 3.04602399103,
			"0.009": 3.88177223256,
			"0.01": 4.38583760114,
			"0.011": 6.17619225291,
			"0.012": 8.83444770844,
			"0.013": 3.43512115726,
			"0.014": 0.241661013569,
			"0.015": 0.0,
			"0.016": 0.0,
			"0.017": 0.0,
			"0.018": 0.0,
			"0.019": 0.0,
			"0.02": 0.0,
			"0.021": 0.0,
			"0.022": 0.0,
			"0.023": 0.0,
			"0.024": 0.0,
			"0.025": 0.0
		}
	}
}
