{
	 "smiles": "CC(C(O)=O)C1=CC=C(CBr)C=C1", 
	 "Tm": 399.15, 
	 "num_atms": 24, 
	 "gaussian": { 
		 "optdone": 1, 
		 "sigma_profile": "yes", 
		 "theory": "DFT", 
		 "functional": "B3LYP", 
		 "basiset": "6-31G**", 
		 "properties": { 
			 "R2extent": 6001.3169, 
			 "electric_dipole_moment_norm": 3.0956808831, 
			 "electric_quadrupole_moment_norm": 22.7200384692, 
			 "total_energy": -3109.56711669, 
			 "HOMO_LUMO_gap": 0.20205, 
			 "cosmo_polarized_energy": -15.83, 
			 "cosmo_cavitation_energy": 30.29, 
			 "cosmo_dispersion_energy": -21.56, 
			 "cosmo_repulsion_energy": 1.74, 
			 "cosmo_total_nonelectrostatic_energy": 10.47, 
			 "SMD_solvation_energy": 5.02 
		},
		"coords": [
			{
				"x": -0.2512385362,
				"y": -0.9622528119,
				"z": 3.3818688403,
				"element": "C" 
			},
			{
				"x": 0.3735242128,
				"y": -0.1109874454,
				"z": 2.2673485649,
				"element": "C" 
			},
			{
				"x": 1.9062575096,
				"y": -0.0502840813,
				"z": 2.424418539,
				"element": "C" 
			},
			{
				"x": 2.581248704,
				"y": 0.47472405,
				"z": 1.3714149078,
				"element": "O" 
			},
			{
				"x": 2.4967411386,
				"y": -0.3929332901,
				"z": 3.4180161992,
				"element": "O" 
			},
			{
				"x": -0.0428200824,
				"y": -0.54756484,
				"z": 0.8693665918,
				"element": "C" 
			},
			{
				"x": 0.2998277357,
				"y": -1.8197806466,
				"z": 0.3807152864,
				"element": "C" 
			},
			{
				"x": -0.0866381903,
				"y": -2.2218228433,
				"z": -0.8934254718,
				"element": "C" 
			},
			{
				"x": -0.8254747936,
				"y": -1.365668482,
				"z": -1.7241785554,
				"element": "C" 
			},
			{
				"x": -1.2287811736,
				"y": -1.7957422477,
				"z": -3.096951705,
				"element": "C" 
			},
			{
				"x": -2.9991332433,
				"y": -2.7382201615,
				"z": -3.103399682,
				"element": "Br" 
			},
			{
				"x": -1.1655999343,
				"y": -0.0964931179,
				"z": -1.2427826853,
				"element": "C" 
			},
			{
				"x": -0.7774814536,
				"y": 0.3063293105,
				"z": 0.035318657,
				"element": "C" 
			},
			{
				"x": 0.0778099265,
				"y": -0.6027859701,
				"z": 4.3586355737,
				"element": "H" 
			},
			{
				"x": -1.3421293702,
				"y": -0.9151106231,
				"z": 3.3280550886,
				"element": "H" 
			},
			{
				"x": 0.0530604481,
				"y": -2.0088106944,
				"z": 3.2954279585,
				"element": "H" 
			},
			{
				"x": 0.0385806655,
				"y": 0.9282785336,
				"z": 2.3994534169,
				"element": "H" 
			},
			{
				"x": 1.9684772463,
				"y": 0.6217662331,
				"z": 0.6340337061,
				"element": "H" 
			},
			{
				"x": 0.8786198821,
				"y": -2.4978809203,
				"z": 1.0021760573,
				"element": "H" 
			},
			{
				"x": 0.1851783957,
				"y": -3.2114810885,
				"z": -1.2507729935,
				"element": "H" 
			},
			{
				"x": -0.5399442034,
				"y": -2.5178353145,
				"z": -3.5314918771,
				"element": "H" 
			},
			{
				"x": -1.3682699547,
				"y": -0.9572775185,
				"z": -3.7767536677,
				"element": "H" 
			},
			{
				"x": -1.7425248962,
				"y": 0.5794181212,
				"z": -1.8683720357,
				"element": "H" 
			},
			{
				"x": -1.057790033,
				"y": 1.2942158486,
				"z": 0.392879286,
				"element": "H" 
			}
		],
		 "valence_orbital": [ 
			{
				"type": "occ",
				"energy": -0.28541,
				"method": "rhf"
			},
			{
				"type": "occ",
				"energy": -0.28025,
				"method": "rhf"
			},
			{
				"type": "occ",
				"energy": -0.27632,
				"method": "rhf"
			},
			{
				"type": "occ",
				"energy": -0.2729,
				"method": "rhf"
			},
			{
				"type": "occ",
				"energy": -0.25491,
				"method": "rhf"
			},
			{
				"type": "unocc",
				"energy": -0.05286,
				"method": "rhf"
			},
			{
				"type": "unocc",
				"energy": -0.0289,
				"method": "rhf"
			},
			{
				"type": "unocc",
				"energy": 0.00666,
				"method": "rhf"
			},
			{
				"type": "unocc",
				"energy": 0.01501,
				"method": "rhf"
			},
			{
				"type": "unocc",
				"energy": 0.07457,
				"method": "rhf"
			}
		],
		"cosmo_sigma_profile": { 
			"-0.025": 0.0,
			"-0.024": 0.0,
			"-0.023": 0.0,
			"-0.022": 0.0,
			"-0.021": 0.0,
			"-0.02": 0.0,
			"-0.019": 0.0,
			"-0.018": 0.0,
			"-0.017": 0.0,
			"-0.016": 0.0,
			"-0.015": 0.398802627283,
			"-0.014": 0.735609511499,
			"-0.013": 0.569698859225,
			"-0.012": 1.36516272124,
			"-0.011": 1.75035482116,
			"-0.01": 1.06848456183,
			"-0.009": 1.34344717554,
			"-0.008": 5.72530230602,
			"-0.007": 14.5395146351,
			"-0.006": 16.9097798097,
			"-0.005": 15.6276907539,
			"-0.004": 15.5893009452,
			"-0.003": 15.6891732453,
			"-0.002": 14.5442057752,
			"-0.001": 14.2295205786,
			"0.0": 16.4852444236,
			"0.001": 13.8700400389,
			"0.002": 12.1085553296,
			"0.003": 12.3491204739,
			"0.004": 13.1367632002,
			"0.005": 11.615626218,
			"0.006": 13.2356809276,
			"0.007": 6.73371949003,
			"0.008": 3.13456885154,
			"0.009": 3.14444918483,
			"0.01": 5.18487183419,
			"0.011": 5.1099536205,
			"0.012": 5.33978661996,
			"0.013": 1.52764559991,
			"0.014": 0.00592498453417,
			"0.015": 0.0,
			"0.016": 0.0,
			"0.017": 0.0,
			"0.018": 0.0,
			"0.019": 0.0,
			"0.02": 0.0,
			"0.021": 0.0,
			"0.022": 0.0,
			"0.023": 0.0,
			"0.024": 0.0,
			"0.025": 0.0
		}
	}
}
