{
	 "smiles": "COC1=CC2=NOC(C3=CC=C(C)O3)=C2C=C1OC", 
	 "Tm": 419.15, 
	 "num_atms": 32, 
	 "gaussian": { 
		 "optdone": 1, 
		 "sigma_profile": "yes", 
		 "theory": "DFT", 
		 "functional": "B3LYP", 
		 "basiset": "6-31G**", 
		 "properties": { 
			 "R2extent": 6830.1565, 
			 "electric_dipole_moment_norm": 2.7787572726, 
			 "electric_quadrupole_moment_norm": 29.8819170412, 
			 "total_energy": -896.869655792, 
			 "HOMO_LUMO_gap": 0.1316, 
			 "cosmo_polarized_energy": -14.65, 
			 "cosmo_cavitation_energy": 36.92, 
			 "cosmo_dispersion_energy": -26.75, 
			 "cosmo_repulsion_energy": 2.05, 
			 "cosmo_total_nonelectrostatic_energy": 12.21, 
			 "SMD_solvation_energy": 8.0 
		},
		"coords": [
			{
				"x": -4.1380691776,
				"y": -1.9370988405,
				"z": 1.0755771629,
				"element": "C" 
			},
			{
				"x": -2.9262166786,
				"y": -1.6115055491,
				"z": 1.7430933199,
				"element": "O" 
			},
			{
				"x": -1.9417557048,
				"y": -1.017856763,
				"z": 1.0180408689,
				"element": "C" 
			},
			{
				"x": -2.038304885,
				"y": -0.6848499543,
				"z": -0.310819154,
				"element": "C" 
			},
			{
				"x": -0.8998394649,
				"y": -0.0911746013,
				"z": -0.9336497416,
				"element": "C" 
			},
			{
				"x": -0.799690041,
				"y": 0.2980816368,
				"z": -2.2001511086,
				"element": "N" 
			},
			{
				"x": 0.5026470688,
				"y": 0.8006701874,
				"z": -2.308627604,
				"element": "O" 
			},
			{
				"x": 1.1559545386,
				"y": 0.7089012275,
				"z": -1.1326137389,
				"element": "C" 
			},
			{
				"x": 2.5102669019,
				"y": 1.1792690275,
				"z": -1.0742147598,
				"element": "C" 
			},
			{
				"x": 3.4556337596,
				"y": 1.1831283702,
				"z": -0.0769102433,
				"element": "C" 
			},
			{
				"x": 4.62004064,
				"y": 1.7912926418,
				"z": -0.6306612715,
				"element": "C" 
			},
			{
				"x": 4.318025346,
				"y": 2.1190661051,
				"z": -1.9243632654,
				"element": "C" 
			},
			{
				"x": 5.0815173611,
				"y": 2.7654930993,
				"z": -3.0247930158,
				"element": "C" 
			},
			{
				"x": 3.0344522357,
				"y": 1.7506310703,
				"z": -2.2048864907,
				"element": "O" 
			},
			{
				"x": 0.3068798107,
				"y": 0.1408165496,
				"z": -0.191950555,
				"element": "C" 
			},
			{
				"x": 0.3723109615,
				"y": -0.198865904,
				"z": 1.186146612,
				"element": "C" 
			},
			{
				"x": -0.7250266122,
				"y": -0.7622933789,
				"z": 1.7793463525,
				"element": "C" 
			},
			{
				"x": -0.6519945925,
				"y": -1.1599695099,
				"z": 3.089312358,
				"element": "O" 
			},
			{
				"x": -1.4141213384,
				"y": -0.3858418195,
				"z": 4.02046591,
				"element": "C" 
			},
			{
				"x": -4.6370518109,
				"y": -1.0391804587,
				"z": 0.6902234726,
				"element": "H" 
			},
			{
				"x": -3.959720795,
				"y": -2.6328721462,
				"z": 0.2467636262,
				"element": "H" 
			},
			{
				"x": -4.7735101731,
				"y": -2.4149650912,
				"z": 1.8221054402,
				"element": "H" 
			},
			{
				"x": -2.9307355748,
				"y": -0.8650338284,
				"z": -0.8952017076,
				"element": "H" 
			},
			{
				"x": 3.3369001324,
				"y": 0.7939188081,
				"z": 0.9232700017,
				"element": "H" 
			},
			{
				"x": 5.5643639493,
				"y": 1.9630024221,
				"z": -0.1343814588,
				"element": "H" 
			},
			{
				"x": 6.0887757256,
				"y": 3.0135806572,
				"z": -2.683142757,
				"element": "H" 
			},
			{
				"x": 4.5929896174,
				"y": 3.6873074952,
				"z": -3.3604695322,
				"element": "H" 
			},
			{
				"x": 5.1641302127,
				"y": 2.1033933272,
				"z": -3.8941808875,
				"element": "H" 
			},
			{
				"x": 1.2598819126,
				"y": -0.0371884835,
				"z": 1.7869048308,
				"element": "H" 
			},
			{
				"x": -2.4851646265,
				"y": -0.4373446677,
				"z": 3.8042478953,
				"element": "H" 
			},
			{
				"x": -1.2204205925,
				"y": -0.8183620776,
				"z": 5.0040715035,
				"element": "H" 
			},
			{
				"x": -1.0872481061,
				"y": 0.6621504483,
				"z": 4.0147479374,
				"element": "H" 
			}
		],
		 "valence_orbital": [ 
			{
				"type": "occ",
				"energy": -0.28423,
				"method": "rhf"
			},
			{
				"type": "occ",
				"energy": -0.27655,
				"method": "rhf"
			},
			{
				"type": "occ",
				"energy": -0.24693,
				"method": "rhf"
			},
			{
				"type": "occ",
				"energy": -0.23115,
				"method": "rhf"
			},
			{
				"type": "occ",
				"energy": -0.19104,
				"method": "rhf"
			},
			{
				"type": "unocc",
				"energy": -0.05944,
				"method": "rhf"
			},
			{
				"type": "unocc",
				"energy": 0.00174,
				"method": "rhf"
			},
			{
				"type": "unocc",
				"energy": 0.03128,
				"method": "rhf"
			},
			{
				"type": "unocc",
				"energy": 0.04999,
				"method": "rhf"
			},
			{
				"type": "unocc",
				"energy": 0.0833,
				"method": "rhf"
			}
		],
		"cosmo_sigma_profile": { 
			"-0.025": 0.0,
			"-0.024": 0.0,
			"-0.023": 0.0,
			"-0.022": 0.0,
			"-0.021": 0.0,
			"-0.02": 0.0,
			"-0.019": 0.0,
			"-0.018": 0.0,
			"-0.017": 0.0,
			"-0.016": 0.0,
			"-0.015": 0.0,
			"-0.014": 0.0,
			"-0.013": 0.0,
			"-0.012": 0.0,
			"-0.011": 0.0,
			"-0.01": 0.300551503985,
			"-0.009": 1.99303268157,
			"-0.008": 3.0053957566,
			"-0.007": 6.83649444017,
			"-0.006": 16.8048272564,
			"-0.005": 23.234395128,
			"-0.004": 26.1471054379,
			"-0.003": 26.6483801375,
			"-0.002": 24.3290881499,
			"-0.001": 21.9678845933,
			"0.0": 20.9498354179,
			"0.001": 24.7488318757,
			"0.002": 22.6893278609,
			"0.003": 18.7327988285,
			"0.004": 11.5095280845,
			"0.005": 5.72109461162,
			"0.006": 5.64163167788,
			"0.007": 5.69073017796,
			"0.008": 7.64321721593,
			"0.009": 6.27360448598,
			"0.01": 4.06361774962,
			"0.011": 4.50674343632,
			"0.012": 2.18933973262,
			"0.013": 1.0465830958,
			"0.014": 1.61535405759,
			"0.015": 1.11371085888,
			"0.016": 0.0481649308843,
			"0.017": 0.0,
			"0.018": 0.0,
			"0.019": 0.0,
			"0.02": 0.0,
			"0.021": 0.0,
			"0.022": 0.0,
			"0.023": 0.0,
			"0.024": 0.0,
			"0.025": 0.0
		}
	}
}
