{
	 "smiles": "CN(C)S(=O)(=O)C1=C(Br)C=CC(=C1)C(O)=O", 
	 "Tm": 531.15, 
	 "num_atms": 26, 
	 "gaussian": { 
		 "optdone": 1, 
		 "sigma_profile": "yes", 
		 "theory": "DFT", 
		 "functional": "B3LYP", 
		 "basiset": "6-31G**", 
		 "properties": { 
			 "R2extent": 5772.435, 
			 "electric_dipole_moment_norm": 2.36890635104, 
			 "electric_quadrupole_moment_norm": 27.3733637012, 
			 "total_energy": -3674.1402071, 
			 "HOMO_LUMO_gap": 0.19224, 
			 "cosmo_polarized_energy": -22.62, 
			 "cosmo_cavitation_energy": 33.69, 
			 "cosmo_dispersion_energy": -24.18, 
			 "cosmo_repulsion_energy": 1.83, 
			 "cosmo_total_nonelectrostatic_energy": 11.34, 
			 "SMD_solvation_energy": 5.81 
		},
		"coords": [
			{
				"x": -1.7390464875,
				"y": 1.6707687885,
				"z": -2.7921382286,
				"element": "C" 
			},
			{
				"x": -0.9204563254,
				"y": 1.9350878912,
				"z": -1.5988469928,
				"element": "N" 
			},
			{
				"x": -0.2558187585,
				"y": 3.2475484736,
				"z": -1.597582426,
				"element": "C" 
			},
			{
				"x": -1.642114321,
				"y": 1.4765706161,
				"z": -0.1308897284,
				"element": "S" 
			},
			{
				"x": -1.080501427,
				"y": 2.32874916,
				"z": 0.9190897563,
				"element": "O" 
			},
			{
				"x": -3.0891873107,
				"y": 1.3567951771,
				"z": -0.3216523078,
				"element": "O" 
			},
			{
				"x": -0.9806708589,
				"y": -0.1995701258,
				"z": 0.1082264195,
				"element": "C" 
			},
			{
				"x": -1.4508309306,
				"y": -1.0226817861,
				"z": 1.1438303789,
				"element": "C" 
			},
			{
				"x": -2.7655903833,
				"y": -0.459582598,
				"z": 2.390960829,
				"element": "Br" 
			},
			{
				"x": -0.9350193997,
				"y": -2.3135658739,
				"z": 1.2949279374,
				"element": "C" 
			},
			{
				"x": 0.0494441178,
				"y": -2.7834032131,
				"z": 0.4346863808,
				"element": "C" 
			},
			{
				"x": 0.5569186428,
				"y": -1.9572695035,
				"z": -0.5743744705,
				"element": "C" 
			},
			{
				"x": 0.0283656901,
				"y": -0.6720428076,
				"z": -0.7332751471,
				"element": "C" 
			},
			{
				"x": 1.6236086632,
				"y": -2.5151581413,
				"z": -1.4702013453,
				"element": "C" 
			},
			{
				"x": 2.3841510372,
				"y": -1.6190700252,
				"z": -2.1516273101,
				"element": "O" 
			},
			{
				"x": 1.8159758858,
				"y": -3.700328643,
				"z": -1.59991761,
				"element": "O" 
			},
			{
				"x": -2.5735854327,
				"y": 2.3752295387,
				"z": -2.8916191448,
				"element": "H" 
			},
			{
				"x": -1.08995834,
				"y": 1.7542701283,
				"z": -3.6685760905,
				"element": "H" 
			},
			{
				"x": -2.1440824564,
				"y": 0.6585994279,
				"z": -2.7571587624,
				"element": "H" 
			},
			{
				"x": 0.4178909627,
				"y": 3.2807838682,
				"z": -2.4589695953,
				"element": "H" 
			},
			{
				"x": 0.3233668822,
				"y": 3.3687668981,
				"z": -0.6838888854,
				"element": "H" 
			},
			{
				"x": -0.9700719513,
				"y": 4.077890229,
				"z": -1.6765261412,
				"element": "H" 
			},
			{
				"x": -1.3140303456,
				"y": -2.941340086,
				"z": 2.0929617177,
				"element": "H" 
			},
			{
				"x": 0.4436207292,
				"y": -3.7887601624,
				"z": 0.5349988244,
				"element": "H" 
			},
			{
				"x": 0.3577244451,
				"y": -0.0138160637,
				"z": -1.5300123143,
				"element": "H" 
			},
			{
				"x": 2.2401976725,
				"y": -0.7246711673,
				"z": -1.8128257436,
				"element": "H" 
			}
		],
		 "valence_orbital": [ 
			{
				"type": "occ",
				"energy": -0.29872,
				"method": "rhf"
			},
			{
				"type": "occ",
				"energy": -0.29206,
				"method": "rhf"
			},
			{
				"type": "occ",
				"energy": -0.28761,
				"method": "rhf"
			},
			{
				"type": "occ",
				"energy": -0.27174,
				"method": "rhf"
			},
			{
				"type": "occ",
				"energy": -0.26756,
				"method": "rhf"
			},
			{
				"type": "unocc",
				"energy": -0.07532,
				"method": "rhf"
			},
			{
				"type": "unocc",
				"energy": -0.05478,
				"method": "rhf"
			},
			{
				"type": "unocc",
				"energy": -0.01743,
				"method": "rhf"
			},
			{
				"type": "unocc",
				"energy": 0.02,
				"method": "rhf"
			},
			{
				"type": "unocc",
				"energy": 0.04237,
				"method": "rhf"
			}
		],
		"cosmo_sigma_profile": { 
			"-0.025": 0.0,
			"-0.024": 0.0,
			"-0.023": 0.0,
			"-0.022": 0.0,
			"-0.021": 0.0,
			"-0.02": 0.187124036412,
			"-0.019": 0.755692402187,
			"-0.018": 1.15787949632,
			"-0.017": 0.997873752263,
			"-0.016": 0.550316997432,
			"-0.015": 0.735142626334,
			"-0.014": 1.10929826729,
			"-0.013": 1.14555000368,
			"-0.012": 0.953093303126,
			"-0.011": 0.973536342051,
			"-0.01": 1.08602868652,
			"-0.009": 2.14997568093,
			"-0.008": 4.83547447557,
			"-0.007": 6.57708827333,
			"-0.006": 13.5980916133,
			"-0.005": 21.0892712018,
			"-0.004": 22.5394525996,
			"-0.003": 26.1546756501,
			"-0.002": 21.9639497227,
			"-0.001": 23.2777554678,
			"0.0": 16.2485353806,
			"0.001": 10.3592172925,
			"0.002": 10.7632948164,
			"0.003": 10.5582253685,
			"0.004": 6.573745711,
			"0.005": 5.84198013401,
			"0.006": 6.22261089556,
			"0.007": 6.96660331975,
			"0.008": 6.3442599284,
			"0.009": 9.40596012885,
			"0.01": 15.2558664947,
			"0.011": 11.6777725047,
			"0.012": 3.23144999791,
			"0.013": 0.470744292366,
			"0.014": 0.0,
			"0.015": 0.0,
			"0.016": 0.0,
			"0.017": 0.0,
			"0.018": 0.0,
			"0.019": 0.0,
			"0.02": 0.0,
			"0.021": 0.0,
			"0.022": 0.0,
			"0.023": 0.0,
			"0.024": 0.0,
			"0.025": 0.0
		}
	}
}
