{
	 "smiles": "C[Si](C)(C)C=C", 
	 "Tm": 141.15, 
	 "num_atms": 18, 
	 "gaussian": { 
		 "optdone": 1, 
		 "sigma_profile": "yes", 
		 "theory": "DFT", 
		 "functional": "B3LYP", 
		 "basiset": "6-31G**", 
		 "properties": { 
			 "R2extent": 1247.9092, 
			 "electric_dipole_moment_norm": 0.135134599567, 
			 "electric_quadrupole_moment_norm": 1.80227055683, 
			 "total_energy": -487.27996239, 
			 "HOMO_LUMO_gap": 0.26247, 
			 "cosmo_polarized_energy": -1.75, 
			 "cosmo_cavitation_energy": 22.05, 
			 "cosmo_dispersion_energy": -13.26, 
			 "cosmo_repulsion_energy": 1.27, 
			 "cosmo_total_nonelectrostatic_energy": 10.05, 
			 "SMD_solvation_energy": 6.37 
		},
		"coords": [
			{
				"x": 0.3566667088,
				"y": -1.0169983049,
				"z": -0.681831403,
				"element": "C" 
			},
			{
				"x": 0.9457855275,
				"y": 0.3897030459,
				"z": 0.4424992485,
				"element": "Si" 
			},
			{
				"x": -0.3113195583,
				"y": 1.8035210815,
				"z": 0.4132152251,
				"element": "C" 
			},
			{
				"x": 1.1319029644,
				"y": -0.2665860172,
				"z": 2.2101740505,
				"element": "C" 
			},
			{
				"x": 2.6188661745,
				"y": 1.0025950605,
				"z": -0.1653579518,
				"element": "C" 
			},
			{
				"x": 2.8912687578,
				"y": 2.2521490501,
				"z": -0.5624051061,
				"element": "C" 
			},
			{
				"x": -0.5994693931,
				"y": -1.4255215895,
				"z": -0.3351152805,
				"element": "H" 
			},
			{
				"x": 0.218062592,
				"y": -0.6712906329,
				"z": -1.7117983368,
				"element": "H" 
			},
			{
				"x": 1.0786255337,
				"y": -1.8409514039,
				"z": -0.7035286613,
				"element": "H" 
			},
			{
				"x": -0.447612989,
				"y": 2.2037769233,
				"z": -0.5971868659,
				"element": "H" 
			},
			{
				"x": -0.0053732351,
				"y": 2.6309549009,
				"z": 1.0624089581,
				"element": "H" 
			},
			{
				"x": -1.2895607059,
				"y": 1.4556173905,
				"z": 0.763502955,
				"element": "H" 
			},
			{
				"x": 0.1827472647,
				"y": -0.6664367744,
				"z": 2.584937816,
				"element": "H" 
			},
			{
				"x": 1.8724186066,
				"y": -1.0725535406,
				"z": 2.2619657518,
				"element": "H" 
			},
			{
				"x": 1.4549564008,
				"y": 0.5241287842,
				"z": 2.8957143283,
				"element": "H" 
			},
			{
				"x": 3.4414379562,
				"y": 0.2826197498,
				"z": -0.1997066055,
				"element": "H" 
			},
			{
				"x": 3.878889548,
				"y": 2.5562732932,
				"z": -0.9065015998,
				"element": "H" 
			},
			{
				"x": 2.1354078466,
				"y": 3.0352989836,
				"z": -0.5623865224,
				"element": "H" 
			}
		],
		 "valence_orbital": [ 
			{
				"type": "occ",
				"energy": -0.37491,
				"method": "rhf"
			},
			{
				"type": "occ",
				"energy": -0.30128,
				"method": "rhf"
			},
			{
				"type": "occ",
				"energy": -0.29385,
				"method": "rhf"
			},
			{
				"type": "occ",
				"energy": -0.2892,
				"method": "rhf"
			},
			{
				"type": "occ",
				"energy": -0.25872,
				"method": "rhf"
			},
			{
				"type": "unocc",
				"energy": 0.00375,
				"method": "rhf"
			},
			{
				"type": "unocc",
				"energy": 0.08041,
				"method": "rhf"
			},
			{
				"type": "unocc",
				"energy": 0.09202,
				"method": "rhf"
			},
			{
				"type": "unocc",
				"energy": 0.11174,
				"method": "rhf"
			},
			{
				"type": "unocc",
				"energy": 0.11817,
				"method": "rhf"
			}
		],
		"cosmo_sigma_profile": { 
			"-0.025": 0.0,
			"-0.024": 0.0,
			"-0.023": 0.0,
			"-0.022": 0.0,
			"-0.021": 0.0,
			"-0.02": 0.0,
			"-0.019": 0.0,
			"-0.018": 0.0,
			"-0.017": 0.0,
			"-0.016": 0.0,
			"-0.015": 0.0,
			"-0.014": 0.0,
			"-0.013": 0.0,
			"-0.012": 0.0,
			"-0.011": 0.0,
			"-0.01": 0.0,
			"-0.009": 0.0,
			"-0.008": 0.0,
			"-0.007": 0.0,
			"-0.006": 0.0,
			"-0.005": 1.00228111741,
			"-0.004": 6.35099740117,
			"-0.003": 19.8166371911,
			"-0.002": 26.0585750536,
			"-0.001": 25.6370521054,
			"0.0": 21.968940225,
			"0.001": 22.2332703005,
			"0.002": 21.6092650967,
			"0.003": 10.5257141036,
			"0.004": 4.81988451947,
			"0.005": 3.32276618987,
			"0.006": 2.53450219824,
			"0.007": 2.4145139031,
			"0.008": 0.444348826747,
			"0.009": 0.0,
			"0.01": 0.0,
			"0.011": 0.0,
			"0.012": 0.0,
			"0.013": 0.0,
			"0.014": 0.0,
			"0.015": 0.0,
			"0.016": 0.0,
			"0.017": 0.0,
			"0.018": 0.0,
			"0.019": 0.0,
			"0.02": 0.0,
			"0.021": 0.0,
			"0.022": 0.0,
			"0.023": 0.0,
			"0.024": 0.0,
			"0.025": 0.0
		}
	}
}
