{
	 "smiles": "OC1CCCCC1NCC1=CC=CC=C1", 
	 "Tm": 343.65, 
	 "num_atms": 34, 
	 "gaussian": { 
		 "optdone": 1, 
		 "sigma_profile": "yes", 
		 "theory": "DFT", 
		 "functional": "B3LYP", 
		 "basiset": "6-31G**", 
		 "properties": { 
			 "R2extent": 4434.8381, 
			 "electric_dipole_moment_norm": 1.75186943007, 
			 "electric_quadrupole_moment_norm": 7.82524405242, 
			 "total_energy": -636.815136782, 
			 "HOMO_LUMO_gap": 0.22492, 
			 "cosmo_polarized_energy": -8.83, 
			 "cosmo_cavitation_energy": 34.17, 
			 "cosmo_dispersion_energy": -24.45, 
			 "cosmo_repulsion_energy": 1.94, 
			 "cosmo_total_nonelectrostatic_energy": 11.66, 
			 "SMD_solvation_energy": 3.66 
		},
		"coords": [
			{
				"x": -2.5753412471,
				"y": 1.6023335,
				"z": 2.8267762448,
				"element": "O" 
			},
			{
				"x": -1.1435810623,
				"y": 1.5831156168,
				"z": 2.8688169782,
				"element": "C" 
			},
			{
				"x": -0.6256192524,
				"y": 1.3779395022,
				"z": 4.2963258734,
				"element": "C" 
			},
			{
				"x": 0.9034045087,
				"y": 1.2384519094,
				"z": 4.3307182882,
				"element": "C" 
			},
			{
				"x": 1.370304046,
				"y": 0.1195375263,
				"z": 3.3883708589,
				"element": "C" 
			},
			{
				"x": 0.8426050131,
				"y": 0.3312043502,
				"z": 1.9614726784,
				"element": "C" 
			},
			{
				"x": -0.6904274946,
				"y": 0.4572194323,
				"z": 1.9310563636,
				"element": "C" 
			},
			{
				"x": -1.2092620034,
				"y": 0.7381026353,
				"z": 0.5891625354,
				"element": "N" 
			},
			{
				"x": -1.1812551693,
				"y": -0.3834157336,
				"z": -0.3503469687,
				"element": "C" 
			},
			{
				"x": 0.0729083254,
				"y": -0.4575471227,
				"z": -1.2095839231,
				"element": "C" 
			},
			{
				"x": 0.700559931,
				"y": 0.7095472226,
				"z": -1.6634786084,
				"element": "C" 
			},
			{
				"x": 1.8130704206,
				"y": 0.6377868602,
				"z": -2.5018661894,
				"element": "C" 
			},
			{
				"x": 2.3155164017,
				"y": -0.6032120278,
				"z": -2.9018586237,
				"element": "C" 
			},
			{
				"x": 1.6980204708,
				"y": -1.7716953031,
				"z": -2.4535312442,
				"element": "C" 
			},
			{
				"x": 0.5858132558,
				"y": -1.6963223442,
				"z": -1.6121308462,
				"element": "C" 
			},
			{
				"x": -2.8778363842,
				"y": 2.3891426306,
				"z": 3.2972298044,
				"element": "H" 
			},
			{
				"x": -0.7460866098,
				"y": 2.5290549632,
				"z": 2.4643781884,
				"element": "H" 
			},
			{
				"x": -1.0974581542,
				"y": 0.4745277226,
				"z": 4.7041553043,
				"element": "H" 
			},
			{
				"x": -0.9513181538,
				"y": 2.2165711938,
				"z": 4.9267248974,
				"element": "H" 
			},
			{
				"x": 1.3640347743,
				"y": 2.1874493248,
				"z": 4.0221851402,
				"element": "H" 
			},
			{
				"x": 1.2411291748,
				"y": 1.0480253124,
				"z": 5.3560641595,
				"element": "H" 
			},
			{
				"x": 2.4649641861,
				"y": 0.0635716715,
				"z": 3.3765331931,
				"element": "H" 
			},
			{
				"x": 1.0138266497,
				"y": -0.8471253594,
				"z": 3.7712689024,
				"element": "H" 
			},
			{
				"x": 1.2745250719,
				"y": 1.243728024,
				"z": 1.530239898,
				"element": "H" 
			},
			{
				"x": 1.1591775884,
				"y": -0.4927681268,
				"z": 1.3147331215,
				"element": "H" 
			},
			{
				"x": -1.1194965441,
				"y": -0.4841851547,
				"z": 2.3315798389,
				"element": "H" 
			},
			{
				"x": -2.1694489145,
				"y": 1.0451326555,
				"z": 0.7120954681,
				"element": "H" 
			},
			{
				"x": -1.3273571237,
				"y": -1.356413367,
				"z": 0.1531556276,
				"element": "H" 
			},
			{
				"x": -2.0411622844,
				"y": -0.2628314068,
				"z": -1.0231012762,
				"element": "H" 
			},
			{
				"x": 0.3105219816,
				"y": 1.6677864695,
				"z": -1.3349019009,
				"element": "H" 
			},
			{
				"x": 2.2906385076,
				"y": 1.5522703311,
				"z": -2.8439968241,
				"element": "H" 
			},
			{
				"x": 3.183091818,
				"y": -0.6584465933,
				"z": -3.5535087398,
				"element": "H" 
			},
			{
				"x": 2.0846042061,
				"y": -2.7422660157,
				"z": -2.7527038129,
				"element": "H" 
			},
			{
				"x": 0.1115340662,
				"y": -2.6108702992,
				"z": -1.261834407,
				"element": "H" 
			}
		],
		 "valence_orbital": [ 
			{
				"type": "occ",
				"energy": -0.29738,
				"method": "rhf"
			},
			{
				"type": "occ",
				"energy": -0.26737,
				"method": "rhf"
			},
			{
				"type": "occ",
				"energy": -0.23906,
				"method": "rhf"
			},
			{
				"type": "occ",
				"energy": -0.23118,
				"method": "rhf"
			},
			{
				"type": "occ",
				"energy": -0.21628,
				"method": "rhf"
			},
			{
				"type": "unocc",
				"energy": 0.00864,
				"method": "rhf"
			},
			{
				"type": "unocc",
				"energy": 0.00921,
				"method": "rhf"
			},
			{
				"type": "unocc",
				"energy": 0.07269,
				"method": "rhf"
			},
			{
				"type": "unocc",
				"energy": 0.0896,
				"method": "rhf"
			},
			{
				"type": "unocc",
				"energy": 0.1017,
				"method": "rhf"
			}
		],
		"cosmo_sigma_profile": { 
			"-0.025": 0.0,
			"-0.024": 0.0,
			"-0.023": 0.0,
			"-0.022": 0.0,
			"-0.021": 0.0,
			"-0.02": 0.0,
			"-0.019": 0.0,
			"-0.018": 0.0,
			"-0.017": 0.0,
			"-0.016": 0.0837735010396,
			"-0.015": 1.02227661302,
			"-0.014": 0.852662567011,
			"-0.013": 0.841023850271,
			"-0.012": 1.01828644057,
			"-0.011": 0.951315675462,
			"-0.01": 0.555384912271,
			"-0.009": 1.10903707541,
			"-0.008": 0.849037450155,
			"-0.007": 2.54419587682,
			"-0.006": 2.97181972748,
			"-0.005": 10.3920585514,
			"-0.004": 13.4707375676,
			"-0.003": 23.2343913357,
			"-0.002": 35.4781030994,
			"-0.001": 39.7983205482,
			"0.0": 32.8256575699,
			"0.001": 21.9536323141,
			"0.002": 13.6504271111,
			"0.003": 11.2886945096,
			"0.004": 11.6172288094,
			"0.005": 11.2255687419,
			"0.006": 10.5315525351,
			"0.007": 5.9648426273,
			"0.008": 2.27460783572,
			"0.009": 1.88788405423,
			"0.01": 1.5952293089,
			"0.011": 1.53145322997,
			"0.012": 1.49447394694,
			"0.013": 1.33047355997,
			"0.014": 0.746853578676,
			"0.015": 0.186303586524,
			"0.016": 0.0,
			"0.017": 0.0,
			"0.018": 0.0,
			"0.019": 0.0,
			"0.02": 0.0,
			"0.021": 0.0,
			"0.022": 0.0,
			"0.023": 0.0,
			"0.024": 0.0,
			"0.025": 0.0
		}
	}
}
