{
	 "smiles": "COC1=CC=C(C=C1)C1C(CC(=O)N1C)C(O)=O", 
	 "Tm": 457.15, 
	 "num_atms": 33, 
	 "gaussian": { 
		 "optdone": 1, 
		 "sigma_profile": "yes", 
		 "theory": "DFT", 
		 "functional": "B3LYP", 
		 "basiset": "6-31G**", 
		 "properties": { 
			 "R2extent": 5022.1592, 
			 "electric_dipole_moment_norm": 2.70158788308, 
			 "electric_quadrupole_moment_norm": 22.8839858161, 
			 "total_energy": -860.081165562, 
			 "HOMO_LUMO_gap": 0.21323, 
			 "cosmo_polarized_energy": -22.23, 
			 "cosmo_cavitation_energy": 35.73, 
			 "cosmo_dispersion_energy": -24.92, 
			 "cosmo_repulsion_energy": 1.93, 
			 "cosmo_total_nonelectrostatic_energy": 12.74, 
			 "SMD_solvation_energy": 8.3 
		},
		"coords": [
			{
				"x": -1.1780669702,
				"y": -2.4294672289,
				"z": 4.0073460573,
				"element": "C" 
			},
			{
				"x": -0.4591239753,
				"y": -1.2063003186,
				"z": 3.9782779671,
				"element": "O" 
			},
			{
				"x": -0.3127374756,
				"y": -0.5706287605,
				"z": 2.7816983247,
				"element": "C" 
			},
			{
				"x": 0.411794572,
				"y": 0.631213635,
				"z": 2.8134458557,
				"element": "C" 
			},
			{
				"x": 0.610870537,
				"y": 1.3574079272,
				"z": 1.6483225755,
				"element": "C" 
			},
			{
				"x": 0.102991809,
				"y": 0.9092895336,
				"z": 0.4167089939,
				"element": "C" 
			},
			{
				"x": -0.620479879,
				"y": -0.2861610465,
				"z": 0.4002389479,
				"element": "C" 
			},
			{
				"x": -0.832613763,
				"y": -1.0286338542,
				"z": 1.5659573205,
				"element": "C" 
			},
			{
				"x": 0.3618618205,
				"y": 1.7196741134,
				"z": -0.8495090268,
				"element": "C" 
			},
			{
				"x": 1.6467747158,
				"y": 1.3156469352,
				"z": -1.6572756575,
				"element": "C" 
			},
			{
				"x": 1.131918447,
				"y": 0.2577874422,
				"z": -2.6403277088,
				"element": "C" 
			},
			{
				"x": -0.3192897595,
				"y": 0.6928110793,
				"z": -2.8906316651,
				"element": "C" 
			},
			{
				"x": -1.0372505534,
				"y": 0.3378729866,
				"z": -3.8102715413,
				"element": "O" 
			},
			{
				"x": -0.6669472819,
				"y": 1.5441867587,
				"z": -1.8717716418,
				"element": "N" 
			},
			{
				"x": -2.0055772258,
				"y": 2.0829825985,
				"z": -1.73041905,
				"element": "C" 
			},
			{
				"x": 2.8488011804,
				"y": 1.0317580624,
				"z": -0.7616577789,
				"element": "C" 
			},
			{
				"x": 3.4247081811,
				"y": -0.1904936133,
				"z": -0.8374395429,
				"element": "O" 
			},
			{
				"x": 3.2964753267,
				"y": 1.8722603794,
				"z": -0.0195424503,
				"element": "O" 
			},
			{
				"x": -2.21826392,
				"y": -2.2960317877,
				"z": 3.683200967,
				"element": "H" 
			},
			{
				"x": -0.7022399987,
				"y": -3.1938958967,
				"z": 3.3796803777,
				"element": "H" 
			},
			{
				"x": -1.1664720653,
				"y": -2.7610876742,
				"z": 5.0466027819,
				"element": "H" 
			},
			{
				"x": 0.8057531266,
				"y": 0.9738714957,
				"z": 3.7644855713,
				"element": "H" 
			},
			{
				"x": 1.186246717,
				"y": 2.2774365938,
				"z": 1.6860778021,
				"element": "H" 
			},
			{
				"x": -1.0497925666,
				"y": -0.6476781499,
				"z": -0.530002842,
				"element": "H" 
			},
			{
				"x": -1.4048509351,
				"y": -1.9471442977,
				"z": 1.5125489297,
				"element": "H" 
			},
			{
				"x": 0.437198568,
				"y": 2.7771644322,
				"z": -0.5739558366,
				"element": "H" 
			},
			{
				"x": 1.9344826731,
				"y": 2.2027748198,
				"z": -2.2328594005,
				"element": "H" 
			},
			{
				"x": 1.0917689928,
				"y": -0.7513701152,
				"z": -2.2063774381,
				"element": "H" 
			},
			{
				"x": 1.6809628971,
				"y": 0.2039840505,
				"z": -3.5825644024,
				"element": "H" 
			},
			{
				"x": -1.9795061056,
				"y": 3.1778375563,
				"z": -1.6859431958,
				"element": "H" 
			},
			{
				"x": -2.4879655733,
				"y": 1.7071658878,
				"z": -0.8211214191,
				"element": "H" 
			},
			{
				"x": -2.5797658918,
				"y": 1.7687369065,
				"z": -2.6033569756,
				"element": "H" 
			},
			{
				"x": 2.9548343759,
				"y": -0.7484704509,
				"z": -1.4724648987,
				"element": "H" 
			}
		],
		 "valence_orbital": [ 
			{
				"type": "occ",
				"energy": -0.28047,
				"method": "rhf"
			},
			{
				"type": "occ",
				"energy": -0.25819,
				"method": "rhf"
			},
			{
				"type": "occ",
				"energy": -0.25548,
				"method": "rhf"
			},
			{
				"type": "occ",
				"energy": -0.24976,
				"method": "rhf"
			},
			{
				"type": "occ",
				"energy": -0.22466,
				"method": "rhf"
			},
			{
				"type": "unocc",
				"energy": -0.01143,
				"method": "rhf"
			},
			{
				"type": "unocc",
				"energy": -0.00234,
				"method": "rhf"
			},
			{
				"type": "unocc",
				"energy": -0.00135,
				"method": "rhf"
			},
			{
				"type": "unocc",
				"energy": 0.01915,
				"method": "rhf"
			},
			{
				"type": "unocc",
				"energy": 0.05915,
				"method": "rhf"
			}
		],
		"cosmo_sigma_profile": { 
			"-0.025": 0.0,
			"-0.024": 0.0,
			"-0.023": 0.0,
			"-0.022": 0.0,
			"-0.021": 0.0,
			"-0.02": 0.0,
			"-0.019": 0.0835013414681,
			"-0.018": 0.698895441369,
			"-0.017": 1.16886628712,
			"-0.016": 0.811120238847,
			"-0.015": 0.748595620485,
			"-0.014": 0.348042040525,
			"-0.013": 1.24212780761,
			"-0.012": 2.19893512601,
			"-0.011": 0.90327591863,
			"-0.01": 0.806417103414,
			"-0.009": 1.73774216271,
			"-0.008": 2.84900804987,
			"-0.007": 10.3111094596,
			"-0.006": 21.2141987061,
			"-0.005": 27.1701864831,
			"-0.004": 24.2236749468,
			"-0.003": 25.6585266248,
			"-0.002": 22.2115055098,
			"-0.001": 13.0045158526,
			"0.0": 10.6553855798,
			"0.001": 10.7526394373,
			"0.002": 10.0077877353,
			"0.003": 12.3935014239,
			"0.004": 13.9575466275,
			"0.005": 12.8341573843,
			"0.006": 6.73144918621,
			"0.007": 5.09950635239,
			"0.008": 5.86175560393,
			"0.009": 5.97460225795,
			"0.01": 7.34088327575,
			"0.011": 5.73427192988,
			"0.012": 6.27234504012,
			"0.013": 6.89397802382,
			"0.014": 3.71592091662,
			"0.015": 0.507538870411,
			"0.016": 0.0,
			"0.017": 0.0,
			"0.018": 0.0,
			"0.019": 0.0,
			"0.02": 0.0,
			"0.021": 0.0,
			"0.022": 0.0,
			"0.023": 0.0,
			"0.024": 0.0,
			"0.025": 0.0
		}
	}
}
