{
	 "smiles": "CC(=O)OC1CC[C@@]2(C)[C@H](C1)CC1(OCCO1)C1C3CCC4(OCCO4)[C@@]3(C)CCC21", 
	 "Tm": 481.15, 
	 "num_atms": 69, 
	 "gaussian": { 
		 "optdone": 1, 
		 "sigma_profile": "yes", 
		 "theory": "DFT", 
		 "functional": "B3LYP", 
		 "basiset": "6-31G**", 
		 "properties": { 
			 "R2extent": 15435.4103, 
			 "electric_dipole_moment_norm": 3.18425139397, 
			 "electric_quadrupole_moment_norm": 14.5886309783, 
			 "total_energy": -1426.89795162, 
			 "HOMO_LUMO_gap": 0.25605, 
			 "cosmo_polarized_energy": -15.18, 
			 "cosmo_cavitation_energy": 58.73, 
			 "cosmo_dispersion_energy": -40.39, 
			 "cosmo_repulsion_energy": 2.98, 
			 "cosmo_total_nonelectrostatic_energy": 21.32, 
			 "SMD_solvation_energy": 9.66 
		},
		"coords": [
			{
				"x": 3.5065295689,
				"y": -2.1507774932,
				"z": -6.4202001739,
				"element": "C" 
			},
			{
				"x": 2.6270755399,
				"y": -1.3295042629,
				"z": -5.5048940594,
				"element": "C" 
			},
			{
				"x": 2.1647240795,
				"y": -0.2410963773,
				"z": -5.773831931,
				"element": "O" 
			},
			{
				"x": 2.425737919,
				"y": -1.9744870986,
				"z": -4.3333540682,
				"element": "O" 
			},
			{
				"x": 1.5986266074,
				"y": -1.3073730531,
				"z": -3.3406985113,
				"element": "C" 
			},
			{
				"x": 0.1201346697,
				"y": -1.6022637403,
				"z": -3.5854654833,
				"element": "C" 
			},
			{
				"x": -0.7294043456,
				"y": -1.004402582,
				"z": -2.4508252605,
				"element": "C" 
			},
			{
				"x": -0.3427943019,
				"y": -1.5231747359,
				"z": -1.0356664067,
				"element": "C" 
			},
			{
				"x": -0.6882220674,
				"y": -3.0315800757,
				"z": -0.9725682807,
				"element": "C" 
			},
			{
				"x": 1.1737384591,
				"y": -1.2489590118,
				"z": -0.8380622301,
				"element": "C" 
			},
			{
				"x": 2.0512561953,
				"y": -1.8106178968,
				"z": -1.9749377209,
				"element": "C" 
			},
			{
				"x": 1.7201697661,
				"y": -1.7220064402,
				"z": 0.5231008544,
				"element": "C" 
			},
			{
				"x": 0.7415700232,
				"y": -1.6979941501,
				"z": 1.7108055689,
				"element": "C" 
			},
			{
				"x": 1.4626009616,
				"y": -1.3279654196,
				"z": 2.9037131363,
				"element": "O" 
			},
			{
				"x": 1.4576998648,
				"y": -2.4145841776,
				"z": 3.8230587335,
				"element": "C" 
			},
			{
				"x": 0.2625822823,
				"y": -3.2403141184,
				"z": 3.3611889928,
				"element": "C" 
			},
			{
				"x": 0.3042928105,
				"y": -3.0489037721,
				"z": 1.9538075857,
				"element": "O" 
			},
			{
				"x": -0.4989254852,
				"y": -0.7698700354,
				"z": 1.5425026825,
				"element": "C" 
			},
			{
				"x": -0.2753909892,
				"y": 0.6394436454,
				"z": 2.1529462123,
				"element": "C" 
			},
			{
				"x": 0.8381637253,
				"y": 1.5548830452,
				"z": 1.540698996,
				"element": "C" 
			},
			{
				"x": 0.2193191174,
				"y": 2.9625731584,
				"z": 1.4024946762,
				"element": "C" 
			},
			{
				"x": -1.0023551892,
				"y": 2.9324449935,
				"z": 2.3293593994,
				"element": "C" 
			},
			{
				"x": -1.9801010033,
				"y": 3.9258303917,
				"z": 2.0575455132,
				"element": "O" 
			},
			{
				"x": -1.8019743248,
				"y": 4.9816907584,
				"z": 2.9950607688,
				"element": "C" 
			},
			{
				"x": -1.311389247,
				"y": 4.2347398012,
				"z": 4.2324508508,
				"element": "C" 
			},
			{
				"x": -0.5436086827,
				"y": 3.1748404501,
				"z": 3.6736583355,
				"element": "O" 
			},
			{
				"x": -1.5791821205,
				"y": 1.4914088999,
				"z": 2.1872973212,
				"element": "C" 
			},
			{
				"x": -2.4839563239,
				"y": 1.1434416429,
				"z": 3.3768840299,
				"element": "C" 
			},
			{
				"x": -2.3819099385,
				"y": 1.3338279683,
				"z": 0.8613598832,
				"element": "C" 
			},
			{
				"x": -1.610752587,
				"y": 0.6556195801,
				"z": -0.2774793513,
				"element": "C" 
			},
			{
				"x": -1.1575113841,
				"y": -0.7749236909,
				"z": 0.0957800922,
				"element": "C" 
			},
			{
				"x": 4.4687495395,
				"y": -2.3489252554,
				"z": -5.9388391378,
				"element": "H" 
			},
			{
				"x": 3.6610163893,
				"y": -1.6123185373,
				"z": -7.3547151562,
				"element": "H" 
			},
			{
				"x": 3.0379218622,
				"y": -3.1189623785,
				"z": -6.6202175899,
				"element": "H" 
			},
			{
				"x": 1.7728628887,
				"y": -0.2300992748,
				"z": -3.4333947336,
				"element": "H" 
			},
			{
				"x": -0.1822451097,
				"y": -1.1675436911,
				"z": -4.5434930867,
				"element": "H" 
			},
			{
				"x": -0.0187131554,
				"y": -2.686469762,
				"z": -3.6621003668,
				"element": "H" 
			},
			{
				"x": -1.790347227,
				"y": -1.2062674969,
				"z": -2.6430685128,
				"element": "H" 
			},
			{
				"x": -0.6091752999,
				"y": 0.0830875049,
				"z": -2.49491499,
				"element": "H" 
			},
			{
				"x": -0.5481700779,
				"y": -3.4451915581,
				"z": 0.0251796614,
				"element": "H" 
			},
			{
				"x": -1.7391864107,
				"y": -3.1753086695,
				"z": -1.2502503431,
				"element": "H" 
			},
			{
				"x": -0.0884737059,
				"y": -3.6269325993,
				"z": -1.6663443358,
				"element": "H" 
			},
			{
				"x": 1.2797111975,
				"y": -0.155475482,
				"z": -0.8784986104,
				"element": "H" 
			},
			{
				"x": 2.0197307753,
				"y": -2.9069529544,
				"z": -1.9713979559,
				"element": "H" 
			},
			{
				"x": 3.0980438244,
				"y": -1.5288511364,
				"z": -1.8072437253,
				"element": "H" 
			},
			{
				"x": 2.0865954274,
				"y": -2.7510764724,
				"z": 0.4472444657,
				"element": "H" 
			},
			{
				"x": 2.5773184654,
				"y": -1.1017047613,
				"z": 0.8014053543,
				"element": "H" 
			},
			{
				"x": 2.3919270842,
				"y": -2.9896219933,
				"z": 3.750743798,
				"element": "H" 
			},
			{
				"x": 1.3578195783,
				"y": -2.0213803506,
				"z": 4.8394983949,
				"element": "H" 
			},
			{
				"x": 0.3463193367,
				"y": -4.3107559631,
				"z": 3.5646232658,
				"element": "H" 
			},
			{
				"x": -0.6766942121,
				"y": -2.8640522301,
				"z": 3.7940757386,
				"element": "H" 
			},
			{
				"x": -1.2435047017,
				"y": -1.226601181,
				"z": 2.2056612726,
				"element": "H" 
			},
			{
				"x": 0.0127333462,
				"y": 0.4631362762,
				"z": 3.1904207079,
				"element": "H" 
			},
			{
				"x": 1.2035795584,
				"y": 1.1954974361,
				"z": 0.5768067204,
				"element": "H" 
			},
			{
				"x": 1.6993610703,
				"y": 1.5692540396,
				"z": 2.2135448296,
				"element": "H" 
			},
			{
				"x": 0.9037792515,
				"y": 3.7681953972,
				"z": 1.6796682899,
				"element": "H" 
			},
			{
				"x": -0.1284058533,
				"y": 3.1521607034,
				"z": 0.3822511556,
				"element": "H" 
			},
			{
				"x": -1.054089834,
				"y": 5.7057770645,
				"z": 2.6397306743,
				"element": "H" 
			},
			{
				"x": -2.7595265012,
				"y": 5.4917247839,
				"z": 3.1291693711,
				"element": "H" 
			},
			{
				"x": -0.6666427273,
				"y": 4.832790509,
				"z": 4.8836518038,
				"element": "H" 
			},
			{
				"x": -2.1536322329,
				"y": 3.84424089,
				"z": 4.8216366499,
				"element": "H" 
			},
			{
				"x": -3.3765157493,
				"y": 1.7791358444,
				"z": 3.3770791193,
				"element": "H" 
			},
			{
				"x": -2.8241009913,
				"y": 0.103808404,
				"z": 3.31579377,
				"element": "H" 
			},
			{
				"x": -1.9599247003,
				"y": 1.2791284873,
				"z": 4.3262200662,
				"element": "H" 
			},
			{
				"x": -2.7579884715,
				"y": 2.3083315557,
				"z": 0.5358366304,
				"element": "H" 
			},
			{
				"x": -3.2717538932,
				"y": 0.724517478,
				"z": 1.0676964994,
				"element": "H" 
			},
			{
				"x": -0.7580571361,
				"y": 1.2729916549,
				"z": -0.5800908602,
				"element": "H" 
			},
			{
				"x": -2.2711798436,
				"y": 0.610031564,
				"z": -1.1483661067,
				"element": "H" 
			},
			{
				"x": -2.0891853605,
				"y": -1.3465640486,
				"z": 0.1985671167,
				"element": "H" 
			}
		],
		 "valence_orbital": [ 
			{
				"type": "occ",
				"energy": -0.26521,
				"method": "rhf"
			},
			{
				"type": "occ",
				"energy": -0.26213,
				"method": "rhf"
			},
			{
				"type": "occ",
				"energy": -0.26081,
				"method": "rhf"
			},
			{
				"type": "occ",
				"energy": -0.24684,
				"method": "rhf"
			},
			{
				"type": "occ",
				"energy": -0.23554,
				"method": "rhf"
			},
			{
				"type": "unocc",
				"energy": 0.02051,
				"method": "rhf"
			},
			{
				"type": "unocc",
				"energy": 0.06713,
				"method": "rhf"
			},
			{
				"type": "unocc",
				"energy": 0.07507,
				"method": "rhf"
			},
			{
				"type": "unocc",
				"energy": 0.08696,
				"method": "rhf"
			},
			{
				"type": "unocc",
				"energy": 0.09131,
				"method": "rhf"
			}
		],
		"cosmo_sigma_profile": { 
			"-0.025": 0.0,
			"-0.024": 0.0,
			"-0.023": 0.0,
			"-0.022": 0.0,
			"-0.021": 0.0,
			"-0.02": 0.0,
			"-0.019": 0.0,
			"-0.018": 0.0,
			"-0.017": 0.0,
			"-0.016": 0.0,
			"-0.015": 0.0,
			"-0.014": 0.0,
			"-0.013": 0.0,
			"-0.012": 0.0,
			"-0.011": 0.0,
			"-0.01": 0.0,
			"-0.009": 0.00056330621246,
			"-0.008": 0.0166800507483,
			"-0.007": 0.624464817644,
			"-0.006": 9.80259853049,
			"-0.005": 20.5485513065,
			"-0.004": 43.3401974303,
			"-0.003": 54.9106688575,
			"-0.002": 63.41135765,
			"-0.001": 60.3299725962,
			"0.0": 48.9857512177,
			"0.001": 35.4639699512,
			"0.002": 23.884740481,
			"0.003": 15.8294674173,
			"0.004": 11.5078774179,
			"0.005": 10.5061715768,
			"0.006": 9.88530583219,
			"0.007": 9.32460048182,
			"0.008": 7.60619413058,
			"0.009": 6.6799600403,
			"0.01": 5.28862144508,
			"0.011": 5.79339161249,
			"0.012": 5.62892972432,
			"0.013": 2.76410418177,
			"0.014": 0.129137697915,
			"0.015": 0.0,
			"0.016": 0.0,
			"0.017": 0.0,
			"0.018": 0.0,
			"0.019": 0.0,
			"0.02": 0.0,
			"0.021": 0.0,
			"0.022": 0.0,
			"0.023": 0.0,
			"0.024": 0.0,
			"0.025": 0.0
		}
	}
}
