{
	 "smiles": "CC1=C(C)C2=CC=CC=C2N1", 
	 "Tm": 379.15, 
	 "num_atms": 22, 
	 "gaussian": { 
		 "optdone": 1, 
		 "sigma_profile": "yes", 
		 "theory": "DFT", 
		 "functional": "B3LYP", 
		 "basiset": "6-31G**", 
		 "properties": { 
			 "R2extent": 2253.6048, 
			 "electric_dipole_moment_norm": 2.51246844557, 
			 "electric_quadrupole_moment_norm": 7.97610450909, 
			 "total_energy": -442.464067503, 
			 "HOMO_LUMO_gap": 0.18844, 
			 "cosmo_polarized_energy": -8.13, 
			 "cosmo_cavitation_energy": 24.86, 
			 "cosmo_dispersion_energy": -18.38, 
			 "cosmo_repulsion_energy": 1.47, 
			 "cosmo_total_nonelectrostatic_energy": 7.95, 
			 "SMD_solvation_energy": 3.92 
		},
		"coords": [
			{
				"x": -1.2442713562,
				"y": 1.9430053319,
				"z": -0.0667435123,
				"element": "C" 
			},
			{
				"x": -0.5053035911,
				"y": 0.7532542235,
				"z": 0.4680583531,
				"element": "C" 
			},
			{
				"x": -0.8543350542,
				"y": -0.5788136891,
				"z": 0.4879713239,
				"element": "C" 
			},
			{
				"x": -2.1160735432,
				"y": -1.1885738659,
				"z": -0.0451843471,
				"element": "C" 
			},
			{
				"x": 0.2301286044,
				"y": -1.2847641351,
				"z": 1.1231117025,
				"element": "C" 
			},
			{
				"x": 0.465000876,
				"y": -2.6355474863,
				"z": 1.4330334286,
				"element": "C" 
			},
			{
				"x": 1.6507413816,
				"y": -2.9886018484,
				"z": 2.067261022,
				"element": "C" 
			},
			{
				"x": 2.6149312241,
				"y": -2.0162521456,
				"z": 2.4017465008,
				"element": "C" 
			},
			{
				"x": 2.4119083301,
				"y": -0.6712647572,
				"z": 2.1083347951,
				"element": "C" 
			},
			{
				"x": 1.2178809707,
				"y": -0.3222057446,
				"z": 1.4706370323,
				"element": "C" 
			},
			{
				"x": 0.7426025459,
				"y": 0.9054420498,
				"z": 1.0601627966,
				"element": "N" 
			},
			{
				"x": -1.4393116144,
				"y": 1.8498076857,
				"z": -1.1408941242,
				"element": "H" 
			},
			{
				"x": -0.671872225,
				"y": 2.863991818,
				"z": 0.0821902351,
				"element": "H" 
			},
			{
				"x": -2.2119062517,
				"y": 2.075993157,
				"z": 0.4297666063,
				"element": "H" 
			},
			{
				"x": -2.7764843224,
				"y": -0.4320648497,
				"z": -0.4793837355,
				"element": "H" 
			},
			{
				"x": -1.9097152709,
				"y": -1.9306134978,
				"z": -0.8269152565,
				"element": "H" 
			},
			{
				"x": -2.6815890203,
				"y": -1.7045209512,
				"z": 0.7411373823,
				"element": "H" 
			},
			{
				"x": -0.2707530515,
				"y": -3.3944145657,
				"z": 1.1802163815,
				"element": "H" 
			},
			{
				"x": 1.8410980544,
				"y": -4.0300121005,
				"z": 2.310786021,
				"element": "H" 
			},
			{
				"x": 3.5321966537,
				"y": -2.3214868004,
				"z": 2.8969606287,
				"element": "H" 
			},
			{
				"x": 3.1553499658,
				"y": 0.0783585392,
				"z": 2.3662446844,
				"element": "H" 
			},
			{
				"x": 1.2214766941,
				"y": 1.7843836325,
				"z": 1.1694020813,
				"element": "H" 
			}
		],
		 "valence_orbital": [ 
			{
				"type": "occ",
				"energy": -0.32068,
				"method": "rhf"
			},
			{
				"type": "occ",
				"energy": -0.31786,
				"method": "rhf"
			},
			{
				"type": "occ",
				"energy": -0.25817,
				"method": "rhf"
			},
			{
				"type": "occ",
				"energy": -0.20836,
				"method": "rhf"
			},
			{
				"type": "occ",
				"energy": -0.18671,
				"method": "rhf"
			},
			{
				"type": "unocc",
				"energy": 0.00173,
				"method": "rhf"
			},
			{
				"type": "unocc",
				"energy": 0.03791,
				"method": "rhf"
			},
			{
				"type": "unocc",
				"energy": 0.07489,
				"method": "rhf"
			},
			{
				"type": "unocc",
				"energy": 0.07912,
				"method": "rhf"
			},
			{
				"type": "unocc",
				"energy": 0.10312,
				"method": "rhf"
			}
		],
		"cosmo_sigma_profile": { 
			"-0.025": 0.0,
			"-0.024": 0.0,
			"-0.023": 0.0,
			"-0.022": 0.0,
			"-0.021": 0.0,
			"-0.02": 0.0,
			"-0.019": 0.0,
			"-0.018": 0.0,
			"-0.017": 0.0,
			"-0.016": 0.0,
			"-0.015": 0.432134262895,
			"-0.014": 1.46002110632,
			"-0.013": 1.33888574864,
			"-0.012": 1.32198703776,
			"-0.011": 1.0336838315,
			"-0.01": 1.50486464769,
			"-0.009": 1.77526161971,
			"-0.008": 1.39766169672,
			"-0.007": 1.64073840429,
			"-0.006": 2.34808161343,
			"-0.005": 7.50724292315,
			"-0.004": 12.9100442584,
			"-0.003": 18.25792396,
			"-0.002": 23.2989512171,
			"-0.001": 21.6001219363,
			"0.0": 18.1000659337,
			"0.001": 14.1003763088,
			"0.002": 9.48636118282,
			"0.003": 7.65408680246,
			"0.004": 8.38870911866,
			"0.005": 11.5669991775,
			"0.006": 12.1912695073,
			"0.007": 11.7219544592,
			"0.008": 5.73312454597,
			"0.009": 0.164146879784,
			"0.01": 0.0,
			"0.011": 0.0,
			"0.012": 0.0,
			"0.013": 0.0,
			"0.014": 0.0,
			"0.015": 0.0,
			"0.016": 0.0,
			"0.017": 0.0,
			"0.018": 0.0,
			"0.019": 0.0,
			"0.02": 0.0,
			"0.021": 0.0,
			"0.022": 0.0,
			"0.023": 0.0,
			"0.024": 0.0,
			"0.025": 0.0
		}
	}
}
