{
	 "smiles": "CC1=C(C=CC(=N1)C1=CC=CS1)C(O)=O", 
	 "Tm": 465.15, 
	 "num_atms": 24, 
	 "gaussian": { 
		 "optdone": 1, 
		 "sigma_profile": "yes", 
		 "theory": "DFT", 
		 "functional": "B3LYP", 
		 "basiset": "6-31G**", 
		 "properties": { 
			 "R2extent": 4778.8253, 
			 "electric_dipole_moment_norm": 5.14351393018, 
			 "electric_quadrupole_moment_norm": 12.2081231309, 
			 "total_energy": -1027.98485589, 
			 "HOMO_LUMO_gap": 0.1529, 
			 "cosmo_polarized_energy": -17.02, 
			 "cosmo_cavitation_energy": 30.18, 
			 "cosmo_dispersion_energy": -22.64, 
			 "cosmo_repulsion_energy": 1.7, 
			 "cosmo_total_nonelectrostatic_energy": 9.24, 
			 "SMD_solvation_energy": 5.18 
		},
		"coords": [
			{
				"x": 1.2728605535,
				"y": 2.9347932248,
				"z": -0.0450543231,
				"element": "C" 
			},
			{
				"x": 0.5094835173,
				"y": 1.664799955,
				"z": 0.2275519973,
				"element": "C" 
			},
			{
				"x": -0.8816344432,
				"y": 1.5325948918,
				"z": -0.0126946848,
				"element": "C" 
			},
			{
				"x": -1.4853569698,
				"y": 0.3070982454,
				"z": 0.3052354093,
				"element": "C" 
			},
			{
				"x": -0.7334440262,
				"y": -0.735537269,
				"z": 0.8217716339,
				"element": "C" 
			},
			{
				"x": 0.6442462917,
				"y": -0.5304802605,
				"z": 1.0063801212,
				"element": "C" 
			},
			{
				"x": 1.2294898116,
				"y": 0.6465547046,
				"z": 0.7082568732,
				"element": "N" 
			},
			{
				"x": 1.5248573183,
				"y": -1.5686651885,
				"z": 1.5330900504,
				"element": "C" 
			},
			{
				"x": 1.2335883924,
				"y": -2.8587159072,
				"z": 1.9263522399,
				"element": "C" 
			},
			{
				"x": 2.370643639,
				"y": -3.5742080681,
				"z": 2.3893028857,
				"element": "C" 
			},
			{
				"x": 3.5158036918,
				"y": -2.8207043104,
				"z": 2.3434824702,
				"element": "C" 
			},
			{
				"x": 3.2284654661,
				"y": -1.2278562941,
				"z": 1.736317579,
				"element": "S" 
			},
			{
				"x": -1.6955233026,
				"y": 2.6718428217,
				"z": -0.5363496113,
				"element": "C" 
			},
			{
				"x": -2.7958602132,
				"y": 2.3318991808,
				"z": -1.2684066799,
				"element": "O" 
			},
			{
				"x": -1.4495095722,
				"y": 3.8390298896,
				"z": -0.3404593147,
				"element": "O" 
			},
			{
				"x": 1.0773890169,
				"y": 3.3181294053,
				"z": -1.0504057391,
				"element": "H" 
			},
			{
				"x": 0.9633136268,
				"y": 3.7242573209,
				"z": 0.6453106597,
				"element": "H" 
			},
			{
				"x": 2.3382288505,
				"y": 2.736095332,
				"z": 0.0765886998,
				"element": "H" 
			},
			{
				"x": -2.5581655918,
				"y": 0.1781266813,
				"z": 0.1834418019,
				"element": "H" 
			},
			{
				"x": -1.2005273938,
				"y": -1.6786862693,
				"z": 1.0807254218,
				"element": "H" 
			},
			{
				"x": 0.2377079153,
				"y": -3.2851668497,
				"z": 1.886969916,
				"element": "H" 
			},
			{
				"x": 2.3385876913,
				"y": -4.5994618091,
				"z": 2.7395639723,
				"element": "H" 
			},
			{
				"x": 4.5151660074,
				"y": -3.1149650908,
				"z": 2.6345057577,
				"element": "H" 
			},
			{
				"x": -2.7638102771,
				"y": 1.3936256632,
				"z": -1.5005771364,
				"element": "H" 
			}
		],
		 "valence_orbital": [ 
			{
				"type": "occ",
				"energy": -0.28547,
				"method": "rhf"
			},
			{
				"type": "occ",
				"energy": -0.27698,
				"method": "rhf"
			},
			{
				"type": "occ",
				"energy": -0.26663,
				"method": "rhf"
			},
			{
				"type": "occ",
				"energy": -0.25873,
				"method": "rhf"
			},
			{
				"type": "occ",
				"energy": -0.22694,
				"method": "rhf"
			},
			{
				"type": "unocc",
				"energy": -0.07404,
				"method": "rhf"
			},
			{
				"type": "unocc",
				"energy": -0.03519,
				"method": "rhf"
			},
			{
				"type": "unocc",
				"energy": -0.00963,
				"method": "rhf"
			},
			{
				"type": "unocc",
				"energy": 0.03415,
				"method": "rhf"
			},
			{
				"type": "unocc",
				"energy": 0.03708,
				"method": "rhf"
			}
		],
		"cosmo_sigma_profile": { 
			"-0.025": 0.0,
			"-0.024": 0.0,
			"-0.023": 0.0,
			"-0.022": 0.0,
			"-0.021": 0.0,
			"-0.02": 0.0,
			"-0.019": 0.169126189366,
			"-0.018": 1.08333221447,
			"-0.017": 0.815471809486,
			"-0.016": 1.35776467263,
			"-0.015": 0.685313686068,
			"-0.014": 0.904261229804,
			"-0.013": 1.16045141485,
			"-0.012": 1.42246585204,
			"-0.011": 0.799170784383,
			"-0.01": 1.38365662689,
			"-0.009": 4.2745261739,
			"-0.008": 7.05434289664,
			"-0.007": 9.05102987026,
			"-0.006": 9.85517043398,
			"-0.005": 11.645525616,
			"-0.004": 12.7861462112,
			"-0.003": 12.8631727179,
			"-0.002": 13.3721965827,
			"-0.001": 16.2515230936,
			"0.0": 22.5868689112,
			"0.001": 18.9691697144,
			"0.002": 15.0343849827,
			"0.003": 18.247242719,
			"0.004": 18.3929486781,
			"0.005": 9.24720585419,
			"0.006": 4.79534788997,
			"0.007": 4.29121968999,
			"0.008": 4.64626443169,
			"0.009": 4.95034623375,
			"0.01": 6.12564134199,
			"0.011": 5.31064989934,
			"0.012": 3.50934992187,
			"0.013": 1.29697758407,
			"0.014": 0.00287356747169,
			"0.015": 0.0,
			"0.016": 0.0,
			"0.017": 0.0,
			"0.018": 0.0,
			"0.019": 0.0,
			"0.02": 0.0,
			"0.021": 0.0,
			"0.022": 0.0,
			"0.023": 0.0,
			"0.024": 0.0,
			"0.025": 0.0
		}
	}
}
