{
	 "smiles": "COC(=O)CC[C@H](C)C1CCC2C3[C@@H](C[C@@H]4C[C@@H](CC[C@]4(C)C3CC[C@]12C)OC(C)=O)OC(C)=O", 
	 "Tm": 459.15, 
	 "num_atms": 81, 
	 "gaussian": { 
		 "optdone": 1, 
		 "sigma_profile": "yes", 
		 "theory": "DFT", 
		 "functional": "B3LYP", 
		 "basiset": "6-31G**", 
		 "properties": { 
			 "R2extent": 22363.3393, 
			 "electric_dipole_moment_norm": 3.51850716782, 
			 "electric_quadrupole_moment_norm": 19.1876359117, 
			 "total_energy": -1584.20947371, 
			 "HOMO_LUMO_gap": 0.27357, 
			 "cosmo_polarized_energy": -19.2, 
			 "cosmo_cavitation_energy": 71.0, 
			 "cosmo_dispersion_energy": -45.15, 
			 "cosmo_repulsion_energy": 3.35, 
			 "cosmo_total_nonelectrostatic_energy": 29.19, 
			 "SMD_solvation_energy": 13.71 
		},
		"coords": [
			{
				"x": 5.0699396146,
				"y": 3.0951805682,
				"z": -4.1859658002,
				"element": "C" 
			},
			{
				"x": 4.158997773,
				"y": 3.3939177773,
				"z": -3.1160317554,
				"element": "O" 
			},
			{
				"x": 4.1676112953,
				"y": 2.5158661583,
				"z": -2.0849863338,
				"element": "C" 
			},
			{
				"x": 4.8948683824,
				"y": 1.545116809,
				"z": -2.0468656663,
				"element": "O" 
			},
			{
				"x": 3.1447350533,
				"y": 2.8946144455,
				"z": -1.0351006147,
				"element": "C" 
			},
			{
				"x": 1.6942803159,
				"y": 2.6056975345,
				"z": -1.4829475135,
				"element": "C" 
			},
			{
				"x": 1.3836052898,
				"y": 1.1530644888,
				"z": -1.9170546002,
				"element": "C" 
			},
			{
				"x": -0.0622556654,
				"y": 1.0826911426,
				"z": -2.4418361669,
				"element": "C" 
			},
			{
				"x": 1.814481901,
				"y": 0.0426155623,
				"z": -0.9096697454,
				"element": "C" 
			},
			{
				"x": 1.7670577387,
				"y": -1.3756820352,
				"z": -1.5816625378,
				"element": "C" 
			},
			{
				"x": 0.8748042627,
				"y": -2.2912989422,
				"z": -0.7066035503,
				"element": "C" 
			},
			{
				"x": 0.0571034421,
				"y": -1.3075452827,
				"z": 0.146245341,
				"element": "C" 
			},
			{
				"x": -0.6695035484,
				"y": -1.8103969556,
				"z": 1.4075276155,
				"element": "C" 
			},
			{
				"x": -1.629722317,
				"y": -2.994146952,
				"z": 1.2435427224,
				"element": "C" 
			},
			{
				"x": -2.826108451,
				"y": -2.6285064085,
				"z": 0.3908044866,
				"element": "C" 
			},
			{
				"x": -3.7044246124,
				"y": -1.5636281291,
				"z": 1.07537416,
				"element": "C" 
			},
			{
				"x": -4.8383513644,
				"y": -1.2071198731,
				"z": 0.0711188181,
				"element": "C" 
			},
			{
				"x": -5.4698316177,
				"y": 0.1587753611,
				"z": 0.2862455592,
				"element": "C" 
			},
			{
				"x": -4.4137139662,
				"y": 1.2771367572,
				"z": 0.2068367273,
				"element": "C" 
			},
			{
				"x": -2.9779750174,
				"y": 0.7915619322,
				"z": 0.5292423609,
				"element": "C" 
			},
			{
				"x": -2.9208410201,
				"y": -0.3053257786,
				"z": 1.6231963365,
				"element": "C" 
			},
			{
				"x": -3.6490252211,
				"y": 0.2159578662,
				"z": 2.892378593,
				"element": "C" 
			},
			{
				"x": -1.452377491,
				"y": -0.6649088936,
				"z": 2.1289591764,
				"element": "C" 
			},
			{
				"x": -0.5193272272,
				"y": 0.5621577116,
				"z": 2.332937241,
				"element": "C" 
			},
			{
				"x": 0.3181789515,
				"y": 1.0005710825,
				"z": 1.1076537167,
				"element": "C" 
			},
			{
				"x": 1.0822855286,
				"y": -0.1754958983,
				"z": 0.4708458994,
				"element": "C" 
			},
			{
				"x": 2.1865675283,
				"y": -0.6444957496,
				"z": 1.4557522547,
				"element": "C" 
			},
			{
				"x": -6.4646997631,
				"y": 0.3202504913,
				"z": -0.7650036486,
				"element": "O" 
			},
			{
				"x": -7.4756088247,
				"y": 1.1846138302,
				"z": -0.5179387407,
				"element": "C" 
			},
			{
				"x": -8.4367700986,
				"y": 1.2301365953,
				"z": -1.6835821639,
				"element": "C" 
			},
			{
				"x": -7.585207647,
				"y": 1.8284036709,
				"z": 0.5038796255,
				"element": "O" 
			},
			{
				"x": -0.9955508803,
				"y": -4.1531108917,
				"z": 0.6386507138,
				"element": "O" 
			},
			{
				"x": -0.3349556206,
				"y": -4.9969826521,
				"z": 1.4654576738,
				"element": "C" 
			},
			{
				"x": 0.257856878,
				"y": -6.1494280325,
				"z": 0.6884677273,
				"element": "C" 
			},
			{
				"x": -0.2350685257,
				"y": -4.8378584395,
				"z": 2.6635844807,
				"element": "O" 
			},
			{
				"x": 4.8455303728,
				"y": 2.118989579,
				"z": -4.6235030638,
				"element": "H" 
			},
			{
				"x": 4.9300974889,
				"y": 3.8861685767,
				"z": -4.922842237,
				"element": "H" 
			},
			{
				"x": 6.1010069927,
				"y": 3.0871862381,
				"z": -3.8234707464,
				"element": "H" 
			},
			{
				"x": 3.398012973,
				"y": 2.3483153042,
				"z": -0.1244225167,
				"element": "H" 
			},
			{
				"x": 3.2378129586,
				"y": 3.9658783118,
				"z": -0.8275183785,
				"element": "H" 
			},
			{
				"x": 1.4668283276,
				"y": 3.2637542053,
				"z": -2.3303723843,
				"element": "H" 
			},
			{
				"x": 1.0278269626,
				"y": 2.9139472488,
				"z": -0.6716052288,
				"element": "H" 
			},
			{
				"x": 2.0266915953,
				"y": 0.9577289553,
				"z": -2.7894358926,
				"element": "H" 
			},
			{
				"x": -0.3248120976,
				"y": 0.080529524,
				"z": -2.7933528839,
				"element": "H" 
			},
			{
				"x": -0.1891959849,
				"y": 1.7668391547,
				"z": -3.288521208,
				"element": "H" 
			},
			{
				"x": -0.7951743003,
				"y": 1.3725171418,
				"z": -1.6833374948,
				"element": "H" 
			},
			{
				"x": 2.8623868661,
				"y": 0.2664068445,
				"z": -0.6921659102,
				"element": "H" 
			},
			{
				"x": 1.354269923,
				"y": -1.3029876437,
				"z": -2.5931810125,
				"element": "H" 
			},
			{
				"x": 2.7742615747,
				"y": -1.7872743381,
				"z": -1.6976366406,
				"element": "H" 
			},
			{
				"x": 0.2455972402,
				"y": -2.9558935612,
				"z": -1.3033436062,
				"element": "H" 
			},
			{
				"x": 1.4848938193,
				"y": -2.9355696392,
				"z": -0.0637532069,
				"element": "H" 
			},
			{
				"x": -0.6879907108,
				"y": -0.8536949241,
				"z": -0.5205920756,
				"element": "H" 
			},
			{
				"x": 0.0949611932,
				"y": -2.1476924366,
				"z": 2.1168092519,
				"element": "H" 
			},
			{
				"x": -1.9583641399,
				"y": -3.2984442691,
				"z": 2.2433483431,
				"element": "H" 
			},
			{
				"x": -3.4321348387,
				"y": -3.5217460795,
				"z": 0.1988246876,
				"element": "H" 
			},
			{
				"x": -2.4841091053,
				"y": -2.2706584043,
				"z": -0.5880825439,
				"element": "H" 
			},
			{
				"x": -4.1645948504,
				"y": -2.0481531523,
				"z": 1.9475069575,
				"element": "H" 
			},
			{
				"x": -5.6109388567,
				"y": -1.9830045989,
				"z": 0.0991592231,
				"element": "H" 
			},
			{
				"x": -4.4321028032,
				"y": -1.2176065742,
				"z": -0.9485824577,
				"element": "H" 
			},
			{
				"x": -6.0103854015,
				"y": 0.2022903075,
				"z": 1.2337005952,
				"element": "H" 
			},
			{
				"x": -4.708103033,
				"y": 2.0985834948,
				"z": 0.8656391386,
				"element": "H" 
			},
			{
				"x": -4.4270764486,
				"y": 1.6759530301,
				"z": -0.8135265565,
				"element": "H" 
			},
			{
				"x": -2.5170957469,
				"y": 0.4065441052,
				"z": -0.3871101173,
				"element": "H" 
			},
			{
				"x": -2.3880592566,
				"y": 1.6618069152,
				"z": 0.8274035929,
				"element": "H" 
			},
			{
				"x": -4.6819228058,
				"y": 0.513444852,
				"z": 2.7069002675,
				"element": "H" 
			},
			{
				"x": -3.6692408678,
				"y": -0.558359705,
				"z": 3.6666443976,
				"element": "H" 
			},
			{
				"x": -3.1367113745,
				"y": 1.0879335833,
				"z": 3.3119054924,
				"element": "H" 
			},
			{
				"x": -1.6280327489,
				"y": -1.0651470253,
				"z": 3.1359617409,
				"element": "H" 
			},
			{
				"x": -1.0964470705,
				"y": 1.4208385723,
				"z": 2.6935101906,
				"element": "H" 
			},
			{
				"x": 0.1674154693,
				"y": 0.3173213097,
				"z": 3.1510697987,
				"element": "H" 
			},
			{
				"x": -0.3374429707,
				"y": 1.4563865005,
				"z": 0.3638502706,
				"element": "H" 
			},
			{
				"x": 1.0133936662,
				"y": 1.7857814522,
				"z": 1.4324509007,
				"element": "H" 
			},
			{
				"x": 2.8788962272,
				"y": 0.1839149511,
				"z": 1.6436787875,
				"element": "H" 
			},
			{
				"x": 1.8012113299,
				"y": -0.9695055,
				"z": 2.424632979,
				"element": "H" 
			},
			{
				"x": 2.778233268,
				"y": -1.4686487368,
				"z": 1.0477037774,
				"element": "H" 
			},
			{
				"x": -8.834505753,
				"y": 0.230864946,
				"z": -1.8832791391,
				"element": "H" 
			},
			{
				"x": -7.9137342009,
				"y": 1.5580994528,
				"z": -2.5869370938,
				"element": "H" 
			},
			{
				"x": -9.250747125,
				"y": 1.9177072373,
				"z": -1.45617165,
				"element": "H" 
			},
			{
				"x": 1.0324181887,
				"y": -5.7770066704,
				"z": 0.010521112,
				"element": "H" 
			},
			{
				"x": -0.5086704191,
				"y": -6.6299360397,
				"z": 0.0744232594,
				"element": "H" 
			},
			{
				"x": 0.6931913973,
				"y": -6.8688013666,
				"z": 1.381446889,
				"element": "H" 
			}
		],
		 "valence_orbital": [ 
			{
				"type": "occ",
				"energy": -0.27509,
				"method": "rhf"
			},
			{
				"type": "occ",
				"energy": -0.26855,
				"method": "rhf"
			},
			{
				"type": "occ",
				"energy": -0.26654,
				"method": "rhf"
			},
			{
				"type": "occ",
				"energy": -0.26632,
				"method": "rhf"
			},
			{
				"type": "occ",
				"energy": -0.26279,
				"method": "rhf"
			},
			{
				"type": "unocc",
				"energy": 0.01078,
				"method": "rhf"
			},
			{
				"type": "unocc",
				"energy": 0.01564,
				"method": "rhf"
			},
			{
				"type": "unocc",
				"energy": 0.01615,
				"method": "rhf"
			},
			{
				"type": "unocc",
				"energy": 0.05793,
				"method": "rhf"
			},
			{
				"type": "unocc",
				"energy": 0.07133,
				"method": "rhf"
			}
		],
		"cosmo_sigma_profile": { 
			"-0.025": 0.0,
			"-0.024": 0.0,
			"-0.023": 0.0,
			"-0.022": 0.0,
			"-0.021": 0.0,
			"-0.02": 0.0,
			"-0.019": 0.0,
			"-0.018": 0.0,
			"-0.017": 0.0,
			"-0.016": 0.0,
			"-0.015": 0.0,
			"-0.014": 0.0,
			"-0.013": 0.0,
			"-0.012": 0.0,
			"-0.011": 0.0,
			"-0.01": 0.0,
			"-0.009": 0.0,
			"-0.008": 0.0,
			"-0.007": 1.0123092736,
			"-0.006": 10.6344732301,
			"-0.005": 20.2528604629,
			"-0.004": 31.7384400953,
			"-0.003": 79.3263154614,
			"-0.002": 103.784906554,
			"-0.001": 80.7198522607,
			"0.0": 56.0078889488,
			"0.001": 42.8436075647,
			"0.002": 28.4672079733,
			"0.003": 12.9129058517,
			"0.004": 8.41059617765,
			"0.005": 8.66734267592,
			"0.006": 8.78062319393,
			"0.007": 7.9986916799,
			"0.008": 7.13881657901,
			"0.009": 6.28443175735,
			"0.01": 6.41143568994,
			"0.011": 7.26574109518,
			"0.012": 13.271120932,
			"0.013": 5.69229779282,
			"0.014": 0.213408272161,
			"0.015": 0.0,
			"0.016": 0.0,
			"0.017": 0.0,
			"0.018": 0.0,
			"0.019": 0.0,
			"0.02": 0.0,
			"0.021": 0.0,
			"0.022": 0.0,
			"0.023": 0.0,
			"0.024": 0.0,
			"0.025": 0.0
		}
	}
}
