{
	 "smiles": "OC(=O)C1=CC=C(O1)C1=CC=CS1", 
	 "Tm": 443.15, 
	 "num_atms": 19, 
	 "gaussian": { 
		 "optdone": 1, 
		 "sigma_profile": "yes", 
		 "theory": "DFT", 
		 "functional": "B3LYP", 
		 "basiset": "6-31G**", 
		 "properties": { 
			 "R2extent": 3242.8243, 
			 "electric_dipole_moment_norm": 6.16651440118, 
			 "electric_quadrupole_moment_norm": 11.9653719186, 
			 "total_energy": -970.408698984, 
			 "HOMO_LUMO_gap": 0.14929, 
			 "cosmo_polarized_energy": -13.73, 
			 "cosmo_cavitation_energy": 26.38, 
			 "cosmo_dispersion_energy": -19.76, 
			 "cosmo_repulsion_energy": 1.5, 
			 "cosmo_total_nonelectrostatic_energy": 8.12, 
			 "SMD_solvation_energy": 6.19 
		},
		"coords": [
			{
				"x": 1.9655592962,
				"y": -0.4279450065,
				"z": -2.3873592889,
				"element": "O" 
			},
			{
				"x": 2.3397898299,
				"y": -1.2055433716,
				"z": -1.3408974949,
				"element": "C" 
			},
			{
				"x": 3.2509970944,
				"y": -1.9967443195,
				"z": -1.4305132458,
				"element": "O" 
			},
			{
				"x": 1.5701007147,
				"y": -1.0224887246,
				"z": -0.1035877403,
				"element": "C" 
			},
			{
				"x": 1.6606589169,
				"y": -1.6183640341,
				"z": 1.1247004094,
				"element": "C" 
			},
			{
				"x": 0.650200913,
				"y": -1.0382284916,
				"z": 1.9359210216,
				"element": "C" 
			},
			{
				"x": -0.0076784922,
				"y": -0.1128705853,
				"z": 1.1538754491,
				"element": "C" 
			},
			{
				"x": 0.5495255618,
				"y": -0.097739405,
				"z": -0.094823811,
				"element": "O" 
			},
			{
				"x": -1.107827536,
				"y": 0.7845487521,
				"z": 1.4009030616,
				"element": "C" 
			},
			{
				"x": -1.8239213146,
				"y": 0.946645924,
				"z": 2.5691259314,
				"element": "C" 
			},
			{
				"x": -2.8501925923,
				"y": 1.924713298,
				"z": 2.4631884101,
				"element": "C" 
			},
			{
				"x": -2.9100394283,
				"y": 2.4993566781,
				"z": 1.2214585364,
				"element": "C" 
			},
			{
				"x": -1.7090735131,
				"y": 1.8543360931,
				"z": 0.1529021335,
				"element": "S" 
			},
			{
				"x": 1.222699574,
				"y": 0.1391808361,
				"z": -2.1281395694,
				"element": "H" 
			},
			{
				"x": 2.3749749808,
				"y": -2.3814266065,
				"z": 1.395599205,
				"element": "H" 
			},
			{
				"x": 0.4294630573,
				"y": -1.2686597101,
				"z": 2.967672711,
				"element": "H" 
			},
			{
				"x": -1.6189605274,
				"y": 0.3821283258,
				"z": 3.4713964361,
				"element": "H" 
			},
			{
				"x": -3.5159382889,
				"y": 2.1898037857,
				"z": 3.2761976851,
				"element": "H" 
			},
			{
				"x": -3.5873382461,
				"y": 3.2638965621,
				"z": 0.86728016,
				"element": "H" 
			}
		],
		 "valence_orbital": [ 
			{
				"type": "occ",
				"energy": -0.30782,
				"method": "rhf"
			},
			{
				"type": "occ",
				"energy": -0.28893,
				"method": "rhf"
			},
			{
				"type": "occ",
				"energy": -0.2753,
				"method": "rhf"
			},
			{
				"type": "occ",
				"energy": -0.27007,
				"method": "rhf"
			},
			{
				"type": "occ",
				"energy": -0.21977,
				"method": "rhf"
			},
			{
				"type": "unocc",
				"energy": -0.07048,
				"method": "rhf"
			},
			{
				"type": "unocc",
				"energy": -0.01869,
				"method": "rhf"
			},
			{
				"type": "unocc",
				"energy": 0.01361,
				"method": "rhf"
			},
			{
				"type": "unocc",
				"energy": 0.0291,
				"method": "rhf"
			},
			{
				"type": "unocc",
				"energy": 0.05773,
				"method": "rhf"
			}
		],
		"cosmo_sigma_profile": { 
			"-0.025": 0.0,
			"-0.024": 0.0,
			"-0.023": 0.0,
			"-0.022": 0.0,
			"-0.021": 0.0,
			"-0.02": 0.0,
			"-0.019": 0.0,
			"-0.018": 0.0,
			"-0.017": 0.0,
			"-0.016": 0.465885615448,
			"-0.015": 0.884689568674,
			"-0.014": 0.844541416494,
			"-0.013": 0.82098654677,
			"-0.012": 0.215980914582,
			"-0.011": 1.02094871301,
			"-0.01": 1.30295194069,
			"-0.009": 3.54778666529,
			"-0.008": 9.15478389703,
			"-0.007": 10.7845786578,
			"-0.006": 9.73010748467,
			"-0.005": 10.1017763606,
			"-0.004": 10.4982415385,
			"-0.003": 8.56435107086,
			"-0.002": 10.9826785079,
			"-0.001": 15.3680198377,
			"0.0": 17.1394586728,
			"0.001": 21.0449756474,
			"0.002": 20.1047156099,
			"0.003": 19.0693019327,
			"0.004": 11.5024889254,
			"0.005": 3.51933131131,
			"0.006": 2.55372016946,
			"0.007": 2.79110015047,
			"0.008": 2.24717935938,
			"0.009": 3.47399863945,
			"0.01": 5.13113723629,
			"0.011": 4.28001700992,
			"0.012": 5.96601308093,
			"0.013": 1.93599626426,
			"0.014": 0.113604587515,
			"0.015": 0.0,
			"0.016": 0.0,
			"0.017": 0.0,
			"0.018": 0.0,
			"0.019": 0.0,
			"0.02": 0.0,
			"0.021": 0.0,
			"0.022": 0.0,
			"0.023": 0.0,
			"0.024": 0.0,
			"0.025": 0.0
		}
	}
}
