{
	 "smiles": "CCN(CC)C1=NC(C)=CC(OP(=S)(OC)OC)=N1", 
	 "Tm": 294.15, 
	 "num_atms": 39, 
	 "gaussian": { 
		 "optdone": 1, 
		 "sigma_profile": "yes", 
		 "theory": "DFT", 
		 "functional": "B3LYP", 
		 "basiset": "6-31G**", 
		 "properties": { 
			 "R2extent": 7280.7554, 
			 "electric_dipole_moment_norm": 1.53570517353, 
			 "electric_quadrupole_moment_norm": 17.3726037464, 
			 "total_energy": -1560.78198089, 
			 "HOMO_LUMO_gap": 0.18636, 
			 "cosmo_polarized_energy": -13.35, 
			 "cosmo_cavitation_energy": 45.31, 
			 "cosmo_dispersion_energy": -29.91, 
			 "cosmo_repulsion_energy": 2.29, 
			 "cosmo_total_nonelectrostatic_energy": 17.69, 
			 "SMD_solvation_energy": 8.54 
		},
		"coords": [
			{
				"x": -2.3629582973,
				"y": -1.5025113562,
				"z": 1.1871639128,
				"element": "C" 
			},
			{
				"x": -1.9290721797,
				"y": -0.1336807141,
				"z": 1.7202948546,
				"element": "C" 
			},
			{
				"x": -0.5092295619,
				"y": -0.074633505,
				"z": 2.0768211163,
				"element": "N" 
			},
			{
				"x": -0.1225812772,
				"y": -0.4206978012,
				"z": 3.4458511297,
				"element": "C" 
			},
			{
				"x": -0.0636434724,
				"y": 0.791749166,
				"z": 4.3800850022,
				"element": "C" 
			},
			{
				"x": 0.4329257339,
				"y": 0.2825301993,
				"z": 1.1602014837,
				"element": "C" 
			},
			{
				"x": 1.7151988237,
				"y": 0.3595588574,
				"z": 1.5726756632,
				"element": "N" 
			},
			{
				"x": 2.6303089705,
				"y": 0.7033596071,
				"z": 0.6565971301,
				"element": "C" 
			},
			{
				"x": 4.0571206139,
				"y": 0.7764593846,
				"z": 1.133986403,
				"element": "C" 
			},
			{
				"x": 2.2899985772,
				"y": 0.9820028571,
				"z": -0.6682549257,
				"element": "C" 
			},
			{
				"x": 0.9305363546,
				"y": 0.8771824683,
				"z": -0.965331012,
				"element": "C" 
			},
			{
				"x": 0.5552894127,
				"y": 1.1691498684,
				"z": -2.2569516633,
				"element": "O" 
			},
			{
				"x": -0.8926335152,
				"y": 0.8034563007,
				"z": -2.9343959595,
				"element": "P" 
			},
			{
				"x": -1.4342642399,
				"y": -1.0551930468,
				"z": -2.9908482552,
				"element": "S" 
			},
			{
				"x": -0.669138764,
				"y": 1.5158768581,
				"z": -4.3652441387,
				"element": "O" 
			},
			{
				"x": 0.0762039803,
				"y": 0.8656736164,
				"z": -5.4094288717,
				"element": "C" 
			},
			{
				"x": -1.8500930683,
				"y": 1.876630617,
				"z": -2.2233974868,
				"element": "O" 
			},
			{
				"x": -3.2591152564,
				"y": 1.8979460236,
				"z": -2.5184159715,
				"element": "C" 
			},
			{
				"x": 0.0005293621,
				"y": 0.538700763,
				"z": -0.1006967629,
				"element": "N" 
			},
			{
				"x": -1.8501792429,
				"y": -1.7246774871,
				"z": 0.2479360822,
				"element": "H" 
			},
			{
				"x": -2.142588444,
				"y": -2.2987358211,
				"z": 1.9065164693,
				"element": "H" 
			},
			{
				"x": -3.4417893269,
				"y": -1.509865308,
				"z": 0.9965419461,
				"element": "H" 
			},
			{
				"x": -2.4981840814,
				"y": 0.1242780841,
				"z": 2.6207467431,
				"element": "H" 
			},
			{
				"x": -2.1281490017,
				"y": 0.6351996324,
				"z": 0.9717969364,
				"element": "H" 
			},
			{
				"x": 0.8521332474,
				"y": -0.9106582046,
				"z": 3.4154803215,
				"element": "H" 
			},
			{
				"x": -0.8516387133,
				"y": -1.1508220461,
				"z": 3.8142038887,
				"element": "H" 
			},
			{
				"x": -1.0252538919,
				"y": 1.3145914851,
				"z": 4.4182269315,
				"element": "H" 
			},
			{
				"x": 0.1911573379,
				"y": 0.4771630497,
				"z": 5.39805135,
				"element": "H" 
			},
			{
				"x": 0.6996493065,
				"y": 1.4941665241,
				"z": 4.0354462463,
				"element": "H" 
			},
			{
				"x": 4.3693664293,
				"y": -0.1944340085,
				"z": 1.5319021572,
				"element": "H" 
			},
			{
				"x": 4.7401653798,
				"y": 1.0668448877,
				"z": 0.3323446927,
				"element": "H" 
			},
			{
				"x": 4.141891327,
				"y": 1.4991823533,
				"z": 1.9518680717,
				"element": "H" 
			},
			{
				"x": 3.0162376249,
				"y": 1.2602244352,
				"z": -1.4199380523,
				"element": "H" 
			},
			{
				"x": -0.3133943074,
				"y": -0.1392320721,
				"z": -5.593664768,
				"element": "H" 
			},
			{
				"x": 1.1352630722,
				"y": 0.8107881637,
				"z": -5.1403492936,
				"element": "H" 
			},
			{
				"x": -0.0456225276,
				"y": 1.4843968578,
				"z": -6.2993878064,
				"element": "H" 
			},
			{
				"x": -3.7014240842,
				"y": 0.9110696505,
				"z": -2.3573804225,
				"element": "H" 
			},
			{
				"x": -3.4255576297,
				"y": 2.2178724992,
				"z": -3.5510546589,
				"element": "H" 
			},
			{
				"x": -3.6987646705,
				"y": 2.6219871606,
				"z": -1.8316984833,
				"element": "H" 
			}
		],
		 "valence_orbital": [ 
			{
				"type": "occ",
				"energy": -0.28166,
				"method": "rhf"
			},
			{
				"type": "occ",
				"energy": -0.24925,
				"method": "rhf"
			},
			{
				"type": "occ",
				"energy": -0.24129,
				"method": "rhf"
			},
			{
				"type": "occ",
				"energy": -0.23488,
				"method": "rhf"
			},
			{
				"type": "occ",
				"energy": -0.20547,
				"method": "rhf"
			},
			{
				"type": "unocc",
				"energy": -0.01911,
				"method": "rhf"
			},
			{
				"type": "unocc",
				"energy": 0.01007,
				"method": "rhf"
			},
			{
				"type": "unocc",
				"energy": 0.04286,
				"method": "rhf"
			},
			{
				"type": "unocc",
				"energy": 0.0575,
				"method": "rhf"
			},
			{
				"type": "unocc",
				"energy": 0.06308,
				"method": "rhf"
			}
		],
		"cosmo_sigma_profile": { 
			"-0.025": 0.0,
			"-0.024": 0.0,
			"-0.023": 0.0,
			"-0.022": 0.0,
			"-0.021": 0.0,
			"-0.02": 0.0,
			"-0.019": 0.0,
			"-0.018": 0.0,
			"-0.017": 0.0,
			"-0.016": 0.0,
			"-0.015": 0.0,
			"-0.014": 0.0,
			"-0.013": 0.0,
			"-0.012": 0.0,
			"-0.011": 0.0,
			"-0.01": 0.0,
			"-0.009": 0.0,
			"-0.008": 0.0979991358696,
			"-0.007": 5.51005749466,
			"-0.006": 12.5511244016,
			"-0.005": 22.7725722492,
			"-0.004": 35.4469823948,
			"-0.003": 33.7329211067,
			"-0.002": 32.7855189779,
			"-0.001": 34.6551905321,
			"0.0": 36.0618694095,
			"0.001": 33.4776436666,
			"0.002": 23.5896867038,
			"0.003": 16.3248024926,
			"0.004": 14.0808847599,
			"0.005": 12.314804167,
			"0.006": 13.4313585821,
			"0.007": 12.8143327915,
			"0.008": 10.6284322418,
			"0.009": 5.0205981804,
			"0.01": 1.82633830232,
			"0.011": 0.424304086254,
			"0.012": 0.453646718941,
			"0.013": 0.0270274803068,
			"0.014": 0.0,
			"0.015": 0.0,
			"0.016": 0.0,
			"0.017": 0.0,
			"0.018": 0.0,
			"0.019": 0.0,
			"0.02": 0.0,
			"0.021": 0.0,
			"0.022": 0.0,
			"0.023": 0.0,
			"0.024": 0.0,
			"0.025": 0.0
		}
	}
}
