{
	 "smiles": "CC(C)NNC(=O)COC1=CC=C(Cl)C=C1", 
	 "Tm": 366.65, 
	 "num_atms": 31, 
	 "gaussian": { 
		 "optdone": 1, 
		 "sigma_profile": "yes", 
		 "theory": "DFT", 
		 "functional": "B3LYP", 
		 "basiset": "6-31G**", 
		 "properties": { 
			 "R2extent": 8524.5515, 
			 "electric_dipole_moment_norm": 6.54738330709, 
			 "electric_quadrupole_moment_norm": 12.3234742289, 
			 "total_energy": -1148.32620757, 
			 "HOMO_LUMO_gap": 0.2211, 
			 "cosmo_polarized_energy": -15.59, 
			 "cosmo_cavitation_energy": 36.65, 
			 "cosmo_dispersion_energy": -25.4, 
			 "cosmo_repulsion_energy": 2.03, 
			 "cosmo_total_nonelectrostatic_energy": 13.28, 
			 "SMD_solvation_energy": 6.81 
		},
		"coords": [
			{
				"x": 0.681843345,
				"y": -1.2457983115,
				"z": 2.8950615352,
				"element": "C" 
			},
			{
				"x": -0.5221621755,
				"y": -0.7567118255,
				"z": 2.0882930568,
				"element": "C" 
			},
			{
				"x": -0.6664860077,
				"y": -1.5018134355,
				"z": 0.7615348456,
				"element": "C" 
			},
			{
				"x": -0.3479881818,
				"y": 0.6924233931,
				"z": 1.8493792041,
				"element": "N" 
			},
			{
				"x": -1.5001556007,
				"y": 1.3205196446,
				"z": 1.3635122311,
				"element": "N" 
			},
			{
				"x": -1.5265904533,
				"y": 2.040459309,
				"z": 0.1959902013,
				"element": "C" 
			},
			{
				"x": -2.5550914427,
				"y": 2.5680030231,
				"z": -0.1959674801,
				"element": "O" 
			},
			{
				"x": -0.1814204443,
				"y": 2.142198723,
				"z": -0.5420845187,
				"element": "C" 
			},
			{
				"x": -0.2834216589,
				"y": 2.9462605786,
				"z": -1.7019342191,
				"element": "O" 
			},
			{
				"x": -0.7064916648,
				"y": 2.3167420711,
				"z": -2.8573919079,
				"element": "C" 
			},
			{
				"x": 0.2028996655,
				"y": 1.5769152038,
				"z": -3.6186479076,
				"element": "C" 
			},
			{
				"x": -0.2006114598,
				"y": 0.9956628632,
				"z": -4.8210397903,
				"element": "C" 
			},
			{
				"x": -1.5151386129,
				"y": 1.1705750157,
				"z": -5.2517202106,
				"element": "C" 
			},
			{
				"x": -2.0297833462,
				"y": 0.4429720699,
				"z": -6.7711220798,
				"element": "Cl" 
			},
			{
				"x": -2.4282825167,
				"y": 1.9124573409,
				"z": -4.5019785752,
				"element": "C" 
			},
			{
				"x": -2.0216120196,
				"y": 2.4848403711,
				"z": -3.2970572412,
				"element": "C" 
			},
			{
				"x": 0.7604758364,
				"y": -0.7262486627,
				"z": 3.8573117801,
				"element": "H" 
			},
			{
				"x": 0.5924549253,
				"y": -2.3154576358,
				"z": 3.1029479759,
				"element": "H" 
			},
			{
				"x": 1.6099230951,
				"y": -1.0787836205,
				"z": 2.3389019502,
				"element": "H" 
			},
			{
				"x": -1.4368831017,
				"y": -0.9311060941,
				"z": 2.685165625,
				"element": "H" 
			},
			{
				"x": 0.2504868888,
				"y": -1.4130010521,
				"z": 0.1695065644,
				"element": "H" 
			},
			{
				"x": -1.4983584461,
				"y": -1.105192802,
				"z": 0.172968789,
				"element": "H" 
			},
			{
				"x": -0.859142953,
				"y": -2.5639487442,
				"z": 0.9413055,
				"element": "H" 
			},
			{
				"x": -0.0696075431,
				"y": 1.1462586769,
				"z": 2.7186380904,
				"element": "H" 
			},
			{
				"x": -2.3836269236,
				"y": 1.248327913,
				"z": 1.8643563604,
				"element": "H" 
			},
			{
				"x": 0.5541237376,
				"y": 2.6155448651,
				"z": 0.1146969798,
				"element": "H" 
			},
			{
				"x": 0.1927201988,
				"y": 1.1377260166,
				"z": -0.7727689892,
				"element": "H" 
			},
			{
				"x": 1.2278497473,
				"y": 1.4739568213,
				"z": -3.2754608692,
				"element": "H" 
			},
			{
				"x": 0.4979509994,
				"y": 0.4235077756,
				"z": -5.42157181,
				"element": "H" 
			},
			{
				"x": -3.4465924554,
				"y": 2.0354969901,
				"z": -4.8541335137,
				"element": "H" 
			},
			{
				"x": -2.7075814315,
				"y": 3.0454135181,
				"z": -2.6737915768,
				"element": "H" 
			}
		],
		 "valence_orbital": [ 
			{
				"type": "occ",
				"energy": -0.2765,
				"method": "rhf"
			},
			{
				"type": "occ",
				"energy": -0.26257,
				"method": "rhf"
			},
			{
				"type": "occ",
				"energy": -0.25507,
				"method": "rhf"
			},
			{
				"type": "occ",
				"energy": -0.2503,
				"method": "rhf"
			},
			{
				"type": "occ",
				"energy": -0.22779,
				"method": "rhf"
			},
			{
				"type": "unocc",
				"energy": -0.00669,
				"method": "rhf"
			},
			{
				"type": "unocc",
				"energy": -0.00048,
				"method": "rhf"
			},
			{
				"type": "unocc",
				"energy": 0.02343,
				"method": "rhf"
			},
			{
				"type": "unocc",
				"energy": 0.03765,
				"method": "rhf"
			},
			{
				"type": "unocc",
				"energy": 0.05835,
				"method": "rhf"
			}
		],
		"cosmo_sigma_profile": { 
			"-0.025": 0.0,
			"-0.024": 0.0,
			"-0.023": 0.0,
			"-0.022": 0.0,
			"-0.021": 0.0,
			"-0.02": 0.0,
			"-0.019": 0.0,
			"-0.018": 0.0,
			"-0.017": 0.0,
			"-0.016": 0.0,
			"-0.015": 0.0,
			"-0.014": 0.0,
			"-0.013": 0.792053046276,
			"-0.012": 1.64107421195,
			"-0.011": 2.43519227685,
			"-0.01": 2.98580139221,
			"-0.009": 2.91968974962,
			"-0.008": 3.30125179449,
			"-0.007": 7.81086341704,
			"-0.006": 11.2266290872,
			"-0.005": 12.8378334583,
			"-0.004": 18.2778227324,
			"-0.003": 25.3677573567,
			"-0.002": 26.7207772903,
			"-0.001": 25.3846535583,
			"0.0": 24.016439935,
			"0.001": 23.2464030555,
			"0.002": 20.9918034208,
			"0.003": 22.300226038,
			"0.004": 16.8735047409,
			"0.005": 12.2041765394,
			"0.006": 3.42183766161,
			"0.007": 4.32984957367,
			"0.008": 3.02112771112,
			"0.009": 3.12229045523,
			"0.01": 3.16332907048,
			"0.011": 3.10922118737,
			"0.012": 3.2351417817,
			"0.013": 4.0909277226,
			"0.014": 1.97478225583,
			"0.015": 0.139382928163,
			"0.016": 0.0,
			"0.017": 0.0,
			"0.018": 0.0,
			"0.019": 0.0,
			"0.02": 0.0,
			"0.021": 0.0,
			"0.022": 0.0,
			"0.023": 0.0,
			"0.024": 0.0,
			"0.025": 0.0
		}
	}
}
