{
	 "smiles": "OC(=O)C1=CC(NC(=O)CCCC2=CC=CS2)=CC=C1", 
	 "Tm": 472.15, 
	 "num_atms": 35, 
	 "gaussian": { 
		 "optdone": 1, 
		 "sigma_profile": "yes", 
		 "theory": "DFT", 
		 "functional": "B3LYP", 
		 "basiset": "6-31G**", 
		 "properties": { 
			 "R2extent": 9149.9896, 
			 "electric_dipole_moment_norm": 5.43627788657, 
			 "electric_quadrupole_moment_norm": 27.0668203456, 
			 "total_energy": -1259.26057454, 
			 "HOMO_LUMO_gap": 0.15642, 
			 "cosmo_polarized_energy": -23.52, 
			 "cosmo_cavitation_energy": 41.29, 
			 "cosmo_dispersion_energy": -29.05, 
			 "cosmo_repulsion_energy": 2.2, 
			 "cosmo_total_nonelectrostatic_energy": 14.45, 
			 "SMD_solvation_energy": 8.18 
		},
		"coords": [
			{
				"x": 1.0987083354,
				"y": -0.3129488348,
				"z": -5.4992234511,
				"element": "O" 
			},
			{
				"x": 0.7415424969,
				"y": -0.4216997877,
				"z": -4.1926060685,
				"element": "C" 
			},
			{
				"x": 1.1779717495,
				"y": -1.3244889046,
				"z": -3.518836159,
				"element": "O" 
			},
			{
				"x": -0.1969638675,
				"y": 0.6238075479,
				"z": -3.6603201343,
				"element": "C" 
			},
			{
				"x": -0.2539757934,
				"y": 0.7733763822,
				"z": -2.2695567806,
				"element": "C" 
			},
			{
				"x": -1.0946100245,
				"y": 1.7320913492,
				"z": -1.6942046078,
				"element": "C" 
			},
			{
				"x": -1.1939564306,
				"y": 1.9258495417,
				"z": -0.3020858679,
				"element": "N" 
			},
			{
				"x": -0.2534075887,
				"y": 1.9438920241,
				"z": 0.7215455788,
				"element": "C" 
			},
			{
				"x": -0.6439412679,
				"y": 2.1415916131,
				"z": 1.8650680149,
				"element": "O" 
			},
			{
				"x": 1.2181669525,
				"y": 1.7531767237,
				"z": 0.398508098,
				"element": "C" 
			},
			{
				"x": 1.7717326767,
				"y": 0.3910225141,
				"z": 0.8774752192,
				"element": "C" 
			},
			{
				"x": 1.8369601882,
				"y": 0.2532940692,
				"z": 2.4137348088,
				"element": "C" 
			},
			{
				"x": 2.3910212901,
				"y": -1.0685360208,
				"z": 2.8669050108,
				"element": "C" 
			},
			{
				"x": 3.6554472023,
				"y": -1.3558301871,
				"z": 3.3116500486,
				"element": "C" 
			},
			{
				"x": 3.8545178878,
				"y": -2.7344090821,
				"z": 3.6323150342,
				"element": "C" 
			},
			{
				"x": 2.7357447349,
				"y": -3.4910343016,
				"z": 3.4264584849,
				"element": "C" 
			},
			{
				"x": 1.4185680541,
				"y": -2.5241033332,
				"z": 2.8396414183,
				"element": "S" 
			},
			{
				"x": -1.9268085364,
				"y": 2.4967666938,
				"z": -2.5318846576,
				"element": "C" 
			},
			{
				"x": -1.9054307944,
				"y": 2.3125897277,
				"z": -3.910513638,
				"element": "C" 
			},
			{
				"x": -1.0332574402,
				"y": 1.3869281188,
				"z": -4.4847418153,
				"element": "C" 
			},
			{
				"x": 0.8056150841,
				"y": 0.5362696176,
				"z": -5.8574139913,
				"element": "H" 
			},
			{
				"x": 0.3491946584,
				"y": 0.1098780745,
				"z": -1.6627833503,
				"element": "H" 
			},
			{
				"x": -2.106196649,
				"y": 2.1949335535,
				"z": 0.048306191,
				"element": "H" 
			},
			{
				"x": 1.7402786587,
				"y": 2.5571785166,
				"z": 0.9290908954,
				"element": "H" 
			},
			{
				"x": 1.4152052091,
				"y": 1.8824906712,
				"z": -0.6678235883,
				"element": "H" 
			},
			{
				"x": 2.7790343453,
				"y": 0.2649909847,
				"z": 0.4652329674,
				"element": "H" 
			},
			{
				"x": 1.16963833,
				"y": -0.4274942873,
				"z": 0.4639223001,
				"element": "H" 
			},
			{
				"x": 2.4811166462,
				"y": 1.0459367688,
				"z": 2.8138609928,
				"element": "H" 
			},
			{
				"x": 0.8429781882,
				"y": 0.429493116,
				"z": 2.836123915,
				"element": "H" 
			},
			{
				"x": 4.424638367,
				"y": -0.5968189948,
				"z": 3.4116460245,
				"element": "H" 
			},
			{
				"x": 4.7895942861,
				"y": -3.1401546099,
				"z": 4.002132791,
				"element": "H" 
			},
			{
				"x": 2.6001495084,
				"y": -4.5515190593,
				"z": 3.5868913932,
				"element": "H" 
			},
			{
				"x": -2.5885449804,
				"y": 3.237191429,
				"z": -2.0910239198,
				"element": "H" 
			},
			{
				"x": -2.5681253913,
				"y": 2.8975769234,
				"z": -4.5406878196,
				"element": "H" 
			},
			{
				"x": -1.0528060855,
				"y": 1.2360114424,
				"z": -5.5607033377,
				"element": "H" 
			}
		],
		 "valence_orbital": [ 
			{
				"type": "occ",
				"energy": -0.2749,
				"method": "rhf"
			},
			{
				"type": "occ",
				"energy": -0.26083,
				"method": "rhf"
			},
			{
				"type": "occ",
				"energy": -0.24446,
				"method": "rhf"
			},
			{
				"type": "occ",
				"energy": -0.24013,
				"method": "rhf"
			},
			{
				"type": "occ",
				"energy": -0.218,
				"method": "rhf"
			},
			{
				"type": "unocc",
				"energy": -0.06158,
				"method": "rhf"
			},
			{
				"type": "unocc",
				"energy": -0.0352,
				"method": "rhf"
			},
			{
				"type": "unocc",
				"energy": -0.00181,
				"method": "rhf"
			},
			{
				"type": "unocc",
				"energy": 0.01219,
				"method": "rhf"
			},
			{
				"type": "unocc",
				"energy": 0.03871,
				"method": "rhf"
			}
		],
		"cosmo_sigma_profile": { 
			"-0.025": 0.0,
			"-0.024": 0.0,
			"-0.023": 0.0,
			"-0.022": 0.0,
			"-0.021": 0.0,
			"-0.02": 0.0,
			"-0.019": 0.198507282777,
			"-0.018": 1.00178894363,
			"-0.017": 0.880254496654,
			"-0.016": 1.11061258141,
			"-0.015": 1.11989782739,
			"-0.014": 1.46488015155,
			"-0.013": 2.20089913822,
			"-0.012": 2.77240965605,
			"-0.011": 2.01052339595,
			"-0.01": 2.30990810587,
			"-0.009": 2.89715038695,
			"-0.008": 4.97259018916,
			"-0.007": 9.88827298071,
			"-0.006": 13.6650897883,
			"-0.005": 18.5906031111,
			"-0.004": 26.7181718316,
			"-0.003": 28.7478496995,
			"-0.002": 23.948556719,
			"-0.001": 21.1866428434,
			"0.0": 19.7836322904,
			"0.001": 19.0141782518,
			"0.002": 22.4121791485,
			"0.003": 22.3175691344,
			"0.004": 12.637105557,
			"0.005": 16.0591237945,
			"0.006": 11.132034383,
			"0.007": 5.62628758535,
			"0.008": 3.90373003887,
			"0.009": 4.41678928387,
			"0.01": 6.79798464295,
			"0.011": 6.21664794743,
			"0.012": 7.04790671949,
			"0.013": 5.92941819892,
			"0.014": 1.97348283623,
			"0.015": 0.0,
			"0.016": 0.0,
			"0.017": 0.0,
			"0.018": 0.0,
			"0.019": 0.0,
			"0.02": 0.0,
			"0.021": 0.0,
			"0.022": 0.0,
			"0.023": 0.0,
			"0.024": 0.0,
			"0.025": 0.0
		}
	}
}
