{
	 "smiles": "OC(=O)C1=CC(F)=C(NC(=O)N2CCCCC2)C=C1", 
	 "Tm": 453.15, 
	 "num_atms": 34, 
	 "gaussian": { 
		 "optdone": 1, 
		 "sigma_profile": "yes", 
		 "theory": "DFT", 
		 "functional": "B3LYP", 
		 "basiset": "6-31G**", 
		 "properties": { 
			 "R2extent": 7528.0663, 
			 "electric_dipole_moment_norm": 4.60356387704, 
			 "electric_quadrupole_moment_norm": 34.1718489694, 
			 "total_energy": -939.46219428, 
			 "HOMO_LUMO_gap": 0.17874, 
			 "cosmo_polarized_energy": -20.14, 
			 "cosmo_cavitation_energy": 36.7, 
			 "cosmo_dispersion_energy": -26.21, 
			 "cosmo_repulsion_energy": 1.98, 
			 "cosmo_total_nonelectrostatic_energy": 12.46, 
			 "SMD_solvation_energy": 7.8 
		},
		"coords": [
			{
				"x": 1.5264184454,
				"y": 4.9128322848,
				"z": 3.74582409,
				"element": "O" 
			},
			{
				"x": 1.5096943095,
				"y": 3.5727138875,
				"z": 3.5034123132,
				"element": "C" 
			},
			{
				"x": 1.5603426311,
				"y": 2.794939286,
				"z": 4.4279978673,
				"element": "O" 
			},
			{
				"x": 1.4257623559,
				"y": 3.1441677242,
				"z": 2.0745135276,
				"element": "C" 
			},
			{
				"x": 1.73690726,
				"y": 3.9879811461,
				"z": 0.9945948679,
				"element": "C" 
			},
			{
				"x": 1.634897576,
				"y": 3.5031932865,
				"z": -0.2930914413,
				"element": "C" 
			},
			{
				"x": 1.9601821072,
				"y": 4.3030479967,
				"z": -1.3381648511,
				"element": "F" 
			},
			{
				"x": 1.2308000436,
				"y": 2.1884879549,
				"z": -0.5895353655,
				"element": "C" 
			},
			{
				"x": 1.1605073008,
				"y": 1.8284656357,
				"z": -1.9348433829,
				"element": "N" 
			},
			{
				"x": 0.9648015527,
				"y": 0.5389532719,
				"z": -2.4933221923,
				"element": "C" 
			},
			{
				"x": 1.7405981941,
				"y": 0.1301580061,
				"z": -3.3471202658,
				"element": "O" 
			},
			{
				"x": -0.1234649199,
				"y": -0.178331081,
				"z": -2.0604725204,
				"element": "N" 
			},
			{
				"x": -0.2608318605,
				"y": -1.5178282585,
				"z": -2.6711002498,
				"element": "C" 
			},
			{
				"x": -1.5155102379,
				"y": -2.2339847299,
				"z": -2.1448833665,
				"element": "C" 
			},
			{
				"x": -1.7588487936,
				"y": -1.8947106916,
				"z": -0.6701715903,
				"element": "C" 
			},
			{
				"x": -2.0569460226,
				"y": -0.3867603067,
				"z": -0.5095404009,
				"element": "C" 
			},
			{
				"x": -1.3828692624,
				"y": 0.4435373603,
				"z": -1.6219627337,
				"element": "C" 
			},
			{
				"x": 0.9574362974,
				"y": 1.3462531251,
				"z": 0.5013067662,
				"element": "C" 
			},
			{
				"x": 1.0572926866,
				"y": 1.8202820517,
				"z": 1.8051536541,
				"element": "C" 
			},
			{
				"x": 1.3010485817,
				"y": 5.403306073,
				"z": 2.9437812121,
				"element": "H" 
			},
			{
				"x": 2.097297564,
				"y": 5.0043104953,
				"z": 1.1229093921,
				"element": "H" 
			},
			{
				"x": 1.7764578605,
				"y": 2.3689609762,
				"z": -2.5301367767,
				"element": "H" 
			},
			{
				"x": 0.6394583298,
				"y": -2.0862474319,
				"z": -2.4192497843,
				"element": "H" 
			},
			{
				"x": -0.2799419682,
				"y": -1.4312770345,
				"z": -3.7647049233,
				"element": "H" 
			},
			{
				"x": -1.3868455377,
				"y": -3.3116950626,
				"z": -2.2878628773,
				"element": "H" 
			},
			{
				"x": -2.3945846975,
				"y": -1.9481156995,
				"z": -2.7361349076,
				"element": "H" 
			},
			{
				"x": -2.5809401725,
				"y": -2.4914942572,
				"z": -0.2622559655,
				"element": "H" 
			},
			{
				"x": -0.864469325,
				"y": -2.1617049817,
				"z": -0.0936134756,
				"element": "H" 
			},
			{
				"x": -3.1365594468,
				"y": -0.2042813408,
				"z": -0.558914904,
				"element": "H" 
			},
			{
				"x": -1.7264298261,
				"y": -0.0401937424,
				"z": 0.4745495422,
				"element": "H" 
			},
			{
				"x": -2.053635206,
				"y": 0.520750117,
				"z": -2.4902780083,
				"element": "H" 
			},
			{
				"x": -1.186674169,
				"y": 1.4609863141,
				"z": -1.2883145054,
				"element": "H" 
			},
			{
				"x": 0.68643257,
				"y": 0.3147812504,
				"z": 0.3150019729,
				"element": "H" 
			},
			{
				"x": 0.8576157794,
				"y": 1.1641163745,
				"z": 2.6450292828,
				"element": "H" 
			}
		],
		 "valence_orbital": [ 
			{
				"type": "occ",
				"energy": -0.28038,
				"method": "rhf"
			},
			{
				"type": "occ",
				"energy": -0.27511,
				"method": "rhf"
			},
			{
				"type": "occ",
				"energy": -0.27106,
				"method": "rhf"
			},
			{
				"type": "occ",
				"energy": -0.24973,
				"method": "rhf"
			},
			{
				"type": "occ",
				"energy": -0.23193,
				"method": "rhf"
			},
			{
				"type": "unocc",
				"energy": -0.05319,
				"method": "rhf"
			},
			{
				"type": "unocc",
				"energy": -0.02427,
				"method": "rhf"
			},
			{
				"type": "unocc",
				"energy": 0.01783,
				"method": "rhf"
			},
			{
				"type": "unocc",
				"energy": 0.0515,
				"method": "rhf"
			},
			{
				"type": "unocc",
				"energy": 0.05785,
				"method": "rhf"
			}
		],
		"cosmo_sigma_profile": { 
			"-0.025": 0.0,
			"-0.024": 0.0,
			"-0.023": 0.0,
			"-0.022": 0.0,
			"-0.021": 0.0,
			"-0.02": 0.0,
			"-0.019": 0.376793279065,
			"-0.018": 0.992514474953,
			"-0.017": 0.993667913785,
			"-0.016": 0.956472846222,
			"-0.015": 1.21198213001,
			"-0.014": 1.02315636201,
			"-0.013": 0.939862711272,
			"-0.012": 2.17093828782,
			"-0.011": 2.36648618161,
			"-0.01": 1.97365610342,
			"-0.009": 2.38730802914,
			"-0.008": 3.064329791,
			"-0.007": 2.75332168471,
			"-0.006": 4.17702289163,
			"-0.005": 8.32558866645,
			"-0.004": 22.4757391014,
			"-0.003": 35.3056406087,
			"-0.002": 37.0155281142,
			"-0.001": 32.5155597469,
			"0.0": 26.7486676534,
			"0.001": 19.4803820741,
			"0.002": 12.9577243232,
			"0.003": 12.2124449366,
			"0.004": 8.221816185,
			"0.005": 3.81502682123,
			"0.006": 2.99037426211,
			"0.007": 3.87289640839,
			"0.008": 4.90896450044,
			"0.009": 3.63502501356,
			"0.01": 5.62511555579,
			"0.011": 6.78518489608,
			"0.012": 7.65262676917,
			"0.013": 7.44897684881,
			"0.014": 2.42464048788,
			"0.015": 0.0,
			"0.016": 0.0,
			"0.017": 0.0,
			"0.018": 0.0,
			"0.019": 0.0,
			"0.02": 0.0,
			"0.021": 0.0,
			"0.022": 0.0,
			"0.023": 0.0,
			"0.024": 0.0,
			"0.025": 0.0
		}
	}
}
