{
	 "smiles": "CC(=O)C1C(=O)C2=CC=CC(=C2C1=O)[N+]([O-])=O", 
	 "Tm": 421.15, 
	 "num_atms": 24, 
	 "gaussian": { 
		 "optdone": 1, 
		 "sigma_profile": "yes", 
		 "theory": "DFT", 
		 "functional": "B3LYP", 
		 "basiset": "6-31G**", 
		 "properties": { 
			 "R2extent": 4223.025, 
			 "electric_dipole_moment_norm": 3.14257739443, 
			 "electric_quadrupole_moment_norm": 30.4684066183, 
			 "total_energy": -854.137520268, 
			 "HOMO_LUMO_gap": 0.15525, 
			 "cosmo_polarized_energy": -19.05, 
			 "cosmo_cavitation_energy": 30.59, 
			 "cosmo_dispersion_energy": -21.31, 
			 "cosmo_repulsion_energy": 1.65, 
			 "cosmo_total_nonelectrostatic_energy": 10.93, 
			 "SMD_solvation_energy": 9.21 
		},
		"coords": [
			{
				"x": -0.2265257922,
				"y": -3.2848010333,
				"z": 0.460142741,
				"element": "C" 
			},
			{
				"x": 0.2011163564,
				"y": -2.083544784,
				"z": -0.3449436068,
				"element": "C" 
			},
			{
				"x": 1.3545973718,
				"y": -1.7990264761,
				"z": -0.5821664137,
				"element": "O" 
			},
			{
				"x": -0.9471390264,
				"y": -1.1598943879,
				"z": -0.8238329991,
				"element": "C" 
			},
			{
				"x": -0.5265150263,
				"y": -0.2631879122,
				"z": -1.9904326867,
				"element": "C" 
			},
			{
				"x": -0.2464478952,
				"y": -0.6194601107,
				"z": -3.1139375408,
				"element": "O" 
			},
			{
				"x": -0.5599293166,
				"y": 1.1465138827,
				"z": -1.5060679654,
				"element": "C" 
			},
			{
				"x": -0.159191583,
				"y": 2.2830302103,
				"z": -2.2090611287,
				"element": "C" 
			},
			{
				"x": -0.2605702204,
				"y": 3.519024605,
				"z": -1.5752150234,
				"element": "C" 
			},
			{
				"x": -0.776318711,
				"y": 3.6116324161,
				"z": -0.2749071164,
				"element": "C" 
			},
			{
				"x": -1.2075909925,
				"y": 2.4685604269,
				"z": 0.3922016027,
				"element": "C" 
			},
			{
				"x": -1.0837222387,
				"y": 1.21057061,
				"z": -0.2080815159,
				"element": "C" 
			},
			{
				"x": -1.3190166147,
				"y": -0.1798054568,
				"z": 0.3117055547,
				"element": "C" 
			},
			{
				"x": -1.6556537518,
				"y": -0.5050377316,
				"z": 1.4280498732,
				"element": "O" 
			},
			{
				"x": -1.8356721664,
				"y": 2.6568333721,
				"z": 1.7138453208,
				"element": "N" 
			},
			{
				"x": -1.3220114826,
				"y": 3.4940877287,
				"z": 2.4541992614,
				"element": "O" 
			},
			{
				"x": -2.8418111489,
				"y": 2.0020744093,
				"z": 1.9523033529,
				"element": "O" 
			},
			{
				"x": 0.6506779403,
				"y": -3.8141980826,
				"z": 0.8338181085,
				"element": "H" 
			},
			{
				"x": -0.8281951605,
				"y": -3.9570369015,
				"z": -0.1631095575,
				"element": "H" 
			},
			{
				"x": -0.8614766367,
				"y": -2.9553507506,
				"z": 1.2903961902,
				"element": "H" 
			},
			{
				"x": -1.8226315757,
				"y": -1.7654249764,
				"z": -1.0830490469,
				"element": "H" 
			},
			{
				"x": 0.22895224,
				"y": 2.1836353644,
				"z": -3.2174086105,
				"element": "H" 
			},
			{
				"x": 0.0558849238,
				"y": 4.4238575297,
				"z": -2.0841518227,
				"element": "H" 
			},
			{
				"x": -0.8570094927,
				"y": 4.5690480484,
				"z": 0.2267030291,
				"element": "H" 
			}
		],
		 "valence_orbital": [ 
			{
				"type": "occ",
				"energy": -0.30619,
				"method": "rhf"
			},
			{
				"type": "occ",
				"energy": -0.29593,
				"method": "rhf"
			},
			{
				"type": "occ",
				"energy": -0.29252,
				"method": "rhf"
			},
			{
				"type": "occ",
				"energy": -0.26847,
				"method": "rhf"
			},
			{
				"type": "occ",
				"energy": -0.26797,
				"method": "rhf"
			},
			{
				"type": "unocc",
				"energy": -0.11272,
				"method": "rhf"
			},
			{
				"type": "unocc",
				"energy": -0.09949,
				"method": "rhf"
			},
			{
				"type": "unocc",
				"energy": -0.06207,
				"method": "rhf"
			},
			{
				"type": "unocc",
				"energy": -0.03635,
				"method": "rhf"
			},
			{
				"type": "unocc",
				"energy": 0.00572,
				"method": "rhf"
			}
		],
		"cosmo_sigma_profile": { 
			"-0.025": 0.0,
			"-0.024": 0.0,
			"-0.023": 0.0,
			"-0.022": 0.0,
			"-0.021": 0.0,
			"-0.02": 0.0,
			"-0.019": 0.0,
			"-0.018": 0.0,
			"-0.017": 0.0,
			"-0.016": 0.0,
			"-0.015": 0.0,
			"-0.014": 0.0,
			"-0.013": 0.0,
			"-0.012": 0.0,
			"-0.011": 0.599324618494,
			"-0.01": 5.78576885886,
			"-0.009": 9.66424601556,
			"-0.008": 11.2129136291,
			"-0.007": 11.7183523348,
			"-0.006": 11.9026088328,
			"-0.005": 13.3038084029,
			"-0.004": 14.0575625432,
			"-0.003": 21.3095760153,
			"-0.002": 21.8545972039,
			"-0.001": 18.0598855458,
			"0.0": 8.52837883986,
			"0.001": 6.66915872807,
			"0.002": 6.74350927758,
			"0.003": 5.04064586669,
			"0.004": 6.82203909811,
			"0.005": 6.29150554208,
			"0.006": 9.57359782676,
			"0.007": 15.0533608951,
			"0.008": 12.9542541745,
			"0.009": 11.0538002016,
			"0.01": 11.8264924688,
			"0.011": 5.16953040024,
			"0.012": 0.752387353835,
			"0.013": 0.0,
			"0.014": 0.0,
			"0.015": 0.0,
			"0.016": 0.0,
			"0.017": 0.0,
			"0.018": 0.0,
			"0.019": 0.0,
			"0.02": 0.0,
			"0.021": 0.0,
			"0.022": 0.0,
			"0.023": 0.0,
			"0.024": 0.0,
			"0.025": 0.0
		}
	}
}
