{
	 "smiles": "CC1=NN2CCC(=O)NC2=C1", 
	 "Tm": 495.15, 
	 "num_atms": 20, 
	 "gaussian": { 
		 "optdone": 1, 
		 "sigma_profile": "yes", 
		 "theory": "DFT", 
		 "functional": "B3LYP", 
		 "basiset": "6-31G**", 
		 "properties": { 
			 "R2extent": 2583.7356, 
			 "electric_dipole_moment_norm": 1.06555216672, 
			 "electric_quadrupole_moment_norm": 16.7435178992, 
			 "total_energy": -511.648254622, 
			 "HOMO_LUMO_gap": 0.20647, 
			 "cosmo_polarized_energy": -13.73, 
			 "cosmo_cavitation_energy": 23.47, 
			 "cosmo_dispersion_energy": -17.79, 
			 "cosmo_repulsion_energy": 1.44, 
			 "cosmo_total_nonelectrostatic_energy": 7.12, 
			 "SMD_solvation_energy": 3.39 
		},
		"coords": [
			{
				"x": 1.9254121284,
				"y": -1.3813385149,
				"z": -0.7420477045,
				"element": "C" 
			},
			{
				"x": 1.0566932126,
				"y": -0.5013877877,
				"z": 0.1087592495,
				"element": "C" 
			},
			{
				"x": -0.250520969,
				"y": -0.7412915942,
				"z": 0.2238099227,
				"element": "N" 
			},
			{
				"x": -0.7090555145,
				"y": 0.2484081763,
				"z": 1.0380004769,
				"element": "N" 
			},
			{
				"x": -2.0632355954,
				"y": 0.3070390879,
				"z": 1.5536975974,
				"element": "C" 
			},
			{
				"x": -2.4079193063,
				"y": 1.775553946,
				"z": 1.8390453269,
				"element": "C" 
			},
			{
				"x": -1.3211569619,
				"y": 2.5271780416,
				"z": 2.6080639105,
				"element": "C" 
			},
			{
				"x": -1.5485859159,
				"y": 3.4312744799,
				"z": 3.3928062736,
				"element": "O" 
			},
			{
				"x": -0.030294415,
				"y": 2.1306867565,
				"z": 2.3061845657,
				"element": "N" 
			},
			{
				"x": 0.2806026289,
				"y": 1.0824667462,
				"z": 1.4407697197,
				"element": "C" 
			},
			{
				"x": 1.4531661376,
				"y": 0.6409939028,
				"z": 0.8546569421,
				"element": "C" 
			},
			{
				"x": 2.9577014408,
				"y": -1.0223852066,
				"z": -0.7424778338,
				"element": "H" 
			},
			{
				"x": 1.923860752,
				"y": -2.41266544,
				"z": -0.3742029777,
				"element": "H" 
			},
			{
				"x": 1.5711457147,
				"y": -1.4035758011,
				"z": -1.7775525555,
				"element": "H" 
			},
			{
				"x": -2.7316720034,
				"y": -0.1256480418,
				"z": 0.8068012709,
				"element": "H" 
			},
			{
				"x": -2.1420535077,
				"y": -0.2965752332,
				"z": 2.4680149936,
				"element": "H" 
			},
			{
				"x": -3.3332043112,
				"y": 1.8621167122,
				"z": 2.4109531758,
				"element": "H" 
			},
			{
				"x": -2.5529036759,
				"y": 2.3091121933,
				"z": 0.8907590856,
				"element": "H" 
			},
			{
				"x": 0.7144836931,
				"y": 2.6475833823,
				"z": 2.753367646,
				"element": "H" 
			},
			{
				"x": 2.4371364682,
				"y": 1.0786541946,
				"z": 0.9320909144,
				"element": "H" 
			}
		],
		 "valence_orbital": [ 
			{
				"type": "occ",
				"energy": -0.31709,
				"method": "rhf"
			},
			{
				"type": "occ",
				"energy": -0.28421,
				"method": "rhf"
			},
			{
				"type": "occ",
				"energy": -0.26495,
				"method": "rhf"
			},
			{
				"type": "occ",
				"energy": -0.24218,
				"method": "rhf"
			},
			{
				"type": "occ",
				"energy": -0.21624,
				"method": "rhf"
			},
			{
				"type": "unocc",
				"energy": -0.00977,
				"method": "rhf"
			},
			{
				"type": "unocc",
				"energy": 0.03932,
				"method": "rhf"
			},
			{
				"type": "unocc",
				"energy": 0.07662,
				"method": "rhf"
			},
			{
				"type": "unocc",
				"energy": 0.07891,
				"method": "rhf"
			},
			{
				"type": "unocc",
				"energy": 0.10679,
				"method": "rhf"
			}
		],
		"cosmo_sigma_profile": { 
			"-0.025": 0.0,
			"-0.024": 0.0,
			"-0.023": 0.0,
			"-0.022": 0.0,
			"-0.021": 0.0,
			"-0.02": 0.0,
			"-0.019": 0.0,
			"-0.018": 0.0,
			"-0.017": 0.0,
			"-0.016": 0.696591391638,
			"-0.015": 1.10753402675,
			"-0.014": 0.999539536088,
			"-0.013": 0.869376362092,
			"-0.012": 1.17965413135,
			"-0.011": 0.983597165575,
			"-0.01": 1.3467936282,
			"-0.009": 0.805449183046,
			"-0.008": 0.857133458227,
			"-0.007": 8.33663691653,
			"-0.006": 16.5507390877,
			"-0.005": 13.7836946385,
			"-0.004": 15.9317008568,
			"-0.003": 14.1071852245,
			"-0.002": 11.7425986778,
			"-0.001": 11.5604874657,
			"0.0": 13.4495508312,
			"0.001": 9.71136425266,
			"0.002": 6.86815943567,
			"0.003": 5.58279430806,
			"0.004": 6.96324457164,
			"0.005": 7.08594625397,
			"0.006": 5.89866215488,
			"0.007": 2.95243758873,
			"0.008": 1.69959995182,
			"0.009": 3.11887339901,
			"0.01": 2.53490793139,
			"0.011": 3.29523726791,
			"0.012": 4.85801151076,
			"0.013": 6.7053039312,
			"0.014": 2.18789343756,
			"0.015": 1.01512937843,
			"0.016": 0.657566871582,
			"0.017": 0.360276356103,
			"0.018": 0.0,
			"0.019": 0.0,
			"0.02": 0.0,
			"0.021": 0.0,
			"0.022": 0.0,
			"0.023": 0.0,
			"0.024": 0.0,
			"0.025": 0.0
		}
	}
}
