{
	 "smiles": "COC1=C(OC)C(=CC=C1)C(N)CC(O)=O", 
	 "Tm": 480.15, 
	 "num_atms": 31, 
	 "gaussian": { 
		 "optdone": 1, 
		 "sigma_profile": "yes", 
		 "theory": "DFT", 
		 "functional": "B3LYP", 
		 "basiset": "6-31G**", 
		 "properties": { 
			 "R2extent": 4214.596, 
			 "electric_dipole_moment_norm": 4.87556122923, 
			 "electric_quadrupole_moment_norm": 28.3181939394, 
			 "total_energy": -783.834042499, 
			 "HOMO_LUMO_gap": 0.22877, 
			 "cosmo_polarized_energy": -16.39, 
			 "cosmo_cavitation_energy": 33.49, 
			 "cosmo_dispersion_energy": -23.1, 
			 "cosmo_repulsion_energy": 1.81, 
			 "cosmo_total_nonelectrostatic_energy": 12.2, 
			 "SMD_solvation_energy": 7.43 
		},
		"coords": [
			{
				"x": -1.4608703335,
				"y": -2.2396737656,
				"z": 0.8029955328,
				"element": "C" 
			},
			{
				"x": -0.5232274989,
				"y": -2.2376763867,
				"z": -0.2804437834,
				"element": "O" 
			},
			{
				"x": 0.5523475816,
				"y": -1.3927830683,
				"z": -0.109035915,
				"element": "C" 
			},
			{
				"x": 0.4117194385,
				"y": -0.0030704423,
				"z": -0.252741648,
				"element": "C" 
			},
			{
				"x": -0.8412541202,
				"y": 0.5490580866,
				"z": -0.5107541815,
				"element": "O" 
			},
			{
				"x": -1.373069104,
				"y": 0.2665181116,
				"z": -1.8220786231,
				"element": "C" 
			},
			{
				"x": 1.5129724154,
				"y": 0.8528071679,
				"z": -0.0916232509,
				"element": "C" 
			},
			{
				"x": 2.7597641449,
				"y": 0.2918684617,
				"z": 0.2038231286,
				"element": "C" 
			},
			{
				"x": 2.9096731958,
				"y": -1.0908632982,
				"z": 0.3185389846,
				"element": "C" 
			},
			{
				"x": 1.8094857887,
				"y": -1.9334047686,
				"z": 0.1661671261,
				"element": "C" 
			},
			{
				"x": 1.3075086477,
				"y": 2.3561228617,
				"z": -0.2145136691,
				"element": "C" 
			},
			{
				"x": 2.5848888276,
				"y": 3.0503960539,
				"z": -0.4098867911,
				"element": "N" 
			},
			{
				"x": 0.61669234,
				"y": 2.941178193,
				"z": 1.0625584589,
				"element": "C" 
			},
			{
				"x": -0.5604344238,
				"y": 3.8446140737,
				"z": 0.7199421434,
				"element": "C" 
			},
			{
				"x": -1.6045360182,
				"y": 3.2086697653,
				"z": 0.137523987,
				"element": "O" 
			},
			{
				"x": -0.5891883936,
				"y": 5.0357284839,
				"z": 0.9209796878,
				"element": "O" 
			},
			{
				"x": -1.9099540558,
				"y": -1.2510807966,
				"z": 0.9448670215,
				"element": "H" 
			},
			{
				"x": -0.9774002273,
				"y": -2.5574299494,
				"z": 1.7349593719,
				"element": "H" 
			},
			{
				"x": -2.2368618748,
				"y": -2.9594889743,
				"z": 0.5353823004,
				"element": "H" 
			},
			{
				"x": -2.3350938463,
				"y": 0.7788054105,
				"z": -1.8781601414,
				"element": "H" 
			},
			{
				"x": -1.5084151517,
				"y": -0.8090410705,
				"z": -1.9518836251,
				"element": "H" 
			},
			{
				"x": -0.7042154683,
				"y": 0.6561906574,
				"z": -2.5972858303,
				"element": "H" 
			},
			{
				"x": 3.6039895688,
				"y": 0.9592823542,
				"z": 0.336544258,
				"element": "H" 
			},
			{
				"x": 3.8857538321,
				"y": -1.5130479544,
				"z": 0.5383479845,
				"element": "H" 
			},
			{
				"x": 1.8974482806,
				"y": -3.0112209486,
				"z": 0.2580692473,
				"element": "H" 
			},
			{
				"x": 0.6195193401,
				"y": 2.5120984438,
				"z": -1.0599184241,
				"element": "H" 
			},
			{
				"x": 2.9697096113,
				"y": 2.8161404701,
				"z": -1.322701259,
				"element": "H" 
			},
			{
				"x": 2.4203374068,
				"y": 4.0544421323,
				"z": -0.4130382,
				"element": "H" 
			},
			{
				"x": 1.3474958622,
				"y": 3.5139709686,
				"z": 1.6362290249,
				"element": "H" 
			},
			{
				"x": 0.2579351338,
				"y": 2.128400083,
				"z": 1.702260091,
				"element": "H" 
			},
			{
				"x": -1.4001208992,
				"y": 2.2570896441,
				"z": 0.0328769932,
				"element": "H" 
			}
		],
		 "valence_orbital": [ 
			{
				"type": "occ",
				"energy": -0.28102,
				"method": "rhf"
			},
			{
				"type": "occ",
				"energy": -0.2627,
				"method": "rhf"
			},
			{
				"type": "occ",
				"energy": -0.25052,
				"method": "rhf"
			},
			{
				"type": "occ",
				"energy": -0.24415,
				"method": "rhf"
			},
			{
				"type": "occ",
				"energy": -0.24358,
				"method": "rhf"
			},
			{
				"type": "unocc",
				"energy": -0.01481,
				"method": "rhf"
			},
			{
				"type": "unocc",
				"energy": -0.00824,
				"method": "rhf"
			},
			{
				"type": "unocc",
				"energy": 0.02111,
				"method": "rhf"
			},
			{
				"type": "unocc",
				"energy": 0.05799,
				"method": "rhf"
			},
			{
				"type": "unocc",
				"energy": 0.07834,
				"method": "rhf"
			}
		],
		"cosmo_sigma_profile": { 
			"-0.025": 0.0,
			"-0.024": 0.0,
			"-0.023": 0.0,
			"-0.022": 0.0,
			"-0.021": 0.0,
			"-0.02": 0.0,
			"-0.019": 0.0,
			"-0.018": 0.0,
			"-0.017": 0.0,
			"-0.016": 0.0,
			"-0.015": 0.0,
			"-0.014": 0.0,
			"-0.013": 0.0,
			"-0.012": 0.0,
			"-0.011": 0.301115598824,
			"-0.01": 1.9228824904,
			"-0.009": 3.54773997873,
			"-0.008": 4.24334737695,
			"-0.007": 5.89420007177,
			"-0.006": 13.4012561463,
			"-0.005": 22.5829862299,
			"-0.004": 29.5848344678,
			"-0.003": 30.7878931509,
			"-0.002": 22.2137647029,
			"-0.001": 16.2245436298,
			"0.0": 14.3712450464,
			"0.001": 12.4927025416,
			"0.002": 11.3876962868,
			"0.003": 12.3040909134,
			"0.004": 10.0941945601,
			"0.005": 9.27713063523,
			"0.006": 5.20749549696,
			"0.007": 3.86322782278,
			"0.008": 3.90953814544,
			"0.009": 3.7895774973,
			"0.01": 5.56733599005,
			"0.011": 7.03212123089,
			"0.012": 7.1908095372,
			"0.013": 4.38842543332,
			"0.014": 1.4976806077,
			"0.015": 0.528756664299,
			"0.016": 0.232301476614,
			"0.017": 0.116349904521,
			"0.018": 0.0,
			"0.019": 0.0,
			"0.02": 0.0,
			"0.021": 0.0,
			"0.022": 0.0,
			"0.023": 0.0,
			"0.024": 0.0,
			"0.025": 0.0
		}
	}
}
