{
	 "smiles": "CCCOC1=C(OC)C=C(C=C1)C#N", 
	 "Tm": 364.15, 
	 "num_atms": 27, 
	 "gaussian": { 
		 "optdone": 1, 
		 "sigma_profile": "yes", 
		 "theory": "DFT", 
		 "functional": "B3LYP", 
		 "basiset": "6-31G**", 
		 "properties": { 
			 "R2extent": 4233.9185, 
			 "electric_dipole_moment_norm": 5.48660141435, 
			 "electric_quadrupole_moment_norm": 28.7701113201, 
			 "total_energy": -632.167853638, 
			 "HOMO_LUMO_gap": 0.19958, 
			 "cosmo_polarized_energy": -10.18, 
			 "cosmo_cavitation_energy": 31.64, 
			 "cosmo_dispersion_energy": -21.57, 
			 "cosmo_repulsion_energy": 1.73, 
			 "cosmo_total_nonelectrostatic_energy": 11.81, 
			 "SMD_solvation_energy": 7.75 
		},
		"coords": [
			{
				"x": 2.123775488,
				"y": 1.4557411479,
				"z": -2.5677326192,
				"element": "C" 
			},
			{
				"x": 0.8877495945,
				"y": 1.9868871102,
				"z": -1.8358199285,
				"element": "C" 
			},
			{
				"x": -0.1520394804,
				"y": 0.9177237341,
				"z": -1.5345737535,
				"element": "C" 
			},
			{
				"x": 0.4521296416,
				"y": -0.059015153,
				"z": -0.6532339761,
				"element": "O" 
			},
			{
				"x": -0.3305118832,
				"y": -1.1313863721,
				"z": -0.3194474158,
				"element": "C" 
			},
			{
				"x": -1.4745233066,
				"y": -0.9899384972,
				"z": 0.4954218069,
				"element": "C" 
			},
			{
				"x": -1.8843194989,
				"y": 0.2400489555,
				"z": 0.950556599,
				"element": "O" 
			},
			{
				"x": -1.0371004278,
				"y": 0.8252567889,
				"z": 1.9501905911,
				"element": "C" 
			},
			{
				"x": -2.235303274,
				"y": -2.1098497839,
				"z": 0.818945464,
				"element": "C" 
			},
			{
				"x": -1.8595585662,
				"y": -3.3814202433,
				"z": 0.354506338,
				"element": "C" 
			},
			{
				"x": -0.703171593,
				"y": -3.5260760238,
				"z": -0.429293945,
				"element": "C" 
			},
			{
				"x": 0.0465080591,
				"y": -2.4026372161,
				"z": -0.7623189304,
				"element": "C" 
			},
			{
				"x": -2.6495578778,
				"y": -4.5285079103,
				"z": 0.6931350636,
				"element": "C" 
			},
			{
				"x": -3.2891989414,
				"y": -5.4609750467,
				"z": 0.9674182787,
				"element": "N" 
			},
			{
				"x": 1.8506536207,
				"y": 1.013320155,
				"z": -3.5326859587,
				"element": "H" 
			},
			{
				"x": 2.6251114067,
				"y": 0.685785081,
				"z": -1.975374092,
				"element": "H" 
			},
			{
				"x": 2.8417812632,
				"y": 2.258700309,
				"z": -2.7605468194,
				"element": "H" 
			},
			{
				"x": 1.1835313697,
				"y": 2.4641512366,
				"z": -0.8934743974,
				"element": "H" 
			},
			{
				"x": 0.3950160817,
				"y": 2.7619019479,
				"z": -2.4366531553,
				"element": "H" 
			},
			{
				"x": -1.0379839332,
				"y": 1.3458334013,
				"z": -1.0546520311,
				"element": "H" 
			},
			{
				"x": -0.4673117468,
				"y": 0.4088979883,
				"z": -2.4563807811,
				"element": "H" 
			},
			{
				"x": -1.4838286573,
				"y": 1.7891609305,
				"z": 2.2001922794,
				"element": "H" 
			},
			{
				"x": -0.0205590984,
				"y": 0.9733588471,
				"z": 1.573191621,
				"element": "H" 
			},
			{
				"x": -1.0072015311,
				"y": 0.1951246241,
				"z": 2.8473350726,
				"element": "H" 
			},
			{
				"x": -3.1173770209,
				"y": -1.9805172753,
				"z": 1.4361937189,
				"element": "H" 
			},
			{
				"x": -0.4088616437,
				"y": -4.5089114842,
				"z": -0.7805578001,
				"element": "H" 
			},
			{
				"x": 0.9367519554,
				"y": -2.4857572517,
				"z": -1.3769412296,
				"element": "H" 
			}
		],
		 "valence_orbital": [ 
			{
				"type": "occ",
				"energy": -0.3275,
				"method": "rhf"
			},
			{
				"type": "occ",
				"energy": -0.30872,
				"method": "rhf"
			},
			{
				"type": "occ",
				"energy": -0.27994,
				"method": "rhf"
			},
			{
				"type": "occ",
				"energy": -0.26372,
				"method": "rhf"
			},
			{
				"type": "occ",
				"energy": -0.24572,
				"method": "rhf"
			},
			{
				"type": "unocc",
				"energy": -0.04614,
				"method": "rhf"
			},
			{
				"type": "unocc",
				"energy": -0.02052,
				"method": "rhf"
			},
			{
				"type": "unocc",
				"energy": 0.04001,
				"method": "rhf"
			},
			{
				"type": "unocc",
				"energy": 0.06912,
				"method": "rhf"
			},
			{
				"type": "unocc",
				"energy": 0.07819,
				"method": "rhf"
			}
		],
		"cosmo_sigma_profile": { 
			"-0.025": 0.0,
			"-0.024": 0.0,
			"-0.023": 0.0,
			"-0.022": 0.0,
			"-0.021": 0.0,
			"-0.02": 0.0,
			"-0.019": 0.0,
			"-0.018": 0.0550233644133,
			"-0.017": 0.0578862652255,
			"-0.016": 0.000898641361263,
			"-0.015": 0.00127463750273,
			"-0.014": 0.117966228527,
			"-0.013": 0.055954099736,
			"-0.012": 0.0934110406987,
			"-0.011": 0.289602995652,
			"-0.01": 0.0785620538839,
			"-0.009": 0.286141348535,
			"-0.008": 3.11459656132,
			"-0.007": 5.86492830502,
			"-0.006": 7.56390867237,
			"-0.005": 9.37329805392,
			"-0.004": 18.0569379548,
			"-0.003": 30.6221019747,
			"-0.002": 29.8097669529,
			"-0.001": 28.7123908323,
			"0.0": 23.6481109773,
			"0.001": 23.9535667094,
			"0.002": 18.151317906,
			"0.003": 7.51306954648,
			"0.004": 5.73538594416,
			"0.005": 5.16084512317,
			"0.006": 4.79810817714,
			"0.007": 5.24487840592,
			"0.008": 4.59568016627,
			"0.009": 5.48811005205,
			"0.01": 4.34832436774,
			"0.011": 4.06445631306,
			"0.012": 2.56712106573,
			"0.013": 1.79665251434,
			"0.014": 0.182641525348,
			"0.015": 0.0,
			"0.016": 0.0,
			"0.017": 0.0,
			"0.018": 0.0,
			"0.019": 0.0,
			"0.02": 0.0,
			"0.021": 0.0,
			"0.022": 0.0,
			"0.023": 0.0,
			"0.024": 0.0,
			"0.025": 0.0
		}
	}
}
