{
	 "smiles": "CC(C)C(N)C(O)=O", 
	 "Tm": 575.15, 
	 "num_atms": 19, 
	 "gaussian": { 
		 "optdone": 1, 
		 "sigma_profile": "yes", 
		 "theory": "DFT", 
		 "functional": "B3LYP", 
		 "basiset": "6-31G**", 
		 "properties": { 
			 "R2extent": 1624.9127, 
			 "electric_dipole_moment_norm": 3.16791402661, 
			 "electric_quadrupole_moment_norm": 12.566059136, 
			 "total_energy": -402.373077165, 
			 "HOMO_LUMO_gap": 0.25202, 
			 "cosmo_polarized_energy": -14.36, 
			 "cosmo_cavitation_energy": 21.1, 
			 "cosmo_dispersion_energy": -15.3, 
			 "cosmo_repulsion_energy": 1.28, 
			 "cosmo_total_nonelectrostatic_energy": 7.07, 
			 "SMD_solvation_energy": 3.67 
		},
		"coords": [
			{
				"x": 0.6289724734,
				"y": -0.3919879284,
				"z": 2.2838071434,
				"element": "C" 
			},
			{
				"x": -0.4799136951,
				"y": 0.3736564925,
				"z": 1.54617381,
				"element": "C" 
			},
			{
				"x": -0.0094114896,
				"y": 0.8367752836,
				"z": 0.16013222,
				"element": "C" 
			},
			{
				"x": -1.8261232523,
				"y": -0.4124559482,
				"z": 1.4840467055,
				"element": "C" 
			},
			{
				"x": -2.8858998811,
				"y": 0.4491025899,
				"z": 0.966561744,
				"element": "N" 
			},
			{
				"x": -1.6897818943,
				"y": -1.7062409979,
				"z": 0.6577202409,
				"element": "C" 
			},
			{
				"x": -1.136637959,
				"y": -2.7807890624,
				"z": 1.2806548176,
				"element": "O" 
			},
			{
				"x": -2.0314291332,
				"y": -1.7906641583,
				"z": -0.4975919899,
				"element": "O" 
			},
			{
				"x": 0.3035347126,
				"y": -0.7211508075,
				"z": 3.2797829879,
				"element": "H" 
			},
			{
				"x": 0.9670109355,
				"y": -1.269431177,
				"z": 1.7217893949,
				"element": "H" 
			},
			{
				"x": 1.5016385665,
				"y": 0.2517725129,
				"z": 2.4307952876,
				"element": "H" 
			},
			{
				"x": -0.7288231394,
				"y": 1.2662185663,
				"z": 2.1327179889,
				"element": "H" 
			},
			{
				"x": 0.206554043,
				"y": -0.0104636658,
				"z": -0.499641639,
				"element": "H" 
			},
			{
				"x": 0.9045224361,
				"y": 1.4327229381,
				"z": 0.2508333122,
				"element": "H" 
			},
			{
				"x": -0.763153953,
				"y": 1.4631137194,
				"z": -0.3249768577,
				"element": "H" 
			},
			{
				"x": -2.0879535557,
				"y": -0.6856650421,
				"z": 2.51611278,
				"element": "H" 
			},
			{
				"x": -3.7898797251,
				"y": 0.0398525208,
				"z": 1.1921560664,
				"element": "H" 
			},
			{
				"x": -2.8354367509,
				"y": 0.4237233677,
				"z": -0.0510308964,
				"element": "H" 
			},
			{
				"x": -0.9183887385,
				"y": -2.5562892039,
				"z": 2.1962568839,
				"element": "H" 
			}
		],
		 "valence_orbital": [ 
			{
				"type": "occ",
				"energy": -0.34276,
				"method": "rhf"
			},
			{
				"type": "occ",
				"energy": -0.33965,
				"method": "rhf"
			},
			{
				"type": "occ",
				"energy": -0.31711,
				"method": "rhf"
			},
			{
				"type": "occ",
				"energy": -0.27711,
				"method": "rhf"
			},
			{
				"type": "occ",
				"energy": -0.24802,
				"method": "rhf"
			},
			{
				"type": "unocc",
				"energy": 0.004,
				"method": "rhf"
			},
			{
				"type": "unocc",
				"energy": 0.04874,
				"method": "rhf"
			},
			{
				"type": "unocc",
				"energy": 0.08307,
				"method": "rhf"
			},
			{
				"type": "unocc",
				"energy": 0.1109,
				"method": "rhf"
			},
			{
				"type": "unocc",
				"energy": 0.1266,
				"method": "rhf"
			}
		],
		"cosmo_sigma_profile": { 
			"-0.025": 0.0,
			"-0.024": 0.0,
			"-0.023": 0.0,
			"-0.022": 0.0,
			"-0.021": 0.0,
			"-0.02": 0.0,
			"-0.019": 0.0,
			"-0.018": 0.0798922382532,
			"-0.017": 0.797023712744,
			"-0.016": 0.733791903157,
			"-0.015": 1.59641517571,
			"-0.014": 0.724730727976,
			"-0.013": 1.25355970715,
			"-0.012": 1.37777350874,
			"-0.011": 1.91145954708,
			"-0.01": 2.44816904615,
			"-0.009": 2.70415726713,
			"-0.008": 4.58240413376,
			"-0.007": 5.51888761074,
			"-0.006": 5.15223345735,
			"-0.005": 4.73648884976,
			"-0.004": 5.90015299999,
			"-0.003": 15.4496521916,
			"-0.002": 16.7459635423,
			"-0.001": 14.0447354687,
			"0.0": 14.9088294179,
			"0.001": 14.1460377632,
			"0.002": 4.55141886709,
			"0.003": 4.07951760155,
			"0.004": 2.75403770097,
			"0.005": 2.64595818073,
			"0.006": 3.40008424644,
			"0.007": 3.02961045527,
			"0.008": 2.80776549872,
			"0.009": 4.28487635217,
			"0.01": 5.61110056191,
			"0.011": 5.13270334523,
			"0.012": 4.61594595999,
			"0.013": 2.39164740119,
			"0.014": 0.787921462634,
			"0.015": 0.531462201948,
			"0.016": 0.440548543232,
			"0.017": 0.68150784725,
			"0.018": 0.494668589347,
			"0.019": 0.0542159498498,
			"0.02": 0.0,
			"0.021": 0.0,
			"0.022": 0.0,
			"0.023": 0.0,
			"0.024": 0.0,
			"0.025": 0.0
		}
	}
}
