{
	 "smiles": "NC1=NC(=CS1)C1=CC=C(Br)C=C1", 
	 "Tm": 456.65, 
	 "num_atms": 20, 
	 "gaussian": { 
		 "optdone": 1, 
		 "sigma_profile": "yes", 
		 "theory": "DFT", 
		 "functional": "B3LYP", 
		 "basiset": "6-31G**", 
		 "properties": { 
			 "R2extent": 7819.1929, 
			 "electric_dipole_moment_norm": 3.7667420047, 
			 "electric_quadrupole_moment_norm": 16.1458034018, 
			 "total_energy": -3426.27302382, 
			 "HOMO_LUMO_gap": 0.16726, 
			 "cosmo_polarized_energy": -11.42, 
			 "cosmo_cavitation_energy": 28.57, 
			 "cosmo_dispersion_energy": -22.33, 
			 "cosmo_repulsion_energy": 1.71, 
			 "cosmo_total_nonelectrostatic_energy": 7.96, 
			 "SMD_solvation_energy": 2.32 
		},
		"coords": [
			{
				"x": 0.4870967295,
				"y": -3.2840365808,
				"z": -1.39443904,
				"element": "N" 
			},
			{
				"x": 0.1090261886,
				"y": -2.0492793246,
				"z": -0.9200251829,
				"element": "C" 
			},
			{
				"x": 0.8760725177,
				"y": -1.2737447041,
				"z": -0.2154848783,
				"element": "N" 
			},
			{
				"x": 0.2589744026,
				"y": -0.0591638607,
				"z": 0.0563818217,
				"element": "C" 
			},
			{
				"x": -1.0059231287,
				"y": 0.0738483381,
				"z": -0.4498988146,
				"element": "C" 
			},
			{
				"x": -1.4692223417,
				"y": -1.3591476165,
				"z": -1.3291651053,
				"element": "S" 
			},
			{
				"x": 0.9941409806,
				"y": 0.9431445738,
				"z": 0.8502547506,
				"element": "C" 
			},
			{
				"x": 0.4366253936,
				"y": 2.1903967331,
				"z": 1.1791560722,
				"element": "C" 
			},
			{
				"x": 1.1468254748,
				"y": 3.1227806416,
				"z": 1.929502845,
				"element": "C" 
			},
			{
				"x": 2.4358407555,
				"y": 2.8109271978,
				"z": 2.3618217188,
				"element": "C" 
			},
			{
				"x": 3.4167004335,
				"y": 4.0873576974,
				"z": 3.3935481637,
				"element": "Br" 
			},
			{
				"x": 3.015721897,
				"y": 1.5830525689,
				"z": 2.0513487955,
				"element": "C" 
			},
			{
				"x": 2.293966986,
				"y": 0.6583532244,
				"z": 1.299596205,
				"element": "C" 
			},
			{
				"x": -0.2425285887,
				"y": -3.9711074762,
				"z": -1.5185409162,
				"element": "H" 
			},
			{
				"x": 1.3183163625,
				"y": -3.6432250461,
				"z": -0.9432748638,
				"element": "H" 
			},
			{
				"x": -1.6939320455,
				"y": 0.9011436122,
				"z": -0.3663385101,
				"element": "H" 
			},
			{
				"x": -0.5652712519,
				"y": 2.4463877285,
				"z": 0.8488041205,
				"element": "H" 
			},
			{
				"x": 0.7055243252,
				"y": 4.0816088478,
				"z": 2.1766138272,
				"element": "H" 
			},
			{
				"x": 4.0186144992,
				"y": 1.3516750946,
				"z": 2.3921547513,
				"element": "H" 
			},
			{
				"x": 2.7318304102,
				"y": -0.3010716491,
				"z": 1.0497842396,
				"element": "H" 
			}
		],
		 "valence_orbital": [ 
			{
				"type": "occ",
				"energy": -0.28158,
				"method": "rhf"
			},
			{
				"type": "occ",
				"energy": -0.27819,
				"method": "rhf"
			},
			{
				"type": "occ",
				"energy": -0.25885,
				"method": "rhf"
			},
			{
				"type": "occ",
				"energy": -0.24471,
				"method": "rhf"
			},
			{
				"type": "occ",
				"energy": -0.20467,
				"method": "rhf"
			},
			{
				"type": "unocc",
				"energy": -0.03741,
				"method": "rhf"
			},
			{
				"type": "unocc",
				"energy": -0.00898,
				"method": "rhf"
			},
			{
				"type": "unocc",
				"energy": 0.00315,
				"method": "rhf"
			},
			{
				"type": "unocc",
				"energy": 0.01062,
				"method": "rhf"
			},
			{
				"type": "unocc",
				"energy": 0.01403,
				"method": "rhf"
			}
		],
		"cosmo_sigma_profile": { 
			"-0.025": 0.0,
			"-0.024": 0.0,
			"-0.023": 0.0,
			"-0.022": 0.0,
			"-0.021": 0.0,
			"-0.02": 0.0,
			"-0.019": 0.0,
			"-0.018": 0.0,
			"-0.017": 0.0,
			"-0.016": 0.0,
			"-0.015": 0.363991597325,
			"-0.014": 1.88591968303,
			"-0.013": 3.01291458398,
			"-0.012": 2.96382291649,
			"-0.011": 2.56041091814,
			"-0.01": 1.89380697074,
			"-0.009": 4.66441734855,
			"-0.008": 4.341435474,
			"-0.007": 7.58640700715,
			"-0.006": 8.0761943752,
			"-0.005": 9.00196236606,
			"-0.004": 9.46102818994,
			"-0.003": 10.0564436336,
			"-0.002": 11.2133049463,
			"-0.001": 10.455388376,
			"0.0": 12.843244997,
			"0.001": 17.501514857,
			"0.002": 24.8357034462,
			"0.003": 34.4278045554,
			"0.004": 32.0477793331,
			"0.005": 11.9206448748,
			"0.006": 3.50650056832,
			"0.007": 2.24665947447,
			"0.008": 2.42903133973,
			"0.009": 2.34091044396,
			"0.01": 1.69015015473,
			"0.011": 1.74841946256,
			"0.012": 0.155414249415,
			"0.013": 0.0,
			"0.014": 0.0,
			"0.015": 0.0,
			"0.016": 0.0,
			"0.017": 0.0,
			"0.018": 0.0,
			"0.019": 0.0,
			"0.02": 0.0,
			"0.021": 0.0,
			"0.022": 0.0,
			"0.023": 0.0,
			"0.024": 0.0,
			"0.025": 0.0
		}
	}
}
