{
	 "smiles": "CC(C)(O)C(O)=O", 
	 "Tm": 353.95, 
	 "num_atms": 15, 
	 "gaussian": { 
		 "optdone": 1, 
		 "sigma_profile": "yes", 
		 "theory": "DFT", 
		 "functional": "B3LYP", 
		 "basiset": "6-31G**", 
		 "properties": { 
			 "R2extent": 866.6029, 
			 "electric_dipole_moment_norm": 2.32937833123, 
			 "electric_quadrupole_moment_norm": 2.65080084503, 
			 "total_energy": -382.936104978, 
			 "HOMO_LUMO_gap": 0.2621, 
			 "cosmo_polarized_energy": -9.42, 
			 "cosmo_cavitation_energy": 18.21, 
			 "cosmo_dispersion_energy": -13.37, 
			 "cosmo_repulsion_energy": 1.15, 
			 "cosmo_total_nonelectrostatic_energy": 5.99, 
			 "SMD_solvation_energy": 4.63 
		},
		"coords": [
			{
				"x": -0.9068580288,
				"y": 1.393381529,
				"z": 0.8071924596,
				"element": "C" 
			},
			{
				"x": -0.9646366173,
				"y": -0.0174734218,
				"z": 0.1943292641,
				"element": "C" 
			},
			{
				"x": -2.3733464989,
				"y": -0.6258785053,
				"z": 0.3166920576,
				"element": "C" 
			},
			{
				"x": -0.6104186631,
				"y": 0.0579651127,
				"z": -1.1750716184,
				"element": "O" 
			},
			{
				"x": 0.0521563292,
				"y": -0.9253706473,
				"z": 0.891606181,
				"element": "C" 
			},
			{
				"x": -0.1724891238,
				"y": -1.0818902196,
				"z": 2.2092854017,
				"element": "O" 
			},
			{
				"x": 0.9783492603,
				"y": -1.4574032522,
				"z": 0.3108606912,
				"element": "O" 
			},
			{
				"x": 0.0996929649,
				"y": 1.8098241014,
				"z": 0.7071854024,
				"element": "H" 
			},
			{
				"x": -1.1873373041,
				"y": 1.3865621995,
				"z": 1.8635558654,
				"element": "H" 
			},
			{
				"x": -1.5966611424,
				"y": 2.040547319,
				"z": 0.2586148161,
				"element": "H" 
			},
			{
				"x": -2.6961059965,
				"y": -0.6908087747,
				"z": 1.3589286237,
				"element": "H" 
			},
			{
				"x": -2.3951154461,
				"y": -1.6253768709,
				"z": -0.1272709407,
				"element": "H" 
			},
			{
				"x": -3.0749641439,
				"y": 0.0049768982,
				"z": -0.2358879236,
				"element": "H" 
			},
			{
				"x": 0.1828712741,
				"y": -0.4926250031,
				"z": -1.2821132834,
				"element": "H" 
			},
			{
				"x": 0.5259631364,
				"y": -1.6703304648,
				"z": 2.5429930033,
				"element": "H" 
			}
		],
		 "valence_orbital": [ 
			{
				"type": "occ",
				"energy": -0.36096,
				"method": "rhf"
			},
			{
				"type": "occ",
				"energy": -0.33883,
				"method": "rhf"
			},
			{
				"type": "occ",
				"energy": -0.33517,
				"method": "rhf"
			},
			{
				"type": "occ",
				"energy": -0.29174,
				"method": "rhf"
			},
			{
				"type": "occ",
				"energy": -0.26604,
				"method": "rhf"
			},
			{
				"type": "unocc",
				"energy": -0.00394,
				"method": "rhf"
			},
			{
				"type": "unocc",
				"energy": 0.0607,
				"method": "rhf"
			},
			{
				"type": "unocc",
				"energy": 0.10129,
				"method": "rhf"
			},
			{
				"type": "unocc",
				"energy": 0.12579,
				"method": "rhf"
			},
			{
				"type": "unocc",
				"energy": 0.14491,
				"method": "rhf"
			}
		],
		"cosmo_sigma_profile": { 
			"-0.025": 0.0,
			"-0.024": 0.0,
			"-0.023": 0.0,
			"-0.022": 0.0,
			"-0.021": 0.0,
			"-0.02": 0.0,
			"-0.019": 0.415670836164,
			"-0.018": 1.20663303629,
			"-0.017": 0.747499992958,
			"-0.016": 0.864986576032,
			"-0.015": 1.09332685857,
			"-0.014": 0.373990779554,
			"-0.013": 0.456133561152,
			"-0.012": 1.09296909809,
			"-0.011": 0.85244842543,
			"-0.01": 0.840200309532,
			"-0.009": 1.48184220726,
			"-0.008": 1.27914362373,
			"-0.007": 1.50955223724,
			"-0.006": 1.1504527039,
			"-0.005": 4.83839686312,
			"-0.004": 13.4045547011,
			"-0.003": 15.3495526401,
			"-0.002": 13.5426930156,
			"-0.001": 14.3552773019,
			"0.0": 16.0912346718,
			"0.001": 7.44856496896,
			"0.002": 4.0374788092,
			"0.003": 4.18204844735,
			"0.004": 3.68196464886,
			"0.005": 4.30963011588,
			"0.006": 3.6291746444,
			"0.007": 3.93887141139,
			"0.008": 2.65974369722,
			"0.009": 3.64018408157,
			"0.01": 4.20960511274,
			"0.011": 3.95292674281,
			"0.012": 1.3104968131,
			"0.013": 1.77534749011,
			"0.014": 1.85173814677,
			"0.015": 0.08898120807,
			"0.016": 0.0,
			"0.017": 0.0,
			"0.018": 0.0,
			"0.019": 0.0,
			"0.02": 0.0,
			"0.021": 0.0,
			"0.022": 0.0,
			"0.023": 0.0,
			"0.024": 0.0,
			"0.025": 0.0
		}
	}
}
