{
	 "smiles": "OC(=O)C1CC1C(O)=O", 
	 "Tm": 451.15, 
	 "num_atms": 15, 
	 "gaussian": { 
		 "optdone": 1, 
		 "sigma_profile": "yes", 
		 "theory": "DFT", 
		 "functional": "B3LYP", 
		 "basiset": "6-31G**", 
		 "properties": { 
			 "R2extent": 1878.0873, 
			 "electric_dipole_moment_norm": 4.73240314534, 
			 "electric_quadrupole_moment_norm": 11.9988438289, 
			 "total_energy": -495.037244355, 
			 "HOMO_LUMO_gap": 0.25747, 
			 "cosmo_polarized_energy": -19.01, 
			 "cosmo_cavitation_energy": 20.07, 
			 "cosmo_dispersion_energy": -14.63, 
			 "cosmo_repulsion_energy": 1.23, 
			 "cosmo_total_nonelectrostatic_energy": 6.67, 
			 "SMD_solvation_energy": 5.78 
		},
		"coords": [
			{
				"x": -1.5470984837,
				"y": 2.6961784045,
				"z": 1.1697247869,
				"element": "O" 
			},
			{
				"x": -0.2152643023,
				"y": 2.4506491863,
				"z": 1.0853673343,
				"element": "C" 
			},
			{
				"x": 0.5843523107,
				"y": 3.3016759881,
				"z": 1.3935180628,
				"element": "O" 
			},
			{
				"x": 0.1741854937,
				"y": 1.0888728612,
				"z": 0.5939387665,
				"element": "C" 
			},
			{
				"x": 1.4649940197,
				"y": 0.9788596547,
				"z": -0.172698971,
				"element": "C" 
			},
			{
				"x": 1.4206966545,
				"y": 0.4796376987,
				"z": 1.2461682999,
				"element": "C" 
			},
			{
				"x": 1.4569497109,
				"y": -0.9766669421,
				"z": 1.5436403415,
				"element": "C" 
			},
			{
				"x": 0.7992336717,
				"y": -1.7215794042,
				"z": 0.6135374558,
				"element": "O" 
			},
			{
				"x": 2.0096898318,
				"y": -1.4711562439,
				"z": 2.5005966582,
				"element": "O" 
			},
			{
				"x": -2.0533440532,
				"y": 1.9190497916,
				"z": 0.8950595959,
				"element": "H" 
			},
			{
				"x": -0.6132977461,
				"y": 0.3882553537,
				"z": 0.3322016365,
				"element": "H" 
			},
			{
				"x": 2.0055563907,
				"y": 1.904604833,
				"z": -0.3367613292,
				"element": "H" 
			},
			{
				"x": 1.5070469531,
				"y": 0.2426226707,
				"z": -0.9669826211,
				"element": "H" 
			},
			{
				"x": 1.9011144285,
				"y": 1.0900553541,
				"z": 2.0015612931,
				"element": "H" 
			},
			{
				"x": 0.89398512,
				"y": -2.6457592064,
				"z": 0.8974286899,
				"element": "H" 
			}
		],
		 "valence_orbital": [ 
			{
				"type": "occ",
				"energy": -0.33923,
				"method": "rhf"
			},
			{
				"type": "occ",
				"energy": -0.32356,
				"method": "rhf"
			},
			{
				"type": "occ",
				"energy": -0.31485,
				"method": "rhf"
			},
			{
				"type": "occ",
				"energy": -0.28452,
				"method": "rhf"
			},
			{
				"type": "occ",
				"energy": -0.28079,
				"method": "rhf"
			},
			{
				"type": "unocc",
				"energy": -0.02332,
				"method": "rhf"
			},
			{
				"type": "unocc",
				"energy": 0.01765,
				"method": "rhf"
			},
			{
				"type": "unocc",
				"energy": 0.04521,
				"method": "rhf"
			},
			{
				"type": "unocc",
				"energy": 0.06386,
				"method": "rhf"
			},
			{
				"type": "unocc",
				"energy": 0.09565,
				"method": "rhf"
			}
		],
		"cosmo_sigma_profile": { 
			"-0.025": 0.0,
			"-0.024": 0.0,
			"-0.023": 0.0,
			"-0.022": 0.0,
			"-0.021": 0.0,
			"-0.02": 0.186752866394,
			"-0.019": 1.46771119607,
			"-0.018": 2.39177728548,
			"-0.017": 1.91373412774,
			"-0.016": 2.09910622338,
			"-0.015": 1.28748917243,
			"-0.014": 1.74384911386,
			"-0.013": 1.98594053288,
			"-0.012": 1.82560200075,
			"-0.011": 2.08514359382,
			"-0.01": 1.1992857061,
			"-0.009": 1.21795616595,
			"-0.008": 1.40145293642,
			"-0.007": 5.34326563432,
			"-0.006": 6.01017346483,
			"-0.005": 6.27694893145,
			"-0.004": 7.84998249662,
			"-0.003": 12.7930426957,
			"-0.002": 12.8557174584,
			"-0.001": 10.2076047243,
			"0.0": 8.3905710634,
			"0.001": 5.20370911312,
			"0.002": 5.15675846429,
			"0.003": 4.43090623138,
			"0.004": 4.58386143094,
			"0.005": 5.25333877846,
			"0.006": 3.93122182363,
			"0.007": 4.91516897913,
			"0.008": 3.60514411594,
			"0.009": 5.07305444585,
			"0.01": 7.16118287655,
			"0.011": 8.89821064639,
			"0.012": 8.15876197642,
			"0.013": 1.84172984511,
			"0.014": 0.0274872075029,
			"0.015": 0.0,
			"0.016": 0.0,
			"0.017": 0.0,
			"0.018": 0.0,
			"0.019": 0.0,
			"0.02": 0.0,
			"0.021": 0.0,
			"0.022": 0.0,
			"0.023": 0.0,
			"0.024": 0.0,
			"0.025": 0.0
		}
	}
}
