{
	 "smiles": "CC(C)N(C(C)C)C1=NC(=C/C2=CC=CC=C2)C(=O)N1C1=CC=CC=C1", 
	 "Tm": 440.15, 
	 "num_atms": 51, 
	 "gaussian": { 
		 "optdone": 1, 
		 "sigma_profile": "yes", 
		 "theory": "DFT", 
		 "functional": "B3LYP", 
		 "basiset": "6-31G**", 
		 "properties": { 
			 "R2extent": 11425.1396, 
			 "electric_dipole_moment_norm": 4.35748586917, 
			 "electric_quadrupole_moment_norm": 15.1784183323, 
			 "total_energy": -1092.90316461, 
			 "HOMO_LUMO_gap": 0.13037, 
			 "cosmo_polarized_energy": -13.54, 
			 "cosmo_cavitation_energy": 51.99, 
			 "cosmo_dispersion_energy": -33.95, 
			 "cosmo_repulsion_energy": 2.55, 
			 "cosmo_total_nonelectrostatic_energy": 20.59, 
			 "SMD_solvation_energy": 8.7 
		},
		"coords": [
			{
				"x": 1.3475213892,
				"y": -0.3050644472,
				"z": 2.5826991316,
				"element": "C" 
			},
			{
				"x": 1.0513777202,
				"y": 0.9395486383,
				"z": 1.7345785252,
				"element": "C" 
			},
			{
				"x": 1.2451675408,
				"y": 2.2418723205,
				"z": 2.5293900475,
				"element": "C" 
			},
			{
				"x": -0.2471379784,
				"y": 0.9160660385,
				"z": 0.9989632566,
				"element": "N" 
			},
			{
				"x": -1.549840959,
				"y": 0.5714813819,
				"z": 1.6438361404,
				"element": "C" 
			},
			{
				"x": -1.7655887387,
				"y": -0.9461907438,
				"z": 1.8012326588,
				"element": "C" 
			},
			{
				"x": -1.8050767695,
				"y": 1.3228062088,
				"z": 2.9524821546,
				"element": "C" 
			},
			{
				"x": -0.1434827007,
				"y": 0.641005258,
				"z": -0.3456485495,
				"element": "C" 
			},
			{
				"x": 0.880689959,
				"y": 0.0445155079,
				"z": -0.9043693185,
				"element": "N" 
			},
			{
				"x": 0.610450767,
				"y": -0.0435166515,
				"z": -2.2670264605,
				"element": "C" 
			},
			{
				"x": 1.3586189286,
				"y": -0.5857435426,
				"z": -3.2625881285,
				"element": "C" 
			},
			{
				"x": 2.6735128398,
				"y": -1.2032501874,
				"z": -3.2076898718,
				"element": "C" 
			},
			{
				"x": 3.4050665388,
				"y": -1.3740423018,
				"z": -2.0116642024,
				"element": "C" 
			},
			{
				"x": 4.6603651619,
				"y": -1.9743553867,
				"z": -2.0337703122,
				"element": "C" 
			},
			{
				"x": 5.2180657517,
				"y": -2.4176971076,
				"z": -3.2372106159,
				"element": "C" 
			},
			{
				"x": 4.5060807435,
				"y": -2.2574373015,
				"z": -4.4283684003,
				"element": "C" 
			},
			{
				"x": 3.2497599986,
				"y": -1.6589274091,
				"z": -4.4123321688,
				"element": "C" 
			},
			{
				"x": -0.7264982779,
				"y": 0.5461353141,
				"z": -2.5438076935,
				"element": "C" 
			},
			{
				"x": -1.3424997682,
				"y": 0.6802936784,
				"z": -3.5838655883,
				"element": "O" 
			},
			{
				"x": -1.1656948601,
				"y": 0.9788105587,
				"z": -1.2600001922,
				"element": "N" 
			},
			{
				"x": -2.2079050364,
				"y": 1.9442314012,
				"z": -1.1239172565,
				"element": "C" 
			},
			{
				"x": -3.4720607553,
				"y": 1.6568827731,
				"z": -1.6504736059,
				"element": "C" 
			},
			{
				"x": -4.4876966835,
				"y": 2.6095737667,
				"z": -1.5673241322,
				"element": "C" 
			},
			{
				"x": -4.253061269,
				"y": 3.8415958586,
				"z": -0.9547798434,
				"element": "C" 
			},
			{
				"x": -2.9880831084,
				"y": 4.1260612677,
				"z": -0.4352728588,
				"element": "C" 
			},
			{
				"x": -1.9603900263,
				"y": 3.1886309554,
				"z": -0.5295080816,
				"element": "C" 
			},
			{
				"x": 1.2524654587,
				"y": -1.2153679531,
				"z": 1.9859547091,
				"element": "H" 
			},
			{
				"x": 2.378021297,
				"y": -0.2487317096,
				"z": 2.949599156,
				"element": "H" 
			},
			{
				"x": 0.6966376709,
				"y": -0.3855179423,
				"z": 3.4584706787,
				"element": "H" 
			},
			{
				"x": 1.7925545702,
				"y": 0.9466534098,
				"z": 0.9347962988,
				"element": "H" 
			},
			{
				"x": 2.2942804133,
				"y": 2.3199612821,
				"z": 2.8346896408,
				"element": "H" 
			},
			{
				"x": 0.6370362711,
				"y": 2.2890629334,
				"z": 3.4350269453,
				"element": "H" 
			},
			{
				"x": 1.0103624925,
				"y": 3.1133484975,
				"z": 1.9112647702,
				"element": "H" 
			},
			{
				"x": -2.313002599,
				"y": 0.9199459523,
				"z": 0.9472566809,
				"element": "H" 
			},
			{
				"x": -2.8115867149,
				"y": -1.1378811264,
				"z": 2.0644559731,
				"element": "H" 
			},
			{
				"x": -1.1400610725,
				"y": -1.3803840656,
				"z": 2.5839547119,
				"element": "H" 
			},
			{
				"x": -1.5550411621,
				"y": -1.4716932919,
				"z": 0.8650180166,
				"element": "H" 
			},
			{
				"x": -1.1443471628,
				"y": 0.9994523223,
				"z": 3.7610758413,
				"element": "H" 
			},
			{
				"x": -1.6977106965,
				"y": 2.40207866,
				"z": 2.8196439763,
				"element": "H" 
			},
			{
				"x": -2.8321685766,
				"y": 1.1231603575,
				"z": 3.2735848637,
				"element": "H" 
			},
			{
				"x": 0.8890628718,
				"y": -0.5425258837,
				"z": -4.2432873364,
				"element": "H" 
			},
			{
				"x": 2.9682619762,
				"y": -1.0330803045,
				"z": -1.0807786982,
				"element": "H" 
			},
			{
				"x": 5.2103529026,
				"y": -2.0996770197,
				"z": -1.1049344758,
				"element": "H" 
			},
			{
				"x": 6.1986791025,
				"y": -2.8851122515,
				"z": -3.2458575136,
				"element": "H" 
			},
			{
				"x": 4.9301409413,
				"y": -2.5995537841,
				"z": -5.3682146488,
				"element": "H" 
			},
			{
				"x": 2.6972051429,
				"y": -1.5358265631,
				"z": -5.3404079663,
				"element": "H" 
			},
			{
				"x": -3.6440049542,
				"y": 0.7006466708,
				"z": -2.1297847747,
				"element": "H" 
			},
			{
				"x": -5.4658022791,
				"y": 2.3842952354,
				"z": -1.981893145,
				"element": "H" 
			},
			{
				"x": -5.0483105868,
				"y": 4.5779286638,
				"z": -0.8870886389,
				"element": "H" 
			},
			{
				"x": -2.7938871763,
				"y": 5.087094837,
				"z": 0.0321007409,
				"element": "H" 
			},
			{
				"x": -0.9722985383,
				"y": 3.4108372251,
				"z": -0.1422104399,
				"element": "H" 
			}
		],
		 "valence_orbital": [ 
			{
				"type": "occ",
				"energy": -0.25028,
				"method": "rhf"
			},
			{
				"type": "occ",
				"energy": -0.24441,
				"method": "rhf"
			},
			{
				"type": "occ",
				"energy": -0.24403,
				"method": "rhf"
			},
			{
				"type": "occ",
				"energy": -0.2366,
				"method": "rhf"
			},
			{
				"type": "occ",
				"energy": -0.19248,
				"method": "rhf"
			},
			{
				"type": "unocc",
				"energy": -0.06211,
				"method": "rhf"
			},
			{
				"type": "unocc",
				"energy": -0.01597,
				"method": "rhf"
			},
			{
				"type": "unocc",
				"energy": -0.00822,
				"method": "rhf"
			},
			{
				"type": "unocc",
				"energy": 0.00689,
				"method": "rhf"
			},
			{
				"type": "unocc",
				"energy": 0.02749,
				"method": "rhf"
			}
		],
		"cosmo_sigma_profile": { 
			"-0.025": 0.0,
			"-0.024": 0.0,
			"-0.023": 0.0,
			"-0.022": 0.0,
			"-0.021": 0.0,
			"-0.02": 0.0,
			"-0.019": 0.0,
			"-0.018": 0.0,
			"-0.017": 0.0,
			"-0.016": 0.0,
			"-0.015": 0.0,
			"-0.014": 0.0,
			"-0.013": 0.0,
			"-0.012": 0.0,
			"-0.011": 0.0,
			"-0.01": 0.0,
			"-0.009": 0.0,
			"-0.008": 0.0,
			"-0.007": 1.5637514683,
			"-0.006": 14.4396380582,
			"-0.005": 23.2553733955,
			"-0.004": 35.7770412157,
			"-0.003": 45.5253362505,
			"-0.002": 42.6431843409,
			"-0.001": 44.8852044287,
			"0.0": 43.017645719,
			"0.001": 37.0032948235,
			"0.002": 22.0550513197,
			"0.003": 22.9343156092,
			"0.004": 27.6807185398,
			"0.005": 21.8581126668,
			"0.006": 8.46381193971,
			"0.007": 3.76382163714,
			"0.008": 2.94296702905,
			"0.009": 2.75434329525,
			"0.01": 2.25273039877,
			"0.011": 2.88686520252,
			"0.012": 5.19416376805,
			"0.013": 1.0224361467,
			"0.014": 0.0,
			"0.015": 0.0,
			"0.016": 0.0,
			"0.017": 0.0,
			"0.018": 0.0,
			"0.019": 0.0,
			"0.02": 0.0,
			"0.021": 0.0,
			"0.022": 0.0,
			"0.023": 0.0,
			"0.024": 0.0,
			"0.025": 0.0
		}
	}
}
