{
	 "smiles": "OC(=O)COC1=CC=CC=C1Br", 
	 "Tm": 416.15, 
	 "num_atms": 19, 
	 "gaussian": { 
		 "optdone": 1, 
		 "sigma_profile": "yes", 
		 "theory": "DFT", 
		 "functional": "B3LYP", 
		 "basiset": "6-31G**", 
		 "properties": { 
			 "R2extent": 3757.819, 
			 "electric_dipole_moment_norm": 5.07099383159, 
			 "electric_quadrupole_moment_norm": 9.50278163697, 
			 "total_energy": -3106.13949586, 
			 "HOMO_LUMO_gap": 0.21499, 
			 "cosmo_polarized_energy": -12.68, 
			 "cosmo_cavitation_energy": 26.08, 
			 "cosmo_dispersion_energy": -19.43, 
			 "cosmo_repulsion_energy": 1.55, 
			 "cosmo_total_nonelectrostatic_energy": 8.2, 
			 "SMD_solvation_energy": 5.02 
		},
		"coords": [
			{
				"x": 0.1827828658,
				"y": 3.2873105008,
				"z": 0.0364097777,
				"element": "O" 
			},
			{
				"x": -0.2765690418,
				"y": 2.6599867152,
				"z": 1.1284967279,
				"element": "C" 
			},
			{
				"x": -0.489925368,
				"y": 3.2209885129,
				"z": 2.1738004087,
				"element": "O" 
			},
			{
				"x": -0.523668711,
				"y": 1.1559133878,
				"z": 0.9794824849,
				"element": "C" 
			},
			{
				"x": -0.1872188093,
				"y": 0.7788927772,
				"z": -0.3484561091,
				"element": "O" 
			},
			{
				"x": -0.3144962639,
				"y": -0.517863134,
				"z": -0.7542618112,
				"element": "C" 
			},
			{
				"x": -0.770308004,
				"y": -1.5532794753,
				"z": 0.0671494785,
				"element": "C" 
			},
			{
				"x": -0.8679816204,
				"y": -2.8528838943,
				"z": -0.435559893,
				"element": "C" 
			},
			{
				"x": -0.5143272992,
				"y": -3.1307027536,
				"z": -1.753611008,
				"element": "C" 
			},
			{
				"x": -0.0582205793,
				"y": -2.1000285007,
				"z": -2.5791152205,
				"element": "C" 
			},
			{
				"x": 0.0404196894,
				"y": -0.8053060836,
				"z": -2.0828522081,
				"element": "C" 
			},
			{
				"x": 0.6638084167,
				"y": 0.598028725,
				"z": -3.2152719414,
				"element": "Br" 
			},
			{
				"x": 0.2785739154,
				"y": 2.6375637109,
				"z": -0.6840662486,
				"element": "H" 
			},
			{
				"x": -1.5789330368,
				"y": 0.9549379891,
				"z": 1.2001765317,
				"element": "H" 
			},
			{
				"x": 0.0940845336,
				"y": 0.6288061831,
				"z": 1.7165133777,
				"element": "H" 
			},
			{
				"x": -1.0488033067,
				"y": -1.3513241234,
				"z": 1.0948781026,
				"element": "H" 
			},
			{
				"x": -1.2236365775,
				"y": -3.6460290566,
				"z": 0.2146699588,
				"element": "H" 
			},
			{
				"x": -0.5898150649,
				"y": -4.139870303,
				"z": -2.1449747913,
				"element": "H" 
			},
			{
				"x": 0.2219342619,
				"y": -2.2957411772,
				"z": -3.6080076172,
				"element": "H" 
			}
		],
		 "valence_orbital": [ 
			{
				"type": "occ",
				"energy": -0.31584,
				"method": "rhf"
			},
			{
				"type": "occ",
				"energy": -0.29959,
				"method": "rhf"
			},
			{
				"type": "occ",
				"energy": -0.2785,
				"method": "rhf"
			},
			{
				"type": "occ",
				"energy": -0.26599,
				"method": "rhf"
			},
			{
				"type": "occ",
				"energy": -0.24482,
				"method": "rhf"
			},
			{
				"type": "unocc",
				"energy": -0.02983,
				"method": "rhf"
			},
			{
				"type": "unocc",
				"energy": -0.01659,
				"method": "rhf"
			},
			{
				"type": "unocc",
				"energy": -0.00669,
				"method": "rhf"
			},
			{
				"type": "unocc",
				"energy": 0.00645,
				"method": "rhf"
			},
			{
				"type": "unocc",
				"energy": 0.07715,
				"method": "rhf"
			}
		],
		"cosmo_sigma_profile": { 
			"-0.025": 0.0,
			"-0.024": 0.0,
			"-0.023": 0.0,
			"-0.022": 0.0,
			"-0.021": 0.0,
			"-0.02": 0.0,
			"-0.019": 0.0,
			"-0.018": 0.0,
			"-0.017": 0.0,
			"-0.016": 0.0,
			"-0.015": 0.0,
			"-0.014": 0.0,
			"-0.013": 0.0,
			"-0.012": 0.0,
			"-0.011": 0.0,
			"-0.01": 0.168724822893,
			"-0.009": 5.73866388025,
			"-0.008": 10.9433606358,
			"-0.007": 11.8123759183,
			"-0.006": 13.7794277516,
			"-0.005": 12.8254772156,
			"-0.004": 12.0680507681,
			"-0.003": 9.91028548789,
			"-0.002": 10.4018776875,
			"-0.001": 9.11550264493,
			"0.0": 12.3987460303,
			"0.001": 14.1365348543,
			"0.002": 18.7200500496,
			"0.003": 18.209817741,
			"0.004": 18.4334789849,
			"0.005": 6.14216203668,
			"0.006": 2.73957112739,
			"0.007": 2.29166434643,
			"0.008": 2.75139248267,
			"0.009": 4.6295593683,
			"0.01": 4.18942742363,
			"0.011": 5.23260429124,
			"0.012": 4.61214467089,
			"0.013": 0.878419381817,
			"0.014": 0.0,
			"0.015": 0.0,
			"0.016": 0.0,
			"0.017": 0.0,
			"0.018": 0.0,
			"0.019": 0.0,
			"0.02": 0.0,
			"0.021": 0.0,
			"0.022": 0.0,
			"0.023": 0.0,
			"0.024": 0.0,
			"0.025": 0.0
		}
	}
}
