{
	 "smiles": "CCC(C)C(N)C(O)=O", 
	 "Tm": 558.15, 
	 "num_atms": 22, 
	 "gaussian": { 
		 "optdone": 1, 
		 "sigma_profile": "yes", 
		 "theory": "DFT", 
		 "functional": "B3LYP", 
		 "basiset": "6-31G**", 
		 "properties": { 
			 "R2extent": 1897.5277, 
			 "electric_dipole_moment_norm": 2.24478120092, 
			 "electric_quadrupole_moment_norm": 8.88042420552, 
			 "total_energy": -441.692162454, 
			 "HOMO_LUMO_gap": 0.24535, 
			 "cosmo_polarized_energy": -11.54, 
			 "cosmo_cavitation_energy": 23.97, 
			 "cosmo_dispersion_energy": -17.08, 
			 "cosmo_repulsion_energy": 1.42, 
			 "cosmo_total_nonelectrostatic_energy": 8.31, 
			 "SMD_solvation_energy": 4.22 
		},
		"coords": [
			{
				"x": -0.5623067702,
				"y": 1.5344487395,
				"z": -0.4987537353,
				"element": "C" 
			},
			{
				"x": -0.321581894,
				"y": 0.1665620734,
				"z": 0.151314038,
				"element": "C" 
			},
			{
				"x": 1.1427625687,
				"y": -0.3136431666,
				"z": 0.100827476,
				"element": "C" 
			},
			{
				"x": 1.6328642551,
				"y": -0.553162166,
				"z": -1.3345418575,
				"element": "C" 
			},
			{
				"x": 1.3748538252,
				"y": -1.5988611449,
				"z": 0.9683336338,
				"element": "C" 
			},
			{
				"x": 0.59720173,
				"y": -2.7878411389,
				"z": 0.6318462524,
				"element": "N" 
			},
			{
				"x": 1.2169015095,
				"y": -1.2307548561,
				"z": 2.4380385304,
				"element": "C" 
			},
			{
				"x": 0.0731318269,
				"y": -1.6982450742,
				"z": 2.9934025292,
				"element": "O" 
			},
			{
				"x": 2.0015611781,
				"y": -0.5418759611,
				"z": 3.0532950494,
				"element": "O" 
			},
			{
				"x": -0.3543059193,
				"y": 1.5227326929,
				"z": -1.5731422005,
				"element": "H" 
			},
			{
				"x": 0.0721410798,
				"y": 2.3042749783,
				"z": -0.0450475262,
				"element": "H" 
			},
			{
				"x": -1.6040099169,
				"y": 1.8466381132,
				"z": -0.371985173,
				"element": "H" 
			},
			{
				"x": -0.649344557,
				"y": 0.2146357636,
				"z": 1.1972362818,
				"element": "H" 
			},
			{
				"x": -0.9635567401,
				"y": -0.5827049487,
				"z": -0.331917577,
				"element": "H" 
			},
			{
				"x": 1.7746252048,
				"y": 0.4640247938,
				"z": 0.5507561484,
				"element": "H" 
			},
			{
				"x": 2.6739493857,
				"y": -0.8940185166,
				"z": -1.345372319,
				"element": "H" 
			},
			{
				"x": 1.024990953,
				"y": -1.3100091167,
				"z": -1.8456961157,
				"element": "H" 
			},
			{
				"x": 1.581215394,
				"y": 0.3603208324,
				"z": -1.9329700688,
				"element": "H" 
			},
			{
				"x": 2.4359269241,
				"y": -1.8556577596,
				"z": 0.8633826727,
				"element": "H" 
			},
			{
				"x": 0.7060884228,
				"y": -3.0101198394,
				"z": -0.3532801658,
				"element": "H" 
			},
			{
				"x": -0.3909617959,
				"y": -2.634818779,
				"z": 0.8088981034,
				"element": "H" 
			},
			{
				"x": 0.0733533355,
				"y": -1.3779255192,
				"z": 3.9113760233,
				"element": "H" 
			}
		],
		 "valence_orbital": [ 
			{
				"type": "occ",
				"energy": -0.33172,
				"method": "rhf"
			},
			{
				"type": "occ",
				"energy": -0.32345,
				"method": "rhf"
			},
			{
				"type": "occ",
				"energy": -0.31387,
				"method": "rhf"
			},
			{
				"type": "occ",
				"energy": -0.2748,
				"method": "rhf"
			},
			{
				"type": "occ",
				"energy": -0.23553,
				"method": "rhf"
			},
			{
				"type": "unocc",
				"energy": 0.00982,
				"method": "rhf"
			},
			{
				"type": "unocc",
				"energy": 0.06263,
				"method": "rhf"
			},
			{
				"type": "unocc",
				"energy": 0.08639,
				"method": "rhf"
			},
			{
				"type": "unocc",
				"energy": 0.10139,
				"method": "rhf"
			},
			{
				"type": "unocc",
				"energy": 0.11452,
				"method": "rhf"
			}
		],
		"cosmo_sigma_profile": { 
			"-0.025": 0.0,
			"-0.024": 0.0,
			"-0.023": 0.0,
			"-0.022": 0.0,
			"-0.021": 0.0,
			"-0.02": 0.0,
			"-0.019": 0.00527213808674,
			"-0.018": 0.854690307821,
			"-0.017": 0.903164917115,
			"-0.016": 0.798920853255,
			"-0.015": 0.674234307359,
			"-0.014": 0.262157236424,
			"-0.013": 0.84941748716,
			"-0.012": 1.30804495235,
			"-0.011": 0.477145781055,
			"-0.01": 0.945811415668,
			"-0.009": 2.18423419711,
			"-0.008": 3.27407150014,
			"-0.007": 3.59869336395,
			"-0.006": 5.21897657219,
			"-0.005": 5.64673538937,
			"-0.004": 8.75042674014,
			"-0.003": 15.6544320077,
			"-0.002": 23.025895507,
			"-0.001": 21.2932965121,
			"0.0": 23.3363739533,
			"0.001": 19.489568075,
			"0.002": 8.62970038715,
			"0.003": 2.38533447518,
			"0.004": 2.65674517157,
			"0.005": 3.23009494618,
			"0.006": 3.17982005903,
			"0.007": 2.84583360088,
			"0.008": 2.44712927739,
			"0.009": 3.0202922512,
			"0.01": 2.99930563811,
			"0.011": 3.76609872343,
			"0.012": 5.78981682931,
			"0.013": 2.12566887718,
			"0.014": 0.681275381075,
			"0.015": 0.745319141039,
			"0.016": 0.704866112096,
			"0.017": 0.507675035532,
			"0.018": 0.535230423161,
			"0.019": 0.165483310204,
			"0.02": 0.0,
			"0.021": 0.0,
			"0.022": 0.0,
			"0.023": 0.0,
			"0.024": 0.0,
			"0.025": 0.0
		}
	}
}
