{
	 "smiles": "CC(C)=C(C)C", 
	 "Tm": 198.65, 
	 "num_atms": 18, 
	 "gaussian": { 
		 "optdone": 1, 
		 "sigma_profile": "yes", 
		 "theory": "DFT", 
		 "functional": "B3LYP", 
		 "basiset": "6-31G**", 
		 "properties": { 
			 "R2extent": 877.5902, 
			 "electric_dipole_moment_norm": 0.0, 
			 "electric_quadrupole_moment_norm": 1.10069507585, 
			 "total_energy": -235.868903652, 
			 "HOMO_LUMO_gap": 0.25481, 
			 "cosmo_polarized_energy": -1.45, 
			 "cosmo_cavitation_energy": 19.41, 
			 "cosmo_dispersion_energy": -14.43, 
			 "cosmo_repulsion_energy": 1.24, 
			 "cosmo_total_nonelectrostatic_energy": 6.23, 
			 "SMD_solvation_energy": 3.98 
		},
		"coords": [
			{
				"x": -0.2946310938,
				"y": -0.5806759981,
				"z": 1.4585375188,
				"element": "C" 
			},
			{
				"x": 0.7754677356,
				"y": 0.2732351718,
				"z": 0.8131651593,
				"element": "C" 
			},
			{
				"x": 2.0066705805,
				"y": 0.3694457018,
				"z": 1.6882040655,
				"element": "C" 
			},
			{
				"x": 0.6480540263,
				"y": 0.8725894222,
				"z": -0.3895307915,
				"element": "C" 
			},
			{
				"x": -0.5831182488,
				"y": 0.7762639865,
				"z": -1.2645963653,
				"element": "C" 
			},
			{
				"x": 1.7181012148,
				"y": 1.7265754943,
				"z": -1.0348954223,
				"element": "C" 
			},
			{
				"x": -1.2051255581,
				"y": -0.6824482151,
				"z": 0.8684629058,
				"element": "H" 
			},
			{
				"x": -0.5772694109,
				"y": -0.166569583,
				"z": 2.4358702225,
				"element": "H" 
			},
			{
				"x": 0.0883727767,
				"y": -1.591345619,
				"z": 1.6545349134,
				"element": "H" 
			},
			{
				"x": 1.7481284828,
				"y": 0.7939705737,
				"z": 2.6677378302,
				"element": "H" 
			},
			{
				"x": 2.8100394713,
				"y": 0.9746845888,
				"z": 1.268867839,
				"element": "H" 
			},
			{
				"x": 2.4142466621,
				"y": -0.6309832209,
				"z": 1.8871497323,
				"element": "H" 
			},
			{
				"x": -0.3243934724,
				"y": 0.3522745852,
				"z": -2.2443140622,
				"element": "H" 
			},
			{
				"x": -0.991122869,
				"y": 1.7766044543,
				"z": -1.4631061998,
				"element": "H" 
			},
			{
				"x": -1.3862151013,
				"y": 0.1704730222,
				"z": -0.8455321239,
				"element": "H" 
			},
			{
				"x": 2.6282517168,
				"y": 1.8291305631,
				"z": -0.4444288412,
				"element": "H" 
			},
			{
				"x": 1.3347375715,
				"y": 2.7369544279,
				"z": -1.2316794713,
				"element": "H" 
			},
			{
				"x": 2.0014055157,
				"y": 1.3120206443,
				"z": -2.0118469094,
				"element": "H" 
			}
		],
		 "valence_orbital": [ 
			{
				"type": "occ",
				"energy": -0.36815,
				"method": "rhf"
			},
			{
				"type": "occ",
				"energy": -0.3574,
				"method": "rhf"
			},
			{
				"type": "occ",
				"energy": -0.34784,
				"method": "rhf"
			},
			{
				"type": "occ",
				"energy": -0.31239,
				"method": "rhf"
			},
			{
				"type": "occ",
				"energy": -0.21737,
				"method": "rhf"
			},
			{
				"type": "unocc",
				"energy": 0.03744,
				"method": "rhf"
			},
			{
				"type": "unocc",
				"energy": 0.09087,
				"method": "rhf"
			},
			{
				"type": "unocc",
				"energy": 0.11811,
				"method": "rhf"
			},
			{
				"type": "unocc",
				"energy": 0.13261,
				"method": "rhf"
			},
			{
				"type": "unocc",
				"energy": 0.13877,
				"method": "rhf"
			}
		],
		"cosmo_sigma_profile": { 
			"-0.025": 0.0,
			"-0.024": 0.0,
			"-0.023": 0.0,
			"-0.022": 0.0,
			"-0.021": 0.0,
			"-0.02": 0.0,
			"-0.019": 0.0,
			"-0.018": 0.0,
			"-0.017": 0.0,
			"-0.016": 0.0,
			"-0.015": 0.0,
			"-0.014": 0.0,
			"-0.013": 0.0,
			"-0.012": 0.0,
			"-0.011": 0.0,
			"-0.01": 0.0,
			"-0.009": 0.0,
			"-0.008": 0.0,
			"-0.007": 0.0,
			"-0.006": 0.0127998155312,
			"-0.005": 2.05372906708,
			"-0.004": 3.18757904965,
			"-0.003": 15.8778296364,
			"-0.002": 22.2893956806,
			"-0.001": 23.1342130894,
			"0.0": 22.9071130157,
			"0.001": 31.4486860304,
			"0.002": 12.3992027683,
			"0.003": 5.16782189867,
			"0.004": 4.40940586697,
			"0.005": 3.27638817595,
			"0.006": 2.49776853591,
			"0.007": 2.02134230431,
			"0.008": 0.193445099178,
			"0.009": 0.0,
			"0.01": 0.0,
			"0.011": 0.0,
			"0.012": 0.0,
			"0.013": 0.0,
			"0.014": 0.0,
			"0.015": 0.0,
			"0.016": 0.0,
			"0.017": 0.0,
			"0.018": 0.0,
			"0.019": 0.0,
			"0.02": 0.0,
			"0.021": 0.0,
			"0.022": 0.0,
			"0.023": 0.0,
			"0.024": 0.0,
			"0.025": 0.0
		}
	}
}
