{
	 "smiles": "CCC(=O)C1=C(N)C=CN=C1", 
	 "Tm": 408.15, 
	 "num_atms": 21, 
	 "gaussian": { 
		 "optdone": 1, 
		 "sigma_profile": "yes", 
		 "theory": "DFT", 
		 "functional": "B3LYP", 
		 "basiset": "6-31G**", 
		 "properties": { 
			 "R2extent": 2662.1295, 
			 "electric_dipole_moment_norm": 5.43998889245, 
			 "electric_quadrupole_moment_norm": 8.17253898125, 
			 "total_energy": -495.604649133, 
			 "HOMO_LUMO_gap": 0.18383, 
			 "cosmo_polarized_energy": -16.08, 
			 "cosmo_cavitation_energy": 24.26, 
			 "cosmo_dispersion_energy": -17.95, 
			 "cosmo_repulsion_energy": 1.44, 
			 "cosmo_total_nonelectrostatic_energy": 7.75, 
			 "SMD_solvation_energy": 3.27 
		},
		"coords": [
			{
				"x": -1.5859645257,
				"y": 1.7103736616,
				"z": 3.3501141539,
				"element": "C" 
			},
			{
				"x": -1.8099932069,
				"y": 2.3332944904,
				"z": 1.9618598345,
				"element": "C" 
			},
			{
				"x": -0.4962828255,
				"y": 2.4921483226,
				"z": 1.1913556347,
				"element": "C" 
			},
			{
				"x": 0.362022805,
				"y": 3.2395225573,
				"z": 1.6411935482,
				"element": "O" 
			},
			{
				"x": -0.2952776213,
				"y": 1.8269203488,
				"z": -0.1329793298,
				"element": "C" 
			},
			{
				"x": -0.8591788896,
				"y": 0.5958346819,
				"z": -0.5542136017,
				"element": "C" 
			},
			{
				"x": -1.6444958121,
				"y": -0.2032354425,
				"z": 0.2541154812,
				"element": "N" 
			},
			{
				"x": -0.5962271185,
				"y": 0.1910591522,
				"z": -1.8778099824,
				"element": "C" 
			},
			{
				"x": 0.2064885474,
				"y": 0.9750913009,
				"z": -2.6899782062,
				"element": "C" 
			},
			{
				"x": 0.7802224393,
				"y": 2.1273215089,
				"z": -2.3010894801,
				"element": "N" 
			},
			{
				"x": 0.5240630546,
				"y": 2.5102543518,
				"z": -1.0518802512,
				"element": "C" 
			},
			{
				"x": -0.8279866178,
				"y": 2.2805705038,
				"z": 3.8928645556,
				"element": "H" 
			},
			{
				"x": -1.2341915734,
				"y": 0.6719311948,
				"z": 3.2918400113,
				"element": "H" 
			},
			{
				"x": -2.5115397228,
				"y": 1.7116812991,
				"z": 3.9326352481,
				"element": "H" 
			},
			{
				"x": -2.1893027295,
				"y": 3.3530704883,
				"z": 2.0947092339,
				"element": "H" 
			},
			{
				"x": -2.5578306515,
				"y": 1.7798175465,
				"z": 1.3888600584,
				"element": "H" 
			},
			{
				"x": -1.5145479714,
				"y": -0.1420062276,
				"z": 1.2519568278,
				"element": "H" 
			},
			{
				"x": -1.7922259868,
				"y": -1.147451163,
				"z": -0.072134574,
				"element": "H" 
			},
			{
				"x": -1.0070455418,
				"y": -0.7429818181,
				"z": -2.252010781,
				"element": "H" 
			},
			{
				"x": 0.414878518,
				"y": 0.6558837599,
				"z": -3.7098997378,
				"element": "H" 
			},
			{
				"x": 0.9752154303,
				"y": 3.4422994823,
				"z": -0.7201086435,
				"element": "H" 
			}
		],
		 "valence_orbital": [ 
			{
				"type": "occ",
				"energy": -0.34227,
				"method": "rhf"
			},
			{
				"type": "occ",
				"energy": -0.26565,
				"method": "rhf"
			},
			{
				"type": "occ",
				"energy": -0.25818,
				"method": "rhf"
			},
			{
				"type": "occ",
				"energy": -0.24064,
				"method": "rhf"
			},
			{
				"type": "occ",
				"energy": -0.23758,
				"method": "rhf"
			},
			{
				"type": "unocc",
				"energy": -0.05375,
				"method": "rhf"
			},
			{
				"type": "unocc",
				"energy": -0.00933,
				"method": "rhf"
			},
			{
				"type": "unocc",
				"energy": 0.02507,
				"method": "rhf"
			},
			{
				"type": "unocc",
				"energy": 0.05864,
				"method": "rhf"
			},
			{
				"type": "unocc",
				"energy": 0.08966,
				"method": "rhf"
			}
		],
		"cosmo_sigma_profile": { 
			"-0.025": 0.0,
			"-0.024": 0.0,
			"-0.023": 0.0,
			"-0.022": 0.0,
			"-0.021": 0.0,
			"-0.02": 0.0,
			"-0.019": 0.0,
			"-0.018": 0.0,
			"-0.017": 0.0,
			"-0.016": 0.0,
			"-0.015": 0.0,
			"-0.014": 1.07032859981,
			"-0.013": 1.79600479556,
			"-0.012": 3.40321729291,
			"-0.011": 3.97227006557,
			"-0.01": 3.46727138437,
			"-0.009": 2.61389105667,
			"-0.008": 2.50395396008,
			"-0.007": 4.57322847337,
			"-0.006": 6.03461258114,
			"-0.005": 8.20628560288,
			"-0.004": 11.5192044927,
			"-0.003": 14.782910814,
			"-0.002": 17.1242774354,
			"-0.001": 16.5545582798,
			"0.0": 14.9699070526,
			"0.001": 13.0385704969,
			"0.002": 13.2951252924,
			"0.003": 10.7737351052,
			"0.004": 5.19769032765,
			"0.005": 5.20848160469,
			"0.006": 3.55691212491,
			"0.007": 3.28941109388,
			"0.008": 3.899156379,
			"0.009": 3.04825827868,
			"0.01": 3.07734897723,
			"0.011": 3.38746063819,
			"0.012": 5.43422502679,
			"0.013": 2.940613373,
			"0.014": 0.923706506022,
			"0.015": 1.01428654073,
			"0.016": 0.982065353519,
			"0.017": 0.647500844162,
			"0.018": 0.0768696002529,
			"0.019": 0.0,
			"0.02": 0.0,
			"0.021": 0.0,
			"0.022": 0.0,
			"0.023": 0.0,
			"0.024": 0.0,
			"0.025": 0.0
		}
	}
}
