{
	 "smiles": "NC1=C(C=CC=C1)S(=O)(=O)NC1=CC=CC=C1", 
	 "Tm": 392.15, 
	 "num_atms": 29, 
	 "gaussian": { 
		 "optdone": 1, 
		 "sigma_profile": "yes", 
		 "theory": "DFT", 
		 "functional": "B3LYP", 
		 "basiset": "6-31G**", 
		 "properties": { 
			 "R2extent": 4952.546, 
			 "electric_dipole_moment_norm": 3.36411988193, 
			 "electric_quadrupole_moment_norm": 18.6259948999, 
			 "total_energy": -1122.58332617, 
			 "HOMO_LUMO_gap": 0.18637, 
			 "cosmo_polarized_energy": -15.71, 
			 "cosmo_cavitation_energy": 33.42, 
			 "cosmo_dispersion_energy": -24.79, 
			 "cosmo_repulsion_energy": 1.86, 
			 "cosmo_total_nonelectrostatic_energy": 10.49, 
			 "SMD_solvation_energy": 4.96 
		},
		"coords": [
			{
				"x": 2.9955479992,
				"y": -1.579242756,
				"z": -0.0006149178,
				"element": "N" 
			},
			{
				"x": 2.1850329742,
				"y": -1.4581472062,
				"z": -1.1101156585,
				"element": "C" 
			},
			{
				"x": 0.7891747498,
				"y": -1.2179100702,
				"z": -1.0438409538,
				"element": "C" 
			},
			{
				"x": 0.0248991123,
				"y": -1.0672397207,
				"z": -2.2107711199,
				"element": "C" 
			},
			{
				"x": 0.6169100897,
				"y": -1.1310303862,
				"z": -3.463138001,
				"element": "C" 
			},
			{
				"x": 1.9970003736,
				"y": -1.3573296335,
				"z": -3.545711386,
				"element": "C" 
			},
			{
				"x": 2.7593876844,
				"y": -1.5195442973,
				"z": -2.4004797873,
				"element": "C" 
			},
			{
				"x": -0.114210155,
				"y": -1.1259189032,
				"z": 0.4953175141,
				"element": "S" 
			},
			{
				"x": -1.4799917257,
				"y": -1.6012466859,
				"z": 0.2559745597,
				"element": "O" 
			},
			{
				"x": 0.7163652888,
				"y": -1.7122058407,
				"z": 1.5587722396,
				"element": "O" 
			},
			{
				"x": -0.3389972456,
				"y": 0.5393276938,
				"z": 0.787017996,
				"element": "N" 
			},
			{
				"x": 0.4568193711,
				"y": 1.3215974936,
				"z": 1.6658263724,
				"element": "C" 
			},
			{
				"x": -0.1856355703,
				"y": 2.1623513331,
				"z": 2.5851606671,
				"element": "C" 
			},
			{
				"x": 0.5616004594,
				"y": 2.9991711923,
				"z": 3.4120731409,
				"element": "C" 
			},
			{
				"x": 1.9556346818,
				"y": 2.9903840665,
				"z": 3.3490075531,
				"element": "C" 
			},
			{
				"x": 2.5921401178,
				"y": 2.1436611048,
				"z": 2.439734501,
				"element": "C" 
			},
			{
				"x": 1.8553594685,
				"y": 1.3199445641,
				"z": 1.5896651046,
				"element": "C" 
			},
			{
				"x": 2.536979749,
				"y": -1.8435861167,
				"z": 0.8636941654,
				"element": "H" 
			},
			{
				"x": 3.8983974211,
				"y": -2.000216364,
				"z": -0.1619915387,
				"element": "H" 
			},
			{
				"x": -1.0445866329,
				"y": -0.916837448,
				"z": -2.1133627254,
				"element": "H" 
			},
			{
				"x": 0.017528058,
				"y": -1.0155234765,
				"z": -4.359588219,
				"element": "H" 
			},
			{
				"x": 2.4811823016,
				"y": -1.4156251637,
				"z": -4.5164520692,
				"element": "H" 
			},
			{
				"x": 3.8284591408,
				"y": -1.7004544312,
				"z": -2.479046478,
				"element": "H" 
			},
			{
				"x": -1.3396064966,
				"y": 0.6859785778,
				"z": 0.87829597,
				"element": "H" 
			},
			{
				"x": -1.2709292162,
				"y": 2.1589418529,
				"z": 2.6507802291,
				"element": "H" 
			},
			{
				"x": 0.0489897741,
				"y": 3.6497168242,
				"z": 4.1147743584,
				"element": "H" 
			},
			{
				"x": 2.5382755637,
				"y": 3.6352744294,
				"z": 3.999555666,
				"element": "H" 
			},
			{
				"x": 3.6766209608,
				"y": 2.1293998279,
				"z": 2.378336691,
				"element": "H" 
			},
			{
				"x": 2.3684517025,
				"y": 0.6817095398,
				"z": 0.8789261262,
				"element": "H" 
			}
		],
		 "valence_orbital": [ 
			{
				"type": "occ",
				"energy": -0.30484,
				"method": "rhf"
			},
			{
				"type": "occ",
				"energy": -0.2682,
				"method": "rhf"
			},
			{
				"type": "occ",
				"energy": -0.25209,
				"method": "rhf"
			},
			{
				"type": "occ",
				"energy": -0.22429,
				"method": "rhf"
			},
			{
				"type": "occ",
				"energy": -0.2199,
				"method": "rhf"
			},
			{
				"type": "unocc",
				"energy": -0.03353,
				"method": "rhf"
			},
			{
				"type": "unocc",
				"energy": -0.00344,
				"method": "rhf"
			},
			{
				"type": "unocc",
				"energy": -0.00231,
				"method": "rhf"
			},
			{
				"type": "unocc",
				"energy": -4e-05,
				"method": "rhf"
			},
			{
				"type": "unocc",
				"energy": 0.05909,
				"method": "rhf"
			}
		],
		"cosmo_sigma_profile": { 
			"-0.025": 0.0,
			"-0.024": 0.0,
			"-0.023": 0.0,
			"-0.022": 0.0,
			"-0.021": 0.0,
			"-0.02": 0.0,
			"-0.019": 0.0,
			"-0.018": 0.0,
			"-0.017": 0.0,
			"-0.016": 0.0,
			"-0.015": 0.524247513507,
			"-0.014": 1.37780077076,
			"-0.013": 2.33988962355,
			"-0.012": 3.42725881284,
			"-0.011": 2.28319328101,
			"-0.01": 2.65730476176,
			"-0.009": 3.4077581908,
			"-0.008": 3.69774288488,
			"-0.007": 6.3133294309,
			"-0.006": 14.3919157252,
			"-0.005": 18.4076792872,
			"-0.004": 18.4511554779,
			"-0.003": 14.5894967509,
			"-0.002": 15.8987706227,
			"-0.001": 16.1843551998,
			"0.0": 13.3098365213,
			"0.001": 16.1746908949,
			"0.002": 16.4525407329,
			"0.003": 19.732779143,
			"0.004": 23.233610187,
			"0.005": 18.5085612054,
			"0.006": 10.2740119243,
			"0.007": 4.35036940796,
			"0.008": 4.12560716562,
			"0.009": 3.94984924278,
			"0.01": 7.05766200127,
			"0.011": 6.02207468757,
			"0.012": 0.61363609817,
			"0.013": 0.0,
			"0.014": 0.0,
			"0.015": 0.0,
			"0.016": 0.0,
			"0.017": 0.0,
			"0.018": 0.0,
			"0.019": 0.0,
			"0.02": 0.0,
			"0.021": 0.0,
			"0.022": 0.0,
			"0.023": 0.0,
			"0.024": 0.0,
			"0.025": 0.0
		}
	}
}
