{
	 "smiles": "CCCCN1C(=O)CC(=O)N(CCCC)C1=S", 
	 "Tm": 335.15, 
	 "num_atms": 37, 
	 "gaussian": { 
		 "optdone": 1, 
		 "sigma_profile": "yes", 
		 "theory": "DFT", 
		 "functional": "B3LYP", 
		 "basiset": "6-31G**", 
		 "properties": { 
			 "R2extent": 5902.9392, 
			 "electric_dipole_moment_norm": 0.582660338448, 
			 "electric_quadrupole_moment_norm": 9.24709615339, 
			 "total_energy": -1127.52312088, 
			 "HOMO_LUMO_gap": 0.15239, 
			 "cosmo_polarized_energy": -11.64, 
			 "cosmo_cavitation_energy": 39.15, 
			 "cosmo_dispersion_energy": -27.56, 
			 "cosmo_repulsion_energy": 2.15, 
			 "cosmo_total_nonelectrostatic_energy": 13.73, 
			 "SMD_solvation_energy": 6.5 
		},
		"coords": [
			{
				"x": 2.4681780097,
				"y": -1.2127234855,
				"z": -4.4112521485,
				"element": "C" 
			},
			{
				"x": 2.4940534205,
				"y": -1.1515074316,
				"z": -2.8804982969,
				"element": "C" 
			},
			{
				"x": 1.8504389268,
				"y": -2.3869931863,
				"z": -2.2376790951,
				"element": "C" 
			},
			{
				"x": 1.9033747463,
				"y": -2.4369229203,
				"z": -0.7060015629,
				"element": "C" 
			},
			{
				"x": 1.1663873128,
				"y": -1.3310695349,
				"z": -0.0358902139,
				"element": "N" 
			},
			{
				"x": 1.9529892034,
				"y": -0.2662728795,
				"z": 0.4271559128,
				"element": "C" 
			},
			{
				"x": 3.1500126543,
				"y": -0.2064267485,
				"z": 0.2193538157,
				"element": "O" 
			},
			{
				"x": 1.2424192,
				"y": 0.7690785263,
				"z": 1.2556476757,
				"element": "C" 
			},
			{
				"x": -0.2393900836,
				"y": 0.8872651919,
				"z": 1.0315240056,
				"element": "C" 
			},
			{
				"x": -0.8465620514,
				"y": 1.9126057335,
				"z": 1.2737632967,
				"element": "O" 
			},
			{
				"x": -0.8859649856,
				"y": -0.2827107093,
				"z": 0.5999728441,
				"element": "N" 
			},
			{
				"x": -2.3735328229,
				"y": -0.2337603858,
				"z": 0.5956723373,
				"element": "C" 
			},
			{
				"x": -3.0256320548,
				"y": -0.8208628559,
				"z": 1.8535505998,
				"element": "C" 
			},
			{
				"x": -2.6801101869,
				"y": -0.1132698644,
				"z": 3.1704193376,
				"element": "C" 
			},
			{
				"x": -3.4373442294,
				"y": -0.7043046359,
				"z": 4.3641945928,
				"element": "C" 
			},
			{
				"x": -0.2208197469,
				"y": -1.413486732,
				"z": 0.122022742,
				"element": "C" 
			},
			{
				"x": -1.0579470949,
				"y": -2.7983116859,
				"z": -0.2885115454,
				"element": "S" 
			},
			{
				"x": 3.0188291325,
				"y": -2.0845186694,
				"z": -4.7829208435,
				"element": "H" 
			},
			{
				"x": 1.4420897737,
				"y": -1.2859552058,
				"z": -4.789563431,
				"element": "H" 
			},
			{
				"x": 2.9228228349,
				"y": -0.3201688883,
				"z": -4.852788691,
				"element": "H" 
			},
			{
				"x": 3.5266476522,
				"y": -1.047278177,
				"z": -2.5271725111,
				"element": "H" 
			},
			{
				"x": 1.9697427774,
				"y": -0.2468013286,
				"z": -2.547297674,
				"element": "H" 
			},
			{
				"x": 2.3662094322,
				"y": -3.2900787141,
				"z": -2.5921407953,
				"element": "H" 
			},
			{
				"x": 0.8098222456,
				"y": -2.4840482074,
				"z": -2.5668796702,
				"element": "H" 
			},
			{
				"x": 1.4734480009,
				"y": -3.3705766024,
				"z": -0.3447079421,
				"element": "H" 
			},
			{
				"x": 2.9324851979,
				"y": -2.3514123631,
				"z": -0.3583647415,
				"element": "H" 
			},
			{
				"x": 1.3942362124,
				"y": 0.5054377102,
				"z": 2.3123396954,
				"element": "H" 
			},
			{
				"x": 1.7128276195,
				"y": 1.7411585835,
				"z": 1.104365714,
				"element": "H" 
			},
			{
				"x": -2.709161138,
				"y": -0.7743668923,
				"z": -0.2885102516,
				"element": "H" 
			},
			{
				"x": -2.6255185716,
				"y": 0.8216844856,
				"z": 0.4927866646,
				"element": "H" 
			},
			{
				"x": -2.7799253347,
				"y": -1.8858857295,
				"z": 1.923103723,
				"element": "H" 
			},
			{
				"x": -4.110685849,
				"y": -0.7663952636,
				"z": 1.6891396273,
				"element": "H" 
			},
			{
				"x": -2.8960880489,
				"y": 0.9581918546,
				"z": 3.083463522,
				"element": "H" 
			},
			{
				"x": -1.6009305868,
				"y": -0.1903561888,
				"z": 3.3579773635,
				"element": "H" 
			},
			{
				"x": -3.1707737389,
				"y": -0.1958373712,
				"z": 5.2962562917,
				"element": "H" 
			},
			{
				"x": -3.2133937252,
				"y": -1.769820554,
				"z": 4.4893290847,
				"element": "H" 
			},
			{
				"x": -4.5211341034,
				"y": -0.6089988739,
				"z": 4.2320405677,
				"element": "H" 
			}
		],
		 "valence_orbital": [ 
			{
				"type": "occ",
				"energy": -0.29978,
				"method": "rhf"
			},
			{
				"type": "occ",
				"energy": -0.28213,
				"method": "rhf"
			},
			{
				"type": "occ",
				"energy": -0.28007,
				"method": "rhf"
			},
			{
				"type": "occ",
				"energy": -0.25061,
				"method": "rhf"
			},
			{
				"type": "occ",
				"energy": -0.22941,
				"method": "rhf"
			},
			{
				"type": "unocc",
				"energy": -0.07702,
				"method": "rhf"
			},
			{
				"type": "unocc",
				"energy": -0.00873,
				"method": "rhf"
			},
			{
				"type": "unocc",
				"energy": 0.01542,
				"method": "rhf"
			},
			{
				"type": "unocc",
				"energy": 0.07604,
				"method": "rhf"
			},
			{
				"type": "unocc",
				"energy": 0.08551,
				"method": "rhf"
			}
		],
		"cosmo_sigma_profile": { 
			"-0.025": 0.0,
			"-0.024": 0.0,
			"-0.023": 0.0,
			"-0.022": 0.0,
			"-0.021": 0.0,
			"-0.02": 0.0,
			"-0.019": 0.0,
			"-0.018": 0.0,
			"-0.017": 0.0,
			"-0.016": 0.0,
			"-0.015": 0.0,
			"-0.014": 0.0,
			"-0.013": 0.0,
			"-0.012": 0.0,
			"-0.011": 1.77357873058,
			"-0.01": 4.38150348238,
			"-0.009": 3.70369355554,
			"-0.008": 4.73854089781,
			"-0.007": 5.24447028624,
			"-0.006": 5.57466436358,
			"-0.005": 6.35387683572,
			"-0.004": 15.0344730543,
			"-0.003": 31.9724718201,
			"-0.002": 40.6529060506,
			"-0.001": 36.773657258,
			"0.0": 34.5705294406,
			"0.001": 31.0644008779,
			"0.002": 17.7049406239,
			"0.003": 9.63296928891,
			"0.004": 9.48055142918,
			"0.005": 9.35109480884,
			"0.006": 12.0238659826,
			"0.007": 6.57099075417,
			"0.008": 3.7729872091,
			"0.009": 3.10347254697,
			"0.01": 4.6301997695,
			"0.011": 6.8437916188,
			"0.012": 2.85827938635,
			"0.013": 0.106123116365,
			"0.014": 0.0,
			"0.015": 0.0,
			"0.016": 0.0,
			"0.017": 0.0,
			"0.018": 0.0,
			"0.019": 0.0,
			"0.02": 0.0,
			"0.021": 0.0,
			"0.022": 0.0,
			"0.023": 0.0,
			"0.024": 0.0,
			"0.025": 0.0
		}
	}
}
