{
	 "smiles": "CC1=CC=CC(Cl)=C1N", 
	 "Tm": 275.15, 
	 "num_atms": 17, 
	 "gaussian": { 
		 "optdone": 1, 
		 "sigma_profile": "yes", 
		 "theory": "DFT", 
		 "functional": "B3LYP", 
		 "basiset": "6-31G**", 
		 "properties": { 
			 "R2extent": 1888.4921, 
			 "electric_dipole_moment_norm": 2.21278099685, 
			 "electric_quadrupole_moment_norm": 9.45736242829, 
			 "total_energy": -786.522796915, 
			 "HOMO_LUMO_gap": 0.20481, 
			 "cosmo_polarized_energy": -6.85, 
			 "cosmo_cavitation_energy": 21.65, 
			 "cosmo_dispersion_energy": -16.52, 
			 "cosmo_repulsion_energy": 1.35, 
			 "cosmo_total_nonelectrostatic_energy": 6.47, 
			 "SMD_solvation_energy": 3.35 
		},
		"coords": [
			{
				"x": 1.5065156495,
				"y": 1.5090567599,
				"z": -0.3197632531,
				"element": "C" 
			},
			{
				"x": 0.5976506572,
				"y": 0.3273068077,
				"z": -0.0879788111,
				"element": "C" 
			},
			{
				"x": -0.7695697201,
				"y": 0.4980952127,
				"z": 0.1301230869,
				"element": "C" 
			},
			{
				"x": -1.6186672001,
				"y": -0.5854982829,
				"z": 0.3621324401,
				"element": "C" 
			},
			{
				"x": -1.0915385208,
				"y": -1.8743085712,
				"z": 0.3763276807,
				"element": "C" 
			},
			{
				"x": 0.2701636631,
				"y": -2.05661489,
				"z": 0.155058327,
				"element": "C" 
			},
			{
				"x": 0.9216688529,
				"y": -3.7010800042,
				"z": 0.1622470028,
				"element": "Cl" 
			},
			{
				"x": 1.1449846369,
				"y": -0.9800408787,
				"z": -0.0791669654,
				"element": "C" 
			},
			{
				"x": 2.5115119271,
				"y": -1.1729072297,
				"z": -0.2397194788,
				"element": "N" 
			},
			{
				"x": 1.9655618167,
				"y": 1.4879382748,
				"z": -1.3187495608,
				"element": "H" 
			},
			{
				"x": 2.3253254074,
				"y": 1.5347733146,
				"z": 0.4099202967,
				"element": "H" 
			},
			{
				"x": 0.9539613426,
				"y": 2.4482034767,
				"z": -0.239802807,
				"element": "H" 
			},
			{
				"x": -1.1746748449,
				"y": 1.5066809286,
				"z": 0.1207616037,
				"element": "H" 
			},
			{
				"x": -2.6788376308,
				"y": -0.4293436938,
				"z": 0.5326129803,
				"element": "H" 
			},
			{
				"x": -1.7223356673,
				"y": -2.7387761052,
				"z": 0.552003139,
				"element": "H" 
			},
			{
				"x": 2.7884898837,
				"y": -2.1190426367,
				"z": -0.4616591368,
				"element": "H" 
			},
			{
				"x": 2.989089747,
				"y": -0.4796424827,
				"z": -0.7965465441,
				"element": "H" 
			}
		],
		 "valence_orbital": [ 
			{
				"type": "occ",
				"energy": -0.32618,
				"method": "rhf"
			},
			{
				"type": "occ",
				"energy": -0.31301,
				"method": "rhf"
			},
			{
				"type": "occ",
				"energy": -0.31199,
				"method": "rhf"
			},
			{
				"type": "occ",
				"energy": -0.23778,
				"method": "rhf"
			},
			{
				"type": "occ",
				"energy": -0.20527,
				"method": "rhf"
			},
			{
				"type": "unocc",
				"energy": -0.00046,
				"method": "rhf"
			},
			{
				"type": "unocc",
				"energy": 0.01226,
				"method": "rhf"
			},
			{
				"type": "unocc",
				"energy": 0.0345,
				"method": "rhf"
			},
			{
				"type": "unocc",
				"energy": 0.0771,
				"method": "rhf"
			},
			{
				"type": "unocc",
				"energy": 0.11104,
				"method": "rhf"
			}
		],
		"cosmo_sigma_profile": { 
			"-0.025": 0.0,
			"-0.024": 0.0,
			"-0.023": 0.0,
			"-0.022": 0.0,
			"-0.021": 0.0,
			"-0.02": 0.0,
			"-0.019": 0.0,
			"-0.018": 0.0,
			"-0.017": 0.0,
			"-0.016": 0.0,
			"-0.015": 0.0,
			"-0.014": 0.0,
			"-0.013": 0.0427535795959,
			"-0.012": 0.893340734085,
			"-0.011": 2.28649115178,
			"-0.01": 2.03943240053,
			"-0.009": 2.93741680127,
			"-0.008": 2.54004823594,
			"-0.007": 2.33876144485,
			"-0.006": 4.74357277203,
			"-0.005": 9.91616637993,
			"-0.004": 12.9631852441,
			"-0.003": 12.7913925828,
			"-0.002": 10.3704561661,
			"-0.001": 13.6526876194,
			"0.0": 14.4504194561,
			"0.001": 11.288440918,
			"0.002": 11.2926550494,
			"0.003": 14.836540061,
			"0.004": 15.2740587568,
			"0.005": 15.1390276038,
			"0.006": 8.61785621827,
			"0.007": 1.98311020503,
			"0.008": 0.593021285863,
			"0.009": 0.486363990371,
			"0.01": 0.537875798794,
			"0.011": 0.851596901625,
			"0.012": 0.475974061444,
			"0.013": 0.540474369297,
			"0.014": 0.123202039909,
			"0.015": 0.0,
			"0.016": 0.0,
			"0.017": 0.0,
			"0.018": 0.0,
			"0.019": 0.0,
			"0.02": 0.0,
			"0.021": 0.0,
			"0.022": 0.0,
			"0.023": 0.0,
			"0.024": 0.0,
			"0.025": 0.0
		}
	}
}
