{
	 "smiles": "CC(C)(C)OC(=O)NCC1=NN=C(N1)C1=CN=CC=C1", 
	 "Tm": 470.15, 
	 "num_atms": 37, 
	 "gaussian": { 
		 "optdone": 1, 
		 "sigma_profile": "yes", 
		 "theory": "DFT", 
		 "functional": "B3LYP", 
		 "basiset": "6-31G**", 
		 "properties": { 
			 "R2extent": 7963.6387, 
			 "electric_dipole_moment_norm": 4.33126114313, 
			 "electric_quadrupole_moment_norm": 21.7574819524, 
			 "total_energy": -929.862940018, 
			 "HOMO_LUMO_gap": 0.18905, 
			 "cosmo_polarized_energy": -20.05, 
			 "cosmo_cavitation_energy": 40.74, 
			 "cosmo_dispersion_energy": -28.48, 
			 "cosmo_repulsion_energy": 2.19, 
			 "cosmo_total_nonelectrostatic_energy": 14.45, 
			 "SMD_solvation_energy": 3.38 
		},
		"coords": [
			{
				"x": -3.6281210454,
				"y": 0.1480816846,
				"z": -2.9540318476,
				"element": "C" 
			},
			{
				"x": -2.6203809782,
				"y": 1.2232781493,
				"z": -2.537078018,
				"element": "C" 
			},
			{
				"x": -2.9409973469,
				"y": 2.5622525256,
				"z": -3.2052213176,
				"element": "C" 
			},
			{
				"x": -1.1726476923,
				"y": 0.8081221507,
				"z": -2.8152831513,
				"element": "C" 
			},
			{
				"x": -2.7898156791,
				"y": 1.5376311733,
				"z": -1.1032424966,
				"element": "O" 
			},
			{
				"x": -2.579225268,
				"y": 0.6122245994,
				"z": -0.1503630196,
				"element": "C" 
			},
			{
				"x": -2.2631918157,
				"y": -0.5640650178,
				"z": -0.3318055214,
				"element": "O" 
			},
			{
				"x": -2.7725752668,
				"y": 1.1532012329,
				"z": 1.0840742384,
				"element": "N" 
			},
			{
				"x": -2.6490203581,
				"y": 0.3511911626,
				"z": 2.2985474311,
				"element": "C" 
			},
			{
				"x": -1.2436438083,
				"y": -0.0392851581,
				"z": 2.6419566641,
				"element": "C" 
			},
			{
				"x": -0.5865230422,
				"y": 0.2946204396,
				"z": 3.7321999392,
				"element": "N" 
			},
			{
				"x": 0.6556839786,
				"y": -0.2880368029,
				"z": 3.6540391724,
				"element": "N" 
			},
			{
				"x": 0.7206116786,
				"y": -0.9582344488,
				"z": 2.5151007741,
				"element": "C" 
			},
			{
				"x": -0.4687869247,
				"y": -0.8335101634,
				"z": 1.8457906363,
				"element": "N" 
			},
			{
				"x": 1.8849527797,
				"y": -1.7110736486,
				"z": 2.050020861,
				"element": "C" 
			},
			{
				"x": 1.8988502722,
				"y": -2.4090332342,
				"z": 0.8326808877,
				"element": "C" 
			},
			{
				"x": 2.9464168589,
				"y": -3.1029259356,
				"z": 0.3790661768,
				"element": "N" 
			},
			{
				"x": 4.0455475543,
				"y": -3.1287588067,
				"z": 1.1424079728,
				"element": "C" 
			},
			{
				"x": 4.1427745401,
				"y": -2.4719922212,
				"z": 2.3723027959,
				"element": "C" 
			},
			{
				"x": 3.0483230284,
				"y": -1.7518864261,
				"z": 2.8342426273,
				"element": "C" 
			},
			{
				"x": -4.6459648351,
				"y": 0.462732535,
				"z": -2.7033222993,
				"element": "H" 
			},
			{
				"x": -3.5763404237,
				"y": -0.0008928345,
				"z": -4.037281548,
				"element": "H" 
			},
			{
				"x": -3.4180368425,
				"y": -0.8003221191,
				"z": -2.4588535731,
				"element": "H" 
			},
			{
				"x": -3.9586516741,
				"y": 2.8814041593,
				"z": -2.962800036,
				"element": "H" 
			},
			{
				"x": -2.8573221194,
				"y": 2.4670126459,
				"z": -4.2916554334,
				"element": "H" 
			},
			{
				"x": -2.2462213852,
				"y": 3.3381500266,
				"z": -2.871096577,
				"element": "H" 
			},
			{
				"x": -0.9359778844,
				"y": -0.143019802,
				"z": -2.3379704866,
				"element": "H" 
			},
			{
				"x": -1.0242096591,
				"y": 0.7035634051,
				"z": -3.8946757938,
				"element": "H" 
			},
			{
				"x": -0.479482996,
				"y": 1.5727592524,
				"z": -2.4509304637,
				"element": "H" 
			},
			{
				"x": -2.9204129423,
				"y": 2.1485827737,
				"z": 1.1481453446,
				"element": "H" 
			},
			{
				"x": -3.0425873022,
				"y": 0.9313795442,
				"z": 3.134233859,
				"element": "H" 
			},
			{
				"x": -3.2679454553,
				"y": -0.545867296,
				"z": 2.1848951309,
				"element": "H" 
			},
			{
				"x": -0.7678084334,
				"y": -1.1579813749,
				"z": 0.9305214987,
				"element": "H" 
			},
			{
				"x": 1.021509432,
				"y": -2.4120404533,
				"z": 0.1865061616,
				"element": "H" 
			},
			{
				"x": 4.8863136953,
				"y": -3.7002632976,
				"z": 0.7535196126,
				"element": "H" 
			},
			{
				"x": 5.0591162918,
				"y": -2.5264917263,
				"z": 2.9516500108,
				"element": "H" 
			},
			{
				"x": 3.0658910682,
				"y": -1.2218066933,
				"z": 3.780509788,
				"element": "H" 
			}
		],
		 "valence_orbital": [ 
			{
				"type": "occ",
				"energy": -0.27849,
				"method": "rhf"
			},
			{
				"type": "occ",
				"energy": -0.27561,
				"method": "rhf"
			},
			{
				"type": "occ",
				"energy": -0.25908,
				"method": "rhf"
			},
			{
				"type": "occ",
				"energy": -0.24884,
				"method": "rhf"
			},
			{
				"type": "occ",
				"energy": -0.23043,
				"method": "rhf"
			},
			{
				"type": "unocc",
				"energy": -0.04138,
				"method": "rhf"
			},
			{
				"type": "unocc",
				"energy": -0.02262,
				"method": "rhf"
			},
			{
				"type": "unocc",
				"energy": 0.02254,
				"method": "rhf"
			},
			{
				"type": "unocc",
				"energy": 0.03393,
				"method": "rhf"
			},
			{
				"type": "unocc",
				"energy": 0.06495,
				"method": "rhf"
			}
		],
		"cosmo_sigma_profile": { 
			"-0.025": 0.0,
			"-0.024": 0.0,
			"-0.023": 0.0,
			"-0.022": 0.0,
			"-0.021": 0.0,
			"-0.02": 0.0,
			"-0.019": 0.0,
			"-0.018": 0.0,
			"-0.017": 0.0,
			"-0.016": 0.0233713456238,
			"-0.015": 0.956830253565,
			"-0.014": 1.34539031079,
			"-0.013": 0.966318345631,
			"-0.012": 2.30194275466,
			"-0.011": 2.48924874285,
			"-0.01": 1.95104188537,
			"-0.009": 2.95553734665,
			"-0.008": 3.32645323111,
			"-0.007": 10.2798567919,
			"-0.006": 12.9524708086,
			"-0.005": 13.8118521462,
			"-0.004": 24.275271382,
			"-0.003": 25.4299580425,
			"-0.002": 25.8739567376,
			"-0.001": 32.4657884218,
			"0.0": 40.1513384799,
			"0.001": 33.9397136779,
			"0.002": 17.6446301389,
			"0.003": 9.22039880748,
			"0.004": 7.71809320995,
			"0.005": 6.15954774269,
			"0.006": 6.55492061911,
			"0.007": 5.32394743092,
			"0.008": 3.67040754347,
			"0.009": 3.92699590887,
			"0.01": 3.89557098328,
			"0.011": 4.20338895833,
			"0.012": 4.86860741077,
			"0.013": 4.40275236171,
			"0.014": 3.12393960756,
			"0.015": 3.73182559614,
			"0.016": 2.28108583714,
			"0.017": 0.588175507828,
			"0.018": 0.0144300102767,
			"0.019": 0.0,
			"0.02": 0.0,
			"0.021": 0.0,
			"0.022": 0.0,
			"0.023": 0.0,
			"0.024": 0.0,
			"0.025": 0.0
		}
	}
}
