{
	 "smiles": "CN(C)C1=CC=C(C=C1)C(N)=O", 
	 "Tm": 481.15, 
	 "num_atms": 24, 
	 "gaussian": { 
		 "optdone": 1, 
		 "sigma_profile": "yes", 
		 "theory": "DFT", 
		 "functional": "B3LYP", 
		 "basiset": "6-31G**", 
		 "properties": { 
			 "R2extent": 3006.0035, 
			 "electric_dipole_moment_norm": 5.18170308007, 
			 "electric_quadrupole_moment_norm": 13.9193564424, 
			 "total_energy": -534.931101221, 
			 "HOMO_LUMO_gap": 0.17879, 
			 "cosmo_polarized_energy": -15.43, 
			 "cosmo_cavitation_energy": 26.93, 
			 "cosmo_dispersion_energy": -20.01, 
			 "cosmo_repulsion_energy": 1.58, 
			 "cosmo_total_nonelectrostatic_energy": 8.5, 
			 "SMD_solvation_energy": 5.11 
		},
		"coords": [
			{
				"x": -0.639464278,
				"y": -4.0677790128,
				"z": -1.6117998441,
				"element": "C" 
			},
			{
				"x": -0.1888577824,
				"y": -3.2442935355,
				"z": -0.5026846865,
				"element": "N" 
			},
			{
				"x": 0.4777288677,
				"y": -3.8854798211,
				"z": 0.6188636156,
				"element": "C" 
			},
			{
				"x": -0.1134933438,
				"y": -1.8709299315,
				"z": -0.6524156129,
				"element": "C" 
			},
			{
				"x": 0.4594141465,
				"y": -1.0503597083,
				"z": 0.3509689873,
				"element": "C" 
			},
			{
				"x": 0.5085600029,
				"y": 0.3268309854,
				"z": 0.2026416686,
				"element": "C" 
			},
			{
				"x": -0.0075504673,
				"y": 0.9624889489,
				"z": -0.9354737269,
				"element": "C" 
			},
			{
				"x": -0.5528024165,
				"y": 0.1535037092,
				"z": -1.9425920443,
				"element": "C" 
			},
			{
				"x": -0.6051297347,
				"y": -1.2287941119,
				"z": -1.8147667373,
				"element": "C" 
			},
			{
				"x": 0.0839110808,
				"y": 2.4497312748,
				"z": -1.0093909592,
				"element": "C" 
			},
			{
				"x": -0.6665878975,
				"y": 3.0655423917,
				"z": -1.9928499519,
				"element": "N" 
			},
			{
				"x": 0.8019072674,
				"y": 3.1031190509,
				"z": -0.2587846714,
				"element": "O" 
			},
			{
				"x": -1.6536688818,
				"y": -3.7914520905,
				"z": -1.9234910002,
				"element": "H" 
			},
			{
				"x": 0.0174888629,
				"y": -3.9934578916,
				"z": -2.4917969275,
				"element": "H" 
			},
			{
				"x": -0.6660096255,
				"y": -5.1113996615,
				"z": -1.2954132201,
				"element": "H" 
			},
			{
				"x": 1.5669351409,
				"y": -3.7294564987,
				"z": 0.6111361271,
				"element": "H" 
			},
			{
				"x": 0.2879669374,
				"y": -4.9590343796,
				"z": 0.5813559611,
				"element": "H" 
			},
			{
				"x": 0.0903864436,
				"y": -3.5146575114,
				"z": 1.5750453495,
				"element": "H" 
			},
			{
				"x": 0.8718047247,
				"y": -1.4926141222,
				"z": 1.2493311779,
				"element": "H" 
			},
			{
				"x": 0.9557375995,
				"y": 0.946653114,
				"z": 0.9729002496,
				"element": "H" 
			},
			{
				"x": -0.9119550451,
				"y": 0.5966937674,
				"z": -2.8675191995,
				"element": "H" 
			},
			{
				"x": -1.0183053605,
				"y": -1.8107810154,
				"z": -2.6290648142,
				"element": "H" 
			},
			{
				"x": -0.695167321,
				"y": 4.0729683155,
				"z": -1.9234686166,
				"element": "H" 
			},
			{
				"x": -1.5062489202,
				"y": 2.6199577344,
				"z": -2.3296311241,
				"element": "H" 
			}
		],
		 "valence_orbital": [ 
			{
				"type": "occ",
				"energy": -0.2848,
				"method": "rhf"
			},
			{
				"type": "occ",
				"energy": -0.25976,
				"method": "rhf"
			},
			{
				"type": "occ",
				"energy": -0.24806,
				"method": "rhf"
			},
			{
				"type": "occ",
				"energy": -0.23527,
				"method": "rhf"
			},
			{
				"type": "occ",
				"energy": -0.19512,
				"method": "rhf"
			},
			{
				"type": "unocc",
				"energy": -0.01633,
				"method": "rhf"
			},
			{
				"type": "unocc",
				"energy": 0.00246,
				"method": "rhf"
			},
			{
				"type": "unocc",
				"energy": 0.07347,
				"method": "rhf"
			},
			{
				"type": "unocc",
				"energy": 0.08107,
				"method": "rhf"
			},
			{
				"type": "unocc",
				"energy": 0.09369,
				"method": "rhf"
			}
		],
		"cosmo_sigma_profile": { 
			"-0.025": 0.0,
			"-0.024": 0.0,
			"-0.023": 0.0,
			"-0.022": 0.0,
			"-0.021": 0.0,
			"-0.02": 0.0,
			"-0.019": 0.0,
			"-0.018": 0.0,
			"-0.017": 0.0,
			"-0.016": 0.0,
			"-0.015": 0.0,
			"-0.014": 0.268883594054,
			"-0.013": 1.93032079598,
			"-0.012": 2.21051247703,
			"-0.011": 2.69347353131,
			"-0.01": 2.22517041413,
			"-0.009": 2.58178377405,
			"-0.008": 2.2503856134,
			"-0.007": 3.80583831919,
			"-0.006": 7.53208394736,
			"-0.005": 13.9430962022,
			"-0.004": 19.7116948463,
			"-0.003": 21.0410175139,
			"-0.002": 21.890115262,
			"-0.001": 15.7579398361,
			"0.0": 9.58281406873,
			"0.001": 8.36221788373,
			"0.002": 10.0626346138,
			"0.003": 9.89288704298,
			"0.004": 10.4158690672,
			"0.005": 13.4021468292,
			"0.006": 10.8750649923,
			"0.007": 2.81949340622,
			"0.008": 1.9587392391,
			"0.009": 1.97667757627,
			"0.01": 1.99237646177,
			"0.011": 1.43740704679,
			"0.012": 1.6988738263,
			"0.013": 2.62285980032,
			"0.014": 5.76001730621,
			"0.015": 2.09402100116,
			"0.016": 0.0,
			"0.017": 0.0,
			"0.018": 0.0,
			"0.019": 0.0,
			"0.02": 0.0,
			"0.021": 0.0,
			"0.022": 0.0,
			"0.023": 0.0,
			"0.024": 0.0,
			"0.025": 0.0
		}
	}
}
