{
	 "smiles": "C1CCN2N=NN=C2CC1", 
	 "Tm": 331.95, 
	 "num_atms": 20, 
	 "gaussian": { 
		 "optdone": 1, 
		 "sigma_profile": "yes", 
		 "theory": "DFT", 
		 "functional": "B3LYP", 
		 "basiset": "6-31G**", 
		 "properties": { 
			 "R2extent": 1534.9422, 
			 "electric_dipole_moment_norm": 6.62029279488, 
			 "electric_quadrupole_moment_norm": 11.9124843437, 
			 "total_energy": -453.629103818, 
			 "HOMO_LUMO_gap": 0.26464, 
			 "cosmo_polarized_energy": -14.67, 
			 "cosmo_cavitation_energy": 21.89, 
			 "cosmo_dispersion_energy": -16.73, 
			 "cosmo_repulsion_energy": 1.35, 
			 "cosmo_total_nonelectrostatic_energy": 6.5, 
			 "SMD_solvation_energy": 0.77 
		},
		"coords": [
			{
				"x": -1.7627705369,
				"y": -0.7146627952,
				"z": -1.6488533016,
				"element": "C" 
			},
			{
				"x": -2.2011366172,
				"y": 0.510871753,
				"z": -0.8212023516,
				"element": "C" 
			},
			{
				"x": -1.489614103,
				"y": 0.6736030227,
				"z": 0.5249704026,
				"element": "C" 
			},
			{
				"x": -0.137841638,
				"y": 1.2151696462,
				"z": 0.3676377173,
				"element": "N" 
			},
			{
				"x": 0.3925291838,
				"y": 2.0114606519,
				"z": 1.3300704184,
				"element": "N" 
			},
			{
				"x": 1.5797056753,
				"y": 2.3288326989,
				"z": 0.9296552521,
				"element": "N" 
			},
			{
				"x": 1.8577834483,
				"y": 1.7628562503,
				"z": -0.2732983862,
				"element": "N" 
			},
			{
				"x": 0.7815496589,
				"y": 1.0738492784,
				"z": -0.6171424344,
				"element": "C" 
			},
			{
				"x": 0.6255351163,
				"y": 0.2686087217,
				"z": -1.8711706244,
				"element": "C" 
			},
			{
				"x": -0.2456970207,
				"y": -0.9872040685,
				"z": -1.6885615407,
				"element": "C" 
			},
			{
				"x": -2.1340085334,
				"y": -0.5789031706,
				"z": -2.6719253405,
				"element": "H" 
			},
			{
				"x": -2.2626921466,
				"y": -1.6107119319,
				"z": -1.2611809177,
				"element": "H" 
			},
			{
				"x": -2.0577846207,
				"y": 1.433966682,
				"z": -1.3952515137,
				"element": "H" 
			},
			{
				"x": -3.2771871892,
				"y": 0.4403320821,
				"z": -0.6281328919,
				"element": "H" 
			},
			{
				"x": -2.0159368369,
				"y": 1.3840648462,
				"z": 1.1656285993,
				"element": "H" 
			},
			{
				"x": -1.4347838517,
				"y": -0.2801449277,
				"z": 1.063644017,
				"element": "H" 
			},
			{
				"x": 0.2150514922,
				"y": 0.9028623482,
				"z": -2.6687918124,
				"element": "H" 
			},
			{
				"x": 1.6358169816,
				"y": -0.0034327393,
				"z": -2.1887437632,
				"element": "H" 
			},
			{
				"x": -0.0386135881,
				"y": -1.6857709258,
				"z": -2.5062152817,
				"element": "H" 
			},
			{
				"x": 0.0684951261,
				"y": -1.4998474227,
				"z": -0.7709362467,
				"element": "H" 
			}
		],
		 "valence_orbital": [ 
			{
				"type": "occ",
				"energy": -0.3466,
				"method": "rhf"
			},
			{
				"type": "occ",
				"energy": -0.29801,
				"method": "rhf"
			},
			{
				"type": "occ",
				"energy": -0.28349,
				"method": "rhf"
			},
			{
				"type": "occ",
				"energy": -0.27993,
				"method": "rhf"
			},
			{
				"type": "occ",
				"energy": -0.2696,
				"method": "rhf"
			},
			{
				"type": "unocc",
				"energy": -0.00496,
				"method": "rhf"
			},
			{
				"type": "unocc",
				"energy": 0.03071,
				"method": "rhf"
			},
			{
				"type": "unocc",
				"energy": 0.05896,
				"method": "rhf"
			},
			{
				"type": "unocc",
				"energy": 0.09069,
				"method": "rhf"
			},
			{
				"type": "unocc",
				"energy": 0.10927,
				"method": "rhf"
			}
		],
		"cosmo_sigma_profile": { 
			"-0.025": 0.0,
			"-0.024": 0.0,
			"-0.023": 0.0,
			"-0.022": 0.0,
			"-0.021": 0.0,
			"-0.02": 0.0,
			"-0.019": 0.0,
			"-0.018": 0.0,
			"-0.017": 0.0,
			"-0.016": 0.0,
			"-0.015": 0.0,
			"-0.014": 0.0,
			"-0.013": 0.0,
			"-0.012": 0.0,
			"-0.011": 0.0,
			"-0.01": 0.0,
			"-0.009": 0.0,
			"-0.008": 0.00409771502594,
			"-0.007": 2.80153399265,
			"-0.006": 12.8759996173,
			"-0.005": 17.7032425467,
			"-0.004": 23.6351563887,
			"-0.003": 25.9974858803,
			"-0.002": 19.7674190503,
			"-0.001": 13.0528782361,
			"0.0": 7.51796316509,
			"0.001": 2.99006059358,
			"0.002": 1.87114592479,
			"0.003": 2.17745706842,
			"0.004": 2.35341242997,
			"0.005": 2.66649204684,
			"0.006": 2.61035642153,
			"0.007": 3.2817280426,
			"0.008": 3.79845857593,
			"0.009": 5.17941809683,
			"0.01": 4.50977312564,
			"0.011": 4.91157202193,
			"0.012": 4.34659616107,
			"0.013": 3.10216931315,
			"0.014": 2.39546125142,
			"0.015": 1.52443799799,
			"0.016": 0.571697033311,
			"0.017": 0.00950235100847,
			"0.018": 0.0,
			"0.019": 0.0,
			"0.02": 0.0,
			"0.021": 0.0,
			"0.022": 0.0,
			"0.023": 0.0,
			"0.024": 0.0,
			"0.025": 0.0
		}
	}
}
