{
	 "smiles": "CC(C)C(N1CCCS1(=O)=O)C(O)=O", 
	 "Tm": 371.15, 
	 "num_atms": 29, 
	 "gaussian": { 
		 "optdone": 1, 
		 "sigma_profile": "yes", 
		 "theory": "DFT", 
		 "functional": "B3LYP", 
		 "basiset": "6-31G**", 
		 "properties": { 
			 "R2extent": 3061.7021, 
			 "electric_dipole_moment_norm": 3.37510222956, 
			 "electric_quadrupole_moment_norm": 14.6962946919, 
			 "total_energy": -1067.67146836, 
			 "HOMO_LUMO_gap": 0.24381, 
			 "cosmo_polarized_energy": -18.74, 
			 "cosmo_cavitation_energy": 30.91, 
			 "cosmo_dispersion_energy": -22.32, 
			 "cosmo_repulsion_energy": 1.7, 
			 "cosmo_total_nonelectrostatic_energy": 10.3, 
			 "SMD_solvation_energy": 5.05 
		},
		"coords": [
			{
				"x": -1.23807624,
				"y": -1.9332763283,
				"z": -0.978672291,
				"element": "C" 
			},
			{
				"x": -1.7120092377,
				"y": -0.47254233,
				"z": -1.0123065271,
				"element": "C" 
			},
			{
				"x": -2.3584321008,
				"y": -0.1583415797,
				"z": -2.3733765978,
				"element": "C" 
			},
			{
				"x": -0.5407185181,
				"y": 0.5014532063,
				"z": -0.7466437803,
				"element": "C" 
			},
			{
				"x": 0.2882317568,
				"y": 0.1249688689,
				"z": 0.4198258374,
				"element": "N" 
			},
			{
				"x": 1.6753433979,
				"y": 0.6191451871,
				"z": 0.4780722585,
				"element": "C" 
			},
			{
				"x": 2.259387007,
				"y": -0.0107216937,
				"z": 1.7494345965,
				"element": "C" 
			},
			{
				"x": 1.2081876447,
				"y": 0.1917385953,
				"z": 2.8462484303,
				"element": "C" 
			},
			{
				"x": -0.4104607685,
				"y": 0.2083632747,
				"z": 1.9890006846,
				"element": "S" 
			},
			{
				"x": -1.171144887,
				"y": -1.0210564063,
				"z": 2.2380168513,
				"element": "O" 
			},
			{
				"x": -1.0677241283,
				"y": 1.5047962717,
				"z": 2.2192450281,
				"element": "O" 
			},
			{
				"x": -0.8996749379,
				"y": 2.0005695632,
				"z": -0.6744053954,
				"element": "C" 
			},
			{
				"x": -2.2063025401,
				"y": 2.2518813621,
				"z": -0.4809766186,
				"element": "O" 
			},
			{
				"x": -0.0647447169,
				"y": 2.8767060539,
				"z": -0.7667915115,
				"element": "O" 
			},
			{
				"x": -0.4434572846,
				"y": -2.1057749382,
				"z": -1.7156918183,
				"element": "H" 
			},
			{
				"x": -0.8657571355,
				"y": -2.2127141956,
				"z": 0.0070060839,
				"element": "H" 
			},
			{
				"x": -2.0712411457,
				"y": -2.5973748341,
				"z": -1.2304464245,
				"element": "H" 
			},
			{
				"x": -2.465728144,
				"y": -0.3313742798,
				"z": -0.2296605176,
				"element": "H" 
			},
			{
				"x": -2.7452882561,
				"y": 0.8614916477,
				"z": -2.4260923513,
				"element": "H" 
			},
			{
				"x": -3.1944850249,
				"y": -0.8404719569,
				"z": -2.5552038945,
				"element": "H" 
			},
			{
				"x": -1.6378187905,
				"y": -0.2986156428,
				"z": -3.1891491785,
				"element": "H" 
			},
			{
				"x": 0.1510867172,
				"y": 0.4286625697,
				"z": -1.595090838,
				"element": "H" 
			},
			{
				"x": 1.7271196634,
				"y": 1.7155636202,
				"z": 0.5035480962,
				"element": "H" 
			},
			{
				"x": 2.1970447242,
				"y": 0.2752814978,
				"z": -0.420008543,
				"element": "H" 
			},
			{
				"x": 3.2108084998,
				"y": 0.4514306393,
				"z": 2.0259873502,
				"element": "H" 
			},
			{
				"x": 2.4278180379,
				"y": -1.0782208488,
				"z": 1.5839758248,
				"element": "H" 
			},
			{
				"x": 1.2833468232,
				"y": 1.1671117666,
				"z": 3.3312891085,
				"element": "H" 
			},
			{
				"x": 1.1706810258,
				"y": -0.5985450041,
				"z": 3.5970447684,
				"element": "H" 
			},
			{
				"x": -2.2858914416,
				"y": 3.2130659138,
				"z": -0.3567786313,
				"element": "H" 
			}
		],
		 "valence_orbital": [ 
			{
				"type": "occ",
				"energy": -0.31692,
				"method": "rhf"
			},
			{
				"type": "occ",
				"energy": -0.30265,
				"method": "rhf"
			},
			{
				"type": "occ",
				"energy": -0.29541,
				"method": "rhf"
			},
			{
				"type": "occ",
				"energy": -0.28355,
				"method": "rhf"
			},
			{
				"type": "occ",
				"energy": -0.24544,
				"method": "rhf"
			},
			{
				"type": "unocc",
				"energy": -0.00163,
				"method": "rhf"
			},
			{
				"type": "unocc",
				"energy": 0.04834,
				"method": "rhf"
			},
			{
				"type": "unocc",
				"energy": 0.05925,
				"method": "rhf"
			},
			{
				"type": "unocc",
				"energy": 0.06067,
				"method": "rhf"
			},
			{
				"type": "unocc",
				"energy": 0.06744,
				"method": "rhf"
			}
		],
		"cosmo_sigma_profile": { 
			"-0.025": 0.0,
			"-0.024": 0.0,
			"-0.023": 0.0,
			"-0.022": 0.0,
			"-0.021": 0.0,
			"-0.02": 0.0,
			"-0.019": 0.180593904122,
			"-0.018": 0.77046797667,
			"-0.017": 1.22601894011,
			"-0.016": 0.341946018094,
			"-0.015": 1.12805340045,
			"-0.014": 0.549959360887,
			"-0.013": 0.644602093794,
			"-0.012": 0.542451559812,
			"-0.011": 0.813051846049,
			"-0.01": 0.443066176991,
			"-0.009": 1.00771311375,
			"-0.008": 5.53174909908,
			"-0.007": 11.2357928124,
			"-0.006": 16.3823448238,
			"-0.005": 17.2063499462,
			"-0.004": 16.2541684735,
			"-0.003": 20.5547330259,
			"-0.002": 18.4400543526,
			"-0.001": 15.2481395669,
			"0.0": 13.6021064462,
			"0.001": 18.1376516823,
			"0.002": 10.7910881149,
			"0.003": 5.39992431716,
			"0.004": 6.03118516959,
			"0.005": 6.96476291509,
			"0.006": 6.19137401238,
			"0.007": 5.29332419874,
			"0.008": 5.96840770493,
			"0.009": 6.28371480442,
			"0.01": 8.0831591279,
			"0.011": 12.5576172356,
			"0.012": 6.69974919111,
			"0.013": 0.175959918647,
			"0.014": 0.0,
			"0.015": 0.0,
			"0.016": 0.0,
			"0.017": 0.0,
			"0.018": 0.0,
			"0.019": 0.0,
			"0.02": 0.0,
			"0.021": 0.0,
			"0.022": 0.0,
			"0.023": 0.0,
			"0.024": 0.0,
			"0.025": 0.0
		}
	}
}
