{
	 "smiles": "ClC1=CC2=C(OC3=C2C(Cl)=C(Cl)C(Cl)=C3Cl)C(Cl)=C1Cl", 
	 "Tm": 506.15, 
	 "num_atms": 21, 
	 "gaussian": { 
		 "optdone": 1, 
		 "sigma_profile": "yes", 
		 "theory": "DFT", 
		 "functional": "B3LYP", 
		 "basiset": "6-31G**", 
		 "properties": { 
			 "R2extent": 11437.6626, 
			 "electric_dipole_moment_norm": 0.693224069115, 
			 "electric_quadrupole_moment_norm": 5.90639844491, 
			 "total_energy": -3754.42393189, 
			 "HOMO_LUMO_gap": 0.16947, 
			 "cosmo_polarized_energy": -4.79, 
			 "cosmo_cavitation_energy": 38.44, 
			 "cosmo_dispersion_energy": -28.99, 
			 "cosmo_repulsion_energy": 2.2, 
			 "cosmo_total_nonelectrostatic_energy": 11.65, 
			 "SMD_solvation_energy": 4.72 
		},
		"coords": [
			{
				"x": -4.4962533624,
				"y": 0.3515434661,
				"z": -3.3359952962,
				"element": "Cl" 
			},
			{
				"x": -3.2389426538,
				"y": 0.7183500821,
				"z": -2.1816722743,
				"element": "C" 
			},
			{
				"x": -2.0597090437,
				"y": -0.0186540898,
				"z": -2.2477289852,
				"element": "C" 
			},
			{
				"x": -1.0452360482,
				"y": 0.2643854711,
				"z": -1.3300538744,
				"element": "C" 
			},
			{
				"x": -1.2434517766,
				"y": 1.2759659575,
				"z": -0.3756413208,
				"element": "C" 
			},
			{
				"x": -0.1587074882,
				"y": 1.4290377032,
				"z": 0.4466417432,
				"element": "O" 
			},
			{
				"x": 0.759626299,
				"y": 0.5078685585,
				"z": 0.0262045942,
				"element": "C" 
			},
			{
				"x": 0.2880535448,
				"y": -0.245636975,
				"z": -1.0612602448,
				"element": "C" 
			},
			{
				"x": 1.1149488499,
				"y": -1.2328990197,
				"z": -1.6075525315,
				"element": "C" 
			},
			{
				"x": 0.5468758951,
				"y": -2.1752492425,
				"z": -2.9544045462,
				"element": "Cl" 
			},
			{
				"x": 2.3873342246,
				"y": -1.4433159727,
				"z": -1.0574367295,
				"element": "C" 
			},
			{
				"x": 3.4246310988,
				"y": -2.6654336319,
				"z": -1.7254542472,
				"element": "Cl" 
			},
			{
				"x": 2.8340686473,
				"y": -0.6658045398,
				"z": 0.0404846015,
				"element": "C" 
			},
			{
				"x": 4.4092519742,
				"y": -0.9359744838,
				"z": 0.7112853648,
				"element": "Cl" 
			},
			{
				"x": 2.0133534261,
				"y": 0.3278276963,
				"z": 0.5973033147,
				"element": "C" 
			},
			{
				"x": 2.4959507514,
				"y": 1.3119502533,
				"z": 1.9366561103,
				"element": "Cl" 
			},
			{
				"x": -2.4122135961,
				"y": 2.0236409276,
				"z": -0.2918426715,
				"element": "C" 
			},
			{
				"x": -2.5605263871,
				"y": 3.2505620967,
				"z": 0.9218023696,
				"element": "Cl" 
			},
			{
				"x": -3.4307563305,
				"y": 1.7360029669,
				"z": -1.2169101652,
				"element": "C" 
			},
			{
				"x": -4.9124886691,
				"y": 2.6336009061,
				"z": -1.1641418535,
				"element": "Cl" 
			},
			{
				"x": -1.9474093555,
				"y": -0.7891681302,
				"z": -2.9981833581,
				"element": "H" 
			}
		],
		 "valence_orbital": [ 
			{
				"type": "occ",
				"energy": -0.31857,
				"method": "rhf"
			},
			{
				"type": "occ",
				"energy": -0.29192,
				"method": "rhf"
			},
			{
				"type": "occ",
				"energy": -0.27694,
				"method": "rhf"
			},
			{
				"type": "occ",
				"energy": -0.2558,
				"method": "rhf"
			},
			{
				"type": "occ",
				"energy": -0.25222,
				"method": "rhf"
			},
			{
				"type": "unocc",
				"energy": -0.08275,
				"method": "rhf"
			},
			{
				"type": "unocc",
				"energy": -0.04991,
				"method": "rhf"
			},
			{
				"type": "unocc",
				"energy": -0.04435,
				"method": "rhf"
			},
			{
				"type": "unocc",
				"energy": -0.03406,
				"method": "rhf"
			},
			{
				"type": "unocc",
				"energy": -0.03137,
				"method": "rhf"
			}
		],
		"cosmo_sigma_profile": { 
			"-0.025": 0.0,
			"-0.024": 0.0,
			"-0.023": 0.0,
			"-0.022": 0.0,
			"-0.021": 0.0,
			"-0.02": 0.0,
			"-0.019": 0.0,
			"-0.018": 0.0,
			"-0.017": 0.0,
			"-0.016": 0.0,
			"-0.015": 0.0,
			"-0.014": 0.0,
			"-0.013": 0.0,
			"-0.012": 0.0,
			"-0.011": 0.0,
			"-0.01": 0.0,
			"-0.009": 0.0,
			"-0.008": 0.47003378323,
			"-0.007": 1.18887617952,
			"-0.006": 2.30261696147,
			"-0.005": 6.14179911428,
			"-0.004": 18.2887755313,
			"-0.003": 36.4254142934,
			"-0.002": 48.8069373228,
			"-0.001": 34.3390303676,
			"0.0": 30.7653371979,
			"0.001": 28.497031701,
			"0.002": 42.0022288743,
			"0.003": 56.3788003148,
			"0.004": 18.0275652684,
			"0.005": 2.99797156071,
			"0.006": 1.07207043228,
			"0.007": 0.0,
			"0.008": 0.0,
			"0.009": 0.0,
			"0.01": 0.0,
			"0.011": 0.0,
			"0.012": 0.0,
			"0.013": 0.0,
			"0.014": 0.0,
			"0.015": 0.0,
			"0.016": 0.0,
			"0.017": 0.0,
			"0.018": 0.0,
			"0.019": 0.0,
			"0.02": 0.0,
			"0.021": 0.0,
			"0.022": 0.0,
			"0.023": 0.0,
			"0.024": 0.0,
			"0.025": 0.0
		}
	}
}
