{
	 "smiles": "O=C1CCC2=C(N1)C=CC(OCCCCC1=NN=NN1C1CCCCC1)=C2", 
	 "Tm": 433.15, 
	 "num_atms": 54, 
	 "gaussian": { 
		 "optdone": 1, 
		 "sigma_profile": "yes", 
		 "theory": "DFT", 
		 "functional": "B3LYP", 
		 "basiset": "6-31G**", 
		 "properties": { 
			 "R2extent": 16347.6241, 
			 "electric_dipole_moment_norm": 9.79045903878, 
			 "electric_quadrupole_moment_norm": 36.2655722739, 
			 "total_energy": -1202.60449618, 
			 "HOMO_LUMO_gap": 0.16945, 
			 "cosmo_polarized_energy": -24.89, 
			 "cosmo_cavitation_energy": 53.46, 
			 "cosmo_dispersion_energy": -36.4, 
			 "cosmo_repulsion_energy": 2.75, 
			 "cosmo_total_nonelectrostatic_energy": 19.82, 
			 "SMD_solvation_energy": 6.41 
		},
		"coords": [
			{
				"x": 0.262617097,
				"y": 5.9604694155,
				"z": -6.7149181372,
				"element": "O" 
			},
			{
				"x": 0.4395232989,
				"y": 5.2878838768,
				"z": -5.7096860243,
				"element": "C" 
			},
			{
				"x": 0.4710959826,
				"y": 3.7650596644,
				"z": -5.6969784344,
				"element": "C" 
			},
			{
				"x": -0.0638305978,
				"y": 3.1723245467,
				"z": -4.3847993549,
				"element": "C" 
			},
			{
				"x": 0.6018908608,
				"y": 3.8182934095,
				"z": -3.1910810553,
				"element": "C" 
			},
			{
				"x": 0.9268886986,
				"y": 5.1798276607,
				"z": -3.279423911,
				"element": "C" 
			},
			{
				"x": 0.665346752,
				"y": 5.8710875303,
				"z": -4.4807623237,
				"element": "N" 
			},
			{
				"x": 1.491820962,
				"y": 5.8343210256,
				"z": -2.1792264979,
				"element": "C" 
			},
			{
				"x": 1.7347080446,
				"y": 5.1391538421,
				"z": -0.9999759176,
				"element": "C" 
			},
			{
				"x": 1.4270188164,
				"y": 3.7756431982,
				"z": -0.9085878965,
				"element": "C" 
			},
			{
				"x": 1.7010784767,
				"y": 3.1911247553,
				"z": 0.3042202409,
				"element": "O" 
			},
			{
				"x": 1.5137601835,
				"y": 1.787967515,
				"z": 0.4665064904,
				"element": "C" 
			},
			{
				"x": 2.710354006,
				"y": 0.9940255005,
				"z": -0.0726722721,
				"element": "C" 
			},
			{
				"x": 2.65225764,
				"y": -0.5225172877,
				"z": 0.1935441255,
				"element": "C" 
			},
			{
				"x": 1.8861375127,
				"y": -1.3591661239,
				"z": -0.8601618238,
				"element": "C" 
			},
			{
				"x": 0.4131267774,
				"y": -1.1128730961,
				"z": -0.9472781627,
				"element": "C" 
			},
			{
				"x": -0.1761928516,
				"y": -0.3276053447,
				"z": -1.8378439928,
				"element": "N" 
			},
			{
				"x": -1.5050803386,
				"y": -0.3704924142,
				"z": -1.56900035,
				"element": "N" 
			},
			{
				"x": -1.7470056229,
				"y": -1.1465736479,
				"z": -0.564265218,
				"element": "N" 
			},
			{
				"x": -0.5497379037,
				"y": -1.6318498681,
				"z": -0.1453550495,
				"element": "N" 
			},
			{
				"x": -0.4285304258,
				"y": -2.5715368218,
				"z": 0.9869257059,
				"element": "C" 
			},
			{
				"x": -0.8841760028,
				"y": -1.9360473224,
				"z": 2.3178957717,
				"element": "C" 
			},
			{
				"x": -2.4104727392,
				"y": -1.8824231334,
				"z": 2.4887906011,
				"element": "C" 
			},
			{
				"x": -3.0458611488,
				"y": -3.2647382116,
				"z": 2.2733339561,
				"element": "C" 
			},
			{
				"x": -2.6747400468,
				"y": -3.8407262901,
				"z": 0.8980486993,
				"element": "C" 
			},
			{
				"x": -1.1507130227,
				"y": -3.90761651,
				"z": 0.7111560093,
				"element": "C" 
			},
			{
				"x": 0.8657981281,
				"y": 3.1184799401,
				"z": -2.0102328853,
				"element": "C" 
			},
			{
				"x": 1.5182064648,
				"y": 3.465054867,
				"z": -5.8435323988,
				"element": "H" 
			},
			{
				"x": -0.0900756292,
				"y": 3.4186275004,
				"z": -6.5672246433,
				"element": "H" 
			},
			{
				"x": 0.0732931513,
				"y": 2.0872399953,
				"z": -4.3625118993,
				"element": "H" 
			},
			{
				"x": -1.1481777345,
				"y": 3.3471269985,
				"z": -4.3283286395,
				"element": "H" 
			},
			{
				"x": 0.7260118318,
				"y": 6.8809169008,
				"z": -4.4928988309,
				"element": "H" 
			},
			{
				"x": 1.7451932521,
				"y": 6.8892965091,
				"z": -2.2476081002,
				"element": "H" 
			},
			{
				"x": 2.1694041185,
				"y": 5.6350729679,
				"z": -0.1385711428,
				"element": "H" 
			},
			{
				"x": 0.5667518514,
				"y": 1.4699905369,
				"z": 0.0186861821,
				"element": "H" 
			},
			{
				"x": 1.4348275483,
				"y": 1.6410097435,
				"z": 1.5494961613,
				"element": "H" 
			},
			{
				"x": 3.6052868757,
				"y": 1.4059259552,
				"z": 0.4071975467,
				"element": "H" 
			},
			{
				"x": 2.8222424385,
				"y": 1.1798792204,
				"z": -1.1469750553,
				"element": "H" 
			},
			{
				"x": 3.6760598094,
				"y": -0.9123923048,
				"z": 0.2133202399,
				"element": "H" 
			},
			{
				"x": 2.2409075011,
				"y": -0.7132616949,
				"z": 1.1944389649,
				"element": "H" 
			},
			{
				"x": 2.0660080464,
				"y": -2.4236413136,
				"z": -0.669566777,
				"element": "H" 
			},
			{
				"x": 2.2941029328,
				"y": -1.1449219092,
				"z": -1.8523756741,
				"element": "H" 
			},
			{
				"x": 0.6453608493,
				"y": -2.7680375703,
				"z": 1.0507081365,
				"element": "H" 
			},
			{
				"x": -0.4422874532,
				"y": -0.9379805278,
				"z": 2.4160187614,
				"element": "H" 
			},
			{
				"x": -0.4540328249,
				"y": -2.5516154904,
				"z": 3.1192970662,
				"element": "H" 
			},
			{
				"x": -2.8340034569,
				"y": -1.1705975826,
				"z": 1.7729823153,
				"element": "H" 
			},
			{
				"x": -2.6430936236,
				"y": -1.5069683997,
				"z": 3.4919888734,
				"element": "H" 
			},
			{
				"x": -2.7048681165,
				"y": -3.9513182406,
				"z": 3.0623848382,
				"element": "H" 
			},
			{
				"x": -4.1351242049,
				"y": -3.1959624478,
				"z": 2.3696994094,
				"element": "H" 
			},
			{
				"x": -3.1121680707,
				"y": -3.2176159265,
				"z": 0.111544173,
				"element": "H" 
			},
			{
				"x": -3.0917982067,
				"y": -4.8475949511,
				"z": 0.7804895746,
				"element": "H" 
			},
			{
				"x": -0.7335993043,
				"y": -4.6365615714,
				"z": 1.4189315023,
				"element": "H" 
			},
			{
				"x": -0.8923398832,
				"y": -4.2609499091,
				"z": -0.2933571155,
				"element": "H" 
			},
			{
				"x": 0.6112293004,
				"y": 2.0643828358,
				"z": -1.9768057616,
				"element": "H" 
			}
		],
		 "valence_orbital": [ 
			{
				"type": "occ",
				"energy": -0.2859,
				"method": "rhf"
			},
			{
				"type": "occ",
				"energy": -0.26848,
				"method": "rhf"
			},
			{
				"type": "occ",
				"energy": -0.24075,
				"method": "rhf"
			},
			{
				"type": "occ",
				"energy": -0.23769,
				"method": "rhf"
			},
			{
				"type": "occ",
				"energy": -0.18939,
				"method": "rhf"
			},
			{
				"type": "unocc",
				"energy": -0.01994,
				"method": "rhf"
			},
			{
				"type": "unocc",
				"energy": 0.0003,
				"method": "rhf"
			},
			{
				"type": "unocc",
				"energy": 0.00955,
				"method": "rhf"
			},
			{
				"type": "unocc",
				"energy": 0.0129,
				"method": "rhf"
			},
			{
				"type": "unocc",
				"energy": 0.04558,
				"method": "rhf"
			}
		],
		"cosmo_sigma_profile": { 
			"-0.025": 0.0,
			"-0.024": 0.0,
			"-0.023": 0.0,
			"-0.022": 0.0,
			"-0.021": 0.0,
			"-0.02": 0.0,
			"-0.019": 0.0,
			"-0.018": 0.0,
			"-0.017": 0.0,
			"-0.016": 0.0,
			"-0.015": 0.171461739429,
			"-0.014": 1.10178077632,
			"-0.013": 0.772303564616,
			"-0.012": 1.52821422566,
			"-0.011": 0.874875233307,
			"-0.01": 1.31991043735,
			"-0.009": 1.18652968802,
			"-0.008": 3.9127916807,
			"-0.007": 6.11643303153,
			"-0.006": 13.0385535874,
			"-0.005": 24.8796802306,
			"-0.004": 43.1571048413,
			"-0.003": 47.2338522407,
			"-0.002": 45.7342436864,
			"-0.001": 44.0031594679,
			"0.0": 36.3024540971,
			"0.001": 28.5479409717,
			"0.002": 15.9422119045,
			"0.003": 15.2340277083,
			"0.004": 13.7467978822,
			"0.005": 15.7005691099,
			"0.006": 9.42137924754,
			"0.007": 6.09708373704,
			"0.008": 7.05162945344,
			"0.009": 6.98709407895,
			"0.01": 6.13080517811,
			"0.011": 5.81755282202,
			"0.012": 3.64397785895,
			"0.013": 5.94890552466,
			"0.014": 6.04430327617,
			"0.015": 1.22933368602,
			"0.016": 0.0,
			"0.017": 0.0,
			"0.018": 0.0,
			"0.019": 0.0,
			"0.02": 0.0,
			"0.021": 0.0,
			"0.022": 0.0,
			"0.023": 0.0,
			"0.024": 0.0,
			"0.025": 0.0
		}
	}
}
