{
	 "smiles": "CSC1=C(Br)C=CC=C1", 
	 "Tm": 249.15, 
	 "num_atms": 16, 
	 "gaussian": { 
		 "optdone": 1, 
		 "sigma_profile": "yes", 
		 "theory": "DFT", 
		 "functional": "B3LYP", 
		 "basiset": "6-31G**", 
		 "properties": { 
			 "R2extent": 2415.6561, 
			 "electric_dipole_moment_norm": 2.23124433893, 
			 "electric_quadrupole_moment_norm": 9.67954715986, 
			 "total_energy": -3240.55115798, 
			 "HOMO_LUMO_gap": 0.1965, 
			 "cosmo_polarized_energy": -5.35, 
			 "cosmo_cavitation_energy": 23.18, 
			 "cosmo_dispersion_energy": -17.87, 
			 "cosmo_repulsion_energy": 1.41, 
			 "cosmo_total_nonelectrostatic_energy": 6.72, 
			 "SMD_solvation_energy": 3.13 
		},
		"coords": [
			{
				"x": 0.5240430694,
				"y": -0.5216792978,
				"z": -3.0292760162,
				"element": "C" 
			},
			{
				"x": -0.9200621932,
				"y": -1.5236157394,
				"z": -2.5063143031,
				"element": "S" 
			},
			{
				"x": -0.6194917872,
				"y": -1.7086362684,
				"z": -0.7507271354,
				"element": "C" 
			},
			{
				"x": -0.7843583809,
				"y": -0.6790821189,
				"z": 0.1927596297,
				"element": "C" 
			},
			{
				"x": -1.3058051463,
				"y": 1.0850579276,
				"z": -0.329775002,
				"element": "Br" 
			},
			{
				"x": -0.5787560292,
				"y": -0.9057378907,
				"z": 1.554258359,
				"element": "C" 
			},
			{
				"x": -0.223914963,
				"y": -2.1779198446,
				"z": 2.0014321024,
				"element": "C" 
			},
			{
				"x": -0.0697632915,
				"y": -3.2195074667,
				"z": 1.0869676615,
				"element": "C" 
			},
			{
				"x": -0.2612775599,
				"y": -2.9799336965,
				"z": -0.27261988,
				"element": "C" 
			},
			{
				"x": 1.4579287143,
				"y": -1.0430952363,
				"z": -2.8110030452,
				"element": "H" 
			},
			{
				"x": 0.4252682738,
				"y": -0.3971421252,
				"z": -4.1102540012,
				"element": "H" 
			},
			{
				"x": 0.5122014853,
				"y": 0.4591210623,
				"z": -2.5515750818,
				"element": "H" 
			},
			{
				"x": -0.7069980761,
				"y": -0.0892603481,
				"z": 2.255731613,
				"element": "H" 
			},
			{
				"x": -0.0722624201,
				"y": -2.3484453427,
				"z": 3.0630598157,
				"element": "H" 
			},
			{
				"x": 0.2052741366,
				"y": -4.2132018255,
				"z": 1.4271722225,
				"element": "H" 
			},
			{
				"x": -0.133725832,
				"y": -3.7811217891,
				"z": -0.9932369387,
				"element": "H" 
			}
		],
		 "valence_orbital": [ 
			{
				"type": "occ",
				"energy": -0.3157,
				"method": "rhf"
			},
			{
				"type": "occ",
				"energy": -0.28775,
				"method": "rhf"
			},
			{
				"type": "occ",
				"energy": -0.26582,
				"method": "rhf"
			},
			{
				"type": "occ",
				"energy": -0.24685,
				"method": "rhf"
			},
			{
				"type": "occ",
				"energy": -0.22559,
				"method": "rhf"
			},
			{
				"type": "unocc",
				"energy": -0.02909,
				"method": "rhf"
			},
			{
				"type": "unocc",
				"energy": -0.01812,
				"method": "rhf"
			},
			{
				"type": "unocc",
				"energy": 0.00029,
				"method": "rhf"
			},
			{
				"type": "unocc",
				"energy": 0.05472,
				"method": "rhf"
			},
			{
				"type": "unocc",
				"energy": 0.0851,
				"method": "rhf"
			}
		],
		"cosmo_sigma_profile": { 
			"-0.025": 0.0,
			"-0.024": 0.0,
			"-0.023": 0.0,
			"-0.022": 0.0,
			"-0.021": 0.0,
			"-0.02": 0.0,
			"-0.019": 0.0,
			"-0.018": 0.0,
			"-0.017": 0.0,
			"-0.016": 0.0,
			"-0.015": 0.0,
			"-0.014": 0.0,
			"-0.013": 0.0,
			"-0.012": 0.0,
			"-0.011": 0.0,
			"-0.01": 0.0,
			"-0.009": 0.0,
			"-0.008": 0.116652579315,
			"-0.007": 4.9248737295,
			"-0.006": 10.9524812692,
			"-0.005": 13.0463045394,
			"-0.004": 11.8446392932,
			"-0.003": 13.307872766,
			"-0.002": 16.3587549503,
			"-0.001": 15.7809089265,
			"0.0": 14.9539408028,
			"0.001": 16.6895207441,
			"0.002": 18.0006234248,
			"0.003": 19.5869092937,
			"0.004": 15.2550874578,
			"0.005": 7.04479327543,
			"0.006": 3.77659108127,
			"0.007": 3.05634017171,
			"0.008": 2.55141830144,
			"0.009": 2.12621102568,
			"0.01": 1.0015914653,
			"0.011": 0.0321407264745,
			"0.012": 0.0,
			"0.013": 0.0,
			"0.014": 0.0,
			"0.015": 0.0,
			"0.016": 0.0,
			"0.017": 0.0,
			"0.018": 0.0,
			"0.019": 0.0,
			"0.02": 0.0,
			"0.021": 0.0,
			"0.022": 0.0,
			"0.023": 0.0,
			"0.024": 0.0,
			"0.025": 0.0
		}
	}
}
