{
	 "smiles": "ClC1=CC2=C(SCCCC2=O)C=C1", 
	 "Tm": 323.15, 
	 "num_atms": 22, 
	 "gaussian": { 
		 "optdone": 1, 
		 "sigma_profile": "yes", 
		 "theory": "DFT", 
		 "functional": "B3LYP", 
		 "basiset": "6-31G**", 
		 "properties": { 
			 "R2extent": 4236.1805, 
			 "electric_dipole_moment_norm": 3.17726366706, 
			 "electric_quadrupole_moment_norm": 2.91717045097, 
			 "total_energy": -1320.09372473, 
			 "HOMO_LUMO_gap": 0.16244, 
			 "cosmo_polarized_energy": -8.44, 
			 "cosmo_cavitation_energy": 27.87, 
			 "cosmo_dispersion_energy": -21.38, 
			 "cosmo_repulsion_energy": 1.63, 
			 "cosmo_total_nonelectrostatic_energy": 8.12, 
			 "SMD_solvation_energy": 4.12 
		},
		"coords": [
			{
				"x": 2.6629598046,
				"y": -2.2956763069,
				"z": -2.8131117417,
				"element": "Cl" 
			},
			{
				"x": 1.0551013594,
				"y": -2.026438689,
				"z": -2.1602738194,
				"element": "C" 
			},
			{
				"x": 0.8011189108,
				"y": -0.901541324,
				"z": -1.3928225562,
				"element": "C" 
			},
			{
				"x": -0.4867203204,
				"y": -0.6538278264,
				"z": -0.8822354172,
				"element": "C" 
			},
			{
				"x": -1.5070336699,
				"y": -1.6078653294,
				"z": -1.1025584122,
				"element": "C" 
			},
			{
				"x": -3.1702682548,
				"y": -1.5367089152,
				"z": -0.4549615523,
				"element": "S" 
			},
			{
				"x": -2.9132763704,
				"y": -0.7271220883,
				"z": 1.1764532282,
				"element": "C" 
			},
			{
				"x": -2.849008013,
				"y": 0.8012215363,
				"z": 1.1132778499,
				"element": "C" 
			},
			{
				"x": -2.0096937959,
				"y": 1.3154380204,
				"z": -0.0720679214,
				"element": "C" 
			},
			{
				"x": -0.6380876904,
				"y": 0.6664249015,
				"z": -0.1661253482,
				"element": "C" 
			},
			{
				"x": 0.3485684655,
				"y": 1.2387262946,
				"z": 0.2723034301,
				"element": "O" 
			},
			{
				"x": -1.2180270683,
				"y": -2.7463528933,
				"z": -1.8752763614,
				"element": "C" 
			},
			{
				"x": 0.0422502218,
				"y": -2.9529594629,
				"z": -2.4215335957,
				"element": "C" 
			},
			{
				"x": 1.5778524395,
				"y": -0.1749961996,
				"z": -1.1848147715,
				"element": "H" 
			},
			{
				"x": -3.7479243674,
				"y": -1.0648206872,
				"z": 1.7971407389,
				"element": "H" 
			},
			{
				"x": -1.997530326,
				"y": -1.1502801245,
				"z": 1.5999356575,
				"element": "H" 
			},
			{
				"x": -3.8585615641,
				"y": 1.2172993355,
				"z": 1.027697997,
				"element": "H" 
			},
			{
				"x": -2.4255068965,
				"y": 1.1696338238,
				"z": 2.0555558649,
				"element": "H" 
			},
			{
				"x": -2.5637779772,
				"y": 1.131987849,
				"z": -0.9991734696,
				"element": "H" 
			},
			{
				"x": -1.8429098238,
				"y": 2.3905439447,
				"z": 0.0310326718,
				"element": "H" 
			},
			{
				"x": -1.9930997957,
				"y": -3.4907224059,
				"z": -2.0294519696,
				"element": "H" 
			},
			{
				"x": 0.246674732,
				"y": -3.8336634529,
				"z": -3.0203905019,
				"element": "H" 
			}
		],
		 "valence_orbital": [ 
			{
				"type": "occ",
				"energy": -0.31699,
				"method": "rhf"
			},
			{
				"type": "occ",
				"energy": -0.28055,
				"method": "rhf"
			},
			{
				"type": "occ",
				"energy": -0.27395,
				"method": "rhf"
			},
			{
				"type": "occ",
				"energy": -0.25449,
				"method": "rhf"
			},
			{
				"type": "occ",
				"energy": -0.22777,
				"method": "rhf"
			},
			{
				"type": "unocc",
				"energy": -0.06533,
				"method": "rhf"
			},
			{
				"type": "unocc",
				"energy": -0.02605,
				"method": "rhf"
			},
			{
				"type": "unocc",
				"energy": 0.01207,
				"method": "rhf"
			},
			{
				"type": "unocc",
				"energy": 0.01896,
				"method": "rhf"
			},
			{
				"type": "unocc",
				"energy": 0.03753,
				"method": "rhf"
			}
		],
		"cosmo_sigma_profile": { 
			"-0.025": 0.0,
			"-0.024": 0.0,
			"-0.023": 0.0,
			"-0.022": 0.0,
			"-0.021": 0.0,
			"-0.02": 0.0,
			"-0.019": 0.0,
			"-0.018": 0.0,
			"-0.017": 0.0,
			"-0.016": 0.0,
			"-0.015": 0.0,
			"-0.014": 0.0,
			"-0.013": 0.0,
			"-0.012": 0.0,
			"-0.011": 0.0,
			"-0.01": 0.0,
			"-0.009": 0.0496803613035,
			"-0.008": 1.74180213703,
			"-0.007": 6.79862676492,
			"-0.006": 10.1029548734,
			"-0.005": 15.0872154913,
			"-0.004": 20.5118557155,
			"-0.003": 21.0408682391,
			"-0.002": 20.774539122,
			"-0.001": 15.5458468456,
			"0.0": 14.5883603654,
			"0.001": 19.8635097097,
			"0.002": 22.9173833412,
			"0.003": 11.6680808855,
			"0.004": 15.7566163651,
			"0.005": 8.33761194916,
			"0.006": 3.87272789564,
			"0.007": 3.98254531896,
			"0.008": 2.2469070125,
			"0.009": 1.59765711054,
			"0.01": 1.96667907578,
			"0.011": 3.40119485076,
			"0.012": 3.2456170291,
			"0.013": 0.905373156113,
			"0.014": 0.0430475764435,
			"0.015": 0.0,
			"0.016": 0.0,
			"0.017": 0.0,
			"0.018": 0.0,
			"0.019": 0.0,
			"0.02": 0.0,
			"0.021": 0.0,
			"0.022": 0.0,
			"0.023": 0.0,
			"0.024": 0.0,
			"0.025": 0.0
		}
	}
}
