{
	 "smiles": "OC(=O)C1=CC=C(C=C1)S(=O)(=O)N(Cl)Cl", 
	 "Tm": 486.15, 
	 "num_atms": 20, 
	 "gaussian": { 
		 "optdone": 1, 
		 "sigma_profile": "yes", 
		 "theory": "DFT", 
		 "functional": "B3LYP", 
		 "basiset": "6-31G**", 
		 "properties": { 
			 "R2extent": 5336.2727, 
			 "electric_dipole_moment_norm": 3.33306034149, 
			 "electric_quadrupole_moment_norm": 27.2058718603, 
			 "total_energy": -1943.81391749, 
			 "HOMO_LUMO_gap": 0.17641, 
			 "cosmo_polarized_energy": -19.43, 
			 "cosmo_cavitation_energy": 30.43, 
			 "cosmo_dispersion_energy": -22.42, 
			 "cosmo_repulsion_energy": 1.71, 
			 "cosmo_total_nonelectrostatic_energy": 9.72, 
			 "SMD_solvation_energy": 4.72 
		},
		"coords": [
			{
				"x": 2.8516247711,
				"y": 2.9450430871,
				"z": -3.4231536943,
				"element": "O" 
			},
			{
				"x": 3.1838125096,
				"y": 2.1006984663,
				"z": -2.4152967342,
				"element": "C" 
			},
			{
				"x": 4.3390283626,
				"y": 1.9434835657,
				"z": -2.1036509236,
				"element": "O" 
			},
			{
				"x": 2.0520931179,
				"y": 1.3895616552,
				"z": -1.7220829618,
				"element": "C" 
			},
			{
				"x": 2.3630155077,
				"y": 0.2145874925,
				"z": -1.0240851851,
				"element": "C" 
			},
			{
				"x": 1.3681354121,
				"y": -0.4911069277,
				"z": -0.3554376755,
				"element": "C" 
			},
			{
				"x": 0.0611711671,
				"y": 0.0062434698,
				"z": -0.3800001018,
				"element": "C" 
			},
			{
				"x": -0.267449019,
				"y": 1.1924496777,
				"z": -1.0395647156,
				"element": "C" 
			},
			{
				"x": 0.7389987161,
				"y": 1.8811726197,
				"z": -1.7133682359,
				"element": "C" 
			},
			{
				"x": -1.22663845,
				"y": -0.886296389,
				"z": 0.482521205,
				"element": "S" 
			},
			{
				"x": -2.3370963346,
				"y": 0.0153210192,
				"z": 0.7563297185,
				"element": "O" 
			},
			{
				"x": -0.6254226285,
				"y": -1.7497396396,
				"z": 1.4888897073,
				"element": "O" 
			},
			{
				"x": -1.9544202463,
				"y": -2.078321296,
				"z": -0.6909753421,
				"element": "N" 
			},
			{
				"x": -0.7420586665,
				"y": -3.2431202829,
				"z": -1.2502967946,
				"element": "Cl" 
			},
			{
				"x": -2.6781545676,
				"y": -1.2449117041,
				"z": -2.0783932059,
				"element": "Cl" 
			},
			{
				"x": 1.9218612224,
				"y": 2.8398008579,
				"z": -3.6681250312,
				"element": "H" 
			},
			{
				"x": 3.3924877745,
				"y": -0.125652058,
				"z": -1.0138471644,
				"element": "H" 
			},
			{
				"x": 1.5951383211,
				"y": -1.3972516683,
				"z": 0.1938100303,
				"element": "H" 
			},
			{
				"x": -1.2809676616,
				"y": 1.5738475529,
				"z": -1.0021937584,
				"element": "H" 
			},
			{
				"x": 0.4937406919,
				"y": 2.8251905013,
				"z": -2.1923791366,
				"element": "H" 
			}
		],
		 "valence_orbital": [ 
			{
				"type": "occ",
				"energy": -0.32791,
				"method": "rhf"
			},
			{
				"type": "occ",
				"energy": -0.31167,
				"method": "rhf"
			},
			{
				"type": "occ",
				"energy": -0.30557,
				"method": "rhf"
			},
			{
				"type": "occ",
				"energy": -0.29542,
				"method": "rhf"
			},
			{
				"type": "occ",
				"energy": -0.28795,
				"method": "rhf"
			},
			{
				"type": "unocc",
				"energy": -0.11154,
				"method": "rhf"
			},
			{
				"type": "unocc",
				"energy": -0.09792,
				"method": "rhf"
			},
			{
				"type": "unocc",
				"energy": -0.05666,
				"method": "rhf"
			},
			{
				"type": "unocc",
				"energy": -0.05106,
				"method": "rhf"
			},
			{
				"type": "unocc",
				"energy": -0.01393,
				"method": "rhf"
			}
		],
		"cosmo_sigma_profile": { 
			"-0.025": 0.0,
			"-0.024": 0.0,
			"-0.023": 0.0,
			"-0.022": 0.0,
			"-0.021": 0.0,
			"-0.02": 0.0824262060477,
			"-0.019": 0.903261079427,
			"-0.018": 1.03457984028,
			"-0.017": 1.38782016645,
			"-0.016": 1.22633728714,
			"-0.015": 0.772028980867,
			"-0.014": 0.515846129901,
			"-0.013": 1.74602826618,
			"-0.012": 1.53533394191,
			"-0.011": 1.2682422943,
			"-0.01": 1.68475546076,
			"-0.009": 4.13017669297,
			"-0.008": 6.84812183319,
			"-0.007": 9.58885002769,
			"-0.006": 8.15230265376,
			"-0.005": 10.526867207,
			"-0.004": 11.2669771894,
			"-0.003": 14.3065946634,
			"-0.002": 16.6088515609,
			"-0.001": 21.7565308683,
			"0.0": 21.9576122204,
			"0.001": 18.5893967546,
			"0.002": 17.1258302124,
			"0.003": 12.6902055833,
			"0.004": 7.57049102317,
			"0.005": 6.60378385442,
			"0.006": 6.27243541421,
			"0.007": 8.79812838723,
			"0.008": 12.0336055108,
			"0.009": 9.85170544159,
			"0.01": 5.25159510919,
			"0.011": 5.23518631716,
			"0.012": 2.01742636347,
			"0.013": 0.174205616051,
			"0.014": 0.0,
			"0.015": 0.0,
			"0.016": 0.0,
			"0.017": 0.0,
			"0.018": 0.0,
			"0.019": 0.0,
			"0.02": 0.0,
			"0.021": 0.0,
			"0.022": 0.0,
			"0.023": 0.0,
			"0.024": 0.0,
			"0.025": 0.0
		}
	}
}
