{
	 "smiles": "CC1=CC(=O)N(N1)C1=CC=CC=C1", 
	 "Tm": 401.15, 
	 "num_atms": 23, 
	 "gaussian": { 
		 "optdone": 1, 
		 "sigma_profile": "yes", 
		 "theory": "DFT", 
		 "functional": "B3LYP", 
		 "basiset": "6-31G**", 
		 "properties": { 
			 "R2extent": 3351.4307, 
			 "electric_dipole_moment_norm": 5.05249672736, 
			 "electric_quadrupole_moment_norm": 15.25704171, 
			 "total_energy": -571.795737169, 
			 "HOMO_LUMO_gap": 0.18152, 
			 "cosmo_polarized_energy": -15.55, 
			 "cosmo_cavitation_energy": 26.87, 
			 "cosmo_dispersion_energy": -19.93, 
			 "cosmo_repulsion_energy": 1.56, 
			 "cosmo_total_nonelectrostatic_energy": 8.51, 
			 "SMD_solvation_energy": 5.49 
		},
		"coords": [
			{
				"x": 2.6859892029,
				"y": 1.6294237745,
				"z": 1.6827593291,
				"element": "C" 
			},
			{
				"x": 2.4226767264,
				"y": 0.7688305095,
				"z": 0.490389561,
				"element": "C" 
			},
			{
				"x": 3.2735175218,
				"y": 0.1449951279,
				"z": -0.3579555053,
				"element": "C" 
			},
			{
				"x": 2.4970964326,
				"y": -0.6328919149,
				"z": -1.3200909145,
				"element": "C" 
			},
			{
				"x": 2.8545233346,
				"y": -1.3273494851,
				"z": -2.2623628238,
				"element": "O" 
			},
			{
				"x": 1.1478813326,
				"y": -0.4077185152,
				"z": -0.9397532404,
				"element": "N" 
			},
			{
				"x": 1.1023251049,
				"y": 0.5387829463,
				"z": 0.0999846009,
				"element": "N" 
			},
			{
				"x": -0.0248157103,
				"y": -0.678018592,
				"z": -1.6768360637,
				"element": "C" 
			},
			{
				"x": -0.0466183268,
				"y": -1.7486640836,
				"z": -2.5868424501,
				"element": "C" 
			},
			{
				"x": -1.2192473795,
				"y": -2.0270085772,
				"z": -3.2851022304,
				"element": "C" 
			},
			{
				"x": -2.3760061943,
				"y": -1.2696754732,
				"z": -3.0855754614,
				"element": "C" 
			},
			{
				"x": -2.3465549812,
				"y": -0.2093294797,
				"z": -2.1801548003,
				"element": "C" 
			},
			{
				"x": -1.1797163517,
				"y": 0.0946004491,
				"z": -1.479395588,
				"element": "C" 
			},
			{
				"x": 3.7603533464,
				"y": 1.7271832,
				"z": 1.8474349784,
				"element": "H" 
			},
			{
				"x": 2.261000838,
				"y": 2.6296356584,
				"z": 1.5464979265,
				"element": "H" 
			},
			{
				"x": 2.2421824399,
				"y": 1.2032923433,
				"z": 2.5910551072,
				"element": "H" 
			},
			{
				"x": 4.3515202079,
				"y": 0.1986958096,
				"z": -0.3649528527,
				"element": "H" 
			},
			{
				"x": 0.4603673395,
				"y": 0.2594752955,
				"z": 0.8401527492,
				"element": "H" 
			},
			{
				"x": 0.8532874777,
				"y": -2.326967216,
				"z": -2.7448799589,
				"element": "H" 
			},
			{
				"x": -1.2261477666,
				"y": -2.8530441311,
				"z": -3.9905982142,
				"element": "H" 
			},
			{
				"x": -3.2857603772,
				"y": -1.5010518978,
				"z": -3.6310922332,
				"element": "H" 
			},
			{
				"x": -3.2331958727,
				"y": 0.3977379397,
				"z": -2.0201172905,
				"element": "H" 
			},
			{
				"x": -1.156158345,
				"y": 0.942766312,
				"z": -0.804664625,
				"element": "H" 
			}
		],
		 "valence_orbital": [ 
			{
				"type": "occ",
				"energy": -0.29728,
				"method": "rhf"
			},
			{
				"type": "occ",
				"energy": -0.25088,
				"method": "rhf"
			},
			{
				"type": "occ",
				"energy": -0.24506,
				"method": "rhf"
			},
			{
				"type": "occ",
				"energy": -0.23733,
				"method": "rhf"
			},
			{
				"type": "occ",
				"energy": -0.20715,
				"method": "rhf"
			},
			{
				"type": "unocc",
				"energy": -0.02563,
				"method": "rhf"
			},
			{
				"type": "unocc",
				"energy": 0.00125,
				"method": "rhf"
			},
			{
				"type": "unocc",
				"energy": 0.01568,
				"method": "rhf"
			},
			{
				"type": "unocc",
				"energy": 0.06749,
				"method": "rhf"
			},
			{
				"type": "unocc",
				"energy": 0.09274,
				"method": "rhf"
			}
		],
		"cosmo_sigma_profile": { 
			"-0.025": 0.0,
			"-0.024": 0.0,
			"-0.023": 0.0,
			"-0.022": 0.0,
			"-0.021": 0.0,
			"-0.02": 0.0,
			"-0.019": 0.0,
			"-0.018": 0.0,
			"-0.017": 0.0,
			"-0.016": 0.310251500877,
			"-0.015": 1.47932784414,
			"-0.014": 1.0470188211,
			"-0.013": 1.21923682618,
			"-0.012": 1.89504756603,
			"-0.011": 1.10701912139,
			"-0.01": 1.62406797119,
			"-0.009": 1.50118350562,
			"-0.008": 1.30233706859,
			"-0.007": 4.03297042465,
			"-0.006": 10.6815530943,
			"-0.005": 16.6713294759,
			"-0.004": 18.3891207281,
			"-0.003": 16.5887418442,
			"-0.002": 16.1967857971,
			"-0.001": 13.8625793815,
			"0.0": 10.4400109001,
			"0.001": 12.6997270705,
			"0.002": 16.5785967153,
			"0.003": 13.7230556805,
			"0.004": 13.2544375429,
			"0.005": 12.6708666425,
			"0.006": 7.84445780814,
			"0.007": 2.3677874809,
			"0.008": 1.25753844755,
			"0.009": 1.84975977291,
			"0.01": 1.82950170031,
			"0.011": 1.24092556845,
			"0.012": 2.11903110176,
			"0.013": 2.89584926409,
			"0.014": 4.23806356883,
			"0.015": 1.79680626858,
			"0.016": 0.0849437548976,
			"0.017": 0.0,
			"0.018": 0.0,
			"0.019": 0.0,
			"0.02": 0.0,
			"0.021": 0.0,
			"0.022": 0.0,
			"0.023": 0.0,
			"0.024": 0.0,
			"0.025": 0.0
		}
	}
}
