{
	 "smiles": "O=C1NC2=C(C=CC=C2)N1CCCN1CCN(CC1)C(C1=CC=CC=C1)C1=CC=CC=C1", 
	 "Tm": 427.15, 
	 "num_atms": 62, 
	 "gaussian": { 
		 "optdone": 1, 
		 "sigma_profile": "yes", 
		 "theory": "DFT", 
		 "functional": "B3LYP", 
		 "basiset": "6-31G**", 
		 "properties": { 
			 "R2extent": 19818.8489, 
			 "electric_dipole_moment_norm": 2.61016960943, 
			 "electric_quadrupole_moment_norm": 22.1753491704, 
			 "total_energy": -1341.1977909, 
			 "HOMO_LUMO_gap": 0.18329, 
			 "cosmo_polarized_energy": -19.41, 
			 "cosmo_cavitation_energy": 62.57, 
			 "cosmo_dispersion_energy": -41.06, 
			 "cosmo_repulsion_energy": 3.11, 
			 "cosmo_total_nonelectrostatic_energy": 24.61, 
			 "SMD_solvation_energy": 7.44 
		},
		"coords": [
			{
				"x": 0.856616034,
				"y": -2.0732641454,
				"z": 5.8191684022,
				"element": "O" 
			},
			{
				"x": 0.3543987645,
				"y": -0.9613198339,
				"z": 5.8369739761,
				"element": "C" 
			},
			{
				"x": -0.1416735388,
				"y": -0.2667596831,
				"z": 6.9391716428,
				"element": "N" 
			},
			{
				"x": -0.6337738009,
				"y": 0.9787232055,
				"z": 6.5676204845,
				"element": "C" 
			},
			{
				"x": -0.4461373929,
				"y": 1.0790364627,
				"z": 5.1711810824,
				"element": "C" 
			},
			{
				"x": -0.8326150694,
				"y": 2.2211555165,
				"z": 4.4789902527,
				"element": "C" 
			},
			{
				"x": -1.4136332965,
				"y": 3.2640475018,
				"z": 5.2135564649,
				"element": "C" 
			},
			{
				"x": -1.5997410254,
				"y": 3.1613949632,
				"z": 6.5950712181,
				"element": "C" 
			},
			{
				"x": -1.2099000081,
				"y": 2.0109972501,
				"z": 7.2949568049,
				"element": "C" 
			},
			{
				"x": 0.158346472,
				"y": -0.102867198,
				"z": 4.7505787745,
				"element": "N" 
			},
			{
				"x": 0.5215896977,
				"y": -0.4755420337,
				"z": 3.3926635672,
				"element": "C" 
			},
			{
				"x": -0.6707490471,
				"y": -0.9525907724,
				"z": 2.5522869464,
				"element": "C" 
			},
			{
				"x": -0.2498191393,
				"y": -1.3157878979,
				"z": 1.12278211,
				"element": "C" 
			},
			{
				"x": -1.3804516758,
				"y": -1.7916872937,
				"z": 0.3220472038,
				"element": "N" 
			},
			{
				"x": -1.0104183434,
				"y": -2.6873165701,
				"z": -0.7669895758,
				"element": "C" 
			},
			{
				"x": -0.2453577363,
				"y": -1.9925437707,
				"z": -1.9236246098,
				"element": "C" 
			},
			{
				"x": -0.6245910267,
				"y": -0.5688875874,
				"z": -2.0098858192,
				"element": "N" 
			},
			{
				"x": -2.0475733524,
				"y": -0.4254606374,
				"z": -1.6860765365,
				"element": "C" 
			},
			{
				"x": -2.2633703932,
				"y": -0.7274029568,
				"z": -0.1857949203,
				"element": "C" 
			},
			{
				"x": -0.2574778999,
				"y": 0.0299715959,
				"z": -3.3021945788,
				"element": "C" 
			},
			{
				"x": 1.2214996356,
				"y": -0.1949358628,
				"z": -3.6317631171,
				"element": "C" 
			},
			{
				"x": 2.2300351097,
				"y": 0.1070222373,
				"z": -2.7057055616,
				"element": "C" 
			},
			{
				"x": 3.573286915,
				"y": -0.0653225132,
				"z": -3.0358118313,
				"element": "C" 
			},
			{
				"x": 3.9333710126,
				"y": -0.5352942148,
				"z": -4.3018798497,
				"element": "C" 
			},
			{
				"x": 2.9381279364,
				"y": -0.8374252163,
				"z": -5.2306495458,
				"element": "C" 
			},
			{
				"x": 1.5926688184,
				"y": -0.6708626517,
				"z": -4.8935831743,
				"element": "C" 
			},
			{
				"x": -0.5680665114,
				"y": 1.5283832109,
				"z": -3.3519014141,
				"element": "C" 
			},
			{
				"x": -1.0521953465,
				"y": 2.0969708486,
				"z": -4.5357577766,
				"element": "C" 
			},
			{
				"x": -1.2861574086,
				"y": 3.470053199,
				"z": -4.6288996573,
				"element": "C" 
			},
			{
				"x": -1.0445784213,
				"y": 4.2968215339,
				"z": -3.5311675035,
				"element": "C" 
			},
			{
				"x": -0.5695717657,
				"y": 3.7387241097,
				"z": -2.3421140589,
				"element": "C" 
			},
			{
				"x": -0.331108443,
				"y": 2.3671861621,
				"z": -2.2539520354,
				"element": "C" 
			},
			{
				"x": -0.1159751232,
				"y": -0.6611262688,
				"z": 7.8652571276,
				"element": "H" 
			},
			{
				"x": -0.6915774415,
				"y": 2.3046456706,
				"z": 3.4064204293,
				"element": "H" 
			},
			{
				"x": -1.7248803492,
				"y": 4.1661898535,
				"z": 4.6960241214,
				"element": "H" 
			},
			{
				"x": -2.053580736,
				"y": 3.9839974064,
				"z": 7.1388778005,
				"element": "H" 
			},
			{
				"x": -1.3525731519,
				"y": 1.9316127835,
				"z": 8.3682399915,
				"element": "H" 
			},
			{
				"x": 1.0127931836,
				"y": 0.3832923954,
				"z": 2.9186318745,
				"element": "H" 
			},
			{
				"x": 1.2631971227,
				"y": -1.2737650456,
				"z": 3.4878161366,
				"element": "H" 
			},
			{
				"x": -1.439076907,
				"y": -0.1699470248,
				"z": 2.533995286,
				"element": "H" 
			},
			{
				"x": -1.1236221921,
				"y": -1.8295566768,
				"z": 3.0263422657,
				"element": "H" 
			},
			{
				"x": 0.2652650226,
				"y": -0.4591474775,
				"z": 0.6522652915,
				"element": "H" 
			},
			{
				"x": 0.4838253025,
				"y": -2.1299082237,
				"z": 1.1746049624,
				"element": "H" 
			},
			{
				"x": -0.4112268713,
				"y": -3.5138766787,
				"z": -0.3714287999,
				"element": "H" 
			},
			{
				"x": -1.9345868387,
				"y": -3.1342171911,
				"z": -1.1537738902,
				"element": "H" 
			},
			{
				"x": 0.8346652317,
				"y": -2.0589926635,
				"z": -1.7695367933,
				"element": "H" 
			},
			{
				"x": -0.4670166714,
				"y": -2.5269066955,
				"z": -2.8677409983,
				"element": "H" 
			},
			{
				"x": -2.6713345119,
				"y": -1.0916116064,
				"z": -2.313324759,
				"element": "H" 
			},
			{
				"x": -2.3715940064,
				"y": 0.5946597491,
				"z": -1.90059133,
				"element": "H" 
			},
			{
				"x": -3.3163600381,
				"y": -1.0000667083,
				"z": -0.0245613296,
				"element": "H" 
			},
			{
				"x": -2.0798056868,
				"y": 0.1839914493,
				"z": 0.3916427362,
				"element": "H" 
			},
			{
				"x": -0.8366974404,
				"y": -0.4473471085,
				"z": -4.117369611,
				"element": "H" 
			},
			{
				"x": 1.9552035914,
				"y": 0.4674983311,
				"z": -1.719471303,
				"element": "H" 
			},
			{
				"x": 4.3419412091,
				"y": 0.1685779315,
				"z": -2.3042753553,
				"element": "H" 
			},
			{
				"x": 4.9805393444,
				"y": -0.6667406104,
				"z": -4.5589158104,
				"element": "H" 
			},
			{
				"x": 3.205266895,
				"y": -1.2080433324,
				"z": -6.2163873918,
				"element": "H" 
			},
			{
				"x": 0.8217414186,
				"y": -0.9155321267,
				"z": -5.6203093228,
				"element": "H" 
			},
			{
				"x": -1.2465074659,
				"y": 1.4584549889,
				"z": -5.3942640812,
				"element": "H" 
			},
			{
				"x": -1.6622188929,
				"y": 3.8912940575,
				"z": -5.5570915515,
				"element": "H" 
			},
			{
				"x": -1.228962416,
				"y": 5.3651275562,
				"z": -3.599175705,
				"element": "H" 
			},
			{
				"x": -0.3843670807,
				"y": 4.3737098685,
				"z": -1.4799042073,
				"element": "H" 
			},
			{
				"x": 0.0249457465,
				"y": 1.932816439,
				"z": -1.3252931484,
				"element": "H" 
			}
		],
		 "valence_orbital": [ 
			{
				"type": "occ",
				"energy": -0.23388,
				"method": "rhf"
			},
			{
				"type": "occ",
				"energy": -0.23287,
				"method": "rhf"
			},
			{
				"type": "occ",
				"energy": -0.21863,
				"method": "rhf"
			},
			{
				"type": "occ",
				"energy": -0.20386,
				"method": "rhf"
			},
			{
				"type": "occ",
				"energy": -0.19835,
				"method": "rhf"
			},
			{
				"type": "unocc",
				"energy": -0.01506,
				"method": "rhf"
			},
			{
				"type": "unocc",
				"energy": -0.00748,
				"method": "rhf"
			},
			{
				"type": "unocc",
				"energy": -0.00365,
				"method": "rhf"
			},
			{
				"type": "unocc",
				"energy": 0.00561,
				"method": "rhf"
			},
			{
				"type": "unocc",
				"energy": 0.01339,
				"method": "rhf"
			}
		],
		"cosmo_sigma_profile": { 
			"-0.025": 0.0,
			"-0.024": 0.0,
			"-0.023": 0.0,
			"-0.022": 0.0,
			"-0.021": 0.0,
			"-0.02": 0.0,
			"-0.019": 0.0,
			"-0.018": 0.0,
			"-0.017": 0.0268247612218,
			"-0.016": 0.921105068037,
			"-0.015": 1.23957503113,
			"-0.014": 1.58220852837,
			"-0.013": 0.618729547616,
			"-0.012": 0.588088954622,
			"-0.011": 1.17617453701,
			"-0.01": 1.55827577217,
			"-0.009": 0.966072376181,
			"-0.008": 0.993446640225,
			"-0.007": 2.24748021238,
			"-0.006": 11.5571429615,
			"-0.005": 32.6880646131,
			"-0.004": 44.4627280287,
			"-0.003": 54.2870061363,
			"-0.002": 56.6665485458,
			"-0.001": 49.2925527934,
			"0.0": 40.4531605809,
			"0.001": 30.6470314741,
			"0.002": 29.1105910495,
			"0.003": 26.0421764855,
			"0.004": 24.3158515934,
			"0.005": 28.3915787939,
			"0.006": 26.6977854187,
			"0.007": 5.17147619933,
			"0.008": 2.35352383459,
			"0.009": 2.22992660097,
			"0.01": 0.804708836848,
			"0.011": 2.13651966417,
			"0.012": 3.16745389972,
			"0.013": 3.28136886319,
			"0.014": 6.84038571059,
			"0.015": 0.852692179161,
			"0.016": 0.254222166633,
			"0.017": 0.0,
			"0.018": 0.0,
			"0.019": 0.0,
			"0.02": 0.0,
			"0.021": 0.0,
			"0.022": 0.0,
			"0.023": 0.0,
			"0.024": 0.0,
			"0.025": 0.0
		}
	}
}
