{
	 "smiles": "CC(O)CS(C)(=O)=O", 
	 "Tm": 325.15, 
	 "num_atms": 18, 
	 "gaussian": { 
		 "optdone": 1, 
		 "sigma_profile": "yes", 
		 "theory": "DFT", 
		 "functional": "B3LYP", 
		 "basiset": "6-31G**", 
		 "properties": { 
			 "R2extent": 1788.7381, 
			 "electric_dipole_moment_norm": 4.62499502919, 
			 "electric_quadrupole_moment_norm": 13.1297196943, 
			 "total_energy": -782.243784, 
			 "HOMO_LUMO_gap": 0.33253, 
			 "cosmo_polarized_energy": -17.98, 
			 "cosmo_cavitation_energy": 21.85, 
			 "cosmo_dispersion_energy": -16.49, 
			 "cosmo_repulsion_energy": 1.32, 
			 "cosmo_total_nonelectrostatic_energy": 6.68, 
			 "SMD_solvation_energy": 3.49 
		},
		"coords": [
			{
				"x": 0.8168008506,
				"y": -3.112667677,
				"z": -0.8420775089,
				"element": "C" 
			},
			{
				"x": 0.923230239,
				"y": -1.9037636274,
				"z": 0.0874563471,
				"element": "C" 
			},
			{
				"x": 2.287284759,
				"y": -1.5703781305,
				"z": 0.3488124982,
				"element": "O" 
			},
			{
				"x": 0.3417868561,
				"y": -0.6042321601,
				"z": -0.4794926302,
				"element": "C" 
			},
			{
				"x": -1.4651204661,
				"y": -0.5850441449,
				"z": -0.7245869297,
				"element": "S" 
			},
			{
				"x": -1.7088713904,
				"y": -1.1128842802,
				"z": -2.4383287659,
				"element": "C" 
			},
			{
				"x": -2.0691386289,
				"y": -1.6042765185,
				"z": 0.1514376569,
				"element": "O" 
			},
			{
				"x": -1.8929075303,
				"y": 0.8198240167,
				"z": -0.6451600246,
				"element": "O" 
			},
			{
				"x": -0.2253920786,
				"y": -3.4126001693,
				"z": -0.9827660863,
				"element": "H" 
			},
			{
				"x": 1.3407444981,
				"y": -3.9682093919,
				"z": -0.4014302036,
				"element": "H" 
			},
			{
				"x": 1.2769967464,
				"y": -2.9021984901,
				"z": -1.813507603,
				"element": "H" 
			},
			{
				"x": 0.3904014967,
				"y": -2.1261739823,
				"z": 1.0223973157,
				"element": "H" 
			},
			{
				"x": 2.6900729577,
				"y": -2.3169941526,
				"z": 0.810939997,
				"element": "H" 
			},
			{
				"x": 0.8144439875,
				"y": -0.3315535631,
				"z": -1.4285147868,
				"element": "H" 
			},
			{
				"x": 0.5144727743,
				"y": 0.2104053797,
				"z": 0.2285093345,
				"element": "H" 
			},
			{
				"x": -1.2897819717,
				"y": -2.1077140055,
				"z": -2.5906086689,
				"element": "H" 
			},
			{
				"x": -1.2501899067,
				"y": -0.3822344693,
				"z": -3.1061249579,
				"element": "H" 
			},
			{
				"x": -2.7898331925,
				"y": -1.1328046338,
				"z": -2.5891549837,
				"element": "H" 
			}
		],
		 "valence_orbital": [ 
			{
				"type": "occ",
				"energy": -0.32263,
				"method": "rhf"
			},
			{
				"type": "occ",
				"energy": -0.31048,
				"method": "rhf"
			},
			{
				"type": "occ",
				"energy": -0.29474,
				"method": "rhf"
			},
			{
				"type": "occ",
				"energy": -0.28639,
				"method": "rhf"
			},
			{
				"type": "occ",
				"energy": -0.28251,
				"method": "rhf"
			},
			{
				"type": "unocc",
				"energy": 0.05002,
				"method": "rhf"
			},
			{
				"type": "unocc",
				"energy": 0.05448,
				"method": "rhf"
			},
			{
				"type": "unocc",
				"energy": 0.07526,
				"method": "rhf"
			},
			{
				"type": "unocc",
				"energy": 0.08567,
				"method": "rhf"
			},
			{
				"type": "unocc",
				"energy": 0.08687,
				"method": "rhf"
			}
		],
		"cosmo_sigma_profile": { 
			"-0.025": 0.0,
			"-0.024": 0.0,
			"-0.023": 0.0,
			"-0.022": 0.0,
			"-0.021": 0.0,
			"-0.02": 0.0,
			"-0.019": 0.0,
			"-0.018": 0.0,
			"-0.017": 0.0,
			"-0.016": 0.497420874783,
			"-0.015": 1.03849652278,
			"-0.014": 1.28197592316,
			"-0.013": 0.819174887536,
			"-0.012": 0.921933724393,
			"-0.011": 1.06305336863,
			"-0.01": 2.16044716649,
			"-0.009": 4.83002906366,
			"-0.008": 7.44040594836,
			"-0.007": 10.2372116388,
			"-0.006": 12.0252967545,
			"-0.005": 11.5594248405,
			"-0.004": 14.870858747,
			"-0.003": 11.114443384,
			"-0.002": 9.67933721872,
			"-0.001": 10.0012815707,
			"0.0": 7.23925810423,
			"0.001": 4.63141529248,
			"0.002": 2.82906130092,
			"0.003": 3.85805268654,
			"0.004": 2.23450706958,
			"0.005": 4.85287068325,
			"0.006": 2.83552860723,
			"0.007": 3.21966855496,
			"0.008": 4.09472002566,
			"0.009": 3.98499966878,
			"0.01": 4.30926443838,
			"0.011": 9.75062451576,
			"0.012": 12.2969121572,
			"0.013": 4.22183761183,
			"0.014": 0.397441065315,
			"0.015": 0.0,
			"0.016": 0.0,
			"0.017": 0.0,
			"0.018": 0.0,
			"0.019": 0.0,
			"0.02": 0.0,
			"0.021": 0.0,
			"0.022": 0.0,
			"0.023": 0.0,
			"0.024": 0.0,
			"0.025": 0.0
		}
	}
}
