{
	 "smiles": "ON1N=NC2=C1C=CC(=C2)S(=O)(=O)NCC(O)=O", 
	 "Tm": 503.15, 
	 "num_atms": 26, 
	 "gaussian": { 
		 "optdone": 1, 
		 "sigma_profile": "yes", 
		 "theory": "DFT", 
		 "functional": "B3LYP", 
		 "basiset": "6-31G**", 
		 "properties": { 
			 "R2extent": 6570.6845, 
			 "electric_dipole_moment_norm": 5.17542886629, 
			 "electric_quadrupole_moment_norm": 30.1192683991, 
			 "total_energy": -1302.81698526, 
			 "HOMO_LUMO_gap": 0.1909, 
			 "cosmo_polarized_energy": -28.09, 
			 "cosmo_cavitation_energy": 33.81, 
			 "cosmo_dispersion_energy": -24.43, 
			 "cosmo_repulsion_energy": 1.85, 
			 "cosmo_total_nonelectrostatic_energy": 11.23, 
			 "SMD_solvation_energy": 5.02 
		},
		"coords": [
			{
				"x": -2.7289298712,
				"y": 0.2151676538,
				"z": -5.5523560422,
				"element": "O" 
			},
			{
				"x": -1.5656606651,
				"y": 0.0829723177,
				"z": -4.8436985023,
				"element": "N" 
			},
			{
				"x": -0.3919219303,
				"y": 0.5619674339,
				"z": -5.326713925,
				"element": "N" 
			},
			{
				"x": 0.5162727918,
				"y": 0.3865441196,
				"z": -4.4189358163,
				"element": "N" 
			},
			{
				"x": -0.0764755354,
				"y": -0.1886792346,
				"z": -3.3127895222,
				"element": "C" 
			},
			{
				"x": -1.4466835995,
				"y": -0.3923953158,
				"z": -3.5764152678,
				"element": "C" 
			},
			{
				"x": -2.3331371311,
				"y": -0.9646241877,
				"z": -2.6497593218,
				"element": "C" 
			},
			{
				"x": -1.7864502033,
				"y": -1.3287243277,
				"z": -1.434088609,
				"element": "C" 
			},
			{
				"x": -0.4075722972,
				"y": -1.1231278738,
				"z": -1.161038722,
				"element": "C" 
			},
			{
				"x": 0.4701822982,
				"y": -0.5656241052,
				"z": -2.0753247364,
				"element": "C" 
			},
			{
				"x": 0.2289541034,
				"y": -1.6514866657,
				"z": 0.429363271,
				"element": "S" 
			},
			{
				"x": 1.6825271569,
				"y": -1.4522275764,
				"z": 0.4023234753,
				"element": "O" 
			},
			{
				"x": -0.3708699575,
				"y": -2.941423446,
				"z": 0.7789991184,
				"element": "O" 
			},
			{
				"x": -0.5001886842,
				"y": -0.5388340573,
				"z": 1.4890978747,
				"element": "N" 
			},
			{
				"x": 0.2509511028,
				"y": 0.6790015391,
				"z": 1.785449813,
				"element": "C" 
			},
			{
				"x": 1.4607693508,
				"y": 0.5378366393,
				"z": 2.7048976254,
				"element": "C" 
			},
			{
				"x": 1.3504085096,
				"y": -0.5348608733,
				"z": 3.5195092467,
				"element": "O" 
			},
			{
				"x": 2.3717011554,
				"y": 1.3289113043,
				"z": 2.7505964203,
				"element": "O" 
			},
			{
				"x": -2.6109582291,
				"y": -0.3403190235,
				"z": -6.3416751471,
				"element": "H" 
			},
			{
				"x": -3.3822074069,
				"y": -1.1123232459,
				"z": -2.877683633,
				"element": "H" 
			},
			{
				"x": -2.4079808607,
				"y": -1.7866806442,
				"z": -0.6728182531,
				"element": "H" 
			},
			{
				"x": 1.5218616739,
				"y": -0.4381052744,
				"z": -1.8466137353,
				"element": "H" 
			},
			{
				"x": -0.7631687117,
				"y": -1.0605608051,
				"z": 2.3232641423,
				"element": "H" 
			},
			{
				"x": 0.5924142223,
				"y": 1.1431197106,
				"z": 0.858641248,
				"element": "H" 
			},
			{
				"x": -0.4377077857,
				"y": 1.3891955313,
				"z": 2.2586377543,
				"element": "H" 
			},
			{
				"x": 2.1543705039,
				"y": -0.5566195931,
				"z": 4.0650312441,
				"element": "H" 
			}
		],
		 "valence_orbital": [ 
			{
				"type": "occ",
				"energy": -0.30792,
				"method": "rhf"
			},
			{
				"type": "occ",
				"energy": -0.29002,
				"method": "rhf"
			},
			{
				"type": "occ",
				"energy": -0.28238,
				"method": "rhf"
			},
			{
				"type": "occ",
				"energy": -0.26878,
				"method": "rhf"
			},
			{
				"type": "occ",
				"energy": -0.26071,
				"method": "rhf"
			},
			{
				"type": "unocc",
				"energy": -0.06981,
				"method": "rhf"
			},
			{
				"type": "unocc",
				"energy": -0.03564,
				"method": "rhf"
			},
			{
				"type": "unocc",
				"energy": -0.00101,
				"method": "rhf"
			},
			{
				"type": "unocc",
				"energy": 0.00898,
				"method": "rhf"
			},
			{
				"type": "unocc",
				"energy": 0.02851,
				"method": "rhf"
			}
		],
		"cosmo_sigma_profile": { 
			"-0.025": 0.0,
			"-0.024": 0.0,
			"-0.023": 0.0,
			"-0.022": 0.0,
			"-0.021": 0.223346363122,
			"-0.02": 1.23807819884,
			"-0.019": 1.75963840141,
			"-0.018": 2.67883858981,
			"-0.017": 1.31651221609,
			"-0.016": 1.45917058356,
			"-0.015": 1.32261654147,
			"-0.014": 2.60219767417,
			"-0.013": 2.16295384578,
			"-0.012": 1.62106079845,
			"-0.011": 3.6237172596,
			"-0.01": 2.14868278567,
			"-0.009": 7.18709083934,
			"-0.008": 10.6253663353,
			"-0.007": 11.3956958682,
			"-0.006": 10.7578057935,
			"-0.005": 11.0077627047,
			"-0.004": 12.0606991597,
			"-0.003": 12.5010253276,
			"-0.002": 15.9261276726,
			"-0.001": 17.7216633184,
			"0.0": 14.6107366263,
			"0.001": 13.3033704783,
			"0.002": 9.3373327404,
			"0.003": 9.54274279777,
			"0.004": 8.80891196418,
			"0.005": 11.3656587444,
			"0.006": 9.53004185726,
			"0.007": 10.4563151328,
			"0.008": 10.3676118821,
			"0.009": 9.32133897953,
			"0.01": 13.3809711945,
			"0.011": 12.9728901377,
			"0.012": 3.97528738416,
			"0.013": 1.31430492502,
			"0.014": 0.715414218102,
			"0.015": 0.0936048611387,
			"0.016": 0.0,
			"0.017": 0.0,
			"0.018": 0.0,
			"0.019": 0.0,
			"0.02": 0.0,
			"0.021": 0.0,
			"0.022": 0.0,
			"0.023": 0.0,
			"0.024": 0.0,
			"0.025": 0.0
		}
	}
}
