{
	 "smiles": "CC(=O)OC1CCC2(C)C3CCC4=C(CC[C@@]4(C)C#CCl)C3CC[C@@]2(C)C1", 
	 "Tm": 383.15, 
	 "num_atms": 60, 
	 "gaussian": { 
		 "optdone": 1, 
		 "sigma_profile": "yes", 
		 "theory": "DFT", 
		 "functional": "B3LYP", 
		 "basiset": "6-31G**", 
		 "properties": { 
			 "R2extent": 14990.6922, 
			 "electric_dipole_moment_norm": 1.64684075126, 
			 "electric_quadrupole_moment_norm": 24.2150857991, 
			 "total_energy": -1545.03797889, 
			 "HOMO_LUMO_gap": 0.23879, 
			 "cosmo_polarized_energy": -8.9, 
			 "cosmo_cavitation_energy": 55.42, 
			 "cosmo_dispersion_energy": -37.66, 
			 "cosmo_repulsion_energy": 2.85, 
			 "cosmo_total_nonelectrostatic_energy": 20.61, 
			 "SMD_solvation_energy": 9.58 
		},
		"coords": [
			{
				"x": 5.6701220977,
				"y": -1.7516809189,
				"z": -3.3039331767,
				"element": "C" 
			},
			{
				"x": 5.585044967,
				"y": -1.131026,
				"z": -1.9281698799,
				"element": "C" 
			},
			{
				"x": 6.4648411686,
				"y": -1.1606750617,
				"z": -1.0942061076,
				"element": "O" 
			},
			{
				"x": 4.3847103135,
				"y": -0.5327349971,
				"z": -1.7472891128,
				"element": "O" 
			},
			{
				"x": 4.1565290521,
				"y": 0.1190016465,
				"z": -0.4589402193,
				"element": "C" 
			},
			{
				"x": 3.6582422954,
				"y": -0.9044176421,
				"z": 0.57161462,
				"element": "C" 
			},
			{
				"x": 2.1581270608,
				"y": -1.2415997344,
				"z": 0.4758739605,
				"element": "C" 
			},
			{
				"x": 1.2566672852,
				"y": 0.0221401946,
				"z": 0.4390254174,
				"element": "C" 
			},
			{
				"x": 1.4628494778,
				"y": 0.7809958362,
				"z": 1.7780915144,
				"element": "C" 
			},
			{
				"x": -0.2573007976,
				"y": -0.3460562905,
				"z": 0.2869806304,
				"element": "C" 
			},
			{
				"x": -0.8424944784,
				"y": -1.2742175454,
				"z": 1.3708857595,
				"element": "C" 
			},
			{
				"x": -2.2336525242,
				"y": -1.7913834692,
				"z": 0.9580171384,
				"element": "C" 
			},
			{
				"x": -3.0823392211,
				"y": -0.6806784546,
				"z": 0.40814924,
				"element": "C" 
			},
			{
				"x": -2.6073851,
				"y": 0.5235118603,
				"z": 0.0566853529,
				"element": "C" 
			},
			{
				"x": -3.6951711595,
				"y": 1.4201065325,
				"z": -0.4972165064,
				"element": "C" 
			},
			{
				"x": -4.9926985674,
				"y": 0.6767115276,
				"z": -0.1155713834,
				"element": "C" 
			},
			{
				"x": -4.5826222992,
				"y": -0.8173470322,
				"z": 0.1088198847,
				"element": "C" 
			},
			{
				"x": -5.3930563333,
				"y": -1.4658412977,
				"z": 1.2528490625,
				"element": "C" 
			},
			{
				"x": -4.7616102064,
				"y": -1.6120241613,
				"z": -1.1232864948,
				"element": "C" 
			},
			{
				"x": -4.9044066935,
				"y": -2.2716039745,
				"z": -2.1269645356,
				"element": "C" 
			},
			{
				"x": -5.0915520276,
				"y": -3.1644495552,
				"z": -3.5084602795,
				"element": "Cl" 
			},
			{
				"x": -1.1522112865,
				"y": 0.9211407614,
				"z": 0.1726235999,
				"element": "C" 
			},
			{
				"x": -0.6887663727,
				"y": 1.8613026419,
				"z": -0.9606413782,
				"element": "C" 
			},
			{
				"x": 0.8165174718,
				"y": 2.1691399528,
				"z": -0.881974727,
				"element": "C" 
			},
			{
				"x": 1.6875721343,
				"y": 0.8906391484,
				"z": -0.8179559024,
				"element": "C" 
			},
			{
				"x": 1.509006557,
				"y": 0.1369948014,
				"z": -2.1644847753,
				"element": "C" 
			},
			{
				"x": 3.1823198766,
				"y": 1.283777833,
				"z": -0.6881320718,
				"element": "C" 
			},
			{
				"x": 5.4563706078,
				"y": -1.0027696096,
				"z": -4.0716629004,
				"element": "H" 
			},
			{
				"x": 6.6656586768,
				"y": -2.1688636998,
				"z": -3.4523951918,
				"element": "H" 
			},
			{
				"x": 4.9199754228,
				"y": -2.5424242244,
				"z": -3.4028230217,
				"element": "H" 
			},
			{
				"x": 5.127247538,
				"y": 0.5035548316,
				"z": -0.135799335,
				"element": "H" 
			},
			{
				"x": 4.2645088399,
				"y": -1.8114254554,
				"z": 0.4863861095,
				"element": "H" 
			},
			{
				"x": 3.877739169,
				"y": -0.4984512862,
				"z": 1.5656150235,
				"element": "H" 
			},
			{
				"x": 1.898749266,
				"y": -1.8616490079,
				"z": 1.3408030204,
				"element": "H" 
			},
			{
				"x": 1.9687708663,
				"y": -1.8610333667,
				"z": -0.4075935089,
				"element": "H" 
			},
			{
				"x": 2.4917423469,
				"y": 1.113584342,
				"z": 1.9236320967,
				"element": "H" 
			},
			{
				"x": 0.8307828843,
				"y": 1.6652545911,
				"z": 1.8729784426,
				"element": "H" 
			},
			{
				"x": 1.2233150907,
				"y": 0.120992117,
				"z": 2.6181066415,
				"element": "H" 
			},
			{
				"x": -0.3593229994,
				"y": -0.8936921062,
				"z": -0.6591304229,
				"element": "H" 
			},
			{
				"x": -0.9325480121,
				"y": -0.7300113401,
				"z": 2.3195956262,
				"element": "H" 
			},
			{
				"x": -0.1852046822,
				"y": -2.12866012,
				"z": 1.5590106156,
				"element": "H" 
			},
			{
				"x": -2.1362281059,
				"y": -2.5874518243,
				"z": 0.204021805,
				"element": "H" 
			},
			{
				"x": -2.7241372243,
				"y": -2.2620094468,
				"z": 1.8202880302,
				"element": "H" 
			},
			{
				"x": -3.6661144441,
				"y": 2.4356294053,
				"z": -0.0823436512,
				"element": "H" 
			},
			{
				"x": -3.5933170401,
				"y": 1.5296625891,
				"z": -1.586008617,
				"element": "H" 
			},
			{
				"x": -5.790749297,
				"y": 0.7790631882,
				"z": -0.8551172262,
				"element": "H" 
			},
			{
				"x": -5.3691155534,
				"y": 1.0664076443,
				"z": 0.8365887308,
				"element": "H" 
			},
			{
				"x": -5.1125614264,
				"y": -2.5126274583,
				"z": 1.3993827529,
				"element": "H" 
			},
			{
				"x": -5.2191067765,
				"y": -0.9238922506,
				"z": 2.1883038374,
				"element": "H" 
			},
			{
				"x": -6.4635306381,
				"y": -1.4350243673,
				"z": 1.0275393718,
				"element": "H" 
			},
			{
				"x": -1.0542268532,
				"y": 1.4910369567,
				"z": 1.1103642163,
				"element": "H" 
			},
			{
				"x": -1.2543611009,
				"y": 2.7994955065,
				"z": -0.915527102,
				"element": "H" 
			},
			{
				"x": -0.9294441923,
				"y": 1.4116704422,
				"z": -1.9310823375,
				"element": "H" 
			},
			{
				"x": 1.1143108567,
				"y": 2.764821448,
				"z": -1.7548656848,
				"element": "H" 
			},
			{
				"x": 1.0143854374,
				"y": 2.799675164,
				"z": -0.006305901,
				"element": "H" 
			},
			{
				"x": 0.4729272086,
				"y": -0.1366036937,
				"z": -2.3677937245,
				"element": "H" 
			},
			{
				"x": 2.1144318157,
				"y": -0.7654324884,
				"z": -2.2285422122,
				"element": "H" 
			},
			{
				"x": 1.8344538484,
				"y": 0.7919095372,
				"z": -2.9806813501,
				"element": "H" 
			},
			{
				"x": 3.4994035626,
				"y": 1.8285147179,
				"z": -1.5854988232,
				"element": "H" 
			},
			{
				"x": 3.3079122176,
				"y": 1.9817226627,
				"z": 0.14766506,
				"element": "H" 
			}
		],
		 "valence_orbital": [ 
			{
				"type": "occ",
				"energy": -0.27205,
				"method": "rhf"
			},
			{
				"type": "occ",
				"energy": -0.26473,
				"method": "rhf"
			},
			{
				"type": "occ",
				"energy": -0.25021,
				"method": "rhf"
			},
			{
				"type": "occ",
				"energy": -0.24832,
				"method": "rhf"
			},
			{
				"type": "occ",
				"energy": -0.22289,
				"method": "rhf"
			},
			{
				"type": "unocc",
				"energy": 0.0159,
				"method": "rhf"
			},
			{
				"type": "unocc",
				"energy": 0.01923,
				"method": "rhf"
			},
			{
				"type": "unocc",
				"energy": 0.04057,
				"method": "rhf"
			},
			{
				"type": "unocc",
				"energy": 0.05644,
				"method": "rhf"
			},
			{
				"type": "unocc",
				"energy": 0.06569,
				"method": "rhf"
			}
		],
		"cosmo_sigma_profile": { 
			"-0.025": 0.0,
			"-0.024": 0.0,
			"-0.023": 0.0,
			"-0.022": 0.0,
			"-0.021": 0.0,
			"-0.02": 0.0,
			"-0.019": 0.0,
			"-0.018": 0.0,
			"-0.017": 0.0,
			"-0.016": 0.0,
			"-0.015": 0.0,
			"-0.014": 0.0,
			"-0.013": 0.0,
			"-0.012": 0.0,
			"-0.011": 0.0,
			"-0.01": 0.0,
			"-0.009": 0.0,
			"-0.008": 0.0,
			"-0.007": 0.294279666619,
			"-0.006": 4.19165450959,
			"-0.005": 8.33997328197,
			"-0.004": 17.1455243804,
			"-0.003": 41.7584775101,
			"-0.002": 70.0982661978,
			"-0.001": 76.4557513656,
			"0.0": 64.5290329125,
			"0.001": 51.0949330432,
			"0.002": 38.0809632143,
			"0.003": 15.5086635575,
			"0.004": 11.3369583347,
			"0.005": 10.910350655,
			"0.006": 5.48338623212,
			"0.007": 3.00503769716,
			"0.008": 1.51025598626,
			"0.009": 1.45966108804,
			"0.01": 1.67998998354,
			"0.011": 2.2742771579,
			"0.012": 4.64301659861,
			"0.013": 2.25085734905,
			"0.014": 0.166498087138,
			"0.015": 0.0,
			"0.016": 0.0,
			"0.017": 0.0,
			"0.018": 0.0,
			"0.019": 0.0,
			"0.02": 0.0,
			"0.021": 0.0,
			"0.022": 0.0,
			"0.023": 0.0,
			"0.024": 0.0,
			"0.025": 0.0
		}
	}
}
