{
	 "smiles": "CS(=O)(=O)C1=CC=CS1", 
	 "Tm": 317.15, 
	 "num_atms": 15, 
	 "gaussian": { 
		 "optdone": 1, 
		 "sigma_profile": "yes", 
		 "theory": "DFT", 
		 "functional": "B3LYP", 
		 "basiset": "6-31G**", 
		 "properties": { 
			 "R2extent": 2797.7096, 
			 "electric_dipole_moment_norm": 5.07852650087, 
			 "electric_quadrupole_moment_norm": 16.0750380771, 
			 "total_energy": -1140.88307669, 
			 "HOMO_LUMO_gap": 0.21197, 
			 "cosmo_polarized_energy": -14.22, 
			 "cosmo_cavitation_energy": 22.07, 
			 "cosmo_dispersion_energy": -17.17, 
			 "cosmo_repulsion_energy": 1.3, 
			 "cosmo_total_nonelectrostatic_energy": 6.2, 
			 "SMD_solvation_energy": 3.62 
		},
		"coords": [
			{
				"x": 0.4322411617,
				"y": -1.6064630927,
				"z": 0.5144597515,
				"element": "C" 
			},
			{
				"x": 0.5597257769,
				"y": 0.196122833,
				"z": 0.545377359,
				"element": "S" 
			},
			{
				"x": 1.9305517104,
				"y": 0.5481352771,
				"z": 0.1511811855,
				"element": "O" 
			},
			{
				"x": -0.6096603043,
				"y": 0.7345440726,
				"z": -0.1619936089,
				"element": "O" 
			},
			{
				"x": 0.3656882535,
				"y": 0.6093734111,
				"z": 2.264106355,
				"element": "C" 
			},
			{
				"x": -0.8120411115,
				"y": 0.967779011,
				"z": 2.8700630384,
				"element": "C" 
			},
			{
				"x": -0.6403531807,
				"y": 1.2455001633,
				"z": 4.2558813151,
				"element": "C" 
			},
			{
				"x": 0.6593232408,
				"y": 1.0941918065,
				"z": 4.6652991727,
				"element": "C" 
			},
			{
				"x": 1.7078130794,
				"y": 0.6244359576,
				"z": 3.3721031013,
				"element": "S" 
			},
			{
				"x": 1.2291364007,
				"y": -2.0331884487,
				"z": 1.1249622329,
				"element": "H" 
			},
			{
				"x": -0.5507627344,
				"y": -1.9016913537,
				"z": 0.8831020046,
				"element": "H" 
			},
			{
				"x": 0.5539304006,
				"y": -1.9027558476,
				"z": -0.5296583072,
				"element": "H" 
			},
			{
				"x": -1.7483137946,
				"y": 1.0400540689,
				"z": 2.3299465431,
				"element": "H" 
			},
			{
				"x": -1.4433501241,
				"y": 1.5514991338,
				"z": 4.9161567644,
				"element": "H" 
			},
			{
				"x": 1.0684712255,
				"y": 1.2493630077,
				"z": 5.6547130927,
				"element": "H" 
			}
		],
		 "valence_orbital": [ 
			{
				"type": "occ",
				"energy": -0.3151,
				"method": "rhf"
			},
			{
				"type": "occ",
				"energy": -0.29937,
				"method": "rhf"
			},
			{
				"type": "occ",
				"energy": -0.29501,
				"method": "rhf"
			},
			{
				"type": "occ",
				"energy": -0.27513,
				"method": "rhf"
			},
			{
				"type": "occ",
				"energy": -0.26317,
				"method": "rhf"
			},
			{
				"type": "unocc",
				"energy": -0.0512,
				"method": "rhf"
			},
			{
				"type": "unocc",
				"energy": 0.01002,
				"method": "rhf"
			},
			{
				"type": "unocc",
				"energy": 0.0339,
				"method": "rhf"
			},
			{
				"type": "unocc",
				"energy": 0.05099,
				"method": "rhf"
			},
			{
				"type": "unocc",
				"energy": 0.07266,
				"method": "rhf"
			}
		],
		"cosmo_sigma_profile": { 
			"-0.025": 0.0,
			"-0.024": 0.0,
			"-0.023": 0.0,
			"-0.022": 0.0,
			"-0.021": 0.0,
			"-0.02": 0.0,
			"-0.019": 0.0,
			"-0.018": 0.0,
			"-0.017": 0.0,
			"-0.016": 0.0,
			"-0.015": 0.0,
			"-0.014": 0.0,
			"-0.013": 0.0,
			"-0.012": 0.0,
			"-0.011": 0.0,
			"-0.01": 1.11182063679,
			"-0.009": 4.67178028888,
			"-0.008": 10.5292759727,
			"-0.007": 11.3776066982,
			"-0.006": 12.0709074542,
			"-0.005": 11.9370111559,
			"-0.004": 12.2804627841,
			"-0.003": 9.6601815808,
			"-0.002": 7.04456651779,
			"-0.001": 7.14545088181,
			"0.0": 10.5412733828,
			"0.001": 12.6809220624,
			"0.002": 16.239604859,
			"0.003": 10.3700076313,
			"0.004": 4.47631070253,
			"0.005": 2.41736848224,
			"0.006": 2.08397101945,
			"0.007": 2.83206982293,
			"0.008": 3.95421216576,
			"0.009": 2.51166286957,
			"0.01": 5.80202712877,
			"0.011": 10.189851184,
			"0.012": 6.85893506846,
			"0.013": 0.138467777529,
			"0.014": 0.0,
			"0.015": 0.0,
			"0.016": 0.0,
			"0.017": 0.0,
			"0.018": 0.0,
			"0.019": 0.0,
			"0.02": 0.0,
			"0.021": 0.0,
			"0.022": 0.0,
			"0.023": 0.0,
			"0.024": 0.0,
			"0.025": 0.0
		}
	}
}
