{
	 "smiles": "ClC(Cl)C(=O)NC1=C(Cl)C(=O)C2=CC=CC=C2C1=O", 
	 "Tm": 485.15, 
	 "num_atms": 25, 
	 "gaussian": { 
		 "optdone": 1, 
		 "sigma_profile": "yes", 
		 "theory": "DFT", 
		 "functional": "B3LYP", 
		 "basiset": "6-31G**", 
		 "properties": { 
			 "R2extent": 8825.2865, 
			 "electric_dipole_moment_norm": 5.45610951961, 
			 "electric_quadrupole_moment_norm": 19.5261494256, 
			 "total_energy": -2121.87715916, 
			 "HOMO_LUMO_gap": 0.12947, 
			 "cosmo_polarized_energy": -14.42, 
			 "cosmo_cavitation_energy": 35.44, 
			 "cosmo_dispersion_energy": -25.42, 
			 "cosmo_repulsion_energy": 1.94, 
			 "cosmo_total_nonelectrostatic_energy": 11.96, 
			 "SMD_solvation_energy": 6.56 
		},
		"coords": [
			{
				"x": 2.0069494584,
				"y": 1.0540363749,
				"z": 3.8963933832,
				"element": "Cl" 
			},
			{
				"x": 0.3466974135,
				"y": 0.7803682866,
				"z": 4.5717143991,
				"element": "C" 
			},
			{
				"x": 0.2435489185,
				"y": 1.3215831389,
				"z": 6.2606161455,
				"element": "Cl" 
			},
			{
				"x": -0.0351237076,
				"y": -0.7117039345,
				"z": 4.4482752675,
				"element": "C" 
			},
			{
				"x": -0.3566801043,
				"y": -1.3736950945,
				"z": 5.409962917,
				"element": "O" 
			},
			{
				"x": 0.0297491889,
				"y": -1.3285286279,
				"z": 3.1972459604,
				"element": "N" 
			},
			{
				"x": 0.3276583404,
				"y": -0.9003723142,
				"z": 1.9091459871,
				"element": "C" 
			},
			{
				"x": 1.0065584473,
				"y": -1.7064709946,
				"z": 1.0437230006,
				"element": "C" 
			},
			{
				"x": 1.6082061287,
				"y": -3.253534088,
				"z": 1.5546879001,
				"element": "Cl" 
			},
			{
				"x": 1.3011446404,
				"y": -1.3375017907,
				"z": -0.3678410555,
				"element": "C" 
			},
			{
				"x": 1.9325233094,
				"y": -2.0824558775,
				"z": -1.1012453031,
				"element": "O" 
			},
			{
				"x": 0.8130848851,
				"y": -0.0064367967,
				"z": -0.8256617488,
				"element": "C" 
			},
			{
				"x": 1.1114636807,
				"y": 0.4208939001,
				"z": -2.121768237,
				"element": "C" 
			},
			{
				"x": 0.657959607,
				"y": 1.6632792673,
				"z": -2.5644155293,
				"element": "C" 
			},
			{
				"x": -0.1003308392,
				"y": 2.4790342733,
				"z": -1.7182156015,
				"element": "C" 
			},
			{
				"x": -0.4066828095,
				"y": 2.0547468443,
				"z": -0.4264236597,
				"element": "C" 
			},
			{
				"x": 0.0539910572,
				"y": 0.8134912023,
				"z": 0.0259314353,
				"element": "C" 
			},
			{
				"x": -0.2965876443,
				"y": 0.3675652941,
				"z": 1.3952367601,
				"element": "C" 
			},
			{
				"x": -1.096808121,
				"y": 0.9831191491,
				"z": 2.0900283131,
				"element": "O" 
			},
			{
				"x": -0.3281139651,
				"y": 1.3932463769,
				"z": 3.9819380258,
				"element": "H" 
			},
			{
				"x": 0.0093368485,
				"y": -2.336489639,
				"z": 3.3181064194,
				"element": "H" 
			},
			{
				"x": 1.69516573,
				"y": -0.2324632069,
				"z": -2.7610728531,
				"element": "H" 
			},
			{
				"x": 0.8930383399,
				"y": 1.9960033054,
				"z": -3.5708624737,
				"element": "H" 
			},
			{
				"x": -0.4538573546,
				"y": 3.4442340599,
				"z": -2.067554013,
				"element": "H" 
			},
			{
				"x": -0.9996914484,
				"y": 2.6667508913,
				"z": 0.2443545603,
				"element": "H" 
			}
		],
		 "valence_orbital": [ 
			{
				"type": "occ",
				"energy": -0.29607,
				"method": "rhf"
			},
			{
				"type": "occ",
				"energy": -0.29407,
				"method": "rhf"
			},
			{
				"type": "occ",
				"energy": -0.28846,
				"method": "rhf"
			},
			{
				"type": "occ",
				"energy": -0.28485,
				"method": "rhf"
			},
			{
				"type": "occ",
				"energy": -0.26639,
				"method": "rhf"
			},
			{
				"type": "unocc",
				"energy": -0.13692,
				"method": "rhf"
			},
			{
				"type": "unocc",
				"energy": -0.06408,
				"method": "rhf"
			},
			{
				"type": "unocc",
				"energy": -0.05518,
				"method": "rhf"
			},
			{
				"type": "unocc",
				"energy": -0.03261,
				"method": "rhf"
			},
			{
				"type": "unocc",
				"energy": 0.00446,
				"method": "rhf"
			}
		],
		"cosmo_sigma_profile": { 
			"-0.025": 0.0,
			"-0.024": 0.0,
			"-0.023": 0.0,
			"-0.022": 0.0,
			"-0.021": 0.0,
			"-0.02": 0.0,
			"-0.019": 0.0,
			"-0.018": 0.0,
			"-0.017": 0.0,
			"-0.016": 0.0,
			"-0.015": 0.0776324654322,
			"-0.014": 0.572808586683,
			"-0.013": 1.00750050316,
			"-0.012": 0.560606867398,
			"-0.011": 1.37502828212,
			"-0.01": 1.37396715504,
			"-0.009": 2.29333805439,
			"-0.008": 5.14482680279,
			"-0.007": 11.6522846183,
			"-0.006": 15.7587782757,
			"-0.005": 13.9169000297,
			"-0.004": 16.8264966494,
			"-0.003": 18.1889681392,
			"-0.002": 22.3155829934,
			"-0.001": 22.9384551813,
			"0.0": 29.3308096007,
			"0.001": 27.7186970007,
			"0.002": 21.3350464398,
			"0.003": 21.0836817987,
			"0.004": 15.0351316589,
			"0.005": 6.20237820659,
			"0.006": 5.62604885664,
			"0.007": 3.9163284067,
			"0.008": 6.51691357764,
			"0.009": 6.9895235012,
			"0.01": 9.27378985005,
			"0.011": 5.15193424183,
			"0.012": 0.55153020859,
			"0.013": 0.0,
			"0.014": 0.0,
			"0.015": 0.0,
			"0.016": 0.0,
			"0.017": 0.0,
			"0.018": 0.0,
			"0.019": 0.0,
			"0.02": 0.0,
			"0.021": 0.0,
			"0.022": 0.0,
			"0.023": 0.0,
			"0.024": 0.0,
			"0.025": 0.0
		}
	}
}
