{
	 "smiles": "CCCCC1=CC2=C(C=C1OCC1=CC=CC=C1)N=CC(C(=O)OC)=C2O", 
	 "Tm": 561.15, 
	 "num_atms": 50, 
	 "gaussian": { 
		 "optdone": 1, 
		 "sigma_profile": "yes", 
		 "theory": "DFT", 
		 "functional": "B3LYP", 
		 "basiset": "6-31G**", 
		 "properties": { 
			 "R2extent": 13120.5885, 
			 "electric_dipole_moment_norm": 1.03876458353, 
			 "electric_quadrupole_moment_norm": 15.2239366335, 
			 "total_energy": -1207.88958077, 
			 "HOMO_LUMO_gap": 0.16721, 
			 "cosmo_polarized_energy": -12.58, 
			 "cosmo_cavitation_energy": 52.7, 
			 "cosmo_dispersion_energy": -35.5, 
			 "cosmo_repulsion_energy": 2.68, 
			 "cosmo_total_nonelectrostatic_energy": 19.87, 
			 "SMD_solvation_energy": 8.49 
		},
		"coords": [
			{
				"x": 0.5847413517,
				"y": -1.6870687905,
				"z": 3.3504906043,
				"element": "C" 
			},
			{
				"x": -0.6608079965,
				"y": -2.4729406404,
				"z": 3.7803489084,
				"element": "C" 
			},
			{
				"x": -1.5239331506,
				"y": -3.0330328631,
				"z": 2.634764916,
				"element": "C" 
			},
			{
				"x": -2.4653499432,
				"y": -2.0343124684,
				"z": 1.9214467645,
				"element": "C" 
			},
			{
				"x": -1.7992975739,
				"y": -0.9941742886,
				"z": 1.0405037217,
				"element": "C" 
			},
			{
				"x": -1.2033474915,
				"y": -1.3577110899,
				"z": -0.1493979443,
				"element": "C" 
			},
			{
				"x": -0.5911408533,
				"y": -0.4110783905,
				"z": -1.0049932249,
				"element": "C" 
			},
			{
				"x": -0.5884681344,
				"y": 0.9655877275,
				"z": -0.638085486,
				"element": "C" 
			},
			{
				"x": -1.2029586272,
				"y": 1.3430396441,
				"z": 0.5767805632,
				"element": "C" 
			},
			{
				"x": -1.7969286227,
				"y": 0.3943497519,
				"z": 1.3928993373,
				"element": "C" 
			},
			{
				"x": -2.4231747825,
				"y": 0.6917901912,
				"z": 2.5703488391,
				"element": "O" 
			},
			{
				"x": -2.6614397829,
				"y": 2.0587014984,
				"z": 2.9184628956,
				"element": "C" 
			},
			{
				"x": -1.4643738829,
				"y": 2.7673441624,
				"z": 3.5204189542,
				"element": "C" 
			},
			{
				"x": -1.2608139809,
				"y": 4.13020006,
				"z": 3.2768365473,
				"element": "C" 
			},
			{
				"x": -0.1981155551,
				"y": 4.8077064953,
				"z": 3.8775100286,
				"element": "C" 
			},
			{
				"x": 0.677250064,
				"y": 4.1243555338,
				"z": 4.7224143787,
				"element": "C" 
			},
			{
				"x": 0.482534633,
				"y": 2.7625766687,
				"z": 4.965497636,
				"element": "C" 
			},
			{
				"x": -0.5846257301,
				"y": 2.088589202,
				"z": 4.3721932289,
				"element": "C" 
			},
			{
				"x": -0.0170308891,
				"y": 1.9511214414,
				"z": -1.4069412538,
				"element": "N" 
			},
			{
				"x": 0.5469547908,
				"y": 1.5818738316,
				"z": -2.5319214096,
				"element": "C" 
			},
			{
				"x": 0.610467269,
				"y": 0.2430531185,
				"z": -3.0147487535,
				"element": "C" 
			},
			{
				"x": 1.2495011481,
				"y": -0.1205463088,
				"z": -4.2763663171,
				"element": "C" 
			},
			{
				"x": 1.3101443217,
				"y": -1.2798002995,
				"z": -4.7052283694,
				"element": "O" 
			},
			{
				"x": 1.7774750292,
				"y": 0.911965102,
				"z": -4.952540807,
				"element": "O" 
			},
			{
				"x": 2.4148255093,
				"y": 0.5857101945,
				"z": -6.1995466513,
				"element": "C" 
			},
			{
				"x": 0.0291815579,
				"y": -0.7721491153,
				"z": -2.2348082243,
				"element": "C" 
			},
			{
				"x": 0.0348393538,
				"y": -2.0550011109,
				"z": -2.5965346442,
				"element": "O" 
			},
			{
				"x": 1.1838840526,
				"y": -1.4029599831,
				"z": 4.2228419901,
				"element": "H" 
			},
			{
				"x": 1.2223413383,
				"y": -2.2927384435,
				"z": 2.6962694156,
				"element": "H" 
			},
			{
				"x": 0.3347995364,
				"y": -0.7717532719,
				"z": 2.8089489412,
				"element": "H" 
			},
			{
				"x": -1.2890853598,
				"y": -1.8488241917,
				"z": 4.430586394,
				"element": "H" 
			},
			{
				"x": -0.3359455833,
				"y": -3.3184156439,
				"z": 4.4008398806,
				"element": "H" 
			},
			{
				"x": -2.1613796897,
				"y": -3.8276313402,
				"z": 3.0436505009,
				"element": "H" 
			},
			{
				"x": -0.875015086,
				"y": -3.5184319511,
				"z": 1.8930696808,
				"element": "H" 
			},
			{
				"x": -3.1460551542,
				"y": -2.6185256403,
				"z": 1.2892920566,
				"element": "H" 
			},
			{
				"x": -3.0873600378,
				"y": -1.5347296037,
				"z": 2.6682413178,
				"element": "H" 
			},
			{
				"x": -1.2043392325,
				"y": -2.3998378099,
				"z": -0.4538011988,
				"element": "H" 
			},
			{
				"x": -1.1635332225,
				"y": 2.3910166078,
				"z": 0.8417738005,
				"element": "H" 
			},
			{
				"x": -3.041170528,
				"y": 2.6087289065,
				"z": 2.0485664599,
				"element": "H" 
			},
			{
				"x": -3.4716700874,
				"y": 2.0010094154,
				"z": 3.6534764944,
				"element": "H" 
			},
			{
				"x": -1.9339619827,
				"y": 4.6651739913,
				"z": 2.6105605121,
				"element": "H" 
			},
			{
				"x": -0.0495912297,
				"y": 5.8648115476,
				"z": 3.6767080778,
				"element": "H" 
			},
			{
				"x": 1.5088758513,
				"y": 4.647814159,
				"z": 5.1851310812,
				"element": "H" 
			},
			{
				"x": 1.1629533019,
				"y": 2.2242690749,
				"z": 5.6192504677,
				"element": "H" 
			},
			{
				"x": -0.7350816809,
				"y": 1.0298557746,
				"z": 4.5590345302,
				"element": "H" 
			},
			{
				"x": 0.9978731962,
				"y": 2.3661054215,
				"z": -3.1361804218,
				"element": "H" 
			},
			{
				"x": 2.7764740012,
				"y": 1.5337722912,
				"z": -6.5964423755,
				"element": "H" 
			},
			{
				"x": 3.2450976152,
				"y": -0.1056058531,
				"z": -6.0373475676,
				"element": "H" 
			},
			{
				"x": 1.7006877837,
				"y": 0.1274764456,
				"z": -6.8877450565,
				"element": "H" 
			},
			{
				"x": 0.5077941661,
				"y": -2.0982291599,
				"z": -3.4698292194,
				"element": "H" 
			}
		],
		 "valence_orbital": [ 
			{
				"type": "occ",
				"energy": -0.25303,
				"method": "rhf"
			},
			{
				"type": "occ",
				"energy": -0.24942,
				"method": "rhf"
			},
			{
				"type": "occ",
				"energy": -0.24736,
				"method": "rhf"
			},
			{
				"type": "occ",
				"energy": -0.22583,
				"method": "rhf"
			},
			{
				"type": "occ",
				"energy": -0.21768,
				"method": "rhf"
			},
			{
				"type": "unocc",
				"energy": -0.05047,
				"method": "rhf"
			},
			{
				"type": "unocc",
				"energy": -0.031,
				"method": "rhf"
			},
			{
				"type": "unocc",
				"energy": -0.00818,
				"method": "rhf"
			},
			{
				"type": "unocc",
				"energy": -0.00528,
				"method": "rhf"
			},
			{
				"type": "unocc",
				"energy": 0.03111,
				"method": "rhf"
			}
		],
		"cosmo_sigma_profile": { 
			"-0.025": 0.0,
			"-0.024": 0.0,
			"-0.023": 0.0,
			"-0.022": 0.0,
			"-0.021": 0.0,
			"-0.02": 0.0,
			"-0.019": 0.0,
			"-0.018": 0.0,
			"-0.017": 0.0,
			"-0.016": 0.0,
			"-0.015": 0.0,
			"-0.014": 0.0,
			"-0.013": 0.0,
			"-0.012": 0.0,
			"-0.011": 0.0,
			"-0.01": 0.0,
			"-0.009": 0.0,
			"-0.008": 0.395564335431,
			"-0.007": 5.24451256824,
			"-0.006": 18.0069611325,
			"-0.005": 24.858531361,
			"-0.004": 31.9606407063,
			"-0.003": 35.5335236127,
			"-0.002": 38.9670751499,
			"-0.001": 43.2259666437,
			"0.0": 47.1206152924,
			"0.001": 43.6928289743,
			"0.002": 33.9469563495,
			"0.003": 26.7860569319,
			"0.004": 18.7992152928,
			"0.005": 18.0084507987,
			"0.006": 9.40960390032,
			"0.007": 4.25797656109,
			"0.008": 5.13945750024,
			"0.009": 3.24269889035,
			"0.01": 3.02855595127,
			"0.011": 2.31693261007,
			"0.012": 0.717586821995,
			"0.013": 0.56389422524,
			"0.014": 1.21997903399,
			"0.015": 0.757994480305,
			"0.016": 0.757375877121,
			"0.017": 0.0456092277341,
			"0.018": 0.0,
			"0.019": 0.0,
			"0.02": 0.0,
			"0.021": 0.0,
			"0.022": 0.0,
			"0.023": 0.0,
			"0.024": 0.0,
			"0.025": 0.0
		}
	}
}
