{
	 "smiles": "OC1=C(I)C(Cl)=NC=N1", 
	 "Tm": 548.15, 
	 "num_atms": 11, 
	 "gaussian": { 
		 "optdone": 1, 
		 "sigma_profile": "yes", 
		 "theory": "DFT", 
		 "functional": "B3LYP", 
		 "basiset": "6-31G**", 
		 "properties": { 
			 "R2extent": 2192.279, 
			 "electric_dipole_moment_norm": 2.24688252474, 
			 "electric_quadrupole_moment_norm": 2.8460760039, 
			 "total_energy": -809.928294588, 
			 "HOMO_LUMO_gap": 0.20129, 
			 "cosmo_polarized_energy": -8.44, 
			 "cosmo_cavitation_energy": 20.76, 
			 "cosmo_dispersion_energy": -17.28, 
			 "cosmo_repulsion_energy": 1.38, 
			 "cosmo_total_nonelectrostatic_energy": 4.85, 
			 "SMD_solvation_energy": 0.46 
		},
		"coords": [
			{
				"x": 1.0284887408,
				"y": -0.2845529392,
				"z": -2.0547967855,
				"element": "O" 
			},
			{
				"x": 0.9904568936,
				"y": -0.0619961261,
				"z": -0.7375046021,
				"element": "C" 
			},
			{
				"x": 1.9233545057,
				"y": 0.8159647303,
				"z": -0.1489807823,
				"element": "C" 
			},
			{
				"x": 3.3682915119,
				"y": 1.7731443669,
				"z": -1.3262665466,
				"element": "I" 
			},
			{
				"x": 1.7880419492,
				"y": 0.971484418,
				"z": 1.2339477139,
				"element": "C" 
			},
			{
				"x": 2.8550511198,
				"y": 2.0186709247,
				"z": 2.1303937171,
				"element": "Cl" 
			},
			{
				"x": 0.8574011691,
				"y": 0.3469793263,
				"z": 1.9513381507,
				"element": "N" 
			},
			{
				"x": 0.0350709686,
				"y": -0.4562471601,
				"z": 1.2801135255,
				"element": "C" 
			},
			{
				"x": 0.0520251961,
				"y": -0.6950762889,
				"z": -0.0313944652,
				"element": "N" 
			},
			{
				"x": 0.3109574622,
				"y": -0.910048261,
				"z": -2.2492537869,
				"element": "H" 
			},
			{
				"x": -0.7273395172,
				"y": -0.969422991,
				"z": 1.8609038614,
				"element": "H" 
			}
		],
		 "valence_orbital": [ 
			{
				"type": "occ",
				"energy": -0.31724,
				"method": "rhf"
			},
			{
				"type": "occ",
				"energy": -0.30191,
				"method": "rhf"
			},
			{
				"type": "occ",
				"energy": -0.29747,
				"method": "rhf"
			},
			{
				"type": "occ",
				"energy": -0.26858,
				"method": "rhf"
			},
			{
				"type": "occ",
				"energy": -0.25856,
				"method": "rhf"
			},
			{
				"type": "unocc",
				"energy": -0.05727,
				"method": "rhf"
			},
			{
				"type": "unocc",
				"energy": -0.0545,
				"method": "rhf"
			},
			{
				"type": "unocc",
				"energy": -0.04113,
				"method": "rhf"
			},
			{
				"type": "unocc",
				"energy": 0.02343,
				"method": "rhf"
			},
			{
				"type": "unocc",
				"energy": 0.03978,
				"method": "rhf"
			}
		],
		"cosmo_sigma_profile": { 
			"-0.025": 0.0,
			"-0.024": 0.0,
			"-0.023": 0.0,
			"-0.022": 0.0,
			"-0.021": 0.0,
			"-0.02": 0.0,
			"-0.019": 0.259173442262,
			"-0.018": 1.18537889805,
			"-0.017": 0.68011998822,
			"-0.016": 0.568664602852,
			"-0.015": 0.995872008251,
			"-0.014": 0.862172115525,
			"-0.013": 0.207549614144,
			"-0.012": 0.911767180905,
			"-0.011": 0.815514373981,
			"-0.01": 0.390697994079,
			"-0.009": 2.90165231151,
			"-0.008": 4.39106551843,
			"-0.007": 4.19927428997,
			"-0.006": 3.7501323076,
			"-0.005": 5.60737635058,
			"-0.004": 6.71177005789,
			"-0.003": 14.3455917666,
			"-0.002": 14.7652136167,
			"-0.001": 12.3792868089,
			"0.0": 11.9603519587,
			"0.001": 12.3530564037,
			"0.002": 13.3918100142,
			"0.003": 23.0825553596,
			"0.004": 12.0681608935,
			"0.005": 5.84477209552,
			"0.006": 4.43846139188,
			"0.007": 4.06462552123,
			"0.008": 3.9486880248,
			"0.009": 2.52495205895,
			"0.01": 1.6806786994,
			"0.011": 1.89873735126,
			"0.012": 0.892734602537,
			"0.013": 0.671573873523,
			"0.014": 0.0470352057198,
			"0.015": 0.0,
			"0.016": 0.0,
			"0.017": 0.0,
			"0.018": 0.0,
			"0.019": 0.0,
			"0.02": 0.0,
			"0.021": 0.0,
			"0.022": 0.0,
			"0.023": 0.0,
			"0.024": 0.0,
			"0.025": 0.0
		}
	}
}
