{
	 "smiles": "CCOC(=O)C1=C(C)N=CN1", 
	 "Tm": 478.15, 
	 "num_atms": 21, 
	 "gaussian": { 
		 "optdone": 1, 
		 "sigma_profile": "yes", 
		 "theory": "DFT", 
		 "functional": "B3LYP", 
		 "basiset": "6-31G**", 
		 "properties": { 
			 "R2extent": 2106.4124, 
			 "electric_dipole_moment_norm": 1.42553552744, 
			 "electric_quadrupole_moment_norm": 12.1562123624, 
			 "total_energy": -532.746745973, 
			 "HOMO_LUMO_gap": 0.20222, 
			 "cosmo_polarized_energy": -11.63, 
			 "cosmo_cavitation_energy": 25.18, 
			 "cosmo_dispersion_energy": -18.18, 
			 "cosmo_repulsion_energy": 1.49, 
			 "cosmo_total_nonelectrostatic_energy": 8.49, 
			 "SMD_solvation_energy": 4.23 
		},
		"coords": [
			{
				"x": -1.7830278793,
				"y": 0.7160704667,
				"z": -3.6432766695,
				"element": "C" 
			},
			{
				"x": -0.3490973322,
				"y": 0.9630277637,
				"z": -3.1990194674,
				"element": "C" 
			},
			{
				"x": -0.1054453796,
				"y": 0.4217583411,
				"z": -1.8784104102,
				"element": "O" 
			},
			{
				"x": -0.4334752955,
				"y": 1.2162602421,
				"z": -0.8354994577,
				"element": "C" 
			},
			{
				"x": -0.9052232332,
				"y": 2.3392411873,
				"z": -0.9421414246,
				"element": "O" 
			},
			{
				"x": -0.1576919547,
				"y": 0.588020256,
				"z": 0.4488764496,
				"element": "C" 
			},
			{
				"x": 0.3581771626,
				"y": -0.6311607442,
				"z": 0.8759484934,
				"element": "C" 
			},
			{
				"x": 0.8398383807,
				"y": -1.7905323442,
				"z": 0.061575212,
				"element": "C" 
			},
			{
				"x": 0.3821126025,
				"y": -0.664847569,
				"z": 2.247433101,
				"element": "N" 
			},
			{
				"x": -0.1035346728,
				"y": 0.5004070286,
				"z": 2.6483367407,
				"element": "C" 
			},
			{
				"x": -0.4448048093,
				"y": 1.2906057393,
				"z": 1.6058870481,
				"element": "N" 
			},
			{
				"x": -2.4816294072,
				"y": 1.259549288,
				"z": -3.0025885165,
				"element": "H" 
			},
			{
				"x": -1.9180302497,
				"y": 1.0650208197,
				"z": -4.6725510592,
				"element": "H" 
			},
			{
				"x": -2.0241968151,
				"y": -0.3503940199,
				"z": -3.607558545,
				"element": "H" 
			},
			{
				"x": 0.3649842802,
				"y": 0.4409689261,
				"z": -3.8402746269,
				"element": "H" 
			},
			{
				"x": -0.117328185,
				"y": 2.0305745215,
				"z": -3.190520052,
				"element": "H" 
			},
			{
				"x": 1.672758681,
				"y": -1.5047794216,
				"z": -0.5887653979,
				"element": "H" 
			},
			{
				"x": 1.1710607422,
				"y": -2.5845628184,
				"z": 0.7333300201,
				"element": "H" 
			},
			{
				"x": 0.049426376,
				"y": -2.180154282,
				"z": -0.5877608589,
				"element": "H" 
			},
			{
				"x": -0.224047171,
				"y": 0.8075058109,
				"z": 3.6782913754,
				"element": "H" 
			},
			{
				"x": -0.8355258405,
				"y": 2.2224208086,
				"z": 1.6075880454,
				"element": "H" 
			}
		],
		 "valence_orbital": [ 
			{
				"type": "occ",
				"energy": -0.29994,
				"method": "rhf"
			},
			{
				"type": "occ",
				"energy": -0.29188,
				"method": "rhf"
			},
			{
				"type": "occ",
				"energy": -0.28292,
				"method": "rhf"
			},
			{
				"type": "occ",
				"energy": -0.26296,
				"method": "rhf"
			},
			{
				"type": "occ",
				"energy": -0.23263,
				"method": "rhf"
			},
			{
				"type": "unocc",
				"energy": -0.03041,
				"method": "rhf"
			},
			{
				"type": "unocc",
				"energy": 0.04511,
				"method": "rhf"
			},
			{
				"type": "unocc",
				"energy": 0.08943,
				"method": "rhf"
			},
			{
				"type": "unocc",
				"energy": 0.10377,
				"method": "rhf"
			},
			{
				"type": "unocc",
				"energy": 0.11034,
				"method": "rhf"
			}
		],
		"cosmo_sigma_profile": { 
			"-0.025": 0.0,
			"-0.024": 0.0,
			"-0.023": 0.0,
			"-0.022": 0.0,
			"-0.021": 0.0,
			"-0.02": 0.0,
			"-0.019": 0.0,
			"-0.018": 0.0,
			"-0.017": 0.118385449255,
			"-0.016": 1.16424668669,
			"-0.015": 0.700873490613,
			"-0.014": 1.2709724004,
			"-0.013": 0.935339454796,
			"-0.012": 0.781639519584,
			"-0.011": 1.14960373365,
			"-0.01": 1.78557208301,
			"-0.009": 3.24572017599,
			"-0.008": 2.18419225004,
			"-0.007": 2.34032207426,
			"-0.006": 3.57644295871,
			"-0.005": 7.46363827865,
			"-0.004": 16.2960505308,
			"-0.003": 17.5190816958,
			"-0.002": 19.2395949988,
			"-0.001": 21.3793334815,
			"0.0": 23.3289719415,
			"0.001": 15.7304376493,
			"0.002": 11.884400254,
			"0.003": 7.04538249927,
			"0.004": 5.56524879411,
			"0.005": 6.92085667673,
			"0.006": 3.35494043511,
			"0.007": 2.64822237456,
			"0.008": 2.98506905377,
			"0.009": 2.82703937942,
			"0.01": 1.83155464069,
			"0.011": 3.72479649777,
			"0.012": 4.89396004673,
			"0.013": 1.89308970127,
			"0.014": 0.973573749659,
			"0.015": 0.401509462574,
			"0.016": 1.14597061966,
			"0.017": 0.878193157822,
			"0.018": 0.0913453654899,
			"0.019": 0.0,
			"0.02": 0.0,
			"0.021": 0.0,
			"0.022": 0.0,
			"0.023": 0.0,
			"0.024": 0.0,
			"0.025": 0.0
		}
	}
}
