{
	 "smiles": "CC(C)=C1CCC(C)=CC1", 
	 "Tm": 298.15, 
	 "num_atms": 26, 
	 "gaussian": { 
		 "optdone": 1, 
		 "sigma_profile": "yes", 
		 "theory": "DFT", 
		 "functional": "B3LYP", 
		 "basiset": "6-31G**", 
		 "properties": { 
			 "R2extent": 2351.9916, 
			 "electric_dipole_moment_norm": 0.19069402193, 
			 "electric_quadrupole_moment_norm": 1.79935637104, 
			 "total_energy": -390.695294944, 
			 "HOMO_LUMO_gap": 0.24842, 
			 "cosmo_polarized_energy": -2.24, 
			 "cosmo_cavitation_energy": 26.49, 
			 "cosmo_dispersion_energy": -19.49, 
			 "cosmo_repulsion_energy": 1.6, 
			 "cosmo_total_nonelectrostatic_energy": 8.61, 
			 "SMD_solvation_energy": 4.38 
		},
		"coords": [
			{
				"x": 2.3604594218,
				"y": -1.0829021545,
				"z": 0.0240025373,
				"element": "C" 
			},
			{
				"x": 1.4369192515,
				"y": -0.4445068648,
				"z": -0.9909686961,
				"element": "C" 
			},
			{
				"x": 2.1875988295,
				"y": -0.0091865939,
				"z": -2.2311707105,
				"element": "C" 
			},
			{
				"x": 0.1118349361,
				"y": -0.2694748495,
				"z": -0.8099510858,
				"element": "C" 
			},
			{
				"x": -0.6498420858,
				"y": -0.6640728738,
				"z": 0.4376927552,
				"element": "C" 
			},
			{
				"x": -1.7737510689,
				"y": -1.6671212104,
				"z": 0.1170750489,
				"element": "C" 
			},
			{
				"x": -2.6209273031,
				"y": -1.2194529594,
				"z": -1.053460638,
				"element": "C" 
			},
			{
				"x": -3.9706852788,
				"y": -1.8712262196,
				"z": -1.2028972629,
				"element": "C" 
			},
			{
				"x": -2.1738295269,
				"y": -0.2869656128,
				"z": -1.9035796319,
				"element": "C" 
			},
			{
				"x": -0.8093194931,
				"y": 0.3629321057,
				"z": -1.8408608688,
				"element": "C" 
			},
			{
				"x": 2.9092298114,
				"y": -1.9165922588,
				"z": -0.4341349041,
				"element": "H" 
			},
			{
				"x": 1.8549105488,
				"y": -1.4693518845,
				"z": 0.9090761561,
				"element": "H" 
			},
			{
				"x": 3.1207231838,
				"y": -0.3652027525,
				"z": 0.3613425676,
				"element": "H" 
			},
			{
				"x": 2.6600179221,
				"y": -0.8710778285,
				"z": -2.721781454,
				"element": "H" 
			},
			{
				"x": 1.570706997,
				"y": 0.5000489937,
				"z": -2.9717540996,
				"element": "H" 
			},
			{
				"x": 3.0042571922,
				"y": 0.6731961398,
				"z": -1.9595035057,
				"element": "H" 
			},
			{
				"x": -0.0023038395,
				"y": -1.0679356826,
				"z": 1.2175307543,
				"element": "H" 
			},
			{
				"x": -1.116110914,
				"y": 0.2400587886,
				"z": 0.8573573792,
				"element": "H" 
			},
			{
				"x": -1.3441997258,
				"y": -2.6579890036,
				"z": -0.0948840562,
				"element": "H" 
			},
			{
				"x": -2.411293239,
				"y": -1.8029852262,
				"z": 1.0019903515,
				"element": "H" 
			},
			{
				"x": -3.874607594,
				"y": -2.9617905957,
				"z": -1.2927109782,
				"element": "H" 
			},
			{
				"x": -4.6013874606,
				"y": -1.687618162,
				"z": -0.3227224845,
				"element": "H" 
			},
			{
				"x": -4.5034008895,
				"y": -1.5062662739,
				"z": -2.0858274669,
				"element": "H" 
			},
			{
				"x": -2.8139959624,
				"y": 0.0331507629,
				"z": -2.7255386725,
				"element": "H" 
			},
			{
				"x": -0.9376154026,
				"y": 1.4366614084,
				"z": -1.6168061117,
				"element": "H" 
			},
			{
				"x": -0.3702883105,
				"y": 0.3313708078,
				"z": -2.8429149225,
				"element": "H" 
			}
		],
		 "valence_orbital": [ 
			{
				"type": "occ",
				"energy": -0.3451,
				"method": "rhf"
			},
			{
				"type": "occ",
				"energy": -0.31431,
				"method": "rhf"
			},
			{
				"type": "occ",
				"energy": -0.29553,
				"method": "rhf"
			},
			{
				"type": "occ",
				"energy": -0.22616,
				"method": "rhf"
			},
			{
				"type": "occ",
				"energy": -0.21563,
				"method": "rhf"
			},
			{
				"type": "unocc",
				"energy": 0.03279,
				"method": "rhf"
			},
			{
				"type": "unocc",
				"energy": 0.03798,
				"method": "rhf"
			},
			{
				"type": "unocc",
				"energy": 0.09136,
				"method": "rhf"
			},
			{
				"type": "unocc",
				"energy": 0.11296,
				"method": "rhf"
			},
			{
				"type": "unocc",
				"energy": 0.12522,
				"method": "rhf"
			}
		],
		"cosmo_sigma_profile": { 
			"-0.025": 0.0,
			"-0.024": 0.0,
			"-0.023": 0.0,
			"-0.022": 0.0,
			"-0.021": 0.0,
			"-0.02": 0.0,
			"-0.019": 0.0,
			"-0.018": 0.0,
			"-0.017": 0.0,
			"-0.016": 0.0,
			"-0.015": 0.0,
			"-0.014": 0.0,
			"-0.013": 0.0,
			"-0.012": 0.0,
			"-0.011": 0.0,
			"-0.01": 0.0,
			"-0.009": 0.0,
			"-0.008": 0.0,
			"-0.007": 0.0,
			"-0.006": 0.0,
			"-0.005": 1.00522886348,
			"-0.004": 5.28597900253,
			"-0.003": 23.3673032332,
			"-0.002": 31.8634190192,
			"-0.001": 35.7915862339,
			"0.0": 34.3619735579,
			"0.001": 32.829507914,
			"0.002": 12.2911769895,
			"0.003": 7.88906582026,
			"0.004": 6.6542101008,
			"0.005": 4.91540439958,
			"0.006": 6.40350188254,
			"0.007": 2.87281657432,
			"0.008": 0.384903481772,
			"0.009": 0.0,
			"0.01": 0.0,
			"0.011": 0.0,
			"0.012": 0.0,
			"0.013": 0.0,
			"0.014": 0.0,
			"0.015": 0.0,
			"0.016": 0.0,
			"0.017": 0.0,
			"0.018": 0.0,
			"0.019": 0.0,
			"0.02": 0.0,
			"0.021": 0.0,
			"0.022": 0.0,
			"0.023": 0.0,
			"0.024": 0.0,
			"0.025": 0.0
		}
	}
}
