{
	 "smiles": "CC(N1CCNCC1)C1=NC(=NO1)C1=CC=C(Cl)C=C1", 
	 "Tm": 352.15, 
	 "num_atms": 37, 
	 "gaussian": { 
		 "optdone": 1, 
		 "sigma_profile": "yes", 
		 "theory": "DFT", 
		 "functional": "B3LYP", 
		 "basiset": "6-31G**", 
		 "properties": { 
			 "R2extent": 11302.8654, 
			 "electric_dipole_moment_norm": 3.69732171443, 
			 "electric_quadrupole_moment_norm": 11.2751027499, 
			 "total_energy": -1298.09846917, 
			 "HOMO_LUMO_gap": 0.16387, 
			 "cosmo_polarized_energy": -12.39, 
			 "cosmo_cavitation_energy": 41.26, 
			 "cosmo_dispersion_energy": -29.79, 
			 "cosmo_repulsion_energy": 2.28, 
			 "cosmo_total_nonelectrostatic_energy": 13.75, 
			 "SMD_solvation_energy": -0.07 
		},
		"coords": [
			{
				"x": 2.870680701,
				"y": 0.3565440956,
				"z": -0.5754085788,
				"element": "C" 
			},
			{
				"x": 1.5602238957,
				"y": 0.3693948325,
				"z": 0.2361740449,
				"element": "C" 
			},
			{
				"x": 1.1541488521,
				"y": 1.7275766602,
				"z": 0.6063860646,
				"element": "N" 
			},
			{
				"x": -0.1223919583,
				"y": 1.7941151597,
				"z": 1.357810751,
				"element": "C" 
			},
			{
				"x": 0.0711948271,
				"y": 2.0030609017,
				"z": 2.8615280243,
				"element": "C" 
			},
			{
				"x": 0.7169840783,
				"y": 3.3044036385,
				"z": 3.0917388276,
				"element": "N" 
			},
			{
				"x": 1.627309507,
				"y": 3.6932218594,
				"z": 2.0034979024,
				"element": "C" 
			},
			{
				"x": 2.2266939054,
				"y": 2.4963750304,
				"z": 1.2592998747,
				"element": "C" 
			},
			{
				"x": 0.4888005732,
				"y": -0.2898952854,
				"z": -0.5921899237,
				"element": "C" 
			},
			{
				"x": -0.0515974894,
				"y": -1.4593032984,
				"z": -0.410045767,
				"element": "N" 
			},
			{
				"x": -0.9055479959,
				"y": -1.5673075009,
				"z": -1.4926924327,
				"element": "C" 
			},
			{
				"x": -0.8942763223,
				"y": -0.5233529609,
				"z": -2.2920996292,
				"element": "N" 
			},
			{
				"x": 0.0391196624,
				"y": 0.3352620539,
				"z": -1.693667948,
				"element": "O" 
			},
			{
				"x": -1.753853708,
				"y": -2.7424522677,
				"z": -1.7269673449,
				"element": "C" 
			},
			{
				"x": -2.610887538,
				"y": -2.8014836094,
				"z": -2.8370599641,
				"element": "C" 
			},
			{
				"x": -3.4106163098,
				"y": -3.9191054447,
				"z": -3.0521043102,
				"element": "C" 
			},
			{
				"x": -3.3512937378,
				"y": -4.9834317375,
				"z": -2.1497338537,
				"element": "C" 
			},
			{
				"x": -4.3593603232,
				"y": -6.3962257727,
				"z": -2.4178715154,
				"element": "Cl" 
			},
			{
				"x": -2.5068163809,
				"y": -4.9446694129,
				"z": -1.040648,
				"element": "C" 
			},
			{
				"x": -1.7095349603,
				"y": -3.8212266382,
				"z": -0.833469628,
				"element": "C" 
			},
			{
				"x": 2.7827258317,
				"y": 1.0147974556,
				"z": -1.4440422167,
				"element": "H" 
			},
			{
				"x": 3.7158484844,
				"y": 0.6823642081,
				"z": 0.0340885119,
				"element": "H" 
			},
			{
				"x": 3.0823297577,
				"y": -0.6585516586,
				"z": -0.9224824896,
				"element": "H" 
			},
			{
				"x": 1.6931937283,
				"y": -0.2889540995,
				"z": 1.1155398603,
				"element": "H" 
			},
			{
				"x": -0.7309027001,
				"y": 2.6161497375,
				"z": 0.9612581619,
				"element": "H" 
			},
			{
				"x": -0.6906142226,
				"y": 0.8751605797,
				"z": 1.192581107,
				"element": "H" 
			},
			{
				"x": 0.6529757889,
				"y": 1.1550100121,
				"z": 3.2634904505,
				"element": "H" 
			},
			{
				"x": -0.9048518475,
				"y": 1.9815167155,
				"z": 3.363363214,
				"element": "H" 
			},
			{
				"x": 1.2209029452,
				"y": 3.2851810458,
				"z": 3.9718656737,
				"element": "H" 
			},
			{
				"x": 2.4318622978,
				"y": 4.3106364944,
				"z": 2.4146089606,
				"element": "H" 
			},
			{
				"x": 1.0913230887,
				"y": 4.320059667,
				"z": 1.2783716138,
				"element": "H" 
			},
			{
				"x": 2.7975704117,
				"y": 1.8818398897,
				"z": 1.9831334942,
				"element": "H" 
			},
			{
				"x": 2.9401201992,
				"y": 2.8486026609,
				"z": 0.5056511182,
				"element": "H" 
			},
			{
				"x": -2.6464453045,
				"y": -1.9670465581,
				"z": -3.52940063,
				"element": "H" 
			},
			{
				"x": -4.0740848618,
				"y": -3.9689949692,
				"z": -3.9081330555,
				"element": "H" 
			},
			{
				"x": -2.4751683225,
				"y": -5.7812118806,
				"z": -0.3516496523,
				"element": "H" 
			},
			{
				"x": -1.0458645528,
				"y": -3.7710596035,
				"z": 0.0226792842,
				"element": "H" 
			}
		],
		 "valence_orbital": [ 
			{
				"type": "occ",
				"energy": -0.29482,
				"method": "rhf"
			},
			{
				"type": "occ",
				"energy": -0.26902,
				"method": "rhf"
			},
			{
				"type": "occ",
				"energy": -0.24215,
				"method": "rhf"
			},
			{
				"type": "occ",
				"energy": -0.21977,
				"method": "rhf"
			},
			{
				"type": "occ",
				"energy": -0.21576,
				"method": "rhf"
			},
			{
				"type": "unocc",
				"energy": -0.05189,
				"method": "rhf"
			},
			{
				"type": "unocc",
				"energy": -0.02009,
				"method": "rhf"
			},
			{
				"type": "unocc",
				"energy": -0.00777,
				"method": "rhf"
			},
			{
				"type": "unocc",
				"energy": 0.02722,
				"method": "rhf"
			},
			{
				"type": "unocc",
				"energy": 0.0609,
				"method": "rhf"
			}
		],
		"cosmo_sigma_profile": { 
			"-0.025": 0.0,
			"-0.024": 0.0,
			"-0.023": 0.0,
			"-0.022": 0.0,
			"-0.021": 0.0,
			"-0.02": 0.0,
			"-0.019": 0.0,
			"-0.018": 0.0,
			"-0.017": 0.0,
			"-0.016": 0.0,
			"-0.015": 0.0,
			"-0.014": 0.0,
			"-0.013": 0.0,
			"-0.012": 0.0,
			"-0.011": 0.0,
			"-0.01": 0.73995987185,
			"-0.009": 1.56164908101,
			"-0.008": 2.70962240278,
			"-0.007": 6.86968655773,
			"-0.006": 9.14882671183,
			"-0.005": 13.7726173352,
			"-0.004": 28.3451414653,
			"-0.003": 39.0460687339,
			"-0.002": 38.3556123017,
			"-0.001": 33.3376159477,
			"0.0": 27.4741163512,
			"0.001": 24.7333144176,
			"0.002": 27.0271315005,
			"0.003": 17.2516307082,
			"0.004": 13.838178623,
			"0.005": 8.4609080113,
			"0.006": 6.82814912261,
			"0.007": 6.3351946802,
			"0.008": 4.63960701739,
			"0.009": 3.97407074255,
			"0.01": 3.69667806236,
			"0.011": 3.42822848197,
			"0.012": 2.65417237698,
			"0.013": 0.386858626034,
			"0.014": 0.627232080313,
			"0.015": 1.12034830588,
			"0.016": 0.652996859431,
			"0.017": 0.32144683035,
			"0.018": 0.531086332435,
			"0.019": 0.173510341896,
			"0.02": 0.0,
			"0.021": 0.0,
			"0.022": 0.0,
			"0.023": 0.0,
			"0.024": 0.0,
			"0.025": 0.0
		}
	}
}
