{
	 "smiles": "CCCCCCCCCCCCCCCCCCN(C)C", 
	 "Tm": 296.05, 
	 "num_atms": 64, 
	 "gaussian": { 
		 "optdone": 1, 
		 "sigma_profile": "yes", 
		 "theory": "DFT", 
		 "functional": "B3LYP", 
		 "basiset": "6-31G**", 
		 "properties": { 
			 "R2extent": 12376.0344, 
			 "electric_dipole_moment_norm": 0.574608075126, 
			 "electric_quadrupole_moment_norm": 3.18767909771, 
			 "total_energy": -842.837268335, 
			 "HOMO_LUMO_gap": 0.27796, 
			 "cosmo_polarized_energy": -3.06, 
			 "cosmo_cavitation_energy": 60.35, 
			 "cosmo_dispersion_energy": -37.97, 
			 "cosmo_repulsion_energy": 3.07, 
			 "cosmo_total_nonelectrostatic_energy": 25.45, 
			 "SMD_solvation_energy": 6.66 
		},
		"coords": [
			{
				"x": 3.3608791838,
				"y": -2.5172559607,
				"z": 2.8709707163,
				"element": "C" 
			},
			{
				"x": 3.5161168385,
				"y": -3.5351019453,
				"z": 1.7343597777,
				"element": "C" 
			},
			{
				"x": 2.2334681519,
				"y": -3.7834635239,
				"z": 0.9227787173,
				"element": "C" 
			},
			{
				"x": 1.1010879703,
				"y": -4.4541560652,
				"z": 1.7154504413,
				"element": "C" 
			},
			{
				"x": -0.1331634315,
				"y": -4.8242529366,
				"z": 0.8755552909,
				"element": "C" 
			},
			{
				"x": -0.9054950081,
				"y": -3.6260479037,
				"z": 0.3045234272,
				"element": "C" 
			},
			{
				"x": -2.1684260559,
				"y": -4.0427305957,
				"z": -0.4662084293,
				"element": "C" 
			},
			{
				"x": -2.9684384769,
				"y": -2.8911055723,
				"z": -1.1135885049,
				"element": "C" 
			},
			{
				"x": -4.0683682097,
				"y": -2.2513304675,
				"z": -0.2430676168,
				"element": "C" 
			},
			{
				"x": -3.6292088658,
				"y": -1.5010341842,
				"z": 1.0262082044,
				"element": "C" 
			},
			{
				"x": -2.7472210631,
				"y": -0.2701481428,
				"z": 0.7752271889,
				"element": "C" 
			},
			{
				"x": -2.3957174748,
				"y": 0.4860486912,
				"z": 2.0648514269,
				"element": "C" 
			},
			{
				"x": -1.5836757982,
				"y": 1.7755192497,
				"z": 1.8573502592,
				"element": "C" 
			},
			{
				"x": -0.1658979754,
				"y": 1.5563536476,
				"z": 1.307013194,
				"element": "C" 
			},
			{
				"x": 0.6999912153,
				"y": 2.8280395228,
				"z": 1.2627193725,
				"element": "C" 
			},
			{
				"x": 0.1936101398,
				"y": 3.9598202172,
				"z": 0.3496968532,
				"element": "C" 
			},
			{
				"x": 0.0516263058,
				"y": 3.6002813774,
				"z": -1.139272901,
				"element": "C" 
			},
			{
				"x": 1.355747025,
				"y": 3.1689425711,
				"z": -1.8267303396,
				"element": "C" 
			},
			{
				"x": 2.4488421371,
				"y": 4.1343344936,
				"z": -1.6940599666,
				"element": "N" 
			},
			{
				"x": 3.7230099834,
				"y": 3.5503132164,
				"z": -2.0901840594,
				"element": "C" 
			},
			{
				"x": 2.1992651908,
				"y": 5.3711416812,
				"z": -2.4227971827,
				"element": "C" 
			},
			{
				"x": 4.3168259696,
				"y": -2.3400085181,
				"z": 3.3749079753,
				"element": "H" 
			},
			{
				"x": 2.6489966468,
				"y": -2.8570088881,
				"z": 3.6301202454,
				"element": "H" 
			},
			{
				"x": 3.002989751,
				"y": -1.5531902057,
				"z": 2.4902730304,
				"element": "H" 
			},
			{
				"x": 3.8735834855,
				"y": -4.4895334145,
				"z": 2.14528153,
				"element": "H" 
			},
			{
				"x": 4.3016174515,
				"y": -3.1870899831,
				"z": 1.051179745,
				"element": "H" 
			},
			{
				"x": 2.4789940028,
				"y": -4.4171772489,
				"z": 0.0590186123,
				"element": "H" 
			},
			{
				"x": 1.8856419624,
				"y": -2.8274175258,
				"z": 0.5089393942,
				"element": "H" 
			},
			{
				"x": 0.7861221652,
				"y": -3.8027818371,
				"z": 2.5416389287,
				"element": "H" 
			},
			{
				"x": 1.4954362121,
				"y": -5.367222752,
				"z": 2.1830387476,
				"element": "H" 
			},
			{
				"x": -0.8166273031,
				"y": -5.4179095172,
				"z": 1.498144382,
				"element": "H" 
			},
			{
				"x": 0.1734146104,
				"y": -5.4842241692,
				"z": 0.0509028295,
				"element": "H" 
			},
			{
				"x": -1.1648349954,
				"y": -2.9466893344,
				"z": 1.126155707,
				"element": "H" 
			},
			{
				"x": -0.2573418159,
				"y": -3.0518512706,
				"z": -0.3707059876,
				"element": "H" 
			},
			{
				"x": -2.8302238377,
				"y": -4.6185892063,
				"z": 0.1969893601,
				"element": "H" 
			},
			{
				"x": -1.8606908301,
				"y": -4.7422724037,
				"z": -1.2552319089,
				"element": "H" 
			},
			{
				"x": -3.463556555,
				"y": -3.2783170352,
				"z": -2.0131678703,
				"element": "H" 
			},
			{
				"x": -2.272696869,
				"y": -2.120974461,
				"z": -1.4729113868,
				"element": "H" 
			},
			{
				"x": -4.7755966118,
				"y": -3.0404700818,
				"z": 0.0476242152,
				"element": "H" 
			},
			{
				"x": -4.6398293066,
				"y": -1.5558987793,
				"z": -0.8739087436,
				"element": "H" 
			},
			{
				"x": -3.1132756601,
				"y": -2.1883957387,
				"z": 1.7093825551,
				"element": "H" 
			},
			{
				"x": -4.5337032877,
				"y": -1.1796472567,
				"z": 1.5612904054,
				"element": "H" 
			},
			{
				"x": -1.8263620694,
				"y": -0.5737357304,
				"z": 0.2633192745,
				"element": "H" 
			},
			{
				"x": -3.268216239,
				"y": 0.4118408441,
				"z": 0.0867969373,
				"element": "H" 
			},
			{
				"x": -1.8423019344,
				"y": -0.1850739169,
				"z": 2.7379152902,
				"element": "H" 
			},
			{
				"x": -3.3275819476,
				"y": 0.7370931836,
				"z": 2.5900231128,
				"element": "H" 
			},
			{
				"x": -2.144138131,
				"y": 2.4454733767,
				"z": 1.1912713471,
				"element": "H" 
			},
			{
				"x": -1.5073602341,
				"y": 2.3015499032,
				"z": 2.8192502679,
				"element": "H" 
			},
			{
				"x": 0.3433060281,
				"y": 0.8128316127,
				"z": 1.9364557832,
				"element": "H" 
			},
			{
				"x": -0.2196370164,
				"y": 1.1101788117,
				"z": 0.3058449395,
				"element": "H" 
			},
			{
				"x": 0.789965668,
				"y": 3.2265242736,
				"z": 2.2827171535,
				"element": "H" 
			},
			{
				"x": 1.7190043287,
				"y": 2.5556421008,
				"z": 0.9611431516,
				"element": "H" 
			},
			{
				"x": -0.7771278689,
				"y": 4.3194748518,
				"z": 0.713774921,
				"element": "H" 
			},
			{
				"x": 0.8887347815,
				"y": 4.8019020732,
				"z": 0.4393486847,
				"element": "H" 
			},
			{
				"x": -0.6714505082,
				"y": 2.7847777234,
				"z": -1.2685771459,
				"element": "H" 
			},
			{
				"x": -0.3824270808,
				"y": 4.4573104856,
				"z": -1.6690355759,
				"element": "H" 
			},
			{
				"x": 1.1426830017,
				"y": 2.9431146776,
				"z": -2.8921655253,
				"element": "H" 
			},
			{
				"x": 1.7000891139,
				"y": 2.2292355916,
				"z": -1.3792214554,
				"element": "H" 
			},
			{
				"x": 3.9281354704,
				"y": 2.6592994646,
				"z": -1.4880360228,
				"element": "H" 
			},
			{
				"x": 4.5304896561,
				"y": 4.269176811,
				"z": -1.9156896115,
				"element": "H" 
			},
			{
				"x": 3.7587362966,
				"y": 3.2550918305,
				"z": -3.1577072825,
				"element": "H" 
			},
			{
				"x": 1.2928923466,
				"y": 5.8590572505,
				"z": -2.0550809153,
				"element": "H" 
			},
			{
				"x": 3.0335022584,
				"y": 6.0626856617,
				"z": -2.2669632102,
				"element": "H" 
			},
			{
				"x": 2.084987113,
				"y": 5.2163513769,
				"z": -3.5143417542,
				"element": "H" 
			}
		],
		 "valence_orbital": [ 
			{
				"type": "occ",
				"energy": -0.30001,
				"method": "rhf"
			},
			{
				"type": "occ",
				"energy": -0.29748,
				"method": "rhf"
			},
			{
				"type": "occ",
				"energy": -0.29494,
				"method": "rhf"
			},
			{
				"type": "occ",
				"energy": -0.29183,
				"method": "rhf"
			},
			{
				"type": "occ",
				"energy": -0.2072,
				"method": "rhf"
			},
			{
				"type": "unocc",
				"energy": 0.07076,
				"method": "rhf"
			},
			{
				"type": "unocc",
				"energy": 0.08112,
				"method": "rhf"
			},
			{
				"type": "unocc",
				"energy": 0.09046,
				"method": "rhf"
			},
			{
				"type": "unocc",
				"energy": 0.09713,
				"method": "rhf"
			},
			{
				"type": "unocc",
				"energy": 0.10057,
				"method": "rhf"
			}
		],
		"cosmo_sigma_profile": { 
			"-0.025": 0.0,
			"-0.024": 0.0,
			"-0.023": 0.0,
			"-0.022": 0.0,
			"-0.021": 0.0,
			"-0.02": 0.0,
			"-0.019": 0.0,
			"-0.018": 0.0,
			"-0.017": 0.0,
			"-0.016": 0.0,
			"-0.015": 0.0,
			"-0.014": 0.0,
			"-0.013": 0.0,
			"-0.012": 0.0,
			"-0.011": 0.0,
			"-0.01": 0.0,
			"-0.009": 0.0,
			"-0.008": 0.0,
			"-0.007": 0.0,
			"-0.006": 0.0,
			"-0.005": 0.0,
			"-0.004": 3.04472688189,
			"-0.003": 13.7083154026,
			"-0.002": 49.8800790862,
			"-0.001": 113.476947006,
			"0.0": 128.293727616,
			"0.001": 98.3302240845,
			"0.002": 40.3073828935,
			"0.003": 3.10344067524,
			"0.004": 1.47320626405,
			"0.005": 1.34037271176,
			"0.006": 1.26989977455,
			"0.007": 0.750675971146,
			"0.008": 1.05240805951,
			"0.009": 0.614550819651,
			"0.01": 0.794749195604,
			"0.011": 0.733077714931,
			"0.012": 0.634537988145,
			"0.013": 0.640113196822,
			"0.014": 0.342189593689,
			"0.015": 0.125422614291,
			"0.016": 0.0,
			"0.017": 0.0,
			"0.018": 0.0,
			"0.019": 0.0,
			"0.02": 0.0,
			"0.021": 0.0,
			"0.022": 0.0,
			"0.023": 0.0,
			"0.024": 0.0,
			"0.025": 0.0
		}
	}
}
