{
	 "smiles": "CC1=NC2=C(C=NN2C2=CC=C(F)C=C2)C(Cl)=N1", 
	 "Tm": 388.15, 
	 "num_atms": 26, 
	 "gaussian": { 
		 "optdone": 1, 
		 "sigma_profile": "yes", 
		 "theory": "DFT", 
		 "functional": "B3LYP", 
		 "basiset": "6-31G**", 
		 "properties": { 
			 "R2extent": 6215.3317, 
			 "electric_dipole_moment_norm": 0.345808660967, 
			 "electric_quadrupole_moment_norm": 12.4693865988, 
			 "total_energy": -1241.12542994, 
			 "HOMO_LUMO_gap": 0.16105, 
			 "cosmo_polarized_energy": -7.02, 
			 "cosmo_cavitation_energy": 33.33, 
			 "cosmo_dispersion_energy": -24.59, 
			 "cosmo_repulsion_energy": 1.85, 
			 "cosmo_total_nonelectrostatic_energy": 10.6, 
			 "SMD_solvation_energy": 3.13 
		},
		"coords": [
			{
				"x": -1.8856633878,
				"y": 3.983148985,
				"z": 0.3777299974,
				"element": "C" 
			},
			{
				"x": -1.5766389628,
				"y": 2.7327695344,
				"z": -0.3946866147,
				"element": "C" 
			},
			{
				"x": -0.7017188466,
				"y": 1.8724144812,
				"z": 0.124453396,
				"element": "N" 
			},
			{
				"x": -0.4835905934,
				"y": 0.7839014739,
				"z": -0.6282120597,
				"element": "C" 
			},
			{
				"x": -1.1041672001,
				"y": 0.5247932854,
				"z": -1.8743734873,
				"element": "C" 
			},
			{
				"x": -0.5745586804,
				"y": -0.7252978597,
				"z": -2.2942950243,
				"element": "C" 
			},
			{
				"x": 0.2796336352,
				"y": -1.1898438246,
				"z": -1.4074245391,
				"element": "N" 
			},
			{
				"x": 0.3481692973,
				"y": -0.2792930629,
				"z": -0.3807154336,
				"element": "N" 
			},
			{
				"x": 1.2104956674,
				"y": -0.5457927293,
				"z": 0.7247976264,
				"element": "C" 
			},
			{
				"x": 1.3353483401,
				"y": 0.3685104035,
				"z": 1.7789859757,
				"element": "C" 
			},
			{
				"x": 2.1864868868,
				"y": 0.0792667074,
				"z": 2.844650088,
				"element": "C" 
			},
			{
				"x": 2.8996274308,
				"y": -1.1125329021,
				"z": 2.8443777204,
				"element": "C" 
			},
			{
				"x": 3.7223721545,
				"y": -1.3885966054,
				"z": 3.8769801698,
				"element": "F" 
			},
			{
				"x": 2.7858197707,
				"y": -2.0286939461,
				"z": 1.8048012672,
				"element": "C" 
			},
			{
				"x": 1.9366006635,
				"y": -1.7443851685,
				"z": 0.7393497304,
				"element": "C" 
			},
			{
				"x": -1.9980899152,
				"y": 1.5159299806,
				"z": -2.2924464001,
				"element": "C" 
			},
			{
				"x": -2.8448010597,
				"y": 1.3365805792,
				"z": -3.8172438793,
				"element": "Cl" 
			},
			{
				"x": -2.233612467,
				"y": 2.5909360086,
				"z": -1.5805726846,
				"element": "N" 
			},
			{
				"x": -2.9566274469,
				"y": 4.0329428702,
				"z": 0.5989689915,
				"element": "H" 
			},
			{
				"x": -1.6440306172,
				"y": 4.8654908393,
				"z": -0.2235665851,
				"element": "H" 
			},
			{
				"x": -1.3180311286,
				"y": 4.0076574824,
				"z": 1.3081625432,
				"element": "H" 
			},
			{
				"x": -0.7850146717,
				"y": -1.2857675632,
				"z": -3.1943425578,
				"element": "H" 
			},
			{
				"x": 0.7715231462,
				"y": 1.2913844254,
				"z": 1.7634161895,
				"element": "H" 
			},
			{
				"x": 2.2988035927,
				"y": 0.7717718737,
				"z": 3.6715723269,
				"element": "H" 
			},
			{
				"x": 3.3565590813,
				"y": -2.9502568253,
				"z": 1.8353526827,
				"element": "H" 
			},
			{
				"x": 1.8300053111,
				"y": -2.4401384431,
				"z": -0.0823194395,
				"element": "H" 
			}
		],
		 "valence_orbital": [ 
			{
				"type": "occ",
				"energy": -0.30107,
				"method": "rhf"
			},
			{
				"type": "occ",
				"energy": -0.27742,
				"method": "rhf"
			},
			{
				"type": "occ",
				"energy": -0.27167,
				"method": "rhf"
			},
			{
				"type": "occ",
				"energy": -0.26746,
				"method": "rhf"
			},
			{
				"type": "occ",
				"energy": -0.23002,
				"method": "rhf"
			},
			{
				"type": "unocc",
				"energy": -0.06897,
				"method": "rhf"
			},
			{
				"type": "unocc",
				"energy": -0.0403,
				"method": "rhf"
			},
			{
				"type": "unocc",
				"energy": -0.01918,
				"method": "rhf"
			},
			{
				"type": "unocc",
				"energy": 0.00171,
				"method": "rhf"
			},
			{
				"type": "unocc",
				"energy": 0.02231,
				"method": "rhf"
			}
		],
		"cosmo_sigma_profile": { 
			"-0.025": 0.0,
			"-0.024": 0.0,
			"-0.023": 0.0,
			"-0.022": 0.0,
			"-0.021": 0.0,
			"-0.02": 0.0,
			"-0.019": 0.0,
			"-0.018": 0.0,
			"-0.017": 0.0,
			"-0.016": 0.0,
			"-0.015": 0.0,
			"-0.014": 0.0,
			"-0.013": 0.0,
			"-0.012": 0.0,
			"-0.011": 0.0,
			"-0.01": 0.47610967368,
			"-0.009": 1.56134022,
			"-0.008": 2.46411127608,
			"-0.007": 5.58532704317,
			"-0.006": 8.13436169774,
			"-0.005": 13.4110794032,
			"-0.004": 15.1396069981,
			"-0.003": 24.4987514025,
			"-0.002": 29.0226309219,
			"-0.001": 24.3829489099,
			"0.0": 22.9593004598,
			"0.001": 26.3070561299,
			"0.002": 28.0269820197,
			"0.003": 26.2356770968,
			"0.004": 19.3651312634,
			"0.005": 8.79422409627,
			"0.006": 4.29432973116,
			"0.007": 2.57154234933,
			"0.008": 2.96903257291,
			"0.009": 2.6177351513,
			"0.01": 1.19934462136,
			"0.011": 0.421578641468,
			"0.012": 0.880039357956,
			"0.013": 0.784716321903,
			"0.014": 0.0241503704422,
			"0.015": 0.0,
			"0.016": 0.0,
			"0.017": 0.0,
			"0.018": 0.0,
			"0.019": 0.0,
			"0.02": 0.0,
			"0.021": 0.0,
			"0.022": 0.0,
			"0.023": 0.0,
			"0.024": 0.0,
			"0.025": 0.0
		}
	}
}
