{
	 "smiles": "CC(OC1=CC=C(OC2=NC3=CC=C(Cl)C=C3O2)C=C1)C(O)=O", 
	 "Tm": 431.15, 
	 "num_atms": 35, 
	 "gaussian": { 
		 "optdone": 1, 
		 "sigma_profile": "yes", 
		 "theory": "DFT", 
		 "functional": "B3LYP", 
		 "basiset": "6-31G**", 
		 "properties": { 
			 "R2extent": 14419.4819, 
			 "electric_dipole_moment_norm": 2.59458319196, 
			 "electric_quadrupole_moment_norm": 11.0506182049, 
			 "total_energy": -1507.98365269, 
			 "HOMO_LUMO_gap": 0.19535, 
			 "cosmo_polarized_energy": -17.82, 
			 "cosmo_cavitation_energy": 43.43, 
			 "cosmo_dispersion_energy": -31.19, 
			 "cosmo_repulsion_energy": 2.39, 
			 "cosmo_total_nonelectrostatic_energy": 14.63, 
			 "SMD_solvation_energy": 7.19 
		},
		"coords": [
			{
				"x": 1.0219812931,
				"y": -3.7014633981,
				"z": 3.0012213114,
				"element": "C" 
			},
			{
				"x": 0.377523831,
				"y": -4.1716397968,
				"z": 1.7000033642,
				"element": "C" 
			},
			{
				"x": -0.833944786,
				"y": -3.4766410369,
				"z": 1.4216466383,
				"element": "O" 
			},
			{
				"x": -0.8083718435,
				"y": -2.2904285248,
				"z": 0.7432956562,
				"element": "C" 
			},
			{
				"x": 0.3495730797,
				"y": -1.6028061468,
				"z": 0.3581894165,
				"element": "C" 
			},
			{
				"x": 0.2442937474,
				"y": -0.3991731241,
				"z": -0.3432425487,
				"element": "C" 
			},
			{
				"x": -1.0112465442,
				"y": 0.117549322,
				"z": -0.635703331,
				"element": "C" 
			},
			{
				"x": -1.1625499572,
				"y": 1.2822966275,
				"z": -1.4048140146,
				"element": "O" 
			},
			{
				"x": -0.641039749,
				"y": 2.4355061767,
				"z": -0.9975259858,
				"element": "C" 
			},
			{
				"x": -0.5004413658,
				"y": 3.4845655437,
				"z": -1.7371220058,
				"element": "N" 
			},
			{
				"x": 0.0269071117,
				"y": 4.4303885815,
				"z": -0.8539399091,
				"element": "C" 
			},
			{
				"x": 0.3992484815,
				"y": 5.7618119138,
				"z": -1.0395950392,
				"element": "C" 
			},
			{
				"x": 0.9138461304,
				"y": 6.4557903041,
				"z": 0.057633108,
				"element": "C" 
			},
			{
				"x": 1.0504056287,
				"y": 5.8282058698,
				"z": 1.3049609652,
				"element": "C" 
			},
			{
				"x": 1.7036934104,
				"y": 6.7500970562,
				"z": 2.6531866515,
				"element": "Cl" 
			},
			{
				"x": 0.6868248384,
				"y": 4.4953273542,
				"z": 1.5223251933,
				"element": "C" 
			},
			{
				"x": 0.1802095248,
				"y": 3.8459269391,
				"z": 0.4114581267,
				"element": "C" 
			},
			{
				"x": -0.260054132,
				"y": 2.5402044922,
				"z": 0.3173789476,
				"element": "O" 
			},
			{
				"x": -2.1711800005,
				"y": -0.5546874109,
				"z": -0.2569212627,
				"element": "C" 
			},
			{
				"x": -2.0678875474,
				"y": -1.7580220827,
				"z": 0.4296701798,
				"element": "C" 
			},
			{
				"x": 0.0646225828,
				"y": -5.6701287461,
				"z": 1.7487105659,
				"element": "C" 
			},
			{
				"x": -0.9181995608,
				"y": -6.0282885673,
				"z": 0.9029834912,
				"element": "O" 
			},
			{
				"x": 0.6784760383,
				"y": -6.4584805659,
				"z": 2.432835093,
				"element": "O" 
			},
			{
				"x": 1.9126775142,
				"y": -4.2953718944,
				"z": 3.2139669857,
				"element": "H" 
			},
			{
				"x": 0.3199473198,
				"y": -3.8231827603,
				"z": 3.83003778,
				"element": "H" 
			},
			{
				"x": 1.2989443023,
				"y": -2.6470007694,
				"z": 2.9325663308,
				"element": "H" 
			},
			{
				"x": 1.0760032244,
				"y": -4.0527457151,
				"z": 0.8581005264,
				"element": "H" 
			},
			{
				"x": 1.3364147912,
				"y": -1.9820041379,
				"z": 0.5940377581,
				"element": "H" 
			},
			{
				"x": 1.13929164,
				"y": 0.1294848003,
				"z": -0.6535016485,
				"element": "H" 
			},
			{
				"x": 0.2919080015,
				"y": 6.2411962348,
				"z": -2.0062844533,
				"element": "H" 
			},
			{
				"x": 1.2142878429,
				"y": 7.4922624851,
				"z": -0.0450293608,
				"element": "H" 
			},
			{
				"x": 0.7935727443,
				"y": 4.017760614,
				"z": 2.4881352177,
				"element": "H" 
			},
			{
				"x": -3.1389495462,
				"y": -0.1349462671,
				"z": -0.509254424,
				"element": "H" 
			},
			{
				"x": -2.9521182957,
				"y": -2.3084318655,
				"z": 0.7315721936,
				"element": "H" 
			},
			{
				"x": -1.0036697507,
				"y": -6.9934315047,
				"z": 0.9866184827,
				"element": "H" 
			}
		],
		 "valence_orbital": [ 
			{
				"type": "occ",
				"energy": -0.28942,
				"method": "rhf"
			},
			{
				"type": "occ",
				"energy": -0.27293,
				"method": "rhf"
			},
			{
				"type": "occ",
				"energy": -0.25931,
				"method": "rhf"
			},
			{
				"type": "occ",
				"energy": -0.23773,
				"method": "rhf"
			},
			{
				"type": "occ",
				"energy": -0.22328,
				"method": "rhf"
			},
			{
				"type": "unocc",
				"energy": -0.02793,
				"method": "rhf"
			},
			{
				"type": "unocc",
				"energy": -0.02448,
				"method": "rhf"
			},
			{
				"type": "unocc",
				"energy": -0.00945,
				"method": "rhf"
			},
			{
				"type": "unocc",
				"energy": -0.00727,
				"method": "rhf"
			},
			{
				"type": "unocc",
				"energy": -0.00215,
				"method": "rhf"
			}
		],
		"cosmo_sigma_profile": { 
			"-0.025": 0.0,
			"-0.024": 0.0,
			"-0.023": 0.0,
			"-0.022": 0.0,
			"-0.021": 0.0,
			"-0.02": 0.0,
			"-0.019": 0.393130148002,
			"-0.018": 0.912061684213,
			"-0.017": 0.719608843451,
			"-0.016": 1.13696997807,
			"-0.015": 0.793794394216,
			"-0.014": 0.805978452143,
			"-0.013": 0.378898155891,
			"-0.012": 0.708657390568,
			"-0.011": 0.746223535246,
			"-0.01": 0.867969372712,
			"-0.009": 5.33502247322,
			"-0.008": 9.77893010784,
			"-0.007": 15.2210553245,
			"-0.006": 15.4326707672,
			"-0.005": 18.8437646381,
			"-0.004": 19.890231592,
			"-0.003": 20.0993162126,
			"-0.002": 21.9525734637,
			"-0.001": 23.6801304789,
			"0.0": 23.4360763962,
			"0.001": 26.5192639014,
			"0.002": 33.6567168146,
			"0.003": 31.1193343097,
			"0.004": 21.9042880737,
			"0.005": 13.3914446821,
			"0.006": 8.17087513841,
			"0.007": 6.76288598747,
			"0.008": 4.20690456466,
			"0.009": 5.58776587477,
			"0.01": 4.81329914592,
			"0.011": 7.41083220685,
			"0.012": 3.36984275083,
			"0.013": 1.13241349643,
			"0.014": 1.06292807273,
			"0.015": 0.695654867549,
			"0.016": 0.0,
			"0.017": 0.0,
			"0.018": 0.0,
			"0.019": 0.0,
			"0.02": 0.0,
			"0.021": 0.0,
			"0.022": 0.0,
			"0.023": 0.0,
			"0.024": 0.0,
			"0.025": 0.0
		}
	}
}
