{
	 "smiles": "CCCCCCCCCCCCCC(N)=O", 
	 "Tm": 378.15, 
	 "num_atms": 45, 
	 "gaussian": { 
		 "optdone": 1, 
		 "sigma_profile": "yes", 
		 "theory": "DFT", 
		 "functional": "B3LYP", 
		 "basiset": "6-31G**", 
		 "properties": { 
			 "R2extent": 6424.1255, 
			 "electric_dipole_moment_norm": 3.8773147035, 
			 "electric_quadrupole_moment_norm": 25.0539992137, 
			 "total_energy": -680.994835075, 
			 "HOMO_LUMO_gap": 0.27119, 
			 "cosmo_polarized_energy": -12.03, 
			 "cosmo_cavitation_energy": 44.3, 
			 "cosmo_dispersion_energy": -28.73, 
			 "cosmo_repulsion_energy": 2.33, 
			 "cosmo_total_nonelectrostatic_energy": 17.89, 
			 "SMD_solvation_energy": 6.51 
		},
		"coords": [
			{
				"x": 2.6378447836,
				"y": 3.7545444237,
				"z": -0.8811292312,
				"element": "C" 
			},
			{
				"x": 1.9979719056,
				"y": 2.9222401419,
				"z": 0.2350733546,
				"element": "C" 
			},
			{
				"x": 0.5064398164,
				"y": 3.2284389782,
				"z": 0.4326622246,
				"element": "C" 
			},
			{
				"x": -0.1608208177,
				"y": 2.4250731044,
				"z": 1.5656738567,
				"element": "C" 
			},
			{
				"x": -0.36339131,
				"y": 0.912380379,
				"z": 1.3147135651,
				"element": "C" 
			},
			{
				"x": -1.7218681685,
				"y": 0.5108795258,
				"z": 0.7066437087,
				"element": "C" 
			},
			{
				"x": -2.0246124931,
				"y": 0.9975978361,
				"z": -0.7224835308,
				"element": "C" 
			},
			{
				"x": -1.1125835467,
				"y": 0.4918574326,
				"z": -1.8585068451,
				"element": "C" 
			},
			{
				"x": -1.1624555683,
				"y": -1.0280082315,
				"z": -2.1289095032,
				"element": "C" 
			},
			{
				"x": -0.1394958579,
				"y": -1.8635142423,
				"z": -1.3441145564,
				"element": "C" 
			},
			{
				"x": -0.3255569602,
				"y": -3.3719184978,
				"z": -1.5489317036,
				"element": "C" 
			},
			{
				"x": 0.7202654946,
				"y": -4.2502667141,
				"z": -0.8424427392,
				"element": "C" 
			},
			{
				"x": 0.8193550573,
				"y": -4.0615966682,
				"z": 0.6908601113,
				"element": "C" 
			},
			{
				"x": -0.5175726904,
				"y": -4.2580574035,
				"z": 1.3963022477,
				"element": "C" 
			},
			{
				"x": -0.7655828651,
				"y": -5.5278494947,
				"z": 1.8410899212,
				"element": "N" 
			},
			{
				"x": -1.3374076054,
				"y": -3.3567721704,
				"z": 1.5290481141,
				"element": "O" 
			},
			{
				"x": 3.7023744399,
				"y": 3.5239711896,
				"z": -0.9954763453,
				"element": "H" 
			},
			{
				"x": 2.5504395776,
				"y": 4.8277070294,
				"z": -0.6752202584,
				"element": "H" 
			},
			{
				"x": 2.1515291029,
				"y": 3.5647900972,
				"z": -1.8450143177,
				"element": "H" 
			},
			{
				"x": 2.5290641965,
				"y": 3.105085608,
				"z": 1.1796392171,
				"element": "H" 
			},
			{
				"x": 2.1351109454,
				"y": 1.855926623,
				"z": 0.013539831,
				"element": "H" 
			},
			{
				"x": -0.022686048,
				"y": 3.0640612961,
				"z": -0.5143565711,
				"element": "H" 
			},
			{
				"x": 0.3999437339,
				"y": 4.2998153448,
				"z": 0.6536580654,
				"element": "H" 
			},
			{
				"x": 0.4494047989,
				"y": 2.5576577115,
				"z": 2.4696657083,
				"element": "H" 
			},
			{
				"x": -1.1347383033,
				"y": 2.8762376965,
				"z": 1.7997649698,
				"element": "H" 
			},
			{
				"x": 0.4560614301,
				"y": 0.5220316301,
				"z": 0.6980310072,
				"element": "H" 
			},
			{
				"x": -0.2780246543,
				"y": 0.3861388346,
				"z": 2.2734173176,
				"element": "H" 
			},
			{
				"x": -2.51246469,
				"y": 0.8984276732,
				"z": 1.3649039456,
				"element": "H" 
			},
			{
				"x": -1.8135404271,
				"y": -0.5806616294,
				"z": 0.7538435304,
				"element": "H" 
			},
			{
				"x": -2.0201697417,
				"y": 2.0952953469,
				"z": -0.7377855092,
				"element": "H" 
			},
			{
				"x": -3.0562821534,
				"y": 0.7066779731,
				"z": -0.9655853484,
				"element": "H" 
			},
			{
				"x": -1.4162413491,
				"y": 1.0194288447,
				"z": -2.7718383251,
				"element": "H" 
			},
			{
				"x": -0.0724965223,
				"y": 0.7956897001,
				"z": -1.6773162664,
				"element": "H" 
			},
			{
				"x": -1.0028908491,
				"y": -1.2083226044,
				"z": -3.200757139,
				"element": "H" 
			},
			{
				"x": -2.1743768982,
				"y": -1.3987892775,
				"z": -1.9120179536,
				"element": "H" 
			},
			{
				"x": 0.8756059123,
				"y": -1.5690437204,
				"z": -1.6504465227,
				"element": "H" 
			},
			{
				"x": -0.2249352322,
				"y": -1.6416033828,
				"z": -0.2774706815,
				"element": "H" 
			},
			{
				"x": -0.2947562762,
				"y": -3.6037660336,
				"z": -2.6225541857,
				"element": "H" 
			},
			{
				"x": -1.3282853308,
				"y": -3.6502127928,
				"z": -1.2023457108,
				"element": "H" 
			},
			{
				"x": 1.7135543074,
				"y": -4.049669619,
				"z": -1.2645595309,
				"element": "H" 
			},
			{
				"x": 0.5036102496,
				"y": -5.3049108211,
				"z": -1.0569534982,
				"element": "H" 
			},
			{
				"x": 1.5720407021,
				"y": -4.7529410872,
				"z": 1.0890771781,
				"element": "H" 
			},
			{
				"x": 1.1516175765,
				"y": -3.0474885699,
				"z": 0.9253765203,
				"element": "H" 
			},
			{
				"x": -1.6542812316,
				"y": -5.7142479638,
				"z": 2.2804581077,
				"element": "H" 
			},
			{
				"x": -0.0966164401,
				"y": -6.2747134962,
				"z": 1.7541737707,
				"element": "H" 
			}
		],
		 "valence_orbital": [ 
			{
				"type": "occ",
				"energy": -0.29125,
				"method": "rhf"
			},
			{
				"type": "occ",
				"energy": -0.2889,
				"method": "rhf"
			},
			{
				"type": "occ",
				"energy": -0.28317,
				"method": "rhf"
			},
			{
				"type": "occ",
				"energy": -0.2656,
				"method": "rhf"
			},
			{
				"type": "occ",
				"energy": -0.24354,
				"method": "rhf"
			},
			{
				"type": "unocc",
				"energy": 0.02765,
				"method": "rhf"
			},
			{
				"type": "unocc",
				"energy": 0.06673,
				"method": "rhf"
			},
			{
				"type": "unocc",
				"energy": 0.08301,
				"method": "rhf"
			},
			{
				"type": "unocc",
				"energy": 0.10126,
				"method": "rhf"
			},
			{
				"type": "unocc",
				"energy": 0.10839,
				"method": "rhf"
			}
		],
		"cosmo_sigma_profile": { 
			"-0.025": 0.0,
			"-0.024": 0.0,
			"-0.023": 0.0,
			"-0.022": 0.0,
			"-0.021": 0.0,
			"-0.02": 0.0,
			"-0.019": 0.0,
			"-0.018": 0.0,
			"-0.017": 0.0,
			"-0.016": 0.0,
			"-0.015": 0.0,
			"-0.014": 0.999636558508,
			"-0.013": 2.78462814206,
			"-0.012": 1.96503559124,
			"-0.011": 2.55872489188,
			"-0.01": 2.67190998661,
			"-0.009": 2.59263113236,
			"-0.008": 1.92657349871,
			"-0.007": 1.78629351569,
			"-0.006": 2.88941585534,
			"-0.005": 2.52937440679,
			"-0.004": 3.87482345105,
			"-0.003": 9.70590176535,
			"-0.002": 32.6856075208,
			"-0.001": 71.12149055,
			"0.0": 76.6532515111,
			"0.001": 56.0322223641,
			"0.002": 30.3429717624,
			"0.003": 5.8646083677,
			"0.004": 4.54111613913,
			"0.005": 3.22781214489,
			"0.006": 2.92167917445,
			"0.007": 2.70899337873,
			"0.008": 3.52840245157,
			"0.009": 2.21441905697,
			"0.01": 1.68102351815,
			"0.011": 1.67423074455,
			"0.012": 1.9808393864,
			"0.013": 1.91873362999,
			"0.014": 1.87329860133,
			"0.015": 1.61480100947,
			"0.016": 0.100880830616,
			"0.017": 0.0,
			"0.018": 0.0,
			"0.019": 0.0,
			"0.02": 0.0,
			"0.021": 0.0,
			"0.022": 0.0,
			"0.023": 0.0,
			"0.024": 0.0,
			"0.025": 0.0
		}
	}
}
