{
	 "smiles": "CC(C)C1=C(CO)N2N=C(C)SC2=N1", 
	 "Tm": 393.15, 
	 "num_atms": 27, 
	 "gaussian": { 
		 "optdone": 1, 
		 "sigma_profile": "yes", 
		 "theory": "DFT", 
		 "functional": "B3LYP", 
		 "basiset": "6-31G**", 
		 "properties": { 
			 "R2extent": 3936.2072, 
			 "electric_dipole_moment_norm": 3.6528949629, 
			 "electric_quadrupole_moment_norm": 13.6355943849, 
			 "total_energy": -988.42619655, 
			 "HOMO_LUMO_gap": 0.18443, 
			 "cosmo_polarized_energy": -11.53, 
			 "cosmo_cavitation_energy": 31.87, 
			 "cosmo_dispersion_energy": -23.06, 
			 "cosmo_repulsion_energy": 1.81, 
			 "cosmo_total_nonelectrostatic_energy": 10.62, 
			 "SMD_solvation_energy": 3.09 
		},
		"coords": [
			{
				"x": -0.309396708,
				"y": 2.983317426,
				"z": -0.7633242369,
				"element": "C" 
			},
			{
				"x": -0.7349534264,
				"y": 1.5174073807,
				"z": -0.9702518587,
				"element": "C" 
			},
			{
				"x": -2.2635185861,
				"y": 1.3665381801,
				"z": -0.8570129888,
				"element": "C" 
			},
			{
				"x": -0.0308322225,
				"y": 0.6112538765,
				"z": 0.0069859695,
				"element": "C" 
			},
			{
				"x": 0.8793229383,
				"y": -0.3959279563,
				"z": -0.2758101347,
				"element": "C" 
			},
			{
				"x": 1.4520820141,
				"y": -0.9375083486,
				"z": -1.5511375239,
				"element": "C" 
			},
			{
				"x": 0.4655915605,
				"y": -1.1974077295,
				"z": -2.5467480412,
				"element": "O" 
			},
			{
				"x": 1.2086205216,
				"y": -0.9067372546,
				"z": 0.9757804301,
				"element": "N" 
			},
			{
				"x": 2.0395062067,
				"y": -1.898101217,
				"z": 1.4026555107,
				"element": "N" 
			},
			{
				"x": 1.9886303657,
				"y": -1.9729369709,
				"z": 2.6966876185,
				"element": "C" 
			},
			{
				"x": 2.785168726,
				"y": -2.9621900104,
				"z": 3.48342607,
				"element": "C" 
			},
			{
				"x": 0.8984604621,
				"y": -0.8083841009,
				"z": 3.5002254085,
				"element": "S" 
			},
			{
				"x": 0.4990067594,
				"y": -0.1898122188,
				"z": 1.9085735768,
				"element": "C" 
			},
			{
				"x": -0.2623340563,
				"y": 0.7289245601,
				"z": 1.3742114756,
				"element": "N" 
			},
			{
				"x": -0.5655318899,
				"y": 3.3167124731,
				"z": 0.2471378484,
				"element": "H" 
			},
			{
				"x": -0.8158156418,
				"y": 3.638085923,
				"z": -1.4808910167,
				"element": "H" 
			},
			{
				"x": 0.7706383026,
				"y": 3.1061408791,
				"z": -0.8945743563,
				"element": "H" 
			},
			{
				"x": -0.4339775792,
				"y": 1.1981325152,
				"z": -1.974370762,
				"element": "H" 
			},
			{
				"x": -2.7709953709,
				"y": 2.0277112507,
				"z": -1.5677089513,
				"element": "H" 
			},
			{
				"x": -2.5998901521,
				"y": 1.620330533,
				"z": 0.1527927757,
				"element": "H" 
			},
			{
				"x": -2.5759264387,
				"y": 0.3383768195,
				"z": -1.0677362646,
				"element": "H" 
			},
			{
				"x": 2.1348881715,
				"y": -0.2165245298,
				"z": -2.0137246684,
				"element": "H" 
			},
			{
				"x": 2.0429346238,
				"y": -1.8348548791,
				"z": -1.3151075141,
				"element": "H" 
			},
			{
				"x": -0.2181903659,
				"y": -1.7446696603,
				"z": -2.13782782,
				"element": "H" 
			},
			{
				"x": 3.3757360386,
				"y": -3.5669658155,
				"z": 2.7927058227,
				"element": "H" 
			},
			{
				"x": 3.4620973379,
				"y": -2.4594402586,
				"z": 4.1819326615,
				"element": "H" 
			},
			{
				"x": 2.1336784091,
				"y": -3.6225708668,
				"z": 4.0651109696,
				"element": "H" 
			}
		],
		 "valence_orbital": [ 
			{
				"type": "occ",
				"energy": -0.32325,
				"method": "rhf"
			},
			{
				"type": "occ",
				"energy": -0.28075,
				"method": "rhf"
			},
			{
				"type": "occ",
				"energy": -0.26863,
				"method": "rhf"
			},
			{
				"type": "occ",
				"energy": -0.24661,
				"method": "rhf"
			},
			{
				"type": "occ",
				"energy": -0.21565,
				"method": "rhf"
			},
			{
				"type": "unocc",
				"energy": -0.03122,
				"method": "rhf"
			},
			{
				"type": "unocc",
				"energy": -0.0048,
				"method": "rhf"
			},
			{
				"type": "unocc",
				"energy": 0.03051,
				"method": "rhf"
			},
			{
				"type": "unocc",
				"energy": 0.05033,
				"method": "rhf"
			},
			{
				"type": "unocc",
				"energy": 0.06813,
				"method": "rhf"
			}
		],
		"cosmo_sigma_profile": { 
			"-0.025": 0.0,
			"-0.024": 0.0,
			"-0.023": 0.0,
			"-0.022": 0.0,
			"-0.021": 0.0,
			"-0.02": 0.0,
			"-0.019": 0.0,
			"-0.018": 0.0,
			"-0.017": 0.0,
			"-0.016": 0.191900187521,
			"-0.015": 0.855356262603,
			"-0.014": 0.89398626653,
			"-0.013": 1.06985113599,
			"-0.012": 0.403197623505,
			"-0.011": 0.618021372089,
			"-0.01": 0.506131453891,
			"-0.009": 1.16522989434,
			"-0.008": 0.921912426727,
			"-0.007": 4.19811934254,
			"-0.006": 11.221348512,
			"-0.005": 10.8210133004,
			"-0.004": 12.4965449995,
			"-0.003": 22.9994458464,
			"-0.002": 30.0386456949,
			"-0.001": 29.0082740928,
			"0.0": 26.9764814221,
			"0.001": 29.8475180317,
			"0.002": 18.8107186066,
			"0.003": 9.54338032469,
			"0.004": 5.2084107145,
			"0.005": 4.5283303087,
			"0.006": 4.66369776787,
			"0.007": 5.88417037321,
			"0.008": 4.2992925555,
			"0.009": 2.45406672295,
			"0.01": 3.03700304663,
			"0.011": 2.44527243481,
			"0.012": 2.42769328805,
			"0.013": 2.83724383427,
			"0.014": 1.89139355282,
			"0.015": 0.648911947041,
			"0.016": 0.493481669366,
			"0.017": 0.0707156396646,
			"0.018": 0.0,
			"0.019": 0.0,
			"0.02": 0.0,
			"0.021": 0.0,
			"0.022": 0.0,
			"0.023": 0.0,
			"0.024": 0.0,
			"0.025": 0.0
		}
	}
}
