{
	 "smiles": "OC(=O)C1=CC2=C(C=C1)C(=O)N(C(=O)N2)C1=CC=C(F)C=C1", 
	 "Tm": 671.15, 
	 "num_atms": 31, 
	 "gaussian": { 
		 "optdone": 1, 
		 "sigma_profile": "yes", 
		 "theory": "DFT", 
		 "functional": "B3LYP", 
		 "basiset": "6-31G**", 
		 "properties": { 
			 "R2extent": 9311.0974, 
			 "electric_dipole_moment_norm": 2.0377033101, 
			 "electric_quadrupole_moment_norm": 30.6750180429, 
			 "total_energy": -1087.30695316, 
			 "HOMO_LUMO_gap": 0.16071, 
			 "cosmo_polarized_energy": -26.21, 
			 "cosmo_cavitation_energy": 37.74, 
			 "cosmo_dispersion_energy": -26.97, 
			 "cosmo_repulsion_energy": 1.98, 
			 "cosmo_total_nonelectrostatic_energy": 12.76, 
			 "SMD_solvation_energy": 9.3 
		},
		"coords": [
			{
				"x": -5.5972665552,
				"y": 2.4272590227,
				"z": 0.4071484912,
				"element": "O" 
			},
			{
				"x": -5.117165243,
				"y": 1.4243087285,
				"z": -0.3690704741,
				"element": "C" 
			},
			{
				"x": -5.8396612516,
				"y": 0.865148478,
				"z": -1.1592549912,
				"element": "O" 
			},
			{
				"x": -3.6668173021,
				"y": 1.0645794334,
				"z": -0.1909629717,
				"element": "C" 
			},
			{
				"x": -3.0612256287,
				"y": 0.3674173645,
				"z": -1.2348846951,
				"element": "C" 
			},
			{
				"x": -1.7143497634,
				"y": 0.000468982,
				"z": -1.1353264867,
				"element": "C" 
			},
			{
				"x": -0.9811024528,
				"y": 0.3228614757,
				"z": 0.0187298605,
				"element": "C" 
			},
			{
				"x": -1.6043700872,
				"y": 1.003362939,
				"z": 1.0702140306,
				"element": "C" 
			},
			{
				"x": -2.9381485605,
				"y": 1.3755858306,
				"z": 0.9726799358,
				"element": "C" 
			},
			{
				"x": 0.4419944834,
				"y": -0.0611234001,
				"z": 0.1321507916,
				"element": "C" 
			},
			{
				"x": 1.1276461857,
				"y": 0.1980801367,
				"z": 1.1060610453,
				"element": "O" 
			},
			{
				"x": 0.9718626423,
				"y": -0.7575234042,
				"z": -0.979044163,
				"element": "N" 
			},
			{
				"x": 0.2512642942,
				"y": -1.092815869,
				"z": -2.1442042148,
				"element": "C" 
			},
			{
				"x": 0.7366515739,
				"y": -1.6976115027,
				"z": -3.0802733079,
				"element": "O" 
			},
			{
				"x": -1.071751462,
				"y": -0.6822155748,
				"z": -2.1523029828,
				"element": "N" 
			},
			{
				"x": 2.3577294172,
				"y": -1.1641691795,
				"z": -0.9276256354,
				"element": "C" 
			},
			{
				"x": 2.680497598,
				"y": -2.5194863579,
				"z": -0.8526136511,
				"element": "C" 
			},
			{
				"x": 4.0152438476,
				"y": -2.9153521009,
				"z": -0.8017845801,
				"element": "C" 
			},
			{
				"x": 5.0031855174,
				"y": -1.9368838755,
				"z": -0.8180338826,
				"element": "C" 
			},
			{
				"x": 6.295692688,
				"y": -2.314335908,
				"z": -0.7649016774,
				"element": "F" 
			},
			{
				"x": 4.7004844748,
				"y": -0.581428335,
				"z": -0.8873549353,
				"element": "C" 
			},
			{
				"x": 3.3628029629,
				"y": -0.1966515858,
				"z": -0.9464151367,
				"element": "C" 
			},
			{
				"x": -4.8749867054,
				"y": 2.8737897793,
				"z": 0.8705219063,
				"element": "H" 
			},
			{
				"x": -3.6518882868,
				"y": 0.1182730271,
				"z": -2.1104334996,
				"element": "H" 
			},
			{
				"x": -1.0146814571,
				"y": 1.2193563661,
				"z": 1.9543919113,
				"element": "H" 
			},
			{
				"x": -3.414479653,
				"y": 1.8644207382,
				"z": 1.8177507906,
				"element": "H" 
			},
			{
				"x": -1.5721663082,
				"y": -0.9351511247,
				"z": -2.9934230739,
				"element": "H" 
			},
			{
				"x": 1.8908954327,
				"y": -3.2625682725,
				"z": -0.8439410004,
				"element": "H" 
			},
			{
				"x": 4.295412066,
				"y": -3.9613416928,
				"z": -0.7490866757,
				"element": "H" 
			},
			{
				"x": 5.5020124946,
				"y": 0.1485407066,
				"z": -0.8960275678,
				"element": "H" 
			},
			{
				"x": 3.0996850382,
				"y": 0.8539051748,
				"z": -0.9989831599,
				"element": "H" 
			}
		],
		 "valence_orbital": [ 
			{
				"type": "occ",
				"energy": -0.28487,
				"method": "rhf"
			},
			{
				"type": "occ",
				"energy": -0.27999,
				"method": "rhf"
			},
			{
				"type": "occ",
				"energy": -0.26767,
				"method": "rhf"
			},
			{
				"type": "occ",
				"energy": -0.25551,
				"method": "rhf"
			},
			{
				"type": "occ",
				"energy": -0.24852,
				"method": "rhf"
			},
			{
				"type": "unocc",
				"energy": -0.08781,
				"method": "rhf"
			},
			{
				"type": "unocc",
				"energy": -0.04251,
				"method": "rhf"
			},
			{
				"type": "unocc",
				"energy": -0.01788,
				"method": "rhf"
			},
			{
				"type": "unocc",
				"energy": -0.01371,
				"method": "rhf"
			},
			{
				"type": "unocc",
				"energy": -0.00339,
				"method": "rhf"
			}
		],
		"cosmo_sigma_profile": { 
			"-0.025": 0.0,
			"-0.024": 0.0,
			"-0.023": 0.0,
			"-0.022": 0.0,
			"-0.021": 0.0,
			"-0.02": 0.0,
			"-0.019": 0.563854727108,
			"-0.018": 0.975886860728,
			"-0.017": 1.97996266874,
			"-0.016": 2.53527063444,
			"-0.015": 1.96727873094,
			"-0.014": 2.53835820951,
			"-0.013": 2.14602632086,
			"-0.012": 2.38714967883,
			"-0.011": 1.93216416741,
			"-0.01": 2.81270860312,
			"-0.009": 2.84759826312,
			"-0.008": 7.00537030566,
			"-0.007": 13.5221336617,
			"-0.006": 17.2255054886,
			"-0.005": 16.7486411268,
			"-0.004": 14.645116709,
			"-0.003": 15.8863843611,
			"-0.002": 15.8852806364,
			"-0.001": 17.1920078067,
			"0.0": 24.1524168716,
			"0.001": 23.0510746787,
			"0.002": 18.3466116268,
			"0.003": 13.8199011312,
			"0.004": 17.078166525,
			"0.005": 7.06122599191,
			"0.006": 5.27186014773,
			"0.007": 5.88346401213,
			"0.008": 5.35032624227,
			"0.009": 8.50565538122,
			"0.01": 9.03205442629,
			"0.011": 11.5837406744,
			"0.012": 12.444409919,
			"0.013": 1.88594182588,
			"0.014": 0.0,
			"0.015": 0.0,
			"0.016": 0.0,
			"0.017": 0.0,
			"0.018": 0.0,
			"0.019": 0.0,
			"0.02": 0.0,
			"0.021": 0.0,
			"0.022": 0.0,
			"0.023": 0.0,
			"0.024": 0.0,
			"0.025": 0.0
		}
	}
}
