{
	 "smiles": "CCOC(=O)C1=C(N)N2N=C(SC)N=C2N=C1", 
	 "Tm": 485.15, 
	 "num_atms": 28, 
	 "gaussian": { 
		 "optdone": 1, 
		 "sigma_profile": "yes", 
		 "theory": "DFT", 
		 "functional": "B3LYP", 
		 "basiset": "6-31G**", 
		 "properties": { 
			 "R2extent": 7465.3498, 
			 "electric_dipole_moment_norm": 3.29174342105, 
			 "electric_quadrupole_moment_norm": 10.4024766897, 
			 "total_energy": -1172.00201737, 
			 "HOMO_LUMO_gap": 0.17314, 
			 "cosmo_polarized_energy": -14.72, 
			 "cosmo_cavitation_energy": 34.15, 
			 "cosmo_dispersion_energy": -26.05, 
			 "cosmo_repulsion_energy": 1.98, 
			 "cosmo_total_nonelectrostatic_energy": 10.08, 
			 "SMD_solvation_energy": 2.84 
		},
		"coords": [
			{
				"x": 4.1497076303,
				"y": -1.6769373203,
				"z": -2.2601185013,
				"element": "C" 
			},
			{
				"x": 3.9768559363,
				"y": -1.7356548676,
				"z": -0.7503163859,
				"element": "C" 
			},
			{
				"x": 2.685624018,
				"y": -1.2139685589,
				"z": -0.3468298311,
				"element": "O" 
			},
			{
				"x": 2.5930072165,
				"y": 0.1177512849,
				"z": -0.1705451375,
				"element": "C" 
			},
			{
				"x": 3.5433487711,
				"y": 0.8818371581,
				"z": -0.3269876135,
				"element": "O" 
			},
			{
				"x": 1.2490438353,
				"y": 0.5486980286,
				"z": 0.2287101019,
				"element": "C" 
			},
			{
				"x": 1.0129775817,
				"y": 1.9250796459,
				"z": 0.4520865926,
				"element": "C" 
			},
			{
				"x": 1.891717369,
				"y": 2.9237115534,
				"z": 0.3439337457,
				"element": "N" 
			},
			{
				"x": -0.2616875414,
				"y": 2.232350966,
				"z": 0.8169404951,
				"element": "N" 
			},
			{
				"x": -0.7231200547,
				"y": 3.4894367298,
				"z": 1.0846241713,
				"element": "N" 
			},
			{
				"x": -2.0004901809,
				"y": 3.2279310213,
				"z": 1.3830454,
				"element": "C" 
			},
			{
				"x": -3.0771386277,
				"y": 4.5499974987,
				"z": 1.8167346401,
				"element": "S" 
			},
			{
				"x": -4.6220511126,
				"y": 3.6176421393,
				"z": 2.1047931378,
				"element": "C" 
			},
			{
				"x": -2.3890712085,
				"y": 1.9268467736,
				"z": 1.3295355791,
				"element": "N" 
			},
			{
				"x": -1.2784631902,
				"y": 1.2884163171,
				"z": 0.9678221387,
				"element": "C" 
			},
			{
				"x": -1.0676753308,
				"y": -0.0245688979,
				"z": 0.7583851693,
				"element": "N" 
			},
			{
				"x": 0.1638400097,
				"y": -0.3497353898,
				"z": 0.402524435,
				"element": "C" 
			},
			{
				"x": 5.0961809093,
				"y": -2.1502369595,
				"z": -2.5416368445,
				"element": "H" 
			},
			{
				"x": 4.168902499,
				"y": -0.640712267,
				"z": -2.6061699435,
				"element": "H" 
			},
			{
				"x": 3.3374007968,
				"y": -2.2060567299,
				"z": -2.7667175051,
				"element": "H" 
			},
			{
				"x": 3.9729166109,
				"y": -2.765332484,
				"z": -0.385932174,
				"element": "H" 
			},
			{
				"x": 4.7593134356,
				"y": -1.1713650107,
				"z": -0.2384658581,
				"element": "H" 
			},
			{
				"x": 2.8372243738,
				"y": 2.6777778614,
				"z": 0.0730729101,
				"element": "H" 
			},
			{
				"x": 1.5798224318,
				"y": 3.8644836241,
				"z": 0.5359927002,
				"element": "H" 
			},
			{
				"x": -4.9341234385,
				"y": 3.0998502606,
				"z": 1.1979973546,
				"element": "H" 
			},
			{
				"x": -4.4921942876,
				"y": 2.897240007,
				"z": 2.9122148898,
				"element": "H" 
			},
			{
				"x": -5.3665929855,
				"y": 4.365491421,
				"z": 2.3851212831,
				"element": "H" 
			},
			{
				"x": 0.3534245331,
				"y": -1.4051738051,
				"z": 0.22858505,
				"element": "H" 
			}
		],
		 "valence_orbital": [ 
			{
				"type": "occ",
				"energy": -0.28939,
				"method": "rhf"
			},
			{
				"type": "occ",
				"energy": -0.28744,
				"method": "rhf"
			},
			{
				"type": "occ",
				"energy": -0.27262,
				"method": "rhf"
			},
			{
				"type": "occ",
				"energy": -0.23795,
				"method": "rhf"
			},
			{
				"type": "occ",
				"energy": -0.22431,
				"method": "rhf"
			},
			{
				"type": "unocc",
				"energy": -0.05117,
				"method": "rhf"
			},
			{
				"type": "unocc",
				"energy": -0.03537,
				"method": "rhf"
			},
			{
				"type": "unocc",
				"energy": 0.02847,
				"method": "rhf"
			},
			{
				"type": "unocc",
				"energy": 0.03227,
				"method": "rhf"
			},
			{
				"type": "unocc",
				"energy": 0.06129,
				"method": "rhf"
			}
		],
		"cosmo_sigma_profile": { 
			"-0.025": 0.0,
			"-0.024": 0.0,
			"-0.023": 0.0,
			"-0.022": 0.0,
			"-0.021": 0.0,
			"-0.02": 0.0,
			"-0.019": 0.0,
			"-0.018": 0.0,
			"-0.017": 0.0,
			"-0.016": 0.00714034850818,
			"-0.015": 0.5849147165,
			"-0.014": 0.660428299189,
			"-0.013": 1.00401945711,
			"-0.012": 1.49356429723,
			"-0.011": 1.84150489363,
			"-0.01": 1.41153345752,
			"-0.009": 1.24447600315,
			"-0.008": 2.03370851091,
			"-0.007": 5.15444200792,
			"-0.006": 9.82643612015,
			"-0.005": 16.0690541946,
			"-0.004": 22.7246911586,
			"-0.003": 29.0483902801,
			"-0.002": 30.6049754601,
			"-0.001": 26.5187112643,
			"0.0": 22.0523629968,
			"0.001": 13.9126311705,
			"0.002": 10.5709184432,
			"0.003": 14.4604647446,
			"0.004": 12.6419387057,
			"0.005": 9.09675040749,
			"0.006": 8.06192087133,
			"0.007": 7.7201568609,
			"0.008": 5.38387154428,
			"0.009": 5.1688089838,
			"0.01": 4.01385877023,
			"0.011": 3.68517932784,
			"0.012": 2.96100116326,
			"0.013": 2.33296222343,
			"0.014": 1.70262078632,
			"0.015": 0.857017600494,
			"0.016": 0.0541911252684,
			"0.017": 0.0,
			"0.018": 0.0,
			"0.019": 0.0,
			"0.02": 0.0,
			"0.021": 0.0,
			"0.022": 0.0,
			"0.023": 0.0,
			"0.024": 0.0,
			"0.025": 0.0
		}
	}
}
