{
	 "smiles": "CNC(NCC1=CC=CC=C1)=N/C", 
	 "Tm": 469.15, 
	 "num_atms": 28, 
	 "gaussian": { 
		 "optdone": 1, 
		 "sigma_profile": "yes", 
		 "theory": "DFT", 
		 "functional": "B3LYP", 
		 "basiset": "6-31G**", 
		 "properties": { 
			 "R2extent": 3422.011, 
			 "electric_dipole_moment_norm": 2.31423375224, 
			 "electric_quadrupole_moment_norm": 10.2206624007, 
			 "total_energy": -554.347662376, 
			 "HOMO_LUMO_gap": 0.2124, 
			 "cosmo_polarized_energy": -10.32, 
			 "cosmo_cavitation_energy": 30.35, 
			 "cosmo_dispersion_energy": -21.91, 
			 "cosmo_repulsion_energy": 1.76, 
			 "cosmo_total_nonelectrostatic_energy": 10.2, 
			 "SMD_solvation_energy": 1.52 
		},
		"coords": [
			{
				"x": 0.8093745421,
				"y": 0.0698631843,
				"z": -3.7631539647,
				"element": "C" 
			},
			{
				"x": 0.1467087039,
				"y": -0.7647910511,
				"z": -2.7591626641,
				"element": "N" 
			},
			{
				"x": 0.5438258408,
				"y": -0.7464847416,
				"z": -1.4229694046,
				"element": "C" 
			},
			{
				"x": 0.7899094508,
				"y": 0.5331476595,
				"z": -0.9110728658,
				"element": "N" 
			},
			{
				"x": -0.2401214331,
				"y": 1.5750663953,
				"z": -0.9864009037,
				"element": "C" 
			},
			{
				"x": -1.0949946498,
				"y": 1.7224448739,
				"z": 0.2647449515,
				"element": "C" 
			},
			{
				"x": -1.3911622193,
				"y": 0.6259981902,
				"z": 1.0868178412,
				"element": "C" 
			},
			{
				"x": -2.203449165,
				"y": 0.7880561112,
				"z": 2.2113890652,
				"element": "C" 
			},
			{
				"x": -2.7322907016,
				"y": 2.0401164193,
				"z": 2.5289056986,
				"element": "C" 
			},
			{
				"x": -2.4386121301,
				"y": 3.1372252847,
				"z": 1.716610759,
				"element": "C" 
			},
			{
				"x": -1.6219032265,
				"y": 2.9775156248,
				"z": 0.5970550311,
				"element": "C" 
			},
			{
				"x": 0.695647735,
				"y": -1.7631789913,
				"z": -0.6492895258,
				"element": "N" 
			},
			{
				"x": 0.6529317778,
				"y": -3.0999928968,
				"z": -1.2091452709,
				"element": "C" 
			},
			{
				"x": 0.3230329445,
				"y": -0.0982845711,
				"z": -4.7278928331,
				"element": "H" 
			},
			{
				"x": 0.7063389324,
				"y": 1.1273853263,
				"z": -3.5165710174,
				"element": "H" 
			},
			{
				"x": 1.8809328292,
				"y": -0.1497579296,
				"z": -3.8678633395,
				"element": "H" 
			},
			{
				"x": -0.0495849115,
				"y": -1.6995660603,
				"z": -3.0881417913,
				"element": "H" 
			},
			{
				"x": 1.1834273145,
				"y": 0.4360648658,
				"z": 0.0183293044,
				"element": "H" 
			},
			{
				"x": 0.2318973721,
				"y": 2.5409440419,
				"z": -1.2095393447,
				"element": "H" 
			},
			{
				"x": -0.8839994469,
				"y": 1.3363437923,
				"z": -1.8397922399,
				"element": "H" 
			},
			{
				"x": -0.9784452549,
				"y": -0.3519353816,
				"z": 0.8535202299,
				"element": "H" 
			},
			{
				"x": -2.422151933,
				"y": -0.0695924943,
				"z": 2.8417473107,
				"element": "H" 
			},
			{
				"x": -3.3628300605,
				"y": 2.1620310291,
				"z": 3.4050934757,
				"element": "H" 
			},
			{
				"x": -2.8368269955,
				"y": 4.1185659689,
				"z": 1.9597474138,
				"element": "H" 
			},
			{
				"x": -1.3871608601,
				"y": 3.8383779779,
				"z": -0.0255377065,
				"element": "H" 
			},
			{
				"x": 1.1787175371,
				"y": -3.787748643,
				"z": -0.5391377511,
				"element": "H" 
			},
			{
				"x": 1.1249548692,
				"y": -3.1934399215,
				"z": -2.2032640662,
				"element": "H" 
			},
			{
				"x": -0.3784668616,
				"y": -3.4756740632,
				"z": -1.3003263921,
				"element": "H" 
			}
		],
		 "valence_orbital": [ 
			{
				"type": "occ",
				"energy": -0.24793,
				"method": "rhf"
			},
			{
				"type": "occ",
				"energy": -0.24317,
				"method": "rhf"
			},
			{
				"type": "occ",
				"energy": -0.23978,
				"method": "rhf"
			},
			{
				"type": "occ",
				"energy": -0.23423,
				"method": "rhf"
			},
			{
				"type": "occ",
				"energy": -0.20956,
				"method": "rhf"
			},
			{
				"type": "unocc",
				"energy": 0.00284,
				"method": "rhf"
			},
			{
				"type": "unocc",
				"energy": 0.00474,
				"method": "rhf"
			},
			{
				"type": "unocc",
				"energy": 0.04492,
				"method": "rhf"
			},
			{
				"type": "unocc",
				"energy": 0.07915,
				"method": "rhf"
			},
			{
				"type": "unocc",
				"energy": 0.10212,
				"method": "rhf"
			}
		],
		"cosmo_sigma_profile": { 
			"-0.025": 0.0,
			"-0.024": 0.0,
			"-0.023": 0.0,
			"-0.022": 0.0,
			"-0.021": 0.0,
			"-0.02": 0.0,
			"-0.019": 0.0,
			"-0.018": 0.0,
			"-0.017": 0.0,
			"-0.016": 0.0,
			"-0.015": 0.0,
			"-0.014": 0.0,
			"-0.013": 0.0,
			"-0.012": 0.425811915209,
			"-0.011": 1.40631512118,
			"-0.01": 1.41568482409,
			"-0.009": 2.35579986767,
			"-0.008": 2.19743117205,
			"-0.007": 1.9406682871,
			"-0.006": 4.90520996382,
			"-0.005": 15.1955683834,
			"-0.004": 21.883353645,
			"-0.003": 28.9022342358,
			"-0.002": 24.8442986602,
			"-0.001": 23.0190860513,
			"0.0": 18.6672348444,
			"0.001": 14.3758598514,
			"0.002": 12.2574052531,
			"0.003": 11.6782664157,
			"0.004": 11.1741960131,
			"0.005": 11.6165273428,
			"0.006": 12.6260978069,
			"0.007": 5.42466136542,
			"0.008": 2.59877957963,
			"0.009": 2.03523421118,
			"0.01": 1.4692332691,
			"0.011": 2.3734131029,
			"0.012": 0.741615714497,
			"0.013": 0.715107818342,
			"0.014": 0.813346729337,
			"0.015": 0.719247516949,
			"0.016": 0.689753930481,
			"0.017": 0.608513686446,
			"0.018": 0.320925954682,
			"0.019": 0.0,
			"0.02": 0.0,
			"0.021": 0.0,
			"0.022": 0.0,
			"0.023": 0.0,
			"0.024": 0.0,
			"0.025": 0.0
		}
	}
}
