{
	 "smiles": "ClC1=CC=C(C=C1Cl)C1=C(Cl)C(Cl)=C(Cl)C=C1Cl", 
	 "Tm": 380.15, 
	 "num_atms": 22, 
	 "gaussian": { 
		 "optdone": 1, 
		 "sigma_profile": "yes", 
		 "theory": "DFT", 
		 "functional": "B3LYP", 
		 "basiset": "6-31G**", 
		 "properties": { 
			 "R2extent": 9910.7161, 
			 "electric_dipole_moment_norm": 1.923113187, 
			 "electric_quadrupole_moment_norm": 8.733697315, 
			 "total_energy": -3220.82768545, 
			 "HOMO_LUMO_gap": 0.20548, 
			 "cosmo_polarized_energy": -6.32, 
			 "cosmo_cavitation_energy": 37.85, 
			 "cosmo_dispersion_energy": -27.07, 
			 "cosmo_repulsion_energy": 2.13, 
			 "cosmo_total_nonelectrostatic_energy": 12.91, 
			 "SMD_solvation_energy": 4.78 
		},
		"coords": [
			{
				"x": 4.4335206728,
				"y": 1.9564646933,
				"z": 2.4049192621,
				"element": "Cl" 
			},
			{
				"x": 3.0748032896,
				"y": 1.0328572013,
				"z": 1.8177093913,
				"element": "C" 
			},
			{
				"x": 3.2567675151,
				"y": -0.3187555196,
				"z": 1.5164244851,
				"element": "C" 
			},
			{
				"x": 2.1947459095,
				"y": -1.0844824147,
				"z": 1.0459121506,
				"element": "C" 
			},
			{
				"x": 0.9312834616,
				"y": -0.5081422833,
				"z": 0.8698117277,
				"element": "C" 
			},
			{
				"x": 0.7497113078,
				"y": 0.844164434,
				"z": 1.1706578699,
				"element": "C" 
			},
			{
				"x": 1.8123927808,
				"y": 1.6161084632,
				"z": 1.6429804327,
				"element": "C" 
			},
			{
				"x": 1.5276800646,
				"y": 3.3001542844,
				"z": 2.0028521756,
				"element": "Cl" 
			},
			{
				"x": -0.21282412,
				"y": -1.3214925562,
				"z": 0.3563456635,
				"element": "C" 
			},
			{
				"x": -1.0643045834,
				"y": -2.0240652906,
				"z": 1.2300661398,
				"element": "C" 
			},
			{
				"x": -0.766334817,
				"y": -1.9294721806,
				"z": 2.9455825041,
				"element": "Cl" 
			},
			{
				"x": -2.142323348,
				"y": -2.7956083825,
				"z": 0.7594263983,
				"element": "C" 
			},
			{
				"x": -3.1746639049,
				"y": -3.6510125493,
				"z": 1.8605237195,
				"element": "Cl" 
			},
			{
				"x": -2.3681839066,
				"y": -2.8609117383,
				"z": -0.6241603179,
				"element": "C" 
			},
			{
				"x": -3.6829200872,
				"y": -3.7957690401,
				"z": -1.2811836682,
				"element": "Cl" 
			},
			{
				"x": -1.5420006855,
				"y": -2.176368731,
				"z": -1.5104856035,
				"element": "C" 
			},
			{
				"x": -0.4828786709,
				"y": -1.4209662424,
				"z": -1.0176535923,
				"element": "C" 
			},
			{
				"x": 0.5254974959,
				"y": -0.5816728613,
				"z": -2.1766430877,
				"element": "Cl" 
			},
			{
				"x": 4.2370804485,
				"y": -0.7608493922,
				"z": 1.654543239,
				"element": "H" 
			},
			{
				"x": 2.3494223765,
				"y": -2.1335014628,
				"z": 0.8155681459,
				"element": "H" 
			},
			{
				"x": -0.2205089748,
				"y": 1.3103621743,
				"z": 1.0409981081,
				"element": "H" 
			},
			{
				"x": -1.7259622245,
				"y": -2.2342406056,
				"z": -2.5756951438,
				"element": "H" 
			}
		],
		 "valence_orbital": [ 
			{
				"type": "occ",
				"energy": -0.3154,
				"method": "rhf"
			},
			{
				"type": "occ",
				"energy": -0.27419,
				"method": "rhf"
			},
			{
				"type": "occ",
				"energy": -0.2716,
				"method": "rhf"
			},
			{
				"type": "occ",
				"energy": -0.26407,
				"method": "rhf"
			},
			{
				"type": "occ",
				"energy": -0.258,
				"method": "rhf"
			},
			{
				"type": "unocc",
				"energy": -0.05252,
				"method": "rhf"
			},
			{
				"type": "unocc",
				"energy": -0.05129,
				"method": "rhf"
			},
			{
				"type": "unocc",
				"energy": -0.03916,
				"method": "rhf"
			},
			{
				"type": "unocc",
				"energy": -0.03536,
				"method": "rhf"
			},
			{
				"type": "unocc",
				"energy": -0.03188,
				"method": "rhf"
			}
		],
		"cosmo_sigma_profile": { 
			"-0.025": 0.0,
			"-0.024": 0.0,
			"-0.023": 0.0,
			"-0.022": 0.0,
			"-0.021": 0.0,
			"-0.02": 0.0,
			"-0.019": 0.0,
			"-0.018": 0.0,
			"-0.017": 0.0,
			"-0.016": 0.0,
			"-0.015": 0.0,
			"-0.014": 0.0,
			"-0.013": 0.0,
			"-0.012": 0.0,
			"-0.011": 0.0,
			"-0.01": 0.430613802067,
			"-0.009": 1.66629966343,
			"-0.008": 5.76565885563,
			"-0.007": 8.2469608365,
			"-0.006": 7.70495508623,
			"-0.005": 7.33380094864,
			"-0.004": 11.1213825819,
			"-0.003": 18.5308749241,
			"-0.002": 30.5323879128,
			"-0.001": 35.9985218717,
			"0.0": 33.4724969386,
			"0.001": 33.7984480629,
			"0.002": 37.3780158145,
			"0.003": 54.2587839041,
			"0.004": 28.545062125,
			"0.005": 3.9096412718,
			"0.006": 0.191794179157,
			"0.007": 0.0,
			"0.008": 0.0,
			"0.009": 0.0,
			"0.01": 0.0,
			"0.011": 0.0,
			"0.012": 0.0,
			"0.013": 0.0,
			"0.014": 0.0,
			"0.015": 0.0,
			"0.016": 0.0,
			"0.017": 0.0,
			"0.018": 0.0,
			"0.019": 0.0,
			"0.02": 0.0,
			"0.021": 0.0,
			"0.022": 0.0,
			"0.023": 0.0,
			"0.024": 0.0,
			"0.025": 0.0
		}
	}
}
