{
	 "smiles": "NNC1=C(Cl)N=CC=C1", 
	 "Tm": 423.15, 
	 "num_atms": 15, 
	 "gaussian": { 
		 "optdone": 1, 
		 "sigma_profile": "yes", 
		 "theory": "DFT", 
		 "functional": "B3LYP", 
		 "basiset": "6-31G**", 
		 "properties": { 
			 "R2extent": 1887.6466, 
			 "electric_dipole_moment_norm": 4.18233723294, 
			 "electric_quadrupole_moment_norm": 15.8729738984, 
			 "total_energy": -818.555095167, 
			 "HOMO_LUMO_gap": 0.19409, 
			 "cosmo_polarized_energy": -11.27, 
			 "cosmo_cavitation_energy": 20.68, 
			 "cosmo_dispersion_energy": -15.97, 
			 "cosmo_repulsion_energy": 1.33, 
			 "cosmo_total_nonelectrostatic_energy": 6.04, 
			 "SMD_solvation_energy": 2.6 
		},
		"coords": [
			{
				"x": 0.5541077822,
				"y": 2.3103547509,
				"z": -3.5319170264,
				"element": "N" 
			},
			{
				"x": -0.0002261448,
				"y": 1.3003758837,
				"z": -2.7231862162,
				"element": "N" 
			},
			{
				"x": 0.5641459843,
				"y": 1.0958561727,
				"z": -1.4727124168,
				"element": "C" 
			},
			{
				"x": 0.3160523706,
				"y": -0.0823089622,
				"z": -0.7337052888,
				"element": "C" 
			},
			{
				"x": -0.6877104032,
				"y": -1.3472588806,
				"z": -1.4846520623,
				"element": "Cl" 
			},
			{
				"x": 0.7694650968,
				"y": -0.3343409932,
				"z": 0.470305087,
				"element": "N" 
			},
			{
				"x": 1.5363671161,
				"y": 0.5898744162,
				"z": 1.0672338259,
				"element": "C" 
			},
			{
				"x": 1.8607871698,
				"y": 1.7920263546,
				"z": 0.4426469595,
				"element": "C" 
			},
			{
				"x": 1.3750885748,
				"y": 2.047776992,
				"z": -0.8367950751,
				"element": "C" 
			},
			{
				"x": 1.1916746634,
				"y": 1.9198839394,
				"z": -4.2247401479,
				"element": "H" 
			},
			{
				"x": -0.197998753,
				"y": 2.7919092295,
				"z": -4.0145147867,
				"element": "H" 
			},
			{
				"x": -0.3305241969,
				"y": 0.4580627453,
				"z": -3.1808345985,
				"element": "H" 
			},
			{
				"x": 1.8947741913,
				"y": 0.3487610711,
				"z": 2.0642884847,
				"element": "H" 
			},
			{
				"x": 2.4875911592,
				"y": 2.5207153937,
				"z": 0.9471057583,
				"element": "H" 
			},
			{
				"x": 1.6032053894,
				"y": 2.9650118869,
				"z": -1.3662224967,
				"element": "H" 
			}
		],
		 "valence_orbital": [ 
			{
				"type": "occ",
				"energy": -0.31665,
				"method": "rhf"
			},
			{
				"type": "occ",
				"energy": -0.28015,
				"method": "rhf"
			},
			{
				"type": "occ",
				"energy": -0.26878,
				"method": "rhf"
			},
			{
				"type": "occ",
				"energy": -0.26469,
				"method": "rhf"
			},
			{
				"type": "occ",
				"energy": -0.21389,
				"method": "rhf"
			},
			{
				"type": "unocc",
				"energy": -0.0198,
				"method": "rhf"
			},
			{
				"type": "unocc",
				"energy": 0.00026,
				"method": "rhf"
			},
			{
				"type": "unocc",
				"energy": 0.0372,
				"method": "rhf"
			},
			{
				"type": "unocc",
				"energy": 0.06367,
				"method": "rhf"
			},
			{
				"type": "unocc",
				"energy": 0.10432,
				"method": "rhf"
			}
		],
		"cosmo_sigma_profile": { 
			"-0.025": 0.0,
			"-0.024": 0.0,
			"-0.023": 0.0,
			"-0.022": 0.0,
			"-0.021": 0.0,
			"-0.02": 0.0,
			"-0.019": 0.0,
			"-0.018": 0.0,
			"-0.017": 0.0,
			"-0.016": 0.0,
			"-0.015": 0.0,
			"-0.014": 0.0,
			"-0.013": 0.13439412727,
			"-0.012": 2.25635046422,
			"-0.011": 5.08782605564,
			"-0.01": 4.94890405068,
			"-0.009": 4.06868874736,
			"-0.008": 3.64210122707,
			"-0.007": 4.4137126874,
			"-0.006": 7.19440280635,
			"-0.005": 8.35968456531,
			"-0.004": 7.54077793884,
			"-0.003": 5.77813105341,
			"-0.002": 6.29646891291,
			"-0.001": 7.71642096276,
			"0.0": 9.62107669766,
			"0.001": 14.57745447,
			"0.002": 14.8808481701,
			"0.003": 15.9679685779,
			"0.004": 12.1290558969,
			"0.005": 10.6925625915,
			"0.006": 5.25712947275,
			"0.007": 3.67110516282,
			"0.008": 3.13019810249,
			"0.009": 2.57954227666,
			"0.01": 1.96807485684,
			"0.011": 1.61118889591,
			"0.012": 1.21675117387,
			"0.013": 1.07392165393,
			"0.014": 0.782005123035,
			"0.015": 0.4784997634,
			"0.016": 0.01058235808,
			"0.017": 0.0,
			"0.018": 0.0,
			"0.019": 0.0,
			"0.02": 0.0,
			"0.021": 0.0,
			"0.022": 0.0,
			"0.023": 0.0,
			"0.024": 0.0,
			"0.025": 0.0
		}
	}
}
