{
	 "smiles": "ClCC(=O)NCC1=CC(NC(=O)C2CC2)=CC=C1", 
	 "Tm": 449.15, 
	 "num_atms": 33, 
	 "gaussian": { 
		 "optdone": 1, 
		 "sigma_profile": "yes", 
		 "theory": "DFT", 
		 "functional": "B3LYP", 
		 "basiset": "6-31G**", 
		 "properties": { 
			 "R2extent": 6772.5249, 
			 "electric_dipole_moment_norm": 5.03248112664, 
			 "electric_quadrupole_moment_norm": 18.9712100078, 
			 "total_energy": -1224.58107196, 
			 "HOMO_LUMO_gap": 0.20656, 
			 "cosmo_polarized_energy": -19.62, 
			 "cosmo_cavitation_energy": 39.2, 
			 "cosmo_dispersion_energy": -27.33, 
			 "cosmo_repulsion_energy": 2.16, 
			 "cosmo_total_nonelectrostatic_energy": 14.03, 
			 "SMD_solvation_energy": 6.68 
		},
		"coords": [
			{
				"x": 0.8828089521,
				"y": 1.6525136323,
				"z": -3.7066403086,
				"element": "Cl" 
			},
			{
				"x": 1.8157327728,
				"y": 0.096396583,
				"z": -3.5908151663,
				"element": "C" 
			},
			{
				"x": 1.0722951056,
				"y": -1.1156168319,
				"z": -3.02379799,
				"element": "C" 
			},
			{
				"x": 1.6464992358,
				"y": -2.1965474496,
				"z": -3.0790337267,
				"element": "O" 
			},
			{
				"x": -0.151306171,
				"y": -0.9126211261,
				"z": -2.4802266707,
				"element": "N" 
			},
			{
				"x": -0.914008242,
				"y": -1.9880881145,
				"z": -1.864478517,
				"element": "C" 
			},
			{
				"x": -1.3931863199,
				"y": -1.6565348527,
				"z": -0.4625657997,
				"element": "C" 
			},
			{
				"x": -0.5451153886,
				"y": -0.9922832647,
				"z": 0.4306422248,
				"element": "C" 
			},
			{
				"x": -0.9774016753,
				"y": -0.7201795786,
				"z": 1.7360501062,
				"element": "C" 
			},
			{
				"x": -0.1789914844,
				"y": -0.0543916382,
				"z": 2.6886073644,
				"element": "N" 
			},
			{
				"x": 1.0830586135,
				"y": 0.4834805834,
				"z": 2.5435528553,
				"element": "C" 
			},
			{
				"x": 1.7258882003,
				"y": 0.4530353462,
				"z": 1.4993209877,
				"element": "O" 
			},
			{
				"x": 1.6210582184,
				"y": 1.1225619606,
				"z": 3.7872170244,
				"element": "C" 
			},
			{
				"x": 2.521636932,
				"y": 2.3323869656,
				"z": 3.6021385721,
				"element": "C" 
			},
			{
				"x": 3.1209220537,
				"y": 1.0277405455,
				"z": 4.0126225669,
				"element": "C" 
			},
			{
				"x": -2.2612533827,
				"y": -1.123215769,
				"z": 2.1401763875,
				"element": "C" 
			},
			{
				"x": -3.0981097863,
				"y": -1.783657902,
				"z": 1.2474789273,
				"element": "C" 
			},
			{
				"x": -2.67239708,
				"y": -2.0477867951,
				"z": -0.0551694734,
				"element": "C" 
			},
			{
				"x": 2.1543861284,
				"y": -0.1521112558,
				"z": -4.5958456871,
				"element": "H" 
			},
			{
				"x": 2.6839283657,
				"y": 0.2933553986,
				"z": -2.9605916161,
				"element": "H" 
			},
			{
				"x": -0.5321968425,
				"y": 0.023478868,
				"z": -2.4807802517,
				"element": "H" 
			},
			{
				"x": -1.7746402376,
				"y": -2.2484375277,
				"z": -2.4936927939,
				"element": "H" 
			},
			{
				"x": -0.2472751317,
				"y": -2.8566867736,
				"z": -1.8553741294,
				"element": "H" 
			},
			{
				"x": 0.4433576844,
				"y": -0.678124383,
				"z": 0.1273184736,
				"element": "H" 
			},
			{
				"x": -0.6006288594,
				"y": 0.0466187808,
				"z": 3.6004936594,
				"element": "H" 
			},
			{
				"x": 0.9854589773,
				"y": 1.1075581262,
				"z": 4.6691561694,
				"element": "H" 
			},
			{
				"x": 2.6750784811,
				"y": 2.6510464612,
				"z": 2.5765594405,
				"element": "H" 
			},
			{
				"x": 2.4392808927,
				"y": 3.1285319898,
				"z": 4.3351591074,
				"element": "H" 
			},
			{
				"x": 3.6746781032,
				"y": 0.4746789348,
				"z": 3.2613793546,
				"element": "H" 
			},
			{
				"x": 3.4615282368,
				"y": 0.9026178687,
				"z": 5.0354923656,
				"element": "H" 
			},
			{
				"x": -2.6017241661,
				"y": -0.9123283265,
				"z": 3.1515784244,
				"element": "H" 
			},
			{
				"x": -4.0910927116,
				"y": -2.0855785274,
				"z": 1.5675073632,
				"element": "H" 
			},
			{
				"x": -3.3330694745,
				"y": -2.5560119284,
				"z": -0.7523392441,
				"element": "H" 
			}
		],
		 "valence_orbital": [ 
			{
				"type": "occ",
				"energy": -0.26528,
				"method": "rhf"
			},
			{
				"type": "occ",
				"energy": -0.25837,
				"method": "rhf"
			},
			{
				"type": "occ",
				"energy": -0.25549,
				"method": "rhf"
			},
			{
				"type": "occ",
				"energy": -0.24343,
				"method": "rhf"
			},
			{
				"type": "occ",
				"energy": -0.22342,
				"method": "rhf"
			},
			{
				"type": "unocc",
				"energy": -0.01686,
				"method": "rhf"
			},
			{
				"type": "unocc",
				"energy": -0.00861,
				"method": "rhf"
			},
			{
				"type": "unocc",
				"energy": 0.01609,
				"method": "rhf"
			},
			{
				"type": "unocc",
				"energy": 0.02834,
				"method": "rhf"
			},
			{
				"type": "unocc",
				"energy": 0.03974,
				"method": "rhf"
			}
		],
		"cosmo_sigma_profile": { 
			"-0.025": 0.0,
			"-0.024": 0.0,
			"-0.023": 0.0,
			"-0.022": 0.0,
			"-0.021": 0.0,
			"-0.02": 0.0,
			"-0.019": 0.0,
			"-0.018": 0.0,
			"-0.017": 0.0,
			"-0.016": 0.0809869325816,
			"-0.015": 0.849464877538,
			"-0.014": 1.63886963053,
			"-0.013": 1.79787508242,
			"-0.012": 2.1894095836,
			"-0.011": 1.31372919102,
			"-0.01": 2.73574216679,
			"-0.009": 5.58815747735,
			"-0.008": 6.39597849387,
			"-0.007": 6.86722521744,
			"-0.006": 14.0663762909,
			"-0.005": 21.4177051416,
			"-0.004": 24.7705228053,
			"-0.003": 20.410036131,
			"-0.002": 20.0215973482,
			"-0.001": 20.4852381861,
			"0.0": 22.6044074668,
			"0.001": 21.6347784092,
			"0.002": 20.9096016544,
			"0.003": 19.905203282,
			"0.004": 18.1837137043,
			"0.005": 19.3740303273,
			"0.006": 9.84981958076,
			"0.007": 3.48080929717,
			"0.008": 3.01018133787,
			"0.009": 2.72256330664,
			"0.01": 2.85352214298,
			"0.011": 2.93499916379,
			"0.012": 4.85592100453,
			"0.013": 7.9819097593,
			"0.014": 2.51207485234,
			"0.015": 0.0180274213132,
			"0.016": 0.0,
			"0.017": 0.0,
			"0.018": 0.0,
			"0.019": 0.0,
			"0.02": 0.0,
			"0.021": 0.0,
			"0.022": 0.0,
			"0.023": 0.0,
			"0.024": 0.0,
			"0.025": 0.0
		}
	}
}
