{
	 "smiles": "CC1=C(Br)C(C)=NC(N)=C1", 
	 "Tm": 421.15, 
	 "num_atms": 19, 
	 "gaussian": { 
		 "optdone": 1, 
		 "sigma_profile": "yes", 
		 "theory": "DFT", 
		 "functional": "B3LYP", 
		 "basiset": "6-31G**", 
		 "properties": { 
			 "R2extent": 2696.7423, 
			 "electric_dipole_moment_norm": 3.06353381734, 
			 "electric_quadrupole_moment_norm": 10.1194351344, 
			 "total_energy": -2953.08094836, 
			 "HOMO_LUMO_gap": 0.21929, 
			 "cosmo_polarized_energy": -11.59, 
			 "cosmo_cavitation_energy": 24.53, 
			 "cosmo_dispersion_energy": -18.46, 
			 "cosmo_repulsion_energy": 1.5, 
			 "cosmo_total_nonelectrostatic_energy": 7.57, 
			 "SMD_solvation_energy": 1.86 
		},
		"coords": [
			{
				"x": 0.9593979403,
				"y": -1.6193054181,
				"z": -1.4142807457,
				"element": "C" 
			},
			{
				"x": 0.1710823345,
				"y": -1.0412404806,
				"z": -0.2704929804,
				"element": "C" 
			},
			{
				"x": -1.1181078023,
				"y": -0.5148923797,
				"z": -0.4228508662,
				"element": "C" 
			},
			{
				"x": -1.9361238986,
				"y": -0.5204269761,
				"z": -2.1582582248,
				"element": "Br" 
			},
			{
				"x": -1.8212098892,
				"y": 0.0156143683,
				"z": 0.6694562265,
				"element": "C" 
			},
			{
				"x": -3.2078604185,
				"y": 0.5901025889,
				"z": 0.5461685987,
				"element": "C" 
			},
			{
				"x": -1.2733524848,
				"y": 0.032396441,
				"z": 1.8951633673,
				"element": "N" 
			},
			{
				"x": -0.0466632696,
				"y": -0.4611211425,
				"z": 2.0755477569,
				"element": "C" 
			},
			{
				"x": 0.4603433688,
				"y": -0.4022224376,
				"z": 3.419422414,
				"element": "N" 
			},
			{
				"x": 0.6993980734,
				"y": -1.0020587315,
				"z": 1.0226938147,
				"element": "C" 
			},
			{
				"x": 0.426700929,
				"y": -2.4579886812,
				"z": -1.8745635944,
				"element": "H" 
			},
			{
				"x": 1.9359899477,
				"y": -1.9716982472,
				"z": -1.0741429827,
				"element": "H" 
			},
			{
				"x": 1.1122358975,
				"y": -0.8745863784,
				"z": -2.202352605,
				"element": "H" 
			},
			{
				"x": -3.9160775088,
				"y": -0.156229162,
				"z": 0.1704810175,
				"element": "H" 
			},
			{
				"x": -3.532582784,
				"y": 0.9340344632,
				"z": 1.5284947739,
				"element": "H" 
			},
			{
				"x": -3.2301381255,
				"y": 1.4289550992,
				"z": -0.1577883895,
				"element": "H" 
			},
			{
				"x": 1.3259775608,
				"y": 0.1316407623,
				"z": 3.4431258414,
				"element": "H" 
			},
			{
				"x": 0.6902459712,
				"y": -1.3373733641,
				"z": 3.7473422683,
				"element": "H" 
			},
			{
				"x": 1.695744158,
				"y": -1.395000324,
				"z": 1.2075343097,
				"element": "H" 
			}
		],
		 "valence_orbital": [ 
			{
				"type": "occ",
				"energy": -0.29397,
				"method": "rhf"
			},
			{
				"type": "occ",
				"energy": -0.27301,
				"method": "rhf"
			},
			{
				"type": "occ",
				"energy": -0.25771,
				"method": "rhf"
			},
			{
				"type": "occ",
				"energy": -0.24923,
				"method": "rhf"
			},
			{
				"type": "occ",
				"energy": -0.24195,
				"method": "rhf"
			},
			{
				"type": "unocc",
				"energy": -0.02266,
				"method": "rhf"
			},
			{
				"type": "unocc",
				"energy": -0.01737,
				"method": "rhf"
			},
			{
				"type": "unocc",
				"energy": 0.00896,
				"method": "rhf"
			},
			{
				"type": "unocc",
				"energy": 0.08771,
				"method": "rhf"
			},
			{
				"type": "unocc",
				"energy": 0.10524,
				"method": "rhf"
			}
		],
		"cosmo_sigma_profile": { 
			"-0.025": 0.0,
			"-0.024": 0.0,
			"-0.023": 0.0,
			"-0.022": 0.0,
			"-0.021": 0.0,
			"-0.02": 0.0,
			"-0.019": 0.0,
			"-0.018": 0.0,
			"-0.017": 0.0,
			"-0.016": 0.0,
			"-0.015": 0.0,
			"-0.014": 0.0,
			"-0.013": 0.0,
			"-0.012": 0.391414746101,
			"-0.011": 2.6950021482,
			"-0.01": 2.60946535554,
			"-0.009": 3.25243085288,
			"-0.008": 2.25668467986,
			"-0.007": 4.59283230119,
			"-0.006": 7.46238707335,
			"-0.005": 8.57065631477,
			"-0.004": 13.4836832444,
			"-0.003": 14.4244669347,
			"-0.002": 16.7932989349,
			"-0.001": 21.7565198284,
			"0.0": 19.6600135568,
			"0.001": 19.5337313629,
			"0.002": 14.6923221983,
			"0.003": 11.9077433113,
			"0.004": 9.610906719,
			"0.005": 4.38454373042,
			"0.006": 1.87261255797,
			"0.007": 1.31198836199,
			"0.008": 1.63341785686,
			"0.009": 1.13588577803,
			"0.01": 1.12566693731,
			"0.011": 1.06314056143,
			"0.012": 1.17474911008,
			"0.013": 1.52697648591,
			"0.014": 1.1450808569,
			"0.015": 1.12294194826,
			"0.016": 1.12166516524,
			"0.017": 0.926674684242,
			"0.018": 1.36831345788,
			"0.019": 1.26834199632,
			"0.02": 0.861375480023,
			"0.021": 0.0671894686284,
			"0.022": 0.0,
			"0.023": 0.0,
			"0.024": 0.0,
			"0.025": 0.0
		}
	}
}
