{
	 "smiles": "CC(C)CC1=C(SC(N)=N1)C(O)=O", 
	 "Tm": 423.15, 
	 "num_atms": 25, 
	 "gaussian": { 
		 "optdone": 1, 
		 "sigma_profile": "yes", 
		 "theory": "DFT", 
		 "functional": "B3LYP", 
		 "basiset": "6-31G**", 
		 "properties": { 
			 "R2extent": 3261.1164, 
			 "electric_dipole_moment_norm": 3.54371158674, 
			 "electric_quadrupole_moment_norm": 11.6048878909, 
			 "total_energy": -970.255903714, 
			 "HOMO_LUMO_gap": 0.17598, 
			 "cosmo_polarized_energy": -14.99, 
			 "cosmo_cavitation_energy": 30.14, 
			 "cosmo_dispersion_energy": -21.76, 
			 "cosmo_repulsion_energy": 1.72, 
			 "cosmo_total_nonelectrostatic_energy": 10.1, 
			 "SMD_solvation_energy": 4.5 
		},
		"coords": [
			{
				"x": -0.7935223474,
				"y": -2.3108899388,
				"z": -0.124890528,
				"element": "C" 
			},
			{
				"x": 0.4447449215,
				"y": -1.8157369147,
				"z": 0.6352697291,
				"element": "C" 
			},
			{
				"x": 1.4089227616,
				"y": -2.9723137205,
				"z": 0.932617102,
				"element": "C" 
			},
			{
				"x": 1.1879156748,
				"y": -0.6986619559,
				"z": -0.1413770505,
				"element": "C" 
			},
			{
				"x": 0.3757360551,
				"y": 0.5544798186,
				"z": -0.3061779692,
				"element": "C" 
			},
			{
				"x": -0.1478756287,
				"y": 1.0498513588,
				"z": -1.4863885362,
				"element": "C" 
			},
			{
				"x": -1.0253247183,
				"y": 2.5510400971,
				"z": -1.1664819989,
				"element": "S" 
			},
			{
				"x": -0.596684498,
				"y": 2.3635691334,
				"z": 0.5266080179,
				"element": "C" 
			},
			{
				"x": -1.0306118617,
				"y": 3.2428887757,
				"z": 1.4762158313,
				"element": "N" 
			},
			{
				"x": 0.1176110182,
				"y": 1.3026389314,
				"z": 0.8154797143,
				"element": "N" 
			},
			{
				"x": -0.0458567945,
				"y": 0.5034583979,
				"z": -2.8330483809,
				"element": "C" 
			},
			{
				"x": -0.6665886174,
				"y": 1.298158373,
				"z": -3.7504826261,
				"element": "O" 
			},
			{
				"x": 0.5111483214,
				"y": -0.5316050147,
				"z": -3.1587302758,
				"element": "O" 
			},
			{
				"x": -0.5146384503,
				"y": -2.7133972866,
				"z": -1.1053023397,
				"element": "H" 
			},
			{
				"x": -1.5140014698,
				"y": -1.5039610712,
				"z": -0.2916048362,
				"element": "H" 
			},
			{
				"x": -1.3032272606,
				"y": -3.1027327798,
				"z": 0.4348892361,
				"element": "H" 
			},
			{
				"x": 0.1159009156,
				"y": -1.3857206771,
				"z": 1.5908110952,
				"element": "H" 
			},
			{
				"x": 1.777418029,
				"y": -3.424182133,
				"z": 0.0037586986,
				"element": "H" 
			},
			{
				"x": 2.2781815995,
				"y": -2.6333534027,
				"z": 1.5070810224,
				"element": "H" 
			},
			{
				"x": 0.9116270326,
				"y": -3.7593435373,
				"z": 1.5098415057,
				"element": "H" 
			},
			{
				"x": 1.4912546703,
				"y": -1.069193806,
				"z": -1.1223337834,
				"element": "H" 
			},
			{
				"x": 2.0905285879,
				"y": -0.4273942122,
				"z": 0.4206263761,
				"element": "H" 
			},
			{
				"x": -1.273422768,
				"y": 4.1812046465,
				"z": 1.1986002919,
				"element": "H" 
			},
			{
				"x": -0.5792110378,
				"y": 3.1487031664,
				"z": 2.3753428914,
				"element": "H" 
			},
			{
				"x": -0.5496241349,
				"y": 0.8528937518,
				"z": -4.605423187,
				"element": "H" 
			}
		],
		 "valence_orbital": [ 
			{
				"type": "occ",
				"energy": -0.31017,
				"method": "rhf"
			},
			{
				"type": "occ",
				"energy": -0.27972,
				"method": "rhf"
			},
			{
				"type": "occ",
				"energy": -0.27669,
				"method": "rhf"
			},
			{
				"type": "occ",
				"energy": -0.26925,
				"method": "rhf"
			},
			{
				"type": "occ",
				"energy": -0.21864,
				"method": "rhf"
			},
			{
				"type": "unocc",
				"energy": -0.04266,
				"method": "rhf"
			},
			{
				"type": "unocc",
				"energy": 0.00588,
				"method": "rhf"
			},
			{
				"type": "unocc",
				"energy": 0.02965,
				"method": "rhf"
			},
			{
				"type": "unocc",
				"energy": 0.06406,
				"method": "rhf"
			},
			{
				"type": "unocc",
				"energy": 0.08831,
				"method": "rhf"
			}
		],
		"cosmo_sigma_profile": { 
			"-0.025": 0.0,
			"-0.024": 0.0,
			"-0.023": 0.0,
			"-0.022": 0.0,
			"-0.021": 0.0,
			"-0.02": 0.0,
			"-0.019": 0.00524008266601,
			"-0.018": 0.638542849914,
			"-0.017": 0.863686095654,
			"-0.016": 1.05084388584,
			"-0.015": 2.95078445538,
			"-0.014": 2.76678241644,
			"-0.013": 3.23372114919,
			"-0.012": 3.60336554048,
			"-0.011": 4.29921430334,
			"-0.01": 2.46661869266,
			"-0.009": 2.04112941424,
			"-0.008": 1.71763257915,
			"-0.007": 2.00424884856,
			"-0.006": 2.69807370791,
			"-0.005": 3.3432390356,
			"-0.004": 4.11601665346,
			"-0.003": 10.1985897961,
			"-0.002": 20.0475827877,
			"-0.001": 25.9526323815,
			"0.0": 29.1382027584,
			"0.001": 31.6127259236,
			"0.002": 21.7121725428,
			"0.003": 11.9030020335,
			"0.004": 10.6843465218,
			"0.005": 8.4585621166,
			"0.006": 5.87119329993,
			"0.007": 5.5022373724,
			"0.008": 5.28673164667,
			"0.009": 2.5601917393,
			"0.01": 2.07452665226,
			"0.011": 3.49133280555,
			"0.012": 4.39577682136,
			"0.013": 1.22298400761,
			"0.014": 0.533466540516,
			"0.015": 0.203249127896,
			"0.016": 0.0,
			"0.017": 0.0,
			"0.018": 0.0,
			"0.019": 0.0,
			"0.02": 0.0,
			"0.021": 0.0,
			"0.022": 0.0,
			"0.023": 0.0,
			"0.024": 0.0,
			"0.025": 0.0
		}
	}
}
