{
	 "smiles": "CCOC(=O)C1=C(C)N=C(S1)C(C)N", 
	 "Tm": 327.15, 
	 "num_atms": 28, 
	 "gaussian": { 
		 "optdone": 1, 
		 "sigma_profile": "yes", 
		 "theory": "DFT", 
		 "functional": "B3LYP", 
		 "basiset": "6-31G**", 
		 "properties": { 
			 "R2extent": 4259.9509, 
			 "electric_dipole_moment_norm": 2.1768421601, 
			 "electric_quadrupole_moment_norm": 16.2108969807, 
			 "total_energy": -1009.55082044, 
			 "HOMO_LUMO_gap": 0.18458, 
			 "cosmo_polarized_energy": -11.51, 
			 "cosmo_cavitation_energy": 33.13, 
			 "cosmo_dispersion_energy": -23.73, 
			 "cosmo_repulsion_energy": 1.88, 
			 "cosmo_total_nonelectrostatic_energy": 11.28, 
			 "SMD_solvation_energy": 4.15 
		},
		"coords": [
			{
				"x": 4.0284052884,
				"y": 1.3530513398,
				"z": -1.1219362442,
				"element": "C" 
			},
			{
				"x": 2.7010857706,
				"y": 2.0882742366,
				"z": -1.2299021596,
				"element": "C" 
			},
			{
				"x": 1.5803690159,
				"y": 1.1775963969,
				"z": -1.1101617878,
				"element": "O" 
			},
			{
				"x": 1.1867510359,
				"y": 0.8783726935,
				"z": 0.1504636616,
				"element": "C" 
			},
			{
				"x": 1.7096744641,
				"y": 1.3323440305,
				"z": 1.1532705745,
				"element": "O" 
			},
			{
				"x": 0.0531979916,
				"y": -0.0532375115,
				"z": 0.1730805675,
				"element": "C" 
			},
			{
				"x": -0.6686552486,
				"y": -0.6571963663,
				"z": -0.8420250328,
				"element": "C" 
			},
			{
				"x": -0.4586027068,
				"y": -0.5053821398,
				"z": -2.3215970399,
				"element": "C" 
			},
			{
				"x": -1.6828543386,
				"y": -1.4764515548,
				"z": -0.4068526998,
				"element": "N" 
			},
			{
				"x": -1.7499956955,
				"y": -1.5211432629,
				"z": 0.9001581095,
				"element": "C" 
			},
			{
				"x": -0.5689175799,
				"y": -0.5517189661,
				"z": 1.7248112997,
				"element": "S" 
			},
			{
				"x": -2.7874870071,
				"y": -2.3490400902,
				"z": 1.6261507229,
				"element": "C" 
			},
			{
				"x": -4.1943328491,
				"y": -1.7646323822,
				"z": 1.3831351729,
				"element": "C" 
			},
			{
				"x": -2.6190822546,
				"y": -3.7456752599,
				"z": 1.2042086921,
				"element": "N" 
			},
			{
				"x": 4.1464986002,
				"y": 0.9193685429,
				"z": -0.1261972242,
				"element": "H" 
			},
			{
				"x": 4.0947424187,
				"y": 0.555382837,
				"z": -1.8677532611,
				"element": "H" 
			},
			{
				"x": 4.8538138054,
				"y": 2.0523577466,
				"z": -1.2923981651,
				"element": "H" 
			},
			{
				"x": 2.6126162919,
				"y": 2.8575151739,
				"z": -0.4593911008,
				"element": "H" 
			},
			{
				"x": 2.572973476,
				"y": 2.5430087997,
				"z": -2.2150823876,
				"element": "H" 
			},
			{
				"x": -1.195441472,
				"y": -1.1146282888,
				"z": -2.8473416751,
				"element": "H" 
			},
			{
				"x": -0.5635843525,
				"y": 0.5377355671,
				"z": -2.6331870484,
				"element": "H" 
			},
			{
				"x": 0.5466595175,
				"y": -0.821181013,
				"z": -2.6144255179,
				"element": "H" 
			},
			{
				"x": -2.5720184308,
				"y": -2.301336643,
				"z": 2.7010105657,
				"element": "H" 
			},
			{
				"x": -4.9460967009,
				"y": -2.3709476859,
				"z": 1.9005574618,
				"element": "H" 
			},
			{
				"x": -4.2749049748,
				"y": -0.7368879935,
				"z": 1.7539301215,
				"element": "H" 
			},
			{
				"x": -4.420333009,
				"y": -1.7618952973,
				"z": 0.3126967832,
				"element": "H" 
			},
			{
				"x": -2.6959211372,
				"y": -3.7862398107,
				"z": 0.1897171479,
				"element": "H" 
			},
			{
				"x": -3.3786599192,
				"y": -4.3068130987,
				"z": 1.5837604635,
				"element": "H" 
			}
		],
		 "valence_orbital": [ 
			{
				"type": "occ",
				"energy": -0.29277,
				"method": "rhf"
			},
			{
				"type": "occ",
				"energy": -0.28203,
				"method": "rhf"
			},
			{
				"type": "occ",
				"energy": -0.26467,
				"method": "rhf"
			},
			{
				"type": "occ",
				"energy": -0.24383,
				"method": "rhf"
			},
			{
				"type": "occ",
				"energy": -0.23908,
				"method": "rhf"
			},
			{
				"type": "unocc",
				"energy": -0.0545,
				"method": "rhf"
			},
			{
				"type": "unocc",
				"energy": 0.01642,
				"method": "rhf"
			},
			{
				"type": "unocc",
				"energy": 0.01815,
				"method": "rhf"
			},
			{
				"type": "unocc",
				"energy": 0.08343,
				"method": "rhf"
			},
			{
				"type": "unocc",
				"energy": 0.08708,
				"method": "rhf"
			}
		],
		"cosmo_sigma_profile": { 
			"-0.025": 0.0,
			"-0.024": 0.0,
			"-0.023": 0.0,
			"-0.022": 0.0,
			"-0.021": 0.0,
			"-0.02": 0.0,
			"-0.019": 0.0,
			"-0.018": 0.0,
			"-0.017": 0.0,
			"-0.016": 0.0,
			"-0.015": 0.0,
			"-0.014": 0.0,
			"-0.013": 0.0,
			"-0.012": 0.0,
			"-0.011": 0.066703363564,
			"-0.01": 1.18380888675,
			"-0.009": 2.12846037918,
			"-0.008": 2.07977805503,
			"-0.007": 3.94331600257,
			"-0.006": 6.87757939219,
			"-0.005": 13.1503579076,
			"-0.004": 23.3081477776,
			"-0.003": 27.2206156184,
			"-0.002": 26.1809992777,
			"-0.001": 29.2821848136,
			"0.0": 36.4838970493,
			"0.001": 22.2457144117,
			"0.002": 15.3308429691,
			"0.003": 10.5199451792,
			"0.004": 6.35296344081,
			"0.005": 5.21971316706,
			"0.006": 5.18682948707,
			"0.007": 3.13892336187,
			"0.008": 3.22714205878,
			"0.009": 2.98338324965,
			"0.01": 3.50253463005,
			"0.011": 4.24256510214,
			"0.012": 4.46125493508,
			"0.013": 0.389632510007,
			"0.014": 0.732468044652,
			"0.015": 0.80795143149,
			"0.016": 0.54183600394,
			"0.017": 0.637046873355,
			"0.018": 0.474662354012,
			"0.019": 0.473471158482,
			"0.02": 0.0,
			"0.021": 0.0,
			"0.022": 0.0,
			"0.023": 0.0,
			"0.024": 0.0,
			"0.025": 0.0
		}
	}
}
