{
	 "smiles": "COC1=CC=CC=C1C(=O)NN", 
	 "Tm": 353.15, 
	 "num_atms": 22, 
	 "gaussian": { 
		 "optdone": 1, 
		 "sigma_profile": "yes", 
		 "theory": "DFT", 
		 "functional": "B3LYP", 
		 "basiset": "6-31G**", 
		 "properties": { 
			 "R2extent": 2287.8936, 
			 "electric_dipole_moment_norm": 2.92361222121, 
			 "electric_quadrupole_moment_norm": 16.0187918883, 
			 "total_energy": -570.78368408, 
			 "HOMO_LUMO_gap": 0.21372, 
			 "cosmo_polarized_energy": -15.99, 
			 "cosmo_cavitation_energy": 26.0, 
			 "cosmo_dispersion_energy": -18.82, 
			 "cosmo_repulsion_energy": 1.55, 
			 "cosmo_total_nonelectrostatic_energy": 8.73, 
			 "SMD_solvation_energy": 6.53 
		},
		"coords": [
			{
				"x": 1.0925898355,
				"y": -3.3536318412,
				"z": 0.7947313005,
				"element": "C" 
			},
			{
				"x": 0.4119827534,
				"y": -2.1274518581,
				"z": 1.0883181581,
				"element": "O" 
			},
			{
				"x": 0.0332232484,
				"y": -1.393646349,
				"z": -0.0108661517,
				"element": "C" 
			},
			{
				"x": -1.1826940773,
				"y": -1.677133594,
				"z": -0.6405132974,
				"element": "C" 
			},
			{
				"x": -1.6191940581,
				"y": -0.8968654087,
				"z": -1.7096962389,
				"element": "C" 
			},
			{
				"x": -0.8478835195,
				"y": 0.1819888111,
				"z": -2.1486364398,
				"element": "C" 
			},
			{
				"x": 0.3543898361,
				"y": 0.4765523092,
				"z": -1.5096014874,
				"element": "C" 
			},
			{
				"x": 0.8155353032,
				"y": -0.3100878688,
				"z": -0.4458940926,
				"element": "C" 
			},
			{
				"x": 2.1674516965,
				"y": -0.0756650933,
				"z": 0.1624935761,
				"element": "C" 
			},
			{
				"x": 3.0245650037,
				"y": -0.9490871079,
				"z": 0.2359089474,
				"element": "O" 
			},
			{
				"x": 2.4656967583,
				"y": 1.2010679785,
				"z": 0.5910894307,
				"element": "N" 
			},
			{
				"x": 1.4836420948,
				"y": 2.1668949214,
				"z": 0.8489350108,
				"element": "N" 
			},
			{
				"x": 0.4744213044,
				"y": -4.008466443,
				"z": 0.1663252388,
				"element": "H" 
			},
			{
				"x": 2.0467622347,
				"y": -3.1477624898,
				"z": 0.3017239161,
				"element": "H" 
			},
			{
				"x": 1.2686257962,
				"y": -3.8416750763,
				"z": 1.755716258,
				"element": "H" 
			},
			{
				"x": -1.7795526771,
				"y": -2.5034839406,
				"z": -0.2667678824,
				"element": "H" 
			},
			{
				"x": -2.5646232913,
				"y": -1.125212266,
				"z": -2.1936715982,
				"element": "H" 
			},
			{
				"x": -1.1852392116,
				"y": 0.7946655662,
				"z": -2.9791807874,
				"element": "H" 
			},
			{
				"x": 0.9538869355,
				"y": 1.3181576223,
				"z": -1.8409328842,
				"element": "H" 
			},
			{
				"x": 3.3759104108,
				"y": 1.2623370424,
				"z": 1.0404722933,
				"element": "H" 
			},
			{
				"x": 1.7736871022,
				"y": 3.0598949602,
				"z": 0.4618974922,
				"element": "H" 
			},
			{
				"x": 1.3360165211,
				"y": 2.2728101254,
				"z": 1.8504492379,
				"element": "H" 
			}
		],
		 "valence_orbital": [ 
			{
				"type": "occ",
				"energy": -0.26342,
				"method": "rhf"
			},
			{
				"type": "occ",
				"energy": -0.25826,
				"method": "rhf"
			},
			{
				"type": "occ",
				"energy": -0.25381,
				"method": "rhf"
			},
			{
				"type": "occ",
				"energy": -0.2404,
				"method": "rhf"
			},
			{
				"type": "occ",
				"energy": -0.23104,
				"method": "rhf"
			},
			{
				"type": "unocc",
				"energy": -0.01732,
				"method": "rhf"
			},
			{
				"type": "unocc",
				"energy": 0.00499,
				"method": "rhf"
			},
			{
				"type": "unocc",
				"energy": 0.04524,
				"method": "rhf"
			},
			{
				"type": "unocc",
				"energy": 0.06523,
				"method": "rhf"
			},
			{
				"type": "unocc",
				"energy": 0.10055,
				"method": "rhf"
			}
		],
		"cosmo_sigma_profile": { 
			"-0.025": 0.0,
			"-0.024": 0.0,
			"-0.023": 0.0,
			"-0.022": 0.0,
			"-0.021": 0.0,
			"-0.02": 0.0,
			"-0.019": 0.0,
			"-0.018": 0.0,
			"-0.017": 0.0,
			"-0.016": 0.0,
			"-0.015": 0.0,
			"-0.014": 0.100898689789,
			"-0.013": 1.35200184122,
			"-0.012": 3.66209936774,
			"-0.011": 4.35255992093,
			"-0.01": 4.47915216551,
			"-0.009": 5.45253421232,
			"-0.008": 3.46516424081,
			"-0.007": 2.91930507113,
			"-0.006": 9.41981700873,
			"-0.005": 12.5900521121,
			"-0.004": 15.5537503037,
			"-0.003": 15.1112488585,
			"-0.002": 16.3730111632,
			"-0.001": 10.8943769512,
			"0.0": 9.94872375557,
			"0.001": 9.01579926548,
			"0.002": 8.98624258421,
			"0.003": 12.28524157,
			"0.004": 12.6745596701,
			"0.005": 10.6225437798,
			"0.006": 3.8471494895,
			"0.007": 4.72331568572,
			"0.008": 4.3989581564,
			"0.009": 3.83065258963,
			"0.01": 4.09158662249,
			"0.011": 4.42312653918,
			"0.012": 3.8955481289,
			"0.013": 4.34647259936,
			"0.014": 2.58344618408,
			"0.015": 0.193819530635,
			"0.016": 0.0,
			"0.017": 0.0,
			"0.018": 0.0,
			"0.019": 0.0,
			"0.02": 0.0,
			"0.021": 0.0,
			"0.022": 0.0,
			"0.023": 0.0,
			"0.024": 0.0,
			"0.025": 0.0
		}
	}
}
