{
	 "smiles": "CCCCCCNC(=O)C=CC1=CC(O)=C(O)C=C1", 
	 "Tm": 415.15, 
	 "num_atms": 40, 
	 "gaussian": { 
		 "optdone": 1, 
		 "sigma_profile": "yes", 
		 "theory": "DFT", 
		 "functional": "B3LYP", 
		 "basiset": "6-31G**", 
		 "properties": { 
			 "R2extent": 9829.1859, 
			 "electric_dipole_moment_norm": 3.55491636189, 
			 "electric_quadrupole_moment_norm": 35.4895173233, 
			 "total_energy": -864.684715911, 
			 "HOMO_LUMO_gap": 0.1597, 
			 "cosmo_polarized_energy": -20.53, 
			 "cosmo_cavitation_energy": 43.1, 
			 "cosmo_dispersion_energy": -30.17, 
			 "cosmo_repulsion_energy": 2.38, 
			 "cosmo_total_nonelectrostatic_energy": 15.31, 
			 "SMD_solvation_energy": 7.48 
		},
		"coords": [
			{
				"x": -3.3159440492,
				"y": 3.4955057663,
				"z": -1.2062441765,
				"element": "C" 
			},
			{
				"x": -2.7617575104,
				"y": 3.1114761449,
				"z": -2.58359827,
				"element": "C" 
			},
			{
				"x": -3.235383597,
				"y": 1.7333478065,
				"z": -3.0853944278,
				"element": "C" 
			},
			{
				"x": -2.6688047624,
				"y": 0.5033487343,
				"z": -2.3385020771,
				"element": "C" 
			},
			{
				"x": -1.3970249373,
				"y": -0.118712338,
				"z": -2.942644717,
				"element": "C" 
			},
			{
				"x": -0.1434033271,
				"y": 0.7718203935,
				"z": -2.9047058784,
				"element": "C" 
			},
			{
				"x": 1.0540566246,
				"y": 0.124019167,
				"z": -3.4256937582,
				"element": "N" 
			},
			{
				"x": 1.8789624864,
				"y": -0.7966494077,
				"z": -2.8195709977,
				"element": "C" 
			},
			{
				"x": 2.7625766938,
				"y": -1.355457483,
				"z": -3.4706472863,
				"element": "O" 
			},
			{
				"x": 1.6692307791,
				"y": -1.0565890288,
				"z": -1.3702126374,
				"element": "C" 
			},
			{
				"x": 2.452504426,
				"y": -1.9531138521,
				"z": -0.7421732235,
				"element": "C" 
			},
			{
				"x": 2.4157454116,
				"y": -2.3553876851,
				"z": 0.6621774938,
				"element": "C" 
			},
			{
				"x": 1.5036525289,
				"y": -1.8159039333,
				"z": 1.5929498833,
				"element": "C" 
			},
			{
				"x": 1.5066790521,
				"y": -2.2300232439,
				"z": 2.9159415395,
				"element": "C" 
			},
			{
				"x": 0.6183632848,
				"y": -1.6983061251,
				"z": 3.8013716615,
				"element": "O" 
			},
			{
				"x": 2.4338659455,
				"y": -3.2037254271,
				"z": 3.3402432999,
				"element": "C" 
			},
			{
				"x": 2.3511851953,
				"y": -3.5413771818,
				"z": 4.6689197771,
				"element": "O" 
			},
			{
				"x": 3.3406498937,
				"y": -3.7461706661,
				"z": 2.4371873613,
				"element": "C" 
			},
			{
				"x": 3.3306801315,
				"y": -3.3239122734,
				"z": 1.1071322763,
				"element": "C" 
			},
			{
				"x": -3.0075282635,
				"y": 2.7896366087,
				"z": -0.4276200879,
				"element": "H" 
			},
			{
				"x": -2.9672837574,
				"y": 4.4882357852,
				"z": -0.9033091525,
				"element": "H" 
			},
			{
				"x": -4.4118733176,
				"y": 3.5159156981,
				"z": -1.2161283185,
				"element": "H" 
			},
			{
				"x": -3.0722211862,
				"y": 3.8711865411,
				"z": -3.3124166116,
				"element": "H" 
			},
			{
				"x": -1.6658271649,
				"y": 3.152398954,
				"z": -2.5571151888,
				"element": "H" 
			},
			{
				"x": -4.3312638289,
				"y": 1.7151679105,
				"z": -3.020100862,
				"element": "H" 
			},
			{
				"x": -3.002829854,
				"y": 1.6368596712,
				"z": -4.1548523799,
				"element": "H" 
			},
			{
				"x": -2.4865258722,
				"y": 0.7547409806,
				"z": -1.2848497981,
				"element": "H" 
			},
			{
				"x": -3.4337241331,
				"y": -0.2819373755,
				"z": -2.3216853947,
				"element": "H" 
			},
			{
				"x": -1.1671678862,
				"y": -1.0491186516,
				"z": -2.4084347313,
				"element": "H" 
			},
			{
				"x": -1.589594241,
				"y": -0.4064735361,
				"z": -3.9851003505,
				"element": "H" 
			},
			{
				"x": -0.2998687625,
				"y": 1.6748681157,
				"z": -3.5025898995,
				"element": "H" 
			},
			{
				"x": 0.0440462339,
				"y": 1.118567293,
				"z": -1.8823324582,
				"element": "H" 
			},
			{
				"x": 1.2305714323,
				"y": 0.1930557793,
				"z": -4.4192546782,
				"element": "H" 
			},
			{
				"x": 0.8867913229,
				"y": -0.522845555,
				"z": -0.841420838,
				"element": "H" 
			},
			{
				"x": 3.2060467046,
				"y": -2.4368191735,
				"z": -1.3616983048,
				"element": "H" 
			},
			{
				"x": 0.7779141425,
				"y": -1.0646846456,
				"z": 1.3013332606,
				"element": "H" 
			},
			{
				"x": 0.7802246035,
				"y": -2.1106619863,
				"z": 4.6629364203,
				"element": "H" 
			},
			{
				"x": 3.0160847649,
				"y": -4.2077496088,
				"z": 4.8819964494,
				"element": "H" 
			},
			{
				"x": 4.0536494606,
				"y": -4.4968962952,
				"z": 2.7709149537,
				"element": "H" 
			},
			{
				"x": 4.0403453322,
				"y": -3.7497358767,
				"z": 0.4045921277,
				"element": "H" 
			}
		],
		 "valence_orbital": [ 
			{
				"type": "occ",
				"energy": -0.27862,
				"method": "rhf"
			},
			{
				"type": "occ",
				"energy": -0.2368,
				"method": "rhf"
			},
			{
				"type": "occ",
				"energy": -0.23495,
				"method": "rhf"
			},
			{
				"type": "occ",
				"energy": -0.23268,
				"method": "rhf"
			},
			{
				"type": "occ",
				"energy": -0.20753,
				"method": "rhf"
			},
			{
				"type": "unocc",
				"energy": -0.04783,
				"method": "rhf"
			},
			{
				"type": "unocc",
				"energy": 0.00256,
				"method": "rhf"
			},
			{
				"type": "unocc",
				"energy": 0.04242,
				"method": "rhf"
			},
			{
				"type": "unocc",
				"energy": 0.04656,
				"method": "rhf"
			},
			{
				"type": "unocc",
				"energy": 0.07492,
				"method": "rhf"
			}
		],
		"cosmo_sigma_profile": { 
			"-0.025": 0.0,
			"-0.024": 0.0,
			"-0.023": 0.0,
			"-0.022": 0.0,
			"-0.021": 0.0,
			"-0.02": 0.0,
			"-0.019": 0.224341775323,
			"-0.018": 1.20389880776,
			"-0.017": 1.20558259212,
			"-0.016": 1.00792128758,
			"-0.015": 1.41455966832,
			"-0.014": 1.00108281019,
			"-0.013": 2.64861241423,
			"-0.012": 1.96793733173,
			"-0.011": 2.91030981988,
			"-0.01": 2.39798100167,
			"-0.009": 2.96369920262,
			"-0.008": 3.61979299533,
			"-0.007": 6.97383920486,
			"-0.006": 9.77928135956,
			"-0.005": 12.731075284,
			"-0.004": 12.6294830379,
			"-0.003": 21.0610813694,
			"-0.002": 35.2590397485,
			"-0.001": 34.8110845781,
			"0.0": 35.655449338,
			"0.001": 34.7526284814,
			"0.002": 23.9320918081,
			"0.003": 18.0901447588,
			"0.004": 21.4101919657,
			"0.005": 13.3158012955,
			"0.006": 5.20702749414,
			"0.007": 3.98327389002,
			"0.008": 2.65972678526,
			"0.009": 3.202578969,
			"0.01": 2.70137684296,
			"0.011": 3.62848017754,
			"0.012": 2.71837808747,
			"0.013": 1.23164768734,
			"0.014": 4.63061269545,
			"0.015": 4.6930107484,
			"0.016": 0.208861866932,
			"0.017": 0.0,
			"0.018": 0.0,
			"0.019": 0.0,
			"0.02": 0.0,
			"0.021": 0.0,
			"0.022": 0.0,
			"0.023": 0.0,
			"0.024": 0.0,
			"0.025": 0.0
		}
	}
}
