{
	 "smiles": "OCC1=C(C=CC(=C1)C(F)(F)F)N1CCOCC1", 
	 "Tm": 356.65, 
	 "num_atms": 32, 
	 "gaussian": { 
		 "optdone": 1, 
		 "sigma_profile": "yes", 
		 "theory": "DFT", 
		 "functional": "B3LYP", 
		 "basiset": "6-31G**", 
		 "properties": { 
			 "R2extent": 7813.0204, 
			 "electric_dipole_moment_norm": 3.91549587409, 
			 "electric_quadrupole_moment_norm": 31.5200179676, 
			 "total_energy": -970.395530252, 
			 "HOMO_LUMO_gap": 0.19672, 
			 "cosmo_polarized_energy": -12.72, 
			 "cosmo_cavitation_energy": 34.97, 
			 "cosmo_dispersion_energy": -25.0, 
			 "cosmo_repulsion_energy": 1.88, 
			 "cosmo_total_nonelectrostatic_energy": 11.84, 
			 "SMD_solvation_energy": 6.3 
		},
		"coords": [
			{
				"x": 2.5972913347,
				"y": 1.4033459442,
				"z": -3.1267984305,
				"element": "O" 
			},
			{
				"x": 1.6543353783,
				"y": 1.4251150008,
				"z": -2.0637316796,
				"element": "C" 
			},
			{
				"x": 2.1984960578,
				"y": 0.6352472094,
				"z": -0.89595802,
				"element": "C" 
			},
			{
				"x": 1.3288856637,
				"y": 0.0652529009,
				"z": 0.0637788976,
				"element": "C" 
			},
			{
				"x": 1.8807104311,
				"y": -0.7164590374,
				"z": 1.0937061918,
				"element": "C" 
			},
			{
				"x": 3.2518303658,
				"y": -0.9329346037,
				"z": 1.1822037934,
				"element": "C" 
			},
			{
				"x": 4.1042653779,
				"y": -0.355769542,
				"z": 0.2401727312,
				"element": "C" 
			},
			{
				"x": 3.5734602535,
				"y": 0.4229624599,
				"z": -0.7890736486,
				"element": "C" 
			},
			{
				"x": 5.5918940388,
				"y": -0.525812162,
				"z": 0.3590674653,
				"element": "C" 
			},
			{
				"x": 6.1597226321,
				"y": 0.4854237934,
				"z": 1.0618828867,
				"element": "F" 
			},
			{
				"x": 5.9204524114,
				"y": -1.6728732123,
				"z": 0.9977616036,
				"element": "F" 
			},
			{
				"x": 6.1993143775,
				"y": -0.5455299036,
				"z": -0.8481572738,
				"element": "F" 
			},
			{
				"x": -0.0706186959,
				"y": 0.2891591789,
				"z": -0.0464590995,
				"element": "N" 
			},
			{
				"x": -0.9927971263,
				"y": -0.7707472742,
				"z": 0.3938548954,
				"element": "C" 
			},
			{
				"x": -1.7355927124,
				"y": -0.4086529584,
				"z": 1.6791713051,
				"element": "C" 
			},
			{
				"x": -2.4901343571,
				"y": 0.796567685,
				"z": 1.5400341121,
				"element": "O" 
			},
			{
				"x": -2.0420098444,
				"y": 1.6552413718,
				"z": 0.4975783581,
				"element": "C" 
			},
			{
				"x": -0.5257957908,
				"y": 1.6420697874,
				"z": 0.3347214627,
				"element": "C" 
			},
			{
				"x": 2.2855523434,
				"y": 2.0063747273,
				"z": -3.8118915074,
				"element": "H" 
			},
			{
				"x": 0.6880167486,
				"y": 0.9887441935,
				"z": -2.3583977382,
				"element": "H" 
			},
			{
				"x": 1.4556471138,
				"y": 2.4647472637,
				"z": -1.7511469651,
				"element": "H" 
			},
			{
				"x": 1.2307692403,
				"y": -1.1532408724,
				"z": 1.8445919842,
				"element": "H" 
			},
			{
				"x": 3.6573359822,
				"y": -1.5419593238,
				"z": 1.9828684455,
				"element": "H" 
			},
			{
				"x": 4.2222187769,
				"y": 0.8397383271,
				"z": -1.5498406907,
				"element": "H" 
			},
			{
				"x": -1.7315040881,
				"y": -0.9530748266,
				"z": -0.3984939089,
				"element": "H" 
			},
			{
				"x": -0.4416092554,
				"y": -1.7046026007,
				"z": 0.5227330168,
				"element": "H" 
			},
			{
				"x": -1.0218752305,
				"y": -0.3014212564,
				"z": 2.5108189126,
				"element": "H" 
			},
			{
				"x": -2.4410536262,
				"y": -1.2041420999,
				"z": 1.9470171562,
				"element": "H" 
			},
			{
				"x": -2.5165783096,
				"y": 1.3870943635,
				"z": -0.4597300866,
				"element": "H" 
			},
			{
				"x": -2.3751736951,
				"y": 2.6639539236,
				"z": 0.7606122755,
				"element": "H" 
			},
			{
				"x": -0.2441863389,
				"y": 2.3743495156,
				"z": -0.4308122434,
				"element": "H" 
			},
			{
				"x": -0.0633694572,
				"y": 1.9660320274,
				"z": 1.2809157985,
				"element": "H" 
			}
		],
		 "valence_orbital": [ 
			{
				"type": "occ",
				"energy": -0.28638,
				"method": "rhf"
			},
			{
				"type": "occ",
				"energy": -0.26858,
				"method": "rhf"
			},
			{
				"type": "occ",
				"energy": -0.25569,
				"method": "rhf"
			},
			{
				"type": "occ",
				"energy": -0.251,
				"method": "rhf"
			},
			{
				"type": "occ",
				"energy": -0.21539,
				"method": "rhf"
			},
			{
				"type": "unocc",
				"energy": -0.01867,
				"method": "rhf"
			},
			{
				"type": "unocc",
				"energy": -0.01135,
				"method": "rhf"
			},
			{
				"type": "unocc",
				"energy": 0.06742,
				"method": "rhf"
			},
			{
				"type": "unocc",
				"energy": 0.07419,
				"method": "rhf"
			},
			{
				"type": "unocc",
				"energy": 0.08639,
				"method": "rhf"
			}
		],
		"cosmo_sigma_profile": { 
			"-0.025": 0.0,
			"-0.024": 0.0,
			"-0.023": 0.0,
			"-0.022": 0.0,
			"-0.021": 0.0,
			"-0.02": 0.0,
			"-0.019": 0.0,
			"-0.018": 0.0,
			"-0.017": 0.0267665071755,
			"-0.016": 0.821633676947,
			"-0.015": 1.26427595751,
			"-0.014": 1.01805015641,
			"-0.013": 0.569346807422,
			"-0.012": 0.805985773723,
			"-0.011": 1.02632028197,
			"-0.01": 0.947691302518,
			"-0.009": 0.379790521799,
			"-0.008": 1.35735757216,
			"-0.007": 3.53997549676,
			"-0.006": 9.49503736116,
			"-0.005": 18.1213616249,
			"-0.004": 27.5613752262,
			"-0.003": 28.4522910111,
			"-0.002": 21.5653403698,
			"-0.001": 14.5361731116,
			"0.0": 13.7230522515,
			"0.001": 15.6171959894,
			"0.002": 22.9962416492,
			"0.003": 41.9731607761,
			"0.004": 20.3367951732,
			"0.005": 5.41386894642,
			"0.006": 3.74280691332,
			"0.007": 3.14050691277,
			"0.008": 3.3474189479,
			"0.009": 2.82906146559,
			"0.01": 2.51472394417,
			"0.011": 1.83016982126,
			"0.012": 2.86803422972,
			"0.013": 2.31275946562,
			"0.014": 1.40575683069,
			"0.015": 0.0,
			"0.016": 0.0,
			"0.017": 0.0,
			"0.018": 0.0,
			"0.019": 0.0,
			"0.02": 0.0,
			"0.021": 0.0,
			"0.022": 0.0,
			"0.023": 0.0,
			"0.024": 0.0,
			"0.025": 0.0
		}
	}
}
