{
	 "smiles": "CN1CCOCC1", 
	 "Tm": 208.15, 
	 "num_atms": 18, 
	 "gaussian": { 
		 "optdone": 1, 
		 "sigma_profile": "yes", 
		 "theory": "DFT", 
		 "functional": "B3LYP", 
		 "basiset": "6-31G**", 
		 "properties": { 
			 "R2extent": 898.0187, 
			 "electric_dipole_moment_norm": 1.21641097085, 
			 "electric_quadrupole_moment_norm": 5.23895866752, 
			 "total_energy": -327.107969035, 
			 "HOMO_LUMO_gap": 0.27544, 
			 "cosmo_polarized_energy": -5.49, 
			 "cosmo_cavitation_energy": 18.88, 
			 "cosmo_dispersion_energy": -14.61, 
			 "cosmo_repulsion_energy": 1.22, 
			 "cosmo_total_nonelectrostatic_energy": 5.49, 
			 "SMD_solvation_energy": 0.47 
		},
		"coords": [
			{
				"x": -0.7318910957,
				"y": -1.4498341859,
				"z": -0.6837965927,
				"element": "C" 
			},
			{
				"x": 0.6945108211,
				"y": -1.1562872817,
				"z": -0.5976001803,
				"element": "N" 
			},
			{
				"x": 1.0331585561,
				"y": 0.2560192667,
				"z": -0.808088644,
				"element": "C" 
			},
			{
				"x": 0.786251737,
				"y": 1.1239078147,
				"z": 0.4318750002,
				"element": "C" 
			},
			{
				"x": 1.4832011466,
				"y": 0.5997144653,
				"z": 1.5586347342,
				"element": "O" 
			},
			{
				"x": 1.0847854771,
				"y": -0.73904514,
				"z": 1.8398890258,
				"element": "C" 
			},
			{
				"x": 1.3374939892,
				"y": -1.6441600486,
				"z": 0.6280224124,
				"element": "C" 
			},
			{
				"x": -1.1035727064,
				"y": -1.132489562,
				"z": -1.6640968812,
				"element": "H" 
			},
			{
				"x": -0.8794085176,
				"y": -2.5324545507,
				"z": -0.6063181065,
				"element": "H" 
			},
			{
				"x": -1.3680189231,
				"y": -0.9726919451,
				"z": 0.0825281002,
				"element": "H" 
			},
			{
				"x": 2.1007975181,
				"y": 0.3135008564,
				"z": -1.0595190252,
				"element": "H" 
			},
			{
				"x": 0.4681037824,
				"y": 0.6385457144,
				"z": -1.6662465781,
				"element": "H" 
			},
			{
				"x": 1.1618066263,
				"y": 2.1411906809,
				"z": 0.2806534283,
				"element": "H" 
			},
			{
				"x": -0.2927872267,
				"y": 1.1901033665,
				"z": 0.653148166,
				"element": "H" 
			},
			{
				"x": 0.0202158227,
				"y": -0.7628171271,
				"z": 2.1293331139,
				"element": "H" 
			},
			{
				"x": 1.6754647477,
				"y": -1.0636590244,
				"z": 2.7027340174,
				"element": "H" 
			},
			{
				"x": 0.9973186897,
				"y": -2.6663619494,
				"z": 0.8315821695,
				"element": "H" 
			},
			{
				"x": 2.4204695553,
				"y": -1.68268135,
				"z": 0.4489658399,
				"element": "H" 
			}
		],
		 "valence_orbital": [ 
			{
				"type": "occ",
				"energy": -0.35608,
				"method": "rhf"
			},
			{
				"type": "occ",
				"energy": -0.34042,
				"method": "rhf"
			},
			{
				"type": "occ",
				"energy": -0.30718,
				"method": "rhf"
			},
			{
				"type": "occ",
				"energy": -0.26606,
				"method": "rhf"
			},
			{
				"type": "occ",
				"energy": -0.19571,
				"method": "rhf"
			},
			{
				"type": "unocc",
				"energy": 0.07973,
				"method": "rhf"
			},
			{
				"type": "unocc",
				"energy": 0.11216,
				"method": "rhf"
			},
			{
				"type": "unocc",
				"energy": 0.13166,
				"method": "rhf"
			},
			{
				"type": "unocc",
				"energy": 0.13377,
				"method": "rhf"
			},
			{
				"type": "unocc",
				"energy": 0.13405,
				"method": "rhf"
			}
		],
		"cosmo_sigma_profile": { 
			"-0.025": 0.0,
			"-0.024": 0.0,
			"-0.023": 0.0,
			"-0.022": 0.0,
			"-0.021": 0.0,
			"-0.02": 0.0,
			"-0.019": 0.0,
			"-0.018": 0.0,
			"-0.017": 0.0,
			"-0.016": 0.0,
			"-0.015": 0.0,
			"-0.014": 0.0,
			"-0.013": 0.0,
			"-0.012": 0.0,
			"-0.011": 0.0,
			"-0.01": 0.0,
			"-0.009": 0.0,
			"-0.008": 0.0,
			"-0.007": 0.0,
			"-0.006": 0.0,
			"-0.005": 2.88113396084,
			"-0.004": 15.828287842,
			"-0.003": 31.7551833973,
			"-0.002": 26.3196687901,
			"-0.001": 18.570424544,
			"0.0": 14.2588001474,
			"0.001": 4.75618892052,
			"0.002": 3.99110248986,
			"0.003": 2.80418923926,
			"0.004": 3.13677559098,
			"0.005": 2.16443143064,
			"0.006": 2.14238215954,
			"0.007": 1.97337593482,
			"0.008": 1.77812214808,
			"0.009": 2.47920368142,
			"0.01": 1.5969030965,
			"0.011": 1.52764251298,
			"0.012": 2.30548989881,
			"0.013": 1.96800228643,
			"0.014": 2.40114483238,
			"0.015": 0.475304011047,
			"0.016": 0.42634413064,
			"0.017": 0.129394016519,
			"0.018": 0.0,
			"0.019": 0.0,
			"0.02": 0.0,
			"0.021": 0.0,
			"0.022": 0.0,
			"0.023": 0.0,
			"0.024": 0.0,
			"0.025": 0.0
		}
	}
}
