{
	 "smiles": "ClC1=CC(=CC(Cl)=C1)C1=NN=C2C=CC(Cl)=NN12", 
	 "Tm": 483.15, 
	 "num_atms": 23, 
	 "gaussian": { 
		 "optdone": 1, 
		 "sigma_profile": "yes", 
		 "theory": "DFT", 
		 "functional": "B3LYP", 
		 "basiset": "6-31G**", 
		 "properties": { 
			 "R2extent": 7740.5823, 
			 "electric_dipole_moment_norm": 4.53983233831, 
			 "electric_quadrupole_moment_norm": 27.5726536376, 
			 "total_energy": -2021.71148603, 
			 "HOMO_LUMO_gap": 0.14719, 
			 "cosmo_polarized_energy": -12.56, 
			 "cosmo_cavitation_energy": 34.31, 
			 "cosmo_dispersion_energy": -25.48, 
			 "cosmo_repulsion_energy": 1.95, 
			 "cosmo_total_nonelectrostatic_energy": 10.78, 
			 "SMD_solvation_energy": 2.4 
		},
		"coords": [
			{
				"x": -4.163776487,
				"y": -0.3025282735,
				"z": -0.4659731965,
				"element": "Cl" 
			},
			{
				"x": -2.5691660124,
				"y": -0.4854595883,
				"z": 0.2417341675,
				"element": "C" 
			},
			{
				"x": -1.4473552313,
				"y": -0.3379268266,
				"z": -0.5624578708,
				"element": "C" 
			},
			{
				"x": -0.169151053,
				"y": -0.4851460633,
				"z": 0.0072005343,
				"element": "C" 
			},
			{
				"x": -0.0395406402,
				"y": -0.7778618352,
				"z": 1.3741296277,
				"element": "C" 
			},
			{
				"x": -1.1921779554,
				"y": -0.917451704,
				"z": 2.1443478799,
				"element": "C" 
			},
			{
				"x": -1.0331879699,
				"y": -1.2832131856,
				"z": 3.8535828037,
				"element": "Cl" 
			},
			{
				"x": -2.467882032,
				"y": -0.7764726679,
				"z": 1.6038328003,
				"element": "C" 
			},
			{
				"x": 0.980177081,
				"y": -0.3191381945,
				"z": -0.8852483157,
				"element": "C" 
			},
			{
				"x": 0.8792438546,
				"y": -0.0416329759,
				"z": -2.1856465248,
				"element": "N" 
			},
			{
				"x": 2.1095164334,
				"y": 0.0520561415,
				"z": -2.7425843894,
				"element": "N" 
			},
			{
				"x": 2.9890539129,
				"y": -0.1704441791,
				"z": -1.7762961825,
				"element": "C" 
			},
			{
				"x": 4.4013342835,
				"y": -0.2031511363,
				"z": -1.7553142856,
				"element": "C" 
			},
			{
				"x": 5.0204142011,
				"y": -0.467872692,
				"z": -0.564844678,
				"element": "C" 
			},
			{
				"x": 4.2023970934,
				"y": -0.6958991224,
				"z": 0.5884700108,
				"element": "C" 
			},
			{
				"x": 4.9908496396,
				"y": -1.0339080773,
				"z": 2.1056617563,
				"element": "Cl" 
			},
			{
				"x": 2.9003427735,
				"y": -0.6764840849,
				"z": 0.6191798014,
				"element": "N" 
			},
			{
				"x": 2.3169929264,
				"y": -0.4116619826,
				"z": -0.5750741199,
				"element": "N" 
			},
			{
				"x": -1.5409565343,
				"y": -0.1121842923,
				"z": -1.6171236658,
				"element": "H" 
			},
			{
				"x": 0.934601558,
				"y": -0.8944847253,
				"z": 1.8276472483,
				"element": "H" 
			},
			{
				"x": -3.3520654931,
				"y": -0.8886393327,
				"z": 2.2186088373,
				"element": "H" 
			},
			{
				"x": 4.9482035796,
				"y": -0.0195991047,
				"z": -2.6729860604,
				"element": "H" 
			},
			{
				"x": 6.0975320715,
				"y": -0.5098960971,
				"z": -0.4683461781,
				"element": "H" 
			}
		],
		 "valence_orbital": [ 
			{
				"type": "occ",
				"energy": -0.29821,
				"method": "rhf"
			},
			{
				"type": "occ",
				"energy": -0.28782,
				"method": "rhf"
			},
			{
				"type": "occ",
				"energy": -0.27336,
				"method": "rhf"
			},
			{
				"type": "occ",
				"energy": -0.25669,
				"method": "rhf"
			},
			{
				"type": "occ",
				"energy": -0.24334,
				"method": "rhf"
			},
			{
				"type": "unocc",
				"energy": -0.09615,
				"method": "rhf"
			},
			{
				"type": "unocc",
				"energy": -0.06577,
				"method": "rhf"
			},
			{
				"type": "unocc",
				"energy": -0.02987,
				"method": "rhf"
			},
			{
				"type": "unocc",
				"energy": -0.01916,
				"method": "rhf"
			},
			{
				"type": "unocc",
				"energy": -0.00242,
				"method": "rhf"
			}
		],
		"cosmo_sigma_profile": { 
			"-0.025": 0.0,
			"-0.024": 0.0,
			"-0.023": 0.0,
			"-0.022": 0.0,
			"-0.021": 0.0,
			"-0.02": 0.0,
			"-0.019": 0.0,
			"-0.018": 0.0,
			"-0.017": 0.0,
			"-0.016": 0.0,
			"-0.015": 0.0,
			"-0.014": 0.0,
			"-0.013": 0.0,
			"-0.012": 0.0,
			"-0.011": 0.914041982133,
			"-0.01": 4.00866004401,
			"-0.009": 4.32095177831,
			"-0.008": 6.71478119759,
			"-0.007": 5.71963426485,
			"-0.006": 8.43323559844,
			"-0.005": 11.4093618345,
			"-0.004": 17.090640639,
			"-0.003": 20.087120575,
			"-0.002": 21.1042073888,
			"-0.001": 24.3189254998,
			"0.0": 32.9176278972,
			"0.001": 33.2943493382,
			"0.002": 23.3281668724,
			"0.003": 24.9780318977,
			"0.004": 22.9106760628,
			"0.005": 3.94332676254,
			"0.006": 1.51463529435,
			"0.007": 1.19498779762,
			"0.008": 2.29872449597,
			"0.009": 2.04116781871,
			"0.01": 2.18882723537,
			"0.011": 3.49000079998,
			"0.012": 2.47435164065,
			"0.013": 2.70775448645,
			"0.014": 1.29847405876,
			"0.015": 1.05765823036,
			"0.016": 0.12726186237,
			"0.017": 0.0,
			"0.018": 0.0,
			"0.019": 0.0,
			"0.02": 0.0,
			"0.021": 0.0,
			"0.022": 0.0,
			"0.023": 0.0,
			"0.024": 0.0,
			"0.025": 0.0
		}
	}
}
