{
	 "smiles": "CCOC(=O)CCCCCCC(=O)OCC", 
	 "Tm": 279.05, 
	 "num_atms": 38, 
	 "gaussian": { 
		 "optdone": 1, 
		 "sigma_profile": "yes", 
		 "theory": "DFT", 
		 "functional": "B3LYP", 
		 "basiset": "6-31G**", 
		 "properties": { 
			 "R2extent": 7144.6682, 
			 "electric_dipole_moment_norm": 2.55387746378, 
			 "electric_quadrupole_moment_norm": 13.1224779112, 
			 "total_energy": -771.478732688, 
			 "HOMO_LUMO_gap": 0.27665, 
			 "cosmo_polarized_energy": -11.97, 
			 "cosmo_cavitation_energy": 40.86, 
			 "cosmo_dispersion_energy": -27.64, 
			 "cosmo_repulsion_energy": 2.27, 
			 "cosmo_total_nonelectrostatic_energy": 15.49, 
			 "SMD_solvation_energy": 8.5 
		},
		"coords": [
			{
				"x": 2.8703214344,
				"y": -3.3654678051,
				"z": -1.1229064166,
				"element": "C" 
			},
			{
				"x": 1.9208051555,
				"y": -3.0666575169,
				"z": 0.0276340182,
				"element": "C" 
			},
			{
				"x": 0.8931063902,
				"y": -2.1270489135,
				"z": -0.3681369712,
				"element": "O" 
			},
			{
				"x": -0.2085188211,
				"y": -2.6469109428,
				"z": -0.9618223986,
				"element": "C" 
			},
			{
				"x": -0.3642852175,
				"y": -3.829882288,
				"z": -1.1796339283,
				"element": "O" 
			},
			{
				"x": -1.210471044,
				"y": -1.5573954274,
				"z": -1.2834711997,
				"element": "C" 
			},
			{
				"x": -1.8329905748,
				"y": -0.9452547478,
				"z": -0.0118595623,
				"element": "C" 
			},
			{
				"x": -2.9079474853,
				"y": 0.1163048554,
				"z": -0.2995586015,
				"element": "C" 
			},
			{
				"x": -2.4250401901,
				"y": 1.375126284,
				"z": -1.043571753,
				"element": "C" 
			},
			{
				"x": -1.3210503578,
				"y": 2.1872870134,
				"z": -0.3457869253,
				"element": "C" 
			},
			{
				"x": -1.7467346185,
				"y": 2.7672444912,
				"z": 1.0187956019,
				"element": "C" 
			},
			{
				"x": -0.6563746146,
				"y": 3.6126184186,
				"z": 1.6445813604,
				"element": "C" 
			},
			{
				"x": -0.0086669486,
				"y": 3.3075241776,
				"z": 2.6237453853,
				"element": "O" 
			},
			{
				"x": -0.4808940913,
				"y": 4.7649266669,
				"z": 0.9531509576,
				"element": "O" 
			},
			{
				"x": 0.5589982685,
				"y": 5.6526260812,
				"z": 1.42804566,
				"element": "C" 
			},
			{
				"x": 1.9178600633,
				"y": 5.2685815659,
				"z": 0.861753467,
				"element": "C" 
			},
			{
				"x": 2.3424687579,
				"y": -3.8758451613,
				"z": -1.9321703347,
				"element": "H" 
			},
			{
				"x": 3.3128047283,
				"y": -2.4438913842,
				"z": -1.5127216435,
				"element": "H" 
			},
			{
				"x": 3.6806988944,
				"y": -4.0162272705,
				"z": -0.7775654206,
				"element": "H" 
			},
			{
				"x": 1.4426937994,
				"y": -3.9801444505,
				"z": 0.389358343,
				"element": "H" 
			},
			{
				"x": 2.4369874755,
				"y": -2.5737191685,
				"z": 0.8550940571,
				"element": "H" 
			},
			{
				"x": -1.9839146878,
				"y": -2.0038021168,
				"z": -1.9143058055,
				"element": "H" 
			},
			{
				"x": -0.6982099103,
				"y": -0.7811523191,
				"z": -1.862517603,
				"element": "H" 
			},
			{
				"x": -2.2877435605,
				"y": -1.7507667998,
				"z": 0.5776327679,
				"element": "H" 
			},
			{
				"x": -1.0335600745,
				"y": -0.5250499606,
				"z": 0.6079244313,
				"element": "H" 
			},
			{
				"x": -3.3666223665,
				"y": 0.4077202718,
				"z": 0.6536394627,
				"element": "H" 
			},
			{
				"x": -3.7136630821,
				"y": -0.343518072,
				"z": -0.8871234425,
				"element": "H" 
			},
			{
				"x": -3.2911993799,
				"y": 2.0288679999,
				"z": -1.2127893075,
				"element": "H" 
			},
			{
				"x": -2.0666801229,
				"y": 1.0957136026,
				"z": -2.0424573079,
				"element": "H" 
			},
			{
				"x": -0.4249450424,
				"y": 1.5694238554,
				"z": -0.2080993286,
				"element": "H" 
			},
			{
				"x": -1.0267346512,
				"y": 3.0168216671,
				"z": -0.9976147337,
				"element": "H" 
			},
			{
				"x": -2.6401847813,
				"y": 3.3888442379,
				"z": 0.8849196334,
				"element": "H" 
			},
			{
				"x": -1.9806839501,
				"y": 1.9740111772,
				"z": 1.7319858179,
				"element": "H" 
			},
			{
				"x": 0.5684501288,
				"y": 5.6310555736,
				"z": 2.520461861,
				"element": "H" 
			},
			{
				"x": 0.2485239253,
				"y": 6.6431688043,
				"z": 1.0865669333,
				"element": "H" 
			},
			{
				"x": 2.6716006003,
				"y": 5.9992318065,
				"z": 1.1738996272,
				"element": "H" 
			},
			{
				"x": 1.8929336015,
				"y": 5.2474070097,
				"z": -0.2318902827,
				"element": "H" 
			},
			{
				"x": 2.2216623498,
				"y": 4.2853287844,
				"z": 1.2291135818,
				"element": "H" 
			}
		],
		 "valence_orbital": [ 
			{
				"type": "occ",
				"energy": -0.3194,
				"method": "rhf"
			},
			{
				"type": "occ",
				"energy": -0.29498,
				"method": "rhf"
			},
			{
				"type": "occ",
				"energy": -0.29344,
				"method": "rhf"
			},
			{
				"type": "occ",
				"energy": -0.26485,
				"method": "rhf"
			},
			{
				"type": "occ",
				"energy": -0.26321,
				"method": "rhf"
			},
			{
				"type": "unocc",
				"energy": 0.01344,
				"method": "rhf"
			},
			{
				"type": "unocc",
				"energy": 0.0152,
				"method": "rhf"
			},
			{
				"type": "unocc",
				"energy": 0.07558,
				"method": "rhf"
			},
			{
				"type": "unocc",
				"energy": 0.10306,
				"method": "rhf"
			},
			{
				"type": "unocc",
				"energy": 0.10713,
				"method": "rhf"
			}
		],
		"cosmo_sigma_profile": { 
			"-0.025": 0.0,
			"-0.024": 0.0,
			"-0.023": 0.0,
			"-0.022": 0.0,
			"-0.021": 0.0,
			"-0.02": 0.0,
			"-0.019": 0.0,
			"-0.018": 0.0,
			"-0.017": 0.0,
			"-0.016": 0.0,
			"-0.015": 0.0,
			"-0.014": 0.0,
			"-0.013": 0.0,
			"-0.012": 0.0,
			"-0.011": 0.0,
			"-0.01": 0.0,
			"-0.009": 0.0,
			"-0.008": 0.0,
			"-0.007": 0.0,
			"-0.006": 1.95280508176,
			"-0.005": 12.4344616492,
			"-0.004": 32.4042583714,
			"-0.003": 51.2522714844,
			"-0.002": 52.3065205429,
			"-0.001": 42.574589855,
			"0.0": 36.9704696759,
			"0.001": 19.116173447,
			"0.002": 8.15738585189,
			"0.003": 6.30675409441,
			"0.004": 7.59231946919,
			"0.005": 5.90543228146,
			"0.006": 5.62538083581,
			"0.007": 4.10999650168,
			"0.008": 4.44276945596,
			"0.009": 4.63035283955,
			"0.01": 3.52841274428,
			"0.011": 4.53007739446,
			"0.012": 8.61545734526,
			"0.013": 4.3154292449,
			"0.014": 0.395503447565,
			"0.015": 0.0,
			"0.016": 0.0,
			"0.017": 0.0,
			"0.018": 0.0,
			"0.019": 0.0,
			"0.02": 0.0,
			"0.021": 0.0,
			"0.022": 0.0,
			"0.023": 0.0,
			"0.024": 0.0,
			"0.025": 0.0
		}
	}
}
