{
	 "smiles": "CCOC(=O)CCl", 
	 "Tm": 249.65, 
	 "num_atms": 14, 
	 "gaussian": { 
		 "optdone": 1, 
		 "sigma_profile": "yes", 
		 "theory": "DFT", 
		 "functional": "B3LYP", 
		 "basiset": "6-31G**", 
		 "properties": { 
			 "R2extent": 1408.5636, 
			 "electric_dipole_moment_norm": 1.80246093439, 
			 "electric_quadrupole_moment_norm": 7.94208738683, 
			 "total_energy": -767.294271531, 
			 "HOMO_LUMO_gap": 0.25357, 
			 "cosmo_polarized_energy": -7.36, 
			 "cosmo_cavitation_energy": 19.74, 
			 "cosmo_dispersion_energy": -14.43, 
			 "cosmo_repulsion_energy": 1.26, 
			 "cosmo_total_nonelectrostatic_energy": 6.58, 
			 "SMD_solvation_energy": 4.54 
		},
		"coords": [
			{
				"x": -0.6346559631,
				"y": -0.9505812421,
				"z": 1.2905498507,
				"element": "C" 
			},
			{
				"x": -1.4553685487,
				"y": -0.7055611266,
				"z": 0.0343740031,
				"element": "C" 
			},
			{
				"x": -1.0207075494,
				"y": 0.4996974036,
				"z": -0.6487807443,
				"element": "O" 
			},
			{
				"x": 0.0168143219,
				"y": 0.3738137326,
				"z": -1.4874752775,
				"element": "C" 
			},
			{
				"x": 0.5833958223,
				"y": -0.6635382112,
				"z": -1.7542837761,
				"element": "O" 
			},
			{
				"x": 0.3824277525,
				"y": 1.700681638,
				"z": -2.1374803751,
				"element": "C" 
			},
			{
				"x": 0.75843543,
				"y": 2.9950200369,
				"z": -0.9338058968,
				"element": "Cl" 
			},
			{
				"x": -1.0338300094,
				"y": -1.8168219896,
				"z": 1.8284309577,
				"element": "H" 
			},
			{
				"x": -0.6731385369,
				"y": -0.0833241444,
				"z": 1.9555561319,
				"element": "H" 
			},
			{
				"x": 0.4079923151,
				"y": -1.1566989976,
				"z": 1.0365582363,
				"element": "H" 
			},
			{
				"x": -1.3835411799,
				"y": -1.5463552651,
				"z": -0.6595557506,
				"element": "H" 
			},
			{
				"x": -2.5046087371,
				"y": -0.514334448,
				"z": 0.2691714972,
				"element": "H" 
			},
			{
				"x": 1.2649774519,
				"y": 1.5494608622,
				"z": -2.7551513133,
				"element": "H" 
			},
			{
				"x": -0.4503925692,
				"y": 2.0618417513,
				"z": -2.7442075432,
				"element": "H" 
			}
		],
		 "valence_orbital": [ 
			{
				"type": "occ",
				"energy": -0.34951,
				"method": "rhf"
			},
			{
				"type": "occ",
				"energy": -0.32132,
				"method": "rhf"
			},
			{
				"type": "occ",
				"energy": -0.30988,
				"method": "rhf"
			},
			{
				"type": "occ",
				"energy": -0.30284,
				"method": "rhf"
			},
			{
				"type": "occ",
				"energy": -0.27948,
				"method": "rhf"
			},
			{
				"type": "unocc",
				"energy": -0.02591,
				"method": "rhf"
			},
			{
				"type": "unocc",
				"energy": 0.04345,
				"method": "rhf"
			},
			{
				"type": "unocc",
				"energy": 0.10224,
				"method": "rhf"
			},
			{
				"type": "unocc",
				"energy": 0.10468,
				"method": "rhf"
			},
			{
				"type": "unocc",
				"energy": 0.12937,
				"method": "rhf"
			}
		],
		"cosmo_sigma_profile": { 
			"-0.025": 0.0,
			"-0.024": 0.0,
			"-0.023": 0.0,
			"-0.022": 0.0,
			"-0.021": 0.0,
			"-0.02": 0.0,
			"-0.019": 0.0,
			"-0.018": 0.0,
			"-0.017": 0.0,
			"-0.016": 0.0,
			"-0.015": 0.0,
			"-0.014": 0.0,
			"-0.013": 0.0,
			"-0.012": 0.0,
			"-0.011": 0.0,
			"-0.01": 1.00792543744,
			"-0.009": 3.51963425158,
			"-0.008": 3.25940332151,
			"-0.007": 4.90447634377,
			"-0.006": 6.5647880569,
			"-0.005": 9.26897970539,
			"-0.004": 13.9973509506,
			"-0.003": 14.6651305617,
			"-0.002": 12.9872769527,
			"-0.001": 12.50926053,
			"0.0": 12.4598071048,
			"0.001": 8.07525004622,
			"0.002": 4.84460261419,
			"0.003": 7.47018124189,
			"0.004": 7.80944285403,
			"0.005": 10.0929547681,
			"0.006": 6.78741471119,
			"0.007": 3.99595780517,
			"0.008": 3.46663721353,
			"0.009": 2.04028771279,
			"0.01": 2.49385554884,
			"0.011": 4.30709649282,
			"0.012": 1.35560647107,
			"0.013": 0.00407053585423,
			"0.014": 0.0,
			"0.015": 0.0,
			"0.016": 0.0,
			"0.017": 0.0,
			"0.018": 0.0,
			"0.019": 0.0,
			"0.02": 0.0,
			"0.021": 0.0,
			"0.022": 0.0,
			"0.023": 0.0,
			"0.024": 0.0,
			"0.025": 0.0
		}
	}
}
