{
	 "smiles": "OC1=CC=CC(=C1[N+]([O-])=O)[N+]([O-])=O", 
	 "Tm": 417.15, 
	 "num_atms": 17, 
	 "gaussian": { 
		 "optdone": 1, 
		 "sigma_profile": "yes", 
		 "theory": "DFT", 
		 "functional": "B3LYP", 
		 "basiset": "6-31G**", 
		 "properties": { 
			 "R2extent": 2702.2295, 
			 "electric_dipole_moment_norm": 5.42667391595, 
			 "electric_quadrupole_moment_norm": 13.8590569798, 
			 "total_energy": -716.450453833, 
			 "HOMO_LUMO_gap": 0.14951, 
			 "cosmo_polarized_energy": -12.44, 
			 "cosmo_cavitation_energy": 23.0, 
			 "cosmo_dispersion_energy": -17.02, 
			 "cosmo_repulsion_energy": 1.33, 
			 "cosmo_total_nonelectrostatic_energy": 7.32, 
			 "SMD_solvation_energy": 8.83 
		},
		"coords": [
			{
				"x": -2.1082238666,
				"y": -1.1344322543,
				"z": -0.8493941604,
				"element": "O" 
			},
			{
				"x": -0.951470768,
				"y": -0.7557477624,
				"z": -0.3088668803,
				"element": "C" 
			},
			{
				"x": 0.1646693639,
				"y": -0.6428973184,
				"z": -1.1637490251,
				"element": "C" 
			},
			{
				"x": 1.3914510458,
				"y": -0.2406109422,
				"z": -0.6728658464,
				"element": "C" 
			},
			{
				"x": 1.565060852,
				"y": 0.0449045443,
				"z": 0.6919235525,
				"element": "C" 
			},
			{
				"x": 0.4830500491,
				"y": -0.0660329885,
				"z": 1.5409761133,
				"element": "C" 
			},
			{
				"x": -0.7914224527,
				"y": -0.4345801817,
				"z": 1.0625513642,
				"element": "C" 
			},
			{
				"x": -1.96179027,
				"y": -0.3496296964,
				"z": 1.9129959611,
				"element": "N" 
			},
			{
				"x": -1.9086494981,
				"y": 0.3231849836,
				"z": 2.9300613689,
				"element": "O" 
			},
			{
				"x": -2.9951885853,
				"y": -0.9483617671,
				"z": 1.5374295719,
				"element": "O" 
			},
			{
				"x": 0.7728483674,
				"y": 0.0775997858,
				"z": 2.984411337,
				"element": "N" 
			},
			{
				"x": 0.4377379567,
				"y": -0.8520182376,
				"z": 3.7076413383,
				"element": "O" 
			},
			{
				"x": 1.3963451475,
				"y": 1.0771918215,
				"z": 3.3232043007,
				"element": "O" 
			},
			{
				"x": -2.7540393605,
				"y": -1.2278622807,
				"z": -0.1075226832,
				"element": "H" 
			},
			{
				"x": 0.0156279505,
				"y": -0.8780675203,
				"z": -2.2115219765,
				"element": "H" 
			},
			{
				"x": 2.239360864,
				"y": -0.1589798304,
				"z": -1.3452224297,
				"element": "H" 
			},
			{
				"x": 2.5295332041,
				"y": 0.3259396449,
				"z": 1.0962480937,
				"element": "H" 
			}
		],
		 "valence_orbital": [ 
			{
				"type": "occ",
				"energy": -0.32253,
				"method": "rhf"
			},
			{
				"type": "occ",
				"energy": -0.31991,
				"method": "rhf"
			},
			{
				"type": "occ",
				"energy": -0.31849,
				"method": "rhf"
			},
			{
				"type": "occ",
				"energy": -0.2976,
				"method": "rhf"
			},
			{
				"type": "occ",
				"energy": -0.27209,
				"method": "rhf"
			},
			{
				"type": "unocc",
				"energy": -0.12258,
				"method": "rhf"
			},
			{
				"type": "unocc",
				"energy": -0.08471,
				"method": "rhf"
			},
			{
				"type": "unocc",
				"energy": -0.03583,
				"method": "rhf"
			},
			{
				"type": "unocc",
				"energy": -0.02979,
				"method": "rhf"
			},
			{
				"type": "unocc",
				"energy": 0.04568,
				"method": "rhf"
			}
		],
		"cosmo_sigma_profile": { 
			"-0.025": 0.0,
			"-0.024": 0.0,
			"-0.023": 0.0,
			"-0.022": 0.0,
			"-0.021": 0.0,
			"-0.02": 0.0,
			"-0.019": 0.0,
			"-0.018": 0.0,
			"-0.017": 0.0,
			"-0.016": 0.0,
			"-0.015": 0.0,
			"-0.014": 0.0,
			"-0.013": 0.0,
			"-0.012": 0.119529619294,
			"-0.011": 0.591086032245,
			"-0.01": 2.01062089647,
			"-0.009": 7.42690085148,
			"-0.008": 10.1057719471,
			"-0.007": 8.59039852471,
			"-0.006": 9.28276760896,
			"-0.005": 7.16955652882,
			"-0.004": 9.53825370353,
			"-0.003": 11.8451153898,
			"-0.002": 12.3800071663,
			"-0.001": 12.7627510804,
			"0.0": 12.0337179269,
			"0.001": 7.5358311076,
			"0.002": 6.14690665792,
			"0.003": 6.62287942297,
			"0.004": 7.18072537912,
			"0.005": 8.63799958808,
			"0.006": 15.5599240635,
			"0.007": 16.0201537521,
			"0.008": 9.21393559803,
			"0.009": 4.72799665183,
			"0.01": 0.0826229296572,
			"0.011": 0.0,
			"0.012": 0.0,
			"0.013": 0.0,
			"0.014": 0.0,
			"0.015": 0.0,
			"0.016": 0.0,
			"0.017": 0.0,
			"0.018": 0.0,
			"0.019": 0.0,
			"0.02": 0.0,
			"0.021": 0.0,
			"0.022": 0.0,
			"0.023": 0.0,
			"0.024": 0.0,
			"0.025": 0.0
		}
	}
}
