{
	 "smiles": "BrC1=CC=C(O1)C=CC(=O)C1=CC=CO1", 
	 "Tm": 350.15, 
	 "num_atms": 22, 
	 "gaussian": { 
		 "optdone": 1, 
		 "sigma_profile": "yes", 
		 "theory": "DFT", 
		 "functional": "B3LYP", 
		 "basiset": "6-31G**", 
		 "properties": { 
			 "R2extent": 8400.51, 
			 "electric_dipole_moment_norm": 1.74435754936, 
			 "electric_quadrupole_moment_norm": 23.5008373695, 
			 "total_energy": -3220.39528812, 
			 "HOMO_LUMO_gap": 0.1384, 
			 "cosmo_polarized_energy": -10.58, 
			 "cosmo_cavitation_energy": 31.29, 
			 "cosmo_dispersion_energy": -23.04, 
			 "cosmo_repulsion_energy": 1.81, 
			 "cosmo_total_nonelectrostatic_energy": 10.05, 
			 "SMD_solvation_energy": 6.4 
		},
		"coords": [
			{
				"x": -2.7383575841,
				"y": 5.0808439604,
				"z": 0.7923672715,
				"element": "Br" 
			},
			{
				"x": -0.9607075385,
				"y": 4.6114778319,
				"z": 0.4734237337,
				"element": "C" 
			},
			{
				"x": 0.173713451,
				"y": 5.3691960431,
				"z": 0.3994678758,
				"element": "C" 
			},
			{
				"x": 1.2235614665,
				"y": 4.4451667478,
				"z": 0.1316350417,
				"element": "C" 
			},
			{
				"x": 0.6584128792,
				"y": 3.1923534638,
				"z": 0.0610917003,
				"element": "C" 
			},
			{
				"x": -0.7022450647,
				"y": 3.3004773817,
				"z": 0.2745685683,
				"element": "O" 
			},
			{
				"x": 1.2202861926,
				"y": 1.899137004,
				"z": -0.1803072169,
				"element": "C" 
			},
			{
				"x": 0.5492637859,
				"y": 0.7276805604,
				"z": -0.2252468989,
				"element": "C" 
			},
			{
				"x": 1.2876716326,
				"y": -0.5247642772,
				"z": -0.4877696306,
				"element": "C" 
			},
			{
				"x": 2.5060835586,
				"y": -0.5606139133,
				"z": -0.6717360251,
				"element": "O" 
			},
			{
				"x": 0.5152708227,
				"y": -1.7740935288,
				"z": -0.5272645104,
				"element": "C" 
			},
			{
				"x": 0.9141589785,
				"y": -3.068464399,
				"z": -0.7449408226,
				"element": "C" 
			},
			{
				"x": -0.257406492,
				"y": -3.8744741035,
				"z": -0.6711770608,
				"element": "C" 
			},
			{
				"x": -1.2902950129,
				"y": -3.0164828704,
				"z": -0.4134583823,
				"element": "C" 
			},
			{
				"x": -0.8441653085,
				"y": -1.7404321131,
				"z": -0.3226577029,
				"element": "O" 
			},
			{
				"x": 0.2385624926,
				"y": 6.4392814386,
				"z": 0.5211854246,
				"element": "H" 
			},
			{
				"x": 2.2730933467,
				"y": 4.6698677861,
				"z": 0.0047691739,
				"element": "H" 
			},
			{
				"x": 2.2958734974,
				"y": 1.871324376,
				"z": -0.3421171295,
				"element": "H" 
			},
			{
				"x": -0.5232609852,
				"y": 0.6826186667,
				"z": -0.0727871467,
				"element": "H" 
			},
			{
				"x": 1.9306578762,
				"y": -3.3798473363,
				"z": -0.9330505616,
				"element": "H" 
			},
			{
				"x": -0.3290472303,
				"y": -4.9456750324,
				"z": -0.7921456466,
				"element": "H" 
			},
			{
				"x": -2.3515247643,
				"y": -3.1566776867,
				"z": -0.2741500548,
				"element": "H" 
			}
		],
		 "valence_orbital": [ 
			{
				"type": "occ",
				"energy": -0.29129,
				"method": "rhf"
			},
			{
				"type": "occ",
				"energy": -0.28727,
				"method": "rhf"
			},
			{
				"type": "occ",
				"energy": -0.2483,
				"method": "rhf"
			},
			{
				"type": "occ",
				"energy": -0.23753,
				"method": "rhf"
			},
			{
				"type": "occ",
				"energy": -0.21857,
				"method": "rhf"
			},
			{
				"type": "unocc",
				"energy": -0.08017,
				"method": "rhf"
			},
			{
				"type": "unocc",
				"energy": -0.01915,
				"method": "rhf"
			},
			{
				"type": "unocc",
				"energy": 0.00057,
				"method": "rhf"
			},
			{
				"type": "unocc",
				"energy": 0.02485,
				"method": "rhf"
			},
			{
				"type": "unocc",
				"energy": 0.04936,
				"method": "rhf"
			}
		],
		"cosmo_sigma_profile": { 
			"-0.025": 0.0,
			"-0.024": 0.0,
			"-0.023": 0.0,
			"-0.022": 0.0,
			"-0.021": 0.0,
			"-0.02": 0.0,
			"-0.019": 0.0,
			"-0.018": 0.0,
			"-0.017": 0.0,
			"-0.016": 0.0,
			"-0.015": 0.0,
			"-0.014": 0.0,
			"-0.013": 0.0,
			"-0.012": 0.0,
			"-0.011": 0.0,
			"-0.01": 1.14495503212,
			"-0.009": 4.2011941572,
			"-0.008": 8.82602624657,
			"-0.007": 9.56887617895,
			"-0.006": 10.5635675256,
			"-0.005": 11.5528309984,
			"-0.004": 10.7030953351,
			"-0.003": 11.7002804937,
			"-0.002": 12.8678731746,
			"-0.001": 21.1032379318,
			"0.0": 27.0039464943,
			"0.001": 33.0263322018,
			"0.002": 35.4901323539,
			"0.003": 27.0483915477,
			"0.004": 8.93268097177,
			"0.005": 4.82991681264,
			"0.006": 1.91241956347,
			"0.007": 1.59269984374,
			"0.008": 1.55232565982,
			"0.009": 1.35733665768,
			"0.01": 1.99470676541,
			"0.011": 1.7226012551,
			"0.012": 3.53992243213,
			"0.013": 4.2056335331,
			"0.014": 0.282306237397,
			"0.015": 0.0,
			"0.016": 0.0,
			"0.017": 0.0,
			"0.018": 0.0,
			"0.019": 0.0,
			"0.02": 0.0,
			"0.021": 0.0,
			"0.022": 0.0,
			"0.023": 0.0,
			"0.024": 0.0,
			"0.025": 0.0
		}
	}
}
