{
	 "smiles": "C1CSC2=C(SC(S2)=C2SC3=C(S2)SCCS3)S1", 
	 "Tm": 517.15, 
	 "num_atms": 26, 
	 "gaussian": { 
		 "optdone": 1, 
		 "sigma_profile": "yes", 
		 "theory": "DFT", 
		 "functional": "B3LYP", 
		 "basiset": "6-31G**", 
		 "properties": { 
			 "R2extent": 12497.3339, 
			 "electric_dipole_moment_norm": 0.00022360679775, 
			 "electric_quadrupole_moment_norm": 58.7109535813, 
			 "total_energy": -3571.3031566, 
			 "HOMO_LUMO_gap": 0.11745, 
			 "cosmo_polarized_energy": -13.65, 
			 "cosmo_cavitation_energy": 40.26, 
			 "cosmo_dispersion_energy": -34.11, 
			 "cosmo_repulsion_energy": 2.26, 
			 "cosmo_total_nonelectrostatic_energy": 8.41, 
			 "SMD_solvation_energy": 3.41 
		},
		"coords": [
			{
				"x": 1.9355878719,
				"y": -5.6451138811,
				"z": 0.2141204579,
				"element": "C" 
			},
			{
				"x": 0.8710512687,
				"y": -5.9261097724,
				"z": -0.8461485201,
				"element": "C" 
			},
			{
				"x": -0.6115580309,
				"y": -4.8644235656,
				"z": -0.6749602393,
				"element": "S" 
			},
			{
				"x": 0.1501406618,
				"y": -3.2661391527,
				"z": -0.536445332,
				"element": "C" 
			},
			{
				"x": 1.438614047,
				"y": -2.9634190585,
				"z": -0.286654519,
				"element": "C" 
			},
			{
				"x": 1.8733017245,
				"y": -1.2403627641,
				"z": -0.1835499787,
				"element": "S" 
			},
			{
				"x": 0.2282604968,
				"y": -0.6329527336,
				"z": -0.4988791493,
				"element": "C" 
			},
			{
				"x": -0.9863416229,
				"y": -1.9125372698,
				"z": -0.7478610892,
				"element": "S" 
			},
			{
				"x": -0.0717833143,
				"y": 0.6823315274,
				"z": -0.5450905712,
				"element": "C" 
			},
			{
				"x": -1.7168217663,
				"y": 1.289743254,
				"z": -0.860424574,
				"element": "S" 
			},
			{
				"x": -1.2821577153,
				"y": 3.0127975671,
				"z": -0.7571923648,
				"element": "C" 
			},
			{
				"x": 0.0063158601,
				"y": 3.3155172725,
				"z": -0.5074019381,
				"element": "C" 
			},
			{
				"x": 1.1428221378,
				"y": 1.9619147685,
				"z": -0.2961145177,
				"element": "S" 
			},
			{
				"x": 0.7679944828,
				"y": 4.9138035403,
				"z": -0.3687865787,
				"element": "S" 
			},
			{
				"x": -0.7146288972,
				"y": 5.975456974,
				"z": -0.1975020491,
				"element": "C" 
			},
			{
				"x": -1.7791767675,
				"y": 5.6945197106,
				"z": -1.2577745169,
				"element": "C" 
			},
			{
				"x": -2.6586283897,
				"y": 4.1103075458,
				"z": -0.9908549081,
				"element": "S" 
			},
			{
				"x": 2.8150654188,
				"y": -4.0609334384,
				"z": -0.0528932164,
				"element": "S" 
			},
			{
				"x": 1.5050420911,
				"y": -5.6661274081,
				"z": 1.2174160455,
				"element": "H" 
			},
			{
				"x": 2.7278303723,
				"y": -6.3982405629,
				"z": 0.1593578908,
				"element": "H" 
			},
			{
				"x": 0.4819939784,
				"y": -6.9421729237,
				"z": -0.727396174,
				"element": "H" 
			},
			{
				"x": 1.2839577008,
				"y": -5.8276117857,
				"z": -1.8522393748,
				"element": "H" 
			},
			{
				"x": -1.127517684,
				"y": 5.8768810572,
				"z": 0.8085883296,
				"element": "H" 
			},
			{
				"x": -0.3255878062,
				"y": 6.991533928,
				"z": -0.3161886434,
				"element": "H" 
			},
			{
				"x": -2.5714296311,
				"y": 6.4476309824,
				"z": -1.2029493782,
				"element": "H" 
			},
			{
				"x": -1.3486464874,
				"y": 5.7156061888,
				"z": -2.261075091,
				"element": "H" 
			}
		],
		 "valence_orbital": [ 
			{
				"type": "occ",
				"energy": -0.2553,
				"method": "rhf"
			},
			{
				"type": "occ",
				"energy": -0.24877,
				"method": "rhf"
			},
			{
				"type": "occ",
				"energy": -0.22898,
				"method": "rhf"
			},
			{
				"type": "occ",
				"energy": -0.20279,
				"method": "rhf"
			},
			{
				"type": "occ",
				"energy": -0.16503,
				"method": "rhf"
			},
			{
				"type": "unocc",
				"energy": -0.04758,
				"method": "rhf"
			},
			{
				"type": "unocc",
				"energy": -0.01218,
				"method": "rhf"
			},
			{
				"type": "unocc",
				"energy": -0.01216,
				"method": "rhf"
			},
			{
				"type": "unocc",
				"energy": -0.00976,
				"method": "rhf"
			},
			{
				"type": "unocc",
				"energy": 0.00422,
				"method": "rhf"
			}
		],
		"cosmo_sigma_profile": { 
			"-0.025": 0.0,
			"-0.024": 0.0,
			"-0.023": 0.0,
			"-0.022": 0.0,
			"-0.021": 0.0,
			"-0.02": 0.0,
			"-0.019": 0.0,
			"-0.018": 0.0,
			"-0.017": 0.0,
			"-0.016": 0.0,
			"-0.015": 0.0,
			"-0.014": 0.0,
			"-0.013": 0.0,
			"-0.012": 0.0,
			"-0.011": 0.0,
			"-0.01": 0.0,
			"-0.009": 2.22472025864,
			"-0.008": 12.3183282011,
			"-0.007": 16.7274972536,
			"-0.006": 18.8333746037,
			"-0.005": 18.0145934095,
			"-0.004": 16.8065726044,
			"-0.003": 14.367343481,
			"-0.002": 14.0047539389,
			"-0.001": 17.5129118824,
			"0.0": 24.9900131952,
			"0.001": 31.5696486837,
			"0.002": 43.1240161222,
			"0.003": 39.3384521554,
			"0.004": 27.4100911808,
			"0.005": 18.2004459304,
			"0.006": 13.1629812263,
			"0.007": 7.52832755157,
			"0.008": 1.7702796213,
			"0.009": 0.0,
			"0.01": 0.0,
			"0.011": 0.0,
			"0.012": 0.0,
			"0.013": 0.0,
			"0.014": 0.0,
			"0.015": 0.0,
			"0.016": 0.0,
			"0.017": 0.0,
			"0.018": 0.0,
			"0.019": 0.0,
			"0.02": 0.0,
			"0.021": 0.0,
			"0.022": 0.0,
			"0.023": 0.0,
			"0.024": 0.0,
			"0.025": 0.0
		}
	}
}
