{
	 "smiles": "ClC1=CC=CC=C1C(=O)NC1=NC=CC=C1", 
	 "Tm": 411.15, 
	 "num_atms": 25, 
	 "gaussian": { 
		 "optdone": 1, 
		 "sigma_profile": "yes", 
		 "theory": "DFT", 
		 "functional": "B3LYP", 
		 "basiset": "6-31G**", 
		 "properties": { 
			 "R2extent": 4005.4799, 
			 "electric_dipole_moment_norm": 4.78698695006, 
			 "electric_quadrupole_moment_norm": 10.6299813622, 
			 "total_energy": -1107.62790464, 
			 "HOMO_LUMO_gap": 0.19082, 
			 "cosmo_polarized_energy": -12.79, 
			 "cosmo_cavitation_energy": 31.39, 
			 "cosmo_dispersion_energy": -22.14, 
			 "cosmo_repulsion_energy": 1.73, 
			 "cosmo_total_nonelectrostatic_energy": 10.98, 
			 "SMD_solvation_energy": 4.35 
		},
		"coords": [
			{
				"x": -0.9339139983,
				"y": 2.2092850216,
				"z": -0.8404253597,
				"element": "Cl" 
			},
			{
				"x": 0.430800988,
				"y": 1.1197520333,
				"z": -0.6468968127,
				"element": "C" 
			},
			{
				"x": 1.2732708575,
				"y": 0.9216323839,
				"z": -1.7419291817,
				"element": "C" 
			},
			{
				"x": 2.382507683,
				"y": 0.0865637911,
				"z": -1.6171374718,
				"element": "C" 
			},
			{
				"x": 2.6607824439,
				"y": -0.5318484506,
				"z": -0.3965816203,
				"element": "C" 
			},
			{
				"x": 1.8223084985,
				"y": -0.3146006518,
				"z": 0.6936634508,
				"element": "C" 
			},
			{
				"x": 0.6795859854,
				"y": 0.491336618,
				"z": 0.5811848009,
				"element": "C" 
			},
			{
				"x": -0.1233519441,
				"y": 0.7329940717,
				"z": 1.8339032658,
				"element": "C" 
			},
			{
				"x": 0.4047566546,
				"y": 1.2681215626,
				"z": 2.7987631669,
				"element": "O" 
			},
			{
				"x": -1.4452329356,
				"y": 0.3449475508,
				"z": 1.8992292086,
				"element": "N" 
			},
			{
				"x": -2.2905483242,
				"y": -0.421337725,
				"z": 1.0809100535,
				"element": "C" 
			},
			{
				"x": -3.583155606,
				"y": -0.2852040871,
				"z": 1.4086825938,
				"element": "N" 
			},
			{
				"x": -4.4857820978,
				"y": -0.9859848104,
				"z": 0.7159390528,
				"element": "C" 
			},
			{
				"x": -4.1600021338,
				"y": -1.8464070587,
				"z": -0.3303139378,
				"element": "C" 
			},
			{
				"x": -2.8086836204,
				"y": -1.9959398428,
				"z": -0.6460496898,
				"element": "C" 
			},
			{
				"x": -1.8482325764,
				"y": -1.2882131058,
				"z": 0.0686152481,
				"element": "C" 
			},
			{
				"x": 1.0588123615,
				"y": 1.4270420306,
				"z": -2.6770084139,
				"element": "H" 
			},
			{
				"x": 3.0332800404,
				"y": -0.0686141802,
				"z": -2.4723518528,
				"element": "H" 
			},
			{
				"x": 3.5325919241,
				"y": -1.1697466768,
				"z": -0.2909806345,
				"element": "H" 
			},
			{
				"x": 2.0414231778,
				"y": -0.7664189181,
				"z": 1.6559119174,
				"element": "H" 
			},
			{
				"x": -1.9200290874,
				"y": 0.7055570229,
				"z": 2.7201802664,
				"element": "H" 
			},
			{
				"x": -5.5223833042,
				"y": -0.8482131875,
				"z": 1.0180452286,
				"element": "H" 
			},
			{
				"x": -4.9330616318,
				"y": -2.3867839727,
				"z": -0.8656621073,
				"element": "H" 
			},
			{
				"x": -2.4974834709,
				"y": -2.6713982446,
				"z": -1.4377167758,
				"element": "H" 
			},
			{
				"x": -0.7956598839,
				"y": -1.4152211745,
				"z": -0.1435743955,
				"element": "H" 
			}
		],
		 "valence_orbital": [ 
			{
				"type": "occ",
				"energy": -0.28332,
				"method": "rhf"
			},
			{
				"type": "occ",
				"energy": -0.27113,
				"method": "rhf"
			},
			{
				"type": "occ",
				"energy": -0.25954,
				"method": "rhf"
			},
			{
				"type": "occ",
				"energy": -0.25268,
				"method": "rhf"
			},
			{
				"type": "occ",
				"energy": -0.23386,
				"method": "rhf"
			},
			{
				"type": "unocc",
				"energy": -0.04304,
				"method": "rhf"
			},
			{
				"type": "unocc",
				"energy": -0.03031,
				"method": "rhf"
			},
			{
				"type": "unocc",
				"energy": -0.02175,
				"method": "rhf"
			},
			{
				"type": "unocc",
				"energy": -0.01483,
				"method": "rhf"
			},
			{
				"type": "unocc",
				"energy": 0.02302,
				"method": "rhf"
			}
		],
		"cosmo_sigma_profile": { 
			"-0.025": 0.0,
			"-0.024": 0.0,
			"-0.023": 0.0,
			"-0.022": 0.0,
			"-0.021": 0.0,
			"-0.02": 0.0,
			"-0.019": 0.0,
			"-0.018": 0.0,
			"-0.017": 0.0,
			"-0.016": 0.0,
			"-0.015": 0.0,
			"-0.014": 0.21541332203,
			"-0.013": 0.806979199024,
			"-0.012": 0.591052369021,
			"-0.011": 0.68294721724,
			"-0.01": 0.591377409918,
			"-0.009": 0.479186924069,
			"-0.008": 2.17607910659,
			"-0.007": 12.6920302785,
			"-0.006": 18.6234361005,
			"-0.005": 19.5394816061,
			"-0.004": 15.0134359923,
			"-0.003": 14.4876785644,
			"-0.002": 13.6258875403,
			"-0.001": 14.4748784941,
			"0.0": 20.2949539896,
			"0.001": 22.5455741399,
			"0.002": 26.1409763756,
			"0.003": 28.4155117694,
			"0.004": 13.1332423487,
			"0.005": 4.15295927192,
			"0.006": 2.2698941429,
			"0.007": 2.82558547556,
			"0.008": 1.90952143593,
			"0.009": 2.17555002668,
			"0.01": 3.00039664437,
			"0.011": 3.1526064643,
			"0.012": 6.27038520788,
			"0.013": 3.45312987926,
			"0.014": 0.733353174316,
			"0.015": 0.0310020195106,
			"0.016": 0.0,
			"0.017": 0.0,
			"0.018": 0.0,
			"0.019": 0.0,
			"0.02": 0.0,
			"0.021": 0.0,
			"0.022": 0.0,
			"0.023": 0.0,
			"0.024": 0.0,
			"0.025": 0.0
		}
	}
}
