{
	 "smiles": "CC1C(C)(C)C2=CC3=C(C=C2C1(C)C)C(C)COC3", 
	 "Tm": 268.15, 
	 "num_atms": 45, 
	 "gaussian": { 
		 "optdone": 1, 
		 "sigma_profile": "yes", 
		 "theory": "DFT", 
		 "functional": "B3LYP", 
		 "basiset": "6-31G**", 
		 "properties": { 
			 "R2extent": 6063.1284, 
			 "electric_dipole_moment_norm": 1.51904673068, 
			 "electric_quadrupole_moment_norm": 6.99141739278, 
			 "total_energy": -776.831137317, 
			 "HOMO_LUMO_gap": 0.21901, 
			 "cosmo_polarized_energy": -5.83, 
			 "cosmo_cavitation_energy": 41.57, 
			 "cosmo_dispersion_energy": -28.71, 
			 "cosmo_repulsion_energy": 2.18, 
			 "cosmo_total_nonelectrostatic_energy": 15.04, 
			 "SMD_solvation_energy": 6.64 
		},
		"coords": [
			{
				"x": 1.922069189,
				"y": -1.889361832,
				"z": 1.6879161879,
				"element": "C" 
			},
			{
				"x": 1.1875078357,
				"y": -2.3022634933,
				"z": 0.4030348949,
				"element": "C" 
			},
			{
				"x": -0.3914719902,
				"y": -2.3421290304,
				"z": 0.5592683807,
				"element": "C" 
			},
			{
				"x": -0.9775044993,
				"y": -3.5987933725,
				"z": -0.1312854302,
				"element": "C" 
			},
			{
				"x": -0.8913233769,
				"y": -2.3461323963,
				"z": 2.0180796066,
				"element": "C" 
			},
			{
				"x": -0.8304377626,
				"y": -1.0856164331,
				"z": -0.1819611046,
				"element": "C" 
			},
			{
				"x": -2.0886331477,
				"y": -0.4894539862,
				"z": -0.1903241571,
				"element": "C" 
			},
			{
				"x": -2.3201198262,
				"y": 0.6631052602,
				"z": -0.9527030799,
				"element": "C" 
			},
			{
				"x": -1.2828880607,
				"y": 1.2159735465,
				"z": -1.721933983,
				"element": "C" 
			},
			{
				"x": -0.0217778433,
				"y": 0.6021175764,
				"z": -1.7113423051,
				"element": "C" 
			},
			{
				"x": 0.2058630266,
				"y": -0.5387037379,
				"z": -0.9462606342,
				"element": "C" 
			},
			{
				"x": 1.488379058,
				"y": -1.3534732717,
				"z": -0.8332161209,
				"element": "C" 
			},
			{
				"x": 2.7251297203,
				"y": -0.448953983,
				"z": -0.6605623085,
				"element": "C" 
			},
			{
				"x": 1.7034775541,
				"y": -2.1865268326,
				"z": -2.1213373349,
				"element": "C" 
			},
			{
				"x": -1.5270929773,
				"y": 2.4781755298,
				"z": -2.5371469938,
				"element": "C" 
			},
			{
				"x": -0.9344261473,
				"y": 3.7219938369,
				"z": -1.8473618375,
				"element": "C" 
			},
			{
				"x": -3.0342612468,
				"y": 2.6465025348,
				"z": -2.7688991183,
				"element": "C" 
			},
			{
				"x": -3.7367327551,
				"y": 2.587791162,
				"z": -1.5336509524,
				"element": "O" 
			},
			{
				"x": -3.7048220992,
				"y": 1.2841545975,
				"z": -0.9786794308,
				"element": "C" 
			},
			{
				"x": 1.6434417531,
				"y": -0.8852228863,
				"z": 2.0239948504,
				"element": "H" 
			},
			{
				"x": 3.0053504066,
				"y": -1.8998412274,
				"z": 1.5398109426,
				"element": "H" 
			},
			{
				"x": 1.7035839927,
				"y": -2.5837131544,
				"z": 2.5038160565,
				"element": "H" 
			},
			{
				"x": 1.5354603936,
				"y": -3.3128891942,
				"z": 0.1553358222,
				"element": "H" 
			},
			{
				"x": -0.6905400548,
				"y": -3.6625125777,
				"z": -1.183751654,
				"element": "H" 
			},
			{
				"x": -0.63121894,
				"y": -4.5103840558,
				"z": 0.3697927633,
				"element": "H" 
			},
			{
				"x": -2.0721761174,
				"y": -3.5876069829,
				"z": -0.0890831835,
				"element": "H" 
			},
			{
				"x": -1.9861171428,
				"y": -2.3671053701,
				"z": 2.038822817,
				"element": "H" 
			},
			{
				"x": -0.5432407538,
				"y": -3.2345835581,
				"z": 2.5559348792,
				"element": "H" 
			},
			{
				"x": -0.5693194591,
				"y": -1.4609525448,
				"z": 2.5718959426,
				"element": "H" 
			},
			{
				"x": -2.9017513665,
				"y": -0.9078726928,
				"z": 0.4006990767,
				"element": "H" 
			},
			{
				"x": 0.7773082339,
				"y": 1.0326902515,
				"z": -2.3120531984,
				"element": "H" 
			},
			{
				"x": 2.8590877107,
				"y": 0.1760443788,
				"z": -1.5498525463,
				"element": "H" 
			},
			{
				"x": 2.6366776615,
				"y": 0.2187852095,
				"z": 0.199814408,
				"element": "H" 
			},
			{
				"x": 3.6389916111,
				"y": -1.0415498777,
				"z": -0.5442205203,
				"element": "H" 
			},
			{
				"x": 0.8563508119,
				"y": -2.8434006131,
				"z": -2.3334624995,
				"element": "H" 
			},
			{
				"x": 1.835437538,
				"y": -1.5298373876,
				"z": -2.9882513565,
				"element": "H" 
			},
			{
				"x": 2.6011333478,
				"y": -2.8096125051,
				"z": -2.0318480351,
				"element": "H" 
			},
			{
				"x": -1.0430693082,
				"y": 2.359612603,
				"z": -3.5170125442,
				"element": "H" 
			},
			{
				"x": -1.4596739914,
				"y": 3.9151109129,
				"z": -0.9076885923,
				"element": "H" 
			},
			{
				"x": 0.1274595829,
				"y": 3.5834823506,
				"z": -1.6231924763,
				"element": "H" 
			},
			{
				"x": -1.0358656628,
				"y": 4.6073107259,
				"z": -2.4856765442,
				"element": "H" 
			},
			{
				"x": -3.2596251879,
				"y": 3.6247788876,
				"z": -3.2049369517,
				"element": "H" 
			},
			{
				"x": -3.4074356978,
				"y": 1.8700311995,
				"z": -3.4575148014,
				"element": "H" 
			},
			{
				"x": -4.3902936344,
				"y": 0.6223814482,
				"z": -1.540006327,
				"element": "H" 
			},
			{
				"x": -4.1050903782,
				"y": 1.3752509853,
				"z": 0.0368993931,
				"element": "H" 
			}
		],
		 "valence_orbital": [ 
			{
				"type": "occ",
				"energy": -0.29997,
				"method": "rhf"
			},
			{
				"type": "occ",
				"energy": -0.29347,
				"method": "rhf"
			},
			{
				"type": "occ",
				"energy": -0.24864,
				"method": "rhf"
			},
			{
				"type": "occ",
				"energy": -0.23352,
				"method": "rhf"
			},
			{
				"type": "occ",
				"energy": -0.22097,
				"method": "rhf"
			},
			{
				"type": "unocc",
				"energy": -0.00196,
				"method": "rhf"
			},
			{
				"type": "unocc",
				"energy": 0.01026,
				"method": "rhf"
			},
			{
				"type": "unocc",
				"energy": 0.0781,
				"method": "rhf"
			},
			{
				"type": "unocc",
				"energy": 0.09686,
				"method": "rhf"
			},
			{
				"type": "unocc",
				"energy": 0.10277,
				"method": "rhf"
			}
		],
		"cosmo_sigma_profile": { 
			"-0.025": 0.0,
			"-0.024": 0.0,
			"-0.023": 0.0,
			"-0.022": 0.0,
			"-0.021": 0.0,
			"-0.02": 0.0,
			"-0.019": 0.0,
			"-0.018": 0.0,
			"-0.017": 0.0,
			"-0.016": 0.0,
			"-0.015": 0.0,
			"-0.014": 0.0,
			"-0.013": 0.0,
			"-0.012": 0.0,
			"-0.011": 0.0,
			"-0.01": 0.0,
			"-0.009": 0.0,
			"-0.008": 0.0,
			"-0.007": 0.0,
			"-0.006": 0.115569973368,
			"-0.005": 5.0907056341,
			"-0.004": 17.8050433478,
			"-0.003": 38.2222422115,
			"-0.002": 54.7889855835,
			"-0.001": 44.130803533,
			"0.0": 43.0150993239,
			"0.001": 44.9765091525,
			"0.002": 28.1091659437,
			"0.003": 10.348494191,
			"0.004": 7.92779232093,
			"0.005": 5.91227815856,
			"0.006": 6.57977342369,
			"0.007": 6.5111593437,
			"0.008": 1.25289036289,
			"0.009": 0.862160805649,
			"0.01": 0.829604929139,
			"0.011": 1.47478492164,
			"0.012": 1.07823933773,
			"0.013": 1.67390478319,
			"0.014": 0.546301211568,
			"0.015": 0.0,
			"0.016": 0.0,
			"0.017": 0.0,
			"0.018": 0.0,
			"0.019": 0.0,
			"0.02": 0.0,
			"0.021": 0.0,
			"0.022": 0.0,
			"0.023": 0.0,
			"0.024": 0.0,
			"0.025": 0.0
		}
	}
}
