{
	 "smiles": "CC1=CC(C)=C(C(C)=C1)C1(C)CC(C1)C(=O)C1=CC2=C(O1)C=CC=C2", 
	 "Tm": 421.15, 
	 "num_atms": 49, 
	 "gaussian": { 
		 "optdone": 1, 
		 "sigma_profile": "yes", 
		 "theory": "DFT", 
		 "functional": "B3LYP", 
		 "basiset": "6-31G**", 
		 "properties": { 
			 "R2extent": 13081.8685, 
			 "electric_dipole_moment_norm": 2.69976852526, 
			 "electric_quadrupole_moment_norm": 15.6919381821, 
			 "total_energy": -1041.34721887, 
			 "HOMO_LUMO_gap": 0.15272, 
			 "cosmo_polarized_energy": -10.81, 
			 "cosmo_cavitation_energy": 49.77, 
			 "cosmo_dispersion_energy": -34.64, 
			 "cosmo_repulsion_energy": 2.59, 
			 "cosmo_total_nonelectrostatic_energy": 17.72, 
			 "SMD_solvation_energy": 8.75 
		},
		"coords": [
			{
				"x": -3.7165612914,
				"y": -5.7177066194,
				"z": 2.7703790853,
				"element": "C" 
			},
			{
				"x": -2.6656050469,
				"y": -4.7138101643,
				"z": 2.360444477,
				"element": "C" 
			},
			{
				"x": -2.5657483169,
				"y": -3.4701992165,
				"z": 2.9821128905,
				"element": "C" 
			},
			{
				"x": -1.6257726338,
				"y": -2.5083060576,
				"z": 2.5918875191,
				"element": "C" 
			},
			{
				"x": -1.5997839484,
				"y": -1.2234116567,
				"z": 3.399827768,
				"element": "C" 
			},
			{
				"x": -0.7459895436,
				"y": -2.7763241228,
				"z": 1.5130157709,
				"element": "C" 
			},
			{
				"x": -0.7922007284,
				"y": -4.0640196005,
				"z": 0.921648173,
				"element": "C" 
			},
			{
				"x": 0.1729427649,
				"y": -4.5316324443,
				"z": -0.152152838,
				"element": "C" 
			},
			{
				"x": -1.7495755909,
				"y": -4.9929666566,
				"z": 1.3472442481,
				"element": "C" 
			},
			{
				"x": 0.279455627,
				"y": -1.7325608088,
				"z": 1.0527041047,
				"element": "C" 
			},
			{
				"x": 1.5850230737,
				"y": -1.8781946703,
				"z": 1.8605471075,
				"element": "C" 
			},
			{
				"x": -0.17689487,
				"y": -0.2304274359,
				"z": 0.9875965202,
				"element": "C" 
			},
			{
				"x": 0.5891284275,
				"y": -0.0728084697,
				"z": -0.3621998832,
				"element": "C" 
			},
			{
				"x": 0.5798008879,
				"y": -1.6066948747,
				"z": -0.484438404,
				"element": "C" 
			},
			{
				"x": -0.1318898154,
				"y": 0.7115029193,
				"z": -1.4356229275,
				"element": "C" 
			},
			{
				"x": -0.8911478815,
				"y": 0.1886986678,
				"z": -2.2428300526,
				"element": "O" 
			},
			{
				"x": 0.0610128153,
				"y": 2.1729598778,
				"z": -1.4704653395,
				"element": "C" 
			},
			{
				"x": -0.4899689786,
				"y": 3.1139693219,
				"z": -2.2929882321,
				"element": "C" 
			},
			{
				"x": 0.0435327267,
				"y": 4.3799264451,
				"z": -1.8813996448,
				"element": "C" 
			},
			{
				"x": 0.905231994,
				"y": 4.0903435205,
				"z": -0.8017941281,
				"element": "C" 
			},
			{
				"x": 0.9186401403,
				"y": 2.7497430728,
				"z": -0.5491229518,
				"element": "O" 
			},
			{
				"x": 1.6272710738,
				"y": 5.0595142533,
				"z": -0.1121843992,
				"element": "C" 
			},
			{
				"x": 1.4630629199,
				"y": 6.3741543301,
				"z": -0.541216269,
				"element": "C" 
			},
			{
				"x": 0.6095902644,
				"y": 6.6976902032,
				"z": -1.6169622501,
				"element": "C" 
			},
			{
				"x": -0.1035091202,
				"y": 5.7164220067,
				"z": -2.2939760722,
				"element": "C" 
			},
			{
				"x": -3.3708333504,
				"y": -6.7449860646,
				"z": 2.6182333961,
				"element": "H" 
			},
			{
				"x": -4.6348246076,
				"y": -5.594586938,
				"z": 2.1820332233,
				"element": "H" 
			},
			{
				"x": -3.9899321333,
				"y": -5.6045360485,
				"z": 3.8241088927,
				"element": "H" 
			},
			{
				"x": -3.2328723458,
				"y": -3.2373328569,
				"z": 3.809807283,
				"element": "H" 
			},
			{
				"x": -2.1160831987,
				"y": -1.3742435481,
				"z": 4.3518708713,
				"element": "H" 
			},
			{
				"x": -2.1039344677,
				"y": -0.3953372873,
				"z": 2.8901318661,
				"element": "H" 
			},
			{
				"x": -0.5848637423,
				"y": -0.889898343,
				"z": 3.6298035653,
				"element": "H" 
			},
			{
				"x": 0.1496967896,
				"y": -5.6226597928,
				"z": -0.2213097683,
				"element": "H" 
			},
			{
				"x": 1.2059133999,
				"y": -4.2404320031,
				"z": 0.0542999907,
				"element": "H" 
			},
			{
				"x": -0.0803944009,
				"y": -4.1400337277,
				"z": -1.1426462894,
				"element": "H" 
			},
			{
				"x": -1.7674418115,
				"y": -5.9724257646,
				"z": 0.8733138684,
				"element": "H" 
			},
			{
				"x": 2.0227476163,
				"y": -2.8715834974,
				"z": 1.7190423767,
				"element": "H" 
			},
			{
				"x": 1.4035148558,
				"y": -1.7507724163,
				"z": 2.9325560432,
				"element": "H" 
			},
			{
				"x": 2.3326714951,
				"y": -1.1369575528,
				"z": 1.5556034411,
				"element": "H" 
			},
			{
				"x": 0.1212707563,
				"y": 0.4342336894,
				"z": 1.8018524096,
				"element": "H" 
			},
			{
				"x": -1.2547091516,
				"y": -0.1472173656,
				"z": 0.827618554,
				"element": "H" 
			},
			{
				"x": 1.5843965149,
				"y": 0.3466769887,
				"z": -0.1952358771,
				"element": "H" 
			},
			{
				"x": 1.4912556003,
				"y": -2.0780237493,
				"z": -0.8613598843,
				"element": "H" 
			},
			{
				"x": -0.2684764256,
				"y": -1.9136321462,
				"z": -1.0991349185,
				"element": "H" 
			},
			{
				"x": -1.1894682837,
				"y": 2.9038692289,
				"z": -3.0885776306,
				"element": "H" 
			},
			{
				"x": 2.2801113797,
				"y": 4.7970726608,
				"z": 0.7129528971,
				"element": "H" 
			},
			{
				"x": 2.0045032136,
				"y": 7.1683921234,
				"z": -0.0362701499,
				"element": "H" 
			},
			{
				"x": 0.5112861183,
				"y": 7.7361620886,
				"z": -1.9182752256,
				"element": "H" 
			},
			{
				"x": -0.7585787702,
				"y": 5.9729905018,
				"z": -3.120873207,
				"element": "H" 
			}
		],
		 "valence_orbital": [ 
			{
				"type": "occ",
				"energy": -0.25007,
				"method": "rhf"
			},
			{
				"type": "occ",
				"energy": -0.24804,
				"method": "rhf"
			},
			{
				"type": "occ",
				"energy": -0.23111,
				"method": "rhf"
			},
			{
				"type": "occ",
				"energy": -0.22534,
				"method": "rhf"
			},
			{
				"type": "occ",
				"energy": -0.21846,
				"method": "rhf"
			},
			{
				"type": "unocc",
				"energy": -0.06574,
				"method": "rhf"
			},
			{
				"type": "unocc",
				"energy": -0.00142,
				"method": "rhf"
			},
			{
				"type": "unocc",
				"energy": 0.00828,
				"method": "rhf"
			},
			{
				"type": "unocc",
				"energy": 0.01141,
				"method": "rhf"
			},
			{
				"type": "unocc",
				"energy": 0.01266,
				"method": "rhf"
			}
		],
		"cosmo_sigma_profile": { 
			"-0.025": 0.0,
			"-0.024": 0.0,
			"-0.023": 0.0,
			"-0.022": 0.0,
			"-0.021": 0.0,
			"-0.02": 0.0,
			"-0.019": 0.0,
			"-0.018": 0.0,
			"-0.017": 0.0,
			"-0.016": 0.0,
			"-0.015": 0.0,
			"-0.014": 0.0,
			"-0.013": 0.0,
			"-0.012": 0.0,
			"-0.011": 0.0,
			"-0.01": 0.0,
			"-0.009": 0.22023545506,
			"-0.008": 1.41476139356,
			"-0.007": 4.51236752356,
			"-0.006": 9.18338468926,
			"-0.005": 13.5084295909,
			"-0.004": 36.5873566956,
			"-0.003": 44.9291966091,
			"-0.002": 38.855848389,
			"-0.001": 42.6445247838,
			"0.0": 45.0626130182,
			"0.001": 43.9219523177,
			"0.002": 27.4920463518,
			"0.003": 21.5889306168,
			"0.004": 18.1592699323,
			"0.005": 14.0077598532,
			"0.006": 8.67585997983,
			"0.007": 7.17407290923,
			"0.008": 3.14343309339,
			"0.009": 1.99853593407,
			"0.01": 2.06736463514,
			"0.011": 2.96595738128,
			"0.012": 4.45793725522,
			"0.013": 0.6169910679,
			"0.014": 0.0,
			"0.015": 0.0,
			"0.016": 0.0,
			"0.017": 0.0,
			"0.018": 0.0,
			"0.019": 0.0,
			"0.02": 0.0,
			"0.021": 0.0,
			"0.022": 0.0,
			"0.023": 0.0,
			"0.024": 0.0,
			"0.025": 0.0
		}
	}
}
