{
	 "smiles": "CC1=CC(Cl)=NC(Cl)=N1", 
	 "Tm": 319.35, 
	 "num_atms": 13, 
	 "gaussian": { 
		 "optdone": 1, 
		 "sigma_profile": "yes", 
		 "theory": "DFT", 
		 "functional": "B3LYP", 
		 "basiset": "6-31G**", 
		 "properties": { 
			 "R2extent": 5628.6358, 
			 "electric_dipole_moment_norm": 3.89630029772, 
			 "electric_quadrupole_moment_norm": 15.2704694338, 
			 "total_energy": -1222.83167336, 
			 "HOMO_LUMO_gap": 0.22211, 
			 "cosmo_polarized_energy": -7.65, 
			 "cosmo_cavitation_energy": 21.39, 
			 "cosmo_dispersion_energy": -16.33, 
			 "cosmo_repulsion_energy": 1.37, 
			 "cosmo_total_nonelectrostatic_energy": 6.42, 
			 "SMD_solvation_energy": 0.51 
		},
		"coords": [
			{
				"x": -0.5190916866,
				"y": 0.3186177713,
				"z": 1.3414364075,
				"element": "C" 
			},
			{
				"x": -0.7753444474,
				"y": 1.7620330665,
				"z": 1.0037770246,
				"element": "C" 
			},
			{
				"x": 0.2701981971,
				"y": 2.6414209801,
				"z": 0.6971064336,
				"element": "C" 
			},
			{
				"x": -0.0965763879,
				"y": 3.9503381658,
				"z": 0.4023453966,
				"element": "C" 
			},
			{
				"x": 1.1381990026,
				"y": 5.1250362087,
				"z": 0.0063414452,
				"element": "Cl" 
			},
			{
				"x": -1.3508855514,
				"y": 4.3791135678,
				"z": 0.4009769064,
				"element": "N" 
			},
			{
				"x": -2.2544071267,
				"y": 3.4541247032,
				"z": 0.7066429615,
				"element": "C" 
			},
			{
				"x": -3.9184841005,
				"y": 3.9931327513,
				"z": 0.7137660754,
				"element": "Cl" 
			},
			{
				"x": -2.0544953372,
				"y": 2.1785276518,
				"z": 1.0075559549,
				"element": "N" 
			},
			{
				"x": -1.4635939193,
				"y": -0.1860980112,
				"z": 1.5460054663,
				"element": "H" 
			},
			{
				"x": 0.1296678251,
				"y": 0.2349138129,
				"z": 2.2200190019,
				"element": "H" 
			},
			{
				"x": -0.0130390573,
				"y": -0.1896565849,
				"z": 0.5135673234,
				"element": "H" 
			},
			{
				"x": 1.3054525896,
				"y": 2.3244959166,
				"z": 0.6889596027,
				"element": "H" 
			}
		],
		 "valence_orbital": [ 
			{
				"type": "occ",
				"energy": -0.33324,
				"method": "rhf"
			},
			{
				"type": "occ",
				"energy": -0.32395,
				"method": "rhf"
			},
			{
				"type": "occ",
				"energy": -0.31413,
				"method": "rhf"
			},
			{
				"type": "occ",
				"energy": -0.28202,
				"method": "rhf"
			},
			{
				"type": "occ",
				"energy": -0.28164,
				"method": "rhf"
			},
			{
				"type": "unocc",
				"energy": -0.05953,
				"method": "rhf"
			},
			{
				"type": "unocc",
				"energy": -0.05205,
				"method": "rhf"
			},
			{
				"type": "unocc",
				"energy": 0.01043,
				"method": "rhf"
			},
			{
				"type": "unocc",
				"energy": 0.04069,
				"method": "rhf"
			},
			{
				"type": "unocc",
				"energy": 0.0952,
				"method": "rhf"
			}
		],
		"cosmo_sigma_profile": { 
			"-0.025": 0.0,
			"-0.024": 0.0,
			"-0.023": 0.0,
			"-0.022": 0.0,
			"-0.021": 0.0,
			"-0.02": 0.0,
			"-0.019": 0.0,
			"-0.018": 0.0,
			"-0.017": 0.0,
			"-0.016": 0.0,
			"-0.015": 0.0,
			"-0.014": 0.0,
			"-0.013": 0.0,
			"-0.012": 0.0,
			"-0.011": 0.0,
			"-0.01": 0.273946503476,
			"-0.009": 1.9636621138,
			"-0.008": 1.93755005239,
			"-0.007": 3.25598764493,
			"-0.006": 8.55599807884,
			"-0.005": 10.5143722616,
			"-0.004": 11.0209061341,
			"-0.003": 17.684087667,
			"-0.002": 20.2011125523,
			"-0.001": 14.9174313235,
			"0.0": 9.28404870082,
			"0.001": 9.73755243323,
			"0.002": 14.0885564439,
			"0.003": 18.6282039362,
			"0.004": 12.3876012646,
			"0.005": 5.95024480147,
			"0.006": 3.56618149755,
			"0.007": 2.92962880455,
			"0.008": 2.33930354629,
			"0.009": 2.53419458482,
			"0.01": 1.54100253462,
			"0.011": 1.75669968448,
			"0.012": 1.28996827684,
			"0.013": 0.431729632996,
			"0.014": 0.00480778466077,
			"0.015": 0.0,
			"0.016": 0.0,
			"0.017": 0.0,
			"0.018": 0.0,
			"0.019": 0.0,
			"0.02": 0.0,
			"0.021": 0.0,
			"0.022": 0.0,
			"0.023": 0.0,
			"0.024": 0.0,
			"0.025": 0.0
		}
	}
}
