{
	 "smiles": "ON=C1C(=O)NC2=C1C=C(Br)C=C2", 
	 "Tm": 542.15, 
	 "num_atms": 18, 
	 "gaussian": { 
		 "optdone": 1, 
		 "sigma_profile": "yes", 
		 "theory": "DFT", 
		 "functional": "B3LYP", 
		 "basiset": "6-31G**", 
		 "properties": { 
			 "R2extent": 4409.1308, 
			 "electric_dipole_moment_norm": 1.87998660634, 
			 "electric_quadrupole_moment_norm": 20.1941191217, 
			 "total_energy": -3139.17176302, 
			 "HOMO_LUMO_gap": 0.14211, 
			 "cosmo_polarized_energy": -16.08, 
			 "cosmo_cavitation_energy": 25.82, 
			 "cosmo_dispersion_energy": -19.66, 
			 "cosmo_repulsion_energy": 1.56, 
			 "cosmo_total_nonelectrostatic_energy": 7.72, 
			 "SMD_solvation_energy": 3.82 
		},
		"coords": [
			{
				"x": -0.1948621404,
				"y": -2.2282203411,
				"z": 2.0349869628,
				"element": "O" 
			},
			{
				"x": 0.4297850389,
				"y": -1.0361966907,
				"z": 2.3560329306,
				"element": "N" 
			},
			{
				"x": 0.6436010998,
				"y": -0.310909909,
				"z": 1.315654513,
				"element": "C" 
			},
			{
				"x": 1.3248704897,
				"y": 1.0358904222,
				"z": 1.4899880092,
				"element": "C" 
			},
			{
				"x": 1.7228818175,
				"y": 1.5760231962,
				"z": 2.4995036292,
				"element": "O" 
			},
			{
				"x": 1.4010742806,
				"y": 1.5514309902,
				"z": 0.1975089328,
				"element": "N" 
			},
			{
				"x": 0.8522294235,
				"y": 0.6875724781,
				"z": -0.7513070188,
				"element": "C" 
			},
			{
				"x": 0.370154192,
				"y": -0.4782887391,
				"z": -0.1107506233,
				"element": "C" 
			},
			{
				"x": -0.2260392461,
				"y": -1.495590497,
				"z": -0.8542668156,
				"element": "C" 
			},
			{
				"x": -0.3275931395,
				"y": -1.3218639017,
				"z": -2.236885064,
				"element": "C" 
			},
			{
				"x": -1.1396278315,
				"y": -2.6958880969,
				"z": -3.2901536311,
				"element": "Br" 
			},
			{
				"x": 0.1477233973,
				"y": -0.1721873113,
				"z": -2.8692247047,
				"element": "C" 
			},
			{
				"x": 0.7471854226,
				"y": 0.8521362879,
				"z": -2.1259527008,
				"element": "C" 
			},
			{
				"x": -0.289327043,
				"y": -2.6601634928,
				"z": 2.8958260112,
				"element": "H" 
			},
			{
				"x": 1.8136197075,
				"y": 2.4516145316,
				"z": 0.0055559711,
				"element": "H" 
			},
			{
				"x": -0.5970765411,
				"y": -2.3894171139,
				"z": -0.3728468251,
				"element": "H" 
			},
			{
				"x": 0.0516971349,
				"y": -0.0720349046,
				"z": -3.9443164079,
				"element": "H" 
			},
			{
				"x": 1.1159039373,
				"y": 1.7451930917,
				"z": -2.6203531686,
				"element": "H" 
			}
		],
		 "valence_orbital": [ 
			{
				"type": "occ",
				"energy": -0.29147,
				"method": "rhf"
			},
			{
				"type": "occ",
				"energy": -0.29138,
				"method": "rhf"
			},
			{
				"type": "occ",
				"energy": -0.27036,
				"method": "rhf"
			},
			{
				"type": "occ",
				"energy": -0.26083,
				"method": "rhf"
			},
			{
				"type": "occ",
				"energy": -0.22546,
				"method": "rhf"
			},
			{
				"type": "unocc",
				"energy": -0.08335,
				"method": "rhf"
			},
			{
				"type": "unocc",
				"energy": -0.02282,
				"method": "rhf"
			},
			{
				"type": "unocc",
				"energy": 0.00135,
				"method": "rhf"
			},
			{
				"type": "unocc",
				"energy": 0.00671,
				"method": "rhf"
			},
			{
				"type": "unocc",
				"energy": 0.05518,
				"method": "rhf"
			}
		],
		"cosmo_sigma_profile": { 
			"-0.025": 0.0,
			"-0.024": 0.0,
			"-0.023": 0.0,
			"-0.022": 0.0,
			"-0.021": 0.0,
			"-0.02": 0.0219997654976,
			"-0.019": 0.670391172321,
			"-0.018": 1.39164560416,
			"-0.017": 0.861529111314,
			"-0.016": 2.45332026015,
			"-0.015": 2.12527334074,
			"-0.014": 2.07274981948,
			"-0.013": 1.23274254089,
			"-0.012": 2.24712716027,
			"-0.011": 1.99413026101,
			"-0.01": 2.01656279169,
			"-0.009": 2.02126626232,
			"-0.008": 3.69194877322,
			"-0.007": 5.82416773401,
			"-0.006": 5.92604920389,
			"-0.005": 6.57615850339,
			"-0.004": 8.23345954894,
			"-0.003": 9.97643347822,
			"-0.002": 10.3046328207,
			"-0.001": 14.2806699367,
			"0.0": 16.5874793693,
			"0.001": 20.1164314617,
			"0.002": 25.0829747414,
			"0.003": 15.9241152048,
			"0.004": 12.8659723716,
			"0.005": 9.40123721955,
			"0.006": 3.33975609556,
			"0.007": 2.6131057098,
			"0.008": 1.63950436959,
			"0.009": 2.29520159455,
			"0.01": 2.78752103446,
			"0.011": 4.51582884572,
			"0.012": 7.14923245409,
			"0.013": 2.78338825559,
			"0.014": 0.142604673258,
			"0.015": 0.0,
			"0.016": 0.0,
			"0.017": 0.0,
			"0.018": 0.0,
			"0.019": 0.0,
			"0.02": 0.0,
			"0.021": 0.0,
			"0.022": 0.0,
			"0.023": 0.0,
			"0.024": 0.0,
			"0.025": 0.0
		}
	}
}
