{
	 "smiles": "CSC1=NOC(N)=N1", 
	 "Tm": 374.15, 
	 "num_atms": 13, 
	 "gaussian": { 
		 "optdone": 1, 
		 "sigma_profile": "yes", 
		 "theory": "DFT", 
		 "functional": "B3LYP", 
		 "basiset": "6-31G**", 
		 "properties": { 
			 "R2extent": 2287.2612, 
			 "electric_dipole_moment_norm": 4.49931299422, 
			 "electric_quadrupole_moment_norm": 12.781815648, 
			 "total_energy": -754.95608614, 
			 "HOMO_LUMO_gap": 0.22607, 
			 "cosmo_polarized_energy": -13.93, 
			 "cosmo_cavitation_energy": 19.33, 
			 "cosmo_dispersion_energy": -15.21, 
			 "cosmo_repulsion_energy": 1.24, 
			 "cosmo_total_nonelectrostatic_energy": 5.37, 
			 "SMD_solvation_energy": 2.04 
		},
		"coords": [
			{
				"x": 1.597876157,
				"y": 0.8653225675,
				"z": -4.0904404208,
				"element": "C" 
			},
			{
				"x": 2.7568045075,
				"y": 0.0566956438,
				"z": -2.930775098,
				"element": "S" 
			},
			{
				"x": 1.9314547561,
				"y": 0.3703130335,
				"z": -1.4039825898,
				"element": "C" 
			},
			{
				"x": 2.5065788882,
				"y": 0.0476368994,
				"z": -0.2684396173,
				"element": "N" 
			},
			{
				"x": 1.5101306002,
				"y": 0.4369049454,
				"z": 0.6892967602,
				"element": "O" 
			},
			{
				"x": 0.4960478454,
				"y": 0.940670952,
				"z": -0.0214771466,
				"element": "C" 
			},
			{
				"x": -0.5695337007,
				"y": 1.4366277943,
				"z": 0.6561708927,
				"element": "N" 
			},
			{
				"x": 0.6783306161,
				"y": 0.9307006532,
				"z": -1.3191005624,
				"element": "N" 
			},
			{
				"x": 2.0197853199,
				"y": 0.6974416916,
				"z": -5.0835333124,
				"element": "H" 
			},
			{
				"x": 1.5319659406,
				"y": 1.9355937976,
				"z": -3.89339267,
				"element": "H" 
			},
			{
				"x": 0.6077627662,
				"y": 0.4148990716,
				"z": -4.0258638677,
				"element": "H" 
			},
			{
				"x": -1.4058009641,
				"y": 1.5856902443,
				"z": 0.1132169031,
				"element": "H" 
			},
			{
				"x": -0.6931027325,
				"y": 1.1339027057,
				"z": 1.6102207291,
				"element": "H" 
			}
		],
		 "valence_orbital": [ 
			{
				"type": "occ",
				"energy": -0.34007,
				"method": "rhf"
			},
			{
				"type": "occ",
				"energy": -0.33327,
				"method": "rhf"
			},
			{
				"type": "occ",
				"energy": -0.2931,
				"method": "rhf"
			},
			{
				"type": "occ",
				"energy": -0.26097,
				"method": "rhf"
			},
			{
				"type": "occ",
				"energy": -0.22464,
				"method": "rhf"
			},
			{
				"type": "unocc",
				"energy": 0.00143,
				"method": "rhf"
			},
			{
				"type": "unocc",
				"energy": 0.02577,
				"method": "rhf"
			},
			{
				"type": "unocc",
				"energy": 0.04717,
				"method": "rhf"
			},
			{
				"type": "unocc",
				"energy": 0.06084,
				"method": "rhf"
			},
			{
				"type": "unocc",
				"energy": 0.07437,
				"method": "rhf"
			}
		],
		"cosmo_sigma_profile": { 
			"-0.025": 0.0,
			"-0.024": 0.0,
			"-0.023": 0.0,
			"-0.022": 0.0,
			"-0.021": 0.0,
			"-0.02": 0.0,
			"-0.019": 0.0,
			"-0.018": 0.0,
			"-0.017": 0.0022203924067,
			"-0.016": 1.41873975427,
			"-0.015": 2.49421082156,
			"-0.014": 2.78705693949,
			"-0.013": 2.28766566709,
			"-0.012": 1.94980120353,
			"-0.011": 1.93978723052,
			"-0.01": 2.57911891084,
			"-0.009": 1.78892290317,
			"-0.008": 2.18378792788,
			"-0.007": 3.88915806241,
			"-0.006": 6.04549116294,
			"-0.005": 6.84367690417,
			"-0.004": 7.22012011485,
			"-0.003": 8.90275075217,
			"-0.002": 11.4996830777,
			"-0.001": 7.68295176966,
			"0.0": 7.06503623085,
			"0.001": 8.92542921282,
			"0.002": 8.58213258068,
			"0.003": 9.25419966116,
			"0.004": 9.18549674028,
			"0.005": 7.34755457268,
			"0.006": 6.93312270841,
			"0.007": 10.4143628458,
			"0.008": 4.59291424938,
			"0.009": 3.00160171397,
			"0.01": 2.36327792152,
			"0.011": 2.45537826759,
			"0.012": 2.20480186669,
			"0.013": 1.76480190732,
			"0.014": 0.548251405175,
			"0.015": 0.0,
			"0.016": 0.0,
			"0.017": 0.0,
			"0.018": 0.0,
			"0.019": 0.0,
			"0.02": 0.0,
			"0.021": 0.0,
			"0.022": 0.0,
			"0.023": 0.0,
			"0.024": 0.0,
			"0.025": 0.0
		}
	}
}
