{
	 "smiles": "CC1C2CC(O)C3C(C2O)(C(O)CC2C(C)(C)CCC(O)C32C)C1=O", 
	 "Tm": 555.15, 
	 "num_atms": 57, 
	 "gaussian": { 
		 "optdone": 1, 
		 "sigma_profile": "yes", 
		 "theory": "DFT", 
		 "functional": "B3LYP", 
		 "basiset": "6-31G**", 
		 "properties": { 
			 "R2extent": 7604.6243, 
			 "electric_dipole_moment_norm": 4.58769863548, 
			 "electric_quadrupole_moment_norm": 25.1760932211, 
			 "total_energy": -1157.5062848, 
			 "HOMO_LUMO_gap": 0.21425, 
			 "cosmo_polarized_energy": -22.3, 
			 "cosmo_cavitation_energy": 46.14, 
			 "cosmo_dispersion_energy": -32.87, 
			 "cosmo_repulsion_energy": 2.38, 
			 "cosmo_total_nonelectrostatic_energy": 15.66, 
			 "SMD_solvation_energy": 7.33 
		},
		"coords": [
			{
				"x": 0.2879348906,
				"y": -2.8520729673,
				"z": -3.5702469307,
				"element": "C" 
			},
			{
				"x": -0.6858403695,
				"y": -2.5201515035,
				"z": -2.4455026989,
				"element": "C" 
			},
			{
				"x": -0.3957703247,
				"y": -3.017072609,
				"z": -1.0048539737,
				"element": "C" 
			},
			{
				"x": 0.9782694566,
				"y": -2.5220731018,
				"z": -0.4766100998,
				"element": "C" 
			},
			{
				"x": 0.9347787455,
				"y": -1.3002459288,
				"z": 0.4729376547,
				"element": "C" 
			},
			{
				"x": 2.2755965782,
				"y": -0.8404493119,
				"z": 0.5257013118,
				"element": "O" 
			},
			{
				"x": -0.0646699269,
				"y": -0.175462284,
				"z": 0.0331116956,
				"element": "C" 
			},
			{
				"x": -1.3054504633,
				"y": -0.8314620758,
				"z": -0.6939465778,
				"element": "C" 
			},
			{
				"x": -1.4973376811,
				"y": -2.2884678852,
				"z": -0.2105209589,
				"element": "C" 
			},
			{
				"x": -2.8214094899,
				"y": -2.7208343008,
				"z": -0.5619885619,
				"element": "O" 
			},
			{
				"x": -2.5890961287,
				"y": 0.0259617288,
				"z": -0.6244706139,
				"element": "C" 
			},
			{
				"x": -3.4798856733,
				"y": -0.2790314334,
				"z": -1.6925303864,
				"element": "O" 
			},
			{
				"x": -2.2107233446,
				"y": 1.4912657363,
				"z": -0.7204832256,
				"element": "C" 
			},
			{
				"x": -1.4377101046,
				"y": 2.0060302428,
				"z": 0.5162554671,
				"element": "C" 
			},
			{
				"x": -0.7502154955,
				"y": 3.4101636151,
				"z": 0.2152612436,
				"element": "C" 
			},
			{
				"x": -1.461484163,
				"y": 4.1811430661,
				"z": -0.9234616715,
				"element": "C" 
			},
			{
				"x": -0.8376322212,
				"y": 4.3593854386,
				"z": 1.4382173444,
				"element": "C" 
			},
			{
				"x": 0.7134499575,
				"y": 3.1787742026,
				"z": -0.2228202787,
				"element": "C" 
			},
			{
				"x": 1.568333155,
				"y": 2.4267160562,
				"z": 0.8188982564,
				"element": "C" 
			},
			{
				"x": 0.7154655955,
				"y": 1.6066344332,
				"z": 1.7916229108,
				"element": "C" 
			},
			{
				"x": 1.540285475,
				"y": 0.6949093388,
				"z": 2.5588693382,
				"element": "O" 
			},
			{
				"x": -0.4848739376,
				"y": 0.8659939898,
				"z": 1.1467157386,
				"element": "C" 
			},
			{
				"x": -1.2313865783,
				"y": 0.1787066552,
				"z": 2.3185631806,
				"element": "C" 
			},
			{
				"x": -0.8680021409,
				"y": -1.0279255029,
				"z": -2.179982836,
				"element": "C" 
			},
			{
				"x": -0.5965509824,
				"y": -0.1366574677,
				"z": -2.9557633624,
				"element": "O" 
			},
			{
				"x": -0.0202147413,
				"y": -2.3386611136,
				"z": -4.4851006475,
				"element": "H" 
			},
			{
				"x": 1.3070664788,
				"y": -2.5249066992,
				"z": -3.3463322039,
				"element": "H" 
			},
			{
				"x": 0.3103585514,
				"y": -3.9287755338,
				"z": -3.7670798739,
				"element": "H" 
			},
			{
				"x": -1.6833518646,
				"y": -2.8946145206,
				"z": -2.7151463389,
				"element": "H" 
			},
			{
				"x": -0.4772070359,
				"y": -4.1078379254,
				"z": -0.9263892203,
				"element": "H" 
			},
			{
				"x": 1.6352449052,
				"y": -2.2481559845,
				"z": -1.3075826138,
				"element": "H" 
			},
			{
				"x": 1.4985768054,
				"y": -3.3218260842,
				"z": 0.0584926516,
				"element": "H" 
			},
			{
				"x": 0.6352269083,
				"y": -1.6580476736,
				"z": 1.4676192696,
				"element": "H" 
			},
			{
				"x": 2.3289860956,
				"y": -0.3091545309,
				"z": 1.3410394339,
				"element": "H" 
			},
			{
				"x": 0.468396269,
				"y": 0.3917427579,
				"z": -0.73578121,
				"element": "H" 
			},
			{
				"x": -1.3723479487,
				"y": -2.3902619732,
				"z": 0.8731443433,
				"element": "H" 
			},
			{
				"x": -2.9123122542,
				"y": -3.651768077,
				"z": -0.322603363,
				"element": "H" 
			},
			{
				"x": -3.1031186363,
				"y": -0.1703500655,
				"z": 0.3266625303,
				"element": "H" 
			},
			{
				"x": -3.7263548626,
				"y": -1.2072216793,
				"z": -1.5630881837,
				"element": "H" 
			},
			{
				"x": -3.1263651793,
				"y": 2.0736044688,
				"z": -0.8539045799,
				"element": "H" 
			},
			{
				"x": -1.6249572007,
				"y": 1.6035080474,
				"z": -1.636035065,
				"element": "H" 
			},
			{
				"x": -2.188839359,
				"y": 2.2021845303,
				"z": 1.2923994139,
				"element": "H" 
			},
			{
				"x": -2.5210879434,
				"y": 4.3464154226,
				"z": -0.7021887393,
				"element": "H" 
			},
			{
				"x": -1.391729112,
				"y": 3.6763900584,
				"z": -1.8889102335,
				"element": "H" 
			},
			{
				"x": -0.9947756973,
				"y": 5.1658865993,
				"z": -1.0365268713,
				"element": "H" 
			},
			{
				"x": -0.3593484267,
				"y": 5.3179456549,
				"z": 1.2064109588,
				"element": "H" 
			},
			{
				"x": -1.8863741885,
				"y": 4.5673233973,
				"z": 1.6793183836,
				"element": "H" 
			},
			{
				"x": -0.3692357512,
				"y": 3.9785149409,
				"z": 2.3472609953,
				"element": "H" 
			},
			{
				"x": 1.1792934557,
				"y": 4.1406843112,
				"z": -0.4678202196,
				"element": "H" 
			},
			{
				"x": 0.6963402604,
				"y": 2.6077666607,
				"z": -1.1584951644,
				"element": "H" 
			},
			{
				"x": 2.1722366892,
				"y": 3.1330012432,
				"z": 1.4046131891,
				"element": "H" 
			},
			{
				"x": 2.2672446824,
				"y": 1.7511260592,
				"z": 0.3167630032,
				"element": "H" 
			},
			{
				"x": 0.2644578248,
				"y": 2.2783656886,
				"z": 2.5271365359,
				"element": "H" 
			},
			{
				"x": 2.1512111436,
				"y": 1.2310246611,
				"z": 3.0811065211,
				"element": "H" 
			},
			{
				"x": -1.514561256,
				"y": 0.9258068926,
				"z": 3.0685669126,
				"element": "H" 
			},
			{
				"x": -0.5954739151,
				"y": -0.5526388086,
				"z": 2.8220642545,
				"element": "H" 
			},
			{
				"x": -2.1473595256,
				"y": -0.3220488563,
				"z": 2.0033141655,
				"element": "H" 
			}
		],
		 "valence_orbital": [ 
			{
				"type": "occ",
				"energy": -0.27639,
				"method": "rhf"
			},
			{
				"type": "occ",
				"energy": -0.27382,
				"method": "rhf"
			},
			{
				"type": "occ",
				"energy": -0.25922,
				"method": "rhf"
			},
			{
				"type": "occ",
				"energy": -0.23722,
				"method": "rhf"
			},
			{
				"type": "occ",
				"energy": -0.22476,
				"method": "rhf"
			},
			{
				"type": "unocc",
				"energy": -0.01051,
				"method": "rhf"
			},
			{
				"type": "unocc",
				"energy": 0.05182,
				"method": "rhf"
			},
			{
				"type": "unocc",
				"energy": 0.05548,
				"method": "rhf"
			},
			{
				"type": "unocc",
				"energy": 0.07378,
				"method": "rhf"
			},
			{
				"type": "unocc",
				"energy": 0.09161,
				"method": "rhf"
			}
		],
		"cosmo_sigma_profile": { 
			"-0.025": 0.0,
			"-0.024": 0.0,
			"-0.023": 0.0,
			"-0.022": 0.0,
			"-0.021": 0.0,
			"-0.02": 0.0,
			"-0.019": 0.0,
			"-0.018": 0.0,
			"-0.017": 0.283847863786,
			"-0.016": 1.57197145902,
			"-0.015": 2.03575374768,
			"-0.014": 2.34804469771,
			"-0.013": 2.08644009934,
			"-0.012": 1.28274572703,
			"-0.011": 1.6625353311,
			"-0.01": 1.67779220665,
			"-0.009": 2.01596089794,
			"-0.008": 3.27671557469,
			"-0.007": 3.73674827243,
			"-0.006": 3.66492968695,
			"-0.005": 10.1556422937,
			"-0.004": 18.7615338721,
			"-0.003": 33.4905949023,
			"-0.002": 56.3659330056,
			"-0.001": 44.4968248241,
			"0.0": 39.1834824304,
			"0.001": 35.8130245737,
			"0.002": 20.4727640975,
			"0.003": 6.73862191312,
			"0.004": 6.50000215483,
			"0.005": 6.01516979588,
			"0.006": 5.1821530562,
			"0.007": 6.2811412554,
			"0.008": 5.15485934856,
			"0.009": 4.66907434131,
			"0.01": 5.700651272,
			"0.011": 6.05000990101,
			"0.012": 5.98737613025,
			"0.013": 3.79703790089,
			"0.014": 3.34216083331,
			"0.015": 2.90486591239,
			"0.016": 0.205441486969,
			"0.017": 0.0,
			"0.018": 0.0,
			"0.019": 0.0,
			"0.02": 0.0,
			"0.021": 0.0,
			"0.022": 0.0,
			"0.023": 0.0,
			"0.024": 0.0,
			"0.025": 0.0
		}
	}
}
