{
	 "smiles": "[O-][N+](=O)C1=CC=C(C=C1)C1=CNN=C1", 
	 "Tm": 479.15, 
	 "num_atms": 21, 
	 "gaussian": { 
		 "optdone": 1, 
		 "sigma_profile": "yes", 
		 "theory": "DFT", 
		 "functional": "B3LYP", 
		 "basiset": "6-31G**", 
		 "properties": { 
			 "R2extent": 3737.9028, 
			 "electric_dipole_moment_norm": 5.81666949035, 
			 "electric_quadrupole_moment_norm": 16.6207240453, 
			 "total_energy": -661.759722591, 
			 "HOMO_LUMO_gap": 0.15287, 
			 "cosmo_polarized_energy": -16.05, 
			 "cosmo_cavitation_energy": 26.65, 
			 "cosmo_dispersion_energy": -19.73, 
			 "cosmo_repulsion_energy": 1.52, 
			 "cosmo_total_nonelectrostatic_energy": 8.44, 
			 "SMD_solvation_energy": 6.16 
		},
		"coords": [
			{
				"x": -1.1195081411,
				"y": 3.6574232418,
				"z": 2.577351819,
				"element": "O" 
			},
			{
				"x": -1.7248686911,
				"y": 2.9142164271,
				"z": 1.8036886783,
				"element": "N" 
			},
			{
				"x": -2.9404800523,
				"y": 2.9499877768,
				"z": 1.6064568984,
				"element": "O" 
			},
			{
				"x": -0.9441433519,
				"y": 1.9166484535,
				"z": 1.0658963284,
				"element": "C" 
			},
			{
				"x": -1.5972027438,
				"y": 1.0623823918,
				"z": 0.1777008295,
				"element": "C" 
			},
			{
				"x": -0.8504850422,
				"y": 0.1231070381,
				"z": -0.5209299056,
				"element": "C" 
			},
			{
				"x": 0.5428575536,
				"y": 0.0140975858,
				"z": -0.3393499412,
				"element": "C" 
			},
			{
				"x": 1.1658310113,
				"y": 0.8934808896,
				"z": 0.5681788645,
				"element": "C" 
			},
			{
				"x": 0.4335441207,
				"y": 1.8444145398,
				"z": 1.2675201447,
				"element": "C" 
			},
			{
				"x": 1.3272731919,
				"y": -0.9824266205,
				"z": -1.071578511,
				"element": "C" 
			},
			{
				"x": 0.8775223426,
				"y": -2.1500424353,
				"z": -1.6796895486,
				"element": "C" 
			},
			{
				"x": 1.9646174404,
				"y": -2.7428853256,
				"z": -2.226264234,
				"element": "N" 
			},
			{
				"x": 3.1089907259,
				"y": -2.0511071511,
				"z": -2.030804222,
				"element": "N" 
			},
			{
				"x": 2.7279984017,
				"y": -0.9894457691,
				"z": -1.330506518,
				"element": "C" 
			},
			{
				"x": -2.6676246425,
				"y": 1.1540178648,
				"z": 0.0425783662,
				"element": "H" 
			},
			{
				"x": -1.3514976512,
				"y": -0.5245650332,
				"z": -1.2333895753,
				"element": "H" 
			},
			{
				"x": 2.234420439,
				"y": 0.8184784675,
				"z": 0.7404163274,
				"element": "H" 
			},
			{
				"x": 0.9041438851,
				"y": 2.5219249768,
				"z": 1.9689420769,
				"element": "H" 
			},
			{
				"x": -0.1039407559,
				"y": -2.597171204,
				"z": -1.7365086053,
				"element": "H" 
			},
			{
				"x": 2.0013035756,
				"y": -3.6132710845,
				"z": -2.7341717903,
				"element": "H" 
			},
			{
				"x": 3.4627483843,
				"y": -0.2467650304,
				"z": -1.0505374819,
				"element": "H" 
			}
		],
		 "valence_orbital": [ 
			{
				"type": "occ",
				"energy": -0.30223,
				"method": "rhf"
			},
			{
				"type": "occ",
				"energy": -0.2854,
				"method": "rhf"
			},
			{
				"type": "occ",
				"energy": -0.27814,
				"method": "rhf"
			},
			{
				"type": "occ",
				"energy": -0.27469,
				"method": "rhf"
			},
			{
				"type": "occ",
				"energy": -0.24025,
				"method": "rhf"
			},
			{
				"type": "unocc",
				"energy": -0.08738,
				"method": "rhf"
			},
			{
				"type": "unocc",
				"energy": -0.02691,
				"method": "rhf"
			},
			{
				"type": "unocc",
				"energy": -0.01491,
				"method": "rhf"
			},
			{
				"type": "unocc",
				"energy": 0.00676,
				"method": "rhf"
			},
			{
				"type": "unocc",
				"energy": 0.06353,
				"method": "rhf"
			}
		],
		"cosmo_sigma_profile": { 
			"-0.025": 0.0,
			"-0.024": 0.0,
			"-0.023": 0.0,
			"-0.022": 0.0,
			"-0.021": 0.0,
			"-0.02": 0.0,
			"-0.019": 0.0,
			"-0.018": 0.0158779337401,
			"-0.017": 1.1014551948,
			"-0.016": 2.12196261916,
			"-0.015": 0.985210922615,
			"-0.014": 1.27910934924,
			"-0.013": 0.940938059217,
			"-0.012": 0.912697872089,
			"-0.011": 1.24658591821,
			"-0.01": 2.23179246109,
			"-0.009": 4.5142149262,
			"-0.008": 6.16692372261,
			"-0.007": 10.2563972082,
			"-0.006": 10.0580875773,
			"-0.005": 11.2321463637,
			"-0.004": 8.53748935989,
			"-0.003": 9.38676262304,
			"-0.002": 10.0813454993,
			"-0.001": 14.5194261564,
			"0.0": 12.595497641,
			"0.001": 16.827734811,
			"0.002": 23.930231485,
			"0.003": 13.4088341236,
			"0.004": 6.32552546398,
			"0.005": 3.90208186896,
			"0.006": 5.54017913499,
			"0.007": 7.62578314503,
			"0.008": 11.1464909908,
			"0.009": 5.83724123089,
			"0.01": 5.17004399968,
			"0.011": 1.95437324523,
			"0.012": 1.15661823841,
			"0.013": 1.21435667048,
			"0.014": 1.11378537722,
			"0.015": 0.989343525385,
			"0.016": 0.351540391521,
			"0.017": 0.0,
			"0.018": 0.0,
			"0.019": 0.0,
			"0.02": 0.0,
			"0.021": 0.0,
			"0.022": 0.0,
			"0.023": 0.0,
			"0.024": 0.0,
			"0.025": 0.0
		}
	}
}
