{
	 "smiles": "CCOC(=O)CC(=O)C(C)C", 
	 "Tm": 264.15, 
	 "num_atms": 25, 
	 "gaussian": { 
		 "optdone": 1, 
		 "sigma_profile": "yes", 
		 "theory": "DFT", 
		 "functional": "B3LYP", 
		 "basiset": "6-31G**", 
		 "properties": { 
			 "R2extent": 2591.5756, 
			 "electric_dipole_moment_norm": 1.92551754342, 
			 "electric_quadrupole_moment_norm": 13.5031286045, 
			 "total_energy": -538.981588931, 
			 "HOMO_LUMO_gap": 0.22137, 
			 "cosmo_polarized_energy": -9.52, 
			 "cosmo_cavitation_energy": 28.27, 
			 "cosmo_dispersion_energy": -19.5, 
			 "cosmo_repulsion_energy": 1.62, 
			 "cosmo_total_nonelectrostatic_energy": 10.39, 
			 "SMD_solvation_energy": 6.74 
		},
		"coords": [
			{
				"x": 1.6983741712,
				"y": 3.6657825712,
				"z": 0.3195312122,
				"element": "C" 
			},
			{
				"x": 1.6112196939,
				"y": 3.3594626384,
				"z": -1.1674707138,
				"element": "C" 
			},
			{
				"x": 0.4094829972,
				"y": 2.6067346696,
				"z": -1.4782999244,
				"element": "O" 
			},
			{
				"x": 0.4827975634,
				"y": 1.270519879,
				"z": -1.3387762101,
				"element": "C" 
			},
			{
				"x": 1.4789763008,
				"y": 0.6702625483,
				"z": -0.9873801422,
				"element": "O" 
			},
			{
				"x": -0.8450269825,
				"y": 0.6100607488,
				"z": -1.6764031582,
				"element": "C" 
			},
			{
				"x": -1.4032041785,
				"y": -0.1583217551,
				"z": -0.462344047,
				"element": "C" 
			},
			{
				"x": -2.3307488294,
				"y": 0.3042565953,
				"z": 0.1708533328,
				"element": "O" 
			},
			{
				"x": -0.7567187205,
				"y": -1.5002684935,
				"z": -0.1286121909,
				"element": "C" 
			},
			{
				"x": -1.3441244809,
				"y": -2.5839225205,
				"z": -1.0615381001,
				"element": "C" 
			},
			{
				"x": -0.9613962102,
				"y": -1.8623040264,
				"z": 1.3454786714,
				"element": "C" 
			},
			{
				"x": 1.8109913755,
				"y": 2.7447083725,
				"z": 0.8964879536,
				"element": "H" 
			},
			{
				"x": 2.5680681442,
				"y": 4.3016165107,
				"z": 0.5157121537,
				"element": "H" 
			},
			{
				"x": 0.8028491914,
				"y": 4.1919813536,
				"z": 0.6621521471,
				"element": "H" 
			},
			{
				"x": 2.4796143507,
				"y": 2.7904496105,
				"z": -1.5074032468,
				"element": "H" 
			},
			{
				"x": 1.5165271481,
				"y": 4.2712171067,
				"z": -1.7614868609,
				"element": "H" 
			},
			{
				"x": -1.5755410682,
				"y": 1.358046857,
				"z": -1.9827272574,
				"element": "H" 
			},
			{
				"x": -0.6534729018,
				"y": -0.0876306887,
				"z": -2.4987902601,
				"element": "H" 
			},
			{
				"x": 0.313413781,
				"y": -1.402777884,
				"z": -0.3474262217,
				"element": "H" 
			},
			{
				"x": -1.1944195241,
				"y": -2.3498343269,
				"z": -2.1207204005,
				"element": "H" 
			},
			{
				"x": -2.4188564188,
				"y": -2.7026318126,
				"z": -0.8879440306,
				"element": "H" 
			},
			{
				"x": -0.8604460044,
				"y": -3.5455799271,
				"z": -0.8649771428,
				"element": "H" 
			},
			{
				"x": -0.5083408646,
				"y": -2.8339608659,
				"z": 1.5658599626,
				"element": "H" 
			},
			{
				"x": -2.0265105063,
				"y": -1.9098297995,
				"z": 1.5876761137,
				"element": "H" 
			},
			{
				"x": -0.5052080272,
				"y": -1.1165373613,
				"z": 2.0031483603,
				"element": "H" 
			}
		],
		 "valence_orbital": [ 
			{
				"type": "occ",
				"energy": -0.33988,
				"method": "rhf"
			},
			{
				"type": "occ",
				"energy": -0.33721,
				"method": "rhf"
			},
			{
				"type": "occ",
				"energy": -0.30593,
				"method": "rhf"
			},
			{
				"type": "occ",
				"energy": -0.27913,
				"method": "rhf"
			},
			{
				"type": "occ",
				"energy": -0.24708,
				"method": "rhf"
			},
			{
				"type": "unocc",
				"energy": -0.02571,
				"method": "rhf"
			},
			{
				"type": "unocc",
				"energy": 0.01089,
				"method": "rhf"
			},
			{
				"type": "unocc",
				"energy": 0.08474,
				"method": "rhf"
			},
			{
				"type": "unocc",
				"energy": 0.10631,
				"method": "rhf"
			},
			{
				"type": "unocc",
				"energy": 0.1189,
				"method": "rhf"
			}
		],
		"cosmo_sigma_profile": { 
			"-0.025": 0.0,
			"-0.024": 0.0,
			"-0.023": 0.0,
			"-0.022": 0.0,
			"-0.021": 0.0,
			"-0.02": 0.0,
			"-0.019": 0.0,
			"-0.018": 0.0,
			"-0.017": 0.0,
			"-0.016": 0.0,
			"-0.015": 0.0,
			"-0.014": 0.0,
			"-0.013": 0.0,
			"-0.012": 0.0,
			"-0.011": 0.0,
			"-0.01": 0.0,
			"-0.009": 0.0,
			"-0.008": 1.91359791411,
			"-0.007": 3.46224721841,
			"-0.006": 6.56668898845,
			"-0.005": 10.2372951706,
			"-0.004": 21.6018108281,
			"-0.003": 30.0883907197,
			"-0.002": 28.4108027001,
			"-0.001": 23.6239123346,
			"0.0": 25.9928636002,
			"0.001": 15.8348711277,
			"0.002": 6.68659025193,
			"0.003": 4.82928491514,
			"0.004": 4.22590300778,
			"0.005": 3.97237042312,
			"0.006": 5.03425867752,
			"0.007": 3.90092095129,
			"0.008": 3.69233405382,
			"0.009": 3.95751168935,
			"0.01": 4.33585052178,
			"0.011": 6.95248677826,
			"0.012": 4.95124894696,
			"0.013": 0.349121299071,
			"0.014": 0.0,
			"0.015": 0.0,
			"0.016": 0.0,
			"0.017": 0.0,
			"0.018": 0.0,
			"0.019": 0.0,
			"0.02": 0.0,
			"0.021": 0.0,
			"0.022": 0.0,
			"0.023": 0.0,
			"0.024": 0.0,
			"0.025": 0.0
		}
	}
}
