{
	 "smiles": "OCCOC1=CC=CC=C1OCCO", 
	 "Tm": 353.15, 
	 "num_atms": 28, 
	 "gaussian": { 
		 "optdone": 1, 
		 "sigma_profile": "yes", 
		 "theory": "DFT", 
		 "functional": "B3LYP", 
		 "basiset": "6-31G**", 
		 "properties": { 
			 "R2extent": 3348.0892, 
			 "electric_dipole_moment_norm": 3.13345066819, 
			 "electric_quadrupole_moment_norm": 6.54062165165, 
			 "total_energy": -690.34605981, 
			 "HOMO_LUMO_gap": 0.22468, 
			 "cosmo_polarized_energy": -13.59, 
			 "cosmo_cavitation_energy": 31.53, 
			 "cosmo_dispersion_energy": -21.92, 
			 "cosmo_repulsion_energy": 1.78, 
			 "cosmo_total_nonelectrostatic_energy": 11.39, 
			 "SMD_solvation_energy": 5.7 
		},
		"coords": [
			{
				"x": -2.4328188798,
				"y": -0.2770257622,
				"z": 3.3087250575,
				"element": "O" 
			},
			{
				"x": -1.4216555517,
				"y": -1.2288044729,
				"z": 3.0339757278,
				"element": "C" 
			},
			{
				"x": -1.2485526197,
				"y": -1.4525687489,
				"z": 1.5420576045,
				"element": "C" 
			},
			{
				"x": -0.8857806494,
				"y": -0.1702239196,
				"z": 0.9882096352,
				"element": "O" 
			},
			{
				"x": -0.7991263448,
				"y": -0.1036117644,
				"z": -0.3837441433,
				"element": "C" 
			},
			{
				"x": -1.7387640144,
				"y": 0.6502919736,
				"z": -1.08956992,
				"element": "C" 
			},
			{
				"x": -1.6326708561,
				"y": 0.7970898574,
				"z": -2.4732519484,
				"element": "C" 
			},
			{
				"x": -0.5909157317,
				"y": 0.172746018,
				"z": -3.161508994,
				"element": "C" 
			},
			{
				"x": 0.3460640475,
				"y": -0.590759864,
				"z": -2.4636171008,
				"element": "C" 
			},
			{
				"x": 0.2548724029,
				"y": -0.7270654078,
				"z": -1.0759898123,
				"element": "C" 
			},
			{
				"x": 1.1509241073,
				"y": -1.5103374886,
				"z": -0.3793986421,
				"element": "O" 
			},
			{
				"x": 2.4754423919,
				"y": -0.9829133836,
				"z": -0.2259537268,
				"element": "C" 
			},
			{
				"x": 2.5681225069,
				"y": 0.0052766039,
				"z": 0.939895116,
				"element": "C" 
			},
			{
				"x": 3.901545021,
				"y": 0.4687011048,
				"z": 1.1029756866,
				"element": "O" 
			},
			{
				"x": -2.2165163738,
				"y": 0.4972248227,
				"z": 2.7703315828,
				"element": "H" 
			},
			{
				"x": -1.7224789684,
				"y": -2.1685781471,
				"z": 3.5090806238,
				"element": "H" 
			},
			{
				"x": -0.4536507765,
				"y": -0.9281596548,
				"z": 3.4669972922,
				"element": "H" 
			},
			{
				"x": -0.4671071303,
				"y": -2.1905967803,
				"z": 1.3324816967,
				"element": "H" 
			},
			{
				"x": -2.1942703856,
				"y": -1.7834640495,
				"z": 1.0935208436,
				"element": "H" 
			},
			{
				"x": -2.5397871696,
				"y": 1.1251700989,
				"z": -0.531497256,
				"element": "H" 
			},
			{
				"x": -2.3665638509,
				"y": 1.3899141015,
				"z": -3.010639545,
				"element": "H" 
			},
			{
				"x": -0.5094641087,
				"y": 0.2722584753,
				"z": -4.2396743456,
				"element": "H" 
			},
			{
				"x": 1.1526000694,
				"y": -1.0975836078,
				"z": -2.9853399794,
				"element": "H" 
			},
			{
				"x": 3.1277561349,
				"y": -1.8395974775,
				"z": -0.0371199798,
				"element": "H" 
			},
			{
				"x": 2.8043359176,
				"y": -0.5022327024,
				"z": -1.158571024,
				"element": "H" 
			},
			{
				"x": 1.8548979018,
				"y": 0.8290522676,
				"z": 0.7976092384,
				"element": "H" 
			},
			{
				"x": 2.2965260193,
				"y": -0.5022273475,
				"z": 1.869695699,
				"element": "H" 
			},
			{
				"x": 4.0962368909,
				"y": 1.0791252552,
				"z": 0.3804206133,
				"element": "H" 
			}
		],
		 "valence_orbital": [ 
			{
				"type": "occ",
				"energy": -0.28259,
				"method": "rhf"
			},
			{
				"type": "occ",
				"energy": -0.27197,
				"method": "rhf"
			},
			{
				"type": "occ",
				"energy": -0.26289,
				"method": "rhf"
			},
			{
				"type": "occ",
				"energy": -0.24943,
				"method": "rhf"
			},
			{
				"type": "occ",
				"energy": -0.23297,
				"method": "rhf"
			},
			{
				"type": "unocc",
				"energy": -0.00829,
				"method": "rhf"
			},
			{
				"type": "unocc",
				"energy": -0.00253,
				"method": "rhf"
			},
			{
				"type": "unocc",
				"energy": 0.06427,
				"method": "rhf"
			},
			{
				"type": "unocc",
				"energy": 0.0777,
				"method": "rhf"
			},
			{
				"type": "unocc",
				"energy": 0.09279,
				"method": "rhf"
			}
		],
		"cosmo_sigma_profile": { 
			"-0.025": 0.0,
			"-0.024": 0.0,
			"-0.023": 0.0,
			"-0.022": 0.0,
			"-0.021": 0.0,
			"-0.02": 0.0,
			"-0.019": 0.0,
			"-0.018": 0.0,
			"-0.017": 0.0,
			"-0.016": 0.70982313076,
			"-0.015": 1.05041954225,
			"-0.014": 0.836038535043,
			"-0.013": 1.44060805518,
			"-0.012": 1.55292947495,
			"-0.011": 1.66565423494,
			"-0.01": 1.61509419315,
			"-0.009": 1.93249688045,
			"-0.008": 1.2598738249,
			"-0.007": 1.78173831588,
			"-0.006": 10.0744891725,
			"-0.005": 19.922146904,
			"-0.004": 26.2881867766,
			"-0.003": 24.3999790845,
			"-0.002": 21.3379894583,
			"-0.001": 17.0823590598,
			"0.0": 13.6928607702,
			"0.001": 13.2179264902,
			"0.002": 11.1800802262,
			"0.003": 13.7342407497,
			"0.004": 14.4628128059,
			"0.005": 13.0041067778,
			"0.006": 6.21554576484,
			"0.007": 4.6473623353,
			"0.008": 3.11284648582,
			"0.009": 3.05358116975,
			"0.01": 2.42168403375,
			"0.011": 4.26146011047,
			"0.012": 2.41930924414,
			"0.013": 3.5642718635,
			"0.014": 4.76869319174,
			"0.015": 0.813599388534,
			"0.016": 0.0,
			"0.017": 0.0,
			"0.018": 0.0,
			"0.019": 0.0,
			"0.02": 0.0,
			"0.021": 0.0,
			"0.022": 0.0,
			"0.023": 0.0,
			"0.024": 0.0,
			"0.025": 0.0
		}
	}
}
