{
	 "smiles": "COC1=CC(=CC(O)=C1OC)C(O)=O", 
	 "Tm": 469.15, 
	 "num_atms": 24, 
	 "gaussian": { 
		 "optdone": 1, 
		 "sigma_profile": "yes", 
		 "theory": "DFT", 
		 "functional": "B3LYP", 
		 "basiset": "6-31G**", 
		 "properties": { 
			 "R2extent": 3629.7059, 
			 "electric_dipole_moment_norm": 4.08741111341, 
			 "electric_quadrupole_moment_norm": 22.2828723182, 
			 "total_energy": -725.070444105, 
			 "HOMO_LUMO_gap": 0.1906, 
			 "cosmo_polarized_energy": -18.48, 
			 "cosmo_cavitation_energy": 28.53, 
			 "cosmo_dispersion_energy": -20.64, 
			 "cosmo_repulsion_energy": 1.64, 
			 "cosmo_total_nonelectrostatic_energy": 9.52, 
			 "SMD_solvation_energy": 8.14 
		},
		"coords": [
			{
				"x": -2.2942247958,
				"y": 1.1739666943,
				"z": -0.4660799102,
				"element": "C" 
			},
			{
				"x": -2.0650333432,
				"y": 0.2558273404,
				"z": 0.6115729673,
				"element": "O" 
			},
			{
				"x": -0.7632455001,
				"y": -0.0912361758,
				"z": 0.8520080451,
				"element": "C" 
			},
			{
				"x": -0.2162137024,
				"y": 0.235470854,
				"z": 2.0964912392,
				"element": "C" 
			},
			{
				"x": 1.0883537454,
				"y": -0.1535158545,
				"z": 2.4164233751,
				"element": "C" 
			},
			{
				"x": 1.8616452811,
				"y": -0.8356421488,
				"z": 1.4704984246,
				"element": "C" 
			},
			{
				"x": 1.3248815012,
				"y": -1.1608323733,
				"z": 0.2278298551,
				"element": "C" 
			},
			{
				"x": 2.0294653392,
				"y": -1.831640189,
				"z": -0.7293106866,
				"element": "O" 
			},
			{
				"x": -0.0032217903,
				"y": -0.8067582878,
				"z": -0.0898715079,
				"element": "C" 
			},
			{
				"x": -0.5437894724,
				"y": -1.0981585646,
				"z": -1.3128351097,
				"element": "O" 
			},
			{
				"x": -0.8039586219,
				"y": -2.4867867412,
				"z": -1.5626831131,
				"element": "C" 
			},
			{
				"x": 1.7365529493,
				"y": 0.1592744405,
				"z": 3.7302764538,
				"element": "C" 
			},
			{
				"x": 0.9087327145,
				"y": 0.4768152044,
				"z": 4.7603182753,
				"element": "O" 
			},
			{
				"x": 2.9335488815,
				"y": 0.1343967431,
				"z": 3.9031856029,
				"element": "O" 
			},
			{
				"x": -1.7759671147,
				"y": 2.1232752436,
				"z": -0.2812600837,
				"element": "H" 
			},
			{
				"x": -1.9696799952,
				"y": 0.7561632754,
				"z": -1.4217690511,
				"element": "H" 
			},
			{
				"x": -3.3713476024,
				"y": 1.3503370529,
				"z": -0.4837520235,
				"element": "H" 
			},
			{
				"x": -0.8370113676,
				"y": 0.819087953,
				"z": 2.7695263181,
				"element": "H" 
			},
			{
				"x": 2.8837728351,
				"y": -1.0989368088,
				"z": 1.7273017514,
				"element": "H" 
			},
			{
				"x": 2.9176210534,
				"y": -2.0121893422,
				"z": -0.394057845,
				"element": "H" 
			},
			{
				"x": 0.1215445148,
				"y": -3.0690757042,
				"z": -1.5588457173,
				"element": "H" 
			},
			{
				"x": -1.5023496471,
				"y": -2.889230019,
				"z": -0.8196036669,
				"element": "H" 
			},
			{
				"x": -1.2613226775,
				"y": -2.5329080206,
				"z": -2.5525366181,
				"element": "H" 
			},
			{
				"x": -0.0101531849,
				"y": 0.3031954282,
				"z": 4.5127730252,
				"element": "H" 
			}
		],
		 "valence_orbital": [ 
			{
				"type": "occ",
				"energy": -0.29835,
				"method": "rhf"
			},
			{
				"type": "occ",
				"energy": -0.28679,
				"method": "rhf"
			},
			{
				"type": "occ",
				"energy": -0.26924,
				"method": "rhf"
			},
			{
				"type": "occ",
				"energy": -0.24113,
				"method": "rhf"
			},
			{
				"type": "occ",
				"energy": -0.23742,
				"method": "rhf"
			},
			{
				"type": "unocc",
				"energy": -0.04682,
				"method": "rhf"
			},
			{
				"type": "unocc",
				"energy": -0.00688,
				"method": "rhf"
			},
			{
				"type": "unocc",
				"energy": 0.05094,
				"method": "rhf"
			},
			{
				"type": "unocc",
				"energy": 0.05522,
				"method": "rhf"
			},
			{
				"type": "unocc",
				"energy": 0.06517,
				"method": "rhf"
			}
		],
		"cosmo_sigma_profile": { 
			"-0.025": 0.0,
			"-0.024": 0.0,
			"-0.023": 0.0,
			"-0.022": 0.0,
			"-0.021": 0.0,
			"-0.02": 0.0,
			"-0.019": 0.504597994303,
			"-0.018": 1.907996218,
			"-0.017": 1.86307385019,
			"-0.016": 1.6558417285,
			"-0.015": 2.3788574379,
			"-0.014": 1.98315224385,
			"-0.013": 1.05806676899,
			"-0.012": 2.37787748486,
			"-0.011": 2.50834420039,
			"-0.01": 2.58949651775,
			"-0.009": 1.97779638638,
			"-0.008": 2.14644662335,
			"-0.007": 2.61767433645,
			"-0.006": 5.20060395632,
			"-0.005": 11.3745755887,
			"-0.004": 14.9753904009,
			"-0.003": 23.015886735,
			"-0.002": 18.4748053447,
			"-0.001": 12.9306224236,
			"0.0": 11.041652731,
			"0.001": 15.2365494074,
			"0.002": 15.7416447415,
			"0.003": 11.3765935357,
			"0.004": 8.37040518733,
			"0.005": 6.65546875748,
			"0.006": 5.96695489159,
			"0.007": 5.88519899449,
			"0.008": 5.67491334979,
			"0.009": 6.35946548341,
			"0.01": 8.14874709381,
			"0.011": 7.65406021443,
			"0.012": 5.23163827056,
			"0.013": 1.68159032288,
			"0.014": 0.0665455834565,
			"0.015": 0.0,
			"0.016": 0.0,
			"0.017": 0.0,
			"0.018": 0.0,
			"0.019": 0.0,
			"0.02": 0.0,
			"0.021": 0.0,
			"0.022": 0.0,
			"0.023": 0.0,
			"0.024": 0.0,
			"0.025": 0.0
		}
	}
}
