{
	 "smiles": "N#CC1=CC=CC=C1N1C=CN=C1", 
	 "Tm": 423.15, 
	 "num_atms": 20, 
	 "gaussian": { 
		 "optdone": 1, 
		 "sigma_profile": "yes", 
		 "theory": "DFT", 
		 "functional": "B3LYP", 
		 "basiset": "6-31G**", 
		 "properties": { 
			 "R2extent": 2379.7129, 
			 "electric_dipole_moment_norm": 5.72848359079, 
			 "electric_quadrupole_moment_norm": 13.5405030811, 
			 "total_energy": -549.503774155, 
			 "HOMO_LUMO_gap": 0.16661, 
			 "cosmo_polarized_energy": -14.63, 
			 "cosmo_cavitation_energy": 25.57, 
			 "cosmo_dispersion_energy": -18.03, 
			 "cosmo_repulsion_energy": 1.4, 
			 "cosmo_total_nonelectrostatic_energy": 8.94, 
			 "SMD_solvation_energy": 4.68 
		},
		"coords": [
			{
				"x": -0.6843635849,
				"y": 0.3965395672,
				"z": 3.415058469,
				"element": "N" 
			},
			{
				"x": 0.1293508552,
				"y": 0.2917027106,
				"z": 2.5903290883,
				"element": "C" 
			},
			{
				"x": 1.1757832608,
				"y": 0.1610991071,
				"z": 1.6201802462,
				"element": "C" 
			},
			{
				"x": 2.4934942479,
				"y": -0.0058703982,
				"z": 2.0829468401,
				"element": "C" 
			},
			{
				"x": 3.5430389095,
				"y": -0.1848214741,
				"z": 1.1889019031,
				"element": "C" 
			},
			{
				"x": 3.2856685716,
				"y": -0.1880343924,
				"z": -0.183674036,
				"element": "C" 
			},
			{
				"x": 1.9893919789,
				"y": -0.0014115018,
				"z": -0.658039697,
				"element": "C" 
			},
			{
				"x": 0.9207702684,
				"y": 0.1695359677,
				"z": 0.2295442443,
				"element": "C" 
			},
			{
				"x": -0.3841617709,
				"y": 0.3265803867,
				"z": -0.2915276359,
				"element": "N" 
			},
			{
				"x": -1.3676862926,
				"y": 1.2328528509,
				"z": 0.092769445,
				"element": "C" 
			},
			{
				"x": -2.4194399665,
				"y": 1.0124461903,
				"z": -0.7540485313,
				"element": "C" 
			},
			{
				"x": -2.1322591744,
				"y": -0.0020847159,
				"z": -1.6453688184,
				"element": "N" 
			},
			{
				"x": -0.9163939348,
				"y": -0.3858563644,
				"z": -1.3513546307,
				"element": "C" 
			},
			{
				"x": 2.6720148962,
				"y": -0.0048339575,
				"z": 3.1528233602,
				"element": "H" 
			},
			{
				"x": 4.5537808296,
				"y": -0.3180651045,
				"z": 1.5600216986,
				"element": "H" 
			},
			{
				"x": 4.098592681,
				"y": -0.3178622142,
				"z": -0.8913423831,
				"element": "H" 
			},
			{
				"x": 1.7953372736,
				"y": 0.0373414448,
				"z": -1.7242705778,
				"element": "H" 
			},
			{
				"x": -1.2173159331,
				"y": 1.9322597853,
				"z": 0.8984854113,
				"element": "H" 
			},
			{
				"x": -3.3691579873,
				"y": 1.5282088835,
				"z": -0.7741851401,
				"element": "H" 
			},
			{
				"x": -0.3669451282,
				"y": -1.1882267712,
				"z": -1.8237492561,
				"element": "H" 
			}
		],
		 "valence_orbital": [ 
			{
				"type": "occ",
				"energy": -0.31523,
				"method": "rhf"
			},
			{
				"type": "occ",
				"energy": -0.28324,
				"method": "rhf"
			},
			{
				"type": "occ",
				"energy": -0.27386,
				"method": "rhf"
			},
			{
				"type": "occ",
				"energy": -0.26115,
				"method": "rhf"
			},
			{
				"type": "occ",
				"energy": -0.23475,
				"method": "rhf"
			},
			{
				"type": "unocc",
				"energy": -0.06814,
				"method": "rhf"
			},
			{
				"type": "unocc",
				"energy": -0.04301,
				"method": "rhf"
			},
			{
				"type": "unocc",
				"energy": 0.02136,
				"method": "rhf"
			},
			{
				"type": "unocc",
				"energy": 0.02439,
				"method": "rhf"
			},
			{
				"type": "unocc",
				"energy": 0.05975,
				"method": "rhf"
			}
		],
		"cosmo_sigma_profile": { 
			"-0.025": 0.0,
			"-0.024": 0.0,
			"-0.023": 0.0,
			"-0.022": 0.0,
			"-0.021": 0.0,
			"-0.02": 0.0,
			"-0.019": 0.0,
			"-0.018": 0.0,
			"-0.017": 0.0,
			"-0.016": 0.0,
			"-0.015": 0.0,
			"-0.014": 0.0,
			"-0.013": 0.0,
			"-0.012": 0.0,
			"-0.011": 0.0,
			"-0.01": 0.266210659013,
			"-0.009": 3.29402421978,
			"-0.008": 10.3990896293,
			"-0.007": 14.542208768,
			"-0.006": 14.9643395887,
			"-0.005": 10.9699176698,
			"-0.004": 12.2227785451,
			"-0.003": 11.9071825267,
			"-0.002": 14.0690092123,
			"-0.001": 13.6204007098,
			"0.0": 14.7398210166,
			"0.001": 15.836505912,
			"0.002": 12.8592671275,
			"0.003": 6.55536919607,
			"0.004": 8.55841331144,
			"0.005": 7.50365849314,
			"0.006": 4.09616563498,
			"0.007": 4.14794292592,
			"0.008": 4.9303076094,
			"0.009": 4.78503907388,
			"0.01": 3.26171610459,
			"0.011": 4.5506107953,
			"0.012": 3.42317557284,
			"0.013": 1.5838129714,
			"0.014": 1.46877161445,
			"0.015": 1.21529855909,
			"0.016": 0.738352952503,
			"0.017": 1.13279048453,
			"0.018": 0.109827510844,
			"0.019": 0.0,
			"0.02": 0.0,
			"0.021": 0.0,
			"0.022": 0.0,
			"0.023": 0.0,
			"0.024": 0.0,
			"0.025": 0.0
		}
	}
}
