{
	 "smiles": "OC(=O)C1(CC2=NC3=C(S2)C=CC=C3)CCCCC1", 
	 "Tm": 444.15, 
	 "num_atms": 36, 
	 "gaussian": { 
		 "optdone": 1, 
		 "sigma_profile": "yes", 
		 "theory": "DFT", 
		 "functional": "B3LYP", 
		 "basiset": "6-31G**", 
		 "properties": { 
			 "R2extent": 7319.1793, 
			 "electric_dipole_moment_norm": 3.23414386507, 
			 "electric_quadrupole_moment_norm": 17.6305190462, 
			 "total_energy": -1185.26264218, 
			 "HOMO_LUMO_gap": 0.19669, 
			 "cosmo_polarized_energy": -17.9, 
			 "cosmo_cavitation_energy": 38.24, 
			 "cosmo_dispersion_energy": -27.62, 
			 "cosmo_repulsion_energy": 2.06, 
			 "cosmo_total_nonelectrostatic_energy": 12.69, 
			 "SMD_solvation_energy": 4.17 
		},
		"coords": [
			{
				"x": -0.9070966829,
				"y": -2.9839955527,
				"z": -2.5463454587,
				"element": "O" 
			},
			{
				"x": -0.1818152262,
				"y": -1.9344491482,
				"z": -2.0643171201,
				"element": "C" 
			},
			{
				"x": 1.0213801265,
				"y": -2.0091408841,
				"z": -2.0547570714,
				"element": "O" 
			},
			{
				"x": -0.9914888037,
				"y": -0.7362885786,
				"z": -1.5215971363,
				"element": "C" 
			},
			{
				"x": -1.7450258666,
				"y": -1.1922081667,
				"z": -0.224867308,
				"element": "C" 
			},
			{
				"x": -0.8859172429,
				"y": -1.6762033857,
				"z": 0.9099519399,
				"element": "C" 
			},
			{
				"x": -0.4060738376,
				"y": -0.8982585786,
				"z": 1.8273876752,
				"element": "N" 
			},
			{
				"x": 0.3518632268,
				"y": -1.6060413528,
				"z": 2.7472691625,
				"element": "C" 
			},
			{
				"x": 0.4421671774,
				"y": -3.0005565013,
				"z": 2.5135531013,
				"element": "C" 
			},
			{
				"x": -0.4692498651,
				"y": -3.4001828005,
				"z": 1.0744976825,
				"element": "S" 
			},
			{
				"x": 1.170875522,
				"y": -3.8358309994,
				"z": 3.364721379,
				"element": "C" 
			},
			{
				"x": 1.8115572231,
				"y": -3.2587569029,
				"z": 4.4577151376,
				"element": "C" 
			},
			{
				"x": 1.7294087264,
				"y": -1.875934839,
				"z": 4.7006639364,
				"element": "C" 
			},
			{
				"x": 1.0049278936,
				"y": -1.0454010947,
				"z": 3.8551025059,
				"element": "C" 
			},
			{
				"x": -0.0367936662,
				"y": 0.4403243222,
				"z": -1.2150733459,
				"element": "C" 
			},
			{
				"x": 0.5688914846,
				"y": 1.0775882706,
				"z": -2.476668445,
				"element": "C" 
			},
			{
				"x": -0.5070966394,
				"y": 1.4988078222,
				"z": -3.487111201,
				"element": "C" 
			},
			{
				"x": -1.4384251611,
				"y": 0.3258827697,
				"z": -3.825373004,
				"element": "C" 
			},
			{
				"x": -2.0562891078,
				"y": -0.267160693,
				"z": -2.5507865962,
				"element": "C" 
			},
			{
				"x": -1.8525165563,
				"y": -2.7800961025,
				"z": -2.5278284733,
				"element": "H" 
			},
			{
				"x": -2.3056763275,
				"y": -0.3292580339,
				"z": 0.1473017984,
				"element": "H" 
			},
			{
				"x": -2.4797169057,
				"y": -1.9654440405,
				"z": -0.4805918053,
				"element": "H" 
			},
			{
				"x": 1.2394419055,
				"y": -4.9030542977,
				"z": 3.1804701943,
				"element": "H" 
			},
			{
				"x": 2.3844690093,
				"y": -3.8884644931,
				"z": 5.1318567189,
				"element": "H" 
			},
			{
				"x": 2.2407732525,
				"y": -1.4538367485,
				"z": 5.5605049186,
				"element": "H" 
			},
			{
				"x": 0.9329927116,
				"y": 0.0233530539,
				"z": 4.0278270286,
				"element": "H" 
			},
			{
				"x": -0.6116342272,
				"y": 1.1955705312,
				"z": -0.6631310998,
				"element": "H" 
			},
			{
				"x": 0.7577595204,
				"y": 0.1002659774,
				"z": -0.5481466738,
				"element": "H" 
			},
			{
				"x": 1.2546194413,
				"y": 0.3622973291,
				"z": -2.9428602906,
				"element": "H" 
			},
			{
				"x": 1.1713696212,
				"y": 1.9452383439,
				"z": -2.1836423417,
				"element": "H" 
			},
			{
				"x": -0.0419185834,
				"y": 1.886417136,
				"z": -4.400797516,
				"element": "H" 
			},
			{
				"x": -1.1059567298,
				"y": 2.3202472569,
				"z": -3.0678184724,
				"element": "H" 
			},
			{
				"x": -2.2384693903,
				"y": 0.6503898766,
				"z": -4.5009360725,
				"element": "H" 
			},
			{
				"x": -0.8758900051,
				"y": -0.4517748266,
				"z": -4.3597808264,
				"element": "H" 
			},
			{
				"x": -2.6721572011,
				"y": 0.4979996794,
				"z": -2.0598275817,
				"element": "H" 
			},
			{
				"x": -2.7540888161,
				"y": -1.0786443483,
				"z": -2.8053653392,
				"element": "H" 
			}
		],
		 "valence_orbital": [ 
			{
				"type": "occ",
				"energy": -0.3006,
				"method": "rhf"
			},
			{
				"type": "occ",
				"energy": -0.27469,
				"method": "rhf"
			},
			{
				"type": "occ",
				"energy": -0.26714,
				"method": "rhf"
			},
			{
				"type": "occ",
				"energy": -0.23745,
				"method": "rhf"
			},
			{
				"type": "occ",
				"energy": -0.23364,
				"method": "rhf"
			},
			{
				"type": "unocc",
				"energy": -0.03695,
				"method": "rhf"
			},
			{
				"type": "unocc",
				"energy": -0.00542,
				"method": "rhf"
			},
			{
				"type": "unocc",
				"energy": 0.00424,
				"method": "rhf"
			},
			{
				"type": "unocc",
				"energy": 0.00916,
				"method": "rhf"
			},
			{
				"type": "unocc",
				"energy": 0.03035,
				"method": "rhf"
			}
		],
		"cosmo_sigma_profile": { 
			"-0.025": 0.0,
			"-0.024": 0.0,
			"-0.023": 0.0,
			"-0.022": 0.0,
			"-0.021": 0.0,
			"-0.02": 0.0,
			"-0.019": 0.0,
			"-0.018": 0.457881313854,
			"-0.017": 1.17645264563,
			"-0.016": 0.785452594406,
			"-0.015": 1.39631126202,
			"-0.014": 1.39947152968,
			"-0.013": 0.719126300788,
			"-0.012": 1.02185537693,
			"-0.011": 1.08153497785,
			"-0.01": 1.35965571661,
			"-0.009": 1.45184069637,
			"-0.008": 1.75128739952,
			"-0.007": 4.95079499688,
			"-0.006": 13.6454573591,
			"-0.005": 15.1439873857,
			"-0.004": 17.5210305221,
			"-0.003": 25.1719829576,
			"-0.002": 28.5812582316,
			"-0.001": 29.5871247735,
			"0.0": 30.1468157226,
			"0.001": 23.7011127733,
			"0.002": 19.0960219314,
			"0.003": 18.8324011869,
			"0.004": 17.1054950519,
			"0.005": 10.8937448949,
			"0.006": 5.34522020632,
			"0.007": 4.2515049842,
			"0.008": 3.97403190657,
			"0.009": 3.28925329507,
			"0.01": 5.43949966746,
			"0.011": 6.10924173656,
			"0.012": 4.77415670462,
			"0.013": 2.05336020242,
			"0.014": 0.548739138111,
			"0.015": 0.142934200584,
			"0.016": 0.0,
			"0.017": 0.0,
			"0.018": 0.0,
			"0.019": 0.0,
			"0.02": 0.0,
			"0.021": 0.0,
			"0.022": 0.0,
			"0.023": 0.0,
			"0.024": 0.0,
			"0.025": 0.0
		}
	}
}
