{
	 "smiles": "NC1=NC=C(C=C1)C1=NN=CN1C1=CC=CC=C1", 
	 "Tm": 493.15, 
	 "num_atms": 29, 
	 "gaussian": { 
		 "optdone": 1, 
		 "sigma_profile": "yes", 
		 "theory": "DFT", 
		 "functional": "B3LYP", 
		 "basiset": "6-31G**", 
		 "properties": { 
			 "R2extent": 5235.5698, 
			 "electric_dipole_moment_norm": 8.03814217901, 
			 "electric_quadrupole_moment_norm": 28.1871130077, 
			 "total_energy": -775.75345373, 
			 "HOMO_LUMO_gap": 0.17378, 
			 "cosmo_polarized_energy": -22.6, 
			 "cosmo_cavitation_energy": 33.94, 
			 "cosmo_dispersion_energy": -23.99, 
			 "cosmo_repulsion_energy": 1.85, 
			 "cosmo_total_nonelectrostatic_energy": 11.8, 
			 "SMD_solvation_energy": 2.84 
		},
		"coords": [
			{
				"x": 3.5462779313,
				"y": 1.3801020494,
				"z": -3.6697079496,
				"element": "N" 
			},
			{
				"x": 2.8407409171,
				"y": 1.4788840414,
				"z": -2.4915236031,
				"element": "C" 
			},
			{
				"x": 3.4665204637,
				"y": 2.1030687527,
				"z": -1.4785617109,
				"element": "N" 
			},
			{
				"x": 2.8035160969,
				"y": 2.2620502901,
				"z": -0.3336836717,
				"element": "C" 
			},
			{
				"x": 1.4940141586,
				"y": 1.8099833692,
				"z": -0.1053209941,
				"element": "C" 
			},
			{
				"x": 0.8528072683,
				"y": 1.1634008678,
				"z": -1.1777748408,
				"element": "C" 
			},
			{
				"x": 1.5216148029,
				"y": 0.991492993,
				"z": -2.3772059015,
				"element": "C" 
			},
			{
				"x": 0.8669857355,
				"y": 2.0871501884,
				"z": 1.1891747118,
				"element": "C" 
			},
			{
				"x": 1.1421173719,
				"y": 3.1441182222,
				"z": 1.9311448638,
				"element": "N" 
			},
			{
				"x": 0.3682499113,
				"y": 3.0893921636,
				"z": 3.0686620422,
				"element": "N" 
			},
			{
				"x": -0.365545611,
				"y": 2.0114839857,
				"z": 2.9844313832,
				"element": "C" 
			},
			{
				"x": -0.1029809721,
				"y": 1.3217072755,
				"z": 1.8216848882,
				"element": "N" 
			},
			{
				"x": -0.6502513008,
				"y": 0.0473686339,
				"z": 1.4798490394,
				"element": "C" 
			},
			{
				"x": 0.1934858849,
				"y": -1.0529238643,
				"z": 1.2939832963,
				"element": "C" 
			},
			{
				"x": -0.3575820742,
				"y": -2.2959703758,
				"z": 0.9861594448,
				"element": "C" 
			},
			{
				"x": -1.742369982,
				"y": -2.447829575,
				"z": 0.8798780516,
				"element": "C" 
			},
			{
				"x": -2.5793312509,
				"y": -1.3480656378,
				"z": 1.0762051383,
				"element": "C" 
			},
			{
				"x": -2.0368962298,
				"y": -0.0961919492,
				"z": 1.3699814974,
				"element": "C" 
			},
			{
				"x": 4.5340454747,
				"y": 1.5730829156,
				"z": -3.5876413441,
				"element": "H" 
			},
			{
				"x": 3.2907664249,
				"y": 0.65570209,
				"z": -4.3223813359,
				"element": "H" 
			},
			{
				"x": 3.3299639723,
				"y": 2.7779737126,
				"z": 0.4654654863,
				"element": "H" 
			},
			{
				"x": -0.1688038819,
				"y": 0.812041446,
				"z": -1.0800373635,
				"element": "H" 
			},
			{
				"x": 1.0369966205,
				"y": 0.5089979037,
				"z": -3.2206075386,
				"element": "H" 
			},
			{
				"x": -1.0772126331,
				"y": 1.6611365003,
				"z": 3.7181873721,
				"element": "H" 
			},
			{
				"x": 1.2663019511,
				"y": -0.9279320941,
				"z": 1.3940106957,
				"element": "H" 
			},
			{
				"x": 0.2971551285,
				"y": -3.1498369834,
				"z": 0.8404664865,
				"element": "H" 
			},
			{
				"x": -2.1666270024,
				"y": -3.4196169054,
				"z": 0.6464962935,
				"element": "H" 
			},
			{
				"x": -3.6562610004,
				"y": -1.4594794925,
				"z": 0.9939671545,
				"element": "H" 
			},
			{
				"x": -2.6767981759,
				"y": 0.7700094763,
				"z": 1.5062984083,
				"element": "H" 
			}
		],
		 "valence_orbital": [ 
			{
				"type": "occ",
				"energy": -0.26622,
				"method": "rhf"
			},
			{
				"type": "occ",
				"energy": -0.26411,
				"method": "rhf"
			},
			{
				"type": "occ",
				"energy": -0.25687,
				"method": "rhf"
			},
			{
				"type": "occ",
				"energy": -0.24044,
				"method": "rhf"
			},
			{
				"type": "occ",
				"energy": -0.2076,
				"method": "rhf"
			},
			{
				"type": "unocc",
				"energy": -0.03382,
				"method": "rhf"
			},
			{
				"type": "unocc",
				"energy": -0.02943,
				"method": "rhf"
			},
			{
				"type": "unocc",
				"energy": -0.0182,
				"method": "rhf"
			},
			{
				"type": "unocc",
				"energy": -0.01228,
				"method": "rhf"
			},
			{
				"type": "unocc",
				"energy": 0.03618,
				"method": "rhf"
			}
		],
		"cosmo_sigma_profile": { 
			"-0.025": 0.0,
			"-0.024": 0.0,
			"-0.023": 0.0,
			"-0.022": 0.0,
			"-0.021": 0.0,
			"-0.02": 0.0,
			"-0.019": 0.0,
			"-0.018": 0.0,
			"-0.017": 0.0,
			"-0.016": 0.0,
			"-0.015": 0.0,
			"-0.014": 0.393577700598,
			"-0.013": 2.19028261116,
			"-0.012": 2.29880338574,
			"-0.011": 2.51729247806,
			"-0.01": 4.68394008154,
			"-0.009": 3.69778928454,
			"-0.008": 4.82806946533,
			"-0.007": 11.1242207403,
			"-0.006": 18.6839076978,
			"-0.005": 21.3317291508,
			"-0.004": 17.9930457021,
			"-0.003": 15.0821218388,
			"-0.002": 15.7296572259,
			"-0.001": 14.6142445743,
			"0.0": 16.1643626586,
			"0.001": 18.4491777191,
			"0.002": 21.4413406007,
			"0.003": 19.6272720696,
			"0.004": 12.9078002921,
			"0.005": 5.96377155907,
			"0.006": 4.89102416769,
			"0.007": 4.57331841738,
			"0.008": 3.22824599282,
			"0.009": 4.86910915317,
			"0.01": 3.45732375344,
			"0.011": 3.72447118073,
			"0.012": 3.35851054307,
			"0.013": 3.85590070277,
			"0.014": 4.4387203327,
			"0.015": 3.32040846493,
			"0.016": 2.54193187906,
			"0.017": 0.760895324146,
			"0.018": 0.0,
			"0.019": 0.0,
			"0.02": 0.0,
			"0.021": 0.0,
			"0.022": 0.0,
			"0.023": 0.0,
			"0.024": 0.0,
			"0.025": 0.0
		}
	}
}
