{
	 "smiles": "COC1=CC=C(C=C1)C1=CC=C(C=C1)S(=O)(=O)NC(C(C)C)C(O)=O", 
	 "Tm": 451.15, 
	 "num_atms": 46, 
	 "gaussian": { 
		 "optdone": 1, 
		 "sigma_profile": "yes", 
		 "theory": "DFT", 
		 "functional": "B3LYP", 
		 "basiset": "6-31G**", 
		 "properties": { 
			 "R2extent": 15835.6684, 
			 "electric_dipole_moment_norm": 7.06650576028, 
			 "electric_quadrupole_moment_norm": 19.5221351033, 
			 "total_energy": -1527.57662291, 
			 "HOMO_LUMO_gap": 0.17127, 
			 "cosmo_polarized_energy": -23.69, 
			 "cosmo_cavitation_energy": 50.31, 
			 "cosmo_dispersion_energy": -35.27, 
			 "cosmo_repulsion_energy": 2.62, 
			 "cosmo_total_nonelectrostatic_energy": 17.67, 
			 "SMD_solvation_energy": 9.19 
		},
		"coords": [
			{
				"x": 1.6961988894,
				"y": 8.7619765552,
				"z": 1.0120324886,
				"element": "C" 
			},
			{
				"x": 1.5509269517,
				"y": 7.8215939243,
				"z": 2.0655198856,
				"element": "O" 
			},
			{
				"x": 1.3430574637,
				"y": 6.5148138842,
				"z": 1.7419821338,
				"element": "C" 
			},
			{
				"x": 1.2705243699,
				"y": 6.0165669475,
				"z": 0.4354576393,
				"element": "C" 
			},
			{
				"x": 1.0514516104,
				"y": 4.654116178,
				"z": 0.2272449218,
				"element": "C" 
			},
			{
				"x": 0.9029217203,
				"y": 3.7577234443,
				"z": 1.2947564775,
				"element": "C" 
			},
			{
				"x": 0.9811035451,
				"y": 4.2818584226,
				"z": 2.6002538082,
				"element": "C" 
			},
			{
				"x": 1.1952267317,
				"y": 5.6334236918,
				"z": 2.8243321155,
				"element": "C" 
			},
			{
				"x": 0.6735278507,
				"y": 2.3123930026,
				"z": 1.0608088478,
				"element": "C" 
			},
			{
				"x": 1.2381621882,
				"y": 1.3441336875,
				"z": 1.9096052097,
				"element": "C" 
			},
			{
				"x": 1.0264295971,
				"y": -0.0157538113,
				"z": 1.6951243007,
				"element": "C" 
			},
			{
				"x": 0.2434796278,
				"y": -0.4202953452,
				"z": 0.6135505975,
				"element": "C" 
			},
			{
				"x": -0.3338476465,
				"y": 0.5159437251,
				"z": -0.2490600675,
				"element": "C" 
			},
			{
				"x": -0.1142042244,
				"y": 1.8694627692,
				"z": -0.0200542514,
				"element": "C" 
			},
			{
				"x": -0.0787670829,
				"y": -2.1647174523,
				"z": 0.3884385206,
				"element": "S" 
			},
			{
				"x": 0.8264317685,
				"y": -2.8971599705,
				"z": 1.2853389518,
				"element": "O" 
			},
			{
				"x": -1.522332201,
				"y": -2.4224935292,
				"z": 0.4163857958,
				"element": "O" 
			},
			{
				"x": 0.391959432,
				"y": -2.4041058052,
				"z": -1.2293704885,
				"element": "N" 
			},
			{
				"x": -0.3687504306,
				"y": -3.404858341,
				"z": -1.9922337956,
				"element": "C" 
			},
			{
				"x": 0.4823093805,
				"y": -3.9596259488,
				"z": -3.1724039891,
				"element": "C" 
			},
			{
				"x": 0.9550377846,
				"y": -2.865891905,
				"z": -4.142535989,
				"element": "C" 
			},
			{
				"x": 1.6536535048,
				"y": -4.8166351121,
				"z": -2.6684785401,
				"element": "C" 
			},
			{
				"x": -1.689982794,
				"y": -2.8705146834,
				"z": -2.539966537,
				"element": "C" 
			},
			{
				"x": -1.7764509188,
				"y": -1.5238021744,
				"z": -2.6218969513,
				"element": "O" 
			},
			{
				"x": -2.5686509455,
				"y": -3.6050689392,
				"z": -2.9321473107,
				"element": "O" 
			},
			{
				"x": 0.7995269135,
				"y": 8.8036596231,
				"z": 0.3805702752,
				"element": "H" 
			},
			{
				"x": 1.8428043689,
				"y": 9.7307842849,
				"z": 1.4915817945,
				"element": "H" 
			},
			{
				"x": 2.5672621314,
				"y": 8.5349571197,
				"z": 0.3841066193,
				"element": "H" 
			},
			{
				"x": 1.3918383805,
				"y": 6.6707037298,
				"z": -0.419705234,
				"element": "H" 
			},
			{
				"x": 1.0248164044,
				"y": 4.2813757583,
				"z": -0.7924801975,
				"element": "H" 
			},
			{
				"x": 0.8428667882,
				"y": 3.6221980693,
				"z": 3.4516318763,
				"element": "H" 
			},
			{
				"x": 1.2422478718,
				"y": 6.0367554729,
				"z": 3.8305129354,
				"element": "H" 
			},
			{
				"x": 1.8730441942,
				"y": 1.6578278913,
				"z": 2.7321826144,
				"element": "H" 
			},
			{
				"x": 1.4703375338,
				"y": -0.7621589885,
				"z": 2.3443270055,
				"element": "H" 
			},
			{
				"x": -0.93762562,
				"y": 0.1809241569,
				"z": -1.0851227597,
				"element": "H" 
			},
			{
				"x": -0.5815833436,
				"y": 2.5998644833,
				"z": -0.6730905867,
				"element": "H" 
			},
			{
				"x": 1.3918862757,
				"y": -2.5875898916,
				"z": -1.2420110992,
				"element": "H" 
			},
			{
				"x": -0.6598028903,
				"y": -4.2618331946,
				"z": -1.3734287843,
				"element": "H" 
			},
			{
				"x": -0.2068913389,
				"y": -4.6222559111,
				"z": -3.7088348181,
				"element": "H" 
			},
			{
				"x": 0.1192763293,
				"y": -2.2760548628,
				"z": -4.5293778729,
				"element": "H" 
			},
			{
				"x": 1.4715927275,
				"y": -3.318349141,
				"z": -4.9948521992,
				"element": "H" 
			},
			{
				"x": 1.6518057344,
				"y": -2.1711331795,
				"z": -3.6621834831,
				"element": "H" 
			},
			{
				"x": 2.4163070764,
				"y": -4.2232979907,
				"z": -2.149169893,
				"element": "H" 
			},
			{
				"x": 1.3139727431,
				"y": -5.5981868947,
				"z": -1.9816394406,
				"element": "H" 
			},
			{
				"x": 2.1535028251,
				"y": -5.3016926968,
				"z": -3.5126293942,
				"element": "H" 
			},
			{
				"x": -2.6634012781,
				"y": -1.3463810533,
				"z": -2.9792711318,
				"element": "H" 
			}
		],
		 "valence_orbital": [ 
			{
				"type": "occ",
				"energy": -0.27439,
				"method": "rhf"
			},
			{
				"type": "occ",
				"energy": -0.26599,
				"method": "rhf"
			},
			{
				"type": "occ",
				"energy": -0.26131,
				"method": "rhf"
			},
			{
				"type": "occ",
				"energy": -0.259,
				"method": "rhf"
			},
			{
				"type": "occ",
				"energy": -0.2179,
				"method": "rhf"
			},
			{
				"type": "unocc",
				"energy": -0.04663,
				"method": "rhf"
			},
			{
				"type": "unocc",
				"energy": -0.01702,
				"method": "rhf"
			},
			{
				"type": "unocc",
				"energy": -0.01027,
				"method": "rhf"
			},
			{
				"type": "unocc",
				"energy": 0.00487,
				"method": "rhf"
			},
			{
				"type": "unocc",
				"energy": 0.01655,
				"method": "rhf"
			}
		],
		"cosmo_sigma_profile": { 
			"-0.025": 0.0,
			"-0.024": 0.0,
			"-0.023": 0.0,
			"-0.022": 0.0,
			"-0.021": 0.0,
			"-0.02": 0.0,
			"-0.019": 0.12331829347,
			"-0.018": 1.35169192569,
			"-0.017": 0.297477606249,
			"-0.016": 1.01288250973,
			"-0.015": 0.800488267291,
			"-0.014": 1.42187930363,
			"-0.013": 1.06374315817,
			"-0.012": 1.90459339813,
			"-0.011": 1.67711367754,
			"-0.01": 1.76284039549,
			"-0.009": 2.47420719045,
			"-0.008": 2.10023073432,
			"-0.007": 6.64577437299,
			"-0.006": 24.063136145,
			"-0.005": 29.5608327789,
			"-0.004": 32.4833599473,
			"-0.003": 36.2265186946,
			"-0.002": 29.9449469106,
			"-0.001": 25.3731291154,
			"0.0": 27.9449869981,
			"0.001": 24.9111249847,
			"0.002": 23.6119770887,
			"0.003": 29.1169557123,
			"0.004": 18.3264243352,
			"0.005": 15.8955789389,
			"0.006": 6.69165913693,
			"0.007": 6.87734646758,
			"0.008": 7.22136861341,
			"0.009": 8.35754952635,
			"0.01": 9.98259770663,
			"0.011": 12.6254640374,
			"0.012": 6.34679514364,
			"0.013": 0.178523351261,
			"0.014": 0.0,
			"0.015": 0.0,
			"0.016": 0.0,
			"0.017": 0.0,
			"0.018": 0.0,
			"0.019": 0.0,
			"0.02": 0.0,
			"0.021": 0.0,
			"0.022": 0.0,
			"0.023": 0.0,
			"0.024": 0.0,
			"0.025": 0.0
		}
	}
}
