{
	 "smiles": "FC(F)(F)C1=CC(Br)=C(C=C1)N1CCOCC1", 
	 "Tm": 324.15, 
	 "num_atms": 28, 
	 "gaussian": { 
		 "optdone": 1, 
		 "sigma_profile": "yes", 
		 "theory": "DFT", 
		 "functional": "B3LYP", 
		 "basiset": "6-31G**", 
		 "properties": { 
			 "R2extent": 7853.8654, 
			 "electric_dipole_moment_norm": 2.64050163416, 
			 "electric_quadrupole_moment_norm": 15.1585015114, 
			 "total_energy": -3426.68065605, 
			 "HOMO_LUMO_gap": 0.18191, 
			 "cosmo_polarized_energy": -8.16, 
			 "cosmo_cavitation_energy": 33.61, 
			 "cosmo_dispersion_energy": -24.43, 
			 "cosmo_repulsion_energy": 1.82, 
			 "cosmo_total_nonelectrostatic_energy": 11.01, 
			 "SMD_solvation_energy": 4.81 
		},
		"coords": [
			{
				"x": 5.1527791331,
				"y": -0.8551987873,
				"z": -1.9686886858,
				"element": "F" 
			},
			{
				"x": 4.5536986677,
				"y": 0.2983055624,
				"z": -2.3433468645,
				"element": "C" 
			},
			{
				"x": 4.5798276286,
				"y": 0.3528911493,
				"z": -3.6935496066,
				"element": "F" 
			},
			{
				"x": 5.3401950105,
				"y": 1.3063431857,
				"z": -1.8958999276,
				"element": "F" 
			},
			{
				"x": 3.1556862926,
				"y": 0.3963419732,
				"z": -1.8049172509,
				"element": "C" 
			},
			{
				"x": 2.1762470143,
				"y": 1.0893126834,
				"z": -2.5173440929,
				"element": "C" 
			},
			{
				"x": 0.898942142,
				"y": 1.239927314,
				"z": -1.9899644551,
				"element": "C" 
			},
			{
				"x": -0.3132520459,
				"y": 2.3443308886,
				"z": -2.9786424482,
				"element": "Br" 
			},
			{
				"x": 0.5292406678,
				"y": 0.6702436244,
				"z": -0.7460474432,
				"element": "C" 
			},
			{
				"x": 1.551372224,
				"y": -0.0138829166,
				"z": -0.0506421421,
				"element": "C" 
			},
			{
				"x": 2.8383524311,
				"y": -0.1407340246,
				"z": -0.5565377113,
				"element": "C" 
			},
			{
				"x": -0.7525232872,
				"y": 0.8252460546,
				"z": -0.2093050535,
				"element": "N" 
			},
			{
				"x": -0.9614542437,
				"y": 0.8006643892,
				"z": 1.2402153695,
				"element": "C" 
			},
			{
				"x": -1.472546608,
				"y": -0.5560356303,
				"z": 1.7395051884,
				"element": "C" 
			},
			{
				"x": -2.6405824638,
				"y": -0.9420374758,
				"z": 1.0283147343,
				"element": "O" 
			},
			{
				"x": -2.3900500384,
				"y": -1.0184149491,
				"z": -0.3700124547,
				"element": "C" 
			},
			{
				"x": -1.9359906686,
				"y": 0.3319945602,
				"z": -0.9318795994,
				"element": "C" 
			},
			{
				"x": 2.4131233206,
				"y": 1.5358501206,
				"z": -3.4752495872,
				"element": "H" 
			},
			{
				"x": 1.3175626958,
				"y": -0.4795772891,
				"z": 0.8994249566,
				"element": "H" 
			},
			{
				"x": 3.5881644999,
				"y": -0.6875178776,
				"z": 0.0051062367,
				"element": "H" 
			},
			{
				"x": -1.7245848627,
				"y": 1.5561357372,
				"z": 1.4732776294,
				"element": "H" 
			},
			{
				"x": -0.0417830135,
				"y": 1.0950786344,
				"z": 1.7517970072,
				"element": "H" 
			},
			{
				"x": -1.7541278954,
				"y": -0.4965064073,
				"z": 2.7955061175,
				"element": "H" 
			},
			{
				"x": -0.6937135965,
				"y": -1.3296226246,
				"z": 1.6322636509,
				"element": "H" 
			},
			{
				"x": -3.3291947944,
				"y": -1.3309118337,
				"z": -0.8371299526,
				"element": "H" 
			},
			{
				"x": -1.6248011347,
				"y": -1.7853545903,
				"z": -0.5783157084,
				"element": "H" 
			},
			{
				"x": -2.7474141634,
				"y": 1.0627019464,
				"z": -0.8201406582,
				"element": "H" 
			},
			{
				"x": -1.7151729118,
				"y": 0.2399265828,
				"z": -1.9950972484,
				"element": "H" 
			}
		],
		 "valence_orbital": [ 
			{
				"type": "occ",
				"energy": -0.29829,
				"method": "rhf"
			},
			{
				"type": "occ",
				"energy": -0.29039,
				"method": "rhf"
			},
			{
				"type": "occ",
				"energy": -0.27146,
				"method": "rhf"
			},
			{
				"type": "occ",
				"energy": -0.25527,
				"method": "rhf"
			},
			{
				"type": "occ",
				"energy": -0.21115,
				"method": "rhf"
			},
			{
				"type": "unocc",
				"energy": -0.02924,
				"method": "rhf"
			},
			{
				"type": "unocc",
				"energy": -0.02623,
				"method": "rhf"
			},
			{
				"type": "unocc",
				"energy": 0.00127,
				"method": "rhf"
			},
			{
				"type": "unocc",
				"energy": 0.08233,
				"method": "rhf"
			},
			{
				"type": "unocc",
				"energy": 0.09606,
				"method": "rhf"
			}
		],
		"cosmo_sigma_profile": { 
			"-0.025": 0.0,
			"-0.024": 0.0,
			"-0.023": 0.0,
			"-0.022": 0.0,
			"-0.021": 0.0,
			"-0.02": 0.0,
			"-0.019": 0.0,
			"-0.018": 0.0,
			"-0.017": 0.0,
			"-0.016": 0.0,
			"-0.015": 0.0,
			"-0.014": 0.0,
			"-0.013": 0.0,
			"-0.012": 0.0,
			"-0.011": 0.0,
			"-0.01": 0.0,
			"-0.009": 0.0,
			"-0.008": 1.33770533221,
			"-0.007": 4.98726701256,
			"-0.006": 9.87876861473,
			"-0.005": 18.4118638772,
			"-0.004": 28.7913767599,
			"-0.003": 23.965378938,
			"-0.002": 18.854621949,
			"-0.001": 14.955239054,
			"0.0": 16.504915611,
			"0.001": 21.0692106221,
			"0.002": 34.093478099,
			"0.003": 43.3530104728,
			"0.004": 13.7822328705,
			"0.005": 5.00608958339,
			"0.006": 2.98099028813,
			"0.007": 2.7999076707,
			"0.008": 2.07516637379,
			"0.009": 1.12922283691,
			"0.01": 0.890897117492,
			"0.011": 1.34487178055,
			"0.012": 1.50774130495,
			"0.013": 1.87603903781,
			"0.014": 0.308565218386,
			"0.015": 0.0,
			"0.016": 0.0,
			"0.017": 0.0,
			"0.018": 0.0,
			"0.019": 0.0,
			"0.02": 0.0,
			"0.021": 0.0,
			"0.022": 0.0,
			"0.023": 0.0,
			"0.024": 0.0,
			"0.025": 0.0
		}
	}
}
