{
	 "smiles": "CC1=NN(CC2=CC=CC=C2)C(C)=C1C(O)=O", 
	 "Tm": 411.15, 
	 "num_atms": 31, 
	 "gaussian": { 
		 "optdone": 1, 
		 "sigma_profile": "yes", 
		 "theory": "DFT", 
		 "functional": "B3LYP", 
		 "basiset": "6-31G**", 
		 "properties": { 
			 "R2extent": 4774.6901, 
			 "electric_dipole_moment_norm": 6.12361924845, 
			 "electric_quadrupole_moment_norm": 21.5130413296, 
			 "total_energy": -763.779905585, 
			 "HOMO_LUMO_gap": 0.22484, 
			 "cosmo_polarized_energy": -18.17, 
			 "cosmo_cavitation_energy": 34.89, 
			 "cosmo_dispersion_energy": -24.2, 
			 "cosmo_repulsion_energy": 1.88, 
			 "cosmo_total_nonelectrostatic_energy": 12.57, 
			 "SMD_solvation_energy": 5.94 
		},
		"coords": [
			{
				"x": 2.6897028359,
				"y": 1.3619516403,
				"z": -2.4609122283,
				"element": "C" 
			},
			{
				"x": 1.7808726683,
				"y": 0.5662662813,
				"z": -1.5784571643,
				"element": "C" 
			},
			{
				"x": 1.6833522952,
				"y": 0.8343384701,
				"z": -0.2823327206,
				"element": "N" 
			},
			{
				"x": 0.8034191986,
				"y": -0.0820343667,
				"z": 0.2145621552,
				"element": "N" 
			},
			{
				"x": 0.4432414492,
				"y": -0.0129626253,
				"z": 1.6269359432,
				"element": "C" 
			},
			{
				"x": -0.8831731877,
				"y": 0.6817313447,
				"z": 1.883563188,
				"element": "C" 
			},
			{
				"x": -1.1351499128,
				"y": 1.947875015,
				"z": 1.337069881,
				"element": "C" 
			},
			{
				"x": -2.3421971263,
				"y": 2.5962619657,
				"z": 1.5929400141,
				"element": "C" 
			},
			{
				"x": -3.3098771176,
				"y": 1.9906445149,
				"z": 2.3999751885,
				"element": "C" 
			},
			{
				"x": -3.0647729888,
				"y": 0.7318553709,
				"z": 2.9481316513,
				"element": "C" 
			},
			{
				"x": -1.856767518,
				"y": 0.0798906115,
				"z": 2.6871626892,
				"element": "C" 
			},
			{
				"x": 0.3161358622,
				"y": -0.9156489701,
				"z": -0.7396629678,
				"element": "C" 
			},
			{
				"x": -0.6317580108,
				"y": -2.03025676,
				"z": -0.4162587848,
				"element": "C" 
			},
			{
				"x": 0.9275365517,
				"y": -0.5214526732,
				"z": -1.9348473827,
				"element": "C" 
			},
			{
				"x": 0.8183370157,
				"y": -1.0929325813,
				"z": -3.2885032668,
				"element": "C" 
			},
			{
				"x": -0.3445108286,
				"y": -1.7556383514,
				"z": -3.5859128896,
				"element": "O" 
			},
			{
				"x": 1.6800956853,
				"y": -1.0040608563,
				"z": -4.1335402237,
				"element": "O" 
			},
			{
				"x": 3.1830551867,
				"y": 2.139048182,
				"z": -1.8732708223,
				"element": "H" 
			},
			{
				"x": 2.1356824232,
				"y": 1.8310564675,
				"z": -3.2803517116,
				"element": "H" 
			},
			{
				"x": 3.4421380008,
				"y": 0.7175854213,
				"z": -2.9230083402,
				"element": "H" 
			},
			{
				"x": 1.2659132865,
				"y": 0.5260990027,
				"z": 2.1037330029,
				"element": "H" 
			},
			{
				"x": 0.4264982414,
				"y": -1.0259620474,
				"z": 2.0407592255,
				"element": "H" 
			},
			{
				"x": -0.3805211328,
				"y": 2.4160845499,
				"z": 0.7112496303,
				"element": "H" 
			},
			{
				"x": -2.5279642896,
				"y": 3.5772041754,
				"z": 1.1649374126,
				"element": "H" 
			},
			{
				"x": -4.2491284385,
				"y": 2.4984873326,
				"z": 2.5988864766,
				"element": "H" 
			},
			{
				"x": -3.812392785,
				"y": 0.2536168648,
				"z": 3.5744195402,
				"element": "H" 
			},
			{
				"x": -1.6697626433,
				"y": -0.9021757001,
				"z": 3.1157838277,
				"element": "H" 
			},
			{
				"x": -0.7024402685,
				"y": -2.7285339328,
				"z": -1.2522032075,
				"element": "H" 
			},
			{
				"x": -0.2866419123,
				"y": -2.6024600592,
				"z": 0.4514641569,
				"element": "H" 
			},
			{
				"x": -1.6359722907,
				"y": -1.6591948567,
				"z": -0.1788655671,
				"element": "H" 
			},
			{
				"x": -1.0163502495,
				"y": -1.54068343,
				"z": -2.9250467059,
				"element": "H" 
			}
		],
		 "valence_orbital": [ 
			{
				"type": "occ",
				"energy": -0.26859,
				"method": "rhf"
			},
			{
				"type": "occ",
				"energy": -0.26306,
				"method": "rhf"
			},
			{
				"type": "occ",
				"energy": -0.26093,
				"method": "rhf"
			},
			{
				"type": "occ",
				"energy": -0.25057,
				"method": "rhf"
			},
			{
				"type": "occ",
				"energy": -0.24593,
				"method": "rhf"
			},
			{
				"type": "unocc",
				"energy": -0.02109,
				"method": "rhf"
			},
			{
				"type": "unocc",
				"energy": -0.01696,
				"method": "rhf"
			},
			{
				"type": "unocc",
				"energy": -0.01371,
				"method": "rhf"
			},
			{
				"type": "unocc",
				"energy": 0.01922,
				"method": "rhf"
			},
			{
				"type": "unocc",
				"energy": 0.05527,
				"method": "rhf"
			}
		],
		"cosmo_sigma_profile": { 
			"-0.025": 0.0,
			"-0.024": 0.0,
			"-0.023": 0.0,
			"-0.022": 0.0,
			"-0.021": 0.0,
			"-0.02": 0.0,
			"-0.019": 0.0,
			"-0.018": 0.0348904580879,
			"-0.017": 0.486138514428,
			"-0.016": 0.992682812641,
			"-0.015": 0.72136359075,
			"-0.014": 0.919399491826,
			"-0.013": 1.12783147444,
			"-0.012": 0.809730218418,
			"-0.011": 1.20328007176,
			"-0.01": 1.09694056704,
			"-0.009": 0.830602102696,
			"-0.008": 3.43573418716,
			"-0.007": 7.60045721995,
			"-0.006": 13.4299128132,
			"-0.005": 18.1546983033,
			"-0.004": 25.4835498562,
			"-0.003": 24.5022202205,
			"-0.002": 23.3773829601,
			"-0.001": 20.0618372765,
			"0.0": 19.6444085142,
			"0.001": 16.909746538,
			"0.002": 15.5226516722,
			"0.003": 14.4679922066,
			"0.004": 12.6796219712,
			"0.005": 12.8178901701,
			"0.006": 7.66212657878,
			"0.007": 3.94268725734,
			"0.008": 3.24021629875,
			"0.009": 4.58785308134,
			"0.01": 4.75918775861,
			"0.011": 6.11377728314,
			"0.012": 5.74358589465,
			"0.013": 3.2664353782,
			"0.014": 1.13592013838,
			"0.015": 0.521032224818,
			"0.016": 0.0281842117166,
			"0.017": 0.0,
			"0.018": 0.0,
			"0.019": 0.0,
			"0.02": 0.0,
			"0.021": 0.0,
			"0.022": 0.0,
			"0.023": 0.0,
			"0.024": 0.0,
			"0.025": 0.0
		}
	}
}
