{
	 "smiles": "COC1=C(NC(=O)C(C)Cl)C=C(C=C1)S(=O)(=O)N(C)C", 
	 "Tm": 381.15, 
	 "num_atms": 37, 
	 "gaussian": { 
		 "optdone": 1, 
		 "sigma_profile": "yes", 
		 "theory": "DFT", 
		 "functional": "B3LYP", 
		 "basiset": "6-31G**", 
		 "properties": { 
			 "R2extent": 7490.3296, 
			 "electric_dipole_moment_norm": 8.03173756419, 
			 "electric_quadrupole_moment_norm": 35.4656154358, 
			 "total_energy": -1736.23206288, 
			 "HOMO_LUMO_gap": 0.19104, 
			 "cosmo_polarized_energy": -23.91, 
			 "cosmo_cavitation_energy": 42.81, 
			 "cosmo_dispersion_energy": -29.09, 
			 "cosmo_repulsion_energy": 2.19, 
			 "cosmo_total_nonelectrostatic_energy": 15.91, 
			 "SMD_solvation_energy": 6.84 
		},
		"coords": [
			{
				"x": 0.7237337127,
				"y": -3.3008086387,
				"z": -3.5696397075,
				"element": "C" 
			},
			{
				"x": 1.0353581085,
				"y": -2.7783139391,
				"z": -2.2820271455,
				"element": "O" 
			},
			{
				"x": 0.0500310974,
				"y": -2.1705062956,
				"z": -1.56725979,
				"element": "C" 
			},
			{
				"x": 0.432874614,
				"y": -1.7436564074,
				"z": -0.2675618927,
				"element": "C" 
			},
			{
				"x": 1.758057098,
				"y": -2.0179712619,
				"z": 0.1242687173,
				"element": "N" 
			},
			{
				"x": 2.7041987912,
				"y": -1.2880563374,
				"z": 0.8168320677,
				"element": "C" 
			},
			{
				"x": 3.8305070465,
				"y": -1.7340237437,
				"z": 0.9648865143,
				"element": "O" 
			},
			{
				"x": 2.3294324228,
				"y": 0.1051388732,
				"z": 1.3366023875,
				"element": "C" 
			},
			{
				"x": 3.5155475187,
				"y": 1.052242437,
				"z": 1.2589348937,
				"element": "C" 
			},
			{
				"x": 1.7802678809,
				"y": -0.0648901211,
				"z": 3.0782794951,
				"element": "Cl" 
			},
			{
				"x": -0.5236597523,
				"y": -1.1634005704,
				"z": 0.564410539,
				"element": "C" 
			},
			{
				"x": -1.8231794132,
				"y": -0.9504913029,
				"z": 0.0864343065,
				"element": "C" 
			},
			{
				"x": -2.1954735178,
				"y": -1.3520199955,
				"z": -1.1935556993,
				"element": "C" 
			},
			{
				"x": -1.2562380749,
				"y": -1.9756466139,
				"z": -2.0175842458,
				"element": "C" 
			},
			{
				"x": -3.0389166139,
				"y": -0.1657400041,
				"z": 1.1530872219,
				"element": "S" 
			},
			{
				"x": -4.3596699976,
				"y": -0.5122644789,
				"z": 0.6234637113,
				"element": "O" 
			},
			{
				"x": -2.65171867,
				"y": -0.4459094363,
				"z": 2.5359898528,
				"element": "O" 
			},
			{
				"x": -2.8777357203,
				"y": 1.504809168,
				"z": 0.9474741432,
				"element": "N" 
			},
			{
				"x": -3.3185441075,
				"y": 2.0464497456,
				"z": -0.3385118199,
				"element": "C" 
			},
			{
				"x": -1.6685966285,
				"y": 2.1175952043,
				"z": 1.4977366481,
				"element": "C" 
			},
			{
				"x": 0.4095268918,
				"y": -2.5055205476,
				"z": -4.2557458943,
				"element": "H" 
			},
			{
				"x": -0.0608841099,
				"y": -4.0641530055,
				"z": -3.5109048201,
				"element": "H" 
			},
			{
				"x": 1.6447490739,
				"y": -3.7529368014,
				"z": -3.9383064505,
				"element": "H" 
			},
			{
				"x": 2.1765656938,
				"y": -2.8249717031,
				"z": -0.3250893986,
				"element": "H" 
			},
			{
				"x": 1.4634235352,
				"y": 0.5047371444,
				"z": 0.8079930861,
				"element": "H" 
			},
			{
				"x": 3.2606480315,
				"y": 2.0206978465,
				"z": 1.6944540298,
				"element": "H" 
			},
			{
				"x": 4.3723303454,
				"y": 0.6245298752,
				"z": 1.7806972301,
				"element": "H" 
			},
			{
				"x": 3.7927298131,
				"y": 1.2006223598,
				"z": 0.2092978141,
				"element": "H" 
			},
			{
				"x": -0.2824366278,
				"y": -0.9247038564,
				"z": 1.5935805636,
				"element": "H" 
			},
			{
				"x": -3.2176841472,
				"y": -1.2156024317,
				"z": -1.5269086675,
				"element": "H" 
			},
			{
				"x": -1.5515811193,
				"y": -2.3071817889,
				"z": -3.0055412079,
				"element": "H" 
			},
			{
				"x": -3.4758323773,
				"y": 3.1221772184,
				"z": -0.2167479134,
				"element": "H" 
			},
			{
				"x": -2.580954401,
				"y": 1.8915211803,
				"z": -1.1418860942,
				"element": "H" 
			},
			{
				"x": -4.2660931803,
				"y": 1.5873801476,
				"z": -0.6186672929,
				"element": "H" 
			},
			{
				"x": -1.4396265961,
				"y": 1.6700304626,
				"z": 2.4643439164,
				"element": "H" 
			},
			{
				"x": -1.8636949597,
				"y": 3.1840563439,
				"z": 1.6452656533,
				"element": "H" 
			},
			{
				"x": -0.799361661,
				"y": 2.0151812749,
				"z": 0.8283052482,
				"element": "H" 
			}
		],
		 "valence_orbital": [ 
			{
				"type": "occ",
				"energy": -0.29957,
				"method": "rhf"
			},
			{
				"type": "occ",
				"energy": -0.27154,
				"method": "rhf"
			},
			{
				"type": "occ",
				"energy": -0.2696,
				"method": "rhf"
			},
			{
				"type": "occ",
				"energy": -0.25751,
				"method": "rhf"
			},
			{
				"type": "occ",
				"energy": -0.2353,
				"method": "rhf"
			},
			{
				"type": "unocc",
				"energy": -0.04426,
				"method": "rhf"
			},
			{
				"type": "unocc",
				"energy": -0.03581,
				"method": "rhf"
			},
			{
				"type": "unocc",
				"energy": -0.01607,
				"method": "rhf"
			},
			{
				"type": "unocc",
				"energy": 0.04932,
				"method": "rhf"
			},
			{
				"type": "unocc",
				"energy": 0.05625,
				"method": "rhf"
			}
		],
		"cosmo_sigma_profile": { 
			"-0.025": 0.0,
			"-0.024": 0.0,
			"-0.023": 0.0,
			"-0.022": 0.0,
			"-0.021": 0.0,
			"-0.02": 0.0,
			"-0.019": 0.0,
			"-0.018": 0.0,
			"-0.017": 0.0,
			"-0.016": 0.0,
			"-0.015": 0.0,
			"-0.014": 0.0,
			"-0.013": 0.136314965229,
			"-0.012": 0.616990172506,
			"-0.011": 0.477766296837,
			"-0.01": 0.720673940772,
			"-0.009": 0.681153904523,
			"-0.008": 3.63127232099,
			"-0.007": 12.1627136356,
			"-0.006": 24.449517543,
			"-0.005": 25.6130993234,
			"-0.004": 32.5966000878,
			"-0.003": 30.7783138137,
			"-0.002": 30.8860702116,
			"-0.001": 24.8619525539,
			"0.0": 21.293253522,
			"0.001": 18.9393108271,
			"0.002": 19.6845947089,
			"0.003": 14.1812347054,
			"0.004": 11.5779453721,
			"0.005": 12.0327299794,
			"0.006": 8.07381074408,
			"0.007": 6.804835086,
			"0.008": 6.18580179064,
			"0.009": 5.50303236076,
			"0.01": 7.7496716205,
			"0.011": 10.0398078557,
			"0.012": 9.22417076254,
			"0.013": 1.98099742704,
			"0.014": 0.0,
			"0.015": 0.0,
			"0.016": 0.0,
			"0.017": 0.0,
			"0.018": 0.0,
			"0.019": 0.0,
			"0.02": 0.0,
			"0.021": 0.0,
			"0.022": 0.0,
			"0.023": 0.0,
			"0.024": 0.0,
			"0.025": 0.0
		}
	}
}
