{
	 "smiles": "CN1N=NC(C(O)=O)=C1C(F)(F)F", 
	 "Tm": 388.15, 
	 "num_atms": 17, 
	 "gaussian": { 
		 "optdone": 1, 
		 "sigma_profile": "yes", 
		 "theory": "DFT", 
		 "functional": "B3LYP", 
		 "basiset": "6-31G**", 
		 "properties": { 
			 "R2extent": 2791.1326, 
			 "electric_dipole_moment_norm": 4.42354683936, 
			 "electric_quadrupole_moment_norm": 24.1615426434, 
			 "total_energy": -807.130881084, 
			 "HOMO_LUMO_gap": 0.23019, 
			 "cosmo_polarized_energy": -16.39, 
			 "cosmo_cavitation_energy": 23.65, 
			 "cosmo_dispersion_energy": -16.94, 
			 "cosmo_repulsion_energy": 1.29, 
			 "cosmo_total_nonelectrostatic_energy": 8.0, 
			 "SMD_solvation_energy": 5.15 
		},
		"coords": [
			{
				"x": 3.2348129131,
				"y": -0.7110366115,
				"z": -0.8938915158,
				"element": "C" 
			},
			{
				"x": 2.4040190323,
				"y": 0.4913153166,
				"z": -0.9070322928,
				"element": "N" 
			},
			{
				"x": 2.8143394327,
				"y": 1.537880136,
				"z": -1.6681784711,
				"element": "N" 
			},
			{
				"x": 1.9492746728,
				"y": 2.4950057174,
				"z": -1.5438755088,
				"element": "N" 
			},
			{
				"x": 0.9575882454,
				"y": 2.094085781,
				"z": -0.7003974845,
				"element": "C" 
			},
			{
				"x": -0.1655553874,
				"y": 3.0062298027,
				"z": -0.3844609256,
				"element": "C" 
			},
			{
				"x": -1.0485545196,
				"y": 2.4348623971,
				"z": 0.4681828903,
				"element": "O" 
			},
			{
				"x": -0.290146434,
				"y": 4.1247681974,
				"z": -0.8249425462,
				"element": "O" 
			},
			{
				"x": 1.2391441779,
				"y": 0.7980230454,
				"z": -0.2801215567,
				"element": "C" 
			},
			{
				"x": 0.4975313878,
				"y": -0.1276356689,
				"z": 0.6435454229,
				"element": "C" 
			},
			{
				"x": 1.146917389,
				"y": -1.3117001622,
				"z": 0.7677679202,
				"element": "F" 
			},
			{
				"x": 0.384078569,
				"y": 0.3943817275,
				"z": 1.8743749869,
				"element": "F" 
			},
			{
				"x": -0.7341982347,
				"y": -0.3962531625,
				"z": 0.1842173748,
				"element": "F" 
			},
			{
				"x": 2.6730924282,
				"y": -1.5680286915,
				"z": -1.2672228328,
				"element": "H" 
			},
			{
				"x": 4.0771561242,
				"y": -0.4984353205,
				"z": -1.5504020608,
				"element": "H" 
			},
			{
				"x": 3.5880654209,
				"y": -0.9206849772,
				"z": 0.1163545846,
				"element": "H" 
			},
			{
				"x": -1.7451652176,
				"y": 3.0948224731,
				"z": 0.6205820154,
				"element": "H" 
			}
		],
		 "valence_orbital": [ 
			{
				"type": "occ",
				"energy": -0.33235,
				"method": "rhf"
			},
			{
				"type": "occ",
				"energy": -0.31922,
				"method": "rhf"
			},
			{
				"type": "occ",
				"energy": -0.29288,
				"method": "rhf"
			},
			{
				"type": "occ",
				"energy": -0.29121,
				"method": "rhf"
			},
			{
				"type": "occ",
				"energy": -0.28781,
				"method": "rhf"
			},
			{
				"type": "unocc",
				"energy": -0.05762,
				"method": "rhf"
			},
			{
				"type": "unocc",
				"energy": -0.02643,
				"method": "rhf"
			},
			{
				"type": "unocc",
				"energy": 0.06965,
				"method": "rhf"
			},
			{
				"type": "unocc",
				"energy": 0.08121,
				"method": "rhf"
			},
			{
				"type": "unocc",
				"energy": 0.0827,
				"method": "rhf"
			}
		],
		"cosmo_sigma_profile": { 
			"-0.025": 0.0,
			"-0.024": 0.0,
			"-0.023": 0.0,
			"-0.022": 0.0,
			"-0.021": 0.0,
			"-0.02": 0.010763189264,
			"-0.019": 0.745218796025,
			"-0.018": 0.860356165615,
			"-0.017": 1.11548338336,
			"-0.016": 0.615785680832,
			"-0.015": 0.51951240456,
			"-0.014": 1.10138670572,
			"-0.013": 0.747511544669,
			"-0.012": 0.657964659224,
			"-0.011": 0.748517003808,
			"-0.01": 1.77642424862,
			"-0.009": 2.44602672257,
			"-0.008": 7.48967779766,
			"-0.007": 8.41375837251,
			"-0.006": 7.98061365848,
			"-0.005": 12.3985339018,
			"-0.004": 13.8596154968,
			"-0.003": 10.5058936976,
			"-0.002": 7.88976178347,
			"-0.001": 7.3313310449,
			"0.0": 9.31827536973,
			"0.001": 15.5042614317,
			"0.002": 22.4464629513,
			"0.003": 6.21539072325,
			"0.004": 5.50331717192,
			"0.005": 6.18327388084,
			"0.006": 4.62338508525,
			"0.007": 3.8510968712,
			"0.008": 4.66340029691,
			"0.009": 4.71737610841,
			"0.01": 5.68877006885,
			"0.011": 6.92465952375,
			"0.012": 3.25285478097,
			"0.013": 2.27172566594,
			"0.014": 1.38223622024,
			"0.015": 0.0767575922441,
			"0.016": 0.0,
			"0.017": 0.0,
			"0.018": 0.0,
			"0.019": 0.0,
			"0.02": 0.0,
			"0.021": 0.0,
			"0.022": 0.0,
			"0.023": 0.0,
			"0.024": 0.0,
			"0.025": 0.0
		}
	}
}
