{
	 "smiles": "ClCCC(=O)NCCC1=CC=CC=C1", 
	 "Tm": 330.15, 
	 "num_atms": 28, 
	 "gaussian": { 
		 "optdone": 1, 
		 "sigma_profile": "yes", 
		 "theory": "DFT", 
		 "functional": "B3LYP", 
		 "basiset": "6-31G**", 
		 "properties": { 
			 "R2extent": 6022.3773, 
			 "electric_dipole_moment_norm": 4.34166063851, 
			 "electric_quadrupole_moment_norm": 12.6739009366, 
			 "total_energy": -1017.80381726, 
			 "HOMO_LUMO_gap": 0.23502, 
			 "cosmo_polarized_energy": -13.97, 
			 "cosmo_cavitation_energy": 33.77, 
			 "cosmo_dispersion_energy": -23.67, 
			 "cosmo_repulsion_energy": 1.91, 
			 "cosmo_total_nonelectrostatic_energy": 12.01, 
			 "SMD_solvation_energy": 5.08 
		},
		"coords": [
			{
				"x": 1.1972292691,
				"y": 3.7990782167,
				"z": 4.1677397269,
				"element": "Cl" 
			},
			{
				"x": -0.3754001736,
				"y": 3.8932601924,
				"z": 3.2594511731,
				"element": "C" 
			},
			{
				"x": -0.6052012165,
				"y": 2.6196240412,
				"z": 2.457346657,
				"element": "C" 
			},
			{
				"x": -1.9270549026,
				"y": 2.7117521185,
				"z": 1.6939712178,
				"element": "C" 
			},
			{
				"x": -2.657827984,
				"y": 3.6917713023,
				"z": 1.7951345387,
				"element": "O" 
			},
			{
				"x": -2.2740176722,
				"y": 1.6431115775,
				"z": 0.9119156872,
				"element": "N" 
			},
			{
				"x": -1.4770169611,
				"y": 0.4758678453,
				"z": 0.565282328,
				"element": "C" 
			},
			{
				"x": -0.6965426249,
				"y": 0.6255653789,
				"z": -0.7614795529,
				"element": "C" 
			},
			{
				"x": 0.0955258794,
				"y": -0.6191555837,
				"z": -1.0968161094,
				"element": "C" 
			},
			{
				"x": 1.4057713363,
				"y": -0.7832604429,
				"z": -0.6262754236,
				"element": "C" 
			},
			{
				"x": 2.1227979729,
				"y": -1.9496586657,
				"z": -0.8957377694,
				"element": "C" 
			},
			{
				"x": 1.5378097873,
				"y": -2.9745490643,
				"z": -1.6417866315,
				"element": "C" 
			},
			{
				"x": 0.2338058406,
				"y": -2.8238561977,
				"z": -2.1170358889,
				"element": "C" 
			},
			{
				"x": -0.4793900279,
				"y": -1.6555550368,
				"z": -1.8452559995,
				"element": "C" 
			},
			{
				"x": -1.1606225283,
				"y": 4.0515173227,
				"z": 3.9964237362,
				"element": "H" 
			},
			{
				"x": -0.3193370594,
				"y": 4.7699257687,
				"z": 2.6163513122,
				"element": "H" 
			},
			{
				"x": 0.226756669,
				"y": 2.459571164,
				"z": 1.7622155177,
				"element": "H" 
			},
			{
				"x": -0.6204010792,
				"y": 1.7526772146,
				"z": 3.128109722,
				"element": "H" 
			},
			{
				"x": -3.1410936427,
				"y": 1.7915327701,
				"z": 0.4104392064,
				"element": "H" 
			},
			{
				"x": -2.1442230831,
				"y": -0.3906307612,
				"z": 0.4973085636,
				"element": "H" 
			},
			{
				"x": -0.7810207785,
				"y": 0.2607521321,
				"z": 1.3798589981,
				"element": "H" 
			},
			{
				"x": -0.030221265,
				"y": 1.492428801,
				"z": -0.6825315877,
				"element": "H" 
			},
			{
				"x": -1.4098202763,
				"y": 0.8489444204,
				"z": -1.5637730645,
				"element": "H" 
			},
			{
				"x": 1.8715067704,
				"y": 0.0136187244,
				"z": -0.0506485603,
				"element": "H" 
			},
			{
				"x": 3.1391884697,
				"y": -2.0556049668,
				"z": -0.5271890991,
				"element": "H" 
			},
			{
				"x": 2.0957322438,
				"y": -3.8815694973,
				"z": -1.8554418477,
				"element": "H" 
			},
			{
				"x": -0.2269976189,
				"y": -3.6135945647,
				"z": -2.7037107943,
				"element": "H" 
			},
			{
				"x": -1.4922353444,
				"y": -1.5422642097,
				"z": -2.2254660561,
				"element": "H" 
			}
		],
		 "valence_orbital": [ 
			{
				"type": "occ",
				"energy": -0.29224,
				"method": "rhf"
			},
			{
				"type": "occ",
				"energy": -0.26498,
				"method": "rhf"
			},
			{
				"type": "occ",
				"energy": -0.25783,
				"method": "rhf"
			},
			{
				"type": "occ",
				"energy": -0.25446,
				"method": "rhf"
			},
			{
				"type": "occ",
				"energy": -0.2461,
				"method": "rhf"
			},
			{
				"type": "unocc",
				"energy": -0.01108,
				"method": "rhf"
			},
			{
				"type": "unocc",
				"energy": -0.00956,
				"method": "rhf"
			},
			{
				"type": "unocc",
				"energy": 0.0206,
				"method": "rhf"
			},
			{
				"type": "unocc",
				"energy": 0.02955,
				"method": "rhf"
			},
			{
				"type": "unocc",
				"energy": 0.06679,
				"method": "rhf"
			}
		],
		"cosmo_sigma_profile": { 
			"-0.025": 0.0,
			"-0.024": 0.0,
			"-0.023": 0.0,
			"-0.022": 0.0,
			"-0.021": 0.0,
			"-0.02": 0.0,
			"-0.019": 0.0,
			"-0.018": 0.0,
			"-0.017": 0.0,
			"-0.016": 0.0,
			"-0.015": 0.0,
			"-0.014": 0.062410169261,
			"-0.013": 1.03583159216,
			"-0.012": 1.07548231476,
			"-0.011": 1.19272118859,
			"-0.01": 1.00435660731,
			"-0.009": 1.12138498404,
			"-0.008": 1.31848883712,
			"-0.007": 5.02954080614,
			"-0.006": 15.9243694451,
			"-0.005": 28.7284281951,
			"-0.004": 26.7164065961,
			"-0.003": 23.1484243914,
			"-0.002": 18.558834374,
			"-0.001": 14.3937809447,
			"0.0": 16.9170496909,
			"0.001": 13.4973350711,
			"0.002": 13.4652832734,
			"0.003": 13.4478952725,
			"0.004": 14.1064487738,
			"0.005": 14.4585425216,
			"0.006": 18.6263127365,
			"0.007": 8.70787934742,
			"0.008": 1.49787749886,
			"0.009": 1.31868661121,
			"0.01": 1.21074398587,
			"0.011": 1.6784999033,
			"0.012": 1.60792593535,
			"0.013": 3.48037065825,
			"0.014": 4.567736943,
			"0.015": 0.468977527136,
			"0.016": 0.0,
			"0.017": 0.0,
			"0.018": 0.0,
			"0.019": 0.0,
			"0.02": 0.0,
			"0.021": 0.0,
			"0.022": 0.0,
			"0.023": 0.0,
			"0.024": 0.0,
			"0.025": 0.0
		}
	}
}
