{
	 "smiles": "CN1C(C)=NC(Cl)=C1Cl", 
	 "Tm": 327.15, 
	 "num_atms": 15, 
	 "gaussian": { 
		 "optdone": 1, 
		 "sigma_profile": "yes", 
		 "theory": "DFT", 
		 "functional": "B3LYP", 
		 "basiset": "6-31G**", 
		 "properties": { 
			 "R2extent": 3906.93, 
			 "electric_dipole_moment_norm": 5.0978986465, 
			 "electric_quadrupole_moment_norm": 10.8379576868, 
			 "total_energy": -1224.02918898, 
			 "HOMO_LUMO_gap": 0.22828, 
			 "cosmo_polarized_energy": -9.72, 
			 "cosmo_cavitation_energy": 22.44, 
			 "cosmo_dispersion_energy": -16.79, 
			 "cosmo_repulsion_energy": 1.39, 
			 "cosmo_total_nonelectrostatic_energy": 7.04, 
			 "SMD_solvation_energy": 1.89 
		},
		"coords": [
			{
				"x": 1.8911584349,
				"y": -1.7592529682,
				"z": 0.3732875833,
				"element": "C" 
			},
			{
				"x": 1.7186921382,
				"y": -0.7742297054,
				"z": -0.6830178112,
				"element": "N" 
			},
			{
				"x": 0.6037264858,
				"y": -0.0223454121,
				"z": -0.969031062,
				"element": "C" 
			},
			{
				"x": -0.6768052699,
				"y": -0.0985036586,
				"z": -0.202339858,
				"element": "C" 
			},
			{
				"x": 0.8076239699,
				"y": 0.7740070996,
				"z": -2.0047529226,
				"element": "N" 
			},
			{
				"x": 2.0858526617,
				"y": 0.5397894942,
				"z": -2.4083884586,
				"element": "C" 
			},
			{
				"x": 2.8011979003,
				"y": 1.3648504291,
				"z": -3.7482135702,
				"element": "Cl" 
			},
			{
				"x": 2.6779335848,
				"y": -0.4101281901,
				"z": -1.6150057915,
				"element": "C" 
			},
			{
				"x": 4.2512917576,
				"y": -1.1049113837,
				"z": -1.6383174285,
				"element": "Cl" 
			},
			{
				"x": 2.1228871885,
				"y": -2.7406980999,
				"z": -0.0494798878,
				"element": "H" 
			},
			{
				"x": 0.9652091432,
				"y": -1.8284174287,
				"z": 0.9432419611,
				"element": "H" 
			},
			{
				"x": 2.7017245704,
				"y": -1.4650453339,
				"z": 1.0456733083,
				"element": "H" 
			},
			{
				"x": -1.1255008242,
				"y": -1.0979692216,
				"z": -0.2395519701,
				"element": "H" 
			},
			{
				"x": -0.5476927079,
				"y": 0.1736607844,
				"z": 0.8516497215,
				"element": "H" 
			},
			{
				"x": -1.3751990332,
				"y": 0.6067935948,
				"z": -0.6544538137,
				"element": "H" 
			}
		],
		 "valence_orbital": [ 
			{
				"type": "occ",
				"energy": -0.33886,
				"method": "rhf"
			},
			{
				"type": "occ",
				"energy": -0.31098,
				"method": "rhf"
			},
			{
				"type": "occ",
				"energy": -0.28349,
				"method": "rhf"
			},
			{
				"type": "occ",
				"energy": -0.27516,
				"method": "rhf"
			},
			{
				"type": "occ",
				"energy": -0.21951,
				"method": "rhf"
			},
			{
				"type": "unocc",
				"energy": 0.00877,
				"method": "rhf"
			},
			{
				"type": "unocc",
				"energy": 0.02574,
				"method": "rhf"
			},
			{
				"type": "unocc",
				"energy": 0.05611,
				"method": "rhf"
			},
			{
				"type": "unocc",
				"energy": 0.05696,
				"method": "rhf"
			},
			{
				"type": "unocc",
				"energy": 0.07616,
				"method": "rhf"
			}
		],
		"cosmo_sigma_profile": { 
			"-0.025": 0.0,
			"-0.024": 0.0,
			"-0.023": 0.0,
			"-0.022": 0.0,
			"-0.021": 0.0,
			"-0.02": 0.0,
			"-0.019": 0.0,
			"-0.018": 0.0,
			"-0.017": 0.0,
			"-0.016": 0.0,
			"-0.015": 0.0,
			"-0.014": 0.0,
			"-0.013": 0.0,
			"-0.012": 0.0,
			"-0.011": 0.0,
			"-0.01": 0.0,
			"-0.009": 0.0,
			"-0.008": 0.223320235611,
			"-0.007": 6.32367881265,
			"-0.006": 12.8633879143,
			"-0.005": 14.1680867592,
			"-0.004": 15.4625604264,
			"-0.003": 14.8312402508,
			"-0.002": 12.462576301,
			"-0.001": 12.6910229271,
			"0.0": 10.1536074097,
			"0.001": 16.4158319548,
			"0.002": 14.2425060054,
			"0.003": 17.0372908383,
			"0.004": 15.6136345491,
			"0.005": 6.34401744423,
			"0.006": 2.78654971892,
			"0.007": 1.90536901478,
			"0.008": 1.51740365461,
			"0.009": 1.45159195877,
			"0.01": 0.883526134062,
			"0.011": 1.53283067464,
			"0.012": 1.11043177839,
			"0.013": 0.807915384375,
			"0.014": 1.03901024412,
			"0.015": 0.826109325237,
			"0.016": 0.886505314987,
			"0.017": 0.0114115414391,
			"0.018": 0.0,
			"0.019": 0.0,
			"0.02": 0.0,
			"0.021": 0.0,
			"0.022": 0.0,
			"0.023": 0.0,
			"0.024": 0.0,
			"0.025": 0.0
		}
	}
}
