{
	 "smiles": "NC(=O)C1=CC(=CC(=C1)C(F)(F)F)C(F)(F)F", 
	 "Tm": 435.15, 
	 "num_atms": 22, 
	 "gaussian": { 
		 "optdone": 1, 
		 "sigma_profile": "yes", 
		 "theory": "DFT", 
		 "functional": "B3LYP", 
		 "basiset": "6-31G**", 
		 "properties": { 
			 "R2extent": 4604.0272, 
			 "electric_dipole_moment_norm": 3.56166018873, 
			 "electric_quadrupole_moment_norm": 20.994257191, 
			 "total_energy": -1075.02000826, 
			 "HOMO_LUMO_gap": 0.20226, 
			 "cosmo_polarized_energy": -13.1, 
			 "cosmo_cavitation_energy": 30.32, 
			 "cosmo_dispersion_energy": -20.75, 
			 "cosmo_repulsion_energy": 1.5, 
			 "cosmo_total_nonelectrostatic_energy": 11.07, 
			 "SMD_solvation_energy": 8.31 
		},
		"coords": [
			{
				"x": 0.0622763466,
				"y": -0.3728668773,
				"z": -4.4320412069,
				"element": "N" 
			},
			{
				"x": 0.0343224944,
				"y": -1.2178208539,
				"z": -3.3525522328,
				"element": "C" 
			},
			{
				"x": 0.1857106701,
				"y": -2.426718204,
				"z": -3.4633118267,
				"element": "O" 
			},
			{
				"x": -0.165635293,
				"y": -0.5749395109,
				"z": -2.0039762897,
				"element": "C" 
			},
			{
				"x": 0.0386175041,
				"y": 0.7867334537,
				"z": -1.7594508052,
				"element": "C" 
			},
			{
				"x": -0.1684831265,
				"y": 1.3079282757,
				"z": -0.4807262048,
				"element": "C" 
			},
			{
				"x": -0.5782893809,
				"y": 0.4776523229,
				"z": 0.5620279618,
				"element": "C" 
			},
			{
				"x": -0.7674476227,
				"y": -0.8844681692,
				"z": 0.3201075297,
				"element": "C" 
			},
			{
				"x": -0.5554168083,
				"y": -1.4110759526,
				"z": -0.9522977661,
				"element": "C" 
			},
			{
				"x": -1.1535171151,
				"y": -1.7986226997,
				"z": 1.4562088528,
				"element": "C" 
			},
			{
				"x": -1.901730631,
				"y": -2.8357920946,
				"z": 1.0286440183,
				"element": "F" 
			},
			{
				"x": -0.062552958,
				"y": -2.3160775715,
				"z": 2.0618921971,
				"element": "F" 
			},
			{
				"x": -1.8600700906,
				"y": -1.1433596083,
				"z": 2.4028394805,
				"element": "F" 
			},
			{
				"x": 0.1082509341,
				"y": 2.7653480988,
				"z": -0.2135352147,
				"element": "C" 
			},
			{
				"x": -0.1122560327,
				"y": 3.5221573376,
				"z": -1.3118979731,
				"element": "F" 
			},
			{
				"x": 1.3931062585,
				"y": 2.9657160886,
				"z": 0.1522853992,
				"element": "F" 
			},
			{
				"x": -0.6681487509,
				"y": 3.2470272575,
				"z": 0.7791087153,
				"element": "F" 
			},
			{
				"x": 0.0970612316,
				"y": -0.8223979895,
				"z": -5.3358368319,
				"element": "H" 
			},
			{
				"x": -0.3644049465,
				"y": 0.5392993217,
				"z": -4.390965745,
				"element": "H" 
			},
			{
				"x": 0.377260949,
				"y": 1.4494914181,
				"z": -2.548173983,
				"element": "H" 
			},
			{
				"x": -0.7578112341,
				"y": 0.8879881693,
				"z": 1.548674973,
				"element": "H" 
			},
			{
				"x": -0.6934423981,
				"y": -2.4669022124,
				"z": -1.1554230479,
				"element": "H" 
			}
		],
		 "valence_orbital": [ 
			{
				"type": "occ",
				"energy": -0.37244,
				"method": "rhf"
			},
			{
				"type": "occ",
				"energy": -0.29561,
				"method": "rhf"
			},
			{
				"type": "occ",
				"energy": -0.29159,
				"method": "rhf"
			},
			{
				"type": "occ",
				"energy": -0.28888,
				"method": "rhf"
			},
			{
				"type": "occ",
				"energy": -0.26945,
				"method": "rhf"
			},
			{
				"type": "unocc",
				"energy": -0.06719,
				"method": "rhf"
			},
			{
				"type": "unocc",
				"energy": -0.05484,
				"method": "rhf"
			},
			{
				"type": "unocc",
				"energy": 0.02518,
				"method": "rhf"
			},
			{
				"type": "unocc",
				"energy": 0.05936,
				"method": "rhf"
			},
			{
				"type": "unocc",
				"energy": 0.10639,
				"method": "rhf"
			}
		],
		"cosmo_sigma_profile": { 
			"-0.025": 0.0,
			"-0.024": 0.0,
			"-0.023": 0.0,
			"-0.022": 0.0,
			"-0.021": 0.0,
			"-0.02": 0.0,
			"-0.019": 0.0,
			"-0.018": 0.0,
			"-0.017": 0.0,
			"-0.016": 0.158854640065,
			"-0.015": 1.10165140646,
			"-0.014": 2.64726920123,
			"-0.013": 2.36009391932,
			"-0.012": 2.64995000311,
			"-0.011": 2.75345365786,
			"-0.01": 1.92598865394,
			"-0.009": 2.96917025471,
			"-0.008": 3.48542023373,
			"-0.007": 4.41650821816,
			"-0.006": 6.35665393823,
			"-0.005": 6.47225589153,
			"-0.004": 7.74467573167,
			"-0.003": 10.914692397,
			"-0.002": 15.3064396259,
			"-0.001": 22.1096414309,
			"0.0": 25.8236836756,
			"0.001": 18.4851819501,
			"0.002": 47.014288275,
			"0.003": 36.1130366742,
			"0.004": 2.21136991144,
			"0.005": 1.68581779208,
			"0.006": 1.84603963054,
			"0.007": 2.0058050029,
			"0.008": 1.81806808298,
			"0.009": 0.949616547394,
			"0.01": 1.11703903692,
			"0.011": 2.39642004473,
			"0.012": 2.85656803371,
			"0.013": 4.92068218724,
			"0.014": 0.984760754453,
			"0.015": 0.0,
			"0.016": 0.0,
			"0.017": 0.0,
			"0.018": 0.0,
			"0.019": 0.0,
			"0.02": 0.0,
			"0.021": 0.0,
			"0.022": 0.0,
			"0.023": 0.0,
			"0.024": 0.0,
			"0.025": 0.0
		}
	}
}
