{
	 "smiles": "CCCCC(NC(N)=O)C(O)=O", 
	 "Tm": 440.15, 
	 "num_atms": 26, 
	 "gaussian": { 
		 "optdone": 1, 
		 "sigma_profile": "yes", 
		 "theory": "DFT", 
		 "functional": "B3LYP", 
		 "basiset": "6-31G**", 
		 "properties": { 
			 "R2extent": 3266.2959, 
			 "electric_dipole_moment_norm": 1.45879787839, 
			 "electric_quadrupole_moment_norm": 21.1760400521, 
			 "total_energy": -610.402611252, 
			 "HOMO_LUMO_gap": 0.25833, 
			 "cosmo_polarized_energy": -19.76, 
			 "cosmo_cavitation_energy": 28.8, 
			 "cosmo_dispersion_energy": -19.83, 
			 "cosmo_repulsion_energy": 1.63, 
			 "cosmo_total_nonelectrostatic_energy": 10.6, 
			 "SMD_solvation_energy": 6.69 
		},
		"coords": [
			{
				"x": 0.5793739974,
				"y": -1.9445945339,
				"z": -0.6164316241,
				"element": "C" 
			},
			{
				"x": 1.5741454517,
				"y": -0.8371240086,
				"z": -0.2482656898,
				"element": "C" 
			},
			{
				"x": 1.0089474345,
				"y": 0.3110487461,
				"z": 0.6077636641,
				"element": "C" 
			},
			{
				"x": -0.1369352999,
				"y": 1.1102897524,
				"z": -0.0500747499,
				"element": "C" 
			},
			{
				"x": -1.5538229109,
				"y": 0.6127465634,
				"z": 0.2993567903,
				"element": "C" 
			},
			{
				"x": -1.9030132471,
				"y": 0.9371448714,
				"z": 1.6938591096,
				"element": "N" 
			},
			{
				"x": -2.5554853297,
				"y": 0.0315789572,
				"z": 2.5527876845,
				"element": "C" 
			},
			{
				"x": -3.4496238528,
				"y": -0.8121389407,
				"z": 1.9273274113,
				"element": "N" 
			},
			{
				"x": -2.3320209247,
				"y": 0.015015337,
				"z": 3.7514410482,
				"element": "O" 
			},
			{
				"x": -2.5796429907,
				"y": 1.2043668547,
				"z": -0.6901858013,
				"element": "C" 
			},
			{
				"x": -3.5465092216,
				"y": 1.9537377103,
				"z": -0.1247980186,
				"element": "O" 
			},
			{
				"x": -2.5298958361,
				"y": 0.9906047413,
				"z": -1.8774494134,
				"element": "O" 
			},
			{
				"x": 1.0845966744,
				"y": -2.7546900937,
				"z": -1.1521551443,
				"element": "H" 
			},
			{
				"x": -0.2189471122,
				"y": -1.577390398,
				"z": -1.2699941585,
				"element": "H" 
			},
			{
				"x": 0.1154481293,
				"y": -2.3803331494,
				"z": 0.2764700454,
				"element": "H" 
			},
			{
				"x": 2.4183202371,
				"y": -1.2804819477,
				"z": 0.2945854833,
				"element": "H" 
			},
			{
				"x": 1.995912012,
				"y": -0.4128596456,
				"z": -1.1693561598,
				"element": "H" 
			},
			{
				"x": 0.680995067,
				"y": -0.082030791,
				"z": 1.5801861037,
				"element": "H" 
			},
			{
				"x": 1.8315869706,
				"y": 1.0009776244,
				"z": 0.829451507,
				"element": "H" 
			},
			{
				"x": -0.0774837821,
				"y": 2.169037172,
				"z": 0.2364485577,
				"element": "H" 
			},
			{
				"x": -0.0423594573,
				"y": 1.0846372265,
				"z": -1.1399888322,
				"element": "H" 
			},
			{
				"x": -1.6005121672,
				"y": -0.4713887673,
				"z": 0.1582455031,
				"element": "H" 
			},
			{
				"x": -1.179465911,
				"y": 1.4183686641,
				"z": 2.2156625956,
				"element": "H" 
			},
			{
				"x": -4.0212868078,
				"y": -1.3402292832,
				"z": 2.5707249223,
				"element": "H" 
			},
			{
				"x": -3.9158884852,
				"y": -0.5052130206,
				"z": 1.0850398038,
				"element": "H" 
			},
			{
				"x": -3.3135326379,
				"y": 2.018420359,
				"z": 0.8253493621,
				"element": "H" 
			}
		],
		 "valence_orbital": [ 
			{
				"type": "occ",
				"energy": -0.31849,
				"method": "rhf"
			},
			{
				"type": "occ",
				"energy": -0.30712,
				"method": "rhf"
			},
			{
				"type": "occ",
				"energy": -0.29082,
				"method": "rhf"
			},
			{
				"type": "occ",
				"energy": -0.2775,
				"method": "rhf"
			},
			{
				"type": "occ",
				"energy": -0.25885,
				"method": "rhf"
			},
			{
				"type": "unocc",
				"energy": -0.00052,
				"method": "rhf"
			},
			{
				"type": "unocc",
				"energy": 0.02697,
				"method": "rhf"
			},
			{
				"type": "unocc",
				"energy": 0.05873,
				"method": "rhf"
			},
			{
				"type": "unocc",
				"energy": 0.07929,
				"method": "rhf"
			},
			{
				"type": "unocc",
				"energy": 0.087,
				"method": "rhf"
			}
		],
		"cosmo_sigma_profile": { 
			"-0.025": 0.0,
			"-0.024": 0.0,
			"-0.023": 0.0,
			"-0.022": 0.0,
			"-0.021": 0.0,
			"-0.02": 0.0,
			"-0.019": 0.0,
			"-0.018": 0.0,
			"-0.017": 0.0,
			"-0.016": 0.0,
			"-0.015": 0.0,
			"-0.014": 1.09357240245,
			"-0.013": 3.30856317183,
			"-0.012": 4.30369165394,
			"-0.011": 5.32810163971,
			"-0.01": 4.39348656122,
			"-0.009": 6.03202008599,
			"-0.008": 4.73535401718,
			"-0.007": 5.71860262681,
			"-0.006": 5.47027273035,
			"-0.005": 5.76887856645,
			"-0.004": 8.80995461996,
			"-0.003": 20.1158031154,
			"-0.002": 25.6757614614,
			"-0.001": 23.1510830205,
			"0.0": 19.1608358981,
			"0.001": 14.8063885904,
			"0.002": 6.90283032492,
			"0.003": 4.18808108572,
			"0.004": 3.19272735157,
			"0.005": 4.20721425927,
			"0.006": 3.47435220002,
			"0.007": 4.42470907999,
			"0.008": 3.93184024713,
			"0.009": 4.35075731153,
			"0.01": 7.40956000346,
			"0.011": 5.15967214737,
			"0.012": 6.99715516121,
			"0.013": 7.03163862365,
			"0.014": 4.5945773181,
			"0.015": 0.245031187415,
			"0.016": 0.0,
			"0.017": 0.0,
			"0.018": 0.0,
			"0.019": 0.0,
			"0.02": 0.0,
			"0.021": 0.0,
			"0.022": 0.0,
			"0.023": 0.0,
			"0.024": 0.0,
			"0.025": 0.0
		}
	}
}
