{
	 "smiles": "CC1(C)NC(=O)N(CC2=CN=C(Cl)C=C2)C1=O", 
	 "Tm": 401.15, 
	 "num_atms": 29, 
	 "gaussian": { 
		 "optdone": 1, 
		 "sigma_profile": "yes", 
		 "theory": "DFT", 
		 "functional": "B3LYP", 
		 "basiset": "6-31G**", 
		 "properties": { 
			 "R2extent": 5812.0479, 
			 "electric_dipole_moment_norm": 5.07525509999, 
			 "electric_quadrupole_moment_norm": 13.9121002469, 
			 "total_energy": -1201.35049498, 
			 "HOMO_LUMO_gap": 0.2195, 
			 "cosmo_polarized_energy": -17.04, 
			 "cosmo_cavitation_energy": 35.28, 
			 "cosmo_dispersion_energy": -24.32, 
			 "cosmo_repulsion_energy": 1.9, 
			 "cosmo_total_nonelectrostatic_energy": 12.86, 
			 "SMD_solvation_energy": 5.17 
		},
		"coords": [
			{
				"x": -2.2561145015,
				"y": -0.4595679975,
				"z": 2.1352629122,
				"element": "C" 
			},
			{
				"x": -2.8993389145,
				"y": -0.2215253699,
				"z": 0.7590145834,
				"element": "C" 
			},
			{
				"x": -4.3653441536,
				"y": -0.6794960696,
				"z": 0.7353588473,
				"element": "C" 
			},
			{
				"x": -2.7418038274,
				"y": 1.1610318212,
				"z": 0.3031062249,
				"element": "N" 
			},
			{
				"x": -1.926903908,
				"y": 1.2933822426,
				"z": -0.7857714508,
				"element": "C" 
			},
			{
				"x": -1.5586820934,
				"y": 2.3101155696,
				"z": -1.3461722133,
				"element": "O" 
			},
			{
				"x": -1.5776376706,
				"y": -0.0204600525,
				"z": -1.1745568409,
				"element": "N" 
			},
			{
				"x": -0.7223568159,
				"y": -0.3117421078,
				"z": -2.3226530831,
				"element": "C" 
			},
			{
				"x": 0.7539132086,
				"y": -0.2781359573,
				"z": -1.9879529242,
				"element": "C" 
			},
			{
				"x": 1.4612451093,
				"y": -1.4565316206,
				"z": -1.7408374072,
				"element": "C" 
			},
			{
				"x": 2.7666169301,
				"y": -1.4924047955,
				"z": -1.4353580891,
				"element": "N" 
			},
			{
				"x": 3.401246672,
				"y": -0.338067883,
				"z": -1.3651643574,
				"element": "C" 
			},
			{
				"x": 5.1181745095,
				"y": -0.3998338331,
				"z": -0.9656680556,
				"element": "Cl" 
			},
			{
				"x": 2.8117484806,
				"y": 0.9116783264,
				"z": -1.5815987541,
				"element": "C" 
			},
			{
				"x": 1.4582750662,
				"y": 0.9309606041,
				"z": -1.8983478734,
				"element": "C" 
			},
			{
				"x": -2.0959632736,
				"y": -0.9727541118,
				"z": -0.3233064462,
				"element": "C" 
			},
			{
				"x": -1.9495338662,
				"y": -2.1765679835,
				"z": -0.4105848483,
				"element": "O" 
			},
			{
				"x": -2.2725330167,
				"y": -1.5267366275,
				"z": 2.3706784989,
				"element": "H" 
			},
			{
				"x": -2.8094913549,
				"y": 0.0774135614,
				"z": 2.9127478497,
				"element": "H" 
			},
			{
				"x": -1.2176876342,
				"y": -0.1166146532,
				"z": 2.1476170622,
				"element": "H" 
			},
			{
				"x": -4.4184360741,
				"y": -1.7545238729,
				"z": 0.9254873502,
				"element": "H" 
			},
			{
				"x": -4.8217872037,
				"y": -0.4725565481,
				"z": -0.236323652,
				"element": "H" 
			},
			{
				"x": -4.9410433296,
				"y": -0.1581072077,
				"z": 1.5068373885,
				"element": "H" 
			},
			{
				"x": -3.0157925044,
				"y": 1.9734405188,
				"z": 0.8336184607,
				"element": "H" 
			},
			{
				"x": -1.0097162198,
				"y": -1.3027196361,
				"z": -2.6814911449,
				"element": "H" 
			},
			{
				"x": -0.9580391784,
				"y": 0.427861367,
				"z": -3.0916291927,
				"element": "H" 
			},
			{
				"x": 0.9548065475,
				"y": -2.4189723681,
				"z": -1.7845420964,
				"element": "H" 
			},
			{
				"x": 3.3950577187,
				"y": 1.8214411795,
				"z": -1.5047143686,
				"element": "H" 
			},
			{
				"x": 0.9398212979,
				"y": 1.8710935049,
				"z": -2.0634563801,
				"element": "H" 
			}
		],
		 "valence_orbital": [ 
			{
				"type": "occ",
				"energy": -0.28812,
				"method": "rhf"
			},
			{
				"type": "occ",
				"energy": -0.27538,
				"method": "rhf"
			},
			{
				"type": "occ",
				"energy": -0.27233,
				"method": "rhf"
			},
			{
				"type": "occ",
				"energy": -0.26837,
				"method": "rhf"
			},
			{
				"type": "occ",
				"energy": -0.25685,
				"method": "rhf"
			},
			{
				"type": "unocc",
				"energy": -0.03735,
				"method": "rhf"
			},
			{
				"type": "unocc",
				"energy": -0.02762,
				"method": "rhf"
			},
			{
				"type": "unocc",
				"energy": -0.01487,
				"method": "rhf"
			},
			{
				"type": "unocc",
				"energy": 0.03547,
				"method": "rhf"
			},
			{
				"type": "unocc",
				"energy": 0.04888,
				"method": "rhf"
			}
		],
		"cosmo_sigma_profile": { 
			"-0.025": 0.0,
			"-0.024": 0.0,
			"-0.023": 0.0,
			"-0.022": 0.0,
			"-0.021": 0.0,
			"-0.02": 0.0,
			"-0.019": 0.0,
			"-0.018": 0.0,
			"-0.017": 0.0,
			"-0.016": 0.116711589128,
			"-0.015": 1.08665594746,
			"-0.014": 1.50443060023,
			"-0.013": 0.602063264192,
			"-0.012": 1.13075886844,
			"-0.011": 1.23602598191,
			"-0.01": 0.774536917762,
			"-0.009": 1.36246258511,
			"-0.008": 3.34043397868,
			"-0.007": 9.34338518208,
			"-0.006": 12.7069050355,
			"-0.005": 18.8874357181,
			"-0.004": 22.8981310111,
			"-0.003": 21.3391122409,
			"-0.002": 20.5718941769,
			"-0.001": 29.5653817646,
			"0.0": 28.9932880073,
			"0.001": 18.87902331,
			"0.002": 13.1126892224,
			"0.003": 10.6214989452,
			"0.004": 14.1226789227,
			"0.005": 9.65617191684,
			"0.006": 5.13834196387,
			"0.007": 3.82255615585,
			"0.008": 3.72188945137,
			"0.009": 4.26201701355,
			"0.01": 4.41601320153,
			"0.011": 5.01435982827,
			"0.012": 7.84209471766,
			"0.013": 4.90022952393,
			"0.014": 1.17600763448,
			"0.015": 0.181971109988,
			"0.016": 0.0,
			"0.017": 0.0,
			"0.018": 0.0,
			"0.019": 0.0,
			"0.02": 0.0,
			"0.021": 0.0,
			"0.022": 0.0,
			"0.023": 0.0,
			"0.024": 0.0,
			"0.025": 0.0
		}
	}
}
