{
	 "smiles": "CN(C)CCOC1=NC=CC(N)=C1", 
	 "Tm": 361.15, 
	 "num_atms": 28, 
	 "gaussian": { 
		 "optdone": 1, 
		 "sigma_profile": "yes", 
		 "theory": "DFT", 
		 "functional": "B3LYP", 
		 "basiset": "6-31G**", 
		 "properties": { 
			 "R2extent": 3753.1708, 
			 "electric_dipole_moment_norm": 3.04493916031, 
			 "electric_quadrupole_moment_norm": 14.4824621853, 
			 "total_energy": -591.466485828, 
			 "HOMO_LUMO_gap": 0.20224, 
			 "cosmo_polarized_energy": -11.97, 
			 "cosmo_cavitation_energy": 30.57, 
			 "cosmo_dispersion_energy": -22.04, 
			 "cosmo_repulsion_energy": 1.77, 
			 "cosmo_total_nonelectrostatic_energy": 10.3, 
			 "SMD_solvation_energy": 2.55 
		},
		"coords": [
			{
				"x": 1.9350989081,
				"y": -2.7109931383,
				"z": 0.4089797422,
				"element": "C" 
			},
			{
				"x": 0.5651861015,
				"y": -3.0845073887,
				"z": 0.7493448319,
				"element": "N" 
			},
			{
				"x": 0.4754951225,
				"y": -3.4889680069,
				"z": 2.146215703,
				"element": "C" 
			},
			{
				"x": -0.4088178587,
				"y": -2.0365237681,
				"z": 0.4400450495,
				"element": "C" 
			},
			{
				"x": -0.6607263,
				"y": -1.834287867,
				"z": -1.0546717271,
				"element": "C" 
			},
			{
				"x": 0.3727217403,
				"y": -1.0924767638,
				"z": -1.7302464537,
				"element": "O" 
			},
			{
				"x": 0.3126844505,
				"y": 0.26349779,
				"z": -1.7106105669,
				"element": "C" 
			},
			{
				"x": -0.6850031759,
				"y": 0.8690921369,
				"z": -1.0697093924,
				"element": "N" 
			},
			{
				"x": -0.6857683969,
				"y": 2.2133022942,
				"z": -1.1028596425,
				"element": "C" 
			},
			{
				"x": 0.2682414718,
				"y": 2.9849088938,
				"z": -1.7419153121,
				"element": "C" 
			},
			{
				"x": 1.3233644317,
				"y": 2.3274100856,
				"z": -2.4148937713,
				"element": "C" 
			},
			{
				"x": 2.2764474547,
				"y": 3.0468678687,
				"z": -3.1122455059,
				"element": "N" 
			},
			{
				"x": 1.3386817702,
				"y": 0.9304076021,
				"z": -2.3926594391,
				"element": "C" 
			},
			{
				"x": 2.6014356739,
				"y": -3.5565407305,
				"z": 0.6103308047,
				"element": "H" 
			},
			{
				"x": 2.3016828659,
				"y": -1.8423544792,
				"z": 0.9914376868,
				"element": "H" 
			},
			{
				"x": 2.0066505152,
				"y": -2.4574293686,
				"z": -0.6494064093,
				"element": "H" 
			},
			{
				"x": -0.5377633327,
				"y": -3.8376987719,
				"z": 2.371970419,
				"element": "H" 
			},
			{
				"x": 1.1669839946,
				"y": -4.3172112965,
				"z": 2.3335202138,
				"element": "H" 
			},
			{
				"x": 0.7228307325,
				"y": -2.6767132005,
				"z": 2.8582136454,
				"element": "H" 
			},
			{
				"x": -0.1530209121,
				"y": -1.0639802911,
				"z": 0.8995005986,
				"element": "H" 
			},
			{
				"x": -1.3671683706,
				"y": -2.3451314476,
				"z": 0.8761251615,
				"element": "H" 
			},
			{
				"x": -1.6151916855,
				"y": -1.3229401989,
				"z": -1.1965612855,
				"element": "H" 
			},
			{
				"x": -0.67846768,
				"y": -2.8054073452,
				"z": -1.5559331708,
				"element": "H" 
			},
			{
				"x": -1.5064646724,
				"y": 2.6969357424,
				"z": -0.575579557,
				"element": "H" 
			},
			{
				"x": 0.2044998723,
				"y": 4.0686278473,
				"z": -1.7298295743,
				"element": "H" 
			},
			{
				"x": 2.4019053011,
				"y": 4.0112333658,
				"z": -2.8425073045,
				"element": "H" 
			},
			{
				"x": 3.1409052742,
				"y": 2.5697955739,
				"z": -3.3221352195,
				"element": "H" 
			},
			{
				"x": 2.1122767038,
				"y": 0.357584862,
				"z": -2.8930195247,
				"element": "H" 
			}
		],
		 "valence_orbital": [ 
			{
				"type": "occ",
				"energy": -0.30313,
				"method": "rhf"
			},
			{
				"type": "occ",
				"energy": -0.25492,
				"method": "rhf"
			},
			{
				"type": "occ",
				"energy": -0.22389,
				"method": "rhf"
			},
			{
				"type": "occ",
				"energy": -0.22259,
				"method": "rhf"
			},
			{
				"type": "occ",
				"energy": -0.20111,
				"method": "rhf"
			},
			{
				"type": "unocc",
				"energy": 0.00113,
				"method": "rhf"
			},
			{
				"type": "unocc",
				"energy": 0.018,
				"method": "rhf"
			},
			{
				"type": "unocc",
				"energy": 0.07546,
				"method": "rhf"
			},
			{
				"type": "unocc",
				"energy": 0.09622,
				"method": "rhf"
			},
			{
				"type": "unocc",
				"energy": 0.11481,
				"method": "rhf"
			}
		],
		"cosmo_sigma_profile": { 
			"-0.025": 0.0,
			"-0.024": 0.0,
			"-0.023": 0.0,
			"-0.022": 0.0,
			"-0.021": 0.0,
			"-0.02": 0.0,
			"-0.019": 0.0,
			"-0.018": 0.0,
			"-0.017": 0.0,
			"-0.016": 0.0,
			"-0.015": 0.0,
			"-0.014": 0.222375643105,
			"-0.013": 1.98149613296,
			"-0.012": 2.99871029668,
			"-0.011": 2.69346838037,
			"-0.01": 2.94671561749,
			"-0.009": 3.15134701126,
			"-0.008": 2.91872144495,
			"-0.007": 3.21734241237,
			"-0.006": 5.91427262631,
			"-0.005": 7.56417212674,
			"-0.004": 17.1721503782,
			"-0.003": 17.2521638383,
			"-0.002": 18.3079447136,
			"-0.001": 27.483221768,
			"0.0": 26.9301619078,
			"0.001": 15.97769656,
			"0.002": 11.8236082855,
			"0.003": 13.4338983694,
			"0.004": 18.6618980103,
			"0.005": 11.79024626,
			"0.006": 5.43941434939,
			"0.007": 3.68397478829,
			"0.008": 4.11598581346,
			"0.009": 4.08650370202,
			"0.01": 4.02350258351,
			"0.011": 1.25066278511,
			"0.012": 1.6666257102,
			"0.013": 1.46109333669,
			"0.014": 0.772402402257,
			"0.015": 0.180997505798,
			"0.016": 0.361124952194,
			"0.017": 0.0691244218059,
			"0.018": 0.0,
			"0.019": 0.0,
			"0.02": 0.0,
			"0.021": 0.0,
			"0.022": 0.0,
			"0.023": 0.0,
			"0.024": 0.0,
			"0.025": 0.0
		}
	}
}
