{
	 "smiles": "FC1=CC=C(C=C1)C1NC(=O)NC(C2=CC=C(F)C=C2)C1(C#N)C(=O)C1=CC=CC=C1", 
	 "Tm": 499.15, 
	 "num_atms": 48, 
	 "gaussian": { 
		 "optdone": 1, 
		 "sigma_profile": "yes", 
		 "theory": "DFT", 
		 "functional": "B3LYP", 
		 "basiset": "6-31G**", 
		 "properties": { 
			 "R2extent": 12586.0739, 
			 "electric_dipole_moment_norm": 6.75118571067, 
			 "electric_quadrupole_moment_norm": 18.6667478504, 
			 "total_energy": -1439.15152713, 
			 "HOMO_LUMO_gap": 0.16952, 
			 "cosmo_polarized_energy": -24.95, 
			 "cosmo_cavitation_energy": 51.42, 
			 "cosmo_dispersion_energy": -32.64, 
			 "cosmo_repulsion_energy": 2.39, 
			 "cosmo_total_nonelectrostatic_energy": 21.16, 
			 "SMD_solvation_energy": 10.99 
		},
		"coords": [
			{
				"x": -4.0105450787,
				"y": 1.2628661593,
				"z": -3.0596961636,
				"element": "F" 
			},
			{
				"x": -2.8073312895,
				"y": 1.6267274266,
				"z": -2.5764713983,
				"element": "C" 
			},
			{
				"x": -2.7250326292,
				"y": 2.7159762215,
				"z": -1.7162827649,
				"element": "C" 
			},
			{
				"x": -1.474034727,
				"y": 3.0853785829,
				"z": -1.2242056285,
				"element": "C" 
			},
			{
				"x": -0.3172847379,
				"y": 2.3740973918,
				"z": -1.5766868781,
				"element": "C" 
			},
			{
				"x": -0.4353137625,
				"y": 1.2933236744,
				"z": -2.4627340474,
				"element": "C" 
			},
			{
				"x": -1.6798723275,
				"y": 0.909309278,
				"z": -2.9628623244,
				"element": "C" 
			},
			{
				"x": 1.0354175711,
				"y": 2.8123580222,
				"z": -1.0186791181,
				"element": "C" 
			},
			{
				"x": 2.1311451784,
				"y": 2.6352428623,
				"z": -1.9500491802,
				"element": "N" 
			},
			{
				"x": 2.9580803969,
				"y": 1.5344383676,
				"z": -2.0351054896,
				"element": "C" 
			},
			{
				"x": 3.7627425585,
				"y": 1.385195381,
				"z": -2.9450362101,
				"element": "O" 
			},
			{
				"x": 2.8361812588,
				"y": 0.6282120894,
				"z": -1.0017966281,
				"element": "N" 
			},
			{
				"x": 1.87651216,
				"y": 0.6379252918,
				"z": 0.09656192,
				"element": "C" 
			},
			{
				"x": 2.4708554077,
				"y": -0.0984918621,
				"z": 1.2954982369,
				"element": "C" 
			},
			{
				"x": 1.7369727664,
				"y": -1.1036273538,
				"z": 1.9399880811,
				"element": "C" 
			},
			{
				"x": 2.2732107095,
				"y": -1.8133476477,
				"z": 3.0138660826,
				"element": "C" 
			},
			{
				"x": 3.5627194873,
				"y": -1.5117553915,
				"z": 3.4340182466,
				"element": "C" 
			},
			{
				"x": 4.090144125,
				"y": -2.1937976875,
				"z": 4.4695612115,
				"element": "F" 
			},
			{
				"x": 4.3280258667,
				"y": -0.5345400622,
				"z": 2.8074538097,
				"element": "C" 
			},
			{
				"x": 3.7788752462,
				"y": 0.1647397799,
				"z": 1.7346183402,
				"element": "C" 
			},
			{
				"x": 1.4476809128,
				"y": 2.1259156443,
				"z": 0.3511307215,
				"element": "C" 
			},
			{
				"x": 2.6005128547,
				"y": 2.8962109008,
				"z": 0.857380805,
				"element": "C" 
			},
			{
				"x": 3.5164478594,
				"y": 3.4981907637,
				"z": 1.2375187705,
				"element": "N" 
			},
			{
				"x": 0.2902890995,
				"y": 2.367788688,
				"z": 1.3923984137,
				"element": "C" 
			},
			{
				"x": 0.2084030155,
				"y": 3.493288028,
				"z": 1.8500622012,
				"element": "O" 
			},
			{
				"x": -0.6550360123,
				"y": 1.3088140928,
				"z": 1.8739346538,
				"element": "C" 
			},
			{
				"x": -1.3141714873,
				"y": 0.3801483777,
				"z": 1.052811003,
				"element": "C" 
			},
			{
				"x": -2.2304940132,
				"y": -0.5160805357,
				"z": 1.6047766788,
				"element": "C" 
			},
			{
				"x": -2.4848496454,
				"y": -0.5093205264,
				"z": 2.9774190219,
				"element": "C" 
			},
			{
				"x": -1.8399804595,
				"y": 0.4185619031,
				"z": 3.7990403775,
				"element": "C" 
			},
			{
				"x": -0.9464079498,
				"y": 1.3332969521,
				"z": 3.2491754628,
				"element": "C" 
			},
			{
				"x": -3.6244106591,
				"y": 3.2605455126,
				"z": -1.45064945,
				"element": "H" 
			},
			{
				"x": -1.3985511499,
				"y": 3.93657743,
				"z": -0.5533630888,
				"element": "H" 
			},
			{
				"x": 0.4507314103,
				"y": 0.7553346452,
				"z": -2.7836536098,
				"element": "H" 
			},
			{
				"x": -1.7832068625,
				"y": 0.0785312603,
				"z": -3.6524733748,
				"element": "H" 
			},
			{
				"x": 0.9616997614,
				"y": 3.878290057,
				"z": -0.7808309276,
				"element": "H" 
			},
			{
				"x": 2.217668185,
				"y": 3.2704486875,
				"z": -2.72963999,
				"element": "H" 
			},
			{
				"x": 3.4518979513,
				"y": -0.1669349246,
				"z": -1.0862805551,
				"element": "H" 
			},
			{
				"x": 0.9630089471,
				"y": 0.1070282981,
				"z": -0.1947729179,
				"element": "H" 
			},
			{
				"x": 0.7328105408,
				"y": -1.3394221636,
				"z": 1.6041717812,
				"element": "H" 
			},
			{
				"x": 1.7115752508,
				"y": -2.5928340848,
				"z": 3.5168141612,
				"element": "H" 
			},
			{
				"x": 5.335117604,
				"y": -0.3343954763,
				"z": 3.1562907246,
				"element": "H" 
			},
			{
				"x": 4.3755727024,
				"y": 0.919463975,
				"z": 1.2360066261,
				"element": "H" 
			},
			{
				"x": -1.1536272828,
				"y": 0.3770325738,
				"z": -0.0181163852,
				"element": "H" 
			},
			{
				"x": -2.7503859848,
				"y": -1.2159645171,
				"z": 0.9573922175,
				"element": "H" 
			},
			{
				"x": -3.1902469797,
				"y": -1.2167917193,
				"z": 3.4034081915,
				"element": "H" 
			},
			{
				"x": -2.0398144516,
				"y": 0.4349989516,
				"z": 4.8661515226,
				"element": "H" 
			},
			{
				"x": -0.4565013374,
				"y": 2.0718466821,
				"z": 3.8744368672,
				"element": "H" 
			}
		],
		 "valence_orbital": [ 
			{
				"type": "occ",
				"energy": -0.26906,
				"method": "rhf"
			},
			{
				"type": "occ",
				"energy": -0.26351,
				"method": "rhf"
			},
			{
				"type": "occ",
				"energy": -0.26102,
				"method": "rhf"
			},
			{
				"type": "occ",
				"energy": -0.25356,
				"method": "rhf"
			},
			{
				"type": "occ",
				"energy": -0.24663,
				"method": "rhf"
			},
			{
				"type": "unocc",
				"energy": -0.07711,
				"method": "rhf"
			},
			{
				"type": "unocc",
				"energy": -0.03606,
				"method": "rhf"
			},
			{
				"type": "unocc",
				"energy": -0.03082,
				"method": "rhf"
			},
			{
				"type": "unocc",
				"energy": -0.02647,
				"method": "rhf"
			},
			{
				"type": "unocc",
				"energy": -0.02216,
				"method": "rhf"
			}
		],
		"cosmo_sigma_profile": { 
			"-0.025": 0.0,
			"-0.024": 0.0,
			"-0.023": 0.0,
			"-0.022": 0.0,
			"-0.021": 0.0,
			"-0.02": 0.0,
			"-0.019": 0.0,
			"-0.018": 0.0,
			"-0.017": 0.0,
			"-0.016": 0.0,
			"-0.015": 0.290688739599,
			"-0.014": 2.03075810633,
			"-0.013": 1.51547607941,
			"-0.012": 1.89364755385,
			"-0.011": 2.02984671481,
			"-0.01": 1.95069365459,
			"-0.009": 2.45598874166,
			"-0.008": 6.80118363564,
			"-0.007": 19.3322407421,
			"-0.006": 26.3459578975,
			"-0.005": 31.4216153644,
			"-0.004": 26.4114355009,
			"-0.003": 22.2402684303,
			"-0.002": 21.194011196,
			"-0.001": 23.9924836504,
			"0.0": 31.3233323902,
			"0.001": 30.997322329,
			"0.002": 34.9238392939,
			"0.003": 37.0847308339,
			"0.004": 29.0424127797,
			"0.005": 8.25106516822,
			"0.006": 4.57681820274,
			"0.007": 5.52641383413,
			"0.008": 7.13289230181,
			"0.009": 7.13005309873,
			"0.01": 6.66372518544,
			"0.011": 3.88915893667,
			"0.012": 4.02678240486,
			"0.013": 2.6137575149,
			"0.014": 7.04028199738,
			"0.015": 2.41315642278,
			"0.016": 0.0,
			"0.017": 0.0,
			"0.018": 0.0,
			"0.019": 0.0,
			"0.02": 0.0,
			"0.021": 0.0,
			"0.022": 0.0,
			"0.023": 0.0,
			"0.024": 0.0,
			"0.025": 0.0
		}
	}
}
