{
	 "smiles": "CC1(C)[C@@H]2CC[C@@]1(C)C(=O)C2", 
	 "Tm": 452.15, 
	 "num_atms": 27, 
	 "gaussian": { 
		 "optdone": 1, 
		 "sigma_profile": "yes", 
		 "theory": "DFT", 
		 "functional": "B3LYP", 
		 "basiset": "6-31G**", 
		 "properties": { 
			 "R2extent": 1669.1241, 
			 "electric_dipole_moment_norm": 2.94732102595, 
			 "electric_quadrupole_moment_norm": 8.26423564584, 
			 "total_energy": -465.937954796, 
			 "HOMO_LUMO_gap": 0.22058, 
			 "cosmo_polarized_energy": -6.63, 
			 "cosmo_cavitation_energy": 25.96, 
			 "cosmo_dispersion_energy": -18.81, 
			 "cosmo_repulsion_energy": 1.47, 
			 "cosmo_total_nonelectrostatic_energy": 8.62, 
			 "SMD_solvation_energy": 4.7 
		},
		"coords": [
			{
				"x": -1.2743405367,
				"y": 1.5457280973,
				"z": 1.5555636325,
				"element": "C" 
			},
			{
				"x": -0.5154300148,
				"y": 0.8071090966,
				"z": 0.4407293516,
				"element": "C" 
			},
			{
				"x": -1.2067630467,
				"y": 1.1510049454,
				"z": -0.8924544259,
				"element": "C" 
			},
			{
				"x": -0.3568732562,
				"y": -0.7303786299,
				"z": 0.6980544241,
				"element": "C" 
			},
			{
				"x": 0.5084390123,
				"y": -0.7753747869,
				"z": 1.9806487897,
				"element": "C" 
			},
			{
				"x": 1.4863946035,
				"y": 0.422782611,
				"z": 1.779219032,
				"element": "C" 
			},
			{
				"x": 1.0346803793,
				"y": 1.0700910053,
				"z": 0.426208577,
				"element": "C" 
			},
			{
				"x": 1.5591032711,
				"y": 2.4726001171,
				"z": 0.1756854445,
				"element": "C" 
			},
			{
				"x": 1.4852615641,
				"y": 0.0381900916,
				"z": -0.6187104625,
				"element": "C" 
			},
			{
				"x": 2.4038706629,
				"y": 0.1517829921,
				"z": -1.4014215236,
				"element": "O" 
			},
			{
				"x": 0.5547438431,
				"y": -1.1773487945,
				"z": -0.4640395789,
				"element": "C" 
			},
			{
				"x": -0.8519571194,
				"y": 1.3945416429,
				"z": 2.5508115703,
				"element": "H" 
			},
			{
				"x": -2.3172914728,
				"y": 1.2093105469,
				"z": 1.5862239729,
				"element": "H" 
			},
			{
				"x": -1.2864962127,
				"y": 2.6240142672,
				"z": 1.363690908,
				"element": "H" 
			},
			{
				"x": -2.2324237189,
				"y": 0.7649792167,
				"z": -0.9027076116,
				"element": "H" 
			},
			{
				"x": -1.2668788753,
				"y": 2.2365422706,
				"z": -1.0233156537,
				"element": "H" 
			},
			{
				"x": -0.6927936762,
				"y": 0.7511163383,
				"z": -1.7705047638,
				"element": "H" 
			},
			{
				"x": -1.2974564352,
				"y": -1.2847005022,
				"z": 0.7692122112,
				"element": "H" 
			},
			{
				"x": -0.0978170199,
				"y": -0.652377071,
				"z": 2.882227802,
				"element": "H" 
			},
			{
				"x": 1.0323906129,
				"y": -1.7312044981,
				"z": 2.0782009785,
				"element": "H" 
			},
			{
				"x": 2.5364206857,
				"y": 0.1158538639,
				"z": 1.7433048882,
				"element": "H" 
			},
			{
				"x": 1.4013803602,
				"y": 1.1598710763,
				"z": 2.5838412179,
				"element": "H" 
			},
			{
				"x": 2.6506526851,
				"y": 2.4598797074,
				"z": 0.1000398454,
				"element": "H" 
			},
			{
				"x": 1.1775169178,
				"y": 2.8799809422,
				"z": -0.7658375324,
				"element": "H" 
			},
			{
				"x": 1.2781447234,
				"y": 3.1548711407,
				"z": 0.9847437857,
				"element": "H" 
			},
			{
				"x": 0.0162806636,
				"y": -1.3510287331,
				"z": -1.401117742,
				"element": "H" 
			},
			{
				"x": 1.1317413999,
				"y": -2.0840369537,
				"z": -0.2539971374,
				"element": "H" 
			}
		],
		 "valence_orbital": [ 
			{
				"type": "occ",
				"energy": -0.33097,
				"method": "rhf"
			},
			{
				"type": "occ",
				"energy": -0.31958,
				"method": "rhf"
			},
			{
				"type": "occ",
				"energy": -0.30985,
				"method": "rhf"
			},
			{
				"type": "occ",
				"energy": -0.2941,
				"method": "rhf"
			},
			{
				"type": "occ",
				"energy": -0.22898,
				"method": "rhf"
			},
			{
				"type": "unocc",
				"energy": -0.0084,
				"method": "rhf"
			},
			{
				"type": "unocc",
				"energy": 0.06839,
				"method": "rhf"
			},
			{
				"type": "unocc",
				"energy": 0.10461,
				"method": "rhf"
			},
			{
				"type": "unocc",
				"energy": 0.10749,
				"method": "rhf"
			},
			{
				"type": "unocc",
				"energy": 0.11894,
				"method": "rhf"
			}
		],
		"cosmo_sigma_profile": { 
			"-0.025": 0.0,
			"-0.024": 0.0,
			"-0.023": 0.0,
			"-0.022": 0.0,
			"-0.021": 0.0,
			"-0.02": 0.0,
			"-0.019": 0.0,
			"-0.018": 0.0,
			"-0.017": 0.0,
			"-0.016": 0.0,
			"-0.015": 0.0,
			"-0.014": 0.0,
			"-0.013": 0.0,
			"-0.012": 0.0,
			"-0.011": 0.0,
			"-0.01": 0.0,
			"-0.009": 0.0,
			"-0.008": 0.0,
			"-0.007": 0.0,
			"-0.006": 0.467366103837,
			"-0.005": 4.44032562329,
			"-0.004": 11.1564647283,
			"-0.003": 27.7108735673,
			"-0.002": 36.0507242624,
			"-0.001": 35.4585968424,
			"0.0": 29.8677675414,
			"0.001": 23.8033983752,
			"0.002": 5.78677716458,
			"0.003": 2.56338993239,
			"0.004": 1.31543604339,
			"0.005": 1.70656941614,
			"0.006": 1.52247145237,
			"0.007": 1.53932848513,
			"0.008": 1.69466202606,
			"0.009": 1.62567564214,
			"0.01": 1.87538286246,
			"0.011": 3.20007726031,
			"0.012": 4.62994348891,
			"0.013": 3.15203806662,
			"0.014": 0.37626588641,
			"0.015": 0.0,
			"0.016": 0.0,
			"0.017": 0.0,
			"0.018": 0.0,
			"0.019": 0.0,
			"0.02": 0.0,
			"0.021": 0.0,
			"0.022": 0.0,
			"0.023": 0.0,
			"0.024": 0.0,
			"0.025": 0.0
		}
	}
}
