{
	 "smiles": "CC1=NC(CO)=C(C)O1", 
	 "Tm": 346.15, 
	 "num_atms": 18, 
	 "gaussian": { 
		 "optdone": 1, 
		 "sigma_profile": "yes", 
		 "theory": "DFT", 
		 "functional": "B3LYP", 
		 "basiset": "6-31G**", 
		 "properties": { 
			 "R2extent": 1429.7939, 
			 "electric_dipole_moment_norm": 2.72450163516, 
			 "electric_quadrupole_moment_norm": 9.42846526217, 
			 "total_energy": -439.252675529, 
			 "HOMO_LUMO_gap": 0.23256, 
			 "cosmo_polarized_energy": -8.51, 
			 "cosmo_cavitation_energy": 21.8, 
			 "cosmo_dispersion_energy": -16.26, 
			 "cosmo_repulsion_energy": 1.38, 
			 "cosmo_total_nonelectrostatic_energy": 6.92, 
			 "SMD_solvation_energy": 3.17 
		},
		"coords": [
			{
				"x": -0.303836631,
				"y": 2.7475156768,
				"z": -1.9263412023,
				"element": "C" 
			},
			{
				"x": -0.3023233305,
				"y": 1.6284917635,
				"z": -0.9458077317,
				"element": "C" 
			},
			{
				"x": -1.0163207031,
				"y": 0.5458154087,
				"z": -0.948548323,
				"element": "N" 
			},
			{
				"x": -0.6228700787,
				"y": -0.1502199808,
				"z": 0.1967151837,
				"element": "C" 
			},
			{
				"x": -1.2739457783,
				"y": -1.4666256046,
				"z": 0.4978443424,
				"element": "C" 
			},
			{
				"x": -2.6882045715,
				"y": -1.3808157924,
				"z": 0.4112707945,
				"element": "O" 
			},
			{
				"x": 0.3300420024,
				"y": 0.5650699293,
				"z": 0.8499474238,
				"element": "C" 
			},
			{
				"x": 1.1249241901,
				"y": 0.3860128113,
				"z": 2.0924609797,
				"element": "C" 
			},
			{
				"x": 0.5490022924,
				"y": 1.7147416457,
				"z": 0.1141907435,
				"element": "O" 
			},
			{
				"x": -0.570454222,
				"y": 3.6940185038,
				"z": -1.4441633804,
				"element": "H" 
			},
			{
				"x": -1.0303468284,
				"y": 2.5303775653,
				"z": -2.7099527095,
				"element": "H" 
			},
			{
				"x": 0.6843101868,
				"y": 2.8751269015,
				"z": -2.3809372409,
				"element": "H" 
			},
			{
				"x": -1.0291967723,
				"y": -1.796602331,
				"z": 1.5126693265,
				"element": "H" 
			},
			{
				"x": -0.8861536593,
				"y": -2.2321951089,
				"z": -0.195504829,
				"element": "H" 
			},
			{
				"x": -2.8713509169,
				"y": -0.873580437,
				"z": -0.3932698751,
				"element": "H" 
			},
			{
				"x": 0.800864421,
				"y": -0.5171405274,
				"z": 2.6148526135,
				"element": "H" 
			},
			{
				"x": 0.9987186349,
				"y": 1.2373178341,
				"z": 2.7705621326,
				"element": "H" 
			},
			{
				"x": 2.1958417644,
				"y": 0.288991742,
				"z": 1.8788117516,
				"element": "H" 
			}
		],
		 "valence_orbital": [ 
			{
				"type": "occ",
				"energy": -0.33879,
				"method": "rhf"
			},
			{
				"type": "occ",
				"energy": -0.30406,
				"method": "rhf"
			},
			{
				"type": "occ",
				"energy": -0.28866,
				"method": "rhf"
			},
			{
				"type": "occ",
				"energy": -0.25972,
				"method": "rhf"
			},
			{
				"type": "occ",
				"energy": -0.22823,
				"method": "rhf"
			},
			{
				"type": "unocc",
				"energy": 0.00433,
				"method": "rhf"
			},
			{
				"type": "unocc",
				"energy": 0.05473,
				"method": "rhf"
			},
			{
				"type": "unocc",
				"energy": 0.09502,
				"method": "rhf"
			},
			{
				"type": "unocc",
				"energy": 0.10879,
				"method": "rhf"
			},
			{
				"type": "unocc",
				"energy": 0.11924,
				"method": "rhf"
			}
		],
		"cosmo_sigma_profile": { 
			"-0.025": 0.0,
			"-0.024": 0.0,
			"-0.023": 0.0,
			"-0.022": 0.0,
			"-0.021": 0.0,
			"-0.02": 0.0,
			"-0.019": 0.0,
			"-0.018": 0.0,
			"-0.017": 0.0,
			"-0.016": 0.0,
			"-0.015": 0.0,
			"-0.014": 0.0,
			"-0.013": 0.069340675815,
			"-0.012": 0.328694364661,
			"-0.011": 0.682317463936,
			"-0.01": 0.682432314276,
			"-0.009": 0.597994033764,
			"-0.008": 0.670253610423,
			"-0.007": 1.22079829597,
			"-0.006": 9.1789335709,
			"-0.005": 13.7122088839,
			"-0.004": 17.2111806168,
			"-0.003": 17.8420601277,
			"-0.002": 21.9523555217,
			"-0.001": 18.0022091754,
			"0.0": 10.4950042448,
			"0.001": 9.37879688549,
			"0.002": 7.91029979148,
			"0.003": 5.93622428696,
			"0.004": 4.99031836664,
			"0.005": 4.38657564511,
			"0.006": 3.94812799455,
			"0.007": 4.04266825149,
			"0.008": 3.63710411957,
			"0.009": 2.69588233184,
			"0.01": 1.73276158811,
			"0.011": 2.32370238095,
			"0.012": 1.54109218775,
			"0.013": 3.26460166049,
			"0.014": 2.82622675117,
			"0.015": 0.631274892328,
			"0.016": 0.0,
			"0.017": 0.0,
			"0.018": 0.0,
			"0.019": 0.0,
			"0.02": 0.0,
			"0.021": 0.0,
			"0.022": 0.0,
			"0.023": 0.0,
			"0.024": 0.0,
			"0.025": 0.0
		}
	}
}
