{
	 "smiles": "CC1(C)OC(=O)C(=CC2=CC=C(O2)C2=CC=C(C=C2)[N+]([O-])=O)C(=O)O1", 
	 "Tm": 494.15, 
	 "num_atms": 38, 
	 "gaussian": { 
		 "optdone": 1, 
		 "sigma_profile": "yes", 
		 "theory": "DFT", 
		 "functional": "B3LYP", 
		 "basiset": "6-31G**", 
		 "properties": { 
			 "R2extent": 13489.4419, 
			 "electric_dipole_moment_norm": 4.53741456448, 
			 "electric_quadrupole_moment_norm": 58.8965215863, 
			 "total_energy": -1236.86403179, 
			 "HOMO_LUMO_gap": 0.12037, 
			 "cosmo_polarized_energy": -21.47, 
			 "cosmo_cavitation_energy": 44.41, 
			 "cosmo_dispersion_energy": -31.4, 
			 "cosmo_repulsion_energy": 2.33, 
			 "cosmo_total_nonelectrostatic_energy": 15.34, 
			 "SMD_solvation_energy": 12.03 
		},
		"coords": [
			{
				"x": 2.4540173929,
				"y": -0.3416395074,
				"z": 3.0497806735,
				"element": "C" 
			},
			{
				"x": 2.4237440524,
				"y": 1.1681456885,
				"z": 2.8139992432,
				"element": "C" 
			},
			{
				"x": 2.320172635,
				"y": 1.9755299845,
				"z": 4.0960972066,
				"element": "C" 
			},
			{
				"x": 1.2791064417,
				"y": 1.5239984716,
				"z": 2.0280037263,
				"element": "O" 
			},
			{
				"x": 1.2671218691,
				"y": 1.2902273274,
				"z": 0.6798970418,
				"element": "C" 
			},
			{
				"x": 0.2197578756,
				"y": 1.405250203,
				"z": 0.0862585232,
				"element": "O" 
			},
			{
				"x": 2.588549598,
				"y": 0.9995616015,
				"z": 0.0745999593,
				"element": "C" 
			},
			{
				"x": 2.815958814,
				"y": 0.5297223239,
				"z": -1.1906728066,
				"element": "C" 
			},
			{
				"x": 1.9835781636,
				"y": 0.062732606,
				"z": -2.2412119945,
				"element": "C" 
			},
			{
				"x": 2.3632483579,
				"y": -0.3981124106,
				"z": -3.4960731775,
				"element": "C" 
			},
			{
				"x": 1.1860175289,
				"y": -0.7670737917,
				"z": -4.175417986,
				"element": "C" 
			},
			{
				"x": 0.1399409652,
				"y": -0.5188707242,
				"z": -3.3017330211,
				"element": "C" 
			},
			{
				"x": 0.6248373014,
				"y": -0.0236879456,
				"z": -2.138821038,
				"element": "O" 
			},
			{
				"x": -1.3035581479,
				"y": -0.6623221066,
				"z": -3.3929361814,
				"element": "C" 
			},
			{
				"x": -2.1253922836,
				"y": -0.1740151413,
				"z": -2.3564506131,
				"element": "C" 
			},
			{
				"x": -3.505792505,
				"y": -0.3074775156,
				"z": -2.4386732849,
				"element": "C" 
			},
			{
				"x": -4.0604272668,
				"y": -0.92671024,
				"z": -3.5583470279,
				"element": "C" 
			},
			{
				"x": -3.2711560108,
				"y": -1.4168088989,
				"z": -4.599193736,
				"element": "C" 
			},
			{
				"x": -1.8926299286,
				"y": -1.2834702663,
				"z": -4.5113549915,
				"element": "C" 
			},
			{
				"x": -5.520790495,
				"y": -1.0686193204,
				"z": -3.6475985263,
				"element": "N" 
			},
			{
				"x": -6.1945104068,
				"y": -0.6315181743,
				"z": -2.7153007141,
				"element": "O" 
			},
			{
				"x": -5.9798829549,
				"y": -1.6169347081,
				"z": -4.6499925183,
				"element": "O" 
			},
			{
				"x": 3.8181165018,
				"y": 1.3314673871,
				"z": 0.8515984828,
				"element": "C" 
			},
			{
				"x": 4.9297587352,
				"y": 1.4098183379,
				"z": 0.3776363785,
				"element": "O" 
			},
			{
				"x": 3.6375983091,
				"y": 1.5921759073,
				"z": 2.1761142064,
				"element": "O" 
			},
			{
				"x": 2.5266275496,
				"y": -0.8858997214,
				"z": 2.1041950026,
				"element": "H" 
			},
			{
				"x": 1.5399706594,
				"y": -0.6542433529,
				"z": 3.5603687915,
				"element": "H" 
			},
			{
				"x": 3.3163191786,
				"y": -0.6031039455,
				"z": 3.6677902279,
				"element": "H" 
			},
			{
				"x": 1.4008578171,
				"y": 1.7156820527,
				"z": 4.6255599946,
				"element": "H" 
			},
			{
				"x": 3.1786104861,
				"y": 1.7662371268,
				"z": 4.7382407906,
				"element": "H" 
			},
			{
				"x": 2.3048360277,
				"y": 3.0404578728,
				"z": 3.8557248848,
				"element": "H" 
			},
			{
				"x": 3.8727920291,
				"y": 0.481283854,
				"z": -1.4472724367,
				"element": "H" 
			},
			{
				"x": 3.3782197889,
				"y": -0.4511806061,
				"z": -3.8643309755,
				"element": "H" 
			},
			{
				"x": 1.1074002062,
				"y": -1.1538744499,
				"z": -5.1805227768,
				"element": "H" 
			},
			{
				"x": -1.6715313317,
				"y": 0.3135341185,
				"z": -1.4999859429,
				"element": "H" 
			},
			{
				"x": -4.1576604481,
				"y": 0.061150195,
				"z": -1.6567279376,
				"element": "H" 
			},
			{
				"x": -3.7456114069,
				"y": -1.8918419503,
				"z": -5.4483976355,
				"element": "H" 
			},
			{
				"x": -1.2693150986,
				"y": -1.6692702815,
				"z": -5.3113498115,
				"element": "H" 
			}
		],
		 "valence_orbital": [ 
			{
				"type": "occ",
				"energy": -0.2933,
				"method": "rhf"
			},
			{
				"type": "occ",
				"energy": -0.28973,
				"method": "rhf"
			},
			{
				"type": "occ",
				"energy": -0.28584,
				"method": "rhf"
			},
			{
				"type": "occ",
				"energy": -0.2737,
				"method": "rhf"
			},
			{
				"type": "occ",
				"energy": -0.23563,
				"method": "rhf"
			},
			{
				"type": "unocc",
				"energy": -0.11526,
				"method": "rhf"
			},
			{
				"type": "unocc",
				"energy": -0.08451,
				"method": "rhf"
			},
			{
				"type": "unocc",
				"energy": -0.03454,
				"method": "rhf"
			},
			{
				"type": "unocc",
				"energy": -0.0272,
				"method": "rhf"
			},
			{
				"type": "unocc",
				"energy": -0.0026,
				"method": "rhf"
			}
		],
		"cosmo_sigma_profile": { 
			"-0.025": 0.0,
			"-0.024": 0.0,
			"-0.023": 0.0,
			"-0.022": 0.0,
			"-0.021": 0.0,
			"-0.02": 0.0,
			"-0.019": 0.0,
			"-0.018": 0.0,
			"-0.017": 0.0,
			"-0.016": 0.0,
			"-0.015": 0.0,
			"-0.014": 0.0,
			"-0.013": 0.0,
			"-0.012": 0.0,
			"-0.011": 0.00903309746008,
			"-0.01": 2.990861914,
			"-0.009": 7.24792855519,
			"-0.008": 7.34861087394,
			"-0.007": 9.79955725003,
			"-0.006": 19.1211579796,
			"-0.005": 24.877001753,
			"-0.004": 23.0290032279,
			"-0.003": 25.5342556015,
			"-0.002": 37.0070924871,
			"-0.001": 39.0497491345,
			"0.0": 32.5710822888,
			"0.001": 24.9476414168,
			"0.002": 9.71629484041,
			"0.003": 9.00135555915,
			"0.004": 7.35758761922,
			"0.005": 8.48201170061,
			"0.006": 8.77167755999,
			"0.007": 13.4618057875,
			"0.008": 12.3436928527,
			"0.009": 10.1818571277,
			"0.01": 9.75064385079,
			"0.011": 7.87750828377,
			"0.012": 4.87975185054,
			"0.013": 1.33460574077,
			"0.014": 0.0,
			"0.015": 0.0,
			"0.016": 0.0,
			"0.017": 0.0,
			"0.018": 0.0,
			"0.019": 0.0,
			"0.02": 0.0,
			"0.021": 0.0,
			"0.022": 0.0,
			"0.023": 0.0,
			"0.024": 0.0,
			"0.025": 0.0
		}
	}
}
