{
	 "smiles": "FC(F)(F)C1=CC=CC=C1C(Cl)=O", 
	 "Tm": 251.15, 
	 "num_atms": 17, 
	 "gaussian": { 
		 "optdone": 1, 
		 "sigma_profile": "yes", 
		 "theory": "DFT", 
		 "functional": "B3LYP", 
		 "basiset": "6-31G**", 
		 "properties": { 
			 "R2extent": 2629.9927, 
			 "electric_dipole_moment_norm": 5.06872022211, 
			 "electric_quadrupole_moment_norm": 3.50292757419, 
			 "total_energy": -1142.20230301, 
			 "HOMO_LUMO_gap": 0.20206, 
			 "cosmo_polarized_energy": -7.26, 
			 "cosmo_cavitation_energy": 24.65, 
			 "cosmo_dispersion_energy": -17.85, 
			 "cosmo_repulsion_energy": 1.35, 
			 "cosmo_total_nonelectrostatic_energy": 8.16, 
			 "SMD_solvation_energy": 5.73 
		},
		"coords": [
			{
				"x": 2.500976434,
				"y": -1.4199733498,
				"z": -1.5468543218,
				"element": "F" 
			},
			{
				"x": 1.2198208961,
				"y": -1.538962108,
				"z": -1.124427208,
				"element": "C" 
			},
			{
				"x": 1.2391701031,
				"y": -2.3484790039,
				"z": -0.0476748505,
				"element": "F" 
			},
			{
				"x": 0.5434903264,
				"y": -2.1594804489,
				"z": -2.1066765118,
				"element": "F" 
			},
			{
				"x": 0.6320717837,
				"y": -0.1767427089,
				"z": -0.7969921528,
				"element": "C" 
			},
			{
				"x": 1.332907448,
				"y": 0.9507087805,
				"z": -1.2255123335,
				"element": "C" 
			},
			{
				"x": 0.8628478323,
				"y": 2.2364645184,
				"z": -0.9539507255,
				"element": "C" 
			},
			{
				"x": -0.3120396387,
				"y": 2.4067255625,
				"z": -0.2272209849,
				"element": "C" 
			},
			{
				"x": -1.0115213017,
				"y": 1.2905307309,
				"z": 0.2266608049,
				"element": "C" 
			},
			{
				"x": -0.5634133894,
				"y": -0.005859568,
				"z": -0.0578808437,
				"element": "C" 
			},
			{
				"x": -1.3922978308,
				"y": -1.1779419024,
				"z": 0.3507856282,
				"element": "C" 
			},
			{
				"x": -2.3176688215,
				"y": -0.9263657098,
				"z": 1.9152993202,
				"element": "Cl" 
			},
			{
				"x": -1.5098450099,
				"y": -2.2108794649,
				"z": -0.2269674163,
				"element": "O" 
			},
			{
				"x": 2.2595891597,
				"y": 0.8166926796,
				"z": -1.7693723505,
				"element": "H" 
			},
			{
				"x": 1.422737476,
				"y": 3.0981038775,
				"z": -1.3039083783,
				"element": "H" 
			},
			{
				"x": -0.6847316229,
				"y": 3.4018016258,
				"z": -0.0063276843,
				"element": "H" 
			},
			{
				"x": -1.9218938443,
				"y": 1.4180564895,
				"z": 0.7991200086,
				"element": "H" 
			}
		],
		 "valence_orbital": [ 
			{
				"type": "occ",
				"energy": -0.32793,
				"method": "rhf"
			},
			{
				"type": "occ",
				"energy": -0.32519,
				"method": "rhf"
			},
			{
				"type": "occ",
				"energy": -0.30262,
				"method": "rhf"
			},
			{
				"type": "occ",
				"energy": -0.29189,
				"method": "rhf"
			},
			{
				"type": "occ",
				"energy": -0.28866,
				"method": "rhf"
			},
			{
				"type": "unocc",
				"energy": -0.0866,
				"method": "rhf"
			},
			{
				"type": "unocc",
				"energy": -0.04386,
				"method": "rhf"
			},
			{
				"type": "unocc",
				"energy": -0.00482,
				"method": "rhf"
			},
			{
				"type": "unocc",
				"energy": 0.01699,
				"method": "rhf"
			},
			{
				"type": "unocc",
				"energy": 0.07705,
				"method": "rhf"
			}
		],
		"cosmo_sigma_profile": { 
			"-0.025": 0.0,
			"-0.024": 0.0,
			"-0.023": 0.0,
			"-0.022": 0.0,
			"-0.021": 0.0,
			"-0.02": 0.0,
			"-0.019": 0.0,
			"-0.018": 0.0,
			"-0.017": 0.0,
			"-0.016": 0.0,
			"-0.015": 0.0,
			"-0.014": 0.0,
			"-0.013": 0.0,
			"-0.012": 0.0,
			"-0.011": 0.0,
			"-0.01": 0.0,
			"-0.009": 0.000148813421645,
			"-0.008": 4.4257395747,
			"-0.007": 9.37470127849,
			"-0.006": 10.0987048458,
			"-0.005": 8.33826047366,
			"-0.004": 9.02923816347,
			"-0.003": 9.85228266741,
			"-0.002": 11.8166812131,
			"-0.001": 15.5960747477,
			"0.0": 20.5214010846,
			"0.001": 23.8778809997,
			"0.002": 27.3149978732,
			"0.003": 21.5931323974,
			"0.004": 10.4625597981,
			"0.005": 6.92783025862,
			"0.006": 3.26282164179,
			"0.007": 4.29993407211,
			"0.008": 3.77394783405,
			"0.009": 0.867439128706,
			"0.01": 0.0,
			"0.011": 0.0,
			"0.012": 0.0,
			"0.013": 0.0,
			"0.014": 0.0,
			"0.015": 0.0,
			"0.016": 0.0,
			"0.017": 0.0,
			"0.018": 0.0,
			"0.019": 0.0,
			"0.02": 0.0,
			"0.021": 0.0,
			"0.022": 0.0,
			"0.023": 0.0,
			"0.024": 0.0,
			"0.025": 0.0
		}
	}
}
