{
	 "smiles": "ClC1=CC(Cl)=C(OCC#C)C=C1N1N=C2CCCCN2C1=O", 
	 "Tm": 441.15, 
	 "num_atms": 35, 
	 "gaussian": { 
		 "optdone": 1, 
		 "sigma_profile": "yes", 
		 "theory": "DFT", 
		 "functional": "B3LYP", 
		 "basiset": "6-31G**", 
		 "properties": { 
			 "R2extent": 10830.6763, 
			 "electric_dipole_moment_norm": 6.86078810779, 
			 "electric_quadrupole_moment_norm": 11.3799420781, 
			 "total_energy": -1814.43279363, 
			 "HOMO_LUMO_gap": 0.18618, 
			 "cosmo_polarized_energy": -18.8, 
			 "cosmo_cavitation_energy": 43.29, 
			 "cosmo_dispersion_energy": -29.97, 
			 "cosmo_repulsion_energy": 2.34, 
			 "cosmo_total_nonelectrostatic_energy": 15.66, 
			 "SMD_solvation_energy": 7.43 
		},
		"coords": [
			{
				"x": -1.935889312,
				"y": 2.6059350362,
				"z": -3.0581221341,
				"element": "Cl" 
			},
			{
				"x": -2.1730472206,
				"y": 2.6179728223,
				"z": -1.3280453167,
				"element": "C" 
			},
			{
				"x": -3.1820343329,
				"y": 3.4275568401,
				"z": -0.801885559,
				"element": "C" 
			},
			{
				"x": -3.3461316054,
				"y": 3.5424934633,
				"z": 0.5719111097,
				"element": "C" 
			},
			{
				"x": -4.6009813326,
				"y": 4.5813876894,
				"z": 1.2040383034,
				"element": "Cl" 
			},
			{
				"x": -2.4991947227,
				"y": 2.8483913027,
				"z": 1.4577163707,
				"element": "C" 
			},
			{
				"x": -2.7129043529,
				"y": 3.0440927477,
				"z": 2.7873428391,
				"element": "O" 
			},
			{
				"x": -1.7916000999,
				"y": 2.4845380321,
				"z": 3.7262702612,
				"element": "C" 
			},
			{
				"x": -1.95900366,
				"y": 1.0438717923,
				"z": 3.9322305796,
				"element": "C" 
			},
			{
				"x": -2.0926775543,
				"y": -0.1415762845,
				"z": 4.1162092408,
				"element": "C" 
			},
			{
				"x": -1.5201902177,
				"y": 2.0130638868,
				"z": 0.921513612,
				"element": "C" 
			},
			{
				"x": -1.3507687841,
				"y": 1.8852906221,
				"z": -0.4634713628,
				"element": "C" 
			},
			{
				"x": -0.3324183708,
				"y": 1.028490014,
				"z": -0.9352205755,
				"element": "N" 
			},
			{
				"x": 0.9530529695,
				"y": 1.1130274381,
				"z": -0.3977851961,
				"element": "N" 
			},
			{
				"x": 1.5924467208,
				"y": 0.1122189602,
				"z": -0.9278943284,
				"element": "C" 
			},
			{
				"x": 3.0195882173,
				"y": -0.27051881,
				"z": -0.6755834929,
				"element": "C" 
			},
			{
				"x": 3.5389995881,
				"y": -1.1928929024,
				"z": -1.7944814735,
				"element": "C" 
			},
			{
				"x": 2.5351704622,
				"y": -2.3237860361,
				"z": -2.0740557147,
				"element": "C" 
			},
			{
				"x": 1.2016272164,
				"y": -1.7670409345,
				"z": -2.5838792229,
				"element": "C" 
			},
			{
				"x": 0.7900507705,
				"y": -0.6382814074,
				"z": -1.7565793864,
				"element": "N" 
			},
			{
				"x": -0.4937436628,
				"y": -0.0837378399,
				"z": -1.7627854147,
				"element": "C" 
			},
			{
				"x": -1.4816548893,
				"y": -0.5008623267,
				"z": -2.3405532956,
				"element": "O" 
			},
			{
				"x": -3.8244164201,
				"y": 3.9895267797,
				"z": -1.4684158601,
				"element": "H" 
			},
			{
				"x": -1.994988276,
				"y": 3.0200676445,
				"z": 4.6581373886,
				"element": "H" 
			},
			{
				"x": -0.7597321772,
				"y": 2.7130228677,
				"z": 3.4265275183,
				"element": "H" 
			},
			{
				"x": -2.2212062979,
				"y": -1.187766861,
				"z": 4.2741012101,
				"element": "H" 
			},
			{
				"x": -0.8756733082,
				"y": 1.4245080267,
				"z": 1.5603526184,
				"element": "H" 
			},
			{
				"x": 3.624884681,
				"y": 0.6347147008,
				"z": -0.5758205862,
				"element": "H" 
			},
			{
				"x": 3.0785608355,
				"y": -0.7974443549,
				"z": 0.2864261259,
				"element": "H" 
			},
			{
				"x": 3.7006593273,
				"y": -0.61132337,
				"z": -2.7112150921,
				"element": "H" 
			},
			{
				"x": 4.5098767855,
				"y": -1.6071642968,
				"z": -1.5060598747,
				"element": "H" 
			},
			{
				"x": 2.9321877103,
				"y": -3.0200783171,
				"z": -2.8194215751,
				"element": "H" 
			},
			{
				"x": 2.3678566411,
				"y": -2.8989474964,
				"z": -1.1543761671,
				"element": "H" 
			},
			{
				"x": 0.4033007871,
				"y": -2.513855801,
				"z": -2.5605892593,
				"element": "H" 
			},
			{
				"x": 1.2997938845,
				"y": -1.4277936279,
				"z": -3.6231362898,
				"element": "H" 
			}
		],
		 "valence_orbital": [ 
			{
				"type": "occ",
				"energy": -0.28275,
				"method": "rhf"
			},
			{
				"type": "occ",
				"energy": -0.26035,
				"method": "rhf"
			},
			{
				"type": "occ",
				"energy": -0.25721,
				"method": "rhf"
			},
			{
				"type": "occ",
				"energy": -0.22955,
				"method": "rhf"
			},
			{
				"type": "occ",
				"energy": -0.2127,
				"method": "rhf"
			},
			{
				"type": "unocc",
				"energy": -0.02652,
				"method": "rhf"
			},
			{
				"type": "unocc",
				"energy": -0.00917,
				"method": "rhf"
			},
			{
				"type": "unocc",
				"energy": 0.01013,
				"method": "rhf"
			},
			{
				"type": "unocc",
				"energy": 0.01627,
				"method": "rhf"
			},
			{
				"type": "unocc",
				"energy": 0.0202,
				"method": "rhf"
			}
		],
		"cosmo_sigma_profile": { 
			"-0.025": 0.0,
			"-0.024": 0.0,
			"-0.023": 0.0,
			"-0.022": 0.0,
			"-0.021": 0.0,
			"-0.02": 0.0,
			"-0.019": 0.0,
			"-0.018": 0.0,
			"-0.017": 0.0,
			"-0.016": 0.0,
			"-0.015": 0.0,
			"-0.014": 0.0,
			"-0.013": 0.155532213221,
			"-0.012": 1.13442875369,
			"-0.011": 1.39714645933,
			"-0.01": 0.69425198269,
			"-0.009": 4.96615585908,
			"-0.008": 7.35810389056,
			"-0.007": 7.63709648596,
			"-0.006": 12.497720303,
			"-0.005": 25.4422593359,
			"-0.004": 31.932044618,
			"-0.003": 31.1866419067,
			"-0.002": 27.3762715812,
			"-0.001": 21.9274508147,
			"0.0": 25.5029224365,
			"0.001": 26.8559479297,
			"0.002": 21.7615932004,
			"0.003": 23.6228019638,
			"0.004": 24.0653424901,
			"0.005": 14.2996444692,
			"0.006": 8.54673445973,
			"0.007": 5.31270558066,
			"0.008": 4.78808596712,
			"0.009": 3.81987099875,
			"0.01": 2.55939662771,
			"0.011": 3.25267888781,
			"0.012": 2.97438976208,
			"0.013": 7.15930663312,
			"0.014": 2.40651162746,
			"0.015": 0.035946025815,
			"0.016": 0.0,
			"0.017": 0.0,
			"0.018": 0.0,
			"0.019": 0.0,
			"0.02": 0.0,
			"0.021": 0.0,
			"0.022": 0.0,
			"0.023": 0.0,
			"0.024": 0.0,
			"0.025": 0.0
		}
	}
}
