{
	 "smiles": "CCCCCCCCCCCCCCCBr", 
	 "Tm": 292.15, 
	 "num_atms": 47, 
	 "gaussian": { 
		 "optdone": 1, 
		 "sigma_profile": "yes", 
		 "theory": "DFT", 
		 "functional": "B3LYP", 
		 "basiset": "6-31G**", 
		 "properties": { 
			 "R2extent": 11543.0214, 
			 "electric_dipole_moment_norm": 2.06687524055, 
			 "electric_quadrupole_moment_norm": 11.9221979656, 
			 "total_energy": -3161.73279118, 
			 "HOMO_LUMO_gap": 0.2738, 
			 "cosmo_polarized_energy": -4.18, 
			 "cosmo_cavitation_energy": 47.92, 
			 "cosmo_dispersion_energy": -32.71, 
			 "cosmo_repulsion_energy": 2.7, 
			 "cosmo_total_nonelectrostatic_energy": 17.91, 
			 "SMD_solvation_energy": 5.15 
		},
		"coords": [
			{
				"x": 1.4021697105,
				"y": 5.3036797018,
				"z": -2.6766897435,
				"element": "C" 
			},
			{
				"x": 0.2825241939,
				"y": 4.4548791836,
				"z": -2.0622037947,
				"element": "C" 
			},
			{
				"x": 0.5603161464,
				"y": 3.9746868035,
				"z": -0.6279308058,
				"element": "C" 
			},
			{
				"x": 1.7276920489,
				"y": 2.9864309806,
				"z": -0.4951313203,
				"element": "C" 
			},
			{
				"x": 1.9356150432,
				"y": 2.4921149364,
				"z": 0.943990445,
				"element": "C" 
			},
			{
				"x": 3.1042300654,
				"y": 1.5010378898,
				"z": 1.106446761,
				"element": "C" 
			},
			{
				"x": 2.87443585,
				"y": 0.0857351121,
				"z": 0.5240864336,
				"element": "C" 
			},
			{
				"x": 2.4000282748,
				"y": -0.976217026,
				"z": 1.5334799449,
				"element": "C" 
			},
			{
				"x": 1.0277077838,
				"y": -0.7171165227,
				"z": 2.1715518685,
				"element": "C" 
			},
			{
				"x": 0.5759490173,
				"y": -1.8039014209,
				"z": 3.1653614269,
				"element": "C" 
			},
			{
				"x": 0.3337858321,
				"y": -3.2058814669,
				"z": 2.5781640185,
				"element": "C" 
			},
			{
				"x": -0.806386901,
				"y": -3.2819294704,
				"z": 1.5525469727,
				"element": "C" 
			},
			{
				"x": -1.0585759135,
				"y": -4.7112381609,
				"z": 1.0531713747,
				"element": "C" 
			},
			{
				"x": -2.2560952003,
				"y": -4.8608355926,
				"z": 0.1033885121,
				"element": "C" 
			},
			{
				"x": -2.1798361357,
				"y": -4.0774408765,
				"z": -1.2000992543,
				"element": "C" 
			},
			{
				"x": -0.6559504767,
				"y": -4.6434748051,
				"z": -2.3474145456,
				"element": "Br" 
			},
			{
				"x": 1.6130228921,
				"y": 6.1844979869,
				"z": -2.0586852207,
				"element": "H" 
			},
			{
				"x": 2.335085209,
				"y": 4.7396568495,
				"z": -2.7770120899,
				"element": "H" 
			},
			{
				"x": 1.1252961026,
				"y": 5.6581253248,
				"z": -3.6751480613,
				"element": "H" 
			},
			{
				"x": 0.0913028544,
				"y": 3.583286325,
				"z": -2.703471602,
				"element": "H" 
			},
			{
				"x": -0.646575723,
				"y": 5.039376172,
				"z": -2.0623708714,
				"element": "H" 
			},
			{
				"x": -0.3485961141,
				"y": 3.5003369592,
				"z": -0.232748829,
				"element": "H" 
			},
			{
				"x": 0.7488614018,
				"y": 4.8471955759,
				"z": 0.0145943523,
				"element": "H" 
			},
			{
				"x": 1.5484033332,
				"y": 2.132626346,
				"z": -1.163351105,
				"element": "H" 
			},
			{
				"x": 2.6576915765,
				"y": 3.45442023,
				"z": -0.8445884509,
				"element": "H" 
			},
			{
				"x": 1.0044477654,
				"y": 2.0395213119,
				"z": 1.308503817,
				"element": "H" 
			},
			{
				"x": 2.1198959466,
				"y": 3.3631545579,
				"z": 1.5879432127,
				"element": "H" 
			},
			{
				"x": 3.9900381068,
				"y": 1.9461220774,
				"z": 0.6341496877,
				"element": "H" 
			},
			{
				"x": 3.3545212563,
				"y": 1.4097124746,
				"z": 2.1720947045,
				"element": "H" 
			},
			{
				"x": 3.8122507394,
				"y": -0.275016642,
				"z": 0.0842130728,
				"element": "H" 
			},
			{
				"x": 2.1606321898,
				"y": 0.1352244662,
				"z": -0.3091789621,
				"element": "H" 
			},
			{
				"x": 2.3859710889,
				"y": -1.9469523606,
				"z": 1.0216059063,
				"element": "H" 
			},
			{
				"x": 3.1507111199,
				"y": -1.0677234473,
				"z": 2.3324086887,
				"element": "H" 
			},
			{
				"x": 0.2751589786,
				"y": -0.595635541,
				"z": 1.3803772895,
				"element": "H" 
			},
			{
				"x": 1.0524421904,
				"y": 0.238640539,
				"z": 2.7091446844,
				"element": "H" 
			},
			{
				"x": 1.3286827302,
				"y": -1.8841799705,
				"z": 3.9615951455,
				"element": "H" 
			},
			{
				"x": -0.3470998876,
				"y": -1.467109546,
				"z": 3.657208902,
				"element": "H" 
			},
			{
				"x": 0.1080192404,
				"y": -3.8913679156,
				"z": 3.406437299,
				"element": "H" 
			},
			{
				"x": 1.2558324439,
				"y": -3.5874676677,
				"z": 2.1205155935,
				"element": "H" 
			},
			{
				"x": -1.7267377238,
				"y": -2.8825467762,
				"z": 2.0044899189,
				"element": "H" 
			},
			{
				"x": -0.5740193586,
				"y": -2.6307974792,
				"z": 0.7007526578,
				"element": "H" 
			},
			{
				"x": -0.1583404217,
				"y": -5.0880764791,
				"z": 0.5527260525,
				"element": "H" 
			},
			{
				"x": -1.2287416348,
				"y": -5.3677532685,
				"z": 1.9164632691,
				"element": "H" 
			},
			{
				"x": -2.4101640171,
				"y": -5.9204858406,
				"z": -0.1289915916,
				"element": "H" 
			},
			{
				"x": -3.1701647221,
				"y": -4.5175084841,
				"z": 0.6122695493,
				"element": "H" 
			},
			{
				"x": -3.0623206414,
				"y": -4.233855882,
				"z": -1.8194754417,
				"element": "H" 
			},
			{
				"x": -2.0314162611,
				"y": -3.0091491619,
				"z": -1.0472898719,
				"element": "H" 
			}
		],
		 "valence_orbital": [ 
			{
				"type": "occ",
				"energy": -0.29987,
				"method": "rhf"
			},
			{
				"type": "occ",
				"energy": -0.29778,
				"method": "rhf"
			},
			{
				"type": "occ",
				"energy": -0.29592,
				"method": "rhf"
			},
			{
				"type": "occ",
				"energy": -0.26886,
				"method": "rhf"
			},
			{
				"type": "occ",
				"energy": -0.26725,
				"method": "rhf"
			},
			{
				"type": "unocc",
				"energy": 0.00655,
				"method": "rhf"
			},
			{
				"type": "unocc",
				"energy": 0.07611,
				"method": "rhf"
			},
			{
				"type": "unocc",
				"energy": 0.09037,
				"method": "rhf"
			},
			{
				"type": "unocc",
				"energy": 0.09459,
				"method": "rhf"
			},
			{
				"type": "unocc",
				"energy": 0.10244,
				"method": "rhf"
			}
		],
		"cosmo_sigma_profile": { 
			"-0.025": 0.0,
			"-0.024": 0.0,
			"-0.023": 0.0,
			"-0.022": 0.0,
			"-0.021": 0.0,
			"-0.02": 0.0,
			"-0.019": 0.0,
			"-0.018": 0.0,
			"-0.017": 0.0,
			"-0.016": 0.0,
			"-0.015": 0.0,
			"-0.014": 0.0,
			"-0.013": 0.0,
			"-0.012": 0.0,
			"-0.011": 0.0,
			"-0.01": 0.0,
			"-0.009": 0.0,
			"-0.008": 0.0,
			"-0.007": 0.837333493454,
			"-0.006": 4.09265626323,
			"-0.005": 4.55187726915,
			"-0.004": 10.4010804123,
			"-0.003": 13.3727574096,
			"-0.002": 43.7165864264,
			"-0.001": 77.4232227685,
			"0.0": 83.4036415468,
			"0.001": 69.3095703273,
			"0.002": 30.7973889053,
			"0.003": 5.64474430636,
			"0.004": 5.45751696466,
			"0.005": 5.8204113507,
			"0.006": 8.75436663293,
			"0.007": 6.83783136334,
			"0.008": 0.039148787942,
			"0.009": 0.0,
			"0.01": 0.0,
			"0.011": 0.0,
			"0.012": 0.0,
			"0.013": 0.0,
			"0.014": 0.0,
			"0.015": 0.0,
			"0.016": 0.0,
			"0.017": 0.0,
			"0.018": 0.0,
			"0.019": 0.0,
			"0.02": 0.0,
			"0.021": 0.0,
			"0.022": 0.0,
			"0.023": 0.0,
			"0.024": 0.0,
			"0.025": 0.0
		}
	}
}
