{
	 "smiles": "CC1=CC=C(NC2=CC=C(C=C2N)[N+]([O-])=O)C=C1", 
	 "Tm": 433.15, 
	 "num_atms": 31, 
	 "gaussian": { 
		 "optdone": 1, 
		 "sigma_profile": "yes", 
		 "theory": "DFT", 
		 "functional": "B3LYP", 
		 "basiset": "6-31G**", 
		 "properties": { 
			 "R2extent": 6790.764, 
			 "electric_dipole_moment_norm": 6.73770971918, 
			 "electric_quadrupole_moment_norm": 27.4071449515, 
			 "total_energy": -817.834594264, 
			 "HOMO_LUMO_gap": 0.12715, 
			 "cosmo_polarized_energy": -15.85, 
			 "cosmo_cavitation_energy": 35.29, 
			 "cosmo_dispersion_energy": -25.47, 
			 "cosmo_repulsion_energy": 1.96, 
			 "cosmo_total_nonelectrostatic_energy": 11.78, 
			 "SMD_solvation_energy": 7.88 
		},
		"coords": [
			{
				"x": 3.1474106088,
				"y": 4.1259004529,
				"z": -2.3696857868,
				"element": "C" 
			},
			{
				"x": 2.0954786483,
				"y": 3.2774907038,
				"z": -1.6952156404,
				"element": "C" 
			},
			{
				"x": 0.7482989802,
				"y": 3.3476885632,
				"z": -2.0870614527,
				"element": "C" 
			},
			{
				"x": -0.2245470798,
				"y": 2.5532285886,
				"z": -1.4942877072,
				"element": "C" 
			},
			{
				"x": 0.1124909212,
				"y": 1.6619044699,
				"z": -0.4587292262,
				"element": "C" 
			},
			{
				"x": -0.9034185628,
				"y": 0.8780493513,
				"z": 0.1168684256,
				"element": "N" 
			},
			{
				"x": -0.7273098139,
				"y": -0.1489090466,
				"z": 1.0619589553,
				"element": "C" 
			},
			{
				"x": -1.4273940919,
				"y": -0.0976966736,
				"z": 2.2762276163,
				"element": "C" 
			},
			{
				"x": -1.3582065817,
				"y": -1.1234691098,
				"z": 3.2109295316,
				"element": "C" 
			},
			{
				"x": -0.5408574147,
				"y": -2.2116896248,
				"z": 2.9146974063,
				"element": "C" 
			},
			{
				"x": 0.1701116133,
				"y": -2.3031060164,
				"z": 1.721551088,
				"element": "C" 
			},
			{
				"x": 0.0715483027,
				"y": -1.2896656962,
				"z": 0.7604880208,
				"element": "C" 
			},
			{
				"x": 0.6655029847,
				"y": -1.4458702502,
				"z": -0.4831200596,
				"element": "N" 
			},
			{
				"x": -0.4232617887,
				"y": -3.3017440722,
				"z": 3.8864569552,
				"element": "N" 
			},
			{
				"x": -1.0769073004,
				"y": -3.2156085473,
				"z": 4.9277345409,
				"element": "O" 
			},
			{
				"x": 0.3229563123,
				"y": -4.2435132985,
				"z": 3.6092866505,
				"element": "O" 
			},
			{
				"x": 1.4513451522,
				"y": 1.5954226756,
				"z": -0.0441229237,
				"element": "C" 
			},
			{
				"x": 2.4189162661,
				"y": 2.3886211389,
				"z": -0.666710284,
				"element": "C" 
			},
			{
				"x": 2.8374191854,
				"y": 5.1747148941,
				"z": -2.4339987839,
				"element": "H" 
			},
			{
				"x": 4.0957575884,
				"y": 4.0908948468,
				"z": -1.8260593825,
				"element": "H" 
			},
			{
				"x": 3.3427442458,
				"y": 3.7858705313,
				"z": -3.3943365002,
				"element": "H" 
			},
			{
				"x": 0.4571675057,
				"y": 4.0329570067,
				"z": -2.8797105742,
				"element": "H" 
			},
			{
				"x": -1.2567285147,
				"y": 2.6129781399,
				"z": -1.8307590673,
				"element": "H" 
			},
			{
				"x": -1.8057585814,
				"y": 1.3309576181,
				"z": 0.1546270776,
				"element": "H" 
			},
			{
				"x": -2.0309069524,
				"y": 0.7812033876,
				"z": 2.4862593243,
				"element": "H" 
			},
			{
				"x": -1.8945777313,
				"y": -1.0859413985,
				"z": 4.1494131032,
				"element": "H" 
			},
			{
				"x": 0.766917152,
				"y": -3.1878008684,
				"z": 1.5332498968,
				"element": "H" 
			},
			{
				"x": 0.905458842,
				"y": -0.6043540614,
				"z": -0.987201696,
				"element": "H" 
			},
			{
				"x": 1.3846271012,
				"y": -2.1533325955,
				"z": -0.531946223,
				"element": "H" 
			},
			{
				"x": 1.72898084,
				"y": 0.9557895074,
				"z": 0.7872891841,
				"element": "H" 
			},
			{
				"x": 3.4485421635,
				"y": 2.3215293834,
				"z": -0.3236924689,
				"element": "H" 
			}
		],
		 "valence_orbital": [ 
			{
				"type": "occ",
				"energy": -0.27741,
				"method": "rhf"
			},
			{
				"type": "occ",
				"energy": -0.26645,
				"method": "rhf"
			},
			{
				"type": "occ",
				"energy": -0.26157,
				"method": "rhf"
			},
			{
				"type": "occ",
				"energy": -0.22662,
				"method": "rhf"
			},
			{
				"type": "occ",
				"energy": -0.20359,
				"method": "rhf"
			},
			{
				"type": "unocc",
				"energy": -0.07644,
				"method": "rhf"
			},
			{
				"type": "unocc",
				"energy": -0.01404,
				"method": "rhf"
			},
			{
				"type": "unocc",
				"energy": -0.01216,
				"method": "rhf"
			},
			{
				"type": "unocc",
				"energy": -0.00021,
				"method": "rhf"
			},
			{
				"type": "unocc",
				"energy": 0.02418,
				"method": "rhf"
			}
		],
		"cosmo_sigma_profile": { 
			"-0.025": 0.0,
			"-0.024": 0.0,
			"-0.023": 0.0,
			"-0.022": 0.0,
			"-0.021": 0.0,
			"-0.02": 0.0,
			"-0.019": 0.0,
			"-0.018": 0.0,
			"-0.017": 0.0,
			"-0.016": 0.0,
			"-0.015": 0.0300157007352,
			"-0.014": 0.870977223916,
			"-0.013": 2.74848984808,
			"-0.012": 3.22376828838,
			"-0.011": 3.0229021049,
			"-0.01": 3.66138652037,
			"-0.009": 3.79400285315,
			"-0.008": 4.64413601943,
			"-0.007": 5.47048146827,
			"-0.006": 7.87941332716,
			"-0.005": 14.0634807438,
			"-0.004": 19.544995553,
			"-0.003": 21.5219078362,
			"-0.002": 18.1262635736,
			"-0.001": 20.2017200853,
			"0.0": 23.0093201659,
			"0.001": 21.9999889321,
			"0.002": 19.6008141813,
			"0.003": 19.8981178648,
			"0.004": 13.06568659,
			"0.005": 11.3560880088,
			"0.006": 9.55085093408,
			"0.007": 7.24671993236,
			"0.008": 10.8071523558,
			"0.009": 7.01649205145,
			"0.01": 5.25876692797,
			"0.011": 2.09763773995,
			"0.012": 0.877410392322,
			"0.013": 0.431125171876,
			"0.014": 0.0,
			"0.015": 0.0,
			"0.016": 0.0,
			"0.017": 0.0,
			"0.018": 0.0,
			"0.019": 0.0,
			"0.02": 0.0,
			"0.021": 0.0,
			"0.022": 0.0,
			"0.023": 0.0,
			"0.024": 0.0,
			"0.025": 0.0
		}
	}
}
