{
	 "smiles": "NC1=CN=C(I)C=C1", 
	 "Tm": 338.15, 
	 "num_atms": 13, 
	 "gaussian": { 
		 "optdone": 1, 
		 "sigma_profile": "no", 
		 "theory": "DFT", 
		 "functional": "B3LYP", 
		 "basiset": "6-31G**", 
		 "properties": { 
			 "R2extent": 1232.3683, 
			 "electric_dipole_moment_norm": 5.14414265063, 
			 "electric_quadrupole_moment_norm": 9.95812455435, 
			 "total_energy": -314.428802703, 
			 "HOMO_LUMO_gap": 0.18559, 
			 "cosmo_polarized_energy": -105186.72, 
			 "cosmo_cavitation_energy": 20.43, 
			 "cosmo_dispersion_energy": -16.9, 
			 "cosmo_repulsion_energy": 1.37, 
			 "cosmo_total_nonelectrostatic_energy": 4.9, 
			 "SMD_solvation_energy": 1.22 
		},
		"coords": [
			{
				"x": -1.5287926594,
				"y": 2.0363000964,
				"z": -0.3453239026,
				"element": "N" 
			},
			{
				"x": -1.1339739586,
				"y": 0.750495164,
				"z": -0.0011339695,
				"element": "C" 
			},
			{
				"x": -2.049064262,
				"y": -0.1766738551,
				"z": 0.5287248045,
				"element": "C" 
			},
			{
				"x": -1.7083655417,
				"y": -1.4059850398,
				"z": 0.9242559535,
				"element": "N" 
			},
			{
				"x": -0.4475436728,
				"y": -1.774622743,
				"z": 0.8129324987,
				"element": "C" 
			},
			{
				"x": 0.0649226275,
				"y": -3.7528924409,
				"z": 1.4501678501,
				"element": "I" 
			},
			{
				"x": 0.5586312227,
				"y": -0.9488803521,
				"z": 0.301265489,
				"element": "C" 
			},
			{
				"x": 0.2031797033,
				"y": 0.3300167589,
				"z": -0.1090803208,
				"element": "C" 
			},
			{
				"x": -2.5153901268,
				"y": 2.1611751451,
				"z": -0.5238290863,
				"element": "H" 
			},
			{
				"x": -0.9493199473,
				"y": 2.5131445716,
				"z": -1.0214515591,
				"element": "H" 
			},
			{
				"x": -3.0990372088,
				"y": 0.0924573073,
				"z": 0.6373682544,
				"element": "H" 
			},
			{
				"x": 1.5828498876,
				"y": -1.2941523884,
				"z": 0.2252893067,
				"element": "H" 
			},
			{
				"x": 0.9572039364,
				"y": 1.003917776,
				"z": -0.5080853187,
				"element": "H" 
			}
		],
		 "valence_orbital": [ 
			{
				"type": "occ",
				"energy": -0.29053,
				"method": "rhf"
			},
			{
				"type": "occ",
				"energy": -0.26772,
				"method": "rhf"
			},
			{
				"type": "occ",
				"energy": -0.26589,
				"method": "rhf"
			},
			{
				"type": "occ",
				"energy": -0.25381,
				"method": "rhf"
			},
			{
				"type": "occ",
				"energy": -0.21739,
				"method": "rhf"
			},
			{
				"type": "unocc",
				"energy": -0.0318,
				"method": "rhf"
			},
			{
				"type": "unocc",
				"energy": -0.03012,
				"method": "rhf"
			},
			{
				"type": "unocc",
				"energy": -0.00919,
				"method": "rhf"
			},
			{
				"type": "unocc",
				"energy": 0.05377,
				"method": "rhf"
			},
			{
				"type": "unocc",
				"energy": 0.05778,
				"method": "rhf"
			}
		],
		"cosmo_sigma_profile": { 
			"0.0": 0.0,
			"0.0": 0.0,
			"0.0": 0.0,
			"0.0": 0.0,
			"0.0": 0.0,
			"0.0": 0.0,
			"0.0": 0.0,
			"0.0": 0.0,
			"0.0": 0.0,
			"0.0": 0.0,
			"0.0": 0.0,
			"0.0": 0.0,
			"0.0": 0.0,
			"0.0": 0.0,
			"0.0": 0.0,
			"0.0": 0.0,
			"0.0": 0.0,
			"0.0": 0.0,
			"0.0": 0.0,
			"0.0": 0.0,
			"0.0": 0.0,
			"0.0": 0.0,
			"0.0": 0.0,
			"0.0": 0.0,
			"0.0": 0.0,
			"0.0": 0.0,
			"0.0": 0.0,
			"0.0": 0.0,
			"0.0": 0.0,
			"0.0": 0.0,
			"0.0": 0.0,
			"0.0": 0.0,
			"0.0": 0.0,
			"0.0": 0.0,
			"0.0": 0.0,
			"0.0": 0.0,
			"0.0": 0.0,
			"0.0": 0.0,
			"0.0": 0.0,
			"0.0": 0.0,
			"0.0": 0.0,
			"0.0": 0.0,
			"0.0": 0.0,
			"0.0": 0.0,
			"0.0": 0.0,
			"0.0": 0.0,
			"0.0": 0.0,
			"0.0": 0.0,
			"0.0": 0.0,
			"0.0": 0.0,
			"0.0": 0.0
		}
	}
}
