{
	 "smiles": "OC(=O)CC1(CC(=O)C2=CC=C(Cl)S2)CCCCC1", 
	 "Tm": 376.15, 
	 "num_atms": 36, 
	 "gaussian": { 
		 "optdone": 1, 
		 "sigma_profile": "yes", 
		 "theory": "DFT", 
		 "functional": "B3LYP", 
		 "basiset": "6-31G**", 
		 "properties": { 
			 "R2extent": 7519.1626, 
			 "electric_dipole_moment_norm": 1.03390760709, 
			 "electric_quadrupole_moment_norm": 12.5177222828, 
			 "total_energy": -1627.79899407, 
			 "HOMO_LUMO_gap": 0.17184, 
			 "cosmo_polarized_energy": -13.0, 
			 "cosmo_cavitation_energy": 40.22, 
			 "cosmo_dispersion_energy": -28.23, 
			 "cosmo_repulsion_energy": 2.14, 
			 "cosmo_total_nonelectrostatic_energy": 14.13, 
			 "SMD_solvation_energy": 6.9 
		},
		"coords": [
			{
				"x": 1.7516355547,
				"y": -3.2219780016,
				"z": 2.3143275834,
				"element": "O" 
			},
			{
				"x": 2.5313528969,
				"y": -2.1405844608,
				"z": 2.0473270043,
				"element": "C" 
			},
			{
				"x": 2.8545162697,
				"y": -1.3561161498,
				"z": 2.9139394377,
				"element": "O" 
			},
			{
				"x": 2.911465301,
				"y": -2.0432620095,
				"z": 0.5877818663,
				"element": "C" 
			},
			{
				"x": 1.951880892,
				"y": -1.1701486204,
				"z": -0.2913318286,
				"element": "C" 
			},
			{
				"x": 0.6128356434,
				"y": -1.9628627843,
				"z": -0.441330425,
				"element": "C" 
			},
			{
				"x": -0.5169688605,
				"y": -1.2109120512,
				"z": -1.1342507763,
				"element": "C" 
			},
			{
				"x": -0.4595642159,
				"y": -0.9145520559,
				"z": -2.3225870187,
				"element": "O" 
			},
			{
				"x": -1.724655152,
				"y": -0.8378313557,
				"z": -0.36352344,
				"element": "C" 
			},
			{
				"x": -2.8085717501,
				"y": -0.1606878472,
				"z": -0.8808212433,
				"element": "C" 
			},
			{
				"x": -3.8415146418,
				"y": 0.0772876617,
				"z": 0.0588235411,
				"element": "C" 
			},
			{
				"x": -3.5280921294,
				"y": -0.4288556565,
				"z": 1.2965178199,
				"element": "C" 
			},
			{
				"x": -4.510533082,
				"y": -0.353479938,
				"z": 2.7169515884,
				"element": "Cl" 
			},
			{
				"x": -1.9746380387,
				"y": -1.2007726557,
				"z": 1.3349834206,
				"element": "S" 
			},
			{
				"x": 2.6148543163,
				"y": -0.9837160288,
				"z": -1.6829734679,
				"element": "C" 
			},
			{
				"x": 3.8513784824,
				"y": -0.0685703875,
				"z": -1.6700122334,
				"element": "C" 
			},
			{
				"x": 3.5501069738,
				"y": 1.2899051859,
				"z": -1.0202149685,
				"element": "C" 
			},
			{
				"x": 2.9468134715,
				"y": 1.1167138477,
				"z": 0.3809612707,
				"element": "C" 
			},
			{
				"x": 1.6977836861,
				"y": 0.2223271399,
				"z": 0.3417489008,
				"element": "C" 
			},
			{
				"x": 1.5535374787,
				"y": -3.1805994039,
				"z": 3.2658772327,
				"element": "H" 
			},
			{
				"x": 2.9602166398,
				"y": -3.0490747078,
				"z": 0.1594448156,
				"element": "H" 
			},
			{
				"x": 3.9147002875,
				"y": -1.6153793228,
				"z": 0.5662401706,
				"element": "H" 
			},
			{
				"x": 0.2890533211,
				"y": -2.3168145681,
				"z": 0.5416211082,
				"element": "H" 
			},
			{
				"x": 0.8092629843,
				"y": -2.8562976244,
				"z": -1.0468099806,
				"element": "H" 
			},
			{
				"x": -2.8333432433,
				"y": 0.1459330109,
				"z": -1.9195493165,
				"element": "H" 
			},
			{
				"x": -4.7698223872,
				"y": 0.592187629,
				"z": -0.1546490792,
				"element": "H" 
			},
			{
				"x": 2.8779860851,
				"y": -1.9685635744,
				"z": -2.0921137732,
				"element": "H" 
			},
			{
				"x": 1.8636253212,
				"y": -0.5652034628,
				"z": -2.3599637826,
				"element": "H" 
			},
			{
				"x": 4.6820700507,
				"y": -0.5495779287,
				"z": -1.1361236965,
				"element": "H" 
			},
			{
				"x": 4.2001046069,
				"y": 0.0719025407,
				"z": -2.7000299349,
				"element": "H" 
			},
			{
				"x": 2.8385327276,
				"y": 1.8403318017,
				"z": -1.6519281468,
				"element": "H" 
			},
			{
				"x": 4.4611160665,
				"y": 1.8982455692,
				"z": -0.9724820255,
				"element": "H" 
			},
			{
				"x": 2.6751445982,
				"y": 2.0928064305,
				"z": 0.7998390945,
				"element": "H" 
			},
			{
				"x": 3.6882683152,
				"y": 0.6882609707,
				"z": 1.0660481784,
				"element": "H" 
			},
			{
				"x": 0.9319058695,
				"y": 0.7311717189,
				"z": -0.2580195787,
				"element": "H" 
			},
			{
				"x": 1.284355661,
				"y": 0.1141670894,
				"z": 1.3504816829,
				"element": "H" 
			}
		],
		 "valence_orbital": [ 
			{
				"type": "occ",
				"energy": -0.29796,
				"method": "rhf"
			},
			{
				"type": "occ",
				"energy": -0.27737,
				"method": "rhf"
			},
			{
				"type": "occ",
				"energy": -0.27539,
				"method": "rhf"
			},
			{
				"type": "occ",
				"energy": -0.25411,
				"method": "rhf"
			},
			{
				"type": "occ",
				"energy": -0.24592,
				"method": "rhf"
			},
			{
				"type": "unocc",
				"energy": -0.07408,
				"method": "rhf"
			},
			{
				"type": "unocc",
				"energy": -0.00428,
				"method": "rhf"
			},
			{
				"type": "unocc",
				"energy": 0.0002,
				"method": "rhf"
			},
			{
				"type": "unocc",
				"energy": 0.00633,
				"method": "rhf"
			},
			{
				"type": "unocc",
				"energy": 0.01583,
				"method": "rhf"
			}
		],
		"cosmo_sigma_profile": { 
			"-0.025": 0.0,
			"-0.024": 0.0,
			"-0.023": 0.0,
			"-0.022": 0.0,
			"-0.021": 0.0,
			"-0.02": 0.0,
			"-0.019": 0.0,
			"-0.018": 0.613956383058,
			"-0.017": 0.766964210625,
			"-0.016": 0.8824064913,
			"-0.015": 0.898793445079,
			"-0.014": 0.464895420132,
			"-0.013": 0.716264701809,
			"-0.012": 0.938728424695,
			"-0.011": 1.02666315193,
			"-0.01": 0.408459375122,
			"-0.009": 1.16500894266,
			"-0.008": 2.9759384932,
			"-0.007": 3.81657405304,
			"-0.006": 8.24590482984,
			"-0.005": 13.3533998342,
			"-0.004": 17.1369133482,
			"-0.003": 22.728020899,
			"-0.002": 34.3546167118,
			"-0.001": 38.9162330156,
			"0.0": 44.1953429261,
			"0.001": 39.5977267286,
			"0.002": 26.2194360736,
			"0.003": 15.2112356265,
			"0.004": 5.59016720759,
			"0.005": 5.12808497663,
			"0.006": 4.85512068499,
			"0.007": 3.54429653628,
			"0.008": 4.14312616384,
			"0.009": 4.46891018452,
			"0.01": 4.3152207049,
			"0.011": 5.59856167991,
			"0.012": 7.71130282333,
			"0.013": 0.438992095967,
			"0.014": 0.0,
			"0.015": 0.0,
			"0.016": 0.0,
			"0.017": 0.0,
			"0.018": 0.0,
			"0.019": 0.0,
			"0.02": 0.0,
			"0.021": 0.0,
			"0.022": 0.0,
			"0.023": 0.0,
			"0.024": 0.0,
			"0.025": 0.0
		}
	}
}
