{
	 "smiles": "ClC1=NC2=C(C=NN2)C(Cl)=N1", 
	 "Tm": 401.15, 
	 "num_atms": 13, 
	 "gaussian": { 
		 "optdone": 1, 
		 "sigma_profile": "yes", 
		 "theory": "DFT", 
		 "functional": "B3LYP", 
		 "basiset": "6-31G**", 
		 "properties": { 
			 "R2extent": 2628.9694, 
			 "electric_dipole_moment_norm": 2.54173085318, 
			 "electric_quadrupole_moment_norm": 6.78415159913, 
			 "total_energy": -1331.10480629, 
			 "HOMO_LUMO_gap": 0.18951, 
			 "cosmo_polarized_energy": -10.17, 
			 "cosmo_cavitation_energy": 22.09, 
			 "cosmo_dispersion_energy": -17.17, 
			 "cosmo_repulsion_energy": 1.39, 
			 "cosmo_total_nonelectrostatic_energy": 6.31, 
			 "SMD_solvation_energy": -0.72 
		},
		"coords": [
			{
				"x": -2.680124478,
				"y": 1.3197316344,
				"z": -1.5980641037,
				"element": "Cl" 
			},
			{
				"x": -1.5837616707,
				"y": 0.1861919361,
				"z": -0.8485614028,
				"element": "C" 
			},
			{
				"x": -0.5759625401,
				"y": -0.2307855104,
				"z": -1.5934061354,
				"element": "N" 
			},
			{
				"x": 0.2113628199,
				"y": -1.0944679386,
				"z": -0.9400177153,
				"element": "C" 
			},
			{
				"x": 0.0325617705,
				"y": -1.5432221359,
				"z": 0.3928470612,
				"element": "C" 
			},
			{
				"x": 1.1175062461,
				"y": -2.4406406808,
				"z": 0.6207951929,
				"element": "C" 
			},
			{
				"x": 1.8808812018,
				"y": -2.535322051,
				"z": -0.4515733986,
				"element": "N" 
			},
			{
				"x": 1.3261969114,
				"y": -1.7173419621,
				"z": -1.3930535015,
				"element": "N" 
			},
			{
				"x": -1.0871868151,
				"y": -0.9962676534,
				"z": 1.0287577583,
				"element": "C" 
			},
			{
				"x": -1.467299919,
				"y": -1.4328752746,
				"z": 2.6740635164,
				"element": "Cl" 
			},
			{
				"x": -1.8860813713,
				"y": -0.1435825362,
				"z": 0.4201463957,
				"element": "N" 
			},
			{
				"x": 1.35605466,
				"y": -3.004023455,
				"z": 1.5117675003,
				"element": "H" 
			},
			{
				"x": 1.7528531845,
				"y": -1.6347943724,
				"z": -2.3036011676,
				"element": "H" 
			}
		],
		 "valence_orbital": [ 
			{
				"type": "occ",
				"energy": -0.32683,
				"method": "rhf"
			},
			{
				"type": "occ",
				"energy": -0.32151,
				"method": "rhf"
			},
			{
				"type": "occ",
				"energy": -0.2957,
				"method": "rhf"
			},
			{
				"type": "occ",
				"energy": -0.29289,
				"method": "rhf"
			},
			{
				"type": "occ",
				"energy": -0.27037,
				"method": "rhf"
			},
			{
				"type": "unocc",
				"energy": -0.08086,
				"method": "rhf"
			},
			{
				"type": "unocc",
				"energy": -0.03527,
				"method": "rhf"
			},
			{
				"type": "unocc",
				"energy": 0.00745,
				"method": "rhf"
			},
			{
				"type": "unocc",
				"energy": 0.01505,
				"method": "rhf"
			},
			{
				"type": "unocc",
				"energy": 0.03668,
				"method": "rhf"
			}
		],
		"cosmo_sigma_profile": { 
			"-0.025": 0.0,
			"-0.024": 0.0,
			"-0.023": 0.0,
			"-0.022": 0.0,
			"-0.021": 0.0,
			"-0.02": 0.0,
			"-0.019": 0.0253756954628,
			"-0.018": 1.11838924474,
			"-0.017": 1.7992301458,
			"-0.016": 1.14504443741,
			"-0.015": 0.855759615231,
			"-0.014": 0.518596570787,
			"-0.013": 1.24876265663,
			"-0.012": 1.1657832123,
			"-0.011": 0.465876857033,
			"-0.01": 1.41650952786,
			"-0.009": 2.34146431687,
			"-0.008": 1.48646503182,
			"-0.007": 3.57062522005,
			"-0.006": 3.78970466733,
			"-0.005": 5.24652291013,
			"-0.004": 11.064905409,
			"-0.003": 16.9470831353,
			"-0.002": 14.6080439199,
			"-0.001": 14.2514425549,
			"0.0": 12.7983043968,
			"0.001": 13.4512439924,
			"0.002": 17.1382683989,
			"0.003": 16.9090484224,
			"0.004": 10.4967050674,
			"0.005": 6.32434647004,
			"0.006": 4.65333335734,
			"0.007": 4.14819682446,
			"0.008": 3.04601465935,
			"0.009": 3.57942804365,
			"0.01": 2.83347657395,
			"0.011": 2.58544294465,
			"0.012": 2.2201129689,
			"0.013": 0.706901241465,
			"0.014": 0.233951183717,
			"0.015": 0.0,
			"0.016": 0.0,
			"0.017": 0.0,
			"0.018": 0.0,
			"0.019": 0.0,
			"0.02": 0.0,
			"0.021": 0.0,
			"0.022": 0.0,
			"0.023": 0.0,
			"0.024": 0.0,
			"0.025": 0.0
		}
	}
}
