{
	 "smiles": "NNC(=O)C1=C(O)C=CC(Br)=C1", 
	 "Tm": 496.15, 
	 "num_atms": 19, 
	 "gaussian": { 
		 "optdone": 1, 
		 "sigma_profile": "yes", 
		 "theory": "DFT", 
		 "functional": "B3LYP", 
		 "basiset": "6-31G**", 
		 "properties": { 
			 "R2extent": 5333.4119, 
			 "electric_dipole_moment_norm": 4.75315695196, 
			 "electric_quadrupole_moment_norm": 11.0623787559, 
			 "total_energy": -3102.29858946, 
			 "HOMO_LUMO_gap": 0.18915, 
			 "cosmo_polarized_energy": -16.63, 
			 "cosmo_cavitation_energy": 25.9, 
			 "cosmo_dispersion_energy": -19.84, 
			 "cosmo_repulsion_energy": 1.59, 
			 "cosmo_total_nonelectrostatic_energy": 7.65, 
			 "SMD_solvation_energy": 4.57 
		},
		"coords": [
			{
				"x": -1.5431271821,
				"y": -0.0620848391,
				"z": -2.9156652042,
				"element": "N" 
			},
			{
				"x": -0.5768359538,
				"y": -0.3634822858,
				"z": -1.9375228598,
				"element": "N" 
			},
			{
				"x": 0.2059456977,
				"y": 0.60914073,
				"z": -1.393983019,
				"element": "C" 
			},
			{
				"x": 0.0958180676,
				"y": 1.7850672298,
				"z": -1.7396464781,
				"element": "O" 
			},
			{
				"x": 1.2181970114,
				"y": 0.1997481735,
				"z": -0.349116586,
				"element": "C" 
			},
			{
				"x": 1.4512318558,
				"y": -1.1011909491,
				"z": 0.1388530187,
				"element": "C" 
			},
			{
				"x": 0.709709445,
				"y": -2.1454437895,
				"z": -0.3514143801,
				"element": "O" 
			},
			{
				"x": 2.4295420286,
				"y": -1.3243896327,
				"z": 1.1134296131,
				"element": "C" 
			},
			{
				"x": 3.1871012698,
				"y": -0.2716433071,
				"z": 1.616946141,
				"element": "C" 
			},
			{
				"x": 2.958831419,
				"y": 1.0168349186,
				"z": 1.1360752855,
				"element": "C" 
			},
			{
				"x": 3.9916174559,
				"y": 2.4721412994,
				"z": 1.8186238317,
				"element": "Br" 
			},
			{
				"x": 1.9906852875,
				"y": 1.2486830202,
				"z": 0.1692474999,
				"element": "C" 
			},
			{
				"x": -2.1591950436,
				"y": 0.6499525371,
				"z": -2.5217090242,
				"element": "H" 
			},
			{
				"x": -1.0606213492,
				"y": 0.4106178195,
				"z": -3.6808290121,
				"element": "H" 
			},
			{
				"x": -0.4968038445,
				"y": -1.3302970557,
				"z": -1.6623215421,
				"element": "H" 
			},
			{
				"x": 0.9811385349,
				"y": -2.9675072732,
				"z": 0.0764856895,
				"element": "H" 
			},
			{
				"x": 2.5996842212,
				"y": -2.3339074476,
				"z": 1.4817477793,
				"element": "H" 
			},
			{
				"x": 3.9432725068,
				"y": -0.4530208231,
				"z": 2.3720677279,
				"element": "H" 
			},
			{
				"x": 1.7978085719,
				"y": 2.2420816749,
				"z": -0.217468481,
				"element": "H" 
			}
		],
		 "valence_orbital": [ 
			{
				"type": "occ",
				"energy": -0.27308,
				"method": "rhf"
			},
			{
				"type": "occ",
				"energy": -0.27176,
				"method": "rhf"
			},
			{
				"type": "occ",
				"energy": -0.25762,
				"method": "rhf"
			},
			{
				"type": "occ",
				"energy": -0.25678,
				"method": "rhf"
			},
			{
				"type": "occ",
				"energy": -0.23546,
				"method": "rhf"
			},
			{
				"type": "unocc",
				"energy": -0.04631,
				"method": "rhf"
			},
			{
				"type": "unocc",
				"energy": -0.01349,
				"method": "rhf"
			},
			{
				"type": "unocc",
				"energy": 0.00473,
				"method": "rhf"
			},
			{
				"type": "unocc",
				"energy": 0.0442,
				"method": "rhf"
			},
			{
				"type": "unocc",
				"energy": 0.05642,
				"method": "rhf"
			}
		],
		"cosmo_sigma_profile": { 
			"-0.025": 0.0,
			"-0.024": 0.0,
			"-0.023": 0.0,
			"-0.022": 0.0,
			"-0.021": 0.0,
			"-0.02": 0.02629696714,
			"-0.019": 0.835122524196,
			"-0.018": 1.46336667772,
			"-0.017": 0.974958221109,
			"-0.016": 1.0941097755,
			"-0.015": 1.33063014577,
			"-0.014": 0.684882703289,
			"-0.013": 0.381938794078,
			"-0.012": 1.4149727209,
			"-0.011": 3.79398796693,
			"-0.01": 3.22893299551,
			"-0.009": 3.2446550644,
			"-0.008": 5.79205328578,
			"-0.007": 6.77259498655,
			"-0.006": 6.75650164575,
			"-0.005": 5.61538766007,
			"-0.004": 8.40374544456,
			"-0.003": 7.93801595385,
			"-0.002": 9.0626854263,
			"-0.001": 13.8143019209,
			"0.0": 17.9018066471,
			"0.001": 21.7799828794,
			"0.002": 24.8175144015,
			"0.003": 15.0055609978,
			"0.004": 14.0158255475,
			"0.005": 10.5367682817,
			"0.006": 1.85532755823,
			"0.007": 1.9330623041,
			"0.008": 1.87563030824,
			"0.009": 1.68788742123,
			"0.01": 1.80151020863,
			"0.011": 2.60485741559,
			"0.012": 2.19169578451,
			"0.013": 4.34911237708,
			"0.014": 3.28661911235,
			"0.015": 0.817504271433,
			"0.016": 0.433892792078,
			"0.017": 0.301807267269,
			"0.018": 0.0,
			"0.019": 0.0,
			"0.02": 0.0,
			"0.021": 0.0,
			"0.022": 0.0,
			"0.023": 0.0,
			"0.024": 0.0,
			"0.025": 0.0
		}
	}
}
