{
	 "smiles": "COC1=C(OCC(=O)N2CCOCC2)C=CC(=C1)C(O)=O", 
	 "Tm": 436.15, 
	 "num_atms": 38, 
	 "gaussian": { 
		 "optdone": 1, 
		 "sigma_profile": "yes", 
		 "theory": "DFT", 
		 "functional": "B3LYP", 
		 "basiset": "6-31G**", 
		 "properties": { 
			 "R2extent": 10640.7487, 
			 "electric_dipole_moment_norm": 6.45945241487, 
			 "electric_quadrupole_moment_norm": 34.8348364995, 
			 "total_energy": -1049.79096474, 
			 "HOMO_LUMO_gap": 0.19617, 
			 "cosmo_polarized_energy": -25.67, 
			 "cosmo_cavitation_energy": 41.0, 
			 "cosmo_dispersion_energy": -29.48, 
			 "cosmo_repulsion_energy": 2.27, 
			 "cosmo_total_nonelectrostatic_energy": 13.8, 
			 "SMD_solvation_energy": 8.62 
		},
		"coords": [
			{
				"x": -1.2562198322,
				"y": -2.6277278208,
				"z": -1.7527698239,
				"element": "C" 
			},
			{
				"x": -0.5735885652,
				"y": -3.0999550036,
				"z": -0.5712883093,
				"element": "O" 
			},
			{
				"x": 0.7945200123,
				"y": -2.9888332625,
				"z": -0.601608249,
				"element": "C" 
			},
			{
				"x": 1.4407241377,
				"y": -1.735370486,
				"z": -0.571032374,
				"element": "C" 
			},
			{
				"x": 0.7330419844,
				"y": -0.561251831,
				"z": -0.5660075436,
				"element": "O" 
			},
			{
				"x": -0.0870033801,
				"y": -0.3198358975,
				"z": 0.5709994034,
				"element": "C" 
			},
			{
				"x": -1.2206273058,
				"y": 0.6233870793,
				"z": 0.1483113963,
				"element": "C" 
			},
			{
				"x": -1.5192170885,
				"y": 0.7789708883,
				"z": -1.0292316746,
				"element": "O" 
			},
			{
				"x": -1.8887465891,
				"y": 1.2431923709,
				"z": 1.1705560175,
				"element": "N" 
			},
			{
				"x": -1.5722510822,
				"y": 1.0763639272,
				"z": 2.5950885706,
				"element": "C" 
			},
			{
				"x": -2.723668695,
				"y": 1.6346404061,
				"z": 3.4313594592,
				"element": "C" 
			},
			{
				"x": -2.9709373133,
				"y": 3.0050111426,
				"z": 3.1705893254,
				"element": "O" 
			},
			{
				"x": -2.9320567693,
				"y": 3.3705323428,
				"z": 1.7854481192,
				"element": "C" 
			},
			{
				"x": -2.9743685049,
				"y": 2.1732873534,
				"z": 0.8427456307,
				"element": "C" 
			},
			{
				"x": 2.8360689301,
				"y": -1.6756183769,
				"z": -0.6227401094,
				"element": "C" 
			},
			{
				"x": 3.5930277215,
				"y": -2.8414103164,
				"z": -0.6702283401,
				"element": "C" 
			},
			{
				"x": 2.9631321812,
				"y": -4.0922658603,
				"z": -0.6419268718,
				"element": "C" 
			},
			{
				"x": 1.5619353151,
				"y": -4.1520213748,
				"z": -0.6249743161,
				"element": "C" 
			},
			{
				"x": 3.8299116791,
				"y": -5.3125047928,
				"z": -0.6783604043,
				"element": "C" 
			},
			{
				"x": 3.2604882886,
				"y": -6.4813074953,
				"z": -0.2744712375,
				"element": "O" 
			},
			{
				"x": 4.9838936661,
				"y": -5.2985144287,
				"z": -1.0385880611,
				"element": "O" 
			},
			{
				"x": -1.1337709913,
				"y": -1.5495548759,
				"z": -1.8841261622,
				"element": "H" 
			},
			{
				"x": -2.3105905226,
				"y": -2.8637970027,
				"z": -1.5982342228,
				"element": "H" 
			},
			{
				"x": -0.8910979257,
				"y": -3.1616111794,
				"z": -2.637763528,
				"element": "H" 
			},
			{
				"x": 0.5225187742,
				"y": 0.1187972579,
				"z": 1.3719572373,
				"element": "H" 
			},
			{
				"x": -0.5288958653,
				"y": -1.2517048332,
				"z": 0.945331227,
				"element": "H" 
			},
			{
				"x": -0.6454651802,
				"y": 1.6052806435,
				"z": 2.8589902803,
				"element": "H" 
			},
			{
				"x": -1.4383297675,
				"y": 0.0166387037,
				"z": 2.8424111107,
				"element": "H" 
			},
			{
				"x": -2.4724905036,
				"y": 1.5610930038,
				"z": 4.4934215968,
				"element": "H" 
			},
			{
				"x": -3.6263811824,
				"y": 1.0270075136,
				"z": 3.2607492039,
				"element": "H" 
			},
			{
				"x": -2.0161624064,
				"y": 3.9488661728,
				"z": 1.5980159723,
				"element": "H" 
			},
			{
				"x": -3.7890154509,
				"y": 4.02551649,
				"z": 1.5901410265,
				"element": "H" 
			},
			{
				"x": -3.9473273317,
				"y": 1.6675924237,
				"z": 0.9034915674,
				"element": "H" 
			},
			{
				"x": -2.8380797157,
				"y": 2.4919733546,
				"z": -0.1919902113,
				"element": "H" 
			},
			{
				"x": 3.3060341688,
				"y": -0.6974778012,
				"z": -0.6232077074,
				"element": "H" 
			},
			{
				"x": 4.6757385118,
				"y": -2.8063092422,
				"z": -0.714193413,
				"element": "H" 
			},
			{
				"x": 1.020146244,
				"y": -5.0927297411,
				"z": -0.6779418581,
				"element": "H" 
			},
			{
				"x": 2.4003103542,
				"y": -6.3091494519,
				"z": 0.1324772732,
				"element": "H" 
			}
		],
		 "valence_orbital": [ 
			{
				"type": "occ",
				"energy": -0.26937,
				"method": "rhf"
			},
			{
				"type": "occ",
				"energy": -0.26202,
				"method": "rhf"
			},
			{
				"type": "occ",
				"energy": -0.2607,
				"method": "rhf"
			},
			{
				"type": "occ",
				"energy": -0.25338,
				"method": "rhf"
			},
			{
				"type": "occ",
				"energy": -0.24299,
				"method": "rhf"
			},
			{
				"type": "unocc",
				"energy": -0.04682,
				"method": "rhf"
			},
			{
				"type": "unocc",
				"energy": -0.01827,
				"method": "rhf"
			},
			{
				"type": "unocc",
				"energy": 0.01032,
				"method": "rhf"
			},
			{
				"type": "unocc",
				"energy": 0.05022,
				"method": "rhf"
			},
			{
				"type": "unocc",
				"energy": 0.06029,
				"method": "rhf"
			}
		],
		"cosmo_sigma_profile": { 
			"-0.025": 0.0,
			"-0.024": 0.0,
			"-0.023": 0.0,
			"-0.022": 0.0,
			"-0.021": 0.0,
			"-0.02": 0.0,
			"-0.019": 0.188021039892,
			"-0.018": 0.78607442976,
			"-0.017": 1.20212196578,
			"-0.016": 0.771019566821,
			"-0.015": 0.726253129579,
			"-0.014": 0.715735029931,
			"-0.013": 1.43941537607,
			"-0.012": 1.30728733172,
			"-0.011": 0.696608937869,
			"-0.01": 1.54999080088,
			"-0.009": 2.08175268552,
			"-0.008": 3.61051229943,
			"-0.007": 9.02281309713,
			"-0.006": 19.595631616,
			"-0.005": 33.8519788644,
			"-0.004": 33.2653077463,
			"-0.003": 27.4262112433,
			"-0.002": 24.7088260821,
			"-0.001": 19.1181243044,
			"0.0": 15.5679254375,
			"0.001": 16.555620203,
			"0.002": 17.2683230336,
			"0.003": 12.714118908,
			"0.004": 7.92758315321,
			"0.005": 6.45190890903,
			"0.006": 6.11227725765,
			"0.007": 7.361860681,
			"0.008": 7.00611088526,
			"0.009": 7.04997418806,
			"0.01": 8.15212791782,
			"0.011": 9.84610721759,
			"0.012": 8.82754043156,
			"0.013": 7.03846672365,
			"0.014": 3.0207293784,
			"0.015": 0.934243181711,
			"0.016": 0.215296396047,
			"0.017": 0.0,
			"0.018": 0.0,
			"0.019": 0.0,
			"0.02": 0.0,
			"0.021": 0.0,
			"0.022": 0.0,
			"0.023": 0.0,
			"0.024": 0.0,
			"0.0": 0.0
		}
	}
}
