{
	 "smiles": "COC1=CC(=CC(OC)=C1O)[C@@H](O)[C@H](CO)OC1=C(OC)C=CC=C1OC", 
	 "Tm": 490.5, 
	 "num_atms": 51, 
	 "gaussian": { 
		 "optdone": 1, 
		 "sigma_profile": "yes", 
		 "theory": "DFT", 
		 "functional": "B3LYP", 
		 "basiset": "6-31G**", 
		 "properties": { 
			 "R2extent": 11352.0255, 
			 "electric_dipole_moment_norm": 5.92024787826, 
			 "electric_quadrupole_moment_norm": 9.07203300259, 
			 "total_energy": -1340.18975209, 
			 "HOMO_LUMO_gap": 0.1889, 
			 "cosmo_polarized_energy": -20.6, 
			 "cosmo_cavitation_energy": 52.4, 
			 "cosmo_dispersion_energy": -34.38, 
			 "cosmo_repulsion_energy": 2.62, 
			 "cosmo_total_nonelectrostatic_energy": 20.65, 
			 "SMD_solvation_energy": 11.46 
		},
		"coords": [
			{
				"x": -4.36775026,
				"y": -4.3323899373,
				"z": -2.4834773115,
				"element": "C" 
			},
			{
				"x": -3.1075806124,
				"y": -4.0456790415,
				"z": -1.8713490525,
				"element": "O" 
			},
			{
				"x": -2.9454744242,
				"y": -2.7766982605,
				"z": -1.3726630117,
				"element": "C" 
			},
			{
				"x": -1.8878765472,
				"y": -2.0012959836,
				"z": -1.8645960819,
				"element": "C" 
			},
			{
				"x": -1.6264716635,
				"y": -0.7261465339,
				"z": -1.3635625804,
				"element": "C" 
			},
			{
				"x": -2.4622194269,
				"y": -0.1965763844,
				"z": -0.3696316006,
				"element": "C" 
			},
			{
				"x": -3.5163945899,
				"y": -0.9601474304,
				"z": 0.1189152436,
				"element": "C" 
			},
			{
				"x": -4.4080485758,
				"y": -0.5702369566,
				"z": 1.0946750074,
				"element": "O" 
			},
			{
				"x": -4.2700237037,
				"y": 0.7310884416,
				"z": 1.6430421768,
				"element": "C" 
			},
			{
				"x": -3.763210647,
				"y": -2.2607985458,
				"z": -0.3613402057,
				"element": "C" 
			},
			{
				"x": -4.7908815277,
				"y": -2.9980252714,
				"z": 0.1558798017,
				"element": "O" 
			},
			{
				"x": -0.4545729769,
				"y": 0.0929002823,
				"z": -1.8961937158,
				"element": "C" 
			},
			{
				"x": -0.7761398895,
				"y": 1.4711810711,
				"z": -1.9876077561,
				"element": "O" 
			},
			{
				"x": 0.8531142694,
				"y": -0.0986628607,
				"z": -1.0962310501,
				"element": "C" 
			},
			{
				"x": 1.3618819856,
				"y": -1.5405259401,
				"z": -1.0565186516,
				"element": "C" 
			},
			{
				"x": 2.6520909389,
				"y": -1.6516744666,
				"z": -0.4932745235,
				"element": "O" 
			},
			{
				"x": 0.5945224742,
				"y": 0.3851452018,
				"z": 0.2572136481,
				"element": "O" 
			},
			{
				"x": 1.5773137956,
				"y": 1.0829691547,
				"z": 0.913596142,
				"element": "C" 
			},
			{
				"x": 2.3079939293,
				"y": 0.4753154732,
				"z": 1.9431004294,
				"element": "C" 
			},
			{
				"x": 2.1470752109,
				"y": -0.8719258464,
				"z": 2.2084565239,
				"element": "O" 
			},
			{
				"x": 0.9090902268,
				"y": -1.2325599473,
				"z": 2.8451265998,
				"element": "C" 
			},
			{
				"x": 3.262009354,
				"y": 1.1923721183,
				"z": 2.668754674,
				"element": "C" 
			},
			{
				"x": 3.4898049661,
				"y": 2.5304697302,
				"z": 2.3644184985,
				"element": "C" 
			},
			{
				"x": 2.7644392073,
				"y": 3.1658351397,
				"z": 1.3527249003,
				"element": "C" 
			},
			{
				"x": 1.8057731465,
				"y": 2.4474855261,
				"z": 0.6341900277,
				"element": "C" 
			},
			{
				"x": 1.0291870114,
				"y": 2.9774753089,
				"z": -0.3608765671,
				"element": "O" 
			},
			{
				"x": 1.285585392,
				"y": 4.3059291506,
				"z": -0.8015222936,
				"element": "C" 
			},
			{
				"x": -5.1885022092,
				"y": -4.2849343502,
				"z": -1.7627947076,
				"element": "H" 
			},
			{
				"x": -4.5671902177,
				"y": -3.6378551006,
				"z": -3.3101524316,
				"element": "H" 
			},
			{
				"x": -4.2852496973,
				"y": -5.3465142546,
				"z": -2.8803710707,
				"element": "H" 
			},
			{
				"x": -1.2807562729,
				"y": -2.4308275579,
				"z": -2.6560253456,
				"element": "H" 
			},
			{
				"x": -2.2843495149,
				"y": 0.8088963632,
				"z": -0.0127794184,
				"element": "H" 
			},
			{
				"x": -5.0661166626,
				"y": 0.8371497494,
				"z": 2.381827831,
				"element": "H" 
			},
			{
				"x": -3.2975275877,
				"y": 0.8561676671,
				"z": 2.135402633,
				"element": "H" 
			},
			{
				"x": -4.3828383443,
				"y": 1.5033435551,
				"z": 0.8722504692,
				"element": "H" 
			},
			{
				"x": -5.2241061362,
				"y": -2.4352755161,
				"z": 0.8164992585,
				"element": "H" 
			},
			{
				"x": -0.2386172064,
				"y": -0.258772824,
				"z": -2.9152286518,
				"element": "H" 
			},
			{
				"x": -0.3478738454,
				"y": 1.9224905337,
				"z": -1.2428777942,
				"element": "H" 
			},
			{
				"x": 1.6255616682,
				"y": 0.5350733794,
				"z": -1.5472457376,
				"element": "H" 
			},
			{
				"x": 0.6261264904,
				"y": -2.1689959888,
				"z": -0.5368869265,
				"element": "H" 
			},
			{
				"x": 1.431724146,
				"y": -1.9059932058,
				"z": -2.08873475,
				"element": "H" 
			},
			{
				"x": 2.5563077935,
				"y": -1.5803754195,
				"z": 0.4710637788,
				"element": "H" 
			},
			{
				"x": 0.0538342465,
				"y": -0.9790269299,
				"z": 2.2136363419,
				"element": "H" 
			},
			{
				"x": 0.9513498288,
				"y": -2.3122324745,
				"z": 2.9992468246,
				"element": "H" 
			},
			{
				"x": 0.8233924711,
				"y": -0.7291896905,
				"z": 3.8151632399,
				"element": "H" 
			},
			{
				"x": 3.8181131155,
				"y": 0.6790336464,
				"z": 3.4455394364,
				"element": "H" 
			},
			{
				"x": 4.2344224954,
				"y": 3.0931260139,
				"z": 2.9187448232,
				"element": "H" 
			},
			{
				"x": 2.9450221644,
				"y": 4.2116382431,
				"z": 1.1356733548,
				"element": "H" 
			},
			{
				"x": 1.0807157496,
				"y": 5.0361945637,
				"z": -0.0094764113,
				"element": "H" 
			},
			{
				"x": 0.6072050696,
				"y": 4.4755576768,
				"z": -1.6383164058,
				"element": "H" 
			},
			{
				"x": 2.3215153923,
				"y": 4.4177987285,
				"z": -1.1419076113,
				"element": "H" 
			}
		],
		 "valence_orbital": [ 
			{
				"type": "occ",
				"energy": -0.25046,
				"method": "rhf"
			},
			{
				"type": "occ",
				"energy": -0.2391,
				"method": "rhf"
			},
			{
				"type": "occ",
				"energy": -0.22667,
				"method": "rhf"
			},
			{
				"type": "occ",
				"energy": -0.21504,
				"method": "rhf"
			},
			{
				"type": "occ",
				"energy": -0.1975,
				"method": "rhf"
			},
			{
				"type": "unocc",
				"energy": -0.0086,
				"method": "rhf"
			},
			{
				"type": "unocc",
				"energy": 0.00135,
				"method": "rhf"
			},
			{
				"type": "unocc",
				"energy": 0.01705,
				"method": "rhf"
			},
			{
				"type": "unocc",
				"energy": 0.01968,
				"method": "rhf"
			},
			{
				"type": "unocc",
				"energy": 0.06001,
				"method": "rhf"
			}
		],
		"cosmo_sigma_profile": { 
			"-0.025": 0.0,
			"-0.024": 0.0,
			"-0.023": 0.0,
			"-0.022": 0.0,
			"-0.021": 0.0,
			"-0.02": 0.0,
			"-0.019": 0.0,
			"-0.018": 0.0,
			"-0.017": 0.0,
			"-0.016": 0.0,
			"-0.015": 0.0,
			"-0.014": 0.413608996701,
			"-0.013": 0.553553065852,
			"-0.012": 0.395453975928,
			"-0.011": 0.618181024724,
			"-0.01": 0.78039333276,
			"-0.009": 0.68574907995,
			"-0.008": 0.105671142431,
			"-0.007": 3.74280389434,
			"-0.006": 23.9003441571,
			"-0.005": 43.136167959,
			"-0.004": 42.8854101844,
			"-0.003": 46.0715541139,
			"-0.002": 35.9064140858,
			"-0.001": 24.728092224,
			"0.0": 22.4034066507,
			"0.001": 21.1736159949,
			"0.002": 25.247021237,
			"0.003": 26.3192804702,
			"0.004": 25.5398807265,
			"0.005": 16.7348994782,
			"0.006": 11.0521638662,
			"0.007": 5.61549246617,
			"0.008": 7.21839661764,
			"0.009": 5.61505013562,
			"0.01": 4.58475785512,
			"0.011": 4.6975716495,
			"0.012": 4.15536511517,
			"0.013": 3.03500713176,
			"0.014": 3.71958357817,
			"0.015": 2.4717211103,
			"0.016": 0.0,
			"0.017": 0.0,
			"0.018": 0.0,
			"0.019": 0.0,
			"0.02": 0.0,
			"0.021": 0.0,
			"0.022": 0.0,
			"0.023": 0.0,
			"0.024": 0.0,
			"0.025": 0.0
		}
	}
}
