{
	 "smiles": "COC1=CC=C(CCl)C=C1", 
	 "Tm": 297.65, 
	 "num_atms": 19, 
	 "gaussian": { 
		 "optdone": 1, 
		 "sigma_profile": "yes", 
		 "theory": "DFT", 
		 "functional": "B3LYP", 
		 "basiset": "6-31G**", 
		 "properties": { 
			 "R2extent": 2896.0202, 
			 "electric_dipole_moment_norm": 3.34871628389, 
			 "electric_quadrupole_moment_norm": 13.1706584748, 
			 "total_energy": -845.685806873, 
			 "HOMO_LUMO_gap": 0.20508, 
			 "cosmo_polarized_energy": -8.21, 
			 "cosmo_cavitation_energy": 24.47, 
			 "cosmo_dispersion_energy": -18.07, 
			 "cosmo_repulsion_energy": 1.48, 
			 "cosmo_total_nonelectrostatic_energy": 7.87, 
			 "SMD_solvation_energy": 4.62 
		},
		"coords": [
			{
				"x": 1.5117058757,
				"y": -3.6936253594,
				"z": 0.2355404118,
				"element": "C" 
			},
			{
				"x": 1.1964285522,
				"y": -2.7607343832,
				"z": 1.2580608727,
				"element": "O" 
			},
			{
				"x": 1.0634028527,
				"y": -1.448214569,
				"z": 0.9181836926,
				"element": "C" 
			},
			{
				"x": 1.2024240532,
				"y": -0.9430863538,
				"z": -0.380667832,
				"element": "C" 
			},
			{
				"x": 1.040286042,
				"y": 0.4249308047,
				"z": -0.6066221477,
				"element": "C" 
			},
			{
				"x": 0.738714393,
				"y": 1.3067209993,
				"z": 0.4348295034,
				"element": "C" 
			},
			{
				"x": 0.5645993126,
				"y": 2.7684889963,
				"z": 0.1768632219,
				"element": "C" 
			},
			{
				"x": 2.1312508131,
				"y": 3.7265221378,
				"z": 0.3825391961,
				"element": "Cl" 
			},
			{
				"x": 0.6038751669,
				"y": 0.7822284186,
				"z": 1.7311831612,
				"element": "C" 
			},
			{
				"x": 0.7614335372,
				"y": -0.5739212718,
				"z": 1.9748259525,
				"element": "C" 
			},
			{
				"x": 2.4743049808,
				"y": -3.4639117376,
				"z": -0.2387685413,
				"element": "H" 
			},
			{
				"x": 0.7309801126,
				"y": -3.7287982431,
				"z": -0.5350839736,
				"element": "H" 
			},
			{
				"x": 1.5759996186,
				"y": -4.666343226,
				"z": 0.7252461762,
				"element": "H" 
			},
			{
				"x": 1.4322977371,
				"y": -1.5968771394,
				"z": -1.2133456588,
				"element": "H" 
			},
			{
				"x": 1.1539419103,
				"y": 0.808864274,
				"z": -1.6173179331,
				"element": "H" 
			},
			{
				"x": -0.1356742592,
				"y": 3.230274391,
				"z": 0.8729923028,
				"element": "H" 
			},
			{
				"x": 0.2455753408,
				"y": 2.9713231362,
				"z": -0.8454015291,
				"element": "H" 
			},
			{
				"x": 0.374637056,
				"y": 1.4494122181,
				"z": 2.5581181698,
				"element": "H" 
			},
			{
				"x": 0.6552169044,
				"y": -0.9857530928,
				"z": 2.9729249546,
				"element": "H" 
			}
		],
		 "valence_orbital": [ 
			{
				"type": "occ",
				"energy": -0.32155,
				"method": "rhf"
			},
			{
				"type": "occ",
				"energy": -0.28779,
				"method": "rhf"
			},
			{
				"type": "occ",
				"energy": -0.28648,
				"method": "rhf"
			},
			{
				"type": "occ",
				"energy": -0.25773,
				"method": "rhf"
			},
			{
				"type": "occ",
				"energy": -0.22381,
				"method": "rhf"
			},
			{
				"type": "unocc",
				"energy": -0.01873,
				"method": "rhf"
			},
			{
				"type": "unocc",
				"energy": -0.00792,
				"method": "rhf"
			},
			{
				"type": "unocc",
				"energy": 0.05067,
				"method": "rhf"
			},
			{
				"type": "unocc",
				"energy": 0.08485,
				"method": "rhf"
			},
			{
				"type": "unocc",
				"energy": 0.09889,
				"method": "rhf"
			}
		],
		"cosmo_sigma_profile": { 
			"-0.025": 0.0,
			"-0.024": 0.0,
			"-0.023": 0.0,
			"-0.022": 0.0,
			"-0.021": 0.0,
			"-0.02": 0.0,
			"-0.019": 0.0,
			"-0.018": 0.0,
			"-0.017": 0.0,
			"-0.016": 0.0,
			"-0.015": 0.0,
			"-0.014": 0.0,
			"-0.013": 0.0,
			"-0.012": 0.0,
			"-0.011": 0.0,
			"-0.01": 0.0,
			"-0.009": 0.0,
			"-0.008": 0.532972789963,
			"-0.007": 7.31742300197,
			"-0.006": 16.1484070587,
			"-0.005": 19.9153634764,
			"-0.004": 18.5926184774,
			"-0.003": 16.7168725581,
			"-0.002": 10.854175411,
			"-0.001": 7.22711324113,
			"0.0": 8.52596837776,
			"0.001": 9.22042898161,
			"0.002": 10.0195266065,
			"0.003": 12.9242547005,
			"0.004": 14.7185988314,
			"0.005": 16.1693545689,
			"0.006": 10.1964827122,
			"0.007": 11.5576881133,
			"0.008": 2.93689680145,
			"0.009": 1.49009777633,
			"0.01": 1.38344317043,
			"0.011": 0.191277885973,
			"0.012": 0.0,
			"0.013": 0.0,
			"0.014": 0.0,
			"0.015": 0.0,
			"0.016": 0.0,
			"0.017": 0.0,
			"0.018": 0.0,
			"0.019": 0.0,
			"0.02": 0.0,
			"0.021": 0.0,
			"0.022": 0.0,
			"0.023": 0.0,
			"0.024": 0.0,
			"0.025": 0.0
		}
	}
}
