{
	 "smiles": "BrC1=CC2=C(SCCC2=O)C=C1", 
	 "Tm": 323.15, 
	 "num_atms": 19, 
	 "gaussian": { 
		 "optdone": 1, 
		 "sigma_profile": "yes", 
		 "theory": "DFT", 
		 "functional": "B3LYP", 
		 "basiset": "6-31G**", 
		 "properties": { 
			 "R2extent": 4332.5482, 
			 "electric_dipole_moment_norm": 3.0402703712, 
			 "electric_quadrupole_moment_norm": 9.47075754045, 
			 "total_energy": -3391.99670155, 
			 "HOMO_LUMO_gap": 0.15499, 
			 "cosmo_polarized_energy": -8.81, 
			 "cosmo_cavitation_energy": 26.34, 
			 "cosmo_dispersion_energy": -20.64, 
			 "cosmo_repulsion_energy": 1.58, 
			 "cosmo_total_nonelectrostatic_energy": 7.28, 
			 "SMD_solvation_energy": 3.09 
		},
		"coords": [
			{
				"x": 0.12957005,
				"y": 2.0223333391,
				"z": 3.9235699807,
				"element": "Br" 
			},
			{
				"x": 0.377909747,
				"y": 1.1245113738,
				"z": 2.2564320959,
				"element": "C" 
			},
			{
				"x": -0.4753735073,
				"y": 1.3808982648,
				"z": 1.1974584744,
				"element": "C" 
			},
			{
				"x": -0.2969075774,
				"y": 0.7285052645,
				"z": -0.0358798833,
				"element": "C" 
			},
			{
				"x": 0.7476799283,
				"y": -0.2115342617,
				"z": -0.1778036464,
				"element": "C" 
			},
			{
				"x": 1.0749759806,
				"y": -1.1123020435,
				"z": -1.6721360373,
				"element": "S" 
			},
			{
				"x": -0.5474151777,
				"y": -0.9282064584,
				"z": -2.5013380316,
				"element": "C" 
			},
			{
				"x": -1.0069407051,
				"y": 0.5259994975,
				"z": -2.5256997136,
				"element": "C" 
			},
			{
				"x": -1.2269386544,
				"y": 1.1209478712,
				"z": -1.1411103301,
				"element": "C" 
			},
			{
				"x": -2.121832382,
				"y": 1.9307334746,
				"z": -0.9542032435,
				"element": "O" 
			},
			{
				"x": 1.6020537794,
				"y": -0.45342834,
				"z": 0.9107112467,
				"element": "C" 
			},
			{
				"x": 1.427784045,
				"y": 0.2105719215,
				"z": 2.1183841606,
				"element": "C" 
			},
			{
				"x": -1.2881951654,
				"y": 2.0927692259,
				"z": 1.279666337,
				"element": "H" 
			},
			{
				"x": -1.2770013792,
				"y": -1.5676813671,
				"z": -1.9940528185,
				"element": "H" 
			},
			{
				"x": -0.4041054267,
				"y": -1.3156062794,
				"z": -3.5130803414,
				"element": "H" 
			},
			{
				"x": -1.9466222972,
				"y": 0.6336941071,
				"z": -3.0758461601,
				"element": "H" 
			},
			{
				"x": -0.2534940604,
				"y": 1.1413420321,
				"z": -3.0367995282,
				"element": "H" 
			},
			{
				"x": 2.4015744033,
				"y": -1.1816543544,
				"z": 0.8125812084,
				"element": "H" 
			},
			{
				"x": 2.0918783993,
				"y": 0.0121067325,
				"z": 2.9521462304,
				"element": "H" 
			}
		],
		 "valence_orbital": [ 
			{
				"type": "occ",
				"energy": -0.29178,
				"method": "rhf"
			},
			{
				"type": "occ",
				"energy": -0.27833,
				"method": "rhf"
			},
			{
				"type": "occ",
				"energy": -0.27497,
				"method": "rhf"
			},
			{
				"type": "occ",
				"energy": -0.25862,
				"method": "rhf"
			},
			{
				"type": "occ",
				"energy": -0.2259,
				"method": "rhf"
			},
			{
				"type": "unocc",
				"energy": -0.07091,
				"method": "rhf"
			},
			{
				"type": "unocc",
				"energy": -0.02612,
				"method": "rhf"
			},
			{
				"type": "unocc",
				"energy": 0.00116,
				"method": "rhf"
			},
			{
				"type": "unocc",
				"energy": 0.01325,
				"method": "rhf"
			},
			{
				"type": "unocc",
				"energy": 0.03012,
				"method": "rhf"
			}
		],
		"cosmo_sigma_profile": { 
			"-0.025": 0.0,
			"-0.024": 0.0,
			"-0.023": 0.0,
			"-0.022": 0.0,
			"-0.021": 0.0,
			"-0.02": 0.0,
			"-0.019": 0.0,
			"-0.018": 0.0,
			"-0.017": 0.0,
			"-0.016": 0.0,
			"-0.015": 0.0,
			"-0.014": 0.0,
			"-0.013": 0.0,
			"-0.012": 0.0,
			"-0.011": 0.0,
			"-0.01": 0.0,
			"-0.009": 0.0185509450988,
			"-0.008": 3.19890647909,
			"-0.007": 10.3616851368,
			"-0.006": 14.7697279003,
			"-0.005": 16.0366979309,
			"-0.004": 15.50355603,
			"-0.003": 14.7285125443,
			"-0.002": 10.7031054599,
			"-0.001": 11.1360232635,
			"0.0": 15.5753830182,
			"0.001": 22.5931388356,
			"0.002": 22.8564511007,
			"0.003": 13.4748928988,
			"0.004": 15.6546066067,
			"0.005": 8.22664755043,
			"0.006": 4.33250704508,
			"0.007": 2.99456902004,
			"0.008": 2.98133096224,
			"0.009": 1.46453705289,
			"0.01": 2.18532656098,
			"0.011": 3.88875455163,
			"0.012": 2.64969762059,
			"0.013": 0.764116051245,
			"0.014": 0.0,
			"0.015": 0.0,
			"0.016": 0.0,
			"0.017": 0.0,
			"0.018": 0.0,
			"0.019": 0.0,
			"0.02": 0.0,
			"0.021": 0.0,
			"0.022": 0.0,
			"0.023": 0.0,
			"0.024": 0.0,
			"0.025": 0.0
		}
	}
}
