{
	 "smiles": "CNC(=O)CN1CCC2=C1C=C(N)C=C2", 
	 "Tm": 417.15, 
	 "num_atms": 30, 
	 "gaussian": { 
		 "optdone": 1, 
		 "sigma_profile": "yes", 
		 "theory": "DFT", 
		 "functional": "B3LYP", 
		 "basiset": "6-31G**", 
		 "properties": { 
			 "R2extent": 3700.327, 
			 "electric_dipole_moment_norm": 4.25101099622, 
			 "electric_quadrupole_moment_norm": 17.0394714173, 
			 "total_energy": -667.698730817, 
			 "HOMO_LUMO_gap": 0.19151, 
			 "cosmo_polarized_energy": -17.29, 
			 "cosmo_cavitation_energy": 32.47, 
			 "cosmo_dispersion_energy": -22.94, 
			 "cosmo_repulsion_energy": 1.81, 
			 "cosmo_total_nonelectrostatic_energy": 11.35, 
			 "SMD_solvation_energy": 5.27 
		},
		"coords": [
			{
				"x": -2.3904468892,
				"y": 1.2392694927,
				"z": -2.2149770216,
				"element": "C" 
			},
			{
				"x": -2.5985656796,
				"y": 2.4011086132,
				"z": -1.3653883563,
				"element": "N" 
			},
			{
				"x": -1.8439818494,
				"y": 2.8389278105,
				"z": -0.3122676482,
				"element": "C" 
			},
			{
				"x": -2.1783081438,
				"y": 3.8108925483,
				"z": 0.3551723996,
				"element": "O" 
			},
			{
				"x": -0.5461776147,
				"y": 2.0771024717,
				"z": -0.0121921114,
				"element": "C" 
			},
			{
				"x": -0.7938126834,
				"y": 0.6936644548,
				"z": 0.3487451154,
				"element": "N" 
			},
			{
				"x": -1.5320701319,
				"y": 0.4589978621,
				"z": 1.606686358,
				"element": "C" 
			},
			{
				"x": -1.3409093057,
				"y": -1.0490242352,
				"z": 1.8777243126,
				"element": "C" 
			},
			{
				"x": -0.0400627158,
				"y": -1.3318325354,
				"z": 1.1584037435,
				"element": "C" 
			},
			{
				"x": 0.2264157156,
				"y": -0.2701778663,
				"z": 0.2738690841,
				"element": "C" 
			},
			{
				"x": 1.3511356559,
				"y": -0.2769167517,
				"z": -0.5482183377,
				"element": "C" 
			},
			{
				"x": 2.2271089016,
				"y": -1.3799370533,
				"z": -0.4921876376,
				"element": "C" 
			},
			{
				"x": 3.3966809313,
				"y": -1.375804305,
				"z": -1.261579358,
				"element": "N" 
			},
			{
				"x": 1.9577032417,
				"y": -2.4441029895,
				"z": 0.3841320428,
				"element": "C" 
			},
			{
				"x": 0.8239686204,
				"y": -2.4142931972,
				"z": 1.2042926558,
				"element": "C" 
			},
			{
				"x": -2.8863984515,
				"y": 1.4136937437,
				"z": -3.1739509135,
				"element": "H" 
			},
			{
				"x": -1.327625807,
				"y": 1.0864973786,
				"z": -2.4124877619,
				"element": "H" 
			},
			{
				"x": -2.7832078039,
				"y": 0.3155055784,
				"z": -1.7751393573,
				"element": "H" 
			},
			{
				"x": -3.4609532484,
				"y": 2.9187817368,
				"z": -1.4705028764,
				"element": "H" 
			},
			{
				"x": 0.09675401,
				"y": 2.1042890574,
				"z": -0.8981305584,
				"element": "H" 
			},
			{
				"x": -0.0438758491,
				"y": 2.6405186621,
				"z": 0.7883677047,
				"element": "H" 
			},
			{
				"x": -2.5797790267,
				"y": 0.7548863668,
				"z": 1.5029342742,
				"element": "H" 
			},
			{
				"x": -1.0907046594,
				"y": 1.0597430968,
				"z": 2.4195824958,
				"element": "H" 
			},
			{
				"x": -2.168298025,
				"y": -1.62707393,
				"z": 1.4427113268,
				"element": "H" 
			},
			{
				"x": -1.315877228,
				"y": -1.2718772687,
				"z": 2.9486713886,
				"element": "H" 
			},
			{
				"x": 1.5800384404,
				"y": 0.5524318615,
				"z": -1.2115357369,
				"element": "H" 
			},
			{
				"x": 3.3458763589,
				"y": -0.8277478449,
				"z": -2.1096484642,
				"element": "H" 
			},
			{
				"x": 3.7880684589,
				"y": -2.2913470482,
				"z": -1.4364521058,
				"element": "H" 
			},
			{
				"x": 2.6435664511,
				"y": -3.2856067248,
				"z": 0.4311560706,
				"element": "H" 
			},
			{
				"x": 0.6306383267,
				"y": -3.2438689851,
				"z": 1.8802092729,
				"element": "H" 
			}
		],
		 "valence_orbital": [ 
			{
				"type": "occ",
				"energy": -0.26743,
				"method": "rhf"
			},
			{
				"type": "occ",
				"energy": -0.24649,
				"method": "rhf"
			},
			{
				"type": "occ",
				"energy": -0.24216,
				"method": "rhf"
			},
			{
				"type": "occ",
				"energy": -0.20913,
				"method": "rhf"
			},
			{
				"type": "occ",
				"energy": -0.1797,
				"method": "rhf"
			},
			{
				"type": "unocc",
				"energy": 0.01181,
				"method": "rhf"
			},
			{
				"type": "unocc",
				"energy": 0.02465,
				"method": "rhf"
			},
			{
				"type": "unocc",
				"energy": 0.02932,
				"method": "rhf"
			},
			{
				"type": "unocc",
				"energy": 0.08034,
				"method": "rhf"
			},
			{
				"type": "unocc",
				"energy": 0.08492,
				"method": "rhf"
			}
		],
		"cosmo_sigma_profile": { 
			"-0.025": 0.0,
			"-0.024": 0.0,
			"-0.023": 0.0,
			"-0.022": 0.0,
			"-0.021": 0.0,
			"-0.02": 0.0,
			"-0.019": 0.0,
			"-0.018": 0.0,
			"-0.017": 0.0,
			"-0.016": 0.0,
			"-0.015": 0.0,
			"-0.014": 0.141221814586,
			"-0.013": 1.21019446315,
			"-0.012": 2.25461217828,
			"-0.011": 3.46261604636,
			"-0.01": 3.95427980776,
			"-0.009": 3.84790610556,
			"-0.008": 5.55857180424,
			"-0.007": 8.06147721251,
			"-0.006": 8.13585863014,
			"-0.005": 11.5260466334,
			"-0.004": 18.236010417,
			"-0.003": 28.3530331657,
			"-0.002": 27.9031366441,
			"-0.001": 22.6897541302,
			"0.0": 14.5867226192,
			"0.001": 10.9096110076,
			"0.002": 9.48299493813,
			"0.003": 8.96208791551,
			"0.004": 7.91911335246,
			"0.005": 8.7713328951,
			"0.006": 9.18821293944,
			"0.007": 9.98117593212,
			"0.008": 7.98538829969,
			"0.009": 2.13286742727,
			"0.01": 2.0796370859,
			"0.011": 1.39009775689,
			"0.012": 2.64412271807,
			"0.013": 3.6057348923,
			"0.014": 6.52498516675,
			"0.015": 3.14773230416,
			"0.016": 0.207314599512,
			"0.017": 0.0,
			"0.018": 0.0,
			"0.019": 0.0,
			"0.02": 0.0,
			"0.021": 0.0,
			"0.022": 0.0,
			"0.023": 0.0,
			"0.024": 0.0,
			"0.025": 0.0
		}
	}
}
