{
	 "smiles": "OC(=O)C(N1CCCCC1=O)C1=CC=CC=C1", 
	 "Tm": 422.15, 
	 "num_atms": 32, 
	 "gaussian": { 
		 "optdone": 1, 
		 "sigma_profile": "yes", 
		 "theory": "DFT", 
		 "functional": "B3LYP", 
		 "basiset": "6-31G**", 
		 "properties": { 
			 "R2extent": 4610.651, 
			 "electric_dipole_moment_norm": 5.71060788533, 
			 "electric_quadrupole_moment_norm": 20.178470447, 
			 "total_energy": -784.882118338, 
			 "HOMO_LUMO_gap": 0.22941, 
			 "cosmo_polarized_energy": -13.83, 
			 "cosmo_cavitation_energy": 33.53, 
			 "cosmo_dispersion_energy": -23.96, 
			 "cosmo_repulsion_energy": 1.86, 
			 "cosmo_total_nonelectrostatic_energy": 11.43, 
			 "SMD_solvation_energy": 6.23 
		},
		"coords": [
			{
				"x": -3.5816181202,
				"y": -2.0195995614,
				"z": 0.7644180144,
				"element": "O" 
			},
			{
				"x": -2.9699983403,
				"y": -0.8381813267,
				"z": 0.9315577715,
				"element": "C" 
			},
			{
				"x": -3.2316066098,
				"y": -0.1196028701,
				"z": 1.8698306723,
				"element": "O" 
			},
			{
				"x": -1.9025515623,
				"y": -0.5496445588,
				"z": -0.1546706086,
				"element": "C" 
			},
			{
				"x": -0.7339194542,
				"y": -1.4472982272,
				"z": 0.0842572668,
				"element": "N" 
			},
			{
				"x": 0.2864893382,
				"y": -1.0236414032,
				"z": 1.0627318665,
				"element": "C" 
			},
			{
				"x": 1.5965775142,
				"y": -1.7889986701,
				"z": 0.8973130815,
				"element": "C" 
			},
			{
				"x": 1.3357517207,
				"y": -3.2950842038,
				"z": 0.8664312257,
				"element": "C" 
			},
			{
				"x": 0.395367778,
				"y": -3.6256700821,
				"z": -0.2964997187,
				"element": "C" 
			},
			{
				"x": -0.8224656015,
				"y": -2.720260679,
				"z": -0.4022676298,
				"element": "C" 
			},
			{
				"x": -1.8484842066,
				"y": -3.127603119,
				"z": -0.973347521,
				"element": "O" 
			},
			{
				"x": -1.4788575705,
				"y": 0.8938113832,
				"z": -0.3755955503,
				"element": "C" 
			},
			{
				"x": -1.5441439964,
				"y": 1.8982062952,
				"z": 0.6003001534,
				"element": "C" 
			},
			{
				"x": -1.115096426,
				"y": 3.1945360616,
				"z": 0.303472389,
				"element": "C" 
			},
			{
				"x": -0.612472814,
				"y": 3.5055576591,
				"z": -0.9597602966,
				"element": "C" 
			},
			{
				"x": -0.542390157,
				"y": 2.5106683492,
				"z": -1.9375557558,
				"element": "C" 
			},
			{
				"x": -0.9746181791,
				"y": 1.2185923411,
				"z": -1.6452890748,
				"element": "C" 
			},
			{
				"x": -3.1700492289,
				"y": -2.5086272106,
				"z": 0.009365382,
				"element": "H" 
			},
			{
				"x": -2.325439421,
				"y": -0.9109374305,
				"z": -1.0958762129,
				"element": "H" 
			},
			{
				"x": 0.4511132051,
				"y": 0.0467143059,
				"z": 0.9278996573,
				"element": "H" 
			},
			{
				"x": -0.1112487154,
				"y": -1.1647516186,
				"z": 2.0780087193,
				"element": "H" 
			},
			{
				"x": 2.2636294447,
				"y": -1.5174672752,
				"z": 1.7223143165,
				"element": "H" 
			},
			{
				"x": 2.0882967232,
				"y": -1.4764175562,
				"z": -0.0326250321,
				"element": "H" 
			},
			{
				"x": 2.2699020909,
				"y": -3.8571537874,
				"z": 0.7652288545,
				"element": "H" 
			},
			{
				"x": 0.8793192297,
				"y": -3.6080821946,
				"z": 1.8142906306,
				"element": "H" 
			},
			{
				"x": 0.929916573,
				"y": -3.5303235467,
				"z": -1.251673173,
				"element": "H" 
			},
			{
				"x": 0.0196474623,
				"y": -4.6506318559,
				"z": -0.2523371525,
				"element": "H" 
			},
			{
				"x": -1.9521895731,
				"y": 1.6636204693,
				"z": 1.5748041381,
				"element": "H" 
			},
			{
				"x": -1.1785179989,
				"y": 3.9640517322,
				"z": 1.0676361266,
				"element": "H" 
			},
			{
				"x": -0.2822210149,
				"y": 4.5158515803,
				"z": -1.1840266664,
				"element": "H" 
			},
			{
				"x": -0.1600601572,
				"y": 2.7419046715,
				"z": -2.9276512868,
				"element": "H" 
			},
			{
				"x": -0.9235619328,
				"y": 0.4486623285,
				"z": -2.4116845867,
				"element": "H" 
			}
		],
		 "valence_orbital": [ 
			{
				"type": "occ",
				"energy": -0.28475,
				"method": "rhf"
			},
			{
				"type": "occ",
				"energy": -0.27353,
				"method": "rhf"
			},
			{
				"type": "occ",
				"energy": -0.25541,
				"method": "rhf"
			},
			{
				"type": "occ",
				"energy": -0.25391,
				"method": "rhf"
			},
			{
				"type": "occ",
				"energy": -0.24841,
				"method": "rhf"
			},
			{
				"type": "unocc",
				"energy": -0.019,
				"method": "rhf"
			},
			{
				"type": "unocc",
				"energy": -0.01242,
				"method": "rhf"
			},
			{
				"type": "unocc",
				"energy": -0.00209,
				"method": "rhf"
			},
			{
				"type": "unocc",
				"energy": 0.01774,
				"method": "rhf"
			},
			{
				"type": "unocc",
				"energy": 0.07987,
				"method": "rhf"
			}
		],
		"cosmo_sigma_profile": { 
			"-0.025": 0.0,
			"-0.024": 0.0,
			"-0.023": 0.0,
			"-0.022": 0.0,
			"-0.021": 0.0,
			"-0.02": 0.0,
			"-0.019": 0.0,
			"-0.018": 0.0,
			"-0.017": 0.0,
			"-0.016": 0.0,
			"-0.015": 0.0,
			"-0.014": 0.0,
			"-0.013": 0.0,
			"-0.012": 0.0,
			"-0.011": 0.0,
			"-0.01": 0.000625037947932,
			"-0.009": 0.581440604991,
			"-0.008": 1.34542693116,
			"-0.007": 2.94247149192,
			"-0.006": 12.7054202522,
			"-0.005": 22.001872666,
			"-0.004": 34.0519614805,
			"-0.003": 32.6314810667,
			"-0.002": 28.7889268756,
			"-0.001": 21.2102862498,
			"0.0": 14.6922694237,
			"0.001": 9.74975381257,
			"0.002": 12.2534854162,
			"0.003": 10.8708839391,
			"0.004": 11.508173499,
			"0.005": 12.0720157168,
			"0.006": 5.10965291702,
			"0.007": 3.66414933093,
			"0.008": 3.77346970792,
			"0.009": 3.91847786549,
			"0.01": 5.73998208643,
			"0.011": 6.98296883213,
			"0.012": 4.78632974111,
			"0.013": 2.95056499231,
			"0.014": 0.682057882436,
			"0.015": 0.0,
			"0.016": 0.0,
			"0.017": 0.0,
			"0.018": 0.0,
			"0.019": 0.0,
			"0.02": 0.0,
			"0.021": 0.0,
			"0.022": 0.0,
			"0.023": 0.0,
			"0.024": 0.0,
			"0.025": 0.0
		}
	}
}
