{
	 "smiles": "COC1=C(C=CC=C1)C1=NN(C)C=C1C(O)=O", 
	 "Tm": 477.15, 
	 "num_atms": 29, 
	 "gaussian": { 
		 "optdone": 1, 
		 "sigma_profile": "yes", 
		 "theory": "DFT", 
		 "functional": "B3LYP", 
		 "basiset": "6-31G**", 
		 "properties": { 
			 "R2extent": 3952.5021, 
			 "electric_dipole_moment_norm": 3.68528004363, 
			 "electric_quadrupole_moment_norm": 28.351964545, 
			 "total_energy": -799.66676288, 
			 "HOMO_LUMO_gap": 0.19782, 
			 "cosmo_polarized_energy": -18.18, 
			 "cosmo_cavitation_energy": 33.28, 
			 "cosmo_dispersion_energy": -23.4, 
			 "cosmo_repulsion_energy": 1.82, 
			 "cosmo_total_nonelectrostatic_energy": 11.7, 
			 "SMD_solvation_energy": 6.86 
		},
		"coords": [
			{
				"x": -1.0640675557,
				"y": 1.3897292297,
				"z": -2.9645285993,
				"element": "C" 
			},
			{
				"x": -0.5714069617,
				"y": 0.7161651151,
				"z": -1.8139467901,
				"element": "O" 
			},
			{
				"x": 0.6407041408,
				"y": 1.0760027122,
				"z": -1.3101368955,
				"element": "C" 
			},
			{
				"x": 1.0007642117,
				"y": 0.4811861824,
				"z": -0.0754110923,
				"element": "C" 
			},
			{
				"x": 2.2636126876,
				"y": 0.7638742123,
				"z": 0.4618150971,
				"element": "C" 
			},
			{
				"x": 3.1470998142,
				"y": 1.6338718561,
				"z": -0.1757673488,
				"element": "C" 
			},
			{
				"x": 2.765941354,
				"y": 2.2361655888,
				"z": -1.3737434945,
				"element": "C" 
			},
			{
				"x": 1.5210152246,
				"y": 1.9627237579,
				"z": -1.9433147865,
				"element": "C" 
			},
			{
				"x": 0.0973522199,
				"y": -0.4630954779,
				"z": 0.6203802673,
				"element": "C" 
			},
			{
				"x": 0.5618386761,
				"y": -1.6573788818,
				"z": 0.9976695683,
				"element": "N" 
			},
			{
				"x": -0.4788364711,
				"y": -2.2667622734,
				"z": 1.6155310657,
				"element": "N" 
			},
			{
				"x": -0.3068832984,
				"y": -3.6131425094,
				"z": 2.1296411136,
				"element": "C" 
			},
			{
				"x": -1.5881915125,
				"y": -1.4996608479,
				"z": 1.6360234506,
				"element": "C" 
			},
			{
				"x": -1.2679552955,
				"y": -0.3037952437,
				"z": 1.0111768424,
				"element": "C" 
			},
			{
				"x": -2.2206498622,
				"y": 0.8212388902,
				"z": 0.9129949425,
				"element": "C" 
			},
			{
				"x": -1.7090136551,
				"y": 2.0413409868,
				"z": 0.6069696165,
				"element": "O" 
			},
			{
				"x": -3.4076365621,
				"y": 0.6998065488,
				"z": 1.127232137,
				"element": "O" 
			},
			{
				"x": -0.4361672557,
				"y": 1.1978499897,
				"z": -3.8434404117,
				"element": "H" 
			},
			{
				"x": -1.1360085298,
				"y": 2.4706565928,
				"z": -2.7946430752,
				"element": "H" 
			},
			{
				"x": -2.0617334588,
				"y": 0.9860754952,
				"z": -3.139601325,
				"element": "H" 
			},
			{
				"x": 2.5381378099,
				"y": 0.2867456178,
				"z": 1.3970212565,
				"element": "H" 
			},
			{
				"x": 4.1176049499,
				"y": 1.8436272803,
				"z": 0.2622642739,
				"element": "H" 
			},
			{
				"x": 3.4385897583,
				"y": 2.9239550423,
				"z": -1.8781006956,
				"element": "H" 
			},
			{
				"x": 1.2486307268,
				"y": 2.4270849285,
				"z": -2.8833202946,
				"element": "H" 
			},
			{
				"x": -1.2245505015,
				"y": -3.918366412,
				"z": 2.6343865621,
				"element": "H" 
			},
			{
				"x": -0.093938493,
				"y": -4.3049488451,
				"z": 1.3104811683,
				"element": "H" 
			},
			{
				"x": 0.5242524431,
				"y": -3.6353131947,
				"z": 2.8384062732,
				"element": "H" 
			},
			{
				"x": -2.5159796645,
				"y": -1.8164775296,
				"z": 2.0883854731,
				"element": "H" 
			},
			{
				"x": -0.7463249392,
				"y": 1.9864411885,
				"z": 0.5011757011,
				"element": "H" 
			}
		],
		 "valence_orbital": [ 
			{
				"type": "occ",
				"energy": -0.27991,
				"method": "rhf"
			},
			{
				"type": "occ",
				"energy": -0.25752,
				"method": "rhf"
			},
			{
				"type": "occ",
				"energy": -0.25021,
				"method": "rhf"
			},
			{
				"type": "occ",
				"energy": -0.2459,
				"method": "rhf"
			},
			{
				"type": "occ",
				"energy": -0.22559,
				"method": "rhf"
			},
			{
				"type": "unocc",
				"energy": -0.02777,
				"method": "rhf"
			},
			{
				"type": "unocc",
				"energy": -0.00884,
				"method": "rhf"
			},
			{
				"type": "unocc",
				"energy": -0.00062,
				"method": "rhf"
			},
			{
				"type": "unocc",
				"energy": 0.02569,
				"method": "rhf"
			},
			{
				"type": "unocc",
				"energy": 0.08581,
				"method": "rhf"
			}
		],
		"cosmo_sigma_profile": { 
			"-0.025": 0.0,
			"-0.024": 0.0,
			"-0.023": 0.0,
			"-0.022": 0.0,
			"-0.021": 0.0,
			"-0.02": 0.0,
			"-0.019": 0.0,
			"-0.018": 0.0,
			"-0.017": 0.0,
			"-0.016": 0.0,
			"-0.015": 0.0,
			"-0.014": 0.0,
			"-0.013": 0.107924968126,
			"-0.012": 0.603359060497,
			"-0.011": 0.823109130494,
			"-0.01": 3.54357126948,
			"-0.009": 3.40128331883,
			"-0.008": 3.94305415908,
			"-0.007": 7.07321818023,
			"-0.006": 20.3791026557,
			"-0.005": 24.847538448,
			"-0.004": 27.5409687791,
			"-0.003": 22.9429241529,
			"-0.002": 13.4229344611,
			"-0.001": 12.8157026071,
			"0.0": 12.5263746333,
			"0.001": 13.7307081367,
			"0.002": 13.5524915804,
			"0.003": 14.4365707083,
			"0.004": 14.6218179674,
			"0.005": 11.466538206,
			"0.006": 5.84960572769,
			"0.007": 5.17569292139,
			"0.008": 4.4689711161,
			"0.009": 5.01725001339,
			"0.01": 4.40754248423,
			"0.011": 6.01354821517,
			"0.012": 7.06367800456,
			"0.013": 4.12647977306,
			"0.014": 1.48306350644,
			"0.015": 0.398509060207,
			"0.016": 0.0,
			"0.017": 0.0,
			"0.018": 0.0,
			"0.019": 0.0,
			"0.02": 0.0,
			"0.021": 0.0,
			"0.022": 0.0,
			"0.023": 0.0,
			"0.024": 0.0,
			"0.025": 0.0
		}
	}
}
