{
	 "smiles": "OC(=O)C1=CC(=CC=C1)S(=O)(=O)NCC1CCCO1", 
	 "Tm": 432.15, 
	 "num_atms": 34, 
	 "gaussian": { 
		 "optdone": 1, 
		 "sigma_profile": "yes", 
		 "theory": "DFT", 
		 "functional": "B3LYP", 
		 "basiset": "6-31G**", 
		 "properties": { 
			 "R2extent": 7669.389, 
			 "electric_dipole_moment_norm": 3.04633956249, 
			 "electric_quadrupole_moment_norm": 21.1516851679, 
			 "total_energy": -1295.31317695, 
			 "HOMO_LUMO_gap": 0.17949, 
			 "cosmo_polarized_energy": -19.8, 
			 "cosmo_cavitation_energy": 38.88, 
			 "cosmo_dispersion_energy": -28.11, 
			 "cosmo_repulsion_energy": 2.14, 
			 "cosmo_total_nonelectrostatic_energy": 12.91, 
			 "SMD_solvation_energy": 6.21 
		},
		"coords": [
			{
				"x": -4.9636110999,
				"y": 2.7674338472,
				"z": -1.3024868481,
				"element": "O" 
			},
			{
				"x": -3.7835100364,
				"y": 2.1275571388,
				"z": -1.4892097996,
				"element": "C" 
			},
			{
				"x": -3.3809372461,
				"y": 1.8130930423,
				"z": -2.5904116908,
				"element": "O" 
			},
			{
				"x": -3.0604949716,
				"y": 1.861262421,
				"z": -0.2143175875,
				"element": "C" 
			},
			{
				"x": -1.8206452501,
				"y": 1.2171140479,
				"z": -0.2947942407,
				"element": "C" 
			},
			{
				"x": -1.1196461924,
				"y": 0.9508872476,
				"z": 0.8777314355,
				"element": "C" 
			},
			{
				"x": -1.62005232,
				"y": 1.3293971054,
				"z": 2.1260219778,
				"element": "C" 
			},
			{
				"x": -2.8557105475,
				"y": 1.9740490336,
				"z": 2.1963315143,
				"element": "C" 
			},
			{
				"x": -3.5780290758,
				"y": 2.2374890604,
				"z": 1.0331494594,
				"element": "C" 
			},
			{
				"x": 0.4685669693,
				"y": 0.1112579513,
				"z": 0.7848588591,
				"element": "S" 
			},
			{
				"x": 1.1686823121,
				"y": 0.3780797173,
				"z": 2.0466666818,
				"element": "O" 
			},
			{
				"x": 1.0488923683,
				"y": 0.4375656219,
				"z": -0.5212891936,
				"element": "O" 
			},
			{
				"x": 0.0661480447,
				"y": -1.5175738734,
				"z": 0.7930133778,
				"element": "N" 
			},
			{
				"x": 0.3111370984,
				"y": -2.3896835959,
				"z": -0.3633853158,
				"element": "C" 
			},
			{
				"x": 1.6391150076,
				"y": -3.1551243918,
				"z": -0.292812631,
				"element": "C" 
			},
			{
				"x": 2.9191654244,
				"y": -2.3271696305,
				"z": -0.4919395473,
				"element": "C" 
			},
			{
				"x": 3.848565779,
				"y": -3.339774963,
				"z": -1.1772159448,
				"element": "C" 
			},
			{
				"x": 2.8637485089,
				"y": -4.1094286818,
				"z": -2.0616405237,
				"element": "C" 
			},
			{
				"x": 1.623066156,
				"y": -4.1315380413,
				"z": -1.3424432597,
				"element": "O" 
			},
			{
				"x": -5.3442333976,
				"y": 2.8876944631,
				"z": -2.1880694808,
				"element": "H" 
			},
			{
				"x": -1.4190713673,
				"y": 0.950829018,
				"z": -1.2657615411,
				"element": "H" 
			},
			{
				"x": -1.0361370228,
				"y": 1.1347622366,
				"z": 3.0189570251,
				"element": "H" 
			},
			{
				"x": -3.2516198568,
				"y": 2.2765434818,
				"z": 3.160713302,
				"element": "H" 
			},
			{
				"x": -4.5374925323,
				"y": 2.7391995039,
				"z": 1.083025185,
				"element": "H" 
			},
			{
				"x": 0.2772263247,
				"y": -1.9162127481,
				"z": 1.702549904,
				"element": "H" 
			},
			{
				"x": 0.2825424737,
				"y": -1.7771024103,
				"z": -1.2667098965,
				"element": "H" 
			},
			{
				"x": -0.5081766932,
				"y": -3.113729086,
				"z": -0.425314008,
				"element": "H" 
			},
			{
				"x": 1.6823852896,
				"y": -3.6861042057,
				"z": 0.6752594801,
				"element": "H" 
			},
			{
				"x": 3.317859102,
				"y": -1.9355956075,
				"z": 0.4474149278,
				"element": "H" 
			},
			{
				"x": 2.7201279832,
				"y": -1.4734111475,
				"z": -1.1470400316,
				"element": "H" 
			},
			{
				"x": 4.3018055882,
				"y": -4.0103457471,
				"z": -0.4382542404,
				"element": "H" 
			},
			{
				"x": 4.6548009478,
				"y": -2.8694698688,
				"z": -1.7469871637,
				"element": "H" 
			},
			{
				"x": 3.1674299837,
				"y": -5.1433094235,
				"z": -2.2582565772,
				"element": "H" 
			},
			{
				"x": 2.7220022485,
				"y": -3.605041516,
				"z": -3.0290536076,
				"element": "H" 
			}
		],
		 "valence_orbital": [ 
			{
				"type": "occ",
				"energy": -0.29421,
				"method": "rhf"
			},
			{
				"type": "occ",
				"energy": -0.28733,
				"method": "rhf"
			},
			{
				"type": "occ",
				"energy": -0.27863,
				"method": "rhf"
			},
			{
				"type": "occ",
				"energy": -0.26394,
				"method": "rhf"
			},
			{
				"type": "occ",
				"energy": -0.24395,
				"method": "rhf"
			},
			{
				"type": "unocc",
				"energy": -0.06446,
				"method": "rhf"
			},
			{
				"type": "unocc",
				"energy": -0.03993,
				"method": "rhf"
			},
			{
				"type": "unocc",
				"energy": 0.03424,
				"method": "rhf"
			},
			{
				"type": "unocc",
				"energy": 0.0523,
				"method": "rhf"
			},
			{
				"type": "unocc",
				"energy": 0.06872,
				"method": "rhf"
			}
		],
		"cosmo_sigma_profile": { 
			"-0.025": 0.0,
			"-0.024": 0.0,
			"-0.023": 0.0,
			"-0.022": 0.0,
			"-0.021": 0.0,
			"-0.02": 0.0,
			"-0.019": 0.18400768648,
			"-0.018": 1.04354120806,
			"-0.017": 1.11700080683,
			"-0.016": 0.395366453813,
			"-0.015": 1.19914820894,
			"-0.014": 1.77218447711,
			"-0.013": 1.41681932884,
			"-0.012": 1.63547354512,
			"-0.011": 2.23432414972,
			"-0.01": 1.96869668932,
			"-0.009": 1.79106313095,
			"-0.008": 3.65283406479,
			"-0.007": 8.35667288624,
			"-0.006": 9.3630908148,
			"-0.005": 12.8397922664,
			"-0.004": 22.1441253884,
			"-0.003": 33.869404968,
			"-0.002": 30.7291869371,
			"-0.001": 26.4858742573,
			"0.0": 26.2641440136,
			"0.001": 23.1899149983,
			"0.002": 14.709512059,
			"0.003": 8.65901357858,
			"0.004": 7.74370048093,
			"0.005": 7.47415893567,
			"0.006": 7.66368636017,
			"0.007": 7.4871981182,
			"0.008": 5.84095478721,
			"0.009": 7.3392373364,
			"0.01": 9.35672854585,
			"0.011": 12.53802693,
			"0.012": 4.45575368983,
			"0.013": 1.40595629232,
			"0.014": 0.940175796316,
			"0.015": 0.0055304202933,
			"0.016": 0.0,
			"0.017": 0.0,
			"0.018": 0.0,
			"0.019": 0.0,
			"0.02": 0.0,
			"0.021": 0.0,
			"0.022": 0.0,
			"0.023": 0.0,
			"0.024": 0.0,
			"0.025": 0.0
		}
	}
}
