{
	 "smiles": "CC1=NN(C(=O)C1CC1=CC=C(O)C=C1)C1=CC=CC=C1", 
	 "Tm": 483.15, 
	 "num_atms": 37, 
	 "gaussian": { 
		 "optdone": 1, 
		 "sigma_profile": "yes", 
		 "theory": "DFT", 
		 "functional": "B3LYP", 
		 "basiset": "6-31G**", 
		 "properties": { 
			 "R2extent": 9337.846, 
			 "electric_dipole_moment_norm": 3.65901841619, 
			 "electric_quadrupole_moment_norm": 16.7096388432, 
			 "total_energy": -917.393230404, 
			 "HOMO_LUMO_gap": 0.17705, 
			 "cosmo_polarized_energy": -16.3, 
			 "cosmo_cavitation_energy": 40.79, 
			 "cosmo_dispersion_energy": -28.88, 
			 "cosmo_repulsion_energy": 2.19, 
			 "cosmo_total_nonelectrostatic_energy": 14.1, 
			 "SMD_solvation_energy": 6.91 
		},
		"coords": [
			{
				"x": -1.930596766,
				"y": 1.5040040028,
				"z": 0.6970685929,
				"element": "C" 
			},
			{
				"x": -0.9627170114,
				"y": 0.4644921431,
				"z": 0.2354081531,
				"element": "C" 
			},
			{
				"x": -1.2949754719,
				"y": -0.7799105949,
				"z": 0.201703118,
				"element": "N" 
			},
			{
				"x": -0.1927863284,
				"y": -1.5313613486,
				"z": -0.2350533687,
				"element": "N" 
			},
			{
				"x": 0.9165241865,
				"y": -0.7366786863,
				"z": -0.4902733246,
				"element": "C" 
			},
			{
				"x": 2.0124675553,
				"y": -1.0858838764,
				"z": -0.898070578,
				"element": "O" 
			},
			{
				"x": 0.4660687674,
				"y": 0.6944734347,
				"z": -0.1832115299,
				"element": "C" 
			},
			{
				"x": 0.725571377,
				"y": 1.6237949173,
				"z": -1.3985887867,
				"element": "C" 
			},
			{
				"x": 0.567426632,
				"y": 3.1036050075,
				"z": -1.1206822368,
				"element": "C" 
			},
			{
				"x": -0.4346306303,
				"y": 3.8591176815,
				"z": -1.7462450708,
				"element": "C" 
			},
			{
				"x": -0.5790976803,
				"y": 5.2237844458,
				"z": -1.5068862956,
				"element": "C" 
			},
			{
				"x": 0.2919441876,
				"y": 5.8684161926,
				"z": -0.6232994843,
				"element": "C" 
			},
			{
				"x": 0.1097703481,
				"y": 7.206394538,
				"z": -0.419191386,
				"element": "O" 
			},
			{
				"x": 1.3037809383,
				"y": 5.1351019689,
				"z": 0.0073071225,
				"element": "C" 
			},
			{
				"x": 1.4348791096,
				"y": 3.7707504502,
				"z": -0.2454539134,
				"element": "C" 
			},
			{
				"x": -0.3342056383,
				"y": -2.9375306833,
				"z": -0.3601239956,
				"element": "C" 
			},
			{
				"x": -1.5637362057,
				"y": -3.5339090792,
				"z": -0.041758159,
				"element": "C" 
			},
			{
				"x": -1.7132675688,
				"y": -4.913818895,
				"z": -0.1609828415,
				"element": "C" 
			},
			{
				"x": -0.6532407182,
				"y": -5.7122429267,
				"z": -0.5938334122,
				"element": "C" 
			},
			{
				"x": 0.5657856353,
				"y": -5.1106576409,
				"z": -0.9081653069,
				"element": "C" 
			},
			{
				"x": 0.7385374472,
				"y": -3.7313625593,
				"z": -0.7964827129,
				"element": "C" 
			},
			{
				"x": -2.1003800979,
				"y": 2.2603424338,
				"z": -0.0760188041,
				"element": "H" 
			},
			{
				"x": -1.5404727441,
				"y": 2.035853651,
				"z": 1.5729437431,
				"element": "H" 
			},
			{
				"x": -2.8808060958,
				"y": 1.0345293443,
				"z": 0.9598544179,
				"element": "H" 
			},
			{
				"x": 1.0533798826,
				"y": 1.0632809552,
				"z": 0.6686522335,
				"element": "H" 
			},
			{
				"x": 1.7482042661,
				"y": 1.4027122331,
				"z": -1.7269148477,
				"element": "H" 
			},
			{
				"x": 0.0643745314,
				"y": 1.3263735587,
				"z": -2.2197302803,
				"element": "H" 
			},
			{
				"x": -1.1128350989,
				"y": 3.3718230902,
				"z": -2.4427962698,
				"element": "H" 
			},
			{
				"x": -1.3549077455,
				"y": 5.8032331312,
				"z": -1.9962697962,
				"element": "H" 
			},
			{
				"x": 0.7788574679,
				"y": 7.5281829602,
				"z": 0.1987339448,
				"element": "H" 
			},
			{
				"x": 1.9920925818,
				"y": 5.6315582078,
				"z": 0.6884523375,
				"element": "H" 
			},
			{
				"x": 2.2363557902,
				"y": 3.2216081149,
				"z": 0.2435450403,
				"element": "H" 
			},
			{
				"x": -2.3831894314,
				"y": -2.9120673154,
				"z": 0.2937796374,
				"element": "H" 
			},
			{
				"x": -2.6697427929,
				"y": -5.3647764749,
				"z": 0.0883169511,
				"element": "H" 
			},
			{
				"x": -0.7758874238,
				"y": -6.7873346625,
				"z": -0.6846370134,
				"element": "H" 
			},
			{
				"x": 1.4008460604,
				"y": -5.717597663,
				"z": -1.246673295,
				"element": "H" 
			},
			{
				"x": 1.6837086851,
				"y": -3.2675000564,
				"z": -1.0413225831,
				"element": "H" 
			}
		],
		 "valence_orbital": [ 
			{
				"type": "occ",
				"energy": -0.26161,
				"method": "rhf"
			},
			{
				"type": "occ",
				"energy": -0.254,
				"method": "rhf"
			},
			{
				"type": "occ",
				"energy": -0.24317,
				"method": "rhf"
			},
			{
				"type": "occ",
				"energy": -0.2256,
				"method": "rhf"
			},
			{
				"type": "occ",
				"energy": -0.20871,
				"method": "rhf"
			},
			{
				"type": "unocc",
				"energy": -0.03166,
				"method": "rhf"
			},
			{
				"type": "unocc",
				"energy": -0.01298,
				"method": "rhf"
			},
			{
				"type": "unocc",
				"energy": -0.00625,
				"method": "rhf"
			},
			{
				"type": "unocc",
				"energy": 0.00402,
				"method": "rhf"
			},
			{
				"type": "unocc",
				"energy": 0.00848,
				"method": "rhf"
			}
		],
		"cosmo_sigma_profile": { 
			"-0.025": 0.0,
			"-0.024": 0.0,
			"-0.023": 0.0,
			"-0.022": 0.0,
			"-0.021": 0.0,
			"-0.02": 0.0,
			"-0.019": 0.0,
			"-0.018": 0.282947752539,
			"-0.017": 1.23171806065,
			"-0.016": 1.19011277025,
			"-0.015": 0.94261475549,
			"-0.014": 0.650960651146,
			"-0.013": 1.13418250809,
			"-0.012": 0.967625266553,
			"-0.011": 0.863295608164,
			"-0.01": 1.12939671502,
			"-0.009": 1.20621836548,
			"-0.008": 3.44861251291,
			"-0.007": 6.15539889032,
			"-0.006": 15.3936507512,
			"-0.005": 26.5685981743,
			"-0.004": 26.7517427065,
			"-0.003": 26.709014889,
			"-0.002": 21.5550323286,
			"-0.001": 23.4246939268,
			"0.0": 17.2101960512,
			"0.001": 18.6917983489,
			"0.002": 20.5680306969,
			"0.003": 21.8712412931,
			"0.004": 23.8283728427,
			"0.005": 24.0572543515,
			"0.006": 12.2280667871,
			"0.007": 4.88627530109,
			"0.008": 4.23459154031,
			"0.009": 4.3623146436,
			"0.01": 3.67171981384,
			"0.011": 4.74538286747,
			"0.012": 3.93811659961,
			"0.013": 1.22561004678,
			"0.014": 0.0,
			"0.015": 0.0,
			"0.016": 0.0,
			"0.017": 0.0,
			"0.018": 0.0,
			"0.019": 0.0,
			"0.02": 0.0,
			"0.021": 0.0,
			"0.022": 0.0,
			"0.023": 0.0,
			"0.024": 0.0,
			"0.025": 0.0
		}
	}
}
