{
	 "smiles": "CCOC(=O)C1=CC(Cl)=C(O)C(Cl)=C1", 
	 "Tm": 384.15, 
	 "num_atms": 22, 
	 "gaussian": { 
		 "optdone": 1, 
		 "sigma_profile": "yes", 
		 "theory": "DFT", 
		 "functional": "B3LYP", 
		 "basiset": "6-31G**", 
		 "properties": { 
			 "R2extent": 5021.351, 
			 "electric_dipole_moment_norm": 3.15891946558, 
			 "electric_quadrupole_moment_norm": 10.1738057437, 
			 "total_energy": -1493.85146627, 
			 "HOMO_LUMO_gap": 0.19347, 
			 "cosmo_polarized_energy": -9.4, 
			 "cosmo_cavitation_energy": 30.34, 
			 "cosmo_dispersion_energy": -22.5, 
			 "cosmo_repulsion_energy": 1.8, 
			 "cosmo_total_nonelectrostatic_energy": 9.63, 
			 "SMD_solvation_energy": 6.17 
		},
		"coords": [
			{
				"x": 4.3332367108,
				"y": -2.3465773055,
				"z": -0.2372019445,
				"element": "C" 
			},
			{
				"x": 3.279890444,
				"y": -2.4846921911,
				"z": -1.3257224237,
				"element": "C" 
			},
			{
				"x": 2.1192009048,
				"y": -1.6648056259,
				"z": -1.0426273724,
				"element": "O" 
			},
			{
				"x": 2.1799628564,
				"y": -0.3753549474,
				"z": -1.4421957174,
				"element": "C" 
			},
			{
				"x": 3.1326021275,
				"y": 0.1137529227,
				"z": -2.0188462429,
				"element": "O" 
			},
			{
				"x": 0.9417594762,
				"y": 0.3776676,
				"z": -1.0990460852,
				"element": "C" 
			},
			{
				"x": -0.1354971523,
				"y": -0.2170640378,
				"z": -0.4328100716,
				"element": "C" 
			},
			{
				"x": -1.2570341696,
				"y": 0.5469304282,
				"z": -0.1459556035,
				"element": "C" 
			},
			{
				"x": -2.6289143931,
				"y": -0.1753852585,
				"z": 0.6923811191,
				"element": "Cl" 
			},
			{
				"x": -1.3520127158,
				"y": 1.9050362818,
				"z": -0.5021016538,
				"element": "C" 
			},
			{
				"x": -2.4272421844,
				"y": 2.6663435922,
				"z": -0.2354155053,
				"element": "O" 
			},
			{
				"x": -0.2534129085,
				"y": 2.4780548056,
				"z": -1.1715423617,
				"element": "C" 
			},
			{
				"x": -0.3332955865,
				"y": 4.1612660608,
				"z": -1.6297983797,
				"element": "Cl" 
			},
			{
				"x": 0.8754957147,
				"y": 1.7280154613,
				"z": -1.4654349016,
				"element": "C" 
			},
			{
				"x": 3.9154300732,
				"y": -2.5904892795,
				"z": 0.7439662209,
				"element": "H" 
			},
			{
				"x": 4.7283219581,
				"y": -1.3282088372,
				"z": -0.2119752319,
				"element": "H" 
			},
			{
				"x": 5.1636264561,
				"y": -3.0318687913,
				"z": -0.4371420454,
				"element": "H" 
			},
			{
				"x": 3.679980323,
				"y": -2.199847697,
				"z": -2.3014100909,
				"element": "H" 
			},
			{
				"x": 2.8849697317,
				"y": -3.5020439541,
				"z": -1.3765131742,
				"element": "H" 
			},
			{
				"x": -0.095554407,
				"y": -1.2593907761,
				"z": -0.1442396088,
				"element": "H" 
			},
			{
				"x": -3.0887461873,
				"y": 2.1258068494,
				"z": 0.2251354848,
				"element": "H" 
			},
			{
				"x": 1.7162329279,
				"y": 2.1768546995,
				"z": -1.9808044104,
				"element": "H" 
			}
		],
		 "valence_orbital": [ 
			{
				"type": "occ",
				"energy": -0.31787,
				"method": "rhf"
			},
			{
				"type": "occ",
				"energy": -0.3056,
				"method": "rhf"
			},
			{
				"type": "occ",
				"energy": -0.28173,
				"method": "rhf"
			},
			{
				"type": "occ",
				"energy": -0.26196,
				"method": "rhf"
			},
			{
				"type": "occ",
				"energy": -0.24651,
				"method": "rhf"
			},
			{
				"type": "unocc",
				"energy": -0.05304,
				"method": "rhf"
			},
			{
				"type": "unocc",
				"energy": -0.03135,
				"method": "rhf"
			},
			{
				"type": "unocc",
				"energy": -0.00528,
				"method": "rhf"
			},
			{
				"type": "unocc",
				"energy": 0.04195,
				"method": "rhf"
			},
			{
				"type": "unocc",
				"energy": 0.04931,
				"method": "rhf"
			}
		],
		"cosmo_sigma_profile": { 
			"-0.025": 0.0,
			"-0.024": 0.0,
			"-0.023": 0.0,
			"-0.022": 0.0,
			"-0.021": 0.0,
			"-0.02": 0.0,
			"-0.019": 0.0,
			"-0.018": 0.0,
			"-0.017": 0.072628274738,
			"-0.016": 0.634036075837,
			"-0.015": 0.392523352939,
			"-0.014": 0.683816451375,
			"-0.013": 0.805672137246,
			"-0.012": 1.14843706303,
			"-0.011": 1.0719012051,
			"-0.01": 0.820653340588,
			"-0.009": 0.936462175416,
			"-0.008": 2.05278668778,
			"-0.007": 2.65795734133,
			"-0.006": 5.64864261091,
			"-0.005": 9.06782725882,
			"-0.004": 15.1851119222,
			"-0.003": 20.5969593048,
			"-0.002": 23.088658997,
			"-0.001": 28.5578688891,
			"0.0": 34.1356898353,
			"0.001": 24.205271681,
			"0.002": 15.6821550254,
			"0.003": 16.0759196699,
			"0.004": 15.8016717275,
			"0.005": 5.23304632803,
			"0.006": 3.58550894451,
			"0.007": 3.10731728757,
			"0.008": 3.73507886274,
			"0.009": 3.57322994198,
			"0.01": 2.54527820803,
			"0.011": 2.91886046582,
			"0.012": 2.79206028404,
			"0.013": 0.0,
			"0.014": 0.0,
			"0.015": 0.0,
			"0.016": 0.0,
			"0.017": 0.0,
			"0.018": 0.0,
			"0.019": 0.0,
			"0.02": 0.0,
			"0.021": 0.0,
			"0.022": 0.0,
			"0.023": 0.0,
			"0.024": 0.0,
			"0.025": 0.0
		}
	}
}
