{
	 "smiles": "NC(CC1=NNC2=CC=CC=C12)C(O)=O", 
	 "Tm": 513.15, 
	 "num_atms": 26, 
	 "gaussian": { 
		 "optdone": 1, 
		 "sigma_profile": "yes", 
		 "theory": "DFT", 
		 "functional": "B3LYP", 
		 "basiset": "6-31G**", 
		 "properties": { 
			 "R2extent": 4095.3765, 
			 "electric_dipole_moment_norm": 3.93338468625, 
			 "electric_quadrupole_moment_norm": 21.3772584552, 
			 "total_energy": -702.395162327, 
			 "HOMO_LUMO_gap": 0.18501, 
			 "cosmo_polarized_energy": -18.46, 
			 "cosmo_cavitation_energy": 30.41, 
			 "cosmo_dispersion_energy": -21.67, 
			 "cosmo_repulsion_energy": 1.71, 
			 "cosmo_total_nonelectrostatic_energy": 10.45, 
			 "SMD_solvation_energy": 3.74 
		},
		"coords": [
			{
				"x": -1.9368667644,
				"y": 0.4461995904,
				"z": -2.0997156908,
				"element": "N" 
			},
			{
				"x": -1.8524102235,
				"y": -0.7349327897,
				"z": -1.2459400413,
				"element": "C" 
			},
			{
				"x": -0.5978132346,
				"y": -0.8309145778,
				"z": -0.3178061267,
				"element": "C" 
			},
			{
				"x": -0.5153525488,
				"y": 0.2997282647,
				"z": 0.6634704408,
				"element": "C" 
			},
			{
				"x": -1.0822389027,
				"y": 0.1974900949,
				"z": 1.8566427775,
				"element": "N" 
			},
			{
				"x": -0.8660907577,
				"y": 1.3820674049,
				"z": 2.4878591066,
				"element": "N" 
			},
			{
				"x": -0.1547051026,
				"y": 2.2645470796,
				"z": 1.7242043945,
				"element": "C" 
			},
			{
				"x": 0.2975883358,
				"y": 3.5717479278,
				"z": 1.9669812406,
				"element": "C" 
			},
			{
				"x": 1.0123712159,
				"y": 4.1877881069,
				"z": 0.951387136,
				"element": "C" 
			},
			{
				"x": 1.2783491551,
				"y": 3.53263472,
				"z": -0.2747185214,
				"element": "C" 
			},
			{
				"x": 0.8288105331,
				"y": 2.2429366833,
				"z": -0.5088266377,
				"element": "C" 
			},
			{
				"x": 0.0965569281,
				"y": 1.5903099365,
				"z": 0.5018858018,
				"element": "C" 
			},
			{
				"x": -1.9119519308,
				"y": -1.9939524993,
				"z": -2.0990055132,
				"element": "C" 
			},
			{
				"x": -1.0918191341,
				"y": -1.908498807,
				"z": -3.1783639776,
				"element": "O" 
			},
			{
				"x": -2.5543723985,
				"y": -2.9873032034,
				"z": -1.8475092635,
				"element": "O" 
			},
			{
				"x": -1.1538810885,
				"y": 0.4656824296,
				"z": -2.7480320857,
				"element": "H" 
			},
			{
				"x": -1.8871047866,
				"y": 1.2875647596,
				"z": -1.5317182485,
				"element": "H" 
			},
			{
				"x": -2.7391947411,
				"y": -0.7652124109,
				"z": -0.606641146,
				"element": "H" 
			},
			{
				"x": -0.6424528571,
				"y": -1.7737685821,
				"z": 0.2373227167,
				"element": "H" 
			},
			{
				"x": 0.3023179003,
				"y": -0.8536972587,
				"z": -0.9433126466,
				"element": "H" 
			},
			{
				"x": -1.2053791429,
				"y": 1.4994477594,
				"z": 3.4287984103,
				"element": "H" 
			},
			{
				"x": 0.0985183927,
				"y": 4.0786947998,
				"z": 2.906166272,
				"element": "H" 
			},
			{
				"x": 1.3798922855,
				"y": 5.1989803906,
				"z": 1.0997441295,
				"element": "H" 
			},
			{
				"x": 1.8450153149,
				"y": 4.0540137582,
				"z": -1.0400368266,
				"element": "H" 
			},
			{
				"x": 1.0371676045,
				"y": 1.745737054,
				"z": -1.4517218677,
				"element": "H" 
			},
			{
				"x": -1.1784540521,
				"y": -2.7530906312,
				"z": -3.6513138331,
				"element": "H" 
			}
		],
		 "valence_orbital": [ 
			{
				"type": "occ",
				"energy": -0.29236,
				"method": "rhf"
			},
			{
				"type": "occ",
				"energy": -0.27493,
				"method": "rhf"
			},
			{
				"type": "occ",
				"energy": -0.2491,
				"method": "rhf"
			},
			{
				"type": "occ",
				"energy": -0.24017,
				"method": "rhf"
			},
			{
				"type": "occ",
				"energy": -0.21986,
				"method": "rhf"
			},
			{
				"type": "unocc",
				"energy": -0.03485,
				"method": "rhf"
			},
			{
				"type": "unocc",
				"energy": 0.00819,
				"method": "rhf"
			},
			{
				"type": "unocc",
				"energy": 0.01166,
				"method": "rhf"
			},
			{
				"type": "unocc",
				"energy": 0.04867,
				"method": "rhf"
			},
			{
				"type": "unocc",
				"energy": 0.07238,
				"method": "rhf"
			}
		],
		"cosmo_sigma_profile": { 
			"-0.025": 0.0,
			"-0.024": 0.0,
			"-0.023": 0.0,
			"-0.022": 0.0,
			"-0.021": 0.0,
			"-0.02": 0.0,
			"-0.019": 0.0736069519493,
			"-0.018": 0.916784345748,
			"-0.017": 1.12467511131,
			"-0.016": 2.00026818344,
			"-0.015": 2.02198852585,
			"-0.014": 2.30397267995,
			"-0.013": 1.2172024809,
			"-0.012": 1.67552953694,
			"-0.011": 1.59558510412,
			"-0.01": 2.51219730999,
			"-0.009": 2.43438249811,
			"-0.008": 3.03713147042,
			"-0.007": 6.31565338781,
			"-0.006": 12.2011695674,
			"-0.005": 17.6418214776,
			"-0.004": 18.047273399,
			"-0.003": 16.7456773976,
			"-0.002": 14.1330196027,
			"-0.001": 11.9256453235,
			"0.0": 12.0763622902,
			"0.001": 12.5113377746,
			"0.002": 13.6479737816,
			"0.003": 14.9285187214,
			"0.004": 12.9894357625,
			"0.005": 14.0463327067,
			"0.006": 9.20888308717,
			"0.007": 4.57000677223,
			"0.008": 3.23445474098,
			"0.009": 3.96770380916,
			"0.01": 4.22835672468,
			"0.011": 5.06937980595,
			"0.012": 4.89874123147,
			"0.013": 2.66589578728,
			"0.014": 1.4270964296,
			"0.015": 1.62415349508,
			"0.016": 0.814788200857,
			"0.017": 0.440347001562,
			"0.018": 0.482364716316,
			"0.019": 0.0124214645768,
			"0.02": 0.0,
			"0.021": 0.0,
			"0.022": 0.0,
			"0.023": 0.0,
			"0.024": 0.0,
			"0.025": 0.0
		}
	}
}
