{
	 "smiles": "BrC1=CC=CC2=C1C(C=O)=CN2", 
	 "Tm": 453.15, 
	 "num_atms": 18, 
	 "gaussian": { 
		 "optdone": 1, 
		 "sigma_profile": "yes", 
		 "theory": "DFT", 
		 "functional": "B3LYP", 
		 "basiset": "6-31G**", 
		 "properties": { 
			 "R2extent": 3549.5542, 
			 "electric_dipole_moment_norm": 6.79811059854, 
			 "electric_quadrupole_moment_norm": 9.71284945781, 
			 "total_energy": -3047.94203402, 
			 "HOMO_LUMO_gap": 0.17687, 
			 "cosmo_polarized_energy": -18.4, 
			 "cosmo_cavitation_energy": 24.59, 
			 "cosmo_dispersion_energy": -18.74, 
			 "cosmo_repulsion_energy": 1.46, 
			 "cosmo_total_nonelectrostatic_energy": 7.31, 
			 "SMD_solvation_energy": 4.04 
		},
		"coords": [
			{
				"x": 0.3578753476,
				"y": 2.3344936645,
				"z": 2.3444210205,
				"element": "Br" 
			},
			{
				"x": -1.1426903803,
				"y": 1.3680072211,
				"z": 1.6858931077,
				"element": "C" 
			},
			{
				"x": -2.2973513192,
				"y": 1.3904758651,
				"z": 2.4620388402,
				"element": "C" 
			},
			{
				"x": -3.4595334922,
				"y": 0.7092433476,
				"z": 2.0657516411,
				"element": "C" 
			},
			{
				"x": -3.4915616239,
				"y": -0.0113819653,
				"z": 0.8808460392,
				"element": "C" 
			},
			{
				"x": -2.3255340737,
				"y": -0.0236924506,
				"z": 0.1142114654,
				"element": "C" 
			},
			{
				"x": -1.1202807244,
				"y": 0.6511576312,
				"z": 0.4718895418,
				"element": "C" 
			},
			{
				"x": -0.1690244866,
				"y": 0.3754955515,
				"z": -0.5983546485,
				"element": "C" 
			},
			{
				"x": 1.2210608617,
				"y": 0.7420396529,
				"z": -0.8759478874,
				"element": "C" 
			},
			{
				"x": 1.9736642683,
				"y": 1.4278859226,
				"z": -0.2120164755,
				"element": "O" 
			},
			{
				"x": -0.8330657877,
				"y": -0.4246129394,
				"z": -1.5118087324,
				"element": "C" 
			},
			{
				"x": -2.1061590505,
				"y": -0.6632103026,
				"z": -1.0960774966,
				"element": "N" 
			},
			{
				"x": -2.2912913644,
				"y": 1.9480368833,
				"z": 3.3911271615,
				"element": "H" 
			},
			{
				"x": -4.3396219172,
				"y": 0.751648047,
				"z": 2.6996799367,
				"element": "H" 
			},
			{
				"x": -4.3822768301,
				"y": -0.5433664591,
				"z": 0.5608253342,
				"element": "H" 
			},
			{
				"x": 1.5733497517,
				"y": 0.3006444794,
				"z": -1.8391982407,
				"element": "H" 
			},
			{
				"x": -0.4588288766,
				"y": -0.8357198588,
				"z": -2.4392555738,
				"element": "H" 
			},
			{
				"x": -2.7888303024,
				"y": -1.2181442904,
				"z": -1.5876250333,
				"element": "H" 
			}
		],
		 "valence_orbital": [ 
			{
				"type": "occ",
				"energy": -0.27545,
				"method": "rhf"
			},
			{
				"type": "occ",
				"energy": -0.27177,
				"method": "rhf"
			},
			{
				"type": "occ",
				"energy": -0.24458,
				"method": "rhf"
			},
			{
				"type": "occ",
				"energy": -0.23332,
				"method": "rhf"
			},
			{
				"type": "occ",
				"energy": -0.21892,
				"method": "rhf"
			},
			{
				"type": "unocc",
				"energy": -0.04205,
				"method": "rhf"
			},
			{
				"type": "unocc",
				"energy": -0.01856,
				"method": "rhf"
			},
			{
				"type": "unocc",
				"energy": 0.00809,
				"method": "rhf"
			},
			{
				"type": "unocc",
				"energy": 0.02019,
				"method": "rhf"
			},
			{
				"type": "unocc",
				"energy": 0.05809,
				"method": "rhf"
			}
		],
		"cosmo_sigma_profile": { 
			"-0.025": 0.0,
			"-0.024": 0.0,
			"-0.023": 0.0,
			"-0.022": 0.0,
			"-0.021": 0.0,
			"-0.02": 0.0,
			"-0.019": 0.0,
			"-0.018": 0.0,
			"-0.017": 1.21207659025,
			"-0.016": 2.14367858987,
			"-0.015": 1.53267798835,
			"-0.014": 1.46696675324,
			"-0.013": 1.20084874307,
			"-0.012": 1.44615987014,
			"-0.011": 1.52776720257,
			"-0.01": 3.63931401387,
			"-0.009": 3.57828071106,
			"-0.008": 4.10397877287,
			"-0.007": 5.37485004233,
			"-0.006": 9.19338928121,
			"-0.005": 9.61864179634,
			"-0.004": 9.19242046413,
			"-0.003": 9.36852811888,
			"-0.002": 8.66979283073,
			"-0.001": 9.20062168458,
			"0.0": 11.4264709642,
			"0.001": 14.9229739191,
			"0.002": 17.4307406593,
			"0.003": 22.0749031554,
			"0.004": 16.9872708059,
			"0.005": 11.7252133897,
			"0.006": 3.34102654301,
			"0.007": 2.05672098666,
			"0.008": 2.5654878892,
			"0.009": 2.30001080682,
			"0.01": 1.9346744973,
			"0.011": 3.40701816093,
			"0.012": 4.09657339716,
			"0.013": 3.05612921096,
			"0.014": 1.27137156636,
			"0.015": 0.0160869655338,
			"0.016": 0.0,
			"0.017": 0.0,
			"0.018": 0.0,
			"0.019": 0.0,
			"0.02": 0.0,
			"0.021": 0.0,
			"0.022": 0.0,
			"0.023": 0.0,
			"0.024": 0.0,
			"0.025": 0.0
		}
	}
}
