{
	 "smiles": "CC(C)=CCCC(C)(OC(C)=O)C=C", 
	 "Tm": 298.15, 
	 "num_atms": 34, 
	 "gaussian": { 
		 "optdone": 1, 
		 "sigma_profile": "yes", 
		 "theory": "DFT", 
		 "functional": "B3LYP", 
		 "basiset": "6-31G**", 
		 "properties": { 
			 "R2extent": 3774.1862, 
			 "electric_dipole_moment_norm": 1.71647383027, 
			 "electric_quadrupole_moment_norm": 6.67992698987, 
			 "total_energy": -619.759570141, 
			 "HOMO_LUMO_gap": 0.23257, 
			 "cosmo_polarized_energy": -7.12, 
			 "cosmo_cavitation_energy": 35.2, 
			 "cosmo_dispersion_energy": -23.62, 
			 "cosmo_repulsion_energy": 1.91, 
			 "cosmo_total_nonelectrostatic_energy": 13.49, 
			 "SMD_solvation_energy": 7.74 
		},
		"coords": [
			{
				"x": -4.1844205954,
				"y": -1.3770230089,
				"z": 0.1818290191,
				"element": "C" 
			},
			{
				"x": -2.8598441635,
				"y": -1.0175326658,
				"z": 0.8118862541,
				"element": "C" 
			},
			{
				"x": -2.9536727107,
				"y": -0.5432677446,
				"z": 2.2421319827,
				"element": "C" 
			},
			{
				"x": -1.7150911374,
				"y": -1.1259874903,
				"z": 0.1185050636,
				"element": "C" 
			},
			{
				"x": -0.3196807366,
				"y": -0.822360019,
				"z": 0.6091977457,
				"element": "C" 
			},
			{
				"x": 0.1792555751,
				"y": 0.6341633338,
				"z": 0.4441035497,
				"element": "C" 
			},
			{
				"x": 0.4623276338,
				"y": 1.2036669285,
				"z": -0.9595666337,
				"element": "C" 
			},
			{
				"x": -0.7743158767,
				"y": 1.3450893547,
				"z": -1.8635781781,
				"element": "C" 
			},
			{
				"x": 1.5386957184,
				"y": 0.4156934865,
				"z": -1.6027114424,
				"element": "O" 
			},
			{
				"x": 1.3444797812,
				"y": -0.7167594979,
				"z": -2.3095557665,
				"element": "C" 
			},
			{
				"x": 2.6610561984,
				"y": -1.1789370632,
				"z": -2.9002353588,
				"element": "C" 
			},
			{
				"x": 0.2900778474,
				"y": -1.2965568166,
				"z": -2.4629169881,
				"element": "O" 
			},
			{
				"x": 1.1195692464,
				"y": 2.5747830001,
				"z": -0.8816938415,
				"element": "C" 
			},
			{
				"x": 1.1729989565,
				"y": 3.3988522785,
				"z": 0.1629767099,
				"element": "C" 
			},
			{
				"x": -4.8715801512,
				"y": -0.5198731887,
				"z": 0.184415157,
				"element": "H" 
			},
			{
				"x": -4.064940529,
				"y": -1.7130926126,
				"z": -0.8517275921,
				"element": "H" 
			},
			{
				"x": -4.6862017274,
				"y": -2.1762363947,
				"z": 0.7442265734,
				"element": "H" 
			},
			{
				"x": -3.4515654085,
				"y": -1.2947202711,
				"z": 2.869344614,
				"element": "H" 
			},
			{
				"x": -3.5648466382,
				"y": 0.366783945,
				"z": 2.3101836754,
				"element": "H" 
			},
			{
				"x": -1.9814267812,
				"y": -0.3240408272,
				"z": 2.6885717577,
				"element": "H" 
			},
			{
				"x": -1.7733922941,
				"y": -1.4830190764,
				"z": -0.9071465572,
				"element": "H" 
			},
			{
				"x": -0.2467404759,
				"y": -1.0418296438,
				"z": 1.6809822752,
				"element": "H" 
			},
			{
				"x": 0.3814777802,
				"y": -1.5028856858,
				"z": 0.1174145903,
				"element": "H" 
			},
			{
				"x": -0.5495049971,
				"y": 1.3019759316,
				"z": 0.9183164215,
				"element": "H" 
			},
			{
				"x": 1.1109610522,
				"y": 0.7309766843,
				"z": 1.0132108447,
				"element": "H" 
			},
			{
				"x": -1.4651897747,
				"y": 2.051171407,
				"z": -1.3940838721,
				"element": "H" 
			},
			{
				"x": -1.2829439436,
				"y": 0.3996162082,
				"z": -2.0261932435,
				"element": "H" 
			},
			{
				"x": -0.4816320882,
				"y": 1.7568752696,
				"z": -2.8349805524,
				"element": "H" 
			},
			{
				"x": 2.5102261255,
				"y": -2.1214448244,
				"z": -3.4258146542,
				"element": "H" 
			},
			{
				"x": 3.0453772756,
				"y": -0.4241313557,
				"z": -3.5928588115,
				"element": "H" 
			},
			{
				"x": 3.4065474816,
				"y": -1.3035531814,
				"z": -2.1097895857,
				"element": "H" 
			},
			{
				"x": 1.5560822725,
				"y": 2.8872696188,
				"z": -1.8295782267,
				"element": "H" 
			},
			{
				"x": 0.757683745,
				"y": 3.1515354049,
				"z": 1.1345627487,
				"element": "H" 
			},
			{
				"x": 1.6432733396,
				"y": 4.3735985169,
				"z": 0.0749723216,
				"element": "H" 
			}
		],
		 "valence_orbital": [ 
			{
				"type": "occ",
				"energy": -0.31045,
				"method": "rhf"
			},
			{
				"type": "occ",
				"energy": -0.29191,
				"method": "rhf"
			},
			{
				"type": "occ",
				"energy": -0.26597,
				"method": "rhf"
			},
			{
				"type": "occ",
				"energy": -0.25968,
				"method": "rhf"
			},
			{
				"type": "occ",
				"energy": -0.22256,
				"method": "rhf"
			},
			{
				"type": "unocc",
				"energy": 0.01001,
				"method": "rhf"
			},
			{
				"type": "unocc",
				"energy": 0.01573,
				"method": "rhf"
			},
			{
				"type": "unocc",
				"energy": 0.03271,
				"method": "rhf"
			},
			{
				"type": "unocc",
				"energy": 0.08921,
				"method": "rhf"
			},
			{
				"type": "unocc",
				"energy": 0.10561,
				"method": "rhf"
			}
		],
		"cosmo_sigma_profile": { 
			"-0.025": 0.0,
			"-0.024": 0.0,
			"-0.023": 0.0,
			"-0.022": 0.0,
			"-0.021": 0.0,
			"-0.02": 0.0,
			"-0.019": 0.0,
			"-0.018": 0.0,
			"-0.017": 0.0,
			"-0.016": 0.0,
			"-0.015": 0.0,
			"-0.014": 0.0,
			"-0.013": 0.0,
			"-0.012": 0.0,
			"-0.011": 0.0,
			"-0.01": 0.0,
			"-0.009": 0.0,
			"-0.008": 0.0,
			"-0.007": 0.109015068914,
			"-0.006": 4.10455100862,
			"-0.005": 9.94712937156,
			"-0.004": 19.6901472134,
			"-0.003": 34.744027875,
			"-0.002": 40.4781408354,
			"-0.001": 35.8524432911,
			"0.0": 32.7859302574,
			"0.001": 28.7639213738,
			"0.002": 14.0217591731,
			"0.003": 10.7321026374,
			"0.004": 10.868302394,
			"0.005": 8.41587903859,
			"0.006": 7.58499318263,
			"0.007": 4.53294486408,
			"0.008": 2.72383629447,
			"0.009": 1.97159930456,
			"0.01": 1.99110536971,
			"0.011": 1.47721572597,
			"0.012": 1.85927476885,
			"0.013": 1.60236327512,
			"0.014": 0.2277542174,
			"0.015": 0.0,
			"0.016": 0.0,
			"0.017": 0.0,
			"0.018": 0.0,
			"0.019": 0.0,
			"0.02": 0.0,
			"0.021": 0.0,
			"0.022": 0.0,
			"0.023": 0.0,
			"0.024": 0.0,
			"0.025": 0.0
		}
	}
}
