{
	 "smiles": "OC(CC1COCCN1)C1=CC=CO1", 
	 "Tm": 358.15, 
	 "num_atms": 29, 
	 "gaussian": { 
		 "optdone": 1, 
		 "sigma_profile": "yes", 
		 "theory": "DFT", 
		 "functional": "B3LYP", 
		 "basiset": "6-31G**", 
		 "properties": { 
			 "R2extent": 3370.8407, 
			 "electric_dipole_moment_norm": 0.675493012547, 
			 "electric_quadrupole_moment_norm": 11.8224271996, 
			 "total_energy": -670.4609696, 
			 "HOMO_LUMO_gap": 0.22967, 
			 "cosmo_polarized_energy": -13.39, 
			 "cosmo_cavitation_energy": 30.75, 
			 "cosmo_dispersion_energy": -21.93, 
			 "cosmo_repulsion_energy": 1.74, 
			 "cosmo_total_nonelectrostatic_energy": 10.56, 
			 "SMD_solvation_energy": 3.42 
		},
		"coords": [
			{
				"x": -1.7114139884,
				"y": 2.3861067185,
				"z": -0.5550797386,
				"element": "O" 
			},
			{
				"x": -0.8535647601,
				"y": 1.8420655395,
				"z": -1.5565240352,
				"element": "C" 
			},
			{
				"x": 0.6336650571,
				"y": 1.8509342677,
				"z": -1.1500269067,
				"element": "C" 
			},
			{
				"x": 0.9885044395,
				"y": 1.0525757932,
				"z": 0.1107637985,
				"element": "C" 
			},
			{
				"x": 0.4264798575,
				"y": 1.6709872346,
				"z": 1.4250663248,
				"element": "C" 
			},
			{
				"x": 1.3247812362,
				"y": 1.4859257094,
				"z": 2.5187402302,
				"element": "O" 
			},
			{
				"x": 1.8628503997,
				"y": 0.1727298948,
				"z": 2.5311188393,
				"element": "C" 
			},
			{
				"x": 2.7957960757,
				"y": -0.0168460392,
				"z": 1.3039932696,
				"element": "C" 
			},
			{
				"x": 2.4473666492,
				"y": 0.8939486441,
				"z": 0.2036207374,
				"element": "N" 
			},
			{
				"x": -1.3751119724,
				"y": 0.4638364488,
				"z": -1.8338454614,
				"element": "C" 
			},
			{
				"x": -2.4169407454,
				"y": -0.2596024155,
				"z": -1.3372478754,
				"element": "C" 
			},
			{
				"x": -2.3988542887,
				"y": -1.5174919238,
				"z": -2.0306615701,
				"element": "C" 
			},
			{
				"x": -1.3502941815,
				"y": -1.4613873819,
				"z": -2.8942419601,
				"element": "C" 
			},
			{
				"x": -0.7118338354,
				"y": -0.2564242754,
				"z": -2.7880658163,
				"element": "O" 
			},
			{
				"x": -1.4836437267,
				"y": 3.3177883408,
				"z": -0.4478129515,
				"element": "H" 
			},
			{
				"x": -0.9375562727,
				"y": 2.4319720956,
				"z": -2.485648048,
				"element": "H" 
			},
			{
				"x": 0.9525702452,
				"y": 2.8976187374,
				"z": -1.0289766789,
				"element": "H" 
			},
			{
				"x": 1.2171323402,
				"y": 1.4413046596,
				"z": -1.981292617,
				"element": "H" 
			},
			{
				"x": 0.5784597914,
				"y": 0.0412448658,
				"z": -0.009695282,
				"element": "H" 
			},
			{
				"x": 0.3151997163,
				"y": 2.7564647679,
				"z": 1.327389035,
				"element": "H" 
			},
			{
				"x": -0.5636284467,
				"y": 1.2535979193,
				"z": 1.6603407241,
				"element": "H" 
			},
			{
				"x": 1.0505946336,
				"y": -0.5730766053,
				"z": 2.5272035075,
				"element": "H" 
			},
			{
				"x": 2.4070565263,
				"y": 0.0634184279,
				"z": 3.4739175123,
				"element": "H" 
			},
			{
				"x": 2.7376120614,
				"y": -1.0535709788,
				"z": 0.9457359539,
				"element": "H" 
			},
			{
				"x": 3.8388339729,
				"y": 0.1718051292,
				"z": 1.5771553386,
				"element": "H" 
			},
			{
				"x": 2.8453516488,
				"y": 1.8064996748,
				"z": 0.4206669726,
				"element": "H" 
			},
			{
				"x": -3.1093335312,
				"y": 0.0708140006,
				"z": -0.5785074189,
				"element": "H" 
			},
			{
				"x": -3.0790444189,
				"y": -2.3468148952,
				"z": -1.8988235316,
				"element": "H" 
			},
			{
				"x": -0.937234483,
				"y": -2.1479243545,
				"z": -3.6165623521,
				"element": "H" 
			}
		],
		 "valence_orbital": [ 
			{
				"type": "occ",
				"energy": -0.28123,
				"method": "rhf"
			},
			{
				"type": "occ",
				"energy": -0.27218,
				"method": "rhf"
			},
			{
				"type": "occ",
				"energy": -0.25431,
				"method": "rhf"
			},
			{
				"type": "occ",
				"energy": -0.21735,
				"method": "rhf"
			},
			{
				"type": "occ",
				"energy": -0.21302,
				"method": "rhf"
			},
			{
				"type": "unocc",
				"energy": 0.01665,
				"method": "rhf"
			},
			{
				"type": "unocc",
				"energy": 0.0574,
				"method": "rhf"
			},
			{
				"type": "unocc",
				"energy": 0.07812,
				"method": "rhf"
			},
			{
				"type": "unocc",
				"energy": 0.08164,
				"method": "rhf"
			},
			{
				"type": "unocc",
				"energy": 0.10835,
				"method": "rhf"
			}
		],
		"cosmo_sigma_profile": { 
			"-0.025": 0.0,
			"-0.024": 0.0,
			"-0.023": 0.0,
			"-0.022": 0.0,
			"-0.021": 0.0,
			"-0.02": 0.0,
			"-0.019": 0.0,
			"-0.018": 0.0,
			"-0.017": 0.0297094412337,
			"-0.016": 0.683762895676,
			"-0.015": 0.903582651006,
			"-0.014": 0.707582213967,
			"-0.013": 1.00167750682,
			"-0.012": 0.833487745924,
			"-0.011": 1.29946067613,
			"-0.01": 0.933547788117,
			"-0.009": 2.81575968666,
			"-0.008": 4.57584788353,
			"-0.007": 6.18790343042,
			"-0.006": 8.82690315308,
			"-0.005": 13.1761855728,
			"-0.004": 19.6409336004,
			"-0.003": 27.2664458621,
			"-0.002": 21.6712267453,
			"-0.001": 17.0716180558,
			"0.0": 13.9536416608,
			"0.001": 11.6775180771,
			"0.002": 11.1774644337,
			"0.003": 13.8822253768,
			"0.004": 12.7056652852,
			"0.005": 10.7914562802,
			"0.006": 10.1961341699,
			"0.007": 5.25442071685,
			"0.008": 4.49062866375,
			"0.009": 2.8219662905,
			"0.01": 3.89182961177,
			"0.011": 2.93899160272,
			"0.012": 2.52185592779,
			"0.013": 2.0799124257,
			"0.014": 2.17653548117,
			"0.015": 0.544422246786,
			"0.016": 0.258185958272,
			"0.017": 0.531295318792,
			"0.018": 0.357733557896,
			"0.019": 0.0153774723053,
			"0.02": 0.0,
			"0.021": 0.0,
			"0.022": 0.0,
			"0.023": 0.0,
			"0.024": 0.0,
			"0.025": 0.0
		}
	}
}
