{
	 "smiles": "CCCCCCCCCCCCC1=CC=CC=C1S(O)(=O)=O", 
	 "Tm": 283.15, 
	 "num_atms": 52, 
	 "gaussian": { 
		 "optdone": 1, 
		 "sigma_profile": "yes", 
		 "theory": "DFT", 
		 "functional": "B3LYP", 
		 "basiset": "6-31G**", 
		 "properties": { 
			 "R2extent": 11041.2696, 
			 "electric_dipole_moment_norm": 4.49615844694, 
			 "electric_quadrupole_moment_norm": 31.6928826135, 
			 "total_energy": -1327.82313548, 
			 "HOMO_LUMO_gap": 0.21925, 
			 "cosmo_polarized_energy": -13.41, 
			 "cosmo_cavitation_energy": 53.18, 
			 "cosmo_dispersion_energy": -33.89, 
			 "cosmo_repulsion_energy": 2.6, 
			 "cosmo_total_nonelectrostatic_energy": 21.89, 
			 "SMD_solvation_energy": 6.46 
		},
		"coords": [
			{
				"x": 0.911988986,
				"y": 3.2268430409,
				"z": 1.7619749394,
				"element": "C" 
			},
			{
				"x": 0.3260404653,
				"y": 2.5392188982,
				"z": 2.9994123754,
				"element": "C" 
			},
			{
				"x": -0.1664572286,
				"y": 1.1120691072,
				"z": 2.7239028738,
				"element": "C" 
			},
			{
				"x": -0.7651620151,
				"y": 0.4294664213,
				"z": 3.9629087443,
				"element": "C" 
			},
			{
				"x": -1.1474381388,
				"y": -1.0569959367,
				"z": 3.8112504635,
				"element": "C" 
			},
			{
				"x": -2.5056623296,
				"y": -1.3703361074,
				"z": 3.1503870731,
				"element": "C" 
			},
			{
				"x": -2.6435017388,
				"y": -1.1633949094,
				"z": 1.630267887,
				"element": "C" 
			},
			{
				"x": -1.6869134068,
				"y": -2.0185735514,
				"z": 0.785137703,
				"element": "C" 
			},
			{
				"x": -2.0090545626,
				"y": -2.0366996343,
				"z": -0.7201767288,
				"element": "C" 
			},
			{
				"x": -1.9308372837,
				"y": -0.6801538446,
				"z": -1.4452805449,
				"element": "C" 
			},
			{
				"x": -0.5624360458,
				"y": 0.0215738816,
				"z": -1.4225833119,
				"element": "C" 
			},
			{
				"x": 0.5575452543,
				"y": -0.7752416383,
				"z": -2.1285255252,
				"element": "C" 
			},
			{
				"x": 1.8794701872,
				"y": -0.0347510144,
				"z": -2.1265097661,
				"element": "C" 
			},
			{
				"x": 2.6583849073,
				"y": -0.0487365173,
				"z": -0.9592031406,
				"element": "C" 
			},
			{
				"x": 3.8656243816,
				"y": 0.641246795,
				"z": -0.86347594,
				"element": "C" 
			},
			{
				"x": 4.3392329115,
				"y": 1.3783858362,
				"z": -1.949182733,
				"element": "C" 
			},
			{
				"x": 3.5960424248,
				"y": 1.4154234977,
				"z": -3.1257330646,
				"element": "C" 
			},
			{
				"x": 2.3856510305,
				"y": 0.7174947272,
				"z": -3.2047760802,
				"element": "C" 
			},
			{
				"x": 1.5580177152,
				"y": 0.7929088416,
				"z": -4.7961441014,
				"element": "S" 
			},
			{
				"x": 0.1045182912,
				"y": 1.4737237026,
				"z": -4.4130786426,
				"element": "O" 
			},
			{
				"x": 1.26377953,
				"y": -0.5511628976,
				"z": -5.2724996691,
				"element": "O" 
			},
			{
				"x": 2.2510074469,
				"y": 1.7645495366,
				"z": -5.6438390287,
				"element": "O" 
			},
			{
				"x": 1.7567944439,
				"y": 2.6602013747,
				"z": 1.3535758339,
				"element": "H" 
			},
			{
				"x": 0.1633557404,
				"y": 3.3152359227,
				"z": 0.9663246565,
				"element": "H" 
			},
			{
				"x": 1.2690950131,
				"y": 4.2354816785,
				"z": 1.9948310611,
				"element": "H" 
			},
			{
				"x": -0.5062953546,
				"y": 3.1394478836,
				"z": 3.3917063957,
				"element": "H" 
			},
			{
				"x": 1.0807789766,
				"y": 2.5122832136,
				"z": 3.7974328514,
				"element": "H" 
			},
			{
				"x": -0.9009441096,
				"y": 1.1420698688,
				"z": 1.910102983,
				"element": "H" 
			},
			{
				"x": 0.6751882494,
				"y": 0.5085942891,
				"z": 2.3526640734,
				"element": "H" 
			},
			{
				"x": -0.028939129,
				"y": 0.5091175092,
				"z": 4.7748275036,
				"element": "H" 
			},
			{
				"x": -1.6437734335,
				"y": 0.9962829785,
				"z": 4.3034465298,
				"element": "H" 
			},
			{
				"x": -1.1801962729,
				"y": -1.4928298207,
				"z": 4.8180468509,
				"element": "H" 
			},
			{
				"x": -0.3407158701,
				"y": -1.5899316548,
				"z": 3.2899353656,
				"element": "H" 
			},
			{
				"x": -2.7449746964,
				"y": -2.421274193,
				"z": 3.3652187804,
				"element": "H" 
			},
			{
				"x": -3.280836072,
				"y": -0.7793226672,
				"z": 3.6576297199,
				"element": "H" 
			},
			{
				"x": -2.5239439885,
				"y": -0.1031730791,
				"z": 1.3795905417,
				"element": "H" 
			},
			{
				"x": -3.6760296127,
				"y": -1.4178506151,
				"z": 1.351627226,
				"element": "H" 
			},
			{
				"x": -1.7224656705,
				"y": -3.053192595,
				"z": 1.1539922457,
				"element": "H" 
			},
			{
				"x": -0.6528152315,
				"y": -1.6849044844,
				"z": 0.9401331572,
				"element": "H" 
			},
			{
				"x": -3.0229717567,
				"y": -2.4369837537,
				"z": -0.8559562412,
				"element": "H" 
			},
			{
				"x": -1.3416119757,
				"y": -2.7540891374,
				"z": -1.2147576107,
				"element": "H" 
			},
			{
				"x": -2.6740617471,
				"y": 0.004036322,
				"z": -1.0167771988,
				"element": "H" 
			},
			{
				"x": -2.2301348718,
				"y": -0.8284268077,
				"z": -2.4911844199,
				"element": "H" 
			},
			{
				"x": -0.6596617882,
				"y": 0.9930301365,
				"z": -1.9187948292,
				"element": "H" 
			},
			{
				"x": -0.2593976656,
				"y": 0.2316214666,
				"z": -0.3894919506,
				"element": "H" 
			},
			{
				"x": 0.2479864703,
				"y": -1.019580882,
				"z": -3.1467027589,
				"element": "H" 
			},
			{
				"x": 0.7086909818,
				"y": -1.7300607397,
				"z": -1.6123414705,
				"element": "H" 
			},
			{
				"x": 2.3016918437,
				"y": -0.6246331921,
				"z": -0.109254944,
				"element": "H" 
			},
			{
				"x": 4.4391127906,
				"y": 0.5970490378,
				"z": 0.0579106171,
				"element": "H" 
			},
			{
				"x": 5.2802368822,
				"y": 1.9154803639,
				"z": -1.8857338982,
				"element": "H" 
			},
			{
				"x": 3.9414897943,
				"y": 1.9733577679,
				"z": -3.9882359612,
				"element": "H" 
			},
			{
				"x": 0.141907278,
				"y": 2.3905055735,
				"z": -4.7337988919,
				"element": "H" 
			}
		],
		 "valence_orbital": [ 
			{
				"type": "occ",
				"energy": -0.30521,
				"method": "rhf"
			},
			{
				"type": "occ",
				"energy": -0.30169,
				"method": "rhf"
			},
			{
				"type": "occ",
				"energy": -0.3003,
				"method": "rhf"
			},
			{
				"type": "occ",
				"energy": -0.27362,
				"method": "rhf"
			},
			{
				"type": "occ",
				"energy": -0.26036,
				"method": "rhf"
			},
			{
				"type": "unocc",
				"energy": -0.04111,
				"method": "rhf"
			},
			{
				"type": "unocc",
				"energy": -0.02222,
				"method": "rhf"
			},
			{
				"type": "unocc",
				"energy": 0.03595,
				"method": "rhf"
			},
			{
				"type": "unocc",
				"energy": 0.05818,
				"method": "rhf"
			},
			{
				"type": "unocc",
				"energy": 0.06849,
				"method": "rhf"
			}
		],
		"cosmo_sigma_profile": { 
			"-0.025": 0.0,
			"-0.024": 0.0,
			"-0.023": 0.0,
			"-0.022": 0.0,
			"-0.021": 0.0100535343446,
			"-0.02": 0.500343531089,
			"-0.019": 0.618471847348,
			"-0.018": 1.4071141462,
			"-0.017": 0.398076747086,
			"-0.016": 0.452970785269,
			"-0.015": 0.530384125098,
			"-0.014": 1.08625626083,
			"-0.013": 1.23522683857,
			"-0.012": 0.35677497896,
			"-0.011": 1.05734337962,
			"-0.01": 0.673438813032,
			"-0.009": 0.702482539752,
			"-0.008": 0.513602148618,
			"-0.007": 4.62034949802,
			"-0.006": 9.14362300577,
			"-0.005": 10.8403769123,
			"-0.004": 10.6109723604,
			"-0.003": 14.8813404986,
			"-0.002": 41.2991345804,
			"-0.001": 73.5956263553,
			"0.0": 76.3387503111,
			"0.001": 67.8159830508,
			"0.002": 36.4604206666,
			"0.003": 14.5760729635,
			"0.004": 5.82178048313,
			"0.005": 3.70042351553,
			"0.006": 3.77106769581,
			"0.007": 4.79350736468,
			"0.008": 4.76480306471,
			"0.009": 8.00161188504,
			"0.01": 9.25915417179,
			"0.011": 3.16748827867,
			"0.012": 0.0,
			"0.013": 0.0,
			"0.014": 0.0,
			"0.015": 0.0,
			"0.016": 0.0,
			"0.017": 0.0,
			"0.018": 0.0,
			"0.019": 0.0,
			"0.02": 0.0,
			"0.021": 0.0,
			"0.022": 0.0,
			"0.023": 0.0,
			"0.024": 0.0,
			"0.025": 0.0
		}
	}
}
