{
	 "smiles": "OC(=O)CC1=CSC(=N1)C1=CC=C(O)C=C1", 
	 "Tm": 371.15, 
	 "num_atms": 25, 
	 "gaussian": { 
		 "optdone": 1, 
		 "sigma_profile": "yes", 
		 "theory": "DFT", 
		 "functional": "B3LYP", 
		 "basiset": "6-31G**", 
		 "properties": { 
			 "R2extent": 5853.0959, 
			 "electric_dipole_moment_norm": 1.23591815668, 
			 "electric_quadrupole_moment_norm": 23.1161740799, 
			 "total_energy": -1103.21618747, 
			 "HOMO_LUMO_gap": 0.16184, 
			 "cosmo_polarized_energy": -18.0, 
			 "cosmo_cavitation_energy": 32.29, 
			 "cosmo_dispersion_energy": -23.76, 
			 "cosmo_repulsion_energy": 1.83, 
			 "cosmo_total_nonelectrostatic_energy": 10.36, 
			 "SMD_solvation_energy": 5.71 
		},
		"coords": [
			{
				"x": -0.9931790187,
				"y": 3.4555073538,
				"z": 3.5332111895,
				"element": "O" 
			},
			{
				"x": -2.0717547458,
				"y": 2.6955333515,
				"z": 3.230478923,
				"element": "C" 
			},
			{
				"x": -3.1372548018,
				"y": 3.1678671107,
				"z": 2.9067097655,
				"element": "O" 
			},
			{
				"x": -1.7849823282,
				"y": 1.2099439453,
				"z": 3.391821779,
				"element": "C" 
			},
			{
				"x": -0.5274158679,
				"y": 0.7520779115,
				"z": 2.7043433277,
				"element": "C" 
			},
			{
				"x": 0.5660367913,
				"y": 0.2036397719,
				"z": 3.3136981661,
				"element": "C" 
			},
			{
				"x": 1.7750149937,
				"y": -0.1881634296,
				"z": 2.1355557454,
				"element": "S" 
			},
			{
				"x": 0.6979484893,
				"y": 0.4297527707,
				"z": 0.8728040939,
				"element": "C" 
			},
			{
				"x": -0.4418763844,
				"y": 0.8717722546,
				"z": 1.3368842944,
				"element": "N" 
			},
			{
				"x": 1.0641699879,
				"y": 0.4333884973,
				"z": -0.5461749984,
				"element": "C" 
			},
			{
				"x": 0.149382128,
				"y": 0.9373657769,
				"z": -1.4870548003,
				"element": "C" 
			},
			{
				"x": 0.4587828408,
				"y": 0.958332727,
				"z": -2.8414430297,
				"element": "C" 
			},
			{
				"x": 1.6954357728,
				"y": 0.4736207438,
				"z": -3.2868630094,
				"element": "C" 
			},
			{
				"x": 2.0560274742,
				"y": 0.4676487585,
				"z": -4.60078139,
				"element": "O" 
			},
			{
				"x": 2.6178488858,
				"y": -0.0315430443,
				"z": -2.3619766142,
				"element": "C" 
			},
			{
				"x": 2.300609228,
				"y": -0.0486612864,
				"z": -1.0104050228,
				"element": "C" 
			},
			{
				"x": -1.2725574786,
				"y": 4.3778963951,
				"z": 3.4074038279,
				"element": "H" 
			},
			{
				"x": -1.7161283692,
				"y": 1.0009419659,
				"z": 4.4651865295,
				"element": "H" 
			},
			{
				"x": -2.6562712741,
				"y": 0.6810110908,
				"z": 2.9979985319,
				"element": "H" 
			},
			{
				"x": 0.7287738286,
				"y": 0.0175629493,
				"z": 4.3655614103,
				"element": "H" 
			},
			{
				"x": -0.805728233,
				"y": 1.3107223052,
				"z": -1.1349107243,
				"element": "H" 
			},
			{
				"x": -0.2606833762,
				"y": 1.3517171068,
				"z": -3.5566752608,
				"element": "H" 
			},
			{
				"x": 1.3381322922,
				"y": 0.8386901779,
				"z": -5.1304770785,
				"element": "H" 
			},
			{
				"x": 3.571410998,
				"y": -0.4032641376,
				"z": -2.7211590178,
				"element": "H" 
			},
			{
				"x": 3.0297581672,
				"y": -0.4442610669,
				"z": -0.3086366381,
				"element": "H" 
			}
		],
		 "valence_orbital": [ 
			{
				"type": "occ",
				"energy": -0.27862,
				"method": "rhf"
			},
			{
				"type": "occ",
				"energy": -0.27353,
				"method": "rhf"
			},
			{
				"type": "occ",
				"energy": -0.26254,
				"method": "rhf"
			},
			{
				"type": "occ",
				"energy": -0.25691,
				"method": "rhf"
			},
			{
				"type": "occ",
				"energy": -0.20996,
				"method": "rhf"
			},
			{
				"type": "unocc",
				"energy": -0.04812,
				"method": "rhf"
			},
			{
				"type": "unocc",
				"energy": -0.01045,
				"method": "rhf"
			},
			{
				"type": "unocc",
				"energy": 0.00853,
				"method": "rhf"
			},
			{
				"type": "unocc",
				"energy": 0.02013,
				"method": "rhf"
			},
			{
				"type": "unocc",
				"energy": 0.02729,
				"method": "rhf"
			}
		],
		"cosmo_sigma_profile": { 
			"-0.025": 0.0,
			"-0.024": 0.0,
			"-0.023": 0.0,
			"-0.022": 0.0,
			"-0.021": 0.0,
			"-0.02": 0.0,
			"-0.019": 0.126200924873,
			"-0.018": 1.68493183949,
			"-0.017": 2.3396584355,
			"-0.016": 1.69045669755,
			"-0.015": 1.42038019596,
			"-0.014": 2.1419439223,
			"-0.013": 1.43160122625,
			"-0.012": 1.91171517219,
			"-0.011": 1.71680131635,
			"-0.01": 2.18305535413,
			"-0.009": 3.14103097089,
			"-0.008": 6.20015774344,
			"-0.007": 9.06135388307,
			"-0.006": 13.3240385027,
			"-0.005": 11.8192366795,
			"-0.004": 13.3987429674,
			"-0.003": 11.3682252031,
			"-0.002": 12.0663145873,
			"-0.001": 11.3410891619,
			"0.0": 13.6470031185,
			"0.001": 19.2220920772,
			"0.002": 21.4070087093,
			"0.003": 26.2815844066,
			"0.004": 21.378283341,
			"0.005": 8.91725654854,
			"0.006": 6.45969549941,
			"0.007": 7.00599710042,
			"0.008": 6.09231354425,
			"0.009": 5.98075973565,
			"0.01": 4.5230475089,
			"0.011": 6.78148999152,
			"0.012": 3.8515704192,
			"0.013": 0.50674740162,
			"0.014": 0.0,
			"0.015": 0.0,
			"0.016": 0.0,
			"0.017": 0.0,
			"0.018": 0.0,
			"0.019": 0.0,
			"0.02": 0.0,
			"0.021": 0.0,
			"0.022": 0.0,
			"0.023": 0.0,
			"0.024": 0.0,
			"0.025": 0.0
		}
	}
}
