{
	 "smiles": "NC(=S)NS(=O)(=O)C1=CC=C(N)C=C1", 
	 "Tm": 453.15, 
	 "num_atms": 23, 
	 "gaussian": { 
		 "optdone": 1, 
		 "sigma_profile": "yes", 
		 "theory": "DFT", 
		 "functional": "B3LYP", 
		 "basiset": "6-31G**", 
		 "properties": { 
			 "R2extent": 4310.4764, 
			 "electric_dipole_moment_norm": 5.73473983804, 
			 "electric_quadrupole_moment_norm": 29.5258688392, 
			 "total_energy": -1383.18505766, 
			 "HOMO_LUMO_gap": 0.18259, 
			 "cosmo_polarized_energy": -30.02, 
			 "cosmo_cavitation_energy": 30.46, 
			 "cosmo_dispersion_energy": -22.87, 
			 "cosmo_repulsion_energy": 1.74, 
			 "cosmo_total_nonelectrostatic_energy": 9.33, 
			 "SMD_solvation_energy": 3.9 
		},
		"coords": [
			{
				"x": 1.6113147337,
				"y": 3.7421434638,
				"z": -1.7815326288,
				"element": "N" 
			},
			{
				"x": 1.8042502924,
				"y": 2.4425691304,
				"z": -1.4015699385,
				"element": "C" 
			},
			{
				"x": 2.6960095531,
				"y": 2.0397943366,
				"z": -0.0517405681,
				"element": "S" 
			},
			{
				"x": 1.137270348,
				"y": 1.5501692183,
				"z": -2.2115391747,
				"element": "N" 
			},
			{
				"x": 1.2977558471,
				"y": -0.1697273518,
				"z": -2.3533302909,
				"element": "S" 
			},
			{
				"x": 0.4084008893,
				"y": -0.4010955761,
				"z": -3.4958858774,
				"element": "O" 
			},
			{
				"x": 2.7128827565,
				"y": -0.5109634907,
				"z": -2.3937846443,
				"element": "O" 
			},
			{
				"x": 0.5617463074,
				"y": -0.8623215008,
				"z": -0.9024126591,
				"element": "C" 
			},
			{
				"x": 1.367994829,
				"y": -1.25365401,
				"z": 0.1719140096,
				"element": "C" 
			},
			{
				"x": 0.782209646,
				"y": -1.8245473785,
				"z": 1.2914831374,
				"element": "C" 
			},
			{
				"x": -0.613977173,
				"y": -2.0085556426,
				"z": 1.3595592691,
				"element": "C" 
			},
			{
				"x": -1.1893188964,
				"y": -2.6145058892,
				"z": 2.4590681008,
				"element": "N" 
			},
			{
				"x": -1.4079095611,
				"y": -1.6136128873,
				"z": 0.2620811445,
				"element": "C" 
			},
			{
				"x": -0.8251071092,
				"y": -1.0476540571,
				"z": -0.861380363,
				"element": "C" 
			},
			{
				"x": 1.4062857779,
				"y": 3.9660179101,
				"z": -2.7463112874,
				"element": "H" 
			},
			{
				"x": 2.1498452079,
				"y": 4.422888188,
				"z": -1.2665046545,
				"element": "H" 
			},
			{
				"x": 0.5172143963,
				"y": 1.8908515057,
				"z": -2.938879339,
				"element": "H" 
			},
			{
				"x": 2.4393345887,
				"y": -1.1046172063,
				"z": 0.1203021779,
				"element": "H" 
			},
			{
				"x": 1.4044141197,
				"y": -2.1339532809,
				"z": 2.1266686579,
				"element": "H" 
			},
			{
				"x": -2.1785855888,
				"y": -2.4741434557,
				"z": 2.5992528683,
				"element": "H" 
			},
			{
				"x": -0.6523109397,
				"y": -2.6238739543,
				"z": 3.3132906563,
				"element": "H" 
			},
			{
				"x": -2.4830907203,
				"y": -1.7670866084,
				"z": 0.2953358953,
				"element": "H" 
			},
			{
				"x": -1.4349293046,
				"y": -0.7647214632,
				"z": -1.7123844915,
				"element": "H" 
			}
		],
		 "valence_orbital": [ 
			{
				"type": "occ",
				"energy": -0.2906,
				"method": "rhf"
			},
			{
				"type": "occ",
				"energy": -0.2668,
				"method": "rhf"
			},
			{
				"type": "occ",
				"energy": -0.22891,
				"method": "rhf"
			},
			{
				"type": "occ",
				"energy": -0.22341,
				"method": "rhf"
			},
			{
				"type": "occ",
				"energy": -0.21149,
				"method": "rhf"
			},
			{
				"type": "unocc",
				"energy": -0.0289,
				"method": "rhf"
			},
			{
				"type": "unocc",
				"energy": -0.01838,
				"method": "rhf"
			},
			{
				"type": "unocc",
				"energy": -0.01306,
				"method": "rhf"
			},
			{
				"type": "unocc",
				"energy": 0.03936,
				"method": "rhf"
			},
			{
				"type": "unocc",
				"energy": 0.06035,
				"method": "rhf"
			}
		],
		"cosmo_sigma_profile": { 
			"-0.025": 0.0,
			"-0.024": 0.0,
			"-0.023": 0.0,
			"-0.022": 0.0,
			"-0.021": 0.0,
			"-0.02": 0.0,
			"-0.019": 0.44884891399,
			"-0.018": 1.54659103035,
			"-0.017": 1.57969435396,
			"-0.016": 1.8179744047,
			"-0.015": 2.30349022354,
			"-0.014": 4.43775423587,
			"-0.013": 5.6130752919,
			"-0.012": 5.58863950045,
			"-0.011": 5.24952539459,
			"-0.01": 5.46868979845,
			"-0.009": 5.5357719921,
			"-0.008": 4.57313244666,
			"-0.007": 7.9278185143,
			"-0.006": 9.55676023757,
			"-0.005": 9.82063026422,
			"-0.004": 9.45940805566,
			"-0.003": 6.8991308702,
			"-0.002": 6.78249506789,
			"-0.001": 9.14186600348,
			"0.0": 9.80463439771,
			"0.001": 10.3529384142,
			"0.002": 13.505696418,
			"0.003": 17.1045473706,
			"0.004": 16.1594456336,
			"0.005": 8.90873169746,
			"0.006": 9.11591782307,
			"0.007": 9.5795651638,
			"0.008": 9.00743774876,
			"0.009": 11.4678873436,
			"0.01": 14.7078899197,
			"0.011": 10.2336594619,
			"0.012": 1.07361454575,
			"0.013": 0.0,
			"0.014": 0.0,
			"0.015": 0.0,
			"0.016": 0.0,
			"0.017": 0.0,
			"0.018": 0.0,
			"0.019": 0.0,
			"0.02": 0.0,
			"0.021": 0.0,
			"0.022": 0.0,
			"0.023": 0.0,
			"0.024": 0.0,
			"0.025": 0.0
		}
	}
}
