{
	 "smiles": "CCCC(O)C(CC)CO", 
	 "Tm": 233.15, 
	 "num_atms": 28, 
	 "gaussian": { 
		 "optdone": 1, 
		 "sigma_profile": "yes", 
		 "theory": "DFT", 
		 "functional": "B3LYP", 
		 "basiset": "6-31G**", 
		 "properties": { 
			 "R2extent": 1767.6133, 
			 "electric_dipole_moment_norm": 3.26830263899, 
			 "electric_quadrupole_moment_norm": 9.45423838921, 
			 "total_energy": -466.140509507, 
			 "HOMO_LUMO_gap": 0.29228, 
			 "cosmo_polarized_energy": -9.58, 
			 "cosmo_cavitation_energy": 26.55, 
			 "cosmo_dispersion_energy": -19.44, 
			 "cosmo_repulsion_energy": 1.57, 
			 "cosmo_total_nonelectrostatic_energy": 8.68, 
			 "SMD_solvation_energy": 4.21 
		},
		"coords": [
			{
				"x": -1.6029575137,
				"y": -2.3921156198,
				"z": 1.2643798611,
				"element": "C" 
			},
			{
				"x": -0.8733053548,
				"y": -2.1334084418,
				"z": -0.0608080009,
				"element": "C" 
			},
			{
				"x": -1.1721954404,
				"y": -0.7858721154,
				"z": -0.7452800589,
				"element": "C" 
			},
			{
				"x": -0.9242461552,
				"y": 0.5559650952,
				"z": -0.0172402095,
				"element": "C" 
			},
			{
				"x": -1.8593045824,
				"y": 0.7307744194,
				"z": 1.0452569697,
				"element": "O" 
			},
			{
				"x": 0.5138492307,
				"y": 0.9466820788,
				"z": 0.4327766179,
				"element": "C" 
			},
			{
				"x": 1.5347393354,
				"y": 1.0666344247,
				"z": -0.7268570902,
				"element": "C" 
			},
			{
				"x": 2.235829663,
				"y": -0.2171936897,
				"z": -1.1975333196,
				"element": "C" 
			},
			{
				"x": 1.0967079827,
				"y": 0.1418764996,
				"z": 1.600714776,
				"element": "C" 
			},
			{
				"x": 0.260904313,
				"y": 0.3337132321,
				"z": 2.7545126478,
				"element": "O" 
			},
			{
				"x": -2.6797599309,
				"y": -2.2264181232,
				"z": 1.1597804047,
				"element": "H" 
			},
			{
				"x": -1.4492961857,
				"y": -3.4263521894,
				"z": 1.5927219612,
				"element": "H" 
			},
			{
				"x": -1.2523722218,
				"y": -1.7314492106,
				"z": 2.0609971644,
				"element": "H" 
			},
			{
				"x": -1.1608061608,
				"y": -2.9192741991,
				"z": -0.772282521,
				"element": "H" 
			},
			{
				"x": 0.2069873515,
				"y": -2.261794503,
				"z": 0.082263973,
				"element": "H" 
			},
			{
				"x": -2.2403406666,
				"y": -0.7692730209,
				"z": -0.9981973586,
				"element": "H" 
			},
			{
				"x": -0.6403126849,
				"y": -0.7575516726,
				"z": -1.7057653715,
				"element": "H" 
			},
			{
				"x": -1.1868252936,
				"y": 1.3199940774,
				"z": -0.7658393615,
				"element": "H" 
			},
			{
				"x": -1.391196921,
				"y": 0.5547942714,
				"z": 1.8760617969,
				"element": "H" 
			},
			{
				"x": 0.3820603055,
				"y": 1.9628917427,
				"z": 0.8304480559,
				"element": "H" 
			},
			{
				"x": 2.3105793344,
				"y": 1.7779067324,
				"z": -0.4153588455,
				"element": "H" 
			},
			{
				"x": 1.0291172663,
				"y": 1.535992471,
				"z": -1.5799763279,
				"element": "H" 
			},
			{
				"x": 1.5330696687,
				"y": -0.9746241237,
				"z": -1.55389108,
				"element": "H" 
			},
			{
				"x": 2.9184535907,
				"y": 0.0103342116,
				"z": -2.0229276519,
				"element": "H" 
			},
			{
				"x": 2.8364209615,
				"y": -0.6696701833,
				"z": -0.4010965576,
				"element": "H" 
			},
			{
				"x": 1.169956294,
				"y": -0.9239553447,
				"z": 1.3599605281,
				"element": "H" 
			},
			{
				"x": 2.1135427489,
				"y": 0.5058415335,
				"z": 1.8146884079,
				"element": "H" 
			},
			{
				"x": 0.5186010653,
				"y": -0.3008483528,
				"z": 3.4341905899,
				"element": "H" 
			}
		],
		 "valence_orbital": [ 
			{
				"type": "occ",
				"energy": -0.31717,
				"method": "rhf"
			},
			{
				"type": "occ",
				"energy": -0.31163,
				"method": "rhf"
			},
			{
				"type": "occ",
				"energy": -0.29923,
				"method": "rhf"
			},
			{
				"type": "occ",
				"energy": -0.27018,
				"method": "rhf"
			},
			{
				"type": "occ",
				"energy": -0.23736,
				"method": "rhf"
			},
			{
				"type": "unocc",
				"energy": 0.05492,
				"method": "rhf"
			},
			{
				"type": "unocc",
				"energy": 0.07202,
				"method": "rhf"
			},
			{
				"type": "unocc",
				"energy": 0.10323,
				"method": "rhf"
			},
			{
				"type": "unocc",
				"energy": 0.10998,
				"method": "rhf"
			},
			{
				"type": "unocc",
				"energy": 0.12604,
				"method": "rhf"
			}
		],
		"cosmo_sigma_profile": { 
			"-0.025": 0.0,
			"-0.024": 0.0,
			"-0.023": 0.0,
			"-0.022": 0.0,
			"-0.021": 0.0,
			"-0.02": 0.0,
			"-0.019": 0.0,
			"-0.018": 0.0,
			"-0.017": 0.0499560009139,
			"-0.016": 0.776610737813,
			"-0.015": 1.39121669081,
			"-0.014": 0.625434596928,
			"-0.013": 0.799395955795,
			"-0.012": 1.15070369928,
			"-0.011": 0.783841195027,
			"-0.01": 0.766051209583,
			"-0.009": 0.82483386797,
			"-0.008": 0.822327930172,
			"-0.007": 1.1864502736,
			"-0.006": 1.10989357374,
			"-0.005": 1.26307340754,
			"-0.004": 5.63234357347,
			"-0.003": 21.4404230186,
			"-0.002": 34.6188726504,
			"-0.001": 30.9243192928,
			"0.0": 30.603179761,
			"0.001": 26.1439175606,
			"0.002": 12.4790213539,
			"0.003": 3.40897133861,
			"0.004": 3.36907049772,
			"0.005": 2.652853512,
			"0.006": 2.25136945672,
			"0.007": 2.09740576126,
			"0.008": 1.70174484866,
			"0.009": 2.04147616063,
			"0.01": 2.75549162532,
			"0.011": 1.43934095103,
			"0.012": 1.34677232256,
			"0.013": 2.12493706955,
			"0.014": 1.28002061089,
			"0.015": 1.72527080771,
			"0.016": 1.65896041075,
			"0.017": 0.0351118526939,
			"0.018": 0.0,
			"0.019": 0.0,
			"0.02": 0.0,
			"0.021": 0.0,
			"0.022": 0.0,
			"0.023": 0.0,
			"0.024": 0.0,
			"0.025": 0.0
		}
	}
}
