{
	 "smiles": "NC1=CC2=C(OC(=N2)C(F)(F)F)C=C1", 
	 "Tm": 394.15, 
	 "num_atms": 19, 
	 "gaussian": { 
		 "optdone": 1, 
		 "sigma_profile": "yes", 
		 "theory": "DFT", 
		 "functional": "B3LYP", 
		 "basiset": "6-31G**", 
		 "properties": { 
			 "R2extent": 4078.359, 
			 "electric_dipole_moment_norm": 4.60914225209, 
			 "electric_quadrupole_moment_norm": 7.55570816138, 
			 "total_energy": -792.103476363, 
			 "HOMO_LUMO_gap": 0.16789, 
			 "cosmo_polarized_energy": -10.04, 
			 "cosmo_cavitation_energy": 25.72, 
			 "cosmo_dispersion_energy": -18.82, 
			 "cosmo_repulsion_energy": 1.42, 
			 "cosmo_total_nonelectrostatic_energy": 8.32, 
			 "SMD_solvation_energy": 4.04 
		},
		"coords": [
			{
				"x": 1.9990107333,
				"y": -1.389884635,
				"z": 2.1644812879,
				"element": "N" 
			},
			{
				"x": 1.2051510619,
				"y": -0.8379800984,
				"z": 1.1557458059,
				"element": "C" 
			},
			{
				"x": -0.0117799155,
				"y": -1.4356350721,
				"z": 0.7983743637,
				"element": "C" 
			},
			{
				"x": -0.7251042128,
				"y": -0.8700147941,
				"z": -0.2594175585,
				"element": "C" 
			},
			{
				"x": -0.2359838802,
				"y": 0.2559227144,
				"z": -0.9314054331,
				"element": "C" 
			},
			{
				"x": -1.1477696089,
				"y": 0.5862552267,
				"z": -1.9123147456,
				"element": "O" 
			},
			{
				"x": -2.1186267307,
				"y": -0.3590508514,
				"z": -1.7639643588,
				"element": "C" 
			},
			{
				"x": -1.9481862805,
				"y": -1.2348670115,
				"z": -0.831241902,
				"element": "N" 
			},
			{
				"x": -3.2780166811,
				"y": -0.2596506832,
				"z": -2.7163118627,
				"element": "C" 
			},
			{
				"x": -4.1655065462,
				"y": -1.2302457422,
				"z": -2.4822434128,
				"element": "F" 
			},
			{
				"x": -2.8564314397,
				"y": -0.359947071,
				"z": -3.992736242,
				"element": "F" 
			},
			{
				"x": -3.8981873518,
				"y": 0.930701251,
				"z": -2.5891052945,
				"element": "F" 
			},
			{
				"x": 0.9620002363,
				"y": 0.8722861664,
				"z": -0.602572159,
				"element": "C" 
			},
			{
				"x": 1.6717495976,
				"y": 0.3034015571,
				"z": 0.4515003865,
				"element": "C" 
			},
			{
				"x": 2.6250210444,
				"y": -0.7422453715,
				"z": 2.6226239879,
				"element": "H" 
			},
			{
				"x": 1.5052316756,
				"y": -1.9677388498,
				"z": 2.8304933501,
				"element": "H" 
			},
			{
				"x": -0.3896734382,
				"y": -2.3098475115,
				"z": 1.318496601,
				"element": "H" 
			},
			{
				"x": 1.3288540366,
				"y": 1.7450893285,
				"z": -1.1304544878,
				"element": "H" 
			},
			{
				"x": 2.6217476999,
				"y": 0.7415514477,
				"z": 0.7450516739,
				"element": "H" 
			}
		],
		 "valence_orbital": [ 
			{
				"type": "occ",
				"energy": -0.34418,
				"method": "rhf"
			},
			{
				"type": "occ",
				"energy": -0.3147,
				"method": "rhf"
			},
			{
				"type": "occ",
				"energy": -0.30439,
				"method": "rhf"
			},
			{
				"type": "occ",
				"energy": -0.25123,
				"method": "rhf"
			},
			{
				"type": "occ",
				"energy": -0.21341,
				"method": "rhf"
			},
			{
				"type": "unocc",
				"energy": -0.04552,
				"method": "rhf"
			},
			{
				"type": "unocc",
				"energy": 0.00731,
				"method": "rhf"
			},
			{
				"type": "unocc",
				"energy": 0.02491,
				"method": "rhf"
			},
			{
				"type": "unocc",
				"energy": 0.07099,
				"method": "rhf"
			},
			{
				"type": "unocc",
				"energy": 0.09376,
				"method": "rhf"
			}
		],
		"cosmo_sigma_profile": { 
			"-0.025": 0.0,
			"-0.024": 0.0,
			"-0.023": 0.0,
			"-0.022": 0.0,
			"-0.021": 0.0,
			"-0.02": 0.0,
			"-0.019": 0.0,
			"-0.018": 0.0,
			"-0.017": 0.0,
			"-0.016": 0.0,
			"-0.015": 0.0,
			"-0.014": 0.0,
			"-0.013": 0.802646060961,
			"-0.012": 2.83589632521,
			"-0.011": 3.37729230945,
			"-0.01": 3.3468118149,
			"-0.009": 3.86010987288,
			"-0.008": 3.62841685897,
			"-0.007": 6.91194964179,
			"-0.006": 6.26869679189,
			"-0.005": 7.16459961066,
			"-0.004": 10.0425689771,
			"-0.003": 8.10462916114,
			"-0.002": 8.41586049102,
			"-0.001": 12.4918608953,
			"0.0": 14.1459235865,
			"0.001": 23.8134889995,
			"0.002": 40.5447685305,
			"0.003": 16.1484692489,
			"0.004": 12.7604886139,
			"0.005": 4.96547336541,
			"0.006": 3.52667859973,
			"0.007": 2.16759252464,
			"0.008": 1.70123603557,
			"0.009": 2.30373506076,
			"0.01": 1.76566316913,
			"0.011": 1.99551577207,
			"0.012": 1.09456205715,
			"0.013": 1.52596627409,
			"0.014": 1.21656809135,
			"0.015": 0.030003185394,
			"0.016": 0.0,
			"0.017": 0.0,
			"0.018": 0.0,
			"0.019": 0.0,
			"0.02": 0.0,
			"0.021": 0.0,
			"0.022": 0.0,
			"0.023": 0.0,
			"0.024": 0.0,
			"0.025": 0.0
		}
	}
}
