{
	 "smiles": "NC1=CC=CC(=C1)N1C=CC=CC1=O", 
	 "Tm": 455.15, 
	 "num_atms": 24, 
	 "gaussian": { 
		 "optdone": 1, 
		 "sigma_profile": "yes", 
		 "theory": "DFT", 
		 "functional": "B3LYP", 
		 "basiset": "6-31G**", 
		 "properties": { 
			 "R2extent": 2977.9991, 
			 "electric_dipole_moment_norm": 5.28129688808, 
			 "electric_quadrupole_moment_norm": 16.2576801531, 
			 "total_energy": -609.923658308, 
			 "HOMO_LUMO_gap": 0.1629, 
			 "cosmo_polarized_energy": -17.65, 
			 "cosmo_cavitation_energy": 28.07, 
			 "cosmo_dispersion_energy": -20.61, 
			 "cosmo_repulsion_energy": 1.62, 
			 "cosmo_total_nonelectrostatic_energy": 9.08, 
			 "SMD_solvation_energy": 5.68 
		},
		"coords": [
			{
				"x": -0.0616629174,
				"y": -2.7266333375,
				"z": -2.9531382923,
				"element": "N" 
			},
			{
				"x": 0.2041734035,
				"y": -1.4308892987,
				"z": -2.5087136915,
				"element": "C" 
			},
			{
				"x": 0.5721692509,
				"y": -0.4196895875,
				"z": -3.4113440886,
				"element": "C" 
			},
			{
				"x": 0.7637941523,
				"y": 0.8850856816,
				"z": -2.9628071752,
				"element": "C" 
			},
			{
				"x": 0.6102050105,
				"y": 1.2213950034,
				"z": -1.618795526,
				"element": "C" 
			},
			{
				"x": 0.2527895023,
				"y": 0.2139173523,
				"z": -0.719506223,
				"element": "C" 
			},
			{
				"x": 0.0414219549,
				"y": -1.0957831592,
				"z": -1.1541392501,
				"element": "C" 
			},
			{
				"x": 0.1274748716,
				"y": 0.5004258603,
				"z": 0.6868718233,
				"element": "N" 
			},
			{
				"x": 0.8049022413,
				"y": -0.2922208643,
				"z": 1.5821024088,
				"element": "C" 
			},
			{
				"x": 0.6980269365,
				"y": -0.1257031,
				"z": 2.9305471817,
				"element": "C" 
			},
			{
				"x": -0.1492354008,
				"y": 0.9096817411,
				"z": 3.4182487526,
				"element": "C" 
			},
			{
				"x": -0.8235937162,
				"y": 1.7174150874,
				"z": 2.551061647,
				"element": "C" 
			},
			{
				"x": -0.7247966588,
				"y": 1.5775588474,
				"z": 1.109459711,
				"element": "C" 
			},
			{
				"x": -1.301833031,
				"y": 2.2845458807,
				"z": 0.2912320283,
				"element": "O" 
			},
			{
				"x": 0.0289325475,
				"y": -3.4537095726,
				"z": -2.2575270636,
				"element": "H" 
			},
			{
				"x": 0.3757342654,
				"y": -2.9809864947,
				"z": -3.8276766419,
				"element": "H" 
			},
			{
				"x": 0.6935899203,
				"y": -0.659310973,
				"z": -4.4646174477,
				"element": "H" 
			},
			{
				"x": 1.0439082103,
				"y": 1.6553366004,
				"z": -3.6754476881,
				"element": "H" 
			},
			{
				"x": 0.748908895,
				"y": 2.2366568197,
				"z": -1.2731449254,
				"element": "H" 
			},
			{
				"x": -0.2785098373,
				"y": -1.8540498485,
				"z": -0.444826725,
				"element": "H" 
			},
			{
				"x": 1.4431399287,
				"y": -1.0455187801,
				"z": 1.1358688637,
				"element": "H" 
			},
			{
				"x": 1.2598100631,
				"y": -0.7652919684,
				"z": 3.5998837785,
				"element": "H" 
			},
			{
				"x": -0.253045347,
				"y": 1.05796965,
				"z": 4.4900521828,
				"element": "H" 
			},
			{
				"x": -1.4754042455,
				"y": 2.5137984601,
				"z": 2.8914563606,
				"element": "H" 
			}
		],
		 "valence_orbital": [ 
			{
				"type": "occ",
				"energy": -0.2944,
				"method": "rhf"
			},
			{
				"type": "occ",
				"energy": -0.25085,
				"method": "rhf"
			},
			{
				"type": "occ",
				"energy": -0.24195,
				"method": "rhf"
			},
			{
				"type": "occ",
				"energy": -0.21142,
				"method": "rhf"
			},
			{
				"type": "occ",
				"energy": -0.20315,
				"method": "rhf"
			},
			{
				"type": "unocc",
				"energy": -0.04025,
				"method": "rhf"
			},
			{
				"type": "unocc",
				"energy": -0.00087,
				"method": "rhf"
			},
			{
				"type": "unocc",
				"energy": 0.01496,
				"method": "rhf"
			},
			{
				"type": "unocc",
				"energy": 0.02174,
				"method": "rhf"
			},
			{
				"type": "unocc",
				"energy": 0.07555,
				"method": "rhf"
			}
		],
		"cosmo_sigma_profile": { 
			"-0.025": 0.0,
			"-0.024": 0.0,
			"-0.023": 0.0,
			"-0.022": 0.0,
			"-0.021": 0.0,
			"-0.02": 0.0,
			"-0.019": 0.0,
			"-0.018": 0.0,
			"-0.017": 0.0,
			"-0.016": 0.0,
			"-0.015": 0.0,
			"-0.014": 0.0,
			"-0.013": 0.592405685787,
			"-0.012": 2.9029991323,
			"-0.011": 2.76383837702,
			"-0.01": 3.43583291441,
			"-0.009": 3.83648246767,
			"-0.008": 5.04049954846,
			"-0.007": 8.99803875669,
			"-0.006": 14.1744276598,
			"-0.005": 16.2313000416,
			"-0.004": 14.7663008065,
			"-0.003": 12.7270387339,
			"-0.002": 11.6696327568,
			"-0.001": 13.1451580539,
			"0.0": 14.0202942804,
			"0.001": 13.3672485111,
			"0.002": 14.3814001385,
			"0.003": 15.7641181124,
			"0.004": 11.6564538409,
			"0.005": 10.5648304427,
			"0.006": 7.63522263951,
			"0.007": 2.47128915534,
			"0.008": 2.49486922833,
			"0.009": 2.33771988542,
			"0.01": 2.736482881,
			"0.011": 2.21702461857,
			"0.012": 2.37622337767,
			"0.013": 2.64858314657,
			"0.014": 6.23013669193,
			"0.015": 2.99467925646,
			"0.016": 0.193106134495,
			"0.017": 0.0,
			"0.018": 0.0,
			"0.019": 0.0,
			"0.02": 0.0,
			"0.021": 0.0,
			"0.022": 0.0,
			"0.023": 0.0,
			"0.024": 0.0,
			"0.025": 0.0
		}
	}
}
