{
	 "smiles": "CCN1N=NN(CCN2CCC(COC)(CC2)N(C(=O)CC)C2=CC=CC=C2)C1=O", 
	 "Tm": 414.15, 
	 "num_atms": 62, 
	 "gaussian": { 
		 "optdone": 1, 
		 "sigma_profile": "yes", 
		 "theory": "DFT", 
		 "functional": "B3LYP", 
		 "basiset": "6-31G**", 
		 "properties": { 
			 "R2extent": 15428.9193, 
			 "electric_dipole_moment_norm": 3.63279366191, 
			 "electric_quadrupole_moment_norm": 19.403763243, 
			 "total_energy": -1373.6593172, 
			 "HOMO_LUMO_gap": 0.18972, 
			 "cosmo_polarized_energy": -20.73, 
			 "cosmo_cavitation_energy": 60.64, 
			 "cosmo_dispersion_energy": -39.48, 
			 "cosmo_repulsion_energy": 3.07, 
			 "cosmo_total_nonelectrostatic_energy": 24.24, 
			 "SMD_solvation_energy": 8.4 
		},
		"coords": [
			{
				"x": 5.1048124432,
				"y": 3.317976545,
				"z": -1.4513823276,
				"element": "C" 
			},
			{
				"x": 4.8821292683,
				"y": 3.3782733638,
				"z": -2.9627310377,
				"element": "C" 
			},
			{
				"x": 3.5356734027,
				"y": 2.9835209006,
				"z": -3.3480398205,
				"element": "N" 
			},
			{
				"x": 2.4553779365,
				"y": 3.7852376614,
				"z": -3.1394983925,
				"element": "N" 
			},
			{
				"x": 1.416182337,
				"y": 3.174234218,
				"z": -3.5569474901,
				"element": "N" 
			},
			{
				"x": 1.7955143691,
				"y": 1.9561154878,
				"z": -4.0352099099,
				"element": "N" 
			},
			{
				"x": 0.8563766682,
				"y": 1.0160340683,
				"z": -4.6345723321,
				"element": "C" 
			},
			{
				"x": 0.5966803377,
				"y": -0.2610935232,
				"z": -3.8172188913,
				"element": "C" 
			},
			{
				"x": -0.4699645955,
				"y": -0.1457609524,
				"z": -2.827446934,
				"element": "N" 
			},
			{
				"x": -0.9181745787,
				"y": -1.474590625,
				"z": -2.401322949,
				"element": "C" 
			},
			{
				"x": -2.0972747351,
				"y": -1.3972185377,
				"z": -1.4255867311,
				"element": "C" 
			},
			{
				"x": -1.8846314456,
				"y": -0.4866247082,
				"z": -0.1942804325,
				"element": "C" 
			},
			{
				"x": -3.2537546799,
				"y": -0.2419504312,
				"z": 0.4877434106,
				"element": "C" 
			},
			{
				"x": -4.1491226642,
				"y": 0.3485017775,
				"z": -0.4386927087,
				"element": "O" 
			},
			{
				"x": -5.3882692482,
				"y": 0.6921415437,
				"z": 0.1425715615,
				"element": "C" 
			},
			{
				"x": -1.2946023874,
				"y": 0.8438099548,
				"z": -0.7190425964,
				"element": "C" 
			},
			{
				"x": -0.1029733039,
				"y": 0.6602051465,
				"z": -1.6572545172,
				"element": "C" 
			},
			{
				"x": -0.9793876921,
				"y": -1.1247081427,
				"z": 0.8452515949,
				"element": "N" 
			},
			{
				"x": -0.6122111061,
				"y": -0.4126494109,
				"z": 1.9840100165,
				"element": "C" 
			},
			{
				"x": -0.9617473818,
				"y": 0.7474716318,
				"z": 2.1811810781,
				"element": "O" 
			},
			{
				"x": 0.2654968302,
				"y": -1.1323695829,
				"z": 3.0151775551,
				"element": "C" 
			},
			{
				"x": 0.586804068,
				"y": -0.2370793464,
				"z": 4.2111084809,
				"element": "C" 
			},
			{
				"x": -0.6997401951,
				"y": -2.5399771246,
				"z": 0.8038905438,
				"element": "C" 
			},
			{
				"x": -1.6519579787,
				"y": -3.4701492984,
				"z": 1.2423062769,
				"element": "C" 
			},
			{
				"x": -1.3694416249,
				"y": -4.8368732462,
				"z": 1.2171366454,
				"element": "C" 
			},
			{
				"x": -0.1270949181,
				"y": -5.2888212199,
				"z": 0.7682751248,
				"element": "C" 
			},
			{
				"x": 0.8311294472,
				"y": -4.3668870558,
				"z": 0.3436132307,
				"element": "C" 
			},
			{
				"x": 0.5449753634,
				"y": -3.0008393512,
				"z": 0.3577643813,
				"element": "C" 
			},
			{
				"x": 3.1664961744,
				"y": 1.7803264732,
				"z": -3.9314165641,
				"element": "C" 
			},
			{
				"x": 3.858830797,
				"y": 0.830623412,
				"z": -4.2695091159,
				"element": "O" 
			},
			{
				"x": 6.1246565716,
				"y": 3.6347792392,
				"z": -1.2123308212,
				"element": "H" 
			},
			{
				"x": 4.4070241579,
				"y": 3.979570842,
				"z": -0.9308350524,
				"element": "H" 
			},
			{
				"x": 4.9645160205,
				"y": 2.299756539,
				"z": -1.0773915912,
				"element": "H" 
			},
			{
				"x": 5.0582801851,
				"y": 4.3875494784,
				"z": -3.3463590696,
				"element": "H" 
			},
			{
				"x": 5.5461473589,
				"y": 2.6880086497,
				"z": -3.4899318663,
				"element": "H" 
			},
			{
				"x": 1.2748148814,
				"y": 0.7335354995,
				"z": -5.6057092307,
				"element": "H" 
			},
			{
				"x": -0.0773749181,
				"y": 1.5585296519,
				"z": -4.7953220921,
				"element": "H" 
			},
			{
				"x": 1.5543624237,
				"y": -0.6102615155,
				"z": -3.3871308738,
				"element": "H" 
			},
			{
				"x": 0.2866416179,
				"y": -1.0267855855,
				"z": -4.537680209,
				"element": "H" 
			},
			{
				"x": -1.2443388471,
				"y": -2.0295645421,
				"z": -3.2896790618,
				"element": "H" 
			},
			{
				"x": -0.0885654184,
				"y": -2.0538502704,
				"z": -1.9579245932,
				"element": "H" 
			},
			{
				"x": -2.3864111552,
				"y": -2.4087766522,
				"z": -1.1259931272,
				"element": "H" 
			},
			{
				"x": -2.9516828546,
				"y": -0.9664818223,
				"z": -1.9540443067,
				"element": "H" 
			},
			{
				"x": -3.6608217366,
				"y": -1.2059300097,
				"z": 0.8393392256,
				"element": "H" 
			},
			{
				"x": -3.1125938551,
				"y": 0.4115511768,
				"z": 1.3563251209,
				"element": "H" 
			},
			{
				"x": -5.9985054467,
				"y": 1.1500217805,
				"z": -0.6398049965,
				"element": "H" 
			},
			{
				"x": -5.2669185743,
				"y": 1.4106572434,
				"z": 0.9677348184,
				"element": "H" 
			},
			{
				"x": -5.9169434797,
				"y": -0.1925797218,
				"z": 0.5326912514,
				"element": "H" 
			},
			{
				"x": -1.0187909008,
				"y": 1.4864274677,
				"z": 0.1156573499,
				"element": "H" 
			},
			{
				"x": -2.0969426489,
				"y": 1.339975583,
				"z": -1.2728072924,
				"element": "H" 
			},
			{
				"x": 0.7521329524,
				"y": 0.2083375286,
				"z": -1.1129465997,
				"element": "H" 
			},
			{
				"x": 0.2201675404,
				"y": 1.6483133336,
				"z": -1.9914662816,
				"element": "H" 
			},
			{
				"x": -0.2400890229,
				"y": -2.0483457246,
				"z": 3.3422658004,
				"element": "H" 
			},
			{
				"x": 1.1871773535,
				"y": -1.4720410202,
				"z": 2.5293880373,
				"element": "H" 
			},
			{
				"x": 1.2142685122,
				"y": -0.7760868278,
				"z": 4.9277734067,
				"element": "H" 
			},
			{
				"x": 1.1140806552,
				"y": 0.6663914864,
				"z": 3.8956288463,
				"element": "H" 
			},
			{
				"x": -0.3259423491,
				"y": 0.0834469757,
				"z": 4.7192247942,
				"element": "H" 
			},
			{
				"x": -2.6107790497,
				"y": -3.1170388156,
				"z": 1.6086947644,
				"element": "H" 
			},
			{
				"x": -2.1182958015,
				"y": -5.5466708307,
				"z": 1.5563868875,
				"element": "H" 
			},
			{
				"x": 0.0939271286,
				"y": -6.3519310766,
				"z": 0.7532875262,
				"element": "H" 
			},
			{
				"x": 1.8022092927,
				"y": -4.7088408809,
				"z": -0.0022395677,
				"element": "H" 
			},
			{
				"x": 1.2865584992,
				"y": -2.2800468073,
				"z": 0.0285216538,
				"element": "H" 
			}
		],
		 "valence_orbital": [ 
			{
				"type": "occ",
				"energy": -0.25237,
				"method": "rhf"
			},
			{
				"type": "occ",
				"energy": -0.24536,
				"method": "rhf"
			},
			{
				"type": "occ",
				"energy": -0.23885,
				"method": "rhf"
			},
			{
				"type": "occ",
				"energy": -0.23411,
				"method": "rhf"
			},
			{
				"type": "occ",
				"energy": -0.21,
				"method": "rhf"
			},
			{
				"type": "unocc",
				"energy": -0.02028,
				"method": "rhf"
			},
			{
				"type": "unocc",
				"energy": -0.01786,
				"method": "rhf"
			},
			{
				"type": "unocc",
				"energy": -0.0175,
				"method": "rhf"
			},
			{
				"type": "unocc",
				"energy": 0.02542,
				"method": "rhf"
			},
			{
				"type": "unocc",
				"energy": 0.04853,
				"method": "rhf"
			}
		],
		"cosmo_sigma_profile": { 
			"-0.025": 0.0,
			"-0.024": 0.0,
			"-0.023": 0.0,
			"-0.022": 0.0,
			"-0.021": 0.0,
			"-0.02": 0.0,
			"-0.019": 0.0,
			"-0.018": 0.0,
			"-0.017": 0.0,
			"-0.016": 0.0,
			"-0.015": 0.0,
			"-0.014": 0.0,
			"-0.013": 0.0,
			"-0.012": 0.0,
			"-0.011": 0.0,
			"-0.01": 0.0,
			"-0.009": 0.0,
			"-0.008": 0.0,
			"-0.007": 4.05597970493,
			"-0.006": 17.3117256025,
			"-0.005": 30.7246533071,
			"-0.004": 49.8454397471,
			"-0.003": 58.1757789147,
			"-0.002": 60.7433379624,
			"-0.001": 55.4168277773,
			"0.0": 39.7618258245,
			"0.001": 31.1493130682,
			"0.002": 19.1477500422,
			"0.003": 16.2604437755,
			"0.004": 16.3840979392,
			"0.005": 13.8892667435,
			"0.006": 10.094919792,
			"0.007": 8.84376069648,
			"0.008": 8.11220440698,
			"0.009": 7.27145501079,
			"0.01": 5.50467398819,
			"0.011": 5.91369273091,
			"0.012": 4.52626295664,
			"0.013": 8.61978965958,
			"0.014": 2.780612702,
			"0.015": 0.407379108003,
			"0.016": 0.0,
			"0.017": 0.0,
			"0.018": 0.0,
			"0.019": 0.0,
			"0.02": 0.0,
			"0.021": 0.0,
			"0.022": 0.0,
			"0.023": 0.0,
			"0.024": 0.0,
			"0.025": 0.0
		}
	}
}
