{
	 "smiles": "OC(=O)C1=CC=CN1CC1=CC=NC=C1", 
	 "Tm": 473.15, 
	 "num_atms": 25, 
	 "gaussian": { 
		 "optdone": 1, 
		 "sigma_profile": "yes", 
		 "theory": "DFT", 
		 "functional": "B3LYP", 
		 "basiset": "6-31G**", 
		 "properties": { 
			 "R2extent": 3340.106, 
			 "electric_dipole_moment_norm": 4.22430145941, 
			 "electric_quadrupole_moment_norm": 13.711776273, 
			 "total_energy": -685.141063677, 
			 "HOMO_LUMO_gap": 0.19678, 
			 "cosmo_polarized_energy": -17.01, 
			 "cosmo_cavitation_energy": 29.22, 
			 "cosmo_dispersion_energy": -20.97, 
			 "cosmo_repulsion_energy": 1.61, 
			 "cosmo_total_nonelectrostatic_energy": 9.86, 
			 "SMD_solvation_energy": 4.64 
		},
		"coords": [
			{
				"x": 1.733554806,
				"y": 2.9307393674,
				"z": 0.1696043832,
				"element": "O" 
			},
			{
				"x": 0.7335879598,
				"y": 2.014158127,
				"z": 0.2572387365,
				"element": "C" 
			},
			{
				"x": 0.406923498,
				"y": 1.5960291491,
				"z": 1.3526161616,
				"element": "O" 
			},
			{
				"x": 0.1235108007,
				"y": 1.6227480096,
				"z": -1.019125539,
				"element": "C" 
			},
			{
				"x": 0.2143094395,
				"y": 2.2434945981,
				"z": -2.26526787,
				"element": "C" 
			},
			{
				"x": -0.6042549469,
				"y": 1.5329913975,
				"z": -3.1653015603,
				"element": "C" 
			},
			{
				"x": -1.177632056,
				"y": 0.4971552299,
				"z": -2.4481168479,
				"element": "C" 
			},
			{
				"x": -0.7525097048,
				"y": 0.5535799842,
				"z": -1.1521758103,
				"element": "N" 
			},
			{
				"x": -1.1051854414,
				"y": -0.4492425044,
				"z": -0.1326540069,
				"element": "C" 
			},
			{
				"x": -0.1247633722,
				"y": -1.6077407447,
				"z": -0.0713434248,
				"element": "C" 
			},
			{
				"x": -0.2651250536,
				"y": -2.7193792393,
				"z": -0.9081605927,
				"element": "C" 
			},
			{
				"x": 0.6642006144,
				"y": -3.7559989642,
				"z": -0.8218700849,
				"element": "C" 
			},
			{
				"x": 1.6988707041,
				"y": -3.7575087591,
				"z": 0.0277478656,
				"element": "N" 
			},
			{
				"x": 1.8241780111,
				"y": -2.6919920318,
				"z": 0.8291186328,
				"element": "C" 
			},
			{
				"x": 0.9510637339,
				"y": -1.602705253,
				"z": 0.8222851428,
				"element": "C" 
			},
			{
				"x": 1.9843830939,
				"y": 3.0621341228,
				"z": -0.7553245109,
				"element": "H" 
			},
			{
				"x": 0.7673354541,
				"y": 3.1466114337,
				"z": -2.490538651,
				"element": "H" 
			},
			{
				"x": -0.7745937168,
				"y": 1.7548547234,
				"z": -4.2087533397,
				"element": "H" 
			},
			{
				"x": -1.862128057,
				"y": -0.2762463641,
				"z": -2.7657217205,
				"element": "H" 
			},
			{
				"x": -1.153931355,
				"y": 0.0620486468,
				"z": 0.8268353314,
				"element": "H" 
			},
			{
				"x": -2.1021264138,
				"y": -0.8162188223,
				"z": -0.3917862355,
				"element": "H" 
			},
			{
				"x": -1.0878530841,
				"y": -2.7865870621,
				"z": -1.6153389444,
				"element": "H" 
			},
			{
				"x": 0.5690325511,
				"y": -4.6300200698,
				"z": -1.4642386635,
				"element": "H" 
			},
			{
				"x": 2.6667543882,
				"y": -2.7083826491,
				"z": 1.5183541378,
				"element": "H" 
			},
			{
				"x": 1.1028981466,
				"y": -0.7654223257,
				"z": 1.4955174104,
				"element": "H" 
			}
		],
		 "valence_orbital": [ 
			{
				"type": "occ",
				"energy": -0.27768,
				"method": "rhf"
			},
			{
				"type": "occ",
				"energy": -0.26441,
				"method": "rhf"
			},
			{
				"type": "occ",
				"energy": -0.26335,
				"method": "rhf"
			},
			{
				"type": "occ",
				"energy": -0.25301,
				"method": "rhf"
			},
			{
				"type": "occ",
				"energy": -0.23828,
				"method": "rhf"
			},
			{
				"type": "unocc",
				"energy": -0.0415,
				"method": "rhf"
			},
			{
				"type": "unocc",
				"energy": -0.02872,
				"method": "rhf"
			},
			{
				"type": "unocc",
				"energy": -0.01434,
				"method": "rhf"
			},
			{
				"type": "unocc",
				"energy": 0.04244,
				"method": "rhf"
			},
			{
				"type": "unocc",
				"energy": 0.06026,
				"method": "rhf"
			}
		],
		"cosmo_sigma_profile": { 
			"-0.025": 0.0,
			"-0.024": 0.0,
			"-0.023": 0.0,
			"-0.022": 0.0,
			"-0.021": 0.0,
			"-0.02": 0.0,
			"-0.019": 0.0,
			"-0.018": 0.438863426386,
			"-0.017": 1.09544161062,
			"-0.016": 0.971558571152,
			"-0.015": 1.19209636926,
			"-0.014": 0.979485775712,
			"-0.013": 0.674995553078,
			"-0.012": 0.893326305403,
			"-0.011": 1.52050155246,
			"-0.01": 1.37945114771,
			"-0.009": 3.74947879687,
			"-0.008": 5.9421598212,
			"-0.007": 8.6906408379,
			"-0.006": 12.9349188676,
			"-0.005": 15.0083473893,
			"-0.004": 14.5736034602,
			"-0.003": 14.4876967998,
			"-0.002": 12.6501052411,
			"-0.001": 14.7348940211,
			"0.0": 14.1843941041,
			"0.001": 15.6491305711,
			"0.002": 21.5370924379,
			"0.003": 14.4472732217,
			"0.004": 9.96777010477,
			"0.005": 9.2418006508,
			"0.006": 5.99062301152,
			"0.007": 3.62316339137,
			"0.008": 4.18315021571,
			"0.009": 4.12764339174,
			"0.01": 4.22986010345,
			"0.011": 5.32850224149,
			"0.012": 3.67249690111,
			"0.013": 2.99356895329,
			"0.014": 1.18924879152,
			"0.015": 1.0355798782,
			"0.016": 0.757343455289,
			"0.017": 0.439963871044,
			"0.018": 0.0,
			"0.019": 0.0,
			"0.02": 0.0,
			"0.021": 0.0,
			"0.022": 0.0,
			"0.023": 0.0,
			"0.024": 0.0,
			"0.025": 0.0
		}
	}
}
