{
	 "smiles": "CC1=C(Cl)C=C(NC(=O)CCl)C=C1", 
	 "Tm": 347.15, 
	 "num_atms": 22, 
	 "gaussian": { 
		 "optdone": 1, 
		 "sigma_profile": "yes", 
		 "theory": "DFT", 
		 "functional": "B3LYP", 
		 "basiset": "6-31G**", 
		 "properties": { 
			 "R2extent": 4637.1252, 
			 "electric_dipole_moment_norm": 0.293144691236, 
			 "electric_quadrupole_moment_norm": 8.58819922102, 
			 "total_energy": -1398.77071857, 
			 "HOMO_LUMO_gap": 0.20215, 
			 "cosmo_polarized_energy": -10.06, 
			 "cosmo_cavitation_energy": 29.55, 
			 "cosmo_dispersion_energy": -21.99, 
			 "cosmo_repulsion_energy": 1.75, 
			 "cosmo_total_nonelectrostatic_energy": 9.31, 
			 "SMD_solvation_energy": 5.03 
		},
		"coords": [
			{
				"x": 0.3132086192,
				"y": 2.7579653396,
				"z": -2.6463309931,
				"element": "C" 
			},
			{
				"x": 0.1412025306,
				"y": 1.7061248124,
				"z": -1.5817835575,
				"element": "C" 
			},
			{
				"x": -0.9845089002,
				"y": 1.6545197847,
				"z": -0.7469894532,
				"element": "C" 
			},
			{
				"x": -2.2638887502,
				"y": 2.8536809453,
				"z": -0.9271228661,
				"element": "Cl" 
			},
			{
				"x": -1.1430537497,
				"y": 0.6835734217,
				"z": 0.2354645322,
				"element": "C" 
			},
			{
				"x": -0.1529776558,
				"y": -0.2915419417,
				"z": 0.4172668482,
				"element": "C" 
			},
			{
				"x": -0.3743123429,
				"y": -1.248791378,
				"z": 1.4317097147,
				"element": "N" 
			},
			{
				"x": 0.426927279,
				"y": -2.2861499025,
				"z": 1.7990823144,
				"element": "C" 
			},
			{
				"x": 1.506512688,
				"y": -2.5804799895,
				"z": 1.3047669313,
				"element": "O" 
			},
			{
				"x": -0.0669050496,
				"y": -3.1777859428,
				"z": 2.9450309379,
				"element": "C" 
			},
			{
				"x": -1.667250883,
				"y": -2.7590989013,
				"z": 3.6953601265,
				"element": "Cl" 
			},
			{
				"x": 0.9871528388,
				"y": -0.2742654121,
				"z": -0.3967599388,
				"element": "C" 
			},
			{
				"x": 1.1087189672,
				"y": 0.7151240862,
				"z": -1.3699514625,
				"element": "C" 
			},
			{
				"x": -0.5012898139,
				"y": 2.7243601231,
				"z": -3.3780317659,
				"element": "H" 
			},
			{
				"x": 1.2566816584,
				"y": 2.6152090965,
				"z": -3.1788727679,
				"element": "H" 
			},
			{
				"x": 0.3113240835,
				"y": 3.7659736838,
				"z": -2.2175694916,
				"element": "H" 
			},
			{
				"x": -2.0349247794,
				"y": 0.6899223243,
				"z": 0.8542867675,
				"element": "H" 
			},
			{
				"x": -1.2370630152,
				"y": -1.153493797,
				"z": 1.9523508437,
				"element": "H" 
			},
			{
				"x": -0.1453904858,
				"y": -4.1986601738,
				"z": 2.5706492919,
				"element": "H" 
			},
			{
				"x": 0.6775883367,
				"y": -3.1504093443,
				"z": 3.7409339606,
				"element": "H" 
			},
			{
				"x": 1.7541771629,
				"y": -1.0231448499,
				"z": -0.261954183,
				"element": "H" 
			},
			{
				"x": 1.9967712612,
				"y": 0.7199680153,
				"z": -1.9962357893,
				"element": "H" 
			}
		],
		 "valence_orbital": [ 
			{
				"type": "occ",
				"energy": -0.31538,
				"method": "rhf"
			},
			{
				"type": "occ",
				"energy": -0.30584,
				"method": "rhf"
			},
			{
				"type": "occ",
				"energy": -0.27138,
				"method": "rhf"
			},
			{
				"type": "occ",
				"energy": -0.25363,
				"method": "rhf"
			},
			{
				"type": "occ",
				"energy": -0.23,
				"method": "rhf"
			},
			{
				"type": "unocc",
				"energy": -0.02785,
				"method": "rhf"
			},
			{
				"type": "unocc",
				"energy": -0.01587,
				"method": "rhf"
			},
			{
				"type": "unocc",
				"energy": 0.00395,
				"method": "rhf"
			},
			{
				"type": "unocc",
				"energy": 0.02707,
				"method": "rhf"
			},
			{
				"type": "unocc",
				"energy": 0.02976,
				"method": "rhf"
			}
		],
		"cosmo_sigma_profile": { 
			"-0.025": 0.0,
			"-0.024": 0.0,
			"-0.023": 0.0,
			"-0.022": 0.0,
			"-0.021": 0.0,
			"-0.02": 0.0,
			"-0.019": 0.0,
			"-0.018": 0.0,
			"-0.017": 0.0,
			"-0.016": 0.0,
			"-0.015": 0.0,
			"-0.014": 0.528613154756,
			"-0.013": 1.09663618311,
			"-0.012": 0.81409445809,
			"-0.011": 1.06214752678,
			"-0.01": 1.87104969071,
			"-0.009": 5.18803029065,
			"-0.008": 5.96168250066,
			"-0.007": 5.74866318094,
			"-0.006": 9.27965136048,
			"-0.005": 11.756983858,
			"-0.004": 13.3697977497,
			"-0.003": 12.1406097979,
			"-0.002": 15.1790313271,
			"-0.001": 18.4451684951,
			"0.0": 21.5311680622,
			"0.001": 19.252207549,
			"0.002": 21.2211364917,
			"0.003": 23.2182415435,
			"0.004": 22.1285011616,
			"0.005": 14.7743372013,
			"0.006": 2.78240477106,
			"0.007": 0.68186115914,
			"0.008": 1.52717221735,
			"0.009": 1.81499187396,
			"0.01": 1.8212011015,
			"0.011": 2.48471772717,
			"0.012": 2.89324600791,
			"0.013": 1.6259269136,
			"0.014": 0.0,
			"0.015": 0.0,
			"0.016": 0.0,
			"0.017": 0.0,
			"0.018": 0.0,
			"0.019": 0.0,
			"0.02": 0.0,
			"0.021": 0.0,
			"0.022": 0.0,
			"0.023": 0.0,
			"0.024": 0.0,
			"0.025": 0.0
		}
	}
}
