{
	 "smiles": "COC(=O)C1=CC=C(N)C(C)=C1", 
	 "Tm": 389.15, 
	 "num_atms": 23, 
	 "gaussian": { 
		 "optdone": 1, 
		 "sigma_profile": "yes", 
		 "theory": "DFT", 
		 "functional": "B3LYP", 
		 "basiset": "6-31G**", 
		 "properties": { 
			 "R2extent": 2939.5633, 
			 "electric_dipole_moment_norm": 3.77025896856, 
			 "electric_quadrupole_moment_norm": 18.3231415579, 
			 "total_energy": -554.812136407, 
			 "HOMO_LUMO_gap": 0.18326, 
			 "cosmo_polarized_energy": -12.92, 
			 "cosmo_cavitation_energy": 26.78, 
			 "cosmo_dispersion_energy": -19.75, 
			 "cosmo_repulsion_energy": 1.58, 
			 "cosmo_total_nonelectrostatic_energy": 8.61, 
			 "SMD_solvation_energy": 6.11 
		},
		"coords": [
			{
				"x": 3.3602070272,
				"y": 0.2266741088,
				"z": -3.4084164512,
				"element": "C" 
			},
			{
				"x": 2.3873183038,
				"y": -0.0261707112,
				"z": -2.3873205934,
				"element": "O" 
			},
			{
				"x": 1.1027772176,
				"y": 0.2489786335,
				"z": -2.7361865161,
				"element": "C" 
			},
			{
				"x": 0.8019620497,
				"y": 0.6773343327,
				"z": -3.8361139728,
				"element": "O" 
			},
			{
				"x": 0.1438037619,
				"y": -0.0294140659,
				"z": -1.6442143061,
				"element": "C" 
			},
			{
				"x": -1.2169116143,
				"y": 0.2141689302,
				"z": -1.87696206,
				"element": "C" 
			},
			{
				"x": -2.1526914404,
				"y": -0.0352767773,
				"z": -0.885871687,
				"element": "C" 
			},
			{
				"x": -1.7555897222,
				"y": -0.5325727914,
				"z": 0.3697258421,
				"element": "C" 
			},
			{
				"x": -2.6966711261,
				"y": -0.7283006669,
				"z": 1.3716682007,
				"element": "N" 
			},
			{
				"x": -0.3825091058,
				"y": -0.7793563025,
				"z": 0.6213644027,
				"element": "C" 
			},
			{
				"x": 0.0598909057,
				"y": -1.2981249247,
				"z": 1.9674080616,
				"element": "C" 
			},
			{
				"x": 0.5375089376,
				"y": -0.5239168987,
				"z": -0.3913356998,
				"element": "C" 
			},
			{
				"x": 3.1597240368,
				"y": -0.380825339,
				"z": -4.2950138615,
				"element": "H" 
			},
			{
				"x": 4.3230951869,
				"y": -0.0412800454,
				"z": -2.9722564602,
				"element": "H" 
			},
			{
				"x": 3.3524702814,
				"y": 1.2803476906,
				"z": -3.6999205077,
				"element": "H" 
			},
			{
				"x": -1.5193571035,
				"y": 0.5960115615,
				"z": -2.8462116294,
				"element": "H" 
			},
			{
				"x": -3.2071486395,
				"y": 0.1549633559,
				"z": -1.0714145589,
				"element": "H" 
			},
			{
				"x": -3.6583413896,
				"y": -0.7869661948,
				"z": 1.0692150268,
				"element": "H" 
			},
			{
				"x": -2.466658036,
				"y": -1.4005890529,
				"z": 2.0883220556,
				"element": "H" 
			},
			{
				"x": -0.3617772794,
				"y": -2.289524241,
				"z": 2.1878479834,
				"element": "H" 
			},
			{
				"x": 1.1472907089,
				"y": -1.3951711339,
				"z": 2.0102715262,
				"element": "H" 
			},
			{
				"x": -0.2499286595,
				"y": -0.6285810713,
				"z": 2.7798077334,
				"element": "H" 
			},
			{
				"x": 1.5902356987,
				"y": -0.7111083961,
				"z": -0.2071925284,
				"element": "H" 
			}
		],
		 "valence_orbital": [ 
			{
				"type": "occ",
				"energy": -0.30874,
				"method": "rhf"
			},
			{
				"type": "occ",
				"energy": -0.28765,
				"method": "rhf"
			},
			{
				"type": "occ",
				"energy": -0.25864,
				"method": "rhf"
			},
			{
				"type": "occ",
				"energy": -0.24486,
				"method": "rhf"
			},
			{
				"type": "occ",
				"energy": -0.20725,
				"method": "rhf"
			},
			{
				"type": "unocc",
				"energy": -0.02399,
				"method": "rhf"
			},
			{
				"type": "unocc",
				"energy": 0.00397,
				"method": "rhf"
			},
			{
				"type": "unocc",
				"energy": 0.06719,
				"method": "rhf"
			},
			{
				"type": "unocc",
				"energy": 0.07585,
				"method": "rhf"
			},
			{
				"type": "unocc",
				"energy": 0.10445,
				"method": "rhf"
			}
		],
		"cosmo_sigma_profile": { 
			"-0.025": 0.0,
			"-0.024": 0.0,
			"-0.023": 0.0,
			"-0.022": 0.0,
			"-0.021": 0.0,
			"-0.02": 0.0,
			"-0.019": 0.0,
			"-0.018": 0.0,
			"-0.017": 0.0,
			"-0.016": 0.0,
			"-0.015": 0.0,
			"-0.014": 0.0,
			"-0.013": 1.15837815873,
			"-0.012": 2.22427801964,
			"-0.011": 2.99544179094,
			"-0.01": 3.34314375247,
			"-0.009": 2.56705799018,
			"-0.008": 2.86056396006,
			"-0.007": 3.52739036342,
			"-0.006": 6.48786947312,
			"-0.005": 14.0425372248,
			"-0.004": 17.2400038239,
			"-0.003": 17.6455765636,
			"-0.002": 15.8849296473,
			"-0.001": 14.9013826607,
			"0.0": 14.3583376692,
			"0.001": 12.1199792977,
			"0.002": 11.8315866833,
			"0.003": 13.584405228,
			"0.004": 13.1694071425,
			"0.005": 14.147783716,
			"0.006": 6.417607309,
			"0.007": 4.2460307431,
			"0.008": 2.20548772273,
			"0.009": 1.89922789622,
			"0.01": 2.04724723865,
			"0.011": 2.88137648125,
			"0.012": 4.18688304241,
			"0.013": 3.82860174809,
			"0.014": 0.0,
			"0.015": 0.0,
			"0.016": 0.0,
			"0.017": 0.0,
			"0.018": 0.0,
			"0.019": 0.0,
			"0.02": 0.0,
			"0.021": 0.0,
			"0.022": 0.0,
			"0.023": 0.0,
			"0.024": 0.0,
			"0.025": 0.0
		}
	}
}
