{
	 "smiles": "NC1=CC(NC(=O)C2CC2)=CC=C1", 
	 "Tm": 407.15, 
	 "num_atms": 25, 
	 "gaussian": { 
		 "optdone": 1, 
		 "sigma_profile": "yes", 
		 "theory": "DFT", 
		 "functional": "B3LYP", 
		 "basiset": "6-31G**", 
		 "properties": { 
			 "R2extent": 3216.0904, 
			 "electric_dipole_moment_norm": 4.37050533463, 
			 "electric_quadrupole_moment_norm": 15.6129220292, 
			 "total_energy": -573.013986701, 
			 "HOMO_LUMO_gap": 0.19761, 
			 "cosmo_polarized_energy": -14.89, 
			 "cosmo_cavitation_energy": 28.64, 
			 "cosmo_dispersion_energy": -20.6, 
			 "cosmo_repulsion_energy": 1.65, 
			 "cosmo_total_nonelectrostatic_energy": 9.7, 
			 "SMD_solvation_energy": 5.1 
		},
		"coords": [
			{
				"x": 2.2700938667,
				"y": -2.1061319762,
				"z": 1.8706726088,
				"element": "N" 
			},
			{
				"x": 1.7811063723,
				"y": -1.2124426081,
				"z": 0.9185708894,
				"element": "C" 
			},
			{
				"x": 0.4374153114,
				"y": -0.8035945716,
				"z": 0.9583813917,
				"element": "C" 
			},
			{
				"x": -0.0501649293,
				"y": 0.1277951659,
				"z": 0.0352818125,
				"element": "C" 
			},
			{
				"x": -1.3955616323,
				"y": 0.5678648423,
				"z": 0.07125966,
				"element": "N" 
			},
			{
				"x": -2.5801942654,
				"y": -0.1146951689,
				"z": 0.2761045627,
				"element": "C" 
			},
			{
				"x": -3.6264449736,
				"y": 0.5151837643,
				"z": 0.4018503667,
				"element": "O" 
			},
			{
				"x": -2.5512152127,
				"y": -1.6096615589,
				"z": 0.2897128392,
				"element": "C" 
			},
			{
				"x": -3.4228498636,
				"y": -2.3015996515,
				"z": 1.3296351585,
				"element": "C" 
			},
			{
				"x": -3.8405875495,
				"y": -2.3061649403,
				"z": -0.1043923144,
				"element": "C" 
			},
			{
				"x": 0.8132140998,
				"y": 0.6932947684,
				"z": -0.9142667128,
				"element": "C" 
			},
			{
				"x": 2.1512845266,
				"y": 0.3042490421,
				"z": -0.9333047313,
				"element": "C" 
			},
			{
				"x": 2.6391220943,
				"y": -0.6456201242,
				"z": -0.0398139094,
				"element": "C" 
			},
			{
				"x": 1.5850116654,
				"y": -2.7231720609,
				"z": 2.2835396164,
				"element": "H" 
			},
			{
				"x": 3.117183346,
				"y": -2.5928097614,
				"z": 1.6135590211,
				"element": "H" 
			},
			{
				"x": -0.2185227328,
				"y": -1.1888773021,
				"z": 1.7325360744,
				"element": "H" 
			},
			{
				"x": -1.5546984933,
				"y": 1.5578251295,
				"z": -0.0704867812,
				"element": "H" 
			},
			{
				"x": -1.620720543,
				"y": -2.0920751088,
				"z": 0.0168022791,
				"element": "H" 
			},
			{
				"x": -3.9670937494,
				"y": -1.6481039415,
				"z": 2.00355266,
				"element": "H" 
			},
			{
				"x": -3.0415934749,
				"y": -3.2167881425,
				"z": 1.7723960786,
				"element": "H" 
			},
			{
				"x": -4.6603891697,
				"y": -1.6545763098,
				"z": -0.3857500434,
				"element": "H" 
			},
			{
				"x": -3.7475075839,
				"y": -3.2257387323,
				"z": -0.6735101238,
				"element": "H" 
			},
			{
				"x": 0.4303007441,
				"y": 1.4119281339,
				"z": -1.63198398,
				"element": "H" 
			},
			{
				"x": 2.8236093357,
				"y": 0.7378464195,
				"z": -1.668262898,
				"element": "H" 
			},
			{
				"x": 3.6840028109,
				"y": -0.9427353069,
				"z": -0.0699835248,
				"element": "H" 
			}
		],
		 "valence_orbital": [ 
			{
				"type": "occ",
				"energy": -0.28984,
				"method": "rhf"
			},
			{
				"type": "occ",
				"energy": -0.27726,
				"method": "rhf"
			},
			{
				"type": "occ",
				"energy": -0.24774,
				"method": "rhf"
			},
			{
				"type": "occ",
				"energy": -0.22775,
				"method": "rhf"
			},
			{
				"type": "occ",
				"energy": -0.20627,
				"method": "rhf"
			},
			{
				"type": "unocc",
				"energy": -0.00866,
				"method": "rhf"
			},
			{
				"type": "unocc",
				"energy": 0.00659,
				"method": "rhf"
			},
			{
				"type": "unocc",
				"energy": 0.03661,
				"method": "rhf"
			},
			{
				"type": "unocc",
				"energy": 0.07478,
				"method": "rhf"
			},
			{
				"type": "unocc",
				"energy": 0.09579,
				"method": "rhf"
			}
		],
		"cosmo_sigma_profile": { 
			"-0.025": 0.0,
			"-0.024": 0.0,
			"-0.023": 0.0,
			"-0.022": 0.0,
			"-0.021": 0.0,
			"-0.02": 0.0,
			"-0.019": 0.0,
			"-0.018": 0.0,
			"-0.017": 0.0,
			"-0.016": 0.0,
			"-0.015": 0.0,
			"-0.014": 0.449636553777,
			"-0.013": 1.18134040398,
			"-0.012": 3.86378344699,
			"-0.011": 2.77760423805,
			"-0.01": 3.66364854143,
			"-0.009": 5.04271779309,
			"-0.008": 3.72588856953,
			"-0.007": 5.23437670107,
			"-0.006": 6.38067825604,
			"-0.005": 14.4238905291,
			"-0.004": 17.0172987918,
			"-0.003": 17.1445012802,
			"-0.002": 14.6949001959,
			"-0.001": 15.660172751,
			"0.0": 16.3277991684,
			"0.001": 13.9191146563,
			"0.002": 14.2772516496,
			"0.003": 12.1894467561,
			"0.004": 11.6634543557,
			"0.005": 10.814097836,
			"0.006": 10.4348407602,
			"0.007": 5.03253903123,
			"0.008": 2.89859685965,
			"0.009": 1.6498621854,
			"0.01": 1.37254978872,
			"0.011": 2.43952755521,
			"0.012": 2.77336792791,
			"0.013": 3.34493087997,
			"0.014": 5.58232111447,
			"0.015": 0.558443705161,
			"0.016": 0.0,
			"0.017": 0.0,
			"0.018": 0.0,
			"0.019": 0.0,
			"0.02": 0.0,
			"0.021": 0.0,
			"0.022": 0.0,
			"0.023": 0.0,
			"0.024": 0.0,
			"0.025": 0.0
		}
	}
}
