{
	 "smiles": "CC(C)N1C2CCCC1CC(O)C2", 
	 "Tm": 333.15, 
	 "num_atms": 34, 
	 "gaussian": { 
		 "optdone": 1, 
		 "sigma_profile": "yes", 
		 "theory": "DFT", 
		 "functional": "B3LYP", 
		 "basiset": "6-31G**", 
		 "properties": { 
			 "R2extent": 2821.6328, 
			 "electric_dipole_moment_norm": 1.77824471319, 
			 "electric_quadrupole_moment_norm": 5.81046744677, 
			 "total_energy": -561.79421042, 
			 "HOMO_LUMO_gap": 0.25277, 
			 "cosmo_polarized_energy": -6.66, 
			 "cosmo_cavitation_energy": 30.3, 
			 "cosmo_dispersion_energy": -22.38, 
			 "cosmo_repulsion_energy": 1.75, 
			 "cosmo_total_nonelectrostatic_energy": 9.66, 
			 "SMD_solvation_energy": 3.4 
		},
		"coords": [
			{
				"x": 2.6334110845,
				"y": 0.1821517167,
				"z": 1.9579002028,
				"element": "C" 
			},
			{
				"x": 1.5767845835,
				"y": -0.901258326,
				"z": 1.6780927905,
				"element": "C" 
			},
			{
				"x": 1.7106840774,
				"y": -1.9979548172,
				"z": 2.7473379497,
				"element": "C" 
			},
			{
				"x": 0.2219430003,
				"y": -0.3118327063,
				"z": 1.6740684989,
				"element": "N" 
			},
			{
				"x": -0.023582852,
				"y": 0.7212471497,
				"z": 0.6420257048,
				"element": "C" 
			},
			{
				"x": -1.2692788148,
				"y": 1.5731051646,
				"z": 1.0522788591,
				"element": "C" 
			},
			{
				"x": -1.953881199,
				"y": 1.0022291524,
				"z": 2.2995969434,
				"element": "C" 
			},
			{
				"x": -2.2101447735,
				"y": -0.4988260614,
				"z": 2.1243844392,
				"element": "C" 
			},
			{
				"x": -0.9157793722,
				"y": -1.2555348214,
				"z": 1.6762124436,
				"element": "C" 
			},
			{
				"x": -1.0609287797,
				"y": -1.9814703072,
				"z": 0.316530393,
				"element": "C" 
			},
			{
				"x": -1.1496043942,
				"y": -1.0332927262,
				"z": -0.8944671013,
				"element": "C" 
			},
			{
				"x": -2.4485288867,
				"y": -0.4421080673,
				"z": -1.040140685,
				"element": "O" 
			},
			{
				"x": -0.1310125571,
				"y": 0.1090696875,
				"z": -0.7768432724,
				"element": "C" 
			},
			{
				"x": 2.3992407897,
				"y": 0.7016266591,
				"z": 2.8930897413,
				"element": "H" 
			},
			{
				"x": 2.7036727675,
				"y": 0.9280100701,
				"z": 1.1624533533,
				"element": "H" 
			},
			{
				"x": 3.6220678027,
				"y": -0.2777432112,
				"z": 2.0529396165,
				"element": "H" 
			},
			{
				"x": 1.8303918109,
				"y": -1.3653913126,
				"z": 0.7051144027,
				"element": "H" 
			},
			{
				"x": 1.3788255577,
				"y": -1.6240353546,
				"z": 3.722226565,
				"element": "H" 
			},
			{
				"x": 2.7593872321,
				"y": -2.2971608693,
				"z": 2.835245957,
				"element": "H" 
			},
			{
				"x": 1.1396553287,
				"y": -2.8995822053,
				"z": 2.5107302692,
				"element": "H" 
			},
			{
				"x": 0.8406833227,
				"y": 1.3872970784,
				"z": 0.6337422251,
				"element": "H" 
			},
			{
				"x": -1.9848114581,
				"y": 1.5973213715,
				"z": 0.2265405557,
				"element": "H" 
			},
			{
				"x": -0.9597601561,
				"y": 2.6076752033,
				"z": 1.23999323,
				"element": "H" 
			},
			{
				"x": -1.313944447,
				"y": 1.1613251575,
				"z": 3.1731773128,
				"element": "H" 
			},
			{
				"x": -2.8978038627,
				"y": 1.5275624772,
				"z": 2.4878334409,
				"element": "H" 
			},
			{
				"x": -2.5782794361,
				"y": -0.9274984758,
				"z": 3.0636221568,
				"element": "H" 
			},
			{
				"x": -2.9975600432,
				"y": -0.6401252954,
				"z": 1.3794108379,
				"element": "H" 
			},
			{
				"x": -0.7089961736,
				"y": -2.0177269426,
				"z": 2.4283956126,
				"element": "H" 
			},
			{
				"x": -0.1886349074,
				"y": -2.6327018901,
				"z": 0.1693203577,
				"element": "H" 
			},
			{
				"x": -1.935622262,
				"y": -2.6476932894,
				"z": 0.3313526958,
				"element": "H" 
			},
			{
				"x": -0.9224310701,
				"y": -1.6095186342,
				"z": -1.806748565,
				"element": "H" 
			},
			{
				"x": -3.0932487624,
				"y": -1.159717957,
				"z": -1.0924717039,
				"element": "H" 
			},
			{
				"x": -0.3854985893,
				"y": 0.8834487469,
				"z": -1.5092827324,
				"element": "H" 
			},
			{
				"x": 0.8499854395,
				"y": -0.2876963643,
				"z": -1.0668624953,
				"element": "H" 
			}
		],
		 "valence_orbital": [ 
			{
				"type": "occ",
				"energy": -0.30378,
				"method": "rhf"
			},
			{
				"type": "occ",
				"energy": -0.29345,
				"method": "rhf"
			},
			{
				"type": "occ",
				"energy": -0.28157,
				"method": "rhf"
			},
			{
				"type": "occ",
				"energy": -0.25719,
				"method": "rhf"
			},
			{
				"type": "occ",
				"energy": -0.19203,
				"method": "rhf"
			},
			{
				"type": "unocc",
				"energy": 0.06074,
				"method": "rhf"
			},
			{
				"type": "unocc",
				"energy": 0.08686,
				"method": "rhf"
			},
			{
				"type": "unocc",
				"energy": 0.10802,
				"method": "rhf"
			},
			{
				"type": "unocc",
				"energy": 0.11722,
				"method": "rhf"
			},
			{
				"type": "unocc",
				"energy": 0.12623,
				"method": "rhf"
			}
		],
		"cosmo_sigma_profile": { 
			"-0.025": 0.0,
			"-0.024": 0.0,
			"-0.023": 0.0,
			"-0.022": 0.0,
			"-0.021": 0.0,
			"-0.02": 0.0,
			"-0.019": 0.0,
			"-0.018": 0.0,
			"-0.017": 0.0,
			"-0.016": 0.0,
			"-0.015": 0.134085461438,
			"-0.014": 1.04931528582,
			"-0.013": 0.86705238517,
			"-0.012": 0.843918942988,
			"-0.011": 1.01476724932,
			"-0.01": 0.887185495195,
			"-0.009": 1.04178872018,
			"-0.008": 0.890179384991,
			"-0.007": 0.73036948208,
			"-0.006": 1.87738649889,
			"-0.005": 1.41149045889,
			"-0.004": 3.6308368314,
			"-0.003": 17.6526028415,
			"-0.002": 39.7320306291,
			"-0.001": 36.2657036648,
			"0.0": 36.9869873674,
			"0.001": 36.7346464794,
			"0.002": 21.7141655381,
			"0.003": 5.00504905959,
			"0.004": 3.32784189031,
			"0.005": 3.03359647092,
			"0.006": 1.8139924731,
			"0.007": 2.06763444988,
			"0.008": 2.99351388425,
			"0.009": 1.99514894878,
			"0.01": 2.1358494958,
			"0.011": 1.91927169335,
			"0.012": 1.76827899411,
			"0.013": 0.847881861119,
			"0.014": 0.820513418911,
			"0.015": 0.339688469241,
			"0.016": 0.0,
			"0.017": 0.0,
			"0.018": 0.0,
			"0.019": 0.0,
			"0.02": 0.0,
			"0.021": 0.0,
			"0.022": 0.0,
			"0.023": 0.0,
			"0.024": 0.0,
			"0.025": 0.0
		}
	}
}
