{
	 "smiles": "CC1=C(C(N)=S)C(=NO1)C1=C(Cl)C=CC=C1Cl", 
	 "Tm": 447.15, 
	 "num_atms": 25, 
	 "gaussian": { 
		 "optdone": 1, 
		 "sigma_profile": "yes", 
		 "theory": "DFT", 
		 "functional": "B3LYP", 
		 "basiset": "6-31G**", 
		 "properties": { 
			 "R2extent": 5719.2177, 
			 "electric_dipole_moment_norm": 4.75464540634, 
			 "electric_quadrupole_moment_norm": 19.9708361104, 
			 "total_energy": -1927.25024821, 
			 "HOMO_LUMO_gap": 0.15717, 
			 "cosmo_polarized_energy": -16.46, 
			 "cosmo_cavitation_energy": 34.94, 
			 "cosmo_dispersion_energy": -24.42, 
			 "cosmo_repulsion_energy": 1.87, 
			 "cosmo_total_nonelectrostatic_energy": 12.38, 
			 "SMD_solvation_energy": 4.33 
		},
		"coords": [
			{
				"x": 3.3428526509,
				"y": -1.879740543,
				"z": -1.4392016198,
				"element": "C" 
			},
			{
				"x": 1.9001876884,
				"y": -1.8848348477,
				"z": -1.0819736962,
				"element": "C" 
			},
			{
				"x": 1.1115452876,
				"y": -1.2114121208,
				"z": -0.1670986682,
				"element": "C" 
			},
			{
				"x": 1.5420397069,
				"y": -0.2004013299,
				"z": 0.8061946519,
				"element": "C" 
			},
			{
				"x": 0.5595802732,
				"y": 0.4587520029,
				"z": 1.4560344772,
				"element": "N" 
			},
			{
				"x": 3.1497563314,
				"y": 0.1474678646,
				"z": 1.1341909935,
				"element": "S" 
			},
			{
				"x": -0.2037513867,
				"y": -1.7505895408,
				"z": -0.4199651871,
				"element": "C" 
			},
			{
				"x": -0.1947190151,
				"y": -2.6474522662,
				"z": -1.3759339951,
				"element": "N" 
			},
			{
				"x": 1.1342374902,
				"y": -2.7246802103,
				"z": -1.7947236264,
				"element": "O" 
			},
			{
				"x": -1.5100813381,
				"y": -1.4597694673,
				"z": 0.2307691183,
				"element": "C" 
			},
			{
				"x": -2.4131328024,
				"y": -0.5274294008,
				"z": -0.314903478,
				"element": "C" 
			},
			{
				"x": -1.9764600358,
				"y": 0.3683287952,
				"z": -1.7555876453,
				"element": "Cl" 
			},
			{
				"x": -3.6566947112,
				"y": -0.2781377214,
				"z": 0.2658904586,
				"element": "C" 
			},
			{
				"x": -4.021798303,
				"y": -0.9716472692,
				"z": 1.4175530133,
				"element": "C" 
			},
			{
				"x": -3.1562498458,
				"y": -1.9017148428,
				"z": 1.9899876121,
				"element": "C" 
			},
			{
				"x": -1.9173014404,
				"y": -2.1372300307,
				"z": 1.3959569945,
				"element": "C" 
			},
			{
				"x": -0.8499158881,
				"y": -3.3090559923,
				"z": 2.1362188115,
				"element": "Cl" 
			},
			{
				"x": 3.4973631077,
				"y": -2.4987720919,
				"z": -2.3259134076,
				"element": "H" 
			},
			{
				"x": 3.9434593523,
				"y": -2.2628162281,
				"z": -0.609473191,
				"element": "H" 
			},
			{
				"x": 3.6890146578,
				"y": -0.859952989,
				"z": -1.6234019213,
				"element": "H" 
			},
			{
				"x": 0.8318032038,
				"y": 1.1555192694,
				"z": 2.1332518734,
				"element": "H" 
			},
			{
				"x": -0.4203847495,
				"y": 0.3117037171,
				"z": 1.2669969011,
				"element": "H" 
			},
			{
				"x": -4.3235521369,
				"y": 0.4461003694,
				"z": -0.1870515554,
				"element": "H" 
			},
			{
				"x": -4.9890206939,
				"y": -0.7852590899,
				"z": 1.8735852536,
				"element": "H" 
			},
			{
				"x": -3.4326774033,
				"y": -2.4464760364,
				"z": 2.8850978324,
				"element": "H" 
			}
		],
		 "valence_orbital": [ 
			{
				"type": "occ",
				"energy": -0.28289,
				"method": "rhf"
			},
			{
				"type": "occ",
				"energy": -0.27112,
				"method": "rhf"
			},
			{
				"type": "occ",
				"energy": -0.26831,
				"method": "rhf"
			},
			{
				"type": "occ",
				"energy": -0.22802,
				"method": "rhf"
			},
			{
				"type": "occ",
				"energy": -0.21162,
				"method": "rhf"
			},
			{
				"type": "unocc",
				"energy": -0.05445,
				"method": "rhf"
			},
			{
				"type": "unocc",
				"energy": -0.05168,
				"method": "rhf"
			},
			{
				"type": "unocc",
				"energy": -0.04435,
				"method": "rhf"
			},
			{
				"type": "unocc",
				"energy": -0.02029,
				"method": "rhf"
			},
			{
				"type": "unocc",
				"energy": -0.00767,
				"method": "rhf"
			}
		],
		"cosmo_sigma_profile": { 
			"-0.025": 0.0,
			"-0.024": 0.0,
			"-0.023": 0.0,
			"-0.022": 0.0,
			"-0.021": 0.0,
			"-0.02": 0.0,
			"-0.019": 0.0,
			"-0.018": 0.0,
			"-0.017": 0.0,
			"-0.016": 0.0,
			"-0.015": 0.773959987869,
			"-0.014": 1.05178428954,
			"-0.013": 1.94060483528,
			"-0.012": 1.26336234484,
			"-0.011": 2.20195769721,
			"-0.01": 2.00701912365,
			"-0.009": 3.20291869788,
			"-0.008": 7.86657622583,
			"-0.007": 8.69377236485,
			"-0.006": 10.8521187588,
			"-0.005": 11.4823415831,
			"-0.004": 16.0693235783,
			"-0.003": 19.2929929286,
			"-0.002": 20.6684598693,
			"-0.001": 20.5322414131,
			"0.0": 25.0088283117,
			"0.001": 25.8599280702,
			"0.002": 22.7490130738,
			"0.003": 21.9843574315,
			"0.004": 15.1761036476,
			"0.005": 7.80571082672,
			"0.006": 9.71259112909,
			"0.007": 8.44077771787,
			"0.008": 5.71700393391,
			"0.009": 7.89956615772,
			"0.01": 4.34649703185,
			"0.011": 2.44897283933,
			"0.012": 1.92867035671,
			"0.013": 0.587185297975,
			"0.014": 0.0,
			"0.015": 0.0,
			"0.016": 0.0,
			"0.017": 0.0,
			"0.018": 0.0,
			"0.019": 0.0,
			"0.02": 0.0,
			"0.021": 0.0,
			"0.022": 0.0,
			"0.023": 0.0,
			"0.024": 0.0,
			"0.025": 0.0
		}
	}
}
