{
	 "smiles": "CC(=CC=NNC(N)=O)C(C)(C)C", 
	 "Tm": 421.15, 
	 "num_atms": 30, 
	 "gaussian": { 
		 "optdone": 1, 
		 "sigma_profile": "yes", 
		 "theory": "DFT", 
		 "functional": "B3LYP", 
		 "basiset": "6-31G**", 
		 "properties": { 
			 "R2extent": 3880.7595, 
			 "electric_dipole_moment_norm": 4.48062867352, 
			 "electric_quadrupole_moment_norm": 15.8193828606, 
			 "total_energy": -592.654641575, 
			 "HOMO_LUMO_gap": 0.16697, 
			 "cosmo_polarized_energy": -14.75, 
			 "cosmo_cavitation_energy": 31.87, 
			 "cosmo_dispersion_energy": -22.16, 
			 "cosmo_repulsion_energy": 1.77, 
			 "cosmo_total_nonelectrostatic_energy": 11.48, 
			 "SMD_solvation_energy": 6.26 
		},
		"coords": [
			{
				"x": 0.6131717963,
				"y": 1.1359874382,
				"z": -2.4271100408,
				"element": "C" 
			},
			{
				"x": 0.5275902316,
				"y": 0.3873115527,
				"z": -1.1153938799,
				"element": "C" 
			},
			{
				"x": -0.6560538543,
				"y": -0.2101253314,
				"z": -0.8309806176,
				"element": "C" 
			},
			{
				"x": -1.065293128,
				"y": -0.9696423772,
				"z": 0.3362530591,
				"element": "C" 
			},
			{
				"x": -2.2652379992,
				"y": -1.4560099402,
				"z": 0.3545100343,
				"element": "N" 
			},
			{
				"x": -2.6559779035,
				"y": -2.1793887128,
				"z": 1.4676071608,
				"element": "N" 
			},
			{
				"x": -2.0172030795,
				"y": -3.2262715753,
				"z": 2.1405085882,
				"element": "C" 
			},
			{
				"x": -0.7151999842,
				"y": -3.511942802,
				"z": 1.7640797122,
				"element": "N" 
			},
			{
				"x": -2.6048288973,
				"y": -3.8279950986,
				"z": 3.0267908752,
				"element": "O" 
			},
			{
				"x": 1.7790549626,
				"y": 0.3764372105,
				"z": -0.2036633232,
				"element": "C" 
			},
			{
				"x": 2.9783685994,
				"y": 1.1038472044,
				"z": -0.856067063,
				"element": "C" 
			},
			{
				"x": 2.2427438936,
				"y": -1.0751768771,
				"z": 0.0774002287,
				"element": "C" 
			},
			{
				"x": 1.4728001123,
				"y": 1.1112266339,
				"z": 1.1254891499,
				"element": "C" 
			},
			{
				"x": -0.3276843024,
				"y": 1.0706488745,
				"z": -2.9781616938,
				"element": "H" 
			},
			{
				"x": 1.4085809135,
				"y": 0.7439170447,
				"z": -3.0718625308,
				"element": "H" 
			},
			{
				"x": 0.8367521495,
				"y": 2.1986950818,
				"z": -2.2733039004,
				"element": "H" 
			},
			{
				"x": -1.4540139654,
				"y": -0.1255821262,
				"z": -1.5664723137,
				"element": "H" 
			},
			{
				"x": -0.3888216176,
				"y": -1.107894998,
				"z": 1.1772685109,
				"element": "H" 
			},
			{
				"x": -3.6608246276,
				"y": -2.2547607876,
				"z": 1.5438029198,
				"element": "H" 
			},
			{
				"x": -0.4640499941,
				"y": -3.3594834699,
				"z": 0.7960323298,
				"element": "H" 
			},
			{
				"x": -0.4085788807,
				"y": -4.396263824,
				"z": 2.145503676,
				"element": "H" 
			},
			{
				"x": 3.2940480861,
				"y": 0.6268166597,
				"z": -1.7889851844,
				"element": "H" 
			},
			{
				"x": 2.7628991975,
				"y": 2.1553753958,
				"z": -1.0665364251,
				"element": "H" 
			},
			{
				"x": 3.8316504898,
				"y": 1.0770108165,
				"z": -0.1708791992,
				"element": "H" 
			},
			{
				"x": 1.5095192687,
				"y": -1.6567050488,
				"z": 0.6395787478,
				"element": "H" 
			},
			{
				"x": 3.168742207,
				"y": -1.0651365596,
				"z": 0.6631797814,
				"element": "H" 
			},
			{
				"x": 2.4452515471,
				"y": -1.6054295593,
				"z": -0.8592980607,
				"element": "H" 
			},
			{
				"x": 2.3660648088,
				"y": 1.1320328511,
				"z": 1.7600761453,
				"element": "H" 
			},
			{
				"x": 1.1723174542,
				"y": 2.1469527606,
				"z": 0.9353032245,
				"element": "H" 
			},
			{
				"x": 0.6706125158,
				"y": 0.6358495638,
				"z": 1.6936300888,
				"element": "H" 
			}
		],
		 "valence_orbital": [ 
			{
				"type": "occ",
				"energy": -0.31403,
				"method": "rhf"
			},
			{
				"type": "occ",
				"energy": -0.27677,
				"method": "rhf"
			},
			{
				"type": "occ",
				"energy": -0.26984,
				"method": "rhf"
			},
			{
				"type": "occ",
				"energy": -0.25202,
				"method": "rhf"
			},
			{
				"type": "occ",
				"energy": -0.21289,
				"method": "rhf"
			},
			{
				"type": "unocc",
				"energy": -0.04592,
				"method": "rhf"
			},
			{
				"type": "unocc",
				"energy": 0.05129,
				"method": "rhf"
			},
			{
				"type": "unocc",
				"energy": 0.0561,
				"method": "rhf"
			},
			{
				"type": "unocc",
				"energy": 0.07016,
				"method": "rhf"
			},
			{
				"type": "unocc",
				"energy": 0.09299,
				"method": "rhf"
			}
		],
		"cosmo_sigma_profile": { 
			"-0.025": 0.0,
			"-0.024": 0.0,
			"-0.023": 0.0,
			"-0.022": 0.0,
			"-0.021": 0.0,
			"-0.02": 0.0,
			"-0.019": 0.0,
			"-0.018": 0.0,
			"-0.017": 0.0,
			"-0.016": 0.0,
			"-0.015": 0.0693055458348,
			"-0.014": 1.00466886554,
			"-0.013": 2.69352651859,
			"-0.012": 2.57983329928,
			"-0.011": 2.82864832089,
			"-0.01": 2.72869953788,
			"-0.009": 3.36982295863,
			"-0.008": 3.59733432553,
			"-0.007": 2.33069274304,
			"-0.006": 4.62961468232,
			"-0.005": 6.55099134494,
			"-0.004": 13.8767071165,
			"-0.003": 26.2601076541,
			"-0.002": 27.361925159,
			"-0.001": 25.104844666,
			"0.0": 28.2732457112,
			"0.001": 27.8844328782,
			"0.002": 11.1694874647,
			"0.003": 7.61178983357,
			"0.004": 9.22939203893,
			"0.005": 7.58811849486,
			"0.006": 3.67420724971,
			"0.007": 2.86512703693,
			"0.008": 2.97041884416,
			"0.009": 2.90726266126,
			"0.01": 2.04695423831,
			"0.011": 1.96371627192,
			"0.012": 2.8984855194,
			"0.013": 4.72029848043,
			"0.014": 6.8267100476,
			"0.015": 0.770717908739,
			"0.016": 0.0,
			"0.017": 0.0,
			"0.018": 0.0,
			"0.019": 0.0,
			"0.02": 0.0,
			"0.021": 0.0,
			"0.022": 0.0,
			"0.023": 0.0,
			"0.024": 0.0,
			"0.025": 0.0
		}
	}
}
