{
	 "smiles": "CC1(CC(C1)C(=N/OC(=O)CC1=CC=CC=C1)C1=CC2=C(O1)C=CC=C2)C1=CC=CC=C1", 
	 "Tm": 417.15, 
	 "num_atms": 57, 
	 "gaussian": { 
		 "optdone": 1, 
		 "sigma_profile": "yes", 
		 "theory": "DFT", 
		 "functional": "B3LYP", 
		 "basiset": "6-31G**", 
		 "properties": { 
			 "R2extent": 16270.2715, 
			 "electric_dipole_moment_norm": 3.44789467937, 
			 "electric_quadrupole_moment_norm": 17.3400507205, 
			 "total_energy": -1362.40008151, 
			 "HOMO_LUMO_gap": 0.15977, 
			 "cosmo_polarized_energy": -16.3, 
			 "cosmo_cavitation_energy": 61.45, 
			 "cosmo_dispersion_energy": -38.81, 
			 "cosmo_repulsion_energy": 2.9, 
			 "cosmo_total_nonelectrostatic_energy": 25.54, 
			 "SMD_solvation_energy": 10.21 
		},
		"coords": [
			{
				"x": -0.3814666812,
				"y": -2.0941297235,
				"z": 3.6178057869,
				"element": "C" 
			},
			{
				"x": 0.0374706263,
				"y": -1.1827005508,
				"z": 2.4556548769,
				"element": "C" 
			},
			{
				"x": -1.1033178831,
				"y": -0.3266752591,
				"z": 1.8121749348,
				"element": "C" 
			},
			{
				"x": -0.5134425923,
				"y": -0.6645909052,
				"z": 0.4109911219,
				"element": "C" 
			},
			{
				"x": 0.1819155566,
				"y": -1.8840169499,
				"z": 1.0646444749,
				"element": "C" 
			},
			{
				"x": -1.4628817251,
				"y": -0.7640675624,
				"z": -0.7582699491,
				"element": "C" 
			},
			{
				"x": -2.096945269,
				"y": 0.2455142282,
				"z": -1.260713856,
				"element": "N" 
			},
			{
				"x": -1.7965667519,
				"y": 1.4144192905,
				"z": -0.5168944941,
				"element": "O" 
			},
			{
				"x": -2.2778899916,
				"y": 2.5694612701,
				"z": -1.0887282123,
				"element": "C" 
			},
			{
				"x": -2.9221133317,
				"y": 2.6298740403,
				"z": -2.1008280977,
				"element": "O" 
			},
			{
				"x": -1.827713,
				"y": 3.7516843049,
				"z": -0.238479637,
				"element": "C" 
			},
			{
				"x": -0.3469503926,
				"y": 4.0420077922,
				"z": -0.4215834814,
				"element": "C" 
			},
			{
				"x": 0.0979037302,
				"y": 4.743940435,
				"z": -1.5495488311,
				"element": "C" 
			},
			{
				"x": 1.4576002387,
				"y": 4.9931693511,
				"z": -1.7389612735,
				"element": "C" 
			},
			{
				"x": 2.3911905389,
				"y": 4.5406002831,
				"z": -0.804118172,
				"element": "C" 
			},
			{
				"x": 1.9571104725,
				"y": 3.8376336815,
				"z": 0.3211267925,
				"element": "C" 
			},
			{
				"x": 0.5963508311,
				"y": 3.5908508368,
				"z": 0.5094244495,
				"element": "C" 
			},
			{
				"x": -1.7773785378,
				"y": -2.0240995159,
				"z": -1.4354221055,
				"element": "C" 
			},
			{
				"x": -2.8602739222,
				"y": -2.3931105453,
				"z": -2.1818468107,
				"element": "C" 
			},
			{
				"x": -2.6047690644,
				"y": -3.7292099103,
				"z": -2.6408215394,
				"element": "C" 
			},
			{
				"x": -1.3428618767,
				"y": -4.0722190294,
				"z": -2.1152628408,
				"element": "C" 
			},
			{
				"x": -0.8376351211,
				"y": -3.0363936305,
				"z": -1.3796560172,
				"element": "O" 
			},
			{
				"x": -0.7247600313,
				"y": -5.2990371523,
				"z": -2.3279159928,
				"element": "C" 
			},
			{
				"x": -1.4238233727,
				"y": -6.2158380448,
				"z": -3.1111117722,
				"element": "C" 
			},
			{
				"x": -2.6881117509,
				"y": -5.9057538704,
				"z": -3.6516389589,
				"element": "C" 
			},
			{
				"x": -3.2896833079,
				"y": -4.6726912569,
				"z": -3.4259468398,
				"element": "C" 
			},
			{
				"x": 1.2481057975,
				"y": -0.3448246079,
				"z": 2.8695997886,
				"element": "C" 
			},
			{
				"x": 2.5600262163,
				"y": -0.7648302695,
				"z": 2.6088993753,
				"element": "C" 
			},
			{
				"x": 3.6582457395,
				"y": -0.0182767055,
				"z": 3.0409757,
				"element": "C" 
			},
			{
				"x": 3.4681610012,
				"y": 1.1665935248,
				"z": 3.7524128971,
				"element": "C" 
			},
			{
				"x": 2.1685495458,
				"y": 1.5908153024,
				"z": 4.037069051,
				"element": "C" 
			},
			{
				"x": 1.0749753055,
				"y": 0.8406119099,
				"z": 3.6022859835,
				"element": "C" 
			},
			{
				"x": -1.2562424827,
				"y": -2.6954786257,
				"z": 3.3471180605,
				"element": "H" 
			},
			{
				"x": -0.6326585198,
				"y": -1.5067638867,
				"z": 4.5078282748,
				"element": "H" 
			},
			{
				"x": 0.4307325335,
				"y": -2.7766775405,
				"z": 3.8913077693,
				"element": "H" 
			},
			{
				"x": -2.0779220633,
				"y": -0.8035895804,
				"z": 1.9587496926,
				"element": "H" 
			},
			{
				"x": -1.184859188,
				"y": 0.7296952755,
				"z": 2.0707886232,
				"element": "H" 
			},
			{
				"x": 0.2320774559,
				"y": 0.0989253375,
				"z": 0.1648727632,
				"element": "H" 
			},
			{
				"x": -0.4442975973,
				"y": -2.7774628804,
				"z": 1.0312401328,
				"element": "H" 
			},
			{
				"x": 1.1754835505,
				"y": -2.1479907768,
				"z": 0.6970299677,
				"element": "H" 
			},
			{
				"x": -2.0417634154,
				"y": 3.53588629,
				"z": 0.8127137421,
				"element": "H" 
			},
			{
				"x": -2.4345451475,
				"y": 4.6050136103,
				"z": -0.5495136561,
				"element": "H" 
			},
			{
				"x": -0.6254656975,
				"y": 5.0921240231,
				"z": -2.2823711806,
				"element": "H" 
			},
			{
				"x": 1.7872716702,
				"y": 5.541027029,
				"z": -2.6172219853,
				"element": "H" 
			},
			{
				"x": 3.4495510325,
				"y": 4.7355516364,
				"z": -0.9517750601,
				"element": "H" 
			},
			{
				"x": 2.6725165435,
				"y": 3.4772161379,
				"z": 1.0548295758,
				"element": "H" 
			},
			{
				"x": 0.2688913468,
				"y": 3.0419872963,
				"z": 1.3881882081,
				"element": "H" 
			},
			{
				"x": -3.7233373696,
				"y": -1.7728150486,
				"z": -2.3715552494,
				"element": "H" 
			},
			{
				"x": 0.2488138035,
				"y": -5.5224415999,
				"z": -1.9055412178,
				"element": "H" 
			},
			{
				"x": -0.9847751319,
				"y": -7.1890005936,
				"z": -3.3087810982,
				"element": "H" 
			},
			{
				"x": -3.1994907121,
				"y": -6.647921917,
				"z": -4.2572996766,
				"element": "H" 
			},
			{
				"x": -4.2630194971,
				"y": -4.441829434,
				"z": -3.8479447951,
				"element": "H" 
			},
			{
				"x": 2.7332924594,
				"y": -1.6876820168,
				"z": 2.0639033344,
				"element": "H" 
			},
			{
				"x": 4.6637630205,
				"y": -0.365252914,
				"z": 2.8193522227,
				"element": "H" 
			},
			{
				"x": 4.3215026678,
				"y": 1.7489606279,
				"z": 4.0877523037,
				"element": "H" 
			},
			{
				"x": 2.0043758839,
				"y": 2.5049853446,
				"z": 4.6010320056,
				"element": "H" 
			},
			{
				"x": 0.0716838576,
				"y": 1.1806234448,
				"z": 3.8441808914,
				"element": "H" 
			}
		],
		 "valence_orbital": [ 
			{
				"type": "occ",
				"energy": -0.24887,
				"method": "rhf"
			},
			{
				"type": "occ",
				"energy": -0.244,
				"method": "rhf"
			},
			{
				"type": "occ",
				"energy": -0.24161,
				"method": "rhf"
			},
			{
				"type": "occ",
				"energy": -0.24015,
				"method": "rhf"
			},
			{
				"type": "occ",
				"energy": -0.21655,
				"method": "rhf"
			},
			{
				"type": "unocc",
				"energy": -0.05678,
				"method": "rhf"
			},
			{
				"type": "unocc",
				"energy": -0.0095,
				"method": "rhf"
			},
			{
				"type": "unocc",
				"energy": -0.00686,
				"method": "rhf"
			},
			{
				"type": "unocc",
				"energy": -0.00445,
				"method": "rhf"
			},
			{
				"type": "unocc",
				"energy": -0.0016,
				"method": "rhf"
			}
		],
		"cosmo_sigma_profile": { 
			"-0.025": 0.0,
			"-0.024": 0.0,
			"-0.023": 0.0,
			"-0.022": 0.0,
			"-0.021": 0.0,
			"-0.02": 0.0,
			"-0.019": 0.0,
			"-0.018": 0.0,
			"-0.017": 0.0,
			"-0.016": 0.0,
			"-0.015": 0.0,
			"-0.014": 0.0,
			"-0.013": 0.0,
			"-0.012": 0.0,
			"-0.011": 0.0,
			"-0.01": 0.0,
			"-0.009": 0.0,
			"-0.008": 0.961765728293,
			"-0.007": 4.23620554124,
			"-0.006": 19.7791141922,
			"-0.005": 35.3679951997,
			"-0.004": 44.236562602,
			"-0.003": 50.5054306391,
			"-0.002": 40.695854174,
			"-0.001": 41.2024047572,
			"0.0": 45.8606020471,
			"0.001": 47.8002750365,
			"0.002": 35.4967678284,
			"0.003": 32.9449417882,
			"0.004": 27.9838167408,
			"0.005": 25.7638034058,
			"0.006": 14.0771935265,
			"0.007": 3.66611098627,
			"0.008": 1.49616182917,
			"0.009": 1.85913827641,
			"0.01": 3.63081169547,
			"0.011": 5.07049035554,
			"0.012": 2.91075106028,
			"0.013": 1.11685660589,
			"0.014": 1.43171833417,
			"0.015": 1.00210972324,
			"0.016": 0.593394365052,
			"0.017": 0.0465585385021,
			"0.018": 0.0,
			"0.019": 0.0,
			"0.02": 0.0,
			"0.021": 0.0,
			"0.022": 0.0,
			"0.023": 0.0,
			"0.024": 0.0,
			"0.025": 0.0
		}
	}
}
