{
	 "smiles": "COC1=C(OC)C(Cl)=CC(=C1)C(O)=O", 
	 "Tm": 465.15, 
	 "num_atms": 23, 
	 "gaussian": { 
		 "optdone": 1, 
		 "sigma_profile": "yes", 
		 "theory": "DFT", 
		 "functional": "B3LYP", 
		 "basiset": "6-31G**", 
		 "properties": { 
			 "R2extent": 4574.195, 
			 "electric_dipole_moment_norm": 3.16875272308, 
			 "electric_quadrupole_moment_norm": 15.3590687654, 
			 "total_energy": -1109.44424952, 
			 "HOMO_LUMO_gap": 0.18731, 
			 "cosmo_polarized_energy": -15.81, 
			 "cosmo_cavitation_energy": 29.38, 
			 "cosmo_dispersion_energy": -21.22, 
			 "cosmo_repulsion_energy": 1.68, 
			 "cosmo_total_nonelectrostatic_energy": 9.85, 
			 "SMD_solvation_energy": 7.64 
		},
		"coords": [
			{
				"x": -2.6271903386,
				"y": -0.6144572099,
				"z": -0.5473348782,
				"element": "C" 
			},
			{
				"x": -2.3496360492,
				"y": -0.1699971852,
				"z": 0.7769241244,
				"element": "O" 
			},
			{
				"x": -1.0493681693,
				"y": -0.0172269767,
				"z": 1.1421283091,
				"element": "C" 
			},
			{
				"x": -0.8420613491,
				"y": 0.3995981647,
				"z": 2.483370678,
				"element": "C" 
			},
			{
				"x": -1.879050466,
				"y": 0.5765126077,
				"z": 3.3424087122,
				"element": "O" 
			},
			{
				"x": -2.7524884112,
				"y": 1.6863601006,
				"z": 3.0836373567,
				"element": "C" 
			},
			{
				"x": 0.4732486966,
				"y": 0.5594875165,
				"z": 2.9329696151,
				"element": "C" 
			},
			{
				"x": 0.7522525529,
				"y": 1.0937500377,
				"z": 4.575511157,
				"element": "Cl" 
			},
			{
				"x": 1.5683721847,
				"y": 0.3075020751,
				"z": 2.1046024223,
				"element": "C" 
			},
			{
				"x": 1.3476022055,
				"y": -0.1034467066,
				"z": 0.7888566732,
				"element": "C" 
			},
			{
				"x": 0.0393367329,
				"y": -0.2507627879,
				"z": 0.3065064872,
				"element": "C" 
			},
			{
				"x": 2.4619592838,
				"y": -0.3769348363,
				"z": -0.1758918351,
				"element": "C" 
			},
			{
				"x": 3.688360035,
				"y": -0.6207993308,
				"z": 0.3557200811,
				"element": "O" 
			},
			{
				"x": 2.309086734,
				"y": -0.3900653825,
				"z": -1.3753313322,
				"element": "O" 
			},
			{
				"x": -3.713322367,
				"y": -0.6822799804,
				"z": -0.6156930534,
				"element": "H" 
			},
			{
				"x": -2.1878485716,
				"y": -1.6008831196,
				"z": -0.736700268,
				"element": "H" 
			},
			{
				"x": -2.2576275652,
				"y": 0.0965041602,
				"z": -1.2958502927,
				"element": "H" 
			},
			{
				"x": -2.1934700714,
				"y": 2.628929173,
				"z": 3.1019547188,
				"element": "H" 
			},
			{
				"x": -3.2644077258,
				"y": 1.5731952749,
				"z": 2.1249766578,
				"element": "H" 
			},
			{
				"x": -3.4815008832,
				"y": 1.6830420151,
				"z": 3.8951130704,
				"element": "H" 
			},
			{
				"x": 2.5641993802,
				"y": 0.4925029064,
				"z": 2.4933770277,
				"element": "H" 
			},
			{
				"x": -0.0858619591,
				"y": -0.5559898102,
				"z": -0.7241222633,
				"element": "H" 
			},
			{
				"x": 3.6199161211,
				"y": -0.7497407057,
				"z": 1.311866832,
				"element": "H" 
			}
		],
		 "valence_orbital": [ 
			{
				"type": "occ",
				"energy": -0.31502,
				"method": "rhf"
			},
			{
				"type": "occ",
				"energy": -0.29399,
				"method": "rhf"
			},
			{
				"type": "occ",
				"energy": -0.27801,
				"method": "rhf"
			},
			{
				"type": "occ",
				"energy": -0.25289,
				"method": "rhf"
			},
			{
				"type": "occ",
				"energy": -0.24137,
				"method": "rhf"
			},
			{
				"type": "unocc",
				"energy": -0.05406,
				"method": "rhf"
			},
			{
				"type": "unocc",
				"energy": -0.02031,
				"method": "rhf"
			},
			{
				"type": "unocc",
				"energy": 0.01806,
				"method": "rhf"
			},
			{
				"type": "unocc",
				"energy": 0.04615,
				"method": "rhf"
			},
			{
				"type": "unocc",
				"energy": 0.06719,
				"method": "rhf"
			}
		],
		"cosmo_sigma_profile": { 
			"-0.025": 0.0,
			"-0.024": 0.0,
			"-0.023": 0.0,
			"-0.022": 0.0,
			"-0.021": 0.0,
			"-0.02": 0.0,
			"-0.019": 0.485114387728,
			"-0.018": 0.822827869713,
			"-0.017": 1.27605933513,
			"-0.016": 1.03676356205,
			"-0.015": 1.07422822185,
			"-0.014": 0.336391493177,
			"-0.013": 1.3222015191,
			"-0.012": 1.11695744701,
			"-0.011": 1.33553050554,
			"-0.01": 1.23642498623,
			"-0.009": 0.905439229966,
			"-0.008": 1.7115715644,
			"-0.007": 5.29310877232,
			"-0.006": 13.1711764766,
			"-0.005": 15.4219269568,
			"-0.004": 20.3289188924,
			"-0.003": 19.116134664,
			"-0.002": 15.1355988835,
			"-0.001": 12.4827112138,
			"0.0": 17.449588534,
			"0.001": 20.6087307075,
			"0.002": 14.2547566878,
			"0.003": 11.0491646954,
			"0.004": 11.8973232017,
			"0.005": 8.0173988155,
			"0.006": 5.19710049978,
			"0.007": 3.99322458167,
			"0.008": 5.60499908359,
			"0.009": 7.03210357551,
			"0.01": 6.66224350826,
			"0.011": 5.69379600887,
			"0.012": 4.43241297769,
			"0.013": 1.13048909157,
			"0.014": 0.0,
			"0.015": 0.0,
			"0.016": 0.0,
			"0.017": 0.0,
			"0.018": 0.0,
			"0.019": 0.0,
			"0.02": 0.0,
			"0.021": 0.0,
			"0.022": 0.0,
			"0.023": 0.0,
			"0.024": 0.0,
			"0.025": 0.0
		}
	}
}
