{
	 "smiles": "ClC1=CC=C(C=C(OC2=CC=C(Cl)C=C2Cl)C2=NC3=C(S2)C=CC=C3)C=C1", 
	 "Tm": 429.15, 
	 "num_atms": 39, 
	 "gaussian": { 
		 "optdone": 1, 
		 "sigma_profile": "yes", 
		 "theory": "DFT", 
		 "functional": "B3LYP", 
		 "basiset": "6-31G**", 
		 "properties": { 
			 "R2extent": 16898.3328, 
			 "electric_dipole_moment_norm": 2.44681318862, 
			 "electric_quadrupole_moment_norm": 19.4727980434, 
			 "total_energy": -2716.18870869, 
			 "HOMO_LUMO_gap": 0.13592, 
			 "cosmo_polarized_energy": -10.12, 
			 "cosmo_cavitation_energy": 51.75, 
			 "cosmo_dispersion_energy": -36.22, 
			 "cosmo_repulsion_energy": 2.69, 
			 "cosmo_total_nonelectrostatic_energy": 18.22, 
			 "SMD_solvation_energy": 6.63 
		},
		"coords": [
			{
				"x": 2.504858503,
				"y": 6.0894424137,
				"z": -1.1785267688,
				"element": "Cl" 
			},
			{
				"x": 2.034938796,
				"y": 4.3966374722,
				"z": -1.1858604836,
				"element": "C" 
			},
			{
				"x": 2.8129546364,
				"y": 3.4696092451,
				"z": -1.879188956,
				"element": "C" 
			},
			{
				"x": 2.4276062459,
				"y": 2.134713096,
				"z": -1.8765819993,
				"element": "C" 
			},
			{
				"x": 1.2740384491,
				"y": 1.6872235693,
				"z": -1.1923757306,
				"element": "C" 
			},
			{
				"x": 1.0016861145,
				"y": 0.2537979921,
				"z": -1.2803813806,
				"element": "C" 
			},
			{
				"x": 0.0963414137,
				"y": -0.6121565941,
				"z": -0.7588899424,
				"element": "C" 
			},
			{
				"x": 0.1678108139,
				"y": -1.9777542791,
				"z": -1.0737750365,
				"element": "O" 
			},
			{
				"x": 1.2780603542,
				"y": -2.5302755518,
				"z": -1.6630823696,
				"element": "C" 
			},
			{
				"x": 1.2459991007,
				"y": -2.8188836619,
				"z": -3.0286254322,
				"element": "C" 
			},
			{
				"x": 2.3122965171,
				"y": -3.4679088014,
				"z": -3.6473127886,
				"element": "C" 
			},
			{
				"x": 3.4209929179,
				"y": -3.8257619223,
				"z": -2.8808598075,
				"element": "C" 
			},
			{
				"x": 4.7743957035,
				"y": -4.6411450003,
				"z": -3.641241812,
				"element": "Cl" 
			},
			{
				"x": 3.4759196713,
				"y": -3.5531205554,
				"z": -1.5144920944,
				"element": "C" 
			},
			{
				"x": 2.3997271808,
				"y": -2.9059448916,
				"z": -0.9074499346,
				"element": "C" 
			},
			{
				"x": 2.4519679081,
				"y": -2.5863153448,
				"z": 0.8064668694,
				"element": "Cl" 
			},
			{
				"x": -1.054299507,
				"y": -0.435221224,
				"z": 0.1250497044,
				"element": "C" 
			},
			{
				"x": -1.5545527355,
				"y": 0.687497765,
				"z": 0.5503847222,
				"element": "N" 
			},
			{
				"x": -2.6441303573,
				"y": 0.4838078492,
				"z": 1.372117119,
				"element": "C" 
			},
			{
				"x": -2.9966207036,
				"y": -0.8731958739,
				"z": 1.5787110811,
				"element": "C" 
			},
			{
				"x": -1.8972432219,
				"y": -1.9033844116,
				"z": 0.6954442575,
				"element": "S" 
			},
			{
				"x": -4.0825634673,
				"y": -1.2245478246,
				"z": 2.3864542174,
				"element": "C" 
			},
			{
				"x": -4.8121045123,
				"y": -0.202770788,
				"z": 2.986777,
				"element": "C" 
			},
			{
				"x": -4.4705527343,
				"y": 1.1482236566,
				"z": 2.7881528954,
				"element": "C" 
			},
			{
				"x": -3.3939769869,
				"y": 1.5007434665,
				"z": 1.986417218,
				"element": "C" 
			},
			{
				"x": 0.5107467701,
				"y": 2.6540823102,
				"z": -0.5063282885,
				"element": "C" 
			},
			{
				"x": 0.8883926534,
				"y": 3.9941884864,
				"z": -0.5022313698,
				"element": "C" 
			},
			{
				"x": 3.7028839242,
				"y": 3.789534652,
				"z": -2.4096428677,
				"element": "H" 
			},
			{
				"x": 3.037833804,
				"y": 1.4153069981,
				"z": -2.4163121271,
				"element": "H" 
			},
			{
				"x": 1.726853581,
				"y": -0.2483702677,
				"z": -1.9164503911,
				"element": "H" 
			},
			{
				"x": 0.3652339769,
				"y": -2.5328624581,
				"z": -3.5936420118,
				"element": "H" 
			},
			{
				"x": 2.283628229,
				"y": -3.6936655817,
				"z": -4.7068723479,
				"element": "H" 
			},
			{
				"x": 4.3366392723,
				"y": -3.8440886192,
				"z": -0.924976066,
				"element": "H" 
			},
			{
				"x": -4.3508534892,
				"y": -2.2643496059,
				"z": 2.5434619084,
				"element": "H" 
			},
			{
				"x": -5.6588116423,
				"y": -0.4535260642,
				"z": 3.6186855428,
				"element": "H" 
			},
			{
				"x": -5.0587244384,
				"y": 1.9234658766,
				"z": 3.2696301362,
				"element": "H" 
			},
			{
				"x": -3.1204029413,
				"y": 2.5380968778,
				"z": 1.8241753161,
				"element": "H" 
			},
			{
				"x": -0.3830979024,
				"y": 2.344337598,
				"z": 0.0186090487,
				"element": "H" 
			},
			{
				"x": 0.2913281027,
				"y": 4.7271399969,
				"z": 0.02956297,
				"element": "H" 
			}
		],
		 "valence_orbital": [ 
			{
				"type": "occ",
				"energy": -0.26132,
				"method": "rhf"
			},
			{
				"type": "occ",
				"energy": -0.25726,
				"method": "rhf"
			},
			{
				"type": "occ",
				"energy": -0.25326,
				"method": "rhf"
			},
			{
				"type": "occ",
				"energy": -0.23968,
				"method": "rhf"
			},
			{
				"type": "occ",
				"energy": -0.21227,
				"method": "rhf"
			},
			{
				"type": "unocc",
				"energy": -0.07635,
				"method": "rhf"
			},
			{
				"type": "unocc",
				"energy": -0.03873,
				"method": "rhf"
			},
			{
				"type": "unocc",
				"energy": -0.03591,
				"method": "rhf"
			},
			{
				"type": "unocc",
				"energy": -0.01328,
				"method": "rhf"
			},
			{
				"type": "unocc",
				"energy": -0.00998,
				"method": "rhf"
			}
		],
		"cosmo_sigma_profile": { 
			"-0.025": 0.0,
			"-0.024": 0.0,
			"-0.023": 0.0,
			"-0.022": 0.0,
			"-0.021": 0.0,
			"-0.02": 0.0,
			"-0.019": 0.0,
			"-0.018": 0.0,
			"-0.017": 0.0,
			"-0.016": 0.0,
			"-0.015": 0.0,
			"-0.014": 0.0,
			"-0.013": 0.0,
			"-0.012": 0.0,
			"-0.011": 0.0,
			"-0.01": 0.0,
			"-0.009": 1.42631933332,
			"-0.008": 7.19626486685,
			"-0.007": 15.0717776369,
			"-0.006": 19.4140600515,
			"-0.005": 20.8671477876,
			"-0.004": 20.5246853188,
			"-0.003": 19.8322295219,
			"-0.002": 23.2437591403,
			"-0.001": 29.7907137285,
			"0.0": 42.769306586,
			"0.001": 49.0158361629,
			"0.002": 53.501267782,
			"0.003": 60.5723063653,
			"0.004": 49.4177472916,
			"0.005": 13.0655011775,
			"0.006": 1.40681122372,
			"0.007": 0.482780812487,
			"0.008": 0.0,
			"0.009": 0.0,
			"0.01": 0.0,
			"0.011": 0.0,
			"0.012": 0.0,
			"0.013": 0.0,
			"0.014": 0.0,
			"0.015": 0.0,
			"0.016": 0.0,
			"0.017": 0.0,
			"0.018": 0.0,
			"0.019": 0.0,
			"0.02": 0.0,
			"0.021": 0.0,
			"0.022": 0.0,
			"0.023": 0.0,
			"0.024": 0.0,
			"0.025": 0.0
		}
	}
}
