{
	 "smiles": "OCC(C(O)=O)C1=CC=CC=C1", 
	 "Tm": 391.15, 
	 "num_atms": 22, 
	 "gaussian": { 
		 "optdone": 1, 
		 "sigma_profile": "yes", 
		 "theory": "DFT", 
		 "functional": "B3LYP", 
		 "basiset": "6-31G**", 
		 "properties": { 
			 "R2extent": 2221.2228, 
			 "electric_dipole_moment_norm": 2.60775532595, 
			 "electric_quadrupole_moment_norm": 5.34906765053, 
			 "total_energy": -574.665795326, 
			 "HOMO_LUMO_gap": 0.22247, 
			 "cosmo_polarized_energy": -11.38, 
			 "cosmo_cavitation_energy": 25.46, 
			 "cosmo_dispersion_energy": -18.56, 
			 "cosmo_repulsion_energy": 1.5, 
			 "cosmo_total_nonelectrostatic_energy": 8.39, 
			 "SMD_solvation_energy": 5.43 
		},
		"coords": [
			{
				"x": 1.0420861431,
				"y": -1.9134986848,
				"z": 1.2540456124,
				"element": "O" 
			},
			{
				"x": 0.7277407271,
				"y": -0.7631355448,
				"z": 2.0114645469,
				"element": "C" 
			},
			{
				"x": 0.2063619729,
				"y": 0.4354062035,
				"z": 1.1819458123,
				"element": "C" 
			},
			{
				"x": 1.2236094128,
				"y": 0.8206170367,
				"z": 0.1155913672,
				"element": "C" 
			},
			{
				"x": 1.0814945586,
				"y": 2.095171519,
				"z": -0.2944821496,
				"element": "O" 
			},
			{
				"x": 2.0805729034,
				"y": 0.0872912943,
				"z": -0.3473764572,
				"element": "O" 
			},
			{
				"x": -1.1694057761,
				"y": 0.2453812999,
				"z": 0.5424562818,
				"element": "C" 
			},
			{
				"x": -2.1150810653,
				"y": 1.2767258879,
				"z": 0.6210278752,
				"element": "C" 
			},
			{
				"x": -3.3751593734,
				"y": 1.1359014864,
				"z": 0.0395441377,
				"element": "C" 
			},
			{
				"x": -3.7065098296,
				"y": -0.0414495016,
				"z": -0.6332734977,
				"element": "C" 
			},
			{
				"x": -2.770226152,
				"y": -1.0730962884,
				"z": -0.7176472062,
				"element": "C" 
			},
			{
				"x": -1.5074312111,
				"y": -0.9329912967,
				"z": -0.1394200155,
				"element": "C" 
			},
			{
				"x": 1.6879826558,
				"y": -1.6186746179,
				"z": 0.5903956809,
				"element": "H" 
			},
			{
				"x": 1.6007984351,
				"y": -0.4199597916,
				"z": 2.5905334749,
				"element": "H" 
			},
			{
				"x": -0.0476390952,
				"y": -1.0526644696,
				"z": 2.7270321132,
				"element": "H" 
			},
			{
				"x": 0.1355598999,
				"y": 1.2950967709,
				"z": 1.8591380134,
				"element": "H" 
			},
			{
				"x": 1.739400205,
				"y": 2.2358419734,
				"z": -0.9970528519,
				"element": "H" 
			},
			{
				"x": -1.86216269,
				"y": 2.1971835644,
				"z": 1.1410407793,
				"element": "H" 
			},
			{
				"x": -4.0968737,
				"y": 1.9444371705,
				"z": 0.1145444652,
				"element": "H" 
			},
			{
				"x": -4.6874379211,
				"y": -0.1542426154,
				"z": -1.0861467031,
				"element": "H" 
			},
			{
				"x": -3.0211346703,
				"y": -1.9942758208,
				"z": -1.2361173307,
				"element": "H" 
			},
			{
				"x": -0.7869454296,
				"y": -1.7412655754,
				"z": -0.1872439482,
				"element": "H" 
			}
		],
		 "valence_orbital": [ 
			{
				"type": "occ",
				"energy": -0.32895,
				"method": "rhf"
			},
			{
				"type": "occ",
				"energy": -0.29131,
				"method": "rhf"
			},
			{
				"type": "occ",
				"energy": -0.26472,
				"method": "rhf"
			},
			{
				"type": "occ",
				"energy": -0.24954,
				"method": "rhf"
			},
			{
				"type": "occ",
				"energy": -0.24246,
				"method": "rhf"
			},
			{
				"type": "unocc",
				"energy": -0.01999,
				"method": "rhf"
			},
			{
				"type": "unocc",
				"energy": -0.00206,
				"method": "rhf"
			},
			{
				"type": "unocc",
				"energy": 0.0128,
				"method": "rhf"
			},
			{
				"type": "unocc",
				"energy": 0.06929,
				"method": "rhf"
			},
			{
				"type": "unocc",
				"energy": 0.0904,
				"method": "rhf"
			}
		],
		"cosmo_sigma_profile": { 
			"-0.025": 0.0,
			"-0.024": 0.0,
			"-0.023": 0.0,
			"-0.022": 0.0,
			"-0.021": 0.0,
			"-0.02": 0.0,
			"-0.019": 0.255711491736,
			"-0.018": 1.08231231124,
			"-0.017": 0.911848394473,
			"-0.016": 0.843460440127,
			"-0.015": 0.624132618824,
			"-0.014": 0.712380972901,
			"-0.013": 0.709789697506,
			"-0.012": 0.821688484063,
			"-0.011": 0.590269518922,
			"-0.01": 0.503298257346,
			"-0.009": 0.573382539798,
			"-0.008": 1.60914012595,
			"-0.007": 4.15779388407,
			"-0.006": 10.3550081917,
			"-0.005": 16.64309511,
			"-0.004": 16.9341298287,
			"-0.003": 16.4539413766,
			"-0.002": 14.4252104216,
			"-0.001": 13.6711467544,
			"0.0": 10.4285762247,
			"0.001": 10.2808438471,
			"0.002": 10.8575596005,
			"0.003": 10.9105815552,
			"0.004": 11.7386767149,
			"0.005": 12.4243813282,
			"0.006": 10.7610478567,
			"0.007": 4.35128518,
			"0.008": 3.97097674979,
			"0.009": 3.40520636159,
			"0.01": 3.23698811653,
			"0.011": 2.69645702626,
			"0.012": 1.29035129746,
			"0.013": 1.23813521018,
			"0.014": 1.70698676542,
			"0.015": 0.328804658481,
			"0.016": 0.0,
			"0.017": 0.0,
			"0.018": 0.0,
			"0.019": 0.0,
			"0.02": 0.0,
			"0.021": 0.0,
			"0.022": 0.0,
			"0.023": 0.0,
			"0.024": 0.0,
			"0.025": 0.0
		}
	}
}
