{
	 "smiles": "NC(CC(O)=O)C1=CC=C(Cl)C=C1", 
	 "Tm": 517.15, 
	 "num_atms": 23, 
	 "gaussian": { 
		 "optdone": 1, 
		 "sigma_profile": "yes", 
		 "theory": "DFT", 
		 "functional": "B3LYP", 
		 "basiset": "6-31G**", 
		 "properties": { 
			 "R2extent": 3431.8189, 
			 "electric_dipole_moment_norm": 2.07983521943, 
			 "electric_quadrupole_moment_norm": 13.168814616, 
			 "total_energy": -1014.38997859, 
			 "HOMO_LUMO_gap": 0.21879, 
			 "cosmo_polarized_energy": -13.73, 
			 "cosmo_cavitation_energy": 28.6, 
			 "cosmo_dispersion_energy": -20.39, 
			 "cosmo_repulsion_energy": 1.64, 
			 "cosmo_total_nonelectrostatic_energy": 9.86, 
			 "SMD_solvation_energy": 4.45 
		},
		"coords": [
			{
				"x": 2.4810313156,
				"y": 0.2925571927,
				"z": 1.0389380323,
				"element": "N" 
			},
			{
				"x": 1.2379445062,
				"y": -0.4677270864,
				"z": 1.1444496051,
				"element": "C" 
			},
			{
				"x": 1.3091043358,
				"y": -1.7187410697,
				"z": 0.2285209896,
				"element": "C" 
			},
			{
				"x": 1.114157267,
				"y": -1.476341338,
				"z": -1.25365304,
				"element": "C" 
			},
			{
				"x": 1.9235968582,
				"y": -0.4910597366,
				"z": -1.7368084161,
				"element": "O" 
			},
			{
				"x": 0.3562443148,
				"y": -2.0853841061,
				"z": -1.9719302878,
				"element": "O" 
			},
			{
				"x": -0.0693274625,
				"y": 0.3067299245,
				"z": 0.9362142898,
				"element": "C" 
			},
			{
				"x": -1.2511316142,
				"y": -0.1511041462,
				"z": 1.5350921723,
				"element": "C" 
			},
			{
				"x": -2.4624786884,
				"y": 0.5144921026,
				"z": 1.3580140208,
				"element": "C" 
			},
			{
				"x": -2.4929720461,
				"y": 1.6640546961,
				"z": 0.5685758504,
				"element": "C" 
			},
			{
				"x": -4.0123677574,
				"y": 2.5202983233,
				"z": 0.3427715947,
				"element": "Cl" 
			},
			{
				"x": -1.3347121192,
				"y": 2.1477901463,
				"z": -0.0354445787,
				"element": "C" 
			},
			{
				"x": -0.1319524065,
				"y": 1.4652258857,
				"z": 0.154207084,
				"element": "C" 
			},
			{
				"x": 2.6522105785,
				"y": 0.5677212127,
				"z": 0.0762055397,
				"element": "H" 
			},
			{
				"x": 2.4260973032,
				"y": 1.1380570935,
				"z": 1.600245593,
				"element": "H" 
			},
			{
				"x": 1.2040900805,
				"y": -0.8683367233,
				"z": 2.1663871438,
				"element": "H" 
			},
			{
				"x": 0.5475024196,
				"y": -2.4444936348,
				"z": 0.5179952417,
				"element": "H" 
			},
			{
				"x": 2.2960848392,
				"y": -2.1746428539,
				"z": 0.3720131576,
				"element": "H" 
			},
			{
				"x": 1.7213233959,
				"y": -0.4211150865,
				"z": -2.6853836432,
				"element": "H" 
			},
			{
				"x": -1.227228598,
				"y": -1.0425437792,
				"z": 2.1580504233,
				"element": "H" 
			},
			{
				"x": -3.3700659215,
				"y": 0.1532456602,
				"z": 1.8290096453,
				"element": "H" 
			},
			{
				"x": -1.3725710376,
				"y": 3.0463364539,
				"z": -0.6416530983,
				"element": "H" 
			},
			{
				"x": 0.7707204369,
				"y": 1.8490808693,
				"z": -0.3103173191,
				"element": "H" 
			}
		],
		 "valence_orbital": [ 
			{
				"type": "occ",
				"energy": -0.31248,
				"method": "rhf"
			},
			{
				"type": "occ",
				"energy": -0.28047,
				"method": "rhf"
			},
			{
				"type": "occ",
				"energy": -0.26587,
				"method": "rhf"
			},
			{
				"type": "occ",
				"energy": -0.25306,
				"method": "rhf"
			},
			{
				"type": "occ",
				"energy": -0.23735,
				"method": "rhf"
			},
			{
				"type": "unocc",
				"energy": -0.01856,
				"method": "rhf"
			},
			{
				"type": "unocc",
				"energy": -0.01542,
				"method": "rhf"
			},
			{
				"type": "unocc",
				"energy": 0.00142,
				"method": "rhf"
			},
			{
				"type": "unocc",
				"energy": 0.029,
				"method": "rhf"
			},
			{
				"type": "unocc",
				"energy": 0.06458,
				"method": "rhf"
			}
		],
		"cosmo_sigma_profile": { 
			"-0.025": 0.0,
			"-0.024": 0.0,
			"-0.023": 0.0,
			"-0.022": 0.0,
			"-0.021": 0.0,
			"-0.02": 0.0,
			"-0.019": 0.0969517516453,
			"-0.018": 0.597598108571,
			"-0.017": 1.01708782234,
			"-0.016": 0.891440870988,
			"-0.015": 0.622626216449,
			"-0.014": 0.988579346854,
			"-0.013": 0.640760323446,
			"-0.012": 0.484634870708,
			"-0.011": 0.211184954372,
			"-0.01": 1.57441962404,
			"-0.009": 1.91889082394,
			"-0.008": 2.50075699102,
			"-0.007": 8.85238803193,
			"-0.006": 16.3053366659,
			"-0.005": 17.794447568,
			"-0.004": 14.4919238994,
			"-0.003": 12.3817074256,
			"-0.002": 12.6654955574,
			"-0.001": 11.9793872243,
			"0.0": 13.1555683428,
			"0.001": 14.1389013034,
			"0.002": 18.6483014102,
			"0.003": 18.2953951291,
			"0.004": 20.1658889831,
			"0.005": 13.1456995616,
			"0.006": 2.42034849143,
			"0.007": 1.73410377209,
			"0.008": 2.25413398461,
			"0.009": 2.68884805719,
			"0.01": 2.09230707391,
			"0.011": 4.83409106429,
			"0.012": 4.58325569611,
			"0.013": 1.39289835644,
			"0.014": 0.690532997802,
			"0.015": 0.529514859843,
			"0.016": 0.366455540886,
			"0.017": 0.674837761559,
			"0.018": 0.429357681003,
			"0.019": 0.213904211636,
			"0.02": 0.0,
			"0.021": 0.0,
			"0.022": 0.0,
			"0.023": 0.0,
			"0.024": 0.0,
			"0.025": 0.0
		}
	}
}
