{
	 "smiles": "CC1=C(N)C=C(CO)C=C1", 
	 "Tm": 382.15, 
	 "num_atms": 21, 
	 "gaussian": { 
		 "optdone": 1, 
		 "sigma_profile": "yes", 
		 "theory": "DFT", 
		 "functional": "B3LYP", 
		 "basiset": "6-31G**", 
		 "properties": { 
			 "R2extent": 2143.2001, 
			 "electric_dipole_moment_norm": 2.52402742854, 
			 "electric_quadrupole_moment_norm": 7.35569995786, 
			 "total_energy": -441.457200839, 
			 "HOMO_LUMO_gap": 0.20432, 
			 "cosmo_polarized_energy": -11.07, 
			 "cosmo_cavitation_energy": 23.85, 
			 "cosmo_dispersion_energy": -17.73, 
			 "cosmo_repulsion_energy": 1.45, 
			 "cosmo_total_nonelectrostatic_energy": 7.58, 
			 "SMD_solvation_energy": 4.03 
		},
		"coords": [
			{
				"x": 0.1814621261,
				"y": 2.1745803851,
				"z": 1.483263251,
				"element": "C" 
			},
			{
				"x": 0.4236482543,
				"y": 0.6944192474,
				"z": 1.3235669002,
				"element": "C" 
			},
			{
				"x": -0.2029636519,
				"y": -0.0227237519,
				"z": 0.2775082292,
				"element": "C" 
			},
			{
				"x": -1.0891809663,
				"y": 0.6289504737,
				"z": -0.5869700129,
				"element": "N" 
			},
			{
				"x": 0.020622715,
				"y": -1.4013428845,
				"z": 0.1511449697,
				"element": "C" 
			},
			{
				"x": 0.8525074423,
				"y": -2.0859406143,
				"z": 1.0399481834,
				"element": "C" 
			},
			{
				"x": 1.0454481258,
				"y": -3.5830238356,
				"z": 0.8955336015,
				"element": "C" 
			},
			{
				"x": 1.0023554222,
				"y": -4.0410388726,
				"z": -0.4508900639,
				"element": "O" 
			},
			{
				"x": 1.482950603,
				"y": -1.3766762848,
				"z": 2.0664446404,
				"element": "C" 
			},
			{
				"x": 1.2581889558,
				"y": -0.0056671574,
				"z": 2.197244607,
				"element": "C" 
			},
			{
				"x": 0.5466884165,
				"y": 2.7507437552,
				"z": 0.6203643441,
				"element": "H" 
			},
			{
				"x": 0.6927747643,
				"y": 2.5631855933,
				"z": 2.367628023,
				"element": "H" 
			},
			{
				"x": -0.887928139,
				"y": 2.397865426,
				"z": 1.5860488578,
				"element": "H" 
			},
			{
				"x": -1.285198562,
				"y": 0.128956922,
				"z": -1.4434086328,
				"element": "H" 
			},
			{
				"x": -0.8906396699,
				"y": 1.6044489954,
				"z": -0.7608874043,
				"element": "H" 
			},
			{
				"x": -0.4580951276,
				"y": -1.9550393511,
				"z": -0.6527921497,
				"element": "H" 
			},
			{
				"x": 0.2339150614,
				"y": -4.1193436175,
				"z": 1.4024241038,
				"element": "H" 
			},
			{
				"x": 1.9819473471,
				"y": -3.8817604616,
				"z": 1.3928877754,
				"element": "H" 
			},
			{
				"x": 1.664619541,
				"y": -3.5376131636,
				"z": -0.94320681,
				"element": "H" 
			},
			{
				"x": 2.1453279183,
				"y": -1.8896065517,
				"z": 2.7589215837,
				"element": "H" 
			},
			{
				"x": 1.7493494236,
				"y": 0.5430257485,
				"z": 2.9977260035,
				"element": "H" 
			}
		],
		 "valence_orbital": [ 
			{
				"type": "occ",
				"energy": -0.31646,
				"method": "rhf"
			},
			{
				"type": "occ",
				"energy": -0.30154,
				"method": "rhf"
			},
			{
				"type": "occ",
				"energy": -0.26919,
				"method": "rhf"
			},
			{
				"type": "occ",
				"energy": -0.23045,
				"method": "rhf"
			},
			{
				"type": "occ",
				"energy": -0.19763,
				"method": "rhf"
			},
			{
				"type": "unocc",
				"energy": 0.00669,
				"method": "rhf"
			},
			{
				"type": "unocc",
				"energy": 0.01957,
				"method": "rhf"
			},
			{
				"type": "unocc",
				"energy": 0.07758,
				"method": "rhf"
			},
			{
				"type": "unocc",
				"energy": 0.0939,
				"method": "rhf"
			},
			{
				"type": "unocc",
				"energy": 0.11351,
				"method": "rhf"
			}
		],
		"cosmo_sigma_profile": { 
			"-0.025": 0.0,
			"-0.024": 0.0,
			"-0.023": 0.0,
			"-0.022": 0.0,
			"-0.021": 0.0,
			"-0.02": 0.0,
			"-0.019": 0.0,
			"-0.018": 0.0,
			"-0.017": 0.0,
			"-0.016": 0.0,
			"-0.015": 0.566470031766,
			"-0.014": 0.921395914818,
			"-0.013": 1.04072094383,
			"-0.012": 1.52839896564,
			"-0.011": 2.96704234316,
			"-0.01": 3.20861588387,
			"-0.009": 3.73230913626,
			"-0.008": 4.23679330813,
			"-0.007": 4.08000758737,
			"-0.006": 3.45276967223,
			"-0.005": 6.66161608966,
			"-0.004": 17.3952953378,
			"-0.003": 16.5595030479,
			"-0.002": 15.3365167047,
			"-0.001": 13.2248044471,
			"0.0": 14.0899841536,
			"0.001": 10.7902366011,
			"0.002": 9.01894378553,
			"0.003": 7.57373183262,
			"0.004": 7.34097514928,
			"0.005": 7.76238305196,
			"0.006": 9.23435937452,
			"0.007": 9.32046089535,
			"0.008": 3.24112401635,
			"0.009": 2.43803204274,
			"0.01": 2.23385429881,
			"0.011": 1.53567720582,
			"0.012": 1.50573135856,
			"0.013": 2.64970735692,
			"0.014": 2.56809104822,
			"0.015": 0.792010505414,
			"0.016": 0.0,
			"0.017": 0.0,
			"0.018": 0.0,
			"0.019": 0.0,
			"0.02": 0.0,
			"0.021": 0.0,
			"0.022": 0.0,
			"0.023": 0.0,
			"0.024": 0.0,
			"0.025": 0.0
		}
	}
}
