{
	 "smiles": "COC1=C(C=CC=C1)C1=CN=C(CCl)O1", 
	 "Tm": 360.15, 
	 "num_atms": 25, 
	 "gaussian": { 
		 "optdone": 1, 
		 "sigma_profile": "yes", 
		 "theory": "DFT", 
		 "functional": "B3LYP", 
		 "basiset": "6-31G**", 
		 "properties": { 
			 "R2extent": 5075.7003, 
			 "electric_dipole_moment_norm": 4.36283715488, 
			 "electric_quadrupole_moment_norm": 18.096993776, 
			 "total_energy": -1090.57102535, 
			 "HOMO_LUMO_gap": 0.16463, 
			 "cosmo_polarized_energy": -10.4, 
			 "cosmo_cavitation_energy": 31.29, 
			 "cosmo_dispersion_energy": -22.9, 
			 "cosmo_repulsion_energy": 1.8, 
			 "cosmo_total_nonelectrostatic_energy": 10.19, 
			 "SMD_solvation_energy": 4.33 
		},
		"coords": [
			{
				"x": -0.5098010353,
				"y": 1.9804415487,
				"z": -3.3414048401,
				"element": "C" 
			},
			{
				"x": -0.1377139738,
				"y": 1.0327532877,
				"z": -2.3503470339,
				"element": "O" 
			},
			{
				"x": -1.0867387931,
				"y": 0.5866025575,
				"z": -1.4786941012,
				"element": "C" 
			},
			{
				"x": -0.6560719883,
				"y": -0.3606055197,
				"z": -0.5157000498,
				"element": "C" 
			},
			{
				"x": -1.5988410454,
				"y": -0.8504377887,
				"z": 0.4029545454,
				"element": "C" 
			},
			{
				"x": -2.9243511797,
				"y": -0.4245536881,
				"z": 0.3816501089,
				"element": "C" 
			},
			{
				"x": -3.3312102537,
				"y": 0.5079705153,
				"z": -0.5705784458,
				"element": "C" 
			},
			{
				"x": -2.4178618525,
				"y": 1.012888661,
				"z": -1.4983246742,
				"element": "C" 
			},
			{
				"x": 0.7225917952,
				"y": -0.8237474349,
				"z": -0.4689615487,
				"element": "C" 
			},
			{
				"x": 1.8773022082,
				"y": -0.601869562,
				"z": -1.176534048,
				"element": "C" 
			},
			{
				"x": 2.9058358661,
				"y": -1.3574886778,
				"z": -0.6459401338,
				"element": "N" 
			},
			{
				"x": 2.3641900654,
				"y": -1.9973566344,
				"z": 0.3474200134,
				"element": "C" 
			},
			{
				"x": 3.0132161606,
				"y": -2.9519076704,
				"z": 1.2698824701,
				"element": "C" 
			},
			{
				"x": 2.5546606648,
				"y": -4.6927551693,
				"z": 0.9207717919,
				"element": "Cl" 
			},
			{
				"x": 1.0435028461,
				"y": -1.7273341433,
				"z": 0.5223538354,
				"element": "O" 
			},
			{
				"x": -1.2794874499,
				"y": 1.5797355592,
				"z": -4.0122934165,
				"element": "H" 
			},
			{
				"x": 0.3955608582,
				"y": 2.1852449622,
				"z": -3.9142205771,
				"element": "H" 
			},
			{
				"x": -0.8715389574,
				"y": 2.9128613078,
				"z": -2.8909174224,
				"element": "H" 
			},
			{
				"x": -1.2736037421,
				"y": -1.577862473,
				"z": 1.1379755823,
				"element": "H" 
			},
			{
				"x": -3.6319072822,
				"y": -0.8205065463,
				"z": 1.1029734454,
				"element": "H" 
			},
			{
				"x": -4.3617056722,
				"y": 0.8493981567,
				"z": -0.6001404732,
				"element": "H" 
			},
			{
				"x": -2.749135964,
				"y": 1.7365841161,
				"z": -2.2327989977,
				"element": "H" 
			},
			{
				"x": 2.0224822472,
				"y": 0.0478356282,
				"z": -2.0220689077,
				"element": "H" 
			},
			{
				"x": 4.0925413254,
				"y": -2.8819075033,
				"z": 1.1532989628,
				"element": "H" 
			},
			{
				"x": 2.7245851526,
				"y": -2.7762834892,
				"z": 2.3061439145,
				"element": "H" 
			}
		],
		 "valence_orbital": [ 
			{
				"type": "occ",
				"energy": -0.29705,
				"method": "rhf"
			},
			{
				"type": "occ",
				"energy": -0.28864,
				"method": "rhf"
			},
			{
				"type": "occ",
				"energy": -0.28732,
				"method": "rhf"
			},
			{
				"type": "occ",
				"energy": -0.24141,
				"method": "rhf"
			},
			{
				"type": "occ",
				"energy": -0.21222,
				"method": "rhf"
			},
			{
				"type": "unocc",
				"energy": -0.04759,
				"method": "rhf"
			},
			{
				"type": "unocc",
				"energy": -0.00549,
				"method": "rhf"
			},
			{
				"type": "unocc",
				"energy": 0.00262,
				"method": "rhf"
			},
			{
				"type": "unocc",
				"energy": 0.05456,
				"method": "rhf"
			},
			{
				"type": "unocc",
				"energy": 0.07732,
				"method": "rhf"
			}
		],
		"cosmo_sigma_profile": { 
			"-0.025": 0.0,
			"-0.024": 0.0,
			"-0.023": 0.0,
			"-0.022": 0.0,
			"-0.021": 0.0,
			"-0.02": 0.0,
			"-0.019": 0.0,
			"-0.018": 0.0,
			"-0.017": 0.0,
			"-0.016": 0.0,
			"-0.015": 0.0,
			"-0.014": 0.0,
			"-0.013": 0.0,
			"-0.012": 0.0,
			"-0.011": 0.0,
			"-0.01": 0.382212470504,
			"-0.009": 3.65022718206,
			"-0.008": 3.30530832692,
			"-0.007": 5.91660949198,
			"-0.006": 17.3762415806,
			"-0.005": 20.5041279581,
			"-0.004": 19.4752927023,
			"-0.003": 16.9603714139,
			"-0.002": 12.3156656229,
			"-0.001": 13.3810384316,
			"0.0": 15.5694236425,
			"0.001": 19.5428965053,
			"0.002": 23.1848341489,
			"0.003": 21.6938698722,
			"0.004": 20.2947724273,
			"0.005": 17.9676640627,
			"0.006": 11.2968182057,
			"0.007": 2.37193454617,
			"0.008": 1.626014592,
			"0.009": 0.485588580519,
			"0.01": 0.706626976375,
			"0.011": 1.01829309186,
			"0.012": 1.30624195486,
			"0.013": 0.844824299936,
			"0.014": 0.888902524201,
			"0.015": 0.91177232673,
			"0.016": 0.14524099406,
			"0.017": 0.0,
			"0.018": 0.0,
			"0.019": 0.0,
			"0.02": 0.0,
			"0.021": 0.0,
			"0.022": 0.0,
			"0.023": 0.0,
			"0.024": 0.0,
			"0.025": 0.0
		}
	}
}
