{
	 "smiles": "CN1C=NC2=NC=NC2=C1N", 
	 "Tm": 573.15, 
	 "num_atms": 18, 
	 "gaussian": { 
		 "optdone": 1, 
		 "sigma_profile": "yes", 
		 "theory": "DFT", 
		 "functional": "B3LYP", 
		 "basiset": "6-31G**", 
		 "properties": { 
			 "R2extent": 2082.7767, 
			 "electric_dipole_moment_norm": 8.85967657705, 
			 "electric_quadrupole_moment_norm": 15.9938427115, 
			 "total_energy": -506.601995841, 
			 "HOMO_LUMO_gap": 0.18404, 
			 "cosmo_polarized_energy": -28.91, 
			 "cosmo_cavitation_energy": 21.87, 
			 "cosmo_dispersion_energy": -16.76, 
			 "cosmo_repulsion_energy": 1.31, 
			 "cosmo_total_nonelectrostatic_energy": 6.41, 
			 "SMD_solvation_energy": -1.12 
		},
		"coords": [
			{
				"x": -0.0608147201,
				"y": 2.259491277,
				"z": 0.4129518625,
				"element": "C" 
			},
			{
				"x": -0.7409123733,
				"y": 1.1534789112,
				"z": -0.2609157307,
				"element": "N" 
			},
			{
				"x": -1.5807838123,
				"y": 1.4165425163,
				"z": -1.3432335769,
				"element": "C" 
			},
			{
				"x": -2.2654716149,
				"y": 0.5396960872,
				"z": -2.0068067613,
				"element": "N" 
			},
			{
				"x": -2.1259368645,
				"y": -0.7512838161,
				"z": -1.5825730816,
				"element": "C" 
			},
			{
				"x": -2.6885187517,
				"y": -1.858179779,
				"z": -2.0810615546,
				"element": "N" 
			},
			{
				"x": -2.1681609387,
				"y": -2.8298575579,
				"z": -1.274659719,
				"element": "C" 
			},
			{
				"x": -1.3168266329,
				"y": -2.4657586925,
				"z": -0.3008932976,
				"element": "N" 
			},
			{
				"x": -1.2789071274,
				"y": -1.1149495447,
				"z": -0.4839656985,
				"element": "C" 
			},
			{
				"x": -0.5683918615,
				"y": -0.1374922569,
				"z": 0.1862781012,
				"element": "C" 
			},
			{
				"x": 0.2129918072,
				"y": -0.3915528478,
				"z": 1.2844273229,
				"element": "N" 
			},
			{
				"x": 1.0207909345,
				"y": 2.2262304813,
				"z": 0.2394103547,
				"element": "H" 
			},
			{
				"x": -0.4413606307,
				"y": 3.2012348447,
				"z": 0.0180309799,
				"element": "H" 
			},
			{
				"x": -0.2567092187,
				"y": 2.2208409522,
				"z": 1.487791424,
				"element": "H" 
			},
			{
				"x": -1.6313304866,
				"y": 2.4669818129,
				"z": -1.6153330128,
				"element": "H" 
			},
			{
				"x": -2.4365544059,
				"y": -3.8706460657,
				"z": -1.4223612707,
				"element": "H" 
			},
			{
				"x": 1.0639487257,
				"y": 0.1388120131,
				"z": 1.4083645851,
				"element": "H" 
			},
			{
				"x": 0.3184479719,
				"y": -1.3867883354,
				"z": 1.4450490734,
				"element": "H" 
			}
		],
		 "valence_orbital": [ 
			{
				"type": "occ",
				"energy": -0.30113,
				"method": "rhf"
			},
			{
				"type": "occ",
				"energy": -0.25075,
				"method": "rhf"
			},
			{
				"type": "occ",
				"energy": -0.24109,
				"method": "rhf"
			},
			{
				"type": "occ",
				"energy": -0.23763,
				"method": "rhf"
			},
			{
				"type": "occ",
				"energy": -0.21751,
				"method": "rhf"
			},
			{
				"type": "unocc",
				"energy": -0.03347,
				"method": "rhf"
			},
			{
				"type": "unocc",
				"energy": -0.01564,
				"method": "rhf"
			},
			{
				"type": "unocc",
				"energy": 0.04024,
				"method": "rhf"
			},
			{
				"type": "unocc",
				"energy": 0.08207,
				"method": "rhf"
			},
			{
				"type": "unocc",
				"energy": 0.0881,
				"method": "rhf"
			}
		],
		"cosmo_sigma_profile": { 
			"-0.025": 0.0,
			"-0.024": 0.0,
			"-0.023": 0.0,
			"-0.022": 0.0,
			"-0.021": 0.0,
			"-0.02": 0.0,
			"-0.019": 0.0,
			"-0.018": 0.0,
			"-0.017": 0.0,
			"-0.016": 0.405793090676,
			"-0.015": 1.30994688664,
			"-0.014": 2.55740178973,
			"-0.013": 2.79836458594,
			"-0.012": 3.11345521233,
			"-0.011": 4.60424801637,
			"-0.01": 4.54073059192,
			"-0.009": 4.99623381411,
			"-0.008": 6.59623318049,
			"-0.007": 8.45237115669,
			"-0.006": 10.7657829216,
			"-0.005": 11.7564333768,
			"-0.004": 12.7798421715,
			"-0.003": 7.39098176064,
			"-0.002": 5.97593822873,
			"-0.001": 5.58941605925,
			"0.0": 6.04763626014,
			"0.001": 5.71555944457,
			"0.002": 5.49389762259,
			"0.003": 5.45494794162,
			"0.004": 7.72877297641,
			"0.005": 5.67904293181,
			"0.006": 5.18336710587,
			"0.007": 4.72376669263,
			"0.008": 3.58683775187,
			"0.009": 4.34880489994,
			"0.01": 3.18019131851,
			"0.011": 2.98240062285,
			"0.012": 3.48017641457,
			"0.013": 4.50325946224,
			"0.014": 3.93843506834,
			"0.015": 3.75964536341,
			"0.016": 2.52071207438,
			"0.017": 1.74730568334,
			"0.018": 1.18179285052,
			"0.019": 0.34928370792,
			"0.02": 0.0,
			"0.021": 0.0,
			"0.022": 0.0,
			"0.023": 0.0,
			"0.024": 0.0,
			"0.025": 0.0
		}
	}
}
