{
	 "smiles": "BrC1=CC=CC2=C1C=CN2", 
	 "Tm": 290.15, 
	 "num_atms": 16, 
	 "gaussian": { 
		 "optdone": 1, 
		 "sigma_profile": "yes", 
		 "theory": "DFT", 
		 "functional": "B3LYP", 
		 "basiset": "6-31G**", 
		 "properties": { 
			 "R2extent": 2115.5016, 
			 "electric_dipole_moment_norm": 3.83955822719, 
			 "electric_quadrupole_moment_norm": 9.33037517734, 
			 "total_energy": -2934.62583166, 
			 "HOMO_LUMO_gap": 0.18924, 
			 "cosmo_polarized_energy": -9.2, 
			 "cosmo_cavitation_energy": 22.08, 
			 "cosmo_dispersion_energy": -17.12, 
			 "cosmo_repulsion_energy": 1.37, 
			 "cosmo_total_nonelectrostatic_energy": 6.32, 
			 "SMD_solvation_energy": 2.64 
		},
		"coords": [
			{
				"x": 0.9073142842,
				"y": 1.6300842859,
				"z": 1.7046832381,
				"element": "Br" 
			},
			{
				"x": 1.0608851913,
				"y": 0.5436215003,
				"z": 0.1387502898,
				"element": "C" 
			},
			{
				"x": 2.3013642995,
				"y": 0.3490289063,
				"z": -0.4478833801,
				"element": "C" 
			},
			{
				"x": 2.419738501,
				"y": -0.4510131129,
				"z": -1.6024543696,
				"element": "C" 
			},
			{
				"x": 1.313594576,
				"y": -1.0610312445,
				"z": -2.1808604729,
				"element": "C" 
			},
			{
				"x": 0.0715037317,
				"y": -0.8514706865,
				"z": -1.5727696177,
				"element": "C" 
			},
			{
				"x": -0.0886668689,
				"y": -0.0496511683,
				"z": -0.4051402913,
				"element": "C" 
			},
			{
				"x": -1.4822313642,
				"y": -0.0610965837,
				"z": -0.0694454721,
				"element": "C" 
			},
			{
				"x": -2.110275648,
				"y": -0.8394021195,
				"z": -1.0050302096,
				"element": "C" 
			},
			{
				"x": -1.1820079506,
				"y": -1.3176284715,
				"z": -1.91167199,
				"element": "N" 
			},
			{
				"x": 3.1807446041,
				"y": 0.8134989063,
				"z": -0.0169552744,
				"element": "H" 
			},
			{
				"x": 3.4016259651,
				"y": -0.5892368896,
				"z": -2.044612137,
				"element": "H" 
			},
			{
				"x": 1.4118546,
				"y": -1.6761305971,
				"z": -3.0703593325,
				"element": "H" 
			},
			{
				"x": -1.947366631,
				"y": 0.4466032489,
				"z": 0.7617232664,
				"element": "H" 
			},
			{
				"x": -3.1549283014,
				"y": -1.0972714092,
				"z": -1.1038186066,
				"element": "H" 
			},
			{
				"x": -1.3877489888,
				"y": -1.913104565,
				"z": -2.6969556405,
				"element": "H" 
			}
		],
		 "valence_orbital": [ 
			{
				"type": "occ",
				"energy": -0.30456,
				"method": "rhf"
			},
			{
				"type": "occ",
				"energy": -0.2775,
				"method": "rhf"
			},
			{
				"type": "occ",
				"energy": -0.26354,
				"method": "rhf"
			},
			{
				"type": "occ",
				"energy": -0.22836,
				"method": "rhf"
			},
			{
				"type": "occ",
				"energy": -0.20608,
				"method": "rhf"
			},
			{
				"type": "unocc",
				"energy": -0.01684,
				"method": "rhf"
			},
			{
				"type": "unocc",
				"energy": 0.01942,
				"method": "rhf"
			},
			{
				"type": "unocc",
				"energy": 0.02025,
				"method": "rhf"
			},
			{
				"type": "unocc",
				"energy": 0.06597,
				"method": "rhf"
			},
			{
				"type": "unocc",
				"energy": 0.07415,
				"method": "rhf"
			}
		],
		"cosmo_sigma_profile": { 
			"-0.025": 0.0,
			"-0.024": 0.0,
			"-0.023": 0.0,
			"-0.022": 0.0,
			"-0.021": 0.0,
			"-0.02": 0.0,
			"-0.019": 0.0,
			"-0.018": 0.0,
			"-0.017": 0.0,
			"-0.016": 0.853934018398,
			"-0.015": 1.67900365016,
			"-0.014": 1.55095647557,
			"-0.013": 0.871324530871,
			"-0.012": 1.48120481845,
			"-0.011": 1.30401779149,
			"-0.01": 1.36359160796,
			"-0.009": 1.80759073747,
			"-0.008": 3.65992160534,
			"-0.007": 3.67390492241,
			"-0.006": 7.84178153365,
			"-0.005": 8.98118392577,
			"-0.004": 9.2492238835,
			"-0.003": 9.62280778945,
			"-0.002": 8.64619713273,
			"-0.001": 9.65121590045,
			"0.0": 7.91855953245,
			"0.001": 10.4434581817,
			"0.002": 10.3893702054,
			"0.003": 20.7341935616,
			"0.004": 25.5302462433,
			"0.005": 25.1228157961,
			"0.006": 7.73477428081,
			"0.007": 0.650123552914,
			"0.008": 0.0,
			"0.009": 0.0,
			"0.01": 0.0,
			"0.011": 0.0,
			"0.012": 0.0,
			"0.013": 0.0,
			"0.014": 0.0,
			"0.015": 0.0,
			"0.016": 0.0,
			"0.017": 0.0,
			"0.018": 0.0,
			"0.019": 0.0,
			"0.02": 0.0,
			"0.021": 0.0,
			"0.022": 0.0,
			"0.023": 0.0,
			"0.024": 0.0,
			"0.025": 0.0
		}
	}
}
