{
	 "smiles": "ON=CC1=CC(OCC2=CC=NC=C2)=CC=C1", 
	 "Tm": 451.15, 
	 "num_atms": 29, 
	 "gaussian": { 
		 "optdone": 1, 
		 "sigma_profile": "yes", 
		 "theory": "DFT", 
		 "functional": "B3LYP", 
		 "basiset": "6-31G**", 
		 "properties": { 
			 "R2extent": 7102.0839, 
			 "electric_dipole_moment_norm": 2.83469823085, 
			 "electric_quadrupole_moment_norm": 12.1685156334, 
			 "total_energy": -762.486612903, 
			 "HOMO_LUMO_gap": 0.18429, 
			 "cosmo_polarized_energy": -14.57, 
			 "cosmo_cavitation_energy": 34.07, 
			 "cosmo_dispersion_energy": -24.96, 
			 "cosmo_repulsion_energy": 1.92, 
			 "cosmo_total_nonelectrostatic_energy": 11.02, 
			 "SMD_solvation_energy": 4.6 
		},
		"coords": [
			{
				"x": -0.9142594024,
				"y": -5.2475001519,
				"z": -0.4903065902,
				"element": "O" 
			},
			{
				"x": -0.0722716813,
				"y": -4.8548363029,
				"z": 0.5568584214,
				"element": "N" 
			},
			{
				"x": -0.0061908629,
				"y": -3.5829115295,
				"z": 0.7294881301,
				"element": "C" 
			},
			{
				"x": -0.6321896896,
				"y": -2.4355474372,
				"z": 0.0559414707,
				"element": "C" 
			},
			{
				"x": -0.2929498146,
				"y": -1.1699386239,
				"z": 0.5569979467,
				"element": "C" 
			},
			{
				"x": -0.8236869735,
				"y": -0.0031123534,
				"z": -0.0000353932,
				"element": "C" 
			},
			{
				"x": -0.4134816464,
				"y": 1.1667040343,
				"z": 0.5803881088,
				"element": "O" 
			},
			{
				"x": -0.9084803703,
				"y": 2.3891508381,
				"z": 0.0621113423,
				"element": "C" 
			},
			{
				"x": -0.3194853476,
				"y": 3.5455481067,
				"z": 0.835509925,
				"element": "C" 
			},
			{
				"x": 0.6453312917,
				"y": 3.3757640112,
				"z": 1.8289782019,
				"element": "C" 
			},
			{
				"x": 1.1398468938,
				"y": 4.5061371323,
				"z": 2.483612859,
				"element": "C" 
			},
			{
				"x": 0.7486779337,
				"y": 5.7579718381,
				"z": 2.2203032603,
				"element": "N" 
			},
			{
				"x": -0.1781224678,
				"y": 5.9091117265,
				"z": 1.2643564952,
				"element": "C" 
			},
			{
				"x": -0.7376105238,
				"y": 4.8505684313,
				"z": 0.5521961314,
				"element": "C" 
			},
			{
				"x": -1.7113739608,
				"y": -0.0892358682,
				"z": -1.0777814905,
				"element": "C" 
			},
			{
				"x": -2.0497804812,
				"y": -1.3511388935,
				"z": -1.5778071502,
				"element": "C" 
			},
			{
				"x": -1.5280199688,
				"y": -2.518251444,
				"z": -1.0321844605,
				"element": "C" 
			},
			{
				"x": -0.8335583462,
				"y": -6.2098523904,
				"z": -0.4627734759,
				"element": "H" 
			},
			{
				"x": 0.6603085323,
				"y": -3.330666196,
				"z": 1.5540548457,
				"element": "H" 
			},
			{
				"x": 0.3929271321,
				"y": -1.0716308418,
				"z": 1.3930303862,
				"element": "H" 
			},
			{
				"x": -0.6463052896,
				"y": 2.4852439024,
				"z": -1.0027856234,
				"element": "H" 
			},
			{
				"x": -2.0064500415,
				"y": 2.4175606629,
				"z": 0.1305885649,
				"element": "H" 
			},
			{
				"x": 0.9998475932,
				"y": 2.3852710516,
				"z": 2.0864435348,
				"element": "H" 
			},
			{
				"x": 1.8924430348,
				"y": 4.3941012893,
				"z": 3.2625538715,
				"element": "H" 
			},
			{
				"x": -0.4916806012,
				"y": 6.9309688034,
				"z": 1.0572972078,
				"element": "H" 
			},
			{
				"x": -1.48818548,
				"y": 5.045377349,
				"z": -0.2098765368,
				"element": "H" 
			},
			{
				"x": -2.1387783204,
				"y": 0.7983515555,
				"z": -1.5284813499,
				"element": "H" 
			},
			{
				"x": -2.7391962129,
				"y": -1.415860584,
				"z": -2.4147597041,
				"element": "H" 
			},
			{
				"x": -1.8022249285,
				"y": -3.482248116,
				"z": -1.432918929,
				"element": "H" 
			}
		],
		 "valence_orbital": [ 
			{
				"type": "occ",
				"energy": -0.27262,
				"method": "rhf"
			},
			{
				"type": "occ",
				"energy": -0.2637,
				"method": "rhf"
			},
			{
				"type": "occ",
				"energy": -0.25433,
				"method": "rhf"
			},
			{
				"type": "occ",
				"energy": -0.23815,
				"method": "rhf"
			},
			{
				"type": "occ",
				"energy": -0.22877,
				"method": "rhf"
			},
			{
				"type": "unocc",
				"energy": -0.04448,
				"method": "rhf"
			},
			{
				"type": "unocc",
				"energy": -0.02634,
				"method": "rhf"
			},
			{
				"type": "unocc",
				"energy": -0.0122,
				"method": "rhf"
			},
			{
				"type": "unocc",
				"energy": 4e-05,
				"method": "rhf"
			},
			{
				"type": "unocc",
				"energy": 0.05788,
				"method": "rhf"
			}
		],
		"cosmo_sigma_profile": { 
			"-0.025": 0.0,
			"-0.024": 0.0,
			"-0.023": 0.0,
			"-0.022": 0.0,
			"-0.021": 0.0,
			"-0.02": 0.0,
			"-0.019": 0.0,
			"-0.018": 0.245680605146,
			"-0.017": 1.25673832682,
			"-0.016": 0.617565208031,
			"-0.015": 0.685238308799,
			"-0.014": 1.17893629547,
			"-0.013": 0.554526604176,
			"-0.012": 0.54760532356,
			"-0.011": 0.49220933343,
			"-0.01": 0.676593747541,
			"-0.009": 0.687207384428,
			"-0.008": 3.38853343648,
			"-0.007": 15.8297524901,
			"-0.006": 20.7335393301,
			"-0.005": 17.8708706414,
			"-0.004": 16.5006395887,
			"-0.003": 14.0685686024,
			"-0.002": 12.2734551941,
			"-0.001": 12.4053443553,
			"0.0": 14.0574913489,
			"0.001": 17.0999587495,
			"0.002": 26.8767823418,
			"0.003": 29.6672177459,
			"0.004": 21.4620210126,
			"0.005": 13.5232358244,
			"0.006": 6.45093025402,
			"0.007": 4.73802881248,
			"0.008": 4.69252000162,
			"0.009": 4.35544157449,
			"0.01": 1.22631570674,
			"0.011": 1.1185094227,
			"0.012": 1.97720024027,
			"0.013": 2.14572668497,
			"0.014": 1.01075027613,
			"0.015": 1.02672929206,
			"0.016": 0.747726551046,
			"0.017": 0.603192758399,
			"0.018": 0.0132022738429,
			"0.019": 0.0,
			"0.02": 0.0,
			"0.021": 0.0,
			"0.022": 0.0,
			"0.023": 0.0,
			"0.024": 0.0,
			"0.025": 0.0
		}
	}
}
