{
	 "smiles": "OC(CNC1=CC=CC=N1)C1=CC=CC=C1", 
	 "Tm": 356.65, 
	 "num_atms": 30, 
	 "gaussian": { 
		 "optdone": 1, 
		 "sigma_profile": "yes", 
		 "theory": "DFT", 
		 "functional": "B3LYP", 
		 "basiset": "6-31G**", 
		 "properties": { 
			 "R2extent": 4918.9843, 
			 "electric_dipole_moment_norm": 1.1784559262, 
			 "electric_quadrupole_moment_norm": 12.7816703975, 
			 "total_energy": -688.544957989, 
			 "HOMO_LUMO_gap": 0.19604, 
			 "cosmo_polarized_energy": -11.56, 
			 "cosmo_cavitation_energy": 33.22, 
			 "cosmo_dispersion_energy": -23.94, 
			 "cosmo_repulsion_energy": 1.85, 
			 "cosmo_total_nonelectrostatic_energy": 11.14, 
			 "SMD_solvation_energy": 3.77 
		},
		"coords": [
			{
				"x": -1.3190978662,
				"y": -1.8023964145,
				"z": -0.0054648933,
				"element": "O" 
			},
			{
				"x": -2.0062061289,
				"y": -0.7170702214,
				"z": -0.6050652282,
				"element": "C" 
			},
			{
				"x": -1.8074615248,
				"y": 0.5419826719,
				"z": 0.2724547132,
				"element": "C" 
			},
			{
				"x": -0.3910236187,
				"y": 0.7820689684,
				"z": 0.5349102548,
				"element": "N" 
			},
			{
				"x": 0.1637443321,
				"y": 0.7692263769,
				"z": 1.8114402453,
				"element": "C" 
			},
			{
				"x": -0.2955806518,
				"y": -0.0983794904,
				"z": 2.8244942832,
				"element": "C" 
			},
			{
				"x": 0.3334630885,
				"y": -0.0504420255,
				"z": 4.061641699,
				"element": "C" 
			},
			{
				"x": 1.404821609,
				"y": 0.8252549756,
				"z": 4.2618975036,
				"element": "C" 
			},
			{
				"x": 1.8000462093,
				"y": 1.6144244455,
				"z": 3.1845031339,
				"element": "C" 
			},
			{
				"x": 1.2000936487,
				"y": 1.6048351853,
				"z": 1.9886970416,
				"element": "N" 
			},
			{
				"x": -1.6034916265,
				"y": -0.4860265352,
				"z": -2.0612751868,
				"element": "C" 
			},
			{
				"x": -0.6034351803,
				"y": -1.2537652637,
				"z": -2.6653605962,
				"element": "C" 
			},
			{
				"x": -0.238415406,
				"y": -1.0299077532,
				"z": -3.9951392393,
				"element": "C" 
			},
			{
				"x": -0.8753270077,
				"y": -0.0396530092,
				"z": -4.7426328398,
				"element": "C" 
			},
			{
				"x": -1.8871169771,
				"y": 0.7226011626,
				"z": -4.1533376581,
				"element": "C" 
			},
			{
				"x": -2.2470293507,
				"y": 0.4992715708,
				"z": -2.8249134232,
				"element": "C" 
			},
			{
				"x": -0.4241792711,
				"y": -1.4690567508,
				"z": 0.1726698474,
				"element": "H" 
			},
			{
				"x": -3.0706255706,
				"y": -0.9839601757,
				"z": -0.5769385513,
				"element": "H" 
			},
			{
				"x": -2.2535437482,
				"y": 1.4208594409,
				"z": -0.206302491,
				"element": "H" 
			},
			{
				"x": -2.3269184087,
				"y": 0.3913394669,
				"z": 1.2228784927,
				"element": "H" 
			},
			{
				"x": 0.051625774,
				"y": 1.4859113392,
				"z": -0.0421887544,
				"element": "H" 
			},
			{
				"x": -1.0896603787,
				"y": -0.8089443943,
				"z": 2.6249101891,
				"element": "H" 
			},
			{
				"x": -0.0005092204,
				"y": -0.705998452,
				"z": 4.8612583427,
				"element": "H" 
			},
			{
				"x": 1.9215958903,
				"y": 0.885371392,
				"z": 5.2134641752,
				"element": "H" 
			},
			{
				"x": 2.6401342422,
				"y": 2.3004616055,
				"z": 3.2831630581,
				"element": "H" 
			},
			{
				"x": -0.1268601946,
				"y": -2.0415118007,
				"z": -2.0922556644,
				"element": "H" 
			},
			{
				"x": 0.5423025636,
				"y": -1.635458908,
				"z": -4.4472338463,
				"element": "H" 
			},
			{
				"x": -0.5928232128,
				"y": 0.1335856659,
				"z": -5.777054528,
				"element": "H" 
			},
			{
				"x": -2.3981097349,
				"y": 1.4891182354,
				"z": -4.7294202079,
				"element": "H" 
			},
			{
				"x": -3.0450122788,
				"y": 1.0929586918,
				"z": -2.3838998714,
				"element": "H" 
			}
		],
		 "valence_orbital": [ 
			{
				"type": "occ",
				"energy": -0.27393,
				"method": "rhf"
			},
			{
				"type": "occ",
				"energy": -0.257,
				"method": "rhf"
			},
			{
				"type": "occ",
				"energy": -0.24922,
				"method": "rhf"
			},
			{
				"type": "occ",
				"energy": -0.24277,
				"method": "rhf"
			},
			{
				"type": "occ",
				"energy": -0.21331,
				"method": "rhf"
			},
			{
				"type": "unocc",
				"energy": -0.01727,
				"method": "rhf"
			},
			{
				"type": "unocc",
				"energy": -0.00414,
				"method": "rhf"
			},
			{
				"type": "unocc",
				"energy": 0.00137,
				"method": "rhf"
			},
			{
				"type": "unocc",
				"energy": 0.00675,
				"method": "rhf"
			},
			{
				"type": "unocc",
				"energy": 0.08442,
				"method": "rhf"
			}
		],
		"cosmo_sigma_profile": { 
			"-0.025": 0.0,
			"-0.024": 0.0,
			"-0.023": 0.0,
			"-0.022": 0.0,
			"-0.021": 0.0,
			"-0.02": 0.0,
			"-0.019": 0.0,
			"-0.018": 0.0,
			"-0.017": 0.0,
			"-0.016": 0.0,
			"-0.015": 0.0,
			"-0.014": 0.0,
			"-0.013": 0.0,
			"-0.012": 0.462636210798,
			"-0.011": 1.54182999922,
			"-0.01": 1.04499701201,
			"-0.009": 1.44519768086,
			"-0.008": 1.64911389365,
			"-0.007": 3.46506085081,
			"-0.006": 14.7844569022,
			"-0.005": 27.4636428318,
			"-0.004": 27.4251570594,
			"-0.003": 22.1741188866,
			"-0.002": 17.8650773955,
			"-0.001": 15.7800775983,
			"0.0": 12.8543612219,
			"0.001": 14.5743274384,
			"0.002": 16.8343580671,
			"0.003": 18.5626431913,
			"0.004": 20.7354878178,
			"0.005": 14.4479485141,
			"0.006": 10.7269722384,
			"0.007": 3.46377506774,
			"0.008": 3.02290507311,
			"0.009": 2.19368053899,
			"0.01": 2.34416050711,
			"0.011": 1.82975859637,
			"0.012": 1.84363900846,
			"0.013": 2.58788828123,
			"0.014": 2.06583290562,
			"0.015": 0.829016186386,
			"0.016": 0.18868225687,
			"0.017": 0.0,
			"0.018": 0.0,
			"0.019": 0.0,
			"0.02": 0.0,
			"0.021": 0.0,
			"0.022": 0.0,
			"0.023": 0.0,
			"0.024": 0.0,
			"0.025": 0.0
		}
	}
}
