{
	 "smiles": "N#CC1=CC(=CC=C1)N1C=NC=N1", 
	 "Tm": 424.15, 
	 "num_atms": 19, 
	 "gaussian": { 
		 "optdone": 1, 
		 "sigma_profile": "yes", 
		 "theory": "DFT", 
		 "functional": "B3LYP", 
		 "basiset": "6-31G**", 
		 "properties": { 
			 "R2extent": 3042.0006, 
			 "electric_dipole_moment_norm": 4.59167289994, 
			 "electric_quadrupole_moment_norm": 29.7374661069, 
			 "total_energy": -565.540740613, 
			 "HOMO_LUMO_gap": 0.19149, 
			 "cosmo_polarized_energy": -14.87, 
			 "cosmo_cavitation_energy": 25.24, 
			 "cosmo_dispersion_energy": -18.13, 
			 "cosmo_repulsion_energy": 1.39, 
			 "cosmo_total_nonelectrostatic_energy": 8.5, 
			 "SMD_solvation_energy": 4.06 
		},
		"coords": [
			{
				"x": -0.989103975,
				"y": 0.9490122167,
				"z": -5.2448886737,
				"element": "N" 
			},
			{
				"x": -1.0730161502,
				"y": 0.3797676833,
				"z": -4.2344030042,
				"element": "C" 
			},
			{
				"x": -1.1826237525,
				"y": -0.3320258716,
				"z": -2.9924426165,
				"element": "C" 
			},
			{
				"x": -0.6259809259,
				"y": 0.2191803054,
				"z": -1.8304702167,
				"element": "C" 
			},
			{
				"x": -0.7353668358,
				"y": -0.4771243007,
				"z": -0.6249401485,
				"element": "C" 
			},
			{
				"x": -1.3938810384,
				"y": -1.7121107759,
				"z": -0.5782228783,
				"element": "C" 
			},
			{
				"x": -1.9426839056,
				"y": -2.248019018,
				"z": -1.7423550237,
				"element": "C" 
			},
			{
				"x": -1.8446758704,
				"y": -1.5701499442,
				"z": -2.954046441,
				"element": "C" 
			},
			{
				"x": -0.1694463462,
				"y": 0.0870724833,
				"z": 0.5474413382,
				"element": "N" 
			},
			{
				"x": -0.1400037661,
				"y": -0.3833076584,
				"z": 1.8270240404,
				"element": "C" 
			},
			{
				"x": 0.4922705514,
				"y": 0.4602582872,
				"z": 2.6166785964,
				"element": "N" 
			},
			{
				"x": 0.8445533768,
				"y": 1.4628576629,
				"z": 1.7590546375,
				"element": "C" 
			},
			{
				"x": 0.472397903,
				"y": 1.2905359743,
				"z": 0.5036984668,
				"element": "N" 
			},
			{
				"x": -0.1145114105,
				"y": 1.1724481455,
				"z": -1.8523389278,
				"element": "H" 
			},
			{
				"x": -1.4836205356,
				"y": -2.2596313086,
				"z": 0.3528988914,
				"element": "H" 
			},
			{
				"x": -2.4515123732,
				"y": -3.2055251727,
				"z": -1.6984614545,
				"element": "H" 
			},
			{
				"x": -2.270244999,
				"y": -1.9838656404,
				"z": -3.8612446837,
				"element": "H" 
			},
			{
				"x": -0.5802074862,
				"y": -1.3209653187,
				"z": 2.1308775373,
				"element": "H" 
			},
			{
				"x": 1.3901575393,
				"y": 2.3427922505,
				"z": 2.0703405606,
				"element": "H" 
			}
		],
		 "valence_orbital": [ 
			{
				"type": "occ",
				"energy": -0.3318,
				"method": "rhf"
			},
			{
				"type": "occ",
				"energy": -0.29408,
				"method": "rhf"
			},
			{
				"type": "occ",
				"energy": -0.29276,
				"method": "rhf"
			},
			{
				"type": "occ",
				"energy": -0.28271,
				"method": "rhf"
			},
			{
				"type": "occ",
				"energy": -0.26013,
				"method": "rhf"
			},
			{
				"type": "unocc",
				"energy": -0.06864,
				"method": "rhf"
			},
			{
				"type": "unocc",
				"energy": -0.05243,
				"method": "rhf"
			},
			{
				"type": "unocc",
				"energy": 0.00524,
				"method": "rhf"
			},
			{
				"type": "unocc",
				"energy": 0.029,
				"method": "rhf"
			},
			{
				"type": "unocc",
				"energy": 0.03816,
				"method": "rhf"
			}
		],
		"cosmo_sigma_profile": { 
			"-0.025": 0.0,
			"-0.024": 0.0,
			"-0.023": 0.0,
			"-0.022": 0.0,
			"-0.021": 0.0,
			"-0.02": 0.0,
			"-0.019": 0.0,
			"-0.018": 0.0,
			"-0.017": 0.0,
			"-0.016": 0.0,
			"-0.015": 0.0,
			"-0.014": 0.0,
			"-0.013": 0.594997892891,
			"-0.012": 2.31972491348,
			"-0.011": 2.14966520082,
			"-0.01": 2.13865442646,
			"-0.009": 4.72987015611,
			"-0.008": 7.91716168096,
			"-0.007": 11.8188342752,
			"-0.006": 9.92484360329,
			"-0.005": 7.3826448127,
			"-0.004": 10.2608409795,
			"-0.003": 10.8570849958,
			"-0.002": 14.6776005732,
			"-0.001": 16.378512646,
			"0.0": 20.0819671811,
			"0.001": 17.9325888649,
			"0.002": 9.37121804175,
			"0.003": 6.62690879598,
			"0.004": 4.91924911224,
			"0.005": 5.84958211769,
			"0.006": 5.29969556422,
			"0.007": 4.99574268444,
			"0.008": 5.76712050651,
			"0.009": 6.17566022158,
			"0.01": 5.55959224466,
			"0.011": 3.7385390817,
			"0.012": 3.5561124051,
			"0.013": 2.29503752741,
			"0.014": 0.973872805695,
			"0.015": 1.09921863446,
			"0.016": 0.527210451109,
			"0.017": 0.0,
			"0.018": 0.0,
			"0.019": 0.0,
			"0.02": 0.0,
			"0.021": 0.0,
			"0.022": 0.0,
			"0.023": 0.0,
			"0.024": 0.0,
			"0.025": 0.0
		}
	}
}
