{
	 "smiles": "OC(=O)CCC(=O)C1=CC=CC=C1", 
	 "Tm": 391.15, 
	 "num_atms": 23, 
	 "gaussian": { 
		 "optdone": 1, 
		 "sigma_profile": "yes", 
		 "theory": "DFT", 
		 "functional": "B3LYP", 
		 "basiset": "6-31G**", 
		 "properties": { 
			 "R2extent": 3878.583, 
			 "electric_dipole_moment_norm": 1.59064328182, 
			 "electric_quadrupole_moment_norm": 11.4215485776, 
			 "total_energy": -612.784200468, 
			 "HOMO_LUMO_gap": 0.19458, 
			 "cosmo_polarized_energy": -13.14, 
			 "cosmo_cavitation_energy": 27.95, 
			 "cosmo_dispersion_energy": -20.2, 
			 "cosmo_repulsion_energy": 1.61, 
			 "cosmo_total_nonelectrostatic_energy": 9.36, 
			 "SMD_solvation_energy": 6.33 
		},
		"coords": [
			{
				"x": 1.1608276536,
				"y": 4.6041406862,
				"z": 3.1488830137,
				"element": "O" 
			},
			{
				"x": 1.2431892974,
				"y": 3.2924793766,
				"z": 2.8201079455,
				"element": "C" 
			},
			{
				"x": 1.8881519047,
				"y": 2.4980499919,
				"z": 3.4711272021,
				"element": "O" 
			},
			{
				"x": 0.4456442106,
				"y": 2.9827420803,
				"z": 1.5750216756,
				"element": "C" 
			},
			{
				"x": 0.5263634734,
				"y": 1.5098476622,
				"z": 1.1892014661,
				"element": "C" 
			},
			{
				"x": -0.276287488,
				"y": 1.1929889149,
				"z": -0.0661614305,
				"element": "C" 
			},
			{
				"x": -0.8938490166,
				"y": 2.073194591,
				"z": -0.6497920188,
				"element": "O" 
			},
			{
				"x": -0.293848982,
				"y": -0.2182687713,
				"z": -0.5717197622,
				"element": "C" 
			},
			{
				"x": -1.0382762889,
				"y": -0.493434253,
				"z": -1.7301635297,
				"element": "C" 
			},
			{
				"x": -1.0909826287,
				"y": -1.7848211485,
				"z": -2.2451892106,
				"element": "C" 
			},
			{
				"x": -0.3992675323,
				"y": -2.8198431717,
				"z": -1.6082009522,
				"element": "C" 
			},
			{
				"x": 0.3439802503,
				"y": -2.5572962463,
				"z": -0.4557766817,
				"element": "C" 
			},
			{
				"x": 0.3974606199,
				"y": -1.2629967712,
				"z": 0.0613499249,
				"element": "C" 
			},
			{
				"x": 1.6966894923,
				"y": 4.714686895,
				"z": 3.9521865832,
				"element": "H" 
			},
			{
				"x": -0.5920644104,
				"y": 3.2922077741,
				"z": 1.7388985953,
				"element": "H" 
			},
			{
				"x": 0.8030529986,
				"y": 3.6243870664,
				"z": 0.7626074832,
				"element": "H" 
			},
			{
				"x": 1.5712161672,
				"y": 1.213881545,
				"z": 1.0361336108,
				"element": "H" 
			},
			{
				"x": 0.1721129842,
				"y": 0.8808549684,
				"z": 2.0147968716,
				"element": "H" 
			},
			{
				"x": -1.5657850974,
				"y": 0.326734421,
				"z": -2.2055086085,
				"element": "H" 
			},
			{
				"x": -1.6693558723,
				"y": -1.9882823472,
				"z": -3.1417299675,
				"element": "H" 
			},
			{
				"x": -0.4397418496,
				"y": -3.8285542169,
				"z": -2.0094772718,
				"element": "H" 
			},
			{
				"x": 0.8818457246,
				"y": -3.3597681397,
				"z": 0.040321562,
				"element": "H" 
			},
			{
				"x": 0.9793243892,
				"y": -1.0746309071,
				"z": 0.9576834995,
				"element": "H" 
			}
		],
		 "valence_orbital": [ 
			{
				"type": "occ",
				"energy": -0.3199,
				"method": "rhf"
			},
			{
				"type": "occ",
				"energy": -0.27841,
				"method": "rhf"
			},
			{
				"type": "occ",
				"energy": -0.2631,
				"method": "rhf"
			},
			{
				"type": "occ",
				"energy": -0.25995,
				"method": "rhf"
			},
			{
				"type": "occ",
				"energy": -0.25255,
				"method": "rhf"
			},
			{
				"type": "unocc",
				"energy": -0.05797,
				"method": "rhf"
			},
			{
				"type": "unocc",
				"energy": -0.01122,
				"method": "rhf"
			},
			{
				"type": "unocc",
				"energy": 0.00882,
				"method": "rhf"
			},
			{
				"type": "unocc",
				"energy": 0.03793,
				"method": "rhf"
			},
			{
				"type": "unocc",
				"energy": 0.07818,
				"method": "rhf"
			}
		],
		"cosmo_sigma_profile": { 
			"-0.025": 0.0,
			"-0.024": 0.0,
			"-0.023": 0.0,
			"-0.022": 0.0,
			"-0.021": 0.0,
			"-0.02": 0.0,
			"-0.019": 0.0,
			"-0.018": 0.675936966281,
			"-0.017": 0.933242307011,
			"-0.016": 0.724711323753,
			"-0.015": 0.694798790544,
			"-0.014": 0.889581417154,
			"-0.013": 0.567360000941,
			"-0.012": 0.972802111602,
			"-0.011": 0.292268904715,
			"-0.01": 0.928217555425,
			"-0.009": 0.45545372012,
			"-0.008": 0.525178699815,
			"-0.007": 4.79527240278,
			"-0.006": 20.1064041843,
			"-0.005": 24.4946954134,
			"-0.004": 17.4307928831,
			"-0.003": 13.0437126263,
			"-0.002": 12.7386874207,
			"-0.001": 12.0726600304,
			"0.0": 10.5392486357,
			"0.001": 11.988241325,
			"0.002": 14.9531980087,
			"0.003": 12.9691250871,
			"0.004": 15.9250815476,
			"0.005": 7.41359218517,
			"0.006": 3.43201138872,
			"0.007": 3.80914952985,
			"0.008": 3.8797832565,
			"0.009": 5.22962501605,
			"0.01": 5.23371918201,
			"0.011": 6.15620894612,
			"0.012": 7.52801044275,
			"0.013": 0.612294727345,
			"0.014": 0.0,
			"0.015": 0.0,
			"0.016": 0.0,
			"0.017": 0.0,
			"0.018": 0.0,
			"0.019": 0.0,
			"0.02": 0.0,
			"0.021": 0.0,
			"0.022": 0.0,
			"0.023": 0.0,
			"0.024": 0.0,
			"0.025": 0.0
		}
	}
}
