{
	 "smiles": "OC(=O)C1(CCC2=C1C=CC=C2)NC(=O)NCC#C", 
	 "Tm": 455.15, 
	 "num_atms": 33, 
	 "gaussian": { 
		 "optdone": 1, 
		 "sigma_profile": "yes", 
		 "theory": "DFT", 
		 "functional": "B3LYP", 
		 "basiset": "6-31G**", 
		 "properties": { 
			 "R2extent": 4618.198, 
			 "electric_dipole_moment_norm": 2.07043187282, 
			 "electric_quadrupole_moment_norm": 9.94622114826, 
			 "total_energy": -877.063577668, 
			 "HOMO_LUMO_gap": 0.21972, 
			 "cosmo_polarized_energy": -19.2, 
			 "cosmo_cavitation_energy": 37.3, 
			 "cosmo_dispersion_energy": -24.65, 
			 "cosmo_repulsion_energy": 1.91, 
			 "cosmo_total_nonelectrostatic_energy": 14.57, 
			 "SMD_solvation_energy": 7.77 
		},
		"coords": [
			{
				"x": 1.868142851,
				"y": -0.2962168607,
				"z": -2.7557379901,
				"element": "O" 
			},
			{
				"x": 0.7059900063,
				"y": -0.6510066719,
				"z": -2.178254566,
				"element": "C" 
			},
			{
				"x": 0.2186082378,
				"y": -1.7561052939,
				"z": -2.3182547474,
				"element": "O" 
			},
			{
				"x": 0.1150188907,
				"y": 0.4486735722,
				"z": -1.2869882627,
				"element": "C" 
			},
			{
				"x": 0.1988094313,
				"y": 1.875786247,
				"z": -1.9318586589,
				"element": "C" 
			},
			{
				"x": 0.8194921763,
				"y": 2.8213525146,
				"z": -0.8730538536,
				"element": "C" 
			},
			{
				"x": 1.4068019822,
				"y": 1.895043121,
				"z": 0.1628365606,
				"element": "C" 
			},
			{
				"x": 0.9988054427,
				"y": 0.5759161441,
				"z": -0.0392251407,
				"element": "C" 
			},
			{
				"x": 1.3755380707,
				"y": -0.4453740954,
				"z": 0.8314204724,
				"element": "C" 
			},
			{
				"x": 2.1922685334,
				"y": -0.131409457,
				"z": 1.9196598264,
				"element": "C" 
			},
			{
				"x": 2.614425889,
				"y": 1.1869900375,
				"z": 2.1251288494,
				"element": "C" 
			},
			{
				"x": 2.2210782283,
				"y": 2.2052053053,
				"z": 1.2530572686,
				"element": "C" 
			},
			{
				"x": -1.2495409605,
				"y": -0.0003849579,
				"z": -1.011929351,
				"element": "N" 
			},
			{
				"x": -2.1105070202,
				"y": 0.716165736,
				"z": -0.217348297,
				"element": "C" 
			},
			{
				"x": -1.8681894614,
				"y": 1.8385494894,
				"z": 0.2177055274,
				"element": "O" 
			},
			{
				"x": -3.3449035547,
				"y": 0.1211248546,
				"z": 0.0179388693,
				"element": "N" 
			},
			{
				"x": -3.6969475428,
				"y": -1.2637185839,
				"z": -0.2603247749,
				"element": "C" 
			},
			{
				"x": -3.0250363015,
				"y": -2.2672970034,
				"z": 0.5832837253,
				"element": "C" 
			},
			{
				"x": -2.4650994004,
				"y": -3.0849849102,
				"z": 1.2734245498,
				"element": "C" 
			},
			{
				"x": 2.1810697108,
				"y": -1.0782657391,
				"z": -3.2403873113,
				"element": "H" 
			},
			{
				"x": 0.834691916,
				"y": 1.8337464228,
				"z": -2.8180397209,
				"element": "H" 
			},
			{
				"x": -0.7956991958,
				"y": 2.1967461172,
				"z": -2.2419593793,
				"element": "H" 
			},
			{
				"x": 1.5707502809,
				"y": 3.4876425484,
				"z": -1.3116159818,
				"element": "H" 
			},
			{
				"x": 0.0439302973,
				"y": 3.4404674384,
				"z": -0.4124838289,
				"element": "H" 
			},
			{
				"x": 1.0380411964,
				"y": -1.4659198364,
				"z": 0.6685091893,
				"element": "H" 
			},
			{
				"x": 2.5026434376,
				"y": -0.9126109791,
				"z": 2.6076689354,
				"element": "H" 
			},
			{
				"x": 3.2512133475,
				"y": 1.4213738252,
				"z": 2.973745589,
				"element": "H" 
			},
			{
				"x": 2.5427185202,
				"y": 3.2288039459,
				"z": 1.4272158176,
				"element": "H" 
			},
			{
				"x": -1.3810657965,
				"y": -0.9940273441,
				"z": -1.1505926495,
				"element": "H" 
			},
			{
				"x": -3.8409054466,
				"y": 0.5853043729,
				"z": 0.7652590877,
				"element": "H" 
			},
			{
				"x": -4.782062451,
				"y": -1.3572212075,
				"z": -0.141994277,
				"element": "H" 
			},
			{
				"x": -3.4968624133,
				"y": -1.4780267879,
				"z": -1.3179228192,
				"element": "H" 
			},
			{
				"x": -1.9721189019,
				"y": -3.8027219641,
				"z": 1.887717342,
				"element": "H" 
			}
		],
		 "valence_orbital": [ 
			{
				"type": "occ",
				"energy": -0.25779,
				"method": "rhf"
			},
			{
				"type": "occ",
				"energy": -0.24934,
				"method": "rhf"
			},
			{
				"type": "occ",
				"energy": -0.24561,
				"method": "rhf"
			},
			{
				"type": "occ",
				"energy": -0.23851,
				"method": "rhf"
			},
			{
				"type": "occ",
				"energy": -0.23168,
				"method": "rhf"
			},
			{
				"type": "unocc",
				"energy": -0.01196,
				"method": "rhf"
			},
			{
				"type": "unocc",
				"energy": -0.00179,
				"method": "rhf"
			},
			{
				"type": "unocc",
				"energy": 0.01688,
				"method": "rhf"
			},
			{
				"type": "unocc",
				"energy": 0.03268,
				"method": "rhf"
			},
			{
				"type": "unocc",
				"energy": 0.04333,
				"method": "rhf"
			}
		],
		"cosmo_sigma_profile": { 
			"-0.025": 0.0,
			"-0.024": 0.0,
			"-0.023": 0.0,
			"-0.022": 0.0,
			"-0.021": 0.0,
			"-0.02": 0.0,
			"-0.019": 0.603714643105,
			"-0.018": 0.861930259605,
			"-0.017": 0.988341112887,
			"-0.016": 1.1465872539,
			"-0.015": 0.57398481919,
			"-0.014": 1.04826853978,
			"-0.013": 1.8634027183,
			"-0.012": 2.34108172045,
			"-0.011": 3.27609948225,
			"-0.01": 3.11622828669,
			"-0.009": 4.06524988601,
			"-0.008": 7.61371960632,
			"-0.007": 6.94141057255,
			"-0.006": 8.95722946223,
			"-0.005": 13.7735183125,
			"-0.004": 19.2178296318,
			"-0.003": 23.4512050116,
			"-0.002": 22.0241016808,
			"-0.001": 21.8789590634,
			"0.0": 19.0571620088,
			"0.001": 17.2069417306,
			"0.002": 16.6711537416,
			"0.003": 16.1659779758,
			"0.004": 16.3213065801,
			"0.005": 18.4148185973,
			"0.006": 16.8084587376,
			"0.007": 6.62123798399,
			"0.008": 5.09479066159,
			"0.009": 3.31502944229,
			"0.01": 4.55747627668,
			"0.011": 4.0919587575,
			"0.012": 2.5154663818,
			"0.013": 1.99414215575,
			"0.014": 2.44077115062,
			"0.015": 1.869085277,
			"0.016": 0.0491654356135,
			"0.017": 0.0,
			"0.018": 0.0,
			"0.019": 0.0,
			"0.02": 0.0,
			"0.021": 0.0,
			"0.022": 0.0,
			"0.023": 0.0,
			"0.024": 0.0,
			"0.025": 0.0
		}
	}
}
