{
	 "smiles": "CC1=C(SC(=N1)C1=C(Cl)C=CC=C1)C(O)=O", 
	 "Tm": 491.15, 
	 "num_atms": 24, 
	 "gaussian": { 
		 "optdone": 1, 
		 "sigma_profile": "yes", 
		 "theory": "DFT", 
		 "functional": "B3LYP", 
		 "basiset": "6-31G**", 
		 "properties": { 
			 "R2extent": 5446.4809, 
			 "electric_dipole_moment_norm": 5.48792412575, 
			 "electric_quadrupole_moment_norm": 8.63378474598, 
			 "total_energy": -1487.57936559, 
			 "HOMO_LUMO_gap": 0.15712, 
			 "cosmo_polarized_energy": -12.74, 
			 "cosmo_cavitation_energy": 31.64, 
			 "cosmo_dispersion_energy": -24.1, 
			 "cosmo_repulsion_energy": 1.82, 
			 "cosmo_total_nonelectrostatic_energy": 9.35, 
			 "SMD_solvation_energy": 5.08 
		},
		"coords": [
			{
				"x": 2.0410325737,
				"y": -2.4401865668,
				"z": -1.5884903635,
				"element": "C" 
			},
			{
				"x": 0.9480267241,
				"y": -1.4457144531,
				"z": -1.3374782542,
				"element": "C" 
			},
			{
				"x": -0.4163754336,
				"y": -1.6716418573,
				"z": -1.3899249666,
				"element": "C" 
			},
			{
				"x": -1.2723331287,
				"y": -0.1952556219,
				"z": -1.0105415423,
				"element": "S" 
			},
			{
				"x": 0.2704623994,
				"y": 0.6308668723,
				"z": -0.8279578475,
				"element": "C" 
			},
			{
				"x": 1.2985812646,
				"y": -0.1617560091,
				"z": -1.0276348745,
				"element": "N" 
			},
			{
				"x": 0.464740294,
				"y": 2.0468180119,
				"z": -0.4633763279,
				"element": "C" 
			},
			{
				"x": -0.533675146,
				"y": 3.018019062,
				"z": -0.2512917587,
				"element": "C" 
			},
			{
				"x": -2.2478653248,
				"y": 2.6511972801,
				"z": -0.3963617079,
				"element": "Cl" 
			},
			{
				"x": -0.2146991586,
				"y": 4.3343962112,
				"z": 0.0870572356,
				"element": "C" 
			},
			{
				"x": 1.1153453997,
				"y": 4.7185150402,
				"z": 0.2231750507,
				"element": "C" 
			},
			{
				"x": 2.1288924396,
				"y": 3.7790065424,
				"z": 0.0189847309,
				"element": "C" 
			},
			{
				"x": 1.8048510415,
				"y": 2.4730088453,
				"z": -0.3165552879,
				"element": "C" 
			},
			{
				"x": -1.1070269362,
				"y": -2.9410026988,
				"z": -1.7123768789,
				"element": "C" 
			},
			{
				"x": -2.433121491,
				"y": -2.8617489294,
				"z": -2.0096593152,
				"element": "O" 
			},
			{
				"x": -0.5608211688,
				"y": -4.021500683,
				"z": -1.7166695929,
				"element": "O" 
			},
			{
				"x": 1.6449311384,
				"y": -3.3726808384,
				"z": -1.9854036838,
				"element": "H" 
			},
			{
				"x": 2.7774065289,
				"y": -2.0118816374,
				"z": -2.2750371217,
				"element": "H" 
			},
			{
				"x": 2.5623047946,
				"y": -2.6595426763,
				"z": -0.6495507103,
				"element": "H" 
			},
			{
				"x": -1.0175845997,
				"y": 5.0464567251,
				"z": 0.2406078425,
				"element": "H" 
			},
			{
				"x": 1.3542260894,
				"y": 5.7441051438,
				"z": 0.4869440696,
				"element": "H" 
			},
			{
				"x": 3.1710670459,
				"y": 4.0641785029,
				"z": 0.1221611917,
				"element": "H" 
			},
			{
				"x": 2.5785224619,
				"y": 1.7323800003,
				"z": -0.4783947145,
				"element": "H" 
			},
			{
				"x": -2.7206878085,
				"y": -1.9435362661,
				"z": -2.1172251726,
				"element": "H" 
			}
		],
		 "valence_orbital": [ 
			{
				"type": "occ",
				"energy": -0.28934,
				"method": "rhf"
			},
			{
				"type": "occ",
				"energy": -0.28865,
				"method": "rhf"
			},
			{
				"type": "occ",
				"energy": -0.27756,
				"method": "rhf"
			},
			{
				"type": "occ",
				"energy": -0.26646,
				"method": "rhf"
			},
			{
				"type": "occ",
				"energy": -0.2411,
				"method": "rhf"
			},
			{
				"type": "unocc",
				"energy": -0.08398,
				"method": "rhf"
			},
			{
				"type": "unocc",
				"energy": -0.02937,
				"method": "rhf"
			},
			{
				"type": "unocc",
				"energy": -0.02284,
				"method": "rhf"
			},
			{
				"type": "unocc",
				"energy": -0.00491,
				"method": "rhf"
			},
			{
				"type": "unocc",
				"energy": 0.01106,
				"method": "rhf"
			}
		],
		"cosmo_sigma_profile": { 
			"-0.025": 0.0,
			"-0.024": 0.0,
			"-0.023": 0.0,
			"-0.022": 0.0,
			"-0.021": 0.0,
			"-0.02": 0.0,
			"-0.019": 0.0,
			"-0.018": 0.4544118103,
			"-0.017": 0.733768145324,
			"-0.016": 0.436871693585,
			"-0.015": 1.37210430252,
			"-0.014": 0.977905587618,
			"-0.013": 0.932741040821,
			"-0.012": 0.826185504733,
			"-0.011": 1.29690192409,
			"-0.01": 0.83211244044,
			"-0.009": 0.591291362463,
			"-0.008": 2.54259596723,
			"-0.007": 7.42352238773,
			"-0.006": 9.45908589094,
			"-0.005": 13.486884669,
			"-0.004": 11.6289446649,
			"-0.003": 15.7038506984,
			"-0.002": 20.7231955904,
			"-0.001": 27.3444349545,
			"0.0": 27.8831911128,
			"0.001": 24.4289885167,
			"0.002": 25.2646898564,
			"0.003": 21.4129618446,
			"0.004": 8.49394556835,
			"0.005": 3.53759510347,
			"0.006": 3.4769143747,
			"0.007": 4.74277131109,
			"0.008": 3.93464280214,
			"0.009": 4.90122605401,
			"0.01": 4.86575760771,
			"0.011": 4.80557505187,
			"0.012": 2.93459926858,
			"0.013": 0.926232930475,
			"0.014": 0.0,
			"0.015": 0.0,
			"0.016": 0.0,
			"0.017": 0.0,
			"0.018": 0.0,
			"0.019": 0.0,
			"0.02": 0.0,
			"0.021": 0.0,
			"0.022": 0.0,
			"0.023": 0.0,
			"0.024": 0.0,
			"0.025": 0.0
		}
	}
}
