{
	 "smiles": "OC(=O)CC1=CN2C=CSC2=N1", 
	 "Tm": 455.15, 
	 "num_atms": 18, 
	 "gaussian": { 
		 "optdone": 1, 
		 "sigma_profile": "yes", 
		 "theory": "DFT", 
		 "functional": "B3LYP", 
		 "basiset": "6-31G**", 
		 "properties": { 
			 "R2extent": 3979.4324, 
			 "electric_dipole_moment_norm": 2.28532791739, 
			 "electric_quadrupole_moment_norm": 16.4464290243, 
			 "total_energy": -928.485918287, 
			 "HOMO_LUMO_gap": 0.20351, 
			 "cosmo_polarized_energy": -13.59, 
			 "cosmo_cavitation_energy": 24.62, 
			 "cosmo_dispersion_energy": -19.12, 
			 "cosmo_repulsion_energy": 1.46, 
			 "cosmo_total_nonelectrostatic_energy": 6.96, 
			 "SMD_solvation_energy": 4.06 
		},
		"coords": [
			{
				"x": -1.248595694,
				"y": -2.0432053441,
				"z": -2.1647292816,
				"element": "O" 
			},
			{
				"x": -0.8539396469,
				"y": -1.154432021,
				"z": -1.2207728857,
				"element": "C" 
			},
			{
				"x": -0.806800276,
				"y": -1.4451337833,
				"z": -0.0444496026,
				"element": "O" 
			},
			{
				"x": -0.5072527979,
				"y": 0.1722628597,
				"z": -1.8562842635,
				"element": "C" 
			},
			{
				"x": -0.0529385404,
				"y": 1.2598491536,
				"z": -0.9295979377,
				"element": "C" 
			},
			{
				"x": 0.1068198978,
				"y": 1.2515997883,
				"z": 0.4395926889,
				"element": "C" 
			},
			{
				"x": 0.5484006701,
				"y": 2.5294411,
				"z": 0.7513591567,
				"element": "N" 
			},
			{
				"x": 0.9150308433,
				"y": 3.2689388715,
				"z": 1.8691025242,
				"element": "C" 
			},
			{
				"x": 1.2771402851,
				"y": 4.5314336716,
				"z": 1.5510926832,
				"element": "C" 
			},
			{
				"x": 1.1759546793,
				"y": 4.8598192553,
				"z": -0.180604819,
				"element": "S" 
			},
			{
				"x": 0.6238447236,
				"y": 3.2151035679,
				"z": -0.4445051002,
				"element": "C" 
			},
			{
				"x": 0.2721567019,
				"y": 2.4919752439,
				"z": -1.4788465149,
				"element": "N" 
			},
			{
				"x": -1.453917397,
				"y": -2.8660812829,
				"z": -1.6901394729,
				"element": "H" 
			},
			{
				"x": 0.259119973,
				"y": -0.0170368862,
				"z": -2.6190639029,
				"element": "H" 
			},
			{
				"x": -1.3845265962,
				"y": 0.5051708415,
				"z": -2.4259355566,
				"element": "H" 
			},
			{
				"x": -0.0498292775,
				"y": 0.4820896611,
				"z": 1.1746501493,
				"element": "H" 
			},
			{
				"x": 0.8897369237,
				"y": 2.8212081124,
				"z": 2.8525362824,
				"element": "H" 
			},
			{
				"x": 1.6024955283,
				"y": 5.3044971907,
				"z": 2.2307958528,
				"element": "H" 
			}
		],
		 "valence_orbital": [ 
			{
				"type": "occ",
				"energy": -0.31662,
				"method": "rhf"
			},
			{
				"type": "occ",
				"energy": -0.28099,
				"method": "rhf"
			},
			{
				"type": "occ",
				"energy": -0.27622,
				"method": "rhf"
			},
			{
				"type": "occ",
				"energy": -0.22881,
				"method": "rhf"
			},
			{
				"type": "occ",
				"energy": -0.21435,
				"method": "rhf"
			},
			{
				"type": "unocc",
				"energy": -0.01084,
				"method": "rhf"
			},
			{
				"type": "unocc",
				"energy": 0.00574,
				"method": "rhf"
			},
			{
				"type": "unocc",
				"energy": 0.01126,
				"method": "rhf"
			},
			{
				"type": "unocc",
				"energy": 0.04929,
				"method": "rhf"
			},
			{
				"type": "unocc",
				"energy": 0.06157,
				"method": "rhf"
			}
		],
		"cosmo_sigma_profile": { 
			"-0.025": 0.0,
			"-0.024": 0.0,
			"-0.023": 0.0,
			"-0.022": 0.0,
			"-0.021": 0.0,
			"-0.02": 0.0,
			"-0.019": 0.0355073130795,
			"-0.018": 0.800622938064,
			"-0.017": 0.896491558549,
			"-0.016": 0.766943361416,
			"-0.015": 0.879522203121,
			"-0.014": 0.745944874429,
			"-0.013": 0.846171620471,
			"-0.012": 0.36862774947,
			"-0.011": 0.720082137625,
			"-0.01": 4.18494586571,
			"-0.009": 5.34428439112,
			"-0.008": 5.34671195821,
			"-0.007": 9.94621679547,
			"-0.006": 9.40663754328,
			"-0.005": 8.06725067885,
			"-0.004": 8.5984317056,
			"-0.003": 9.01430226269,
			"-0.002": 9.80019435744,
			"-0.001": 11.1979331642,
			"0.0": 14.7492597804,
			"0.001": 16.1346706283,
			"0.002": 15.5398959697,
			"0.003": 15.0224439607,
			"0.004": 13.6464697437,
			"0.005": 7.1629038256,
			"0.006": 3.6261837768,
			"0.007": 5.03357049289,
			"0.008": 3.92324360618,
			"0.009": 4.15372777484,
			"0.01": 4.04580002448,
			"0.011": 3.62805480017,
			"0.012": 2.09019760631,
			"0.013": 1.08612938518,
			"0.014": 0.910399565908,
			"0.015": 0.835940534621,
			"0.016": 0.938305566673,
			"0.017": 0.55907087058,
			"0.018": 0.0,
			"0.019": 0.0,
			"0.02": 0.0,
			"0.021": 0.0,
			"0.022": 0.0,
			"0.023": 0.0,
			"0.024": 0.0,
			"0.0": 0.0
		}
	}
}
