{
	 "smiles": "CCCCC(CC)CC", 
	 "Tm": 158.15, 
	 "num_atms": 29, 
	 "gaussian": { 
		 "optdone": 1, 
		 "sigma_profile": "yes", 
		 "theory": "DFT", 
		 "functional": "B3LYP", 
		 "basiset": "6-31G**", 
		 "properties": { 
			 "R2extent": 1973.6022, 
			 "electric_dipole_moment_norm": 0.0493907886149, 
			 "electric_quadrupole_moment_norm": 0.153574542161, 
			 "total_energy": -355.040201463, 
			 "HOMO_LUMO_gap": 0.36578, 
			 "cosmo_polarized_energy": -0.74, 
			 "cosmo_cavitation_energy": 28.37, 
			 "cosmo_dispersion_energy": -19.79, 
			 "cosmo_repulsion_energy": 1.64, 
			 "cosmo_total_nonelectrostatic_energy": 10.22, 
			 "SMD_solvation_energy": 4.5 
		},
		"coords": [
			{
				"x": -0.6655847966,
				"y": -2.2473761078,
				"z": 3.047580989,
				"element": "C" 
			},
			{
				"x": 0.2039460354,
				"y": -1.049920366,
				"z": 2.6463734149,
				"element": "C" 
			},
			{
				"x": 0.9666551908,
				"y": -1.2343282687,
				"z": 1.3222379031,
				"element": "C" 
			},
			{
				"x": 0.0971295945,
				"y": -1.4314763079,
				"z": 0.0668226079,
				"element": "C" 
			},
			{
				"x": -0.8855461569,
				"y": -0.2906319109,
				"z": -0.2799122623,
				"element": "C" 
			},
			{
				"x": -0.1927669352,
				"y": 1.0822686857,
				"z": -0.4505416479,
				"element": "C" 
			},
			{
				"x": 0.8274999119,
				"y": 1.1801665399,
				"z": -1.5928222634,
				"element": "C" 
			},
			{
				"x": -1.7407404012,
				"y": -0.6979318318,
				"z": -1.4999511941,
				"element": "C" 
			},
			{
				"x": -2.8654220619,
				"y": 0.278603253,
				"z": -1.8626056573,
				"element": "C" 
			},
			{
				"x": -1.1302654007,
				"y": -2.0870053701,
				"z": 4.0261082837,
				"element": "H" 
			},
			{
				"x": -0.0690121357,
				"y": -3.165238622,
				"z": 3.1098388748,
				"element": "H" 
			},
			{
				"x": -1.4715771039,
				"y": -2.4269007839,
				"z": 2.3284392085,
				"element": "H" 
			},
			{
				"x": 0.9369008454,
				"y": -0.8600649679,
				"z": 3.4410843131,
				"element": "H" 
			},
			{
				"x": -0.4197370475,
				"y": -0.1480625588,
				"z": 2.5956701528,
				"element": "H" 
			},
			{
				"x": 1.6329814909,
				"y": -0.374609328,
				"z": 1.1771350713,
				"element": "H" 
			},
			{
				"x": 1.6270346192,
				"y": -2.107340103,
				"z": 1.4188167945,
				"element": "H" 
			},
			{
				"x": -0.4820711605,
				"y": -2.3580350553,
				"z": 0.1733821685,
				"element": "H" 
			},
			{
				"x": 0.7627536737,
				"y": -1.6041413853,
				"z": -0.7895419767,
				"element": "H" 
			},
			{
				"x": -1.5807639726,
				"y": -0.1807358944,
				"z": 0.5664579136,
				"element": "H" 
			},
			{
				"x": 0.3032067911,
				"y": 1.3462907904,
				"z": 0.4914064407,
				"element": "H" 
			},
			{
				"x": -0.9633142377,
				"y": 1.8489555827,
				"z": -0.5957550362,
				"element": "H" 
			},
			{
				"x": 0.3707240207,
				"y": 0.98094543,
				"z": -2.5679883802,
				"element": "H" 
			},
			{
				"x": 1.2613966463,
				"y": 2.1846926719,
				"z": -1.6354337317,
				"element": "H" 
			},
			{
				"x": 1.6539618088,
				"y": 0.4731120681,
				"z": -1.4659150712,
				"element": "H" 
			},
			{
				"x": -2.1821017135,
				"y": -1.681416606,
				"z": -1.2905805922,
				"element": "H" 
			},
			{
				"x": -1.0905906891,
				"y": -0.8469571703,
				"z": -2.3725571774,
				"element": "H" 
			},
			{
				"x": -3.4855134238,
				"y": -0.1228427904,
				"z": -2.6710433946,
				"element": "H" 
			},
			{
				"x": -3.5215144132,
				"y": 0.4645408368,
				"z": -1.0039886476,
				"element": "H" 
			},
			{
				"x": -2.4795689785,
				"y": 1.24643957,
				"z": -2.1985171036,
				"element": "H" 
			}
		],
		 "valence_orbital": [ 
			{
				"type": "occ",
				"energy": -0.32212,
				"method": "rhf"
			},
			{
				"type": "occ",
				"energy": -0.31717,
				"method": "rhf"
			},
			{
				"type": "occ",
				"energy": -0.30266,
				"method": "rhf"
			},
			{
				"type": "occ",
				"energy": -0.29521,
				"method": "rhf"
			},
			{
				"type": "occ",
				"energy": -0.29406,
				"method": "rhf"
			},
			{
				"type": "unocc",
				"energy": 0.07172,
				"method": "rhf"
			},
			{
				"type": "unocc",
				"energy": 0.1008,
				"method": "rhf"
			},
			{
				"type": "unocc",
				"energy": 0.10683,
				"method": "rhf"
			},
			{
				"type": "unocc",
				"energy": 0.11272,
				"method": "rhf"
			},
			{
				"type": "unocc",
				"energy": 0.13489,
				"method": "rhf"
			}
		],
		"cosmo_sigma_profile": { 
			"-0.025": 0.0,
			"-0.024": 0.0,
			"-0.023": 0.0,
			"-0.022": 0.0,
			"-0.021": 0.0,
			"-0.02": 0.0,
			"-0.019": 0.0,
			"-0.018": 0.0,
			"-0.017": 0.0,
			"-0.016": 0.0,
			"-0.015": 0.0,
			"-0.014": 0.0,
			"-0.013": 0.0,
			"-0.012": 0.0,
			"-0.011": 0.0,
			"-0.01": 0.0,
			"-0.009": 0.0,
			"-0.008": 0.0,
			"-0.007": 0.0,
			"-0.006": 0.0,
			"-0.005": 0.0,
			"-0.004": 0.0,
			"-0.003": 2.7466379931,
			"-0.002": 27.8756191486,
			"-0.001": 50.7999949023,
			"0.0": 53.4293953452,
			"0.001": 50.8464330582,
			"0.002": 29.5466343311,
			"0.003": 1.53026349743,
			"0.004": 0.0,
			"0.005": 0.0,
			"0.006": 0.0,
			"0.007": 0.0,
			"0.008": 0.0,
			"0.009": 0.0,
			"0.01": 0.0,
			"0.011": 0.0,
			"0.012": 0.0,
			"0.013": 0.0,
			"0.014": 0.0,
			"0.015": 0.0,
			"0.016": 0.0,
			"0.017": 0.0,
			"0.018": 0.0,
			"0.019": 0.0,
			"0.02": 0.0,
			"0.021": 0.0,
			"0.022": 0.0,
			"0.023": 0.0,
			"0.024": 0.0,
			"0.025": 0.0
		}
	}
}
