{
	 "smiles": "OC1CCCN(CCS(=O)(=O)C2=CC=C(Br)C=C2)C1", 
	 "Tm": 456.15, 
	 "num_atms": 37, 
	 "gaussian": { 
		 "optdone": 1, 
		 "sigma_profile": "yes", 
		 "theory": "DFT", 
		 "functional": "B3LYP", 
		 "basiset": "6-31G**", 
		 "properties": { 
			 "R2extent": 10672.5006, 
			 "electric_dipole_moment_norm": 2.74767565772, 
			 "electric_quadrupole_moment_norm": 29.3647731788, 
			 "total_energy": -3756.16494672, 
			 "HOMO_LUMO_gap": 0.1758, 
			 "cosmo_polarized_energy": -18.39, 
			 "cosmo_cavitation_energy": 42.23, 
			 "cosmo_dispersion_energy": -30.3, 
			 "cosmo_repulsion_energy": 2.33, 
			 "cosmo_total_nonelectrostatic_energy": 14.26, 
			 "SMD_solvation_energy": 3.19 
		},
		"coords": [
			{
				"x": -2.774883704,
				"y": -1.97589833,
				"z": -2.2164575383,
				"element": "O" 
			},
			{
				"x": -3.4956465277,
				"y": -2.3048917895,
				"z": -1.0338282317,
				"element": "C" 
			},
			{
				"x": -3.4425992907,
				"y": -3.8305408577,
				"z": -0.7499099599,
				"element": "C" 
			},
			{
				"x": -3.2864056674,
				"y": -4.1156120923,
				"z": 0.7471615471,
				"element": "C" 
			},
			{
				"x": -2.0107592292,
				"y": -3.4540437237,
				"z": 1.3049267945,
				"element": "C" 
			},
			{
				"x": -1.7132671239,
				"y": -2.1795988133,
				"z": 0.6174548782,
				"element": "N" 
			},
			{
				"x": -0.8307006294,
				"y": -1.3144826379,
				"z": 1.3938619526,
				"element": "C" 
			},
			{
				"x": 0.5813432615,
				"y": -1.901498574,
				"z": 1.4814569603,
				"element": "C" 
			},
			{
				"x": 1.7715525802,
				"y": -0.8329281065,
				"z": 2.3485082929,
				"element": "S" 
			},
			{
				"x": 1.1236991126,
				"y": -0.3338449438,
				"z": 3.5735126051,
				"element": "O" 
			},
			{
				"x": 3.0421955299,
				"y": -1.5731983175,
				"z": 2.3997167065,
				"element": "O" 
			},
			{
				"x": 2.0068454054,
				"y": 0.5749137588,
				"z": 1.2480203008,
				"element": "C" 
			},
			{
				"x": 2.9320639766,
				"y": 0.4812119854,
				"z": 0.206025583,
				"element": "C" 
			},
			{
				"x": 3.1219194045,
				"y": 1.5712115993,
				"z": -0.6413966868,
				"element": "C" 
			},
			{
				"x": 2.3866042894,
				"y": 2.7383261752,
				"z": -0.4245421372,
				"element": "C" 
			},
			{
				"x": 2.6448608029,
				"y": 4.2293733559,
				"z": -1.5837117158,
				"element": "Br" 
			},
			{
				"x": 1.4740689064,
				"y": 2.8413039555,
				"z": 0.6259690916,
				"element": "C" 
			},
			{
				"x": 1.2843341628,
				"y": 1.7481413998,
				"z": 1.4712996176,
				"element": "C" 
			},
			{
				"x": -2.9406551684,
				"y": -1.5168974669,
				"z": 0.1648262135,
				"element": "C" 
			},
			{
				"x": -1.844219407,
				"y": -2.1412400386,
				"z": -2.0020534259,
				"element": "H" 
			},
			{
				"x": -4.5255830959,
				"y": -1.983833615,
				"z": -1.2244438501,
				"element": "H" 
			},
			{
				"x": -2.5830921685,
				"y": -4.2409116494,
				"z": -1.293285387,
				"element": "H" 
			},
			{
				"x": -4.3295856055,
				"y": -4.3287886753,
				"z": -1.1540180807,
				"element": "H" 
			},
			{
				"x": -4.166177706,
				"y": -3.741629531,
				"z": 1.2840934321,
				"element": "H" 
			},
			{
				"x": -3.2469864507,
				"y": -5.1926343202,
				"z": 0.9403226723,
				"element": "H" 
			},
			{
				"x": -1.158054333,
				"y": -4.1306724024,
				"z": 1.1673151372,
				"element": "H" 
			},
			{
				"x": -2.1232840678,
				"y": -3.2970425466,
				"z": 2.3935016324,
				"element": "H" 
			},
			{
				"x": -1.205468779,
				"y": -1.133354336,
				"z": 2.4163587909,
				"element": "H" 
			},
			{
				"x": -0.7814323225,
				"y": -0.3439785958,
				"z": 0.8885313575,
				"element": "H" 
			},
			{
				"x": 0.9947995415,
				"y": -2.1040093967,
				"z": 0.4896353423,
				"element": "H" 
			},
			{
				"x": 0.6145276158,
				"y": -2.8269237418,
				"z": 2.0639741815,
				"element": "H" 
			},
			{
				"x": 3.5131048652,
				"y": -0.4258478998,
				"z": 0.0759713966,
				"element": "H" 
			},
			{
				"x": 3.8371920114,
				"y": 1.5207028771,
				"z": -1.4540650821,
				"element": "H" 
			},
			{
				"x": 0.9261365842,
				"y": 3.7628976972,
				"z": 0.7842734385,
				"element": "H" 
			},
			{
				"x": 0.5999008596,
				"y": 1.806695542,
				"z": 2.3108492762,
				"element": "H" 
			},
			{
				"x": -3.6946305728,
				"y": -1.4147069312,
				"z": 0.9668179021,
				"element": "H" 
			},
			{
				"x": -2.6976170607,
				"y": -0.5076690136,
				"z": -0.1803730078,
				"element": "H" 
			}
		],
		 "valence_orbital": [ 
			{
				"type": "occ",
				"energy": -0.29104,
				"method": "rhf"
			},
			{
				"type": "occ",
				"energy": -0.287,
				"method": "rhf"
			},
			{
				"type": "occ",
				"energy": -0.26621,
				"method": "rhf"
			},
			{
				"type": "occ",
				"energy": -0.2645,
				"method": "rhf"
			},
			{
				"type": "occ",
				"energy": -0.22938,
				"method": "rhf"
			},
			{
				"type": "unocc",
				"energy": -0.05358,
				"method": "rhf"
			},
			{
				"type": "unocc",
				"energy": -0.03807,
				"method": "rhf"
			},
			{
				"type": "unocc",
				"energy": -0.00884,
				"method": "rhf"
			},
			{
				"type": "unocc",
				"energy": 0.05434,
				"method": "rhf"
			},
			{
				"type": "unocc",
				"energy": 0.07009,
				"method": "rhf"
			}
		],
		"cosmo_sigma_profile": { 
			"-0.025": 0.0,
			"-0.024": 0.0,
			"-0.023": 0.0,
			"-0.022": 0.0,
			"-0.021": 0.0,
			"-0.02": 0.0,
			"-0.019": 0.0,
			"-0.018": 0.0,
			"-0.017": 0.0,
			"-0.016": 0.0,
			"-0.015": 0.0,
			"-0.014": 0.0,
			"-0.013": 0.031315821985,
			"-0.012": 0.58235253038,
			"-0.011": 0.448200056327,
			"-0.01": 0.645422770271,
			"-0.009": 1.25964034236,
			"-0.008": 9.04117649568,
			"-0.007": 12.4955783896,
			"-0.006": 11.8199981549,
			"-0.005": 15.0540056535,
			"-0.004": 22.3987438513,
			"-0.003": 37.6534716555,
			"-0.002": 39.5038548474,
			"-0.001": 33.9759267644,
			"0.0": 28.6288809677,
			"0.001": 28.1471627319,
			"0.002": 14.7847344131,
			"0.003": 13.0815248815,
			"0.004": 14.2736356438,
			"0.005": 5.04307052561,
			"0.006": 3.66935576069,
			"0.007": 3.63681433866,
			"0.008": 4.02794770085,
			"0.009": 4.32368798572,
			"0.01": 6.18184149442,
			"0.011": 9.61938222758,
			"0.012": 8.84935940267,
			"0.013": 1.76280443852,
			"0.014": 1.87179434149,
			"0.015": 2.09513606329,
			"0.016": 0.0,
			"0.017": 0.0,
			"0.018": 0.0,
			"0.019": 0.0,
			"0.02": 0.0,
			"0.021": 0.0,
			"0.022": 0.0,
			"0.023": 0.0,
			"0.024": 0.0,
			"0.025": 0.0
		}
	}
}
