{
	 "smiles": "C(=N/C1=CC=C(C=C1)C1=CC=C(C=C1)N=NC1=CC=CC=C1)C1=CC=CC=C1", 
	 "Tm": 499.15, 
	 "num_atms": 47, 
	 "gaussian": { 
		 "optdone": 1, 
		 "sigma_profile": "yes", 
		 "theory": "DFT", 
		 "functional": "B3LYP", 
		 "basiset": "6-31G**", 
		 "properties": { 
			 "R2extent": 27516.8403, 
			 "electric_dipole_moment_norm": 1.91830232497, 
			 "electric_quadrupole_moment_norm": 27.2899954551, 
			 "total_energy": -1128.32891018, 
			 "HOMO_LUMO_gap": 0.12432, 
			 "cosmo_polarized_energy": -12.55, 
			 "cosmo_cavitation_energy": 53.41, 
			 "cosmo_dispersion_energy": -38.49, 
			 "cosmo_repulsion_energy": 2.85, 
			 "cosmo_total_nonelectrostatic_energy": 17.77, 
			 "SMD_solvation_energy": 6.31 
		},
		"coords": [
			{
				"x": 0.0198865611,
				"y": 2.2782168081,
				"z": 4.8876077359,
				"element": "C" 
			},
			{
				"x": -0.9218690113,
				"y": 2.0765935855,
				"z": 4.0414229743,
				"element": "N" 
			},
			{
				"x": -0.6491904764,
				"y": 1.4517902502,
				"z": 2.8152778181,
				"element": "C" 
			},
			{
				"x": -1.6287376732,
				"y": 0.5975426704,
				"z": 2.2807323191,
				"element": "C" 
			},
			{
				"x": -1.4222051542,
				"y": -0.0492907569,
				"z": 1.0693262758,
				"element": "C" 
			},
			{
				"x": -0.2450597066,
				"y": 0.1533794651,
				"z": 0.3239258185,
				"element": "C" 
			},
			{
				"x": 0.7161384078,
				"y": 1.0355251884,
				"z": 0.8491682488,
				"element": "C" 
			},
			{
				"x": 0.5232597744,
				"y": 1.6736703908,
				"z": 2.0699015359,
				"element": "C" 
			},
			{
				"x": -0.0334776303,
				"y": -0.5237721952,
				"z": -0.9759260306,
				"element": "C" 
			},
			{
				"x": 1.2542241023,
				"y": -0.9453168315,
				"z": -1.3727127075,
				"element": "C" 
			},
			{
				"x": 1.4660178417,
				"y": -1.580984803,
				"z": -2.5862903964,
				"element": "C" 
			},
			{
				"x": 0.3832037995,
				"y": -1.819061942,
				"z": -3.4515909316,
				"element": "C" 
			},
			{
				"x": -0.90086808,
				"y": -1.4067484705,
				"z": -3.0702219868,
				"element": "C" 
			},
			{
				"x": -1.1059021911,
				"y": -0.7685111258,
				"z": -1.8521363355,
				"element": "C" 
			},
			{
				"x": 0.4752693463,
				"y": -2.4562597884,
				"z": -4.7106145839,
				"element": "N" 
			},
			{
				"x": 1.6375565701,
				"y": -2.8264224982,
				"z": -5.0343569675,
				"element": "N" 
			},
			{
				"x": 1.7282448966,
				"y": -3.4641516832,
				"z": -6.2968885377,
				"element": "C" 
			},
			{
				"x": 3.0133719294,
				"y": -3.8831917911,
				"z": -6.6679277326,
				"element": "C" 
			},
			{
				"x": 3.2185983261,
				"y": -4.5216718957,
				"z": -7.8898779158,
				"element": "C" 
			},
			{
				"x": 2.1394962908,
				"y": -4.7442295071,
				"z": -8.7471842465,
				"element": "C" 
			},
			{
				"x": 0.8539019859,
				"y": -4.3262167239,
				"z": -8.3785917729,
				"element": "C" 
			},
			{
				"x": 0.6423511128,
				"y": -3.689146263,
				"z": -7.1615923256,
				"element": "C" 
			},
			{
				"x": -0.1934027283,
				"y": 2.9831318886,
				"z": 6.1565378676,
				"element": "C" 
			},
			{
				"x": 0.8822365728,
				"y": 3.144595835,
				"z": 7.0438641668,
				"element": "C" 
			},
			{
				"x": 0.7070620617,
				"y": 3.8109221937,
				"z": 8.2560473859,
				"element": "C" 
			},
			{
				"x": -0.5474020497,
				"y": 4.321983414,
				"z": 8.5932553253,
				"element": "C" 
			},
			{
				"x": -1.6261591195,
				"y": 4.1649190598,
				"z": 7.714575282,
				"element": "C" 
			},
			{
				"x": -1.4534405378,
				"y": 3.502069867,
				"z": 6.5046892497,
				"element": "C" 
			},
			{
				"x": 1.0445500672,
				"y": 1.9172595198,
				"z": 4.7110428036,
				"element": "H" 
			},
			{
				"x": -2.539351955,
				"y": 0.4375423382,
				"z": 2.8492357097,
				"element": "H" 
			},
			{
				"x": -2.1763149072,
				"y": -0.7379200902,
				"z": 0.7004613003,
				"element": "H" 
			},
			{
				"x": 1.6116019644,
				"y": 1.2531450281,
				"z": 0.2746482311,
				"element": "H" 
			},
			{
				"x": 1.2621957412,
				"y": 2.3835384568,
				"z": 2.429389535,
				"element": "H" 
			},
			{
				"x": 2.0923762536,
				"y": -0.7922431975,
				"z": -0.6993390998,
				"element": "H" 
			},
			{
				"x": 2.4544276303,
				"y": -1.9119571333,
				"z": -2.8837252615,
				"element": "H" 
			},
			{
				"x": -1.723092789,
				"y": -1.5901255577,
				"z": -3.7547680797,
				"element": "H" 
			},
			{
				"x": -2.1025036784,
				"y": -0.4297680422,
				"z": -1.5869818052,
				"element": "H" 
			},
			{
				"x": 3.8317269147,
				"y": -3.6957314937,
				"z": -5.9799181738,
				"element": "H" 
			},
			{
				"x": 4.2162491071,
				"y": -4.8444474505,
				"z": -8.1726154386,
				"element": "H" 
			},
			{
				"x": 2.2952907384,
				"y": -5.2413784219,
				"z": -9.7003638036,
				"element": "H" 
			},
			{
				"x": 0.0164457774,
				"y": -4.5010180187,
				"z": -9.0483261908,
				"element": "H" 
			},
			{
				"x": -0.343837345,
				"y": -3.3579446584,
				"z": -6.8573430805,
				"element": "H" 
			},
			{
				"x": 1.8580206257,
				"y": 2.7445118774,
				"z": 6.7785020576,
				"element": "H" 
			},
			{
				"x": 1.5458080679,
				"y": 3.93080938,
				"z": 8.9354839903,
				"element": "H" 
			},
			{
				"x": -0.686743892,
				"y": 4.8414227628,
				"z": 9.5370574137,
				"element": "H" 
			},
			{
				"x": -2.6017767676,
				"y": 4.5631200937,
				"z": 7.9783426787,
				"element": "H" 
			},
			{
				"x": -2.2767767745,
				"y": 3.370320266,
				"z": 5.8105976806,
				"element": "H" 
			}
		],
		 "valence_orbital": [ 
			{
				"type": "occ",
				"energy": -0.25391,
				"method": "rhf"
			},
			{
				"type": "occ",
				"energy": -0.25234,
				"method": "rhf"
			},
			{
				"type": "occ",
				"energy": -0.23417,
				"method": "rhf"
			},
			{
				"type": "occ",
				"energy": -0.2228,
				"method": "rhf"
			},
			{
				"type": "occ",
				"energy": -0.20685,
				"method": "rhf"
			},
			{
				"type": "unocc",
				"energy": -0.08253,
				"method": "rhf"
			},
			{
				"type": "unocc",
				"energy": -0.06026,
				"method": "rhf"
			},
			{
				"type": "unocc",
				"energy": -0.00977,
				"method": "rhf"
			},
			{
				"type": "unocc",
				"energy": -0.00761,
				"method": "rhf"
			},
			{
				"type": "unocc",
				"energy": -0.0065,
				"method": "rhf"
			}
		],
		"cosmo_sigma_profile": { 
			"-0.025": 0.0,
			"-0.024": 0.0,
			"-0.023": 0.0,
			"-0.022": 0.0,
			"-0.021": 0.0,
			"-0.02": 0.0,
			"-0.019": 0.0,
			"-0.018": 0.0,
			"-0.017": 0.0,
			"-0.016": 0.0,
			"-0.015": 0.0,
			"-0.014": 0.0,
			"-0.013": 0.0,
			"-0.012": 0.0,
			"-0.011": 0.0,
			"-0.01": 0.0,
			"-0.009": 0.0,
			"-0.008": 0.23093791839,
			"-0.007": 5.60116048155,
			"-0.006": 30.9240822744,
			"-0.005": 35.9820664814,
			"-0.004": 38.679914197,
			"-0.003": 27.0967866494,
			"-0.002": 23.4929114359,
			"-0.001": 24.0643061549,
			"0.0": 25.4871477938,
			"0.001": 31.684934019,
			"0.002": 47.9414144814,
			"0.003": 50.0308382424,
			"0.004": 50.4426966298,
			"0.005": 21.9109034437,
			"0.006": 5.36786274367,
			"0.007": 3.74367142575,
			"0.008": 4.05676055448,
			"0.009": 1.35416154321,
			"0.01": 1.14575430074,
			"0.011": 0.773405688491,
			"0.012": 0.346824523891,
			"0.013": 0.0,
			"0.014": 0.0,
			"0.015": 0.0,
			"0.016": 0.0,
			"0.017": 0.0,
			"0.018": 0.0,
			"0.019": 0.0,
			"0.02": 0.0,
			"0.021": 0.0,
			"0.022": 0.0,
			"0.023": 0.0,
			"0.024": 0.0,
			"0.025": 0.0
		}
	}
}
