{
	 "smiles": "CC1=NC2=C(C(=CS2)C2=CC=CC=C2)C(=O)N1NC(=O)C1=CC=C(Cl)C=C1", 
	 "Tm": 509.15, 
	 "num_atms": 41, 
	 "gaussian": { 
		 "optdone": 1, 
		 "sigma_profile": "yes", 
		 "theory": "DFT", 
		 "functional": "B3LYP", 
		 "basiset": "6-31G**", 
		 "properties": { 
			 "R2extent": 16768.8162, 
			 "electric_dipole_moment_norm": 1.79842928691, 
			 "electric_quadrupole_moment_norm": 13.9448111386, 
			 "total_energy": -1943.65711643, 
			 "HOMO_LUMO_gap": 0.14916, 
			 "cosmo_polarized_energy": -16.28, 
			 "cosmo_cavitation_energy": 49.47, 
			 "cosmo_dispersion_energy": -35.45, 
			 "cosmo_repulsion_energy": 2.61, 
			 "cosmo_total_nonelectrostatic_energy": 16.63, 
			 "SMD_solvation_energy": 7.16 
		},
		"coords": [
			{
				"x": 2.7095171595,
				"y": -1.2612947997,
				"z": 3.4604883971,
				"element": "C" 
			},
			{
				"x": 1.4205080656,
				"y": -1.2402537448,
				"z": 2.6985933525,
				"element": "C" 
			},
			{
				"x": 0.333222216,
				"y": -1.7162470879,
				"z": 3.2426387578,
				"element": "N" 
			},
			{
				"x": -0.7963306109,
				"y": -1.6542806529,
				"z": 2.4950611617,
				"element": "C" 
			},
			{
				"x": -0.9381511199,
				"y": -1.1242432212,
				"z": 1.2101475306,
				"element": "C" 
			},
			{
				"x": -2.299848488,
				"y": -1.1777937627,
				"z": 0.7186644098,
				"element": "C" 
			},
			{
				"x": -3.1236300842,
				"y": -1.749742987,
				"z": 1.6541228913,
				"element": "C" 
			},
			{
				"x": -2.3193870658,
				"y": -2.228370368,
				"z": 3.1214813552,
				"element": "S" 
			},
			{
				"x": -2.8139824639,
				"y": -0.7147446998,
				"z": -0.5930474065,
				"element": "C" 
			},
			{
				"x": -2.1437735577,
				"y": -0.9965757782,
				"z": -1.794416309,
				"element": "C" 
			},
			{
				"x": -2.6877461792,
				"y": -0.6060755426,
				"z": -3.0164243117,
				"element": "C" 
			},
			{
				"x": -3.9071569886,
				"y": 0.0730386827,
				"z": -3.0643569002,
				"element": "C" 
			},
			{
				"x": -4.5800557028,
				"y": 0.3636328064,
				"z": -1.8768738784,
				"element": "C" 
			},
			{
				"x": -4.0372573592,
				"y": -0.0256629178,
				"z": -0.6529377909,
				"element": "C" 
			},
			{
				"x": 0.2435193339,
				"y": -0.5629315976,
				"z": 0.6005685566,
				"element": "C" 
			},
			{
				"x": 0.3693209029,
				"y": 0.0176180731,
				"z": -0.4743893189,
				"element": "O" 
			},
			{
				"x": 1.4066090847,
				"y": -0.7107535463,
				"z": 1.4256760981,
				"element": "N" 
			},
			{
				"x": 2.579057576,
				"y": -0.2039732016,
				"z": 0.85729106,
				"element": "N" 
			},
			{
				"x": 3.4534900432,
				"y": -1.1486613016,
				"z": 0.2824677422,
				"element": "C" 
			},
			{
				"x": 3.3691066575,
				"y": -2.3395155396,
				"z": 0.5269717397,
				"element": "O" 
			},
			{
				"x": 4.519083625,
				"y": -0.5638750756,
				"z": -0.5855346076,
				"element": "C" 
			},
			{
				"x": 5.2249444939,
				"y": -1.4474993499,
				"z": -1.4143811474,
				"element": "C" 
			},
			{
				"x": 6.2268742071,
				"y": -0.9817591489,
				"z": -2.2588152416,
				"element": "C" 
			},
			{
				"x": 6.5310210571,
				"y": 0.3813837094,
				"z": -2.263303791,
				"element": "C" 
			},
			{
				"x": 7.7943810373,
				"y": 0.977567054,
				"z": -3.3215093239,
				"element": "Cl" 
			},
			{
				"x": 5.8533873195,
				"y": 1.2774119819,
				"z": -1.4355900684,
				"element": "C" 
			},
			{
				"x": 4.8479230495,
				"y": 0.7997530974,
				"z": -0.597852595,
				"element": "C" 
			},
			{
				"x": 3.4083426053,
				"y": -1.9688475696,
				"z": 3.0046853531,
				"element": "H" 
			},
			{
				"x": 2.4921440621,
				"y": -1.5725305248,
				"z": 4.48164986,
				"element": "H" 
			},
			{
				"x": 3.182351852,
				"y": -0.2747395511,
				"z": 3.4617232549,
				"element": "H" 
			},
			{
				"x": -4.1798321833,
				"y": -1.9499228906,
				"z": 1.5394545128,
				"element": "H" 
			},
			{
				"x": -1.1947411809,
				"y": -1.5182590005,
				"z": -1.7699755481,
				"element": "H" 
			},
			{
				"x": -2.1561380857,
				"y": -0.8350430527,
				"z": -3.9356282936,
				"element": "H" 
			},
			{
				"x": -4.3259404335,
				"y": 0.3780850428,
				"z": -4.0190945828,
				"element": "H" 
			},
			{
				"x": -5.5238281868,
				"y": 0.9011751529,
				"z": -1.9006095152,
				"element": "H" 
			},
			{
				"x": -4.5524970367,
				"y": 0.2228673404,
				"z": 0.270401162,
				"element": "H" 
			},
			{
				"x": 2.3081575728,
				"y": 0.5458538922,
				"z": 0.2220780531,
				"element": "H" 
			},
			{
				"x": 4.9714123819,
				"y": -2.501539965,
				"z": -1.383550923,
				"element": "H" 
			},
			{
				"x": 6.7691818469,
				"y": -1.6615392877,
				"z": -2.9062624873,
				"element": "H" 
			},
			{
				"x": 6.1152805391,
				"y": 2.329314163,
				"z": -1.443192719,
				"element": "H" 
			},
			{
				"x": 4.3449600385,
				"y": 1.4958751694,
				"z": 0.0654815108,
				"element": "H" 
			}
		],
		 "valence_orbital": [ 
			{
				"type": "occ",
				"energy": -0.26923,
				"method": "rhf"
			},
			{
				"type": "occ",
				"energy": -0.2641,
				"method": "rhf"
			},
			{
				"type": "occ",
				"energy": -0.24622,
				"method": "rhf"
			},
			{
				"type": "occ",
				"energy": -0.24283,
				"method": "rhf"
			},
			{
				"type": "occ",
				"energy": -0.21552,
				"method": "rhf"
			},
			{
				"type": "unocc",
				"energy": -0.06636,
				"method": "rhf"
			},
			{
				"type": "unocc",
				"energy": -0.04697,
				"method": "rhf"
			},
			{
				"type": "unocc",
				"energy": -0.03233,
				"method": "rhf"
			},
			{
				"type": "unocc",
				"energy": -0.02605,
				"method": "rhf"
			},
			{
				"type": "unocc",
				"energy": -0.005,
				"method": "rhf"
			}
		],
		"cosmo_sigma_profile": { 
			"-0.025": 0.0,
			"-0.024": 0.0,
			"-0.023": 0.0,
			"-0.022": 0.0,
			"-0.021": 0.0,
			"-0.02": 0.0,
			"-0.019": 0.0,
			"-0.018": 0.0,
			"-0.017": 0.0,
			"-0.016": 0.0,
			"-0.015": 0.0,
			"-0.014": 0.0229156838682,
			"-0.013": 0.745422015748,
			"-0.012": 0.95985980769,
			"-0.011": 1.07580812586,
			"-0.01": 1.24029634448,
			"-0.009": 2.79315864532,
			"-0.008": 7.13301699929,
			"-0.007": 9.90877025865,
			"-0.006": 15.8795448823,
			"-0.005": 25.5047470614,
			"-0.004": 25.1895282802,
			"-0.003": 32.2012021487,
			"-0.002": 30.6616279773,
			"-0.001": 30.1110095865,
			"0.0": 34.6797235598,
			"0.001": 41.7326182231,
			"0.002": 41.362562473,
			"0.003": 26.6294156596,
			"0.004": 22.6513948817,
			"0.005": 13.367818611,
			"0.006": 10.2860686856,
			"0.007": 3.64159644905,
			"0.008": 5.0096661957,
			"0.009": 3.33305747316,
			"0.01": 4.74981633326,
			"0.011": 6.90052127893,
			"0.012": 4.7512101675,
			"0.013": 0.544343410312,
			"0.014": 0.0,
			"0.015": 0.0,
			"0.016": 0.0,
			"0.017": 0.0,
			"0.018": 0.0,
			"0.019": 0.0,
			"0.02": 0.0,
			"0.021": 0.0,
			"0.022": 0.0,
			"0.023": 0.0,
			"0.024": 0.0,
			"0.025": 0.0
		}
	}
}
