{
	 "smiles": "CC(C)(C)NC(N)=S", 
	 "Tm": 446.15, 
	 "num_atms": 20, 
	 "gaussian": { 
		 "optdone": 1, 
		 "sigma_profile": "yes", 
		 "theory": "DFT", 
		 "functional": "B3LYP", 
		 "basiset": "6-31G**", 
		 "properties": { 
			 "R2extent": 1920.7649, 
			 "electric_dipole_moment_norm": 6.03564752533, 
			 "electric_quadrupole_moment_norm": 23.342171493, 
			 "total_energy": -705.482289779, 
			 "HOMO_LUMO_gap": 0.20174, 
			 "cosmo_polarized_energy": -17.28, 
			 "cosmo_cavitation_energy": 23.29, 
			 "cosmo_dispersion_energy": -17.36, 
			 "cosmo_repulsion_energy": 1.4, 
			 "cosmo_total_nonelectrostatic_energy": 7.33, 
			 "SMD_solvation_energy": 3.08 
		},
		"coords": [
			{
				"x": -1.3956531075,
				"y": -1.2669179608,
				"z": 0.0886699515,
				"element": "C" 
			},
			{
				"x": 0.1136504466,
				"y": -1.0096838034,
				"z": -0.092297028,
				"element": "C" 
			},
			{
				"x": 0.7584444243,
				"y": -2.2356481668,
				"z": -0.7640686632,
				"element": "C" 
			},
			{
				"x": 0.3700681496,
				"y": 0.2238276765,
				"z": -0.9843915407,
				"element": "C" 
			},
			{
				"x": 0.7972071645,
				"y": -0.8789432389,
				"z": 1.2189590903,
				"element": "N" 
			},
			{
				"x": 0.5567385784,
				"y": -0.0741713503,
				"z": 2.2876627789,
				"element": "C" 
			},
			{
				"x": -0.3485283873,
				"y": 0.9371910432,
				"z": 2.1450770586,
				"element": "N" 
			},
			{
				"x": 1.3388301255,
				"y": -0.3343264416,
				"z": 3.7614930791,
				"element": "S" 
			},
			{
				"x": -1.5582935847,
				"y": -2.1787394584,
				"z": 0.6704946996,
				"element": "H" 
			},
			{
				"x": -1.8949502262,
				"y": -0.4476057499,
				"z": 0.6106022387,
				"element": "H" 
			},
			{
				"x": -1.8748693625,
				"y": -1.3906789158,
				"z": -0.8879024626,
				"element": "H" 
			},
			{
				"x": 0.3085750714,
				"y": -2.4108063064,
				"z": -1.7447997057,
				"element": "H" 
			},
			{
				"x": 0.608857043,
				"y": -3.1355970226,
				"z": -0.1582995399,
				"element": "H" 
			},
			{
				"x": 1.8340381612,
				"y": -2.085360173,
				"z": -0.9053771116,
				"element": "H" 
			},
			{
				"x": -0.11938305,
				"y": 1.1328242903,
				"z": -0.6198080389,
				"element": "H" 
			},
			{
				"x": 1.4418109565,
				"y": 0.4279469258,
				"z": -1.057705392,
				"element": "H" 
			},
			{
				"x": -0.0187454666,
				"y": 0.0424998291,
				"z": -1.9913658684,
				"element": "H" 
			},
			{
				"x": 1.4536514309,
				"y": -1.6108470474,
				"z": 1.4518929883,
				"element": "H" 
			},
			{
				"x": -0.3852165871,
				"y": 1.5818827411,
				"z": 2.9195644989,
				"element": "H" 
			},
			{
				"x": -0.5786317799,
				"y": 1.3034531293,
				"z": 1.234398967,
				"element": "H" 
			}
		],
		 "valence_orbital": [ 
			{
				"type": "occ",
				"energy": -0.3557,
				"method": "rhf"
			},
			{
				"type": "occ",
				"energy": -0.34311,
				"method": "rhf"
			},
			{
				"type": "occ",
				"energy": -0.26978,
				"method": "rhf"
			},
			{
				"type": "occ",
				"energy": -0.2027,
				"method": "rhf"
			},
			{
				"type": "occ",
				"energy": -0.19548,
				"method": "rhf"
			},
			{
				"type": "unocc",
				"energy": 0.00626,
				"method": "rhf"
			},
			{
				"type": "unocc",
				"energy": 0.04783,
				"method": "rhf"
			},
			{
				"type": "unocc",
				"energy": 0.07618,
				"method": "rhf"
			},
			{
				"type": "unocc",
				"energy": 0.09201,
				"method": "rhf"
			},
			{
				"type": "unocc",
				"energy": 0.10618,
				"method": "rhf"
			}
		],
		"cosmo_sigma_profile": { 
			"-0.025": 0.0,
			"-0.024": 0.0,
			"-0.023": 0.0,
			"-0.022": 0.0,
			"-0.021": 0.0,
			"-0.02": 0.0,
			"-0.019": 0.0,
			"-0.018": 0.0,
			"-0.017": 0.0,
			"-0.016": 0.0,
			"-0.015": 0.01066358865,
			"-0.014": 1.37577684082,
			"-0.013": 2.43621005782,
			"-0.012": 2.11037306316,
			"-0.011": 4.02594284214,
			"-0.01": 2.8621676205,
			"-0.009": 3.21826875272,
			"-0.008": 2.78739338927,
			"-0.007": 2.4149010824,
			"-0.006": 3.66147166156,
			"-0.005": 6.30791902117,
			"-0.004": 18.1327839996,
			"-0.003": 18.1578168537,
			"-0.002": 16.2255110082,
			"-0.001": 18.1722836652,
			"0.0": 20.2770338643,
			"0.001": 9.13566566609,
			"0.002": 3.77032041919,
			"0.003": 3.26139881629,
			"0.004": 3.52256067779,
			"0.005": 3.96944968736,
			"0.006": 4.40471518387,
			"0.007": 2.8956526256,
			"0.008": 4.05996886925,
			"0.009": 3.24244518962,
			"0.01": 3.753216107,
			"0.011": 5.64133623448,
			"0.012": 7.86106970662,
			"0.013": 6.04248852931,
			"0.014": 0.287462854278,
			"0.015": 0.0,
			"0.016": 0.0,
			"0.017": 0.0,
			"0.018": 0.0,
			"0.019": 0.0,
			"0.02": 0.0,
			"0.021": 0.0,
			"0.022": 0.0,
			"0.023": 0.0,
			"0.024": 0.0,
			"0.025": 0.0
		}
	}
}
