{
	 "smiles": "ClC1=C(Cl)C(=O)C(Cl)(Cl)C(Cl)=C1Cl", 
	 "Tm": 320.65, 
	 "num_atms": 13, 
	 "gaussian": { 
		 "optdone": 1, 
		 "sigma_profile": "yes", 
		 "theory": "DFT", 
		 "functional": "B3LYP", 
		 "basiset": "6-31G**", 
		 "properties": { 
			 "R2extent": 4999.0137, 
			 "electric_dipole_moment_norm": 2.55502520144, 
			 "electric_quadrupole_moment_norm": 1.76599181199, 
			 "total_energy": -3064.93913178, 
			 "HOMO_LUMO_gap": 0.12993, 
			 "cosmo_polarized_energy": -6.39, 
			 "cosmo_cavitation_energy": 28.25, 
			 "cosmo_dispersion_energy": -21.08, 
			 "cosmo_repulsion_energy": 1.67, 
			 "cosmo_total_nonelectrostatic_energy": 8.84, 
			 "SMD_solvation_energy": 3.88 
		},
		"coords": [
			{
				"x": -2.6366901765,
				"y": -0.4625724025,
				"z": -2.2428055194,
				"element": "Cl" 
			},
			{
				"x": -1.3705704598,
				"y": -0.7239216972,
				"z": -1.0991527637,
				"element": "C" 
			},
			{
				"x": -0.9203935995,
				"y": 0.3058521189,
				"z": -0.3314680946,
				"element": "C" 
			},
			{
				"x": -1.559042872,
				"y": 1.9051864154,
				"z": -0.4366191853,
				"element": "Cl" 
			},
			{
				"x": 0.1590766231,
				"y": 0.1219513207,
				"z": 0.6561746268,
				"element": "C" 
			},
			{
				"x": 0.581070944,
				"y": 1.0157245066,
				"z": 1.3513674722,
				"element": "O" 
			},
			{
				"x": 0.7708318319,
				"y": -1.313228634,
				"z": 0.7883256354,
				"element": "C" 
			},
			{
				"x": 0.5195337209,
				"y": -1.8056144065,
				"z": 2.5114938123,
				"element": "Cl" 
			},
			{
				"x": 2.5365652714,
				"y": -1.1373443642,
				"z": 0.4332814759,
				"element": "Cl" 
			},
			{
				"x": 0.1894693849,
				"y": -2.3678786336,
				"z": -0.1149743029,
				"element": "C" 
			},
			{
				"x": 0.8570669234,
				"y": -3.9547883957,
				"z": 0.022034535,
				"element": "Cl" 
			},
			{
				"x": -0.8054050437,
				"y": -2.0817371771,
				"z": -0.9878699368,
				"element": "C" 
			},
			{
				"x": -1.4532125481,
				"y": -3.3190286509,
				"z": -2.0144877549,
				"element": "Cl" 
			}
		],
		 "valence_orbital": [ 
			{
				"type": "occ",
				"energy": -0.33014,
				"method": "rhf"
			},
			{
				"type": "occ",
				"energy": -0.32321,
				"method": "rhf"
			},
			{
				"type": "occ",
				"energy": -0.31754,
				"method": "rhf"
			},
			{
				"type": "occ",
				"energy": -0.30108,
				"method": "rhf"
			},
			{
				"type": "occ",
				"energy": -0.26703,
				"method": "rhf"
			},
			{
				"type": "unocc",
				"energy": -0.1371,
				"method": "rhf"
			},
			{
				"type": "unocc",
				"energy": -0.06457,
				"method": "rhf"
			},
			{
				"type": "unocc",
				"energy": -0.03752,
				"method": "rhf"
			},
			{
				"type": "unocc",
				"energy": -0.03069,
				"method": "rhf"
			},
			{
				"type": "unocc",
				"energy": -0.01244,
				"method": "rhf"
			}
		],
		"cosmo_sigma_profile": { 
			"-0.025": 0.0,
			"-0.024": 0.0,
			"-0.023": 0.0,
			"-0.022": 0.0,
			"-0.021": 0.0,
			"-0.02": 0.0,
			"-0.019": 0.0,
			"-0.018": 0.0,
			"-0.017": 0.0,
			"-0.016": 0.0,
			"-0.015": 0.0,
			"-0.014": 0.0,
			"-0.013": 0.000890986031066,
			"-0.012": 0.174059977914,
			"-0.011": 0.68167205746,
			"-0.01": 0.980320771591,
			"-0.009": 1.12836810263,
			"-0.008": 1.72327873329,
			"-0.007": 2.16221065583,
			"-0.006": 6.55074081675,
			"-0.005": 11.6496273235,
			"-0.004": 17.8814425837,
			"-0.003": 16.0567478467,
			"-0.002": 17.2570746447,
			"-0.001": 19.0681707244,
			"0.0": 22.6136471169,
			"0.001": 35.430246322,
			"0.002": 47.825252117,
			"0.003": 17.254042194,
			"0.004": 4.15704777492,
			"0.005": 3.73308721128,
			"0.006": 2.98050153245,
			"0.007": 2.70618550251,
			"0.008": 3.81305424484,
			"0.009": 4.48907831193,
			"0.01": 0.863009955561,
			"0.011": 0.0,
			"0.012": 0.0,
			"0.013": 0.0,
			"0.014": 0.0,
			"0.015": 0.0,
			"0.016": 0.0,
			"0.017": 0.0,
			"0.018": 0.0,
			"0.019": 0.0,
			"0.02": 0.0,
			"0.021": 0.0,
			"0.022": 0.0,
			"0.023": 0.0,
			"0.024": 0.0,
			"0.025": 0.0
		}
	}
}
