{
	 "smiles": "CCC1=NON=C1N", 
	 "Tm": 343.15, 
	 "num_atms": 15, 
	 "gaussian": { 
		 "optdone": 1, 
		 "sigma_profile": "yes", 
		 "theory": "DFT", 
		 "functional": "B3LYP", 
		 "basiset": "6-31G**", 
		 "properties": { 
			 "R2extent": 1180.9259, 
			 "electric_dipole_moment_norm": 4.82366582383, 
			 "electric_quadrupole_moment_norm": 11.5345980489, 
			 "total_energy": -396.044478065, 
			 "HOMO_LUMO_gap": 0.21817, 
			 "cosmo_polarized_energy": -13.25, 
			 "cosmo_cavitation_energy": 19.14, 
			 "cosmo_dispersion_energy": -14.13, 
			 "cosmo_repulsion_energy": 1.2, 
			 "cosmo_total_nonelectrostatic_energy": 6.2, 
			 "SMD_solvation_energy": 2.84 
		},
		"coords": [
			{
				"x": -0.809880048,
				"y": 1.6296035225,
				"z": 1.0466608342,
				"element": "C" 
			},
			{
				"x": 0.3496635444,
				"y": 1.526352607,
				"z": 0.0387489156,
				"element": "C" 
			},
			{
				"x": 0.0463669002,
				"y": 0.6299323858,
				"z": -1.1234012207,
				"element": "C" 
			},
			{
				"x": -0.2573361252,
				"y": 1.0797751003,
				"z": -2.3119821799,
				"element": "N" 
			},
			{
				"x": -0.4698895084,
				"y": -0.0180526438,
				"z": -3.1012943566,
				"element": "O" 
			},
			{
				"x": -0.3073274742,
				"y": -1.1926586164,
				"z": -2.3831412281,
				"element": "N" 
			},
			{
				"x": 0.0167319297,
				"y": -0.8081854152,
				"z": -1.1731694469,
				"element": "C" 
			},
			{
				"x": 0.3586377225,
				"y": -1.6858789908,
				"z": -0.1602063009,
				"element": "N" 
			},
			{
				"x": -1.7032729504,
				"y": 2.0417291096,
				"z": 0.5691176241,
				"element": "H" 
			},
			{
				"x": -0.5353154237,
				"y": 2.2810837708,
				"z": 1.8815440096,
				"element": "H" 
			},
			{
				"x": -1.0796109946,
				"y": 0.652815449,
				"z": 1.4644555968,
				"element": "H" 
			},
			{
				"x": 1.2500445158,
				"y": 1.1546962523,
				"z": 0.5436181085,
				"element": "H" 
			},
			{
				"x": 0.5883021559,
				"y": 2.5194481084,
				"z": -0.3521579199,
				"element": "H" 
			},
			{
				"x": 0.0435862471,
				"y": -1.4152027096,
				"z": 0.7614188525,
				"element": "H" 
			},
			{
				"x": 0.136199509,
				"y": -2.6502579299,
				"z": -0.3723112885,
				"element": "H" 
			}
		],
		 "valence_orbital": [ 
			{
				"type": "occ",
				"energy": -0.36071,
				"method": "rhf"
			},
			{
				"type": "occ",
				"energy": -0.32873,
				"method": "rhf"
			},
			{
				"type": "occ",
				"energy": -0.30149,
				"method": "rhf"
			},
			{
				"type": "occ",
				"energy": -0.29261,
				"method": "rhf"
			},
			{
				"type": "occ",
				"energy": -0.24545,
				"method": "rhf"
			},
			{
				"type": "unocc",
				"energy": -0.02728,
				"method": "rhf"
			},
			{
				"type": "unocc",
				"energy": 0.03587,
				"method": "rhf"
			},
			{
				"type": "unocc",
				"energy": 0.06859,
				"method": "rhf"
			},
			{
				"type": "unocc",
				"energy": 0.10141,
				"method": "rhf"
			},
			{
				"type": "unocc",
				"energy": 0.1137,
				"method": "rhf"
			}
		],
		"cosmo_sigma_profile": { 
			"-0.025": 0.0,
			"-0.024": 0.0,
			"-0.023": 0.0,
			"-0.022": 0.0,
			"-0.021": 0.0,
			"-0.02": 0.0,
			"-0.019": 0.0,
			"-0.018": 0.0,
			"-0.017": 0.0,
			"-0.016": 0.0,
			"-0.015": 0.0,
			"-0.014": 1.0508003754,
			"-0.013": 1.96740063499,
			"-0.012": 3.21663379929,
			"-0.011": 3.87415838512,
			"-0.01": 2.52623032125,
			"-0.009": 2.32589188803,
			"-0.008": 2.50407366924,
			"-0.007": 3.01466589441,
			"-0.006": 3.03504809908,
			"-0.005": 6.29794298654,
			"-0.004": 10.2912724487,
			"-0.003": 11.891464638,
			"-0.002": 17.0627953414,
			"-0.001": 13.0974199486,
			"0.0": 11.0744715888,
			"0.001": 5.26130623108,
			"0.002": 3.64486902235,
			"0.003": 3.89586987855,
			"0.004": 3.53816090558,
			"0.005": 3.36189415888,
			"0.006": 6.33300105985,
			"0.007": 10.6414216297,
			"0.008": 6.77789568135,
			"0.009": 3.09161687377,
			"0.01": 3.13630579804,
			"0.011": 3.33532829589,
			"0.012": 2.81603736005,
			"0.013": 1.85050118782,
			"0.014": 0.195003634255,
			"0.015": 0.0,
			"0.016": 0.0,
			"0.017": 0.0,
			"0.018": 0.0,
			"0.019": 0.0,
			"0.02": 0.0,
			"0.021": 0.0,
			"0.022": 0.0,
			"0.023": 0.0,
			"0.024": 0.0,
			"0.025": 0.0
		}
	}
}
