{
	 "smiles": "CN1CCC(=O)NC2=C1C=CC(=C2)C(O)=O", 
	 "Tm": 523.15, 
	 "num_atms": 28, 
	 "gaussian": { 
		 "optdone": 1, 
		 "sigma_profile": "yes", 
		 "theory": "DFT", 
		 "functional": "B3LYP", 
		 "basiset": "6-31G**", 
		 "properties": { 
			 "R2extent": 4356.7983, 
			 "electric_dipole_moment_norm": 7.5931948309, 
			 "electric_quadrupole_moment_norm": 14.8966676361, 
			 "total_energy": -761.593603133, 
			 "HOMO_LUMO_gap": 0.16623, 
			 "cosmo_polarized_energy": -23.04, 
			 "cosmo_cavitation_energy": 31.01, 
			 "cosmo_dispersion_energy": -22.97, 
			 "cosmo_repulsion_energy": 1.76, 
			 "cosmo_total_nonelectrostatic_energy": 9.8, 
			 "SMD_solvation_energy": 6.19 
		},
		"coords": [
			{
				"x": 3.1105460795,
				"y": -1.2332915825,
				"z": 1.1646332375,
				"element": "C" 
			},
			{
				"x": 2.0044178621,
				"y": -0.7784557135,
				"z": 0.3363438848,
				"element": "N" 
			},
			{
				"x": 1.8458996462,
				"y": -1.4571053894,
				"z": -0.9532949568,
				"element": "C" 
			},
			{
				"x": 1.9132463532,
				"y": -0.4877769521,
				"z": -2.1270818628,
				"element": "C" 
			},
			{
				"x": 0.754877689,
				"y": 0.47978742,
				"z": -2.251139652,
				"element": "C" 
			},
			{
				"x": 0.5185303634,
				"y": 1.0446861818,
				"z": -3.3106260728,
				"element": "O" 
			},
			{
				"x": -0.0822314869,
				"y": 0.7192647029,
				"z": -1.1738043851,
				"element": "N" 
			},
			{
				"x": -0.1444861305,
				"y": 0.4051495044,
				"z": 0.201680104,
				"element": "C" 
			},
			{
				"x": 0.8580103487,
				"y": -0.2783100858,
				"z": 0.9502028046,
				"element": "C" 
			},
			{
				"x": 0.6587613166,
				"y": -0.4138007211,
				"z": 2.3387214449,
				"element": "C" 
			},
			{
				"x": -0.4619398109,
				"y": 0.0941037327,
				"z": 2.9832949574,
				"element": "C" 
			},
			{
				"x": -1.4532501668,
				"y": 0.7508595977,
				"z": 2.2463856472,
				"element": "C" 
			},
			{
				"x": -1.2794303696,
				"y": 0.8763381352,
				"z": 0.8659883778,
				"element": "C" 
			},
			{
				"x": -2.7061811544,
				"y": 1.3081694871,
				"z": 2.8369522099,
				"element": "C" 
			},
			{
				"x": -2.7158016256,
				"y": 1.4989352971,
				"z": 4.1855722432,
				"element": "O" 
			},
			{
				"x": -3.6850341822,
				"y": 1.5902564299,
				"z": 2.1838961615,
				"element": "O" 
			},
			{
				"x": 3.3414929427,
				"y": -0.4845455582,
				"z": 1.9266588807,
				"element": "H" 
			},
			{
				"x": 2.9213352175,
				"y": -2.1956178638,
				"z": 1.6683947083,
				"element": "H" 
			},
			{
				"x": 3.9964181768,
				"y": -1.3493176397,
				"z": 0.5351527498,
				"element": "H" 
			},
			{
				"x": 0.906817565,
				"y": -2.0264892117,
				"z": -0.9755888062,
				"element": "H" 
			},
			{
				"x": 2.6528076562,
				"y": -2.1879435047,
				"z": -1.0506237067,
				"element": "H" 
			},
			{
				"x": 1.9457446375,
				"y": -1.0285674238,
				"z": -3.0784632008,
				"element": "H" 
			},
			{
				"x": 2.8367706102,
				"y": 0.0992688232,
				"z": -2.0657669919,
				"element": "H" 
			},
			{
				"x": -0.8187924486,
				"y": 1.3487171056,
				"z": -1.472965484,
				"element": "H" 
			},
			{
				"x": 1.3921989576,
				"y": -0.9552039931,
				"z": 2.9228738643,
				"element": "H" 
			},
			{
				"x": -0.5718366994,
				"y": -0.0863182777,
				"z": 4.0496153889,
				"element": "H" 
			},
			{
				"x": -2.0581629848,
				"y": 1.3864036539,
				"z": 0.3063569261,
				"element": "H" 
			},
			{
				"x": -1.8227283623,
				"y": 1.3946038456,
				"z": 4.541231528,
				"element": "H" 
			}
		],
		 "valence_orbital": [ 
			{
				"type": "occ",
				"energy": -0.2986,
				"method": "rhf"
			},
			{
				"type": "occ",
				"energy": -0.26951,
				"method": "rhf"
			},
			{
				"type": "occ",
				"energy": -0.26014,
				"method": "rhf"
			},
			{
				"type": "occ",
				"energy": -0.24384,
				"method": "rhf"
			},
			{
				"type": "occ",
				"energy": -0.21074,
				"method": "rhf"
			},
			{
				"type": "unocc",
				"energy": -0.04451,
				"method": "rhf"
			},
			{
				"type": "unocc",
				"energy": -0.02605,
				"method": "rhf"
			},
			{
				"type": "unocc",
				"energy": 0.01798,
				"method": "rhf"
			},
			{
				"type": "unocc",
				"energy": 0.05908,
				"method": "rhf"
			},
			{
				"type": "unocc",
				"energy": 0.06451,
				"method": "rhf"
			}
		],
		"cosmo_sigma_profile": { 
			"-0.025": 0.0,
			"-0.024": 0.0,
			"-0.023": 0.0,
			"-0.022": 0.0,
			"-0.021": 0.0,
			"-0.02": 0.0,
			"-0.019": 0.0,
			"-0.018": 0.568520255195,
			"-0.017": 1.04780708526,
			"-0.016": 1.14149402449,
			"-0.015": 0.836050187275,
			"-0.014": 1.70074837493,
			"-0.013": 2.06961355228,
			"-0.012": 2.4919811956,
			"-0.011": 1.9187557195,
			"-0.01": 1.89343974189,
			"-0.009": 2.19755634265,
			"-0.008": 2.84015052557,
			"-0.007": 4.68391269226,
			"-0.006": 14.3283538583,
			"-0.005": 23.445397479,
			"-0.004": 21.6215911758,
			"-0.003": 20.4570296579,
			"-0.002": 18.5044381859,
			"-0.001": 12.2175453751,
			"0.0": 11.4680636115,
			"0.001": 11.669966931,
			"0.002": 11.6435779742,
			"0.003": 13.4859135626,
			"0.004": 10.6688102077,
			"0.005": 4.57335984705,
			"0.006": 3.56637273461,
			"0.007": 4.1056247881,
			"0.008": 3.60675736705,
			"0.009": 4.70361189179,
			"0.01": 5.14201274387,
			"0.011": 6.47530748519,
			"0.012": 8.38861012584,
			"0.013": 7.46554366351,
			"0.014": 4.47158503664,
			"0.015": 0.327627085589,
			"0.016": 0.0,
			"0.017": 0.0,
			"0.018": 0.0,
			"0.019": 0.0,
			"0.02": 0.0,
			"0.021": 0.0,
			"0.022": 0.0,
			"0.023": 0.0,
			"0.024": 0.0,
			"0.025": 0.0
		}
	}
}
