{
	 "smiles": "CC1=C(C)C(NC2=NN=C(S)S2)=CC=C1", 
	 "Tm": 469.15, 
	 "num_atms": 26, 
	 "gaussian": { 
		 "optdone": 1, 
		 "sigma_profile": "yes", 
		 "theory": "DFT", 
		 "functional": "B3LYP", 
		 "basiset": "6-31G**", 
		 "properties": { 
			 "R2extent": 5422.8968, 
			 "electric_dipole_moment_norm": 4.8371971068, 
			 "electric_quadrupole_moment_norm": 11.7259323557, 
			 "total_energy": -1348.29395761, 
			 "HOMO_LUMO_gap": 0.17186, 
			 "cosmo_polarized_energy": -13.9, 
			 "cosmo_cavitation_energy": 32.92, 
			 "cosmo_dispersion_energy": -25.03, 
			 "cosmo_repulsion_energy": 1.87, 
			 "cosmo_total_nonelectrostatic_energy": 9.75, 
			 "SMD_solvation_energy": 2.98 
		},
		"coords": [
			{
				"x": -0.5450364459,
				"y": 4.782923426,
				"z": -1.332029687,
				"element": "C" 
			},
			{
				"x": -0.7189518356,
				"y": 3.2803003763,
				"z": -1.3743247687,
				"element": "C" 
			},
			{
				"x": -0.2723898238,
				"y": 2.4607679911,
				"z": -0.3189103802,
				"element": "C" 
			},
			{
				"x": 0.4131821186,
				"y": 3.0338825342,
				"z": 0.9009284192,
				"element": "C" 
			},
			{
				"x": -0.4751027412,
				"y": 1.0648180968,
				"z": -0.4087044624,
				"element": "C" 
			},
			{
				"x": -0.0471299277,
				"y": 0.264676876,
				"z": 0.6733145601,
				"element": "N" 
			},
			{
				"x": 0.3375737328,
				"y": -1.0443806267,
				"z": 0.6979366783,
				"element": "C" 
			},
			{
				"x": 0.4603007941,
				"y": -1.6828698195,
				"z": 1.8421282972,
				"element": "N" 
			},
			{
				"x": 0.9947103219,
				"y": -2.9283143515,
				"z": 1.7016892423,
				"element": "N" 
			},
			{
				"x": 1.2560973525,
				"y": -3.2537009598,
				"z": 0.4735482064,
				"element": "C" 
			},
			{
				"x": 1.8022331485,
				"y": -4.8700671702,
				"z": 0.0048082096,
				"element": "S" 
			},
			{
				"x": 0.8427501659,
				"y": -1.9880797679,
				"z": -0.7019723953,
				"element": "S" 
			},
			{
				"x": -1.1070636189,
				"y": 0.4992604294,
				"z": -1.5231027554,
				"element": "C" 
			},
			{
				"x": -1.5170965617,
				"y": 1.3193449674,
				"z": -2.5694089243,
				"element": "C" 
			},
			{
				"x": -1.3273879461,
				"y": 2.6963456691,
				"z": -2.4933306641,
				"element": "C" 
			},
			{
				"x": -0.9764197599,
				"y": 5.245202777,
				"z": -2.2233319947,
				"element": "H" 
			},
			{
				"x": 0.5115743192,
				"y": 5.0728049468,
				"z": -1.2911568963,
				"element": "H" 
			},
			{
				"x": -1.0347869316,
				"y": 5.227709358,
				"z": -0.4584808725,
				"element": "H" 
			},
			{
				"x": 0.713587656,
				"y": 4.0706936527,
				"z": 0.749567769,
				"element": "H" 
			},
			{
				"x": -0.2397783893,
				"y": 3.0208361944,
				"z": 1.7857010086,
				"element": "H" 
			},
			{
				"x": 1.313028797,
				"y": 2.4629606337,
				"z": 1.1546026913,
				"element": "H" 
			},
			{
				"x": -0.0873345052,
				"y": 0.6649694341,
				"z": 1.6013710771,
				"element": "H" 
			},
			{
				"x": 2.8889475834,
				"y": -4.4770888903,
				"z": -0.693678132,
				"element": "H" 
			},
			{
				"x": -1.3057095335,
				"y": -0.5656811096,
				"z": -1.5575675899,
				"element": "H" 
			},
			{
				"x": -2.0053054059,
				"y": 0.8816354352,
				"z": -3.4349520411,
				"element": "H" 
			},
			{
				"x": -1.6595925636,
				"y": 3.3334498974,
				"z": -3.3080445953,
				"element": "H" 
			}
		],
		 "valence_orbital": [ 
			{
				"type": "occ",
				"energy": -0.28279,
				"method": "rhf"
			},
			{
				"type": "occ",
				"energy": -0.26257,
				"method": "rhf"
			},
			{
				"type": "occ",
				"energy": -0.25576,
				"method": "rhf"
			},
			{
				"type": "occ",
				"energy": -0.24786,
				"method": "rhf"
			},
			{
				"type": "occ",
				"energy": -0.21224,
				"method": "rhf"
			},
			{
				"type": "unocc",
				"energy": -0.04038,
				"method": "rhf"
			},
			{
				"type": "unocc",
				"energy": -0.01882,
				"method": "rhf"
			},
			{
				"type": "unocc",
				"energy": -0.00221,
				"method": "rhf"
			},
			{
				"type": "unocc",
				"energy": 0.00643,
				"method": "rhf"
			},
			{
				"type": "unocc",
				"energy": 0.02075,
				"method": "rhf"
			}
		],
		"cosmo_sigma_profile": { 
			"-0.025": 0.0,
			"-0.024": 0.0,
			"-0.023": 0.0,
			"-0.022": 0.0,
			"-0.021": 0.0,
			"-0.02": 0.0,
			"-0.019": 0.0,
			"-0.018": 0.0,
			"-0.017": 0.0,
			"-0.016": 0.0,
			"-0.015": 0.0,
			"-0.014": 0.482242326629,
			"-0.013": 0.920256704228,
			"-0.012": 1.88284755155,
			"-0.011": 4.39266327308,
			"-0.01": 2.98784874035,
			"-0.009": 2.93943437063,
			"-0.008": 2.68336770238,
			"-0.007": 2.79126384283,
			"-0.006": 5.33209892792,
			"-0.005": 14.7347230389,
			"-0.004": 19.6285446504,
			"-0.003": 20.0835189743,
			"-0.002": 23.4125499341,
			"-0.001": 29.3191933562,
			"0.0": 30.4925518678,
			"0.001": 20.5125728366,
			"0.002": 15.1597179,
			"0.003": 12.717663229,
			"0.004": 11.3707335666,
			"0.005": 11.6895207549,
			"0.006": 8.88337325495,
			"0.007": 4.74035100518,
			"0.008": 3.00510929569,
			"0.009": 2.32941387079,
			"0.01": 2.28136534626,
			"0.011": 4.26505495607,
			"0.012": 2.82189777016,
			"0.013": 2.45240141886,
			"0.014": 2.29853457331,
			"0.015": 0.592687816372,
			"0.016": 0.0,
			"0.017": 0.0,
			"0.018": 0.0,
			"0.019": 0.0,
			"0.02": 0.0,
			"0.021": 0.0,
			"0.022": 0.0,
			"0.023": 0.0,
			"0.024": 0.0,
			"0.025": 0.0
		}
	}
}
