{
	 "smiles": "OC(=O)C(F)(F)C(F)(F)C(F)(F)C(F)(F)C(F)(F)C(F)(F)C(F)(F)C(F)(F)F", 
	 "Tm": 338.15, 
	 "num_atms": 29, 
	 "gaussian": { 
		 "optdone": 1, 
		 "sigma_profile": "yes", 
		 "theory": "DFT", 
		 "functional": "B3LYP", 
		 "basiset": "6-31G**", 
		 "properties": { 
			 "R2extent": 9720.2661, 
			 "electric_dipole_moment_norm": 2.14998883253, 
			 "electric_quadrupole_moment_norm": 13.9210324175, 
			 "total_energy": -2191.21710501, 
			 "HOMO_LUMO_gap": 0.26715, 
			 "cosmo_polarized_energy": -8.1, 
			 "cosmo_cavitation_energy": 38.51, 
			 "cosmo_dispersion_energy": -25.36, 
			 "cosmo_repulsion_energy": 1.61, 
			 "cosmo_total_nonelectrostatic_energy": 14.75, 
			 "SMD_solvation_energy": 12.79 
		},
		"coords": [
			{
				"x": 4.4402908117,
				"y": 1.3887019263,
				"z": 0.6607054054,
				"element": "O" 
			},
			{
				"x": 4.2130102648,
				"y": 0.4264579814,
				"z": 1.56373609,
				"element": "C" 
			},
			{
				"x": 4.2781478692,
				"y": 0.544811183,
				"z": 2.7589615512,
				"element": "O" 
			},
			{
				"x": 3.8377934959,
				"y": -0.907906408,
				"z": 0.8783579106,
				"element": "C" 
			},
			{
				"x": 4.3770726913,
				"y": -1.9116515172,
				"z": 1.6078957845,
				"element": "F" 
			},
			{
				"x": 4.3317913282,
				"y": -0.9696765076,
				"z": -0.3782596692,
				"element": "F" 
			},
			{
				"x": 2.3038290565,
				"y": -1.1896886866,
				"z": 0.8318680406,
				"element": "C" 
			},
			{
				"x": 1.8740188452,
				"y": -1.3047710177,
				"z": 2.1078291564,
				"element": "F" 
			},
			{
				"x": 2.127960245,
				"y": -2.3674339218,
				"z": 0.1921319949,
				"element": "F" 
			},
			{
				"x": 1.463809139,
				"y": -0.0969400197,
				"z": 0.1213964884,
				"element": "C" 
			},
			{
				"x": 2.0536334767,
				"y": 0.193921835,
				"z": -1.0613849916,
				"element": "F" 
			},
			{
				"x": 1.4852495127,
				"y": 1.0175527208,
				"z": 0.8981578005,
				"element": "F" 
			},
			{
				"x": -0.0192465852,
				"y": -0.4271617957,
				"z": -0.2338914332,
				"element": "C" 
			},
			{
				"x": -0.0041923831,
				"y": -1.4428033997,
				"z": -1.1260457197,
				"element": "F" 
			},
			{
				"x": -0.5109702971,
				"y": 0.6761121753,
				"z": -0.8466534183,
				"element": "F" 
			},
			{
				"x": -1.0275916822,
				"y": -0.8518233626,
				"z": 0.8733982652,
				"element": "C" 
			},
			{
				"x": -0.5852069927,
				"y": -2.0173994696,
				"z": 1.4002665866,
				"element": "F" 
			},
			{
				"x": -2.2020775678,
				"y": -1.0879614995,
				"z": 0.2378356628,
				"element": "F" 
			},
			{
				"x": -1.3406916735,
				"y": 0.0828286144,
				"z": 2.0784871262,
				"element": "C" 
			},
			{
				"x": -0.2067888105,
				"y": 0.2424487553,
				"z": 2.7985073488,
				"element": "F" 
			},
			{
				"x": -2.2419027661,
				"y": -0.5883587047,
				"z": 2.8328596028,
				"element": "F" 
			},
			{
				"x": -1.9105323248,
				"y": 1.5121352349,
				"z": 1.8405619858,
				"element": "C" 
			},
			{
				"x": -2.1305816106,
				"y": 2.0226163206,
				"z": 3.0747583127,
				"element": "F" 
			},
			{
				"x": -0.9732879086,
				"y": 2.2632648006,
				"z": 1.219573246,
				"element": "F" 
			},
			{
				"x": -3.2392900986,
				"y": 1.6491209168,
				"z": 1.0535244302,
				"element": "C" 
			},
			{
				"x": -3.052030309,
				"y": 1.3922033339,
				"z": -0.2458001066,
				"element": "F" 
			},
			{
				"x": -4.1646458764,
				"y": 0.8142233259,
				"z": 1.5393226359,
				"element": "F" 
			},
			{
				"x": -3.6785769838,
				"y": 2.9067953434,
				"z": 1.1809640198,
				"element": "F" 
			},
			{
				"x": 4.6443071338,
				"y": 2.2008818426,
				"z": 1.1561358934,
				"element": "H" 
			}
		],
		 "valence_orbital": [ 
			{
				"type": "occ",
				"energy": -0.38705,
				"method": "rhf"
			},
			{
				"type": "occ",
				"energy": -0.36853,
				"method": "rhf"
			},
			{
				"type": "occ",
				"energy": -0.35721,
				"method": "rhf"
			},
			{
				"type": "occ",
				"energy": -0.35554,
				"method": "rhf"
			},
			{
				"type": "occ",
				"energy": -0.31246,
				"method": "rhf"
			},
			{
				"type": "unocc",
				"energy": -0.04531,
				"method": "rhf"
			},
			{
				"type": "unocc",
				"energy": 0.00615,
				"method": "rhf"
			},
			{
				"type": "unocc",
				"energy": 0.00993,
				"method": "rhf"
			},
			{
				"type": "unocc",
				"energy": 0.03401,
				"method": "rhf"
			},
			{
				"type": "unocc",
				"energy": 0.04226,
				"method": "rhf"
			}
		],
		"cosmo_sigma_profile": { 
			"-0.025": 0.0,
			"-0.024": 0.0,
			"-0.023": 0.0,
			"-0.022": 0.0,
			"-0.021": 0.299475224063,
			"-0.02": 1.1214939065,
			"-0.019": 1.03836567008,
			"-0.018": 0.892961126725,
			"-0.017": 0.93412385541,
			"-0.016": 0.794948656408,
			"-0.015": 0.598055593537,
			"-0.014": 0.613797143085,
			"-0.013": 0.985240101718,
			"-0.012": 0.407712219742,
			"-0.011": 0.689464773973,
			"-0.01": 0.996133656944,
			"-0.009": 1.33247987209,
			"-0.008": 1.41877972768,
			"-0.007": 1.23551791837,
			"-0.006": 1.65504578072,
			"-0.005": 2.09818048894,
			"-0.004": 3.27271207351,
			"-0.003": 6.36154134549,
			"-0.002": 16.9927030413,
			"-0.001": 34.5276034578,
			"0.0": 85.3280141819,
			"0.001": 100.788858029,
			"0.002": 16.8194715893,
			"0.003": 5.36380205529,
			"0.004": 4.26978004569,
			"0.005": 4.0854481468,
			"0.006": 3.32997471286,
			"0.007": 2.61980632213,
			"0.008": 2.30190987846,
			"0.009": 4.87055164288,
			"0.01": 1.23749989625,
			"0.011": 0.0,
			"0.012": 0.0,
			"0.013": 0.0,
			"0.014": 0.0,
			"0.015": 0.0,
			"0.016": 0.0,
			"0.017": 0.0,
			"0.018": 0.0,
			"0.019": 0.0,
			"0.02": 0.0,
			"0.021": 0.0,
			"0.022": 0.0,
			"0.023": 0.0,
			"0.024": 0.0,
			"0.025": 0.0
		}
	}
}
