{
	 "smiles": "CNC(=O)C1=CC=C(C=O)C=C1", 
	 "Tm": 426.15, 
	 "num_atms": 21, 
	 "gaussian": { 
		 "optdone": 1, 
		 "sigma_profile": "yes", 
		 "theory": "DFT", 
		 "functional": "B3LYP", 
		 "basiset": "6-31G**", 
		 "properties": { 
			 "R2extent": 3163.0754, 
			 "electric_dipole_moment_norm": 3.33326731451, 
			 "electric_quadrupole_moment_norm": 23.5361644698, 
			 "total_energy": -553.582187485, 
			 "HOMO_LUMO_gap": 0.17245, 
			 "cosmo_polarized_energy": -14.77, 
			 "cosmo_cavitation_energy": 25.73, 
			 "cosmo_dispersion_energy": -18.54, 
			 "cosmo_repulsion_energy": 1.48, 
			 "cosmo_total_nonelectrostatic_energy": 8.67, 
			 "SMD_solvation_energy": 5.85 
		},
		"coords": [
			{
				"x": 1.8355477365,
				"y": 1.0661021799,
				"z": -2.6947979999,
				"element": "C" 
			},
			{
				"x": 2.0609947765,
				"y": 2.2802722684,
				"z": -1.9225483396,
				"element": "N" 
			},
			{
				"x": 1.6220620662,
				"y": 2.5976290723,
				"z": -0.6623187318,
				"element": "C" 
			},
			{
				"x": 1.5801158224,
				"y": 3.7643658094,
				"z": -0.2825734371,
				"element": "O" 
			},
			{
				"x": 1.2212075774,
				"y": 1.4822692837,
				"z": 0.2678227142,
				"element": "C" 
			},
			{
				"x": 1.9199592168,
				"y": 0.2659125323,
				"z": 0.3524742895,
				"element": "C" 
			},
			{
				"x": 1.5510957078,
				"y": -0.6911630311,
				"z": 1.2909592432,
				"element": "C" 
			},
			{
				"x": 0.4723414888,
				"y": -0.4484947834,
				"z": 2.1533370135,
				"element": "C" 
			},
			{
				"x": 0.0676658642,
				"y": -1.4707857041,
				"z": 3.1468335459,
				"element": "C" 
			},
			{
				"x": 0.6053928226,
				"y": -2.553482786,
				"z": 3.2794859935,
				"element": "O" 
			},
			{
				"x": -0.2167961378,
				"y": 0.7698711048,
				"z": 2.0797482503,
				"element": "C" 
			},
			{
				"x": 0.1638870414,
				"y": 1.7347347834,
				"z": 1.1529924635,
				"element": "C" 
			},
			{
				"x": 2.7598312012,
				"y": 0.4960676197,
				"z": -2.8510371987,
				"element": "H" 
			},
			{
				"x": 1.4238945865,
				"y": 1.3226611805,
				"z": -3.6762464967,
				"element": "H" 
			},
			{
				"x": 1.1162176754,
				"y": 0.4220565427,
				"z": -2.1882175812,
				"element": "H" 
			},
			{
				"x": 2.3299712254,
				"y": 3.1087585964,
				"z": -2.4379473255,
				"element": "H" 
			},
			{
				"x": 2.7681605254,
				"y": 0.0818551365,
				"z": -0.2990795644,
				"element": "H" 
			},
			{
				"x": 2.0842155544,
				"y": -1.6324568137,
				"z": 1.3794632019,
				"element": "H" 
			},
			{
				"x": -0.7923758934,
				"y": -1.1771903309,
				"z": 3.7889564676,
				"element": "H" 
			},
			{
				"x": -1.0455748093,
				"y": 0.9599262543,
				"z": 2.7578474122,
				"element": "H" 
			},
			{
				"x": -0.3369140483,
				"y": 2.6954910849,
				"z": 1.1034460796,
				"element": "H" 
			}
		],
		 "valence_orbital": [ 
			{
				"type": "occ",
				"energy": -0.27482,
				"method": "rhf"
			},
			{
				"type": "occ",
				"energy": -0.2734,
				"method": "rhf"
			},
			{
				"type": "occ",
				"energy": -0.26178,
				"method": "rhf"
			},
			{
				"type": "occ",
				"energy": -0.25989,
				"method": "rhf"
			},
			{
				"type": "occ",
				"energy": -0.2492,
				"method": "rhf"
			},
			{
				"type": "unocc",
				"energy": -0.07675,
				"method": "rhf"
			},
			{
				"type": "unocc",
				"energy": -0.02166,
				"method": "rhf"
			},
			{
				"type": "unocc",
				"energy": 0.00511,
				"method": "rhf"
			},
			{
				"type": "unocc",
				"energy": 0.06135,
				"method": "rhf"
			},
			{
				"type": "unocc",
				"energy": 0.07538,
				"method": "rhf"
			}
		],
		"cosmo_sigma_profile": { 
			"-0.025": 0.0,
			"-0.024": 0.0,
			"-0.023": 0.0,
			"-0.022": 0.0,
			"-0.021": 0.0,
			"-0.02": 0.0,
			"-0.019": 0.0,
			"-0.018": 0.0,
			"-0.017": 0.0,
			"-0.016": 0.0,
			"-0.015": 0.0,
			"-0.014": 0.282798027927,
			"-0.013": 1.26361841497,
			"-0.012": 1.0682476663,
			"-0.011": 0.759917368186,
			"-0.01": 1.01323863393,
			"-0.009": 1.20690436245,
			"-0.008": 2.90993468751,
			"-0.007": 8.87617607664,
			"-0.006": 13.6784492317,
			"-0.005": 17.6043870085,
			"-0.004": 15.8456449277,
			"-0.003": 18.8939285679,
			"-0.002": 17.6870242423,
			"-0.001": 11.4505835385,
			"0.0": 12.2519604002,
			"0.001": 12.1681759788,
			"0.002": 15.9768229675,
			"0.003": 7.98521772791,
			"0.004": 4.5236074492,
			"0.005": 4.1362914922,
			"0.006": 2.44211167883,
			"0.007": 2.74305702325,
			"0.008": 3.47397873364,
			"0.009": 2.67913327733,
			"0.01": 4.55496563154,
			"0.011": 5.99689603012,
			"0.012": 4.39542422377,
			"0.013": 4.58936275288,
			"0.014": 4.39963325018,
			"0.015": 0.370931501913,
			"0.016": 0.0,
			"0.017": 0.0,
			"0.018": 0.0,
			"0.019": 0.0,
			"0.02": 0.0,
			"0.021": 0.0,
			"0.022": 0.0,
			"0.023": 0.0,
			"0.024": 0.0,
			"0.025": 0.0
		}
	}
}
