{
	 "smiles": "CCCCCCCCCCCC#C", 
	 "Tm": 268.15, 
	 "num_atms": 37, 
	 "gaussian": { 
		 "optdone": 1, 
		 "sigma_profile": "yes", 
		 "theory": "DFT", 
		 "functional": "B3LYP", 
		 "basiset": "6-31G**", 
		 "properties": { 
			 "R2extent": 4553.4994, 
			 "electric_dipole_moment_norm": 0.669743391158, 
			 "electric_quadrupole_moment_norm": 2.34569330263, 
			 "total_energy": -509.804188061, 
			 "HOMO_LUMO_gap": 0.30942, 
			 "cosmo_polarized_energy": -3.93, 
			 "cosmo_cavitation_energy": 37.71, 
			 "cosmo_dispersion_energy": -24.65, 
			 "cosmo_repulsion_energy": 2.0, 
			 "cosmo_total_nonelectrostatic_energy": 15.06, 
			 "SMD_solvation_energy": 6.56 
		},
		"coords": [
			{
				"x": 3.3946789021,
				"y": -1.3122883819,
				"z": 3.0373939725,
				"element": "C" 
			},
			{
				"x": 4.1717179194,
				"y": -2.0581672675,
				"z": 1.9458273065,
				"element": "C" 
			},
			{
				"x": 3.355894162,
				"y": -2.3673996251,
				"z": 0.679554105,
				"element": "C" 
			},
			{
				"x": 2.9208886791,
				"y": -1.1330324419,
				"z": -0.1234572214,
				"element": "C" 
			},
			{
				"x": 2.1751438676,
				"y": -1.492557316,
				"z": -1.4162439132,
				"element": "C" 
			},
			{
				"x": 1.7830986069,
				"y": -0.2889167354,
				"z": -2.2904860651,
				"element": "C" 
			},
			{
				"x": 0.7646863722,
				"y": 0.7084726292,
				"z": -1.7032635178,
				"element": "C" 
			},
			{
				"x": -0.6532806477,
				"y": 0.141907846,
				"z": -1.4558787727,
				"element": "C" 
			},
			{
				"x": -0.9383739712,
				"y": -0.3990093295,
				"z": -0.0406628816,
				"element": "C" 
			},
			{
				"x": -0.971436468,
				"y": 0.6563052128,
				"z": 1.0773204452,
				"element": "C" 
			},
			{
				"x": -2.1147318884,
				"y": 1.6924654049,
				"z": 0.9621023197,
				"element": "C" 
			},
			{
				"x": -3.4520904549,
				"y": 1.097723348,
				"z": 0.9894598254,
				"element": "C" 
			},
			{
				"x": -4.5500912127,
				"y": 0.5938009241,
				"z": 1.0155977945,
				"element": "C" 
			},
			{
				"x": 4.0107932575,
				"y": -1.1680069154,
				"z": 3.9311332543,
				"element": "H" 
			},
			{
				"x": 3.0670966203,
				"y": -0.322480799,
				"z": 2.7032068929,
				"element": "H" 
			},
			{
				"x": 2.50122118,
				"y": -1.8724898593,
				"z": 3.3376202202,
				"element": "H" 
			},
			{
				"x": 5.0613355666,
				"y": -1.4760349705,
				"z": 1.6680878637,
				"element": "H" 
			},
			{
				"x": 4.5466008816,
				"y": -3.0028629906,
				"z": 2.3602277699,
				"element": "H" 
			},
			{
				"x": 3.9517090324,
				"y": -3.0196830403,
				"z": 0.0263963919,
				"element": "H" 
			},
			{
				"x": 2.4660585834,
				"y": -2.9510663625,
				"z": 0.9575867231,
				"element": "H" 
			},
			{
				"x": 2.2896693825,
				"y": -0.4897063373,
				"z": 0.5016211277,
				"element": "H" 
			},
			{
				"x": 3.8090339666,
				"y": -0.5345771527,
				"z": -0.3750292625,
				"element": "H" 
			},
			{
				"x": 2.8148159425,
				"y": -2.1554941165,
				"z": -2.0151847981,
				"element": "H" 
			},
			{
				"x": 1.2836186958,
				"y": -2.0858896465,
				"z": -1.1730601293,
				"element": "H" 
			},
			{
				"x": 2.6972076409,
				"y": 0.263758363,
				"z": -2.5492150326,
				"element": "H" 
			},
			{
				"x": 1.3816205149,
				"y": -0.6658040609,
				"z": -3.2412725482,
				"element": "H" 
			},
			{
				"x": 0.6894274397,
				"y": 1.5426409121,
				"z": -2.4119773715,
				"element": "H" 
			},
			{
				"x": 1.1627620858,
				"y": 1.149773815,
				"z": -0.7807269961,
				"element": "H" 
			},
			{
				"x": -0.8451639923,
				"y": -0.6607843851,
				"z": -2.1804263853,
				"element": "H" 
			},
			{
				"x": -1.3948569573,
				"y": 0.9168226883,
				"z": -1.6867168983,
				"element": "H" 
			},
			{
				"x": -1.9059380877,
				"y": -0.9157182698,
				"z": -0.0513869086,
				"element": "H" 
			},
			{
				"x": -0.191322241,
				"y": -1.1555413545,
				"z": 0.2254515074,
				"element": "H" 
			},
			{
				"x": -1.0668231406,
				"y": 0.145192528,
				"z": 2.042294922,
				"element": "H" 
			},
			{
				"x": -0.0240197991,
				"y": 1.2082078551,
				"z": 1.112480499,
				"element": "H" 
			},
			{
				"x": -2.0005688576,
				"y": 2.2773129922,
				"z": 0.0403940886,
				"element": "H" 
			},
			{
				"x": -2.0263304806,
				"y": 2.4121972932,
				"z": 1.7861972567,
				"element": "H" 
			},
			{
				"x": -5.5209511008,
				"y": 0.1564295466,
				"z": 1.0397344164,
				"element": "H" 
			}
		],
		 "valence_orbital": [ 
			{
				"type": "occ",
				"energy": -0.30383,
				"method": "rhf"
			},
			{
				"type": "occ",
				"energy": -0.30255,
				"method": "rhf"
			},
			{
				"type": "occ",
				"energy": -0.29849,
				"method": "rhf"
			},
			{
				"type": "occ",
				"energy": -0.25796,
				"method": "rhf"
			},
			{
				"type": "occ",
				"energy": -0.25724,
				"method": "rhf"
			},
			{
				"type": "unocc",
				"energy": 0.05218,
				"method": "rhf"
			},
			{
				"type": "unocc",
				"energy": 0.06109,
				"method": "rhf"
			},
			{
				"type": "unocc",
				"energy": 0.07842,
				"method": "rhf"
			},
			{
				"type": "unocc",
				"energy": 0.09298,
				"method": "rhf"
			},
			{
				"type": "unocc",
				"energy": 0.10178,
				"method": "rhf"
			}
		],
		"cosmo_sigma_profile": { 
			"-0.025": 0.0,
			"-0.024": 0.0,
			"-0.023": 0.0,
			"-0.022": 0.0,
			"-0.021": 0.0,
			"-0.02": 0.0,
			"-0.019": 0.0,
			"-0.018": 0.0,
			"-0.017": 0.0,
			"-0.016": 0.0,
			"-0.015": 0.0,
			"-0.014": 0.0,
			"-0.013": 0.0,
			"-0.012": 0.0065714217889,
			"-0.011": 0.67753860625,
			"-0.01": 1.22119947805,
			"-0.009": 1.59169736284,
			"-0.008": 0.471896225787,
			"-0.007": 1.32062029337,
			"-0.006": 1.03909963748,
			"-0.005": 4.10044413939,
			"-0.004": 6.73016991246,
			"-0.003": 12.5532196437,
			"-0.002": 37.1832158988,
			"-0.001": 57.1322010537,
			"0.0": 60.105145909,
			"0.001": 52.4881291057,
			"0.002": 24.0116569952,
			"0.003": 5.04756464345,
			"0.004": 4.89268187171,
			"0.005": 4.40603140851,
			"0.006": 5.82557786665,
			"0.007": 6.49538457024,
			"0.008": 4.23771750441,
			"0.009": 0.00727300052444,
			"0.01": 0.0,
			"0.011": 0.0,
			"0.012": 0.0,
			"0.013": 0.0,
			"0.014": 0.0,
			"0.015": 0.0,
			"0.016": 0.0,
			"0.017": 0.0,
			"0.018": 0.0,
			"0.019": 0.0,
			"0.02": 0.0,
			"0.021": 0.0,
			"0.022": 0.0,
			"0.023": 0.0,
			"0.024": 0.0,
			"0.025": 0.0
		}
	}
}
