{
	 "smiles": "[O-][N+](=O)C1=C(Cl)C=CNC1=O", 
	 "Tm": 496.15, 
	 "num_atms": 14, 
	 "gaussian": { 
		 "optdone": 1, 
		 "sigma_profile": "yes", 
		 "theory": "DFT", 
		 "functional": "B3LYP", 
		 "basiset": "6-31G**", 
		 "properties": { 
			 "R2extent": 2407.1062, 
			 "electric_dipole_moment_norm": 7.42865030069, 
			 "electric_quadrupole_moment_norm": 9.72025435521, 
			 "total_energy": -987.586194683, 
			 "HOMO_LUMO_gap": 0.1737, 
			 "cosmo_polarized_energy": -18.64, 
			 "cosmo_cavitation_energy": 22.05, 
			 "cosmo_dispersion_energy": -15.89, 
			 "cosmo_repulsion_energy": 1.29, 
			 "cosmo_total_nonelectrostatic_energy": 7.44, 
			 "SMD_solvation_energy": 7.33 
		},
		"coords": [
			{
				"x": -1.0748136406,
				"y": 1.0301732018,
				"z": -3.0525882628,
				"element": "O" 
			},
			{
				"x": -1.7969717075,
				"y": 0.4271762949,
				"z": -2.2696016073,
				"element": "N" 
			},
			{
				"x": -2.9366589208,
				"y": 0.0326466515,
				"z": -2.4785256895,
				"element": "O" 
			},
			{
				"x": -1.2316896757,
				"y": 0.1360559731,
				"z": -0.9421441191,
				"element": "C" 
			},
			{
				"x": -1.368648752,
				"y": 0.9957720225,
				"z": 0.1088994874,
				"element": "C" 
			},
			{
				"x": -2.2282599561,
				"y": 2.4986918614,
				"z": -0.0660714815,
				"element": "Cl" 
			},
			{
				"x": -0.8074528877,
				"y": 0.6806495918,
				"z": 1.3818030239,
				"element": "C" 
			},
			{
				"x": -0.1363025503,
				"y": -0.4988478838,
				"z": 1.5084623626,
				"element": "C" 
			},
			{
				"x": -0.0061119862,
				"y": -1.3491545348,
				"z": 0.4518971811,
				"element": "N" 
			},
			{
				"x": -0.5205364615,
				"y": -1.1317121199,
				"z": -0.8403331512,
				"element": "C" 
			},
			{
				"x": -0.3613379861,
				"y": -1.9451494595,
				"z": -1.7364525113,
				"element": "O" 
			},
			{
				"x": -0.9147779583,
				"y": 1.360068461,
				"z": 2.2156094998,
				"element": "H" 
			},
			{
				"x": 0.3198164887,
				"y": -0.8149549511,
				"z": 2.4392904979,
				"element": "H" 
			},
			{
				"x": 0.4941459943,
				"y": -2.2241151088,
				"z": 0.5538547699,
				"element": "H" 
			}
		],
		 "valence_orbital": [ 
			{
				"type": "occ",
				"energy": -0.31675,
				"method": "rhf"
			},
			{
				"type": "occ",
				"energy": -0.31164,
				"method": "rhf"
			},
			{
				"type": "occ",
				"energy": -0.29757,
				"method": "rhf"
			},
			{
				"type": "occ",
				"energy": -0.28577,
				"method": "rhf"
			},
			{
				"type": "occ",
				"energy": -0.25016,
				"method": "rhf"
			},
			{
				"type": "unocc",
				"energy": -0.07646,
				"method": "rhf"
			},
			{
				"type": "unocc",
				"energy": -0.07525,
				"method": "rhf"
			},
			{
				"type": "unocc",
				"energy": -0.02147,
				"method": "rhf"
			},
			{
				"type": "unocc",
				"energy": -0.00653,
				"method": "rhf"
			},
			{
				"type": "unocc",
				"energy": 0.05122,
				"method": "rhf"
			}
		],
		"cosmo_sigma_profile": { 
			"-0.025": 0.0,
			"-0.024": 0.0,
			"-0.023": 0.0,
			"-0.022": 0.0,
			"-0.021": 0.0,
			"-0.02": 0.0,
			"-0.019": 0.0,
			"-0.018": 0.490551801317,
			"-0.017": 1.89595018577,
			"-0.016": 1.48062767067,
			"-0.015": 1.17755143055,
			"-0.014": 0.955444605116,
			"-0.013": 1.20745764063,
			"-0.012": 2.03381308239,
			"-0.011": 3.67246685985,
			"-0.01": 2.91615951734,
			"-0.009": 4.77526728182,
			"-0.008": 3.77627760039,
			"-0.007": 3.1755703434,
			"-0.006": 3.80244645753,
			"-0.005": 5.1969818708,
			"-0.004": 7.46300061084,
			"-0.003": 10.8625269209,
			"-0.002": 15.4561981998,
			"-0.001": 13.0580824271,
			"0.0": 12.3472008363,
			"0.001": 11.8501670248,
			"0.002": 13.068867222,
			"0.003": 6.59153963408,
			"0.004": 5.46246280724,
			"0.005": 6.1496285331,
			"0.006": 10.1664125091,
			"0.007": 10.753953708,
			"0.008": 5.96175832052,
			"0.009": 2.56013360553,
			"0.01": 1.76563596808,
			"0.011": 1.82956118399,
			"0.012": 5.32532631379,
			"0.013": 2.59284655422,
			"0.014": 0.0,
			"0.015": 0.0,
			"0.016": 0.0,
			"0.017": 0.0,
			"0.018": 0.0,
			"0.019": 0.0,
			"0.02": 0.0,
			"0.021": 0.0,
			"0.022": 0.0,
			"0.023": 0.0,
			"0.024": 0.0,
			"0.025": 0.0
		}
	}
}
