{
	 "smiles": "CC1=CC=C(C=C1)C1=CC(=CN=C1)C(O)=O", 
	 "Tm": 540.15, 
	 "num_atms": 27, 
	 "gaussian": { 
		 "optdone": 1, 
		 "sigma_profile": "yes", 
		 "theory": "DFT", 
		 "functional": "B3LYP", 
		 "basiset": "6-31G**", 
		 "properties": { 
			 "R2extent": 5398.5813, 
			 "electric_dipole_moment_norm": 6.36791208011, 
			 "electric_quadrupole_moment_norm": 20.2799655838, 
			 "total_energy": -707.226273878, 
			 "HOMO_LUMO_gap": 0.17828, 
			 "cosmo_polarized_energy": -17.01, 
			 "cosmo_cavitation_energy": 31.85, 
			 "cosmo_dispersion_energy": -23.09, 
			 "cosmo_repulsion_energy": 1.78, 
			 "cosmo_total_nonelectrostatic_energy": 10.53, 
			 "SMD_solvation_energy": 5.01 
		},
		"coords": [
			{
				"x": -3.5008370703,
				"y": 3.3902128856,
				"z": 0.3859765279,
				"element": "C" 
			},
			{
				"x": -2.4763823396,
				"y": 2.3197351185,
				"z": 0.0958397823,
				"element": "C" 
			},
			{
				"x": -1.1927707237,
				"y": 2.3756105842,
				"z": 0.6552741291,
				"element": "C" 
			},
			{
				"x": -0.2357254369,
				"y": 1.4056197012,
				"z": 0.3671451269,
				"element": "C" 
			},
			{
				"x": -0.5301828927,
				"y": 0.3368751069,
				"z": -0.495228013,
				"element": "C" 
			},
			{
				"x": -1.8169409455,
				"y": 0.2781514065,
				"z": -1.054829474,
				"element": "C" 
			},
			{
				"x": -2.7696828883,
				"y": 1.2507164882,
				"z": -0.7615275369,
				"element": "C" 
			},
			{
				"x": 0.4847966162,
				"y": -0.6983922424,
				"z": -0.8002904658,
				"element": "C" 
			},
			{
				"x": 0.1506510051,
				"y": -2.0525461303,
				"z": -0.9314212906,
				"element": "C" 
			},
			{
				"x": 1.1420998458,
				"y": -2.9899747112,
				"z": -1.2324599276,
				"element": "C" 
			},
			{
				"x": 2.4556735826,
				"y": -2.52921956,
				"z": -1.4032243278,
				"element": "C" 
			},
			{
				"x": 2.8034285414,
				"y": -1.2468800818,
				"z": -1.2757741372,
				"element": "N" 
			},
			{
				"x": 1.8391423888,
				"y": -0.3671861187,
				"z": -0.9867925127,
				"element": "C" 
			},
			{
				"x": 0.8780336137,
				"y": -4.4546665945,
				"z": -1.4045168671,
				"element": "C" 
			},
			{
				"x": -0.2399536933,
				"y": -4.9483748793,
				"z": -0.8067520928,
				"element": "O" 
			},
			{
				"x": 1.6010830199,
				"y": -5.1862085641,
				"z": -2.0371881665,
				"element": "O" 
			},
			{
				"x": -4.5196495614,
				"y": 2.9949885505,
				"z": 0.3334993387,
				"element": "H" 
			},
			{
				"x": -3.4319437847,
				"y": 4.2095566106,
				"z": -0.3406237302,
				"element": "H" 
			},
			{
				"x": -3.3553861903,
				"y": 3.8248289855,
				"z": 1.3793829179,
				"element": "H" 
			},
			{
				"x": -0.9412147214,
				"y": 3.1854476409,
				"z": 1.3355506869,
				"element": "H" 
			},
			{
				"x": 0.7405535894,
				"y": 1.4619130369,
				"z": 0.8397765826,
				"element": "H" 
			},
			{
				"x": -2.0675761248,
				"y": -0.5214922802,
				"z": -1.7464752065,
				"element": "H" 
			},
			{
				"x": -3.7562826853,
				"y": 1.183020174,
				"z": -1.2132026764,
				"element": "H" 
			},
			{
				"x": -0.887574584,
				"y": -2.3532159749,
				"z": -0.810093185,
				"element": "H" 
			},
			{
				"x": 3.2404015461,
				"y": -3.240099709,
				"z": -1.6472784523,
				"element": "H" 
			},
			{
				"x": 2.1493674105,
				"y": 0.6739758661,
				"z": -0.9218866173,
				"element": "H" 
			},
			{
				"x": -0.6180275175,
				"y": -4.2928953091,
				"z": -0.2043804126,
				"element": "H" 
			}
		],
		 "valence_orbital": [ 
			{
				"type": "occ",
				"energy": -0.29132,
				"method": "rhf"
			},
			{
				"type": "occ",
				"energy": -0.28025,
				"method": "rhf"
			},
			{
				"type": "occ",
				"energy": -0.2656,
				"method": "rhf"
			},
			{
				"type": "occ",
				"energy": -0.26485,
				"method": "rhf"
			},
			{
				"type": "occ",
				"energy": -0.24042,
				"method": "rhf"
			},
			{
				"type": "unocc",
				"energy": -0.06214,
				"method": "rhf"
			},
			{
				"type": "unocc",
				"energy": -0.0523,
				"method": "rhf"
			},
			{
				"type": "unocc",
				"energy": -0.01753,
				"method": "rhf"
			},
			{
				"type": "unocc",
				"energy": -0.00244,
				"method": "rhf"
			},
			{
				"type": "unocc",
				"energy": 0.03977,
				"method": "rhf"
			}
		],
		"cosmo_sigma_profile": { 
			"-0.025": 0.0,
			"-0.024": 0.0,
			"-0.023": 0.0,
			"-0.022": 0.0,
			"-0.021": 0.0,
			"-0.02": 0.0,
			"-0.019": 0.509436939312,
			"-0.018": 1.26353607269,
			"-0.017": 1.03519095117,
			"-0.016": 1.4228935525,
			"-0.015": 0.800479142218,
			"-0.014": 0.723644036874,
			"-0.013": 0.697149950476,
			"-0.012": 1.75853920381,
			"-0.011": 1.38222032925,
			"-0.01": 1.09039659447,
			"-0.009": 1.33654980909,
			"-0.008": 2.00173862485,
			"-0.007": 5.38662912833,
			"-0.006": 10.542932092,
			"-0.005": 15.2116429995,
			"-0.004": 21.3835712531,
			"-0.003": 18.5650370224,
			"-0.002": 17.8202116788,
			"-0.001": 22.1392902565,
			"0.0": 28.3242551458,
			"0.001": 16.3052898789,
			"0.002": 10.9067128519,
			"0.003": 12.356372839,
			"0.004": 11.2375698865,
			"0.005": 12.7500809575,
			"0.006": 5.11863686371,
			"0.007": 3.76162213629,
			"0.008": 4.27379649908,
			"0.009": 4.62831215929,
			"0.01": 5.37834608425,
			"0.011": 6.83319228251,
			"0.012": 4.49235709506,
			"0.013": 1.50428182377,
			"0.014": 0.65623769157,
			"0.015": 1.09301954402,
			"0.016": 0.330222898513,
			"0.017": 0.0,
			"0.018": 0.0,
			"0.019": 0.0,
			"0.02": 0.0,
			"0.021": 0.0,
			"0.022": 0.0,
			"0.023": 0.0,
			"0.024": 0.0,
			"0.025": 0.0
		}
	}
}
