{
	 "smiles": "CC(=O)NC1=C(F)C=CC=C1", 
	 "Tm": 351.15, 
	 "num_atms": 19, 
	 "gaussian": { 
		 "optdone": 1, 
		 "sigma_profile": "yes", 
		 "theory": "DFT", 
		 "functional": "B3LYP", 
		 "basiset": "6-31G**", 
		 "properties": { 
			 "R2extent": 2299.7672, 
			 "electric_dipole_moment_norm": 2.14980363987, 
			 "electric_quadrupole_moment_norm": 8.86865240609, 
			 "total_energy": -539.504197187, 
			 "HOMO_LUMO_gap": 0.20589, 
			 "cosmo_polarized_energy": -9.69, 
			 "cosmo_cavitation_energy": 23.45, 
			 "cosmo_dispersion_energy": -17.4, 
			 "cosmo_repulsion_energy": 1.38, 
			 "cosmo_total_nonelectrostatic_energy": 7.43, 
			 "SMD_solvation_energy": 5.3 
		},
		"coords": [
			{
				"x": 1.4103184984,
				"y": -0.7305062023,
				"z": -1.9493979055,
				"element": "C" 
			},
			{
				"x": 0.2030707274,
				"y": -0.4561659673,
				"z": -1.0647029412,
				"element": "C" 
			},
			{
				"x": -0.8764471528,
				"y": -0.9938931144,
				"z": -1.2648379487,
				"element": "O" 
			},
			{
				"x": 0.4395288213,
				"y": 0.4350192533,
				"z": -0.0402711959,
				"element": "N" 
			},
			{
				"x": -0.4592698217,
				"y": 0.8899908023,
				"z": 0.9387710682,
				"element": "C" 
			},
			{
				"x": 0.040791238,
				"y": 1.8051090066,
				"z": 1.8766867764,
				"element": "C" 
			},
			{
				"x": 1.3479865999,
				"y": 2.1702346611,
				"z": 1.7560359486,
				"element": "F" 
			},
			{
				"x": -0.7278170932,
				"y": 2.3371555642,
				"z": 2.8952829483,
				"element": "C" 
			},
			{
				"x": -2.0658141439,
				"y": 1.9461346734,
				"z": 2.9968540737,
				"element": "C" 
			},
			{
				"x": -2.5900532548,
				"y": 1.0371659664,
				"z": 2.0775507474,
				"element": "C" 
			},
			{
				"x": -1.8034550101,
				"y": 0.5064341346,
				"z": 1.052580815,
				"element": "C" 
			},
			{
				"x": 1.1505360615,
				"y": -0.4794162958,
				"z": -2.9813178433,
				"element": "H" 
			},
			{
				"x": 1.6277540537,
				"y": -1.8017315808,
				"z": -1.9204872904,
				"element": "H" 
			},
			{
				"x": 2.3095754236,
				"y": -0.1777675866,
				"z": -1.6644968719,
				"element": "H" 
			},
			{
				"x": 1.3679477516,
				"y": 0.8235914641,
				"z": 0.0380400116,
				"element": "H" 
			},
			{
				"x": -0.2758031054,
				"y": 3.0406270932,
				"z": 3.5860660572,
				"element": "H" 
			},
			{
				"x": -2.6872485051,
				"y": 2.3514648297,
				"z": 3.7888445437,
				"element": "H" 
			},
			{
				"x": -3.6288616785,
				"y": 0.7305988645,
				"z": 2.1526009456,
				"element": "H" 
			},
			{
				"x": -2.2040394101,
				"y": -0.1979455664,
				"z": 0.3375980613,
				"element": "H" 
			}
		],
		 "valence_orbital": [ 
			{
				"type": "occ",
				"energy": -0.35538,
				"method": "rhf"
			},
			{
				"type": "occ",
				"energy": -0.30981,
				"method": "rhf"
			},
			{
				"type": "occ",
				"energy": -0.25555,
				"method": "rhf"
			},
			{
				"type": "occ",
				"energy": -0.25163,
				"method": "rhf"
			},
			{
				"type": "occ",
				"energy": -0.22359,
				"method": "rhf"
			},
			{
				"type": "unocc",
				"energy": -0.0177,
				"method": "rhf"
			},
			{
				"type": "unocc",
				"energy": -0.00054,
				"method": "rhf"
			},
			{
				"type": "unocc",
				"energy": 0.04191,
				"method": "rhf"
			},
			{
				"type": "unocc",
				"energy": 0.07181,
				"method": "rhf"
			},
			{
				"type": "unocc",
				"energy": 0.08798,
				"method": "rhf"
			}
		],
		"cosmo_sigma_profile": { 
			"-0.025": 0.0,
			"-0.024": 0.0,
			"-0.023": 0.0,
			"-0.022": 0.0,
			"-0.021": 0.0,
			"-0.02": 0.0,
			"-0.019": 0.0,
			"-0.018": 0.0,
			"-0.017": 0.0,
			"-0.016": 0.0,
			"-0.015": 0.0,
			"-0.014": 0.234884283411,
			"-0.013": 1.23515534299,
			"-0.012": 1.297428362,
			"-0.011": 0.903720169259,
			"-0.01": 1.24003038856,
			"-0.009": 1.5250865702,
			"-0.008": 1.479384301,
			"-0.007": 3.94131639381,
			"-0.006": 9.69901540201,
			"-0.005": 12.7173599074,
			"-0.004": 13.8341325842,
			"-0.003": 15.6183438803,
			"-0.002": 15.1065839671,
			"-0.001": 12.2352993155,
			"0.0": 11.4362197121,
			"0.001": 14.395375124,
			"0.002": 13.3423013075,
			"0.003": 15.2811567432,
			"0.004": 16.9757287524,
			"0.005": 7.85409802379,
			"0.006": 1.38610259084,
			"0.007": 2.67982369252,
			"0.008": 1.61052735995,
			"0.009": 0.718242450414,
			"0.01": 1.5090593832,
			"0.011": 1.91752242777,
			"0.012": 2.73051273293,
			"0.013": 2.77491260475,
			"0.014": 1.87800406673,
			"0.015": 0.178803631163,
			"0.016": 0.0,
			"0.017": 0.0,
			"0.018": 0.0,
			"0.019": 0.0,
			"0.02": 0.0,
			"0.021": 0.0,
			"0.022": 0.0,
			"0.023": 0.0,
			"0.024": 0.0,
			"0.025": 0.0
		}
	}
}
