{
	 "smiles": "CC(=O)C1=CC2=C(NC(=O)CC2)C=C1", 
	 "Tm": 436.15, 
	 "num_atms": 25, 
	 "gaussian": { 
		 "optdone": 1, 
		 "sigma_profile": "yes", 
		 "theory": "DFT", 
		 "functional": "B3LYP", 
		 "basiset": "6-31G**", 
		 "properties": { 
			 "R2extent": 4289.9734, 
			 "electric_dipole_moment_norm": 2.20512118715, 
			 "electric_quadrupole_moment_norm": 23.2623880621, 
			 "total_energy": -631.036221927, 
			 "HOMO_LUMO_gap": 0.17318, 
			 "cosmo_polarized_energy": -16.04, 
			 "cosmo_cavitation_energy": 28.58, 
			 "cosmo_dispersion_energy": -21.05, 
			 "cosmo_repulsion_energy": 1.65, 
			 "cosmo_total_nonelectrostatic_energy": 9.18, 
			 "SMD_solvation_energy": 5.76 
		},
		"coords": [
			{
				"x": -2.7277334074,
				"y": -0.5334397448,
				"z": 1.9082516743,
				"element": "C" 
			},
			{
				"x": -1.9502535151,
				"y": 0.7627357205,
				"z": 2.0757618469,
				"element": "C" 
			},
			{
				"x": -2.0022425278,
				"y": 1.3835904061,
				"z": 3.1284192201,
				"element": "O" 
			},
			{
				"x": -1.1246856841,
				"y": 1.2626489048,
				"z": 0.9350297804,
				"element": "C" 
			},
			{
				"x": -1.0355692436,
				"y": 0.5968132963,
				"z": -0.298250774,
				"element": "C" 
			},
			{
				"x": -0.2589070013,
				"y": 1.0915073601,
				"z": -1.3420381934,
				"element": "C" 
			},
			{
				"x": 0.466976088,
				"y": 2.2814569421,
				"z": -1.1372828338,
				"element": "C" 
			},
			{
				"x": 1.257944599,
				"y": 2.7813692123,
				"z": -2.1777907105,
				"element": "N" 
			},
			{
				"x": 1.6802099867,
				"y": 2.0688825958,
				"z": -3.2899010064,
				"element": "C" 
			},
			{
				"x": 2.4059344001,
				"y": 2.5777630059,
				"z": -4.1264719777,
				"element": "O" 
			},
			{
				"x": 1.203601709,
				"y": 0.6250123287,
				"z": -3.331006407,
				"element": "C" 
			},
			{
				"x": -0.1882117763,
				"y": 0.4457860663,
				"z": -2.7070192034,
				"element": "C" 
			},
			{
				"x": 0.3858203645,
				"y": 2.9619735412,
				"z": 0.0867005178,
				"element": "C" 
			},
			{
				"x": -0.4056720845,
				"y": 2.4563930707,
				"z": 1.1070769905,
				"element": "C" 
			},
			{
				"x": -3.4468153913,
				"y": -0.4583121446,
				"z": 1.0848929042,
				"element": "H" 
			},
			{
				"x": -2.0573737273,
				"y": -1.3699314684,
				"z": 1.6816582069,
				"element": "H" 
			},
			{
				"x": -3.2623048727,
				"y": -0.7401339288,
				"z": 2.8357147653,
				"element": "H" 
			},
			{
				"x": -1.5881349629,
				"y": -0.3240840369,
				"z": -0.4613789017,
				"element": "H" 
			},
			{
				"x": 1.6591230841,
				"y": 3.7068874074,
				"z": -2.0909273749,
				"element": "H" 
			},
			{
				"x": 1.942469305,
				"y": 0.0295989322,
				"z": -2.7771405767,
				"element": "H" 
			},
			{
				"x": 1.2369173337,
				"y": 0.297022882,
				"z": -4.371719799,
				"element": "H" 
			},
			{
				"x": -0.9372285165,
				"y": 0.9094657646,
				"z": -3.3654427419,
				"element": "H" 
			},
			{
				"x": -0.4447536319,
				"y": -0.6163927759,
				"z": -2.6452555861,
				"element": "H" 
			},
			{
				"x": 0.9514714006,
				"y": 3.8789099864,
				"z": 0.2307418399,
				"element": "H" 
			},
			{
				"x": -0.479581928,
				"y": 2.9652766758,
				"z": 2.0620783401,
				"element": "H" 
			}
		],
		 "valence_orbital": [ 
			{
				"type": "occ",
				"energy": -0.31285,
				"method": "rhf"
			},
			{
				"type": "occ",
				"energy": -0.26463,
				"method": "rhf"
			},
			{
				"type": "occ",
				"energy": -0.26272,
				"method": "rhf"
			},
			{
				"type": "occ",
				"energy": -0.24742,
				"method": "rhf"
			},
			{
				"type": "occ",
				"energy": -0.22978,
				"method": "rhf"
			},
			{
				"type": "unocc",
				"energy": -0.0566,
				"method": "rhf"
			},
			{
				"type": "unocc",
				"energy": -0.01928,
				"method": "rhf"
			},
			{
				"type": "unocc",
				"energy": 0.00671,
				"method": "rhf"
			},
			{
				"type": "unocc",
				"energy": 0.04854,
				"method": "rhf"
			},
			{
				"type": "unocc",
				"energy": 0.07973,
				"method": "rhf"
			}
		],
		"cosmo_sigma_profile": { 
			"-0.025": 0.0,
			"-0.024": 0.0,
			"-0.023": 0.0,
			"-0.022": 0.0,
			"-0.021": 0.0,
			"-0.02": 0.0,
			"-0.019": 0.0,
			"-0.018": 0.0,
			"-0.017": 0.0,
			"-0.016": 0.0,
			"-0.015": 0.710061251492,
			"-0.014": 1.30140977175,
			"-0.013": 1.24478216404,
			"-0.012": 1.34441406756,
			"-0.011": 1.04927470073,
			"-0.01": 1.36452555234,
			"-0.009": 1.12711612414,
			"-0.008": 1.3371349108,
			"-0.007": 2.9476197944,
			"-0.006": 14.6248505427,
			"-0.005": 22.7699493732,
			"-0.004": 21.7808291324,
			"-0.003": 19.7506250403,
			"-0.002": 18.9202403183,
			"-0.001": 16.2297504753,
			"0.0": 13.6805857744,
			"0.001": 10.8600083441,
			"0.002": 11.9134690395,
			"0.003": 12.6978851113,
			"0.004": 10.775404906,
			"0.005": 2.60836816475,
			"0.006": 3.73727567917,
			"0.007": 2.37302931456,
			"0.008": 2.82313134017,
			"0.009": 2.41884503184,
			"0.01": 4.34000620925,
			"0.011": 3.71318602031,
			"0.012": 7.79918817366,
			"0.013": 8.04217211828,
			"0.014": 2.25600681921,
			"0.015": 0.099601450068,
			"0.016": 0.0,
			"0.017": 0.0,
			"0.018": 0.0,
			"0.019": 0.0,
			"0.02": 0.0,
			"0.021": 0.0,
			"0.022": 0.0,
			"0.023": 0.0,
			"0.024": 0.0,
			"0.025": 0.0
		}
	}
}
