{
	 "smiles": "NC1=NC(=CS1)C1=CC=C(Cl)S1", 
	 "Tm": 372.15, 
	 "num_atms": 17, 
	 "gaussian": { 
		 "optdone": 1, 
		 "sigma_profile": "yes", 
		 "theory": "DFT", 
		 "functional": "B3LYP", 
		 "basiset": "6-31G**", 
		 "properties": { 
			 "R2extent": 4954.8094, 
			 "electric_dipole_moment_norm": 3.39007517468, 
			 "electric_quadrupole_moment_norm": 20.9266601817, 
			 "total_energy": -1635.80710434, 
			 "HOMO_LUMO_gap": 0.15722, 
			 "cosmo_polarized_energy": -11.53, 
			 "cosmo_cavitation_energy": 27.0, 
			 "cosmo_dispersion_energy": -21.32, 
			 "cosmo_repulsion_energy": 1.62, 
			 "cosmo_total_nonelectrostatic_energy": 7.3, 
			 "SMD_solvation_energy": 2.65 
		},
		"coords": [
			{
				"x": -1.4754825398,
				"y": -0.9559727341,
				"z": 4.400917826,
				"element": "N" 
			},
			{
				"x": -0.8488459615,
				"y": -0.6732442194,
				"z": 3.2113468211,
				"element": "C" 
			},
			{
				"x": -1.2913623768,
				"y": -1.0489464504,
				"z": 2.0484823287,
				"element": "N" 
			},
			{
				"x": -0.4126792776,
				"y": -0.6899040222,
				"z": 1.0360407697,
				"element": "C" 
			},
			{
				"x": 0.7115792069,
				"y": -0.0208652193,
				"z": 1.4402569323,
				"element": "C" 
			},
			{
				"x": 0.710001356,
				"y": 0.1659812845,
				"z": 3.1751682212,
				"element": "S" 
			},
			{
				"x": -0.7682413392,
				"y": -1.0401479559,
				"z": -0.3322416701,
				"element": "C" 
			},
			{
				"x": -0.0901310772,
				"y": -0.8198688512,
				"z": -1.5092524376,
				"element": "C" 
			},
			{
				"x": -0.7661824948,
				"y": -1.311726729,
				"z": -2.6609140294,
				"element": "C" 
			},
			{
				"x": -1.9569525267,
				"y": -1.9029126908,
				"z": -2.3368476226,
				"element": "C" 
			},
			{
				"x": -3.0843437558,
				"y": -2.6287865232,
				"z": -3.4350462194,
				"element": "Cl" 
			},
			{
				"x": -2.2812927958,
				"y": -1.8748676594,
				"z": -0.6264502046,
				"element": "S" 
			},
			{
				"x": -1.3470990978,
				"y": -0.3008214,
				"z": 5.1583019536,
				"element": "H" 
			},
			{
				"x": -2.4288242629,
				"y": -1.2731980154,
				"z": 4.2831144914,
				"element": "H" 
			},
			{
				"x": 1.5209551723,
				"y": 0.3734679151,
				"z": 0.8447849735,
				"element": "H" 
			},
			{
				"x": 0.870747058,
				"y": -0.3198013987,
				"z": -1.5550715996,
				"element": "H" 
			},
			{
				"x": -0.3924452873,
				"y": -1.2338853307,
				"z": -3.6742905341,
				"element": "H" 
			}
		],
		 "valence_orbital": [ 
			{
				"type": "occ",
				"energy": -0.28707,
				"method": "rhf"
			},
			{
				"type": "occ",
				"energy": -0.28299,
				"method": "rhf"
			},
			{
				"type": "occ",
				"energy": -0.25577,
				"method": "rhf"
			},
			{
				"type": "occ",
				"energy": -0.24275,
				"method": "rhf"
			},
			{
				"type": "occ",
				"energy": -0.1984,
				"method": "rhf"
			},
			{
				"type": "unocc",
				"energy": -0.04118,
				"method": "rhf"
			},
			{
				"type": "unocc",
				"energy": -0.00301,
				"method": "rhf"
			},
			{
				"type": "unocc",
				"energy": 0.00274,
				"method": "rhf"
			},
			{
				"type": "unocc",
				"energy": 0.02448,
				"method": "rhf"
			},
			{
				"type": "unocc",
				"energy": 0.04073,
				"method": "rhf"
			}
		],
		"cosmo_sigma_profile": { 
			"-0.025": 0.0,
			"-0.024": 0.0,
			"-0.023": 0.0,
			"-0.022": 0.0,
			"-0.021": 0.0,
			"-0.02": 0.0,
			"-0.019": 0.0,
			"-0.018": 0.0,
			"-0.017": 0.0,
			"-0.016": 0.0,
			"-0.015": 0.742610963243,
			"-0.014": 2.23078511392,
			"-0.013": 2.66334601687,
			"-0.012": 2.82398740717,
			"-0.011": 2.81196053371,
			"-0.01": 1.8776240958,
			"-0.009": 2.96089499981,
			"-0.008": 7.40618962151,
			"-0.007": 7.46192127026,
			"-0.006": 6.85109929242,
			"-0.005": 6.42027517453,
			"-0.004": 6.34465970842,
			"-0.003": 8.14634517519,
			"-0.002": 7.96272177,
			"-0.001": 11.3857754438,
			"0.0": 13.8392941794,
			"0.001": 20.171088016,
			"0.002": 26.5844795607,
			"0.003": 36.8270882296,
			"0.004": 28.9814973843,
			"0.005": 5.27593325491,
			"0.006": 2.71714312127,
			"0.007": 2.68636208226,
			"0.008": 2.38639299683,
			"0.009": 1.95055578375,
			"0.01": 2.54233597449,
			"0.011": 1.82524426023,
			"0.012": 0.0450012885733,
			"0.013": 0.0,
			"0.014": 0.0,
			"0.015": 0.0,
			"0.016": 0.0,
			"0.017": 0.0,
			"0.018": 0.0,
			"0.019": 0.0,
			"0.02": 0.0,
			"0.021": 0.0,
			"0.022": 0.0,
			"0.023": 0.0,
			"0.024": 0.0,
			"0.025": 0.0
		}
	}
}
