{
	 "smiles": "CC1=C(C=CC(=C1)N(CCO)CCC#N)N=NC1=CC=C(C=C1)[N+]([O-])=O", 
	 "Tm": 429.15, 
	 "num_atms": 45, 
	 "gaussian": { 
		 "optdone": 1, 
		 "sigma_profile": "yes", 
		 "theory": "DFT", 
		 "functional": "B3LYP", 
		 "basiset": "6-31G**", 
		 "properties": { 
			 "R2extent": 18307.8152, 
			 "electric_dipole_moment_norm": 8.1890849904, 
			 "electric_quadrupole_moment_norm": 40.7111399056, 
			 "total_energy": -1196.61511418, 
			 "HOMO_LUMO_gap": 0.12756, 
			 "cosmo_polarized_energy": -22.92, 
			 "cosmo_cavitation_energy": 51.47, 
			 "cosmo_dispersion_energy": -34.1, 
			 "cosmo_repulsion_energy": 2.63, 
			 "cosmo_total_nonelectrostatic_energy": 20.0, 
			 "SMD_solvation_energy": 9.85 
		},
		"coords": [
			{
				"x": 0.4628658498,
				"y": -1.1551328701,
				"z": 2.4924878499,
				"element": "C" 
			},
			{
				"x": 0.4525597332,
				"y": -0.324701483,
				"z": 1.2328875595,
				"element": "C" 
			},
			{
				"x": 1.0300960219,
				"y": -0.7942664252,
				"z": 0.0319052783,
				"element": "C" 
			},
			{
				"x": 1.0152329646,
				"y": 0.0036883563,
				"z": -1.1271943156,
				"element": "C" 
			},
			{
				"x": 0.4361596974,
				"y": 1.2616261189,
				"z": -1.1051797097,
				"element": "C" 
			},
			{
				"x": -0.1412018455,
				"y": 1.7475734895,
				"z": 0.0810381129,
				"element": "C" 
			},
			{
				"x": -0.1297881307,
				"y": 0.9468351374,
				"z": 1.2255014895,
				"element": "C" 
			},
			{
				"x": -0.7520839803,
				"y": 3.0553321854,
				"z": 0.1592920788,
				"element": "N" 
			},
			{
				"x": -1.9293956901,
				"y": 3.2002139938,
				"z": -0.7115200858,
				"element": "C" 
			},
			{
				"x": -3.0764717132,
				"y": 2.2919081201,
				"z": -0.278189148,
				"element": "C" 
			},
			{
				"x": -4.1693446871,
				"y": 2.5907386359,
				"z": -1.1359739674,
				"element": "O" 
			},
			{
				"x": 0.1956195744,
				"y": 4.1635288885,
				"z": 0.001982097,
				"element": "C" 
			},
			{
				"x": 1.171688026,
				"y": 4.3062350408,
				"z": 1.1901448509,
				"element": "C" 
			},
			{
				"x": 2.3058368694,
				"y": 3.3769092977,
				"z": 1.1915009187,
				"element": "C" 
			},
			{
				"x": 3.2303268324,
				"y": 2.6750187423,
				"z": 1.1978069848,
				"element": "N" 
			},
			{
				"x": 1.6068782427,
				"y": -2.0816454277,
				"z": 0.0835144506,
				"element": "N" 
			},
			{
				"x": 2.0980620896,
				"y": -2.4975411192,
				"z": -1.0022238777,
				"element": "N" 
			},
			{
				"x": 2.6800261376,
				"y": -3.7879149071,
				"z": -0.927269802,
				"element": "C" 
			},
			{
				"x": 2.772031575,
				"y": -4.5603238819,
				"z": 0.2457917376,
				"element": "C" 
			},
			{
				"x": 3.3644139859,
				"y": -5.8134072926,
				"z": 0.2044146241,
				"element": "C" 
			},
			{
				"x": 3.8626337639,
				"y": -6.2873131078,
				"z": -1.0130783732,
				"element": "C" 
			},
			{
				"x": 3.7859823523,
				"y": -5.540823271,
				"z": -2.187379848,
				"element": "C" 
			},
			{
				"x": 3.1914540183,
				"y": -4.2850217574,
				"z": -2.1356484647,
				"element": "C" 
			},
			{
				"x": 4.4890028135,
				"y": -7.616814324,
				"z": -1.0554269762,
				"element": "N" 
			},
			{
				"x": 4.5442179425,
				"y": -8.2557430362,
				"z": -0.0045406443,
				"element": "O" 
			},
			{
				"x": 4.9196241731,
				"y": -8.0112897616,
				"z": -2.1391313148,
				"element": "O" 
			},
			{
				"x": -0.0639818093,
				"y": -0.6376231184,
				"z": 3.2982704674,
				"element": "H" 
			},
			{
				"x": -0.0125435998,
				"y": -2.1278275827,
				"z": 2.3365731875,
				"element": "H" 
			},
			{
				"x": 1.4864460061,
				"y": -1.3531643827,
				"z": 2.8252036857,
				"element": "H" 
			},
			{
				"x": 1.4711195082,
				"y": -0.3900897372,
				"z": -2.0281357058,
				"element": "H" 
			},
			{
				"x": 0.4338009445,
				"y": 1.872266431,
				"z": -2.0034395939,
				"element": "H" 
			},
			{
				"x": -0.5856140919,
				"y": 1.3398567636,
				"z": 2.129311279,
				"element": "H" 
			},
			{
				"x": -2.2793447676,
				"y": 4.2351779793,
				"z": -0.6384269401,
				"element": "H" 
			},
			{
				"x": -1.7101915646,
				"y": 3.0098710848,
				"z": -1.7756387062,
				"element": "H" 
			},
			{
				"x": -3.3115844208,
				"y": 2.4934669618,
				"z": 0.7783498168,
				"element": "H" 
			},
			{
				"x": -2.7766454037,
				"y": 1.2367483608,
				"z": -0.3575712983,
				"element": "H" 
			},
			{
				"x": -4.8918992265,
				"y": 1.9876686669,
				"z": -0.9250114227,
				"element": "H" 
			},
			{
				"x": 0.7711023252,
				"y": 4.117478701,
				"z": -0.9379673523,
				"element": "H" 
			},
			{
				"x": -0.3951413974,
				"y": 5.0839312385,
				"z": -0.031111144,
				"element": "H" 
			},
			{
				"x": 1.5863243946,
				"y": 5.3212068104,
				"z": 1.1815383224,
				"element": "H" 
			},
			{
				"x": 0.6134522349,
				"y": 4.1900567943,
				"z": 2.1254217762,
				"element": "H" 
			},
			{
				"x": 2.3758953156,
				"y": -4.1581441025,
				"z": 1.170216273,
				"element": "H" 
			},
			{
				"x": 3.4520888208,
				"y": -6.4328251507,
				"z": 1.0882874139,
				"element": "H" 
			},
			{
				"x": 4.1873520647,
				"y": -5.948672522,
				"z": -3.1062994203,
				"element": "H" 
			},
			{
				"x": 3.1097380501,
				"y": -3.6655525381,
				"z": -3.0222821438,
				"element": "H" 
			}
		],
		 "valence_orbital": [ 
			{
				"type": "occ",
				"energy": -0.27696,
				"method": "rhf"
			},
			{
				"type": "occ",
				"energy": -0.26105,
				"method": "rhf"
			},
			{
				"type": "occ",
				"energy": -0.24345,
				"method": "rhf"
			},
			{
				"type": "occ",
				"energy": -0.24039,
				"method": "rhf"
			},
			{
				"type": "occ",
				"energy": -0.23799,
				"method": "rhf"
			},
			{
				"type": "unocc",
				"energy": -0.11043,
				"method": "rhf"
			},
			{
				"type": "unocc",
				"energy": -0.06759,
				"method": "rhf"
			},
			{
				"type": "unocc",
				"energy": -0.0264,
				"method": "rhf"
			},
			{
				"type": "unocc",
				"energy": -0.01621,
				"method": "rhf"
			},
			{
				"type": "unocc",
				"energy": 0.00174,
				"method": "rhf"
			}
		],
		"cosmo_sigma_profile": { 
			"-0.025": 0.0,
			"-0.024": 0.0,
			"-0.023": 0.0,
			"-0.022": 0.0,
			"-0.021": 0.0,
			"-0.02": 0.0,
			"-0.019": 0.0,
			"-0.018": 0.0,
			"-0.017": 0.0,
			"-0.016": 0.490406252972,
			"-0.015": 1.07029498776,
			"-0.014": 1.37860007282,
			"-0.013": 0.447600302117,
			"-0.012": 0.648506227072,
			"-0.011": 1.32886059221,
			"-0.01": 0.631027432606,
			"-0.009": 1.97278460079,
			"-0.008": 6.30162644594,
			"-0.007": 14.1062878048,
			"-0.006": 24.7626830199,
			"-0.005": 28.7510582518,
			"-0.004": 26.9231652808,
			"-0.003": 28.0771814074,
			"-0.002": 31.0996466786,
			"-0.001": 34.0501560582,
			"0.0": 43.0000530481,
			"0.001": 34.6982252737,
			"0.002": 21.201095203,
			"0.003": 15.0686058045,
			"0.004": 12.85573404,
			"0.005": 11.1758858317,
			"0.006": 13.4829708362,
			"0.007": 13.2819610718,
			"0.008": 11.2483045605,
			"0.009": 9.5937459236,
			"0.01": 6.94694045273,
			"0.011": 4.37785126377,
			"0.012": 3.58314586553,
			"0.013": 3.92475812842,
			"0.014": 2.66773144291,
			"0.015": 0.0177148368583,
			"0.016": 0.0,
			"0.017": 0.0,
			"0.018": 0.0,
			"0.019": 0.0,
			"0.02": 0.0,
			"0.021": 0.0,
			"0.022": 0.0,
			"0.023": 0.0,
			"0.024": 0.0,
			"0.025": 0.0
		}
	}
}
