{
	 "smiles": "ClC1=C(C=C(Br)C=C1)S(Cl)(=O)=O", 
	 "Tm": 338.15, 
	 "num_atms": 15, 
	 "gaussian": { 
		 "optdone": 1, 
		 "sigma_profile": "yes", 
		 "theory": "DFT", 
		 "functional": "B3LYP", 
		 "basiset": "6-31G**", 
		 "properties": { 
			 "R2extent": 5052.6747, 
			 "electric_dipole_moment_norm": 4.77041117305, 
			 "electric_quadrupole_moment_norm": 8.31758816124, 
			 "total_energy": -4270.78639823, 
			 "HOMO_LUMO_gap": 0.17185, 
			 "cosmo_polarized_energy": -8.65, 
			 "cosmo_cavitation_energy": 27.1, 
			 "cosmo_dispersion_energy": -20.93, 
			 "cosmo_repulsion_energy": 1.62, 
			 "cosmo_total_nonelectrostatic_energy": 7.8, 
			 "SMD_solvation_energy": 2.03 
		},
		"coords": [
			{
				"x": 1.3404592227,
				"y": 1.5338478148,
				"z": 2.3980013599,
				"element": "Cl" 
			},
			{
				"x": 0.200080987,
				"y": 1.7212483621,
				"z": 1.0985676492,
				"element": "C" 
			},
			{
				"x": -0.1957276887,
				"y": 0.6625235854,
				"z": 0.2664490379,
				"element": "C" 
			},
			{
				"x": -1.1351243875,
				"y": 0.8598336033,
				"z": -0.7499904706,
				"element": "C" 
			},
			{
				"x": -1.6756303654,
				"y": 2.1279580526,
				"z": -0.9383701324,
				"element": "C" 
			},
			{
				"x": -2.9510508668,
				"y": 2.4067442716,
				"z": -2.3207723295,
				"element": "Br" 
			},
			{
				"x": -1.2907869775,
				"y": 3.1923267524,
				"z": -0.123973793,
				"element": "C" 
			},
			{
				"x": -0.3587164649,
				"y": 2.9844057265,
				"z": 0.8895478302,
				"element": "C" 
			},
			{
				"x": 0.4784116414,
				"y": -1.0079938459,
				"z": 0.3732768515,
				"element": "S" 
			},
			{
				"x": -0.378008357,
				"y": -1.6880089927,
				"z": 2.1884229519,
				"element": "Cl" 
			},
			{
				"x": 1.9194845934,
				"y": -0.9641452681,
				"z": 0.5632177407,
				"element": "O" 
			},
			{
				"x": -0.131478785,
				"y": -1.8022303336,
				"z": -0.68534883,
				"element": "O" 
			},
			{
				"x": -1.4264108995,
				"y": 0.0266099719,
				"z": -1.3767030595,
				"element": "H" 
			},
			{
				"x": -1.7160379608,
				"y": 4.177674312,
				"z": -0.2760263564,
				"element": "H" 
			},
			{
				"x": -0.0569636915,
				"y": 3.8055059878,
				"z": 1.5301015502,
				"element": "H" 
			}
		],
		 "valence_orbital": [ 
			{
				"type": "occ",
				"energy": -0.3291,
				"method": "rhf"
			},
			{
				"type": "occ",
				"energy": -0.32089,
				"method": "rhf"
			},
			{
				"type": "occ",
				"energy": -0.31396,
				"method": "rhf"
			},
			{
				"type": "occ",
				"energy": -0.30831,
				"method": "rhf"
			},
			{
				"type": "occ",
				"energy": -0.27077,
				"method": "rhf"
			},
			{
				"type": "unocc",
				"energy": -0.09892,
				"method": "rhf"
			},
			{
				"type": "unocc",
				"energy": -0.06509,
				"method": "rhf"
			},
			{
				"type": "unocc",
				"energy": -0.05679,
				"method": "rhf"
			},
			{
				"type": "unocc",
				"energy": -0.02136,
				"method": "rhf"
			},
			{
				"type": "unocc",
				"energy": 0.00223,
				"method": "rhf"
			}
		],
		"cosmo_sigma_profile": { 
			"-0.025": 0.0,
			"-0.024": 0.0,
			"-0.023": 0.0,
			"-0.022": 0.0,
			"-0.021": 0.0,
			"-0.02": 0.0,
			"-0.019": 0.0,
			"-0.018": 0.0,
			"-0.017": 0.0,
			"-0.016": 0.0,
			"-0.015": 0.0,
			"-0.014": 0.0,
			"-0.013": 0.0,
			"-0.012": 0.0,
			"-0.011": 0.0,
			"-0.01": 0.856446390237,
			"-0.009": 4.63214782961,
			"-0.008": 5.3161236409,
			"-0.007": 5.58745466999,
			"-0.006": 5.94400328472,
			"-0.005": 9.1016679085,
			"-0.004": 10.5294887265,
			"-0.003": 13.8635966011,
			"-0.002": 24.7076706881,
			"-0.001": 24.9016549517,
			"0.0": 17.591212228,
			"0.001": 16.8448797865,
			"0.002": 23.9997594262,
			"0.003": 28.2702474241,
			"0.004": 7.82510989808,
			"0.005": 4.49699853212,
			"0.006": 3.14695456441,
			"0.007": 9.08313063486,
			"0.008": 8.88220546536,
			"0.009": 1.36216443699,
			"0.01": 0.0,
			"0.011": 0.0,
			"0.012": 0.0,
			"0.013": 0.0,
			"0.014": 0.0,
			"0.015": 0.0,
			"0.016": 0.0,
			"0.017": 0.0,
			"0.018": 0.0,
			"0.019": 0.0,
			"0.02": 0.0,
			"0.021": 0.0,
			"0.022": 0.0,
			"0.023": 0.0,
			"0.024": 0.0,
			"0.025": 0.0
		}
	}
}
