{
	 "smiles": "COC1=C(O)C=CC(C=CC2=C(C=C(C=C2)[N+]([O-])=O)[N+]([O-])=O)=C1", 
	 "Tm": 464.15, 
	 "num_atms": 35, 
	 "gaussian": { 
		 "optdone": 1, 
		 "sigma_profile": "yes", 
		 "theory": "DFT", 
		 "functional": "B3LYP", 
		 "basiset": "6-31G**", 
		 "properties": { 
			 "R2extent": 11738.2226, 
			 "electric_dipole_moment_norm": 6.624855132, 
			 "electric_quadrupole_moment_norm": 28.6594620705, 
			 "total_energy": -1139.4467453, 
			 "HOMO_LUMO_gap": 0.10563, 
			 "cosmo_polarized_energy": -17.27, 
			 "cosmo_cavitation_energy": 41.78, 
			 "cosmo_dispersion_energy": -29.68, 
			 "cosmo_repulsion_energy": 2.22, 
			 "cosmo_total_nonelectrostatic_energy": 14.32, 
			 "SMD_solvation_energy": 12.52 
		},
		"coords": [
			{
				"x": 2.6346384238,
				"y": -3.8108635589,
				"z": 1.6143791898,
				"element": "C" 
			},
			{
				"x": 2.3794681041,
				"y": -4.2922279077,
				"z": 0.2996840669,
				"element": "O" 
			},
			{
				"x": 1.564061048,
				"y": -3.5534764002,
				"z": -0.5169619602,
				"element": "C" 
			},
			{
				"x": 1.3957609223,
				"y": -4.126556389,
				"z": -1.8024149575,
				"element": "C" 
			},
			{
				"x": 2.0148943254,
				"y": -5.2899328962,
				"z": -2.1098765467,
				"element": "O" 
			},
			{
				"x": 0.5918222429,
				"y": -3.485640591,
				"z": -2.7396545847,
				"element": "C" 
			},
			{
				"x": -0.0382140198,
				"y": -2.2883313961,
				"z": -2.4072297815,
				"element": "C" 
			},
			{
				"x": 0.1170948787,
				"y": -1.7052148536,
				"z": -1.1378272493,
				"element": "C" 
			},
			{
				"x": -0.5664216196,
				"y": -0.4528941815,
				"z": -0.8529298925,
				"element": "C" 
			},
			{
				"x": -0.4924457602,
				"y": 0.2696833355,
				"z": 0.2926037388,
				"element": "C" 
			},
			{
				"x": -1.2041334956,
				"y": 1.520813572,
				"z": 0.5249723182,
				"element": "C" 
			},
			{
				"x": -0.8174027788,
				"y": 2.4956518054,
				"z": 1.4874374444,
				"element": "C" 
			},
			{
				"x": -1.4921247183,
				"y": 3.7042206592,
				"z": 1.6444723419,
				"element": "C" 
			},
			{
				"x": -2.6033254899,
				"y": 3.9602520295,
				"z": 0.8582758734,
				"element": "C" 
			},
			{
				"x": -3.0439479516,
				"y": 3.036206345,
				"z": -0.0928584379,
				"element": "C" 
			},
			{
				"x": -2.3498899781,
				"y": 1.8502348391,
				"z": -0.2439365724,
				"element": "C" 
			},
			{
				"x": -3.3307993219,
				"y": 5.2198169424,
				"z": 1.0359428246,
				"element": "N" 
			},
			{
				"x": -2.9223529825,
				"y": 6.0003281462,
				"z": 1.8949707236,
				"element": "O" 
			},
			{
				"x": -4.3063572829,
				"y": 5.4157769475,
				"z": 0.3100224616,
				"element": "O" 
			},
			{
				"x": 0.3425042976,
				"y": 2.3246282914,
				"z": 2.3840047108,
				"element": "N" 
			},
			{
				"x": 0.8946435805,
				"y": 3.3462863405,
				"z": 2.787970911,
				"element": "O" 
			},
			{
				"x": 0.6837142278,
				"y": 1.184139202,
				"z": 2.7051813073,
				"element": "O" 
			},
			{
				"x": 0.9357107707,
				"y": -2.3655691893,
				"z": -0.1888537967,
				"element": "C" 
			},
			{
				"x": 3.1223280745,
				"y": -2.8292198194,
				"z": 1.5891952874,
				"element": "H" 
			},
			{
				"x": 1.708682598,
				"y": -3.7419480042,
				"z": 2.1976140381,
				"element": "H" 
			},
			{
				"x": 3.3027112199,
				"y": -4.5369889324,
				"z": 2.0785634611,
				"element": "H" 
			},
			{
				"x": 2.5196742462,
				"y": -5.5632196025,
				"z": -1.3270841187,
				"element": "H" 
			},
			{
				"x": 0.4726924219,
				"y": -3.9366035691,
				"z": -3.7188284943,
				"element": "H" 
			},
			{
				"x": -0.6627973009,
				"y": -1.7937089659,
				"z": -3.1456404998,
				"element": "H" 
			},
			{
				"x": -1.1688727815,
				"y": -0.0789865284,
				"z": -1.6789206213,
				"element": "H" 
			},
			{
				"x": 0.1539266436,
				"y": -0.0596833567,
				"z": 1.0919844951,
				"element": "H" 
			},
			{
				"x": -1.1510443055,
				"y": 4.4310050506,
				"z": 2.3685798358,
				"element": "H" 
			},
			{
				"x": -3.924241204,
				"y": 3.2583359104,
				"z": -0.6830595817,
				"element": "H" 
			},
			{
				"x": -2.7147406243,
				"y": 1.1254115565,
				"z": -0.9616801929,
				"element": "H" 
			},
			{
				"x": 1.0693835895,
				"y": -1.9391248311,
				"z": 0.7974022581,
				"element": "H" 
			}
		],
		 "valence_orbital": [ 
			{
				"type": "occ",
				"energy": -0.29553,
				"method": "rhf"
			},
			{
				"type": "occ",
				"energy": -0.28857,
				"method": "rhf"
			},
			{
				"type": "occ",
				"energy": -0.27714,
				"method": "rhf"
			},
			{
				"type": "occ",
				"energy": -0.25325,
				"method": "rhf"
			},
			{
				"type": "occ",
				"energy": -0.21494,
				"method": "rhf"
			},
			{
				"type": "unocc",
				"energy": -0.10931,
				"method": "rhf"
			},
			{
				"type": "unocc",
				"energy": -0.09244,
				"method": "rhf"
			},
			{
				"type": "unocc",
				"energy": -0.05311,
				"method": "rhf"
			},
			{
				"type": "unocc",
				"energy": -0.02373,
				"method": "rhf"
			},
			{
				"type": "unocc",
				"energy": -0.01008,
				"method": "rhf"
			}
		],
		"cosmo_sigma_profile": { 
			"-0.025": 0.0,
			"-0.024": 0.0,
			"-0.023": 0.0,
			"-0.022": 0.0,
			"-0.021": 0.0,
			"-0.02": 0.0,
			"-0.019": 0.0,
			"-0.018": 0.0,
			"-0.017": 0.0,
			"-0.016": 0.0,
			"-0.015": 0.187732194958,
			"-0.014": 0.613071556503,
			"-0.013": 0.609020383101,
			"-0.012": 0.70383635736,
			"-0.011": 0.585343404078,
			"-0.01": 0.813501778555,
			"-0.009": 2.71170513226,
			"-0.008": 6.41799950968,
			"-0.007": 14.4442317991,
			"-0.006": 22.8348887277,
			"-0.005": 22.0837356434,
			"-0.004": 23.1206327747,
			"-0.003": 21.7453098591,
			"-0.002": 24.8904803787,
			"-0.001": 24.989827228,
			"0.0": 20.6588002719,
			"0.001": 21.992740036,
			"0.002": 20.0721941347,
			"0.003": 21.3531455467,
			"0.004": 18.6597135044,
			"0.005": 9.18007545605,
			"0.006": 10.1003184475,
			"0.007": 16.1044381832,
			"0.008": 14.5198927902,
			"0.009": 9.76218916051,
			"0.01": 5.394565232,
			"0.011": 1.28620149553,
			"0.012": 0.0,
			"0.013": 0.0,
			"0.014": 0.0,
			"0.015": 0.0,
			"0.016": 0.0,
			"0.017": 0.0,
			"0.018": 0.0,
			"0.019": 0.0,
			"0.02": 0.0,
			"0.021": 0.0,
			"0.022": 0.0,
			"0.023": 0.0,
			"0.024": 0.0,
			"0.025": 0.0
		}
	}
}
