{
	 "smiles": "CCCCCCCCCCF", 
	 "Tm": 238.15, 
	 "num_atms": 32, 
	 "gaussian": { 
		 "optdone": 1, 
		 "sigma_profile": "yes", 
		 "theory": "DFT", 
		 "functional": "B3LYP", 
		 "basiset": "6-31G**", 
		 "properties": { 
			 "R2extent": 4527.1908, 
			 "electric_dipole_moment_norm": 1.64546335723, 
			 "electric_quadrupole_moment_norm": 11.6863567625, 
			 "total_energy": -493.581573449, 
			 "HOMO_LUMO_gap": 0.37435, 
			 "cosmo_polarized_energy": -3.05, 
			 "cosmo_cavitation_energy": 32.5, 
			 "cosmo_dispersion_energy": -22.71, 
			 "cosmo_repulsion_energy": 1.87, 
			 "cosmo_total_nonelectrostatic_energy": 11.65, 
			 "SMD_solvation_energy": 5.05 
		},
		"coords": [
			{
				"x": -2.651246058,
				"y": 1.8362563903,
				"z": -2.556181868,
				"element": "C" 
			},
			{
				"x": -2.0157772794,
				"y": 2.8613893912,
				"z": -1.6090439746,
				"element": "C" 
			},
			{
				"x": -1.5322128202,
				"y": 2.2782032762,
				"z": -0.2704881695,
				"element": "C" 
			},
			{
				"x": -0.3639174322,
				"y": 1.2880749941,
				"z": -0.3957585278,
				"element": "C" 
			},
			{
				"x": 0.2201069191,
				"y": 0.8137500788,
				"z": 0.9465982457,
				"element": "C" 
			},
			{
				"x": -0.7276185275,
				"y": -0.0609205281,
				"z": 1.7812630877,
				"element": "C" 
			},
			{
				"x": -0.1533149412,
				"y": -0.5071954193,
				"z": 3.1382169504,
				"element": "C" 
			},
			{
				"x": 1.1066537807,
				"y": -1.3910958636,
				"z": 3.086970873,
				"element": "C" 
			},
			{
				"x": 0.9560816719,
				"y": -2.7299730438,
				"z": 2.3445593161,
				"element": "C" 
			},
			{
				"x": -0.0543957727,
				"y": -3.6752942724,
				"z": 2.9748115142,
				"element": "C" 
			},
			{
				"x": 0.2867498891,
				"y": -3.9145974207,
				"z": 4.3072913254,
				"element": "F" 
			},
			{
				"x": -1.9375627848,
				"y": 1.0647024626,
				"z": -2.8628015139,
				"element": "H" 
			},
			{
				"x": -3.0228339789,
				"y": 2.3182833672,
				"z": -3.466524537,
				"element": "H" 
			},
			{
				"x": -3.4993574379,
				"y": 1.3314199556,
				"z": -2.0785913064,
				"element": "H" 
			},
			{
				"x": -2.746279721,
				"y": 3.6540957425,
				"z": -1.402443515,
				"element": "H" 
			},
			{
				"x": -1.172121672,
				"y": 3.3516162002,
				"z": -2.1144403654,
				"element": "H" 
			},
			{
				"x": -2.3812682888,
				"y": 1.7968895199,
				"z": 0.2330885991,
				"element": "H" 
			},
			{
				"x": -1.2205640471,
				"y": 3.1052874713,
				"z": 0.3826260067,
				"element": "H" 
			},
			{
				"x": -0.6766493007,
				"y": 0.4107708251,
				"z": -0.9779303728,
				"element": "H" 
			},
			{
				"x": 0.4366092089,
				"y": 1.7666910448,
				"z": -0.9769354169,
				"element": "H" 
			},
			{
				"x": 0.5190559811,
				"y": 1.6895120228,
				"z": 1.541148239,
				"element": "H" 
			},
			{
				"x": 1.1440851515,
				"y": 0.2575426231,
				"z": 0.7439282052,
				"element": "H" 
			},
			{
				"x": -1.6572379153,
				"y": 0.4886932199,
				"z": 1.9732219566,
				"element": "H" 
			},
			{
				"x": -1.0203433429,
				"y": -0.9386663795,
				"z": 1.1875673365,
				"element": "H" 
			},
			{
				"x": 0.0834390719,
				"y": 0.3872029968,
				"z": 3.7301847915,
				"element": "H" 
			},
			{
				"x": -0.938449051,
				"y": -1.0297099677,
				"z": 3.699747854,
				"element": "H" 
			},
			{
				"x": 1.9329370479,
				"y": -0.8326879416,
				"z": 2.6315272121,
				"element": "H" 
			},
			{
				"x": 1.4172591125,
				"y": -1.6100934658,
				"z": 4.1146284786,
				"element": "H" 
			},
			{
				"x": 0.6628932672,
				"y": -2.5705132125,
				"z": 1.2985387553,
				"element": "H" 
			},
			{
				"x": 1.9299970072,
				"y": -3.2338078209,
				"z": 2.3185447398,
				"element": "H" 
			},
			{
				"x": -1.0680286535,
				"y": -3.2560958463,
				"z": 2.959411283,
				"element": "H" 
			},
			{
				"x": -0.0724890839,
				"y": -4.6390304003,
				"z": 2.4506647973,
				"element": "H" 
			}
		],
		 "valence_orbital": [ 
			{
				"type": "occ",
				"energy": -0.31652,
				"method": "rhf"
			},
			{
				"type": "occ",
				"energy": -0.31377,
				"method": "rhf"
			},
			{
				"type": "occ",
				"energy": -0.30963,
				"method": "rhf"
			},
			{
				"type": "occ",
				"energy": -0.30413,
				"method": "rhf"
			},
			{
				"type": "occ",
				"energy": -0.29841,
				"method": "rhf"
			},
			{
				"type": "unocc",
				"energy": 0.07594,
				"method": "rhf"
			},
			{
				"type": "unocc",
				"energy": 0.0916,
				"method": "rhf"
			},
			{
				"type": "unocc",
				"energy": 0.10548,
				"method": "rhf"
			},
			{
				"type": "unocc",
				"energy": 0.10951,
				"method": "rhf"
			},
			{
				"type": "unocc",
				"energy": 0.12029,
				"method": "rhf"
			}
		],
		"cosmo_sigma_profile": { 
			"-0.025": 0.0,
			"-0.024": 0.0,
			"-0.023": 0.0,
			"-0.022": 0.0,
			"-0.021": 0.0,
			"-0.02": 0.0,
			"-0.019": 0.0,
			"-0.018": 0.0,
			"-0.017": 0.0,
			"-0.016": 0.0,
			"-0.015": 0.0,
			"-0.014": 0.0,
			"-0.013": 0.0,
			"-0.012": 0.0,
			"-0.011": 0.0,
			"-0.01": 0.0,
			"-0.009": 0.0,
			"-0.008": 0.0,
			"-0.007": 0.0,
			"-0.006": 0.00837549576653,
			"-0.005": 2.7790764543,
			"-0.004": 8.17482029843,
			"-0.003": 17.05069135,
			"-0.002": 33.7279898989,
			"-0.001": 47.2908060512,
			"0.0": 52.3529769044,
			"0.001": 48.1863143652,
			"0.002": 17.5016231111,
			"0.003": 2.49190970494,
			"0.004": 2.87584694653,
			"0.005": 2.07073917712,
			"0.006": 4.3658407276,
			"0.007": 8.7756527393,
			"0.008": 1.53872487618,
			"0.009": 0.0,
			"0.01": 0.0,
			"0.011": 0.0,
			"0.012": 0.0,
			"0.013": 0.0,
			"0.014": 0.0,
			"0.015": 0.0,
			"0.016": 0.0,
			"0.017": 0.0,
			"0.018": 0.0,
			"0.019": 0.0,
			"0.02": 0.0,
			"0.021": 0.0,
			"0.022": 0.0,
			"0.023": 0.0,
			"0.024": 0.0,
			"0.025": 0.0
		}
	}
}
