{
	 "smiles": "CCC(=O)NC1=CC(N)=C(Cl)C=C1", 
	 "Tm": 379.15, 
	 "num_atms": 24, 
	 "gaussian": { 
		 "optdone": 1, 
		 "sigma_profile": "yes", 
		 "theory": "DFT", 
		 "functional": "B3LYP", 
		 "basiset": "6-31G**", 
		 "properties": { 
			 "R2extent": 5029.5811, 
			 "electric_dipole_moment_norm": 2.58590887117, 
			 "electric_quadrupole_moment_norm": 16.5489536017, 
			 "total_energy": -994.531105338, 
			 "HOMO_LUMO_gap": 0.19441, 
			 "cosmo_polarized_energy": -14.5, 
			 "cosmo_cavitation_energy": 29.47, 
			 "cosmo_dispersion_energy": -21.33, 
			 "cosmo_repulsion_energy": 1.72, 
			 "cosmo_total_nonelectrostatic_energy": 9.85, 
			 "SMD_solvation_energy": 5.36 
		},
		"coords": [
			{
				"x": -1.6084026225,
				"y": -0.5629884006,
				"z": 1.3011809304,
				"element": "C" 
			},
			{
				"x": -1.1635115118,
				"y": -0.5101361005,
				"z": -0.1671978153,
				"element": "C" 
			},
			{
				"x": -0.4519139741,
				"y": -1.792059782,
				"z": -0.5801594322,
				"element": "C" 
			},
			{
				"x": -1.0111509574,
				"y": -2.8782055263,
				"z": -0.5066071059,
				"element": "O" 
			},
			{
				"x": 0.8288648166,
				"y": -1.7224509029,
				"z": -1.1022383906,
				"element": "N" 
			},
			{
				"x": 1.7474532695,
				"y": -0.6512372984,
				"z": -1.2054685678,
				"element": "C" 
			},
			{
				"x": 1.9843661013,
				"y": 0.2115303422,
				"z": -0.1324151955,
				"element": "C" 
			},
			{
				"x": 2.9067527023,
				"y": 1.2693799707,
				"z": -0.2294140358,
				"element": "C" 
			},
			{
				"x": 3.0764295006,
				"y": 2.1586365504,
				"z": 0.8165828889,
				"element": "N" 
			},
			{
				"x": 3.6224565097,
				"y": 1.3966887366,
				"z": -1.4364439574,
				"element": "C" 
			},
			{
				"x": 4.8183644548,
				"y": 2.6824595434,
				"z": -1.595910809,
				"element": "Cl" 
			},
			{
				"x": 3.4169748718,
				"y": 0.5199153517,
				"z": -2.4964457329,
				"element": "C" 
			},
			{
				"x": 2.4760992919,
				"y": -0.5003290159,
				"z": -2.3944414576,
				"element": "C" 
			},
			{
				"x": -2.2346915111,
				"y": 0.299183249,
				"z": 1.5477812136,
				"element": "H" 
			},
			{
				"x": -2.1797493402,
				"y": -1.4762417899,
				"z": 1.483936291,
				"element": "H" 
			},
			{
				"x": -0.7503399513,
				"y": -0.5611987621,
				"z": 1.9829542947,
				"element": "H" 
			},
			{
				"x": -2.0522620836,
				"y": -0.4601734945,
				"z": -0.807103461,
				"element": "H" 
			},
			{
				"x": -0.5667998674,
				"y": 0.3806266896,
				"z": -0.370924938,
				"element": "H" 
			},
			{
				"x": 1.1238690475,
				"y": -2.6132451682,
				"z": -1.4845712663,
				"element": "H" 
			},
			{
				"x": 1.4643038381,
				"y": 0.0573403032,
				"z": 0.8077259409,
				"element": "H" 
			},
			{
				"x": 3.939888534,
				"y": 2.6826355153,
				"z": 0.818784297,
				"element": "H" 
			},
			{
				"x": 2.7949236928,
				"y": 1.8303043562,
				"z": 1.7284473873,
				"element": "H" 
			},
			{
				"x": 3.9905110145,
				"y": 0.6487580132,
				"z": -3.407891643,
				"element": "H" 
			},
			{
				"x": 2.2943641742,
				"y": -1.1655923802,
				"z": -3.2320594357,
				"element": "H" 
			}
		],
		 "valence_orbital": [ 
			{
				"type": "occ",
				"energy": -0.32192,
				"method": "rhf"
			},
			{
				"type": "occ",
				"energy": -0.2821,
				"method": "rhf"
			},
			{
				"type": "occ",
				"energy": -0.24991,
				"method": "rhf"
			},
			{
				"type": "occ",
				"energy": -0.23721,
				"method": "rhf"
			},
			{
				"type": "occ",
				"energy": -0.2145,
				"method": "rhf"
			},
			{
				"type": "unocc",
				"energy": -0.02009,
				"method": "rhf"
			},
			{
				"type": "unocc",
				"energy": -0.00563,
				"method": "rhf"
			},
			{
				"type": "unocc",
				"energy": 0.02256,
				"method": "rhf"
			},
			{
				"type": "unocc",
				"energy": 0.03208,
				"method": "rhf"
			},
			{
				"type": "unocc",
				"energy": 0.07259,
				"method": "rhf"
			}
		],
		"cosmo_sigma_profile": { 
			"-0.025": 0.0,
			"-0.024": 0.0,
			"-0.023": 0.0,
			"-0.022": 0.0,
			"-0.021": 0.0,
			"-0.02": 0.0,
			"-0.019": 0.0,
			"-0.018": 0.0,
			"-0.017": 0.0,
			"-0.016": 0.0,
			"-0.015": 0.0,
			"-0.014": 0.953963321287,
			"-0.013": 2.31393711022,
			"-0.012": 2.90493838374,
			"-0.011": 3.32365677153,
			"-0.01": 3.76737422792,
			"-0.009": 3.34877622882,
			"-0.008": 3.54436898888,
			"-0.007": 5.8945775554,
			"-0.006": 9.36265834214,
			"-0.005": 9.57458842255,
			"-0.004": 12.6518700714,
			"-0.003": 14.3760799079,
			"-0.002": 20.1472541366,
			"-0.001": 19.622859765,
			"0.0": 17.9241947463,
			"0.001": 17.4522647866,
			"0.002": 14.8801958117,
			"0.003": 17.2920950806,
			"0.004": 18.4916411792,
			"0.005": 12.2303651468,
			"0.006": 2.8686277999,
			"0.007": 2.26109556166,
			"0.008": 1.9211896117,
			"0.009": 1.97032984395,
			"0.01": 2.01278124938,
			"0.011": 1.9047180823,
			"0.012": 2.51592990028,
			"0.013": 4.48354186119,
			"0.014": 4.7423431792,
			"0.015": 0.621043176829,
			"0.016": 0.0,
			"0.017": 0.0,
			"0.018": 0.0,
			"0.019": 0.0,
			"0.02": 0.0,
			"0.021": 0.0,
			"0.022": 0.0,
			"0.023": 0.0,
			"0.024": 0.0,
			"0.025": 0.0
		}
	}
}
