{
	 "smiles": "CC1=C(C=C(C=N1)[N+]([O-])=O)C(O)=O", 
	 "Tm": 485.15, 
	 "num_atms": 19, 
	 "gaussian": { 
		 "optdone": 1, 
		 "sigma_profile": "yes", 
		 "theory": "DFT", 
		 "functional": "B3LYP", 
		 "basiset": "6-31G**", 
		 "properties": { 
			 "R2extent": 3141.5688, 
			 "electric_dipole_moment_norm": 2.93438731254, 
			 "electric_quadrupole_moment_norm": 16.3970755249, 
			 "total_energy": -680.671508428, 
			 "HOMO_LUMO_gap": 0.18007, 
			 "cosmo_polarized_energy": -12.25, 
			 "cosmo_cavitation_energy": 24.78, 
			 "cosmo_dispersion_energy": -18.27, 
			 "cosmo_repulsion_energy": 1.44, 
			 "cosmo_total_nonelectrostatic_energy": 7.95, 
			 "SMD_solvation_energy": 6.6 
		},
		"coords": [
			{
				"x": -0.8583921704,
				"y": -1.3668717891,
				"z": -1.3197631474,
				"element": "C" 
			},
			{
				"x": 0.1003955866,
				"y": -0.2967010908,
				"z": -0.8778987866,
				"element": "C" 
			},
			{
				"x": -0.2983152691,
				"y": 0.8914718156,
				"z": -0.2085174038,
				"element": "C" 
			},
			{
				"x": 0.6797950458,
				"y": 1.8195102746,
				"z": 0.1565793181,
				"element": "C" 
			},
			{
				"x": 2.0017455055,
				"y": 1.5376419329,
				"z": -0.1524091126,
				"element": "C" 
			},
			{
				"x": 2.3236030328,
				"y": 0.3521939359,
				"z": -0.8109136073,
				"element": "C" 
			},
			{
				"x": 1.3949657467,
				"y": -0.536580327,
				"z": -1.1615239614,
				"element": "N" 
			},
			{
				"x": 3.0584859307,
				"y": 2.4866858295,
				"z": 0.2138627861,
				"element": "N" 
			},
			{
				"x": 2.7193347526,
				"y": 3.5169750599,
				"z": 0.7933951922,
				"element": "O" 
			},
			{
				"x": 4.213585832,
				"y": 2.1872265068,
				"z": -0.0839741418,
				"element": "O" 
			},
			{
				"x": -1.7280742184,
				"y": 1.1688804853,
				"z": 0.1110661338,
				"element": "C" 
			},
			{
				"x": -1.8895009042,
				"y": 2.3523271013,
				"z": 0.7509364378,
				"element": "O" 
			},
			{
				"x": -2.6675195591,
				"y": 0.4454314447,
				"z": -0.1507586358,
				"element": "O" 
			},
			{
				"x": -1.6078879245,
				"y": -0.9664470225,
				"z": -2.0081104933,
				"element": "H" 
			},
			{
				"x": -0.2906379886,
				"y": -2.1613438871,
				"z": -1.8044925372,
				"element": "H" 
			},
			{
				"x": -1.4197687407,
				"y": -1.7693602792,
				"z": -0.4719500693,
				"element": "H" 
			},
			{
				"x": 0.4240162638,
				"y": 2.7381965684,
				"z": 0.6676980663,
				"element": "H" 
			},
			{
				"x": 3.3571807925,
				"y": 0.1268693874,
				"z": -1.0550012078,
				"element": "H" 
			},
			{
				"x": -2.8428117139,
				"y": 2.4410940535,
				"z": 0.91487517,
				"element": "H" 
			}
		],
		 "valence_orbital": [ 
			{
				"type": "occ",
				"energy": -0.31911,
				"method": "rhf"
			},
			{
				"type": "occ",
				"energy": -0.30519,
				"method": "rhf"
			},
			{
				"type": "occ",
				"energy": -0.29837,
				"method": "rhf"
			},
			{
				"type": "occ",
				"energy": -0.29465,
				"method": "rhf"
			},
			{
				"type": "occ",
				"energy": -0.28386,
				"method": "rhf"
			},
			{
				"type": "unocc",
				"energy": -0.10379,
				"method": "rhf"
			},
			{
				"type": "unocc",
				"energy": -0.08116,
				"method": "rhf"
			},
			{
				"type": "unocc",
				"energy": -0.03004,
				"method": "rhf"
			},
			{
				"type": "unocc",
				"energy": 0.03206,
				"method": "rhf"
			},
			{
				"type": "unocc",
				"energy": 0.06054,
				"method": "rhf"
			}
		],
		"cosmo_sigma_profile": { 
			"-0.025": 0.0,
			"-0.024": 0.0,
			"-0.023": 0.0,
			"-0.022": 0.0,
			"-0.021": 0.0,
			"-0.02": 0.0,
			"-0.019": 0.251837435108,
			"-0.018": 0.986097143617,
			"-0.017": 0.915712021931,
			"-0.016": 0.659228952335,
			"-0.015": 1.00558577465,
			"-0.014": 0.719470968139,
			"-0.013": 0.802729648828,
			"-0.012": 0.365932323828,
			"-0.011": 0.788534608343,
			"-0.01": 1.04040917441,
			"-0.009": 0.798943030209,
			"-0.008": 2.82222980977,
			"-0.007": 4.6323860966,
			"-0.006": 5.01681372128,
			"-0.005": 12.5300511171,
			"-0.004": 20.8268616396,
			"-0.003": 24.5473542204,
			"-0.002": 16.6888476669,
			"-0.001": 13.709911457,
			"0.0": 9.93026689562,
			"0.001": 8.76234624691,
			"0.002": 6.87051307653,
			"0.003": 5.11531028099,
			"0.004": 6.15936659021,
			"0.005": 8.48563754044,
			"0.006": 8.79340598794,
			"0.007": 12.2197776466,
			"0.008": 7.45514594389,
			"0.009": 5.77817309072,
			"0.01": 3.62695988654,
			"0.011": 3.87279398984,
			"0.012": 1.44939007866,
			"0.013": 0.815161978535,
			"0.014": 0.212482311439,
			"0.015": 0.0,
			"0.016": 0.0,
			"0.017": 0.0,
			"0.018": 0.0,
			"0.019": 0.0,
			"0.02": 0.0,
			"0.021": 0.0,
			"0.022": 0.0,
			"0.023": 0.0,
			"0.024": 0.0,
			"0.025": 0.0
		}
	}
}
