{
	 "smiles": "OC1CCCC1N1CCN(CC1)C1=CC(Cl)=CC=C1", 
	 "Tm": 373.15, 
	 "num_atms": 40, 
	 "gaussian": { 
		 "optdone": 1, 
		 "sigma_profile": "yes", 
		 "theory": "DFT", 
		 "functional": "B3LYP", 
		 "basiset": "6-31G**", 
		 "properties": { 
			 "R2extent": 8918.3723, 
			 "electric_dipole_moment_norm": 2.40111675893, 
			 "electric_quadrupole_moment_norm": 27.5284909265, 
			 "total_energy": -1229.1479917, 
			 "HOMO_LUMO_gap": 0.18109, 
			 "cosmo_polarized_energy": -11.31, 
			 "cosmo_cavitation_energy": 40.51, 
			 "cosmo_dispersion_energy": -29.33, 
			 "cosmo_repulsion_energy": 2.24, 
			 "cosmo_total_nonelectrostatic_energy": 13.42, 
			 "SMD_solvation_energy": 3.77 
		},
		"coords": [
			{
				"x": -0.5047488058,
				"y": -1.1741202734,
				"z": -3.718380845,
				"element": "O" 
			},
			{
				"x": 0.7877493618,
				"y": -0.8343513392,
				"z": -3.2655292671,
				"element": "C" 
			},
			{
				"x": 1.8714592501,
				"y": -1.7500222582,
				"z": -3.8377379741,
				"element": "C" 
			},
			{
				"x": 3.035343388,
				"y": -1.6936213635,
				"z": -2.8001082625,
				"element": "C" 
			},
			{
				"x": 2.4790556609,
				"y": -0.9378566378,
				"z": -1.5589344505,
				"element": "C" 
			},
			{
				"x": 0.9454332479,
				"y": -1.0117957682,
				"z": -1.7434690167,
				"element": "C" 
			},
			{
				"x": 0.015307697,
				"y": -0.1575186329,
				"z": -0.9995909803,
				"element": "N" 
			},
			{
				"x": -0.5336291869,
				"y": -0.6879559242,
				"z": 0.2508544218,
				"element": "C" 
			},
			{
				"x": 0.3063487782,
				"y": -0.3533898166,
				"z": 1.4996157761,
				"element": "C" 
			},
			{
				"x": 0.5177600033,
				"y": 1.0946138841,
				"z": 1.6004237906,
				"element": "N" 
			},
			{
				"x": 1.1476254848,
				"y": 1.6081730472,
				"z": 0.3850256509,
				"element": "C" 
			},
			{
				"x": 0.3313313959,
				"y": 1.2710636494,
				"z": -0.8802612252,
				"element": "C" 
			},
			{
				"x": -0.3377795727,
				"y": 1.8928200812,
				"z": 2.3698103608,
				"element": "C" 
			},
			{
				"x": -0.7913741707,
				"y": 1.4293153869,
				"z": 3.625946763,
				"element": "C" 
			},
			{
				"x": -1.6035158791,
				"y": 2.2317371339,
				"z": 4.416173361,
				"element": "C" 
			},
			{
				"x": -2.1403359693,
				"y": 1.6062256248,
				"z": 5.9754867506,
				"element": "Cl" 
			},
			{
				"x": -1.9926574053,
				"y": 3.5140939103,
				"z": 4.0311101882,
				"element": "C" 
			},
			{
				"x": -1.5340013619,
				"y": 3.9757417979,
				"z": 2.7987570035,
				"element": "C" 
			},
			{
				"x": -0.7317802191,
				"y": 3.1892980443,
				"z": 1.9740494094,
				"element": "C" 
			},
			{
				"x": -1.1070274657,
				"y": -0.7629166754,
				"z": -3.0773064578,
				"element": "H" 
			},
			{
				"x": 1.0225965766,
				"y": 0.2151339259,
				"z": -3.5245005895,
				"element": "H" 
			},
			{
				"x": 2.1836491993,
				"y": -1.4578198048,
				"z": -4.8436751551,
				"element": "H" 
			},
			{
				"x": 1.4525878119,
				"y": -2.7595667272,
				"z": -3.9078397412,
				"element": "H" 
			},
			{
				"x": 3.9155605708,
				"y": -1.1859345915,
				"z": -3.2047828881,
				"element": "H" 
			},
			{
				"x": 3.3568461345,
				"y": -2.7038574491,
				"z": -2.5299678296,
				"element": "H" 
			},
			{
				"x": 2.8213523457,
				"y": -1.3665975015,
				"z": -0.612026817,
				"element": "H" 
			},
			{
				"x": 2.8106663519,
				"y": 0.1062998488,
				"z": -1.579932058,
				"element": "H" 
			},
			{
				"x": 0.6281162162,
				"y": -2.0427132203,
				"z": -1.5372153025,
				"element": "H" 
			},
			{
				"x": -1.5346924371,
				"y": -0.2570057518,
				"z": 0.3979930724,
				"element": "H" 
			},
			{
				"x": -0.6554824018,
				"y": -1.7718279012,
				"z": 0.1537887491,
				"element": "H" 
			},
			{
				"x": -0.1951106779,
				"y": -0.7291730205,
				"z": 2.3920136111,
				"element": "H" 
			},
			{
				"x": 1.286507397,
				"y": -0.8457416777,
				"z": 1.4420886121,
				"element": "H" 
			},
			{
				"x": 2.1393021704,
				"y": 1.1444064032,
				"z": 0.314339757,
				"element": "H" 
			},
			{
				"x": 1.3095823956,
				"y": 2.6843189655,
				"z": 0.4750887219,
				"element": "H" 
			},
			{
				"x": 0.8672733026,
				"y": 1.6022227199,
				"z": -1.7751503415,
				"element": "H" 
			},
			{
				"x": -0.6148165448,
				"y": 1.8287500597,
				"z": -0.8472939629,
				"element": "H" 
			},
			{
				"x": -0.4846477528,
				"y": 0.4627732531,
				"z": 4.0046994319,
				"element": "H" 
			},
			{
				"x": -2.6265046528,
				"y": 4.1184094952,
				"z": 4.6684775114,
				"element": "H" 
			},
			{
				"x": -1.8222178972,
				"y": 4.967412007,
				"z": 2.461265842,
				"element": "H" 
			},
			{
				"x": -0.4330323398,
				"y": 3.5861770968,
				"z": 1.0117943795,
				"element": "H" 
			}
		],
		 "valence_orbital": [ 
			{
				"type": "occ",
				"energy": -0.2883,
				"method": "rhf"
			},
			{
				"type": "occ",
				"energy": -0.25973,
				"method": "rhf"
			},
			{
				"type": "occ",
				"energy": -0.24373,
				"method": "rhf"
			},
			{
				"type": "occ",
				"energy": -0.22704,
				"method": "rhf"
			},
			{
				"type": "occ",
				"energy": -0.18895,
				"method": "rhf"
			},
			{
				"type": "unocc",
				"energy": -0.00786,
				"method": "rhf"
			},
			{
				"type": "unocc",
				"energy": 0.00483,
				"method": "rhf"
			},
			{
				"type": "unocc",
				"energy": 0.03447,
				"method": "rhf"
			},
			{
				"type": "unocc",
				"energy": 0.0674,
				"method": "rhf"
			},
			{
				"type": "unocc",
				"energy": 0.07801,
				"method": "rhf"
			}
		],
		"cosmo_sigma_profile": { 
			"-0.025": 0.0,
			"-0.024": 0.0,
			"-0.023": 0.0,
			"-0.022": 0.0,
			"-0.021": 0.0,
			"-0.02": 0.0,
			"-0.019": 0.0,
			"-0.018": 0.0,
			"-0.017": 0.0,
			"-0.016": 0.0,
			"-0.015": 0.0,
			"-0.014": 0.0,
			"-0.013": 0.0,
			"-0.012": 0.0,
			"-0.011": 0.272018556708,
			"-0.01": 0.811231106553,
			"-0.009": 0.303124039074,
			"-0.008": 1.0301196894,
			"-0.007": 3.38052533318,
			"-0.006": 9.14153850989,
			"-0.005": 14.3504760438,
			"-0.004": 26.2178476071,
			"-0.003": 39.8989385361,
			"-0.002": 40.6495333588,
			"-0.001": 37.8520933685,
			"0.0": 22.9347651716,
			"0.001": 21.8649710038,
			"0.002": 17.0826453726,
			"0.003": 18.1013535127,
			"0.004": 18.3581362744,
			"0.005": 23.0579421043,
			"0.006": 8.55126778235,
			"0.007": 2.44881449445,
			"0.008": 1.50905651334,
			"0.009": 1.19768613629,
			"0.01": 1.99005239937,
			"0.011": 1.25925657622,
			"0.012": 1.6935293524,
			"0.013": 0.899334801736,
			"0.014": 2.3974855948,
			"0.015": 1.55950776444,
			"0.016": 0.0208072801059,
			"0.017": 0.0,
			"0.018": 0.0,
			"0.019": 0.0,
			"0.02": 0.0,
			"0.021": 0.0,
			"0.022": 0.0,
			"0.023": 0.0,
			"0.024": 0.0,
			"0.025": 0.0
		}
	}
}
