{
	 "smiles": "O=C=NC1=CC(=CC=C1)N=C=O", 
	 "Tm": 322.15, 
	 "num_atms": 16, 
	 "gaussian": { 
		 "optdone": 1, 
		 "sigma_profile": "yes", 
		 "theory": "DFT", 
		 "functional": "B3LYP", 
		 "basiset": "6-31G**", 
		 "properties": { 
			 "R2extent": 2855.614, 
			 "electric_dipole_moment_norm": 1.87124357046, 
			 "electric_quadrupole_moment_norm": 12.8316499851, 
			 "total_energy": -567.20988277, 
			 "HOMO_LUMO_gap": 0.2015, 
			 "cosmo_polarized_energy": -6.41, 
			 "cosmo_cavitation_energy": 23.87, 
			 "cosmo_dispersion_energy": -16.77, 
			 "cosmo_repulsion_energy": 1.34, 
			 "cosmo_total_nonelectrostatic_energy": 8.44, 
			 "SMD_solvation_energy": 8.82 
		},
		"coords": [
			{
				"x": -2.6168072688,
				"y": 2.7896356556,
				"z": -3.5587407208,
				"element": "O" 
			},
			{
				"x": -1.8438917176,
				"y": 2.2151401684,
				"z": -2.8809150217,
				"element": "C" 
			},
			{
				"x": -0.9458936716,
				"y": 1.6993635507,
				"z": -2.2542790502,
				"element": "N" 
			},
			{
				"x": -0.7583759617,
				"y": 0.7575328271,
				"z": -1.239935655,
				"element": "C" 
			},
			{
				"x": 0.5527661753,
				"y": 0.4879002964,
				"z": -0.8371823251,
				"element": "C" 
			},
			{
				"x": 0.7884632452,
				"y": -0.4473563671,
				"z": 0.1746118582,
				"element": "C" 
			},
			{
				"x": -0.2838134644,
				"y": -1.114671231,
				"z": 0.7857640369,
				"element": "C" 
			},
			{
				"x": -1.585004744,
				"y": -0.8351700125,
				"z": 0.3734939968,
				"element": "C" 
			},
			{
				"x": -1.8359217144,
				"y": 0.0943595369,
				"z": -0.6336039606,
				"element": "C" 
			},
			{
				"x": 2.1144176174,
				"y": -0.6845111383,
				"z": 0.5442944912,
				"element": "N" 
			},
			{
				"x": 2.7495622824,
				"y": -1.3630995441,
				"z": 1.3196628131,
				"element": "C" 
			},
			{
				"x": 3.4831720486,
				"y": -1.962146243,
				"z": 2.0195497081,
				"element": "O" 
			},
			{
				"x": 1.3825713368,
				"y": 1.0015294599,
				"z": -1.3071482953,
				"element": "H" 
			},
			{
				"x": -0.0937669795,
				"y": -1.8395871486,
				"z": 1.570723579,
				"element": "H" 
			},
			{
				"x": -2.4167975224,
				"y": -1.3499721425,
				"z": 0.8445779485,
				"element": "H" 
			},
			{
				"x": -2.8513796612,
				"y": 0.3084523323,
				"z": -0.9510734032,
				"element": "H" 
			}
		],
		 "valence_orbital": [ 
			{
				"type": "occ",
				"energy": -0.31928,
				"method": "rhf"
			},
			{
				"type": "occ",
				"energy": -0.31706,
				"method": "rhf"
			},
			{
				"type": "occ",
				"energy": -0.31662,
				"method": "rhf"
			},
			{
				"type": "occ",
				"energy": -0.25797,
				"method": "rhf"
			},
			{
				"type": "occ",
				"energy": -0.24304,
				"method": "rhf"
			},
			{
				"type": "unocc",
				"energy": -0.04154,
				"method": "rhf"
			},
			{
				"type": "unocc",
				"energy": -0.02726,
				"method": "rhf"
			},
			{
				"type": "unocc",
				"energy": 0.00093,
				"method": "rhf"
			},
			{
				"type": "unocc",
				"energy": 0.00661,
				"method": "rhf"
			},
			{
				"type": "unocc",
				"energy": 0.04684,
				"method": "rhf"
			}
		],
		"cosmo_sigma_profile": { 
			"-0.025": 0.0,
			"-0.024": 0.0,
			"-0.023": 0.0,
			"-0.022": 0.0,
			"-0.021": 0.0,
			"-0.02": 0.0,
			"-0.019": 0.0,
			"-0.018": 0.0,
			"-0.017": 0.0,
			"-0.016": 0.0,
			"-0.015": 0.0,
			"-0.014": 0.0,
			"-0.013": 0.0,
			"-0.012": 0.0,
			"-0.011": 0.0,
			"-0.01": 0.0,
			"-0.009": 0.136926526401,
			"-0.008": 3.90515704753,
			"-0.007": 9.11560428059,
			"-0.006": 11.2461301113,
			"-0.005": 11.0635975317,
			"-0.004": 10.4653095152,
			"-0.003": 14.3249614997,
			"-0.002": 15.0097414365,
			"-0.001": 12.9476624101,
			"0.0": 12.9412689856,
			"0.001": 16.4541545488,
			"0.002": 21.1920396715,
			"0.003": 16.6083120674,
			"0.004": 9.43307523249,
			"0.005": 6.23138582786,
			"0.006": 5.96371704942,
			"0.007": 14.7993017661,
			"0.008": 3.33766253375,
			"0.009": 0.0,
			"0.01": 0.0,
			"0.011": 0.0,
			"0.012": 0.0,
			"0.013": 0.0,
			"0.014": 0.0,
			"0.015": 0.0,
			"0.016": 0.0,
			"0.017": 0.0,
			"0.018": 0.0,
			"0.019": 0.0,
			"0.02": 0.0,
			"0.021": 0.0,
			"0.022": 0.0,
			"0.023": 0.0,
			"0.024": 0.0,
			"0.025": 0.0
		}
	}
}
