{
	 "smiles": "N#CC1=CC2=C(C=C1)N=CC=N2", 
	 "Tm": 453.15, 
	 "num_atms": 17, 
	 "gaussian": { 
		 "optdone": 1, 
		 "sigma_profile": "yes", 
		 "theory": "DFT", 
		 "functional": "B3LYP", 
		 "basiset": "6-31G**", 
		 "properties": { 
			 "R2extent": 2178.2463, 
			 "electric_dipole_moment_norm": 4.28229935082, 
			 "electric_quadrupole_moment_norm": 13.4304295628, 
			 "total_energy": -510.201314714, 
			 "HOMO_LUMO_gap": 0.1701, 
			 "cosmo_polarized_energy": -10.77, 
			 "cosmo_cavitation_energy": 23.05, 
			 "cosmo_dispersion_energy": -16.72, 
			 "cosmo_repulsion_energy": 1.3, 
			 "cosmo_total_nonelectrostatic_energy": 7.63, 
			 "SMD_solvation_energy": 2.37 
		},
		"coords": [
			{
				"x": 0.7074768489,
				"y": -0.7367904033,
				"z": 4.7574885114,
				"element": "N" 
			},
			{
				"x": 0.5149218737,
				"y": -0.3357399793,
				"z": 3.6828669428,
				"element": "C" 
			},
			{
				"x": 0.2722941548,
				"y": 0.172431407,
				"z": 2.3631511294,
				"element": "C" 
			},
			{
				"x": 0.541517731,
				"y": -0.6146779883,
				"z": 1.2554546595,
				"element": "C" 
			},
			{
				"x": 0.2991033732,
				"y": -0.1052029418,
				"z": -0.0427916795,
				"element": "C" 
			},
			{
				"x": -0.2214167624,
				"y": 1.2171738217,
				"z": -0.1968626007,
				"element": "C" 
			},
			{
				"x": -0.4879818937,
				"y": 2.0014593237,
				"z": 0.9562637579,
				"element": "C" 
			},
			{
				"x": -0.2476976198,
				"y": 1.4936154584,
				"z": 2.2091254443,
				"element": "C" 
			},
			{
				"x": -0.4662699671,
				"y": 1.7380562238,
				"z": -1.4335847816,
				"element": "N" 
			},
			{
				"x": -0.19639979,
				"y": 0.9566889446,
				"z": -2.4574320399,
				"element": "C" 
			},
			{
				"x": 0.3221206298,
				"y": -0.3603751017,
				"z": -2.3035525808,
				"element": "C" 
			},
			{
				"x": 0.5688415875,
				"y": -0.8912972802,
				"z": -1.1258972509,
				"element": "N" 
			},
			{
				"x": 0.936421086,
				"y": -1.6196912343,
				"z": 1.3530990108,
				"element": "H" 
			},
			{
				"x": -0.8825738563,
				"y": 3.001581757,
				"z": 0.8116909306,
				"element": "H" 
			},
			{
				"x": -0.4480642762,
				"y": 2.0848557484,
				"z": 3.0960592292,
				"element": "H" 
			},
			{
				"x": -0.3846280726,
				"y": 1.3531230823,
				"z": -3.4539380593,
				"element": "H" 
			},
			{
				"x": 0.5296349533,
				"y": -0.9690108381,
				"z": -3.1821406233,
				"element": "H" 
			}
		],
		 "valence_orbital": [ 
			{
				"type": "occ",
				"energy": -0.33905,
				"method": "rhf"
			},
			{
				"type": "occ",
				"energy": -0.32757,
				"method": "rhf"
			},
			{
				"type": "occ",
				"energy": -0.2793,
				"method": "rhf"
			},
			{
				"type": "occ",
				"energy": -0.26815,
				"method": "rhf"
			},
			{
				"type": "occ",
				"energy": -0.26663,
				"method": "rhf"
			},
			{
				"type": "unocc",
				"energy": -0.09653,
				"method": "rhf"
			},
			{
				"type": "unocc",
				"energy": -0.05935,
				"method": "rhf"
			},
			{
				"type": "unocc",
				"energy": -0.01877,
				"method": "rhf"
			},
			{
				"type": "unocc",
				"energy": 0.02904,
				"method": "rhf"
			},
			{
				"type": "unocc",
				"energy": 0.03034,
				"method": "rhf"
			}
		],
		"cosmo_sigma_profile": { 
			"-0.025": 0.0,
			"-0.024": 0.0,
			"-0.023": 0.0,
			"-0.022": 0.0,
			"-0.021": 0.0,
			"-0.02": 0.0,
			"-0.019": 0.0,
			"-0.018": 0.0,
			"-0.017": 0.0,
			"-0.016": 0.0,
			"-0.015": 0.0,
			"-0.014": 0.0,
			"-0.013": 0.0,
			"-0.012": 0.0,
			"-0.011": 0.0,
			"-0.01": 0.0,
			"-0.009": 2.55633456878,
			"-0.008": 11.0241347568,
			"-0.007": 9.99605510485,
			"-0.006": 9.52771474305,
			"-0.005": 7.88807310421,
			"-0.004": 10.8525989847,
			"-0.003": 13.1591967749,
			"-0.002": 19.2568064237,
			"-0.001": 18.4529409278,
			"0.0": 16.1104372608,
			"0.001": 11.5306412114,
			"0.002": 7.47475561665,
			"0.003": 5.13093954111,
			"0.004": 4.3631280827,
			"0.005": 4.99093109476,
			"0.006": 4.91230113996,
			"0.007": 5.1463530551,
			"0.008": 4.98085723728,
			"0.009": 5.33132348978,
			"0.01": 4.35621237725,
			"0.011": 3.98070993072,
			"0.012": 4.22803433688,
			"0.013": 1.97352703301,
			"0.014": 0.973960735773,
			"0.015": 0.00295837600201,
			"0.016": 0.0,
			"0.017": 0.0,
			"0.018": 0.0,
			"0.019": 0.0,
			"0.02": 0.0,
			"0.021": 0.0,
			"0.022": 0.0,
			"0.023": 0.0,
			"0.024": 0.0,
			"0.025": 0.0
		}
	}
}
