{
	 "smiles": "CC(=O)C1=C(C)NC=C1C", 
	 "Tm": 411.15, 
	 "num_atms": 21, 
	 "gaussian": { 
		 "optdone": 1, 
		 "sigma_profile": "yes", 
		 "theory": "DFT", 
		 "functional": "B3LYP", 
		 "basiset": "6-31G**", 
		 "properties": { 
			 "R2extent": 1845.0557, 
			 "electric_dipole_moment_norm": 5.21604289572, 
			 "electric_quadrupole_moment_norm": 8.17356283575, 
			 "total_energy": -441.463616537, 
			 "HOMO_LUMO_gap": 0.19345, 
			 "cosmo_polarized_energy": -13.86, 
			 "cosmo_cavitation_energy": 23.78, 
			 "cosmo_dispersion_energy": -17.45, 
			 "cosmo_repulsion_energy": 1.41, 
			 "cosmo_total_nonelectrostatic_energy": 7.73, 
			 "SMD_solvation_energy": 4.96 
		},
		"coords": [
			{
				"x": 0.1264455518,
				"y": 2.3653141631,
				"z": -2.3160006052,
				"element": "C" 
			},
			{
				"x": 0.853838681,
				"y": 1.846787791,
				"z": -1.0805082245,
				"element": "C" 
			},
			{
				"x": 2.0702687647,
				"y": 1.9960817248,
				"z": -0.9981732855,
				"element": "O" 
			},
			{
				"x": 0.0954025998,
				"y": 1.1805761063,
				"z": -0.0122958577,
				"element": "C" 
			},
			{
				"x": -1.2821530203,
				"y": 0.9280906774,
				"z": 0.0571338995,
				"element": "C" 
			},
			{
				"x": -2.43638655,
				"y": 1.2135047943,
				"z": -0.8562505425,
				"element": "C" 
			},
			{
				"x": -1.5056456747,
				"y": 0.2870253937,
				"z": 1.2412329387,
				"element": "N" 
			},
			{
				"x": -0.3243550917,
				"y": 0.116291326,
				"z": 1.9385677681,
				"element": "C" 
			},
			{
				"x": 0.6945051226,
				"y": 0.6563750384,
				"z": 1.1965539439,
				"element": "C" 
			},
			{
				"x": 2.1410981682,
				"y": 0.6829389996,
				"z": 1.5900357824,
				"element": "C" 
			},
			{
				"x": 0.8635202602,
				"y": 2.8211134766,
				"z": -2.9783367879,
				"element": "H" 
			},
			{
				"x": -0.6301533462,
				"y": 3.1118097074,
				"z": -2.0511181576,
				"element": "H" 
			},
			{
				"x": -0.3846549137,
				"y": 1.5560421798,
				"z": -2.8486624254,
				"element": "H" 
			},
			{
				"x": -3.3685574129,
				"y": 0.8426930833,
				"z": -0.4177231247,
				"element": "H" 
			},
			{
				"x": -2.3216101696,
				"y": 0.731246495,
				"z": -1.8324672936,
				"element": "H" 
			},
			{
				"x": -2.5660442981,
				"y": 2.2853734683,
				"z": -1.0379867296,
				"element": "H" 
			},
			{
				"x": -2.4135766235,
				"y": -0.017336993,
				"z": 1.5564705099,
				"element": "H" 
			},
			{
				"x": -0.3089600296,
				"y": -0.3737442724,
				"z": 2.9010472665,
				"element": "H" 
			},
			{
				"x": 2.2803457148,
				"y": 0.2059718971,
				"z": 2.5659025394,
				"element": "H" 
			},
			{
				"x": 2.5231037983,
				"y": 1.7065360969,
				"z": 1.6425085591,
				"element": "H" 
			},
			{
				"x": 2.7655684687,
				"y": 0.1666088464,
				"z": 0.8552698268,
				"element": "H" 
			}
		],
		 "valence_orbital": [ 
			{
				"type": "occ",
				"energy": -0.33894,
				"method": "rhf"
			},
			{
				"type": "occ",
				"energy": -0.33809,
				"method": "rhf"
			},
			{
				"type": "occ",
				"energy": -0.23527,
				"method": "rhf"
			},
			{
				"type": "occ",
				"energy": -0.22506,
				"method": "rhf"
			},
			{
				"type": "occ",
				"energy": -0.20831,
				"method": "rhf"
			},
			{
				"type": "unocc",
				"energy": -0.01486,
				"method": "rhf"
			},
			{
				"type": "unocc",
				"energy": 0.04806,
				"method": "rhf"
			},
			{
				"type": "unocc",
				"energy": 0.0663,
				"method": "rhf"
			},
			{
				"type": "unocc",
				"energy": 0.08924,
				"method": "rhf"
			},
			{
				"type": "unocc",
				"energy": 0.09328,
				"method": "rhf"
			}
		],
		"cosmo_sigma_profile": { 
			"-0.025": 0.0,
			"-0.024": 0.0,
			"-0.023": 0.0,
			"-0.022": 0.0,
			"-0.021": 0.0,
			"-0.02": 0.0,
			"-0.019": 0.0,
			"-0.018": 0.0,
			"-0.017": 0.0,
			"-0.016": 0.640786683509,
			"-0.015": 1.28819601378,
			"-0.014": 1.1643683185,
			"-0.013": 1.66663786881,
			"-0.012": 1.03029900514,
			"-0.011": 1.51005816405,
			"-0.01": 1.41069380504,
			"-0.009": 1.2393143738,
			"-0.008": 1.63398908614,
			"-0.007": 3.53785868578,
			"-0.006": 7.19448281317,
			"-0.005": 10.0279491946,
			"-0.004": 11.5343887498,
			"-0.003": 15.8998436006,
			"-0.002": 16.9030255078,
			"-0.001": 18.8578617684,
			"0.0": 17.1375059284,
			"0.001": 12.8761692958,
			"0.002": 9.2138502603,
			"0.003": 7.16936381313,
			"0.004": 6.68916825699,
			"0.005": 9.67183601773,
			"0.006": 6.97542896782,
			"0.007": 5.09305099165,
			"0.008": 2.40753110577,
			"0.009": 1.71643058089,
			"0.01": 1.86682756958,
			"0.011": 1.48655512961,
			"0.012": 2.3294723411,
			"0.013": 2.74757245306,
			"0.014": 2.96095689633,
			"0.015": 1.17576481349,
			"0.016": 0.00352106736699,
			"0.017": 0.0,
			"0.018": 0.0,
			"0.019": 0.0,
			"0.02": 0.0,
			"0.021": 0.0,
			"0.022": 0.0,
			"0.023": 0.0,
			"0.024": 0.0,
			"0.025": 0.0
		}
	}
}
