{
	 "smiles": "CC1=NN(C(=O)C2=CC=NC=C2)C2=C1N=NC1=CC=C(Cl)C=C21", 
	 "Tm": 435.15, 
	 "num_atms": 33, 
	 "gaussian": { 
		 "optdone": 1, 
		 "sigma_profile": "yes", 
		 "theory": "DFT", 
		 "functional": "B3LYP", 
		 "basiset": "6-31G**", 
		 "properties": { 
			 "R2extent": 9746.9999, 
			 "electric_dipole_moment_norm": 0.667599310964, 
			 "electric_quadrupole_moment_norm": 13.763262716, 
			 "total_energy": -1424.85930389, 
			 "HOMO_LUMO_gap": 0.15341, 
			 "cosmo_polarized_energy": -13.57, 
			 "cosmo_cavitation_energy": 40.27, 
			 "cosmo_dispersion_energy": -29.27, 
			 "cosmo_repulsion_energy": 2.18, 
			 "cosmo_total_nonelectrostatic_energy": 13.18, 
			 "SMD_solvation_energy": 2.99 
		},
		"coords": [
			{
				"x": 1.6203890837,
				"y": 2.9274765399,
				"z": -3.0384710378,
				"element": "C" 
			},
			{
				"x": 0.6617134152,
				"y": 2.1720989526,
				"z": -2.1801948947,
				"element": "C" 
			},
			{
				"x": 0.5851881925,
				"y": 0.8650869347,
				"z": -2.1956268545,
				"element": "N" 
			},
			{
				"x": -0.404891026,
				"y": 0.4991507456,
				"z": -1.2871453383,
				"element": "N" 
			},
			{
				"x": -0.800404838,
				"y": -0.8552037421,
				"z": -1.2243239251,
				"element": "C" 
			},
			{
				"x": -1.8697816352,
				"y": -1.1613900234,
				"z": -0.7281916528,
				"element": "O" 
			},
			{
				"x": 0.1218079761,
				"y": -1.9015614319,
				"z": -1.7728635125,
				"element": "C" 
			},
			{
				"x": 1.5197789033,
				"y": -1.8388760927,
				"z": -1.7485182659,
				"element": "C" 
			},
			{
				"x": 2.2400719147,
				"y": -2.9477521384,
				"z": -2.194066417,
				"element": "C" 
			},
			{
				"x": 1.6774016118,
				"y": -4.0685591225,
				"z": -2.6614830093,
				"element": "N" 
			},
			{
				"x": 0.3391721532,
				"y": -4.1184151483,
				"z": -2.6778179503,
				"element": "C" 
			},
			{
				"x": -0.4773320454,
				"y": -3.0796523398,
				"z": -2.2357561885,
				"element": "C" 
			},
			{
				"x": -0.9745774287,
				"y": 1.623517537,
				"z": -0.6913180398,
				"element": "C" 
			},
			{
				"x": -0.2906682572,
				"y": 2.7116604027,
				"z": -1.2482045219,
				"element": "C" 
			},
			{
				"x": -0.4860326197,
				"y": 4.0201178138,
				"z": -0.9477766085,
				"element": "N" 
			},
			{
				"x": -1.3783155235,
				"y": 4.3091160203,
				"z": -0.0528433646,
				"element": "N" 
			},
			{
				"x": -2.0925602622,
				"y": 3.3056664788,
				"z": 0.5674566452,
				"element": "C" 
			},
			{
				"x": -3.0201208161,
				"y": 3.7461350853,
				"z": 1.5439891095,
				"element": "C" 
			},
			{
				"x": -3.7832016994,
				"y": 2.8480221724,
				"z": 2.2508661752,
				"element": "C" 
			},
			{
				"x": -3.6346739556,
				"y": 1.4681176515,
				"z": 1.9849109226,
				"element": "C" 
			},
			{
				"x": -4.6189134046,
				"y": 0.33687237,
				"z": 2.8920892801,
				"element": "Cl" 
			},
			{
				"x": -2.7541558839,
				"y": 0.9857675082,
				"z": 1.0398554117,
				"element": "C" 
			},
			{
				"x": -1.9564416234,
				"y": 1.8981247383,
				"z": 0.3065633816,
				"element": "C" 
			},
			{
				"x": 2.2114098386,
				"y": 2.2371763641,
				"z": -3.6427137999,
				"element": "H" 
			},
			{
				"x": 1.0832409508,
				"y": 3.6155903813,
				"z": -3.6986966017,
				"element": "H" 
			},
			{
				"x": 2.2908219937,
				"y": 3.5348521765,
				"z": -2.4221888041,
				"element": "H" 
			},
			{
				"x": 2.0377024694,
				"y": -0.9566362998,
				"z": -1.397483882,
				"element": "H" 
			},
			{
				"x": 3.3279940488,
				"y": -2.928429005,
				"z": -2.1766606939,
				"element": "H" 
			},
			{
				"x": -0.1033472929,
				"y": -5.0370927271,
				"z": -3.0575878669,
				"element": "H" 
			},
			{
				"x": -1.5572950479,
				"y": -3.1734021692,
				"z": -2.2422592883,
				"element": "H" 
			},
			{
				"x": -3.0962876873,
				"y": 4.8152073162,
				"z": 1.7097148286,
				"element": "H" 
			},
			{
				"x": -4.492908718,
				"y": 3.1787056435,
				"z": 3.0006066632,
				"element": "H" 
			},
			{
				"x": -2.6819827869,
				"y": -0.0725925926,
				"z": 0.8403401009,
				"element": "H" 
			}
		],
		 "valence_orbital": [ 
			{
				"type": "occ",
				"energy": -0.27497,
				"method": "rhf"
			},
			{
				"type": "occ",
				"energy": -0.26755,
				"method": "rhf"
			},
			{
				"type": "occ",
				"energy": -0.26553,
				"method": "rhf"
			},
			{
				"type": "occ",
				"energy": -0.25256,
				"method": "rhf"
			},
			{
				"type": "occ",
				"energy": -0.24669,
				"method": "rhf"
			},
			{
				"type": "unocc",
				"energy": -0.09328,
				"method": "rhf"
			},
			{
				"type": "unocc",
				"energy": -0.07641,
				"method": "rhf"
			},
			{
				"type": "unocc",
				"energy": -0.05817,
				"method": "rhf"
			},
			{
				"type": "unocc",
				"energy": -0.02329,
				"method": "rhf"
			},
			{
				"type": "unocc",
				"energy": -0.00687,
				"method": "rhf"
			}
		],
		"cosmo_sigma_profile": { 
			"-0.025": 0.0,
			"-0.024": 0.0,
			"-0.023": 0.0,
			"-0.022": 0.0,
			"-0.021": 0.0,
			"-0.02": 0.0,
			"-0.019": 0.0,
			"-0.018": 0.0,
			"-0.017": 0.0,
			"-0.016": 0.0,
			"-0.015": 0.0,
			"-0.014": 0.0,
			"-0.013": 0.0,
			"-0.012": 0.0,
			"-0.011": 0.0,
			"-0.01": 0.0,
			"-0.009": 0.253910246204,
			"-0.008": 3.60212517188,
			"-0.007": 11.9629356882,
			"-0.006": 17.3393571718,
			"-0.005": 21.1768127677,
			"-0.004": 24.4633034746,
			"-0.003": 25.9969156662,
			"-0.002": 30.345642491,
			"-0.001": 31.5992716196,
			"0.0": 34.2081157585,
			"0.001": 32.3964943549,
			"0.002": 16.4821557279,
			"0.003": 16.5592423422,
			"0.004": 16.7829325156,
			"0.005": 4.49716835228,
			"0.006": 5.86000075377,
			"0.007": 6.34791939507,
			"0.008": 5.85757302452,
			"0.009": 4.99315973923,
			"0.01": 4.14815889999,
			"0.011": 3.07899404061,
			"0.012": 3.96070853921,
			"0.013": 2.56306817423,
			"0.014": 2.91398287528,
			"0.015": 0.779738190911,
			"0.016": 0.472579405425,
			"0.017": 0.0,
			"0.018": 0.0,
			"0.019": 0.0,
			"0.02": 0.0,
			"0.021": 0.0,
			"0.022": 0.0,
			"0.023": 0.0,
			"0.024": 0.0,
			"0.025": 0.0
		}
	}
}
