{
	 "smiles": "CN1C(C)=C(C=O)C=C1C#N", 
	 "Tm": 364.15, 
	 "num_atms": 19, 
	 "gaussian": { 
		 "optdone": 1, 
		 "sigma_profile": "yes", 
		 "theory": "DFT", 
		 "functional": "B3LYP", 
		 "basiset": "6-31G**", 
		 "properties": { 
			 "R2extent": 2668.3962, 
			 "electric_dipole_moment_norm": 2.80459823861, 
			 "electric_quadrupole_moment_norm": 24.8465081567, 
			 "total_energy": -494.376132031, 
			 "HOMO_LUMO_gap": 0.1899, 
			 "cosmo_polarized_energy": -13.31, 
			 "cosmo_cavitation_energy": 24.18, 
			 "cosmo_dispersion_energy": -16.85, 
			 "cosmo_repulsion_energy": 1.34, 
			 "cosmo_total_nonelectrostatic_energy": 8.68, 
			 "SMD_solvation_energy": 6.69 
		},
		"coords": [
			{
				"x": -1.8301832987,
				"y": 1.9721311367,
				"z": -0.0662279938,
				"element": "C" 
			},
			{
				"x": -0.5920686021,
				"y": 1.6003391867,
				"z": 0.6077424255,
				"element": "N" 
			},
			{
				"x": -0.4763511825,
				"y": 0.6548507503,
				"z": 1.5802972501,
				"element": "C" 
			},
			{
				"x": -1.6449419538,
				"y": -0.1278345022,
				"z": 2.0806329217,
				"element": "C" 
			},
			{
				"x": 0.8739945797,
				"y": 0.5960132692,
				"z": 1.9641217848,
				"element": "C" 
			},
			{
				"x": 1.4706451157,
				"y": -0.2715373776,
				"z": 2.975253449,
				"element": "C" 
			},
			{
				"x": 0.8764310323,
				"y": -1.0948344531,
				"z": 3.6555419794,
				"element": "O" 
			},
			{
				"x": 1.5823858575,
				"y": 1.5473679162,
				"z": 1.1834989887,
				"element": "C" 
			},
			{
				"x": 0.6657136227,
				"y": 2.1588862416,
				"z": 0.3515033061,
				"element": "C" 
			},
			{
				"x": 0.8496628779,
				"y": 3.1727808175,
				"z": -0.6169781816,
				"element": "C" 
			},
			{
				"x": 0.9889789528,
				"y": 4.0078413308,
				"z": -1.4183760214,
				"element": "N" 
			},
			{
				"x": -2.2508476701,
				"y": 1.1135778238,
				"z": -0.5972637906,
				"element": "H" 
			},
			{
				"x": -2.5643741346,
				"y": 2.3386086865,
				"z": 0.6565396925,
				"element": "H" 
			},
			{
				"x": -1.6171866827,
				"y": 2.7627797174,
				"z": -0.7855266232,
				"element": "H" 
			},
			{
				"x": -2.4140176105,
				"y": 0.5266503747,
				"z": 2.5089815584,
				"element": "H" 
			},
			{
				"x": -2.1170755976,
				"y": -0.7048308493,
				"z": 1.2760100336,
				"element": "H" 
			},
			{
				"x": -1.2997952395,
				"y": -0.8161293164,
				"z": 2.8514236001,
				"element": "H" 
			},
			{
				"x": 2.5671660658,
				"y": -0.1299991219,
				"z": 3.0974614193,
				"element": "H" 
			},
			{
				"x": 2.6405638677,
				"y": 1.7643383691,
				"z": 1.2218642014,
				"element": "H" 
			}
		],
		 "valence_orbital": [ 
			{
				"type": "occ",
				"energy": -0.3502,
				"method": "rhf"
			},
			{
				"type": "occ",
				"energy": -0.34285,
				"method": "rhf"
			},
			{
				"type": "occ",
				"energy": -0.27385,
				"method": "rhf"
			},
			{
				"type": "occ",
				"energy": -0.25521,
				"method": "rhf"
			},
			{
				"type": "occ",
				"energy": -0.2386,
				"method": "rhf"
			},
			{
				"type": "unocc",
				"energy": -0.0487,
				"method": "rhf"
			},
			{
				"type": "unocc",
				"energy": -0.03387,
				"method": "rhf"
			},
			{
				"type": "unocc",
				"energy": 0.01015,
				"method": "rhf"
			},
			{
				"type": "unocc",
				"energy": 0.0706,
				"method": "rhf"
			},
			{
				"type": "unocc",
				"energy": 0.09068,
				"method": "rhf"
			}
		],
		"cosmo_sigma_profile": { 
			"-0.025": 0.0,
			"-0.024": 0.0,
			"-0.023": 0.0,
			"-0.022": 0.0,
			"-0.021": 0.0,
			"-0.02": 0.0,
			"-0.019": 0.0,
			"-0.018": 0.0,
			"-0.017": 0.0,
			"-0.016": 0.0,
			"-0.015": 0.0,
			"-0.014": 0.0,
			"-0.013": 0.0,
			"-0.012": 0.0,
			"-0.011": 0.0,
			"-0.01": 0.0,
			"-0.009": 0.583562943738,
			"-0.008": 2.78008949319,
			"-0.007": 11.2003957776,
			"-0.006": 17.5034160527,
			"-0.005": 16.3332681736,
			"-0.004": 20.2004722701,
			"-0.003": 12.9925160796,
			"-0.002": 11.3474803912,
			"-0.001": 15.0263027022,
			"0.0": 13.5485967582,
			"0.001": 11.0610739144,
			"0.002": 8.43764627008,
			"0.003": 7.07848371538,
			"0.004": 4.49378805034,
			"0.005": 4.25611775246,
			"0.006": 3.36881120815,
			"0.007": 4.12692510522,
			"0.008": 4.94400202485,
			"0.009": 5.42010012069,
			"0.01": 5.08504685433,
			"0.011": 5.75210832611,
			"0.012": 5.2100926193,
			"0.013": 3.15513209917,
			"0.014": 0.345947031494,
			"0.015": 0.0,
			"0.016": 0.0,
			"0.017": 0.0,
			"0.018": 0.0,
			"0.019": 0.0,
			"0.02": 0.0,
			"0.021": 0.0,
			"0.022": 0.0,
			"0.023": 0.0,
			"0.024": 0.0,
			"0.025": 0.0
		}
	}
}
