{
	 "smiles": "NNC(=O)C1=CC2=CC=CC=C2S1", 
	 "Tm": 458.65, 
	 "num_atms": 21, 
	 "gaussian": { 
		 "optdone": 1, 
		 "sigma_profile": "yes", 
		 "theory": "DFT", 
		 "functional": "B3LYP", 
		 "basiset": "6-31G**", 
		 "properties": { 
			 "R2extent": 4913.5789, 
			 "electric_dipole_moment_norm": 3.20762159395, 
			 "electric_quadrupole_moment_norm": 14.0493467375, 
			 "total_energy": -930.67106203, 
			 "HOMO_LUMO_gap": 0.1706, 
			 "cosmo_polarized_energy": -13.12, 
			 "cosmo_cavitation_energy": 26.62, 
			 "cosmo_dispersion_energy": -20.48, 
			 "cosmo_repulsion_energy": 1.56, 
			 "cosmo_total_nonelectrostatic_energy": 7.7, 
			 "SMD_solvation_energy": 5.28 
		},
		"coords": [
			{
				"x": 3.4573011101,
				"y": 3.8638915043,
				"z": -2.6688396895,
				"element": "N" 
			},
			{
				"x": 3.9355967637,
				"y": 2.5669567588,
				"z": -2.8728575869,
				"element": "N" 
			},
			{
				"x": 3.5900341183,
				"y": 1.3856252589,
				"z": -2.261022524,
				"element": "C" 
			},
			{
				"x": 4.1464701843,
				"y": 0.3442637673,
				"z": -2.5988221631,
				"element": "O" 
			},
			{
				"x": 2.5479538708,
				"y": 1.3600700904,
				"z": -1.1940006162,
				"element": "C" 
			},
			{
				"x": 2.2020420127,
				"y": 0.1886104789,
				"z": -0.5831365893,
				"element": "C" 
			},
			{
				"x": 1.1876566267,
				"y": 0.3284566242,
				"z": 0.4186974806,
				"element": "C" 
			},
			{
				"x": 0.6011100999,
				"y": -0.6600949326,
				"z": 1.2342561381,
				"element": "C" 
			},
			{
				"x": -0.3758121334,
				"y": -0.2984566008,
				"z": 2.1490681995,
				"element": "C" 
			},
			{
				"x": -0.7869262821,
				"y": 1.0433343604,
				"z": 2.2712492976,
				"element": "C" 
			},
			{
				"x": -0.2257421354,
				"y": 2.0390435532,
				"z": 1.4798916746,
				"element": "C" 
			},
			{
				"x": 0.7601251213,
				"y": 1.6725931012,
				"z": 0.5570491612,
				"element": "C" 
			},
			{
				"x": 1.6200929668,
				"y": 2.7265667845,
				"z": -0.5512041485,
				"element": "S" 
			},
			{
				"x": 2.4645476815,
				"y": 3.9317884936,
				"z": -2.8736145697,
				"element": "H" 
			},
			{
				"x": 3.6371315103,
				"y": 4.1830117715,
				"z": -1.7212530596,
				"element": "H" 
			},
			{
				"x": 4.6519237695,
				"y": 2.4702132576,
				"z": -3.5804881954,
				"element": "H" 
			},
			{
				"x": 2.6761145814,
				"y": -0.7451994218,
				"z": -0.8596802627,
				"element": "H" 
			},
			{
				"x": 0.9181079151,
				"y": -1.6946791145,
				"z": 1.1400222649,
				"element": "H" 
			},
			{
				"x": -0.8312637863,
				"y": -1.0556444532,
				"z": 2.7800615663,
				"element": "H" 
			},
			{
				"x": -1.5537947486,
				"y": 1.305109533,
				"z": 2.9942229048,
				"element": "H" 
			},
			{
				"x": -0.5451692468,
				"y": 3.072039185,
				"z": 1.5769007172,
				"element": "H" 
			}
		],
		 "valence_orbital": [ 
			{
				"type": "occ",
				"energy": -0.28942,
				"method": "rhf"
			},
			{
				"type": "occ",
				"energy": -0.26027,
				"method": "rhf"
			},
			{
				"type": "occ",
				"energy": -0.25301,
				"method": "rhf"
			},
			{
				"type": "occ",
				"energy": -0.24532,
				"method": "rhf"
			},
			{
				"type": "occ",
				"energy": -0.22715,
				"method": "rhf"
			},
			{
				"type": "unocc",
				"energy": -0.05655,
				"method": "rhf"
			},
			{
				"type": "unocc",
				"energy": -0.01162,
				"method": "rhf"
			},
			{
				"type": "unocc",
				"energy": 0.01321,
				"method": "rhf"
			},
			{
				"type": "unocc",
				"energy": 0.01987,
				"method": "rhf"
			},
			{
				"type": "unocc",
				"energy": 0.0683,
				"method": "rhf"
			}
		],
		"cosmo_sigma_profile": { 
			"-0.025": 0.0,
			"-0.024": 0.0,
			"-0.023": 0.0,
			"-0.022": 0.0,
			"-0.021": 0.0,
			"-0.02": 0.0,
			"-0.019": 0.0,
			"-0.018": 0.0,
			"-0.017": 0.0,
			"-0.016": 0.0,
			"-0.015": 0.0,
			"-0.014": 0.330443584618,
			"-0.013": 1.10310219829,
			"-0.012": 1.25840128416,
			"-0.011": 3.21289843045,
			"-0.01": 4.19397354421,
			"-0.009": 3.84246933479,
			"-0.008": 3.58270775892,
			"-0.007": 7.5363097391,
			"-0.006": 13.1988606797,
			"-0.005": 14.1213097225,
			"-0.004": 12.1191081686,
			"-0.003": 10.4027899518,
			"-0.002": 11.8462844065,
			"-0.001": 10.3983728134,
			"0.0": 11.2341046649,
			"0.001": 17.0825799308,
			"0.002": 20.6432979246,
			"0.003": 20.3491484401,
			"0.004": 15.2839232149,
			"0.005": 8.57951557792,
			"0.006": 2.15204194224,
			"0.007": 1.82436092384,
			"0.008": 2.06121061181,
			"0.009": 2.37415094256,
			"0.01": 1.9449922133,
			"0.011": 1.7211719738,
			"0.012": 3.08316376478,
			"0.013": 5.63780938529,
			"0.014": 3.55007779044,
			"0.015": 0.185616003638,
			"0.016": 0.0,
			"0.017": 0.0,
			"0.018": 0.0,
			"0.019": 0.0,
			"0.02": 0.0,
			"0.021": 0.0,
			"0.022": 0.0,
			"0.023": 0.0,
			"0.024": 0.0,
			"0.025": 0.0
		}
	}
}
