{
	 "smiles": "CCOC(=O)C(CC)C(=O)OCC", 
	 "Tm": 273.15, 
	 "num_atms": 29, 
	 "gaussian": { 
		 "optdone": 1, 
		 "sigma_profile": "yes", 
		 "theory": "DFT", 
		 "functional": "B3LYP", 
		 "basiset": "6-31G**", 
		 "properties": { 
			 "R2extent": 2885.7683, 
			 "electric_dipole_moment_norm": 1.79445156246, 
			 "electric_quadrupole_moment_norm": 13.4510380949, 
			 "total_energy": -653.53373365, 
			 "HOMO_LUMO_gap": 0.26505, 
			 "cosmo_polarized_energy": -10.2, 
			 "cosmo_cavitation_energy": 32.59, 
			 "cosmo_dispersion_energy": -21.5, 
			 "cosmo_repulsion_energy": 1.78, 
			 "cosmo_total_nonelectrostatic_energy": 12.87, 
			 "SMD_solvation_energy": 7.65 
		},
		"coords": [
			{
				"x": -1.3689859805,
				"y": 2.3983083311,
				"z": 1.9543619561,
				"element": "C" 
			},
			{
				"x": -1.2394249031,
				"y": 2.0868151789,
				"z": 0.4757969659,
				"element": "C" 
			},
			{
				"x": -0.8693728662,
				"y": 0.6928733085,
				"z": 0.3554266297,
				"element": "O" 
			},
			{
				"x": -0.6980001181,
				"y": 0.2328518101,
				"z": -0.902715748,
				"element": "C" 
			},
			{
				"x": -0.8542926913,
				"y": 0.9062749075,
				"z": -1.8965505726,
				"element": "O" 
			},
			{
				"x": -0.3390028399,
				"y": -1.2507422655,
				"z": -0.8933410986,
				"element": "C" 
			},
			{
				"x": -1.5383183276,
				"y": -2.1268680498,
				"z": -0.4803603271,
				"element": "C" 
			},
			{
				"x": -2.7173628087,
				"y": -2.0357770583,
				"z": -1.4531456834,
				"element": "C" 
			},
			{
				"x": 0.8743843977,
				"y": -1.5116047586,
				"z": -0.0008055415,
				"element": "C" 
			},
			{
				"x": 0.944388873,
				"y": -2.3737295894,
				"z": 0.8468821057,
				"element": "O" 
			},
			{
				"x": 1.8800413227,
				"y": -0.6674810982,
				"z": -0.314741867,
				"element": "O" 
			},
			{
				"x": 3.1026848378,
				"y": -0.7959464897,
				"z": 0.4527420001,
				"element": "C" 
			},
			{
				"x": 3.0262494073,
				"y": -0.0012312799,
				"z": 1.7473080298,
				"element": "C" 
			},
			{
				"x": -0.4230699965,
				"y": 2.2239659404,
				"z": 2.4750855789,
				"element": "H" 
			},
			{
				"x": -2.137671242,
				"y": 1.7750155002,
				"z": 2.4201003761,
				"element": "H" 
			},
			{
				"x": -1.6482570395,
				"y": 3.4479211109,
				"z": 2.0890846393,
				"element": "H" 
			},
			{
				"x": -2.1775665139,
				"y": 2.2492444622,
				"z": -0.064138669,
				"element": "H" 
			},
			{
				"x": -0.4709709071,
				"y": 2.6964716704,
				"z": -0.0095920803,
				"element": "H" 
			},
			{
				"x": -0.0418824781,
				"y": -1.4815984136,
				"z": -1.9225875158,
				"element": "H" 
			},
			{
				"x": -1.1840589191,
				"y": -3.1593392619,
				"z": -0.4064258479,
				"element": "H" 
			},
			{
				"x": -1.8481959984,
				"y": -1.8376385805,
				"z": 0.5289254953,
				"element": "H" 
			},
			{
				"x": -3.5374780622,
				"y": -2.6805346482,
				"z": -1.1227272724,
				"element": "H" 
			},
			{
				"x": -3.10664263,
				"y": -1.0154574694,
				"z": -1.532107135,
				"element": "H" 
			},
			{
				"x": -2.4278319809,
				"y": -2.3531937584,
				"z": -2.4610164106,
				"element": "H" 
			},
			{
				"x": 3.8799190027,
				"y": -0.4101017822,
				"z": -0.2108796399,
				"element": "H" 
			},
			{
				"x": 3.2842579853,
				"y": -1.8552704861,
				"z": 0.6489371663,
				"element": "H" 
			},
			{
				"x": 2.8041369534,
				"y": 1.0506898181,
				"z": 1.5453064797,
				"element": "H" 
			},
			{
				"x": 2.2517750112,
				"y": -0.4077197853,
				"z": 2.4022387692,
				"element": "H" 
			},
			{
				"x": 3.9851485121,
				"y": -0.0556972631,
				"z": 2.2734392169,
				"element": "H" 
			}
		],
		 "valence_orbital": [ 
			{
				"type": "occ",
				"energy": -0.33981,
				"method": "rhf"
			},
			{
				"type": "occ",
				"energy": -0.30322,
				"method": "rhf"
			},
			{
				"type": "occ",
				"energy": -0.29966,
				"method": "rhf"
			},
			{
				"type": "occ",
				"energy": -0.28378,
				"method": "rhf"
			},
			{
				"type": "occ",
				"energy": -0.26274,
				"method": "rhf"
			},
			{
				"type": "unocc",
				"energy": 0.00231,
				"method": "rhf"
			},
			{
				"type": "unocc",
				"energy": 0.01482,
				"method": "rhf"
			},
			{
				"type": "unocc",
				"energy": 0.08575,
				"method": "rhf"
			},
			{
				"type": "unocc",
				"energy": 0.10158,
				"method": "rhf"
			},
			{
				"type": "unocc",
				"energy": 0.1092,
				"method": "rhf"
			}
		],
		"cosmo_sigma_profile": { 
			"-0.025": 0.0,
			"-0.024": 0.0,
			"-0.023": 0.0,
			"-0.022": 0.0,
			"-0.021": 0.0,
			"-0.02": 0.0,
			"-0.019": 0.0,
			"-0.018": 0.0,
			"-0.017": 0.0,
			"-0.016": 0.0,
			"-0.015": 0.0,
			"-0.014": 0.0,
			"-0.013": 0.0,
			"-0.012": 0.0,
			"-0.011": 0.0,
			"-0.01": 0.0,
			"-0.009": 0.0,
			"-0.008": 0.6447259317,
			"-0.007": 2.08245386582,
			"-0.006": 5.26546158,
			"-0.005": 13.5758294245,
			"-0.004": 29.017830634,
			"-0.003": 35.0501369952,
			"-0.002": 30.0182092445,
			"-0.001": 28.3946566344,
			"0.0": 27.8278093805,
			"0.001": 17.8540776285,
			"0.002": 8.70002322392,
			"0.003": 8.84758952373,
			"0.004": 7.5294196094,
			"0.005": 5.73828236269,
			"0.006": 4.47822632159,
			"0.007": 4.78267052331,
			"0.008": 3.68351128248,
			"0.009": 3.18885444343,
			"0.01": 3.73996508603,
			"0.011": 7.59006997233,
			"0.012": 5.67885195959,
			"0.013": 0.309345161355,
			"0.014": 0.0,
			"0.015": 0.0,
			"0.016": 0.0,
			"0.017": 0.0,
			"0.018": 0.0,
			"0.019": 0.0,
			"0.02": 0.0,
			"0.021": 0.0,
			"0.022": 0.0,
			"0.023": 0.0,
			"0.024": 0.0,
			"0.025": 0.0
		}
	}
}
