{
	 "smiles": "OC(=O)C1=C(C=CC(F)=C1)N1C=CN=C1", 
	 "Tm": 503.15, 
	 "num_atms": 22, 
	 "gaussian": { 
		 "optdone": 1, 
		 "sigma_profile": "yes", 
		 "theory": "DFT", 
		 "functional": "B3LYP", 
		 "basiset": "6-31G**", 
		 "properties": { 
			 "R2extent": 3323.0944, 
			 "electric_dipole_moment_norm": 2.82085664471, 
			 "electric_quadrupole_moment_norm": 13.6124250584, 
			 "total_energy": -745.06254123, 
			 "HOMO_LUMO_gap": 0.15984, 
			 "cosmo_polarized_energy": -15.57, 
			 "cosmo_cavitation_energy": 27.92, 
			 "cosmo_dispersion_energy": -19.71, 
			 "cosmo_repulsion_energy": 1.5, 
			 "cosmo_total_nonelectrostatic_energy": 9.72, 
			 "SMD_solvation_energy": 5.8 
		},
		"coords": [
			{
				"x": -1.6756877923,
				"y": 0.6364220406,
				"z": -1.4034823926,
				"element": "O" 
			},
			{
				"x": -1.5579918595,
				"y": -0.3519680084,
				"z": -0.4957612965,
				"element": "C" 
			},
			{
				"x": -2.1601878488,
				"y": -1.4023018883,
				"z": -0.5901994287,
				"element": "O" 
			},
			{
				"x": -0.6740832146,
				"y": -0.0143174446,
				"z": 0.6675768184,
				"element": "C" 
			},
			{
				"x": 0.3342429305,
				"y": 0.9726602446,
				"z": 0.6869682518,
				"element": "C" 
			},
			{
				"x": 1.0215867135,
				"y": 1.2327340619,
				"z": 1.8797902142,
				"element": "C" 
			},
			{
				"x": 0.7325742842,
				"y": 0.5310557843,
				"z": 3.0457981485,
				"element": "C" 
			},
			{
				"x": -0.238186134,
				"y": -0.4643801727,
				"z": 2.997973034,
				"element": "C" 
			},
			{
				"x": -0.5118342511,
				"y": -1.1655665936,
				"z": 4.1127565081,
				"element": "F" 
			},
			{
				"x": -0.9319319571,
				"y": -0.7495010035,
				"z": 1.8336491914,
				"element": "C" 
			},
			{
				"x": 0.7256118456,
				"y": 1.6961272164,
				"z": -0.4728055131,
				"element": "N" 
			},
			{
				"x": 0.7143914493,
				"y": 3.0744584753,
				"z": -0.6308479235,
				"element": "C" 
			},
			{
				"x": 1.2340062472,
				"y": 3.3044740268,
				"z": -1.8778282238,
				"element": "C" 
			},
			{
				"x": 1.5771642824,
				"y": 2.1180676314,
				"z": -2.4912917881,
				"element": "N" 
			},
			{
				"x": 1.2606813022,
				"y": 1.180679296,
				"z": -1.6308541021,
				"element": "C" 
			},
			{
				"x": -2.2758308315,
				"y": 0.3019919057,
				"z": -2.0913684476,
				"element": "H" 
			},
			{
				"x": 1.80574117,
				"y": 1.982322973,
				"z": 1.8734530497,
				"element": "H" 
			},
			{
				"x": 1.2598080221,
				"y": 0.7282691414,
				"z": 3.9726505509,
				"element": "H" 
			},
			{
				"x": -1.6887909464,
				"y": -1.524465216,
				"z": 1.8169974361,
				"element": "H" 
			},
			{
				"x": 0.3194970375,
				"y": 3.7257780906,
				"z": 0.1332763436,
				"element": "H" 
			},
			{
				"x": 1.3789029319,
				"y": 4.2561663504,
				"z": -2.3701295764,
				"element": "H" 
			},
			{
				"x": 1.4017166188,
				"y": 0.1165930889,
				"z": -1.7628208543,
				"element": "H" 
			}
		],
		 "valence_orbital": [ 
			{
				"type": "occ",
				"energy": -0.29361,
				"method": "rhf"
			},
			{
				"type": "occ",
				"energy": -0.28498,
				"method": "rhf"
			},
			{
				"type": "occ",
				"energy": -0.2694,
				"method": "rhf"
			},
			{
				"type": "occ",
				"energy": -0.25594,
				"method": "rhf"
			},
			{
				"type": "occ",
				"energy": -0.22872,
				"method": "rhf"
			},
			{
				"type": "unocc",
				"energy": -0.06888,
				"method": "rhf"
			},
			{
				"type": "unocc",
				"energy": -0.03264,
				"method": "rhf"
			},
			{
				"type": "unocc",
				"energy": 0.02411,
				"method": "rhf"
			},
			{
				"type": "unocc",
				"energy": 0.03429,
				"method": "rhf"
			},
			{
				"type": "unocc",
				"energy": 0.06268,
				"method": "rhf"
			}
		],
		"cosmo_sigma_profile": { 
			"-0.025": 0.0,
			"-0.024": 0.0,
			"-0.023": 0.0,
			"-0.022": 0.0,
			"-0.021": 0.0,
			"-0.02": 0.0,
			"-0.019": 0.249088368211,
			"-0.018": 1.13437098947,
			"-0.017": 0.771656041994,
			"-0.016": 0.808137651879,
			"-0.015": 0.667156308535,
			"-0.014": 0.886043737164,
			"-0.013": 0.592526445522,
			"-0.012": 0.7359123011,
			"-0.011": 1.09145520262,
			"-0.01": 0.720991277831,
			"-0.009": 3.7243565168,
			"-0.008": 8.6791170336,
			"-0.007": 11.0803375698,
			"-0.006": 11.6208376981,
			"-0.005": 9.39837903539,
			"-0.004": 10.9922730522,
			"-0.003": 13.2320029016,
			"-0.002": 13.5997216215,
			"-0.001": 18.8982433948,
			"0.0": 21.1757503721,
			"0.001": 14.513704805,
			"0.002": 9.09172121989,
			"0.003": 11.9021500913,
			"0.004": 13.4462839253,
			"0.005": 6.32510180217,
			"0.006": 6.34313646454,
			"0.007": 6.92445743539,
			"0.008": 3.98169624429,
			"0.009": 3.90690624656,
			"0.01": 3.80410497983,
			"0.011": 6.07784723709,
			"0.012": 2.38103465998,
			"0.013": 1.41631247405,
			"0.014": 0.873241274123,
			"0.015": 1.15382211144,
			"0.016": 1.45316720054,
			"0.017": 0.910305368921,
			"0.018": 0.472372415315,
			"0.019": 0.0,
			"0.02": 0.0,
			"0.021": 0.0,
			"0.022": 0.0,
			"0.023": 0.0,
			"0.024": 0.0,
			"0.025": 0.0
		}
	}
}
