{
	 "smiles": "FC(Cl)(Cl)C(Cl)(Cl)Cl", 
	 "Tm": 374.15, 
	 "num_atms": 8, 
	 "gaussian": { 
		 "optdone": 1, 
		 "sigma_profile": "yes", 
		 "theory": "DFT", 
		 "functional": "B3LYP", 
		 "basiset": "6-31G**", 
		 "properties": { 
			 "R2extent": 3236.2742, 
			 "electric_dipole_moment_norm": 0.270711913295, 
			 "electric_quadrupole_moment_norm": 1.36753267237, 
			 "total_energy": -2476.96752345, 
			 "HOMO_LUMO_gap": 0.26059, 
			 "cosmo_polarized_energy": -1.38, 
			 "cosmo_cavitation_energy": 20.92, 
			 "cosmo_dispersion_energy": -15.83, 
			 "cosmo_repulsion_energy": 1.28, 
			 "cosmo_total_nonelectrostatic_energy": 6.37, 
			 "SMD_solvation_energy": 2.43 
		},
		"coords": [
			{
				"x": -0.3139190331,
				"y": 1.7096260628,
				"z": 0.4453080192,
				"element": "F" 
			},
			{
				"x": -1.3177825804,
				"y": 1.0888520058,
				"z": -0.1968363572,
				"element": "C" 
			},
			{
				"x": -2.8480735532,
				"y": 1.9183971369,
				"z": 0.2145806621,
				"element": "Cl" 
			},
			{
				"x": -1.3803462877,
				"y": -0.6087192735,
				"z": 0.3631442595,
				"element": "Cl" 
			},
			{
				"x": -1.0106777308,
				"y": 1.1759075472,
				"z": -1.7497272849,
				"element": "C" 
			},
			{
				"x": 0.5693892194,
				"y": 0.3880816386,
				"z": -2.0639498385,
				"element": "Cl" 
			},
			{
				"x": -2.2929071863,
				"y": 0.3753595407,
				"z": -2.6964418143,
				"element": "Cl" 
			},
			{
				"x": -0.8924828479,
				"y": 2.9045953414,
				"z": -2.211977646,
				"element": "Cl" 
			}
		],
		 "valence_orbital": [ 
			{
				"type": "occ",
				"energy": -0.34957,
				"method": "rhf"
			},
			{
				"type": "occ",
				"energy": -0.33968,
				"method": "rhf"
			},
			{
				"type": "occ",
				"energy": -0.33322,
				"method": "rhf"
			},
			{
				"type": "occ",
				"energy": -0.32591,
				"method": "rhf"
			},
			{
				"type": "occ",
				"energy": -0.31788,
				"method": "rhf"
			},
			{
				"type": "unocc",
				"energy": -0.05729,
				"method": "rhf"
			},
			{
				"type": "unocc",
				"energy": -0.04671,
				"method": "rhf"
			},
			{
				"type": "unocc",
				"energy": -0.04372,
				"method": "rhf"
			},
			{
				"type": "unocc",
				"energy": -0.01247,
				"method": "rhf"
			},
			{
				"type": "unocc",
				"energy": 0.03161,
				"method": "rhf"
			}
		],
		"cosmo_sigma_profile": { 
			"-0.025": 0.0,
			"-0.024": 0.0,
			"-0.023": 0.0,
			"-0.022": 0.0,
			"-0.021": 0.0,
			"-0.02": 0.0,
			"-0.019": 0.0,
			"-0.018": 0.0,
			"-0.017": 0.0,
			"-0.016": 0.0,
			"-0.015": 0.0,
			"-0.014": 0.0,
			"-0.013": 0.0,
			"-0.012": 0.0,
			"-0.011": 0.0,
			"-0.01": 0.0,
			"-0.009": 0.0,
			"-0.008": 0.0,
			"-0.007": 0.0,
			"-0.006": 1.44464327964,
			"-0.005": 6.09855741287,
			"-0.004": 7.99427011836,
			"-0.003": 10.5358359684,
			"-0.002": 10.1985566064,
			"-0.001": 17.164030353,
			"0.0": 27.5068375253,
			"0.001": 54.1911501097,
			"0.002": 41.7723945367,
			"0.003": 1.5446758097,
			"0.004": 0.0,
			"0.005": 0.0,
			"0.006": 0.0,
			"0.007": 0.0,
			"0.008": 0.0,
			"0.009": 0.0,
			"0.01": 0.0,
			"0.011": 0.0,
			"0.012": 0.0,
			"0.013": 0.0,
			"0.014": 0.0,
			"0.015": 0.0,
			"0.016": 0.0,
			"0.017": 0.0,
			"0.018": 0.0,
			"0.019": 0.0,
			"0.02": 0.0,
			"0.021": 0.0,
			"0.022": 0.0,
			"0.023": 0.0,
			"0.024": 0.0,
			"0.025": 0.0
		}
	}
}
