{
	 "smiles": "NC(C(N)=O)C(N)=O", 
	 "Tm": 445.15, 
	 "num_atms": 15, 
	 "gaussian": { 
		 "optdone": 1, 
		 "sigma_profile": "yes", 
		 "theory": "DFT", 
		 "functional": "B3LYP", 
		 "basiset": "6-31G**", 
		 "properties": { 
			 "R2extent": 1147.0093, 
			 "electric_dipole_moment_norm": 1.82234567797, 
			 "electric_quadrupole_moment_norm": 10.1062457624, 
			 "total_energy": -433.281094196, 
			 "HOMO_LUMO_gap": 0.25306, 
			 "cosmo_polarized_energy": -14.57, 
			 "cosmo_cavitation_energy": 18.53, 
			 "cosmo_dispersion_energy": -14.35, 
			 "cosmo_repulsion_energy": 1.24, 
			 "cosmo_total_nonelectrostatic_energy": 5.42, 
			 "SMD_solvation_energy": 4.11 
		},
		"coords": [
			{
				"x": 0.6731044346,
				"y": -0.2104731099,
				"z": 0.7389921114,
				"element": "N" 
			},
			{
				"x": -0.4987569946,
				"y": -0.5275372765,
				"z": -0.0700660572,
				"element": "C" 
			},
			{
				"x": -0.4330060212,
				"y": 0.2292498349,
				"z": -1.4271792682,
				"element": "C" 
			},
			{
				"x": -1.5142607794,
				"y": 0.0608513206,
				"z": -2.2241284184,
				"element": "N" 
			},
			{
				"x": 0.5647711512,
				"y": 0.8758278259,
				"z": -1.7258756037,
				"element": "O" 
			},
			{
				"x": -1.8308099558,
				"y": -0.2305228826,
				"z": 0.6602208444,
				"element": "C" 
			},
			{
				"x": -1.6700446196,
				"y": 0.2578448542,
				"z": 1.9030444563,
				"element": "N" 
			},
			{
				"x": -2.9192738662,
				"y": -0.4513352084,
				"z": 0.1243582744,
				"element": "O" 
			},
			{
				"x": 1.2424049751,
				"y": -1.0372091145,
				"z": 0.8849517596,
				"element": "H" 
			},
			{
				"x": 1.2339975564,
				"y": 0.4485703432,
				"z": 0.1953895338,
				"element": "H" 
			},
			{
				"x": -0.5539917281,
				"y": -1.5957237662,
				"z": -0.317791251,
				"element": "H" 
			},
			{
				"x": -2.3713070692,
				"y": -0.2604174288,
				"z": -1.7788845843,
				"element": "H" 
			},
			{
				"x": -1.5618047579,
				"y": 0.6297353026,
				"z": -3.0572649372,
				"element": "H" 
			},
			{
				"x": -0.7179202787,
				"y": 0.403036212,
				"z": 2.219685923,
				"element": "H" 
			},
			{
				"x": -2.4782020466,
				"y": 0.4899030936,
				"z": 2.4581472173,
				"element": "H" 
			}
		],
		 "valence_orbital": [ 
			{
				"type": "occ",
				"energy": -0.28946,
				"method": "rhf"
			},
			{
				"type": "occ",
				"energy": -0.27592,
				"method": "rhf"
			},
			{
				"type": "occ",
				"energy": -0.26732,
				"method": "rhf"
			},
			{
				"type": "occ",
				"energy": -0.26004,
				"method": "rhf"
			},
			{
				"type": "occ",
				"energy": -0.24425,
				"method": "rhf"
			},
			{
				"type": "unocc",
				"energy": 0.00881,
				"method": "rhf"
			},
			{
				"type": "unocc",
				"energy": 0.03992,
				"method": "rhf"
			},
			{
				"type": "unocc",
				"energy": 0.07727,
				"method": "rhf"
			},
			{
				"type": "unocc",
				"energy": 0.10311,
				"method": "rhf"
			},
			{
				"type": "unocc",
				"energy": 0.10599,
				"method": "rhf"
			}
		],
		"cosmo_sigma_profile": { 
			"-0.025": 0.0,
			"-0.024": 0.0,
			"-0.023": 0.0,
			"-0.022": 0.0,
			"-0.021": 0.0,
			"-0.02": 0.0,
			"-0.019": 0.0,
			"-0.018": 0.0,
			"-0.017": 0.0,
			"-0.016": 0.0,
			"-0.015": 0.113331431437,
			"-0.014": 1.7759122729,
			"-0.013": 2.67576582003,
			"-0.012": 1.84078492927,
			"-0.011": 3.89474049994,
			"-0.01": 4.6465256705,
			"-0.009": 6.14049941967,
			"-0.008": 6.56823204328,
			"-0.007": 6.61271937291,
			"-0.006": 6.8670583799,
			"-0.005": 5.40465587224,
			"-0.004": 5.97168867813,
			"-0.003": 5.77541535303,
			"-0.002": 5.41217676791,
			"-0.001": 7.03176548678,
			"0.0": 7.3851148493,
			"0.001": 8.42568037592,
			"0.002": 6.66325302356,
			"0.003": 7.1439315911,
			"0.004": 5.52000669901,
			"0.005": 4.33654287346,
			"0.006": 3.48974483168,
			"0.007": 3.15393783777,
			"0.008": 3.80839792226,
			"0.009": 3.04216254519,
			"0.01": 2.42779484963,
			"0.011": 3.55274851185,
			"0.012": 5.24527346668,
			"0.013": 6.59189602516,
			"0.014": 3.1848913692,
			"0.015": 0.533716247298,
			"0.016": 0.0,
			"0.017": 0.0,
			"0.018": 0.0,
			"0.019": 0.0,
			"0.02": 0.0,
			"0.021": 0.0,
			"0.022": 0.0,
			"0.023": 0.0,
			"0.024": 0.0,
			"0.025": 0.0
		}
	}
}
