{
	 "smiles": "BrC1(Br)C(=O)NN(C1=O)C1=CC=CC=C1", 
	 "Tm": 392.15, 
	 "num_atms": 21, 
	 "gaussian": { 
		 "optdone": 1, 
		 "sigma_profile": "yes", 
		 "theory": "DFT", 
		 "functional": "B3LYP", 
		 "basiset": "6-31G**", 
		 "properties": { 
			 "R2extent": 8677.3582, 
			 "electric_dipole_moment_norm": 4.14195597514, 
			 "electric_quadrupole_moment_norm": 8.3165136211, 
			 "total_energy": -5749.29099759, 
			 "HOMO_LUMO_gap": 0.15101, 
			 "cosmo_polarized_energy": -14.7, 
			 "cosmo_cavitation_energy": 30.65, 
			 "cosmo_dispersion_energy": -22.64, 
			 "cosmo_repulsion_energy": 1.77, 
			 "cosmo_total_nonelectrostatic_energy": 9.77, 
			 "SMD_solvation_energy": 4.23 
		},
		"coords": [
			{
				"x": -3.0069627804,
				"y": -0.8643751028,
				"z": 3.4018116306,
				"element": "Br" 
			},
			{
				"x": -2.9542028922,
				"y": -0.1292354571,
				"z": 1.6065628833,
				"element": "C" 
			},
			{
				"x": -4.7346531488,
				"y": 0.3629827542,
				"z": 0.9477733821,
				"element": "Br" 
			},
			{
				"x": -2.0414664291,
				"y": 1.1055263369,
				"z": 1.548641417,
				"element": "C" 
			},
			{
				"x": -2.0062067663,
				"y": 2.0604976856,
				"z": 2.2844667383,
				"element": "O" 
			},
			{
				"x": -1.2083980761,
				"y": 0.9056190191,
				"z": 0.4545436209,
				"element": "N" 
			},
			{
				"x": -1.288745027,
				"y": -0.4404355288,
				"z": 0.000889965,
				"element": "N" 
			},
			{
				"x": -2.3258973472,
				"y": -1.122735004,
				"z": 0.6112759939,
				"element": "C" 
			},
			{
				"x": -2.6760028217,
				"y": -2.2606461861,
				"z": 0.3892664001,
				"element": "O" 
			},
			{
				"x": -0.6167057449,
				"y": -0.7898847792,
				"z": -1.2007965633,
				"element": "C" 
			},
			{
				"x": -0.1228948898,
				"y": 0.2178627917,
				"z": -2.0406594946,
				"element": "C" 
			},
			{
				"x": 0.5613472414,
				"y": -0.1310699889,
				"z": -3.2047962105,
				"element": "C" 
			},
			{
				"x": 0.7527260821,
				"y": -1.4709712086,
				"z": -3.5404670425,
				"element": "C" 
			},
			{
				"x": 0.2513594395,
				"y": -2.4669120746,
				"z": -2.6994591037,
				"element": "C" 
			},
			{
				"x": -0.4267024459,
				"y": -2.1413795143,
				"z": -1.5270031955,
				"element": "C" 
			},
			{
				"x": -0.2580632961,
				"y": 1.2536214428,
				"z": 0.5492841093,
				"element": "H" 
			},
			{
				"x": -0.294668947,
				"y": 1.2616662487,
				"z": -1.804294512,
				"element": "H" 
			},
			{
				"x": 0.9378613974,
				"y": 0.6548181582,
				"z": -3.8526458526,
				"element": "H" 
			},
			{
				"x": 1.2856941133,
				"y": -1.7372450071,
				"z": -4.4478237245,
				"element": "H" 
			},
			{
				"x": 0.3928353303,
				"y": -3.5136912403,
				"z": -2.9510687309,
				"element": "H" 
			},
			{
				"x": -0.8185529915,
				"y": -2.9122133456,
				"z": -0.8780017103,
				"element": "H" 
			}
		],
		 "valence_orbital": [ 
			{
				"type": "occ",
				"energy": -0.2942,
				"method": "rhf"
			},
			{
				"type": "occ",
				"energy": -0.293,
				"method": "rhf"
			},
			{
				"type": "occ",
				"energy": -0.27711,
				"method": "rhf"
			},
			{
				"type": "occ",
				"energy": -0.26949,
				"method": "rhf"
			},
			{
				"type": "occ",
				"energy": -0.23613,
				"method": "rhf"
			},
			{
				"type": "unocc",
				"energy": -0.08512,
				"method": "rhf"
			},
			{
				"type": "unocc",
				"energy": -0.05286,
				"method": "rhf"
			},
			{
				"type": "unocc",
				"energy": -0.02624,
				"method": "rhf"
			},
			{
				"type": "unocc",
				"energy": -0.01983,
				"method": "rhf"
			},
			{
				"type": "unocc",
				"energy": 0.01084,
				"method": "rhf"
			}
		],
		"cosmo_sigma_profile": { 
			"-0.025": 0.0,
			"-0.024": 0.0,
			"-0.023": 0.0,
			"-0.022": 0.0,
			"-0.021": 0.0,
			"-0.02": 0.0,
			"-0.019": 0.0,
			"-0.018": 0.615243428187,
			"-0.017": 1.10276924004,
			"-0.016": 1.58208922456,
			"-0.015": 0.826922677451,
			"-0.014": 1.15315638234,
			"-0.013": 1.28656938825,
			"-0.012": 1.2002564713,
			"-0.011": 1.58641111402,
			"-0.01": 2.36109249588,
			"-0.009": 2.0666962735,
			"-0.008": 1.54029977567,
			"-0.007": 5.34959983874,
			"-0.006": 12.7977525858,
			"-0.005": 15.2474828,
			"-0.004": 15.3181974231,
			"-0.003": 13.7487689658,
			"-0.002": 15.2948557055,
			"-0.001": 14.4660668765,
			"0.0": 16.8055248648,
			"0.001": 21.8904141944,
			"0.002": 29.4980641188,
			"0.003": 20.9808377047,
			"0.004": 17.5225847242,
			"0.005": 8.46064440676,
			"0.006": 4.45964798049,
			"0.007": 3.63208718296,
			"0.008": 3.43736645945,
			"0.009": 4.93226538501,
			"0.01": 8.86889486869,
			"0.011": 4.69870643973,
			"0.012": 0.275712709307,
			"0.013": 0.0,
			"0.014": 0.0,
			"0.015": 0.0,
			"0.016": 0.0,
			"0.017": 0.0,
			"0.018": 0.0,
			"0.019": 0.0,
			"0.02": 0.0,
			"0.021": 0.0,
			"0.022": 0.0,
			"0.023": 0.0,
			"0.024": 0.0,
			"0.025": 0.0
		}
	}
}
