{
	 "smiles": "[O-][N+](=O)C1=C(CSC2=NC=C(C=C2)C(F)(F)F)C=CC=C1", 
	 "Tm": 338.15, 
	 "num_atms": 30, 
	 "gaussian": { 
		 "optdone": 1, 
		 "sigma_profile": "yes", 
		 "theory": "DFT", 
		 "functional": "B3LYP", 
		 "basiset": "6-31G**", 
		 "properties": { 
			 "R2extent": 7525.4728, 
			 "electric_dipole_moment_norm": 4.81656821503, 
			 "electric_quadrupole_moment_norm": 13.7149288689, 
			 "total_energy": -1458.36721793, 
			 "HOMO_LUMO_gap": 0.15338, 
			 "cosmo_polarized_energy": -11.18, 
			 "cosmo_cavitation_energy": 37.79, 
			 "cosmo_dispersion_energy": -26.3, 
			 "cosmo_repulsion_energy": 1.88, 
			 "cosmo_total_nonelectrostatic_energy": 13.37, 
			 "SMD_solvation_energy": 9.01 
		},
		"coords": [
			{
				"x": 2.9363025233,
				"y": -0.0761856809,
				"z": -1.3705250829,
				"element": "O" 
			},
			{
				"x": 1.8891700053,
				"y": 0.3151054438,
				"z": -1.8855750888,
				"element": "N" 
			},
			{
				"x": 1.4065821873,
				"y": -0.1422426449,
				"z": -2.9205052407,
				"element": "O" 
			},
			{
				"x": 1.2060170915,
				"y": 1.4503339996,
				"z": -1.2428426076,
				"element": "C" 
			},
			{
				"x": -0.1944833601,
				"y": 1.5339210337,
				"z": -1.1744926878,
				"element": "C" 
			},
			{
				"x": -1.1415762396,
				"y": 0.4549746618,
				"z": -1.653799462,
				"element": "C" 
			},
			{
				"x": -2.1570968897,
				"y": -0.3076208798,
				"z": -0.3170718851,
				"element": "S" 
			},
			{
				"x": -0.9575875399,
				"y": -1.3387053069,
				"z": 0.5005906949,
				"element": "C" 
			},
			{
				"x": 0.2948513592,
				"y": -1.3509159314,
				"z": 0.0457169331,
				"element": "N" 
			},
			{
				"x": 1.1909612679,
				"y": -2.1309406215,
				"z": 0.664816669,
				"element": "C" 
			},
			{
				"x": 0.8705524679,
				"y": -2.9321087169,
				"z": 1.7572915276,
				"element": "C" 
			},
			{
				"x": -0.4499341973,
				"y": -2.9173999021,
				"z": 2.2284205279,
				"element": "C" 
			},
			{
				"x": -1.3824775444,
				"y": -2.1109817644,
				"z": 1.5985389128,
				"element": "C" 
			},
			{
				"x": 1.911717521,
				"y": -3.7607245726,
				"z": 2.4515520967,
				"element": "C" 
			},
			{
				"x": 2.3253264695,
				"y": -3.1800677414,
				"z": 3.6024198144,
				"element": "F" 
			},
			{
				"x": 3.0038109691,
				"y": -3.9487077186,
				"z": 1.6838897134,
				"element": "F" 
			},
			{
				"x": 1.4278122253,
				"y": -4.9793981715,
				"z": 2.7865789207,
				"element": "F" 
			},
			{
				"x": -0.7209101597,
				"y": 2.6886703131,
				"z": -0.577321053,
				"element": "C" 
			},
			{
				"x": 0.0954102082,
				"y": 3.7041813484,
				"z": -0.0858388495,
				"element": "C" 
			},
			{
				"x": 1.4848236907,
				"y": 3.5805026603,
				"z": -0.1539458394,
				"element": "C" 
			},
			{
				"x": 2.0415262703,
				"y": 2.4412834478,
				"z": -0.7238644332,
				"element": "C" 
			},
			{
				"x": -1.8927066149,
				"y": 0.8851687536,
				"z": -2.3228392501,
				"element": "H" 
			},
			{
				"x": -0.6268669747,
				"y": -0.3389371014,
				"z": -2.1849835205,
				"element": "H" 
			},
			{
				"x": 2.1994595785,
				"y": -2.1065669795,
				"z": 0.2617683171,
				"element": "H" 
			},
			{
				"x": -0.7360771549,
				"y": -3.5370467833,
				"z": 3.0723944296,
				"element": "H" 
			},
			{
				"x": -2.4134288523,
				"y": -2.0765295993,
				"z": 1.9346853729,
				"element": "H" 
			},
			{
				"x": -1.7997373792,
				"y": 2.7761810343,
				"z": -0.4855459958,
				"element": "H" 
			},
			{
				"x": -0.3532769678,
				"y": 4.5878671393,
				"z": 0.3576556449,
				"element": "H" 
			},
			{
				"x": 2.129686154,
				"y": 4.3624665686,
				"z": 0.2338143005,
				"element": "H" 
			},
			{
				"x": 3.1142498856,
				"y": 2.3027237122,
				"z": -0.7837828793,
				"element": "H" 
			}
		],
		 "valence_orbital": [ 
			{
				"type": "occ",
				"energy": -0.29812,
				"method": "rhf"
			},
			{
				"type": "occ",
				"energy": -0.28166,
				"method": "rhf"
			},
			{
				"type": "occ",
				"energy": -0.27249,
				"method": "rhf"
			},
			{
				"type": "occ",
				"energy": -0.26632,
				"method": "rhf"
			},
			{
				"type": "occ",
				"energy": -0.23629,
				"method": "rhf"
			},
			{
				"type": "unocc",
				"energy": -0.08291,
				"method": "rhf"
			},
			{
				"type": "unocc",
				"energy": -0.04502,
				"method": "rhf"
			},
			{
				"type": "unocc",
				"energy": -0.03781,
				"method": "rhf"
			},
			{
				"type": "unocc",
				"energy": -0.03305,
				"method": "rhf"
			},
			{
				"type": "unocc",
				"energy": -0.01129,
				"method": "rhf"
			}
		],
		"cosmo_sigma_profile": { 
			"-0.025": 0.0,
			"-0.024": 0.0,
			"-0.023": 0.0,
			"-0.022": 0.0,
			"-0.021": 0.0,
			"-0.02": 0.0,
			"-0.019": 0.0,
			"-0.018": 0.0,
			"-0.017": 0.0,
			"-0.016": 0.0,
			"-0.015": 0.0,
			"-0.014": 0.0,
			"-0.013": 0.0,
			"-0.012": 0.0,
			"-0.011": 0.0,
			"-0.01": 0.0,
			"-0.009": 1.51509464817,
			"-0.008": 8.01218616255,
			"-0.007": 15.7094826262,
			"-0.006": 16.1647999466,
			"-0.005": 15.0630337841,
			"-0.004": 15.1578346595,
			"-0.003": 15.136015834,
			"-0.002": 16.3620684625,
			"-0.001": 19.7209365784,
			"0.0": 27.7105498219,
			"0.001": 29.8951790165,
			"0.002": 38.9863464046,
			"0.003": 41.4368292916,
			"0.004": 9.78999814636,
			"0.005": 7.68050746149,
			"0.006": 7.54336133732,
			"0.007": 8.80364591795,
			"0.008": 5.62412990856,
			"0.009": 3.76232348388,
			"0.01": 1.87505961162,
			"0.011": 0.0333625920911,
			"0.012": 0.0,
			"0.013": 0.0,
			"0.014": 0.0,
			"0.015": 0.0,
			"0.016": 0.0,
			"0.017": 0.0,
			"0.018": 0.0,
			"0.019": 0.0,
			"0.02": 0.0,
			"0.021": 0.0,
			"0.022": 0.0,
			"0.023": 0.0,
			"0.024": 0.0,
			"0.025": 0.0
		}
	}
}
