{
	 "smiles": "CC1=C2N=CNC(=O)C2=CC=C1", 
	 "Tm": 529.15, 
	 "num_atms": 20, 
	 "gaussian": { 
		 "optdone": 1, 
		 "sigma_profile": "yes", 
		 "theory": "DFT", 
		 "functional": "B3LYP", 
		 "basiset": "6-31G**", 
		 "properties": { 
			 "R2extent": 2164.2779, 
			 "electric_dipole_moment_norm": 1.9744517948, 
			 "electric_quadrupole_moment_norm": 16.7171198823, 
			 "total_energy": -532.540229636, 
			 "HOMO_LUMO_gap": 0.18869, 
			 "cosmo_polarized_energy": -12.8, 
			 "cosmo_cavitation_energy": 23.9, 
			 "cosmo_dispersion_energy": -18.0, 
			 "cosmo_repulsion_energy": 1.41, 
			 "cosmo_total_nonelectrostatic_energy": 7.31, 
			 "SMD_solvation_energy": 3.99 
		},
		"coords": [
			{
				"x": -1.9597242725,
				"y": 0.7145505167,
				"z": 0.3179157663,
				"element": "C" 
			},
			{
				"x": -0.7267779019,
				"y": -0.1341962337,
				"z": 0.4918321789,
				"element": "C" 
			},
			{
				"x": 0.4320648434,
				"y": 0.1241897771,
				"z": -0.2848266617,
				"element": "C" 
			},
			{
				"x": 0.3894779909,
				"y": 1.1743836613,
				"z": -1.1996131998,
				"element": "N" 
			},
			{
				"x": 1.4530981464,
				"y": 1.3915462327,
				"z": -1.8943953204,
				"element": "C" 
			},
			{
				"x": 2.6130774094,
				"y": 0.6655853153,
				"z": -1.7951947524,
				"element": "N" 
			},
			{
				"x": 2.785116172,
				"y": -0.4146729668,
				"z": -0.9150232546,
				"element": "C" 
			},
			{
				"x": 3.8451774025,
				"y": -1.0228865803,
				"z": -0.8728877311,
				"element": "O" 
			},
			{
				"x": 1.5849911951,
				"y": -0.6812443673,
				"z": -0.1115329156,
				"element": "C" 
			},
			{
				"x": 1.5948488732,
				"y": -1.7315575086,
				"z": 0.8189245443,
				"element": "C" 
			},
			{
				"x": 0.4613023441,
				"y": -1.9797436937,
				"z": 1.5745016976,
				"element": "C" 
			},
			{
				"x": -0.6839420894,
				"y": -1.1832743239,
				"z": 1.4055775329,
				"element": "C" 
			},
			{
				"x": -1.7459772877,
				"y": 1.7685656919,
				"z": 0.5217932325,
				"element": "H" 
			},
			{
				"x": -2.7577068945,
				"y": 0.3846951614,
				"z": 0.9883564349,
				"element": "H" 
			},
			{
				"x": -2.3283049474,
				"y": 0.6699382334,
				"z": -0.7118245492,
				"element": "H" 
			},
			{
				"x": 1.4698261289,
				"y": 2.2006627634,
				"z": -2.6224040609,
				"element": "H" 
			},
			{
				"x": 3.4134021888,
				"y": 0.8913406281,
				"z": -2.3733963519,
				"element": "H" 
			},
			{
				"x": 2.4979082724,
				"y": -2.3238604208,
				"z": 0.9203009072,
				"element": "H" 
			},
			{
				"x": 0.4522406074,
				"y": -2.788590536,
				"z": 2.2988866595,
				"element": "H" 
			},
			{
				"x": -1.5665981811,
				"y": -1.3898313503,
				"z": 2.0058098435,
				"element": "H" 
			}
		],
		 "valence_orbital": [ 
			{
				"type": "occ",
				"energy": -0.29601,
				"method": "rhf"
			},
			{
				"type": "occ",
				"energy": -0.278,
				"method": "rhf"
			},
			{
				"type": "occ",
				"energy": -0.26328,
				"method": "rhf"
			},
			{
				"type": "occ",
				"energy": -0.25337,
				"method": "rhf"
			},
			{
				"type": "occ",
				"energy": -0.22861,
				"method": "rhf"
			},
			{
				"type": "unocc",
				"energy": -0.03992,
				"method": "rhf"
			},
			{
				"type": "unocc",
				"energy": -0.03712,
				"method": "rhf"
			},
			{
				"type": "unocc",
				"energy": 0.02905,
				"method": "rhf"
			},
			{
				"type": "unocc",
				"energy": 0.07192,
				"method": "rhf"
			},
			{
				"type": "unocc",
				"energy": 0.07497,
				"method": "rhf"
			}
		],
		"cosmo_sigma_profile": { 
			"-0.025": 0.0,
			"-0.024": 0.0,
			"-0.023": 0.0,
			"-0.022": 0.0,
			"-0.021": 0.0,
			"-0.02": 0.0,
			"-0.019": 0.0,
			"-0.018": 0.0,
			"-0.017": 0.38875572427,
			"-0.016": 1.82648616613,
			"-0.015": 1.60995234724,
			"-0.014": 0.865228088375,
			"-0.013": 1.12459794181,
			"-0.012": 1.263575184,
			"-0.011": 1.20765437821,
			"-0.01": 2.45189974401,
			"-0.009": 2.64152760491,
			"-0.008": 2.81891121675,
			"-0.007": 2.04761318414,
			"-0.006": 6.68577145265,
			"-0.005": 9.64887522412,
			"-0.004": 12.0076873685,
			"-0.003": 14.1753992382,
			"-0.002": 16.123190593,
			"-0.001": 14.587523952,
			"0.0": 15.0262667755,
			"0.001": 14.7478263467,
			"0.002": 14.1234102067,
			"0.003": 13.5307878958,
			"0.004": 11.5781660349,
			"0.005": 3.32037636611,
			"0.006": 3.24751705875,
			"0.007": 2.62494745011,
			"0.008": 3.1787595612,
			"0.009": 1.75756212392,
			"0.01": 2.2019800113,
			"0.011": 2.62599013703,
			"0.012": 4.64174277177,
			"0.013": 5.98828249737,
			"0.014": 1.15011184101,
			"0.015": 0.00729897436745,
			"0.016": 0.0,
			"0.017": 0.0,
			"0.018": 0.0,
			"0.019": 0.0,
			"0.02": 0.0,
			"0.021": 0.0,
			"0.022": 0.0,
			"0.023": 0.0,
			"0.024": 0.0,
			"0.025": 0.0
		}
	}
}
