{
	 "smiles": "ClC1=CC=CC=C1OC1=CC=C(C=C1)S(Cl)(=O)=O", 
	 "Tm": 362.65, 
	 "num_atms": 26, 
	 "gaussian": { 
		 "optdone": 1, 
		 "sigma_profile": "yes", 
		 "theory": "DFT", 
		 "functional": "B3LYP", 
		 "basiset": "6-31G**", 
		 "properties": { 
			 "R2extent": 9077.8129, 
			 "electric_dipole_moment_norm": 7.2616960512, 
			 "electric_quadrupole_moment_norm": 15.5241749742, 
			 "total_energy": -2006.26252316, 
			 "HOMO_LUMO_gap": 0.17757, 
			 "cosmo_polarized_energy": -12.14, 
			 "cosmo_cavitation_energy": 36.68, 
			 "cosmo_dispersion_energy": -26.51, 
			 "cosmo_repulsion_energy": 2.02, 
			 "cosmo_total_nonelectrostatic_energy": 12.19, 
			 "SMD_solvation_energy": 4.86 
		},
		"coords": [
			{
				"x": 0.3154098981,
				"y": -1.4190296783,
				"z": 3.6023577052,
				"element": "Cl" 
			},
			{
				"x": 1.626365932,
				"y": -0.5483736714,
				"z": 2.8425339511,
				"element": "C" 
			},
			{
				"x": 2.2040441251,
				"y": 0.5454950072,
				"z": 3.4891327164,
				"element": "C" 
			},
			{
				"x": 3.2532297836,
				"y": 1.2355604437,
				"z": 2.8821606668,
				"element": "C" 
			},
			{
				"x": 3.7302906309,
				"y": 0.8340433975,
				"z": 1.6329119232,
				"element": "C" 
			},
			{
				"x": 3.1555432352,
				"y": -0.2601402711,
				"z": 0.9878922837,
				"element": "C" 
			},
			{
				"x": 2.1027290068,
				"y": -0.9511366878,
				"z": 1.5884129296,
				"element": "C" 
			},
			{
				"x": 1.5971219748,
				"y": -2.0864365363,
				"z": 0.9790087839,
				"element": "O" 
			},
			{
				"x": 0.5737510157,
				"y": -1.9882522366,
				"z": 0.0754167952,
				"element": "C" 
			},
			{
				"x": -0.0389518487,
				"y": -0.7799071429,
				"z": -0.2786016911,
				"element": "C" 
			},
			{
				"x": -1.0689324676,
				"y": -0.7861252383,
				"z": -1.2146061727,
				"element": "C" 
			},
			{
				"x": -1.4722626377,
				"y": -1.9976268668,
				"z": -1.7771152942,
				"element": "C" 
			},
			{
				"x": -0.8668418489,
				"y": -3.2095336935,
				"z": -1.4271522765,
				"element": "C" 
			},
			{
				"x": 0.1590776986,
				"y": -3.2012255544,
				"z": -0.494068251,
				"element": "C" 
			},
			{
				"x": -2.7925693378,
				"y": -2.0008635427,
				"z": -2.9648674364,
				"element": "S" 
			},
			{
				"x": -1.7212336406,
				"y": -1.7784251289,
				"z": -4.8077551942,
				"element": "Cl" 
			},
			{
				"x": -3.5843320058,
				"y": -0.7854339349,
				"z": -2.8183186628,
				"element": "O" 
			},
			{
				"x": -3.3981731634,
				"y": -3.3259408538,
				"z": -3.0172620969,
				"element": "O" 
			},
			{
				"x": 1.8279594955,
				"y": 0.8445949189,
				"z": 4.4612324545,
				"element": "H" 
			},
			{
				"x": 3.6985708792,
				"y": 2.0844645931,
				"z": 3.3911538718,
				"element": "H" 
			},
			{
				"x": 4.5502360034,
				"y": 1.3667244081,
				"z": 1.162075827,
				"element": "H" 
			},
			{
				"x": 3.51500601,
				"y": -0.6009376302,
				"z": 0.0223839743,
				"element": "H" 
			},
			{
				"x": 0.2808458124,
				"y": 0.151160732,
				"z": 0.1734146348,
				"element": "H" 
			},
			{
				"x": -1.5629854969,
				"y": 0.1365797338,
				"z": -1.4974422835,
				"element": "H" 
			},
			{
				"x": -1.2058421331,
				"y": -4.1378733041,
				"z": -1.8727091309,
				"element": "H" 
			},
			{
				"x": 0.6499430794,
				"y": -4.1180612624,
				"z": -0.1873900272,
				"element": "H" 
			}
		],
		 "valence_orbital": [ 
			{
				"type": "occ",
				"energy": -0.30781,
				"method": "rhf"
			},
			{
				"type": "occ",
				"energy": -0.28961,
				"method": "rhf"
			},
			{
				"type": "occ",
				"energy": -0.27982,
				"method": "rhf"
			},
			{
				"type": "occ",
				"energy": -0.26587,
				"method": "rhf"
			},
			{
				"type": "occ",
				"energy": -0.26255,
				"method": "rhf"
			},
			{
				"type": "unocc",
				"energy": -0.08498,
				"method": "rhf"
			},
			{
				"type": "unocc",
				"energy": -0.0423,
				"method": "rhf"
			},
			{
				"type": "unocc",
				"energy": -0.03424,
				"method": "rhf"
			},
			{
				"type": "unocc",
				"energy": -0.03298,
				"method": "rhf"
			},
			{
				"type": "unocc",
				"energy": -0.03091,
				"method": "rhf"
			}
		],
		"cosmo_sigma_profile": { 
			"-0.025": 0.0,
			"-0.024": 0.0,
			"-0.023": 0.0,
			"-0.022": 0.0,
			"-0.021": 0.0,
			"-0.02": 0.0,
			"-0.019": 0.0,
			"-0.018": 0.0,
			"-0.017": 0.0,
			"-0.016": 0.0,
			"-0.015": 0.0,
			"-0.014": 0.0,
			"-0.013": 0.0,
			"-0.012": 0.0,
			"-0.011": 0.283669122118,
			"-0.01": 0.674013038339,
			"-0.009": 1.15202467017,
			"-0.008": 7.65641690236,
			"-0.007": 15.2098442956,
			"-0.006": 15.9379521255,
			"-0.005": 16.9923056766,
			"-0.004": 13.603411595,
			"-0.003": 14.1728996108,
			"-0.002": 16.2624810088,
			"-0.001": 21.4139199892,
			"0.0": 28.9672438532,
			"0.001": 33.486143517,
			"0.002": 28.3404297498,
			"0.003": 29.4975383944,
			"0.004": 23.1085649147,
			"0.005": 6.26448364627,
			"0.006": 4.84745944126,
			"0.007": 7.14232111608,
			"0.008": 9.94660919657,
			"0.009": 5.55563363467,
			"0.01": 0.117305317522,
			"0.011": 0.0,
			"0.012": 0.0,
			"0.013": 0.0,
			"0.014": 0.0,
			"0.015": 0.0,
			"0.016": 0.0,
			"0.017": 0.0,
			"0.018": 0.0,
			"0.019": 0.0,
			"0.02": 0.0,
			"0.021": 0.0,
			"0.022": 0.0,
			"0.023": 0.0,
			"0.024": 0.0,
			"0.025": 0.0
		}
	}
}
