{
	 "smiles": "CCOC(=O)CC1=NN=C(S)N1CC1=CC=CO1", 
	 "Tm": 290.15, 
	 "num_atms": 31, 
	 "gaussian": { 
		 "optdone": 1, 
		 "sigma_profile": "yes", 
		 "theory": "DFT", 
		 "functional": "B3LYP", 
		 "basiset": "6-31G**", 
		 "properties": { 
			 "R2extent": 5814.9133, 
			 "electric_dipole_moment_norm": 6.1165740656, 
			 "electric_quadrupole_moment_norm": 29.2407374803, 
			 "total_energy": -1215.07664637, 
			 "HOMO_LUMO_gap": 0.22282, 
			 "cosmo_polarized_energy": -19.82, 
			 "cosmo_cavitation_energy": 36.8, 
			 "cosmo_dispersion_energy": -25.47, 
			 "cosmo_repulsion_energy": 1.94, 
			 "cosmo_total_nonelectrostatic_energy": 13.26, 
			 "SMD_solvation_energy": 4.91 
		},
		"coords": [
			{
				"x": -2.9470708561,
				"y": 3.8383582725,
				"z": -3.0152132277,
				"element": "C" 
			},
			{
				"x": -1.8864121338,
				"y": 3.5347453728,
				"z": -1.968869235,
				"element": "C" 
			},
			{
				"x": -2.4156322341,
				"y": 2.6914539926,
				"z": -0.9123810167,
				"element": "O" 
			},
			{
				"x": -2.4091696906,
				"y": 1.368351182,
				"z": -1.1233457966,
				"element": "C" 
			},
			{
				"x": -2.008626338,
				"y": 0.8262869406,
				"z": -2.1353519254,
				"element": "O" 
			},
			{
				"x": -2.9693239806,
				"y": 0.6158866872,
				"z": 0.0779588658,
				"element": "C" 
			},
			{
				"x": -2.1064330303,
				"y": 0.6457883025,
				"z": 1.3023947155,
				"element": "C" 
			},
			{
				"x": -2.4840012426,
				"y": 1.1649732972,
				"z": 2.4484733442,
				"element": "N" 
			},
			{
				"x": -1.4762873563,
				"y": 0.9517131863,
				"z": 3.3620134247,
				"element": "N" 
			},
			{
				"x": -0.5197045772,
				"y": 0.2979484665,
				"z": 2.7441726419,
				"element": "C" 
			},
			{
				"x": 0.8984802787,
				"y": -0.3607353787,
				"z": 3.5670630323,
				"element": "S" 
			},
			{
				"x": -0.8612214461,
				"y": 0.0691555054,
				"z": 1.4243406033,
				"element": "N" 
			},
			{
				"x": -0.0719472972,
				"y": -0.6354233543,
				"z": 0.4038291357,
				"element": "C" 
			},
			{
				"x": 0.9754523649,
				"y": 0.194190325,
				"z": -0.267135293,
				"element": "C" 
			},
			{
				"x": 1.131687212,
				"y": 0.6422673967,
				"z": -1.5455857249,
				"element": "C" 
			},
			{
				"x": 2.3796004929,
				"y": 1.3487221402,
				"z": -1.5813555222,
				"element": "C" 
			},
			{
				"x": 2.8914904506,
				"y": 1.2814900968,
				"z": -0.3235924956,
				"element": "C" 
			},
			{
				"x": 2.0537714422,
				"y": 0.5759582984,
				"z": 0.4922910199,
				"element": "O" 
			},
			{
				"x": -2.5463310261,
				"y": 4.5401015186,
				"z": -3.7541224542,
				"element": "H" 
			},
			{
				"x": -3.2479177282,
				"y": 2.9265108659,
				"z": -3.5368547598,
				"element": "H" 
			},
			{
				"x": -3.8290123882,
				"y": 4.2924804939,
				"z": -2.5545069142,
				"element": "H" 
			},
			{
				"x": -1.5628077133,
				"y": 4.438762037,
				"z": -1.4489752867,
				"element": "H" 
			},
			{
				"x": -1.0185771885,
				"y": 3.039925967,
				"z": -2.4103758181,
				"element": "H" 
			},
			{
				"x": -3.9162383598,
				"y": 1.0726531063,
				"z": 0.3764748203,
				"element": "H" 
			},
			{
				"x": -3.1614936792,
				"y": -0.4108559701,
				"z": -0.2477393196,
				"element": "H" 
			},
			{
				"x": 1.8182422557,
				"y": 0.1355945396,
				"z": 2.7140246144,
				"element": "H" 
			},
			{
				"x": -0.7582991756,
				"y": -0.9990975769,
				"z": -0.3626717359,
				"element": "H" 
			},
			{
				"x": 0.3826467238,
				"y": -1.5017315917,
				"z": 0.896114798,
				"element": "H" 
			},
			{
				"x": 0.4287576064,
				"y": 0.4977482207,
				"z": -2.3524747936,
				"element": "H" 
			},
			{
				"x": 2.8296487657,
				"y": 1.8392086792,
				"z": -2.432288359,
				"element": "H" 
			},
			{
				"x": 3.7899298489,
				"y": 1.6588689808,
				"z": 0.1392886621,
				"element": "H" 
			}
		],
		 "valence_orbital": [ 
			{
				"type": "occ",
				"energy": -0.29096,
				"method": "rhf"
			},
			{
				"type": "occ",
				"energy": -0.28289,
				"method": "rhf"
			},
			{
				"type": "occ",
				"energy": -0.25224,
				"method": "rhf"
			},
			{
				"type": "occ",
				"energy": -0.24385,
				"method": "rhf"
			},
			{
				"type": "occ",
				"energy": -0.23746,
				"method": "rhf"
			},
			{
				"type": "unocc",
				"energy": -0.01464,
				"method": "rhf"
			},
			{
				"type": "unocc",
				"energy": -0.01166,
				"method": "rhf"
			},
			{
				"type": "unocc",
				"energy": 0.00235,
				"method": "rhf"
			},
			{
				"type": "unocc",
				"energy": 0.03612,
				"method": "rhf"
			},
			{
				"type": "unocc",
				"energy": 0.04804,
				"method": "rhf"
			}
		],
		"cosmo_sigma_profile": { 
			"-0.025": 0.0,
			"-0.024": 0.0,
			"-0.023": 0.0,
			"-0.022": 0.0,
			"-0.021": 0.0,
			"-0.02": 0.0,
			"-0.019": 0.0,
			"-0.018": 0.0,
			"-0.017": 0.0,
			"-0.016": 0.0,
			"-0.015": 0.0,
			"-0.014": 0.0,
			"-0.013": 0.0,
			"-0.012": 0.0,
			"-0.011": 0.158548767466,
			"-0.01": 1.66060210491,
			"-0.009": 4.31829055868,
			"-0.008": 7.88214421795,
			"-0.007": 11.735355728,
			"-0.006": 15.2380904248,
			"-0.005": 18.924284175,
			"-0.004": 24.7678031457,
			"-0.003": 26.188034313,
			"-0.002": 25.3068905517,
			"-0.001": 23.8920164313,
			"0.0": 22.2577059804,
			"0.001": 17.2265602765,
			"0.002": 15.5116266245,
			"0.003": 13.3954043266,
			"0.004": 12.8561358664,
			"0.005": 9.46270378026,
			"0.006": 6.14940424516,
			"0.007": 6.47255034344,
			"0.008": 5.46878610904,
			"0.009": 3.39122427537,
			"0.01": 3.89151472205,
			"0.011": 5.379962366,
			"0.012": 3.15818485414,
			"0.013": 4.00316866223,
			"0.014": 2.25129149178,
			"0.015": 2.80349678923,
			"0.016": 1.89746268272,
			"0.017": 0.265440472622,
			"0.018": 0.0,
			"0.019": 0.0,
			"0.02": 0.0,
			"0.021": 0.0,
			"0.022": 0.0,
			"0.023": 0.0,
			"0.024": 0.0,
			"0.025": 0.0
		}
	}
}
