{
	 "smiles": "CCC(=O)NC=C(Cl)Cl", 
	 "Tm": 367.15, 
	 "num_atms": 16, 
	 "gaussian": { 
		 "optdone": 1, 
		 "sigma_profile": "yes", 
		 "theory": "DFT", 
		 "functional": "B3LYP", 
		 "basiset": "6-31G**", 
		 "properties": { 
			 "R2extent": 3124.1424, 
			 "electric_dipole_moment_norm": 4.41502807579, 
			 "electric_quadrupole_moment_norm": 7.46167573337, 
			 "total_energy": -1245.09524885, 
			 "HOMO_LUMO_gap": 0.21877, 
			 "cosmo_polarized_energy": -13.18, 
			 "cosmo_cavitation_energy": 23.83, 
			 "cosmo_dispersion_energy": -17.56, 
			 "cosmo_repulsion_energy": 1.49, 
			 "cosmo_total_nonelectrostatic_energy": 7.76, 
			 "SMD_solvation_energy": 4.67 
		},
		"coords": [
			{
				"x": -1.3459944139,
				"y": -2.933711293,
				"z": -2.7187922084,
				"element": "C" 
			},
			{
				"x": -1.5265432115,
				"y": -1.9029230537,
				"z": -1.6052294134,
				"element": "C" 
			},
			{
				"x": -0.2732299572,
				"y": -1.7591217998,
				"z": -0.7433201508,
				"element": "C" 
			},
			{
				"x": 0.5919691159,
				"y": -2.6100093587,
				"z": -0.6691725932,
				"element": "O" 
			},
			{
				"x": -0.2298508395,
				"y": -0.5712003561,
				"z": -0.0153446354,
				"element": "N" 
			},
			{
				"x": 0.8130581265,
				"y": -0.1728714779,
				"z": 0.8339463311,
				"element": "C" 
			},
			{
				"x": 1.2812803657,
				"y": -0.8715049812,
				"z": 1.8780095244,
				"element": "C" 
			},
			{
				"x": 2.6534295286,
				"y": -0.2759110141,
				"z": 2.778256889,
				"element": "Cl" 
			},
			{
				"x": 0.619634538,
				"y": -2.3617759391,
				"z": 2.447258708,
				"element": "Cl" 
			},
			{
				"x": -0.5839904177,
				"y": -2.6113687433,
				"z": -3.4343154998,
				"element": "H" 
			},
			{
				"x": -1.0210445046,
				"y": -3.8889548593,
				"z": -2.3014132453,
				"element": "H" 
			},
			{
				"x": -2.2840135349,
				"y": -3.0842164877,
				"z": -3.260706813,
				"element": "H" 
			},
			{
				"x": -1.8158694566,
				"y": -0.9265709112,
				"z": -2.015933044,
				"element": "H" 
			},
			{
				"x": -2.3444304049,
				"y": -2.2041431487,
				"z": -0.9363716213,
				"element": "H" 
			},
			{
				"x": -0.8831898984,
				"y": 0.151024729,
				"z": -0.2857062711,
				"element": "H" 
			},
			{
				"x": 1.2711849647,
				"y": 0.7898586948,
				"z": 0.6236340432,
				"element": "H" 
			}
		],
		 "valence_orbital": [ 
			{
				"type": "occ",
				"energy": -0.32866,
				"method": "rhf"
			},
			{
				"type": "occ",
				"energy": -0.31372,
				"method": "rhf"
			},
			{
				"type": "occ",
				"energy": -0.30077,
				"method": "rhf"
			},
			{
				"type": "occ",
				"energy": -0.25966,
				"method": "rhf"
			},
			{
				"type": "occ",
				"energy": -0.23857,
				"method": "rhf"
			},
			{
				"type": "unocc",
				"energy": -0.0198,
				"method": "rhf"
			},
			{
				"type": "unocc",
				"energy": 0.00173,
				"method": "rhf"
			},
			{
				"type": "unocc",
				"energy": 0.02831,
				"method": "rhf"
			},
			{
				"type": "unocc",
				"energy": 0.03458,
				"method": "rhf"
			},
			{
				"type": "unocc",
				"energy": 0.07194,
				"method": "rhf"
			}
		],
		"cosmo_sigma_profile": { 
			"-0.025": 0.0,
			"-0.024": 0.0,
			"-0.023": 0.0,
			"-0.022": 0.0,
			"-0.021": 0.0,
			"-0.02": 0.0,
			"-0.019": 0.0,
			"-0.018": 0.0,
			"-0.017": 0.0,
			"-0.016": 0.507528062671,
			"-0.015": 1.45623367484,
			"-0.014": 1.31374256567,
			"-0.013": 1.52582547727,
			"-0.012": 1.29598688342,
			"-0.011": 1.70494775115,
			"-0.01": 2.14603504753,
			"-0.009": 3.15964241993,
			"-0.008": 2.63086782581,
			"-0.007": 3.60152756856,
			"-0.006": 3.89569768854,
			"-0.005": 6.6963651473,
			"-0.004": 8.7799450203,
			"-0.003": 15.9351838612,
			"-0.002": 14.9582820614,
			"-0.001": 16.313556549,
			"0.0": 16.1110590869,
			"0.001": 19.3529578596,
			"0.002": 16.522820255,
			"0.003": 22.4305317161,
			"0.004": 9.99424681327,
			"0.005": 1.77351682536,
			"0.006": 1.6673151117,
			"0.007": 2.55903360587,
			"0.008": 2.22572690126,
			"0.009": 1.82058016624,
			"0.01": 2.12702329142,
			"0.011": 2.06666463862,
			"0.012": 3.05711646758,
			"0.013": 4.72093403848,
			"0.014": 0.798303418079,
			"0.015": 0.0,
			"0.016": 0.0,
			"0.017": 0.0,
			"0.018": 0.0,
			"0.019": 0.0,
			"0.02": 0.0,
			"0.021": 0.0,
			"0.022": 0.0,
			"0.023": 0.0,
			"0.024": 0.0,
			"0.025": 0.0
		}
	}
}
