{
	 "smiles": "OC(=O)C1=CC(O)=C(O)C(O)=C1", 
	 "Tm": 526.15, 
	 "num_atms": 18, 
	 "gaussian": { 
		 "optdone": 1, 
		 "sigma_profile": "yes", 
		 "theory": "DFT", 
		 "functional": "B3LYP", 
		 "basiset": "6-31G**", 
		 "properties": { 
			 "R2extent": 2284.0875, 
			 "electric_dipole_moment_norm": 6.77541650159, 
			 "electric_quadrupole_moment_norm": 13.0526619289, 
			 "total_energy": -646.475501174, 
			 "HOMO_LUMO_gap": 0.18781, 
			 "cosmo_polarized_energy": -23.05, 
			 "cosmo_cavitation_energy": 23.08, 
			 "cosmo_dispersion_energy": -17.55, 
			 "cosmo_repulsion_energy": 1.4, 
			 "cosmo_total_nonelectrostatic_energy": 6.93, 
			 "SMD_solvation_energy": 6.09 
		},
		"coords": [
			{
				"x": 2.47499749,
				"y": -0.9388083846,
				"z": -2.2226615295,
				"element": "O" 
			},
			{
				"x": 1.1599589633,
				"y": -0.5862460661,
				"z": -2.3181272635,
				"element": "C" 
			},
			{
				"x": 0.6832007347,
				"y": -0.3282913374,
				"z": -3.3977066328,
				"element": "O" 
			},
			{
				"x": 0.3906138271,
				"y": -0.5454365191,
				"z": -1.0356300976,
				"element": "C" 
			},
			{
				"x": -1.0004339875,
				"y": -0.6669957437,
				"z": -1.1119418805,
				"element": "C" 
			},
			{
				"x": -1.7666366215,
				"y": -0.6347893551,
				"z": 0.051470583,
				"element": "C" 
			},
			{
				"x": -3.1163177062,
				"y": -0.7691733841,
				"z": -0.0142910264,
				"element": "O" 
			},
			{
				"x": -1.138727536,
				"y": -0.460756256,
				"z": 1.2923345848,
				"element": "C" 
			},
			{
				"x": -1.9331446436,
				"y": -0.4274887472,
				"z": 2.4040368336,
				"element": "O" 
			},
			{
				"x": 0.2494387022,
				"y": -0.3150018181,
				"z": 1.3638355841,
				"element": "C" 
			},
			{
				"x": 0.7386020906,
				"y": -0.1232004194,
				"z": 2.6336085352,
				"element": "O" 
			},
			{
				"x": 1.0228503354,
				"y": -0.3616444437,
				"z": 0.2069960954,
				"element": "C" 
			},
			{
				"x": 2.6469394208,
				"y": -1.3142494628,
				"z": -1.3480759604,
				"element": "H" 
			},
			{
				"x": -1.4805632463,
				"y": -0.7882832081,
				"z": -2.0753394591,
				"element": "H" 
			},
			{
				"x": -3.4676678537,
				"y": -0.709705573,
				"z": 0.8869575085,
				"element": "H" 
			},
			{
				"x": -1.3679295658,
				"y": -0.2759825924,
				"z": 3.1759040513,
				"element": "H" 
			},
			{
				"x": 1.6937677049,
				"y": 0.0109554844,
				"z": 2.6062952622,
				"element": "H" 
			},
			{
				"x": 2.0947518913,
				"y": -0.1919021735,
				"z": 0.2761348118,
				"element": "H" 
			}
		],
		 "valence_orbital": [ 
			{
				"type": "occ",
				"energy": -0.33368,
				"method": "rhf"
			},
			{
				"type": "occ",
				"energy": -0.30939,
				"method": "rhf"
			},
			{
				"type": "occ",
				"energy": -0.26962,
				"method": "rhf"
			},
			{
				"type": "occ",
				"energy": -0.23798,
				"method": "rhf"
			},
			{
				"type": "occ",
				"energy": -0.22794,
				"method": "rhf"
			},
			{
				"type": "unocc",
				"energy": -0.04013,
				"method": "rhf"
			},
			{
				"type": "unocc",
				"energy": -0.00314,
				"method": "rhf"
			},
			{
				"type": "unocc",
				"energy": 0.02964,
				"method": "rhf"
			},
			{
				"type": "unocc",
				"energy": 0.0554,
				"method": "rhf"
			},
			{
				"type": "unocc",
				"energy": 0.06464,
				"method": "rhf"
			}
		],
		"cosmo_sigma_profile": { 
			"-0.025": 0.0,
			"-0.024": 0.0,
			"-0.023": 0.0,
			"-0.022": 0.0,
			"-0.021": 0.0,
			"-0.02": 0.00789373230876,
			"-0.019": 0.664513829199,
			"-0.018": 1.79788385986,
			"-0.017": 1.77798572869,
			"-0.016": 2.98162828012,
			"-0.015": 3.1173222573,
			"-0.014": 2.78119780522,
			"-0.013": 2.82294459597,
			"-0.012": 3.69878847105,
			"-0.011": 4.35269342106,
			"-0.01": 3.85205922578,
			"-0.009": 2.25716112461,
			"-0.008": 3.81516665534,
			"-0.007": 3.44243118445,
			"-0.006": 4.15753074336,
			"-0.005": 4.85129612056,
			"-0.004": 6.12834600241,
			"-0.003": 5.86567930275,
			"-0.002": 6.69378376232,
			"-0.001": 8.03413601908,
			"0.0": 8.85939767895,
			"0.001": 14.1192438014,
			"0.002": 14.2888641745,
			"0.003": 13.7750097405,
			"0.004": 8.65470404561,
			"0.005": 8.03928109284,
			"0.006": 6.67977153261,
			"0.007": 5.68488763824,
			"0.008": 5.32775041428,
			"0.009": 3.92977006972,
			"0.01": 6.68545085712,
			"0.011": 6.80226136761,
			"0.012": 5.68530659034,
			"0.013": 2.10216097153,
			"0.014": 0.164762133257,
			"0.015": 0.0,
			"0.016": 0.0,
			"0.017": 0.0,
			"0.018": 0.0,
			"0.019": 0.0,
			"0.02": 0.0,
			"0.021": 0.0,
			"0.022": 0.0,
			"0.023": 0.0,
			"0.024": 0.0,
			"0.025": 0.0
		}
	}
}
