{
	 "smiles": "COC1=CC=C(C=C1)C1C2=C(CCCC2)OC2=C1CCCC2", 
	 "Tm": 377.15, 
	 "num_atms": 46, 
	 "gaussian": { 
		 "optdone": 1, 
		 "sigma_profile": "yes", 
		 "theory": "DFT", 
		 "functional": "B3LYP", 
		 "basiset": "6-31G**", 
		 "properties": { 
			 "R2extent": 7740.1596, 
			 "electric_dipole_moment_norm": 1.0532471125, 
			 "electric_quadrupole_moment_norm": 9.7962050101, 
			 "total_energy": -927.033999634, 
			 "HOMO_LUMO_gap": 0.19191, 
			 "cosmo_polarized_energy": -6.98, 
			 "cosmo_cavitation_energy": 45.05, 
			 "cosmo_dispersion_energy": -31.55, 
			 "cosmo_repulsion_energy": 2.46, 
			 "cosmo_total_nonelectrostatic_energy": 15.96, 
			 "SMD_solvation_energy": 6.91 
		},
		"coords": [
			{
				"x": -1.7871711808,
				"y": -3.7438876998,
				"z": -4.420443185,
				"element": "C" 
			},
			{
				"x": -2.4495643659,
				"y": -2.5869370093,
				"z": -3.9392943922,
				"element": "O" 
			},
			{
				"x": -1.8493503274,
				"y": -1.8662321404,
				"z": -2.9444386371,
				"element": "C" 
			},
			{
				"x": -0.6181082242,
				"y": -2.1872066392,
				"z": -2.3583508573,
				"element": "C" 
			},
			{
				"x": -0.1022045065,
				"y": -1.373968487,
				"z": -1.3469471571,
				"element": "C" 
			},
			{
				"x": -0.7831516037,
				"y": -0.2388323772,
				"z": -0.8973930147,
				"element": "C" 
			},
			{
				"x": -2.013739273,
				"y": 0.0640982471,
				"z": -1.4970315972,
				"element": "C" 
			},
			{
				"x": -2.545875174,
				"y": -0.7323550195,
				"z": -2.5059137562,
				"element": "C" 
			},
			{
				"x": -0.1947139095,
				"y": 0.6451338569,
				"z": 0.2127331434,
				"element": "C" 
			},
			{
				"x": -0.0165957687,
				"y": -0.1149040728,
				"z": 1.5151335052,
				"element": "C" 
			},
			{
				"x": 1.1951417971,
				"y": -0.3040136926,
				"z": 2.0574660037,
				"element": "C" 
			},
			{
				"x": 1.4733321715,
				"y": -1.0438580071,
				"z": 3.3380938634,
				"element": "C" 
			},
			{
				"x": 0.1980405704,
				"y": -1.2384226292,
				"z": 4.1695206743,
				"element": "C" 
			},
			{
				"x": -0.964735834,
				"y": -1.6875030103,
				"z": 3.277219563,
				"element": "C" 
			},
			{
				"x": -1.2621642562,
				"y": -0.6402188162,
				"z": 2.1950770888,
				"element": "C" 
			},
			{
				"x": 2.3649064046,
				"y": 0.1684494067,
				"z": 1.4973148087,
				"element": "O" 
			},
			{
				"x": 2.2691993209,
				"y": 0.9982073258,
				"z": 0.3988072668,
				"element": "C" 
			},
			{
				"x": 1.1123417471,
				"y": 1.2879012455,
				"z": -0.2144522507,
				"element": "C" 
			},
			{
				"x": 1.0707995203,
				"y": 2.2538273781,
				"z": -1.3782076049,
				"element": "C" 
			},
			{
				"x": 2.3562249374,
				"y": 3.0810691654,
				"z": -1.5232043593,
				"element": "C" 
			},
			{
				"x": 3.5953823898,
				"y": 2.1909870376,
				"z": -1.3727033452,
				"element": "C" 
			},
			{
				"x": 3.6199532097,
				"y": 1.5374547765,
				"z": 0.0153898883,
				"element": "C" 
			},
			{
				"x": -1.6497946747,
				"y": -4.4930354134,
				"z": -3.6295376971,
				"element": "H" 
			},
			{
				"x": -2.4302331206,
				"y": -4.1593692604,
				"z": -5.1981905782,
				"element": "H" 
			},
			{
				"x": -0.8083371577,
				"y": -3.5015268986,
				"z": -4.8549249019,
				"element": "H" 
			},
			{
				"x": -0.0582905754,
				"y": -3.0585733646,
				"z": -2.6779088853,
				"element": "H" 
			},
			{
				"x": 0.8540319844,
				"y": -1.6305339541,
				"z": -0.8986609982,
				"element": "H" 
			},
			{
				"x": -2.5663942527,
				"y": 0.9410950911,
				"z": -1.1671951702,
				"element": "H" 
			},
			{
				"x": -3.4987736543,
				"y": -0.497111977,
				"z": -2.969200917,
				"element": "H" 
			},
			{
				"x": -0.936342517,
				"y": 1.447389237,
				"z": 0.3792963048,
				"element": "H" 
			},
			{
				"x": 2.2310671836,
				"y": -0.488866368,
				"z": 3.9041161498,
				"element": "H" 
			},
			{
				"x": 1.9278965199,
				"y": -2.0168546884,
				"z": 3.1003401401,
				"element": "H" 
			},
			{
				"x": 0.3804316201,
				"y": -1.9642769779,
				"z": 4.969931119,
				"element": "H" 
			},
			{
				"x": -0.0657291367,
				"y": -0.2900990194,
				"z": 4.656059664,
				"element": "H" 
			},
			{
				"x": -1.8630597618,
				"y": -1.8734693018,
				"z": 3.8770038766,
				"element": "H" 
			},
			{
				"x": -0.7026289649,
				"y": -2.6395427636,
				"z": 2.7965679031,
				"element": "H" 
			},
			{
				"x": -1.9335510381,
				"y": -1.0658063336,
				"z": 1.4391144747,
				"element": "H" 
			},
			{
				"x": -1.813557685,
				"y": 0.2065463036,
				"z": 2.6359403963,
				"element": "H" 
			},
			{
				"x": 0.874691186,
				"y": 1.6989770377,
				"z": -2.3074002705,
				"element": "H" 
			},
			{
				"x": 0.2070300314,
				"y": 2.92327802,
				"z": -1.2541673328,
				"element": "H" 
			},
			{
				"x": 2.3640459292,
				"y": 3.5957024973,
				"z": -2.4908367038,
				"element": "H" 
			},
			{
				"x": 2.3789776933,
				"y": 3.8607109562,
				"z": -0.7499414406,
				"element": "H" 
			},
			{
				"x": 4.5136696439,
				"y": 2.767398137,
				"z": -1.5311313329,
				"element": "H" 
			},
			{
				"x": 3.5742537453,
				"y": 1.4092361341,
				"z": -2.1433077944,
				"element": "H" 
			},
			{
				"x": 4.3471530376,
				"y": 0.7169307916,
				"z": 0.0523337681,
				"element": "H" 
			},
			{
				"x": 3.9461963193,
				"y": 2.2619132764,
				"z": 0.7759245776,
				"element": "H" 
			}
		],
		 "valence_orbital": [ 
			{
				"type": "occ",
				"energy": -0.28945,
				"method": "rhf"
			},
			{
				"type": "occ",
				"energy": -0.24549,
				"method": "rhf"
			},
			{
				"type": "occ",
				"energy": -0.23236,
				"method": "rhf"
			},
			{
				"type": "occ",
				"energy": -0.20772,
				"method": "rhf"
			},
			{
				"type": "occ",
				"energy": -0.19038,
				"method": "rhf"
			},
			{
				"type": "unocc",
				"energy": 0.00153,
				"method": "rhf"
			},
			{
				"type": "unocc",
				"energy": 0.01098,
				"method": "rhf"
			},
			{
				"type": "unocc",
				"energy": 0.04113,
				"method": "rhf"
			},
			{
				"type": "unocc",
				"energy": 0.05918,
				"method": "rhf"
			},
			{
				"type": "unocc",
				"energy": 0.09411,
				"method": "rhf"
			}
		],
		"cosmo_sigma_profile": { 
			"-0.025": 0.0,
			"-0.024": 0.0,
			"-0.023": 0.0,
			"-0.022": 0.0,
			"-0.021": 0.0,
			"-0.02": 0.0,
			"-0.019": 0.0,
			"-0.018": 0.0,
			"-0.017": 0.0,
			"-0.016": 0.0,
			"-0.015": 0.0,
			"-0.014": 0.0,
			"-0.013": 0.0,
			"-0.012": 0.0,
			"-0.011": 0.0,
			"-0.01": 0.0,
			"-0.009": 0.0,
			"-0.008": 0.0,
			"-0.007": 0.0135680200302,
			"-0.006": 3.97991380608,
			"-0.005": 13.9335804866,
			"-0.004": 18.2119299156,
			"-0.003": 36.5750109597,
			"-0.002": 49.9738192656,
			"-0.001": 54.5561403778,
			"0.0": 49.8288634127,
			"0.001": 35.1986598783,
			"0.002": 17.5244803465,
			"0.003": 15.7173549149,
			"0.004": 18.8544836125,
			"0.005": 15.9421713809,
			"0.006": 9.25725830483,
			"0.007": 2.9840429694,
			"0.008": 3.31157328472,
			"0.009": 2.58644251194,
			"0.01": 2.3418882822,
			"0.011": 0.860948735767,
			"0.012": 0.0,
			"0.013": 0.0,
			"0.014": 0.0,
			"0.015": 0.0,
			"0.016": 0.0,
			"0.017": 0.0,
			"0.018": 0.0,
			"0.019": 0.0,
			"0.02": 0.0,
			"0.021": 0.0,
			"0.022": 0.0,
			"0.023": 0.0,
			"0.024": 0.0,
			"0.025": 0.0
		}
	}
}
