{
	 "smiles": "FC(F)(F)C(Cl)C(F)(F)F", 
	 "Tm": 153.15, 
	 "num_atms": 11, 
	 "gaussian": { 
		 "optdone": 1, 
		 "sigma_profile": "yes", 
		 "theory": "DFT", 
		 "functional": "B3LYP", 
		 "basiset": "6-31G**", 
		 "properties": { 
			 "R2extent": 2430.259, 
			 "electric_dipole_moment_norm": 1.27795946728, 
			 "electric_quadrupole_moment_norm": 1.76199554483, 
			 "total_energy": -1174.1554298, 
			 "HOMO_LUMO_gap": 0.31322, 
			 "cosmo_polarized_energy": -3.86, 
			 "cosmo_cavitation_energy": 19.47, 
			 "cosmo_dispersion_energy": -13.69, 
			 "cosmo_repulsion_energy": 1.01, 
			 "cosmo_total_nonelectrostatic_energy": 6.79, 
			 "SMD_solvation_energy": 5.35 
		},
		"coords": [
			{
				"x": -1.0244783011,
				"y": 3.1251736163,
				"z": 0.1650577188,
				"element": "F" 
			},
			{
				"x": -1.4007646905,
				"y": 1.8501221874,
				"z": 0.3486744925,
				"element": "C" 
			},
			{
				"x": -0.756807955,
				"y": 1.3812020568,
				"z": 1.43282761,
				"element": "F" 
			},
			{
				"x": -2.7160500394,
				"y": 1.8260259638,
				"z": 0.5953014528,
				"element": "F" 
			},
			{
				"x": -1.0258247059,
				"y": 1.0080806228,
				"z": -0.8821966628,
				"element": "C" 
			},
			{
				"x": -1.7872692367,
				"y": 1.6920565988,
				"z": -2.351283229,
				"element": "Cl" 
			},
			{
				"x": -1.3910271555,
				"y": -0.4789520234,
				"z": -0.7405845499,
				"element": "C" 
			},
			{
				"x": -0.7460206679,
				"y": -1.0062462222,
				"z": 0.3157670654,
				"element": "F" 
			},
			{
				"x": -1.007494054,
				"y": -1.1526513732,
				"z": -1.8360666563,
				"element": "F" 
			},
			{
				"x": -2.7055345472,
				"y": -0.6617482252,
				"z": -0.5671771381,
				"element": "F" 
			},
			{
				"x": 0.0562713532,
				"y": 1.070836798,
				"z": -1.0067201035,
				"element": "H" 
			}
		],
		 "valence_orbital": [ 
			{
				"type": "occ",
				"energy": -0.42359,
				"method": "rhf"
			},
			{
				"type": "occ",
				"energy": -0.41938,
				"method": "rhf"
			},
			{
				"type": "occ",
				"energy": -0.40525,
				"method": "rhf"
			},
			{
				"type": "occ",
				"energy": -0.33636,
				"method": "rhf"
			},
			{
				"type": "occ",
				"energy": -0.33472,
				"method": "rhf"
			},
			{
				"type": "unocc",
				"energy": -0.0215,
				"method": "rhf"
			},
			{
				"type": "unocc",
				"energy": 0.06989,
				"method": "rhf"
			},
			{
				"type": "unocc",
				"energy": 0.11381,
				"method": "rhf"
			},
			{
				"type": "unocc",
				"energy": 0.12107,
				"method": "rhf"
			},
			{
				"type": "unocc",
				"energy": 0.14469,
				"method": "rhf"
			}
		],
		"cosmo_sigma_profile": { 
			"-0.025": 0.0,
			"-0.024": 0.0,
			"-0.023": 0.0,
			"-0.022": 0.0,
			"-0.021": 0.0,
			"-0.02": 0.0,
			"-0.019": 0.0,
			"-0.018": 0.0,
			"-0.017": 0.0,
			"-0.016": 0.0,
			"-0.015": 0.0,
			"-0.014": 0.588239400056,
			"-0.013": 2.31660346551,
			"-0.012": 2.24899842951,
			"-0.011": 1.55034845519,
			"-0.01": 1.09839013783,
			"-0.009": 1.15856414962,
			"-0.008": 1.1032615153,
			"-0.007": 1.28150210411,
			"-0.006": 0.953930294986,
			"-0.005": 1.84488825482,
			"-0.004": 2.72559386813,
			"-0.003": 4.60354017176,
			"-0.002": 6.58455267415,
			"-0.001": 8.612983106,
			"0.0": 14.257642859,
			"0.001": 43.1690803022,
			"0.002": 53.5085727149,
			"0.003": 10.0153045746,
			"0.004": 0.60003348531,
			"0.005": 0.0,
			"0.006": 0.0,
			"0.007": 0.0,
			"0.008": 0.0,
			"0.009": 0.0,
			"0.01": 0.0,
			"0.011": 0.0,
			"0.012": 0.0,
			"0.013": 0.0,
			"0.014": 0.0,
			"0.015": 0.0,
			"0.016": 0.0,
			"0.017": 0.0,
			"0.018": 0.0,
			"0.019": 0.0,
			"0.02": 0.0,
			"0.021": 0.0,
			"0.022": 0.0,
			"0.023": 0.0,
			"0.024": 0.0,
			"0.025": 0.0
		}
	}
}
