{
	 "smiles": "CC1=CC=C(C)N1CC1CCNCC1", 
	 "Tm": 323.15, 
	 "num_atms": 34, 
	 "gaussian": { 
		 "optdone": 1, 
		 "sigma_profile": "yes", 
		 "theory": "DFT", 
		 "functional": "B3LYP", 
		 "basiset": "6-31G**", 
		 "properties": { 
			 "R2extent": 4031.7104, 
			 "electric_dipole_moment_norm": 2.22475173896, 
			 "electric_quadrupole_moment_norm": 8.50806215422, 
			 "total_energy": -578.834685091, 
			 "HOMO_LUMO_gap": 0.23027, 
			 "cosmo_polarized_energy": -8.13, 
			 "cosmo_cavitation_energy": 32.65, 
			 "cosmo_dispersion_energy": -23.39, 
			 "cosmo_repulsion_energy": 1.82, 
			 "cosmo_total_nonelectrostatic_energy": 11.09, 
			 "SMD_solvation_energy": 2.63 
		},
		"coords": [
			{
				"x": -0.0271055978,
				"y": 2.7076000576,
				"z": 1.5553242829,
				"element": "C" 
			},
			{
				"x": 1.3081918125,
				"y": 2.595381814,
				"z": 0.8888338038,
				"element": "C" 
			},
			{
				"x": 2.3408664722,
				"y": 3.5082942543,
				"z": 0.8569468392,
				"element": "C" 
			},
			{
				"x": 3.4229346791,
				"y": 2.9170451547,
				"z": 0.1506502222,
				"element": "C" 
			},
			{
				"x": 3.0348218111,
				"y": 1.6515666758,
				"z": -0.2365933329,
				"element": "C" 
			},
			{
				"x": 3.8332787924,
				"y": 0.6046753768,
				"z": -0.948048969,
				"element": "C" 
			},
			{
				"x": 1.7313653331,
				"y": 1.4576122576,
				"z": 0.2090236178,
				"element": "N" 
			},
			{
				"x": 0.9263596966,
				"y": 0.2556841969,
				"z": 0.0181102668,
				"element": "C" 
			},
			{
				"x": -0.1703695099,
				"y": 0.3837326824,
				"z": -1.068160298,
				"element": "C" 
			},
			{
				"x": -1.1732413756,
				"y": -0.7903459546,
				"z": -1.0007068198,
				"element": "C" 
			},
			{
				"x": -0.6208330835,
				"y": -2.0773344176,
				"z": -1.625786171,
				"element": "C" 
			},
			{
				"x": -0.2240559029,
				"y": -1.8090263854,
				"z": -3.0081007368,
				"element": "N" 
			},
			{
				"x": 0.8616250515,
				"y": -0.8291976849,
				"z": -3.0763336363,
				"element": "C" 
			},
			{
				"x": 0.386939302,
				"y": 0.5122464721,
				"z": -2.5025016138,
				"element": "C" 
			},
			{
				"x": -0.0666832244,
				"y": 3.6456891779,
				"z": 2.1147013053,
				"element": "H" 
			},
			{
				"x": -0.2103934533,
				"y": 1.8947743975,
				"z": 2.2705280319,
				"element": "H" 
			},
			{
				"x": -0.8692805858,
				"y": 2.7122441011,
				"z": 0.8517570821,
				"element": "H" 
			},
			{
				"x": 2.315250848,
				"y": 4.4915354223,
				"z": 1.3074526652,
				"element": "H" 
			},
			{
				"x": 4.3915969427,
				"y": 3.3566383565,
				"z": -0.046063505,
				"element": "H" 
			},
			{
				"x": 3.4088481358,
				"y": 0.3144606943,
				"z": -1.9166033208,
				"element": "H" 
			},
			{
				"x": 4.8367347577,
				"y": 0.9947682336,
				"z": -1.1365443232,
				"element": "H" 
			},
			{
				"x": 3.9491943153,
				"y": -0.313630106,
				"z": -0.3568002999,
				"element": "H" 
			},
			{
				"x": 1.6060589175,
				"y": -0.5693950364,
				"z": -0.206951565,
				"element": "H" 
			},
			{
				"x": 0.4465216212,
				"y": 0.009027699,
				"z": 0.9727267338,
				"element": "H" 
			},
			{
				"x": -0.7206569364,
				"y": 1.3043417942,
				"z": -0.8429741983,
				"element": "H" 
			},
			{
				"x": -2.0761725575,
				"y": -0.5100806102,
				"z": -1.5552675351,
				"element": "H" 
			},
			{
				"x": -1.4751318407,
				"y": -0.9783590164,
				"z": 0.0375397512,
				"element": "H" 
			},
			{
				"x": 0.2152848838,
				"y": -2.4644995548,
				"z": -1.0093538515,
				"element": "H" 
			},
			{
				"x": -1.397134317,
				"y": -2.8506617972,
				"z": -1.6264626944,
				"element": "H" 
			},
			{
				"x": 0.0614964519,
				"y": -2.6730140827,
				"z": -3.4603233292,
				"element": "H" 
			},
			{
				"x": 1.7667760342,
				"y": -1.1703608381,
				"z": -2.5365105759,
				"element": "H" 
			},
			{
				"x": 1.1509433579,
				"y": -0.6982827573,
				"z": -4.1250499029,
				"element": "H" 
			},
			{
				"x": 1.1990918431,
				"y": 1.2471165268,
				"z": -2.5289615033,
				"element": "H" 
			},
			{
				"x": -0.4111226747,
				"y": 0.891052896,
				"z": -3.15159642,
				"element": "H" 
			}
		],
		 "valence_orbital": [ 
			{
				"type": "occ",
				"energy": -0.3108,
				"method": "rhf"
			},
			{
				"type": "occ",
				"energy": -0.30877,
				"method": "rhf"
			},
			{
				"type": "occ",
				"energy": -0.22173,
				"method": "rhf"
			},
			{
				"type": "occ",
				"energy": -0.21616,
				"method": "rhf"
			},
			{
				"type": "occ",
				"energy": -0.18209,
				"method": "rhf"
			},
			{
				"type": "unocc",
				"energy": 0.04818,
				"method": "rhf"
			},
			{
				"type": "unocc",
				"energy": 0.06966,
				"method": "rhf"
			},
			{
				"type": "unocc",
				"energy": 0.08565,
				"method": "rhf"
			},
			{
				"type": "unocc",
				"energy": 0.10043,
				"method": "rhf"
			},
			{
				"type": "unocc",
				"energy": 0.10247,
				"method": "rhf"
			}
		],
		"cosmo_sigma_profile": { 
			"-0.025": 0.0,
			"-0.024": 0.0,
			"-0.023": 0.0,
			"-0.022": 0.0,
			"-0.021": 0.0,
			"-0.02": 0.0,
			"-0.019": 0.0,
			"-0.018": 0.0,
			"-0.017": 0.0,
			"-0.016": 0.0,
			"-0.015": 0.0,
			"-0.014": 0.0,
			"-0.013": 0.0,
			"-0.012": 0.0,
			"-0.011": 0.0,
			"-0.01": 0.582480667969,
			"-0.009": 1.25576493894,
			"-0.008": 1.10065969207,
			"-0.007": 1.4988566262,
			"-0.006": 1.51487512114,
			"-0.005": 4.91924357516,
			"-0.004": 20.9595401132,
			"-0.003": 32.3836601864,
			"-0.002": 38.8667924555,
			"-0.001": 40.1908272451,
			"0.0": 33.9408764316,
			"0.001": 20.0498568742,
			"0.002": 9.42199783977,
			"0.003": 6.51215075144,
			"0.004": 5.58477404038,
			"0.005": 5.97350263481,
			"0.006": 4.57796992115,
			"0.007": 5.68229203689,
			"0.008": 4.85327464288,
			"0.009": 4.47388601249,
			"0.01": 3.65780327178,
			"0.011": 1.91784223524,
			"0.012": 0.307382146993,
			"0.013": 0.345309987778,
			"0.014": 0.579566371442,
			"0.015": 0.73258050631,
			"0.016": 0.459738749873,
			"0.017": 0.375232863018,
			"0.018": 0.451360543693,
			"0.019": 0.204167011505,
			"0.02": 0.0,
			"0.021": 0.0,
			"0.022": 0.0,
			"0.023": 0.0,
			"0.024": 0.0,
			"0.025": 0.0
		}
	}
}
