{
	 "smiles": "NC1=CN=C(OC2=CC(=CC=C2)C#N)C=C1", 
	 "Tm": 378.15, 
	 "num_atms": 25, 
	 "gaussian": { 
		 "optdone": 1, 
		 "sigma_profile": "yes", 
		 "theory": "DFT", 
		 "functional": "B3LYP", 
		 "basiset": "6-31G**", 
		 "properties": { 
			 "R2extent": 5022.632, 
			 "electric_dipole_moment_norm": 6.52690776402, 
			 "electric_quadrupole_moment_norm": 27.6180947393, 
			 "total_energy": -702.15435357, 
			 "HOMO_LUMO_gap": 0.16657, 
			 "cosmo_polarized_energy": -16.23, 
			 "cosmo_cavitation_energy": 31.49, 
			 "cosmo_dispersion_energy": -22.38, 
			 "cosmo_repulsion_energy": 1.76, 
			 "cosmo_total_nonelectrostatic_energy": 10.86, 
			 "SMD_solvation_energy": 6.29 
		},
		"coords": [
			{
				"x": -3.5719938072,
				"y": 3.8656288598,
				"z": -1.7755506402,
				"element": "N" 
			},
			{
				"x": -2.8124137583,
				"y": 3.1243733418,
				"z": -0.8694578604,
				"element": "C" 
			},
			{
				"x": -2.0353262001,
				"y": 2.0334371113,
				"z": -1.2842432787,
				"element": "C" 
			},
			{
				"x": -1.3337154665,
				"y": 1.2582874925,
				"z": -0.4486293114,
				"element": "N" 
			},
			{
				"x": -1.382171419,
				"y": 1.5299915235,
				"z": 0.8428723969,
				"element": "C" 
			},
			{
				"x": -0.6328129214,
				"y": 0.7928298691,
				"z": 1.736046404,
				"element": "O" 
			},
			{
				"x": -0.1624662,
				"y": -0.4674683945,
				"z": 1.4412934364,
				"element": "C" 
			},
			{
				"x": -0.8942373895,
				"y": -1.4175126489,
				"z": 0.727628351,
				"element": "C" 
			},
			{
				"x": -0.3575644448,
				"y": -2.7036462161,
				"z": 0.5637166833,
				"element": "C" 
			},
			{
				"x": 0.8914433728,
				"y": -3.0415951601,
				"z": 1.1118726055,
				"element": "C" 
			},
			{
				"x": 1.5991826535,
				"y": -2.0792013362,
				"z": 1.8266970388,
				"element": "C" 
			},
			{
				"x": 1.0803149177,
				"y": -0.7952193,
				"z": 1.9903742265,
				"element": "C" 
			},
			{
				"x": -1.1022639277,
				"y": -3.687124516,
				"z": -0.1701456664,
				"element": "C" 
			},
			{
				"x": -1.7030936095,
				"y": -4.4878718449,
				"z": -0.7627024505,
				"element": "N" 
			},
			{
				"x": -2.1215757939,
				"y": 2.5880903786,
				"z": 1.3843455954,
				"element": "C" 
			},
			{
				"x": -2.840522749,
				"y": 3.3910757848,
				"z": 0.5122925353,
				"element": "C" 
			},
			{
				"x": -3.7604826303,
				"y": 4.8196497327,
				"z": -1.4994869954,
				"element": "H" 
			},
			{
				"x": -3.2622158134,
				"y": 3.8110998366,
				"z": -2.7365447768,
				"element": "H" 
			},
			{
				"x": -1.9770953743,
				"y": 1.7758120755,
				"z": -2.3412344548,
				"element": "H" 
			},
			{
				"x": -1.8541526695,
				"y": -1.1698506192,
				"z": 0.2960606801,
				"element": "H" 
			},
			{
				"x": 1.2886263091,
				"y": -4.0408471386,
				"z": 0.973272559,
				"element": "H" 
			},
			{
				"x": 2.5645782669,
				"y": -2.326498363,
				"z": 2.257019924,
				"element": "H" 
			},
			{
				"x": 1.6207657394,
				"y": -0.0341095233,
				"z": 2.5430457822,
				"element": "H" 
			},
			{
				"x": -2.1205324673,
				"y": 2.7620786747,
				"z": 2.4542942636,
				"element": "H" 
			},
			{
				"x": -3.4317746176,
				"y": 4.2191903799,
				"z": 0.8945629526,
				"element": "H" 
			}
		],
		 "valence_orbital": [ 
			{
				"type": "occ",
				"energy": -0.28664,
				"method": "rhf"
			},
			{
				"type": "occ",
				"energy": -0.27715,
				"method": "rhf"
			},
			{
				"type": "occ",
				"energy": -0.25894,
				"method": "rhf"
			},
			{
				"type": "occ",
				"energy": -0.24997,
				"method": "rhf"
			},
			{
				"type": "occ",
				"energy": -0.20912,
				"method": "rhf"
			},
			{
				"type": "unocc",
				"energy": -0.04255,
				"method": "rhf"
			},
			{
				"type": "unocc",
				"energy": -0.0319,
				"method": "rhf"
			},
			{
				"type": "unocc",
				"energy": -0.01389,
				"method": "rhf"
			},
			{
				"type": "unocc",
				"energy": 0.01024,
				"method": "rhf"
			},
			{
				"type": "unocc",
				"energy": 0.0452,
				"method": "rhf"
			}
		],
		"cosmo_sigma_profile": { 
			"-0.025": 0.0,
			"-0.024": 0.0,
			"-0.023": 0.0,
			"-0.022": 0.0,
			"-0.021": 0.0,
			"-0.02": 0.0,
			"-0.019": 0.0,
			"-0.018": 0.0,
			"-0.017": 0.0,
			"-0.016": 0.0,
			"-0.015": 0.0,
			"-0.014": 0.0,
			"-0.013": 1.30131891393,
			"-0.012": 3.14030477865,
			"-0.011": 2.90940008909,
			"-0.01": 3.44517887854,
			"-0.009": 3.67349853517,
			"-0.008": 6.10943246429,
			"-0.007": 13.4620173402,
			"-0.006": 15.0754410117,
			"-0.005": 13.9418693057,
			"-0.004": 11.5057696343,
			"-0.003": 11.0571259341,
			"-0.002": 12.8289981971,
			"-0.001": 15.3184614957,
			"0.0": 14.7187945964,
			"0.001": 21.8223717481,
			"0.002": 27.2152529852,
			"0.003": 20.7514787813,
			"0.004": 8.87984069192,
			"0.005": 6.32114358071,
			"0.006": 5.63322481911,
			"0.007": 7.04804361941,
			"0.008": 5.60000538638,
			"0.009": 5.77356333546,
			"0.01": 4.90744766549,
			"0.011": 4.15807157963,
			"0.012": 3.76249639876,
			"0.013": 2.91783069266,
			"0.014": 0.70626690053,
			"0.015": 0.0537931625297,
			"0.016": 0.0,
			"0.017": 0.0,
			"0.018": 0.0,
			"0.019": 0.0,
			"0.02": 0.0,
			"0.021": 0.0,
			"0.022": 0.0,
			"0.023": 0.0,
			"0.024": 0.0,
			"0.025": 0.0
		}
	}
}
