{
	 "smiles": "CN(C)C(=O)COC1=C(C=O)C=CC=C1", 
	 "Tm": 363.15, 
	 "num_atms": 28, 
	 "gaussian": { 
		 "optdone": 1, 
		 "sigma_profile": "yes", 
		 "theory": "DFT", 
		 "functional": "B3LYP", 
		 "basiset": "6-31G**", 
		 "properties": { 
			 "R2extent": 4098.2782, 
			 "electric_dipole_moment_norm": 1.37957355005, 
			 "electric_quadrupole_moment_norm": 17.8371041044, 
			 "total_energy": -707.412862245, 
			 "HOMO_LUMO_gap": 0.17374, 
			 "cosmo_polarized_energy": -14.2, 
			 "cosmo_cavitation_energy": 32.36, 
			 "cosmo_dispersion_energy": -21.99, 
			 "cosmo_repulsion_energy": 1.72, 
			 "cosmo_total_nonelectrostatic_energy": 12.09, 
			 "SMD_solvation_energy": 7.29 
		},
		"coords": [
			{
				"x": 3.3769504671,
				"y": 0.7625213675,
				"z": -0.3727536579,
				"element": "C" 
			},
			{
				"x": 2.4040095548,
				"y": 0.1570892818,
				"z": -1.2738417807,
				"element": "N" 
			},
			{
				"x": 2.1633130682,
				"y": 0.8768988274,
				"z": -2.5213365895,
				"element": "C" 
			},
			{
				"x": 1.9114832386,
				"y": -1.0782257581,
				"z": -0.9659616639,
				"element": "C" 
			},
			{
				"x": 2.2284750649,
				"y": -1.7001098129,
				"z": 0.0481086359,
				"element": "O" 
			},
			{
				"x": 0.9254952771,
				"y": -1.7323853229,
				"z": -1.9509306328,
				"element": "C" 
			},
			{
				"x": -0.2192412409,
				"y": -0.9487048685,
				"z": -2.2762061477,
				"element": "O" 
			},
			{
				"x": -1.1951663139,
				"y": -0.7602361095,
				"z": -1.3518059552,
				"element": "C" 
			},
			{
				"x": -2.3026904932,
				"y": 0.0285956024,
				"z": -1.7576994691,
				"element": "C" 
			},
			{
				"x": -2.3986365895,
				"y": 0.7138463437,
				"z": -3.0639549308,
				"element": "C" 
			},
			{
				"x": -1.546982395,
				"y": 0.7839708129,
				"z": -3.9302478047,
				"element": "O" 
			},
			{
				"x": -3.3681339544,
				"y": 0.2040007486,
				"z": -0.861937102,
				"element": "C" 
			},
			{
				"x": -3.3525795409,
				"y": -0.3544961371,
				"z": 0.4115422807,
				"element": "C" 
			},
			{
				"x": -2.2402519352,
				"y": -1.1017829654,
				"z": 0.8031327861,
				"element": "C" 
			},
			{
				"x": -1.1645494138,
				"y": -1.3080143353,
				"z": -0.0624601035,
				"element": "C" 
			},
			{
				"x": 3.0553644992,
				"y": 1.77335007,
				"z": -0.0970628434,
				"element": "H" 
			},
			{
				"x": 4.3603548079,
				"y": 0.8326426079,
				"z": -0.8553620056,
				"element": "H" 
			},
			{
				"x": 3.4577495641,
				"y": 0.1426544027,
				"z": 0.5184219912,
				"element": "H" 
			},
			{
				"x": 1.2797752516,
				"y": 0.5068305486,
				"z": -3.0369712213,
				"element": "H" 
			},
			{
				"x": 3.0365966342,
				"y": 0.8141402149,
				"z": -3.185020186,
				"element": "H" 
			},
			{
				"x": 1.9903465473,
				"y": 1.9346411663,
				"z": -2.2946852121,
				"element": "H" 
			},
			{
				"x": 0.6427979083,
				"y": -2.6933326376,
				"z": -1.5136183078,
				"element": "H" 
			},
			{
				"x": 1.4146480998,
				"y": -1.9171255801,
				"z": -2.9118665289,
				"element": "H" 
			},
			{
				"x": -3.382022167,
				"y": 1.2204930522,
				"z": -3.2043769681,
				"element": "H" 
			},
			{
				"x": -4.2166320289,
				"y": 0.8029499975,
				"z": -1.185326652,
				"element": "H" 
			},
			{
				"x": -4.1847968994,
				"y": -0.2045584086,
				"z": 1.0913653867,
				"element": "H" 
			},
			{
				"x": -2.1994993932,
				"y": -1.5336657492,
				"z": 1.7990844379,
				"element": "H" 
			},
			{
				"x": -0.303077618,
				"y": -1.8694873594,
				"z": 0.2791702445,
				"element": "H" 
			}
		],
		 "valence_orbital": [ 
			{
				"type": "occ",
				"energy": -0.26508,
				"method": "rhf"
			},
			{
				"type": "occ",
				"energy": -0.25859,
				"method": "rhf"
			},
			{
				"type": "occ",
				"energy": -0.24512,
				"method": "rhf"
			},
			{
				"type": "occ",
				"energy": -0.24355,
				"method": "rhf"
			},
			{
				"type": "occ",
				"energy": -0.2312,
				"method": "rhf"
			},
			{
				"type": "unocc",
				"energy": -0.05746,
				"method": "rhf"
			},
			{
				"type": "unocc",
				"energy": -0.00434,
				"method": "rhf"
			},
			{
				"type": "unocc",
				"energy": 0.00725,
				"method": "rhf"
			},
			{
				"type": "unocc",
				"energy": 0.04192,
				"method": "rhf"
			},
			{
				"type": "unocc",
				"energy": 0.08792,
				"method": "rhf"
			}
		],
		"cosmo_sigma_profile": { 
			"-0.025": 0.0,
			"-0.024": 0.0,
			"-0.023": 0.0,
			"-0.022": 0.0,
			"-0.021": 0.0,
			"-0.02": 0.0,
			"-0.019": 0.0,
			"-0.018": 0.0,
			"-0.017": 0.0,
			"-0.016": 0.0,
			"-0.015": 0.0,
			"-0.014": 0.0,
			"-0.013": 0.0,
			"-0.012": 0.0,
			"-0.011": 0.0,
			"-0.01": 0.0,
			"-0.009": 0.0318635796188,
			"-0.008": 2.99073302289,
			"-0.007": 8.77271129156,
			"-0.006": 15.1807022012,
			"-0.005": 24.7158192173,
			"-0.004": 25.4528423247,
			"-0.003": 21.4905134146,
			"-0.002": 24.7385162104,
			"-0.001": 15.8217969322,
			"0.0": 16.4400821502,
			"0.001": 15.6273026069,
			"0.002": 14.7421474255,
			"0.003": 14.8585031093,
			"0.004": 10.5875819548,
			"0.005": 9.51637057888,
			"0.006": 5.0019000668,
			"0.007": 3.50953203967,
			"0.008": 2.93661488684,
			"0.009": 3.63752984893,
			"0.01": 5.46733054993,
			"0.011": 4.04397609595,
			"0.012": 3.54931975425,
			"0.013": 4.99359607355,
			"0.014": 2.52030605017,
			"0.015": 0.0707916578881,
			"0.016": 0.0,
			"0.017": 0.0,
			"0.018": 0.0,
			"0.019": 0.0,
			"0.02": 0.0,
			"0.021": 0.0,
			"0.022": 0.0,
			"0.023": 0.0,
			"0.024": 0.0,
			"0.025": 0.0
		}
	}
}
