{
	 "smiles": "CC1=NNC(=N1)C1=C(N)C=CC=C1", 
	 "Tm": 427.15, 
	 "num_atms": 23, 
	 "gaussian": { 
		 "optdone": 1, 
		 "sigma_profile": "yes", 
		 "theory": "DFT", 
		 "functional": "B3LYP", 
		 "basiset": "6-31G**", 
		 "properties": { 
			 "R2extent": 2971.602, 
			 "electric_dipole_moment_norm": 1.41660741562, 
			 "electric_quadrupole_moment_norm": 8.55303452875, 
			 "total_energy": -568.005013425, 
			 "HOMO_LUMO_gap": 0.1639, 
			 "cosmo_polarized_energy": -12.46, 
			 "cosmo_cavitation_energy": 26.57, 
			 "cosmo_dispersion_energy": -20.25, 
			 "cosmo_repulsion_energy": 1.6, 
			 "cosmo_total_nonelectrostatic_energy": 7.92, 
			 "SMD_solvation_energy": 2.4 
		},
		"coords": [
			{
				"x": -0.6323479526,
				"y": -2.948037859,
				"z": -2.562674744,
				"element": "C" 
			},
			{
				"x": -1.112594408,
				"y": -1.6643429305,
				"z": -1.9695891841,
				"element": "C" 
			},
			{
				"x": -2.1314542854,
				"y": -0.982777962,
				"z": -2.472017307,
				"element": "N" 
			},
			{
				"x": -2.2066913731,
				"y": 0.0874634539,
				"z": -1.6346216858,
				"element": "N" 
			},
			{
				"x": -1.2528146596,
				"y": 0.0246040019,
				"z": -0.6683326151,
				"element": "C" 
			},
			{
				"x": -0.5442127634,
				"y": -1.0910062796,
				"z": -0.8669322034,
				"element": "N" 
			},
			{
				"x": -1.0537445474,
				"y": 1.0194848146,
				"z": 0.3826009076,
				"element": "C" 
			},
			{
				"x": -0.135125072,
				"y": 0.7809788836,
				"z": 1.448606465,
				"element": "C" 
			},
			{
				"x": 0.5591852623,
				"y": -0.3937107964,
				"z": 1.5517025384,
				"element": "N" 
			},
			{
				"x": 0.0179649196,
				"y": 1.7848669635,
				"z": 2.4318139805,
				"element": "C" 
			},
			{
				"x": -0.6983638747,
				"y": 2.9693337592,
				"z": 2.3761432247,
				"element": "C" 
			},
			{
				"x": -1.600310608,
				"y": 3.2079116221,
				"z": 1.3305248455,
				"element": "C" 
			},
			{
				"x": -1.7614875264,
				"y": 2.2357637804,
				"z": 0.3543282757,
				"element": "C" 
			},
			{
				"x": 0.4125167357,
				"y": -2.8632977247,
				"z": -2.8786181769,
				"element": "H" 
			},
			{
				"x": -1.2430884132,
				"y": -3.2109533752,
				"z": -3.4280721833,
				"element": "H" 
			},
			{
				"x": -0.6879605118,
				"y": -3.7587417391,
				"z": -1.8290130324,
				"element": "H" 
			},
			{
				"x": -2.9354042987,
				"y": 0.7697627413,
				"z": -1.7691764094,
				"element": "H" 
			},
			{
				"x": 1.3374154785,
				"y": -0.4300347508,
				"z": 2.1896628197,
				"element": "H" 
			},
			{
				"x": 0.5547660491,
				"y": -1.010929675,
				"z": 0.7444303751,
				"element": "H" 
			},
			{
				"x": 0.714713762,
				"y": 1.6069412891,
				"z": 3.2472581874,
				"element": "H" 
			},
			{
				"x": -0.5519236416,
				"y": 3.7175207755,
				"z": 3.1502296621,
				"element": "H" 
			},
			{
				"x": -2.1576889356,
				"y": 4.1370264576,
				"z": 1.2780482712,
				"element": "H" 
			},
			{
				"x": -2.4436493357,
				"y": 2.4348745497,
				"z": -0.4683020116,
				"element": "H" 
			}
		],
		 "valence_orbital": [ 
			{
				"type": "occ",
				"energy": -0.29623,
				"method": "rhf"
			},
			{
				"type": "occ",
				"energy": -0.27612,
				"method": "rhf"
			},
			{
				"type": "occ",
				"energy": -0.2745,
				"method": "rhf"
			},
			{
				"type": "occ",
				"energy": -0.23307,
				"method": "rhf"
			},
			{
				"type": "occ",
				"energy": -0.19525,
				"method": "rhf"
			},
			{
				"type": "unocc",
				"energy": -0.03135,
				"method": "rhf"
			},
			{
				"type": "unocc",
				"energy": 0.01474,
				"method": "rhf"
			},
			{
				"type": "unocc",
				"energy": 0.04277,
				"method": "rhf"
			},
			{
				"type": "unocc",
				"energy": 0.06538,
				"method": "rhf"
			},
			{
				"type": "unocc",
				"energy": 0.07193,
				"method": "rhf"
			}
		],
		"cosmo_sigma_profile": { 
			"-0.025": 0.0,
			"-0.024": 0.0,
			"-0.023": 0.0,
			"-0.022": 0.0,
			"-0.021": 0.0,
			"-0.02": 0.0,
			"-0.019": 0.0,
			"-0.018": 0.0,
			"-0.017": 0.690850478948,
			"-0.016": 1.58266893293,
			"-0.015": 1.30125274979,
			"-0.014": 1.12678327899,
			"-0.013": 1.34456403699,
			"-0.012": 2.52421281167,
			"-0.011": 2.77853767665,
			"-0.01": 2.90304658091,
			"-0.009": 1.71237893409,
			"-0.008": 2.51320865179,
			"-0.007": 4.23363991355,
			"-0.006": 5.87560038435,
			"-0.005": 12.2077281093,
			"-0.004": 13.9984776735,
			"-0.003": 13.247738218,
			"-0.002": 12.9938476875,
			"-0.001": 15.4051686291,
			"0.0": 13.8465085414,
			"0.001": 13.999134055,
			"0.002": 12.6949016195,
			"0.003": 14.3088210671,
			"0.004": 13.9968586654,
			"0.005": 14.4726674592,
			"0.006": 12.6435702444,
			"0.007": 5.50958945385,
			"0.008": 2.99778273415,
			"0.009": 3.1174640883,
			"0.01": 2.00807968768,
			"0.011": 1.76795053405,
			"0.012": 0.700552667409,
			"0.013": 1.51087545657,
			"0.014": 0.958134750171,
			"0.015": 0.812566238141,
			"0.016": 0.262790486651,
			"0.017": 0.0,
			"0.018": 0.0,
			"0.019": 0.0,
			"0.02": 0.0,
			"0.021": 0.0,
			"0.022": 0.0,
			"0.023": 0.0,
			"0.024": 0.0,
			"0.025": 0.0
		}
	}
}
