{
	 "smiles": "OC(=O)CC1CCC2=C1C=CC=C2", 
	 "Tm": 332.15, 
	 "num_atms": 25, 
	 "gaussian": { 
		 "optdone": 1, 
		 "sigma_profile": "yes", 
		 "theory": "DFT", 
		 "functional": "B3LYP", 
		 "basiset": "6-31G**", 
		 "properties": { 
			 "R2extent": 3302.5405, 
			 "electric_dipole_moment_norm": 4.20744405192, 
			 "electric_quadrupole_moment_norm": 14.9502899878, 
			 "total_energy": -576.868376305, 
			 "HOMO_LUMO_gap": 0.22878, 
			 "cosmo_polarized_energy": -15.13, 
			 "cosmo_cavitation_energy": 27.86, 
			 "cosmo_dispersion_energy": -20.12, 
			 "cosmo_repulsion_energy": 1.6, 
			 "cosmo_total_nonelectrostatic_energy": 9.33, 
			 "SMD_solvation_energy": 5.13 
		},
		"coords": [
			{
				"x": 0.1135960913,
				"y": 2.3473809278,
				"z": -1.8924694687,
				"element": "O" 
			},
			{
				"x": -1.161845649,
				"y": 1.900672599,
				"z": -1.7049648067,
				"element": "C" 
			},
			{
				"x": -2.0187055828,
				"y": 2.1806757053,
				"z": -2.5043443034,
				"element": "O" 
			},
			{
				"x": -1.3805846682,
				"y": 1.0399195468,
				"z": -0.4683175372,
				"element": "C" 
			},
			{
				"x": -0.6058057595,
				"y": -0.2931049192,
				"z": -0.5211156522,
				"element": "C" 
			},
			{
				"x": -0.9718823141,
				"y": -1.1826471884,
				"z": -1.740074046,
				"element": "C" 
			},
			{
				"x": -0.7349616263,
				"y": -2.6378275086,
				"z": -1.2714222459,
				"element": "C" 
			},
			{
				"x": -0.9342088047,
				"y": -2.5517524402,
				"z": 0.2269407561,
				"element": "C" 
			},
			{
				"x": -0.8611056487,
				"y": -1.2193016984,
				"z": 0.6578961527,
				"element": "C" 
			},
			{
				"x": -0.994420557,
				"y": -0.9050188791,
				"z": 2.0093595642,
				"element": "C" 
			},
			{
				"x": -1.2099419106,
				"y": -1.9351685712,
				"z": 2.9304378269,
				"element": "C" 
			},
			{
				"x": -1.2850665477,
				"y": -3.2631218276,
				"z": 2.5008130906,
				"element": "C" 
			},
			{
				"x": -1.1444246656,
				"y": -3.5784098323,
				"z": 1.1456509981,
				"element": "C" 
			},
			{
				"x": 0.6817504432,
				"y": 2.0516878826,
				"z": -1.1671250293,
				"element": "H" 
			},
			{
				"x": -1.0829904422,
				"y": 1.6122929708,
				"z": 0.4206203024,
				"element": "H" 
			},
			{
				"x": -2.4528390504,
				"y": 0.8463721452,
				"z": -0.3949521739,
				"element": "H" 
			},
			{
				"x": 0.4747900349,
				"y": -0.071595173,
				"z": -0.555157001,
				"element": "H" 
			},
			{
				"x": -2.0337802941,
				"y": -1.0397502711,
				"z": -1.9717825151,
				"element": "H" 
			},
			{
				"x": -0.4063228813,
				"y": -0.9201109932,
				"z": -2.6383141626,
				"element": "H" 
			},
			{
				"x": 0.2897410496,
				"y": -2.9626543769,
				"z": -1.5012746872,
				"element": "H" 
			},
			{
				"x": -1.4076073703,
				"y": -3.3525209808,
				"z": -1.7568373777,
				"element": "H" 
			},
			{
				"x": -0.9406718687,
				"y": 0.1251770968,
				"z": 2.3527628043,
				"element": "H" 
			},
			{
				"x": -1.3242600381,
				"y": -1.7009662529,
				"z": 3.9849574522,
				"element": "H" 
			},
			{
				"x": -1.4582523822,
				"y": -4.0549280237,
				"z": 3.2241216069,
				"element": "H" 
			},
			{
				"x": -1.2061995575,
				"y": -4.6121999376,
				"z": 0.8151904523,
				"element": "H" 
			}
		],
		 "valence_orbital": [ 
			{
				"type": "occ",
				"energy": -0.33348,
				"method": "rhf"
			},
			{
				"type": "occ",
				"energy": -0.31396,
				"method": "rhf"
			},
			{
				"type": "occ",
				"energy": -0.26799,
				"method": "rhf"
			},
			{
				"type": "occ",
				"energy": -0.25227,
				"method": "rhf"
			},
			{
				"type": "occ",
				"energy": -0.2411,
				"method": "rhf"
			},
			{
				"type": "unocc",
				"energy": -0.01232,
				"method": "rhf"
			},
			{
				"type": "unocc",
				"energy": -0.00429,
				"method": "rhf"
			},
			{
				"type": "unocc",
				"energy": 0.01201,
				"method": "rhf"
			},
			{
				"type": "unocc",
				"energy": 0.04849,
				"method": "rhf"
			},
			{
				"type": "unocc",
				"energy": 0.0912,
				"method": "rhf"
			}
		],
		"cosmo_sigma_profile": { 
			"-0.025": 0.0,
			"-0.024": 0.0,
			"-0.023": 0.0,
			"-0.022": 0.0,
			"-0.021": 0.0,
			"-0.02": 0.0,
			"-0.019": 0.0564176103786,
			"-0.018": 1.12587465719,
			"-0.017": 0.534901852302,
			"-0.016": 1.16211843239,
			"-0.015": 1.51925491846,
			"-0.014": 1.17854371021,
			"-0.013": 0.611631936898,
			"-0.012": 1.27606565189,
			"-0.011": 1.1010363703,
			"-0.01": 1.00549732827,
			"-0.009": 1.57351389141,
			"-0.008": 1.54587682842,
			"-0.007": 3.85505767363,
			"-0.006": 6.45473027432,
			"-0.005": 11.8665229775,
			"-0.004": 17.9983089853,
			"-0.003": 25.6619818875,
			"-0.002": 22.5368363981,
			"-0.001": 17.2782094671,
			"0.0": 15.3823688532,
			"0.001": 10.7865040496,
			"0.002": 9.78950198413,
			"0.003": 7.80782000122,
			"0.004": 8.11168209112,
			"0.005": 9.4852647103,
			"0.006": 10.5499426203,
			"0.007": 4.93501597874,
			"0.008": 2.34503319894,
			"0.009": 3.14179335994,
			"0.01": 4.39672990011,
			"0.011": 5.54835437353,
			"0.012": 6.00495335845,
			"0.013": 2.79886441179,
			"0.014": 0.136469214188,
			"0.015": 0.0,
			"0.016": 0.0,
			"0.017": 0.0,
			"0.018": 0.0,
			"0.019": 0.0,
			"0.02": 0.0,
			"0.021": 0.0,
			"0.022": 0.0,
			"0.023": 0.0,
			"0.024": 0.0,
			"0.025": 0.0
		}
	}
}
