{
	 "smiles": "CC(C(O)=O)(C1=CC=CC=C1)C1=CC=CC=C1", 
	 "Tm": 447.15, 
	 "num_atms": 31, 
	 "gaussian": { 
		 "optdone": 1, 
		 "sigma_profile": "yes", 
		 "theory": "DFT", 
		 "functional": "B3LYP", 
		 "basiset": "6-31G**", 
		 "properties": { 
			 "R2extent": 3811.1168, 
			 "electric_dipole_moment_norm": 1.46764074623, 
			 "electric_quadrupole_moment_norm": 9.00422759819, 
			 "total_energy": -730.49512963, 
			 "HOMO_LUMO_gap": 0.21778, 
			 "cosmo_polarized_energy": -10.8, 
			 "cosmo_cavitation_energy": 33.55, 
			 "cosmo_dispersion_energy": -23.47, 
			 "cosmo_repulsion_energy": 1.83, 
			 "cosmo_total_nonelectrostatic_energy": 11.9, 
			 "SMD_solvation_energy": 6.81 
		},
		"coords": [
			{
				"x": -0.8972062185,
				"y": -1.2821831373,
				"z": 1.748806193,
				"element": "C" 
			},
			{
				"x": -0.6737967194,
				"y": -0.5354727841,
				"z": 0.4145582217,
				"element": "C" 
			},
			{
				"x": -1.9762977002,
				"y": -0.6683112518,
				"z": -0.403861746,
				"element": "C" 
			},
			{
				"x": -1.8298806865,
				"y": -0.3138511688,
				"z": -1.702735625,
				"element": "O" 
			},
			{
				"x": -3.04578079,
				"y": -1.0177873527,
				"z": 0.0450788128,
				"element": "O" 
			},
			{
				"x": -0.4584154747,
				"y": 0.9847954042,
				"z": 0.6122667926,
				"element": "C" 
			},
			{
				"x": -0.0830860231,
				"y": 1.7905291921,
				"z": -0.4769010209,
				"element": "C" 
			},
			{
				"x": 0.0941707954,
				"y": 3.1639747344,
				"z": -0.3261294707,
				"element": "C" 
			},
			{
				"x": -0.1013774561,
				"y": 3.7682423938,
				"z": 0.918174464,
				"element": "C" 
			},
			{
				"x": -0.4761710549,
				"y": 2.9822801078,
				"z": 2.0054783771,
				"element": "C" 
			},
			{
				"x": -0.6550283036,
				"y": 1.6042907234,
				"z": 1.8530075282,
				"element": "C" 
			},
			{
				"x": 0.5165724817,
				"y": -1.2089881016,
				"z": -0.2967634319,
				"element": "C" 
			},
			{
				"x": 0.3295732802,
				"y": -2.3606813826,
				"z": -1.0747112317,
				"element": "C" 
			},
			{
				"x": 1.4153612038,
				"y": -3.037172144,
				"z": -1.6302862715,
				"element": "C" 
			},
			{
				"x": 2.7155094722,
				"y": -2.5801737731,
				"z": -1.4101827718,
				"element": "C" 
			},
			{
				"x": 2.9161507242,
				"y": -1.4439162388,
				"z": -0.6264350031,
				"element": "C" 
			},
			{
				"x": 1.8273672897,
				"y": -0.7667209097,
				"z": -0.0744638995,
				"element": "C" 
			},
			{
				"x": -1.7948274406,
				"y": -0.9300774093,
				"z": 2.2598805372,
				"element": "H" 
			},
			{
				"x": -0.0279027425,
				"y": -1.1569705624,
				"z": 2.399248772,
				"element": "H" 
			},
			{
				"x": -1.0258629228,
				"y": -2.3490817121,
				"z": 1.5542030483,
				"element": "H" 
			},
			{
				"x": -2.7158740098,
				"y": -0.3804581849,
				"z": -2.0971460423,
				"element": "H" 
			},
			{
				"x": 0.069829312,
				"y": 1.3343560149,
				"z": -1.4483610087,
				"element": "H" 
			},
			{
				"x": 0.3867197847,
				"y": 3.7634701657,
				"z": -1.1836698617,
				"element": "H" 
			},
			{
				"x": 0.0371650292,
				"y": 4.8391121224,
				"z": 1.036206913,
				"element": "H" 
			},
			{
				"x": -0.6329715459,
				"y": 3.4361897818,
				"z": 2.9799355638,
				"element": "H" 
			},
			{
				"x": -0.9481721326,
				"y": 1.0200001099,
				"z": 2.7169886842,
				"element": "H" 
			},
			{
				"x": -0.6731922865,
				"y": -2.7374557756,
				"z": -1.2554769789,
				"element": "H" 
			},
			{
				"x": 1.2427362352,
				"y": -3.9223417481,
				"z": -2.2360389284,
				"element": "H" 
			},
			{
				"x": 3.5619730258,
				"y": -3.1046697949,
				"z": -1.8439511729,
				"element": "H" 
			},
			{
				"x": 3.9227555265,
				"y": -1.0791381023,
				"z": -0.441783906,
				"element": "H" 
			},
			{
				"x": 2.0000593469,
				"y": 0.1166107839,
				"z": 0.5314644629,
				"element": "H" 
			}
		],
		 "valence_orbital": [ 
			{
				"type": "occ",
				"energy": -0.28078,
				"method": "rhf"
			},
			{
				"type": "occ",
				"energy": -0.25322,
				"method": "rhf"
			},
			{
				"type": "occ",
				"energy": -0.25,
				"method": "rhf"
			},
			{
				"type": "occ",
				"energy": -0.24701,
				"method": "rhf"
			},
			{
				"type": "occ",
				"energy": -0.23577,
				"method": "rhf"
			},
			{
				"type": "unocc",
				"energy": -0.01799,
				"method": "rhf"
			},
			{
				"type": "unocc",
				"energy": -0.00744,
				"method": "rhf"
			},
			{
				"type": "unocc",
				"energy": -0.0022,
				"method": "rhf"
			},
			{
				"type": "unocc",
				"energy": 0.00618,
				"method": "rhf"
			},
			{
				"type": "unocc",
				"energy": 0.0233,
				"method": "rhf"
			}
		],
		"cosmo_sigma_profile": { 
			"-0.025": 0.0,
			"-0.024": 0.0,
			"-0.023": 0.0,
			"-0.022": 0.0,
			"-0.021": 0.0,
			"-0.02": 0.0,
			"-0.019": 0.013730744494,
			"-0.018": 0.781162931169,
			"-0.017": 0.906318328861,
			"-0.016": 1.04544664521,
			"-0.015": 0.762025546705,
			"-0.014": 0.430646549021,
			"-0.013": 0.621456558563,
			"-0.012": 0.727183037009,
			"-0.011": 0.891963866628,
			"-0.01": 0.744985782632,
			"-0.009": 0.404014475376,
			"-0.008": 0.626830393793,
			"-0.007": 0.80138120039,
			"-0.006": 9.60312392941,
			"-0.005": 19.8745195532,
			"-0.004": 25.8192744898,
			"-0.003": 25.9472715536,
			"-0.002": 20.7866223553,
			"-0.001": 18.2447966794,
			"0.0": 18.2947771155,
			"0.001": 18.735676996,
			"0.002": 16.6790126586,
			"0.003": 17.7265437352,
			"0.004": 16.7317764112,
			"0.005": 19.6348309038,
			"0.006": 12.6190058816,
			"0.007": 3.29323925497,
			"0.008": 2.47655169457,
			"0.009": 1.78890227473,
			"0.01": 2.37210264729,
			"0.011": 4.32694317122,
			"0.012": 2.8566265809,
			"0.013": 0.0126242559421,
			"0.014": 0.0,
			"0.015": 0.0,
			"0.016": 0.0,
			"0.017": 0.0,
			"0.018": 0.0,
			"0.019": 0.0,
			"0.02": 0.0,
			"0.021": 0.0,
			"0.022": 0.0,
			"0.023": 0.0,
			"0.024": 0.0,
			"0.025": 0.0
		}
	}
}
