{
	 "smiles": "COC1=CC=C(C=C1)C(C)=CC(O)=O", 
	 "Tm": 382.15, 
	 "num_atms": 26, 
	 "gaussian": { 
		 "optdone": 1, 
		 "sigma_profile": "yes", 
		 "theory": "DFT", 
		 "functional": "B3LYP", 
		 "basiset": "6-31G**", 
		 "properties": { 
			 "R2extent": 3553.1948, 
			 "electric_dipole_moment_norm": 7.28785159632, 
			 "electric_quadrupole_moment_norm": 17.8925664805, 
			 "total_energy": -652.058679722, 
			 "HOMO_LUMO_gap": 0.18684, 
			 "cosmo_polarized_energy": -15.45, 
			 "cosmo_cavitation_energy": 30.05, 
			 "cosmo_dispersion_energy": -21.36, 
			 "cosmo_repulsion_energy": 1.69, 
			 "cosmo_total_nonelectrostatic_energy": 10.38, 
			 "SMD_solvation_energy": 7.26 
		},
		"coords": [
			{
				"x": 1.3004051541,
				"y": 1.3613948465,
				"z": 4.5387542874,
				"element": "C" 
			},
			{
				"x": 0.4890610165,
				"y": 0.346974002,
				"z": 3.9624496274,
				"element": "O" 
			},
			{
				"x": 0.2875707078,
				"y": 0.3626810231,
				"z": 2.6183100857,
				"element": "C" 
			},
			{
				"x": -0.5203780421,
				"y": -0.6662488275,
				"z": 2.1096957905,
				"element": "C" 
			},
			{
				"x": -0.7855295253,
				"y": -0.7398718193,
				"z": 0.7493798871,
				"element": "C" 
			},
			{
				"x": -0.2560165719,
				"y": 0.208192696,
				"z": -0.151728368,
				"element": "C" 
			},
			{
				"x": 0.5387061871,
				"y": 1.2367726205,
				"z": 0.3775558105,
				"element": "C" 
			},
			{
				"x": 0.8221656372,
				"y": 1.3164860561,
				"z": 1.7414360008,
				"element": "C" 
			},
			{
				"x": -0.5991206673,
				"y": 0.1658691467,
				"z": -1.6048782602,
				"element": "C" 
			},
			{
				"x": -1.3234329306,
				"y": 1.3842738342,
				"z": -2.1306137085,
				"element": "C" 
			},
			{
				"x": -0.3442885319,
				"y": -0.8709565844,
				"z": -2.4298483196,
				"element": "C" 
			},
			{
				"x": 0.3990730066,
				"y": -2.1425521944,
				"z": -2.1979204773,
				"element": "C" 
			},
			{
				"x": 1.1492673869,
				"y": -2.2802528752,
				"z": -1.0769197756,
				"element": "O" 
			},
			{
				"x": 0.3667126379,
				"y": -3.0372949106,
				"z": -3.0150047798,
				"element": "O" 
			},
			{
				"x": 0.8766287208,
				"y": 2.3598187547,
				"z": 4.3728863653,
				"element": "H" 
			},
			{
				"x": 1.3235246937,
				"y": 1.1542215683,
				"z": 5.6092641637,
				"element": "H" 
			},
			{
				"x": 2.3234066626,
				"y": 1.3328763386,
				"z": 4.143185467,
				"element": "H" 
			},
			{
				"x": -0.9310119888,
				"y": -1.3936554838,
				"z": 2.8018471611,
				"element": "H" 
			},
			{
				"x": -1.4178062037,
				"y": -1.5369623467,
				"z": 0.3705667559,
				"element": "H" 
			},
			{
				"x": 0.9621957687,
				"y": 1.9842528789,
				"z": -0.2873745128,
				"element": "H" 
			},
			{
				"x": 1.4537116723,
				"y": 2.1178417286,
				"z": 2.1055875801,
				"element": "H" 
			},
			{
				"x": -1.5432768739,
				"y": 1.2953586934,
				"z": -3.1970548489,
				"element": "H" 
			},
			{
				"x": -0.7249132748,
				"y": 2.2903234256,
				"z": -1.9773212692,
				"element": "H" 
			},
			{
				"x": -2.2631682488,
				"y": 1.5386058064,
				"z": -1.5870629211,
				"element": "H" 
			},
			{
				"x": -0.7116798556,
				"y": -0.8224506004,
				"z": -3.4508011179,
				"element": "H" 
			},
			{
				"x": 1.0758934625,
				"y": -1.4878977773,
				"z": -0.5214906235,
				"element": "H" 
			}
		],
		 "valence_orbital": [ 
			{
				"type": "occ",
				"energy": -0.29984,
				"method": "rhf"
			},
			{
				"type": "occ",
				"energy": -0.27245,
				"method": "rhf"
			},
			{
				"type": "occ",
				"energy": -0.27188,
				"method": "rhf"
			},
			{
				"type": "occ",
				"energy": -0.25547,
				"method": "rhf"
			},
			{
				"type": "occ",
				"energy": -0.23374,
				"method": "rhf"
			},
			{
				"type": "unocc",
				"energy": -0.0469,
				"method": "rhf"
			},
			{
				"type": "unocc",
				"energy": -0.02317,
				"method": "rhf"
			},
			{
				"type": "unocc",
				"energy": -0.00351,
				"method": "rhf"
			},
			{
				"type": "unocc",
				"energy": 0.0745,
				"method": "rhf"
			},
			{
				"type": "unocc",
				"energy": 0.09141,
				"method": "rhf"
			}
		],
		"cosmo_sigma_profile": { 
			"-0.025": 0.0,
			"-0.024": 0.0,
			"-0.023": 0.0,
			"-0.022": 0.0,
			"-0.021": 0.0,
			"-0.02": 0.0,
			"-0.019": 0.0,
			"-0.018": 0.0,
			"-0.017": 0.0,
			"-0.016": 0.0,
			"-0.015": 0.0,
			"-0.014": 0.0,
			"-0.013": 0.0,
			"-0.012": 0.0,
			"-0.011": 0.0877439900499,
			"-0.01": 0.233821910306,
			"-0.009": 1.65620398144,
			"-0.008": 1.28989084502,
			"-0.007": 5.88854472327,
			"-0.006": 18.1907190395,
			"-0.005": 24.3863188191,
			"-0.004": 23.3572426926,
			"-0.003": 20.8791630544,
			"-0.002": 17.8240498783,
			"-0.001": 19.4532005527,
			"0.0": 15.3310117669,
			"0.001": 13.9053385331,
			"0.002": 13.7973050487,
			"0.003": 11.952365724,
			"0.004": 9.41789283598,
			"0.005": 4.41183155629,
			"0.006": 3.08477026089,
			"0.007": 3.08949929148,
			"0.008": 4.50373366729,
			"0.009": 3.94218179098,
			"0.01": 4.98179572762,
			"0.011": 4.82687032535,
			"0.012": 5.64904187333,
			"0.013": 5.09964163335,
			"0.014": 1.43898461017,
			"0.015": 0.0116270279083,
			"0.016": 0.0,
			"0.017": 0.0,
			"0.018": 0.0,
			"0.019": 0.0,
			"0.02": 0.0,
			"0.021": 0.0,
			"0.022": 0.0,
			"0.023": 0.0,
			"0.024": 0.0,
			"0.025": 0.0
		}
	}
}
