{
	 "smiles": "COC1=C(NC(=O)CC(=O)NC2=C(OC)C=CC=C2)C=CC=C1", 
	 "Tm": 428.15, 
	 "num_atms": 41, 
	 "gaussian": { 
		 "optdone": 1, 
		 "sigma_profile": "yes", 
		 "theory": "DFT", 
		 "functional": "B3LYP", 
		 "basiset": "6-31G**", 
		 "properties": { 
			 "R2extent": 7965.0953, 
			 "electric_dipole_moment_norm": 4.76412887, 
			 "electric_quadrupole_moment_norm": 27.4389395161, 
			 "total_energy": -1069.05268849, 
			 "HOMO_LUMO_gap": 0.18786, 
			 "cosmo_polarized_energy": -23.81, 
			 "cosmo_cavitation_energy": 45.32, 
			 "cosmo_dispersion_energy": -29.59, 
			 "cosmo_repulsion_energy": 2.28, 
			 "cosmo_total_nonelectrostatic_energy": 18.01, 
			 "SMD_solvation_energy": 10.18 
		},
		"coords": [
			{
				"x": 3.3697159334,
				"y": 1.5848663975,
				"z": -3.9964756377,
				"element": "C" 
			},
			{
				"x": 2.3846476721,
				"y": 0.7259783138,
				"z": -3.4429820676,
				"element": "O" 
			},
			{
				"x": 2.6852367998,
				"y": 0.0413692409,
				"z": -2.3036046024,
				"element": "C" 
			},
			{
				"x": 1.6258344571,
				"y": -0.7346477232,
				"z": -1.7756090844,
				"element": "C" 
			},
			{
				"x": 0.3880058198,
				"y": -0.7253695428,
				"z": -2.4573946363,
				"element": "N" 
			},
			{
				"x": -0.8671189581,
				"y": -0.3705785983,
				"z": -1.9922281056,
				"element": "C" 
			},
			{
				"x": -1.8003637714,
				"y": -0.2641697029,
				"z": -2.7723175355,
				"element": "O" 
			},
			{
				"x": -1.0579876046,
				"y": -0.1503557624,
				"z": -0.4955902766,
				"element": "C" 
			},
			{
				"x": -0.2872367964,
				"y": 1.0614970733,
				"z": 0.0217327138,
				"element": "C" 
			},
			{
				"x": 0.1142245033,
				"y": 1.9508667472,
				"z": -0.7142430559,
				"element": "O" 
			},
			{
				"x": -0.0633513604,
				"y": 1.1163395115,
				"z": 1.3795994612,
				"element": "N" 
			},
			{
				"x": -0.4728944902,
				"y": 0.2082072322,
				"z": 2.3940084711,
				"element": "C" 
			},
			{
				"x": -1.8400299334,
				"y": 0.0625159445,
				"z": 2.728662857,
				"element": "C" 
			},
			{
				"x": -2.7189081249,
				"y": 0.8006790674,
				"z": 1.9967846762,
				"element": "O" 
			},
			{
				"x": -4.1031405421,
				"y": 0.7177847217,
				"z": 2.3104678011,
				"element": "C" 
			},
			{
				"x": -2.2073115157,
				"y": -0.806518829,
				"z": 3.7628222508,
				"element": "C" 
			},
			{
				"x": -1.2283167783,
				"y": -1.5042036402,
				"z": 4.4748466982,
				"element": "C" 
			},
			{
				"x": 0.1205396228,
				"y": -1.3530022023,
				"z": 4.1620427914,
				"element": "C" 
			},
			{
				"x": 0.4869970766,
				"y": -0.5017488313,
				"z": 3.1178627354,
				"element": "C" 
			},
			{
				"x": 1.8603196103,
				"y": -1.5207451314,
				"z": -0.6476427074,
				"element": "C" 
			},
			{
				"x": 3.1016897551,
				"y": -1.5000344077,
				"z": -0.0037353273,
				"element": "C" 
			},
			{
				"x": 4.1303086645,
				"y": -0.714961748,
				"z": -0.5153355958,
				"element": "C" 
			},
			{
				"x": 3.9295836302,
				"y": 0.0473307507,
				"z": -1.6713988745,
				"element": "C" 
			},
			{
				"x": 4.2599589886,
				"y": 1.0272305606,
				"z": -4.3149872571,
				"element": "H" 
			},
			{
				"x": 2.9062507585,
				"y": 2.0514092859,
				"z": -4.866653492,
				"element": "H" 
			},
			{
				"x": 3.6654628869,
				"y": 2.3634753575,
				"z": -3.2829691545,
				"element": "H" 
			},
			{
				"x": 0.4505177147,
				"y": -0.5990442565,
				"z": -3.4609313884,
				"element": "H" 
			},
			{
				"x": -2.1234750568,
				"y": 0.0429434932,
				"z": -0.3544221884,
				"element": "H" 
			},
			{
				"x": -0.8109481201,
				"y": -1.0435533124,
				"z": 0.0837119764,
				"element": "H" 
			},
			{
				"x": 0.4811113762,
				"y": 1.9249424894,
				"z": 1.6542395717,
				"element": "H" 
			},
			{
				"x": -4.3004932461,
				"y": 1.0361427442,
				"z": 3.3415524283,
				"element": "H" 
			},
			{
				"x": -4.4901149419,
				"y": -0.2983481005,
				"z": 2.1650511877,
				"element": "H" 
			},
			{
				"x": -4.6053268971,
				"y": 1.3963011823,
				"z": 1.6201360227,
				"element": "H" 
			},
			{
				"x": -3.2503735108,
				"y": -0.9331790351,
				"z": 4.0266630878,
				"element": "H" 
			},
			{
				"x": -1.5321488515,
				"y": -2.1687016246,
				"z": 5.278427736,
				"element": "H" 
			},
			{
				"x": 0.880120805,
				"y": -1.8954594261,
				"z": 4.7157114464,
				"element": "H" 
			},
			{
				"x": 1.529338536,
				"y": -0.3782861237,
				"z": 2.8389340673,
				"element": "H" 
			},
			{
				"x": 1.069343673,
				"y": -2.1674747898,
				"z": -0.2835078219,
				"element": "H" 
			},
			{
				"x": 3.2625922986,
				"y": -2.1157970672,
				"z": 0.8757563853,
				"element": "H" 
			},
			{
				"x": 5.1015990762,
				"y": -0.69795493,
				"z": -0.0298647736,
				"element": "H" 
			},
			{
				"x": 4.7412408411,
				"y": 0.6472546715,
				"z": -2.0656207827,
				"element": "H" 
			}
		],
		 "valence_orbital": [ 
			{
				"type": "occ",
				"energy": -0.24586,
				"method": "rhf"
			},
			{
				"type": "occ",
				"energy": -0.24095,
				"method": "rhf"
			},
			{
				"type": "occ",
				"energy": -0.23449,
				"method": "rhf"
			},
			{
				"type": "occ",
				"energy": -0.22582,
				"method": "rhf"
			},
			{
				"type": "occ",
				"energy": -0.20738,
				"method": "rhf"
			},
			{
				"type": "unocc",
				"energy": -0.01952,
				"method": "rhf"
			},
			{
				"type": "unocc",
				"energy": -0.00665,
				"method": "rhf"
			},
			{
				"type": "unocc",
				"energy": 0.0003,
				"method": "rhf"
			},
			{
				"type": "unocc",
				"energy": 0.00805,
				"method": "rhf"
			},
			{
				"type": "unocc",
				"energy": 0.03289,
				"method": "rhf"
			}
		],
		"cosmo_sigma_profile": { 
			"-0.025": 0.0,
			"-0.024": 0.0,
			"-0.023": 0.0,
			"-0.022": 0.0,
			"-0.021": 0.0,
			"-0.02": 0.0,
			"-0.019": 0.0,
			"-0.018": 0.0,
			"-0.017": 0.0,
			"-0.016": 0.0,
			"-0.015": 0.0500516068767,
			"-0.014": 0.945703070295,
			"-0.013": 0.969610226535,
			"-0.012": 1.12149104192,
			"-0.011": 1.40261906765,
			"-0.01": 1.38381069912,
			"-0.009": 2.69821307112,
			"-0.008": 2.63876334087,
			"-0.007": 6.60820697936,
			"-0.006": 24.9083181648,
			"-0.005": 35.2309656834,
			"-0.004": 37.1621239656,
			"-0.003": 33.8130028264,
			"-0.002": 23.3731426358,
			"-0.001": 20.2816196155,
			"0.0": 19.6939399742,
			"0.001": 16.7272180539,
			"0.002": 18.7039448115,
			"0.003": 20.1767526299,
			"0.004": 21.2622807061,
			"0.005": 20.2370084391,
			"0.006": 7.94348006235,
			"0.007": 4.89352147511,
			"0.008": 5.55579502715,
			"0.009": 4.62449397284,
			"0.01": 4.22817978639,
			"0.011": 3.58686596998,
			"0.012": 5.67181762129,
			"0.013": 10.1203184342,
			"0.014": 3.94272150868,
			"0.015": 0.0495382308633,
			"0.016": 0.0,
			"0.017": 0.0,
			"0.018": 0.0,
			"0.019": 0.0,
			"0.02": 0.0,
			"0.021": 0.0,
			"0.022": 0.0,
			"0.023": 0.0,
			"0.024": 0.0,
			"0.0": 0.0
		}
	}
}
