{
	 "smiles": "CC1(C)CCC2(C)CC=C3C4(C)CCC5C(C)(C)C(O)CCC5(C)C4CCC3(C)C2C1", 
	 "Tm": 557.15, 
	 "num_atms": 81, 
	 "gaussian": { 
		 "optdone": 1, 
		 "sigma_profile": "yes", 
		 "theory": "DFT", 
		 "functional": "B3LYP", 
		 "basiset": "6-31G**", 
		 "properties": { 
			 "R2extent": 13794.3013, 
			 "electric_dipole_moment_norm": 1.27154886261, 
			 "electric_quadrupole_moment_norm": 11.1141067743, 
			 "total_energy": -1248.53964657, 
			 "HOMO_LUMO_gap": 0.2524, 
			 "cosmo_polarized_energy": -7.17, 
			 "cosmo_cavitation_energy": 61.62, 
			 "cosmo_dispersion_energy": -41.24, 
			 "cosmo_repulsion_energy": 2.92, 
			 "cosmo_total_nonelectrostatic_energy": 23.3, 
			 "SMD_solvation_energy": 8.7 
		},
		"coords": [
			{
				"x": 4.8561515879,
				"y": -0.1689031919,
				"z": -3.8249743289,
				"element": "C" 
			},
			{
				"x": 3.5480145359,
				"y": -0.4549975552,
				"z": -3.0643034773,
				"element": "C" 
			},
			{
				"x": 2.4433547358,
				"y": -0.7894872016,
				"z": -4.083650012,
				"element": "C" 
			},
			{
				"x": 3.7392141004,
				"y": -1.6669193577,
				"z": -2.1036790187,
				"element": "C" 
			},
			{
				"x": 4.2917904039,
				"y": -1.2405024026,
				"z": -0.7395891386,
				"element": "C" 
			},
			{
				"x": 3.3608603478,
				"y": -0.2586185276,
				"z": 0.0458424819,
				"element": "C" 
			},
			{
				"x": 4.2800927298,
				"y": 0.702741166,
				"z": 0.8311284863,
				"element": "C" 
			},
			{
				"x": 2.4819575392,
				"y": -1.001241614,
				"z": 1.0608005518,
				"element": "C" 
			},
			{
				"x": 1.295924108,
				"y": -0.1906707235,
				"z": 1.5195274734,
				"element": "C" 
			},
			{
				"x": 0.7812020038,
				"y": 0.9080024469,
				"z": 0.9381799246,
				"element": "C" 
			},
			{
				"x": -0.5750547539,
				"y": 1.4954478175,
				"z": 1.4192430148,
				"element": "C" 
			},
			{
				"x": -0.4622327152,
				"y": 3.0221212595,
				"z": 1.6753396479,
				"element": "C" 
			},
			{
				"x": -1.0166155977,
				"y": 0.8960017942,
				"z": 2.792554412,
				"element": "C" 
			},
			{
				"x": -1.7329745329,
				"y": -0.4789302567,
				"z": 2.8011271841,
				"element": "C" 
			},
			{
				"x": -2.2814597726,
				"y": -0.8876995379,
				"z": 1.4235516344,
				"element": "C" 
			},
			{
				"x": -3.1641994975,
				"y": -2.1801310599,
				"z": 1.4236913845,
				"element": "C" 
			},
			{
				"x": -4.5481541703,
				"y": -2.001854238,
				"z": 2.0867413582,
				"element": "C" 
			},
			{
				"x": -2.4329978025,
				"y": -3.3081581199,
				"z": 2.188004262,
				"element": "C" 
			},
			{
				"x": -3.3118851963,
				"y": -2.6461634479,
				"z": -0.0714999086,
				"element": "C" 
			},
			{
				"x": -4.5034329635,
				"y": -3.4050391686,
				"z": -0.2966091876,
				"element": "O" 
			},
			{
				"x": -3.3131261729,
				"y": -1.5013645199,
				"z": -1.1065477988,
				"element": "C" 
			},
			{
				"x": -3.7245088911,
				"y": -0.1386699697,
				"z": -0.540721615,
				"element": "C" 
			},
			{
				"x": -2.8814787532,
				"y": 0.3477692287,
				"z": 0.6800433355,
				"element": "C" 
			},
			{
				"x": -3.8548355689,
				"y": 1.2083081388,
				"z": 1.5298386122,
				"element": "C" 
			},
			{
				"x": -1.6710418504,
				"y": 1.2684778734,
				"z": 0.2629447167,
				"element": "C" 
			},
			{
				"x": -0.9760778747,
				"y": 0.8510994367,
				"z": -1.0507329196,
				"element": "C" 
			},
			{
				"x": 0.2378742803,
				"y": 1.7313982751,
				"z": -1.3585133942,
				"element": "C" 
			},
			{
				"x": 1.4141467978,
				"y": 1.4935844865,
				"z": -0.3516657073,
				"element": "C" 
			},
			{
				"x": 2.1621799135,
				"y": 2.8401254331,
				"z": -0.1422435054,
				"element": "C" 
			},
			{
				"x": 2.3751658046,
				"y": 0.414041077,
				"z": -0.963375279,
				"element": "C" 
			},
			{
				"x": 3.1497714872,
				"y": 0.8075035138,
				"z": -2.234344847,
				"element": "C" 
			},
			{
				"x": 5.6945776728,
				"y": -0.0110445193,
				"z": -3.1371636671,
				"element": "H" 
			},
			{
				"x": 4.761616712,
				"y": 0.7326930403,
				"z": -4.4415255492,
				"element": "H" 
			},
			{
				"x": 5.1191097503,
				"y": -1.001011629,
				"z": -4.4883728575,
				"element": "H" 
			},
			{
				"x": 2.3406357756,
				"y": 0.0044434035,
				"z": -4.832569207,
				"element": "H" 
			},
			{
				"x": 1.4709465289,
				"y": -0.9160280813,
				"z": -3.5937627551,
				"element": "H" 
			},
			{
				"x": 2.668391226,
				"y": -1.7220619339,
				"z": -4.6143219045,
				"element": "H" 
			},
			{
				"x": 4.4098797924,
				"y": -2.3999158481,
				"z": -2.5692742606,
				"element": "H" 
			},
			{
				"x": 2.7818825608,
				"y": -2.1859325264,
				"z": -1.9667840815,
				"element": "H" 
			},
			{
				"x": 4.4985282542,
				"y": -2.1200649759,
				"z": -0.1162252539,
				"element": "H" 
			},
			{
				"x": 5.264064051,
				"y": -0.7571010536,
				"z": -0.8984546666,
				"element": "H" 
			},
			{
				"x": 5.0599508487,
				"y": 0.1170039732,
				"z": 1.3322712777,
				"element": "H" 
			},
			{
				"x": 3.7399573609,
				"y": 1.2497323896,
				"z": 1.6067275414,
				"element": "H" 
			},
			{
				"x": 4.7841202782,
				"y": 1.4264779,
				"z": 0.182803194,
				"element": "H" 
			},
			{
				"x": 3.0805064261,
				"y": -1.3133518831,
				"z": 1.9287987033,
				"element": "H" 
			},
			{
				"x": 2.10445966,
				"y": -1.9379890431,
				"z": 0.6185457638,
				"element": "H" 
			},
			{
				"x": 0.7948683912,
				"y": -0.6105919313,
				"z": 2.3847115542,
				"element": "H" 
			},
			{
				"x": 0.3426554472,
				"y": 3.2500297088,
				"z": 2.3830655118,
				"element": "H" 
			},
			{
				"x": -0.285132196,
				"y": 3.5921051566,
				"z": 0.7636724789,
				"element": "H" 
			},
			{
				"x": -1.3999949137,
				"y": 3.3943185376,
				"z": 2.1013985744,
				"element": "H" 
			},
			{
				"x": -0.1404458951,
				"y": 0.8671921958,
				"z": 3.4486498423,
				"element": "H" 
			},
			{
				"x": -1.6803805223,
				"y": 1.6264972958,
				"z": 3.259586563,
				"element": "H" 
			},
			{
				"x": -2.5477642825,
				"y": -0.4369430163,
				"z": 3.5340622618,
				"element": "H" 
			},
			{
				"x": -1.0531720608,
				"y": -1.2573509993,
				"z": 3.1603279171,
				"element": "H" 
			},
			{
				"x": -1.3992653512,
				"y": -1.1749881912,
				"z": 0.8323327058,
				"element": "H" 
			},
			{
				"x": -5.2372663553,
				"y": -1.4077491638,
				"z": 1.4863382397,
				"element": "H" 
			},
			{
				"x": -5.0275638354,
				"y": -2.9732212079,
				"z": 2.2412492676,
				"element": "H" 
			},
			{
				"x": -4.4505867534,
				"y": -1.5333841149,
				"z": 3.0710458092,
				"element": "H" 
			},
			{
				"x": -2.9328042974,
				"y": -4.271812423,
				"z": 2.0241405021,
				"element": "H" 
			},
			{
				"x": -2.4251304707,
				"y": -3.1355301045,
				"z": 3.2682979093,
				"element": "H" 
			},
			{
				"x": -1.3949893613,
				"y": -3.4162319155,
				"z": 1.8531586905,
				"element": "H" 
			},
			{
				"x": -2.4407900058,
				"y": -3.2851944462,
				"z": -0.2911956599,
				"element": "H" 
			},
			{
				"x": -4.4864189317,
				"y": -4.1720392414,
				"z": 0.2905674209,
				"element": "H" 
			},
			{
				"x": -2.3206942965,
				"y": -1.4359065148,
				"z": -1.5597999443,
				"element": "H" 
			},
			{
				"x": -3.9983240584,
				"y": -1.7962612119,
				"z": -1.9078887611,
				"element": "H" 
			},
			{
				"x": -4.7724104255,
				"y": -0.2070310229,
				"z": -0.2291399634,
				"element": "H" 
			},
			{
				"x": -3.7140310874,
				"y": 0.6189350608,
				"z": -1.3333122169,
				"element": "H" 
			},
			{
				"x": -3.3746150005,
				"y": 1.7353334602,
				"z": 2.3544581538,
				"element": "H" 
			},
			{
				"x": -4.6717072499,
				"y": 0.6169252811,
				"z": 1.9467867283,
				"element": "H" 
			},
			{
				"x": -4.3047183866,
				"y": 1.9717410005,
				"z": 0.8837983592,
				"element": "H" 
			},
			{
				"x": -2.1095265386,
				"y": 2.2555043495,
				"z": 0.0580205809,
				"element": "H" 
			},
			{
				"x": -0.6474302541,
				"y": -0.1937100289,
				"z": -0.9999767567,
				"element": "H" 
			},
			{
				"x": -1.6852230549,
				"y": 0.9154681626,
				"z": -1.8815488553,
				"element": "H" 
			},
			{
				"x": 0.5769279733,
				"y": 1.5461674298,
				"z": -2.3825657764,
				"element": "H" 
			},
			{
				"x": -0.0713618837,
				"y": 2.7834772572,
				"z": -1.3364511237,
				"element": "H" 
			},
			{
				"x": 2.7630434419,
				"y": 3.0750642777,
				"z": -1.0265246353,
				"element": "H" 
			},
			{
				"x": 1.473382249,
				"y": 3.6730109083,
				"z": -0.0049522864,
				"element": "H" 
			},
			{
				"x": 2.830020023,
				"y": 2.8275235248,
				"z": 0.7183182295,
				"element": "H" 
			},
			{
				"x": 1.6921687013,
				"y": -0.394225729,
				"z": -1.2613090971,
				"element": "H" 
			},
			{
				"x": 2.5767522467,
				"y": 1.4871076204,
				"z": -2.8751245142,
				"element": "H" 
			},
			{
				"x": 4.0566778346,
				"y": 1.3579497677,
				"z": -1.9556983292,
				"element": "H" 
			}
		],
		 "valence_orbital": [ 
			{
				"type": "occ",
				"energy": -0.2724,
				"method": "rhf"
			},
			{
				"type": "occ",
				"energy": -0.26636,
				"method": "rhf"
			},
			{
				"type": "occ",
				"energy": -0.2604,
				"method": "rhf"
			},
			{
				"type": "occ",
				"energy": -0.25051,
				"method": "rhf"
			},
			{
				"type": "occ",
				"energy": -0.22467,
				"method": "rhf"
			},
			{
				"type": "unocc",
				"energy": 0.02773,
				"method": "rhf"
			},
			{
				"type": "unocc",
				"energy": 0.05806,
				"method": "rhf"
			},
			{
				"type": "unocc",
				"energy": 0.07011,
				"method": "rhf"
			},
			{
				"type": "unocc",
				"energy": 0.083,
				"method": "rhf"
			},
			{
				"type": "unocc",
				"energy": 0.08618,
				"method": "rhf"
			}
		],
		"cosmo_sigma_profile": { 
			"-0.025": 0.0,
			"-0.024": 0.0,
			"-0.023": 0.0,
			"-0.022": 0.0,
			"-0.021": 0.0,
			"-0.02": 0.0,
			"-0.019": 0.0,
			"-0.018": 0.0,
			"-0.017": 0.0,
			"-0.016": 0.0,
			"-0.015": 0.0,
			"-0.014": 0.349153146218,
			"-0.013": 0.710000707182,
			"-0.012": 1.00868381323,
			"-0.011": 1.4517474442,
			"-0.01": 0.556767651457,
			"-0.009": 1.12704796583,
			"-0.008": 1.27927398091,
			"-0.007": 1.27221684348,
			"-0.006": 1.48699547975,
			"-0.005": 1.53657172319,
			"-0.004": 3.71634471383,
			"-0.003": 16.2383491313,
			"-0.002": 71.3450150837,
			"-0.001": 102.91504846,
			"0.0": 91.9085703263,
			"0.001": 82.3905195968,
			"0.002": 58.345598361,
			"0.003": 10.8328197646,
			"0.004": 3.5830967041,
			"0.005": 2.23815870793,
			"0.006": 2.00592879877,
			"0.007": 1.44710396675,
			"0.008": 1.55991646519,
			"0.009": 1.4703646473,
			"0.01": 1.26518084095,
			"0.011": 1.24563296296,
			"0.012": 1.30727247652,
			"0.013": 1.2170667382,
			"0.014": 1.87310562031,
			"0.015": 0.872609026219,
			"0.016": 0.0,
			"0.017": 0.0,
			"0.018": 0.0,
			"0.019": 0.0,
			"0.02": 0.0,
			"0.021": 0.0,
			"0.022": 0.0,
			"0.023": 0.0,
			"0.024": 0.0,
			"0.025": 0.0
		}
	}
}
