{
	 "smiles": "CNC1=CC=CC=C1C(=O)OC", 
	 "Tm": 291.65, 
	 "num_atms": 23, 
	 "gaussian": { 
		 "optdone": 1, 
		 "sigma_profile": "yes", 
		 "theory": "DFT", 
		 "functional": "B3LYP", 
		 "basiset": "6-31G**", 
		 "properties": { 
			 "R2extent": 2592.5352, 
			 "electric_dipole_moment_norm": 3.48300279357, 
			 "electric_quadrupole_moment_norm": 10.8971783339, 
			 "total_energy": -554.799188271, 
			 "HOMO_LUMO_gap": 0.16205, 
			 "cosmo_polarized_energy": -9.11, 
			 "cosmo_cavitation_energy": 26.28, 
			 "cosmo_dispersion_energy": -19.49, 
			 "cosmo_repulsion_energy": 1.55, 
			 "cosmo_total_nonelectrostatic_energy": 8.34, 
			 "SMD_solvation_energy": 5.47 
		},
		"coords": [
			{
				"x": -0.9418340384,
				"y": -1.6531329264,
				"z": 1.8943127723,
				"element": "C" 
			},
			{
				"x": -0.2763779649,
				"y": -0.5663114097,
				"z": 1.2143498081,
				"element": "N" 
			},
			{
				"x": -0.9120945952,
				"y": 0.5385981728,
				"z": 0.718995639,
				"element": "C" 
			},
			{
				"x": -2.3161045798,
				"y": 0.6676232941,
				"z": 0.8650849546,
				"element": "C" 
			},
			{
				"x": -2.9975691088,
				"y": 1.7722602054,
				"z": 0.3777425818,
				"element": "C" 
			},
			{
				"x": -2.3191002737,
				"y": 2.8054205459,
				"z": -0.2797847705,
				"element": "C" 
			},
			{
				"x": -0.9462758227,
				"y": 2.7000038694,
				"z": -0.4338547417,
				"element": "C" 
			},
			{
				"x": -0.2178103521,
				"y": 1.5954405768,
				"z": 0.0462287373,
				"element": "C" 
			},
			{
				"x": 1.2393009191,
				"y": 1.6604828751,
				"z": -0.2127139495,
				"element": "C" 
			},
			{
				"x": 1.80459183,
				"y": 2.5718003822,
				"z": -0.7880903712,
				"element": "O" 
			},
			{
				"x": 1.9483200062,
				"y": 0.5841288062,
				"z": 0.255195588,
				"element": "O" 
			},
			{
				"x": 3.363183902,
				"y": 0.6353228368,
				"z": 0.0098582088,
				"element": "C" 
			},
			{
				"x": -1.686905984,
				"y": -2.1500165907,
				"z": 1.2574018081,
				"element": "H" 
			},
			{
				"x": -0.1925027633,
				"y": -2.3961471399,
				"z": 2.1751511696,
				"element": "H" 
			},
			{
				"x": -1.4492661739,
				"y": -1.3230463984,
				"z": 2.8114858015,
				"element": "H" 
			},
			{
				"x": 0.7211492078,
				"y": -0.6086447083,
				"z": 1.0820523676,
				"element": "H" 
			},
			{
				"x": -2.8696149538,
				"y": -0.115362992,
				"z": 1.3696170362,
				"element": "H" 
			},
			{
				"x": -4.0746843171,
				"y": 1.8275971632,
				"z": 0.5131775725,
				"element": "H" 
			},
			{
				"x": -2.8536772164,
				"y": 3.6692160072,
				"z": -0.6605312354,
				"element": "H" 
			},
			{
				"x": -0.3807940592,
				"y": 3.4767737819,
				"z": -0.9369081528,
				"element": "H" 
			},
			{
				"x": 3.7697939733,
				"y": -0.2807359545,
				"z": 0.439325646,
				"element": "H" 
			},
			{
				"x": 3.5656327378,
				"y": 0.6800766032,
				"z": -1.0626613908,
				"element": "H" 
			},
			{
				"x": 3.8043396272,
				"y": 1.5129529996,
				"z": 0.4877649205,
				"element": "H" 
			}
		],
		 "valence_orbital": [ 
			{
				"type": "occ",
				"energy": -0.30424,
				"method": "rhf"
			},
			{
				"type": "occ",
				"energy": -0.29361,
				"method": "rhf"
			},
			{
				"type": "occ",
				"energy": -0.26897,
				"method": "rhf"
			},
			{
				"type": "occ",
				"energy": -0.24743,
				"method": "rhf"
			},
			{
				"type": "occ",
				"energy": -0.19524,
				"method": "rhf"
			},
			{
				"type": "unocc",
				"energy": -0.03319,
				"method": "rhf"
			},
			{
				"type": "unocc",
				"energy": 0.02008,
				"method": "rhf"
			},
			{
				"type": "unocc",
				"energy": 0.06653,
				"method": "rhf"
			},
			{
				"type": "unocc",
				"energy": 0.0912,
				"method": "rhf"
			},
			{
				"type": "unocc",
				"energy": 0.10327,
				"method": "rhf"
			}
		],
		"cosmo_sigma_profile": { 
			"-0.025": 0.0,
			"-0.024": 0.0,
			"-0.023": 0.0,
			"-0.022": 0.0,
			"-0.021": 0.0,
			"-0.02": 0.0,
			"-0.019": 0.0,
			"-0.018": 0.0,
			"-0.017": 0.0,
			"-0.016": 0.0,
			"-0.015": 0.0,
			"-0.014": 0.0,
			"-0.013": 0.0,
			"-0.012": 0.0,
			"-0.011": 0.0,
			"-0.01": 0.290952766179,
			"-0.009": 0.897533336221,
			"-0.008": 0.620520346733,
			"-0.007": 1.93007979858,
			"-0.006": 8.42210835081,
			"-0.005": 16.6595436843,
			"-0.004": 23.8120855686,
			"-0.003": 24.2500386845,
			"-0.002": 19.4945270875,
			"-0.001": 15.6247100116,
			"0.0": 11.3608439268,
			"0.001": 11.7375868289,
			"0.002": 13.8797895694,
			"0.003": 13.1672258252,
			"0.004": 12.8656096817,
			"0.005": 11.5262327993,
			"0.006": 8.16078110431,
			"0.007": 1.56185065167,
			"0.008": 0.926738165569,
			"0.009": 1.72253708401,
			"0.01": 1.9049397768,
			"0.011": 2.00161716027,
			"0.012": 4.21766005859,
			"0.013": 1.80049507146,
			"0.014": 0.0,
			"0.015": 0.0,
			"0.016": 0.0,
			"0.017": 0.0,
			"0.018": 0.0,
			"0.019": 0.0,
			"0.02": 0.0,
			"0.021": 0.0,
			"0.022": 0.0,
			"0.023": 0.0,
			"0.024": 0.0,
			"0.025": 0.0
		}
	}
}
