{
	 "smiles": "OC(=O)C1=C(Cl)C=CC=C1O", 
	 "Tm": 440.15, 
	 "num_atms": 16, 
	 "gaussian": { 
		 "optdone": 1, 
		 "sigma_profile": "yes", 
		 "theory": "DFT", 
		 "functional": "B3LYP", 
		 "basiset": "6-31G**", 
		 "properties": { 
			 "R2extent": 2285.4083, 
			 "electric_dipole_moment_norm": 4.16573297032, 
			 "electric_quadrupole_moment_norm": 12.1763905941, 
			 "total_energy": -955.621572238, 
			 "HOMO_LUMO_gap": 0.20502, 
			 "cosmo_polarized_energy": -16.07, 
			 "cosmo_cavitation_energy": 22.9, 
			 "cosmo_dispersion_energy": -16.92, 
			 "cosmo_repulsion_energy": 1.38, 
			 "cosmo_total_nonelectrostatic_energy": 7.36, 
			 "SMD_solvation_energy": 5.23 
		},
		"coords": [
			{
				"x": 2.3571107965,
				"y": 0.5141207547,
				"z": -2.6923155174,
				"element": "O" 
			},
			{
				"x": 1.0608952027,
				"y": 0.7276325655,
				"z": -2.3811000864,
				"element": "C" 
			},
			{
				"x": 0.4001534188,
				"y": 1.6176612613,
				"z": -2.8644010041,
				"element": "O" 
			},
			{
				"x": 0.5564907732,
				"y": -0.2667082262,
				"z": -1.3744608929,
				"element": "C" 
			},
			{
				"x": 0.1083395564,
				"y": 0.1202849102,
				"z": -0.1061093479,
				"element": "C" 
			},
			{
				"x": 0.2141807858,
				"y": 1.799722716,
				"z": 0.3891366392,
				"element": "Cl" 
			},
			{
				"x": -0.3984206092,
				"y": -0.8024283138,
				"z": 0.8091815785,
				"element": "C" 
			},
			{
				"x": -0.4718481954,
				"y": -2.144102584,
				"z": 0.4411627,
				"element": "C" 
			},
			{
				"x": -0.0424947796,
				"y": -2.5624890071,
				"z": -0.8159047077,
				"element": "C" 
			},
			{
				"x": 0.4715375556,
				"y": -1.6289801444,
				"z": -1.7202628213,
				"element": "C" 
			},
			{
				"x": 0.8867281738,
				"y": -1.9763915564,
				"z": -2.9694131953,
				"element": "O" 
			},
			{
				"x": 2.5831007294,
				"y": 1.1766442328,
				"z": -3.3678042085,
				"element": "H" 
			},
			{
				"x": -0.7246895421,
				"y": -0.4684930883,
				"z": 1.7866306244,
				"element": "H" 
			},
			{
				"x": -0.8684172434,
				"y": -2.8718999362,
				"z": 1.1423803623,
				"element": "H" 
			},
			{
				"x": -0.1059047762,
				"y": -3.6099960411,
				"z": -1.1002253991,
				"element": "H" 
			},
			{
				"x": 0.7605381536,
				"y": -2.9255775431,
				"z": -3.0959947238,
				"element": "H" 
			}
		],
		 "valence_orbital": [ 
			{
				"type": "occ",
				"energy": -0.32248,
				"method": "rhf"
			},
			{
				"type": "occ",
				"energy": -0.30945,
				"method": "rhf"
			},
			{
				"type": "occ",
				"energy": -0.28246,
				"method": "rhf"
			},
			{
				"type": "occ",
				"energy": -0.25617,
				"method": "rhf"
			},
			{
				"type": "occ",
				"energy": -0.23955,
				"method": "rhf"
			},
			{
				"type": "unocc",
				"energy": -0.03453,
				"method": "rhf"
			},
			{
				"type": "unocc",
				"energy": -0.00957,
				"method": "rhf"
			},
			{
				"type": "unocc",
				"energy": 0.0163,
				"method": "rhf"
			},
			{
				"type": "unocc",
				"energy": 0.02785,
				"method": "rhf"
			},
			{
				"type": "unocc",
				"energy": 0.05672,
				"method": "rhf"
			}
		],
		"cosmo_sigma_profile": { 
			"-0.025": 0.0,
			"-0.024": 0.0,
			"-0.023": 0.0,
			"-0.022": 0.0,
			"-0.021": 0.0,
			"-0.02": 0.0,
			"-0.019": 0.575221785875,
			"-0.018": 2.14442596473,
			"-0.017": 2.26484802763,
			"-0.016": 1.77402193201,
			"-0.015": 2.11941266145,
			"-0.014": 2.00132416078,
			"-0.013": 1.10349057382,
			"-0.012": 1.93614951477,
			"-0.011": 2.20696883811,
			"-0.01": 0.943284839893,
			"-0.009": 1.63256575562,
			"-0.008": 3.17866686184,
			"-0.007": 7.51013812535,
			"-0.006": 6.43728092985,
			"-0.005": 7.05460467584,
			"-0.004": 5.79934320049,
			"-0.003": 5.51370289972,
			"-0.002": 6.68960050123,
			"-0.001": 8.96608506498,
			"0.0": 10.288952107,
			"0.001": 17.4348646638,
			"0.002": 19.2610857903,
			"0.003": 18.2294920888,
			"0.004": 11.8282017896,
			"0.005": 6.34647218068,
			"0.006": 4.45923246066,
			"0.007": 4.83850017718,
			"0.008": 4.94549180642,
			"0.009": 3.98248979227,
			"0.01": 5.43655744652,
			"0.011": 6.30131292069,
			"0.012": 2.01498576059,
			"0.013": 0.0815222265297,
			"0.014": 0.0,
			"0.015": 0.0,
			"0.016": 0.0,
			"0.017": 0.0,
			"0.018": 0.0,
			"0.019": 0.0,
			"0.02": 0.0,
			"0.021": 0.0,
			"0.022": 0.0,
			"0.023": 0.0,
			"0.024": 0.0,
			"0.025": 0.0
		}
	}
}
