{
	 "smiles": "CC1=C(C=CC=C1N)N1CCCC1=O", 
	 "Tm": 444.15, 
	 "num_atms": 28, 
	 "gaussian": { 
		 "optdone": 1, 
		 "sigma_profile": "yes", 
		 "theory": "DFT", 
		 "functional": "B3LYP", 
		 "basiset": "6-31G**", 
		 "properties": { 
			 "R2extent": 2934.6982, 
			 "electric_dipole_moment_norm": 5.00021078356, 
			 "electric_quadrupole_moment_norm": 12.6512354472, 
			 "total_energy": -612.359754803, 
			 "HOMO_LUMO_gap": 0.19975, 
			 "cosmo_polarized_energy": -16.62, 
			 "cosmo_cavitation_energy": 29.97, 
			 "cosmo_dispersion_energy": -21.62, 
			 "cosmo_repulsion_energy": 1.71, 
			 "cosmo_total_nonelectrostatic_energy": 10.05, 
			 "SMD_solvation_energy": 5.58 
		},
		"coords": [
			{
				"x": -2.3512491621,
				"y": -0.3608075016,
				"z": -0.1035086332,
				"element": "C" 
			},
			{
				"x": -1.0455176447,
				"y": -0.7001714866,
				"z": 0.5706135791,
				"element": "C" 
			},
			{
				"x": 0.1894561046,
				"y": -0.2297478653,
				"z": 0.0917669618,
				"element": "C" 
			},
			{
				"x": 1.3813263941,
				"y": -0.475932813,
				"z": 0.782853269,
				"element": "C" 
			},
			{
				"x": 1.3478330957,
				"y": -1.2159453904,
				"z": 1.9609243278,
				"element": "C" 
			},
			{
				"x": 0.1441990907,
				"y": -1.7292391312,
				"z": 2.4352250688,
				"element": "C" 
			},
			{
				"x": -1.05398909,
				"y": -1.4800748182,
				"z": 1.7501881385,
				"element": "C" 
			},
			{
				"x": -2.2713854269,
				"y": -1.9385738465,
				"z": 2.2711549932,
				"element": "N" 
			},
			{
				"x": 0.2389767481,
				"y": 0.5001668794,
				"z": -1.1373775559,
				"element": "N" 
			},
			{
				"x": 0.05091373,
				"y": -0.1661337481,
				"z": -2.4311646238,
				"element": "C" 
			},
			{
				"x": 0.0466427432,
				"y": 1.0044197079,
				"z": -3.4330091357,
				"element": "C" 
			},
			{
				"x": 0.9324296654,
				"y": 2.0589828599,
				"z": -2.755747865,
				"element": "C" 
			},
			{
				"x": 0.8306495675,
				"y": 1.7484651199,
				"z": -1.2596950058,
				"element": "C" 
			},
			{
				"x": 1.2126373214,
				"y": 2.4534999984,
				"z": -0.3437382743,
				"element": "O" 
			},
			{
				"x": -2.7764627012,
				"y": -1.211233662,
				"z": -0.6572898898,
				"element": "H" 
			},
			{
				"x": -3.096279397,
				"y": -0.0571760268,
				"z": 0.6405238807,
				"element": "H" 
			},
			{
				"x": -2.2255895921,
				"y": 0.4634044663,
				"z": -0.8076527404,
				"element": "H" 
			},
			{
				"x": 2.3125690775,
				"y": -0.0755506882,
				"z": 0.3997950337,
				"element": "H" 
			},
			{
				"x": 2.2669774678,
				"y": -1.4085319371,
				"z": 2.506534933,
				"element": "H" 
			},
			{
				"x": 0.1228575333,
				"y": -2.3209242484,
				"z": 3.3474284565,
				"element": "H" 
			},
			{
				"x": -2.175948107,
				"y": -2.6601529341,
				"z": 2.9729224296,
				"element": "H" 
			},
			{
				"x": -2.9709748317,
				"y": -2.1848842145,
				"z": 1.5845079991,
				"element": "H" 
			},
			{
				"x": 0.8769217102,
				"y": -0.8670944142,
				"z": -2.6242552119,
				"element": "H" 
			},
			{
				"x": -0.8798035604,
				"y": -0.7401552963,
				"z": -2.446746606,
				"element": "H" 
			},
			{
				"x": 0.4003442807,
				"y": 0.6999150271,
				"z": -4.4210783099,
				"element": "H" 
			},
			{
				"x": -0.9731969964,
				"y": 1.3867085821,
				"z": -3.5460813483,
				"element": "H" 
			},
			{
				"x": 1.9864233307,
				"y": 1.9583175225,
				"z": -3.0438716442,
				"element": "H" 
			},
			{
				"x": 0.6409386486,
				"y": 3.093349859,
				"z": -2.9498222267,
				"element": "H" 
			}
		],
		 "valence_orbital": [ 
			{
				"type": "occ",
				"energy": -0.30528,
				"method": "rhf"
			},
			{
				"type": "occ",
				"energy": -0.25582,
				"method": "rhf"
			},
			{
				"type": "occ",
				"energy": -0.23453,
				"method": "rhf"
			},
			{
				"type": "occ",
				"energy": -0.22457,
				"method": "rhf"
			},
			{
				"type": "occ",
				"energy": -0.19969,
				"method": "rhf"
			},
			{
				"type": "unocc",
				"energy": 6e-05,
				"method": "rhf"
			},
			{
				"type": "unocc",
				"energy": 0.0183,
				"method": "rhf"
			},
			{
				"type": "unocc",
				"energy": 0.04098,
				"method": "rhf"
			},
			{
				"type": "unocc",
				"energy": 0.06992,
				"method": "rhf"
			},
			{
				"type": "unocc",
				"energy": 0.08901,
				"method": "rhf"
			}
		],
		"cosmo_sigma_profile": { 
			"-0.025": 0.0,
			"-0.024": 0.0,
			"-0.023": 0.0,
			"-0.022": 0.0,
			"-0.021": 0.0,
			"-0.02": 0.0,
			"-0.019": 0.0,
			"-0.018": 0.0,
			"-0.017": 0.0,
			"-0.016": 0.0,
			"-0.015": 0.0,
			"-0.014": 0.0,
			"-0.013": 0.0,
			"-0.012": 1.50896745463,
			"-0.011": 2.6636041116,
			"-0.01": 2.6120879817,
			"-0.009": 3.52767912121,
			"-0.008": 2.65454025926,
			"-0.007": 3.11743933404,
			"-0.006": 4.47599661099,
			"-0.005": 14.3824910661,
			"-0.004": 27.1029781033,
			"-0.003": 34.2110082202,
			"-0.002": 23.637040193,
			"-0.001": 19.5407120179,
			"0.0": 14.5387001414,
			"0.001": 10.600480951,
			"0.002": 7.46590663383,
			"0.003": 6.35529024989,
			"0.004": 7.63043119563,
			"0.005": 8.36862299872,
			"0.006": 9.51618361338,
			"0.007": 6.31516573671,
			"0.008": 2.12675228376,
			"0.009": 3.04285139154,
			"0.01": 2.27881793981,
			"0.011": 2.27411772845,
			"0.012": 2.88955470539,
			"0.013": 4.24202185499,
			"0.014": 6.21470965252,
			"0.015": 2.38960839473,
			"0.016": 0.00942513922412,
			"0.017": 0.0,
			"0.018": 0.0,
			"0.019": 0.0,
			"0.02": 0.0,
			"0.021": 0.0,
			"0.022": 0.0,
			"0.023": 0.0,
			"0.024": 0.0,
			"0.025": 0.0
		}
	}
}
