{
	 "smiles": "OC(=O)C1CCCC2=C1C=CS2", 
	 "Tm": 353.15, 
	 "num_atms": 22, 
	 "gaussian": { 
		 "optdone": 1, 
		 "sigma_profile": "yes", 
		 "theory": "DFT", 
		 "functional": "B3LYP", 
		 "basiset": "6-31G**", 
		 "properties": { 
			 "R2extent": 2526.9699, 
			 "electric_dipole_moment_norm": 1.18365154923, 
			 "electric_quadrupole_moment_norm": 9.09147994223, 
			 "total_energy": -897.634077162, 
			 "HOMO_LUMO_gap": 0.21294, 
			 "cosmo_polarized_energy": -9.1, 
			 "cosmo_cavitation_energy": 25.87, 
			 "cosmo_dispersion_energy": -19.73, 
			 "cosmo_repulsion_energy": 1.53, 
			 "cosmo_total_nonelectrostatic_energy": 7.66, 
			 "SMD_solvation_energy": 4.82 
		},
		"coords": [
			{
				"x": 2.3689746089,
				"y": -1.7974303256,
				"z": -1.3061328845,
				"element": "O" 
			},
			{
				"x": 1.0318415283,
				"y": -1.5702445338,
				"z": -1.2872838543,
				"element": "C" 
			},
			{
				"x": 0.2337392921,
				"y": -2.386536073,
				"z": -1.6929423731,
				"element": "O" 
			},
			{
				"x": 0.7064017431,
				"y": -0.1965914161,
				"z": -0.7050039899,
				"element": "C" 
			},
			{
				"x": -0.7284418419,
				"y": 0.2432030446,
				"z": -1.0589822658,
				"element": "C" 
			},
			{
				"x": -1.7829985809,
				"y": -0.4023929698,
				"z": -0.1484032858,
				"element": "C" 
			},
			{
				"x": -1.5714754723,
				"y": -0.0077943991,
				"z": 1.3236129617,
				"element": "C" 
			},
			{
				"x": -0.1167759245,
				"y": -0.1246476156,
				"z": 1.6859022121,
				"element": "C" 
			},
			{
				"x": 0.9293499025,
				"y": -0.2036421794,
				"z": 0.8004324702,
				"element": "C" 
			},
			{
				"x": 2.2072788163,
				"y": -0.278606138,
				"z": 1.449396487,
				"element": "C" 
			},
			{
				"x": 2.1138887833,
				"y": -0.2478314304,
				"z": 2.8094660694,
				"element": "C" 
			},
			{
				"x": 0.4595936436,
				"y": -0.1306170459,
				"z": 3.3327794767,
				"element": "S" 
			},
			{
				"x": 2.4853616171,
				"y": -2.6991366681,
				"z": -1.6504657469,
				"element": "H" 
			},
			{
				"x": 1.4265123432,
				"y": 0.4981274243,
				"z": -1.1563132062,
				"element": "H" 
			},
			{
				"x": -0.7822593994,
				"y": 1.334979345,
				"z": -0.9637916994,
				"element": "H" 
			},
			{
				"x": -0.9355172101,
				"y": -0.0021802839,
				"z": -2.1045908158,
				"element": "H" 
			},
			{
				"x": -2.7862375929,
				"y": -0.09995478,
				"z": -0.4680250069,
				"element": "H" 
			},
			{
				"x": -1.7233909292,
				"y": -1.489631627,
				"z": -0.2555832938,
				"element": "H" 
			},
			{
				"x": -1.9102170932,
				"y": 1.0260579222,
				"z": 1.4848364071,
				"element": "H" 
			},
			{
				"x": -2.1872625856,
				"y": -0.6364126151,
				"z": 1.9776125975,
				"element": "H" 
			},
			{
				"x": 3.1447685154,
				"y": -0.3611754142,
				"z": 0.9121137361,
				"element": "H" 
			},
			{
				"x": 2.9107658363,
				"y": -0.2901422211,
				"z": 3.5387660045,
				"element": "H" 
			}
		],
		 "valence_orbital": [ 
			{
				"type": "occ",
				"energy": -0.31899,
				"method": "rhf"
			},
			{
				"type": "occ",
				"energy": -0.31863,
				"method": "rhf"
			},
			{
				"type": "occ",
				"energy": -0.28134,
				"method": "rhf"
			},
			{
				"type": "occ",
				"energy": -0.2405,
				"method": "rhf"
			},
			{
				"type": "occ",
				"energy": -0.22248,
				"method": "rhf"
			},
			{
				"type": "unocc",
				"energy": -0.00954,
				"method": "rhf"
			},
			{
				"type": "unocc",
				"energy": 0.0072,
				"method": "rhf"
			},
			{
				"type": "unocc",
				"energy": 0.0329,
				"method": "rhf"
			},
			{
				"type": "unocc",
				"energy": 0.06781,
				"method": "rhf"
			},
			{
				"type": "unocc",
				"energy": 0.08018,
				"method": "rhf"
			}
		],
		"cosmo_sigma_profile": { 
			"-0.025": 0.0,
			"-0.024": 0.0,
			"-0.023": 0.0,
			"-0.022": 0.0,
			"-0.021": 0.0,
			"-0.02": 0.0,
			"-0.019": 0.0,
			"-0.018": 0.79540974356,
			"-0.017": 0.97092987244,
			"-0.016": 0.467002631399,
			"-0.015": 1.16957693197,
			"-0.014": 0.392700791371,
			"-0.013": 0.901825602259,
			"-0.012": 0.477691094146,
			"-0.011": 0.903133545284,
			"-0.01": 0.709505896325,
			"-0.009": 0.570044415138,
			"-0.008": 1.91283286996,
			"-0.007": 2.55470334185,
			"-0.006": 5.4219484774,
			"-0.005": 7.63596509676,
			"-0.004": 14.2356458539,
			"-0.003": 21.6695394094,
			"-0.002": 22.8128313246,
			"-0.001": 20.9088142842,
			"0.0": 15.925433921,
			"0.001": 11.4993400229,
			"0.002": 11.1501374791,
			"0.003": 11.9077881347,
			"0.004": 13.2644427379,
			"0.005": 15.7081925861,
			"0.006": 5.87011733273,
			"0.007": 3.27272821088,
			"0.008": 1.79724025697,
			"0.009": 2.2814589724,
			"0.01": 2.08720281177,
			"0.011": 3.58858287304,
			"0.012": 3.19491096857,
			"0.013": 0.0308425209776,
			"0.014": 0.0,
			"0.015": 0.0,
			"0.016": 0.0,
			"0.017": 0.0,
			"0.018": 0.0,
			"0.019": 0.0,
			"0.02": 0.0,
			"0.021": 0.0,
			"0.022": 0.0,
			"0.023": 0.0,
			"0.024": 0.0,
			"0.025": 0.0
		}
	}
}
