{
	 "smiles": "FC(F)(F)C1=CC=CC(=C1)N1CC(CCl)C(Cl)C1=O", 
	 "Tm": 340.85, 
	 "num_atms": 29, 
	 "gaussian": { 
		 "optdone": 1, 
		 "sigma_profile": "yes", 
		 "theory": "DFT", 
		 "functional": "B3LYP", 
		 "basiset": "6-31G**", 
		 "properties": { 
			 "R2extent": 8360.147, 
			 "electric_dipole_moment_norm": 2.304866725, 
			 "electric_quadrupole_moment_norm": 15.5995143902, 
			 "total_energy": -1813.21296371, 
			 "HOMO_LUMO_gap": 0.19253, 
			 "cosmo_polarized_energy": -14.28, 
			 "cosmo_cavitation_energy": 37.27, 
			 "cosmo_dispersion_energy": -26.25, 
			 "cosmo_repulsion_energy": 1.96, 
			 "cosmo_total_nonelectrostatic_energy": 12.98, 
			 "SMD_solvation_energy": 6.62 
		},
		"coords": [
			{
				"x": 0.0043707548,
				"y": 5.8748329764,
				"z": 1.1036803851,
				"element": "F" 
			},
			{
				"x": -0.6352288015,
				"y": 4.6860769706,
				"z": 1.1377586003,
				"element": "C" 
			},
			{
				"x": -1.9429969008,
				"y": 4.9362779816,
				"z": 0.8979839478,
				"element": "F" 
			},
			{
				"x": -0.5531556088,
				"y": 4.2159521763,
				"z": 2.4043579586,
				"element": "F" 
			},
			{
				"x": -0.063898229,
				"y": 3.7151204612,
				"z": 0.1388244804,
				"element": "C" 
			},
			{
				"x": 0.4235873617,
				"y": 4.1818531764,
				"z": -1.0818319087,
				"element": "C" 
			},
			{
				"x": 0.8893676028,
				"y": 3.2573779335,
				"z": -2.0155283364,
				"element": "C" 
			},
			{
				"x": 0.8794603005,
				"y": 1.890464951,
				"z": -1.7488351862,
				"element": "C" 
			},
			{
				"x": 0.3898067424,
				"y": 1.4233606948,
				"z": -0.5149159802,
				"element": "C" 
			},
			{
				"x": -0.0854625719,
				"y": 2.350040588,
				"z": 0.4253558518,
				"element": "C" 
			},
			{
				"x": 0.3742652928,
				"y": 0.0445922065,
				"z": -0.1926759196,
				"element": "N" 
			},
			{
				"x": 0.0583548858,
				"y": -0.4235932498,
				"z": 1.1617429836,
				"element": "C" 
			},
			{
				"x": 0.4995529412,
				"y": -1.900374763,
				"z": 1.1400220449,
				"element": "C" 
			},
			{
				"x": -0.1380616254,
				"y": -2.739022383,
				"z": 2.2356710417,
				"element": "C" 
			},
			{
				"x": 0.5821141601,
				"y": -4.4008797777,
				"z": 2.2957084217,
				"element": "Cl" 
			},
			{
				"x": 0.2585642857,
				"y": -2.3016224123,
				"z": -0.315475803,
				"element": "C" 
			},
			{
				"x": -1.4751915654,
				"y": -2.7717669855,
				"z": -0.6485995313,
				"element": "Cl" 
			},
			{
				"x": 0.5389226302,
				"y": -1.004663689,
				"z": -1.0873556127,
				"element": "C" 
			},
			{
				"x": 0.837400229,
				"y": -0.9382611677,
				"z": -2.263774763,
				"element": "O" 
			},
			{
				"x": 0.4439158022,
				"y": 5.2454135244,
				"z": -1.2909694896,
				"element": "H" 
			},
			{
				"x": 1.2747209858,
				"y": 3.6030979299,
				"z": -2.9698075173,
				"element": "H" 
			},
			{
				"x": 1.2384724975,
				"y": 1.1821253964,
				"z": -2.4809436177,
				"element": "H" 
			},
			{
				"x": -0.4759847253,
				"y": 2.0279154149,
				"z": 1.3816343575,
				"element": "H" 
			},
			{
				"x": -1.0148053144,
				"y": -0.3223819494,
				"z": 1.3720088965,
				"element": "H" 
			},
			{
				"x": 0.6133878698,
				"y": 0.152763587,
				"z": 1.9069545859,
				"element": "H" 
			},
			{
				"x": 1.5884214271,
				"y": -1.924632695,
				"z": 1.276441894,
				"element": "H" 
			},
			{
				"x": -1.2087575181,
				"y": -2.8654401165,
				"z": 2.076088554,
				"element": "H" 
			},
			{
				"x": 0.0350711997,
				"y": -2.2903344897,
				"z": 3.2156146611,
				"element": "H" 
			},
			{
				"x": 0.8669858915,
				"y": -3.1282922903,
				"z": -0.6745349993,
				"element": "H" 
			}
		],
		 "valence_orbital": [ 
			{
				"type": "occ",
				"energy": -0.31405,
				"method": "rhf"
			},
			{
				"type": "occ",
				"energy": -0.31105,
				"method": "rhf"
			},
			{
				"type": "occ",
				"energy": -0.27649,
				"method": "rhf"
			},
			{
				"type": "occ",
				"energy": -0.27309,
				"method": "rhf"
			},
			{
				"type": "occ",
				"energy": -0.24343,
				"method": "rhf"
			},
			{
				"type": "unocc",
				"energy": -0.0509,
				"method": "rhf"
			},
			{
				"type": "unocc",
				"energy": -0.03311,
				"method": "rhf"
			},
			{
				"type": "unocc",
				"energy": -0.00719,
				"method": "rhf"
			},
			{
				"type": "unocc",
				"energy": 0.00425,
				"method": "rhf"
			},
			{
				"type": "unocc",
				"energy": 0.04514,
				"method": "rhf"
			}
		],
		"cosmo_sigma_profile": { 
			"-0.025": 0.0,
			"-0.024": 0.0,
			"-0.023": 0.0,
			"-0.022": 0.0,
			"-0.021": 0.0,
			"-0.02": 0.0,
			"-0.019": 0.0,
			"-0.018": 0.0,
			"-0.017": 0.0,
			"-0.016": 0.0,
			"-0.015": 0.0,
			"-0.014": 0.0,
			"-0.013": 0.0,
			"-0.012": 0.0,
			"-0.011": 0.0,
			"-0.01": 0.237283258281,
			"-0.009": 4.46953917282,
			"-0.008": 13.6111100887,
			"-0.007": 19.2540345541,
			"-0.006": 16.3027460733,
			"-0.005": 13.6183735341,
			"-0.004": 11.8923551759,
			"-0.003": 12.488582308,
			"-0.002": 10.7258476064,
			"-0.001": 17.0621795193,
			"0.0": 20.2424502082,
			"0.001": 22.8097418738,
			"0.002": 36.5723539636,
			"0.003": 47.0052866055,
			"0.004": 16.8113040123,
			"0.005": 14.3121897249,
			"0.006": 10.9773522971,
			"0.007": 1.6789256094,
			"0.008": 1.97890349765,
			"0.009": 1.69214335223,
			"0.01": 1.97670256901,
			"0.011": 3.07681891421,
			"0.012": 2.35523344886,
			"0.013": 0.539130809439,
			"0.014": 0.0,
			"0.015": 0.0,
			"0.016": 0.0,
			"0.017": 0.0,
			"0.018": 0.0,
			"0.019": 0.0,
			"0.02": 0.0,
			"0.021": 0.0,
			"0.022": 0.0,
			"0.023": 0.0,
			"0.024": 0.0,
			"0.025": 0.0
		}
	}
}
