{
	 "smiles": "CCC(C)(C)S", 
	 "Tm": 169.15, 
	 "num_atms": 18, 
	 "gaussian": { 
		 "optdone": 1, 
		 "sigma_profile": "yes", 
		 "theory": "DFT", 
		 "functional": "B3LYP", 
		 "basiset": "6-31G**", 
		 "properties": { 
			 "R2extent": 952.6276, 
			 "electric_dipole_moment_norm": 1.78499519607, 
			 "electric_quadrupole_moment_norm": 3.95829685218, 
			 "total_energy": -595.966548254, 
			 "HOMO_LUMO_gap": 0.25791, 
			 "cosmo_polarized_energy": -4.01, 
			 "cosmo_cavitation_energy": 20.67, 
			 "cosmo_dispersion_energy": -15.37, 
			 "cosmo_repulsion_energy": 1.25, 
			 "cosmo_total_nonelectrostatic_energy": 6.54, 
			 "SMD_solvation_energy": 3.28 
		},
		"coords": [
			{
				"x": -2.1098873416,
				"y": 0.2544163946,
				"z": 0.4291656905,
				"element": "C" 
			},
			{
				"x": -0.9439223576,
				"y": -0.0921083806,
				"z": -0.5005062732,
				"element": "C" 
			},
			{
				"x": 0.2720800616,
				"y": 0.8640781307,
				"z": -0.4899760704,
				"element": "C" 
			},
			{
				"x": 1.3021564185,
				"y": 0.3914477426,
				"z": -1.5269042068,
				"element": "C" 
			},
			{
				"x": -0.1379450786,
				"y": 2.3159173413,
				"z": -0.7852331685,
				"element": "C" 
			},
			{
				"x": 1.0784997515,
				"y": 0.9105832377,
				"z": 1.2024412836,
				"element": "S" 
			},
			{
				"x": -1.778016353,
				"y": 0.330715032,
				"z": 1.4683574025,
				"element": "H" 
			},
			{
				"x": -2.5829758183,
				"y": 1.2024956875,
				"z": 0.1547501827,
				"element": "H" 
			},
			{
				"x": -2.8798228515,
				"y": -0.5219359778,
				"z": 0.3739015774,
				"element": "H" 
			},
			{
				"x": -0.5850512564,
				"y": -1.1039830551,
				"z": -0.2716217229,
				"element": "H" 
			},
			{
				"x": -1.3096044828,
				"y": -0.1313214876,
				"z": -1.5371835275,
				"element": "H" 
			},
			{
				"x": 1.6206084849,
				"y": -0.6382200301,
				"z": -1.332534757,
				"element": "H" 
			},
			{
				"x": 0.863105627,
				"y": 0.4194104084,
				"z": -2.5323030531,
				"element": "H" 
			},
			{
				"x": 2.1899328553,
				"y": 1.0291606851,
				"z": -1.5209446292,
				"element": "H" 
			},
			{
				"x": 0.7400814141,
				"y": 2.9658588041,
				"z": -0.8431015695,
				"element": "H" 
			},
			{
				"x": -0.8082512461,
				"y": 2.7179417062,
				"z": -0.0211052904,
				"element": "H" 
			},
			{
				"x": -0.6577256842,
				"y": 2.3615312485,
				"z": -1.7492708752,
				"element": "H" 
			},
			{
				"x": 1.4491378571,
				"y": -0.3861874872,
				"z": 1.2349690071,
				"element": "H" 
			}
		],
		 "valence_orbital": [ 
			{
				"type": "occ",
				"energy": -0.35099,
				"method": "rhf"
			},
			{
				"type": "occ",
				"energy": -0.33233,
				"method": "rhf"
			},
			{
				"type": "occ",
				"energy": -0.3277,
				"method": "rhf"
			},
			{
				"type": "occ",
				"energy": -0.30179,
				"method": "rhf"
			},
			{
				"type": "occ",
				"energy": -0.23132,
				"method": "rhf"
			},
			{
				"type": "unocc",
				"energy": 0.02659,
				"method": "rhf"
			},
			{
				"type": "unocc",
				"energy": 0.06591,
				"method": "rhf"
			},
			{
				"type": "unocc",
				"energy": 0.09432,
				"method": "rhf"
			},
			{
				"type": "unocc",
				"energy": 0.12659,
				"method": "rhf"
			},
			{
				"type": "unocc",
				"energy": 0.13615,
				"method": "rhf"
			}
		],
		"cosmo_sigma_profile": { 
			"-0.025": 0.0,
			"-0.024": 0.0,
			"-0.023": 0.0,
			"-0.022": 0.0,
			"-0.021": 0.0,
			"-0.02": 0.0,
			"-0.019": 0.0,
			"-0.018": 0.0,
			"-0.017": 0.0,
			"-0.016": 0.0,
			"-0.015": 0.0,
			"-0.014": 0.0,
			"-0.013": 0.0,
			"-0.012": 0.0,
			"-0.011": 0.0,
			"-0.01": 0.0,
			"-0.009": 0.022299388541,
			"-0.008": 1.49688150178,
			"-0.007": 1.87216517433,
			"-0.006": 2.89176849857,
			"-0.005": 1.98772444382,
			"-0.004": 6.87819845803,
			"-0.003": 20.4174988565,
			"-0.002": 20.4504569864,
			"-0.001": 22.1412402333,
			"0.0": 25.8904869686,
			"0.001": 22.0147264167,
			"0.002": 9.41627897208,
			"0.003": 3.25900519841,
			"0.004": 3.69783674041,
			"0.005": 3.52840395207,
			"0.006": 4.00745408047,
			"0.007": 3.44631170132,
			"0.008": 2.684796732,
			"0.009": 2.35750246372,
			"0.01": 1.83357107263,
			"0.011": 0.784850085502,
			"0.012": 0.316308442825,
			"0.013": 0.0,
			"0.014": 0.0,
			"0.015": 0.0,
			"0.016": 0.0,
			"0.017": 0.0,
			"0.018": 0.0,
			"0.019": 0.0,
			"0.02": 0.0,
			"0.021": 0.0,
			"0.022": 0.0,
			"0.023": 0.0,
			"0.024": 0.0,
			"0.025": 0.0
		}
	}
}
