{
	 "smiles": "OC(=O)CCC1=CC=C(CCC(O)=O)C=C1", 
	 "Tm": 504.15, 
	 "num_atms": 30, 
	 "gaussian": { 
		 "optdone": 1, 
		 "sigma_profile": "yes", 
		 "theory": "DFT", 
		 "functional": "B3LYP", 
		 "basiset": "6-31G**", 
		 "properties": { 
			 "R2extent": 6502.438, 
			 "electric_dipole_moment_norm": 3.91873139421, 
			 "electric_quadrupole_moment_norm": 31.7284434363, 
			 "total_energy": -766.648857226, 
			 "HOMO_LUMO_gap": 0.22726, 
			 "cosmo_polarized_energy": -19.71, 
			 "cosmo_cavitation_energy": 34.57, 
			 "cosmo_dispersion_energy": -24.02, 
			 "cosmo_repulsion_energy": 1.91, 
			 "cosmo_total_nonelectrostatic_energy": 12.46, 
			 "SMD_solvation_energy": 7.65 
		},
		"coords": [
			{
				"x": 5.4970649969,
				"y": -2.5082876001,
				"z": -1.124965543,
				"element": "O" 
			},
			{
				"x": 5.0394911109,
				"y": -1.5448704865,
				"z": -0.2896493097,
				"element": "C" 
			},
			{
				"x": 5.7763614078,
				"y": -0.8607937073,
				"z": 0.3861285048,
				"element": "O" 
			},
			{
				"x": 3.5289572395,
				"y": -1.453576389,
				"z": -0.3251367805,
				"element": "C" 
			},
			{
				"x": 2.9811350794,
				"y": -0.367999164,
				"z": 0.6146028841,
				"element": "C" 
			},
			{
				"x": 1.4714093503,
				"y": -0.2784946719,
				"z": 0.5706487724,
				"element": "C" 
			},
			{
				"x": 0.6764556809,
				"y": -1.0312859533,
				"z": 1.442091913,
				"element": "C" 
			},
			{
				"x": -0.7178199326,
				"y": -0.9688856226,
				"z": 1.3826260867,
				"element": "C" 
			},
			{
				"x": -1.3660086024,
				"y": -0.1493010689,
				"z": 0.4466506192,
				"element": "C" 
			},
			{
				"x": -2.8804178983,
				"y": -0.0683353791,
				"z": 0.3780922963,
				"element": "C" 
			},
			{
				"x": -3.5189015474,
				"y": -0.6825000739,
				"z": -0.893364246,
				"element": "C" 
			},
			{
				"x": -3.5074816368,
				"y": -2.2074667669,
				"z": -0.9756865613,
				"element": "C" 
			},
			{
				"x": -2.3158070019,
				"y": -2.8194441322,
				"z": -0.7599006995,
				"element": "O" 
			},
			{
				"x": -4.4859825272,
				"y": -2.8621030881,
				"z": -1.2395739043,
				"element": "O" 
			},
			{
				"x": -0.5661957681,
				"y": 0.6069134496,
				"z": -0.4263574745,
				"element": "C" 
			},
			{
				"x": 0.8235411821,
				"y": 0.5432887368,
				"z": -0.3640952493,
				"element": "C" 
			},
			{
				"x": 6.4656284917,
				"y": -2.501745861,
				"z": -1.0421457635,
				"element": "H" 
			},
			{
				"x": 3.1226393752,
				"y": -2.4401313295,
				"z": -0.0711089295,
				"element": "H" 
			},
			{
				"x": 3.2242168624,
				"y": -1.2713407504,
				"z": -1.3628988778,
				"element": "H" 
			},
			{
				"x": 3.3184878397,
				"y": -0.5797589782,
				"z": 1.6340650147,
				"element": "H" 
			},
			{
				"x": 3.4259767993,
				"y": 0.5939169583,
				"z": 0.3404597234,
				"element": "H" 
			},
			{
				"x": 1.1501892781,
				"y": -1.6691735523,
				"z": 2.1842970208,
				"element": "H" 
			},
			{
				"x": -1.3105651063,
				"y": -1.5577342556,
				"z": 2.0782148984,
				"element": "H" 
			},
			{
				"x": -3.1792978011,
				"y": 0.9858552837,
				"z": 0.4132232934,
				"element": "H" 
			},
			{
				"x": -3.31583301,
				"y": -0.5400744993,
				"z": 1.2657037267,
				"element": "H" 
			},
			{
				"x": -3.0089295422,
				"y": -0.2907742081,
				"z": -1.7835646839,
				"element": "H" 
			},
			{
				"x": -4.5671248438,
				"y": -0.3859895432,
				"z": -0.9654481164,
				"element": "H" 
			},
			{
				"x": -1.6314312893,
				"y": -2.1704910284,
				"z": -0.5274653568,
				"element": "H" 
			},
			{
				"x": -1.0385664948,
				"y": 1.2643317363,
				"z": -1.1527995414,
				"element": "H" 
			},
			{
				"x": 1.4174083081,
				"y": 1.1492519451,
				"z": -1.0443437163,
				"element": "H" 
			}
		],
		 "valence_orbital": [ 
			{
				"type": "occ",
				"energy": -0.30565,
				"method": "rhf"
			},
			{
				"type": "occ",
				"energy": -0.28474,
				"method": "rhf"
			},
			{
				"type": "occ",
				"energy": -0.27033,
				"method": "rhf"
			},
			{
				"type": "occ",
				"energy": -0.26265,
				"method": "rhf"
			},
			{
				"type": "occ",
				"energy": -0.25342,
				"method": "rhf"
			},
			{
				"type": "unocc",
				"energy": -0.02616,
				"method": "rhf"
			},
			{
				"type": "unocc",
				"energy": -0.02216,
				"method": "rhf"
			},
			{
				"type": "unocc",
				"energy": 0.00325,
				"method": "rhf"
			},
			{
				"type": "unocc",
				"energy": 0.01629,
				"method": "rhf"
			},
			{
				"type": "unocc",
				"energy": 0.07291,
				"method": "rhf"
			}
		],
		"cosmo_sigma_profile": { 
			"-0.025": 0.0,
			"-0.024": 0.0,
			"-0.023": 0.0,
			"-0.022": 0.0,
			"-0.021": 0.0,
			"-0.02": 0.0,
			"-0.019": 0.0459042306515,
			"-0.018": 0.65615546677,
			"-0.017": 0.718862318769,
			"-0.016": 0.836281932605,
			"-0.015": 1.34156518609,
			"-0.014": 0.628919347274,
			"-0.013": 0.606116546782,
			"-0.012": 0.193647619624,
			"-0.011": 0.735054549865,
			"-0.01": 1.13509252439,
			"-0.009": 1.94006293337,
			"-0.008": 2.15928295259,
			"-0.007": 3.61408185764,
			"-0.006": 18.2462183898,
			"-0.005": 30.3296741152,
			"-0.004": 31.9237046796,
			"-0.003": 23.4617744663,
			"-0.002": 19.6174177304,
			"-0.001": 15.470302066,
			"0.0": 12.717448962,
			"0.001": 13.5419869673,
			"0.002": 10.853234521,
			"0.003": 10.1128586555,
			"0.004": 9.46031761948,
			"0.005": 9.06248949714,
			"0.006": 6.10801983251,
			"0.007": 4.601178455,
			"0.008": 5.34194022941,
			"0.009": 5.99790747253,
			"0.01": 6.54266626168,
			"0.011": 9.45719042036,
			"0.012": 10.4777303237,
			"0.013": 4.09484953616,
			"0.014": 0.348221857521,
			"0.015": 0.0,
			"0.016": 0.0,
			"0.017": 0.0,
			"0.018": 0.0,
			"0.019": 0.0,
			"0.02": 0.0,
			"0.021": 0.0,
			"0.022": 0.0,
			"0.023": 0.0,
			"0.024": 0.0,
			"0.025": 0.0
		}
	}
}
