{
	 "smiles": "CC(C)NS(=O)(=O)C1=CC=C(C=C1)C(O)=O", 
	 "Tm": 499.15, 
	 "num_atms": 29, 
	 "gaussian": { 
		 "optdone": 1, 
		 "sigma_profile": "yes", 
		 "theory": "DFT", 
		 "functional": "B3LYP", 
		 "basiset": "6-31G**", 
		 "properties": { 
			 "R2extent": 6207.3675, 
			 "electric_dipole_moment_norm": 3.55326905961, 
			 "electric_quadrupole_moment_norm": 25.4087007334, 
			 "total_energy": -1142.69126665, 
			 "HOMO_LUMO_gap": 0.19427, 
			 "cosmo_polarized_energy": -17.32, 
			 "cosmo_cavitation_energy": 34.31, 
			 "cosmo_dispersion_energy": -24.48, 
			 "cosmo_repulsion_energy": 1.88, 
			 "cosmo_total_nonelectrostatic_energy": 11.7, 
			 "SMD_solvation_energy": 6.07 
		},
		"coords": [
			{
				"x": -0.901735125,
				"y": -2.5117646587,
				"z": 2.1062721171,
				"element": "C" 
			},
			{
				"x": 0.5671388973,
				"y": -2.575465306,
				"z": 2.5289619737,
				"element": "C" 
			},
			{
				"x": 0.7775156015,
				"y": -2.0051033177,
				"z": 3.9335435029,
				"element": "C" 
			},
			{
				"x": 1.4123196618,
				"y": -1.7793173577,
				"z": 1.5994101443,
				"element": "N" 
			},
			{
				"x": 1.7940665994,
				"y": -2.4090348743,
				"z": 0.0774722726,
				"element": "S" 
			},
			{
				"x": 1.5078597151,
				"y": -3.8480663408,
				"z": 0.0236194797,
				"element": "O" 
			},
			{
				"x": 3.1314928182,
				"y": -1.8838055117,
				"z": -0.219675788,
				"element": "O" 
			},
			{
				"x": 0.6212870197,
				"y": -1.5961163146,
				"z": -1.0187277857,
				"element": "C" 
			},
			{
				"x": 0.5908652841,
				"y": -0.1996349855,
				"z": -1.0803259515,
				"element": "C" 
			},
			{
				"x": -0.2823190739,
				"y": 0.416244777,
				"z": -1.9685689411,
				"element": "C" 
			},
			{
				"x": -1.1111327708,
				"y": -0.358499452,
				"z": -2.7940262637,
				"element": "C" 
			},
			{
				"x": -1.0620801439,
				"y": -1.7561450787,
				"z": -2.7286283412,
				"element": "C" 
			},
			{
				"x": -0.190400706,
				"y": -2.3811388987,
				"z": -1.8369359004,
				"element": "C" 
			},
			{
				"x": -2.0271184139,
				"y": 0.3591595562,
				"z": -3.7250559313,
				"element": "C" 
			},
			{
				"x": -2.7777015551,
				"y": -0.4789439604,
				"z": -4.4795520531,
				"element": "O" 
			},
			{
				"x": -2.110604308,
				"y": 1.5672583036,
				"z": -3.8156623716,
				"element": "O" 
			},
			{
				"x": -1.5163481072,
				"y": -3.0808114209,
				"z": 2.8108830584,
				"element": "H" 
			},
			{
				"x": -1.0512469506,
				"y": -2.9438143402,
				"z": 1.1136799082,
				"element": "H" 
			},
			{
				"x": -1.2547729915,
				"y": -1.4757625411,
				"z": 2.0915302076,
				"element": "H" 
			},
			{
				"x": 0.8931147006,
				"y": -3.6234603204,
				"z": 2.5151972911,
				"element": "H" 
			},
			{
				"x": 0.4749362996,
				"y": -0.9536821747,
				"z": 3.9771526945,
				"element": "H" 
			},
			{
				"x": 0.1785699618,
				"y": -2.5648131617,
				"z": 4.6575102891,
				"element": "H" 
			},
			{
				"x": 1.8262393361,
				"y": -2.0773921861,
				"z": 4.2432538908,
				"element": "H" 
			},
			{
				"x": 2.3031968499,
				"y": -1.504990188,
				"z": 2.0088792729,
				"element": "H" 
			},
			{
				"x": 1.2371017794,
				"y": 0.3892535975,
				"z": -0.439010439,
				"element": "H" 
			},
			{
				"x": -0.338592914,
				"y": 1.4967598257,
				"z": -2.0420341296,
				"element": "H" 
			},
			{
				"x": -1.7021799176,
				"y": -2.3481005146,
				"z": -3.372305431,
				"element": "H" 
			},
			{
				"x": -0.132700546,
				"y": -3.4615476091,
				"z": -1.7680986584,
				"element": "H" 
			},
			{
				"x": -3.3282710011,
				"y": 0.0894344535,
				"z": -5.0429581171,
				"element": "H" 
			}
		],
		 "valence_orbital": [ 
			{
				"type": "occ",
				"energy": -0.3041,
				"method": "rhf"
			},
			{
				"type": "occ",
				"energy": -0.29061,
				"method": "rhf"
			},
			{
				"type": "occ",
				"energy": -0.28871,
				"method": "rhf"
			},
			{
				"type": "occ",
				"energy": -0.27861,
				"method": "rhf"
			},
			{
				"type": "occ",
				"energy": -0.2668,
				"method": "rhf"
			},
			{
				"type": "unocc",
				"energy": -0.07253,
				"method": "rhf"
			},
			{
				"type": "unocc",
				"energy": -0.02775,
				"method": "rhf"
			},
			{
				"type": "unocc",
				"energy": 0.02637,
				"method": "rhf"
			},
			{
				"type": "unocc",
				"energy": 0.05281,
				"method": "rhf"
			},
			{
				"type": "unocc",
				"energy": 0.06702,
				"method": "rhf"
			}
		],
		"cosmo_sigma_profile": { 
			"-0.025": 0.0,
			"-0.024": 0.0,
			"-0.023": 0.0,
			"-0.022": 0.0,
			"-0.021": 0.0,
			"-0.02": 0.0,
			"-0.019": 0.199642325557,
			"-0.018": 0.871644380815,
			"-0.017": 1.41781703555,
			"-0.016": 0.752644440562,
			"-0.015": 0.231395034516,
			"-0.014": 0.253794155455,
			"-0.013": 1.60580799289,
			"-0.012": 2.45871431724,
			"-0.011": 2.65849963916,
			"-0.01": 1.25979960135,
			"-0.009": 1.45385301311,
			"-0.008": 4.57142012113,
			"-0.007": 8.11974544966,
			"-0.006": 8.02461259978,
			"-0.005": 8.78579530532,
			"-0.004": 17.7355733521,
			"-0.003": 27.0756998606,
			"-0.002": 24.8935833271,
			"-0.001": 24.4831455669,
			"0.0": 30.3029754825,
			"0.001": 24.2170304381,
			"0.002": 11.2954445929,
			"0.003": 7.02954337944,
			"0.004": 6.72569705116,
			"0.005": 6.44357775378,
			"0.006": 4.85238720655,
			"0.007": 6.0077997133,
			"0.008": 5.83375287194,
			"0.009": 5.22085870937,
			"0.01": 9.40718017445,
			"0.011": 13.3221992594,
			"0.012": 3.98913314039,
			"0.013": 0.0,
			"0.014": 0.0,
			"0.015": 0.0,
			"0.016": 0.0,
			"0.017": 0.0,
			"0.018": 0.0,
			"0.019": 0.0,
			"0.02": 0.0,
			"0.021": 0.0,
			"0.022": 0.0,
			"0.023": 0.0,
			"0.024": 0.0,
			"0.025": 0.0
		}
	}
}
