{
	 "smiles": "O=C1CN(C2CCCC2)C(=O)N1", 
	 "Tm": 422.15, 
	 "num_atms": 24, 
	 "gaussian": { 
		 "optdone": 1, 
		 "sigma_profile": "yes", 
		 "theory": "DFT", 
		 "functional": "B3LYP", 
		 "basiset": "6-31G**", 
		 "properties": { 
			 "R2extent": 2502.2673, 
			 "electric_dipole_moment_norm": 2.55008918471, 
			 "electric_quadrupole_moment_norm": 11.1130147381, 
			 "total_energy": -572.07607717, 
			 "HOMO_LUMO_gap": 0.23888, 
			 "cosmo_polarized_energy": -13.8, 
			 "cosmo_cavitation_energy": 26.02, 
			 "cosmo_dispersion_energy": -19.31, 
			 "cosmo_repulsion_energy": 1.56, 
			 "cosmo_total_nonelectrostatic_energy": 8.28, 
			 "SMD_solvation_energy": 4.8 
		},
		"coords": [
			{
				"x": -2.6659388628,
				"y": 1.7424546109,
				"z": -3.1730272982,
				"element": "O" 
			},
			{
				"x": -2.071694086,
				"y": 1.2718896946,
				"z": -2.2272097335,
				"element": "C" 
			},
			{
				"x": -1.553159671,
				"y": 2.01265775,
				"z": -0.9888495879,
				"element": "C" 
			},
			{
				"x": -0.9507661379,
				"y": 0.9594820826,
				"z": -0.1886286907,
				"element": "N" 
			},
			{
				"x": -0.2587944683,
				"y": 1.1813690555,
				"z": 1.0833124876,
				"element": "C" 
			},
			{
				"x": -0.7779338835,
				"y": 0.2963352329,
				"z": 2.2656752076,
				"element": "C" 
			},
			{
				"x": 0.4551311857,
				"y": -0.4673498576,
				"z": 2.7900518795,
				"element": "C" 
			},
			{
				"x": 1.6420011034,
				"y": 0.4407913341,
				"z": 2.422909314,
				"element": "C" 
			},
			{
				"x": 1.2733188741,
				"y": 0.9325335387,
				"z": 1.0152844633,
				"element": "C" 
			},
			{
				"x": -1.0247917247,
				"y": -0.259384117,
				"z": -0.8091337154,
				"element": "C" 
			},
			{
				"x": -0.6003833489,
				"y": -1.3339159285,
				"z": -0.4224180128,
				"element": "O" 
			},
			{
				"x": -1.7114366618,
				"y": -0.0430443279,
				"z": -2.0269143957,
				"element": "N" 
			},
			{
				"x": -2.3864162415,
				"y": 2.5116860961,
				"z": -0.4782524797,
				"element": "H" 
			},
			{
				"x": -0.8325776708,
				"y": 2.7819884604,
				"z": -1.2952962736,
				"element": "H" 
			},
			{
				"x": -0.44430297,
				"y": 2.2335159735,
				"z": 1.3196716288,
				"element": "H" 
			},
			{
				"x": -1.5740456188,
				"y": -0.3751728298,
				"z": 1.9392561756,
				"element": "H" 
			},
			{
				"x": -1.1929668954,
				"y": 0.943479672,
				"z": 3.0462167155,
				"element": "H" 
			},
			{
				"x": 0.5457674912,
				"y": -1.4179132149,
				"z": 2.254411193,
				"element": "H" 
			},
			{
				"x": 0.3939747731,
				"y": -0.687206243,
				"z": 3.8603121111,
				"element": "H" 
			},
			{
				"x": 2.6064135613,
				"y": -0.0758266231,
				"z": 2.4505832456,
				"element": "H" 
			},
			{
				"x": 1.7042971653,
				"y": 1.2867232422,
				"z": 3.1207670613,
				"element": "H" 
			},
			{
				"x": 1.8252860927,
				"y": 1.8228294854,
				"z": 0.6974831607,
				"element": "H" 
			},
			{
				"x": 1.467397854,
				"y": 0.136418179,
				"z": 0.2904194771,
				"element": "H" 
			},
			{
				"x": -1.9103798596,
				"y": -0.7953412663,
				"z": -2.6704239331,
				"element": "H" 
			}
		],
		 "valence_orbital": [ 
			{
				"type": "occ",
				"energy": -0.32326,
				"method": "rhf"
			},
			{
				"type": "occ",
				"energy": -0.28863,
				"method": "rhf"
			},
			{
				"type": "occ",
				"energy": -0.28812,
				"method": "rhf"
			},
			{
				"type": "occ",
				"energy": -0.26234,
				"method": "rhf"
			},
			{
				"type": "occ",
				"energy": -0.24788,
				"method": "rhf"
			},
			{
				"type": "unocc",
				"energy": -0.009,
				"method": "rhf"
			},
			{
				"type": "unocc",
				"energy": 0.05921,
				"method": "rhf"
			},
			{
				"type": "unocc",
				"energy": 0.06651,
				"method": "rhf"
			},
			{
				"type": "unocc",
				"energy": 0.08595,
				"method": "rhf"
			},
			{
				"type": "unocc",
				"energy": 0.09709,
				"method": "rhf"
			}
		],
		"cosmo_sigma_profile": { 
			"-0.025": 0.0,
			"-0.024": 0.0,
			"-0.023": 0.0,
			"-0.022": 0.0,
			"-0.021": 0.0,
			"-0.02": 0.0,
			"-0.019": 0.0,
			"-0.018": 0.0,
			"-0.017": 0.125465492261,
			"-0.016": 1.3647180004,
			"-0.015": 1.03343808603,
			"-0.014": 0.953800874351,
			"-0.013": 0.717712041948,
			"-0.012": 1.19158339754,
			"-0.011": 0.663714721863,
			"-0.01": 0.594177328374,
			"-0.009": 0.926519672921,
			"-0.008": 3.14685271929,
			"-0.007": 7.92178101456,
			"-0.006": 10.6717720104,
			"-0.005": 9.47873091596,
			"-0.004": 7.66723259474,
			"-0.003": 16.914351584,
			"-0.002": 22.6835355311,
			"-0.001": 25.1145136317,
			"0.0": 21.9592922321,
			"0.001": 19.2429747112,
			"0.002": 6.28461553637,
			"0.003": 3.25160219569,
			"0.004": 2.46711797803,
			"0.005": 3.06477793385,
			"0.006": 3.35518694009,
			"0.007": 2.71373921588,
			"0.008": 3.16943334742,
			"0.009": 3.07876385737,
			"0.01": 3.42567358791,
			"0.011": 4.59185845102,
			"0.012": 8.00616088741,
			"0.013": 6.60881403158,
			"0.014": 1.14458505757,
			"0.015": 0.0,
			"0.016": 0.0,
			"0.017": 0.0,
			"0.018": 0.0,
			"0.019": 0.0,
			"0.02": 0.0,
			"0.021": 0.0,
			"0.022": 0.0,
			"0.023": 0.0,
			"0.024": 0.0,
			"0.025": 0.0
		}
	}
}
