{
	 "smiles": "NC(=O)C1=C(Br)C=CS1", 
	 "Tm": 351.15, 
	 "num_atms": 13, 
	 "gaussian": { 
		 "optdone": 1, 
		 "sigma_profile": "yes", 
		 "theory": "DFT", 
		 "functional": "B3LYP", 
		 "basiset": "6-31G**", 
		 "properties": { 
			 "R2extent": 2326.8119, 
			 "electric_dipole_moment_norm": 4.28276349335, 
			 "electric_quadrupole_moment_norm": 9.19561901125, 
			 "total_energy": -3292.50093085, 
			 "HOMO_LUMO_gap": 0.18858, 
			 "cosmo_polarized_energy": -14.08, 
			 "cosmo_cavitation_energy": 21.25, 
			 "cosmo_dispersion_energy": -17.0, 
			 "cosmo_repulsion_energy": 1.35, 
			 "cosmo_total_nonelectrostatic_energy": 5.6, 
			 "SMD_solvation_energy": 3.48 
		},
		"coords": [
			{
				"x": -0.4718261813,
				"y": 2.0414653322,
				"z": -1.2017802084,
				"element": "N" 
			},
			{
				"x": -0.0496880501,
				"y": 0.9138689666,
				"z": -0.5472376158,
				"element": "C" 
			},
			{
				"x": 1.0128828022,
				"y": 0.8822289229,
				"z": 0.0573524351,
				"element": "O" 
			},
			{
				"x": -0.9567068369,
				"y": -0.2675198183,
				"z": -0.6135110336,
				"element": "C" 
			},
			{
				"x": -0.7800532101,
				"y": -1.5140051634,
				"z": -0.0515728111,
				"element": "C" 
			},
			{
				"x": 0.6998083231,
				"y": -2.07265562,
				"z": 0.9808770452,
				"element": "Br" 
			},
			{
				"x": -1.8462737014,
				"y": -2.4268157523,
				"z": -0.3062694643,
				"element": "C" 
			},
			{
				"x": -2.8372029476,
				"y": -1.8733531025,
				"z": -1.0642570325,
				"element": "C" 
			},
			{
				"x": -2.4844419886,
				"y": -0.2336957431,
				"z": -1.4772225916,
				"element": "S" 
			},
			{
				"x": 0.1377075005,
				"y": 2.843218283,
				"z": -1.1598487912,
				"element": "H" 
			},
			{
				"x": -1.3364394844,
				"y": 2.1163573904,
				"z": -1.7118081547,
				"element": "H" 
			},
			{
				"x": -1.8551163856,
				"y": -3.4428493336,
				"z": 0.066595238,
				"element": "H" 
			},
			{
				"x": -3.7546498398,
				"y": -2.3334443619,
				"z": -1.404417015,
				"element": "H" 
			}
		],
		 "valence_orbital": [ 
			{
				"type": "occ",
				"energy": -0.28896,
				"method": "rhf"
			},
			{
				"type": "occ",
				"energy": -0.27099,
				"method": "rhf"
			},
			{
				"type": "occ",
				"energy": -0.26245,
				"method": "rhf"
			},
			{
				"type": "occ",
				"energy": -0.24972,
				"method": "rhf"
			},
			{
				"type": "occ",
				"energy": -0.24388,
				"method": "rhf"
			},
			{
				"type": "unocc",
				"energy": -0.0553,
				"method": "rhf"
			},
			{
				"type": "unocc",
				"energy": -0.01074,
				"method": "rhf"
			},
			{
				"type": "unocc",
				"energy": 0.02199,
				"method": "rhf"
			},
			{
				"type": "unocc",
				"energy": 0.02633,
				"method": "rhf"
			},
			{
				"type": "unocc",
				"energy": 0.07622,
				"method": "rhf"
			}
		],
		"cosmo_sigma_profile": { 
			"-0.025": 0.0,
			"-0.024": 0.0,
			"-0.023": 0.0,
			"-0.022": 0.0,
			"-0.021": 0.0,
			"-0.02": 0.0,
			"-0.019": 0.0,
			"-0.018": 0.0,
			"-0.017": 0.0,
			"-0.016": 0.0,
			"-0.015": 0.468150364196,
			"-0.014": 1.82128340653,
			"-0.013": 2.07769452197,
			"-0.012": 2.59538453183,
			"-0.011": 2.00081677783,
			"-0.01": 3.89883406429,
			"-0.009": 4.2409366123,
			"-0.008": 4.45869256905,
			"-0.007": 5.84946041376,
			"-0.006": 5.44679365969,
			"-0.005": 6.550891169,
			"-0.004": 5.99450128829,
			"-0.003": 8.06440459802,
			"-0.002": 7.38622772223,
			"-0.001": 9.79982907445,
			"0.0": 13.4588192447,
			"0.001": 21.0439061457,
			"0.002": 19.5733443407,
			"0.003": 15.2436677437,
			"0.004": 10.5223518791,
			"0.005": 3.62796639133,
			"0.006": 1.87468694965,
			"0.007": 1.81996828946,
			"0.008": 1.60907598665,
			"0.009": 1.70088529406,
			"0.01": 1.63776518836,
			"0.011": 1.9486492641,
			"0.012": 2.79474415465,
			"0.013": 4.85952698175,
			"0.014": 3.41835515779,
			"0.015": 0.124550585893,
			"0.016": 0.0,
			"0.017": 0.0,
			"0.018": 0.0,
			"0.019": 0.0,
			"0.02": 0.0,
			"0.021": 0.0,
			"0.022": 0.0,
			"0.023": 0.0,
			"0.024": 0.0,
			"0.025": 0.0
		}
	}
}
