{
	 "smiles": "NCC1=NC2=C(S1)C=CC=C2", 
	 "Tm": 473.15, 
	 "num_atms": 19, 
	 "gaussian": { 
		 "optdone": 1, 
		 "sigma_profile": "yes", 
		 "theory": "DFT", 
		 "functional": "B3LYP", 
		 "basiset": "6-31G**", 
		 "properties": { 
			 "R2extent": 2464.2423, 
			 "electric_dipole_moment_norm": 1.46511975278, 
			 "electric_quadrupole_moment_norm": 3.78105788768, 
			 "total_energy": -817.367820509, 
			 "HOMO_LUMO_gap": 0.20277, 
			 "cosmo_polarized_energy": -8.39, 
			 "cosmo_cavitation_energy": 24.38, 
			 "cosmo_dispersion_energy": -18.79, 
			 "cosmo_repulsion_energy": 1.47, 
			 "cosmo_total_nonelectrostatic_energy": 7.06, 
			 "SMD_solvation_energy": 0.76 
		},
		"coords": [
			{
				"x": 0.5322949486,
				"y": 4.1502155677,
				"z": -0.9225401912,
				"element": "N" 
			},
			{
				"x": 1.2320756079,
				"y": 3.1421199593,
				"z": -1.7014104549,
				"element": "C" 
			},
			{
				"x": 0.9738132195,
				"y": 1.7056333163,
				"z": -1.2874054777,
				"element": "C" 
			},
			{
				"x": 0.1929339105,
				"y": 1.3630000302,
				"z": -0.3170680407,
				"element": "N" 
			},
			{
				"x": 0.1452981554,
				"y": -0.0172548291,
				"z": -0.1624536013,
				"element": "C" 
			},
			{
				"x": 0.9388725953,
				"y": -0.7564030847,
				"z": -1.0721747547,
				"element": "C" 
			},
			{
				"x": 1.7640256414,
				"y": 0.3558668028,
				"z": -2.1501696758,
				"element": "S" 
			},
			{
				"x": 0.9859320523,
				"y": -2.1516667347,
				"z": -1.0312418036,
				"element": "C" 
			},
			{
				"x": 0.225380215,
				"y": -2.8050381326,
				"z": -0.0637611897,
				"element": "C" 
			},
			{
				"x": -0.5664407542,
				"y": -2.0827896176,
				"z": 0.8450079171,
				"element": "C" 
			},
			{
				"x": -0.6125342048,
				"y": -0.6938046219,
				"z": 0.803347173,
				"element": "C" 
			},
			{
				"x": -0.4673825012,
				"y": 3.9641378904,
				"z": -0.9650086484,
				"element": "H" 
			},
			{
				"x": 0.7760576051,
				"y": 4.0361755582,
				"z": 0.0589691662,
				"element": "H" 
			},
			{
				"x": 0.9623419629,
				"y": 3.2561932586,
				"z": -2.7594081253,
				"element": "H" 
			},
			{
				"x": 2.3116230717,
				"y": 3.3340188003,
				"z": -1.6478955763,
				"element": "H" 
			},
			{
				"x": 1.5958544081,
				"y": -2.7140615221,
				"z": -1.7308610637,
				"element": "H" 
			},
			{
				"x": 0.2466229247,
				"y": -3.8896034155,
				"z": -0.0133597203,
				"element": "H" 
			},
			{
				"x": -1.1491493514,
				"y": -2.6179246644,
				"z": 1.5886906139,
				"element": "H" 
			},
			{
				"x": -1.2190195069,
				"y": -0.1221145613,
				"z": 1.4981434536,
				"element": "H" 
			}
		],
		 "valence_orbital": [ 
			{
				"type": "occ",
				"energy": -0.30297,
				"method": "rhf"
			},
			{
				"type": "occ",
				"energy": -0.2784,
				"method": "rhf"
			},
			{
				"type": "occ",
				"energy": -0.24779,
				"method": "rhf"
			},
			{
				"type": "occ",
				"energy": -0.23851,
				"method": "rhf"
			},
			{
				"type": "occ",
				"energy": -0.23619,
				"method": "rhf"
			},
			{
				"type": "unocc",
				"energy": -0.03342,
				"method": "rhf"
			},
			{
				"type": "unocc",
				"energy": -0.00717,
				"method": "rhf"
			},
			{
				"type": "unocc",
				"energy": 0.00918,
				"method": "rhf"
			},
			{
				"type": "unocc",
				"energy": 0.0344,
				"method": "rhf"
			},
			{
				"type": "unocc",
				"energy": 0.0826,
				"method": "rhf"
			}
		],
		"cosmo_sigma_profile": { 
			"-0.025": 0.0,
			"-0.024": 0.0,
			"-0.023": 0.0,
			"-0.022": 0.0,
			"-0.021": 0.0,
			"-0.02": 0.0,
			"-0.019": 0.0,
			"-0.018": 0.0,
			"-0.017": 0.0,
			"-0.016": 0.0,
			"-0.015": 0.0,
			"-0.014": 0.0,
			"-0.013": 0.0,
			"-0.012": 0.0,
			"-0.011": 0.0,
			"-0.01": 1.06919526172,
			"-0.009": 2.28931051364,
			"-0.008": 2.14503037211,
			"-0.007": 4.80909159488,
			"-0.006": 16.9443583983,
			"-0.005": 18.4174847223,
			"-0.004": 14.3051913419,
			"-0.003": 12.3955957866,
			"-0.002": 10.6727498291,
			"-0.001": 9.15044249592,
			"0.0": 12.2339113419,
			"0.001": 13.8310597407,
			"0.002": 16.1583041079,
			"0.003": 18.0626158687,
			"0.004": 16.1897305612,
			"0.005": 10.5758481789,
			"0.006": 2.25066891464,
			"0.007": 2.54917708091,
			"0.008": 2.34078583592,
			"0.009": 1.13734887948,
			"0.01": 2.13438613623,
			"0.011": 1.17957695702,
			"0.012": 1.33152423503,
			"0.013": 0.972343738848,
			"0.014": 0.334202212925,
			"0.015": 0.855423501798,
			"0.016": 0.757036538124,
			"0.017": 0.754454898623,
			"0.018": 0.549821546102,
			"0.019": 0.307753476643,
			"0.02": 0.0,
			"0.021": 0.0,
			"0.022": 0.0,
			"0.023": 0.0,
			"0.024": 0.0,
			"0.025": 0.0
		}
	}
}
