{
	 "smiles": "NC1=C(C=C(C=C1)C#N)C(F)(F)F", 
	 "Tm": 335.15, 
	 "num_atms": 18, 
	 "gaussian": { 
		 "optdone": 1, 
		 "sigma_profile": "yes", 
		 "theory": "DFT", 
		 "functional": "B3LYP", 
		 "basiset": "6-31G**", 
		 "properties": { 
			 "R2extent": 2585.5751, 
			 "electric_dipole_moment_norm": 5.98009586044, 
			 "electric_quadrupole_moment_norm": 20.3312243557, 
			 "total_energy": -716.885695755, 
			 "HOMO_LUMO_gap": 0.18785, 
			 "cosmo_polarized_energy": -13.32, 
			 "cosmo_cavitation_energy": 24.74, 
			 "cosmo_dispersion_energy": -17.34, 
			 "cosmo_repulsion_energy": 1.31, 
			 "cosmo_total_nonelectrostatic_energy": 8.7, 
			 "SMD_solvation_energy": 6.7 
		},
		"coords": [
			{
				"x": 0.8315260945,
				"y": -1.0268681495,
				"z": 1.4451501335,
				"element": "N" 
			},
			{
				"x": 0.7447095829,
				"y": -0.3602350083,
				"z": 0.2483345299,
				"element": "C" 
			},
			{
				"x": -0.4053754942,
				"y": 0.3889517016,
				"z": -0.1154924544,
				"element": "C" 
			},
			{
				"x": -0.4718345127,
				"y": 1.0231165756,
				"z": -1.3513246993,
				"element": "C" 
			},
			{
				"x": 0.5877718141,
				"y": 0.9376792023,
				"z": -2.2647342582,
				"element": "C" 
			},
			{
				"x": 1.7274841119,
				"y": 0.1903109007,
				"z": -1.9120540111,
				"element": "C" 
			},
			{
				"x": 1.801479626,
				"y": -0.4410031422,
				"z": -0.6838544416,
				"element": "C" 
			},
			{
				"x": 0.5108030832,
				"y": 1.5979398239,
				"z": -3.5308507566,
				"element": "C" 
			},
			{
				"x": 0.4532635301,
				"y": 2.1341061044,
				"z": -4.562487599,
				"element": "N" 
			},
			{
				"x": -1.5803353583,
				"y": 0.4634684158,
				"z": 0.8176191729,
				"element": "C" 
			},
			{
				"x": -2.1693372954,
				"y": -0.7421679529,
				"z": 0.9882101371,
				"element": "F" 
			},
			{
				"x": -2.5257280379,
				"y": 1.319279817,
				"z": 0.3924857487,
				"element": "F" 
			},
			{
				"x": -1.2042913065,
				"y": 0.8731935059,
				"z": 2.0664785514,
				"element": "F" 
			},
			{
				"x": 0.2322021452,
				"y": -0.7377235805,
				"z": 2.2023637935,
				"element": "H" 
			},
			{
				"x": 1.7399307064,
				"y": -1.3654247017,
				"z": 1.721771031,
				"element": "H" 
			},
			{
				"x": -1.3573228018,
				"y": 1.5919391031,
				"z": -1.60760819,
				"element": "H" 
			},
			{
				"x": 2.5548824574,
				"y": 0.1153478332,
				"z": -2.6098460225,
				"element": "H" 
			},
			{
				"x": 2.687971655,
				"y": -1.0124104484,
				"z": -0.4234606654,
				"element": "H" 
			}
		],
		 "valence_orbital": [ 
			{
				"type": "occ",
				"energy": -0.35399,
				"method": "rhf"
			},
			{
				"type": "occ",
				"energy": -0.32722,
				"method": "rhf"
			},
			{
				"type": "occ",
				"energy": -0.31876,
				"method": "rhf"
			},
			{
				"type": "occ",
				"energy": -0.28809,
				"method": "rhf"
			},
			{
				"type": "occ",
				"energy": -0.23364,
				"method": "rhf"
			},
			{
				"type": "unocc",
				"energy": -0.04579,
				"method": "rhf"
			},
			{
				"type": "unocc",
				"energy": -0.03865,
				"method": "rhf"
			},
			{
				"type": "unocc",
				"energy": 0.03783,
				"method": "rhf"
			},
			{
				"type": "unocc",
				"energy": 0.05957,
				"method": "rhf"
			},
			{
				"type": "unocc",
				"energy": 0.07167,
				"method": "rhf"
			}
		],
		"cosmo_sigma_profile": { 
			"-0.025": 0.0,
			"-0.024": 0.0,
			"-0.023": 0.0,
			"-0.022": 0.0,
			"-0.021": 0.0,
			"-0.02": 0.0,
			"-0.019": 0.0,
			"-0.018": 0.0,
			"-0.017": 0.0,
			"-0.016": 0.0,
			"-0.015": 0.315696069085,
			"-0.014": 1.61992385545,
			"-0.013": 1.72983444801,
			"-0.012": 3.08671385806,
			"-0.011": 2.13297093314,
			"-0.01": 2.6957998621,
			"-0.009": 2.72975937694,
			"-0.008": 5.90210541071,
			"-0.007": 6.90099391178,
			"-0.006": 7.69231104811,
			"-0.005": 6.42208713774,
			"-0.004": 6.51996554418,
			"-0.003": 8.90549687018,
			"-0.002": 8.80503051377,
			"-0.001": 12.9417690318,
			"0.0": 16.1412794752,
			"0.001": 22.4413990111,
			"0.002": 31.5418860763,
			"0.003": 18.6191816198,
			"0.004": 3.67289861935,
			"0.005": 2.81347607048,
			"0.006": 3.5220037328,
			"0.007": 3.31108618672,
			"0.008": 3.58096010374,
			"0.009": 3.9228934468,
			"0.01": 3.60071408507,
			"0.011": 2.82687525028,
			"0.012": 2.87099604135,
			"0.013": 2.14018531726,
			"0.014": 0.495556727748,
			"0.015": 0.0,
			"0.016": 0.0,
			"0.017": 0.0,
			"0.018": 0.0,
			"0.019": 0.0,
			"0.02": 0.0,
			"0.021": 0.0,
			"0.022": 0.0,
			"0.023": 0.0,
			"0.024": 0.0,
			"0.025": 0.0
		}
	}
}
