{
	 "smiles": "OC1=CC=C(Cl)C=C1C(=O)NC1=CC=CC=C1", 
	 "Tm": 484.15, 
	 "num_atms": 27, 
	 "gaussian": { 
		 "optdone": 1, 
		 "sigma_profile": "yes", 
		 "theory": "DFT", 
		 "functional": "B3LYP", 
		 "basiset": "6-31G**", 
		 "properties": { 
			 "R2extent": 5178.3367, 
			 "electric_dipole_moment_norm": 5.25510791992, 
			 "electric_quadrupole_moment_norm": 13.040473912, 
			 "total_energy": -1166.80783548, 
			 "HOMO_LUMO_gap": 0.18388, 
			 "cosmo_polarized_energy": -17.38, 
			 "cosmo_cavitation_energy": 33.56, 
			 "cosmo_dispersion_energy": -23.6, 
			 "cosmo_repulsion_energy": 1.85, 
			 "cosmo_total_nonelectrostatic_energy": 11.82, 
			 "SMD_solvation_energy": 6.36 
		},
		"coords": [
			{
				"x": 2.3849772057,
				"y": 1.092996919,
				"z": -0.0565591377,
				"element": "O" 
			},
			{
				"x": 1.3569634835,
				"y": 1.6359053222,
				"z": -0.765038293,
				"element": "C" 
			},
			{
				"x": 1.5373069632,
				"y": 2.156875551,
				"z": -2.0516254421,
				"element": "C" 
			},
			{
				"x": 0.4779723141,
				"y": 2.7451200744,
				"z": -2.7373250561,
				"element": "C" 
			},
			{
				"x": -0.7701157104,
				"y": 2.8297051969,
				"z": -2.1210529815,
				"element": "C" 
			},
			{
				"x": -2.1095930885,
				"y": 3.5882000671,
				"z": -2.96995609,
				"element": "Cl" 
			},
			{
				"x": -0.9607080618,
				"y": 2.3271127462,
				"z": -0.8385128512,
				"element": "C" 
			},
			{
				"x": 0.0876790333,
				"y": 1.6944828541,
				"z": -0.1596684788,
				"element": "C" 
			},
			{
				"x": -0.1971176425,
				"y": 1.2360519062,
				"z": 1.2452649657,
				"element": "C" 
			},
			{
				"x": -0.810097348,
				"y": 1.9621331705,
				"z": 2.0198401623,
				"element": "O" 
			},
			{
				"x": 0.2373404879,
				"y": -0.0043860153,
				"z": 1.6604370527,
				"element": "N" 
			},
			{
				"x": 0.6914667786,
				"y": -1.1317364652,
				"z": 0.9367938307,
				"element": "C" 
			},
			{
				"x": 1.6451232952,
				"y": -1.9671936527,
				"z": 1.5352558229,
				"element": "C" 
			},
			{
				"x": 2.0821720369,
				"y": -3.1170604412,
				"z": 0.8812174828,
				"element": "C" 
			},
			{
				"x": 1.5880385631,
				"y": -3.4397393574,
				"z": -0.3846122449,
				"element": "C" 
			},
			{
				"x": 0.6362086576,
				"y": -2.6096550971,
				"z": -0.9792008911,
				"element": "C" 
			},
			{
				"x": 0.1735828125,
				"y": -1.4703198022,
				"z": -0.3208747463,
				"element": "C" 
			},
			{
				"x": 3.1785608731,
				"y": 1.0702309584,
				"z": -0.6066017426,
				"element": "H" 
			},
			{
				"x": 2.5193793881,
				"y": 2.1106310581,
				"z": -2.5169556302,
				"element": "H" 
			},
			{
				"x": 0.6235031899,
				"y": 3.1435343288,
				"z": -3.7352264244,
				"element": "H" 
			},
			{
				"x": -1.9211870537,
				"y": 2.4179185378,
				"z": -0.3446287648,
				"element": "H" 
			},
			{
				"x": 0.1036383479,
				"y": -0.1275976284,
				"z": 2.6568669695,
				"element": "H" 
			},
			{
				"x": 2.0465351244,
				"y": -1.7026246417,
				"z": 2.5096399857,
				"element": "H" 
			},
			{
				"x": 2.8184941992,
				"y": -3.7567448043,
				"z": 1.3593620691,
				"element": "H" 
			},
			{
				"x": 1.933276355,
				"y": -4.3326707266,
				"z": -0.8967543017,
				"element": "H" 
			},
			{
				"x": 0.2293914755,
				"y": -2.8598460032,
				"z": -1.9548929266,
				"element": "H" 
			},
			{
				"x": -0.5942916797,
				"y": -0.8539240554,
				"z": -0.7737923385,
				"element": "H" 
			}
		],
		 "valence_orbital": [ 
			{
				"type": "occ",
				"energy": -0.27774,
				"method": "rhf"
			},
			{
				"type": "occ",
				"energy": -0.25833,
				"method": "rhf"
			},
			{
				"type": "occ",
				"energy": -0.25167,
				"method": "rhf"
			},
			{
				"type": "occ",
				"energy": -0.2307,
				"method": "rhf"
			},
			{
				"type": "occ",
				"energy": -0.22621,
				"method": "rhf"
			},
			{
				"type": "unocc",
				"energy": -0.04233,
				"method": "rhf"
			},
			{
				"type": "unocc",
				"energy": -0.01529,
				"method": "rhf"
			},
			{
				"type": "unocc",
				"energy": -0.00559,
				"method": "rhf"
			},
			{
				"type": "unocc",
				"energy": -0.00235,
				"method": "rhf"
			},
			{
				"type": "unocc",
				"energy": 0.02677,
				"method": "rhf"
			}
		],
		"cosmo_sigma_profile": { 
			"-0.025": 0.0,
			"-0.024": 0.0,
			"-0.023": 0.0,
			"-0.022": 0.0,
			"-0.021": 0.0,
			"-0.02": 0.0,
			"-0.019": 0.303353277714,
			"-0.018": 0.988929358811,
			"-0.017": 1.35308334839,
			"-0.016": 1.34416972991,
			"-0.015": 0.999559081617,
			"-0.014": 1.69586131235,
			"-0.013": 1.81323637558,
			"-0.012": 1.64579943195,
			"-0.011": 2.02820976016,
			"-0.01": 2.56779004777,
			"-0.009": 2.45180813492,
			"-0.008": 3.93597301889,
			"-0.007": 6.45943307387,
			"-0.006": 12.7467381601,
			"-0.005": 15.8494957176,
			"-0.004": 18.2449621965,
			"-0.003": 14.5504090265,
			"-0.002": 11.6197839245,
			"-0.001": 14.9425567753,
			"0.0": 16.8447698535,
			"0.001": 20.2188346198,
			"0.002": 26.1381237033,
			"0.003": 22.5226216424,
			"0.004": 18.9798272277,
			"0.005": 18.3706095831,
			"0.006": 7.99400369883,
			"0.007": 3.95408687454,
			"0.008": 3.52832344322,
			"0.009": 3.11830985251,
			"0.01": 1.85730064299,
			"0.011": 1.8388321052,
			"0.012": 2.86534735447,
			"0.013": 5.41823488394,
			"0.014": 1.66071127384,
			"0.015": 0.0,
			"0.016": 0.0,
			"0.017": 0.0,
			"0.018": 0.0,
			"0.019": 0.0,
			"0.02": 0.0,
			"0.021": 0.0,
			"0.022": 0.0,
			"0.023": 0.0,
			"0.024": 0.0,
			"0.025": 0.0
		}
	}
}
