{
	 "smiles": "NCC1=C(C=CC=C1)N1CCCC(C1)C(N)=O", 
	 "Tm": 371.15, 
	 "num_atms": 36, 
	 "gaussian": { 
		 "optdone": 1, 
		 "sigma_profile": "yes", 
		 "theory": "DFT", 
		 "functional": "B3LYP", 
		 "basiset": "6-31G**", 
		 "properties": { 
			 "R2extent": 4450.0761, 
			 "electric_dipole_moment_norm": 2.69067350119, 
			 "electric_quadrupole_moment_norm": 23.4303415963, 
			 "total_energy": -746.328473877, 
			 "HOMO_LUMO_gap": 0.21357, 
			 "cosmo_polarized_energy": -16.39, 
			 "cosmo_cavitation_energy": 35.86, 
			 "cosmo_dispersion_energy": -25.33, 
			 "cosmo_repulsion_energy": 1.97, 
			 "cosmo_total_nonelectrostatic_energy": 12.5, 
			 "SMD_solvation_energy": 5.37 
		},
		"coords": [
			{
				"x": 1.3078993917,
				"y": -3.8473917231,
				"z": 0.1285005726,
				"element": "N" 
			},
			{
				"x": 0.5821863958,
				"y": -2.621539948,
				"z": 0.4780948856,
				"element": "C" 
			},
			{
				"x": 1.5302884258,
				"y": -1.4809192002,
				"z": 0.8115742498,
				"element": "C" 
			},
			{
				"x": 1.1734720785,
				"y": -0.1254384662,
				"z": 0.6049534332,
				"element": "C" 
			},
			{
				"x": 2.1129318675,
				"y": 0.8773820544,
				"z": 0.8913647226,
				"element": "C" 
			},
			{
				"x": 3.3805120315,
				"y": 0.5611935327,
				"z": 1.3793827668,
				"element": "C" 
			},
			{
				"x": 3.7259548075,
				"y": -0.7694402226,
				"z": 1.6023723183,
				"element": "C" 
			},
			{
				"x": 2.8016253727,
				"y": -1.7741415659,
				"z": 1.3175331855,
				"element": "C" 
			},
			{
				"x": -0.1279226565,
				"y": 0.1949394515,
				"z": 0.0883805286,
				"element": "N" 
			},
			{
				"x": -1.2215501798,
				"y": 0.0320577674,
				"z": 1.0714481434,
				"element": "C" 
			},
			{
				"x": -2.5906286361,
				"y": 0.0779181244,
				"z": 0.3871130544,
				"element": "C" 
			},
			{
				"x": -2.7646358283,
				"y": 1.3787174424,
				"z": -0.406282853,
				"element": "C" 
			},
			{
				"x": -1.5798375368,
				"y": 1.6030920127,
				"z": -1.3727131023,
				"element": "C" 
			},
			{
				"x": -0.2458554539,
				"y": 1.4836045121,
				"z": -0.6132069031,
				"element": "C" 
			},
			{
				"x": -1.7370668913,
				"y": 0.7145671893,
				"z": -2.6191563767,
				"element": "C" 
			},
			{
				"x": -0.9161857984,
				"y": -0.3722599812,
				"z": -2.6966541547,
				"element": "N" 
			},
			{
				"x": -2.5608922678,
				"y": 0.9923106482,
				"z": -3.481677434,
				"element": "O" 
			},
			{
				"x": 1.8040348154,
				"y": -3.7172281295,
				"z": -0.7501086894,
				"element": "H" 
			},
			{
				"x": 0.6491290418,
				"y": -4.6079883572,
				"z": -0.0141540865,
				"element": "H" 
			},
			{
				"x": -0.0347268798,
				"y": -2.8597048611,
				"z": 1.356423252,
				"element": "H" 
			},
			{
				"x": -0.1225171413,
				"y": -2.2778495868,
				"z": -0.2962478584,
				"element": "H" 
			},
			{
				"x": 1.854099659,
				"y": 1.918730946,
				"z": 0.7374066812,
				"element": "H" 
			},
			{
				"x": 4.0881827792,
				"y": 1.3580898017,
				"z": 1.5903943225,
				"element": "H" 
			},
			{
				"x": 4.7083843233,
				"y": -1.027127667,
				"z": 1.9872351088,
				"element": "H" 
			},
			{
				"x": 3.0583432012,
				"y": -2.8186255021,
				"z": 1.4598816915,
				"element": "H" 
			},
			{
				"x": -1.0880116937,
				"y": -0.915799382,
				"z": 1.596168495,
				"element": "H" 
			},
			{
				"x": -1.1592475202,
				"y": 0.8302942468,
				"z": 1.8340259397,
				"element": "H" 
			},
			{
				"x": -3.3749570366,
				"y": -0.0138215575,
				"z": 1.1472888992,
				"element": "H" 
			},
			{
				"x": -2.6882155329,
				"y": -0.7863877012,
				"z": -0.2808427866,
				"element": "H" 
			},
			{
				"x": -3.700619688,
				"y": 1.3795799278,
				"z": -0.9724737124,
				"element": "H" 
			},
			{
				"x": -2.8068063826,
				"y": 2.2242902602,
				"z": 0.2933458495,
				"element": "H" 
			},
			{
				"x": -1.6487985652,
				"y": 2.6236766832,
				"z": -1.7646275924,
				"element": "H" 
			},
			{
				"x": -0.1905724752,
				"y": 2.3321727472,
				"z": 0.0923827063,
				"element": "H" 
			},
			{
				"x": 0.5972639238,
				"y": 1.5780297073,
				"z": -1.3035949222,
				"element": "H" 
			},
			{
				"x": -1.062039825,
				"y": -1.0088440482,
				"z": -3.4661831709,
				"element": "H" 
			},
			{
				"x": -0.3995201252,
				"y": -0.6629391554,
				"z": -1.874747164,
				"element": "H" 
			}
		],
		 "valence_orbital": [ 
			{
				"type": "occ",
				"energy": -0.25706,
				"method": "rhf"
			},
			{
				"type": "occ",
				"energy": -0.25052,
				"method": "rhf"
			},
			{
				"type": "occ",
				"energy": -0.23632,
				"method": "rhf"
			},
			{
				"type": "occ",
				"energy": -0.23466,
				"method": "rhf"
			},
			{
				"type": "occ",
				"energy": -0.21627,
				"method": "rhf"
			},
			{
				"type": "unocc",
				"energy": -0.0027,
				"method": "rhf"
			},
			{
				"type": "unocc",
				"energy": 0.00279,
				"method": "rhf"
			},
			{
				"type": "unocc",
				"energy": 0.0353,
				"method": "rhf"
			},
			{
				"type": "unocc",
				"energy": 0.06937,
				"method": "rhf"
			},
			{
				"type": "unocc",
				"energy": 0.08331,
				"method": "rhf"
			}
		],
		"cosmo_sigma_profile": { 
			"-0.025": 0.0,
			"-0.024": 0.0,
			"-0.023": 0.0,
			"-0.022": 0.0,
			"-0.021": 0.0,
			"-0.02": 0.0,
			"-0.019": 0.0,
			"-0.018": 0.0,
			"-0.017": 0.0,
			"-0.016": 0.0,
			"-0.015": 0.0,
			"-0.014": 0.0,
			"-0.013": 1.10691236,
			"-0.012": 0.717187794443,
			"-0.011": 1.27376851601,
			"-0.01": 2.22877619722,
			"-0.009": 3.4812822664,
			"-0.008": 4.07381466797,
			"-0.007": 4.85261905916,
			"-0.006": 5.78703757707,
			"-0.005": 15.1411204539,
			"-0.004": 22.9785363785,
			"-0.003": 38.7433894946,
			"-0.002": 36.1695529289,
			"-0.001": 29.0929607141,
			"0.0": 18.0218652723,
			"0.001": 13.5534708037,
			"0.002": 9.27281786318,
			"0.003": 10.7629032376,
			"0.004": 10.6479265373,
			"0.005": 10.2228930164,
			"0.006": 10.0089600589,
			"0.007": 7.23288109763,
			"0.008": 2.59276965929,
			"0.009": 1.45218231699,
			"0.01": 1.90470019495,
			"0.011": 1.83083701587,
			"0.012": 2.59587722515,
			"0.013": 2.61996825652,
			"0.014": 5.78438343744,
			"0.015": 4.47659184461,
			"0.016": 0.754989104804,
			"0.017": 0.416342567142,
			"0.018": 0.0,
			"0.019": 0.0,
			"0.02": 0.0,
			"0.021": 0.0,
			"0.022": 0.0,
			"0.023": 0.0,
			"0.024": 0.0,
			"0.025": 0.0
		}
	}
}
