{
	 "smiles": "OC(=O)C1=NC(NC2=C(F)C=CC=C2)=C2C=CC=CC2=C1", 
	 "Tm": 498.15, 
	 "num_atms": 32, 
	 "gaussian": { 
		 "optdone": 1, 
		 "sigma_profile": "yes", 
		 "theory": "DFT", 
		 "functional": "B3LYP", 
		 "basiset": "6-31G**", 
		 "properties": { 
			 "R2extent": 7293.3524, 
			 "electric_dipole_moment_norm": 2.50409548141, 
			 "electric_quadrupole_moment_norm": 18.2698355671, 
			 "total_energy": -976.152501625, 
			 "HOMO_LUMO_gap": 0.13894, 
			 "cosmo_polarized_energy": -14.9, 
			 "cosmo_cavitation_energy": 37.31, 
			 "cosmo_dispersion_energy": -26.94, 
			 "cosmo_repulsion_energy": 1.97, 
			 "cosmo_total_nonelectrostatic_energy": 12.34, 
			 "SMD_solvation_energy": 6.93 
		},
		"coords": [
			{
				"x": -2.8981210037,
				"y": -0.880032413,
				"z": -3.3400675224,
				"element": "O" 
			},
			{
				"x": -3.0332924113,
				"y": -1.6016677763,
				"z": -2.2061948624,
				"element": "C" 
			},
			{
				"x": -3.8579540451,
				"y": -2.4884517868,
				"z": -2.0918483352,
				"element": "O" 
			},
			{
				"x": -2.0792772136,
				"y": -1.2023445569,
				"z": -1.1253056295,
				"element": "C" 
			},
			{
				"x": -1.210502848,
				"y": -0.1933017596,
				"z": -1.3919541576,
				"element": "N" 
			},
			{
				"x": -0.3578541818,
				"y": 0.1805444227,
				"z": -0.4585722503,
				"element": "C" 
			},
			{
				"x": 0.5210365122,
				"y": 1.2040566711,
				"z": -0.7346783326,
				"element": "N" 
			},
			{
				"x": 0.6914036184,
				"y": 1.9726650548,
				"z": -1.892979345,
				"element": "C" 
			},
			{
				"x": 1.6993780816,
				"y": 2.9511928536,
				"z": -1.8305142897,
				"element": "C" 
			},
			{
				"x": 2.3980127225,
				"y": 3.0485412787,
				"z": -0.6613275497,
				"element": "F" 
			},
			{
				"x": 2.0050264253,
				"y": 3.7978607826,
				"z": -2.8775573587,
				"element": "C" 
			},
			{
				"x": 1.2770727436,
				"y": 3.6808358895,
				"z": -4.0656357049,
				"element": "C" 
			},
			{
				"x": 0.2708562828,
				"y": 2.720281768,
				"z": -4.159294584,
				"element": "C" 
			},
			{
				"x": -0.0303140535,
				"y": 1.8682864276,
				"z": -3.0932068554,
				"element": "C" 
			},
			{
				"x": -0.3048166471,
				"y": -0.4432166585,
				"z": 0.85476082,
				"element": "C" 
			},
			{
				"x": 0.5931532229,
				"y": -0.0726262229,
				"z": 1.884200552,
				"element": "C" 
			},
			{
				"x": 0.5776243766,
				"y": -0.71813262,
				"z": 3.1054109808,
				"element": "C" 
			},
			{
				"x": -0.3387513499,
				"y": -1.7635535982,
				"z": 3.3484754915,
				"element": "C" 
			},
			{
				"x": -1.2251988413,
				"y": -2.1462316397,
				"z": 2.365446276,
				"element": "C" 
			},
			{
				"x": -1.2317111653,
				"y": -1.501032756,
				"z": 1.102085077,
				"element": "C" 
			},
			{
				"x": -2.1344303108,
				"y": -1.8749306553,
				"z": 0.0709207362,
				"element": "C" 
			},
			{
				"x": -3.5657133503,
				"y": -1.234812647,
				"z": -3.9504703295,
				"element": "H" 
			},
			{
				"x": 1.158302735,
				"y": 1.464000298,
				"z": 0.0006291205,
				"element": "H" 
			},
			{
				"x": 2.7975329772,
				"y": 4.5276220636,
				"z": -2.751823391,
				"element": "H" 
			},
			{
				"x": 1.4990634892,
				"y": 4.3351259181,
				"z": -4.9024604978,
				"element": "H" 
			},
			{
				"x": -0.298859216,
				"y": 2.6233301998,
				"z": -5.0786172272,
				"element": "H" 
			},
			{
				"x": -0.8110566651,
				"y": 1.1258234763,
				"z": -3.1715964437,
				"element": "H" 
			},
			{
				"x": 1.3143121197,
				"y": 0.7261906013,
				"z": 1.7396066868,
				"element": "H" 
			},
			{
				"x": 1.2745450019,
				"y": -0.4190893975,
				"z": 3.8823114952,
				"element": "H" 
			},
			{
				"x": -0.3422747558,
				"y": -2.2642683545,
				"z": 4.312055347,
				"element": "H" 
			},
			{
				"x": -1.9348673437,
				"y": -2.9495090938,
				"z": 2.5417554859,
				"element": "H" 
			},
			{
				"x": -2.8550249068,
				"y": -2.6715557696,
				"z": 0.2134465976,
				"element": "H" 
			}
		],
		 "valence_orbital": [ 
			{
				"type": "occ",
				"energy": -0.27381,
				"method": "rhf"
			},
			{
				"type": "occ",
				"energy": -0.25702,
				"method": "rhf"
			},
			{
				"type": "occ",
				"energy": -0.24775,
				"method": "rhf"
			},
			{
				"type": "occ",
				"energy": -0.24294,
				"method": "rhf"
			},
			{
				"type": "occ",
				"energy": -0.20123,
				"method": "rhf"
			},
			{
				"type": "unocc",
				"energy": -0.06229,
				"method": "rhf"
			},
			{
				"type": "unocc",
				"energy": -0.04621,
				"method": "rhf"
			},
			{
				"type": "unocc",
				"energy": -0.00116,
				"method": "rhf"
			},
			{
				"type": "unocc",
				"energy": 0.0053,
				"method": "rhf"
			},
			{
				"type": "unocc",
				"energy": 0.01784,
				"method": "rhf"
			}
		],
		"cosmo_sigma_profile": { 
			"-0.025": 0.0,
			"-0.024": 0.0,
			"-0.023": 0.0,
			"-0.022": 0.0,
			"-0.021": 0.0,
			"-0.02": 0.0,
			"-0.019": 0.0,
			"-0.018": 0.605203551098,
			"-0.017": 1.18944316159,
			"-0.016": 0.648877577601,
			"-0.015": 0.684691071875,
			"-0.014": 0.813020356525,
			"-0.013": 1.43320169645,
			"-0.012": 1.55753340256,
			"-0.011": 2.12332027894,
			"-0.01": 2.19337144346,
			"-0.009": 2.21574335044,
			"-0.008": 2.17019285732,
			"-0.007": 9.86026496635,
			"-0.006": 17.3063959387,
			"-0.005": 16.3101812392,
			"-0.004": 16.3142420999,
			"-0.003": 14.930267565,
			"-0.002": 15.1229230488,
			"-0.001": 18.1414161208,
			"0.0": 22.7592213974,
			"0.001": 27.6590845141,
			"0.002": 33.3174265882,
			"0.003": 28.5492662124,
			"0.004": 23.1701886118,
			"0.005": 12.7788625253,
			"0.006": 5.60695369204,
			"0.007": 4.70041948729,
			"0.008": 5.00921428393,
			"0.009": 3.70358046843,
			"0.01": 2.19303887724,
			"0.011": 3.84413728883,
			"0.012": 4.17555679132,
			"0.013": 0.0796606539641,
			"0.014": 0.0,
			"0.015": 0.0,
			"0.016": 0.0,
			"0.017": 0.0,
			"0.018": 0.0,
			"0.019": 0.0,
			"0.02": 0.0,
			"0.021": 0.0,
			"0.022": 0.0,
			"0.023": 0.0,
			"0.024": 0.0,
			"0.025": 0.0
		}
	}
}
