{
	 "smiles": "CC(OC(=O)CCC(O)=O)C1=C(C)C2=C(O1)C=CC(=C2)C1=CC(=O)OC1", 
	 "Tm": 417.15, 
	 "num_atms": 44, 
	 "gaussian": { 
		 "optdone": 1, 
		 "sigma_profile": "yes", 
		 "theory": "DFT", 
		 "functional": "B3LYP", 
		 "basiset": "6-31G**", 
		 "properties": { 
			 "R2extent": 13688.6877, 
			 "electric_dipole_moment_norm": 10.5051647969, 
			 "electric_quadrupole_moment_norm": 42.9304415322, 
			 "total_energy": -1261.46345425, 
			 "HOMO_LUMO_gap": 0.16641, 
			 "cosmo_polarized_energy": -29.97, 
			 "cosmo_cavitation_energy": 49.29, 
			 "cosmo_dispersion_energy": -33.44, 
			 "cosmo_repulsion_energy": 2.54, 
			 "cosmo_total_nonelectrostatic_energy": 18.4, 
			 "SMD_solvation_energy": 10.9 
		},
		"coords": [
			{
				"x": 3.1375520814,
				"y": 2.548929661,
				"z": 0.2459058069,
				"element": "C" 
			},
			{
				"x": 2.9049877977,
				"y": 1.1145430063,
				"z": 0.7149878875,
				"element": "C" 
			},
			{
				"x": 3.6638600698,
				"y": 0.2621755446,
				"z": -0.18258151,
				"element": "O" 
			},
			{
				"x": 3.9910991758,
				"y": -0.9653502454,
				"z": 0.2807222111,
				"element": "C" 
			},
			{
				"x": 3.7091408584,
				"y": -1.373874801,
				"z": 1.385774343,
				"element": "O" 
			},
			{
				"x": 4.7950029817,
				"y": -1.7402256848,
				"z": -0.747967644,
				"element": "C" 
			},
			{
				"x": 4.7325214985,
				"y": -3.2405823816,
				"z": -0.4781935824,
				"element": "C" 
			},
			{
				"x": 3.3541535298,
				"y": -3.8123731726,
				"z": -0.7942640078,
				"element": "C" 
			},
			{
				"x": 3.1545817901,
				"y": -5.1007613931,
				"z": -0.4252295285,
				"element": "O" 
			},
			{
				"x": 2.4801589603,
				"y": -3.2015805109,
				"z": -1.3596010859,
				"element": "O" 
			},
			{
				"x": 1.4573713594,
				"y": 0.7143722685,
				"z": 0.7213878201,
				"element": "C" 
			},
			{
				"x": 0.601715174,
				"y": 0.226136335,
				"z": -0.2191076426,
				"element": "C" 
			},
			{
				"x": 0.8739417528,
				"y": -0.1306448424,
				"z": -1.6499779439,
				"element": "C" 
			},
			{
				"x": -0.6694656958,
				"y": 0.0821523323,
				"z": 0.4647827736,
				"element": "C" 
			},
			{
				"x": -0.4580039754,
				"y": 0.5256481431,
				"z": 1.7837243183,
				"element": "C" 
			},
			{
				"x": 0.8374874317,
				"y": 0.9109887709,
				"z": 1.946147792,
				"element": "O" 
			},
			{
				"x": -1.454004574,
				"y": 0.5502588165,
				"z": 2.7509205595,
				"element": "C" 
			},
			{
				"x": -2.7127708429,
				"y": 0.1040304128,
				"z": 2.3594621489,
				"element": "C" 
			},
			{
				"x": -2.97541501,
				"y": -0.3533656835,
				"z": 1.0430268212,
				"element": "C" 
			},
			{
				"x": -1.9394133589,
				"y": -0.3618873106,
				"z": 0.093388062,
				"element": "C" 
			},
			{
				"x": -4.3205840615,
				"y": -0.8108704626,
				"z": 0.6865492017,
				"element": "C" 
			},
			{
				"x": -4.7956867179,
				"y": -1.2832652411,
				"z": -0.4828339788,
				"element": "C" 
			},
			{
				"x": -6.2252576331,
				"y": -1.6119934946,
				"z": -0.3466312001,
				"element": "C" 
			},
			{
				"x": -7.0040323783,
				"y": -2.0528689328,
				"z": -1.155163773,
				"element": "O" 
			},
			{
				"x": -6.5986379538,
				"y": -1.3212753898,
				"z": 0.9533622063,
				"element": "O" 
			},
			{
				"x": -5.4739072518,
				"y": -0.8178274925,
				"z": 1.6688337418,
				"element": "C" 
			},
			{
				"x": 2.5900660811,
				"y": 3.2386165012,
				"z": 0.8942422148,
				"element": "H" 
			},
			{
				"x": 2.784824651,
				"y": 2.6842315812,
				"z": -0.7799434371,
				"element": "H" 
			},
			{
				"x": 4.2019915588,
				"y": 2.7962676612,
				"z": 0.289731533,
				"element": "H" 
			},
			{
				"x": 3.2862476093,
				"y": 0.9740890504,
				"z": 1.7307241102,
				"element": "H" 
			},
			{
				"x": 5.8319669767,
				"y": -1.3874964756,
				"z": -0.6927467437,
				"element": "H" 
			},
			{
				"x": 4.4222430135,
				"y": -1.5048169195,
				"z": -1.7466722072,
				"element": "H" 
			},
			{
				"x": 5.4715764247,
				"y": -3.7722422923,
				"z": -1.0908634354,
				"element": "H" 
			},
			{
				"x": 4.9707170071,
				"y": -3.4391099004,
				"z": 0.5728222689,
				"element": "H" 
			},
			{
				"x": 3.9277600013,
				"y": -5.4404711768,
				"z": 0.0476408209,
				"element": "H" 
			},
			{
				"x": 1.8019200107,
				"y": 0.3194158518,
				"z": -2.0065984354,
				"element": "H" 
			},
			{
				"x": 0.0576036109,
				"y": 0.2139768075,
				"z": -2.2940864265,
				"element": "H" 
			},
			{
				"x": 0.9684260662,
				"y": -1.2150225415,
				"z": -1.7722091683,
				"element": "H" 
			},
			{
				"x": -1.2565885455,
				"y": 0.8970775369,
				"z": 3.7590955953,
				"element": "H" 
			},
			{
				"x": -3.5120995048,
				"y": 0.1087785369,
				"z": 3.0932848065,
				"element": "H" 
			},
			{
				"x": -2.1245636597,
				"y": -0.7120685497,
				"z": -0.9167265129,
				"element": "H" 
			},
			{
				"x": -4.2725325296,
				"y": -1.4282398846,
				"z": -1.417523758,
				"element": "H" 
			},
			{
				"x": -5.7080252359,
				"y": 0.1871309819,
				"z": 2.0422960193,
				"element": "H" 
			},
			{
				"x": -5.2796285434,
				"y": -1.4663050203,
				"z": 2.5325089587,
				"element": "H" 
			}
		],
		 "valence_orbital": [ 
			{
				"type": "occ",
				"energy": -0.28492,
				"method": "rhf"
			},
			{
				"type": "occ",
				"energy": -0.27685,
				"method": "rhf"
			},
			{
				"type": "occ",
				"energy": -0.25667,
				"method": "rhf"
			},
			{
				"type": "occ",
				"energy": -0.23113,
				"method": "rhf"
			},
			{
				"type": "occ",
				"energy": -0.22481,
				"method": "rhf"
			},
			{
				"type": "unocc",
				"energy": -0.0584,
				"method": "rhf"
			},
			{
				"type": "unocc",
				"energy": -0.02919,
				"method": "rhf"
			},
			{
				"type": "unocc",
				"energy": -0.00336,
				"method": "rhf"
			},
			{
				"type": "unocc",
				"energy": -0.00039,
				"method": "rhf"
			},
			{
				"type": "unocc",
				"energy": 0.02773,
				"method": "rhf"
			}
		],
		"cosmo_sigma_profile": { 
			"-0.025": 0.0,
			"-0.024": 0.0,
			"-0.023": 0.0,
			"-0.022": 0.0,
			"-0.021": 0.0,
			"-0.02": 0.0,
			"-0.019": 0.757396200616,
			"-0.018": 1.09303960961,
			"-0.017": 1.39325630743,
			"-0.016": 1.0367833733,
			"-0.015": 0.840958164734,
			"-0.014": 1.14569054351,
			"-0.013": 1.77771919559,
			"-0.012": 0.686602126691,
			"-0.011": 1.31854671361,
			"-0.01": 0.729855212406,
			"-0.009": 3.32507597132,
			"-0.008": 13.2028832748,
			"-0.007": 18.7245308011,
			"-0.006": 19.1529420505,
			"-0.005": 23.7288782569,
			"-0.004": 28.5883300255,
			"-0.003": 26.1362556249,
			"-0.002": 24.3838229829,
			"-0.001": 26.2112891861,
			"0.0": 26.3462114359,
			"0.001": 26.4555745435,
			"0.002": 24.1827244151,
			"0.003": 24.6404701633,
			"0.004": 15.6182098467,
			"0.005": 9.64047646524,
			"0.006": 10.083555248,
			"0.007": 8.00706143647,
			"0.008": 8.86690434862,
			"0.009": 7.31323841292,
			"0.01": 11.6693648296,
			"0.011": 10.7923216564,
			"0.012": 8.33342150194,
			"0.013": 4.93185638553,
			"0.014": 0.518302164147,
			"0.015": 0.0,
			"0.016": 0.0,
			"0.017": 0.0,
			"0.018": 0.0,
			"0.019": 0.0,
			"0.02": 0.0,
			"0.021": 0.0,
			"0.022": 0.0,
			"0.023": 0.0,
			"0.024": 0.0,
			"0.025": 0.0
		}
	}
}
