{
	 "smiles": "CN1C=C(C=N1)C1=NC(=CS1)C(O)=O", 
	 "Tm": 536.15, 
	 "num_atms": 21, 
	 "gaussian": { 
		 "optdone": 1, 
		 "sigma_profile": "yes", 
		 "theory": "DFT", 
		 "functional": "B3LYP", 
		 "basiset": "6-31G**", 
		 "properties": { 
			 "R2extent": 4111.2351, 
			 "electric_dipole_moment_norm": 3.70875956622, 
			 "electric_quadrupole_moment_norm": 34.0120781297, 
			 "total_energy": -1021.93330361, 
			 "HOMO_LUMO_gap": 0.17245, 
			 "cosmo_polarized_energy": -21.92, 
			 "cosmo_cavitation_energy": 28.59, 
			 "cosmo_dispersion_energy": -21.38, 
			 "cosmo_repulsion_energy": 1.63, 
			 "cosmo_total_nonelectrostatic_energy": 8.85, 
			 "SMD_solvation_energy": 4.22 
		},
		"coords": [
			{
				"x": 1.4971796809,
				"y": 4.1459866007,
				"z": 1.4266133947,
				"element": "C" 
			},
			{
				"x": 1.3297952254,
				"y": 2.8448564698,
				"z": 0.8034433162,
				"element": "N" 
			},
			{
				"x": 0.3504740431,
				"y": 1.9395172084,
				"z": 1.0168467592,
				"element": "C" 
			},
			{
				"x": 0.6220044724,
				"y": 0.8522312558,
				"z": 0.1908398833,
				"element": "C" 
			},
			{
				"x": 1.8121109005,
				"y": 1.2252523773,
				"z": -0.4866510896,
				"element": "C" 
			},
			{
				"x": 2.2365413389,
				"y": 2.4275098589,
				"z": -0.1140726323,
				"element": "N" 
			},
			{
				"x": -0.1727498589,
				"y": -0.3538611449,
				"z": 0.0985454914,
				"element": "C" 
			},
			{
				"x": -1.2766462649,
				"y": -0.5617394257,
				"z": 0.7647178987,
				"element": "N" 
			},
			{
				"x": -1.8229746812,
				"y": -1.7857745148,
				"z": 0.468623884,
				"element": "C" 
			},
			{
				"x": -1.1265684084,
				"y": -2.5471222143,
				"z": -0.4382444988,
				"element": "C" 
			},
			{
				"x": 0.29035099,
				"y": -1.7033762834,
				"z": -0.9578204123,
				"element": "S" 
			},
			{
				"x": -3.0671557961,
				"y": -2.2171888558,
				"z": 1.1819916214,
				"element": "C" 
			},
			{
				"x": -3.824579042,
				"y": -3.1383525397,
				"z": 0.5213470504,
				"element": "O" 
			},
			{
				"x": -3.3896333667,
				"y": -1.8206008799,
				"z": 2.2716334507,
				"element": "O" 
			},
			{
				"x": 2.4508734554,
				"y": 4.1839127085,
				"z": 1.9584967917,
				"element": "H" 
			},
			{
				"x": 1.4830891956,
				"y": 4.9285180965,
				"z": 0.6641422344,
				"element": "H" 
			},
			{
				"x": 0.6802733347,
				"y": 4.3081768142,
				"z": 2.1309110627,
				"element": "H" 
			},
			{
				"x": -0.456850997,
				"y": 2.0990808375,
				"z": 1.7153716103,
				"element": "H" 
			},
			{
				"x": 2.3699808268,
				"y": 0.6661445775,
				"z": -1.2266552812,
				"element": "H" 
			},
			{
				"x": -1.3261984127,
				"y": -3.5541582602,
				"z": -0.7775444589,
				"element": "H" 
			},
			{
				"x": -3.5378166357,
				"y": -3.1963126866,
				"z": -0.4010360761,
				"element": "H" 
			}
		],
		 "valence_orbital": [ 
			{
				"type": "occ",
				"energy": -0.29243,
				"method": "rhf"
			},
			{
				"type": "occ",
				"energy": -0.28621,
				"method": "rhf"
			},
			{
				"type": "occ",
				"energy": -0.27147,
				"method": "rhf"
			},
			{
				"type": "occ",
				"energy": -0.26909,
				"method": "rhf"
			},
			{
				"type": "occ",
				"energy": -0.23118,
				"method": "rhf"
			},
			{
				"type": "unocc",
				"energy": -0.05873,
				"method": "rhf"
			},
			{
				"type": "unocc",
				"energy": -0.02545,
				"method": "rhf"
			},
			{
				"type": "unocc",
				"energy": 0.00068,
				"method": "rhf"
			},
			{
				"type": "unocc",
				"energy": 0.00705,
				"method": "rhf"
			},
			{
				"type": "unocc",
				"energy": 0.05366,
				"method": "rhf"
			}
		],
		"cosmo_sigma_profile": { 
			"-0.025": 0.0,
			"-0.024": 0.0,
			"-0.023": 0.0,
			"-0.022": 0.0,
			"-0.021": 0.0,
			"-0.02": 0.0,
			"-0.019": 0.412990268864,
			"-0.018": 0.806950020696,
			"-0.017": 1.12052915804,
			"-0.016": 0.893968148254,
			"-0.015": 1.22340913442,
			"-0.014": 0.80925160609,
			"-0.013": 1.72980441532,
			"-0.012": 1.84390161289,
			"-0.011": 1.9316506174,
			"-0.01": 4.33374472806,
			"-0.009": 4.85379107817,
			"-0.008": 6.95462208365,
			"-0.007": 8.70859703913,
			"-0.006": 11.8941266566,
			"-0.005": 11.47094763,
			"-0.004": 13.4802150985,
			"-0.003": 14.7396427975,
			"-0.002": 10.9558389689,
			"-0.001": 14.9758042134,
			"0.0": 17.2010475084,
			"0.001": 16.5477840078,
			"0.002": 15.2481897932,
			"0.003": 10.0355064904,
			"0.004": 5.00577456961,
			"0.005": 6.49078446977,
			"0.006": 3.94420625957,
			"0.007": 5.89570781599,
			"0.008": 3.9877794357,
			"0.009": 6.37594367283,
			"0.01": 6.14074306825,
			"0.011": 8.71482863093,
			"0.012": 6.36772220686,
			"0.013": 3.69314356912,
			"0.014": 2.34517920656,
			"0.015": 0.948314024674,
			"0.016": 0.0473137095477,
			"0.017": 0.0,
			"0.018": 0.0,
			"0.019": 0.0,
			"0.02": 0.0,
			"0.021": 0.0,
			"0.022": 0.0,
			"0.023": 0.0,
			"0.024": 0.0,
			"0.025": 0.0
		}
	}
}
