{
	 "smiles": "OC(=O)C1CSC2=C1C=CC=C2", 
	 "Tm": 369.15, 
	 "num_atms": 20, 
	 "gaussian": { 
		 "optdone": 1, 
		 "sigma_profile": "yes", 
		 "theory": "DFT", 
		 "functional": "B3LYP", 
		 "basiset": "6-31G**", 
		 "properties": { 
			 "R2extent": 2589.159, 
			 "electric_dipole_moment_norm": 1.28842435168, 
			 "electric_quadrupole_moment_norm": 10.8440059826, 
			 "total_energy": -896.430824552, 
			 "HOMO_LUMO_gap": 0.19669, 
			 "cosmo_polarized_energy": -10.41, 
			 "cosmo_cavitation_energy": 25.06, 
			 "cosmo_dispersion_energy": -19.15, 
			 "cosmo_repulsion_energy": 1.47, 
			 "cosmo_total_nonelectrostatic_energy": 7.38, 
			 "SMD_solvation_energy": 4.68 
		},
		"coords": [
			{
				"x": 1.5212443194,
				"y": -2.5729558758,
				"z": -0.5182022995,
				"element": "O" 
			},
			{
				"x": 0.9344292847,
				"y": -1.9575726199,
				"z": 0.5329588397,
				"element": "C" 
			},
			{
				"x": 0.9925315546,
				"y": -2.3981753069,
				"z": 1.6605338307,
				"element": "O" 
			},
			{
				"x": 0.2378125788,
				"y": -0.6552997481,
				"z": 0.1706662271,
				"element": "C" 
			},
			{
				"x": -0.1508495301,
				"y": -0.5057279059,
				"z": -1.3130872226,
				"element": "C" 
			},
			{
				"x": -0.2810390317,
				"y": 1.3073491927,
				"z": -1.6413649421,
				"element": "S" 
			},
			{
				"x": 0.885123988,
				"y": 1.6479640239,
				"z": -0.3416319518,
				"element": "C" 
			},
			{
				"x": 1.0940310033,
				"y": 0.5612028574,
				"z": 0.5215493652,
				"element": "C" 
			},
			{
				"x": 1.9550071459,
				"y": 0.6924274443,
				"z": 1.608262252,
				"element": "C" 
			},
			{
				"x": 2.615429318,
				"y": 1.906681626,
				"z": 1.8222873501,
				"element": "C" 
			},
			{
				"x": 2.4043183659,
				"y": 2.9831462612,
				"z": 0.9582384276,
				"element": "C" 
			},
			{
				"x": 1.5360999895,
				"y": 2.8635585557,
				"z": -0.1302207056,
				"element": "C" 
			},
			{
				"x": 1.9566772485,
				"y": -3.3640033584,
				"z": -0.1572918142,
				"element": "H" 
			},
			{
				"x": -0.6635114369,
				"y": -0.6241346928,
				"z": 0.7974427875,
				"element": "H" 
			},
			{
				"x": -1.1071907717,
				"y": -0.9776348286,
				"z": -1.5441139599,
				"element": "H" 
			},
			{
				"x": 0.6200275031,
				"y": -0.924525431,
				"z": -1.9611630717,
				"element": "H" 
			},
			{
				"x": 2.1023545871,
				"y": -0.144874342,
				"z": 2.2836113705,
				"element": "H" 
			},
			{
				"x": 3.2930333683,
				"y": 2.009892728,
				"z": 2.6642428837,
				"element": "H" 
			},
			{
				"x": 2.921039376,
				"y": 3.923534137,
				"z": 1.1272250678,
				"element": "H" 
			},
			{
				"x": 1.3777311394,
				"y": 3.6996472833,
				"z": -0.8042424345,
				"element": "H" 
			}
		],
		 "valence_orbital": [ 
			{
				"type": "occ",
				"energy": -0.32783,
				"method": "rhf"
			},
			{
				"type": "occ",
				"energy": -0.28904,
				"method": "rhf"
			},
			{
				"type": "occ",
				"energy": -0.28182,
				"method": "rhf"
			},
			{
				"type": "occ",
				"energy": -0.25264,
				"method": "rhf"
			},
			{
				"type": "occ",
				"energy": -0.21027,
				"method": "rhf"
			},
			{
				"type": "unocc",
				"energy": -0.01358,
				"method": "rhf"
			},
			{
				"type": "unocc",
				"energy": -0.00901,
				"method": "rhf"
			},
			{
				"type": "unocc",
				"energy": 0.00175,
				"method": "rhf"
			},
			{
				"type": "unocc",
				"energy": 0.01987,
				"method": "rhf"
			},
			{
				"type": "unocc",
				"energy": 0.06567,
				"method": "rhf"
			}
		],
		"cosmo_sigma_profile": { 
			"-0.025": 0.0,
			"-0.024": 0.0,
			"-0.023": 0.0,
			"-0.022": 0.0,
			"-0.021": 0.0,
			"-0.02": 0.0,
			"-0.019": 0.304238506436,
			"-0.018": 0.954403381028,
			"-0.017": 0.835371153619,
			"-0.016": 0.854742743033,
			"-0.015": 1.03769657936,
			"-0.014": 0.969424024401,
			"-0.013": 0.281756684125,
			"-0.012": 0.189732159782,
			"-0.011": 0.649611192077,
			"-0.01": 0.765715071506,
			"-0.009": 0.595338698965,
			"-0.008": 1.16089244119,
			"-0.007": 6.86147255817,
			"-0.006": 13.01691398,
			"-0.005": 13.1201953313,
			"-0.004": 14.7817806463,
			"-0.003": 13.632095766,
			"-0.002": 12.8648521308,
			"-0.001": 11.2628677293,
			"0.0": 12.5520271985,
			"0.001": 10.5810497071,
			"0.002": 12.7590293018,
			"0.003": 14.0368679242,
			"0.004": 16.2250762368,
			"0.005": 14.8819581524,
			"0.006": 6.82089694981,
			"0.007": 4.7754106209,
			"0.008": 3.96620286666,
			"0.009": 2.48044416184,
			"0.01": 2.05084781052,
			"0.011": 4.35344447033,
			"0.012": 2.23812549937,
			"0.013": 0.0656340804036,
			"0.014": 0.0,
			"0.015": 0.0,
			"0.016": 0.0,
			"0.017": 0.0,
			"0.018": 0.0,
			"0.019": 0.0,
			"0.02": 0.0,
			"0.021": 0.0,
			"0.022": 0.0,
			"0.023": 0.0,
			"0.024": 0.0,
			"0.025": 0.0
		}
	}
}
