{
	 "smiles": "CC1=CC2=C(C=C(N2)C(O)=O)C=C1", 
	 "Tm": 483.15, 
	 "num_atms": 22, 
	 "gaussian": { 
		 "optdone": 1, 
		 "sigma_profile": "yes", 
		 "theory": "DFT", 
		 "functional": "B3LYP", 
		 "basiset": "6-31G**", 
		 "properties": { 
			 "R2extent": 4501.4735, 
			 "electric_dipole_moment_norm": 3.74618447757, 
			 "electric_quadrupole_moment_norm": 21.2242606625, 
			 "total_energy": -591.712784837, 
			 "HOMO_LUMO_gap": 0.16775, 
			 "cosmo_polarized_energy": -14.71, 
			 "cosmo_cavitation_energy": 26.4, 
			 "cosmo_dispersion_energy": -19.69, 
			 "cosmo_repulsion_energy": 1.54, 
			 "cosmo_total_nonelectrostatic_energy": 8.26, 
			 "SMD_solvation_energy": 5.36 
		},
		"coords": [
			{
				"x": -0.7815711757,
				"y": 0.9849238452,
				"z": 3.2836574751,
				"element": "C" 
			},
			{
				"x": -0.575603318,
				"y": -0.0008286125,
				"z": 2.1578984734,
				"element": "C" 
			},
			{
				"x": -1.6604582175,
				"y": -0.5597506087,
				"z": 1.4934845293,
				"element": "C" 
			},
			{
				"x": -1.4099397111,
				"y": -1.4695491239,
				"z": 0.4553503468,
				"element": "C" 
			},
			{
				"x": -0.0876188628,
				"y": -1.8331577868,
				"z": 0.0668820925,
				"element": "C" 
			},
			{
				"x": -0.211668399,
				"y": -2.7668844171,
				"z": -1.0069961434,
				"element": "C" 
			},
			{
				"x": -1.563635505,
				"y": -2.9423618526,
				"z": -1.237647512,
				"element": "C" 
			},
			{
				"x": -2.2773855014,
				"y": -2.1573558065,
				"z": -0.3524460909,
				"element": "N" 
			},
			{
				"x": -2.3354732834,
				"y": -3.756712959,
				"z": -2.1891056359,
				"element": "C" 
			},
			{
				"x": -1.6335535548,
				"y": -4.5263370049,
				"z": -3.056825129,
				"element": "O" 
			},
			{
				"x": -3.5491426547,
				"y": -3.751191876,
				"z": -2.2095067832,
				"element": "O" 
			},
			{
				"x": 0.9997201924,
				"y": -1.2551444107,
				"z": 0.7534781735,
				"element": "C" 
			},
			{
				"x": 0.7465428307,
				"y": -0.3591833256,
				"z": 1.7755087843,
				"element": "C" 
			},
			{
				"x": -1.8435158912,
				"y": 1.1662202024,
				"z": 3.4700877064,
				"element": "H" 
			},
			{
				"x": -0.3345799201,
				"y": 0.6219585058,
				"z": 4.2166351013,
				"element": "H" 
			},
			{
				"x": -0.3113805222,
				"y": 1.9494092542,
				"z": 3.0584365379,
				"element": "H" 
			},
			{
				"x": -2.6772638214,
				"y": -0.2973520032,
				"z": 1.772466318,
				"element": "H" 
			},
			{
				"x": 0.6065741335,
				"y": -3.2414703486,
				"z": -1.5334862678,
				"element": "H" 
			},
			{
				"x": -3.2866338202,
				"y": -2.1375974714,
				"z": -0.352848577,
				"element": "H" 
			},
			{
				"x": -0.683341913,
				"y": -4.4173192654,
				"z": -2.9110570656,
				"element": "H" 
			},
			{
				"x": 2.0204958851,
				"y": -1.5102696426,
				"z": 0.4830498566,
				"element": "H" 
			},
			{
				"x": 1.5797330296,
				"y": 0.090554708,
				"z": 2.3093838098,
				"element": "H" 
			}
		],
		 "valence_orbital": [ 
			{
				"type": "occ",
				"energy": -0.31526,
				"method": "rhf"
			},
			{
				"type": "occ",
				"energy": -0.2897,
				"method": "rhf"
			},
			{
				"type": "occ",
				"energy": -0.2796,
				"method": "rhf"
			},
			{
				"type": "occ",
				"energy": -0.23058,
				"method": "rhf"
			},
			{
				"type": "occ",
				"energy": -0.2187,
				"method": "rhf"
			},
			{
				"type": "unocc",
				"energy": -0.05095,
				"method": "rhf"
			},
			{
				"type": "unocc",
				"energy": 0.00997,
				"method": "rhf"
			},
			{
				"type": "unocc",
				"energy": 0.02259,
				"method": "rhf"
			},
			{
				"type": "unocc",
				"energy": 0.05319,
				"method": "rhf"
			},
			{
				"type": "unocc",
				"energy": 0.09512,
				"method": "rhf"
			}
		],
		"cosmo_sigma_profile": { 
			"-0.025": 0.0,
			"-0.024": 0.0,
			"-0.023": 0.0,
			"-0.022": 0.0,
			"-0.021": 0.0,
			"-0.02": 0.0,
			"-0.019": 0.158777319029,
			"-0.018": 0.952856273562,
			"-0.017": 0.629809005329,
			"-0.016": 1.57425287077,
			"-0.015": 1.43885570692,
			"-0.014": 2.26951507243,
			"-0.013": 1.29537061967,
			"-0.012": 2.16415177792,
			"-0.011": 2.2916805652,
			"-0.01": 1.77990889958,
			"-0.009": 2.22336365849,
			"-0.008": 3.16200569473,
			"-0.007": 3.04116833102,
			"-0.006": 5.84910752177,
			"-0.005": 9.31685105974,
			"-0.004": 13.9430952549,
			"-0.003": 15.0510117422,
			"-0.002": 16.3851602258,
			"-0.001": 13.8159995751,
			"0.0": 16.4025103844,
			"0.001": 13.4712469568,
			"0.002": 11.3148619018,
			"0.003": 14.1246373137,
			"0.004": 13.1137597864,
			"0.005": 13.4693481668,
			"0.006": 7.25484290348,
			"0.007": 2.93339167015,
			"0.008": 2.31735252916,
			"0.009": 3.22524026571,
			"0.01": 4.91354047643,
			"0.011": 4.34531052234,
			"0.012": 4.36641907367,
			"0.013": 1.95033484762,
			"0.014": 0.184173691225,
			"0.015": 0.0,
			"0.016": 0.0,
			"0.017": 0.0,
			"0.018": 0.0,
			"0.019": 0.0,
			"0.02": 0.0,
			"0.021": 0.0,
			"0.022": 0.0,
			"0.023": 0.0,
			"0.024": 0.0,
			"0.025": 0.0
		}
	}
}
