{
	 "smiles": "OC1=CC(Cl)=CC(Cl)=C1", 
	 "Tm": 340.15, 
	 "num_atms": 13, 
	 "gaussian": { 
		 "optdone": 1, 
		 "sigma_profile": "yes", 
		 "theory": "DFT", 
		 "functional": "B3LYP", 
		 "basiset": "6-31G**", 
		 "properties": { 
			 "R2extent": 2410.4787, 
			 "electric_dipole_moment_norm": 2.3887325698, 
			 "electric_quadrupole_moment_norm": 6.87720895349, 
			 "total_energy": -1226.65289465, 
			 "HOMO_LUMO_gap": 0.21652, 
			 "cosmo_polarized_energy": -8.26, 
			 "cosmo_cavitation_energy": 21.18, 
			 "cosmo_dispersion_energy": -16.15, 
			 "cosmo_repulsion_energy": 1.33, 
			 "cosmo_total_nonelectrostatic_energy": 6.36, 
			 "SMD_solvation_energy": 3.49 
		},
		"coords": [
			{
				"x": -0.2883207487,
				"y": -1.4376699862,
				"z": -1.6666457705,
				"element": "O" 
			},
			{
				"x": 0.350246965,
				"y": -0.8683091576,
				"z": -0.608075081,
				"element": "C" 
			},
			{
				"x": -0.4036353951,
				"y": -0.6745033,
				"z": 0.5555981488,
				"element": "C" 
			},
			{
				"x": 0.2132150619,
				"y": -0.0956429604,
				"z": 1.6585916482,
				"element": "C" 
			},
			{
				"x": -0.7237392239,
				"y": 0.1514202698,
				"z": 3.122155051,
				"element": "Cl" 
			},
			{
				"x": 1.5531165982,
				"y": 0.2978639453,
				"z": 1.6469804158,
				"element": "C" 
			},
			{
				"x": 2.2709329389,
				"y": 0.0892405174,
				"z": 0.471873486,
				"element": "C" 
			},
			{
				"x": 3.9589287786,
				"y": 0.5682237628,
				"z": 0.410553572,
				"element": "Cl" 
			},
			{
				"x": 1.6956673674,
				"y": -0.4872662602,
				"z": -0.6589852113,
				"element": "C" 
			},
			{
				"x": 0.3247222534,
				"y": -1.5218942582,
				"z": -2.4085170351,
				"element": "H" 
			},
			{
				"x": -1.4436525945,
				"y": -0.9748403572,
				"z": 0.5789035897,
				"element": "H" 
			},
			{
				"x": 2.0151209501,
				"y": 0.7468673423,
				"z": 2.5161665832,
				"element": "H" 
			},
			{
				"x": 2.2856970486,
				"y": -0.6346895578,
				"z": -1.5578993967,
				"element": "H" 
			}
		],
		 "valence_orbital": [ 
			{
				"type": "occ",
				"energy": -0.32636,
				"method": "rhf"
			},
			{
				"type": "occ",
				"energy": -0.31687,
				"method": "rhf"
			},
			{
				"type": "occ",
				"energy": -0.30898,
				"method": "rhf"
			},
			{
				"type": "occ",
				"energy": -0.25551,
				"method": "rhf"
			},
			{
				"type": "occ",
				"energy": -0.24347,
				"method": "rhf"
			},
			{
				"type": "unocc",
				"energy": -0.02695,
				"method": "rhf"
			},
			{
				"type": "unocc",
				"energy": -0.01241,
				"method": "rhf"
			},
			{
				"type": "unocc",
				"energy": 0.00257,
				"method": "rhf"
			},
			{
				"type": "unocc",
				"energy": 0.04354,
				"method": "rhf"
			},
			{
				"type": "unocc",
				"energy": 0.06031,
				"method": "rhf"
			}
		],
		"cosmo_sigma_profile": { 
			"-0.025": 0.0,
			"-0.024": 0.0,
			"-0.023": 0.0,
			"-0.022": 0.0,
			"-0.021": 0.0,
			"-0.02": 0.0,
			"-0.019": 0.561075845986,
			"-0.018": 1.33572595533,
			"-0.017": 1.01455452299,
			"-0.016": 1.4130461237,
			"-0.015": 0.833078977103,
			"-0.014": 0.616735591347,
			"-0.013": 0.377758390108,
			"-0.012": 1.61662460483,
			"-0.011": 1.60287591905,
			"-0.01": 1.08681360585,
			"-0.009": 1.11959242884,
			"-0.008": 3.27945219383,
			"-0.007": 4.16154505462,
			"-0.006": 4.81539414081,
			"-0.005": 3.91394676675,
			"-0.004": 4.0692704654,
			"-0.003": 6.05037117878,
			"-0.002": 8.3427173373,
			"-0.001": 9.94829354212,
			"0.0": 12.8279342411,
			"0.001": 22.806825032,
			"0.002": 29.5231672916,
			"0.003": 17.0898565792,
			"0.004": 21.3856302337,
			"0.005": 6.44871970361,
			"0.006": 2.02525543903,
			"0.007": 1.03128606054,
			"0.008": 1.13670304879,
			"0.009": 1.76148734496,
			"0.01": 1.81310111562,
			"0.011": 0.527261346174,
			"0.012": 0.0,
			"0.013": 0.0,
			"0.014": 0.0,
			"0.015": 0.0,
			"0.016": 0.0,
			"0.017": 0.0,
			"0.018": 0.0,
			"0.019": 0.0,
			"0.02": 0.0,
			"0.021": 0.0,
			"0.022": 0.0,
			"0.023": 0.0,
			"0.024": 0.0,
			"0.025": 0.0
		}
	}
}
