{
	 "smiles": "ON=CC(=O)NC1=C(Cl)C=C(F)C=C1", 
	 "Tm": 419.15, 
	 "num_atms": 20, 
	 "gaussian": { 
		 "optdone": 1, 
		 "sigma_profile": "yes", 
		 "theory": "DFT", 
		 "functional": "B3LYP", 
		 "basiset": "6-31G**", 
		 "properties": { 
			 "R2extent": 3944.2777, 
			 "electric_dipole_moment_norm": 2.95172273427, 
			 "electric_quadrupole_moment_norm": 12.9554393438, 
			 "total_energy": -1128.37847037, 
			 "HOMO_LUMO_gap": 0.17582, 
			 "cosmo_polarized_energy": -13.53, 
			 "cosmo_cavitation_energy": 28.25, 
			 "cosmo_dispersion_energy": -19.83, 
			 "cosmo_repulsion_energy": 1.58, 
			 "cosmo_total_nonelectrostatic_energy": 10.0, 
			 "SMD_solvation_energy": 6.65 
		},
		"coords": [
			{
				"x": -2.4233433815,
				"y": -1.5145542647,
				"z": -0.2545466495,
				"element": "O" 
			},
			{
				"x": -1.2510026331,
				"y": -1.208211166,
				"z": 0.4215037022,
				"element": "N" 
			},
			{
				"x": -0.8631294922,
				"y": -2.1847826851,
				"z": 1.1494163196,
				"element": "C" 
			},
			{
				"x": 0.3003178014,
				"y": -2.0540810997,
				"z": 2.0768161891,
				"element": "C" 
			},
			{
				"x": 0.3133541315,
				"y": -2.7401976538,
				"z": 3.090885548,
				"element": "O" 
			},
			{
				"x": 1.3031653223,
				"y": -1.1373955207,
				"z": 1.8353822777,
				"element": "N" 
			},
			{
				"x": 1.6635448557,
				"y": -0.4287875742,
				"z": 0.6708750288,
				"element": "C" 
			},
			{
				"x": 2.093424208,
				"y": 0.9061461388,
				"z": 0.7629283602,
				"element": "C" 
			},
			{
				"x": 2.1272032692,
				"y": 1.7053654235,
				"z": 2.3242325461,
				"element": "Cl" 
			},
			{
				"x": 2.5106427496,
				"y": 1.6198672537,
				"z": -0.3595962185,
				"element": "C" 
			},
			{
				"x": 2.4821705997,
				"y": 0.9849766289,
				"z": -1.5935216501,
				"element": "C" 
			},
			{
				"x": 2.8723811196,
				"y": 1.671029212,
				"z": -2.6850631097,
				"element": "F" 
			},
			{
				"x": 2.0746575014,
				"y": -0.3378154443,
				"z": -1.7293505796,
				"element": "C" 
			},
			{
				"x": 1.6877395732,
				"y": -1.0385688285,
				"z": -0.5924842093,
				"element": "C" 
			},
			{
				"x": -2.6110972925,
				"y": -0.6996608297,
				"z": -0.741428681,
				"element": "H" 
			},
			{
				"x": -1.4244662076,
				"y": -3.1155080823,
				"z": 1.2337473864,
				"element": "H" 
			},
			{
				"x": 1.8959870631,
				"y": -1.0128473515,
				"z": 2.6480325406,
				"element": "H" 
			},
			{
				"x": 2.8425761211,
				"y": 2.6475327643,
				"z": -0.2785018735,
				"element": "H" 
			},
			{
				"x": 2.0864728795,
				"y": -0.8079693581,
				"z": -2.7060542912,
				"element": "H" 
			},
			{
				"x": 1.3971018116,
				"y": -2.0792375627,
				"z": -0.6760726363,
				"element": "H" 
			}
		],
		 "valence_orbital": [ 
			{
				"type": "occ",
				"energy": -0.29859,
				"method": "rhf"
			},
			{
				"type": "occ",
				"energy": -0.28517,
				"method": "rhf"
			},
			{
				"type": "occ",
				"energy": -0.27003,
				"method": "rhf"
			},
			{
				"type": "occ",
				"energy": -0.26721,
				"method": "rhf"
			},
			{
				"type": "occ",
				"energy": -0.23665,
				"method": "rhf"
			},
			{
				"type": "unocc",
				"energy": -0.06083,
				"method": "rhf"
			},
			{
				"type": "unocc",
				"energy": -0.03098,
				"method": "rhf"
			},
			{
				"type": "unocc",
				"energy": -0.01523,
				"method": "rhf"
			},
			{
				"type": "unocc",
				"energy": 0.01337,
				"method": "rhf"
			},
			{
				"type": "unocc",
				"energy": 0.0541,
				"method": "rhf"
			}
		],
		"cosmo_sigma_profile": { 
			"-0.025": 0.0,
			"-0.024": 0.0,
			"-0.023": 0.0,
			"-0.022": 0.0,
			"-0.021": 0.0,
			"-0.02": 0.0,
			"-0.019": 0.150784581096,
			"-0.018": 1.13846256729,
			"-0.017": 1.16007498232,
			"-0.016": 0.588384899349,
			"-0.015": 0.879461626302,
			"-0.014": 1.21821339026,
			"-0.013": 1.5634978594,
			"-0.012": 1.69952965862,
			"-0.011": 1.32430758346,
			"-0.01": 1.80968644784,
			"-0.009": 2.72577176805,
			"-0.008": 7.56630651344,
			"-0.007": 9.15546840931,
			"-0.006": 9.25452540998,
			"-0.005": 8.66528772681,
			"-0.004": 8.20222442268,
			"-0.003": 8.18866684263,
			"-0.002": 11.4117862123,
			"-0.001": 14.2280476688,
			"0.0": 22.3440012282,
			"0.001": 24.4388817857,
			"0.002": 18.9548078908,
			"0.003": 17.6560542538,
			"0.004": 20.0565306959,
			"0.005": 5.04624212518,
			"0.006": 4.26336579804,
			"0.007": 3.73648753758,
			"0.008": 4.15032612482,
			"0.009": 4.42882592005,
			"0.01": 2.00487656015,
			"0.011": 1.92936013714,
			"0.012": 5.39077181414,
			"0.013": 3.2856632145,
			"0.014": 0.127545822092,
			"0.015": 0.0,
			"0.016": 0.0,
			"0.017": 0.0,
			"0.018": 0.0,
			"0.019": 0.0,
			"0.02": 0.0,
			"0.021": 0.0,
			"0.022": 0.0,
			"0.023": 0.0,
			"0.024": 0.0,
			"0.025": 0.0
		}
	}
}
