{
	 "smiles": "CC1=C(C=CC(=C1)S(Cl)(=O)=O)N1C=NN=N1", 
	 "Tm": 408.15, 
	 "num_atms": 23, 
	 "gaussian": { 
		 "optdone": 1, 
		 "sigma_profile": "yes", 
		 "theory": "DFT", 
		 "functional": "B3LYP", 
		 "basiset": "6-31G**", 
		 "properties": { 
			 "R2extent": 6042.1311, 
			 "electric_dipole_moment_norm": 1.71833250857, 
			 "electric_quadrupole_moment_norm": 33.0360134129, 
			 "total_energy": -1536.77396084, 
			 "HOMO_LUMO_gap": 0.18481, 
			 "cosmo_polarized_energy": -19.28, 
			 "cosmo_cavitation_energy": 31.87, 
			 "cosmo_dispersion_energy": -23.23, 
			 "cosmo_repulsion_energy": 1.75, 
			 "cosmo_total_nonelectrostatic_energy": 10.38, 
			 "SMD_solvation_energy": 3.04 
		},
		"coords": [
			{
				"x": -0.806432922,
				"y": -2.0850067448,
				"z": 0.8904975398,
				"element": "C" 
			},
			{
				"x": 0.0846180311,
				"y": -0.9685270104,
				"z": 0.4076374626,
				"element": "C" 
			},
			{
				"x": -0.2225942449,
				"y": -0.1772951546,
				"z": -0.7179257118,
				"element": "C" 
			},
			{
				"x": 0.6005614348,
				"y": 0.8724995504,
				"z": -1.1391101671,
				"element": "C" 
			},
			{
				"x": 1.7658514317,
				"y": 1.1720083802,
				"z": -0.4415120378,
				"element": "C" 
			},
			{
				"x": 2.0785939993,
				"y": 0.3864208404,
				"z": 0.6651348859,
				"element": "C" 
			},
			{
				"x": 1.2667160945,
				"y": -0.6631131268,
				"z": 1.0908365326,
				"element": "C" 
			},
			{
				"x": 3.5629491096,
				"y": 0.7581742593,
				"z": 1.5944969993,
				"element": "S" 
			},
			{
				"x": 4.9882256952,
				"y": -0.4716785718,
				"z": 0.6025139947,
				"element": "Cl" 
			},
			{
				"x": 3.4293263639,
				"y": 0.2254620152,
				"z": 2.9439350851,
				"element": "O" 
			},
			{
				"x": 3.9553221537,
				"y": 2.1364265743,
				"z": 1.3310485416,
				"element": "O" 
			},
			{
				"x": -1.4160075768,
				"y": -0.4164425366,
				"z": -1.4591922652,
				"element": "N" 
			},
			{
				"x": -2.3606782045,
				"y": 0.456302277,
				"z": -1.8882085632,
				"element": "C" 
			},
			{
				"x": -3.2643713506,
				"y": -0.195707411,
				"z": -2.5832524724,
				"element": "N" 
			},
			{
				"x": -2.8576224954,
				"y": -1.4978457879,
				"z": -2.5863582186,
				"element": "N" 
			},
			{
				"x": -1.762356296,
				"y": -1.6516582547,
				"z": -1.9248950443,
				"element": "N" 
			},
			{
				"x": -0.4899514094,
				"y": -2.4219131567,
				"z": 1.8798735408,
				"element": "H" 
			},
			{
				"x": -0.7794939799,
				"y": -2.9357337728,
				"z": 0.2045576228,
				"element": "H" 
			},
			{
				"x": -1.8506102931,
				"y": -1.7635452914,
				"z": 0.9529235439,
				"element": "H" 
			},
			{
				"x": 0.3327382887,
				"y": 1.4409520413,
				"z": -2.0234758956,
				"element": "H" 
			},
			{
				"x": 2.4129798335,
				"y": 1.9857878216,
				"z": -0.7466946759,
				"element": "H" 
			},
			{
				"x": 1.5431779142,
				"y": -1.2323385695,
				"z": 1.9716461713,
				"element": "H" 
			},
			{
				"x": -2.3597415774,
				"y": 1.5111716294,
				"z": -1.6600768686,
				"element": "H" 
			}
		],
		 "valence_orbital": [ 
			{
				"type": "occ",
				"energy": -0.32471,
				"method": "rhf"
			},
			{
				"type": "occ",
				"energy": -0.31791,
				"method": "rhf"
			},
			{
				"type": "occ",
				"energy": -0.31009,
				"method": "rhf"
			},
			{
				"type": "occ",
				"energy": -0.30216,
				"method": "rhf"
			},
			{
				"type": "occ",
				"energy": -0.28997,
				"method": "rhf"
			},
			{
				"type": "unocc",
				"energy": -0.10516,
				"method": "rhf"
			},
			{
				"type": "unocc",
				"energy": -0.07039,
				"method": "rhf"
			},
			{
				"type": "unocc",
				"energy": -0.05722,
				"method": "rhf"
			},
			{
				"type": "unocc",
				"energy": -0.03005,
				"method": "rhf"
			},
			{
				"type": "unocc",
				"energy": 0.00053,
				"method": "rhf"
			}
		],
		"cosmo_sigma_profile": { 
			"-0.025": 0.0,
			"-0.024": 0.0,
			"-0.023": 0.0,
			"-0.022": 0.0,
			"-0.021": 0.0,
			"-0.02": 0.0,
			"-0.019": 0.0,
			"-0.018": 0.0,
			"-0.017": 0.0,
			"-0.016": 0.0,
			"-0.015": 0.0,
			"-0.014": 0.0,
			"-0.013": 1.26706686047,
			"-0.012": 2.29368188079,
			"-0.011": 2.77311320065,
			"-0.01": 3.78461773097,
			"-0.009": 6.06942068021,
			"-0.008": 8.28445713466,
			"-0.007": 10.0946266965,
			"-0.006": 12.2642866542,
			"-0.005": 12.1042028585,
			"-0.004": 13.0898784112,
			"-0.003": 14.1208174378,
			"-0.002": 22.5779913343,
			"-0.001": 26.640853314,
			"0.0": 17.1514791512,
			"0.001": 9.79890150079,
			"0.002": 11.5972912974,
			"0.003": 18.2131456625,
			"0.004": 9.35473980492,
			"0.005": 5.13622836239,
			"0.006": 6.58035744861,
			"0.007": 12.2282216202,
			"0.008": 13.8999295199,
			"0.009": 7.46016158615,
			"0.01": 4.19666730995,
			"0.011": 2.20050678559,
			"0.012": 2.87239705435,
			"0.013": 2.28009184798,
			"0.014": 1.01385114614,
			"0.015": 0.140441077666,
			"0.016": 0.0,
			"0.017": 0.0,
			"0.018": 0.0,
			"0.019": 0.0,
			"0.02": 0.0,
			"0.021": 0.0,
			"0.022": 0.0,
			"0.023": 0.0,
			"0.024": 0.0,
			"0.025": 0.0
		}
	}
}
