{
	 "smiles": "CC1CCCC1=O", 
	 "Tm": 198.15, 
	 "num_atms": 17, 
	 "gaussian": { 
		 "optdone": 1, 
		 "sigma_profile": "yes", 
		 "theory": "DFT", 
		 "functional": "B3LYP", 
		 "basiset": "6-31G**", 
		 "properties": { 
			 "R2extent": 767.2799, 
			 "electric_dipole_moment_norm": 2.77614999775, 
			 "electric_quadrupole_moment_norm": 6.45244815864, 
			 "total_energy": -309.895288875, 
			 "HOMO_LUMO_gap": 0.21828, 
			 "cosmo_polarized_energy": -6.35, 
			 "cosmo_cavitation_energy": 18.96, 
			 "cosmo_dispersion_energy": -14.15, 
			 "cosmo_repulsion_energy": 1.21, 
			 "cosmo_total_nonelectrostatic_energy": 6.03, 
			 "SMD_solvation_energy": 3.59 
		},
		"coords": [
			{
				"x": 2.2995884076,
				"y": -0.3987036918,
				"z": 0.4428960004,
				"element": "C" 
			},
			{
				"x": 0.8565932708,
				"y": -0.3196463224,
				"z": 0.9738044666,
				"element": "C" 
			},
			{
				"x": 0.3781944538,
				"y": 1.1124581707,
				"z": 1.2967904428,
				"element": "C" 
			},
			{
				"x": -0.3205678457,
				"y": 1.6047836686,
				"z": 0.0062193107,
				"element": "C" 
			},
			{
				"x": -1.0263574199,
				"y": 0.3514872798,
				"z": -0.5340558846,
				"element": "C" 
			},
			{
				"x": -0.1226868173,
				"y": -0.8101148302,
				"z": -0.1105267618,
				"element": "C" 
			},
			{
				"x": -0.148987118,
				"y": -1.93335299,
				"z": -0.5654182406,
				"element": "O" 
			},
			{
				"x": 3.0138809045,
				"y": -0.1265726961,
				"z": 1.226296639,
				"element": "H" 
			},
			{
				"x": 2.4544879633,
				"y": 0.280692153,
				"z": -0.4027968341,
				"element": "H" 
			},
			{
				"x": 2.5218181855,
				"y": -1.4143404553,
				"z": 0.1040743045,
				"element": "H" 
			},
			{
				"x": 0.7716223489,
				"y": -0.9898376381,
				"z": 1.837043339,
				"element": "H" 
			},
			{
				"x": 1.1944163606,
				"y": 1.7708322076,
				"z": 1.6100253742,
				"element": "H" 
			},
			{
				"x": -0.3488310875,
				"y": 1.0867762782,
				"z": 2.1175547968,
				"element": "H" 
			},
			{
				"x": 0.4263872399,
				"y": 1.9525119215,
				"z": -0.7173288817,
				"element": "H" 
			},
			{
				"x": -1.0025278054,
				"y": 2.4393746193,
				"z": 0.1907785245,
				"element": "H" 
			},
			{
				"x": -1.2073262378,
				"y": 0.3359091984,
				"z": -1.6119248683,
				"element": "H" 
			},
			{
				"x": -1.9983048035,
				"y": 0.2055431268,
				"z": -0.0412317273,
				"element": "H" 
			}
		],
		 "valence_orbital": [ 
			{
				"type": "occ",
				"energy": -0.34943,
				"method": "rhf"
			},
			{
				"type": "occ",
				"energy": -0.33474,
				"method": "rhf"
			},
			{
				"type": "occ",
				"energy": -0.3326,
				"method": "rhf"
			},
			{
				"type": "occ",
				"energy": -0.32745,
				"method": "rhf"
			},
			{
				"type": "occ",
				"energy": -0.23405,
				"method": "rhf"
			},
			{
				"type": "unocc",
				"energy": -0.01577,
				"method": "rhf"
			},
			{
				"type": "unocc",
				"energy": 0.08096,
				"method": "rhf"
			},
			{
				"type": "unocc",
				"energy": 0.10907,
				"method": "rhf"
			},
			{
				"type": "unocc",
				"energy": 0.12664,
				"method": "rhf"
			},
			{
				"type": "unocc",
				"energy": 0.14365,
				"method": "rhf"
			}
		],
		"cosmo_sigma_profile": { 
			"-0.025": 0.0,
			"-0.024": 0.0,
			"-0.023": 0.0,
			"-0.022": 0.0,
			"-0.021": 0.0,
			"-0.02": 0.0,
			"-0.019": 0.0,
			"-0.018": 0.0,
			"-0.017": 0.0,
			"-0.016": 0.0,
			"-0.015": 0.0,
			"-0.014": 0.0,
			"-0.013": 0.0,
			"-0.012": 0.0,
			"-0.011": 0.0,
			"-0.01": 0.0,
			"-0.009": 0.0,
			"-0.008": 0.0,
			"-0.007": 0.0,
			"-0.006": 1.65381104973,
			"-0.005": 6.80033508177,
			"-0.004": 13.9630947428,
			"-0.003": 23.7985440745,
			"-0.002": 21.9802737639,
			"-0.001": 21.8573539365,
			"0.0": 18.9904037741,
			"0.001": 11.3376484323,
			"0.002": 2.30075387264,
			"0.003": 1.68933208657,
			"0.004": 1.77373018475,
			"0.005": 1.70611607829,
			"0.006": 1.51869094676,
			"0.007": 1.99655680685,
			"0.008": 1.46084083622,
			"0.009": 1.43657167829,
			"0.01": 1.74052113137,
			"0.011": 3.05385352263,
			"0.012": 4.67589927473,
			"0.013": 3.02515978503,
			"0.014": 0.495810380317,
			"0.015": 0.0,
			"0.016": 0.0,
			"0.017": 0.0,
			"0.018": 0.0,
			"0.019": 0.0,
			"0.02": 0.0,
			"0.021": 0.0,
			"0.022": 0.0,
			"0.023": 0.0,
			"0.024": 0.0,
			"0.025": 0.0
		}
	}
}
