{
	 "smiles": "CC1=CC(C(O)=O)=C(N)S1", 
	 "Tm": 400.15, 
	 "num_atms": 17, 
	 "gaussian": { 
		 "optdone": 1, 
		 "sigma_profile": "yes", 
		 "theory": "DFT", 
		 "functional": "B3LYP", 
		 "basiset": "6-31G**", 
		 "properties": { 
			 "R2extent": 2505.7754, 
			 "electric_dipole_moment_norm": 1.26245575764, 
			 "electric_quadrupole_moment_norm": 8.09247148095, 
			 "total_energy": -836.262660549, 
			 "HOMO_LUMO_gap": 0.17664, 
			 "cosmo_polarized_energy": -10.73, 
			 "cosmo_cavitation_energy": 22.69, 
			 "cosmo_dispersion_energy": -17.62, 
			 "cosmo_repulsion_energy": 1.39, 
			 "cosmo_total_nonelectrostatic_energy": 6.46, 
			 "SMD_solvation_energy": 4.74 
		},
		"coords": [
			{
				"x": -1.9737018655,
				"y": -3.4107546539,
				"z": 0.3412457707,
				"element": "C" 
			},
			{
				"x": -1.7916667189,
				"y": -2.0190046488,
				"z": -0.1796399867,
				"element": "C" 
			},
			{
				"x": -0.9685339885,
				"y": -1.0331077815,
				"z": 0.2564224509,
				"element": "C" 
			},
			{
				"x": -1.0456965543,
				"y": 0.1914587318,
				"z": -0.4995831865,
				"element": "C" 
			},
			{
				"x": -0.2579867386,
				"y": 1.3901495134,
				"z": -0.2961379701,
				"element": "C" 
			},
			{
				"x": 0.6113138059,
				"y": 1.3044093072,
				"z": 0.7442169179,
				"element": "O" 
			},
			{
				"x": -0.3268594901,
				"y": 2.4133604003,
				"z": -0.9779477549,
				"element": "O" 
			},
			{
				"x": -1.9707216113,
				"y": 0.1148103308,
				"z": -1.5394339299,
				"element": "C" 
			},
			{
				"x": -2.3174203215,
				"y": 1.1098322079,
				"z": -2.3974210514,
				"element": "N" 
			},
			{
				"x": -2.737537848,
				"y": -1.4581667687,
				"z": -1.5760927589,
				"element": "S" 
			},
			{
				"x": -1.3074413461,
				"y": -3.5681356585,
				"z": 1.1942116789,
				"element": "H" 
			},
			{
				"x": -3.0000241901,
				"y": -3.5962781554,
				"z": 0.6802633435,
				"element": "H" 
			},
			{
				"x": -1.7356078116,
				"y": -4.169854619,
				"z": -0.4136679037,
				"element": "H" 
			},
			{
				"x": -0.2974262506,
				"y": -1.1541933297,
				"z": 1.098649034,
				"element": "H" 
			},
			{
				"x": 1.071734016,
				"y": 2.1590228213,
				"z": 0.7669336129,
				"element": "H" 
			},
			{
				"x": -2.7371074678,
				"y": 0.879305299,
				"z": -3.2840361527,
				"element": "H" 
			},
			{
				"x": -1.7141156189,
				"y": 1.9265470038,
				"z": -2.3403821141,
				"element": "H" 
			}
		],
		 "valence_orbital": [ 
			{
				"type": "occ",
				"energy": -0.31061,
				"method": "rhf"
			},
			{
				"type": "occ",
				"energy": -0.30588,
				"method": "rhf"
			},
			{
				"type": "occ",
				"energy": -0.27141,
				"method": "rhf"
			},
			{
				"type": "occ",
				"energy": -0.25324,
				"method": "rhf"
			},
			{
				"type": "occ",
				"energy": -0.19568,
				"method": "rhf"
			},
			{
				"type": "unocc",
				"energy": -0.01904,
				"method": "rhf"
			},
			{
				"type": "unocc",
				"energy": 0.01081,
				"method": "rhf"
			},
			{
				"type": "unocc",
				"energy": 0.01779,
				"method": "rhf"
			},
			{
				"type": "unocc",
				"energy": 0.08026,
				"method": "rhf"
			},
			{
				"type": "unocc",
				"energy": 0.09165,
				"method": "rhf"
			}
		],
		"cosmo_sigma_profile": { 
			"-0.025": 0.0,
			"-0.024": 0.0,
			"-0.023": 0.0,
			"-0.022": 0.0,
			"-0.021": 0.0,
			"-0.02": 0.0,
			"-0.019": 0.0,
			"-0.018": 0.170680814556,
			"-0.017": 0.961813703099,
			"-0.016": 1.12757947368,
			"-0.015": 0.982798016454,
			"-0.014": 2.18663279682,
			"-0.013": 1.41004256212,
			"-0.012": 2.36818450905,
			"-0.011": 2.00995445053,
			"-0.01": 2.78578940628,
			"-0.009": 2.88397931761,
			"-0.008": 2.36210094834,
			"-0.007": 2.03490755855,
			"-0.006": 3.04016841577,
			"-0.005": 7.69216547161,
			"-0.004": 11.3831759711,
			"-0.003": 11.5170909268,
			"-0.002": 10.3852772296,
			"-0.001": 13.2834500262,
			"0.0": 12.4051040812,
			"0.001": 12.1409530956,
			"0.002": 13.9382454203,
			"0.003": 15.5439105577,
			"0.004": 16.2086253561,
			"0.005": 10.2155865219,
			"0.006": 5.30760173631,
			"0.007": 3.36898251876,
			"0.008": 3.86201109317,
			"0.009": 2.87510985745,
			"0.01": 1.97569177111,
			"0.011": 1.97759769617,
			"0.012": 2.42543341428,
			"0.013": 1.55388822898,
			"0.014": 0.00146407462173,
			"0.015": 0.0,
			"0.016": 0.0,
			"0.017": 0.0,
			"0.018": 0.0,
			"0.019": 0.0,
			"0.02": 0.0,
			"0.021": 0.0,
			"0.022": 0.0,
			"0.023": 0.0,
			"0.024": 0.0,
			"0.025": 0.0
		}
	}
}
