{
	 "smiles": "NC1=NC=NC(=C1)C1=CC=CS1", 
	 "Tm": 496.15, 
	 "num_atms": 19, 
	 "gaussian": { 
		 "optdone": 1, 
		 "sigma_profile": "yes", 
		 "theory": "DFT", 
		 "functional": "B3LYP", 
		 "basiset": "6-31G**", 
		 "properties": { 
			 "R2extent": 3678.5142, 
			 "electric_dipole_moment_norm": 3.81403618362, 
			 "electric_quadrupole_moment_norm": 15.6073869129, 
			 "total_energy": -871.51250272, 
			 "HOMO_LUMO_gap": 0.17048, 
			 "cosmo_polarized_energy": -13.93, 
			 "cosmo_cavitation_energy": 25.09, 
			 "cosmo_dispersion_energy": -19.49, 
			 "cosmo_repulsion_energy": 1.49, 
			 "cosmo_total_nonelectrostatic_energy": 7.1, 
			 "SMD_solvation_energy": 1.84 
		},
		"coords": [
			{
				"x": -2.7709746761,
				"y": 0.915060415,
				"z": 2.1567035159,
				"element": "N" 
			},
			{
				"x": -1.7933641118,
				"y": 1.6150622204,
				"z": 1.5032066027,
				"element": "C" 
			},
			{
				"x": -1.9854515109,
				"y": 2.9436051132,
				"z": 1.3906897644,
				"element": "N" 
			},
			{
				"x": -1.0076423746,
				"y": 3.6212926773,
				"z": 0.7863939924,
				"element": "C" 
			},
			{
				"x": 0.1252650496,
				"y": 3.1450572579,
				"z": 0.2783368032,
				"element": "N" 
			},
			{
				"x": 0.3126923796,
				"y": 1.8072898319,
				"z": 0.3909095195,
				"element": "C" 
			},
			{
				"x": -0.634755906,
				"y": 0.9911120422,
				"z": 1.0064325453,
				"element": "C" 
			},
			{
				"x": 1.5577233472,
				"y": 1.2851258706,
				"z": -0.169312257,
				"element": "C" 
			},
			{
				"x": 2.0393914465,
				"y": -0.0059019399,
				"z": -0.2098328923,
				"element": "C" 
			},
			{
				"x": 3.3052007851,
				"y": -0.112793831,
				"z": -0.8477626724,
				"element": "C" 
			},
			{
				"x": 3.7727507027,
				"y": 1.0998987127,
				"z": -1.2857420033,
				"element": "C" 
			},
			{
				"x": 2.6798673099,
				"y": 2.3906515557,
				"z": -0.9281476179,
				"element": "S" 
			},
			{
				"x": -2.828397788,
				"y": -0.0833021944,
				"z": 2.0357173883,
				"element": "H" 
			},
			{
				"x": -3.6373466483,
				"y": 1.4099513303,
				"z": 2.3076589081,
				"element": "H" 
			},
			{
				"x": -1.1603001295,
				"y": 4.6959318085,
				"z": 0.6956155204,
				"element": "H" 
			},
			{
				"x": -0.4905682279,
				"y": -0.0790967877,
				"z": 1.1063440676,
				"element": "H" 
			},
			{
				"x": 1.5066410825,
				"y": -0.8544480246,
				"z": 0.2042782694,
				"element": "H" 
			},
			{
				"x": 3.8419515761,
				"y": -1.0460783871,
				"z": -0.9742670071,
				"element": "H" 
			},
			{
				"x": 4.701917694,
				"y": 1.3057823291,
				"z": -1.7998224473,
				"element": "H" 
			}
		],
		 "valence_orbital": [ 
			{
				"type": "occ",
				"energy": -0.29001,
				"method": "rhf"
			},
			{
				"type": "occ",
				"energy": -0.25224,
				"method": "rhf"
			},
			{
				"type": "occ",
				"energy": -0.25004,
				"method": "rhf"
			},
			{
				"type": "occ",
				"energy": -0.23726,
				"method": "rhf"
			},
			{
				"type": "occ",
				"energy": -0.22269,
				"method": "rhf"
			},
			{
				"type": "unocc",
				"energy": -0.05221,
				"method": "rhf"
			},
			{
				"type": "unocc",
				"energy": -0.00687,
				"method": "rhf"
			},
			{
				"type": "unocc",
				"energy": 0.02472,
				"method": "rhf"
			},
			{
				"type": "unocc",
				"energy": 0.04255,
				"method": "rhf"
			},
			{
				"type": "unocc",
				"energy": 0.0732,
				"method": "rhf"
			}
		],
		"cosmo_sigma_profile": { 
			"-0.025": 0.0,
			"-0.024": 0.0,
			"-0.023": 0.0,
			"-0.022": 0.0,
			"-0.021": 0.0,
			"-0.02": 0.0,
			"-0.019": 0.0,
			"-0.018": 0.0,
			"-0.017": 0.0,
			"-0.016": 0.0,
			"-0.015": 0.140445837595,
			"-0.014": 1.35132505655,
			"-0.013": 2.37134631742,
			"-0.012": 2.56412381855,
			"-0.011": 2.64373152219,
			"-0.01": 2.68398402615,
			"-0.009": 4.30759836543,
			"-0.008": 7.54451175318,
			"-0.007": 8.23571588081,
			"-0.006": 9.29775958552,
			"-0.005": 8.35594053377,
			"-0.004": 8.53732938309,
			"-0.003": 8.92131840596,
			"-0.002": 7.0120198283,
			"-0.001": 8.52701275971,
			"0.0": 13.0053451962,
			"0.001": 15.9324318104,
			"0.002": 18.7413289182,
			"0.003": 16.7761417852,
			"0.004": 20.912976637,
			"0.005": 10.7584176612,
			"0.006": 3.98309746589,
			"0.007": 4.604622894,
			"0.008": 2.96572904377,
			"0.009": 2.8746952755,
			"0.01": 2.96164185643,
			"0.011": 2.47405056878,
			"0.012": 2.10654191194,
			"0.013": 1.50811835377,
			"0.014": 0.917959229891,
			"0.015": 0.705314851852,
			"0.016": 0.100655297809,
			"0.017": 0.0,
			"0.018": 0.0,
			"0.019": 0.0,
			"0.02": 0.0,
			"0.021": 0.0,
			"0.022": 0.0,
			"0.023": 0.0,
			"0.024": 0.0,
			"0.025": 0.0
		}
	}
}
