{
	 "smiles": "CN(C1=CC=C(C=C1)C(O)=O)S(=O)(=O)C1=CC=C(C)C=C1", 
	 "Tm": 462.15, 
	 "num_atms": 36, 
	 "gaussian": { 
		 "optdone": 1, 
		 "sigma_profile": "yes", 
		 "theory": "DFT", 
		 "functional": "B3LYP", 
		 "basiset": "6-31G**", 
		 "properties": { 
			 "R2extent": 8634.219, 
			 "electric_dipole_moment_norm": 4.09947795945, 
			 "electric_quadrupole_moment_norm": 24.6582833754, 
			 "total_energy": -1334.42447742, 
			 "HOMO_LUMO_gap": 0.18087, 
			 "cosmo_polarized_energy": -18.16, 
			 "cosmo_cavitation_energy": 41.31, 
			 "cosmo_dispersion_energy": -28.9, 
			 "cosmo_repulsion_energy": 2.17, 
			 "cosmo_total_nonelectrostatic_energy": 14.59, 
			 "SMD_solvation_energy": 7.14 
		},
		"coords": [
			{
				"x": 3.7210120765,
				"y": 0.1643806979,
				"z": 0.6787823865,
				"element": "C" 
			},
			{
				"x": 2.6410955833,
				"y": 0.254293361,
				"z": 1.6722788373,
				"element": "N" 
			},
			{
				"x": 1.7891131922,
				"y": 1.3996966677,
				"z": 1.6424705246,
				"element": "C" 
			},
			{
				"x": 1.5886480308,
				"y": 2.1186835226,
				"z": 0.4512484597,
				"element": "C" 
			},
			{
				"x": 0.799281105,
				"y": 3.2630330473,
				"z": 0.4471189092,
				"element": "C" 
			},
			{
				"x": 0.184566324,
				"y": 3.7057429573,
				"z": 1.6241990838,
				"element": "C" 
			},
			{
				"x": 0.3828472244,
				"y": 2.9882434782,
				"z": 2.8132985364,
				"element": "C" 
			},
			{
				"x": 1.1856016212,
				"y": 1.8539437941,
				"z": 2.8284871923,
				"element": "C" 
			},
			{
				"x": -0.6514072734,
				"y": 4.9300680634,
				"z": 1.5587979225,
				"element": "C" 
			},
			{
				"x": -1.1973515912,
				"y": 5.2668472923,
				"z": 2.7550110087,
				"element": "O" 
			},
			{
				"x": -0.8488194075,
				"y": 5.5858360299,
				"z": 0.5536914124,
				"element": "O" 
			},
			{
				"x": 1.9699877817,
				"y": -1.2607967664,
				"z": 2.1325303473,
				"element": "S" 
			},
			{
				"x": 3.1060621627,
				"y": -2.1812286612,
				"z": 2.1980048312,
				"element": "O" 
			},
			{
				"x": 1.1067546913,
				"y": -1.0179444459,
				"z": 3.2870760237,
				"element": "O" 
			},
			{
				"x": 0.9303915542,
				"y": -1.7580619866,
				"z": 0.7610520638,
				"element": "C" 
			},
			{
				"x": -0.3829372434,
				"y": -1.2841049505,
				"z": 0.6845170137,
				"element": "C" 
			},
			{
				"x": -1.1699002339,
				"y": -1.6472080207,
				"z": -0.4049811455,
				"element": "C" 
			},
			{
				"x": -0.670307861,
				"y": -2.4789094232,
				"z": -1.4193177722,
				"element": "C" 
			},
			{
				"x": -1.5467455246,
				"y": -2.8896911916,
				"z": -2.5776622671,
				"element": "C" 
			},
			{
				"x": 0.6484322432,
				"y": -2.94193138,
				"z": -1.3142628486,
				"element": "C" 
			},
			{
				"x": 1.453696836,
				"y": -2.588677365,
				"z": -0.2321945614,
				"element": "C" 
			},
			{
				"x": 3.3673773876,
				"y": -0.1001050026,
				"z": -0.3274822415,
				"element": "H" 
			},
			{
				"x": 4.435440878,
				"y": -0.5860659495,
				"z": 1.0133247096,
				"element": "H" 
			},
			{
				"x": 4.2181955333,
				"y": 1.1353696007,
				"z": 0.6357783021,
				"element": "H" 
			},
			{
				"x": 2.0454080524,
				"y": 1.7838034652,
				"z": -0.4729829748,
				"element": "H" 
			},
			{
				"x": 0.6391125255,
				"y": 3.8245719028,
				"z": -0.4670620593,
				"element": "H" 
			},
			{
				"x": -0.078176907,
				"y": 3.3344122562,
				"z": 3.7312762104,
				"element": "H" 
			},
			{
				"x": 1.3550708491,
				"y": 1.3104852891,
				"z": 3.7483737707,
				"element": "H" 
			},
			{
				"x": -1.713849254,
				"y": 6.0725573008,
				"z": 2.5901675131,
				"element": "H" 
			},
			{
				"x": -0.7807744778,
				"y": -0.6570027494,
				"z": 1.4744037181,
				"element": "H" 
			},
			{
				"x": -2.191913115,
				"y": -1.2829047283,
				"z": -0.4672262545,
				"element": "H" 
			},
			{
				"x": -0.9515320236,
				"y": -3.1980219415,
				"z": -3.4415095961,
				"element": "H" 
			},
			{
				"x": -2.2052905441,
				"y": -2.0734973658,
				"z": -2.8897214438,
				"element": "H" 
			},
			{
				"x": -2.187759751,
				"y": -3.735949055,
				"z": -2.3014460561,
				"element": "H" 
			},
			{
				"x": 1.0498591591,
				"y": -3.5929994419,
				"z": -2.0862441744,
				"element": "H" 
			},
			{
				"x": 2.466210396,
				"y": -2.9661683015,
				"z": -0.141095382,
				"element": "H" 
			}
		],
		 "valence_orbital": [ 
			{
				"type": "occ",
				"energy": -0.27727,
				"method": "rhf"
			},
			{
				"type": "occ",
				"energy": -0.27301,
				"method": "rhf"
			},
			{
				"type": "occ",
				"energy": -0.26736,
				"method": "rhf"
			},
			{
				"type": "occ",
				"energy": -0.26455,
				"method": "rhf"
			},
			{
				"type": "occ",
				"energy": -0.23651,
				"method": "rhf"
			},
			{
				"type": "unocc",
				"energy": -0.05564,
				"method": "rhf"
			},
			{
				"type": "unocc",
				"energy": -0.03724,
				"method": "rhf"
			},
			{
				"type": "unocc",
				"energy": -0.02414,
				"method": "rhf"
			},
			{
				"type": "unocc",
				"energy": -0.01345,
				"method": "rhf"
			},
			{
				"type": "unocc",
				"energy": 0.04095,
				"method": "rhf"
			}
		],
		"cosmo_sigma_profile": { 
			"-0.025": 0.0,
			"-0.024": 0.0,
			"-0.023": 0.0,
			"-0.022": 0.0,
			"-0.021": 0.0,
			"-0.02": 0.0,
			"-0.019": 0.0,
			"-0.018": 0.697022904933,
			"-0.017": 1.08104063484,
			"-0.016": 0.691682948388,
			"-0.015": 0.561488972159,
			"-0.014": 0.949243382732,
			"-0.013": 0.559723910365,
			"-0.012": 0.585772843546,
			"-0.011": 1.18038023643,
			"-0.01": 0.821144809699,
			"-0.009": 0.322992094092,
			"-0.008": 1.10954395932,
			"-0.007": 7.40574069457,
			"-0.006": 18.7894342686,
			"-0.005": 27.0575144779,
			"-0.004": 23.9881664052,
			"-0.003": 26.5461586174,
			"-0.002": 25.4383863995,
			"-0.001": 23.8149518399,
			"0.0": 24.701329452,
			"0.001": 24.5262595084,
			"0.002": 28.622862575,
			"0.003": 27.1233670467,
			"0.004": 8.1749479986,
			"0.005": 7.26675678286,
			"0.006": 6.50331419936,
			"0.007": 6.61247175749,
			"0.008": 5.75627928277,
			"0.009": 5.56815154834,
			"0.01": 8.55116711696,
			"0.011": 9.57298725484,
			"0.012": 4.66279705112,
			"0.013": 0.203230181989,
			"0.014": 0.0,
			"0.015": 0.0,
			"0.016": 0.0,
			"0.017": 0.0,
			"0.018": 0.0,
			"0.019": 0.0,
			"0.02": 0.0,
			"0.021": 0.0,
			"0.022": 0.0,
			"0.023": 0.0,
			"0.024": 0.0,
			"0.025": 0.0
		}
	}
}
