{
	 "smiles": "ClC1=CC(=CC=C1)C1=CC=CC=C1", 
	 "Tm": 290.15, 
	 "num_atms": 22, 
	 "gaussian": { 
		 "optdone": 1, 
		 "sigma_profile": "yes", 
		 "theory": "DFT", 
		 "functional": "B3LYP", 
		 "basiset": "6-31G**", 
		 "properties": { 
			 "R2extent": 4705.5122, 
			 "electric_dipole_moment_norm": 2.08225445611, 
			 "electric_quadrupole_moment_norm": 10.119960159, 
			 "total_energy": -922.903081358, 
			 "HOMO_LUMO_gap": 0.19556, 
			 "cosmo_polarized_energy": -5.34, 
			 "cosmo_cavitation_energy": 27.76, 
			 "cosmo_dispersion_energy": -20.56, 
			 "cosmo_repulsion_energy": 1.61, 
			 "cosmo_total_nonelectrostatic_energy": 8.81, 
			 "SMD_solvation_energy": 4.22 
		},
		"coords": [
			{
				"x": -5.0448708002,
				"y": -2.4176256002,
				"z": 0.4060687689,
				"element": "Cl" 
			},
			{
				"x": -4.0685663499,
				"y": -1.0528248966,
				"z": -0.1273849878,
				"element": "C" 
			},
			{
				"x": -2.6875414997,
				"y": -1.2035612061,
				"z": -0.2174789291,
				"element": "C" 
			},
			{
				"x": -1.8910051248,
				"y": -0.1290843409,
				"z": -0.6474354839,
				"element": "C" 
			},
			{
				"x": -2.5219793223,
				"y": 1.0812084391,
				"z": -0.9807514183,
				"element": "C" 
			},
			{
				"x": -3.9061953822,
				"y": 1.2129818766,
				"z": -0.8876226262,
				"element": "C" 
			},
			{
				"x": -4.6973287841,
				"y": 0.1463197381,
				"z": -0.4587847037,
				"element": "C" 
			},
			{
				"x": -0.4157031764,
				"y": -0.277106633,
				"z": -0.7440735084,
				"element": "C" 
			},
			{
				"x": 0.3011554395,
				"y": -1.01023808,
				"z": 0.2166442683,
				"element": "C" 
			},
			{
				"x": 1.6854931028,
				"y": -1.1475862838,
				"z": 0.1248040778,
				"element": "C" 
			},
			{
				"x": 2.3826472626,
				"y": -0.5540821684,
				"z": -0.9291996032,
				"element": "C" 
			},
			{
				"x": 1.683348413,
				"y": 0.1776463979,
				"z": -1.8908686784,
				"element": "C" 
			},
			{
				"x": 0.298940507,
				"y": 0.3143612972,
				"z": -1.799510745,
				"element": "C" 
			},
			{
				"x": -2.2355176362,
				"y": -2.1595835597,
				"z": 0.0209837607,
				"element": "H" 
			},
			{
				"x": -1.9200209612,
				"y": 1.9298857068,
				"z": -1.2894957016,
				"element": "H" 
			},
			{
				"x": -4.3773069342,
				"y": 2.1580437401,
				"z": -1.1415366858,
				"element": "H" 
			},
			{
				"x": -5.7746589439,
				"y": 0.2393410457,
				"z": -0.3816621876,
				"element": "H" 
			},
			{
				"x": -0.2280189612,
				"y": -1.4532609859,
				"z": 1.0552423142,
				"element": "H" 
			},
			{
				"x": 2.2210098601,
				"y": -1.7120438533,
				"z": 0.8828662447,
				"element": "H" 
			},
			{
				"x": 3.4610973629,
				"y": -0.6609921946,
				"z": -1.0006197904,
				"element": "H" 
			},
			{
				"x": 2.215260516,
				"y": 0.6360168155,
				"z": -2.7197725732,
				"element": "H" 
			},
			{
				"x": -0.2388385879,
				"y": 0.8625847457,
				"z": -2.567411812,
				"element": "H" 
			}
		],
		 "valence_orbital": [ 
			{
				"type": "occ",
				"energy": -0.31077,
				"method": "rhf"
			},
			{
				"type": "occ",
				"energy": -0.2798,
				"method": "rhf"
			},
			{
				"type": "occ",
				"energy": -0.25521,
				"method": "rhf"
			},
			{
				"type": "occ",
				"energy": -0.24991,
				"method": "rhf"
			},
			{
				"type": "occ",
				"energy": -0.23153,
				"method": "rhf"
			},
			{
				"type": "unocc",
				"energy": -0.03597,
				"method": "rhf"
			},
			{
				"type": "unocc",
				"energy": -0.01408,
				"method": "rhf"
			},
			{
				"type": "unocc",
				"energy": -0.00627,
				"method": "rhf"
			},
			{
				"type": "unocc",
				"energy": 0.02034,
				"method": "rhf"
			},
			{
				"type": "unocc",
				"energy": 0.03218,
				"method": "rhf"
			}
		],
		"cosmo_sigma_profile": { 
			"-0.025": 0.0,
			"-0.024": 0.0,
			"-0.023": 0.0,
			"-0.022": 0.0,
			"-0.021": 0.0,
			"-0.02": 0.0,
			"-0.019": 0.0,
			"-0.018": 0.0,
			"-0.017": 0.0,
			"-0.016": 0.0,
			"-0.015": 0.0,
			"-0.014": 0.0,
			"-0.013": 0.0,
			"-0.012": 0.0,
			"-0.011": 0.0,
			"-0.01": 0.0,
			"-0.009": 0.0,
			"-0.008": 0.150253637078,
			"-0.007": 2.94339377379,
			"-0.006": 13.4570662221,
			"-0.005": 19.2940962967,
			"-0.004": 18.8911355924,
			"-0.003": 15.5376401395,
			"-0.002": 13.7609073076,
			"-0.001": 12.8039710796,
			"0.0": 15.4082475497,
			"0.001": 16.6630610968,
			"0.002": 23.0058129645,
			"0.003": 25.1745682207,
			"0.004": 25.5722795697,
			"0.005": 18.7452817485,
			"0.006": 4.08870971338,
			"0.007": 0.0,
			"0.008": 0.0,
			"0.009": 0.0,
			"0.01": 0.0,
			"0.011": 0.0,
			"0.012": 0.0,
			"0.013": 0.0,
			"0.014": 0.0,
			"0.015": 0.0,
			"0.016": 0.0,
			"0.017": 0.0,
			"0.018": 0.0,
			"0.019": 0.0,
			"0.02": 0.0,
			"0.021": 0.0,
			"0.022": 0.0,
			"0.023": 0.0,
			"0.024": 0.0,
			"0.025": 0.0
		}
	}
}
