{
	 "smiles": "CCCCCCCCCCCCCBr", 
	 "Tm": 279.35, 
	 "num_atms": 41, 
	 "gaussian": { 
		 "optdone": 1, 
		 "sigma_profile": "yes", 
		 "theory": "DFT", 
		 "functional": "B3LYP", 
		 "basiset": "6-31G**", 
		 "properties": { 
			 "R2extent": 5868.1292, 
			 "electric_dipole_moment_norm": 2.40703329848, 
			 "electric_quadrupole_moment_norm": 8.10043355753, 
			 "total_energy": -3083.09920955, 
			 "HOMO_LUMO_gap": 0.26829, 
			 "cosmo_polarized_energy": -4.15, 
			 "cosmo_cavitation_energy": 42.23, 
			 "cosmo_dispersion_energy": -27.33, 
			 "cosmo_repulsion_energy": 2.19, 
			 "cosmo_total_nonelectrostatic_energy": 17.09, 
			 "SMD_solvation_energy": 4.38 
		},
		"coords": [
			{
				"x": 2.2040765845,
				"y": -0.6461616883,
				"z": -2.7424591374,
				"element": "C" 
			},
			{
				"x": 1.5852044367,
				"y": 0.633701028,
				"z": -2.1688231575,
				"element": "C" 
			},
			{
				"x": 2.4942610526,
				"y": 1.3218750031,
				"z": -1.1405264113,
				"element": "C" 
			},
			{
				"x": 2.0193599375,
				"y": 2.681547016,
				"z": -0.5944193759,
				"element": "C" 
			},
			{
				"x": 0.7836123137,
				"y": 2.666615129,
				"z": 0.3318207266,
				"element": "C" 
			},
			{
				"x": -0.5805859991,
				"y": 2.7422135933,
				"z": -0.3734411674,
				"element": "C" 
			},
			{
				"x": -1.7789757437,
				"y": 2.8815769728,
				"z": 0.5835214542,
				"element": "C" 
			},
			{
				"x": -2.0107870485,
				"y": 1.7092375718,
				"z": 1.5545120448,
				"element": "C" 
			},
			{
				"x": -2.327216439,
				"y": 0.3716807638,
				"z": 0.8682113162,
				"element": "C" 
			},
			{
				"x": -2.7031551821,
				"y": -0.7647604848,
				"z": 1.8393129185,
				"element": "C" 
			},
			{
				"x": -1.5892183855,
				"y": -1.2838794416,
				"z": 2.7747027432,
				"element": "C" 
			},
			{
				"x": -0.6836899367,
				"y": -2.402501073,
				"z": 2.2151563864,
				"element": "C" 
			},
			{
				"x": 0.2183296183,
				"y": -1.9660020392,
				"z": 1.06936039,
				"element": "C" 
			},
			{
				"x": 1.4885720125,
				"y": -3.4056658912,
				"z": 0.5557973578,
				"element": "Br" 
			},
			{
				"x": 1.5504164591,
				"y": -1.1045644124,
				"z": -3.4920667079,
				"element": "H" 
			},
			{
				"x": 3.166670436,
				"y": -0.4379988382,
				"z": -3.2239370718,
				"element": "H" 
			},
			{
				"x": 2.3782365982,
				"y": -1.3895962788,
				"z": -1.9565073018,
				"element": "H" 
			},
			{
				"x": 0.6186686784,
				"y": 0.387380038,
				"z": -1.7125196492,
				"element": "H" 
			},
			{
				"x": 1.3654297796,
				"y": 1.3364726367,
				"z": -2.9844212155,
				"element": "H" 
			},
			{
				"x": 3.4796573249,
				"y": 1.4697340423,
				"z": -1.6042746035,
				"element": "H" 
			},
			{
				"x": 2.6656176851,
				"y": 0.6374780893,
				"z": -0.2965586913,
				"element": "H" 
			},
			{
				"x": 2.8572214543,
				"y": 3.114014047,
				"z": -0.0329483357,
				"element": "H" 
			},
			{
				"x": 1.8378463664,
				"y": 3.3695914958,
				"z": -1.4326965513,
				"element": "H" 
			},
			{
				"x": 0.8512093481,
				"y": 3.5246528404,
				"z": 1.0150870635,
				"element": "H" 
			},
			{
				"x": 0.8319807995,
				"y": 1.7753509161,
				"z": 0.9729271549,
				"element": "H" 
			},
			{
				"x": -0.7252490497,
				"y": 1.8721822806,
				"z": -1.0230908509,
				"element": "H" 
			},
			{
				"x": -0.5756678253,
				"y": 3.6127285188,
				"z": -1.043369875,
				"element": "H" 
			},
			{
				"x": -2.6892098497,
				"y": 3.026998146,
				"z": -0.0143520738,
				"element": "H" 
			},
			{
				"x": -1.6537027991,
				"y": 3.8009127883,
				"z": 1.1719898084,
				"element": "H" 
			},
			{
				"x": -1.1384423731,
				"y": 1.5993214813,
				"z": 2.2107167414,
				"element": "H" 
			},
			{
				"x": -2.8488444527,
				"y": 1.9695418797,
				"z": 2.2157545883,
				"element": "H" 
			},
			{
				"x": -3.169314946,
				"y": 0.5248349501,
				"z": 0.1791817523,
				"element": "H" 
			},
			{
				"x": -1.4821351542,
				"y": 0.0692738582,
				"z": 0.2388617847,
				"element": "H" 
			},
			{
				"x": -3.1040994705,
				"y": -1.6118062256,
				"z": 1.2659623745,
				"element": "H" 
			},
			{
				"x": -3.5356197128,
				"y": -0.4081914394,
				"z": 2.460363521,
				"element": "H" 
			},
			{
				"x": -2.0610735588,
				"y": -1.6938069104,
				"z": 3.6758965646,
				"element": "H" 
			},
			{
				"x": -0.9666268291,
				"y": -0.4501701218,
				"z": 3.1243526786,
				"element": "H" 
			},
			{
				"x": -0.0523005981,
				"y": -2.7782503587,
				"z": 3.0278505572,
				"element": "H" 
			},
			{
				"x": -1.3010800075,
				"y": -3.2464005374,
				"z": 1.884984014,
				"element": "H" 
			},
			{
				"x": 0.8476993772,
				"y": -1.1154869522,
				"z": 1.3336015843,
				"element": "H" 
			},
			{
				"x": -0.3250749013,
				"y": -1.7454723936,
				"z": 0.1527866519,
				"element": "H" 
			}
		],
		 "valence_orbital": [ 
			{
				"type": "occ",
				"energy": -0.3096,
				"method": "rhf"
			},
			{
				"type": "occ",
				"energy": -0.30165,
				"method": "rhf"
			},
			{
				"type": "occ",
				"energy": -0.29929,
				"method": "rhf"
			},
			{
				"type": "occ",
				"energy": -0.26854,
				"method": "rhf"
			},
			{
				"type": "occ",
				"energy": -0.26809,
				"method": "rhf"
			},
			{
				"type": "unocc",
				"energy": 0.0002,
				"method": "rhf"
			},
			{
				"type": "unocc",
				"energy": 0.05843,
				"method": "rhf"
			},
			{
				"type": "unocc",
				"energy": 0.08095,
				"method": "rhf"
			},
			{
				"type": "unocc",
				"energy": 0.08977,
				"method": "rhf"
			},
			{
				"type": "unocc",
				"energy": 0.09681,
				"method": "rhf"
			}
		],
		"cosmo_sigma_profile": { 
			"-0.025": 0.0,
			"-0.024": 0.0,
			"-0.023": 0.0,
			"-0.022": 0.0,
			"-0.021": 0.0,
			"-0.02": 0.0,
			"-0.019": 0.0,
			"-0.018": 0.0,
			"-0.017": 0.0,
			"-0.016": 0.0,
			"-0.015": 0.0,
			"-0.014": 0.0,
			"-0.013": 0.0,
			"-0.012": 0.0,
			"-0.011": 0.0,
			"-0.01": 0.0,
			"-0.009": 0.0,
			"-0.008": 0.0,
			"-0.007": 0.0552136887902,
			"-0.006": 1.42575206825,
			"-0.005": 4.07138146784,
			"-0.004": 6.68267061952,
			"-0.003": 21.7117623657,
			"-0.002": 46.5397778216,
			"-0.001": 63.1342239117,
			"0.0": 64.379408085,
			"0.001": 58.1063578323,
			"0.002": 28.5682283011,
			"0.003": 7.77923847492,
			"0.004": 5.94977766606,
			"0.005": 5.7803152352,
			"0.006": 7.95877701119,
			"0.007": 5.23328420263,
			"0.008": 0.00327557232316,
			"0.009": 0.0,
			"0.01": 0.0,
			"0.011": 0.0,
			"0.012": 0.0,
			"0.013": 0.0,
			"0.014": 0.0,
			"0.015": 0.0,
			"0.016": 0.0,
			"0.017": 0.0,
			"0.018": 0.0,
			"0.019": 0.0,
			"0.02": 0.0,
			"0.021": 0.0,
			"0.022": 0.0,
			"0.023": 0.0,
			"0.024": 0.0,
			"0.025": 0.0
		}
	}
}
