{
	 "smiles": "CC1=CC=CC(N)=C1", 
	 "Tm": 242.55, 
	 "num_atms": 17, 
	 "gaussian": { 
		 "optdone": 1, 
		 "sigma_profile": "yes", 
		 "theory": "DFT", 
		 "functional": "B3LYP", 
		 "basiset": "6-31G**", 
		 "properties": { 
			 "R2extent": 1192.7841, 
			 "electric_dipole_moment_norm": 1.56020770733, 
			 "electric_quadrupole_moment_norm": 8.56973123733, 
			 "total_energy": -326.930185959, 
			 "HOMO_LUMO_gap": 0.20622, 
			 "cosmo_polarized_energy": -7.54, 
			 "cosmo_cavitation_energy": 20.1, 
			 "cosmo_dispersion_energy": -15.08, 
			 "cosmo_repulsion_energy": 1.26, 
			 "cosmo_total_nonelectrostatic_energy": 6.29, 
			 "SMD_solvation_energy": 3.51 
		},
		"coords": [
			{
				"x": -2.2396836433,
				"y": -0.7971586188,
				"z": -1.9374986882,
				"element": "C" 
			},
			{
				"x": -1.4704324896,
				"y": -0.0949044832,
				"z": -0.8420642474,
				"element": "C" 
			},
			{
				"x": -0.7928485461,
				"y": 1.1046561366,
				"z": -1.098995162,
				"element": "C" 
			},
			{
				"x": -0.0615510536,
				"y": 1.7220402257,
				"z": -0.0835469016,
				"element": "C" 
			},
			{
				"x": 0.0050031135,
				"y": 1.1653159488,
				"z": 1.1909694736,
				"element": "C" 
			},
			{
				"x": -0.6709154398,
				"y": -0.0348834578,
				"z": 1.4676387056,
				"element": "C" 
			},
			{
				"x": -0.5715935264,
				"y": -0.6359912432,
				"z": 2.7267733496,
				"element": "N" 
			},
			{
				"x": -1.404894646,
				"y": -0.6489529281,
				"z": 0.4395507289,
				"element": "C" 
			},
			{
				"x": -1.6013047113,
				"y": -1.5098749333,
				"z": -2.4750025087,
				"element": "H" 
			},
			{
				"x": -2.6235029349,
				"y": -0.0858713376,
				"z": -2.6750883099,
				"element": "H" 
			},
			{
				"x": -3.0879263996,
				"y": -1.3608465236,
				"z": -1.5367106823,
				"element": "H" 
			},
			{
				"x": -0.8404169831,
				"y": 1.5519324898,
				"z": -2.0879928076,
				"element": "H" 
			},
			{
				"x": 0.4596938425,
				"y": 2.6544536564,
				"z": -0.2840579998,
				"element": "H" 
			},
			{
				"x": 0.5780247598,
				"y": 1.6536886935,
				"z": 1.9754555689,
				"element": "H" 
			},
			{
				"x": -1.333604493,
				"y": -1.2573974072,
				"z": 2.9620875354,
				"element": "H" 
			},
			{
				"x": -0.363360971,
				"y": -0.0005826834,
				"z": 3.4850804609,
				"element": "H" 
			},
			{
				"x": -1.9304858781,
				"y": -1.5792235348,
				"z": 0.6483014844,
				"element": "H" 
			}
		],
		 "valence_orbital": [ 
			{
				"type": "occ",
				"energy": -0.34193,
				"method": "rhf"
			},
			{
				"type": "occ",
				"energy": -0.32799,
				"method": "rhf"
			},
			{
				"type": "occ",
				"energy": -0.29511,
				"method": "rhf"
			},
			{
				"type": "occ",
				"energy": -0.23194,
				"method": "rhf"
			},
			{
				"type": "occ",
				"energy": -0.19532,
				"method": "rhf"
			},
			{
				"type": "unocc",
				"energy": 0.0109,
				"method": "rhf"
			},
			{
				"type": "unocc",
				"energy": 0.02504,
				"method": "rhf"
			},
			{
				"type": "unocc",
				"energy": 0.08482,
				"method": "rhf"
			},
			{
				"type": "unocc",
				"energy": 0.1083,
				"method": "rhf"
			},
			{
				"type": "unocc",
				"energy": 0.12529,
				"method": "rhf"
			}
		],
		"cosmo_sigma_profile": { 
			"-0.025": 0.0,
			"-0.024": 0.0,
			"-0.023": 0.0,
			"-0.022": 0.0,
			"-0.021": 0.0,
			"-0.02": 0.0,
			"-0.019": 0.0,
			"-0.018": 0.0,
			"-0.017": 0.0,
			"-0.016": 0.0,
			"-0.015": 0.0,
			"-0.014": 0.0,
			"-0.013": 0.0540033876783,
			"-0.012": 1.74581237041,
			"-0.011": 2.86681565614,
			"-0.01": 2.50350396071,
			"-0.009": 2.97057848308,
			"-0.008": 2.66168149324,
			"-0.007": 2.75589080982,
			"-0.006": 3.27849509058,
			"-0.005": 6.6236049279,
			"-0.004": 11.2404753992,
			"-0.003": 15.914490131,
			"-0.002": 13.1494349626,
			"-0.001": 11.6530281304,
			"0.0": 13.8650002098,
			"0.001": 11.2985828568,
			"0.002": 7.2420364838,
			"0.003": 6.74923611873,
			"0.004": 6.21211794268,
			"0.005": 7.91248034517,
			"0.006": 7.8395042329,
			"0.007": 9.51387577882,
			"0.008": 5.57146893141,
			"0.009": 0.69309850886,
			"0.01": 0.754020261707,
			"0.011": 0.968634357488,
			"0.012": 0.818258627008,
			"0.013": 0.401746312121,
			"0.014": 0.706627820358,
			"0.015": 0.554510587642,
			"0.016": 0.0,
			"0.017": 0.0,
			"0.018": 0.0,
			"0.019": 0.0,
			"0.02": 0.0,
			"0.021": 0.0,
			"0.022": 0.0,
			"0.023": 0.0,
			"0.024": 0.0,
			"0.025": 0.0
		}
	}
}
