{
	 "smiles": "OC(=O)C=CC1=CC=C(Br)O1", 
	 "Tm": 403.15, 
	 "num_atms": 16, 
	 "gaussian": { 
		 "optdone": 1, 
		 "sigma_profile": "yes", 
		 "theory": "DFT", 
		 "functional": "B3LYP", 
		 "basiset": "6-31G**", 
		 "properties": { 
			 "R2extent": 4576.5265, 
			 "electric_dipole_moment_norm": 6.03152119038, 
			 "electric_quadrupole_moment_norm": 19.4829993571, 
			 "total_energy": -3066.79141778, 
			 "HOMO_LUMO_gap": 0.15368, 
			 "cosmo_polarized_energy": -16.15, 
			 "cosmo_cavitation_energy": 24.55, 
			 "cosmo_dispersion_energy": -18.35, 
			 "cosmo_repulsion_energy": 1.5, 
			 "cosmo_total_nonelectrostatic_energy": 7.7, 
			 "SMD_solvation_energy": 5.06 
		},
		"coords": [
			{
				"x": 1.0209104868,
				"y": 1.9532903997,
				"z": -2.9963907066,
				"element": "O" 
			},
			{
				"x": 0.5256807465,
				"y": 0.6925472971,
				"z": -3.1721693075,
				"element": "C" 
			},
			{
				"x": 0.4200374526,
				"y": 0.2337034337,
				"z": -4.2858620913,
				"element": "O" 
			},
			{
				"x": 0.155109664,
				"y": -0.0688003093,
				"z": -1.9552504473,
				"element": "C" 
			},
			{
				"x": 0.6685208525,
				"y": 0.1538288607,
				"z": -0.7270548563,
				"element": "C" 
			},
			{
				"x": 0.3799302395,
				"y": -0.6055232399,
				"z": 0.4567393657,
				"element": "C" 
			},
			{
				"x": 0.8420668708,
				"y": -0.5149011167,
				"z": 1.7482767188,
				"element": "C" 
			},
			{
				"x": 0.1951519021,
				"y": -1.5385625134,
				"z": 2.4992543694,
				"element": "C" 
			},
			{
				"x": -0.6161480923,
				"y": -2.1808413439,
				"z": 1.6079209588,
				"element": "C" 
			},
			{
				"x": -1.7806191611,
				"y": -3.6220032317,
				"z": 1.8128237854,
				"element": "Br" 
			},
			{
				"x": -0.5260546945,
				"y": -1.6401862521,
				"z": 0.371182806,
				"element": "O" 
			},
			{
				"x": 0.846021582,
				"y": 2.2519218602,
				"z": -2.0934855606,
				"element": "H" 
			},
			{
				"x": -0.5112190096,
				"y": -0.9059420938,
				"z": -2.133469583,
				"element": "H" 
			},
			{
				"x": 1.3956836684,
				"y": 0.9488589952,
				"z": -0.5686579897,
				"element": "H" 
			},
			{
				"x": 1.5635202524,
				"y": 0.2020827109,
				"z": 2.1141117506,
				"element": "H" 
			},
			{
				"x": 0.3090072399,
				"y": -1.7723734568,
				"z": 3.5463307875,
				"element": "H" 
			}
		],
		 "valence_orbital": [ 
			{
				"type": "occ",
				"energy": -0.31839,
				"method": "rhf"
			},
			{
				"type": "occ",
				"energy": -0.31376,
				"method": "rhf"
			},
			{
				"type": "occ",
				"energy": -0.302,
				"method": "rhf"
			},
			{
				"type": "occ",
				"energy": -0.27094,
				"method": "rhf"
			},
			{
				"type": "occ",
				"energy": -0.23153,
				"method": "rhf"
			},
			{
				"type": "unocc",
				"energy": -0.07785,
				"method": "rhf"
			},
			{
				"type": "unocc",
				"energy": -0.00638,
				"method": "rhf"
			},
			{
				"type": "unocc",
				"energy": 0.00681,
				"method": "rhf"
			},
			{
				"type": "unocc",
				"energy": 0.04552,
				"method": "rhf"
			},
			{
				"type": "unocc",
				"energy": 0.05769,
				"method": "rhf"
			}
		],
		"cosmo_sigma_profile": { 
			"-0.025": 0.0,
			"-0.024": 0.0,
			"-0.023": 0.0,
			"-0.022": 0.0,
			"-0.021": 0.0,
			"-0.02": 0.0,
			"-0.019": 0.309941788177,
			"-0.018": 0.820918631369,
			"-0.017": 1.13862846018,
			"-0.016": 1.29136928223,
			"-0.015": 0.689503891124,
			"-0.014": 0.608869632499,
			"-0.013": 0.948126844606,
			"-0.012": 1.30507514526,
			"-0.011": 1.58340053593,
			"-0.01": 1.64318423565,
			"-0.009": 4.63945271708,
			"-0.008": 6.22156766336,
			"-0.007": 6.60544439511,
			"-0.006": 7.32583965213,
			"-0.005": 8.02263551842,
			"-0.004": 7.68879804846,
			"-0.003": 7.63968936418,
			"-0.002": 10.0745782137,
			"-0.001": 14.4060365153,
			"0.0": 21.3132385972,
			"0.001": 21.4010841404,
			"0.002": 23.7328071859,
			"0.003": 15.5952429278,
			"0.004": 3.80309356639,
			"0.005": 2.90566349624,
			"0.006": 1.96650307931,
			"0.007": 2.65582295762,
			"0.008": 2.29916173494,
			"0.009": 3.0907734797,
			"0.01": 4.15700765283,
			"0.011": 5.31902134888,
			"0.012": 6.02893910098,
			"0.013": 3.59942940731,
			"0.014": 0.424138239748,
			"0.015": 0.0,
			"0.016": 0.0,
			"0.017": 0.0,
			"0.018": 0.0,
			"0.019": 0.0,
			"0.02": 0.0,
			"0.021": 0.0,
			"0.022": 0.0,
			"0.023": 0.0,
			"0.024": 0.0,
			"0.0": 0.0
		}
	}
}
