{
	 "smiles": "NC1=C(C=C(C=C1)N1CCC2=C1C=CC=C2)C(O)=O", 
	 "Tm": 463.15, 
	 "num_atms": 33, 
	 "gaussian": { 
		 "optdone": 1, 
		 "sigma_profile": "yes", 
		 "theory": "DFT", 
		 "functional": "B3LYP", 
		 "basiset": "6-31G**", 
		 "properties": { 
			 "R2extent": 5799.2748, 
			 "electric_dipole_moment_norm": 3.7975868759, 
			 "electric_quadrupole_moment_norm": 15.4345659693, 
			 "total_energy": -840.009076343, 
			 "HOMO_LUMO_gap": 0.13416, 
			 "cosmo_polarized_energy": -15.19, 
			 "cosmo_cavitation_energy": 36.15, 
			 "cosmo_dispersion_energy": -26.24, 
			 "cosmo_repulsion_energy": 2.02, 
			 "cosmo_total_nonelectrostatic_energy": 11.93, 
			 "SMD_solvation_energy": 5.93 
		},
		"coords": [
			{
				"x": -4.2878550891,
				"y": 2.1041602357,
				"z": 0.2109952464,
				"element": "N" 
			},
			{
				"x": -3.0422580634,
				"y": 1.5833095329,
				"z": 0.4665741433,
				"element": "C" 
			},
			{
				"x": -2.349405708,
				"y": 0.70532293,
				"z": -0.4138069943,
				"element": "C" 
			},
			{
				"x": -1.1046557356,
				"y": 0.1689169075,
				"z": -0.0269227463,
				"element": "C" 
			},
			{
				"x": -0.497433856,
				"y": 0.4998474345,
				"z": 1.178028913,
				"element": "C" 
			},
			{
				"x": -1.1791277478,
				"y": 1.3852358892,
				"z": 2.0355647923,
				"element": "C" 
			},
			{
				"x": -2.4160536423,
				"y": 1.8986602989,
				"z": 1.6958098749,
				"element": "C" 
			},
			{
				"x": 0.7518162302,
				"y": -0.0364181319,
				"z": 1.5929693163,
				"element": "N" 
			},
			{
				"x": 0.7474490699,
				"y": -1.103094589,
				"z": 2.6223900865,
				"element": "C" 
			},
			{
				"x": 2.2063650923,
				"y": -1.6083241593,
				"z": 2.6526516481,
				"element": "C" 
			},
			{
				"x": 2.7181963151,
				"y": -1.2083402529,
				"z": 1.2851811528,
				"element": "C" 
			},
			{
				"x": 1.8276790198,
				"y": -0.2745316262,
				"z": 0.7236960454,
				"element": "C" 
			},
			{
				"x": 2.1056946891,
				"y": 0.3209457261,
				"z": -0.5096040195,
				"element": "C" 
			},
			{
				"x": 3.2807208048,
				"y": -0.048074989,
				"z": -1.1743296233,
				"element": "C" 
			},
			{
				"x": 4.1629306262,
				"y": -0.9824645286,
				"z": -0.6288268173,
				"element": "C" 
			},
			{
				"x": 3.8808900415,
				"y": -1.5615481482,
				"z": 0.6170347774,
				"element": "C" 
			},
			{
				"x": -2.8247313799,
				"y": 0.277039008,
				"z": -1.746661678,
				"element": "C" 
			},
			{
				"x": -4.0108362427,
				"y": 0.8394845191,
				"z": -2.1421344275,
				"element": "O" 
			},
			{
				"x": -2.2487892078,
				"y": -0.5014666793,
				"z": -2.4825965034,
				"element": "O" 
			},
			{
				"x": -4.578483419,
				"y": 2.8957151827,
				"z": 0.7623196349,
				"element": "H" 
			},
			{
				"x": -4.6465402837,
				"y": 2.0431646662,
				"z": -0.7287111507,
				"element": "H" 
			},
			{
				"x": -0.6227600359,
				"y": -0.5117743884,
				"z": -0.7194692542,
				"element": "H" 
			},
			{
				"x": -0.7146144219,
				"y": 1.6695131309,
				"z": 2.9754097927,
				"element": "H" 
			},
			{
				"x": -2.9263918754,
				"y": 2.5721564857,
				"z": 2.3798054707,
				"element": "H" 
			},
			{
				"x": 0.0600476011,
				"y": -1.9088947083,
				"z": 2.3207633184,
				"element": "H" 
			},
			{
				"x": 0.4062960497,
				"y": -0.7129871253,
				"z": 3.5854074036,
				"element": "H" 
			},
			{
				"x": 2.7781673259,
				"y": -1.0997115358,
				"z": 3.4405019841,
				"element": "H" 
			},
			{
				"x": 2.2638609829,
				"y": -2.682922476,
				"z": 2.8503543068,
				"element": "H" 
			},
			{
				"x": 1.4286658759,
				"y": 1.0474313584,
				"z": -0.9454474475,
				"element": "H" 
			},
			{
				"x": 3.5023572571,
				"y": 0.4020267413,
				"z": -2.1381868884,
				"element": "H" 
			},
			{
				"x": 5.0646758463,
				"y": -1.259631101,
				"z": -1.1660970865,
				"element": "H" 
			},
			{
				"x": 4.5669317194,
				"y": -2.2830547876,
				"z": 1.05430322,
				"element": "H" 
			},
			{
				"x": -4.1846078385,
				"y": 0.4695091795,
				"z": -3.0233664906,
				"element": "H" 
			}
		],
		 "valence_orbital": [ 
			{
				"type": "occ",
				"energy": -0.27575,
				"method": "rhf"
			},
			{
				"type": "occ",
				"energy": -0.25777,
				"method": "rhf"
			},
			{
				"type": "occ",
				"energy": -0.23277,
				"method": "rhf"
			},
			{
				"type": "occ",
				"energy": -0.21502,
				"method": "rhf"
			},
			{
				"type": "occ",
				"energy": -0.17596,
				"method": "rhf"
			},
			{
				"type": "unocc",
				"energy": -0.0418,
				"method": "rhf"
			},
			{
				"type": "unocc",
				"energy": 0.00212,
				"method": "rhf"
			},
			{
				"type": "unocc",
				"energy": 0.01233,
				"method": "rhf"
			},
			{
				"type": "unocc",
				"energy": 0.0306,
				"method": "rhf"
			},
			{
				"type": "unocc",
				"energy": 0.05863,
				"method": "rhf"
			}
		],
		"cosmo_sigma_profile": { 
			"-0.025": 0.0,
			"-0.024": 0.0,
			"-0.023": 0.0,
			"-0.022": 0.0,
			"-0.021": 0.0,
			"-0.02": 0.0,
			"-0.019": 0.0291488096359,
			"-0.018": 0.672800815031,
			"-0.017": 0.739752311478,
			"-0.016": 0.995516501455,
			"-0.015": 0.804945018847,
			"-0.014": 0.678301405419,
			"-0.013": 1.78356418111,
			"-0.012": 2.08802992311,
			"-0.011": 2.21665530407,
			"-0.01": 2.95621538504,
			"-0.009": 3.04804037686,
			"-0.008": 2.73011083973,
			"-0.007": 3.63240759977,
			"-0.006": 5.70014062615,
			"-0.005": 12.8689698705,
			"-0.004": 21.1455211686,
			"-0.003": 25.7506622595,
			"-0.002": 27.0384015749,
			"-0.001": 27.2374940467,
			"0.0": 19.2332488221,
			"0.001": 17.5914807362,
			"0.002": 16.6945871727,
			"0.003": 18.5976517143,
			"0.004": 21.1742823207,
			"0.005": 13.88698109,
			"0.006": 10.3001660654,
			"0.007": 9.85164106197,
			"0.008": 4.45136450003,
			"0.009": 2.04002315987,
			"0.01": 2.74056370069,
			"0.011": 2.91788356578,
			"0.012": 5.22596362946,
			"0.013": 0.715868426936,
			"0.014": 0.0,
			"0.015": 0.0,
			"0.016": 0.0,
			"0.017": 0.0,
			"0.018": 0.0,
			"0.019": 0.0,
			"0.02": 0.0,
			"0.021": 0.0,
			"0.022": 0.0,
			"0.023": 0.0,
			"0.024": 0.0,
			"0.025": 0.0
		}
	}
}
