{
	 "smiles": "CCC1=NC2=C(C=CS2)C(=O)N1N", 
	 "Tm": 406.15, 
	 "num_atms": 22, 
	 "gaussian": { 
		 "optdone": 1, 
		 "sigma_profile": "yes", 
		 "theory": "DFT", 
		 "functional": "B3LYP", 
		 "basiset": "6-31G**", 
		 "properties": { 
			 "R2extent": 2836.5695, 
			 "electric_dipole_moment_norm": 0.930403498489, 
			 "electric_quadrupole_moment_norm": 10.1305578978, 
			 "total_energy": -947.932290662, 
			 "HOMO_LUMO_gap": 0.17947, 
			 "cosmo_polarized_energy": -11.19, 
			 "cosmo_cavitation_energy": 27.36, 
			 "cosmo_dispersion_energy": -20.82, 
			 "cosmo_repulsion_energy": 1.61, 
			 "cosmo_total_nonelectrostatic_energy": 8.15, 
			 "SMD_solvation_energy": 4.46 
		},
		"coords": [
			{
				"x": -0.3715427926,
				"y": 0.0094543958,
				"z": -3.3164823217,
				"element": "C" 
			},
			{
				"x": 0.6762627878,
				"y": 0.755078029,
				"z": -2.4908277586,
				"element": "C" 
			},
			{
				"x": 0.4994117279,
				"y": 0.5890540142,
				"z": -1.0008267461,
				"element": "C" 
			},
			{
				"x": -0.4803503201,
				"y": -0.1386894785,
				"z": -0.5329772527,
				"element": "N" 
			},
			{
				"x": -0.5668956687,
				"y": -0.2351262061,
				"z": 0.8182801346,
				"element": "C" 
			},
			{
				"x": 0.2785233523,
				"y": 0.3598744574,
				"z": 1.7497579967,
				"element": "C" 
			},
			{
				"x": -0.0739216676,
				"y": 0.0693953405,
				"z": 3.1047448033,
				"element": "C" 
			},
			{
				"x": -1.1710534095,
				"y": -0.734335532,
				"z": 3.1852195154,
				"element": "C" 
			},
			{
				"x": -1.8149180954,
				"y": -1.1668019914,
				"z": 1.6162552322,
				"element": "S" 
			},
			{
				"x": 1.3685461449,
				"y": 1.1681600109,
				"z": 1.2598409598,
				"element": "C" 
			},
			{
				"x": 2.2166584851,
				"y": 1.7730327689,
				"z": 1.9069021122,
				"element": "O" 
			},
			{
				"x": 1.3991909309,
				"y": 1.2262007083,
				"z": -0.1665598239,
				"element": "N" 
			},
			{
				"x": 2.4331349065,
				"y": 1.9963361039,
				"z": -0.7509736868,
				"element": "N" 
			},
			{
				"x": -0.3427846632,
				"y": -1.064804989,
				"z": -3.118793106,
				"element": "H" 
			},
			{
				"x": -1.3813663022,
				"y": 0.3559279681,
				"z": -3.0837723373,
				"element": "H" 
			},
			{
				"x": -0.1848380844,
				"y": 0.172208189,
				"z": -4.3821815998,
				"element": "H" 
			},
			{
				"x": 0.6663292018,
				"y": 1.826907852,
				"z": -2.7214322958,
				"element": "H" 
			},
			{
				"x": 1.688732533,
				"y": 0.4283362152,
				"z": -2.755851341,
				"element": "H" 
			},
			{
				"x": 0.4739873814,
				"y": 0.4489853071,
				"z": 3.9581077706,
				"element": "H" 
			},
			{
				"x": -1.6554205112,
				"y": -1.109998025,
				"z": 4.0759816691,
				"element": "H" 
			},
			{
				"x": 2.3579736195,
				"y": 2.9276450091,
				"z": -0.3392827954,
				"element": "H" 
			},
			{
				"x": 3.3069404439,
				"y": 1.6290598526,
				"z": -0.3714291289,
				"element": "H" 
			}
		],
		 "valence_orbital": [ 
			{
				"type": "occ",
				"energy": -0.29032,
				"method": "rhf"
			},
			{
				"type": "occ",
				"energy": -0.27862,
				"method": "rhf"
			},
			{
				"type": "occ",
				"energy": -0.26825,
				"method": "rhf"
			},
			{
				"type": "occ",
				"energy": -0.26098,
				"method": "rhf"
			},
			{
				"type": "occ",
				"energy": -0.22177,
				"method": "rhf"
			},
			{
				"type": "unocc",
				"energy": -0.0423,
				"method": "rhf"
			},
			{
				"type": "unocc",
				"energy": -0.00931,
				"method": "rhf"
			},
			{
				"type": "unocc",
				"energy": 0.021,
				"method": "rhf"
			},
			{
				"type": "unocc",
				"energy": 0.02787,
				"method": "rhf"
			},
			{
				"type": "unocc",
				"energy": 0.07202,
				"method": "rhf"
			}
		],
		"cosmo_sigma_profile": { 
			"-0.025": 0.0,
			"-0.024": 0.0,
			"-0.023": 0.0,
			"-0.022": 0.0,
			"-0.021": 0.0,
			"-0.02": 0.0,
			"-0.019": 0.0,
			"-0.018": 0.0,
			"-0.017": 0.0,
			"-0.016": 0.0,
			"-0.015": 0.0,
			"-0.014": 0.0,
			"-0.013": 0.272490536756,
			"-0.012": 2.67305048697,
			"-0.011": 2.43724591818,
			"-0.01": 2.22175741949,
			"-0.009": 4.61308573518,
			"-0.008": 4.15970521389,
			"-0.007": 5.29107671317,
			"-0.006": 5.70064841704,
			"-0.005": 8.45339870074,
			"-0.004": 15.0627708977,
			"-0.003": 16.7258978451,
			"-0.002": 17.0767280443,
			"-0.001": 18.46102686,
			"0.0": 16.9569772182,
			"0.001": 23.1917008409,
			"0.002": 19.4442215933,
			"0.003": 14.682230793,
			"0.004": 10.0183338099,
			"0.005": 4.20909927999,
			"0.006": 3.48467433802,
			"0.007": 3.64208260698,
			"0.008": 3.46109756743,
			"0.009": 3.08425005913,
			"0.01": 2.91262155717,
			"0.011": 2.51664668882,
			"0.012": 4.04970870911,
			"0.013": 4.3401012838,
			"0.014": 0.605859446711,
			"0.015": 0.0,
			"0.016": 0.0,
			"0.017": 0.0,
			"0.018": 0.0,
			"0.019": 0.0,
			"0.02": 0.0,
			"0.021": 0.0,
			"0.022": 0.0,
			"0.023": 0.0,
			"0.024": 0.0,
			"0.025": 0.0
		}
	}
}
