{
	 "smiles": "CC(C)CNS(=O)(=O)C1=CC(C(O)=O)=C(Br)C=C1", 
	 "Tm": 448.15, 
	 "num_atms": 32, 
	 "gaussian": { 
		 "optdone": 1, 
		 "sigma_profile": "yes", 
		 "theory": "DFT", 
		 "functional": "B3LYP", 
		 "basiset": "6-31G**", 
		 "properties": { 
			 "R2extent": 10266.6548, 
			 "electric_dipole_moment_norm": 3.96741904139, 
			 "electric_quadrupole_moment_norm": 14.1402244798, 
			 "total_energy": -3752.79670505, 
			 "HOMO_LUMO_gap": 0.18683, 
			 "cosmo_polarized_energy": -18.6, 
			 "cosmo_cavitation_energy": 39.77, 
			 "cosmo_dispersion_energy": -27.98, 
			 "cosmo_repulsion_energy": 2.17, 
			 "cosmo_total_nonelectrostatic_energy": 13.97, 
			 "SMD_solvation_energy": 5.86 
		},
		"coords": [
			{
				"x": -3.0091699361,
				"y": 0.6755741347,
				"z": -2.5782720723,
				"element": "C" 
			},
			{
				"x": -2.6555667775,
				"y": -0.2677269953,
				"z": -1.4194411964,
				"element": "C" 
			},
			{
				"x": -2.2954530367,
				"y": -1.6703230887,
				"z": -1.9269393729,
				"element": "C" 
			},
			{
				"x": -1.5281643428,
				"y": 0.3500263568,
				"z": -0.5767268506,
				"element": "C" 
			},
			{
				"x": -1.2735379278,
				"y": -0.4607592098,
				"z": 0.6284952341,
				"element": "N" 
			},
			{
				"x": -0.0088808788,
				"y": 0.0090177212,
				"z": 1.6445495861,
				"element": "S" 
			},
			{
				"x": -0.3141468284,
				"y": -0.614107117,
				"z": 2.9358805492,
				"element": "O" 
			},
			{
				"x": 0.2563715747,
				"y": 1.4477682243,
				"z": 1.5314829747,
				"element": "O" 
			},
			{
				"x": 1.3915605578,
				"y": -0.844134515,
				"z": 0.9138365916,
				"element": "C" 
			},
			{
				"x": 2.3544195286,
				"y": -0.1170244748,
				"z": 0.2290089931,
				"element": "C" 
			},
			{
				"x": 3.4723782019,
				"y": -0.7576355983,
				"z": -0.3376102433,
				"element": "C" 
			},
			{
				"x": 4.4873673778,
				"y": 0.0803571889,
				"z": -1.0481115734,
				"element": "C" 
			},
			{
				"x": 4.0598175468,
				"y": 1.3595105164,
				"z": -1.2056766303,
				"element": "O" 
			},
			{
				"x": 5.5708304651,
				"y": -0.2845131842,
				"z": -1.4474835288,
				"element": "O" 
			},
			{
				"x": 3.5819413318,
				"y": -2.1536792336,
				"z": -0.1881080057,
				"element": "C" 
			},
			{
				"x": 5.0061650051,
				"y": -3.1871140252,
				"z": -0.9064764886,
				"element": "Br" 
			},
			{
				"x": 2.6057034451,
				"y": -2.8741287724,
				"z": 0.5117299678,
				"element": "C" 
			},
			{
				"x": 1.5105925366,
				"y": -2.2273056822,
				"z": 1.0682995562,
				"element": "C" 
			},
			{
				"x": -3.835327492,
				"y": 0.2700612862,
				"z": -3.1705815858,
				"element": "H" 
			},
			{
				"x": -2.1533394475,
				"y": 0.8073811669,
				"z": -3.2510051547,
				"element": "H" 
			},
			{
				"x": -3.3080867923,
				"y": 1.6654744731,
				"z": -2.2176756709,
				"element": "H" 
			},
			{
				"x": -3.5427163048,
				"y": -0.35126808,
				"z": -0.7721414248,
				"element": "H" 
			},
			{
				"x": -3.1333298578,
				"y": -2.1125437852,
				"z": -2.4755611516,
				"element": "H" 
			},
			{
				"x": -2.0330888502,
				"y": -2.3389932767,
				"z": -1.1029742164,
				"element": "H" 
			},
			{
				"x": -1.4373687398,
				"y": -1.6259530588,
				"z": -2.6086101044,
				"element": "H" 
			},
			{
				"x": -1.7694751954,
				"y": 1.3883841476,
				"z": -0.3163069259,
				"element": "H" 
			},
			{
				"x": -0.6026163591,
				"y": 0.3689879616,
				"z": -1.1643405228,
				"element": "H" 
			},
			{
				"x": -2.0935769423,
				"y": -0.5820722569,
				"z": 1.2210728491,
				"element": "H" 
			},
			{
				"x": 2.25173358,
				"y": 0.9570247073,
				"z": 0.1428200623,
				"element": "H" 
			},
			{
				"x": 4.7884106787,
				"y": 1.8258969276,
				"z": -1.6469838109,
				"element": "H" 
			},
			{
				"x": 2.7182735607,
				"y": -3.9466804358,
				"z": 0.6159199475,
				"element": "H" 
			},
			{
				"x": 0.7628803185,
				"y": -2.7840020227,
				"z": 1.6226302187,
				"element": "H" 
			}
		],
		 "valence_orbital": [ 
			{
				"type": "occ",
				"energy": -0.30589,
				"method": "rhf"
			},
			{
				"type": "occ",
				"energy": -0.29113,
				"method": "rhf"
			},
			{
				"type": "occ",
				"energy": -0.28064,
				"method": "rhf"
			},
			{
				"type": "occ",
				"energy": -0.27086,
				"method": "rhf"
			},
			{
				"type": "occ",
				"energy": -0.26186,
				"method": "rhf"
			},
			{
				"type": "unocc",
				"energy": -0.07503,
				"method": "rhf"
			},
			{
				"type": "unocc",
				"energy": -0.04844,
				"method": "rhf"
			},
			{
				"type": "unocc",
				"energy": -0.005,
				"method": "rhf"
			},
			{
				"type": "unocc",
				"energy": 0.02373,
				"method": "rhf"
			},
			{
				"type": "unocc",
				"energy": 0.05409,
				"method": "rhf"
			}
		],
		"cosmo_sigma_profile": { 
			"-0.025": 0.0,
			"-0.024": 0.0,
			"-0.023": 0.0,
			"-0.022": 0.0,
			"-0.021": 0.0,
			"-0.02": 0.0,
			"-0.019": 0.198146986891,
			"-0.018": 0.879515566392,
			"-0.017": 1.3770645252,
			"-0.016": 0.459952283702,
			"-0.015": 0.729497498456,
			"-0.014": 1.41280276875,
			"-0.013": 1.94840072621,
			"-0.012": 1.9005502971,
			"-0.011": 2.10946257425,
			"-0.01": 1.65129219399,
			"-0.009": 3.09774380575,
			"-0.008": 6.44651945335,
			"-0.007": 5.05467495942,
			"-0.006": 5.56365548503,
			"-0.005": 8.78630857885,
			"-0.004": 18.3585539637,
			"-0.003": 30.5161938945,
			"-0.002": 33.0753948284,
			"-0.001": 38.6967363646,
			"0.0": 30.3957821683,
			"0.001": 27.8434890578,
			"0.002": 17.1092070114,
			"0.003": 12.9863151977,
			"0.004": 10.0707376697,
			"0.005": 8.13858792245,
			"0.006": 5.76175892241,
			"0.007": 5.93458176761,
			"0.008": 4.15753579657,
			"0.009": 5.87229423126,
			"0.01": 11.0228790237,
			"0.011": 13.4643216227,
			"0.012": 2.50955559288,
			"0.013": 0.0,
			"0.014": 0.0,
			"0.015": 0.0,
			"0.016": 0.0,
			"0.017": 0.0,
			"0.018": 0.0,
			"0.019": 0.0,
			"0.02": 0.0,
			"0.021": 0.0,
			"0.022": 0.0,
			"0.023": 0.0,
			"0.024": 0.0,
			"0.025": 0.0
		}
	}
}
