{
	 "smiles": "CCN(CC(O)=O)C(=O)OC(C)(C)C", 
	 "Tm": 361.15, 
	 "num_atms": 31, 
	 "gaussian": { 
		 "optdone": 1, 
		 "sigma_profile": "yes", 
		 "theory": "DFT", 
		 "functional": "B3LYP", 
		 "basiset": "6-31G**", 
		 "properties": { 
			 "R2extent": 3812.281, 
			 "electric_dipole_moment_norm": 6.22017113109, 
			 "electric_quadrupole_moment_norm": 24.5530135248, 
			 "total_energy": -708.905571135, 
			 "HOMO_LUMO_gap": 0.25696, 
			 "cosmo_polarized_energy": -13.0, 
			 "cosmo_cavitation_energy": 33.06, 
			 "cosmo_dispersion_energy": -22.29, 
			 "cosmo_repulsion_energy": 1.77, 
			 "cosmo_total_nonelectrostatic_energy": 12.55, 
			 "SMD_solvation_energy": 7.71 
		},
		"coords": [
			{
				"x": -2.8789074394,
				"y": 2.474023541,
				"z": -0.5222803688,
				"element": "C" 
			},
			{
				"x": -1.6323377369,
				"y": 2.3108804958,
				"z": 0.3499642847,
				"element": "C" 
			},
			{
				"x": -1.5750303362,
				"y": 1.0170356689,
				"z": 1.0453779384,
				"element": "N" 
			},
			{
				"x": -2.2716913329,
				"y": 0.8750017249,
				"z": 2.3285945534,
				"element": "C" 
			},
			{
				"x": -1.3385061234,
				"y": 0.9318094601,
				"z": 3.5529842291,
				"element": "C" 
			},
			{
				"x": -0.4140415969,
				"y": -0.036738138,
				"z": 3.6088058048,
				"element": "O" 
			},
			{
				"x": -1.4451606722,
				"y": 1.7806786546,
				"z": 4.4073375361,
				"element": "O" 
			},
			{
				"x": -0.9640870491,
				"y": -0.0848163549,
				"z": 0.5294576915,
				"element": "C" 
			},
			{
				"x": -0.8345431709,
				"y": -1.1343130583,
				"z": 1.1760438551,
				"element": "O" 
			},
			{
				"x": -0.5388418359,
				"y": 0.1038973098,
				"z": -0.7286511367,
				"element": "O" 
			},
			{
				"x": 0.2544603704,
				"y": -0.9241612924,
				"z": -1.4412409306,
				"element": "C" 
			},
			{
				"x": 0.5484857423,
				"y": -0.2383140514,
				"z": -2.7772174249,
				"element": "C" 
			},
			{
				"x": -0.5965473816,
				"y": -2.1803312076,
				"z": -1.6466030969,
				"element": "C" 
			},
			{
				"x": 1.5502809179,
				"y": -1.2097096753,
				"z": -0.6772983236,
				"element": "C" 
			},
			{
				"x": -2.8968240695,
				"y": 1.7152383647,
				"z": -1.3093276118,
				"element": "H" 
			},
			{
				"x": -2.8826788672,
				"y": 3.4615132412,
				"z": -0.9950949557,
				"element": "H" 
			},
			{
				"x": -3.7963220641,
				"y": 2.3813217206,
				"z": 0.068092472,
				"element": "H" 
			},
			{
				"x": -0.7306919516,
				"y": 2.407043744,
				"z": -0.2561811702,
				"element": "H" 
			},
			{
				"x": -1.5928188095,
				"y": 3.0892778328,
				"z": 1.1186349426,
				"element": "H" 
			},
			{
				"x": -2.8142053821,
				"y": -0.0766826464,
				"z": 2.339328258,
				"element": "H" 
			},
			{
				"x": -2.9886404217,
				"y": 1.6894475919,
				"z": 2.4266644613,
				"element": "H" 
			},
			{
				"x": -0.5060048561,
				"y": -0.6251513416,
				"z": 2.8207078464,
				"element": "H" 
			},
			{
				"x": 1.1314723413,
				"y": -0.9059742413,
				"z": -3.4180515599,
				"element": "H" 
			},
			{
				"x": -0.3807846877,
				"y": 0.0143001398,
				"z": -3.2957998407,
				"element": "H" 
			},
			{
				"x": 1.1212392985,
				"y": 0.6809362263,
				"z": -2.6243566826,
				"element": "H" 
			},
			{
				"x": -0.0503862005,
				"y": -2.8912973051,
				"z": -2.2747405721,
				"element": "H" 
			},
			{
				"x": -0.8284973559,
				"y": -2.6577392405,
				"z": -0.6944980847,
				"element": "H" 
			},
			{
				"x": -1.5318161764,
				"y": -1.9275996869,
				"z": -2.1558666331,
				"element": "H" 
			},
			{
				"x": 2.1018226522,
				"y": -0.2812154635,
				"z": -0.4995549904,
				"element": "H" 
			},
			{
				"x": 2.185246729,
				"y": -1.8706879693,
				"z": -1.2756180654,
				"element": "H" 
			},
			{
				"x": 1.3488574659,
				"y": -1.6919740439,
				"z": 0.2792875746,
				"element": "H" 
			}
		],
		 "valence_orbital": [ 
			{
				"type": "occ",
				"energy": -0.31149,
				"method": "rhf"
			},
			{
				"type": "occ",
				"energy": -0.2967,
				"method": "rhf"
			},
			{
				"type": "occ",
				"energy": -0.2928,
				"method": "rhf"
			},
			{
				"type": "occ",
				"energy": -0.27737,
				"method": "rhf"
			},
			{
				"type": "occ",
				"energy": -0.24348,
				"method": "rhf"
			},
			{
				"type": "unocc",
				"energy": 0.01348,
				"method": "rhf"
			},
			{
				"type": "unocc",
				"energy": 0.02728,
				"method": "rhf"
			},
			{
				"type": "unocc",
				"energy": 0.0664,
				"method": "rhf"
			},
			{
				"type": "unocc",
				"energy": 0.08629,
				"method": "rhf"
			},
			{
				"type": "unocc",
				"energy": 0.08895,
				"method": "rhf"
			}
		],
		"cosmo_sigma_profile": { 
			"-0.025": 0.0,
			"-0.024": 0.0,
			"-0.023": 0.0,
			"-0.022": 0.0,
			"-0.021": 0.0,
			"-0.02": 0.0,
			"-0.019": 0.0,
			"-0.018": 0.0,
			"-0.017": 0.0,
			"-0.016": 0.0,
			"-0.015": 0.0,
			"-0.014": 0.0,
			"-0.013": 0.0,
			"-0.012": 0.0,
			"-0.011": 0.0,
			"-0.01": 0.0,
			"-0.009": 0.160435694082,
			"-0.008": 1.90022808477,
			"-0.007": 5.03735477536,
			"-0.006": 6.66200299826,
			"-0.005": 11.7742290904,
			"-0.004": 25.7629609002,
			"-0.003": 34.2779828666,
			"-0.002": 29.1490893026,
			"-0.001": 28.9620109896,
			"0.0": 37.6492227612,
			"0.001": 18.6708506809,
			"0.002": 6.55382697234,
			"0.003": 5.61407634185,
			"0.004": 5.91856840577,
			"0.005": 4.01798543218,
			"0.006": 3.6420777787,
			"0.007": 2.86613025855,
			"0.008": 3.5577800127,
			"0.009": 3.96697291474,
			"0.01": 5.14535663679,
			"0.011": 7.02552743959,
			"0.012": 6.07053708642,
			"0.013": 3.13196463666,
			"0.014": 0.292148844735,
			"0.015": 0.0,
			"0.016": 0.0,
			"0.017": 0.0,
			"0.018": 0.0,
			"0.019": 0.0,
			"0.02": 0.0,
			"0.021": 0.0,
			"0.022": 0.0,
			"0.023": 0.0,
			"0.024": 0.0,
			"0.025": 0.0
		}
	}
}
