{
	 "smiles": "CC(C=CC1=CC=CC=C1)=C/C(C)=NNS(=O)(=O)C1=CC=C(C)C=C1", 
	 "Tm": 413.15, 
	 "num_atms": 47, 
	 "gaussian": { 
		 "optdone": 1, 
		 "sigma_profile": "yes", 
		 "theory": "DFT", 
		 "functional": "B3LYP", 
		 "basiset": "6-31G**", 
		 "properties": { 
			 "R2extent": 10392.4348, 
			 "electric_dipole_moment_norm": 5.91537815359, 
			 "electric_quadrupole_moment_norm": 23.6482744428, 
			 "total_energy": -1433.39746153, 
			 "HOMO_LUMO_gap": 0.14679, 
			 "cosmo_polarized_energy": -17.58, 
			 "cosmo_cavitation_energy": 51.09, 
			 "cosmo_dispersion_energy": -32.99, 
			 "cosmo_repulsion_energy": 2.48, 
			 "cosmo_total_nonelectrostatic_energy": 20.59, 
			 "SMD_solvation_energy": 7.25 
		},
		"coords": [
			{
				"x": 0.9045954795,
				"y": 1.6889880131,
				"z": -0.9411382298,
				"element": "C" 
			},
			{
				"x": 0.1732474191,
				"y": 1.4566522382,
				"z": 0.3595707393,
				"element": "C" 
			},
			{
				"x": 0.9026711231,
				"y": 0.6523121696,
				"z": 1.3513211229,
				"element": "C" 
			},
			{
				"x": 0.3714358445,
				"y": -0.0098261263,
				"z": 2.400217271,
				"element": "C" 
			},
			{
				"x": 1.0870468034,
				"y": -0.8078407213,
				"z": 3.3997392435,
				"element": "C" 
			},
			{
				"x": 2.4925340772,
				"y": -0.8817435422,
				"z": 3.4767140412,
				"element": "C" 
			},
			{
				"x": 3.1149109348,
				"y": -1.6682208889,
				"z": 4.440822124,
				"element": "C" 
			},
			{
				"x": 2.3544692749,
				"y": -2.3997606585,
				"z": 5.3591026555,
				"element": "C" 
			},
			{
				"x": 0.9617598545,
				"y": -2.332844852,
				"z": 5.3036451899,
				"element": "C" 
			},
			{
				"x": 0.3385675119,
				"y": -1.5456291492,
				"z": 4.3369754245,
				"element": "C" 
			},
			{
				"x": -1.0462355964,
				"y": 1.9835324956,
				"z": 0.6232888398,
				"element": "C" 
			},
			{
				"x": -1.8080734887,
				"y": 2.9049258034,
				"z": -0.2444327294,
				"element": "C" 
			},
			{
				"x": -2.1318547119,
				"y": 4.2478953283,
				"z": 0.3692028029,
				"element": "C" 
			},
			{
				"x": -2.2404642507,
				"y": 2.7404664211,
				"z": -1.4480574121,
				"element": "N" 
			},
			{
				"x": -2.0588417156,
				"y": 1.4931618231,
				"z": -2.0848936922,
				"element": "N" 
			},
			{
				"x": -2.9725286566,
				"y": 0.1091232389,
				"z": -1.5187533927,
				"element": "S" 
			},
			{
				"x": -3.7513770381,
				"y": -0.2912331069,
				"z": -2.6985057411,
				"element": "O" 
			},
			{
				"x": -3.6076659432,
				"y": 0.4260470464,
				"z": -0.2374405952,
				"element": "O" 
			},
			{
				"x": -1.7458411803,
				"y": -1.1651543769,
				"z": -1.2421637026,
				"element": "C" 
			},
			{
				"x": -0.9572156977,
				"y": -1.6084528919,
				"z": -2.307547113,
				"element": "C" 
			},
			{
				"x": -0.0558381873,
				"y": -2.6469761116,
				"z": -2.0949000794,
				"element": "C" 
			},
			{
				"x": 0.0579780141,
				"y": -3.2654354913,
				"z": -0.8389471604,
				"element": "C" 
			},
			{
				"x": 1.0156821607,
				"y": -4.4135700679,
				"z": -0.6302398571,
				"element": "C" 
			},
			{
				"x": -0.7554211265,
				"y": -2.8088289443,
				"z": 0.205128864,
				"element": "C" 
			},
			{
				"x": -1.6580233713,
				"y": -1.7627089505,
				"z": 0.0125787838,
				"element": "C" 
			},
			{
				"x": 0.921953634,
				"y": 0.7706203844,
				"z": -1.5397361504,
				"element": "H" 
			},
			{
				"x": 1.9465579952,
				"y": 1.9685936328,
				"z": -0.7449194526,
				"element": "H" 
			},
			{
				"x": 0.4396092627,
				"y": 2.4688683881,
				"z": -1.544302141,
				"element": "H" 
			},
			{
				"x": 1.9746423983,
				"y": 0.5782079856,
				"z": 1.1743973382,
				"element": "H" 
			},
			{
				"x": -0.7092114074,
				"y": 0.0145907134,
				"z": 2.5312545725,
				"element": "H" 
			},
			{
				"x": 3.1030685515,
				"y": -0.3117295002,
				"z": 2.7832712074,
				"element": "H" 
			},
			{
				"x": 4.1998631721,
				"y": -1.7078553793,
				"z": 4.4819045757,
				"element": "H" 
			},
			{
				"x": 2.8447196973,
				"y": -3.009846493,
				"z": 6.1120131661,
				"element": "H" 
			},
			{
				"x": 0.3595450618,
				"y": -2.8917100284,
				"z": 6.0143460398,
				"element": "H" 
			},
			{
				"x": -0.7470548679,
				"y": -1.4954714891,
				"z": 4.3015467201,
				"element": "H" 
			},
			{
				"x": -1.4599388353,
				"y": 1.8663068176,
				"z": 1.6227985254,
				"element": "H" 
			},
			{
				"x": -2.7764798038,
				"y": 4.1131199869,
				"z": 1.2464457136,
				"element": "H" 
			},
			{
				"x": -2.6520665025,
				"y": 4.8766138453,
				"z": -0.3552134954,
				"element": "H" 
			},
			{
				"x": -1.2210087118,
				"y": 4.7508437971,
				"z": 0.7126769472,
				"element": "H" 
			},
			{
				"x": -2.4346334375,
				"y": 1.6143410924,
				"z": -3.024350539,
				"element": "H" 
			},
			{
				"x": -1.0490189978,
				"y": -1.1507347535,
				"z": -3.2867219901,
				"element": "H" 
			},
			{
				"x": 0.5659370323,
				"y": -2.9894023611,
				"z": -2.9179632153,
				"element": "H" 
			},
			{
				"x": 0.5547783371,
				"y": -5.3655387722,
				"z": -0.9218509019,
				"element": "H" 
			},
			{
				"x": 1.9210632023,
				"y": -4.294325631,
				"z": -1.2329507051,
				"element": "H" 
			},
			{
				"x": 1.3124632651,
				"y": -4.5009911706,
				"z": 0.4185355004,
				"element": "H" 
			},
			{
				"x": -0.6764326447,
				"y": -3.2692746202,
				"z": 1.1860249006,
				"element": "H" 
			},
			{
				"x": -2.2897739344,
				"y": -1.407505143,
				"z": 0.8184059861,
				"element": "H" 
			}
		],
		 "valence_orbital": [ 
			{
				"type": "occ",
				"energy": -0.26531,
				"method": "rhf"
			},
			{
				"type": "occ",
				"energy": -0.25917,
				"method": "rhf"
			},
			{
				"type": "occ",
				"energy": -0.25766,
				"method": "rhf"
			},
			{
				"type": "occ",
				"energy": -0.23261,
				"method": "rhf"
			},
			{
				"type": "occ",
				"energy": -0.20929,
				"method": "rhf"
			},
			{
				"type": "unocc",
				"energy": -0.0625,
				"method": "rhf"
			},
			{
				"type": "unocc",
				"energy": -0.03371,
				"method": "rhf"
			},
			{
				"type": "unocc",
				"energy": -0.01743,
				"method": "rhf"
			},
			{
				"type": "unocc",
				"energy": -0.0109,
				"method": "rhf"
			},
			{
				"type": "unocc",
				"energy": -0.00673,
				"method": "rhf"
			}
		],
		"cosmo_sigma_profile": { 
			"-0.025": 0.0,
			"-0.024": 0.0,
			"-0.023": 0.0,
			"-0.022": 0.0,
			"-0.021": 0.0,
			"-0.02": 0.0,
			"-0.019": 0.0,
			"-0.018": 0.0,
			"-0.017": 0.0,
			"-0.016": 0.0,
			"-0.015": 0.0,
			"-0.014": 0.340587535047,
			"-0.013": 0.534927947423,
			"-0.012": 1.10056989654,
			"-0.011": 0.683673589011,
			"-0.01": 0.416063759251,
			"-0.009": 0.503191510078,
			"-0.008": 2.09945511093,
			"-0.007": 5.17133266366,
			"-0.006": 21.509175608,
			"-0.005": 33.166481843,
			"-0.004": 35.4389135947,
			"-0.003": 33.7773767,
			"-0.002": 35.1460721532,
			"-0.001": 38.7580291462,
			"0.0": 34.9081366906,
			"0.001": 26.510014709,
			"0.002": 21.5392012384,
			"0.003": 26.9396113598,
			"0.004": 21.6475475887,
			"0.005": 18.3640351208,
			"0.006": 11.7361942584,
			"0.007": 5.72035848109,
			"0.008": 4.69987027667,
			"0.009": 4.37293391268,
			"0.01": 8.53061803898,
			"0.011": 8.91452892919,
			"0.012": 1.75210676048,
			"0.013": 0.831498304078,
			"0.014": 0.331886047982,
			"0.015": 0.0,
			"0.016": 0.0,
			"0.017": 0.0,
			"0.018": 0.0,
			"0.019": 0.0,
			"0.02": 0.0,
			"0.021": 0.0,
			"0.022": 0.0,
			"0.023": 0.0,
			"0.024": 0.0,
			"0.025": 0.0
		}
	}
}
