{
	 "smiles": "CC1=NN(C(Cl)=C1C=O)C1=CC=CC=C1", 
	 "Tm": 419.15, 
	 "num_atms": 24, 
	 "gaussian": { 
		 "optdone": 1, 
		 "sigma_profile": "yes", 
		 "theory": "DFT", 
		 "functional": "B3LYP", 
		 "basiset": "6-31G**", 
		 "properties": { 
			 "R2extent": 4364.1713, 
			 "electric_dipole_moment_norm": 3.48476025574, 
			 "electric_quadrupole_moment_norm": 24.1790864164, 
			 "total_energy": -1069.48212473, 
			 "HOMO_LUMO_gap": 0.1911, 
			 "cosmo_polarized_energy": -10.91, 
			 "cosmo_cavitation_energy": 30.63, 
			 "cosmo_dispersion_energy": -22.01, 
			 "cosmo_repulsion_energy": 1.72, 
			 "cosmo_total_nonelectrostatic_energy": 10.35, 
			 "SMD_solvation_energy": 5.4 
		},
		"coords": [
			{
				"x": -3.2762409525,
				"y": -0.4648922161,
				"z": -2.0697113153,
				"element": "C" 
			},
			{
				"x": -1.8914973463,
				"y": -0.8218377477,
				"z": -1.6227594128,
				"element": "C" 
			},
			{
				"x": -1.1804078461,
				"y": 0.0435990918,
				"z": -0.9153537938,
				"element": "N" 
			},
			{
				"x": 0.0265402925,
				"y": -0.5666908799,
				"z": -0.6777880508,
				"element": "N" 
			},
			{
				"x": 0.0585203105,
				"y": -1.8104818776,
				"z": -1.2236637098,
				"element": "C" 
			},
			{
				"x": 1.3797446722,
				"y": -2.8896661921,
				"z": -1.0440810823,
				"element": "Cl" 
			},
			{
				"x": -1.1633486385,
				"y": -2.0275004671,
				"z": -1.8593340549,
				"element": "C" 
			},
			{
				"x": -1.6167223,
				"y": -3.2056942796,
				"z": -2.5919416843,
				"element": "C" 
			},
			{
				"x": -0.9684249564,
				"y": -4.221562724,
				"z": -2.7760276863,
				"element": "O" 
			},
			{
				"x": 1.0041623699,
				"y": 0.1284412062,
				"z": 0.0979043767,
				"element": "C" 
			},
			{
				"x": 2.341870898,
				"y": 0.1677220149,
				"z": -0.3034439876,
				"element": "C" 
			},
			{
				"x": 3.2662209702,
				"y": 0.8657428487,
				"z": 0.4739965883,
				"element": "C" 
			},
			{
				"x": 2.8569718715,
				"y": 1.5337639409,
				"z": 1.6289402018,
				"element": "C" 
			},
			{
				"x": 1.5129613733,
				"y": 1.5053656421,
				"z": 2.0085561269,
				"element": "C" 
			},
			{
				"x": 0.5817596375,
				"y": 0.8013915865,
				"z": 1.2481524247,
				"element": "C" 
			},
			{
				"x": -3.525946367,
				"y": 0.5340064291,
				"z": -1.7062987644,
				"element": "H" 
			},
			{
				"x": -3.3584719999,
				"y": -0.4667929454,
				"z": -3.1617645693,
				"element": "H" 
			},
			{
				"x": -4.0179098533,
				"y": -1.1714505532,
				"z": -1.6823138476,
				"element": "H" 
			},
			{
				"x": -2.6492967445,
				"y": -3.1122541289,
				"z": -2.994412052,
				"element": "H" 
			},
			{
				"x": 2.6536046515,
				"y": -0.3275329276,
				"z": -1.215215208,
				"element": "H" 
			},
			{
				"x": 4.3065726248,
				"y": 0.8962372337,
				"z": 0.1649800395,
				"element": "H" 
			},
			{
				"x": 3.5804216111,
				"y": 2.0794333811,
				"z": 2.2270721139,
				"element": "H" 
			},
			{
				"x": 1.1870965414,
				"y": 2.0285767676,
				"z": 2.9023987511,
				"element": "H" 
			},
			{
				"x": -0.4657808197,
				"y": 0.7714767967,
				"z": 1.5240085963,
				"element": "H" 
			}
		],
		 "valence_orbital": [ 
			{
				"type": "occ",
				"energy": -0.29147,
				"method": "rhf"
			},
			{
				"type": "occ",
				"energy": -0.26705,
				"method": "rhf"
			},
			{
				"type": "occ",
				"energy": -0.25566,
				"method": "rhf"
			},
			{
				"type": "occ",
				"energy": -0.24834,
				"method": "rhf"
			},
			{
				"type": "occ",
				"energy": -0.24553,
				"method": "rhf"
			},
			{
				"type": "unocc",
				"energy": -0.05443,
				"method": "rhf"
			},
			{
				"type": "unocc",
				"energy": -0.02162,
				"method": "rhf"
			},
			{
				"type": "unocc",
				"energy": -0.01725,
				"method": "rhf"
			},
			{
				"type": "unocc",
				"energy": 0.01465,
				"method": "rhf"
			},
			{
				"type": "unocc",
				"energy": 0.02627,
				"method": "rhf"
			}
		],
		"cosmo_sigma_profile": { 
			"-0.025": 0.0,
			"-0.024": 0.0,
			"-0.023": 0.0,
			"-0.022": 0.0,
			"-0.021": 0.0,
			"-0.02": 0.0,
			"-0.019": 0.0,
			"-0.018": 0.0,
			"-0.017": 0.0,
			"-0.016": 0.0,
			"-0.015": 0.0,
			"-0.014": 0.0,
			"-0.013": 0.0,
			"-0.012": 0.0,
			"-0.011": 0.0,
			"-0.01": 0.0,
			"-0.009": 0.0,
			"-0.008": 0.0141084776772,
			"-0.007": 4.64595964216,
			"-0.006": 20.0661500515,
			"-0.005": 21.690408653,
			"-0.004": 19.17023957,
			"-0.003": 19.1547809053,
			"-0.002": 20.5438549906,
			"-0.001": 23.0277394326,
			"0.0": 21.6269622376,
			"0.001": 15.4797831242,
			"0.002": 17.1473146124,
			"0.003": 16.7778333153,
			"0.004": 14.8569897819,
			"0.005": 5.4134560853,
			"0.006": 3.55006386991,
			"0.007": 3.21813392046,
			"0.008": 3.03522003035,
			"0.009": 2.71046675148,
			"0.01": 3.87333612519,
			"0.011": 5.26044604612,
			"0.012": 4.80547694264,
			"0.013": 1.86411246487,
			"0.014": 0.250303591368,
			"0.015": 0.0,
			"0.016": 0.0,
			"0.017": 0.0,
			"0.018": 0.0,
			"0.019": 0.0,
			"0.02": 0.0,
			"0.021": 0.0,
			"0.022": 0.0,
			"0.023": 0.0,
			"0.024": 0.0,
			"0.025": 0.0
		}
	}
}
