{
	 "smiles": "NN=C(C(=O)C1=CC=CC=C1)C1=CC=CC=C1", 
	 "Tm": 422.15, 
	 "num_atms": 29, 
	 "gaussian": { 
		 "optdone": 1, 
		 "sigma_profile": "yes", 
		 "theory": "DFT", 
		 "functional": "B3LYP", 
		 "basiset": "6-31G**", 
		 "properties": { 
			 "R2extent": 4109.0246, 
			 "electric_dipole_moment_norm": 0.631216959531, 
			 "electric_quadrupole_moment_norm": 13.0080587691, 
			 "total_energy": -725.411388601, 
			 "HOMO_LUMO_gap": 0.14257, 
			 "cosmo_polarized_energy": -10.53, 
			 "cosmo_cavitation_energy": 32.99, 
			 "cosmo_dispersion_energy": -23.56, 
			 "cosmo_repulsion_energy": 1.85, 
			 "cosmo_total_nonelectrostatic_energy": 11.29, 
			 "SMD_solvation_energy": 5.6 
		},
		"coords": [
			{
				"x": 3.3686911428,
				"y": 0.60747976,
				"z": -1.305939312,
				"element": "N" 
			},
			{
				"x": 2.6287799443,
				"y": 0.2570550106,
				"z": -0.2778083976,
				"element": "N" 
			},
			{
				"x": 1.3155267514,
				"y": 0.1874229121,
				"z": -0.350154527,
				"element": "C" 
			},
			{
				"x": 0.5839625273,
				"y": 0.4499742333,
				"z": -1.6130785309,
				"element": "C" 
			},
			{
				"x": 1.1446838854,
				"y": 1.052359458,
				"z": -2.545428484,
				"element": "O" 
			},
			{
				"x": -0.808912797,
				"y": -0.0558307392,
				"z": -1.8469613933,
				"element": "C" 
			},
			{
				"x": -1.6100205105,
				"y": 0.6468612661,
				"z": -2.7616252787,
				"element": "C" 
			},
			{
				"x": -2.887365635,
				"y": 0.1923151852,
				"z": -3.0778489719,
				"element": "C" 
			},
			{
				"x": -3.3690789189,
				"y": -0.9892017268,
				"z": -2.5074718464,
				"element": "C" 
			},
			{
				"x": -2.5686735601,
				"y": -1.7099063645,
				"z": -1.6187422853,
				"element": "C" 
			},
			{
				"x": -1.2987575659,
				"y": -1.2433615292,
				"z": -1.2811110126,
				"element": "C" 
			},
			{
				"x": 0.6415090955,
				"y": -0.1424369566,
				"z": 0.9373304957,
				"element": "C" 
			},
			{
				"x": -0.5248158428,
				"y": 0.5286846272,
				"z": 1.3409004277,
				"element": "C" 
			},
			{
				"x": -1.1205699254,
				"y": 0.248733352,
				"z": 2.5703313118,
				"element": "C" 
			},
			{
				"x": -0.5591500788,
				"y": -0.7019006057,
				"z": 3.4246664306,
				"element": "C" 
			},
			{
				"x": 0.6069726903,
				"y": -1.367646176,
				"z": 3.0398720019,
				"element": "C" 
			},
			{
				"x": 1.2010955949,
				"y": -1.0909951375,
				"z": 1.809726593,
				"element": "C" 
			},
			{
				"x": 2.9283021677,
				"y": 0.9754996014,
				"z": -2.1476864224,
				"element": "H" 
			},
			{
				"x": 4.359327232,
				"y": 0.6456712122,
				"z": -1.129233729,
				"element": "H" 
			},
			{
				"x": -1.2091749224,
				"y": 1.5459027984,
				"z": -3.217656426,
				"element": "H" 
			},
			{
				"x": -3.5046273389,
				"y": 0.752391606,
				"z": -3.7743751224,
				"element": "H" 
			},
			{
				"x": -4.3627247371,
				"y": -1.3493799609,
				"z": -2.7588701797,
				"element": "H" 
			},
			{
				"x": -2.9336469121,
				"y": -2.6364226827,
				"z": -1.1852948612,
				"element": "H" 
			},
			{
				"x": -0.6857167302,
				"y": -1.8087961187,
				"z": -0.5887273283,
				"element": "H" 
			},
			{
				"x": -0.9645559744,
				"y": 1.2798764099,
				"z": 0.691942479,
				"element": "H" 
			},
			{
				"x": -2.0205880116,
				"y": 0.7817414198,
				"z": 2.8639156557,
				"element": "H" 
			},
			{
				"x": -1.0237653634,
				"y": -0.9197639126,
				"z": 4.3820517877,
				"element": "H" 
			},
			{
				"x": 1.0534317567,
				"y": -2.1080946099,
				"z": 3.6979937272,
				"element": "H" 
			},
			{
				"x": 2.1100620363,
				"y": -1.6033323316,
				"z": 1.5116831983,
				"element": "H" 
			}
		],
		 "valence_orbital": [ 
			{
				"type": "occ",
				"energy": -0.25746,
				"method": "rhf"
			},
			{
				"type": "occ",
				"energy": -0.25406,
				"method": "rhf"
			},
			{
				"type": "occ",
				"energy": -0.24363,
				"method": "rhf"
			},
			{
				"type": "occ",
				"energy": -0.23884,
				"method": "rhf"
			},
			{
				"type": "occ",
				"energy": -0.21009,
				"method": "rhf"
			},
			{
				"type": "unocc",
				"energy": -0.06752,
				"method": "rhf"
			},
			{
				"type": "unocc",
				"energy": -0.01813,
				"method": "rhf"
			},
			{
				"type": "unocc",
				"energy": -0.00683,
				"method": "rhf"
			},
			{
				"type": "unocc",
				"energy": 0.00622,
				"method": "rhf"
			},
			{
				"type": "unocc",
				"energy": 0.01378,
				"method": "rhf"
			}
		],
		"cosmo_sigma_profile": { 
			"-0.025": 0.0,
			"-0.024": 0.0,
			"-0.023": 0.0,
			"-0.022": 0.0,
			"-0.021": 0.0,
			"-0.02": 0.0,
			"-0.019": 0.0,
			"-0.018": 0.0,
			"-0.017": 0.0,
			"-0.016": 0.0311543911538,
			"-0.015": 0.966302142433,
			"-0.014": 1.18153853246,
			"-0.013": 1.16172569223,
			"-0.012": 1.14258368707,
			"-0.011": 1.24984509228,
			"-0.01": 1.95020646438,
			"-0.009": 1.82649234425,
			"-0.008": 1.63534518587,
			"-0.007": 1.73861895723,
			"-0.006": 9.8264123592,
			"-0.005": 20.9694679658,
			"-0.004": 23.0715666756,
			"-0.003": 20.2098351098,
			"-0.002": 19.3242092575,
			"-0.001": 17.5864741595,
			"0.0": 15.3557141086,
			"0.001": 18.481327808,
			"0.002": 19.5664102776,
			"0.003": 18.4585274941,
			"0.004": 25.1430159029,
			"0.005": 18.3633642566,
			"0.006": 9.56154598938,
			"0.007": 3.28547599066,
			"0.008": 2.66033411402,
			"0.009": 2.79092540678,
			"0.01": 2.64674516774,
			"0.011": 2.43675804578,
			"0.012": 1.6091239879,
			"0.013": 0.234285895285,
			"0.014": 0.0,
			"0.015": 0.0,
			"0.016": 0.0,
			"0.017": 0.0,
			"0.018": 0.0,
			"0.019": 0.0,
			"0.02": 0.0,
			"0.021": 0.0,
			"0.022": 0.0,
			"0.023": 0.0,
			"0.024": 0.0,
			"0.025": 0.0
		}
	}
}
