{
	 "smiles": "COC1=CC(=CC=C1)C1=NN(CC2=CC=CC=C2)C=C1C(O)=O", 
	 "Tm": 448.15, 
	 "num_atms": 39, 
	 "gaussian": { 
		 "optdone": 1, 
		 "sigma_profile": "yes", 
		 "theory": "DFT", 
		 "functional": "B3LYP", 
		 "basiset": "6-31G**", 
		 "properties": { 
			 "R2extent": 9828.1332, 
			 "electric_dipole_moment_norm": 6.04874242219, 
			 "electric_quadrupole_moment_norm": 13.177841511, 
			 "total_energy": -1030.71751223, 
			 "HOMO_LUMO_gap": 0.17418, 
			 "cosmo_polarized_energy": -20.61, 
			 "cosmo_cavitation_energy": 43.96, 
			 "cosmo_dispersion_energy": -30.47, 
			 "cosmo_repulsion_energy": 2.31, 
			 "cosmo_total_nonelectrostatic_energy": 15.79, 
			 "SMD_solvation_energy": 8.33 
		},
		"coords": [
			{
				"x": 1.0385765617,
				"y": 2.6020724996,
				"z": 4.3876867103,
				"element": "C" 
			},
			{
				"x": 0.0866338109,
				"y": 3.4577442013,
				"z": 3.7687195169,
				"element": "O" 
			},
			{
				"x": -0.3738025615,
				"y": 3.1154634212,
				"z": 2.5305066854,
				"element": "C" 
			},
			{
				"x": 0.0444361868,
				"y": 1.9797524521,
				"z": 1.829935078,
				"element": "C" 
			},
			{
				"x": -0.4935604784,
				"y": 1.70132885,
				"z": 0.5623633837,
				"element": "C" 
			},
			{
				"x": -1.4374919874,
				"y": 2.5755893566,
				"z": 0.0008569595,
				"element": "C" 
			},
			{
				"x": -1.8383035862,
				"y": 3.7093276239,
				"z": 0.7072882009,
				"element": "C" 
			},
			{
				"x": -1.317499526,
				"y": 3.9857881676,
				"z": 1.9674222444,
				"element": "C" 
			},
			{
				"x": -0.0696541584,
				"y": 0.5143958958,
				"z": -0.2108188749,
				"element": "C" 
			},
			{
				"x": -0.1960843279,
				"y": 0.5431402093,
				"z": -1.5433834935,
				"element": "N" 
			},
			{
				"x": 0.2191023113,
				"y": -0.6610173045,
				"z": -1.9928038844,
				"element": "N" 
			},
			{
				"x": 0.1796877348,
				"y": -0.9525792102,
				"z": -3.4256996141,
				"element": "C" 
			},
			{
				"x": -1.016384931,
				"y": -1.7914041721,
				"z": -3.8359349765,
				"element": "C" 
			},
			{
				"x": -0.8346327948,
				"y": -2.9870200528,
				"z": -4.537736718,
				"element": "C" 
			},
			{
				"x": -1.9350719394,
				"y": -3.7508132428,
				"z": -4.9350042513,
				"element": "C" 
			},
			{
				"x": -3.2266907923,
				"y": -3.3252935676,
				"z": -4.6259184539,
				"element": "C" 
			},
			{
				"x": -3.415024198,
				"y": -2.1323771956,
				"z": -3.9215066047,
				"element": "C" 
			},
			{
				"x": -2.3173382445,
				"y": -1.3677712015,
				"z": -3.530724393,
				"element": "C" 
			},
			{
				"x": 0.5848629,
				"y": -1.4799661846,
				"z": -0.9876451845,
				"element": "C" 
			},
			{
				"x": 0.4257494196,
				"y": -0.7720596069,
				"z": 0.2005462301,
				"element": "C" 
			},
			{
				"x": 0.7541960884,
				"y": -1.3399130733,
				"z": 1.5283449543,
				"element": "C" 
			},
			{
				"x": 0.5494337057,
				"y": -2.6864857056,
				"z": 1.6338269436,
				"element": "O" 
			},
			{
				"x": 1.2092053749,
				"y": -0.7418739994,
				"z": 2.4777708461,
				"element": "O" 
			},
			{
				"x": 1.9747335494,
				"y": 2.5599119993,
				"z": 3.8167758598,
				"element": "H" 
			},
			{
				"x": 1.2350151727,
				"y": 3.0344844421,
				"z": 5.3701969203,
				"element": "H" 
			},
			{
				"x": 0.6534220014,
				"y": 1.5823885057,
				"z": 4.505884425,
				"element": "H" 
			},
			{
				"x": 0.7774316252,
				"y": 1.3049554756,
				"z": 2.2477261238,
				"element": "H" 
			},
			{
				"x": -1.8479963843,
				"y": 2.3600562507,
				"z": -0.9785223844,
				"element": "H" 
			},
			{
				"x": -2.5710263145,
				"y": 4.3832087692,
				"z": 0.2721365833,
				"element": "H" 
			},
			{
				"x": -1.6234307697,
				"y": 4.8605651646,
				"z": 2.5319269356,
				"element": "H" 
			},
			{
				"x": 0.1682569983,
				"y": 0.0238916097,
				"z": -3.9161046316,
				"element": "H" 
			},
			{
				"x": 1.111375195,
				"y": -1.4560889503,
				"z": -3.7001813339,
				"element": "H" 
			},
			{
				"x": 0.1713081807,
				"y": -3.322727014,
				"z": -4.7792610435,
				"element": "H" 
			},
			{
				"x": -1.7808412514,
				"y": -4.6771769775,
				"z": -5.4806844091,
				"element": "H" 
			},
			{
				"x": -4.0836945569,
				"y": -3.9184791229,
				"z": -4.9312746413,
				"element": "H" 
			},
			{
				"x": -4.419227115,
				"y": -1.7965308669,
				"z": -3.6795773364,
				"element": "H" 
			},
			{
				"x": -2.4614582604,
				"y": -0.441055009,
				"z": -2.982198243,
				"element": "H" 
			},
			{
				"x": 0.9706519063,
				"y": -2.4724901062,
				"z": -1.1752123356,
				"element": "H" 
			},
			{
				"x": 0.0032354551,
				"y": -2.9879423305,
				"z": 0.8944782068,
				"element": "H" 
			}
		],
		 "valence_orbital": [ 
			{
				"type": "occ",
				"energy": -0.2666,
				"method": "rhf"
			},
			{
				"type": "occ",
				"energy": -0.26458,
				"method": "rhf"
			},
			{
				"type": "occ",
				"energy": -0.26189,
				"method": "rhf"
			},
			{
				"type": "occ",
				"energy": -0.2286,
				"method": "rhf"
			},
			{
				"type": "occ",
				"energy": -0.20538,
				"method": "rhf"
			},
			{
				"type": "unocc",
				"energy": -0.0312,
				"method": "rhf"
			},
			{
				"type": "unocc",
				"energy": -0.02615,
				"method": "rhf"
			},
			{
				"type": "unocc",
				"energy": -0.01894,
				"method": "rhf"
			},
			{
				"type": "unocc",
				"energy": -0.0136,
				"method": "rhf"
			},
			{
				"type": "unocc",
				"energy": 0.01979,
				"method": "rhf"
			}
		],
		"cosmo_sigma_profile": { 
			"-0.025": 0.0,
			"-0.024": 0.0,
			"-0.023": 0.0,
			"-0.022": 0.0,
			"-0.021": 0.0,
			"-0.02": 0.0,
			"-0.019": 0.0122135253942,
			"-0.018": 0.727782157242,
			"-0.017": 0.998585210059,
			"-0.016": 1.29679068373,
			"-0.015": 1.05618398733,
			"-0.014": 0.886164676956,
			"-0.013": 1.30995366441,
			"-0.012": 1.27619209911,
			"-0.011": 2.25753934917,
			"-0.01": 2.90411645961,
			"-0.009": 2.43587494986,
			"-0.008": 4.78205935426,
			"-0.007": 7.20624371123,
			"-0.006": 15.6291106151,
			"-0.005": 22.7170792127,
			"-0.004": 30.0003260099,
			"-0.003": 28.9622493554,
			"-0.002": 20.6124978593,
			"-0.001": 20.1227415903,
			"0.0": 20.0583006317,
			"0.001": 22.7484959472,
			"0.002": 25.3933732428,
			"0.003": 23.4644858379,
			"0.004": 24.2768284386,
			"0.005": 26.3256941151,
			"0.006": 12.2985879927,
			"0.007": 5.39845094787,
			"0.008": 4.59579921713,
			"0.009": 6.26134733407,
			"0.01": 6.81588888662,
			"0.011": 4.98599107942,
			"0.012": 3.00668004289,
			"0.013": 1.11335931469,
			"0.014": 0.0161352002601,
			"0.015": 0.0,
			"0.016": 0.0,
			"0.017": 0.0,
			"0.018": 0.0,
			"0.019": 0.0,
			"0.02": 0.0,
			"0.021": 0.0,
			"0.022": 0.0,
			"0.023": 0.0,
			"0.024": 0.0,
			"0.025": 0.0
		}
	}
}
