{
	 "smiles": "OCCC1=NC2=CC=CC=C2C=C1", 
	 "Tm": 376.15, 
	 "num_atms": 24, 
	 "gaussian": { 
		 "optdone": 1, 
		 "sigma_profile": "yes", 
		 "theory": "DFT", 
		 "functional": "B3LYP", 
		 "basiset": "6-31G**", 
		 "properties": { 
			 "R2extent": 3226.7545, 
			 "electric_dipole_moment_norm": 1.58787943497, 
			 "electric_quadrupole_moment_norm": 8.90630639435, 
			 "total_energy": -555.778547175, 
			 "HOMO_LUMO_gap": 0.18077, 
			 "cosmo_polarized_energy": -10.15, 
			 "cosmo_cavitation_energy": 27.38, 
			 "cosmo_dispersion_energy": -20.36, 
			 "cosmo_repulsion_energy": 1.62, 
			 "cosmo_total_nonelectrostatic_energy": 8.63, 
			 "SMD_solvation_energy": 3.0 
		},
		"coords": [
			{
				"x": 1.2059506903,
				"y": -2.7528393542,
				"z": -1.6840662756,
				"element": "O" 
			},
			{
				"x": 0.532354079,
				"y": -2.0170039356,
				"z": -2.7007439748,
				"element": "C" 
			},
			{
				"x": -0.9221897612,
				"y": -1.8128674277,
				"z": -2.2698880305,
				"element": "C" 
			},
			{
				"x": -1.0858283922,
				"y": -0.8644512002,
				"z": -1.1018863163,
				"element": "C" 
			},
			{
				"x": -1.5750168259,
				"y": 0.3335704199,
				"z": -1.3723183937,
				"element": "N" 
			},
			{
				"x": -1.7324049464,
				"y": 1.2239406323,
				"z": -0.3480510998,
				"element": "C" 
			},
			{
				"x": -2.260288148,
				"y": 2.5089229232,
				"z": -0.6423210325,
				"element": "C" 
			},
			{
				"x": -2.4386000453,
				"y": 3.4375579481,
				"z": 0.3594001817,
				"element": "C" 
			},
			{
				"x": -2.0990906202,
				"y": 3.1257487022,
				"z": 1.6993589554,
				"element": "C" 
			},
			{
				"x": -1.5851391323,
				"y": 1.887297617,
				"z": 2.0153290735,
				"element": "C" 
			},
			{
				"x": -1.3892553176,
				"y": 0.9106256989,
				"z": 1.0046990421,
				"element": "C" 
			},
			{
				"x": -0.86267443,
				"y": -0.3835916475,
				"z": 1.2540512929,
				"element": "C" 
			},
			{
				"x": -0.7105009838,
				"y": -1.2662098865,
				"z": 0.2144567863,
				"element": "C" 
			},
			{
				"x": 2.1501912902,
				"y": -2.7491368513,
				"z": -1.8818144944,
				"element": "H" 
			},
			{
				"x": 0.5485674618,
				"y": -2.5629946427,
				"z": -3.6573149783,
				"element": "H" 
			},
			{
				"x": 1.0049102016,
				"y": -1.0371781321,
				"z": -2.8679115639,
				"element": "H" 
			},
			{
				"x": -1.483909105,
				"y": -1.404345532,
				"z": -3.1144052443,
				"element": "H" 
			},
			{
				"x": -1.3403400296,
				"y": -2.7969526543,
				"z": -2.0242012187,
				"element": "H" 
			},
			{
				"x": -2.5141077811,
				"y": 2.7240803629,
				"z": -1.6753539334,
				"element": "H" 
			},
			{
				"x": -2.8431011224,
				"y": 4.4181851972,
				"z": 0.1251286051,
				"element": "H" 
			},
			{
				"x": -2.2463553513,
				"y": 3.8691259453,
				"z": 2.4774717805,
				"element": "H" 
			},
			{
				"x": -1.3228105851,
				"y": 1.6420838676,
				"z": 3.0416810352,
				"element": "H" 
			},
			{
				"x": -0.5853872252,
				"y": -0.6614911932,
				"z": 2.2682960071,
				"element": "H" 
			},
			{
				"x": -0.29557392,
				"y": -2.2558768572,
				"z": 0.3652037964,
				"element": "H" 
			}
		],
		 "valence_orbital": [ 
			{
				"type": "occ",
				"energy": -0.29738,
				"method": "rhf"
			},
			{
				"type": "occ",
				"energy": -0.27034,
				"method": "rhf"
			},
			{
				"type": "occ",
				"energy": -0.24471,
				"method": "rhf"
			},
			{
				"type": "occ",
				"energy": -0.23916,
				"method": "rhf"
			},
			{
				"type": "occ",
				"energy": -0.22446,
				"method": "rhf"
			},
			{
				"type": "unocc",
				"energy": -0.04369,
				"method": "rhf"
			},
			{
				"type": "unocc",
				"energy": -0.00852,
				"method": "rhf"
			},
			{
				"type": "unocc",
				"energy": 0.02779,
				"method": "rhf"
			},
			{
				"type": "unocc",
				"energy": 0.07551,
				"method": "rhf"
			},
			{
				"type": "unocc",
				"energy": 0.09115,
				"method": "rhf"
			}
		],
		"cosmo_sigma_profile": { 
			"-0.025": 0.0,
			"-0.024": 0.0,
			"-0.023": 0.0,
			"-0.022": 0.0,
			"-0.021": 0.0,
			"-0.02": 0.0,
			"-0.019": 0.0,
			"-0.018": 0.0,
			"-0.017": 0.0,
			"-0.016": 0.597629708428,
			"-0.015": 0.975788726563,
			"-0.014": 1.11356050186,
			"-0.013": 0.731145655099,
			"-0.012": 0.893245440831,
			"-0.011": 0.714929998539,
			"-0.01": 0.90500288458,
			"-0.009": 0.803218960891,
			"-0.008": 0.722530387449,
			"-0.007": 3.21378691741,
			"-0.006": 10.1915339801,
			"-0.005": 12.074773819,
			"-0.004": 19.697243623,
			"-0.003": 21.9920758267,
			"-0.002": 18.2551944489,
			"-0.001": 14.3716877018,
			"0.0": 12.5093817882,
			"0.001": 12.1644091809,
			"0.002": 17.7071221618,
			"0.003": 19.2440793436,
			"0.004": 15.6422359297,
			"0.005": 10.3458978686,
			"0.006": 3.90087886077,
			"0.007": 3.51889399864,
			"0.008": 2.97310368476,
			"0.009": 2.80998107914,
			"0.01": 1.88472829102,
			"0.011": 1.77816869019,
			"0.012": 2.07531368269,
			"0.013": 1.22632278412,
			"0.014": 1.22151255841,
			"0.015": 0.814520534765,
			"0.016": 0.333655808519,
			"0.017": 0.0,
			"0.018": 0.0,
			"0.019": 0.0,
			"0.02": 0.0,
			"0.021": 0.0,
			"0.022": 0.0,
			"0.023": 0.0,
			"0.024": 0.0,
			"0.025": 0.0
		}
	}
}
