{
	 "smiles": "CC1=CC=C(C=C1C)[N+]([O-])=O", 
	 "Tm": 303.15, 
	 "num_atms": 20, 
	 "gaussian": { 
		 "optdone": 1, 
		 "sigma_profile": "yes", 
		 "theory": "DFT", 
		 "functional": "B3LYP", 
		 "basiset": "6-31G**", 
		 "properties": { 
			 "R2extent": 2447.4769, 
			 "electric_dipole_moment_norm": 5.4485841638, 
			 "electric_quadrupole_moment_norm": 12.8162481581, 
			 "total_energy": -515.390578967, 
			 "HOMO_LUMO_gap": 0.17926, 
			 "cosmo_polarized_energy": -8.26, 
			 "cosmo_cavitation_energy": 24.08, 
			 "cosmo_dispersion_energy": -17.6, 
			 "cosmo_repulsion_energy": 1.4, 
			 "cosmo_total_nonelectrostatic_energy": 7.88, 
			 "SMD_solvation_energy": 6.51 
		},
		"coords": [
			{
				"x": 0.3503898832,
				"y": -2.71129091,
				"z": 0.83416763,
				"element": "C" 
			},
			{
				"x": -0.2605564842,
				"y": -1.6174670018,
				"z": -0.0052788654,
				"element": "C" 
			},
			{
				"x": -1.6064329275,
				"y": -1.6950497098,
				"z": -0.3882656411,
				"element": "C" 
			},
			{
				"x": -2.2051607023,
				"y": -0.705395467,
				"z": -1.1623765106,
				"element": "C" 
			},
			{
				"x": -1.4262137578,
				"y": 0.3786164248,
				"z": -1.5532580707,
				"element": "C" 
			},
			{
				"x": -0.0849975041,
				"y": 0.4884822487,
				"z": -1.1908054172,
				"element": "C" 
			},
			{
				"x": 0.5126633894,
				"y": -0.5053417655,
				"z": -0.4146186876,
				"element": "C" 
			},
			{
				"x": 1.9656944716,
				"y": -0.3844643605,
				"z": -0.0232030193,
				"element": "C" 
			},
			{
				"x": -2.0324669708,
				"y": 1.437859757,
				"z": -2.3707552643,
				"element": "N" 
			},
			{
				"x": -1.3194191256,
				"y": 2.3857560691,
				"z": -2.7023084532,
				"element": "O" 
			},
			{
				"x": -3.2190648783,
				"y": 1.3158016971,
				"z": -2.6766869742,
				"element": "O" 
			},
			{
				"x": 1.1988077313,
				"y": -3.1822550822,
				"z": 0.3234802451,
				"element": "H" 
			},
			{
				"x": -0.380036094,
				"y": -3.4912949972,
				"z": 1.0614340246,
				"element": "H" 
			},
			{
				"x": 0.733556901,
				"y": -2.3208457476,
				"z": 1.7845142803,
				"element": "H" 
			},
			{
				"x": -2.1970347435,
				"y": -2.5503673565,
				"z": -0.0721827635,
				"element": "H" 
			},
			{
				"x": -3.2440517772,
				"y": -0.7581830693,
				"z": -1.4621427867,
				"element": "H" 
			},
			{
				"x": 0.4773272445,
				"y": 1.3535068642,
				"z": -1.5216387924,
				"element": "H" 
			},
			{
				"x": 2.405726209,
				"y": 0.5320690634,
				"z": -0.4228687161,
				"element": "H" 
			},
			{
				"x": 2.0895253613,
				"y": -0.3691387043,
				"z": 1.0661617431,
				"element": "H" 
			},
			{
				"x": 2.5551437739,
				"y": -1.2303979526,
				"z": -0.3963679611,
				"element": "H" 
			}
		],
		 "valence_orbital": [ 
			{
				"type": "occ",
				"energy": -0.30332,
				"method": "rhf"
			},
			{
				"type": "occ",
				"energy": -0.30069,
				"method": "rhf"
			},
			{
				"type": "occ",
				"energy": -0.28418,
				"method": "rhf"
			},
			{
				"type": "occ",
				"energy": -0.26962,
				"method": "rhf"
			},
			{
				"type": "occ",
				"energy": -0.26168,
				"method": "rhf"
			},
			{
				"type": "unocc",
				"energy": -0.08242,
				"method": "rhf"
			},
			{
				"type": "unocc",
				"energy": -0.01932,
				"method": "rhf"
			},
			{
				"type": "unocc",
				"energy": 0.00646,
				"method": "rhf"
			},
			{
				"type": "unocc",
				"energy": 0.0777,
				"method": "rhf"
			},
			{
				"type": "unocc",
				"energy": 0.09096,
				"method": "rhf"
			}
		],
		"cosmo_sigma_profile": { 
			"-0.025": 0.0,
			"-0.024": 0.0,
			"-0.023": 0.0,
			"-0.022": 0.0,
			"-0.021": 0.0,
			"-0.02": 0.0,
			"-0.019": 0.0,
			"-0.018": 0.0,
			"-0.017": 0.0,
			"-0.016": 0.0,
			"-0.015": 0.0,
			"-0.014": 0.0,
			"-0.013": 0.0,
			"-0.012": 0.0,
			"-0.011": 0.0,
			"-0.01": 0.0,
			"-0.009": 0.0,
			"-0.008": 0.0636616586738,
			"-0.007": 2.46196502887,
			"-0.006": 7.26663210957,
			"-0.005": 17.3377610744,
			"-0.004": 16.6428739911,
			"-0.003": 17.1364628022,
			"-0.002": 16.781102525,
			"-0.001": 22.6609401358,
			"0.0": 22.1060553334,
			"0.001": 11.6590053479,
			"0.002": 13.6348337794,
			"0.003": 9.48898064949,
			"0.004": 2.94588863364,
			"0.005": 3.19538977516,
			"0.006": 2.61611078497,
			"0.007": 5.98872577403,
			"0.008": 10.02521376,
			"0.009": 4.72350097675,
			"0.01": 3.71464219275,
			"0.011": 0.718871393909,
			"0.012": 0.0,
			"0.013": 0.0,
			"0.014": 0.0,
			"0.015": 0.0,
			"0.016": 0.0,
			"0.017": 0.0,
			"0.018": 0.0,
			"0.019": 0.0,
			"0.02": 0.0,
			"0.021": 0.0,
			"0.022": 0.0,
			"0.023": 0.0,
			"0.024": 0.0,
			"0.025": 0.0
		}
	}
}
