{
	 "smiles": "OC(=O)C1=CC(=C(F)C=C1)S(=O)(=O)N1CCOCC1", 
	 "Tm": 449.15, 
	 "num_atms": 31, 
	 "gaussian": { 
		 "optdone": 1, 
		 "sigma_profile": "yes", 
		 "theory": "DFT", 
		 "functional": "B3LYP", 
		 "basiset": "6-31G**", 
		 "properties": { 
			 "R2extent": 6419.8788, 
			 "electric_dipole_moment_norm": 3.2960701464, 
			 "electric_quadrupole_moment_norm": 22.6080519291, 
			 "total_energy": -1355.20075066, 
			 "HOMO_LUMO_gap": 0.1885, 
			 "cosmo_polarized_energy": -22.01, 
			 "cosmo_cavitation_energy": 35.93, 
			 "cosmo_dispersion_energy": -26.08, 
			 "cosmo_repulsion_energy": 1.94, 
			 "cosmo_total_nonelectrostatic_energy": 11.8, 
			 "SMD_solvation_energy": 6.31 
		},
		"coords": [
			{
				"x": 0.2295041598,
				"y": 5.5164046323,
				"z": -0.6443618045,
				"element": "O" 
			},
			{
				"x": -0.9936891504,
				"y": 5.0195200436,
				"z": -0.3342023701,
				"element": "C" 
			},
			{
				"x": -1.9806230609,
				"y": 5.7027924837,
				"z": -0.4732938846,
				"element": "O" 
			},
			{
				"x": -1.0518153089,
				"y": 3.6086207273,
				"z": 0.1754755088,
				"element": "C" 
			},
			{
				"x": -0.0191277712,
				"y": 2.6824403211,
				"z": -0.0136112052,
				"element": "C" 
			},
			{
				"x": -0.1426939969,
				"y": 1.3797142533,
				"z": 0.4673694088,
				"element": "C" 
			},
			{
				"x": -1.3104785264,
				"y": 1.0122566384,
				"z": 1.1380611923,
				"element": "C" 
			},
			{
				"x": -1.4421778285,
				"y": -0.2417927105,
				"z": 1.5982789418,
				"element": "F" 
			},
			{
				"x": -2.3547510121,
				"y": 1.9110811659,
				"z": 1.3239436843,
				"element": "C" 
			},
			{
				"x": -2.2226959778,
				"y": 3.2065885524,
				"z": 0.8347405549,
				"element": "C" 
			},
			{
				"x": 1.2203388917,
				"y": 0.2209892052,
				"z": 0.24375587,
				"element": "S" 
			},
			{
				"x": 1.6141597729,
				"y": -0.2572398606,
				"z": 1.569097588,
				"element": "O" 
			},
			{
				"x": 2.1667152765,
				"y": 0.9099334188,
				"z": -0.6399887003,
				"element": "O" 
			},
			{
				"x": 0.5576373768,
				"y": -1.0492506351,
				"z": -0.594110543,
				"element": "N" 
			},
			{
				"x": 0.3035542517,
				"y": -2.3473520098,
				"z": 0.0584885201,
				"element": "C" 
			},
			{
				"x": 0.8956297718,
				"y": -3.4627397565,
				"z": -0.7968362047,
				"element": "C" 
			},
			{
				"x": 0.3774202999,
				"y": -3.4829951142,
				"z": -2.1282568517,
				"element": "O" 
			},
			{
				"x": -0.1491584165,
				"y": -2.2458659805,
				"z": -2.5871944851,
				"element": "C" 
			},
			{
				"x": 0.6264300371,
				"y": -1.0371148782,
				"z": -2.0689714049,
				"element": "C" 
			},
			{
				"x": 0.9326426351,
				"y": 4.9280961352,
				"z": -0.3362005619,
				"element": "H" 
			},
			{
				"x": 0.8885130787,
				"y": 2.9220485874,
				"z": -0.5595067305,
				"element": "H" 
			},
			{
				"x": -3.2485051866,
				"y": 1.5827312472,
				"z": 1.8429685014,
				"element": "H" 
			},
			{
				"x": -3.0224770146,
				"y": 3.929571542,
				"z": 0.9508607532,
				"element": "H" 
			},
			{
				"x": 0.7701512516,
				"y": -2.3445889585,
				"z": 1.0445100347,
				"element": "H" 
			},
			{
				"x": -0.7747291999,
				"y": -2.4935481255,
				"z": 0.1932593067,
				"element": "H" 
			},
			{
				"x": 1.9896919114,
				"y": -3.3540772852,
				"z": -0.8268979608,
				"element": "H" 
			},
			{
				"x": 0.6652744231,
				"y": -4.4344103664,
				"z": -0.3460262869,
				"element": "H" 
			},
			{
				"x": -1.2094306037,
				"y": -2.1461807753,
				"z": -2.3063922448,
				"element": "H" 
			},
			{
				"x": -0.095491104,
				"y": -2.2681496148,
				"z": -3.6799168496,
				"element": "H" 
			},
			{
				"x": 0.1734317593,
				"y": -0.1191262644,
				"z": -2.4587843897,
				"element": "H" 
			},
			{
				"x": 1.6654492609,
				"y": -1.0732566183,
				"z": -2.4147573866,
				"element": "H" 
			}
		],
		 "valence_orbital": [ 
			{
				"type": "occ",
				"energy": -0.30056,
				"method": "rhf"
			},
			{
				"type": "occ",
				"energy": -0.29001,
				"method": "rhf"
			},
			{
				"type": "occ",
				"energy": -0.28339,
				"method": "rhf"
			},
			{
				"type": "occ",
				"energy": -0.26696,
				"method": "rhf"
			},
			{
				"type": "occ",
				"energy": -0.25796,
				"method": "rhf"
			},
			{
				"type": "unocc",
				"energy": -0.06946,
				"method": "rhf"
			},
			{
				"type": "unocc",
				"energy": -0.05769,
				"method": "rhf"
			},
			{
				"type": "unocc",
				"energy": 0.02438,
				"method": "rhf"
			},
			{
				"type": "unocc",
				"energy": 0.03022,
				"method": "rhf"
			},
			{
				"type": "unocc",
				"energy": 0.05971,
				"method": "rhf"
			}
		],
		"cosmo_sigma_profile": { 
			"-0.025": 0.0,
			"-0.024": 0.0,
			"-0.023": 0.0,
			"-0.022": 0.0,
			"-0.021": 0.0,
			"-0.02": 0.264874935212,
			"-0.019": 0.7197083718,
			"-0.018": 1.1113955505,
			"-0.017": 1.01658185671,
			"-0.016": 1.06569184573,
			"-0.015": 0.699484512996,
			"-0.014": 1.39042714173,
			"-0.013": 0.812284230998,
			"-0.012": 1.25448328989,
			"-0.011": 0.863479393508,
			"-0.01": 0.678432548187,
			"-0.009": 2.6745234019,
			"-0.008": 4.48171184054,
			"-0.007": 7.05136709644,
			"-0.006": 16.5320735459,
			"-0.005": 26.5710182342,
			"-0.004": 25.9161983901,
			"-0.003": 22.3681435393,
			"-0.002": 22.1231099368,
			"-0.001": 20.9580403231,
			"0.0": 18.3821288737,
			"0.001": 11.9076264587,
			"0.002": 9.40947201249,
			"0.003": 9.63715481654,
			"0.004": 7.41861201302,
			"0.005": 6.32795743677,
			"0.006": 6.89523450581,
			"0.007": 6.19283174571,
			"0.008": 8.09825081065,
			"0.009": 9.21734077777,
			"0.01": 13.9430542989,
			"0.011": 12.0861777969,
			"0.012": 5.31121504872,
			"0.013": 2.12114684035,
			"0.014": 0.185477188384,
			"0.015": 0.0,
			"0.016": 0.0,
			"0.017": 0.0,
			"0.018": 0.0,
			"0.019": 0.0,
			"0.02": 0.0,
			"0.021": 0.0,
			"0.022": 0.0,
			"0.023": 0.0,
			"0.024": 0.0,
			"0.0": 0.0
		}
	}
}
