{
	 "smiles": "CC1=NN=CN1C1=CC(N)=CC=C1", 
	 "Tm": 383.15, 
	 "num_atms": 23, 
	 "gaussian": { 
		 "optdone": 1, 
		 "sigma_profile": "yes", 
		 "theory": "DFT", 
		 "functional": "B3LYP", 
		 "basiset": "6-31G**", 
		 "properties": { 
			 "R2extent": 2648.598, 
			 "electric_dipole_moment_norm": 7.3744592934, 
			 "electric_quadrupole_moment_norm": 19.8393363478, 
			 "total_energy": -567.974247291, 
			 "HOMO_LUMO_gap": 0.19695, 
			 "cosmo_polarized_energy": -20.07, 
			 "cosmo_cavitation_energy": 27.31, 
			 "cosmo_dispersion_energy": -19.54, 
			 "cosmo_repulsion_energy": 1.55, 
			 "cosmo_total_nonelectrostatic_energy": 9.32, 
			 "SMD_solvation_energy": 3.28 
		},
		"coords": [
			{
				"x": 0.9465976475,
				"y": 1.3532822559,
				"z": 2.4668679653,
				"element": "C" 
			},
			{
				"x": -0.0858842966,
				"y": 1.9895291753,
				"z": 1.5975567946,
				"element": "C" 
			},
			{
				"x": -0.5562978837,
				"y": 3.2066958245,
				"z": 1.7523926643,
				"element": "N" 
			},
			{
				"x": -1.4610153973,
				"y": 3.4507111764,
				"z": 0.7355841316,
				"element": "N" 
			},
			{
				"x": -1.5001693512,
				"y": 2.377446647,
				"z": -0.008618166,
				"element": "C" 
			},
			{
				"x": -0.657637541,
				"y": 1.4055618709,
				"z": 0.4816892789,
				"element": "N" 
			},
			{
				"x": -0.4213271453,
				"y": 0.1182859249,
				"z": -0.0888039835,
				"element": "C" 
			},
			{
				"x": -0.6238336984,
				"y": -1.0243956667,
				"z": 0.6859569305,
				"element": "C" 
			},
			{
				"x": -0.3998106704,
				"y": -2.2982728806,
				"z": 0.1374095843,
				"element": "C" 
			},
			{
				"x": -0.5391443818,
				"y": -3.4394110697,
				"z": 0.9203782889,
				"element": "N" 
			},
			{
				"x": 0.0086008008,
				"y": -2.3923546368,
				"z": -1.2062081168,
				"element": "C" 
			},
			{
				"x": 0.1923119951,
				"y": -1.2429986939,
				"z": -1.9681963183,
				"element": "C" 
			},
			{
				"x": -0.0123057297,
				"y": 0.025236724,
				"z": -1.4222226974,
				"element": "C" 
			},
			{
				"x": 1.7745966216,
				"y": 0.9463491783,
				"z": 1.8775996052,
				"element": "H" 
			},
			{
				"x": 0.5380601345,
				"y": 0.5360065371,
				"z": 3.0705165419,
				"element": "H" 
			},
			{
				"x": 1.3326426068,
				"y": 2.1181505767,
				"z": 3.1423095067,
				"element": "H" 
			},
			{
				"x": -2.1147432036,
				"y": 2.2260905669,
				"z": -0.8844429025,
				"element": "H" 
			},
			{
				"x": -0.9716680434,
				"y": -0.9250734508,
				"z": 1.7095503495,
				"element": "H" 
			},
			{
				"x": -0.7054573086,
				"y": -4.2996053474,
				"z": 0.4176756316,
				"element": "H" 
			},
			{
				"x": -1.1297887862,
				"y": -3.3479000005,
				"z": 1.7347512494,
				"element": "H" 
			},
			{
				"x": 0.1831880085,
				"y": -3.3713910075,
				"z": -1.6444269979,
				"element": "H" 
			},
			{
				"x": 0.5086157092,
				"y": -1.3356847751,
				"z": -3.0029608116,
				"element": "H" 
			},
			{
				"x": 0.1551699132,
				"y": 0.9247410711,
				"z": -2.0039585286,
				"element": "H" 
			}
		],
		 "valence_orbital": [ 
			{
				"type": "occ",
				"energy": -0.29475,
				"method": "rhf"
			},
			{
				"type": "occ",
				"energy": -0.26037,
				"method": "rhf"
			},
			{
				"type": "occ",
				"energy": -0.24558,
				"method": "rhf"
			},
			{
				"type": "occ",
				"energy": -0.23884,
				"method": "rhf"
			},
			{
				"type": "occ",
				"energy": -0.22139,
				"method": "rhf"
			},
			{
				"type": "unocc",
				"energy": -0.02444,
				"method": "rhf"
			},
			{
				"type": "unocc",
				"energy": -0.00542,
				"method": "rhf"
			},
			{
				"type": "unocc",
				"energy": 0.03172,
				"method": "rhf"
			},
			{
				"type": "unocc",
				"energy": 0.05504,
				"method": "rhf"
			},
			{
				"type": "unocc",
				"energy": 0.06441,
				"method": "rhf"
			}
		],
		"cosmo_sigma_profile": { 
			"-0.025": 0.0,
			"-0.024": 0.0,
			"-0.023": 0.0,
			"-0.022": 0.0,
			"-0.021": 0.0,
			"-0.02": 0.0,
			"-0.019": 0.0,
			"-0.018": 0.0,
			"-0.017": 0.0,
			"-0.016": 0.0,
			"-0.015": 0.0,
			"-0.014": 0.0,
			"-0.013": 1.02267730663,
			"-0.012": 3.37612868603,
			"-0.011": 2.29353659593,
			"-0.01": 5.12467526321,
			"-0.009": 4.46476336457,
			"-0.008": 4.83834525693,
			"-0.007": 7.1580675353,
			"-0.006": 14.3162594878,
			"-0.005": 15.1621322945,
			"-0.004": 16.5028838274,
			"-0.003": 14.7955640389,
			"-0.002": 16.1203145621,
			"-0.001": 15.3600518667,
			"0.0": 11.4110660265,
			"0.001": 8.16504648466,
			"0.002": 8.9119938103,
			"0.003": 9.63755170296,
			"0.004": 10.5791426173,
			"0.005": 11.4717440793,
			"0.006": 4.17634966997,
			"0.007": 2.42756012003,
			"0.008": 2.92740923461,
			"0.009": 3.22086045332,
			"0.01": 2.33383886747,
			"0.011": 2.92053816274,
			"0.012": 3.63400592265,
			"0.013": 3.27922674189,
			"0.014": 4.03678340548,
			"0.015": 3.00100374535,
			"0.016": 2.70190969537,
			"0.017": 1.92891140966,
			"0.018": 0.308623329409,
			"0.019": 0.0,
			"0.02": 0.0,
			"0.021": 0.0,
			"0.022": 0.0,
			"0.023": 0.0,
			"0.024": 0.0,
			"0.025": 0.0
		}
	}
}
