{
	 "smiles": "CC1=CC(C)=C(C)C(O)=C1", 
	 "Tm": 366.95, 
	 "num_atms": 22, 
	 "gaussian": { 
		 "optdone": 1, 
		 "sigma_profile": "yes", 
		 "theory": "DFT", 
		 "functional": "B3LYP", 
		 "basiset": "6-31G**", 
		 "properties": { 
			 "R2extent": 1968.7529, 
			 "electric_dipole_moment_norm": 1.05758462073, 
			 "electric_quadrupole_moment_norm": 7.62268112805, 
			 "total_energy": -425.430675029, 
			 "HOMO_LUMO_gap": 0.2148, 
			 "cosmo_polarized_energy": -7.24, 
			 "cosmo_cavitation_energy": 24.41, 
			 "cosmo_dispersion_energy": -18.02, 
			 "cosmo_repulsion_energy": 1.46, 
			 "cosmo_total_nonelectrostatic_energy": 7.84, 
			 "SMD_solvation_energy": 4.63 
		},
		"coords": [
			{
				"x": 1.3565037843,
				"y": -0.7516274424,
				"z": -3.8345615101,
				"element": "C" 
			},
			{
				"x": 1.0118984166,
				"y": -0.1856895489,
				"z": -2.4766978755,
				"element": "C" 
			},
			{
				"x": 0.6855028805,
				"y": 1.1636898185,
				"z": -2.3168939399,
				"element": "C" 
			},
			{
				"x": 0.3362785794,
				"y": 1.6929033677,
				"z": -1.0681599086,
				"element": "C" 
			},
			{
				"x": -0.0076353883,
				"y": 3.1588811226,
				"z": -0.9445145263,
				"element": "C" 
			},
			{
				"x": 0.3088111659,
				"y": 0.8645656472,
				"z": 0.0692827851,
				"element": "C" 
			},
			{
				"x": -0.0594886707,
				"y": 1.4035485905,
				"z": 1.4309164088,
				"element": "C" 
			},
			{
				"x": 0.6413681617,
				"y": -0.4907770579,
				"z": -0.0966899432,
				"element": "C" 
			},
			{
				"x": 0.6168246291,
				"y": -1.2913230634,
				"z": 1.0186050455,
				"element": "O" 
			},
			{
				"x": 0.9882133156,
				"y": -1.0079082383,
				"z": -1.3473477723,
				"element": "C" 
			},
			{
				"x": 1.6762931847,
				"y": 0.0350432916,
				"z": -4.5239490576,
				"element": "H" 
			},
			{
				"x": 2.1612392651,
				"y": -1.4914614454,
				"z": -3.7700070688,
				"element": "H" 
			},
			{
				"x": 0.4923935161,
				"y": -1.2530872707,
				"z": -4.2885737875,
				"element": "H" 
			},
			{
				"x": 0.7032515204,
				"y": 1.8212998859,
				"z": -3.1827358116,
				"element": "H" 
			},
			{
				"x": -1.0256804446,
				"y": 3.3049399457,
				"z": -0.563321605,
				"element": "H" 
			},
			{
				"x": 0.0623138876,
				"y": 3.6629166263,
				"z": -1.9118823692,
				"element": "H" 
			},
			{
				"x": 0.6641886278,
				"y": 3.6751920075,
				"z": -0.2480257292,
				"element": "H" 
			},
			{
				"x": 0.6261447687,
				"y": 2.200082905,
				"z": 1.7453552197,
				"element": "H" 
			},
			{
				"x": -1.0673237592,
				"y": 1.8365968144,
				"z": 1.4307084944,
				"element": "H" 
			},
			{
				"x": -0.030763235,
				"y": 0.617488391,
				"z": 2.1854424117,
				"element": "H" 
			},
			{
				"x": 0.8628644964,
				"y": -2.1883050793,
				"z": 0.7600597107,
				"element": "H" 
			},
			{
				"x": 1.2431012982,
				"y": -2.0633692676,
				"z": -1.4382091712,
				"element": "H" 
			}
		],
		 "valence_orbital": [ 
			{
				"type": "occ",
				"energy": -0.33322,
				"method": "rhf"
			},
			{
				"type": "occ",
				"energy": -0.32232,
				"method": "rhf"
			},
			{
				"type": "occ",
				"energy": -0.30766,
				"method": "rhf"
			},
			{
				"type": "occ",
				"energy": -0.22479,
				"method": "rhf"
			},
			{
				"type": "occ",
				"energy": -0.20755,
				"method": "rhf"
			},
			{
				"type": "unocc",
				"energy": 0.00725,
				"method": "rhf"
			},
			{
				"type": "unocc",
				"energy": 0.02603,
				"method": "rhf"
			},
			{
				"type": "unocc",
				"energy": 0.07423,
				"method": "rhf"
			},
			{
				"type": "unocc",
				"energy": 0.10449,
				"method": "rhf"
			},
			{
				"type": "unocc",
				"energy": 0.10896,
				"method": "rhf"
			}
		],
		"cosmo_sigma_profile": { 
			"-0.025": 0.0,
			"-0.024": 0.0,
			"-0.023": 0.0,
			"-0.022": 0.0,
			"-0.021": 0.0,
			"-0.02": 0.0,
			"-0.019": 0.0,
			"-0.018": 0.0760755736897,
			"-0.017": 0.664453576468,
			"-0.016": 0.840593533782,
			"-0.015": 0.99922325813,
			"-0.014": 1.18349006482,
			"-0.013": 1.05644057907,
			"-0.012": 0.698353463782,
			"-0.011": 0.846954912132,
			"-0.01": 0.937209484347,
			"-0.009": 1.44442931883,
			"-0.008": 0.862515291758,
			"-0.007": 0.894107808484,
			"-0.006": 1.49668671021,
			"-0.005": 1.85041785096,
			"-0.004": 12.5396455979,
			"-0.003": 24.4325677334,
			"-0.002": 17.5826951949,
			"-0.001": 19.1196850364,
			"0.0": 25.8049872794,
			"0.001": 18.6158966142,
			"0.002": 9.08857131029,
			"0.003": 7.80617567382,
			"0.004": 9.75162637563,
			"0.005": 9.30748691657,
			"0.006": 8.82424027328,
			"0.007": 7.767947693,
			"0.008": 2.11862458358,
			"0.009": 1.7692882699,
			"0.01": 2.4235982326,
			"0.011": 0.605577248688,
			"0.012": 0.0,
			"0.013": 0.0,
			"0.014": 0.0,
			"0.015": 0.0,
			"0.016": 0.0,
			"0.017": 0.0,
			"0.018": 0.0,
			"0.019": 0.0,
			"0.02": 0.0,
			"0.021": 0.0,
			"0.022": 0.0,
			"0.023": 0.0,
			"0.024": 0.0,
			"0.025": 0.0
		}
	}
}
