{
	 "smiles": "CC12CCC3C(CCC4CC(CCC34C)OC=O)C1CC=C2C#CC1=CC=CC=C1", 
	 "Tm": 453.15, 
	 "num_atms": 64, 
	 "gaussian": { 
		 "optdone": 1, 
		 "sigma_profile": "yes", 
		 "theory": "DFT", 
		 "functional": "B3LYP", 
		 "basiset": "6-31G**", 
		 "properties": { 
			 "R2extent": 20697.027, 
			 "electric_dipole_moment_norm": 1.73310898099, 
			 "electric_quadrupole_moment_norm": 9.58495834211, 
			 "total_energy": -1237.86101583, 
			 "HOMO_LUMO_gap": 0.16187, 
			 "cosmo_polarized_energy": -10.84, 
			 "cosmo_cavitation_energy": 58.75, 
			 "cosmo_dispersion_energy": -40.24, 
			 "cosmo_repulsion_energy": 2.95, 
			 "cosmo_total_nonelectrostatic_energy": 21.46, 
			 "SMD_solvation_energy": 10.08 
		},
		"coords": [
			{
				"x": 2.052513505,
				"y": 0.876954307,
				"z": 0.8253941531,
				"element": "C" 
			},
			{
				"x": 0.9116871443,
				"y": 1.3665823548,
				"z": -0.1025698758,
				"element": "C" 
			},
			{
				"x": 0.9407359974,
				"y": 0.6192605886,
				"z": -1.4633912573,
				"element": "C" 
			},
			{
				"x": -0.0846929346,
				"y": -0.5545808189,
				"z": -1.5244242254,
				"element": "C" 
			},
			{
				"x": -0.3096374563,
				"y": -1.2090859321,
				"z": -0.1427052952,
				"element": "C" 
			},
			{
				"x": -0.9753896184,
				"y": -0.1942314513,
				"z": 0.8317934885,
				"element": "C" 
			},
			{
				"x": -0.8125419432,
				"y": -0.6969628368,
				"z": 2.2703410342,
				"element": "C" 
			},
			{
				"x": -1.5225592184,
				"y": -2.0520581935,
				"z": 2.4018418078,
				"element": "C" 
			},
			{
				"x": -1.0518475195,
				"y": -3.0987196747,
				"z": 1.3637340017,
				"element": "C" 
			},
			{
				"x": -1.8302440573,
				"y": -4.4364790342,
				"z": 1.5341816411,
				"element": "C" 
			},
			{
				"x": -3.0111176686,
				"y": -4.6054608732,
				"z": 0.5544161189,
				"element": "C" 
			},
			{
				"x": -3.5655088158,
				"y": -3.2791163004,
				"z": 0.0440265469,
				"element": "C" 
			},
			{
				"x": -2.4747287453,
				"y": -2.5149155652,
				"z": -0.7360744135,
				"element": "C" 
			},
			{
				"x": -1.0344400668,
				"y": -2.594040534,
				"z": -0.1229325506,
				"element": "C" 
			},
			{
				"x": -0.1937790302,
				"y": -3.6056270001,
				"z": -0.9397596608,
				"element": "C" 
			},
			{
				"x": -4.046737127,
				"y": -5.4845193796,
				"z": 1.1026217083,
				"element": "O" 
			},
			{
				"x": -4.7644678579,
				"y": -5.1034571939,
				"z": 2.1662974705,
				"element": "C" 
			},
			{
				"x": -4.6793212257,
				"y": -4.0666243428,
				"z": 2.7832733171,
				"element": "O" 
			},
			{
				"x": -0.5206070679,
				"y": 1.2382234065,
				"z": 0.4824772464,
				"element": "C" 
			},
			{
				"x": -0.6476107632,
				"y": 2.4149481069,
				"z": 1.4702059683,
				"element": "C" 
			},
			{
				"x": 0.1988335969,
				"y": 3.4577585401,
				"z": 0.77341951,
				"element": "C" 
			},
			{
				"x": 1.0297412056,
				"y": 2.904561869,
				"z": -0.1382777869,
				"element": "C" 
			},
			{
				"x": 1.9727248076,
				"y": 3.5802883977,
				"z": -0.9478213552,
				"element": "C" 
			},
			{
				"x": 2.7939446644,
				"y": 4.1083263403,
				"z": -1.6767341204,
				"element": "C" 
			},
			{
				"x": 3.7477469944,
				"y": 4.7536498921,
				"z": -2.5148809843,
				"element": "C" 
			},
			{
				"x": 4.5558380555,
				"y": 4.0036580486,
				"z": -3.3941807998,
				"element": "C" 
			},
			{
				"x": 5.4871460047,
				"y": 4.6390054415,
				"z": -4.2109154238,
				"element": "C" 
			},
			{
				"x": 5.6309984044,
				"y": 6.0282749213,
				"z": -4.1690369702,
				"element": "C" 
			},
			{
				"x": 4.8351846773,
				"y": 6.7816246505,
				"z": -3.3019437422,
				"element": "C" 
			},
			{
				"x": 3.901784829,
				"y": 6.1551662374,
				"z": -2.4808498822,
				"element": "C" 
			},
			{
				"x": 2.090127498,
				"y": -0.2110157177,
				"z": 0.9145849954,
				"element": "H" 
			},
			{
				"x": 3.0144045083,
				"y": 1.2053584997,
				"z": 0.4162469132,
				"element": "H" 
			},
			{
				"x": 1.9633569595,
				"y": 1.2987629502,
				"z": 1.8312549617,
				"element": "H" 
			},
			{
				"x": 0.730294577,
				"y": 1.3194024245,
				"z": -2.2795513271,
				"element": "H" 
			},
			{
				"x": 1.949650372,
				"y": 0.2316074786,
				"z": -1.6468352908,
				"element": "H" 
			},
			{
				"x": 0.2730329368,
				"y": -1.2877246803,
				"z": -2.2530382701,
				"element": "H" 
			},
			{
				"x": -1.0432196187,
				"y": -0.1882210326,
				"z": -1.913569863,
				"element": "H" 
			},
			{
				"x": 0.6890730619,
				"y": -1.4268774901,
				"z": 0.2591019342,
				"element": "H" 
			},
			{
				"x": -2.0585127674,
				"y": -0.2086971614,
				"z": 0.6376339108,
				"element": "H" 
			},
			{
				"x": -1.2438092041,
				"y": 0.012375442,
				"z": 2.9869990353,
				"element": "H" 
			},
			{
				"x": 0.2505572474,
				"y": -0.7977519463,
				"z": 2.5271239077,
				"element": "H" 
			},
			{
				"x": -1.3575491498,
				"y": -2.4698274629,
				"z": 3.4029408117,
				"element": "H" 
			},
			{
				"x": -2.6044090731,
				"y": -1.8967465164,
				"z": 2.323946294,
				"element": "H" 
			},
			{
				"x": -0.0014571118,
				"y": -3.3092532721,
				"z": 1.6113647023,
				"element": "H" 
			},
			{
				"x": -1.1557402587,
				"y": -5.2904217666,
				"z": 1.4149224024,
				"element": "H" 
			},
			{
				"x": -2.2124242645,
				"y": -4.4812965735,
				"z": 2.5562497828,
				"element": "H" 
			},
			{
				"x": -2.6848561508,
				"y": -5.1886372324,
				"z": -0.311734398,
				"element": "H" 
			},
			{
				"x": -3.9340975864,
				"y": -2.68954847,
				"z": 0.8844098722,
				"element": "H" 
			},
			{
				"x": -4.4227684887,
				"y": -3.4727198272,
				"z": -0.6106893139,
				"element": "H" 
			},
			{
				"x": -2.4361613102,
				"y": -2.9025226689,
				"z": -1.7611633077,
				"element": "H" 
			},
			{
				"x": -2.7971903165,
				"y": -1.4734174461,
				"z": -0.8299301954,
				"element": "H" 
			},
			{
				"x": -0.1663514357,
				"y": -3.3442256256,
				"z": -2.0013822996,
				"element": "H" 
			},
			{
				"x": -0.5983342936,
				"y": -4.6200841583,
				"z": -0.8741912717,
				"element": "H" 
			},
			{
				"x": 0.8399808972,
				"y": -3.6414599219,
				"z": -0.5766383331,
				"element": "H" 
			},
			{
				"x": -5.475655934,
				"y": -5.9104831943,
				"z": 2.4101655056,
				"element": "H" 
			},
			{
				"x": -1.1578071129,
				"y": 1.5412563903,
				"z": -0.3599159498,
				"element": "H" 
			},
			{
				"x": -1.6849458694,
				"y": 2.7356830675,
				"z": 1.6242283836,
				"element": "H" 
			},
			{
				"x": -0.2416425504,
				"y": 2.1821237838,
				"z": 2.4663174696,
				"element": "H" 
			},
			{
				"x": 0.1532975596,
				"y": 4.5183604912,
				"z": 0.999164935,
				"element": "H" 
			},
			{
				"x": 4.441212972,
				"y": 2.9248675531,
				"z": -3.4249326987,
				"element": "H" 
			},
			{
				"x": 6.1030667445,
				"y": 4.0484616667,
				"z": -4.883180078,
				"element": "H" 
			},
			{
				"x": 6.3583975044,
				"y": 6.5205919406,
				"z": -4.8078408791,
				"element": "H" 
			},
			{
				"x": 4.9429066221,
				"y": 7.8619371783,
				"z": -3.265308532,
				"element": "H" 
			},
			{
				"x": 3.2826242661,
				"y": 6.7372393263,
				"z": -1.8058794785,
				"element": "H" 
			}
		],
		 "valence_orbital": [ 
			{
				"type": "occ",
				"energy": -0.26845,
				"method": "rhf"
			},
			{
				"type": "occ",
				"energy": -0.26265,
				"method": "rhf"
			},
			{
				"type": "occ",
				"energy": -0.25369,
				"method": "rhf"
			},
			{
				"type": "occ",
				"energy": -0.25332,
				"method": "rhf"
			},
			{
				"type": "occ",
				"energy": -0.20367,
				"method": "rhf"
			},
			{
				"type": "unocc",
				"energy": -0.0418,
				"method": "rhf"
			},
			{
				"type": "unocc",
				"energy": -0.00196,
				"method": "rhf"
			},
			{
				"type": "unocc",
				"energy": 0.00796,
				"method": "rhf"
			},
			{
				"type": "unocc",
				"energy": 0.02425,
				"method": "rhf"
			},
			{
				"type": "unocc",
				"energy": 0.05062,
				"method": "rhf"
			}
		],
		"cosmo_sigma_profile": { 
			"-0.025": 0.0,
			"-0.024": 0.0,
			"-0.023": 0.0,
			"-0.022": 0.0,
			"-0.021": 0.0,
			"-0.02": 0.0,
			"-0.019": 0.0,
			"-0.018": 0.0,
			"-0.017": 0.0,
			"-0.016": 0.0,
			"-0.015": 0.0,
			"-0.014": 0.0,
			"-0.013": 0.0,
			"-0.012": 0.0,
			"-0.011": 0.0,
			"-0.01": 0.0,
			"-0.009": 0.893016233362,
			"-0.008": 2.62939437617,
			"-0.007": 2.22581787948,
			"-0.006": 10.9086455234,
			"-0.005": 17.1266639245,
			"-0.004": 21.3351751288,
			"-0.003": 37.8717126614,
			"-0.002": 69.499478375,
			"-0.001": 66.8517552523,
			"0.0": 60.944519638,
			"0.001": 44.9569573658,
			"0.002": 25.7449087348,
			"0.003": 22.35114278,
			"0.004": 25.143693896,
			"0.005": 22.6371544864,
			"0.006": 10.095487185,
			"0.007": 4.0647774394,
			"0.008": 3.12556735161,
			"0.009": 2.61777178535,
			"0.01": 1.98051294022,
			"0.011": 2.3041543294,
			"0.012": 2.63134479131,
			"0.013": 0.869103640229,
			"0.014": 0.0,
			"0.015": 0.0,
			"0.016": 0.0,
			"0.017": 0.0,
			"0.018": 0.0,
			"0.019": 0.0,
			"0.02": 0.0,
			"0.021": 0.0,
			"0.022": 0.0,
			"0.023": 0.0,
			"0.024": 0.0,
			"0.025": 0.0
		}
	}
}
