{
	 "smiles": "OC(=O)C1=C(OCC2=C(Cl)C=CC=C2)C=CC=C1", 
	 "Tm": 393.15, 
	 "num_atms": 29, 
	 "gaussian": { 
		 "optdone": 1, 
		 "sigma_profile": "yes", 
		 "theory": "DFT", 
		 "functional": "B3LYP", 
		 "basiset": "6-31G**", 
		 "properties": { 
			 "R2extent": 5912.2149, 
			 "electric_dipole_moment_norm": 7.06451783847, 
			 "electric_quadrupole_moment_norm": 17.833137789, 
			 "total_energy": -1225.98955611, 
			 "HOMO_LUMO_gap": 0.19985, 
			 "cosmo_polarized_energy": -16.3, 
			 "cosmo_cavitation_energy": 35.5, 
			 "cosmo_dispersion_energy": -24.92, 
			 "cosmo_repulsion_energy": 1.9, 
			 "cosmo_total_nonelectrostatic_energy": 12.48, 
			 "SMD_solvation_energy": 6.92 
		},
		"coords": [
			{
				"x": -0.4243929709,
				"y": -1.00973394,
				"z": -1.6098771187,
				"element": "O" 
			},
			{
				"x": 0.0912633379,
				"y": -2.0156019626,
				"z": -0.8806202439,
				"element": "C" 
			},
			{
				"x": 0.0578298951,
				"y": -3.1545514449,
				"z": -1.2957650689,
				"element": "O" 
			},
			{
				"x": 0.707341515,
				"y": -1.682866743,
				"z": 0.4580932253,
				"element": "C" 
			},
			{
				"x": 0.8159120075,
				"y": -0.3906416912,
				"z": 1.0214263223,
				"element": "C" 
			},
			{
				"x": 0.3184461299,
				"y": 0.6561841466,
				"z": 0.2808853712,
				"element": "O" 
			},
			{
				"x": 0.368520141,
				"y": 1.9945853173,
				"z": 0.8083761915,
				"element": "C" 
			},
			{
				"x": -0.2952067357,
				"y": 2.9126475415,
				"z": -0.181063949,
				"element": "C" 
			},
			{
				"x": -1.6899760842,
				"y": 3.0531731735,
				"z": -0.2570570014,
				"element": "C" 
			},
			{
				"x": -2.7345612195,
				"y": 2.152590566,
				"z": 0.8348217933,
				"element": "Cl" 
			},
			{
				"x": -2.2873913554,
				"y": 3.9026654298,
				"z": -1.1872001454,
				"element": "C" 
			},
			{
				"x": -1.485550097,
				"y": 4.6291051063,
				"z": -2.067443038,
				"element": "C" 
			},
			{
				"x": -0.0968977775,
				"y": 4.5061902221,
				"z": -2.0158309805,
				"element": "C" 
			},
			{
				"x": 0.4842844823,
				"y": 3.6533357507,
				"z": -1.079525623,
				"element": "C" 
			},
			{
				"x": 1.4137706041,
				"y": -0.2111366814,
				"z": 2.2729288713,
				"element": "C" 
			},
			{
				"x": 1.9045405119,
				"y": -1.3140853899,
				"z": 2.9733348063,
				"element": "C" 
			},
			{
				"x": 1.806186707,
				"y": -2.5962305281,
				"z": 2.4352208138,
				"element": "C" 
			},
			{
				"x": 1.2119739047,
				"y": -2.765952093,
				"z": 1.1882335342,
				"element": "C" 
			},
			{
				"x": -0.3184318097,
				"y": -0.1656585048,
				"z": -1.1328272598,
				"element": "H" 
			},
			{
				"x": -0.1423500838,
				"y": 2.0188210651,
				"z": 1.7762087762,
				"element": "H" 
			},
			{
				"x": 1.415344548,
				"y": 2.2859239296,
				"z": 0.9512663743,
				"element": "H" 
			},
			{
				"x": -3.3677461726,
				"y": 3.988324486,
				"z": -1.2177221327,
				"element": "H" 
			},
			{
				"x": -1.9515244339,
				"y": 5.2897159891,
				"z": -2.7921995384,
				"element": "H" 
			},
			{
				"x": 0.5295601167,
				"y": 5.0690004178,
				"z": -2.7003871182,
				"element": "H" 
			},
			{
				"x": 1.5653991573,
				"y": 3.5521263678,
				"z": -1.0368365144,
				"element": "H" 
			},
			{
				"x": 1.5013889996,
				"y": 0.7768363214,
				"z": 2.7075018955,
				"element": "H" 
			},
			{
				"x": 2.3654468761,
				"y": -1.1600736556,
				"z": 3.9447834405,
				"element": "H" 
			},
			{
				"x": 2.1881084412,
				"y": -3.4532860725,
				"z": 2.9803442318,
				"element": "H" 
			},
			{
				"x": 1.1174113648,
				"y": -3.7464071235,
				"z": 0.734430085,
				"element": "H" 
			}
		],
		 "valence_orbital": [ 
			{
				"type": "occ",
				"energy": -0.28,
				"method": "rhf"
			},
			{
				"type": "occ",
				"energy": -0.26327,
				"method": "rhf"
			},
			{
				"type": "occ",
				"energy": -0.26188,
				"method": "rhf"
			},
			{
				"type": "occ",
				"energy": -0.25678,
				"method": "rhf"
			},
			{
				"type": "occ",
				"energy": -0.24153,
				"method": "rhf"
			},
			{
				"type": "unocc",
				"energy": -0.04168,
				"method": "rhf"
			},
			{
				"type": "unocc",
				"energy": -0.03939,
				"method": "rhf"
			},
			{
				"type": "unocc",
				"energy": -0.02957,
				"method": "rhf"
			},
			{
				"type": "unocc",
				"energy": -0.00376,
				"method": "rhf"
			},
			{
				"type": "unocc",
				"energy": 0.01633,
				"method": "rhf"
			}
		],
		"cosmo_sigma_profile": { 
			"-0.025": 0.0,
			"-0.024": 0.0,
			"-0.023": 0.0,
			"-0.022": 0.0,
			"-0.021": 0.0,
			"-0.02": 0.0,
			"-0.019": 0.0,
			"-0.018": 0.0,
			"-0.017": 0.0,
			"-0.016": 0.0,
			"-0.015": 0.0,
			"-0.014": 0.0,
			"-0.013": 0.0,
			"-0.012": 0.0,
			"-0.011": 0.0,
			"-0.01": 0.0,
			"-0.009": 0.146208719958,
			"-0.008": 5.18509443419,
			"-0.007": 15.3941819783,
			"-0.006": 20.4368510102,
			"-0.005": 21.9681363445,
			"-0.004": 19.8781517764,
			"-0.003": 17.1451386427,
			"-0.002": 16.0988723472,
			"-0.001": 17.4527099049,
			"0.0": 21.1915999243,
			"0.001": 22.9475108403,
			"0.002": 26.765796419,
			"0.003": 29.5876816075,
			"0.004": 20.3395600242,
			"0.005": 4.2575393936,
			"0.006": 2.2613427491,
			"0.007": 2.01854252873,
			"0.008": 2.80492999278,
			"0.009": 2.74714452312,
			"0.01": 3.37035860904,
			"0.011": 5.1171077582,
			"0.012": 6.0810878552,
			"0.013": 3.20213787915,
			"0.014": 0.897680762476,
			"0.015": 0.0,
			"0.016": 0.0,
			"0.017": 0.0,
			"0.018": 0.0,
			"0.019": 0.0,
			"0.02": 0.0,
			"0.021": 0.0,
			"0.022": 0.0,
			"0.023": 0.0,
			"0.024": 0.0,
			"0.0": 0.0
		}
	}
}
