{
	 "smiles": "NS(=O)(=O)CC=C", 
	 "Tm": 305.15, 
	 "num_atms": 14, 
	 "gaussian": { 
		 "optdone": 1, 
		 "sigma_profile": "yes", 
		 "theory": "DFT", 
		 "functional": "B3LYP", 
		 "basiset": "6-31G**", 
		 "properties": { 
			 "R2extent": 2170.6386, 
			 "electric_dipole_moment_norm": 3.57613947715, 
			 "electric_quadrupole_moment_norm": 17.9876006249, 
			 "total_energy": -721.835706102, 
			 "HOMO_LUMO_gap": 0.25966, 
			 "cosmo_polarized_energy": -14.43, 
			 "cosmo_cavitation_energy": 19.41, 
			 "cosmo_dispersion_energy": -14.58, 
			 "cosmo_repulsion_energy": 1.2, 
			 "cosmo_total_nonelectrostatic_energy": 6.03, 
			 "SMD_solvation_energy": 3.68 
		},
		"coords": [
			{
				"x": 3.1650857625,
				"y": 0.3299583166,
				"z": -1.3853174408,
				"element": "N" 
			},
			{
				"x": 1.9055092791,
				"y": -0.4173290974,
				"z": -2.2390040218,
				"element": "S" 
			},
			{
				"x": 2.3391748886,
				"y": -1.7532980909,
				"z": -2.6630188739,
				"element": "O" 
			},
			{
				"x": 1.4090608958,
				"y": 0.5731182897,
				"z": -3.1988608954,
				"element": "O" 
			},
			{
				"x": 0.6351892661,
				"y": -0.6294757032,
				"z": -0.9495939022,
				"element": "C" 
			},
			{
				"x": 1.0387335847,
				"y": -1.6143373023,
				"z": 0.1031478464,
				"element": "C" 
			},
			{
				"x": 1.270390211,
				"y": -1.2853568173,
				"z": 1.3742353106,
				"element": "C" 
			},
			{
				"x": 3.9268149057,
				"y": -0.3269216605,
				"z": -1.2389387558,
				"element": "H" 
			},
			{
				"x": 3.4735048607,
				"y": 1.1391406483,
				"z": -1.9181470849,
				"element": "H" 
			},
			{
				"x": 0.4426581818,
				"y": 0.3681161128,
				"z": -0.5493116864,
				"element": "H" 
			},
			{
				"x": -0.241561638,
				"y": -0.9631387945,
				"z": -1.5156778144,
				"element": "H" 
			},
			{
				"x": 1.1462522887,
				"y": -2.6445769031,
				"z": -0.227788,
				"element": "H" 
			},
			{
				"x": 1.1785040111,
				"y": -0.2612194193,
				"z": 1.7268057537,
				"element": "H" 
			},
			{
				"x": 1.5540835023,
				"y": -2.0325795789,
				"z": 2.1089695649,
				"element": "H" 
			}
		],
		 "valence_orbital": [ 
			{
				"type": "occ",
				"energy": -0.32452,
				"method": "rhf"
			},
			{
				"type": "occ",
				"energy": -0.31802,
				"method": "rhf"
			},
			{
				"type": "occ",
				"energy": -0.30273,
				"method": "rhf"
			},
			{
				"type": "occ",
				"energy": -0.296,
				"method": "rhf"
			},
			{
				"type": "occ",
				"energy": -0.27158,
				"method": "rhf"
			},
			{
				"type": "unocc",
				"energy": -0.01192,
				"method": "rhf"
			},
			{
				"type": "unocc",
				"energy": 0.0545,
				"method": "rhf"
			},
			{
				"type": "unocc",
				"energy": 0.08212,
				"method": "rhf"
			},
			{
				"type": "unocc",
				"energy": 0.08826,
				"method": "rhf"
			},
			{
				"type": "unocc",
				"energy": 0.10308,
				"method": "rhf"
			}
		],
		"cosmo_sigma_profile": { 
			"-0.025": 0.0,
			"-0.024": 0.0,
			"-0.023": 0.0,
			"-0.022": 0.0,
			"-0.021": 0.0,
			"-0.02": 0.0,
			"-0.019": 0.0,
			"-0.018": 0.0,
			"-0.017": 0.0,
			"-0.016": 0.0,
			"-0.015": 0.835243398593,
			"-0.014": 2.22421891055,
			"-0.013": 2.89083218997,
			"-0.012": 2.78720119722,
			"-0.011": 1.51242167555,
			"-0.01": 1.68018534605,
			"-0.009": 3.74476199823,
			"-0.008": 5.29477881159,
			"-0.007": 5.0117094316,
			"-0.006": 9.44046826368,
			"-0.005": 10.5196958577,
			"-0.004": 9.14004324883,
			"-0.003": 9.35969396372,
			"-0.002": 8.70476543546,
			"-0.001": 7.65845873906,
			"0.0": 5.53458555726,
			"0.001": 6.1269500534,
			"0.002": 5.30771059132,
			"0.003": 5.71086583242,
			"0.004": 6.64379007832,
			"0.005": 4.65851838704,
			"0.006": 3.54485328281,
			"0.007": 2.90924061938,
			"0.008": 4.09813027745,
			"0.009": 3.12753129593,
			"0.01": 6.05165517676,
			"0.011": 12.1372954695,
			"0.012": 6.46156972837,
			"0.013": 0.0439944802492,
			"0.014": 0.0,
			"0.015": 0.0,
			"0.016": 0.0,
			"0.017": 0.0,
			"0.018": 0.0,
			"0.019": 0.0,
			"0.02": 0.0,
			"0.021": 0.0,
			"0.022": 0.0,
			"0.023": 0.0,
			"0.024": 0.0,
			"0.025": 0.0
		}
	}
}
