{
	 "smiles": "CC12CCC3C(CCC4=C3CCC(=O)C4)C1CCC2(O)C#C", 
	 "Tm": 443.15, 
	 "num_atms": 48, 
	 "gaussian": { 
		 "optdone": 1, 
		 "sigma_profile": "yes", 
		 "theory": "DFT", 
		 "functional": "B3LYP", 
		 "basiset": "6-31G**", 
		 "properties": { 
			 "R2extent": 7697.7759, 
			 "electric_dipole_moment_norm": 2.65369302106, 
			 "electric_quadrupole_moment_norm": 28.3683318553, 
			 "total_energy": -928.167104628, 
			 "HOMO_LUMO_gap": 0.21663, 
			 "cosmo_polarized_energy": -13.08, 
			 "cosmo_cavitation_energy": 43.82, 
			 "cosmo_dispersion_energy": -30.16, 
			 "cosmo_repulsion_energy": 2.25, 
			 "cosmo_total_nonelectrostatic_energy": 15.91, 
			 "SMD_solvation_energy": 7.36 
		},
		"coords": [
			{
				"x": -3.0429010856,
				"y": 0.6861207431,
				"z": 1.499582437,
				"element": "C" 
			},
			{
				"x": -1.6953190276,
				"y": 0.0503456343,
				"z": 1.0970129035,
				"element": "C" 
			},
			{
				"x": -0.5953337912,
				"y": 1.1118513121,
				"z": 1.3534054224,
				"element": "C" 
			},
			{
				"x": 0.7690361968,
				"y": 0.9561584805,
				"z": 0.6330295668,
				"element": "C" 
			},
			{
				"x": 0.7026843204,
				"y": 0.1524781858,
				"z": -0.6956515494,
				"element": "C" 
			},
			{
				"x": -0.7057154413,
				"y": 0.2862994864,
				"z": -1.304933935,
				"element": "C" 
			},
			{
				"x": -0.7357400519,
				"y": -0.1979034905,
				"z": -2.7567998964,
				"element": "C" 
			},
			{
				"x": 0.2321166109,
				"y": 0.6264975919,
				"z": -3.6085310463,
				"element": "C" 
			},
			{
				"x": 1.6036950463,
				"y": 0.7435211192,
				"z": -2.9761173281,
				"element": "C" 
			},
			{
				"x": 1.8211499879,
				"y": 0.5222635128,
				"z": -1.6658330796,
				"element": "C" 
			},
			{
				"x": 3.2289153384,
				"y": 0.5549401827,
				"z": -1.0934509736,
				"element": "C" 
			},
			{
				"x": 4.1868242627,
				"y": 1.4568042695,
				"z": -1.8919661731,
				"element": "C" 
			},
			{
				"x": 4.1186567862,
				"y": 1.1447511209,
				"z": -3.3706845818,
				"element": "C" 
			},
			{
				"x": 5.1045454257,
				"y": 0.9630637058,
				"z": -4.0597992855,
				"element": "O" 
			},
			{
				"x": 2.713273883,
				"y": 1.0852725245,
				"z": -3.950938567,
				"element": "C" 
			},
			{
				"x": -1.7634411268,
				"y": -0.3983494776,
				"z": -0.4139188969,
				"element": "C" 
			},
			{
				"x": -1.7268375838,
				"y": -1.9510642418,
				"z": -0.4103819439,
				"element": "C" 
			},
			{
				"x": -2.1946520697,
				"y": -2.3507810952,
				"z": 0.9905757276,
				"element": "C" 
			},
			{
				"x": -1.5305049016,
				"y": -1.3076066026,
				"z": 1.9123499094,
				"element": "C" 
			},
			{
				"x": -2.2279039593,
				"y": -1.3083692744,
				"z": 3.1612727705,
				"element": "O" 
			},
			{
				"x": -0.1280899431,
				"y": -1.6865171052,
				"z": 2.1692073892,
				"element": "C" 
			},
			{
				"x": 0.9911719423,
				"y": -2.0475730629,
				"z": 2.4508499804,
				"element": "C" 
			},
			{
				"x": -3.8724293648,
				"y": -0.0215268612,
				"z": 1.4207465019,
				"element": "H" 
			},
			{
				"x": -3.026122347,
				"y": 1.0558062227,
				"z": 2.5286196363,
				"element": "H" 
			},
			{
				"x": -3.2559074367,
				"y": 1.5319146024,
				"z": 0.83659909,
				"element": "H" 
			},
			{
				"x": -1.0244742672,
				"y": 2.0760015822,
				"z": 1.0570893327,
				"element": "H" 
			},
			{
				"x": -0.4257523627,
				"y": 1.1964108189,
				"z": 2.4349889447,
				"element": "H" 
			},
			{
				"x": 1.1471272061,
				"y": 1.9647525758,
				"z": 0.4229578941,
				"element": "H" 
			},
			{
				"x": 1.4887689281,
				"y": 0.4858810619,
				"z": 1.3056023969,
				"element": "H" 
			},
			{
				"x": 0.8552268047,
				"y": -0.9049015639,
				"z": -0.430774359,
				"element": "H" 
			},
			{
				"x": -0.9482974336,
				"y": 1.3609091268,
				"z": -1.327219999,
				"element": "H" 
			},
			{
				"x": -0.4454300891,
				"y": -1.2553124678,
				"z": -2.8029146954,
				"element": "H" 
			},
			{
				"x": -1.7534396162,
				"y": -0.1305146441,
				"z": -3.1618286065,
				"element": "H" 
			},
			{
				"x": 0.3335283426,
				"y": 0.1769635009,
				"z": -4.6054600258,
				"element": "H" 
			},
			{
				"x": -0.1811532761,
				"y": 1.6326152789,
				"z": -3.7837654458,
				"element": "H" 
			},
			{
				"x": 3.6296637995,
				"y": -0.469850315,
				"z": -1.062471505,
				"element": "H" 
			},
			{
				"x": 3.2148334944,
				"y": 0.8939288347,
				"z": -0.0538469142,
				"element": "H" 
			},
			{
				"x": 5.2224748558,
				"y": 1.3656078216,
				"z": -1.5544506394,
				"element": "H" 
			},
			{
				"x": 3.874774011,
				"y": 2.502933415,
				"z": -1.7599235196,
				"element": "H" 
			},
			{
				"x": 2.5106676656,
				"y": 2.0671453367,
				"z": -4.4114908064,
				"element": "H" 
			},
			{
				"x": 2.7318209491,
				"y": 0.3790024368,
				"z": -4.7910216917,
				"element": "H" 
			},
			{
				"x": -2.7442985541,
				"y": -0.0962659432,
				"z": -0.8028210459,
				"element": "H" 
			},
			{
				"x": -2.3503642386,
				"y": -2.381379211,
				"z": -1.1994290619,
				"element": "H" 
			},
			{
				"x": -0.708768456,
				"y": -2.3226841001,
				"z": -0.5720095996,
				"element": "H" 
			},
			{
				"x": -1.9343233981,
				"y": -3.3729434939,
				"z": 1.2756002176,
				"element": "H" 
			},
			{
				"x": -3.2792177809,
				"y": -2.2390132383,
				"z": 1.0964095243,
				"element": "H" 
			},
			{
				"x": -1.6895516708,
				"y": -0.8263589368,
				"z": 3.80339994,
				"element": "H" 
			},
			{
				"x": 1.9811134165,
				"y": -2.3646253591,
				"z": 2.6857355868,
				"element": "H" 
			}
		],
		 "valence_orbital": [ 
			{
				"type": "occ",
				"energy": -0.28448,
				"method": "rhf"
			},
			{
				"type": "occ",
				"energy": -0.27311,
				"method": "rhf"
			},
			{
				"type": "occ",
				"energy": -0.25849,
				"method": "rhf"
			},
			{
				"type": "occ",
				"energy": -0.23599,
				"method": "rhf"
			},
			{
				"type": "occ",
				"energy": -0.22602,
				"method": "rhf"
			},
			{
				"type": "unocc",
				"energy": -0.00939,
				"method": "rhf"
			},
			{
				"type": "unocc",
				"energy": 0.01928,
				"method": "rhf"
			},
			{
				"type": "unocc",
				"energy": 0.02653,
				"method": "rhf"
			},
			{
				"type": "unocc",
				"energy": 0.04249,
				"method": "rhf"
			},
			{
				"type": "unocc",
				"energy": 0.06965,
				"method": "rhf"
			}
		],
		"cosmo_sigma_profile": { 
			"-0.025": 0.0,
			"-0.024": 0.0,
			"-0.023": 0.0,
			"-0.022": 0.0,
			"-0.021": 0.0,
			"-0.02": 0.0,
			"-0.019": 0.0,
			"-0.018": 0.0,
			"-0.017": 0.0,
			"-0.016": 0.0,
			"-0.015": 0.593727863647,
			"-0.014": 1.00462349935,
			"-0.013": 0.262846977833,
			"-0.012": 0.877595477211,
			"-0.011": 1.90858696939,
			"-0.01": 1.6251110283,
			"-0.009": 2.46690880194,
			"-0.008": 2.50876354016,
			"-0.007": 2.50640182773,
			"-0.006": 4.46879476194,
			"-0.005": 9.35227193668,
			"-0.004": 14.6380294958,
			"-0.003": 30.8247608871,
			"-0.002": 53.7875614145,
			"-0.001": 58.4250677932,
			"0.0": 42.8980610588,
			"0.001": 29.8980044242,
			"0.002": 17.4510316887,
			"0.003": 9.78701496367,
			"0.004": 9.01214269475,
			"0.005": 8.4869855019,
			"0.006": 5.76886826237,
			"0.007": 4.29939151867,
			"0.008": 3.97308711216,
			"0.009": 2.49428157595,
			"0.01": 3.07003033795,
			"0.011": 4.33360612645,
			"0.012": 5.79503056484,
			"0.013": 5.11357164255,
			"0.014": 1.4142246042,
			"0.015": 0.0,
			"0.016": 0.0,
			"0.017": 0.0,
			"0.018": 0.0,
			"0.019": 0.0,
			"0.02": 0.0,
			"0.021": 0.0,
			"0.022": 0.0,
			"0.023": 0.0,
			"0.024": 0.0,
			"0.025": 0.0
		}
	}
}
