{
	 "smiles": "CCCCNCCO", 
	 "Tm": 271.15, 
	 "num_atms": 23, 
	 "gaussian": { 
		 "optdone": 1, 
		 "sigma_profile": "yes", 
		 "theory": "DFT", 
		 "functional": "B3LYP", 
		 "basiset": "6-31G**", 
		 "properties": { 
			 "R2extent": 2219.4865, 
			 "electric_dipole_moment_norm": 1.9466782297, 
			 "electric_quadrupole_moment_norm": 8.51880486101, 
			 "total_energy": -367.638931704, 
			 "HOMO_LUMO_gap": 0.28128, 
			 "cosmo_polarized_energy": -8.43, 
			 "cosmo_cavitation_energy": 24.22, 
			 "cosmo_dispersion_energy": -17.53, 
			 "cosmo_repulsion_energy": 1.5, 
			 "cosmo_total_nonelectrostatic_energy": 8.19, 
			 "SMD_solvation_energy": 1.88 
		},
		"coords": [
			{
				"x": -1.8236340517,
				"y": 0.7098669472,
				"z": -3.5037537274,
				"element": "C" 
			},
			{
				"x": -1.9351328242,
				"y": -0.5458036167,
				"z": -2.6276284422,
				"element": "C" 
			},
			{
				"x": -0.9917051194,
				"y": -0.5929811469,
				"z": -1.4088877834,
				"element": "C" 
			},
			{
				"x": -1.4775202731,
				"y": 0.1466147546,
				"z": -0.1425092313,
				"element": "C" 
			},
			{
				"x": -1.591189642,
				"y": 1.6065162559,
				"z": -0.1725136784,
				"element": "N" 
			},
			{
				"x": -0.3456594082,
				"y": 2.3567742147,
				"z": -0.3241020656,
				"element": "C" 
			},
			{
				"x": 0.3556434097,
				"y": 2.5581765341,
				"z": 1.0256483426,
				"element": "C" 
			},
			{
				"x": 1.595422293,
				"y": 3.2413672158,
				"z": 0.8898145714,
				"element": "O" 
			},
			{
				"x": -0.7987085382,
				"y": 0.8417378669,
				"z": -3.8686349118,
				"element": "H" 
			},
			{
				"x": -2.4798028285,
				"y": 0.6380487351,
				"z": -4.3777713992,
				"element": "H" 
			},
			{
				"x": -2.0962553022,
				"y": 1.6229783222,
				"z": -2.9657770444,
				"element": "H" 
			},
			{
				"x": -2.9732845625,
				"y": -0.6694484668,
				"z": -2.2871657396,
				"element": "H" 
			},
			{
				"x": -1.7261914545,
				"y": -1.4173349003,
				"z": -3.2606001969,
				"element": "H" 
			},
			{
				"x": -0.8530424514,
				"y": -1.642848901,
				"z": -1.1174072553,
				"element": "H" 
			},
			{
				"x": 0.0042355374,
				"y": -0.2340707344,
				"z": -1.701358491,
				"element": "H" 
			},
			{
				"x": -2.4651974979,
				"y": -0.2479714826,
				"z": 0.1318378757,
				"element": "H" 
			},
			{
				"x": -0.8097471969,
				"y": -0.1180548597,
				"z": 0.6866367042,
				"element": "H" 
			},
			{
				"x": -2.2665173757,
				"y": 1.8913570035,
				"z": -0.8717008783,
				"element": "H" 
			},
			{
				"x": 0.3757065341,
				"y": 1.9035827056,
				"z": -1.0240524731,
				"element": "H" 
			},
			{
				"x": -0.5944209529,
				"y": 3.3450757913,
				"z": -0.7335537638,
				"element": "H" 
			},
			{
				"x": 0.5999739441,
				"y": 1.5903423905,
				"z": 1.4749626366,
				"element": "H" 
			},
			{
				"x": -0.3303114562,
				"y": 3.0714508793,
				"z": 1.7158917453,
				"element": "H" 
			},
			{
				"x": 1.4047392174,
				"y": 4.1358244917,
				"z": 0.5791252062,
				"element": "H" 
			}
		],
		 "valence_orbital": [ 
			{
				"type": "occ",
				"energy": -0.32955,
				"method": "rhf"
			},
			{
				"type": "occ",
				"energy": -0.32507,
				"method": "rhf"
			},
			{
				"type": "occ",
				"energy": -0.3101,
				"method": "rhf"
			},
			{
				"type": "occ",
				"energy": -0.26378,
				"method": "rhf"
			},
			{
				"type": "occ",
				"energy": -0.21337,
				"method": "rhf"
			},
			{
				"type": "unocc",
				"energy": 0.06791,
				"method": "rhf"
			},
			{
				"type": "unocc",
				"energy": 0.07846,
				"method": "rhf"
			},
			{
				"type": "unocc",
				"energy": 0.09544,
				"method": "rhf"
			},
			{
				"type": "unocc",
				"energy": 0.11651,
				"method": "rhf"
			},
			{
				"type": "unocc",
				"energy": 0.12162,
				"method": "rhf"
			}
		],
		"cosmo_sigma_profile": { 
			"-0.025": 0.0,
			"-0.024": 0.0,
			"-0.023": 0.0,
			"-0.022": 0.0,
			"-0.021": 0.0,
			"-0.02": 0.0,
			"-0.019": 0.0,
			"-0.018": 0.0,
			"-0.017": 0.0,
			"-0.016": 0.0757486340746,
			"-0.015": 0.74947984409,
			"-0.014": 1.07109335007,
			"-0.013": 0.971996741805,
			"-0.012": 0.975718904362,
			"-0.011": 1.17728626877,
			"-0.01": 0.5641398696,
			"-0.009": 1.79623631613,
			"-0.008": 2.36630386801,
			"-0.007": 2.5576700668,
			"-0.006": 3.1962190673,
			"-0.005": 3.51159652387,
			"-0.004": 7.54036844968,
			"-0.003": 12.2797556363,
			"-0.002": 27.2530259217,
			"-0.001": 28.7827664332,
			"0.0": 28.0131746194,
			"0.001": 23.6656823083,
			"0.002": 10.2448667409,
			"0.003": 2.76462696273,
			"0.004": 2.27364542226,
			"0.005": 2.01398557077,
			"0.006": 2.26585592509,
			"0.007": 2.56464263437,
			"0.008": 1.97862004001,
			"0.009": 2.09696326859,
			"0.01": 1.35209544496,
			"0.011": 1.69478877906,
			"0.012": 2.43225861074,
			"0.013": 2.04443491251,
			"0.014": 2.77110787303,
			"0.015": 1.98996070001,
			"0.016": 0.384585371691,
			"0.017": 0.34029222557,
			"0.018": 0.134647651257,
			"0.019": 0.0,
			"0.02": 0.0,
			"0.021": 0.0,
			"0.022": 0.0,
			"0.023": 0.0,
			"0.024": 0.0,
			"0.025": 0.0
		}
	}
}
