{
	 "smiles": "CCOC(=O)C1=CC(O)=C(N)C=C1", 
	 "Tm": 365.15, 
	 "num_atms": 24, 
	 "gaussian": { 
		 "optdone": 1, 
		 "sigma_profile": "yes", 
		 "theory": "DFT", 
		 "functional": "B3LYP", 
		 "basiset": "6-31G**", 
		 "properties": { 
			 "R2extent": 3686.4634, 
			 "electric_dipole_moment_norm": 2.92736877588, 
			 "electric_quadrupole_moment_norm": 22.5670628224, 
			 "total_energy": -630.029981296, 
			 "HOMO_LUMO_gap": 0.18114, 
			 "cosmo_polarized_energy": -14.43, 
			 "cosmo_cavitation_energy": 28.16, 
			 "cosmo_dispersion_energy": -20.75, 
			 "cosmo_repulsion_energy": 1.67, 
			 "cosmo_total_nonelectrostatic_energy": 9.07, 
			 "SMD_solvation_energy": 6.31 
		},
		"coords": [
			{
				"x": -2.5236989744,
				"y": -4.3661271367,
				"z": 0.5908348346,
				"element": "C" 
			},
			{
				"x": -1.0883094566,
				"y": -3.9680413408,
				"z": 0.279483686,
				"element": "C" 
			},
			{
				"x": -1.0202302787,
				"y": -2.6398287467,
				"z": -0.2862438203,
				"element": "O" 
			},
			{
				"x": -0.9837241182,
				"y": -1.6099945678,
				"z": 0.5936697763,
				"element": "C" 
			},
			{
				"x": -0.9951495621,
				"y": -1.7612964917,
				"z": 1.8020778758,
				"element": "O" 
			},
			{
				"x": -0.9224842554,
				"y": -0.2872767873,
				"z": -0.0840934465,
				"element": "C" 
			},
			{
				"x": -0.9413581784,
				"y": -0.1629552131,
				"z": -1.4816043379,
				"element": "C" 
			},
			{
				"x": -0.8849430739,
				"y": 1.0982476687,
				"z": -2.0616692949,
				"element": "C" 
			},
			{
				"x": -0.931890995,
				"y": 1.2268413147,
				"z": -3.4212153545,
				"element": "O" 
			},
			{
				"x": -0.7814518386,
				"y": 2.2530368066,
				"z": -1.2575106176,
				"element": "C" 
			},
			{
				"x": -0.7362661692,
				"y": 3.4965634591,
				"z": -1.9378424345,
				"element": "N" 
			},
			{
				"x": -0.7866090894,
				"y": 2.1182369153,
				"z": 0.1336599737,
				"element": "C" 
			},
			{
				"x": -0.8633562419,
				"y": 0.8579121449,
				"z": 0.720187146,
				"element": "C" 
			},
			{
				"x": -2.9376836253,
				"y": -3.7238684648,
				"z": 1.3717891659,
				"element": "H" 
			},
			{
				"x": -2.554038166,
				"y": -5.4020088153,
				"z": 0.9453123264,
				"element": "H" 
			},
			{
				"x": -3.1517402625,
				"y": -4.2896454571,
				"z": -0.3017333053,
				"element": "H" 
			},
			{
				"x": -0.4681324767,
				"y": -4.0008926468,
				"z": 1.178406609,
				"element": "H" 
			},
			{
				"x": -0.6519423817,
				"y": -4.6128686003,
				"z": -0.4874489909,
				"element": "H" 
			},
			{
				"x": -1.0201387102,
				"y": -1.0360006064,
				"z": -2.1174114896,
				"element": "H" 
			},
			{
				"x": -1.2191202129,
				"y": 2.1381586098,
				"z": -3.6011216914,
				"element": "H" 
			},
			{
				"x": -0.8104936379,
				"y": 4.2880653948,
				"z": -1.3089669618,
				"element": "H" 
			},
			{
				"x": 0.1080091526,
				"y": 3.5995152208,
				"z": -2.4959606811,
				"element": "H" 
			},
			{
				"x": -0.7169334065,
				"y": 3.0076765426,
				"z": 0.7553577657,
				"element": "H" 
			},
			{
				"x": -0.8613140412,
				"y": 0.7393507975,
				"z": 1.7976432667,
				"element": "H" 
			}
		],
		 "valence_orbital": [ 
			{
				"type": "occ",
				"energy": -0.30799,
				"method": "rhf"
			},
			{
				"type": "occ",
				"energy": -0.28916,
				"method": "rhf"
			},
			{
				"type": "occ",
				"energy": -0.26399,
				"method": "rhf"
			},
			{
				"type": "occ",
				"energy": -0.24177,
				"method": "rhf"
			},
			{
				"type": "occ",
				"energy": -0.21462,
				"method": "rhf"
			},
			{
				"type": "unocc",
				"energy": -0.03348,
				"method": "rhf"
			},
			{
				"type": "unocc",
				"energy": 0.00621,
				"method": "rhf"
			},
			{
				"type": "unocc",
				"energy": 0.05788,
				"method": "rhf"
			},
			{
				"type": "unocc",
				"energy": 0.0732,
				"method": "rhf"
			},
			{
				"type": "unocc",
				"energy": 0.10076,
				"method": "rhf"
			}
		],
		"cosmo_sigma_profile": { 
			"-0.025": 0.0,
			"-0.024": 0.0,
			"-0.023": 0.0,
			"-0.022": 0.0,
			"-0.021": 0.0,
			"-0.02": 0.0,
			"-0.019": 0.0,
			"-0.018": 0.0,
			"-0.017": 0.0,
			"-0.016": 0.0,
			"-0.015": 0.0,
			"-0.014": 0.167059202526,
			"-0.013": 2.11828349348,
			"-0.012": 3.77584823586,
			"-0.011": 3.68577723102,
			"-0.01": 5.6606843681,
			"-0.009": 2.99420840593,
			"-0.008": 3.66653035462,
			"-0.007": 3.58911431182,
			"-0.006": 4.90647122751,
			"-0.005": 9.59245533342,
			"-0.004": 15.7966530717,
			"-0.003": 16.7908522047,
			"-0.002": 16.2644506499,
			"-0.001": 14.6884507754,
			"0.0": 17.3075070622,
			"0.001": 12.9432046088,
			"0.002": 14.9680770371,
			"0.003": 16.5107650845,
			"0.004": 17.3477376576,
			"0.005": 8.72289216091,
			"0.006": 5.86803087733,
			"0.007": 4.25465557932,
			"0.008": 2.52804503458,
			"0.009": 3.27259211935,
			"0.01": 4.09928329431,
			"0.011": 4.52020372232,
			"0.012": 5.09656691062,
			"0.013": 1.45786876312,
			"0.014": 0.0,
			"0.015": 0.0,
			"0.016": 0.0,
			"0.017": 0.0,
			"0.018": 0.0,
			"0.019": 0.0,
			"0.02": 0.0,
			"0.021": 0.0,
			"0.022": 0.0,
			"0.023": 0.0,
			"0.024": 0.0,
			"0.025": 0.0
		}
	}
}
