{
	 "smiles": "FC1=C(F)C(F)=C(OC(=O)C2=CSC(=N2)C2=CC=CN=C2)C(F)=C1F", 
	 "Tm": 409.15, 
	 "num_atms": 30, 
	 "gaussian": { 
		 "optdone": 1, 
		 "sigma_profile": "yes", 
		 "theory": "DFT", 
		 "functional": "B3LYP", 
		 "basiset": "6-31G**", 
		 "properties": { 
			 "R2extent": 15293.7836, 
			 "electric_dipole_moment_norm": 2.10342864866, 
			 "electric_quadrupole_moment_norm": 16.4765312794, 
			 "total_energy": -1731.86503919, 
			 "HOMO_LUMO_gap": 0.17028, 
			 "cosmo_polarized_energy": -11.56, 
			 "cosmo_cavitation_energy": 42.42, 
			 "cosmo_dispersion_energy": -29.53, 
			 "cosmo_repulsion_energy": 2.07, 
			 "cosmo_total_nonelectrostatic_energy": 14.95, 
			 "SMD_solvation_energy": 7.98 
		},
		"coords": [
			{
				"x": 5.1676060396,
				"y": 0.2393760381,
				"z": -5.637413393,
				"element": "F" 
			},
			{
				"x": 4.2746855436,
				"y": 0.496486599,
				"z": -4.6783508411,
				"element": "C" 
			},
			{
				"x": 4.3276560742,
				"y": -0.2020040195,
				"z": -3.4733134288,
				"element": "C" 
			},
			{
				"x": 5.2753456381,
				"y": -1.1238875676,
				"z": -3.2771662237,
				"element": "F" 
			},
			{
				"x": 3.393347188,
				"y": 0.0677760965,
				"z": -2.4762063459,
				"element": "C" 
			},
			{
				"x": 3.4523629971,
				"y": -0.5931052394,
				"z": -1.3169047981,
				"element": "F" 
			},
			{
				"x": 2.3975835213,
				"y": 1.0217578123,
				"z": -2.6801426931,
				"element": "C" 
			},
			{
				"x": 1.4313455106,
				"y": 1.2343242943,
				"z": -1.719411206,
				"element": "O" 
			},
			{
				"x": 1.7117925633,
				"y": 2.2045450026,
				"z": -0.7828447078,
				"element": "C" 
			},
			{
				"x": 2.7328381745,
				"y": 2.848690027,
				"z": -0.7757857289,
				"element": "O" 
			},
			{
				"x": 0.6132898048,
				"y": 2.3480680654,
				"z": 0.1953393049,
				"element": "C" 
			},
			{
				"x": 0.6855458285,
				"y": 3.2618095811,
				"z": 1.2177996189,
				"element": "C" 
			},
			{
				"x": -0.7381854126,
				"y": 3.1842560389,
				"z": 2.1760015399,
				"element": "S" 
			},
			{
				"x": -1.3498081674,
				"y": 1.8977298333,
				"z": 1.1119484467,
				"element": "C" 
			},
			{
				"x": -0.5296453043,
				"y": 1.590489984,
				"z": 0.1457564166,
				"element": "N" 
			},
			{
				"x": -2.6517119218,
				"y": 1.2542219896,
				"z": 1.3143727485,
				"element": "C" 
			},
			{
				"x": -3.0740863183,
				"y": 0.2431982733,
				"z": 0.4358480564,
				"element": "C" 
			},
			{
				"x": -4.3111144573,
				"y": -0.3525868392,
				"z": 0.6470131066,
				"element": "C" 
			},
			{
				"x": -5.0886324814,
				"y": 0.0767832548,
				"z": 1.725914412,
				"element": "C" 
			},
			{
				"x": -4.7046966948,
				"y": 1.0386380067,
				"z": 2.5748375004,
				"element": "N" 
			},
			{
				"x": -3.5152029675,
				"y": 1.6051262284,
				"z": 2.3642685854,
				"element": "C" 
			},
			{
				"x": 2.3595037962,
				"y": 1.7251922841,
				"z": -3.8830288761,
				"element": "C" 
			},
			{
				"x": 1.4239960699,
				"y": 2.658671809,
				"z": -4.0770749957,
				"element": "F" 
			},
			{
				"x": 3.2901721346,
				"y": 1.4612684333,
				"z": -4.8851124496,
				"element": "C" 
			},
			{
				"x": 3.2446520082,
				"y": 2.1316713993,
				"z": -6.0405158799,
				"element": "F" 
			},
			{
				"x": 1.4938988192,
				"y": 3.9466775246,
				"z": 1.4283638296,
				"element": "H" 
			},
			{
				"x": -2.4287813478,
				"y": -0.0499697386,
				"z": -0.3851334085,
				"element": "H" 
			},
			{
				"x": -4.6717098789,
				"y": -1.1371532849,
				"z": -0.0104768157,
				"element": "H" 
			},
			{
				"x": -6.062013645,
				"y": -0.3705359836,
				"z": 1.9174063742,
				"element": "H" 
			},
			{
				"x": -3.2330331146,
				"y": 2.383784097,
				"z": 3.0727118519,
				"element": "H" 
			}
		],
		 "valence_orbital": [ 
			{
				"type": "occ",
				"energy": -0.29383,
				"method": "rhf"
			},
			{
				"type": "occ",
				"energy": -0.27025,
				"method": "rhf"
			},
			{
				"type": "occ",
				"energy": -0.26612,
				"method": "rhf"
			},
			{
				"type": "occ",
				"energy": -0.26178,
				"method": "rhf"
			},
			{
				"type": "occ",
				"energy": -0.2505,
				"method": "rhf"
			},
			{
				"type": "unocc",
				"energy": -0.08022,
				"method": "rhf"
			},
			{
				"type": "unocc",
				"energy": -0.05778,
				"method": "rhf"
			},
			{
				"type": "unocc",
				"energy": -0.03522,
				"method": "rhf"
			},
			{
				"type": "unocc",
				"energy": -0.02921,
				"method": "rhf"
			},
			{
				"type": "unocc",
				"energy": -0.02146,
				"method": "rhf"
			}
		],
		"cosmo_sigma_profile": { 
			"-0.025": 0.0,
			"-0.024": 0.0,
			"-0.023": 0.0,
			"-0.022": 0.0,
			"-0.021": 0.0,
			"-0.02": 0.0,
			"-0.019": 0.0,
			"-0.018": 0.0,
			"-0.017": 0.0,
			"-0.016": 0.0,
			"-0.015": 0.0,
			"-0.014": 0.0,
			"-0.013": 0.0,
			"-0.012": 0.0134384151508,
			"-0.011": 1.4281845674,
			"-0.01": 1.50158554945,
			"-0.009": 1.41857892527,
			"-0.008": 4.35317737103,
			"-0.007": 9.07754040852,
			"-0.006": 10.3686027766,
			"-0.005": 13.6930308976,
			"-0.004": 29.1470360747,
			"-0.003": 24.5267098703,
			"-0.002": 26.6715828728,
			"-0.001": 32.2105255686,
			"0.0": 34.7350592387,
			"0.001": 36.3025415029,
			"0.002": 59.0612786333,
			"0.003": 22.9999771006,
			"0.004": 5.32445933704,
			"0.005": 3.65439274519,
			"0.006": 4.38267043203,
			"0.007": 5.01564448726,
			"0.008": 4.26254483957,
			"0.009": 4.77119933424,
			"0.01": 5.65277053943,
			"0.011": 2.36781407426,
			"0.012": 1.62182169745,
			"0.013": 1.17636093028,
			"0.014": 0.460467461847,
			"0.015": 1.03469352806,
			"0.016": 0.470959964882,
			"0.017": 0.0411862475167,
			"0.018": 0.0,
			"0.019": 0.0,
			"0.02": 0.0,
			"0.021": 0.0,
			"0.022": 0.0,
			"0.023": 0.0,
			"0.024": 0.0,
			"0.025": 0.0
		}
	}
}
