{
	 "smiles": "FC(F)(F)COC(=O)NC1=C(Cl)C=CC(Cl)=C1", 
	 "Tm": 384.15, 
	 "num_atms": 23, 
	 "gaussian": { 
		 "optdone": 1, 
		 "sigma_profile": "yes", 
		 "theory": "DFT", 
		 "functional": "B3LYP", 
		 "basiset": "6-31G**", 
		 "properties": { 
			 "R2extent": 6247.9018, 
			 "electric_dipole_moment_norm": 2.71664825474, 
			 "electric_quadrupole_moment_norm": 9.21325130559, 
			 "total_energy": -1771.69634561, 
			 "HOMO_LUMO_gap": 0.21287, 
			 "cosmo_polarized_energy": -11.69, 
			 "cosmo_cavitation_energy": 33.91, 
			 "cosmo_dispersion_energy": -22.97, 
			 "cosmo_repulsion_energy": 1.78, 
			 "cosmo_total_nonelectrostatic_energy": 12.72, 
			 "SMD_solvation_energy": 7.69 
		},
		"coords": [
			{
				"x": -3.6351022461,
				"y": -0.9971506406,
				"z": -1.3615644079,
				"element": "F" 
			},
			{
				"x": -3.3366802963,
				"y": -2.2182624982,
				"z": -0.8818380799,
				"element": "C" 
			},
			{
				"x": -4.377967827,
				"y": -3.0395733423,
				"z": -1.134153187,
				"element": "F" 
			},
			{
				"x": -2.2712476811,
				"y": -2.6781615038,
				"z": -1.5643623311,
				"element": "F" 
			},
			{
				"x": -3.0776428679,
				"y": -2.181950793,
				"z": 0.6147261871,
				"element": "C" 
			},
			{
				"x": -1.9917648375,
				"y": -1.3046631976,
				"z": 0.8881509538,
				"element": "O" 
			},
			{
				"x": -2.3251157105,
				"y": -0.0966359279,
				"z": 1.4283169157,
				"element": "C" 
			},
			{
				"x": -3.4481345016,
				"y": 0.2527207378,
				"z": 1.7230688349,
				"element": "O" 
			},
			{
				"x": -1.2085834217,
				"y": 0.6812262198,
				"z": 1.6019554209,
				"element": "N" 
			},
			{
				"x": 0.1290397029,
				"y": 0.3535469766,
				"z": 1.2563012218,
				"element": "C" 
			},
			{
				"x": 0.8792127931,
				"y": -0.5899615531,
				"z": 1.978725854,
				"element": "C" 
			},
			{
				"x": 0.185894731,
				"y": -1.4203280225,
				"z": 3.351608917,
				"element": "Cl" 
			},
			{
				"x": 2.2004004007,
				"y": -0.8634697947,
				"z": 1.6245493847,
				"element": "C" 
			},
			{
				"x": 2.8029135502,
				"y": -0.1844764412,
				"z": 0.5677711778,
				"element": "C" 
			},
			{
				"x": 2.0660918826,
				"y": 0.767262006,
				"z": -0.1354459176,
				"element": "C" 
			},
			{
				"x": 2.8108486947,
				"y": 1.6351996927,
				"z": -1.4642942912,
				"element": "Cl" 
			},
			{
				"x": 0.7397521782,
				"y": 1.0314299032,
				"z": 0.1950290074,
				"element": "C" 
			},
			{
				"x": -2.7932554695,
				"y": -3.1816916616,
				"z": 0.9484299798,
				"element": "H" 
			},
			{
				"x": -3.9818177394,
				"y": -1.8462636062,
				"z": 1.1250955105,
				"element": "H" 
			},
			{
				"x": -1.4150934588,
				"y": 1.6156700465,
				"z": 1.9250292108,
				"element": "H" 
			},
			{
				"x": 2.761068595,
				"y": -1.5993575124,
				"z": 2.1897208828,
				"element": "H" 
			},
			{
				"x": 3.8324899909,
				"y": -0.3896521636,
				"z": 0.2979117911,
				"element": "H" 
			},
			{
				"x": 0.1640935382,
				"y": 1.754743076,
				"z": -0.3712330354,
				"element": "H" 
			}
		],
		 "valence_orbital": [ 
			{
				"type": "occ",
				"energy": -0.31707,
				"method": "rhf"
			},
			{
				"type": "occ",
				"energy": -0.30544,
				"method": "rhf"
			},
			{
				"type": "occ",
				"energy": -0.29265,
				"method": "rhf"
			},
			{
				"type": "occ",
				"energy": -0.27361,
				"method": "rhf"
			},
			{
				"type": "occ",
				"energy": -0.25446,
				"method": "rhf"
			},
			{
				"type": "unocc",
				"energy": -0.04159,
				"method": "rhf"
			},
			{
				"type": "unocc",
				"energy": -0.03622,
				"method": "rhf"
			},
			{
				"type": "unocc",
				"energy": 0.00574,
				"method": "rhf"
			},
			{
				"type": "unocc",
				"energy": 0.02697,
				"method": "rhf"
			},
			{
				"type": "unocc",
				"energy": 0.03709,
				"method": "rhf"
			}
		],
		"cosmo_sigma_profile": { 
			"-0.025": 0.0,
			"-0.024": 0.0,
			"-0.023": 0.0,
			"-0.022": 0.0,
			"-0.021": 0.0,
			"-0.02": 0.0,
			"-0.019": 0.0,
			"-0.018": 0.0,
			"-0.017": 0.0,
			"-0.016": 0.644520334281,
			"-0.015": 1.22052520013,
			"-0.014": 1.24836631811,
			"-0.013": 1.00508809489,
			"-0.012": 0.840429206179,
			"-0.011": 0.846182173291,
			"-0.01": 1.70151975498,
			"-0.009": 4.22130054375,
			"-0.008": 11.0459904154,
			"-0.007": 10.0745808445,
			"-0.006": 9.66131514611,
			"-0.005": 8.45302006476,
			"-0.004": 7.31826036856,
			"-0.003": 10.7257727037,
			"-0.002": 14.0794387547,
			"-0.001": 16.0704606,
			"0.0": 23.0597901941,
			"0.001": 30.5250210586,
			"0.002": 42.8978835265,
			"0.003": 37.2666236742,
			"0.004": 22.0787153611,
			"0.005": 5.78000433295,
			"0.006": 1.69804537892,
			"0.007": 1.84095883433,
			"0.008": 1.7106160538,
			"0.009": 0.826867979387,
			"0.01": 1.70514074729,
			"0.011": 3.19543023644,
			"0.012": 4.18180172773,
			"0.013": 0.452282017199,
			"0.014": 0.0,
			"0.015": 0.0,
			"0.016": 0.0,
			"0.017": 0.0,
			"0.018": 0.0,
			"0.019": 0.0,
			"0.02": 0.0,
			"0.021": 0.0,
			"0.022": 0.0,
			"0.023": 0.0,
			"0.024": 0.0,
			"0.025": 0.0
		}
	}
}
