{
	 "smiles": "NC1=NNC=C1C(O)=O", 
	 "Tm": 391.15, 
	 "num_atms": 14, 
	 "gaussian": { 
		 "optdone": 1, 
		 "sigma_profile": "yes", 
		 "theory": "DFT", 
		 "functional": "B3LYP", 
		 "basiset": "6-31G**", 
		 "properties": { 
			 "R2extent": 1256.7769, 
			 "electric_dipole_moment_norm": 4.83258168477, 
			 "electric_quadrupole_moment_norm": 15.1371692496, 
			 "total_energy": -470.131331336, 
			 "HOMO_LUMO_gap": 0.18654, 
			 "cosmo_polarized_energy": -22.0, 
			 "cosmo_cavitation_energy": 18.62, 
			 "cosmo_dispersion_energy": -14.41, 
			 "cosmo_repulsion_energy": 1.2, 
			 "cosmo_total_nonelectrostatic_energy": 5.41, 
			 "SMD_solvation_energy": 3.58 
		},
		"coords": [
			{
				"x": -1.1305591794,
				"y": 1.9860988638,
				"z": 0.7818381665,
				"element": "N" 
			},
			{
				"x": 0.0432259345,
				"y": 1.3720523319,
				"z": 0.4409957814,
				"element": "C" 
			},
			{
				"x": 1.0140077157,
				"y": 1.9925973907,
				"z": -0.2293900758,
				"element": "N" 
			},
			{
				"x": 2.0078966205,
				"y": 1.057638208,
				"z": -0.3100729966,
				"element": "N" 
			},
			{
				"x": 1.7028819619,
				"y": -0.1121327627,
				"z": 0.273802546,
				"element": "C" 
			},
			{
				"x": 0.4166467312,
				"y": 0.0291029325,
				"z": 0.7921194719,
				"element": "C" 
			},
			{
				"x": -0.4640807492,
				"y": -0.917128966,
				"z": 1.4718750858,
				"element": "C" 
			},
			{
				"x": 0.0598820817,
				"y": -2.117326011,
				"z": 1.8495461868,
				"element": "O" 
			},
			{
				"x": -1.6368690854,
				"y": -0.6862742513,
				"z": 1.7048297816,
				"element": "O" 
			},
			{
				"x": -1.8714130435,
				"y": 1.3476517833,
				"z": 1.0426054744,
				"element": "H" 
			},
			{
				"x": -1.3842079833,
				"y": 2.7951690637,
				"z": 0.2354017736,
				"element": "H" 
			},
			{
				"x": 2.8584449526,
				"y": 1.3016117193,
				"z": -0.7918694739,
				"element": "H" 
			},
			{
				"x": 2.3921337117,
				"y": -0.9456634403,
				"z": 0.2608087037,
				"element": "H" 
			},
			{
				"x": 1.015910331,
				"y": -2.1271968619,
				"z": 1.7079095745,
				"element": "H" 
			}
		],
		 "valence_orbital": [ 
			{
				"type": "occ",
				"energy": -0.31237,
				"method": "rhf"
			},
			{
				"type": "occ",
				"energy": -0.29866,
				"method": "rhf"
			},
			{
				"type": "occ",
				"energy": -0.27442,
				"method": "rhf"
			},
			{
				"type": "occ",
				"energy": -0.26298,
				"method": "rhf"
			},
			{
				"type": "occ",
				"energy": -0.21376,
				"method": "rhf"
			},
			{
				"type": "unocc",
				"energy": -0.02722,
				"method": "rhf"
			},
			{
				"type": "unocc",
				"energy": 0.03171,
				"method": "rhf"
			},
			{
				"type": "unocc",
				"energy": 0.04982,
				"method": "rhf"
			},
			{
				"type": "unocc",
				"energy": 0.06434,
				"method": "rhf"
			},
			{
				"type": "unocc",
				"energy": 0.10772,
				"method": "rhf"
			}
		],
		"cosmo_sigma_profile": { 
			"-0.025": 0.0,
			"-0.024": 0.0,
			"-0.023": 0.0,
			"-0.022": 0.0,
			"-0.021": 0.0,
			"-0.02": 0.0,
			"-0.019": 0.649557846092,
			"-0.018": 1.32036323315,
			"-0.017": 2.52378916914,
			"-0.016": 2.99890699182,
			"-0.015": 2.13823456596,
			"-0.014": 1.98796189741,
			"-0.013": 3.07552669543,
			"-0.012": 3.35987861793,
			"-0.011": 4.47706608551,
			"-0.01": 5.19394025538,
			"-0.009": 3.56343785464,
			"-0.008": 3.83770637979,
			"-0.007": 3.89038039664,
			"-0.006": 3.8489197976,
			"-0.005": 3.3386728077,
			"-0.004": 3.34176535785,
			"-0.003": 4.29279505341,
			"-0.002": 4.01241954074,
			"-0.001": 5.62769173236,
			"0.0": 5.94331456522,
			"0.001": 8.2669421268,
			"0.002": 9.2654623038,
			"0.003": 7.27474275454,
			"0.004": 5.34998810531,
			"0.005": 4.40846969545,
			"0.006": 5.58263042516,
			"0.007": 4.22523412355,
			"0.008": 4.59544031047,
			"0.009": 5.22424958832,
			"0.01": 5.89443588216,
			"0.011": 5.97103548954,
			"0.012": 5.45427305648,
			"0.013": 3.6477697423,
			"0.014": 1.95346114925,
			"0.015": 1.21832037837,
			"0.016": 0.636524960504,
			"0.017": 0.0342531772531,
			"0.018": 0.0,
			"0.019": 0.0,
			"0.02": 0.0,
			"0.021": 0.0,
			"0.022": 0.0,
			"0.023": 0.0,
			"0.024": 0.0,
			"0.025": 0.0
		}
	}
}
