{
	 "smiles": "FC1=CC(F)=C(Cl)C=C1", 
	 "Tm": 247.15, 
	 "num_atms": 12, 
	 "gaussian": { 
		 "optdone": 1, 
		 "sigma_profile": "yes", 
		 "theory": "DFT", 
		 "functional": "B3LYP", 
		 "basiset": "6-31G**", 
		 "properties": { 
			 "R2extent": 2485.6624, 
			 "electric_dipole_moment_norm": 1.46045153976, 
			 "electric_quadrupole_moment_norm": 9.35428252834, 
			 "total_energy": -890.300937333, 
			 "HOMO_LUMO_gap": 0.22089, 
			 "cosmo_polarized_energy": -3.59, 
			 "cosmo_cavitation_energy": 19.25, 
			 "cosmo_dispersion_energy": -14.26, 
			 "cosmo_repulsion_energy": 1.12, 
			 "cosmo_total_nonelectrostatic_energy": 6.11, 
			 "SMD_solvation_energy": 4.14 
		},
		"coords": [
			{
				"x": -0.4787991014,
				"y": 0.0359117578,
				"z": -1.8352265904,
				"element": "F" 
			},
			{
				"x": -0.7247966988,
				"y": 0.5906374495,
				"z": -0.6345544131,
				"element": "C" 
			},
			{
				"x": 0.287272344,
				"y": 1.3162479721,
				"z": -0.0168717076,
				"element": "C" 
			},
			{
				"x": 0.0207899389,
				"y": 1.8845074627,
				"z": 1.2234348513,
				"element": "C" 
			},
			{
				"x": 0.9843605862,
				"y": 2.5871651735,
				"z": 1.8334441084,
				"element": "F" 
			},
			{
				"x": -1.2251292809,
				"y": 1.7355938332,
				"z": 1.8382914308,
				"element": "C" 
			},
			{
				"x": -1.5159472438,
				"y": 2.4663669694,
				"z": 3.3960242067,
				"element": "Cl" 
			},
			{
				"x": -2.2202658459,
				"y": 1.0011484803,
				"z": 1.1922294056,
				"element": "C" 
			},
			{
				"x": -1.9766906497,
				"y": 0.4216311977,
				"z": -0.0524917028,
				"element": "C" 
			},
			{
				"x": 1.2579421665,
				"y": 1.4401986686,
				"z": -0.4812178912,
				"element": "H" 
			},
			{
				"x": -3.186332104,
				"y": 0.8867717041,
				"z": 1.6709856399,
				"element": "H" 
			},
			{
				"x": -2.7386041112,
				"y": -0.1516806691,
				"z": -0.5674473376,
				"element": "H" 
			}
		],
		 "valence_orbital": [ 
			{
				"type": "occ",
				"energy": -0.37908,
				"method": "rhf"
			},
			{
				"type": "occ",
				"energy": -0.33728,
				"method": "rhf"
			},
			{
				"type": "occ",
				"energy": -0.32305,
				"method": "rhf"
			},
			{
				"type": "occ",
				"energy": -0.27412,
				"method": "rhf"
			},
			{
				"type": "occ",
				"energy": -0.24949,
				"method": "rhf"
			},
			{
				"type": "unocc",
				"energy": -0.0286,
				"method": "rhf"
			},
			{
				"type": "unocc",
				"energy": -0.01545,
				"method": "rhf"
			},
			{
				"type": "unocc",
				"energy": 0.01562,
				"method": "rhf"
			},
			{
				"type": "unocc",
				"energy": 0.09175,
				"method": "rhf"
			},
			{
				"type": "unocc",
				"energy": 0.12638,
				"method": "rhf"
			}
		],
		"cosmo_sigma_profile": { 
			"-0.025": 0.0,
			"-0.024": 0.0,
			"-0.023": 0.0,
			"-0.022": 0.0,
			"-0.021": 0.0,
			"-0.02": 0.0,
			"-0.019": 0.0,
			"-0.018": 0.0,
			"-0.017": 0.0,
			"-0.016": 0.0,
			"-0.015": 0.0,
			"-0.014": 0.0,
			"-0.013": 0.0,
			"-0.012": 0.0,
			"-0.011": 0.0,
			"-0.01": 0.149989637268,
			"-0.009": 1.77981433361,
			"-0.008": 4.89108384001,
			"-0.007": 5.43073946899,
			"-0.006": 5.08969863619,
			"-0.005": 4.52475795521,
			"-0.004": 5.08867617692,
			"-0.003": 5.18079187523,
			"-0.002": 7.76237978329,
			"-0.001": 15.83293652,
			"0.0": 22.8674683633,
			"0.001": 19.2976479386,
			"0.002": 13.726784723,
			"0.003": 21.4682699794,
			"0.004": 21.3829358298,
			"0.005": 3.4688784558,
			"0.006": 0.0295238384295,
			"0.007": 0.0,
			"0.008": 0.0,
			"0.009": 0.0,
			"0.01": 0.0,
			"0.011": 0.0,
			"0.012": 0.0,
			"0.013": 0.0,
			"0.014": 0.0,
			"0.015": 0.0,
			"0.016": 0.0,
			"0.017": 0.0,
			"0.018": 0.0,
			"0.019": 0.0,
			"0.02": 0.0,
			"0.021": 0.0,
			"0.022": 0.0,
			"0.023": 0.0,
			"0.024": 0.0,
			"0.025": 0.0
		}
	}
}
