{
	 "smiles": "CC(C)(C)NCCS(C)(=O)=O", 
	 "Tm": 313.15, 
	 "num_atms": 28, 
	 "gaussian": { 
		 "optdone": 1, 
		 "sigma_profile": "yes", 
		 "theory": "DFT", 
		 "functional": "B3LYP", 
		 "basiset": "6-31G**", 
		 "properties": { 
			 "R2extent": 3468.9317, 
			 "electric_dipole_moment_norm": 4.96060046869, 
			 "electric_quadrupole_moment_norm": 21.7993492277, 
			 "total_energy": -880.323403144, 
			 "HOMO_LUMO_gap": 0.28284, 
			 "cosmo_polarized_energy": -15.49, 
			 "cosmo_cavitation_energy": 29.96, 
			 "cosmo_dispersion_energy": -21.16, 
			 "cosmo_repulsion_energy": 1.64, 
			 "cosmo_total_nonelectrostatic_energy": 10.45, 
			 "SMD_solvation_energy": 4.54 
		},
		"coords": [
			{
				"x": -2.003304712,
				"y": 0.4550081207,
				"z": -1.7791523855,
				"element": "C" 
			},
			{
				"x": -0.5593597486,
				"y": 0.2077047079,
				"z": -1.2860448026,
				"element": "C" 
			},
			{
				"x": 0.3051696841,
				"y": -0.3275434925,
				"z": -2.4403806812,
				"element": "C" 
			},
			{
				"x": 0.0350807743,
				"y": 1.5292828242,
				"z": -0.7711749972,
				"element": "C" 
			},
			{
				"x": -0.4994122365,
				"y": -0.7394867337,
				"z": -0.150957213,
				"element": "N" 
			},
			{
				"x": -0.9179130666,
				"y": -2.116759983,
				"z": -0.3813217244,
				"element": "C" 
			},
			{
				"x": -1.2716980969,
				"y": -2.8515336618,
				"z": 0.9173220146,
				"element": "C" 
			},
			{
				"x": -0.1649191297,
				"y": -2.5869112671,
				"z": 2.3493451664,
				"element": "S" 
			},
			{
				"x": 1.5067479365,
				"y": -2.6105672371,
				"z": 1.6706913679,
				"element": "C" 
			},
			{
				"x": -0.4311843558,
				"y": -1.229735527,
				"z": 2.8615301726,
				"element": "O" 
			},
			{
				"x": -0.3228006589,
				"y": -3.7496672629,
				"z": 3.238093522,
				"element": "O" 
			},
			{
				"x": -2.4732079796,
				"y": -0.4629096945,
				"z": -2.147610879,
				"element": "H" 
			},
			{
				"x": -2.6254580969,
				"y": 0.854075273,
				"z": -0.9701641787,
				"element": "H" 
			},
			{
				"x": -2.018155901,
				"y": 1.1791312251,
				"z": -2.6007662804,
				"element": "H" 
			},
			{
				"x": -0.1063497638,
				"y": -1.2473557147,
				"z": -2.8689964745,
				"element": "H" 
			},
			{
				"x": 1.3225953925,
				"y": -0.5350271442,
				"z": -2.0937941118,
				"element": "H" 
			},
			{
				"x": 0.3608347174,
				"y": 0.4108636174,
				"z": -3.2460854025,
				"element": "H" 
			},
			{
				"x": 0.0346139461,
				"y": 2.2903057176,
				"z": -1.5578998451,
				"element": "H" 
			},
			{
				"x": -0.5485593653,
				"y": 1.9190038639,
				"z": 0.0708715268,
				"element": "H" 
			},
			{
				"x": 1.0624208948,
				"y": 1.3793509451,
				"z": -0.4273500924,
				"element": "H" 
			},
			{
				"x": -0.9827027202,
				"y": -0.3485022378,
				"z": 0.6542230347,
				"element": "H" 
			},
			{
				"x": -0.1086670235,
				"y": -2.6584954978,
				"z": -0.8877164204,
				"element": "H" 
			},
			{
				"x": -1.8034000742,
				"y": -2.2179794328,
				"z": -1.033065472,
				"element": "H" 
			},
			{
				"x": -1.3169326645,
				"y": -3.9309248014,
				"z": 0.7553675783,
				"element": "H" 
			},
			{
				"x": -2.236209826,
				"y": -2.5224092979,
				"z": 1.31809718,
				"element": "H" 
			},
			{
				"x": 1.7035075071,
				"y": -3.5862932633,
				"z": 1.2230300696,
				"element": "H" 
			},
			{
				"x": 2.17311128,
				"y": -2.4465640984,
				"z": 2.5196354003,
				"element": "H" 
			},
			{
				"x": 1.5848532873,
				"y": -1.7987599468,
				"z": 0.9463739275,
				"element": "H" 
			}
		],
		 "valence_orbital": [ 
			{
				"type": "occ",
				"energy": -0.31518,
				"method": "rhf"
			},
			{
				"type": "occ",
				"energy": -0.30285,
				"method": "rhf"
			},
			{
				"type": "occ",
				"energy": -0.28613,
				"method": "rhf"
			},
			{
				"type": "occ",
				"energy": -0.27961,
				"method": "rhf"
			},
			{
				"type": "occ",
				"energy": -0.22912,
				"method": "rhf"
			},
			{
				"type": "unocc",
				"energy": 0.05372,
				"method": "rhf"
			},
			{
				"type": "unocc",
				"energy": 0.06682,
				"method": "rhf"
			},
			{
				"type": "unocc",
				"energy": 0.07842,
				"method": "rhf"
			},
			{
				"type": "unocc",
				"energy": 0.08502,
				"method": "rhf"
			},
			{
				"type": "unocc",
				"energy": 0.0944,
				"method": "rhf"
			}
		],
		"cosmo_sigma_profile": { 
			"-0.025": 0.0,
			"-0.024": 0.0,
			"-0.023": 0.0,
			"-0.022": 0.0,
			"-0.021": 0.0,
			"-0.02": 0.0,
			"-0.019": 0.0,
			"-0.018": 0.0,
			"-0.017": 0.0,
			"-0.016": 0.0,
			"-0.015": 0.0,
			"-0.014": 0.0,
			"-0.013": 0.0,
			"-0.012": 0.0,
			"-0.011": 0.0,
			"-0.01": 0.152460010147,
			"-0.009": 2.20077156388,
			"-0.008": 7.83122973593,
			"-0.007": 9.14576773074,
			"-0.006": 9.64311338328,
			"-0.005": 10.9391502073,
			"-0.004": 19.0548520592,
			"-0.003": 27.491710753,
			"-0.002": 25.9316569364,
			"-0.001": 18.3722335076,
			"0.0": 18.7470417209,
			"0.001": 22.5469630097,
			"0.002": 11.3189615302,
			"0.003": 3.10025073489,
			"0.004": 3.1051830364,
			"0.005": 2.99760804182,
			"0.006": 2.25621950455,
			"0.007": 3.5899819472,
			"0.008": 3.84766655888,
			"0.009": 2.77616377669,
			"0.01": 3.49811585824,
			"0.011": 6.53989985833,
			"0.012": 10.7174561293,
			"0.013": 5.99711893951,
			"0.014": 0.0235082070363,
			"0.015": 0.0,
			"0.016": 0.0,
			"0.017": 0.0,
			"0.018": 0.0,
			"0.019": 0.0,
			"0.02": 0.0,
			"0.021": 0.0,
			"0.022": 0.0,
			"0.023": 0.0,
			"0.024": 0.0,
			"0.025": 0.0
		}
	}
}
