{
	 "smiles": "CCOC(=O)C1=CC=C(C=C1)N1C(=O)CC2=C(C=CC=C2)C1=O", 
	 "Tm": 448.15, 
	 "num_atms": 38, 
	 "gaussian": { 
		 "optdone": 1, 
		 "sigma_profile": "yes", 
		 "theory": "DFT", 
		 "functional": "B3LYP", 
		 "basiset": "6-31G**", 
		 "properties": { 
			 "R2extent": 11673.7918, 
			 "electric_dipole_moment_norm": 4.20904037757, 
			 "electric_quadrupole_moment_norm": 25.9298282164, 
			 "total_energy": -1050.65466263, 
			 "HOMO_LUMO_gap": 0.19048, 
			 "cosmo_polarized_energy": -17.99, 
			 "cosmo_cavitation_energy": 42.98, 
			 "cosmo_dispersion_energy": -30.53, 
			 "cosmo_repulsion_energy": 2.31, 
			 "cosmo_total_nonelectrostatic_energy": 14.77, 
			 "SMD_solvation_energy": 9.33 
		},
		"coords": [
			{
				"x": -5.4953902331,
				"y": -3.0387992009,
				"z": 3.6257484317,
				"element": "C" 
			},
			{
				"x": -4.8604352997,
				"y": -3.8972071902,
				"z": 2.5418733915,
				"element": "C" 
			},
			{
				"x": -3.7336707523,
				"y": -3.2260500716,
				"z": 1.9305069493,
				"element": "O" 
			},
			{
				"x": -4.0156292176,
				"y": -2.3758049841,
				"z": 0.9168964302,
				"element": "C" 
			},
			{
				"x": -5.1419592919,
				"y": -2.1642927269,
				"z": 0.5082165506,
				"element": "O" 
			},
			{
				"x": -2.7902721257,
				"y": -1.7350744206,
				"z": 0.3578756349,
				"element": "C" 
			},
			{
				"x": -1.5078172051,
				"y": -2.0032852288,
				"z": 0.8547634147,
				"element": "C" 
			},
			{
				"x": -0.3985723361,
				"y": -1.3750656965,
				"z": 0.2961506579,
				"element": "C" 
			},
			{
				"x": -0.5682298224,
				"y": -0.4827510284,
				"z": -0.7630580718,
				"element": "C" 
			},
			{
				"x": -1.8414794356,
				"y": -0.210997125,
				"z": -1.2661414443,
				"element": "C" 
			},
			{
				"x": -2.949563128,
				"y": -0.8347786738,
				"z": -0.7034381954,
				"element": "C" 
			},
			{
				"x": 0.5869362898,
				"y": 0.1667467573,
				"z": -1.3423081136,
				"element": "N" 
			},
			{
				"x": 0.723576373,
				"y": 1.5514683825,
				"z": -1.139091388,
				"element": "C" 
			},
			{
				"x": -0.1096619284,
				"y": 2.186528427,
				"z": -0.5232350147,
				"element": "O" 
			},
			{
				"x": 1.9699078306,
				"y": 2.2266865398,
				"z": -1.6835908121,
				"element": "C" 
			},
			{
				"x": 2.8722320718,
				"y": 1.4080194985,
				"z": -2.5641817699,
				"element": "C" 
			},
			{
				"x": 2.6317694235,
				"y": 0.040213501,
				"z": -2.7373280102,
				"element": "C" 
			},
			{
				"x": 3.4806049226,
				"y": -0.7357801537,
				"z": -3.5416676732,
				"element": "C" 
			},
			{
				"x": 4.5682302901,
				"y": -0.148157509,
				"z": -4.1750225418,
				"element": "C" 
			},
			{
				"x": 4.8120065017,
				"y": 1.2201165325,
				"z": -4.0068229935,
				"element": "C" 
			},
			{
				"x": 3.9704277778,
				"y": 1.9904482361,
				"z": -3.2075926162,
				"element": "C" 
			},
			{
				"x": 1.4769846997,
				"y": -0.6397452302,
				"z": -2.094852411,
				"element": "C" 
			},
			{
				"x": 1.2742975191,
				"y": -1.8362675018,
				"z": -2.2074981137,
				"element": "O" 
			},
			{
				"x": -6.2942605629,
				"y": -3.5995426951,
				"z": 4.1225334773,
				"element": "H" 
			},
			{
				"x": -4.7562208302,
				"y": -2.752631381,
				"z": 4.3798011653,
				"element": "H" 
			},
			{
				"x": -5.929253888,
				"y": -2.1341933444,
				"z": 3.1931239606,
				"element": "H" 
			},
			{
				"x": -5.5847527117,
				"y": -4.1481078786,
				"z": 1.7634545902,
				"element": "H" 
			},
			{
				"x": -4.4367109998,
				"y": -4.8158931132,
				"z": 2.9547657811,
				"element": "H" 
			},
			{
				"x": -1.3856152133,
				"y": -2.7002547833,
				"z": 1.6751954121,
				"element": "H" 
			},
			{
				"x": 0.5977855519,
				"y": -1.579514261,
				"z": 0.6722985322,
				"element": "H" 
			},
			{
				"x": -1.9585866732,
				"y": 0.4885932287,
				"z": -2.0862838625,
				"element": "H" 
			},
			{
				"x": -3.9496764717,
				"y": -0.6390601841,
				"z": -1.0739278442,
				"element": "H" 
			},
			{
				"x": 1.6280504474,
				"y": 3.1321482175,
				"z": -2.1972406377,
				"element": "H" 
			},
			{
				"x": 2.519330879,
				"y": 2.5866446362,
				"z": -0.8031038689,
				"element": "H" 
			},
			{
				"x": 3.2591975363,
				"y": -1.7917304147,
				"z": -3.6505309246,
				"element": "H" 
			},
			{
				"x": 5.2248467226,
				"y": -0.7469632946,
				"z": -4.798588237,
				"element": "H" 
			},
			{
				"x": 5.6596860417,
				"y": 1.6858390773,
				"z": -4.5012078078,
				"element": "H" 
			},
			{
				"x": 4.164387248,
				"y": 3.0523950569,
				"z": -3.0799920277,
				"element": "H" 
			}
		],
		 "valence_orbital": [ 
			{
				"type": "occ",
				"energy": -0.27032,
				"method": "rhf"
			},
			{
				"type": "occ",
				"energy": -0.26872,
				"method": "rhf"
			},
			{
				"type": "occ",
				"energy": -0.2631,
				"method": "rhf"
			},
			{
				"type": "occ",
				"energy": -0.25713,
				"method": "rhf"
			},
			{
				"type": "occ",
				"energy": -0.25161,
				"method": "rhf"
			},
			{
				"type": "unocc",
				"energy": -0.06113,
				"method": "rhf"
			},
			{
				"type": "unocc",
				"energy": -0.04579,
				"method": "rhf"
			},
			{
				"type": "unocc",
				"energy": -0.02446,
				"method": "rhf"
			},
			{
				"type": "unocc",
				"energy": -0.00871,
				"method": "rhf"
			},
			{
				"type": "unocc",
				"energy": -0.00601,
				"method": "rhf"
			}
		],
		"cosmo_sigma_profile": { 
			"-0.025": 0.0,
			"-0.024": 0.0,
			"-0.023": 0.0,
			"-0.022": 0.0,
			"-0.021": 0.0,
			"-0.02": 0.0,
			"-0.019": 0.0,
			"-0.018": 0.0,
			"-0.017": 0.0,
			"-0.016": 0.0,
			"-0.015": 0.0,
			"-0.014": 0.0,
			"-0.013": 0.0,
			"-0.012": 0.0,
			"-0.011": 0.0,
			"-0.01": 0.0,
			"-0.009": 0.162768957141,
			"-0.008": 4.45607799355,
			"-0.007": 14.3400094643,
			"-0.006": 26.9546662323,
			"-0.005": 28.0445948019,
			"-0.004": 27.3246450753,
			"-0.003": 26.3429168973,
			"-0.002": 25.4548460749,
			"-0.001": 22.7060230919,
			"0.0": 25.1690634579,
			"0.001": 25.8875012372,
			"0.002": 22.8117504171,
			"0.003": 23.1760923113,
			"0.004": 15.083663572,
			"0.005": 7.31620900161,
			"0.006": 5.44731703218,
			"0.007": 4.85339855289,
			"0.008": 4.31927672336,
			"0.009": 5.46159374503,
			"0.01": 6.62979645791,
			"0.011": 10.2458046132,
			"0.012": 10.567442911,
			"0.013": 0.821334598562,
			"0.014": 0.0,
			"0.015": 0.0,
			"0.016": 0.0,
			"0.017": 0.0,
			"0.018": 0.0,
			"0.019": 0.0,
			"0.02": 0.0,
			"0.021": 0.0,
			"0.022": 0.0,
			"0.023": 0.0,
			"0.024": 0.0,
			"0.025": 0.0
		}
	}
}
