{
	 "smiles": "N#CC(=CNC1=CC=CC=C1)C1=CC=CC=C1", 
	 "Tm": 429.15, 
	 "num_atms": 29, 
	 "gaussian": { 
		 "optdone": 1, 
		 "sigma_profile": "yes", 
		 "theory": "DFT", 
		 "functional": "B3LYP", 
		 "basiset": "6-31G**", 
		 "properties": { 
			 "R2extent": 6186.0547, 
			 "electric_dipole_moment_norm": 4.13838836868, 
			 "electric_quadrupole_moment_norm": 12.8514983835, 
			 "total_energy": -688.313355365, 
			 "HOMO_LUMO_gap": 0.15035, 
			 "cosmo_polarized_energy": -13.7, 
			 "cosmo_cavitation_energy": 34.54, 
			 "cosmo_dispersion_energy": -24.47, 
			 "cosmo_repulsion_energy": 1.88, 
			 "cosmo_total_nonelectrostatic_energy": 11.95, 
			 "SMD_solvation_energy": 6.86 
		},
		"coords": [
			{
				"x": -1.8061129172,
				"y": -1.7263787428,
				"z": 1.0726674876,
				"element": "N" 
			},
			{
				"x": -0.7573276378,
				"y": -1.2206657269,
				"z": 0.9961715375,
				"element": "C" 
			},
			{
				"x": 0.485683042,
				"y": -0.5310008675,
				"z": 0.8667759664,
				"element": "C" 
			},
			{
				"x": 0.453448346,
				"y": 0.7025083943,
				"z": 0.2712028535,
				"element": "C" 
			},
			{
				"x": -0.6753158428,
				"y": 1.3453216055,
				"z": -0.1329246081,
				"element": "N" 
			},
			{
				"x": -0.758898153,
				"y": 2.5534869782,
				"z": -0.8445127847,
				"element": "C" 
			},
			{
				"x": 0.3483200409,
				"y": 3.1362966376,
				"z": -1.4800060897,
				"element": "C" 
			},
			{
				"x": 0.2011047255,
				"y": 4.346069555,
				"z": -2.1574489943,
				"element": "C" 
			},
			{
				"x": -1.0391182815,
				"y": 4.9816999758,
				"z": -2.2301792022,
				"element": "C" 
			},
			{
				"x": -2.1436623465,
				"y": 4.3901983313,
				"z": -1.612893175,
				"element": "C" 
			},
			{
				"x": -2.008474175,
				"y": 3.189511763,
				"z": -0.9222501815,
				"element": "C" 
			},
			{
				"x": 1.7261761939,
				"y": -1.173494039,
				"z": 1.3542317206,
				"element": "C" 
			},
			{
				"x": 1.7921259392,
				"y": -2.5719301541,
				"z": 1.4867818129,
				"element": "C" 
			},
			{
				"x": 2.9604224487,
				"y": -3.1940642626,
				"z": 1.9221296765,
				"element": "C" 
			},
			{
				"x": 4.0912218289,
				"y": -2.4368290269,
				"z": 2.2328484321,
				"element": "C" 
			},
			{
				"x": 4.0346945433,
				"y": -1.0462307203,
				"z": 2.117637756,
				"element": "C" 
			},
			{
				"x": 2.8641223978,
				"y": -0.4199519613,
				"z": 1.6951286512,
				"element": "C" 
			},
			{
				"x": 1.3807118548,
				"y": 1.2364098088,
				"z": 0.1041242691,
				"element": "H" 
			},
			{
				"x": -1.5556743964,
				"y": 0.8988672475,
				"z": 0.0974914544,
				"element": "H" 
			},
			{
				"x": 1.3148733234,
				"y": 2.64441165,
				"z": -1.4728660323,
				"element": "H" 
			},
			{
				"x": 1.0666262717,
				"y": 4.7854812847,
				"z": -2.6448161933,
				"element": "H" 
			},
			{
				"x": -1.1451428017,
				"y": 5.919759484,
				"z": -2.7654566538,
				"element": "H" 
			},
			{
				"x": -3.117961828,
				"y": 4.8673732068,
				"z": -1.6625139055,
				"element": "H" 
			},
			{
				"x": -2.8688881765,
				"y": 2.7416324999,
				"z": -0.4312968441,
				"element": "H" 
			},
			{
				"x": 0.9212241648,
				"y": -3.1722370672,
				"z": 1.2402476397,
				"element": "H" 
			},
			{
				"x": 2.9866290066,
				"y": -4.2760981963,
				"z": 2.0143708065,
				"element": "H" 
			},
			{
				"x": 5.0013434035,
				"y": -2.9222852227,
				"z": 2.572113987,
				"element": "H" 
			},
			{
				"x": 4.9000298654,
				"y": -0.4424819624,
				"z": 2.3764313606,
				"element": "H" 
			},
			{
				"x": 2.8285191598,
				"y": 0.6650195278,
				"z": 1.6595092529,
				"element": "H" 
			}
		],
		 "valence_orbital": [ 
			{
				"type": "occ",
				"energy": -0.28529,
				"method": "rhf"
			},
			{
				"type": "occ",
				"energy": -0.26496,
				"method": "rhf"
			},
			{
				"type": "occ",
				"energy": -0.25327,
				"method": "rhf"
			},
			{
				"type": "occ",
				"energy": -0.25284,
				"method": "rhf"
			},
			{
				"type": "occ",
				"energy": -0.19999,
				"method": "rhf"
			},
			{
				"type": "unocc",
				"energy": -0.04964,
				"method": "rhf"
			},
			{
				"type": "unocc",
				"energy": -0.01518,
				"method": "rhf"
			},
			{
				"type": "unocc",
				"energy": -0.00454,
				"method": "rhf"
			},
			{
				"type": "unocc",
				"energy": 0.00287,
				"method": "rhf"
			},
			{
				"type": "unocc",
				"energy": 0.01498,
				"method": "rhf"
			}
		],
		"cosmo_sigma_profile": { 
			"-0.025": 0.0,
			"-0.024": 0.0,
			"-0.023": 0.0,
			"-0.022": 0.0,
			"-0.021": 0.0,
			"-0.02": 0.0,
			"-0.019": 0.0,
			"-0.018": 0.0,
			"-0.017": 0.0,
			"-0.016": 0.0,
			"-0.015": 0.0,
			"-0.014": 0.181445469587,
			"-0.013": 1.39196031052,
			"-0.012": 1.17447922728,
			"-0.011": 1.23603552039,
			"-0.01": 2.98042706345,
			"-0.009": 4.03881879315,
			"-0.008": 4.92957878743,
			"-0.007": 5.10821782839,
			"-0.006": 13.3613852522,
			"-0.005": 20.3963199277,
			"-0.004": 21.7918977287,
			"-0.003": 21.8626359227,
			"-0.002": 14.6407871649,
			"-0.001": 17.070643885,
			"0.0": 19.4671673379,
			"0.001": 20.7751498574,
			"0.002": 18.5934343041,
			"0.003": 18.9857307246,
			"0.004": 18.5819425298,
			"0.005": 21.0719105929,
			"0.006": 11.4527716587,
			"0.007": 2.65259962935,
			"0.008": 2.20625220414,
			"0.009": 2.27175523953,
			"0.01": 3.4705035963,
			"0.011": 2.73411540485,
			"0.012": 3.03770139859,
			"0.013": 2.37285905884,
			"0.014": 0.892073017597,
			"0.015": 0.0,
			"0.016": 0.0,
			"0.017": 0.0,
			"0.018": 0.0,
			"0.019": 0.0,
			"0.02": 0.0,
			"0.021": 0.0,
			"0.022": 0.0,
			"0.023": 0.0,
			"0.024": 0.0,
			"0.025": 0.0
		}
	}
}
