{
	 "smiles": "NC1=NC(CN2CCN(CC2)C2=NC=CC=N2)=CS1", 
	 "Tm": 432.15, 
	 "num_atms": 35, 
	 "gaussian": { 
		 "optdone": 1, 
		 "sigma_profile": "yes", 
		 "theory": "DFT", 
		 "functional": "B3LYP", 
		 "basiset": "6-31G**", 
		 "properties": { 
			 "R2extent": 7261.9594, 
			 "electric_dipole_moment_norm": 2.08656582211, 
			 "electric_quadrupole_moment_norm": 7.4327147786, 
			 "total_energy": -1193.59740045, 
			 "HOMO_LUMO_gap": 0.17556, 
			 "cosmo_polarized_energy": -14.68, 
			 "cosmo_cavitation_energy": 38.73, 
			 "cosmo_dispersion_energy": -28.33, 
			 "cosmo_repulsion_energy": 2.15, 
			 "cosmo_total_nonelectrostatic_energy": 12.55, 
			 "SMD_solvation_energy": 0.28 
		},
		"coords": [
			{
				"x": -3.8849165087,
				"y": -2.3021806971,
				"z": 1.5246123461,
				"element": "N" 
			},
			{
				"x": -2.9515816871,
				"y": -1.6487163275,
				"z": 2.2965260179,
				"element": "C" 
			},
			{
				"x": -1.6651942487,
				"y": -1.8057964039,
				"z": 2.1719706767,
				"element": "N" 
			},
			{
				"x": -0.9761343126,
				"y": -1.081519683,
				"z": 3.134906803,
				"element": "C" 
			},
			{
				"x": 0.5398977432,
				"y": -1.130491466,
				"z": 3.1523454884,
				"element": "C" 
			},
			{
				"x": 1.2328672858,
				"y": -0.5335694577,
				"z": 2.014739618,
				"element": "N" 
			},
			{
				"x": 1.1628190933,
				"y": -1.2684429194,
				"z": 0.7392849889,
				"element": "C" 
			},
			{
				"x": 0.4027489969,
				"y": -0.5216281051,
				"z": -0.3594369203,
				"element": "C" 
			},
			{
				"x": 0.9959065448,
				"y": 0.8039131243,
				"z": -0.5597673664,
				"element": "N" 
			},
			{
				"x": 1.6490657847,
				"y": 1.4308716964,
				"z": 0.5919741994,
				"element": "C" 
			},
			{
				"x": 1.0320271366,
				"y": 0.9078735934,
				"z": 1.8861672404,
				"element": "C" 
			},
			{
				"x": 0.9449915143,
				"y": 1.4312968402,
				"z": -1.7678371489,
				"element": "C" 
			},
			{
				"x": 1.5714202953,
				"y": 2.6294454133,
				"z": -1.8701877427,
				"element": "N" 
			},
			{
				"x": 1.504975973,
				"y": 3.2260667807,
				"z": -3.0581540523,
				"element": "C" 
			},
			{
				"x": 0.8490496984,
				"y": 2.6741661867,
				"z": -4.1585741673,
				"element": "C" 
			},
			{
				"x": 0.2453078039,
				"y": 1.4362819303,
				"z": -3.9376774659,
				"element": "C" 
			},
			{
				"x": 0.2727458066,
				"y": 0.8058902523,
				"z": -2.7656056254,
				"element": "N" 
			},
			{
				"x": -1.7503157881,
				"y": -0.3605050381,
				"z": 3.9931025574,
				"element": "C" 
			},
			{
				"x": -3.4470428869,
				"y": -0.5910158037,
				"z": 3.6265053541,
				"element": "S" 
			},
			{
				"x": -3.4880781175,
				"y": -2.7135705933,
				"z": 0.689798173,
				"element": "H" 
			},
			{
				"x": -4.7633321666,
				"y": -1.8284732546,
				"z": 1.3700362999,
				"element": "H" 
			},
			{
				"x": 0.8896691709,
				"y": -0.6283985655,
				"z": 4.0630385146,
				"element": "H" 
			},
			{
				"x": 0.8550856192,
				"y": -2.1778904957,
				"z": 3.2266768497,
				"element": "H" 
			},
			{
				"x": 0.6691828691,
				"y": -2.2295825973,
				"z": 0.8992004961,
				"element": "H" 
			},
			{
				"x": 2.1821445761,
				"y": -1.4743823247,
				"z": 0.379591688,
				"element": "H" 
			},
			{
				"x": -0.6583506319,
				"y": -0.4389730109,
				"z": -0.0897212633,
				"element": "H" 
			},
			{
				"x": 0.4552659762,
				"y": -1.0726587584,
				"z": -1.3001778536,
				"element": "H" 
			},
			{
				"x": 1.5239717643,
				"y": 2.512444971,
				"z": 0.5217270878,
				"element": "H" 
			},
			{
				"x": 2.7300419075,
				"y": 1.2292739513,
				"z": 0.5844917851,
				"element": "H" 
			},
			{
				"x": -0.0348262632,
				"y": 1.1951537587,
				"z": 1.9095563845,
				"element": "H" 
			},
			{
				"x": 1.5127059289,
				"y": 1.4120903188,
				"z": 2.7356472946,
				"element": "H" 
			},
			{
				"x": 2.0055575761,
				"y": 4.1914401293,
				"z": -3.1342064492,
				"element": "H" 
			},
			{
				"x": 0.8110204808,
				"y": 3.1731092602,
				"z": -5.1194317608,
				"element": "H" 
			},
			{
				"x": -0.2908197183,
				"y": 0.9273049214,
				"z": -4.7389147734,
				"element": "H" 
			},
			{
				"x": -1.4429772163,
				"y": 0.2806723734,
				"z": 4.8064927258,
				"element": "H" 
			}
		],
		 "valence_orbital": [ 
			{
				"type": "occ",
				"energy": -0.27382,
				"method": "rhf"
			},
			{
				"type": "occ",
				"energy": -0.23304,
				"method": "rhf"
			},
			{
				"type": "occ",
				"energy": -0.21277,
				"method": "rhf"
			},
			{
				"type": "occ",
				"energy": -0.20141,
				"method": "rhf"
			},
			{
				"type": "occ",
				"energy": -0.19688,
				"method": "rhf"
			},
			{
				"type": "unocc",
				"energy": -0.02132,
				"method": "rhf"
			},
			{
				"type": "unocc",
				"energy": -0.0052,
				"method": "rhf"
			},
			{
				"type": "unocc",
				"energy": 0.01088,
				"method": "rhf"
			},
			{
				"type": "unocc",
				"energy": 0.01276,
				"method": "rhf"
			},
			{
				"type": "unocc",
				"energy": 0.05374,
				"method": "rhf"
			}
		],
		"cosmo_sigma_profile": { 
			"-0.025": 0.0,
			"-0.024": 0.0,
			"-0.023": 0.0,
			"-0.022": 0.0,
			"-0.021": 0.0,
			"-0.02": 0.0,
			"-0.019": 0.0,
			"-0.018": 0.0,
			"-0.017": 0.0,
			"-0.016": 0.0,
			"-0.015": 0.16815158733,
			"-0.014": 1.70425709979,
			"-0.013": 2.39101750944,
			"-0.012": 2.79737200779,
			"-0.011": 2.77901583728,
			"-0.01": 2.57680865858,
			"-0.009": 2.04321896622,
			"-0.008": 3.03011307333,
			"-0.007": 5.86345599297,
			"-0.006": 10.8150395573,
			"-0.005": 13.1248521947,
			"-0.004": 19.7469255591,
			"-0.003": 26.725654164,
			"-0.002": 27.4349481365,
			"-0.001": 24.5721209788,
			"0.0": 22.1409469926,
			"0.001": 24.0273805021,
			"0.002": 28.1111570783,
			"0.003": 22.9742077624,
			"0.004": 17.4007818044,
			"0.005": 11.3567410377,
			"0.006": 6.0104176102,
			"0.007": 5.97658697746,
			"0.008": 5.9050372895,
			"0.009": 4.41920985353,
			"0.01": 5.19528604572,
			"0.011": 3.34446782446,
			"0.012": 3.03060035429,
			"0.013": 1.90754473646,
			"0.014": 0.634083766728,
			"0.015": 0.230447025863,
			"0.016": 0.0,
			"0.017": 0.0,
			"0.018": 0.0,
			"0.019": 0.0,
			"0.02": 0.0,
			"0.021": 0.0,
			"0.022": 0.0,
			"0.023": 0.0,
			"0.024": 0.0,
			"0.025": 0.0
		}
	}
}
