{
	 "smiles": "FC1=C(F)C(C#N)=C(F)C(F)=C1C#N", 
	 "Tm": 471.15, 
	 "num_atms": 14, 
	 "gaussian": { 
		 "optdone": 1, 
		 "sigma_profile": "yes", 
		 "theory": "DFT", 
		 "functional": "B3LYP", 
		 "basiset": "6-31G**", 
		 "properties": { 
			 "R2extent": 2580.3965, 
			 "electric_dipole_moment_norm": 0.0, 
			 "electric_quadrupole_moment_norm": 19.9756824744, 
			 "total_energy": -813.615932765, 
			 "HOMO_LUMO_gap": 0.17707, 
			 "cosmo_polarized_energy": -10.29, 
			 "cosmo_cavitation_energy": 24.25, 
			 "cosmo_dispersion_energy": -15.88, 
			 "cosmo_repulsion_energy": 1.17, 
			 "cosmo_total_nonelectrostatic_energy": 9.53, 
			 "SMD_solvation_energy": 8.82 
		},
		"coords": [
			{
				"x": -2.1542315568,
				"y": -1.7804923409,
				"z": -0.4598721487,
				"element": "F" 
			},
			{
				"x": -1.0766503752,
				"y": -1.0034285684,
				"z": -0.3893226032,
				"element": "C" 
			},
			{
				"x": -0.9659131534,
				"y": -0.0811411955,
				"z": 0.6442118856,
				"element": "C" 
			},
			{
				"x": -1.93922935,
				"y": 0.0100351148,
				"z": 1.5466277791,
				"element": "F" 
			},
			{
				"x": 0.1600026649,
				"y": 0.7509192387,
				"z": 0.7424583391,
				"element": "C" 
			},
			{
				"x": 0.2736895876,
				"y": 1.6978682269,
				"z": 1.8036135376,
				"element": "C" 
			},
			{
				"x": 0.3662888974,
				"y": 2.4690426427,
				"z": 2.6677584309,
				"element": "N" 
			},
			{
				"x": 1.1719638118,
				"y": 0.6338624012,
				"z": -0.2228762622,
				"element": "C" 
			},
			{
				"x": 2.2495517407,
				"y": 1.4109193625,
				"z": -0.1523404523,
				"element": "F" 
			},
			{
				"x": 1.0612255468,
				"y": -0.2884299365,
				"z": -1.2564159393,
				"element": "C" 
			},
			{
				"x": 2.0345502246,
				"y": -0.3795951016,
				"z": -2.1588250574,
				"element": "F" 
			},
			{
				"x": -0.0646806448,
				"y": -1.1204886418,
				"z": -1.3546609895,
				"element": "C" 
			},
			{
				"x": -0.1783906479,
				"y": -2.0674457082,
				"z": -2.4158074547,
				"element": "C" 
			},
			{
				"x": -0.2709767459,
				"y": -2.8386254939,
				"z": -3.2799490649,
				"element": "N" 
			}
		],
		 "valence_orbital": [ 
			{
				"type": "occ",
				"energy": -0.37089,
				"method": "rhf"
			},
			{
				"type": "occ",
				"energy": -0.37017,
				"method": "rhf"
			},
			{
				"type": "occ",
				"energy": -0.36188,
				"method": "rhf"
			},
			{
				"type": "occ",
				"energy": -0.30563,
				"method": "rhf"
			},
			{
				"type": "occ",
				"energy": -0.29487,
				"method": "rhf"
			},
			{
				"type": "unocc",
				"energy": -0.1178,
				"method": "rhf"
			},
			{
				"type": "unocc",
				"energy": -0.05443,
				"method": "rhf"
			},
			{
				"type": "unocc",
				"energy": -0.01536,
				"method": "rhf"
			},
			{
				"type": "unocc",
				"energy": -0.00438,
				"method": "rhf"
			},
			{
				"type": "unocc",
				"energy": 0.00106,
				"method": "rhf"
			}
		],
		"cosmo_sigma_profile": { 
			"-0.025": 0.0,
			"-0.024": 0.0,
			"-0.023": 0.0,
			"-0.022": 0.0,
			"-0.021": 0.0,
			"-0.02": 0.0,
			"-0.019": 0.0,
			"-0.018": 0.0,
			"-0.017": 0.0,
			"-0.016": 0.0,
			"-0.015": 0.0,
			"-0.014": 0.0,
			"-0.013": 0.0,
			"-0.012": 0.0,
			"-0.011": 0.0,
			"-0.01": 0.152175425932,
			"-0.009": 1.3227029195,
			"-0.008": 1.93675243967,
			"-0.007": 13.6270556898,
			"-0.006": 22.9533382453,
			"-0.005": 8.70117409577,
			"-0.004": 8.39495660649,
			"-0.003": 7.40203414278,
			"-0.002": 8.7369114852,
			"-0.001": 10.3628355032,
			"0.0": 14.6254797673,
			"0.001": 43.2671910196,
			"0.002": 11.1774554497,
			"0.003": 6.42694640042,
			"0.004": 4.27566724393,
			"0.005": 5.78936065513,
			"0.006": 6.10433819781,
			"0.007": 6.33597071755,
			"0.008": 5.54931075059,
			"0.009": 5.38905346516,
			"0.01": 4.3824700958,
			"0.011": 3.221498372,
			"0.012": 0.201808037311,
			"0.013": 0.0,
			"0.014": 0.0,
			"0.015": 0.0,
			"0.016": 0.0,
			"0.017": 0.0,
			"0.018": 0.0,
			"0.019": 0.0,
			"0.02": 0.0,
			"0.021": 0.0,
			"0.022": 0.0,
			"0.023": 0.0,
			"0.024": 0.0,
			"0.025": 0.0
		}
	}
}
