{
	 "smiles": "COC1=C(OC)C=C(CC2=NN=C(S)N2N)C=C1", 
	 "Tm": 451.15, 
	 "num_atms": 32, 
	 "gaussian": { 
		 "optdone": 1, 
		 "sigma_profile": "yes", 
		 "theory": "DFT", 
		 "functional": "B3LYP", 
		 "basiset": "6-31G**", 
		 "properties": { 
			 "R2extent": 6993.2587, 
			 "electric_dipole_moment_norm": 5.76165751325, 
			 "electric_quadrupole_moment_norm": 23.7470360704, 
			 "total_energy": -1195.1557805, 
			 "HOMO_LUMO_gap": 0.2147, 
			 "cosmo_polarized_energy": -22.56, 
			 "cosmo_cavitation_energy": 38.27, 
			 "cosmo_dispersion_energy": -26.76, 
			 "cosmo_repulsion_energy": 2.07, 
			 "cosmo_total_nonelectrostatic_energy": 13.58, 
			 "SMD_solvation_energy": 5.75 
		},
		"coords": [
			{
				"x": -0.8202291394,
				"y": 0.9254382944,
				"z": -3.9371081184,
				"element": "C" 
			},
			{
				"x": -1.0491239837,
				"y": -0.3939039496,
				"z": -3.4295388566,
				"element": "O" 
			},
			{
				"x": -0.6626215792,
				"y": -0.5860455573,
				"z": -2.1209600216,
				"element": "C" 
			},
			{
				"x": -1.3535776996,
				"y": 0.0125919196,
				"z": -1.0519442515,
				"element": "C" 
			},
			{
				"x": -2.4119677051,
				"y": 0.8693002497,
				"z": -1.2656254425,
				"element": "O" 
			},
			{
				"x": -3.5972047749,
				"y": 0.2439521855,
				"z": -1.7738320553,
				"element": "C" 
			},
			{
				"x": -0.9379081561,
				"y": -0.2255828199,
				"z": 0.2600154973,
				"element": "C" 
			},
			{
				"x": 0.146479999,
				"y": -1.0652266587,
				"z": 0.5333486461,
				"element": "C" 
			},
			{
				"x": 0.594406358,
				"y": -1.3206655017,
				"z": 1.9669207747,
				"element": "C" 
			},
			{
				"x": 1.9418893175,
				"y": -0.7432402601,
				"z": 2.2631284065,
				"element": "C" 
			},
			{
				"x": 3.0818961924,
				"y": -1.4033584182,
				"z": 2.2989131841,
				"element": "N" 
			},
			{
				"x": 4.0924724468,
				"y": -0.4994175531,
				"z": 2.5584656374,
				"element": "N" 
			},
			{
				"x": 3.5459274554,
				"y": 0.6894615549,
				"z": 2.6493434166,
				"element": "C" 
			},
			{
				"x": 4.3603582843,
				"y": 2.1970095229,
				"z": 3.0773651591,
				"element": "S" 
			},
			{
				"x": 2.1752062212,
				"y": 0.5872790676,
				"z": 2.4789801809,
				"element": "N" 
			},
			{
				"x": 1.1839479908,
				"y": 1.5744719158,
				"z": 2.5379936142,
				"element": "N" 
			},
			{
				"x": 0.8167625271,
				"y": -1.6726818437,
				"z": -0.5362669656,
				"element": "C" 
			},
			{
				"x": 0.4155149742,
				"y": -1.4310987144,
				"z": -1.8489068003,
				"element": "C" 
			},
			{
				"x": 0.2506500834,
				"y": 1.1653588406,
				"z": -3.9254198593,
				"element": "H" 
			},
			{
				"x": -1.3680141081,
				"y": 1.6764837873,
				"z": -3.3592455727,
				"element": "H" 
			},
			{
				"x": -1.1760816465,
				"y": 0.9223115068,
				"z": -4.9694428546,
				"element": "H" 
			},
			{
				"x": -3.4111617456,
				"y": -0.2393022858,
				"z": -2.7377959528,
				"element": "H" 
			},
			{
				"x": -3.9792762604,
				"y": -0.4979721991,
				"z": -1.0614692647,
				"element": "H" 
			},
			{
				"x": -4.3348128646,
				"y": 1.0399536299,
				"z": -1.8950225813,
				"element": "H" 
			},
			{
				"x": -1.4835261308,
				"y": 0.2596721301,
				"z": 1.0639008597,
				"element": "H" 
			},
			{
				"x": -0.1386839213,
				"y": -0.9039245295,
				"z": 2.6637605103,
				"element": "H" 
			},
			{
				"x": 0.6691217893,
				"y": -2.395794039,
				"z": 2.1551173608,
				"element": "H" 
			},
			{
				"x": 4.5468729229,
				"y": 2.6576606173,
				"z": 1.8204359175,
				"element": "H" 
			},
			{
				"x": 1.4215059028,
				"y": 2.2090708204,
				"z": 3.2975083899,
				"element": "H" 
			},
			{
				"x": 1.1965011927,
				"y": 2.1056997876,
				"z": 1.6689811707,
				"element": "H" 
			},
			{
				"x": 1.6648489638,
				"y": -2.3222174251,
				"z": -0.338353242,
				"element": "H" 
			},
			{
				"x": 0.9291270938,
				"y": -1.8913840754,
				"z": -2.6872468865,
				"element": "H" 
			}
		],
		 "valence_orbital": [ 
			{
				"type": "occ",
				"energy": -0.26805,
				"method": "rhf"
			},
			{
				"type": "occ",
				"energy": -0.25886,
				"method": "rhf"
			},
			{
				"type": "occ",
				"energy": -0.24989,
				"method": "rhf"
			},
			{
				"type": "occ",
				"energy": -0.24697,
				"method": "rhf"
			},
			{
				"type": "occ",
				"energy": -0.22889,
				"method": "rhf"
			},
			{
				"type": "unocc",
				"energy": -0.01419,
				"method": "rhf"
			},
			{
				"type": "unocc",
				"energy": -0.00533,
				"method": "rhf"
			},
			{
				"type": "unocc",
				"energy": -0.004,
				"method": "rhf"
			},
			{
				"type": "unocc",
				"energy": 0.02855,
				"method": "rhf"
			},
			{
				"type": "unocc",
				"energy": 0.04355,
				"method": "rhf"
			}
		],
		"cosmo_sigma_profile": { 
			"-0.025": 0.0,
			"-0.024": 0.0,
			"-0.023": 0.0,
			"-0.022": 0.0,
			"-0.021": 0.0,
			"-0.02": 0.0,
			"-0.019": 0.0,
			"-0.018": 0.0,
			"-0.017": 0.0,
			"-0.016": 0.0,
			"-0.015": 0.0,
			"-0.014": 0.522821871148,
			"-0.013": 2.17595753344,
			"-0.012": 3.75840310029,
			"-0.011": 6.82355080268,
			"-0.01": 4.21400182808,
			"-0.009": 4.55344019066,
			"-0.008": 3.87661924696,
			"-0.007": 3.38411111107,
			"-0.006": 10.0794335751,
			"-0.005": 17.7274029919,
			"-0.004": 24.3548350472,
			"-0.003": 29.1226287154,
			"-0.002": 28.5287867476,
			"-0.001": 21.6709663125,
			"0.0": 19.771407062,
			"0.001": 16.1751618567,
			"0.002": 17.8359493324,
			"0.003": 16.8385706187,
			"0.004": 14.772888243,
			"0.005": 12.7342718693,
			"0.006": 5.19022492132,
			"0.007": 6.73533217219,
			"0.008": 5.40915900089,
			"0.009": 4.38632864791,
			"0.01": 4.23896490554,
			"0.011": 5.05661864911,
			"0.012": 4.00751044282,
			"0.013": 3.5161295845,
			"0.014": 2.96096176857,
			"0.015": 2.69310277586,
			"0.016": 2.16156180582,
			"0.017": 0.761353571317,
			"0.018": 0.0,
			"0.019": 0.0,
			"0.02": 0.0,
			"0.021": 0.0,
			"0.022": 0.0,
			"0.023": 0.0,
			"0.024": 0.0,
			"0.025": 0.0
		}
	}
}
