{
	 "smiles": "NC1=NC2=C(S1)N=C(Cl)N=C2", 
	 "Tm": 483.15, 
	 "num_atms": 14, 
	 "gaussian": { 
		 "optdone": 1, 
		 "sigma_profile": "yes", 
		 "theory": "DFT", 
		 "functional": "B3LYP", 
		 "basiset": "6-31G**", 
		 "properties": { 
			 "R2extent": 3048.0205, 
			 "electric_dipole_moment_norm": 6.26276147159, 
			 "electric_quadrupole_moment_norm": 5.40837500826, 
			 "total_energy": -1269.72613631, 
			 "HOMO_LUMO_gap": 0.18546, 
			 "cosmo_polarized_energy": -14.34, 
			 "cosmo_cavitation_energy": 22.69, 
			 "cosmo_dispersion_energy": -18.13, 
			 "cosmo_repulsion_energy": 1.41, 
			 "cosmo_total_nonelectrostatic_energy": 5.98, 
			 "SMD_solvation_energy": -1.52 
		},
		"coords": [
			{
				"x": -1.7409422394,
				"y": 2.454389536,
				"z": 0.2307650187,
				"element": "N" 
			},
			{
				"x": -0.8092765609,
				"y": 1.5740432733,
				"z": -0.225186612,
				"element": "C" 
			},
			{
				"x": 0.1095131616,
				"y": 1.878340077,
				"z": -1.0934007132,
				"element": "N" 
			},
			{
				"x": 0.9351244342,
				"y": 0.7957561524,
				"z": -1.3043707762,
				"element": "C" 
			},
			{
				"x": 0.6336658881,
				"y": -0.3821095451,
				"z": -0.5799546614,
				"element": "C" 
			},
			{
				"x": -0.7749445524,
				"y": -0.0918882012,
				"z": 0.4448663734,
				"element": "S" 
			},
			{
				"x": 1.3071262115,
				"y": -1.5170667192,
				"z": -0.6631208637,
				"element": "N" 
			},
			{
				"x": 2.3345104339,
				"y": -1.4674416482,
				"z": -1.5115000675,
				"element": "C" 
			},
			{
				"x": 3.2650106818,
				"y": -2.9447440951,
				"z": -1.6614007646,
				"element": "Cl" 
			},
			{
				"x": 2.7390780489,
				"y": -0.4428919653,
				"z": -2.2541575797,
				"element": "N" 
			},
			{
				"x": 2.0391479039,
				"y": 0.6944281658,
				"z": -2.1531429024,
				"element": "C" 
			},
			{
				"x": -1.8085615432,
				"y": 3.3185605615,
				"z": -0.2886560656,
				"element": "H" 
			},
			{
				"x": -2.5942129533,
				"y": 2.1065673962,
				"z": 0.6393589533,
				"element": "H" 
			},
			{
				"x": 2.3634610853,
				"y": 1.5377570117,
				"z": -2.7579993393,
				"element": "H" 
			}
		],
		 "valence_orbital": [ 
			{
				"type": "occ",
				"energy": -0.30967,
				"method": "rhf"
			},
			{
				"type": "occ",
				"energy": -0.30365,
				"method": "rhf"
			},
			{
				"type": "occ",
				"energy": -0.28407,
				"method": "rhf"
			},
			{
				"type": "occ",
				"energy": -0.26328,
				"method": "rhf"
			},
			{
				"type": "occ",
				"energy": -0.23792,
				"method": "rhf"
			},
			{
				"type": "unocc",
				"energy": -0.05246,
				"method": "rhf"
			},
			{
				"type": "unocc",
				"energy": -0.04104,
				"method": "rhf"
			},
			{
				"type": "unocc",
				"energy": -0.01979,
				"method": "rhf"
			},
			{
				"type": "unocc",
				"energy": 0.01566,
				"method": "rhf"
			},
			{
				"type": "unocc",
				"energy": 0.03699,
				"method": "rhf"
			}
		],
		"cosmo_sigma_profile": { 
			"-0.025": 0.0,
			"-0.024": 0.0,
			"-0.023": 0.0,
			"-0.022": 0.0,
			"-0.021": 0.0,
			"-0.02": 0.0,
			"-0.019": 0.0,
			"-0.018": 0.0,
			"-0.017": 0.0,
			"-0.016": 1.35604920727,
			"-0.015": 2.50612701824,
			"-0.014": 2.53100627379,
			"-0.013": 3.30329793055,
			"-0.012": 2.45981625463,
			"-0.011": 2.67424461339,
			"-0.01": 1.53951860029,
			"-0.009": 2.23419915366,
			"-0.008": 3.25584909107,
			"-0.007": 3.27342979854,
			"-0.006": 3.78868778876,
			"-0.005": 3.52010224282,
			"-0.004": 6.22304958245,
			"-0.003": 11.2451828453,
			"-0.002": 15.716964454,
			"-0.001": 16.7851588472,
			"0.0": 17.0807419613,
			"0.001": 13.1474456401,
			"0.002": 12.7874964182,
			"0.003": 12.3260397154,
			"0.004": 14.0637262155,
			"0.005": 8.45988125731,
			"0.006": 5.0575792756,
			"0.007": 5.24536246416,
			"0.008": 3.58924667586,
			"0.009": 3.72411003154,
			"0.01": 2.48871629916,
			"0.011": 2.86319928524,
			"0.012": 2.22249210805,
			"0.013": 1.90884756961,
			"0.014": 0.802839910077,
			"0.015": 0.00645761088521,
			"0.016": 0.0,
			"0.017": 0.0,
			"0.018": 0.0,
			"0.019": 0.0,
			"0.02": 0.0,
			"0.021": 0.0,
			"0.022": 0.0,
			"0.023": 0.0,
			"0.024": 0.0,
			"0.025": 0.0
		}
	}
}
