{
	 "smiles": "NC(=S)C1=CC=C(OCC(F)(F)F)N=C1", 
	 "Tm": 395.15, 
	 "num_atms": 22, 
	 "gaussian": { 
		 "optdone": 1, 
		 "sigma_profile": "yes", 
		 "theory": "DFT", 
		 "functional": "B3LYP", 
		 "basiset": "6-31G**", 
		 "properties": { 
			 "R2extent": 5327.101, 
			 "electric_dipole_moment_norm": 5.49342954902, 
			 "electric_quadrupole_moment_norm": 17.9323672827, 
			 "total_energy": -1191.51151297, 
			 "HOMO_LUMO_gap": 0.14615, 
			 "cosmo_polarized_energy": -17.74, 
			 "cosmo_cavitation_energy": 30.24, 
			 "cosmo_dispersion_energy": -21.93, 
			 "cosmo_repulsion_energy": 1.64, 
			 "cosmo_total_nonelectrostatic_energy": 9.95, 
			 "SMD_solvation_energy": 5.02 
		},
		"coords": [
			{
				"x": 4.1779542309,
				"y": 1.5265430643,
				"z": 0.3021786465,
				"element": "N" 
			},
			{
				"x": 3.4341237449,
				"y": 0.4456081452,
				"z": 0.6439923469,
				"element": "C" 
			},
			{
				"x": 4.0160707955,
				"y": -0.7132826644,
				"z": 1.6939107922,
				"element": "S" 
			},
			{
				"x": 2.1036880542,
				"y": 0.3665329548,
				"z": -0.006412567,
				"element": "C" 
			},
			{
				"x": 1.8385045356,
				"y": 0.9456981514,
				"z": -1.2647972301,
				"element": "C" 
			},
			{
				"x": 0.578419241,
				"y": 0.8397821744,
				"z": -1.8260362751,
				"element": "C" 
			},
			{
				"x": -0.4015070376,
				"y": 0.149516951,
				"z": -1.0948441653,
				"element": "C" 
			},
			{
				"x": -1.6370576652,
				"y": 0.0849318865,
				"z": -1.6570537663,
				"element": "O" 
			},
			{
				"x": -2.6352195779,
				"y": -0.7085272982,
				"z": -1.0252300801,
				"element": "C" 
			},
			{
				"x": -2.7523961652,
				"y": -2.0496090341,
				"z": -1.7315766923,
				"element": "C" 
			},
			{
				"x": -3.1081576289,
				"y": -1.9056020067,
				"z": -3.0224122004,
				"element": "F" 
			},
			{
				"x": -1.5936123013,
				"y": -2.7318646313,
				"z": -1.7000248525,
				"element": "F" 
			},
			{
				"x": -3.6993718831,
				"y": -2.7935830605,
				"z": -1.1205801082,
				"element": "F" 
			},
			{
				"x": -0.1822687926,
				"y": -0.4056733624,
				"z": 0.0901974418,
				"element": "N" 
			},
			{
				"x": 1.0424629278,
				"y": -0.3042891643,
				"z": 0.615019427,
				"element": "C" 
			},
			{
				"x": 5.0762530307,
				"y": 1.6365509487,
				"z": 0.750251037,
				"element": "H" 
			},
			{
				"x": 3.7568532072,
				"y": 2.3400444259,
				"z": -0.1219383266,
				"element": "H" 
			},
			{
				"x": 2.6298095638,
				"y": 1.4404010903,
				"z": -1.820424794,
				"element": "H" 
			},
			{
				"x": 0.3382259723,
				"y": 1.2520869877,
				"z": -2.7989092918,
				"element": "H" 
			},
			{
				"x": -3.5841656083,
				"y": -0.1784235507,
				"z": -1.1286909767,
				"element": "H" 
			},
			{
				"x": -2.4012173473,
				"y": -0.8801374702,
				"z": 0.0257992001,
				"element": "H" 
			},
			{
				"x": 1.2017087034,
				"y": -0.7717045374,
				"z": 1.5823824347,
				"element": "H" 
			}
		],
		 "valence_orbital": [ 
			{
				"type": "occ",
				"energy": -0.30769,
				"method": "rhf"
			},
			{
				"type": "occ",
				"energy": -0.28562,
				"method": "rhf"
			},
			{
				"type": "occ",
				"energy": -0.26091,
				"method": "rhf"
			},
			{
				"type": "occ",
				"energy": -0.2343,
				"method": "rhf"
			},
			{
				"type": "occ",
				"energy": -0.21318,
				"method": "rhf"
			},
			{
				"type": "unocc",
				"energy": -0.06703,
				"method": "rhf"
			},
			{
				"type": "unocc",
				"energy": -0.04234,
				"method": "rhf"
			},
			{
				"type": "unocc",
				"energy": 0.01341,
				"method": "rhf"
			},
			{
				"type": "unocc",
				"energy": 0.06258,
				"method": "rhf"
			},
			{
				"type": "unocc",
				"energy": 0.08466,
				"method": "rhf"
			}
		],
		"cosmo_sigma_profile": { 
			"-0.025": 0.0,
			"-0.024": 0.0,
			"-0.023": 0.0,
			"-0.022": 0.0,
			"-0.021": 0.0,
			"-0.02": 0.0,
			"-0.019": 0.0,
			"-0.018": 0.0,
			"-0.017": 0.0,
			"-0.016": 0.555739617466,
			"-0.015": 2.03004484013,
			"-0.014": 2.88140937963,
			"-0.013": 2.82747081984,
			"-0.012": 2.51352510299,
			"-0.011": 2.34168136686,
			"-0.01": 3.06026579166,
			"-0.009": 4.60480848873,
			"-0.008": 6.50837336256,
			"-0.007": 8.9894110836,
			"-0.006": 8.53704302516,
			"-0.005": 7.72021644023,
			"-0.004": 8.71299530012,
			"-0.003": 8.44986662631,
			"-0.002": 8.22248374189,
			"-0.001": 17.0467846578,
			"0.0": 19.0066815175,
			"0.001": 19.5267724532,
			"0.002": 27.860335798,
			"0.003": 30.9908381498,
			"0.004": 8.15373866403,
			"0.005": 7.76851947035,
			"0.006": 6.79607944104,
			"0.007": 6.7420052203,
			"0.008": 8.4399005608,
			"0.009": 7.14130764999,
			"0.01": 3.65459585906,
			"0.011": 3.11058786439,
			"0.012": 0.851629560406,
			"0.013": 0.0,
			"0.014": 0.0,
			"0.015": 0.0,
			"0.016": 0.0,
			"0.017": 0.0,
			"0.018": 0.0,
			"0.019": 0.0,
			"0.02": 0.0,
			"0.021": 0.0,
			"0.022": 0.0,
			"0.023": 0.0,
			"0.024": 0.0,
			"0.025": 0.0
		}
	}
}
