{
	 "smiles": "COC(=O)C1=CC=C2C(I)=CN(C(=O)OC(C)(C)C)C2=C1", 
	 "Tm": 427.15, 
	 "num_atms": 37, 
	 "gaussian": { 
		 "optdone": 1, 
		 "sigma_profile": "no", 
		 "theory": "DFT", 
		 "functional": "B3LYP", 
		 "basiset": "6-31G**", 
		 "properties": { 
			 "R2extent": 8647.2002, 
			 "electric_dipole_moment_norm": 2.40302359747, 
			 "electric_quadrupole_moment_norm": 22.9713577814, 
			 "total_energy": -948.32070377, 
			 "HOMO_LUMO_gap": 0.16874, 
			 "cosmo_polarized_energy": -97656.33, 
			 "cosmo_cavitation_energy": 44.07, 
			 "cosmo_dispersion_energy": -32.2, 
			 "cosmo_repulsion_energy": 2.44, 
			 "cosmo_total_nonelectrostatic_energy": 14.3, 
			 "SMD_solvation_energy": 9.35 
		},
		"coords": [
			{
				"x": -4.2084252927,
				"y": -4.1008066625,
				"z": -2.9709748664,
				"element": "C" 
			},
			{
				"x": -3.959121811,
				"y": -2.746457088,
				"z": -2.5685037043,
				"element": "O" 
			},
			{
				"x": -2.7212881822,
				"y": -2.5142042069,
				"z": -2.0687553059,
				"element": "C" 
			},
			{
				"x": -1.878074758,
				"y": -3.3842550732,
				"z": -1.9661314743,
				"element": "O" 
			},
			{
				"x": -2.5257521124,
				"y": -1.0919658222,
				"z": -1.6707189708,
				"element": "C" 
			},
			{
				"x": -3.5490696936,
				"y": -0.1294523864,
				"z": -1.8172962961,
				"element": "C" 
			},
			{
				"x": -3.3440233322,
				"y": 1.1892041674,
				"z": -1.4399181877,
				"element": "C" 
			},
			{
				"x": -2.0998405222,
				"y": 1.5540583167,
				"z": -0.9082888405,
				"element": "C" 
			},
			{
				"x": -1.5483304271,
				"y": 2.7945687877,
				"z": -0.4245481689,
				"element": "C" 
			},
			{
				"x": -2.5275245538,
				"y": 4.6355443749,
				"z": -0.3532525613,
				"element": "I" 
			},
			{
				"x": -0.269114512,
				"y": 2.5664577963,
				"z": -0.0168879641,
				"element": "C" 
			},
			{
				"x": 0.0436381923,
				"y": 1.2179467084,
				"z": -0.2144779267,
				"element": "N" 
			},
			{
				"x": 1.2711136762,
				"y": 0.604034442,
				"z": 0.0860989742,
				"element": "C" 
			},
			{
				"x": 1.480597954,
				"y": -0.5746965941,
				"z": -0.1082851976,
				"element": "O" 
			},
			{
				"x": 2.1158663467,
				"y": 1.5087281919,
				"z": 0.5961105912,
				"element": "O" 
			},
			{
				"x": 3.4912466093,
				"y": 1.1257452355,
				"z": 1.0022323454,
				"element": "C" 
			},
			{
				"x": 4.0610989835,
				"y": 2.451752276,
				"z": 1.5087430201,
				"element": "C" 
			},
			{
				"x": 3.4256378826,
				"y": 0.0892169122,
				"z": 2.1267730718,
				"element": "C" 
			},
			{
				"x": 4.2671362352,
				"y": 0.6234185994,
				"z": -0.2180278328,
				"element": "C" 
			},
			{
				"x": -1.0803920187,
				"y": 0.5762414482,
				"z": -0.7664571054,
				"element": "C" 
			},
			{
				"x": -1.2764914327,
				"y": -0.7495771523,
				"z": -1.1422912922,
				"element": "C" 
			},
			{
				"x": -4.0992563092,
				"y": -4.7817716477,
				"z": -2.1230072484,
				"element": "H" 
			},
			{
				"x": -5.2330249596,
				"y": -4.1137271254,
				"z": -3.3430575875,
				"element": "H" 
			},
			{
				"x": -3.5110747616,
				"y": -4.4048056251,
				"z": -3.7558111657,
				"element": "H" 
			},
			{
				"x": -4.502221899,
				"y": -0.4358579593,
				"z": -2.230801826,
				"element": "H" 
			},
			{
				"x": -4.1287057763,
				"y": 1.930752654,
				"z": -1.5515499234,
				"element": "H" 
			},
			{
				"x": 0.4639865008,
				"y": 3.2353679482,
				"z": 0.4007222209,
				"element": "H" 
			},
			{
				"x": 4.0594974635,
				"y": 3.2037482246,
				"z": 0.7144797546,
				"element": "H" 
			},
			{
				"x": 3.4725074223,
				"y": 2.8316946426,
				"z": 2.348722455,
				"element": "H" 
			},
			{
				"x": 5.0915126451,
				"y": 2.3081780006,
				"z": 1.8461576217,
				"element": "H" 
			},
			{
				"x": 4.4358401899,
				"y": -0.0992925078,
				"z": 2.5035253437,
				"element": "H" 
			},
			{
				"x": 2.8189736165,
				"y": 0.463954153,
				"z": 2.9569287283,
				"element": "H" 
			},
			{
				"x": 3.003456736,
				"y": -0.8522591733,
				"z": 1.7744682216,
				"element": "H" 
			},
			{
				"x": 5.3122971318,
				"y": 0.4579773094,
				"z": 0.0617408699,
				"element": "H" 
			},
			{
				"x": 4.2448425089,
				"y": 1.3692704776,
				"z": -1.0185558547,
				"element": "H" 
			},
			{
				"x": 3.853919398,
				"y": -0.3132098875,
				"z": -0.59310244,
				"element": "H" 
			},
			{
				"x": -0.5042371382,
				"y": -1.4984217551,
				"z": -1.0368014775,
				"element": "H" 
			}
		],
		 "valence_orbital": [ 
			{
				"type": "occ",
				"energy": -0.27469,
				"method": "rhf"
			},
			{
				"type": "occ",
				"energy": -0.26784,
				"method": "rhf"
			},
			{
				"type": "occ",
				"energy": -0.26592,
				"method": "rhf"
			},
			{
				"type": "occ",
				"energy": -0.24418,
				"method": "rhf"
			},
			{
				"type": "occ",
				"energy": -0.22212,
				"method": "rhf"
			},
			{
				"type": "unocc",
				"energy": -0.05338,
				"method": "rhf"
			},
			{
				"type": "unocc",
				"energy": -0.03591,
				"method": "rhf"
			},
			{
				"type": "unocc",
				"energy": -0.01098,
				"method": "rhf"
			},
			{
				"type": "unocc",
				"energy": -0.00153,
				"method": "rhf"
			},
			{
				"type": "unocc",
				"energy": 0.04121,
				"method": "rhf"
			}
		],
		"cosmo_sigma_profile": { 
			"0.0": 0.0,
			"0.0": 0.0,
			"0.0": 0.0,
			"0.0": 0.0,
			"0.0": 0.0,
			"0.0": 0.0,
			"0.0": 0.0,
			"0.0": 0.0,
			"0.0": 0.0,
			"0.0": 0.0,
			"0.0": 0.0,
			"0.0": 0.0,
			"0.0": 0.0,
			"0.0": 0.0,
			"0.0": 0.0,
			"0.0": 0.0,
			"0.0": 0.0,
			"0.0": 0.0,
			"0.0": 0.0,
			"0.0": 0.0,
			"0.0": 0.0,
			"0.0": 0.0,
			"0.0": 0.0,
			"0.0": 0.0,
			"0.0": 0.0,
			"0.0": 0.0,
			"0.0": 0.0,
			"0.0": 0.0,
			"0.0": 0.0,
			"0.0": 0.0,
			"0.0": 0.0,
			"0.0": 0.0,
			"0.0": 0.0,
			"0.0": 0.0,
			"0.0": 0.0,
			"0.0": 0.0,
			"0.0": 0.0,
			"0.0": 0.0,
			"0.0": 0.0,
			"0.0": 0.0,
			"0.0": 0.0,
			"0.0": 0.0,
			"0.0": 0.0,
			"0.0": 0.0,
			"0.0": 0.0,
			"0.0": 0.0,
			"0.0": 0.0,
			"0.0": 0.0,
			"0.0": 0.0,
			"0.0": 0.0,
			"0.0": 0.0
		}
	}
}
