{
	 "smiles": "CCOC(=O)C1=CN(N=C1N)C(C)=O", 
	 "Tm": 383.0, 
	 "num_atms": 25, 
	 "gaussian": { 
		 "optdone": 1, 
		 "sigma_profile": "yes", 
		 "theory": "DFT", 
		 "functional": "B3LYP", 
		 "basiset": "6-31G**", 
		 "properties": { 
			 "R2extent": 3954.6333, 
			 "electric_dipole_moment_norm": 4.77483574691, 
			 "electric_quadrupole_moment_norm": 16.1810283898, 
			 "total_energy": -701.415943292, 
			 "HOMO_LUMO_gap": 0.16171, 
			 "cosmo_polarized_energy": -18.74, 
			 "cosmo_cavitation_energy": 29.96, 
			 "cosmo_dispersion_energy": -21.74, 
			 "cosmo_repulsion_energy": 1.75, 
			 "cosmo_total_nonelectrostatic_energy": 9.97, 
			 "SMD_solvation_energy": 6.49 
		},
		"coords": [
			{
				"x": -2.18361662,
				"y": -1.9963829457,
				"z": 1.9275743013,
				"element": "C" 
			},
			{
				"x": -1.4934301485,
				"y": -2.3214409619,
				"z": 0.6115453271,
				"element": "C" 
			},
			{
				"x": -0.4804194762,
				"y": -1.336884672,
				"z": 0.2895259118,
				"element": "O" 
			},
			{
				"x": -0.9012322859,
				"y": -0.2250078615,
				"z": -0.3546614635,
				"element": "C" 
			},
			{
				"x": -2.065569501,
				"y": -0.0217803756,
				"z": -0.6731484037,
				"element": "O" 
			},
			{
				"x": 0.1870459345,
				"y": 0.7012571194,
				"z": -0.6432276754,
				"element": "C" 
			},
			{
				"x": 1.5390916185,
				"y": 0.5684012327,
				"z": -0.426121213,
				"element": "C" 
			},
			{
				"x": 2.1362320054,
				"y": 1.6928573026,
				"z": -0.9203229837,
				"element": "N" 
			},
			{
				"x": 1.2220366104,
				"y": 2.5761780254,
				"z": -1.4620901337,
				"element": "N" 
			},
			{
				"x": 0.0499455088,
				"y": 1.9848175203,
				"z": -1.2916581356,
				"element": "C" 
			},
			{
				"x": -1.132842791,
				"y": 2.5607100136,
				"z": -1.6499336576,
				"element": "N" 
			},
			{
				"x": 3.5216673576,
				"y": 2.0121715611,
				"z": -0.9336943211,
				"element": "C" 
			},
			{
				"x": 4.4326312801,
				"y": 0.9726067431,
				"z": -0.3073439773,
				"element": "C" 
			},
			{
				"x": 3.9177447534,
				"y": 3.0454762595,
				"z": -1.416949001,
				"element": "O" 
			},
			{
				"x": -1.4550693858,
				"y": -1.9066577644,
				"z": 2.7387251259,
				"element": "H" 
			},
			{
				"x": -2.7420024554,
				"y": -1.0606593773,
				"z": 1.8474810269,
				"element": "H" 
			},
			{
				"x": -2.8871558564,
				"y": -2.7953624844,
				"z": 2.1843496641,
				"element": "H" 
			},
			{
				"x": -2.2118915164,
				"y": -2.3688670364,
				"z": -0.2099607524,
				"element": "H" 
			},
			{
				"x": -0.9441326946,
				"y": -3.2642562216,
				"z": 0.6683829819,
				"element": "H" 
			},
			{
				"x": 2.0901583478,
				"y": -0.2377960568,
				"z": 0.030251812,
				"element": "H" 
			},
			{
				"x": -1.089334958,
				"y": 3.3240202979,
				"z": -2.3071992435,
				"element": "H" 
			},
			{
				"x": -1.9271626212,
				"y": 1.9371650703,
				"z": -1.6875282145,
				"element": "H" 
			},
			{
				"x": 4.186752826,
				"y": 0.8067384128,
				"z": 0.7462647211,
				"element": "H" 
			},
			{
				"x": 4.3626385801,
				"y": 0.0124637541,
				"z": -0.8283406522,
				"element": "H" 
			},
			{
				"x": 5.4532154879,
				"y": 1.3459324449,
				"z": -0.3821210438,
				"element": "H" 
			}
		],
		 "valence_orbital": [ 
			{
				"type": "occ",
				"energy": -0.29386,
				"method": "rhf"
			},
			{
				"type": "occ",
				"energy": -0.28642,
				"method": "rhf"
			},
			{
				"type": "occ",
				"energy": -0.27047,
				"method": "rhf"
			},
			{
				"type": "occ",
				"energy": -0.26437,
				"method": "rhf"
			},
			{
				"type": "occ",
				"energy": -0.21815,
				"method": "rhf"
			},
			{
				"type": "unocc",
				"energy": -0.05644,
				"method": "rhf"
			},
			{
				"type": "unocc",
				"energy": 0.00278,
				"method": "rhf"
			},
			{
				"type": "unocc",
				"energy": 0.05329,
				"method": "rhf"
			},
			{
				"type": "unocc",
				"energy": 0.08426,
				"method": "rhf"
			},
			{
				"type": "unocc",
				"energy": 0.09724,
				"method": "rhf"
			}
		],
		"cosmo_sigma_profile": { 
			"-0.025": 0.0,
			"-0.024": 0.0,
			"-0.023": 0.0,
			"-0.022": 0.0,
			"-0.021": 0.0,
			"-0.02": 0.0,
			"-0.019": 0.0,
			"-0.018": 0.0,
			"-0.017": 0.0,
			"-0.016": 0.0,
			"-0.015": 0.0,
			"-0.014": 0.39472713083,
			"-0.013": 1.27851750621,
			"-0.012": 1.06007864727,
			"-0.011": 1.58221044404,
			"-0.01": 4.17125007015,
			"-0.009": 5.53965927298,
			"-0.008": 6.66599786325,
			"-0.007": 6.69438700424,
			"-0.006": 9.88701224217,
			"-0.005": 12.7222961376,
			"-0.004": 17.8319491038,
			"-0.003": 21.9167103745,
			"-0.002": 21.931497834,
			"-0.001": 18.8527516661,
			"0.0": 20.5697860206,
			"0.001": 13.5369604349,
			"0.002": 7.04405924747,
			"0.003": 7.11567676277,
			"0.004": 6.40263020145,
			"0.005": 6.24730753985,
			"0.006": 6.22034084564,
			"0.007": 4.99726259519,
			"0.008": 4.45781461677,
			"0.009": 5.2992623775,
			"0.01": 5.31810980155,
			"0.011": 8.41094858042,
			"0.012": 4.29605744294,
			"0.013": 1.67754436448,
			"0.014": 0.887845850569,
			"0.015": 1.85483603929,
			"0.016": 1.11982187944,
			"0.017": 1.09006576384,
			"0.018": 0.468065924298,
			"0.019": 0.0,
			"0.02": 0.0,
			"0.021": 0.0,
			"0.022": 0.0,
			"0.023": 0.0,
			"0.024": 0.0,
			"0.025": 0.0
		}
	}
}
