{
	 "smiles": "CCCCCCCC1CCCC(=O)O1", 
	 "Tm": 261.15, 
	 "num_atms": 36, 
	 "gaussian": { 
		 "optdone": 1, 
		 "sigma_profile": "yes", 
		 "theory": "DFT", 
		 "functional": "B3LYP", 
		 "basiset": "6-31G**", 
		 "properties": { 
			 "R2extent": 5041.3989, 
			 "electric_dipole_moment_norm": 4.37828977113, 
			 "electric_quadrupole_moment_norm": 17.3020526031, 
			 "total_energy": -621.016614384, 
			 "HOMO_LUMO_gap": 0.26938, 
			 "cosmo_polarized_energy": -10.66, 
			 "cosmo_cavitation_energy": 35.72, 
			 "cosmo_dispersion_energy": -25.09, 
			 "cosmo_repulsion_energy": 2.03, 
			 "cosmo_total_nonelectrostatic_energy": 12.66, 
			 "SMD_solvation_energy": 5.83 
		},
		"coords": [
			{
				"x": -1.0223910184,
				"y": 4.2925934487,
				"z": -0.2199985559,
				"element": "C" 
			},
			{
				"x": -0.702895244,
				"y": 3.5478301876,
				"z": 1.0816441996,
				"element": "C" 
			},
			{
				"x": -1.9044307645,
				"y": 2.8159296887,
				"z": 1.7053312678,
				"element": "C" 
			},
			{
				"x": -2.5270611508,
				"y": 1.6983448809,
				"z": 0.8469008922,
				"element": "C" 
			},
			{
				"x": -1.5982412065,
				"y": 0.5304698674,
				"z": 0.4693798334,
				"element": "C" 
			},
			{
				"x": -1.0784855242,
				"y": -0.2693830059,
				"z": 1.6751056745,
				"element": "C" 
			},
			{
				"x": -0.1541097472,
				"y": -1.4555625771,
				"z": 1.3342744752,
				"element": "C" 
			},
			{
				"x": -0.8602070881,
				"y": -2.7481281496,
				"z": 0.8992383192,
				"element": "C" 
			},
			{
				"x": 0.0832064629,
				"y": -3.941239373,
				"z": 0.7147166598,
				"element": "C" 
			},
			{
				"x": 0.8957225685,
				"y": -3.8082720792,
				"z": -0.5747233049,
				"element": "C" 
			},
			{
				"x": -0.0682895384,
				"y": -3.7034231708,
				"z": -1.7604880517,
				"element": "C" 
			},
			{
				"x": -1.2370211846,
				"y": -2.7486709625,
				"z": -1.557720866,
				"element": "C" 
			},
			{
				"x": -1.8520084986,
				"y": -2.2676925038,
				"z": -2.4801820135,
				"element": "O" 
			},
			{
				"x": -1.6613437277,
				"y": -2.500639057,
				"z": -0.2898805315,
				"element": "O" 
			},
			{
				"x": -1.8352373959,
				"y": 5.0134738226,
				"z": -0.0723785733,
				"element": "H" 
			},
			{
				"x": -1.3296823276,
				"y": 3.6085565745,
				"z": -1.0176568463,
				"element": "H" 
			},
			{
				"x": -0.1497512367,
				"y": 4.846508151,
				"z": -0.581944616,
				"element": "H" 
			},
			{
				"x": -0.3168994503,
				"y": 4.2651546513,
				"z": 1.8175384949,
				"element": "H" 
			},
			{
				"x": 0.114600604,
				"y": 2.8371501391,
				"z": 0.9025028579,
				"element": "H" 
			},
			{
				"x": -2.687274741,
				"y": 3.5544639548,
				"z": 1.9272860771,
				"element": "H" 
			},
			{
				"x": -1.6008501106,
				"y": 2.4068562943,
				"z": 2.6777743059,
				"element": "H" 
			},
			{
				"x": -3.3974423482,
				"y": 1.2962902623,
				"z": 1.3837671421,
				"element": "H" 
			},
			{
				"x": -2.9276377638,
				"y": 2.132823413,
				"z": -0.0773238128,
				"element": "H" 
			},
			{
				"x": -0.7385327742,
				"y": 0.9080923638,
				"z": -0.1020136821,
				"element": "H" 
			},
			{
				"x": -2.1372795902,
				"y": -0.139088698,
				"z": -0.206222132,
				"element": "H" 
			},
			{
				"x": -1.9300116136,
				"y": -0.6350543343,
				"z": 2.2674346577,
				"element": "H" 
			},
			{
				"x": -0.5211943103,
				"y": 0.4028855443,
				"z": 2.3388994966,
				"element": "H" 
			},
			{
				"x": 0.5698627709,
				"y": -1.1500768685,
				"z": 0.5674190402,
				"element": "H" 
			},
			{
				"x": 0.4333873798,
				"y": -1.7132837671,
				"z": 2.2255141349,
				"element": "H" 
			},
			{
				"x": -1.6091730024,
				"y": -2.996775168,
				"z": 1.6599475477,
				"element": "H" 
			},
			{
				"x": 0.7336845167,
				"y": -4.0185853421,
				"z": 1.5924646119,
				"element": "H" 
			},
			{
				"x": -0.5107188148,
				"y": -4.863221685,
				"z": 0.675129301,
				"element": "H" 
			},
			{
				"x": 1.5621604308,
				"y": -4.6671484419,
				"z": -0.7058573105,
				"element": "H" 
			},
			{
				"x": 1.5373024908,
				"y": -2.920678858,
				"z": -0.529829734,
				"element": "H" 
			},
			{
				"x": 0.4287362675,
				"y": -3.4075379304,
				"z": -2.6873693175,
				"element": "H" 
			},
			{
				"x": -0.5233933193,
				"y": -4.6849612722,
				"z": -1.9528796417,
				"element": "H" 
			}
		],
		 "valence_orbital": [ 
			{
				"type": "occ",
				"energy": -0.30449,
				"method": "rhf"
			},
			{
				"type": "occ",
				"energy": -0.30125,
				"method": "rhf"
			},
			{
				"type": "occ",
				"energy": -0.29998,
				"method": "rhf"
			},
			{
				"type": "occ",
				"energy": -0.27847,
				"method": "rhf"
			},
			{
				"type": "occ",
				"energy": -0.25653,
				"method": "rhf"
			},
			{
				"type": "unocc",
				"energy": 0.01285,
				"method": "rhf"
			},
			{
				"type": "unocc",
				"energy": 0.07058,
				"method": "rhf"
			},
			{
				"type": "unocc",
				"energy": 0.0835,
				"method": "rhf"
			},
			{
				"type": "unocc",
				"energy": 0.0943,
				"method": "rhf"
			},
			{
				"type": "unocc",
				"energy": 0.10803,
				"method": "rhf"
			}
		],
		"cosmo_sigma_profile": { 
			"-0.025": 0.0,
			"-0.024": 0.0,
			"-0.023": 0.0,
			"-0.022": 0.0,
			"-0.021": 0.0,
			"-0.02": 0.0,
			"-0.019": 0.0,
			"-0.018": 0.0,
			"-0.017": 0.0,
			"-0.016": 0.0,
			"-0.015": 0.0,
			"-0.014": 0.0,
			"-0.013": 0.0,
			"-0.012": 0.0,
			"-0.011": 0.0,
			"-0.01": 0.0,
			"-0.009": 0.0,
			"-0.008": 0.0,
			"-0.007": 0.657865325645,
			"-0.006": 4.51512062922,
			"-0.005": 11.0212769905,
			"-0.004": 23.453949747,
			"-0.003": 24.7688799536,
			"-0.002": 39.66550484,
			"-0.001": 43.5807209498,
			"0.0": 41.0835278715,
			"0.001": 33.9843559457,
			"0.002": 16.8825099538,
			"0.003": 3.67790862258,
			"0.004": 2.46825152367,
			"0.005": 2.58476096254,
			"0.006": 2.56161503834,
			"0.007": 2.61971213292,
			"0.008": 2.01129359557,
			"0.009": 2.72341414357,
			"0.01": 2.2691327653,
			"0.011": 3.44160514626,
			"0.012": 4.82431418048,
			"0.013": 4.86450861132,
			"0.014": 1.40902176158,
			"0.015": 0.0,
			"0.016": 0.0,
			"0.017": 0.0,
			"0.018": 0.0,
			"0.019": 0.0,
			"0.02": 0.0,
			"0.021": 0.0,
			"0.022": 0.0,
			"0.023": 0.0,
			"0.024": 0.0,
			"0.025": 0.0
		}
	}
}
