{
	 "smiles": "NC1=CC=C(C=C1)N1CCC2=C(C1)C=CS2", 
	 "Tm": 335.15, 
	 "num_atms": 30, 
	 "gaussian": { 
		 "optdone": 1, 
		 "sigma_profile": "yes", 
		 "theory": "DFT", 
		 "functional": "B3LYP", 
		 "basiset": "6-31G**", 
		 "properties": { 
			 "R2extent": 5878.358, 
			 "electric_dipole_moment_norm": 1.91206426932, 
			 "electric_quadrupole_moment_norm": 13.591974666, 
			 "total_energy": -1011.49413482, 
			 "HOMO_LUMO_gap": 0.17609, 
			 "cosmo_polarized_energy": -11.21, 
			 "cosmo_cavitation_energy": 33.62, 
			 "cosmo_dispersion_energy": -25.4, 
			 "cosmo_repulsion_energy": 1.92, 
			 "cosmo_total_nonelectrostatic_energy": 10.15, 
			 "SMD_solvation_energy": 3.51 
		},
		"coords": [
			{
				"x": -0.0445002931,
				"y": 3.1690036431,
				"z": 3.7720493776,
				"element": "N" 
			},
			{
				"x": -0.1368702939,
				"y": 2.2398773574,
				"z": 2.7256526011,
				"element": "C" 
			},
			{
				"x": -0.704866618,
				"y": 2.5989506667,
				"z": 1.4905428417,
				"element": "C" 
			},
			{
				"x": -0.756217069,
				"y": 1.6929638307,
				"z": 0.4387094851,
				"element": "C" 
			},
			{
				"x": -0.2246029048,
				"y": 0.3973474642,
				"z": 0.5593613178,
				"element": "C" 
			},
			{
				"x": 0.3522255032,
				"y": 0.0465401147,
				"z": 1.7885565767,
				"element": "C" 
			},
			{
				"x": 0.3828656347,
				"y": 0.9452095047,
				"z": 2.8557756588,
				"element": "C" 
			},
			{
				"x": -0.3106799644,
				"y": -0.4924477978,
				"z": -0.5513891324,
				"element": "N" 
			},
			{
				"x": -0.1992134806,
				"y": -1.9211818205,
				"z": -0.2682942786,
				"element": "C" 
			},
			{
				"x": -0.8320741501,
				"y": -2.7387806899,
				"z": -1.4070844551,
				"element": "C" 
			},
			{
				"x": -0.3029213961,
				"y": -2.2354379196,
				"z": -2.717013176,
				"element": "C" 
			},
			{
				"x": 0.2997225313,
				"y": -1.0173360628,
				"z": -2.876072142,
				"element": "C" 
			},
			{
				"x": 0.4877947608,
				"y": -0.0759356088,
				"z": -1.7147028233,
				"element": "C" 
			},
			{
				"x": 0.725796394,
				"y": -0.7775197443,
				"z": -4.2232754029,
				"element": "C" 
			},
			{
				"x": 0.4332240039,
				"y": -1.8129859092,
				"z": -5.0635582276,
				"element": "C" 
			},
			{
				"x": -0.3681779854,
				"y": -3.109418232,
				"z": -4.2253178825,
				"element": "S" 
			},
			{
				"x": -0.7493535918,
				"y": 3.8941799353,
				"z": 3.7490186882,
				"element": "H" 
			},
			{
				"x": 0.018516928,
				"y": 2.755104969,
				"z": 4.6927650206,
				"element": "H" 
			},
			{
				"x": -1.124465534,
				"y": 3.5942945329,
				"z": 1.3632349877,
				"element": "H" 
			},
			{
				"x": -1.2378490653,
				"y": 1.9814741815,
				"z": -0.4910598977,
				"element": "H" 
			},
			{
				"x": 0.7877104791,
				"y": -0.9375439707,
				"z": 1.9268993957,
				"element": "H" 
			},
			{
				"x": 0.8330081905,
				"y": 0.640480876,
				"z": 3.7978917096,
				"element": "H" 
			},
			{
				"x": 0.850473666,
				"y": -2.2432946799,
				"z": -0.1322952361,
				"element": "H" 
			},
			{
				"x": -0.7290347393,
				"y": -2.1283776959,
				"z": 0.6650673952,
				"element": "H" 
			},
			{
				"x": -1.9240062119,
				"y": -2.6341537153,
				"z": -1.3660248231,
				"element": "H" 
			},
			{
				"x": -0.6038488244,
				"y": -3.8020242768,
				"z": -1.2638184571,
				"element": "H" 
			},
			{
				"x": 1.5635090649,
				"y": -0.0161015736,
				"z": -1.4564412715,
				"element": "H" 
			},
			{
				"x": 0.186053411,
				"y": 0.936116951,
				"z": -2.0033725615,
				"element": "H" 
			},
			{
				"x": 1.2253955977,
				"y": 0.1296745667,
				"z": -4.5470462608,
				"element": "H" 
			},
			{
				"x": 0.6353859572,
				"y": -1.8962788967,
				"z": -6.1222590275,
				"element": "H" 
			}
		],
		 "valence_orbital": [ 
			{
				"type": "occ",
				"energy": -0.24261,
				"method": "rhf"
			},
			{
				"type": "occ",
				"energy": -0.24197,
				"method": "rhf"
			},
			{
				"type": "occ",
				"energy": -0.23042,
				"method": "rhf"
			},
			{
				"type": "occ",
				"energy": -0.21745,
				"method": "rhf"
			},
			{
				"type": "occ",
				"energy": -0.17812,
				"method": "rhf"
			},
			{
				"type": "unocc",
				"energy": -0.00203,
				"method": "rhf"
			},
			{
				"type": "unocc",
				"energy": 0.00546,
				"method": "rhf"
			},
			{
				"type": "unocc",
				"energy": 0.02573,
				"method": "rhf"
			},
			{
				"type": "unocc",
				"energy": 0.0355,
				"method": "rhf"
			},
			{
				"type": "unocc",
				"energy": 0.06871,
				"method": "rhf"
			}
		],
		"cosmo_sigma_profile": { 
			"-0.025": 0.0,
			"-0.024": 0.0,
			"-0.023": 0.0,
			"-0.022": 0.0,
			"-0.021": 0.0,
			"-0.02": 0.0,
			"-0.019": 0.0,
			"-0.018": 0.0,
			"-0.017": 0.0,
			"-0.016": 0.0,
			"-0.015": 0.0,
			"-0.014": 0.0,
			"-0.013": 0.0,
			"-0.012": 1.34577677752,
			"-0.011": 2.63477277755,
			"-0.01": 3.11158920831,
			"-0.009": 3.23519425183,
			"-0.008": 3.71092082362,
			"-0.007": 5.02044124222,
			"-0.006": 7.7520980914,
			"-0.005": 16.1289190794,
			"-0.004": 22.0645086463,
			"-0.003": 27.941263174,
			"-0.002": 26.9307210965,
			"-0.001": 20.7100757123,
			"0.0": 14.2637992146,
			"0.001": 10.8859783824,
			"0.002": 13.8094417953,
			"0.003": 14.2849241934,
			"0.004": 14.9162987643,
			"0.005": 20.1214264478,
			"0.006": 16.2930904366,
			"0.007": 12.2514934258,
			"0.008": 2.7988440222,
			"0.009": 1.66450816922,
			"0.01": 1.77585853014,
			"0.011": 1.17518476672,
			"0.012": 1.00116184524,
			"0.013": 0.950415405052,
			"0.014": 0.706278776539,
			"0.015": 0.573137919212,
			"0.016": 0.215963634361,
			"0.017": 0.0,
			"0.018": 0.0,
			"0.019": 0.0,
			"0.02": 0.0,
			"0.021": 0.0,
			"0.022": 0.0,
			"0.023": 0.0,
			"0.024": 0.0,
			"0.025": 0.0
		}
	}
}
