{
	 "smiles": "CN1N=C(C)C(C(=O)NC2(CCCC2)C(O)=O)=C1C", 
	 "Tm": 509.15, 
	 "num_atms": 38, 
	 "gaussian": { 
		 "optdone": 1, 
		 "sigma_profile": "yes", 
		 "theory": "DFT", 
		 "functional": "B3LYP", 
		 "basiset": "6-31G**", 
		 "properties": { 
			 "R2extent": 6185.4167, 
			 "electric_dipole_moment_norm": 0.800129845713, 
			 "electric_quadrupole_moment_norm": 15.7559318303, 
			 "total_energy": -896.796097439, 
			 "HOMO_LUMO_gap": 0.22929, 
			 "cosmo_polarized_energy": -19.17, 
			 "cosmo_cavitation_energy": 39.51, 
			 "cosmo_dispersion_energy": -27.14, 
			 "cosmo_repulsion_energy": 2.1, 
			 "cosmo_total_nonelectrostatic_energy": 14.47, 
			 "SMD_solvation_energy": 6.87 
		},
		"coords": [
			{
				"x": -1.3455377149,
				"y": 3.8431565385,
				"z": -1.8620100376,
				"element": "C" 
			},
			{
				"x": -0.7290584646,
				"y": 2.8271137361,
				"z": -1.0299775167,
				"element": "N" 
			},
			{
				"x": -0.263737503,
				"y": 3.1689575572,
				"z": 0.2019272733,
				"element": "N" 
			},
			{
				"x": 0.250889574,
				"y": 2.0521400624,
				"z": 0.7051664981,
				"element": "C" 
			},
			{
				"x": 0.8414630707,
				"y": 2.0921762015,
				"z": 2.0840984148,
				"element": "C" 
			},
			{
				"x": 0.110056704,
				"y": 0.9647864949,
				"z": -0.2138095449,
				"element": "C" 
			},
			{
				"x": 0.5009554607,
				"y": -0.4554773974,
				"z": -0.1033694429,
				"element": "C" 
			},
			{
				"x": 0.0881604924,
				"y": -1.3258922901,
				"z": -0.8735844658,
				"element": "O" 
			},
			{
				"x": 1.3434065321,
				"y": -0.7779852169,
				"z": 0.9441450596,
				"element": "N" 
			},
			{
				"x": 1.9243533788,
				"y": -2.1161172717,
				"z": 1.0423785583,
				"element": "C" 
			},
			{
				"x": 2.8574157364,
				"y": -2.1598548937,
				"z": 2.2821980325,
				"element": "C" 
			},
			{
				"x": 1.9106341792,
				"y": -2.3208501017,
				"z": 3.4964756035,
				"element": "C" 
			},
			{
				"x": 0.5846282623,
				"y": -2.8996419197,
				"z": 2.9222572096,
				"element": "C" 
			},
			{
				"x": 0.8541215267,
				"y": -3.1633254452,
				"z": 1.4261890134,
				"element": "C" 
			},
			{
				"x": 2.737264508,
				"y": -2.4139262747,
				"z": -0.2241145764,
				"element": "C" 
			},
			{
				"x": 2.8762138893,
				"y": -3.7398439363,
				"z": -0.4606485428,
				"element": "O" 
			},
			{
				"x": 3.2799057884,
				"y": -1.5724388083,
				"z": -0.9043741207,
				"element": "O" 
			},
			{
				"x": -0.5355831918,
				"y": 1.5188390267,
				"z": -1.3249050418,
				"element": "C" 
			},
			{
				"x": -0.965850742,
				"y": 0.9205602044,
				"z": -2.6249781342,
				"element": "C" 
			},
			{
				"x": -1.3810184749,
				"y": 4.7594721203,
				"z": -1.2744052287,
				"element": "H" 
			},
			{
				"x": -0.760569208,
				"y": 4.0172645052,
				"z": -2.7710806323,
				"element": "H" 
			},
			{
				"x": -2.3616972075,
				"y": 3.5522167765,
				"z": -2.1455957483,
				"element": "H" 
			},
			{
				"x": 0.4609595499,
				"y": 1.2802677377,
				"z": 2.7115869283,
				"element": "H" 
			},
			{
				"x": 0.5903490593,
				"y": 3.0465252002,
				"z": 2.5517136167,
				"element": "H" 
			},
			{
				"x": 1.9371970047,
				"y": 2.0166891904,
				"z": 2.0674743945,
				"element": "H" 
			},
			{
				"x": 1.9169073119,
				"y": -0.0266628948,
				"z": 1.2987546759,
				"element": "H" 
			},
			{
				"x": 3.5079188142,
				"y": -3.0347432738,
				"z": 2.1841343941,
				"element": "H" 
			},
			{
				"x": 3.5091199852,
				"y": -1.2811045378,
				"z": 2.3398542443,
				"element": "H" 
			},
			{
				"x": 1.734957822,
				"y": -1.3565628031,
				"z": 3.9828009299,
				"element": "H" 
			},
			{
				"x": 2.3573610706,
				"y": -2.9757986367,
				"z": 4.2504659759,
				"element": "H" 
			},
			{
				"x": -0.2239410553,
				"y": -2.1723083239,
				"z": 3.0372160561,
				"element": "H" 
			},
			{
				"x": 0.2704251293,
				"y": -3.8111855573,
				"z": 3.4391578977,
				"element": "H" 
			},
			{
				"x": 1.2816577965,
				"y": -4.1588117855,
				"z": 1.2803281887,
				"element": "H" 
			},
			{
				"x": -0.0299617776,
				"y": -3.0813978285,
				"z": 0.7945472163,
				"element": "H" 
			},
			{
				"x": 3.4438564962,
				"y": -3.8084997439,
				"z": -1.2467305976,
				"element": "H" 
			},
			{
				"x": -2.0496220562,
				"y": 1.0154028139,
				"z": -2.7654516493,
				"element": "H" 
			},
			{
				"x": -0.4800224617,
				"y": 1.4183427307,
				"z": -3.4729656977,
				"element": "H" 
			},
			{
				"x": -0.7079792851,
				"y": -0.1371819555,
				"z": -2.6306692041,
				"element": "H" 
			}
		],
		 "valence_orbital": [ 
			{
				"type": "occ",
				"energy": -0.27018,
				"method": "rhf"
			},
			{
				"type": "occ",
				"energy": -0.25445,
				"method": "rhf"
			},
			{
				"type": "occ",
				"energy": -0.24217,
				"method": "rhf"
			},
			{
				"type": "occ",
				"energy": -0.24016,
				"method": "rhf"
			},
			{
				"type": "occ",
				"energy": -0.23471,
				"method": "rhf"
			},
			{
				"type": "unocc",
				"energy": -0.00542,
				"method": "rhf"
			},
			{
				"type": "unocc",
				"energy": 0.01678,
				"method": "rhf"
			},
			{
				"type": "unocc",
				"energy": 0.02868,
				"method": "rhf"
			},
			{
				"type": "unocc",
				"energy": 0.0622,
				"method": "rhf"
			},
			{
				"type": "unocc",
				"energy": 0.07824,
				"method": "rhf"
			}
		],
		"cosmo_sigma_profile": { 
			"-0.025": 0.0,
			"-0.024": 0.0,
			"-0.023": 0.0,
			"-0.022": 0.0,
			"-0.021": 0.0,
			"-0.02": 0.0,
			"-0.019": 0.0588723155633,
			"-0.018": 0.810183523466,
			"-0.017": 0.954514496051,
			"-0.016": 0.757555311308,
			"-0.015": 0.757964720356,
			"-0.014": 0.28968103219,
			"-0.013": 0.8030218786,
			"-0.012": 1.45134807891,
			"-0.011": 2.67362523508,
			"-0.01": 1.91237296972,
			"-0.009": 1.28953237777,
			"-0.008": 2.48537216548,
			"-0.007": 3.61119082925,
			"-0.006": 13.343660045,
			"-0.005": 16.5848252686,
			"-0.004": 19.8690150168,
			"-0.003": 34.3098983307,
			"-0.002": 32.3681675255,
			"-0.001": 34.6757930579,
			"0.0": 27.1052473491,
			"0.001": 20.3667267477,
			"0.002": 13.0907565302,
			"0.003": 12.9873505064,
			"0.004": 8.95892297182,
			"0.005": 7.30600079311,
			"0.006": 6.61173408033,
			"0.007": 8.24521420162,
			"0.008": 5.64309796523,
			"0.009": 4.69849617281,
			"0.01": 6.1052036,
			"0.011": 6.22665778556,
			"0.012": 7.50150690228,
			"0.013": 3.59744291281,
			"0.014": 0.997367557682,
			"0.015": 0.723208458747,
			"0.016": 0.196941249492,
			"0.017": 0.0,
			"0.018": 0.0,
			"0.019": 0.0,
			"0.02": 0.0,
			"0.021": 0.0,
			"0.022": 0.0,
			"0.023": 0.0,
			"0.024": 0.0,
			"0.025": 0.0
		}
	}
}
