{
	 "smiles": "COC1=C(OC(=O)OC(C)(C)C)C=CC(C=O)=C1", 
	 "Tm": 363.15, 
	 "num_atms": 34, 
	 "gaussian": { 
		 "optdone": 1, 
		 "sigma_profile": "yes", 
		 "theory": "DFT", 
		 "functional": "B3LYP", 
		 "basiset": "6-31G**", 
		 "properties": { 
			 "R2extent": 6554.3932, 
			 "electric_dipole_moment_norm": 4.8653226224, 
			 "electric_quadrupole_moment_norm": 20.4973752349, 
			 "total_energy": -881.144169762, 
			 "HOMO_LUMO_gap": 0.18578, 
			 "cosmo_polarized_energy": -13.43, 
			 "cosmo_cavitation_energy": 38.37, 
			 "cosmo_dispersion_energy": -25.79, 
			 "cosmo_repulsion_energy": 2.02, 
			 "cosmo_total_nonelectrostatic_energy": 14.59, 
			 "SMD_solvation_energy": 9.82 
		},
		"coords": [
			{
				"x": -2.9527360066,
				"y": -1.0177565671,
				"z": -0.622158665,
				"element": "C" 
			},
			{
				"x": -2.7448442265,
				"y": 0.088870499,
				"z": 0.2654650282,
				"element": "O" 
			},
			{
				"x": -2.2066344792,
				"y": 1.2075823327,
				"z": -0.315841805,
				"element": "C" 
			},
			{
				"x": -0.8463808862,
				"y": 1.2644547223,
				"z": -0.6590921005,
				"element": "C" 
			},
			{
				"x": -0.0567832569,
				"y": 0.133471004,
				"z": -0.4975721778,
				"element": "O" 
			},
			{
				"x": 0.3411483532,
				"y": -0.1595152743,
				"z": 0.7831683125,
				"element": "C" 
			},
			{
				"x": 0.18846051,
				"y": 0.570876072,
				"z": 1.7311849124,
				"element": "O" 
			},
			{
				"x": 0.9187141233,
				"y": -1.35576506,
				"z": 0.7255039014,
				"element": "O" 
			},
			{
				"x": 1.5116610371,
				"y": -1.9596482463,
				"z": 1.9422759914,
				"element": "C" 
			},
			{
				"x": 0.4172586919,
				"y": -2.1902103382,
				"z": 2.987592547,
				"element": "C" 
			},
			{
				"x": 2.6424440746,
				"y": -1.0684407752,
				"z": 2.4627311565,
				"element": "C" 
			},
			{
				"x": 2.0567473281,
				"y": -3.2867219322,
				"z": 1.4120873562,
				"element": "C" 
			},
			{
				"x": -0.2886389706,
				"y": 2.4104834204,
				"z": -1.2230991115,
				"element": "C" 
			},
			{
				"x": -1.0868468471,
				"y": 3.5275577674,
				"z": -1.4411278137,
				"element": "C" 
			},
			{
				"x": -2.4432304535,
				"y": 3.4954697712,
				"z": -1.0860836838,
				"element": "C" 
			},
			{
				"x": -3.2999524576,
				"y": 4.6828765827,
				"z": -1.304573381,
				"element": "C" 
			},
			{
				"x": -2.9189925422,
				"y": 5.727719098,
				"z": -1.7970303738,
				"element": "O" 
			},
			{
				"x": -2.996602501,
				"y": 2.3347453831,
				"z": -0.5297911983,
				"element": "C" 
			},
			{
				"x": -3.3948106362,
				"y": -1.8117262747,
				"z": -0.0176212493,
				"element": "H" 
			},
			{
				"x": -3.6458835322,
				"y": -0.7466551196,
				"z": -1.4281715794,
				"element": "H" 
			},
			{
				"x": -2.0095829337,
				"y": -1.3679964091,
				"z": -1.0539010623,
				"element": "H" 
			},
			{
				"x": 0.8373007058,
				"y": -2.7344387491,
				"z": 3.8393039227,
				"element": "H" 
			},
			{
				"x": -0.3923599046,
				"y": -2.7932853864,
				"z": 2.5652467909,
				"element": "H" 
			},
			{
				"x": 0.0060474209,
				"y": -1.2454560724,
				"z": 3.3445615493,
				"element": "H" 
			},
			{
				"x": 2.2598542212,
				"y": -0.1122857691,
				"z": 2.821421955,
				"element": "H" 
			},
			{
				"x": 3.1512430697,
				"y": -1.5735447385,
				"z": 3.2897171668,
				"element": "H" 
			},
			{
				"x": 3.3780175848,
				"y": -0.8855084923,
				"z": 1.6732928798,
				"element": "H" 
			},
			{
				"x": 2.8011467396,
				"y": -3.1142320461,
				"z": 0.6297723933,
				"element": "H" 
			},
			{
				"x": 2.5292199364,
				"y": -3.8464728104,
				"z": 2.2244154607,
				"element": "H" 
			},
			{
				"x": 1.2508540334,
				"y": -3.8960467085,
				"z": 0.9934540417,
				"element": "H" 
			},
			{
				"x": 0.7662326958,
				"y": 2.4062703181,
				"z": -1.4770170244,
				"element": "H" 
			},
			{
				"x": -0.6824489015,
				"y": 4.4362228804,
				"z": -1.8740926335,
				"element": "H" 
			},
			{
				"x": -4.3565309451,
				"y": 4.5567709603,
				"z": -0.9783692003,
				"element": "H" 
			},
			{
				"x": -4.045991045,
				"y": 2.2953359578,
				"z": -0.2501523059,
				"element": "H" 
			}
		],
		 "valence_orbital": [ 
			{
				"type": "occ",
				"energy": -0.28822,
				"method": "rhf"
			},
			{
				"type": "occ",
				"energy": -0.28774,
				"method": "rhf"
			},
			{
				"type": "occ",
				"energy": -0.26668,
				"method": "rhf"
			},
			{
				"type": "occ",
				"energy": -0.25529,
				"method": "rhf"
			},
			{
				"type": "occ",
				"energy": -0.24936,
				"method": "rhf"
			},
			{
				"type": "unocc",
				"energy": -0.06358,
				"method": "rhf"
			},
			{
				"type": "unocc",
				"energy": -0.01551,
				"method": "rhf"
			},
			{
				"type": "unocc",
				"energy": 0.02947,
				"method": "rhf"
			},
			{
				"type": "unocc",
				"energy": 0.04012,
				"method": "rhf"
			},
			{
				"type": "unocc",
				"energy": 0.07129,
				"method": "rhf"
			}
		],
		"cosmo_sigma_profile": { 
			"-0.025": 0.0,
			"-0.024": 0.0,
			"-0.023": 0.0,
			"-0.022": 0.0,
			"-0.021": 0.0,
			"-0.02": 0.0,
			"-0.019": 0.0,
			"-0.018": 0.0,
			"-0.017": 0.0,
			"-0.016": 0.0,
			"-0.015": 0.0,
			"-0.014": 0.0,
			"-0.013": 0.0,
			"-0.012": 0.0,
			"-0.011": 0.0,
			"-0.01": 0.0,
			"-0.009": 0.281375363895,
			"-0.008": 4.06921691958,
			"-0.007": 6.79645150669,
			"-0.006": 9.61025969244,
			"-0.005": 18.199150407,
			"-0.004": 29.8207332986,
			"-0.003": 33.1878300305,
			"-0.002": 30.4617257691,
			"-0.001": 31.1469734454,
			"0.0": 35.1957622525,
			"0.001": 21.6263550692,
			"0.002": 14.6455289403,
			"0.003": 9.27602031378,
			"0.004": 7.43243241842,
			"0.005": 5.90789825622,
			"0.006": 6.0886288398,
			"0.007": 6.52992069235,
			"0.008": 7.75274550437,
			"0.009": 6.94291940184,
			"0.01": 6.60985976149,
			"0.011": 8.46472045901,
			"0.012": 2.70671447537,
			"0.013": 0.442502696173,
			"0.014": 0.0,
			"0.015": 0.0,
			"0.016": 0.0,
			"0.017": 0.0,
			"0.018": 0.0,
			"0.019": 0.0,
			"0.02": 0.0,
			"0.021": 0.0,
			"0.022": 0.0,
			"0.023": 0.0,
			"0.024": 0.0,
			"0.025": 0.0
		}
	}
}
