{
	 "smiles": "CC1=C(OC2=CC=CC=C2)C(=O)C2=C(O1)C=C(O)C=C2", 
	 "Tm": 509.15, 
	 "num_atms": 32, 
	 "gaussian": { 
		 "optdone": 1, 
		 "sigma_profile": "yes", 
		 "theory": "DFT", 
		 "functional": "B3LYP", 
		 "basiset": "6-31G**", 
		 "properties": { 
			 "R2extent": 6487.7511, 
			 "electric_dipole_moment_norm": 4.93482923311, 
			 "electric_quadrupole_moment_norm": 10.3135615982, 
			 "total_energy": -917.814243732, 
			 "HOMO_LUMO_gap": 0.16347, 
			 "cosmo_polarized_energy": -18.58, 
			 "cosmo_cavitation_energy": 37.0, 
			 "cosmo_dispersion_energy": -26.43, 
			 "cosmo_repulsion_energy": 2.02, 
			 "cosmo_total_nonelectrostatic_energy": 12.59, 
			 "SMD_solvation_energy": 7.78 
		},
		"coords": [
			{
				"x": 2.8383644246,
				"y": 0.2813408985,
				"z": 1.6725273861,
				"element": "C" 
			},
			{
				"x": 1.5928635105,
				"y": -0.2248263792,
				"z": 1.023888717,
				"element": "C" 
			},
			{
				"x": 1.1601060486,
				"y": 0.0856345025,
				"z": -0.2256694049,
				"element": "C" 
			},
			{
				"x": 1.960240058,
				"y": 0.8690052951,
				"z": -1.0243122742,
				"element": "O" 
			},
			{
				"x": 1.4846458552,
				"y": 2.0905644539,
				"z": -1.4757689115,
				"element": "C" 
			},
			{
				"x": 0.4482971871,
				"y": 2.7880105552,
				"z": -0.8545111561,
				"element": "C" 
			},
			{
				"x": 0.0800905282,
				"y": 4.0406781831,
				"z": -1.3491087199,
				"element": "C" 
			},
			{
				"x": 0.7428425338,
				"y": 4.5987932076,
				"z": -2.4425985883,
				"element": "C" 
			},
			{
				"x": 1.7847282391,
				"y": 3.8906031221,
				"z": -3.0478221894,
				"element": "C" 
			},
			{
				"x": 2.1590778373,
				"y": 2.6370553074,
				"z": -2.5693984851,
				"element": "C" 
			},
			{
				"x": -0.0679245761,
				"y": -0.4921776047,
				"z": -0.79839458,
				"element": "C" 
			},
			{
				"x": -0.4585514414,
				"y": -0.2392749301,
				"z": -1.9356476307,
				"element": "O" 
			},
			{
				"x": -0.7719723091,
				"y": -1.3988230271,
				"z": 0.1243995568,
				"element": "C" 
			},
			{
				"x": -0.2512160547,
				"y": -1.6653182386,
				"z": 1.3963977456,
				"element": "C" 
			},
			{
				"x": 0.9131226222,
				"y": -1.0926387466,
				"z": 1.8305551948,
				"element": "O" 
			},
			{
				"x": -0.8891171668,
				"y": -2.530313458,
				"z": 2.2900695829,
				"element": "C" 
			},
			{
				"x": -2.076427925,
				"y": -3.1420573811,
				"z": 1.8946276409,
				"element": "C" 
			},
			{
				"x": -2.7627763771,
				"y": -3.9963023761,
				"z": 2.6996391798,
				"element": "O" 
			},
			{
				"x": -2.6228379054,
				"y": -2.8936629694,
				"z": 0.617894399,
				"element": "C" 
			},
			{
				"x": -1.9721825843,
				"y": -2.0357876913,
				"z": -0.2462629105,
				"element": "C" 
			},
			{
				"x": 3.3444083739,
				"y": 0.9884580675,
				"z": 1.0167769159,
				"element": "H" 
			},
			{
				"x": 3.5168115529,
				"y": -0.5507659458,
				"z": 1.891741033,
				"element": "H" 
			},
			{
				"x": 2.6003770482,
				"y": 0.7700314415,
				"z": 2.6235067469,
				"element": "H" 
			},
			{
				"x": -0.0632521655,
				"y": 2.360213572,
				"z": 0.0008166283,
				"element": "H" 
			},
			{
				"x": -0.7309863441,
				"y": 4.5816880799,
				"z": -0.8698160254,
				"element": "H" 
			},
			{
				"x": 0.4507014142,
				"y": 5.5736126621,
				"z": -2.8206984641,
				"element": "H" 
			},
			{
				"x": 2.3078795782,
				"y": 4.3131718565,
				"z": -3.9009333329,
				"element": "H" 
			},
			{
				"x": 2.9598748991,
				"y": 2.0675384943,
				"z": -3.029201872,
				"element": "H" 
			},
			{
				"x": -0.4486753,
				"y": -2.7076814224,
				"z": 3.2667665392,
				"element": "H" 
			},
			{
				"x": -2.2988826272,
				"y": -4.0927614315,
				"z": 3.5418023611,
				"element": "H" 
			},
			{
				"x": -3.5485367541,
				"y": -3.3877277283,
				"z": 0.3443119435,
				"element": "H" 
			},
			{
				"x": -2.3635921802,
				"y": -1.8247803688,
				"z": -1.2359770258,
				"element": "H" 
			}
		],
		 "valence_orbital": [ 
			{
				"type": "occ",
				"energy": -0.24852,
				"method": "rhf"
			},
			{
				"type": "occ",
				"energy": -0.24429,
				"method": "rhf"
			},
			{
				"type": "occ",
				"energy": -0.24075,
				"method": "rhf"
			},
			{
				"type": "occ",
				"energy": -0.23482,
				"method": "rhf"
			},
			{
				"type": "occ",
				"energy": -0.21422,
				"method": "rhf"
			},
			{
				"type": "unocc",
				"energy": -0.05075,
				"method": "rhf"
			},
			{
				"type": "unocc",
				"energy": -0.01471,
				"method": "rhf"
			},
			{
				"type": "unocc",
				"energy": -0.00029,
				"method": "rhf"
			},
			{
				"type": "unocc",
				"energy": 0.006,
				"method": "rhf"
			},
			{
				"type": "unocc",
				"energy": 0.01867,
				"method": "rhf"
			}
		],
		"cosmo_sigma_profile": { 
			"-0.025": 0.0,
			"-0.024": 0.0,
			"-0.023": 0.0,
			"-0.022": 0.0,
			"-0.021": 0.0,
			"-0.02": 0.0,
			"-0.019": 0.498404002744,
			"-0.018": 1.10660580147,
			"-0.017": 1.34271914726,
			"-0.016": 0.978181688404,
			"-0.015": 1.19447491669,
			"-0.014": 0.797231299961,
			"-0.013": 0.626989974509,
			"-0.012": 1.23749986159,
			"-0.011": 1.27147621718,
			"-0.01": 1.22204852706,
			"-0.009": 1.19280317203,
			"-0.008": 1.60499415211,
			"-0.007": 3.8530340299,
			"-0.006": 15.7301400129,
			"-0.005": 20.1904720354,
			"-0.004": 22.8424389314,
			"-0.003": 24.0199414506,
			"-0.002": 24.730031065,
			"-0.001": 19.4527447834,
			"0.0": 16.8116498785,
			"0.001": 22.6316925732,
			"0.002": 26.2138647474,
			"0.003": 18.9841592575,
			"0.004": 14.0337999948,
			"0.005": 12.8258681841,
			"0.006": 10.3248747074,
			"0.007": 5.76248115273,
			"0.008": 5.17663577066,
			"0.009": 3.66383340561,
			"0.01": 3.64657558627,
			"0.011": 3.05778738506,
			"0.012": 3.24920492401,
			"0.013": 5.16802415882,
			"0.014": 1.2804365963,
			"0.015": 0.0,
			"0.016": 0.0,
			"0.017": 0.0,
			"0.018": 0.0,
			"0.019": 0.0,
			"0.02": 0.0,
			"0.021": 0.0,
			"0.022": 0.0,
			"0.023": 0.0,
			"0.024": 0.0,
			"0.025": 0.0
		}
	}
}
