{
	 "smiles": "OCC(NC(=O)C(Cl)Cl)C(O)C1=CC=C(C=C1)N(=O)=O", 
	 "Tm": 423.15, 
	 "num_atms": 32, 
	 "gaussian": { 
		 "optdone": 1, 
		 "sigma_profile": "yes", 
		 "theory": "DFT", 
		 "functional": "B3LYP", 
		 "basiset": "6-31G**", 
		 "properties": { 
			 "R2extent": 7552.3868, 
			 "electric_dipole_moment_norm": 4.9151103365, 
			 "electric_quadrupole_moment_norm": 26.8958017285, 
			 "total_energy": -1832.29640226, 
			 "HOMO_LUMO_gap": 0.17204, 
			 "cosmo_polarized_energy": -22.38, 
			 "cosmo_cavitation_energy": 40.26, 
			 "cosmo_dispersion_energy": -26.65, 
			 "cosmo_repulsion_energy": 2.07, 
			 "cosmo_total_nonelectrostatic_energy": 15.69, 
			 "SMD_solvation_energy": 9.3 
		},
		"coords": [
			{
				"x": -3.2929177554,
				"y": 1.0745205173,
				"z": 0.3694146216,
				"element": "O" 
			},
			{
				"x": -2.6792756631,
				"y": -0.1477764624,
				"z": 0.7506747376,
				"element": "C" 
			},
			{
				"x": -1.2057902421,
				"y": -0.2111773145,
				"z": 0.2871076162,
				"element": "C" 
			},
			{
				"x": -0.566154451,
				"y": -1.4305122234,
				"z": 0.7631890276,
				"element": "N" 
			},
			{
				"x": 0.3193206528,
				"y": -1.6588611048,
				"z": 1.7675420834,
				"element": "C" 
			},
			{
				"x": 0.7344045326,
				"y": -2.7748953227,
				"z": 2.0440525453,
				"element": "O" 
			},
			{
				"x": 0.8659932564,
				"y": -0.4929422708,
				"z": 2.6189820362,
				"element": "C" 
			},
			{
				"x": 1.8849423446,
				"y": 0.6477966544,
				"z": 1.6649255194,
				"element": "Cl" 
			},
			{
				"x": -0.4217489256,
				"y": 0.3823210712,
				"z": 3.5425449199,
				"element": "Cl" 
			},
			{
				"x": -1.1390744787,
				"y": -0.1576298819,
				"z": -1.2600188442,
				"element": "C" 
			},
			{
				"x": -1.6331976924,
				"y": -1.4221223918,
				"z": -1.6997327898,
				"element": "O" 
			},
			{
				"x": 0.2469031027,
				"y": 0.1452348881,
				"z": -1.800049156,
				"element": "C" 
			},
			{
				"x": 1.1408466192,
				"y": -0.8851665652,
				"z": -2.1208888514,
				"element": "C" 
			},
			{
				"x": 2.4170073964,
				"y": -0.5959069706,
				"z": -2.5973451101,
				"element": "C" 
			},
			{
				"x": 2.7878023543,
				"y": 0.7378680551,
				"z": -2.7508236526,
				"element": "C" 
			},
			{
				"x": 1.9199166453,
				"y": 1.785478779,
				"z": -2.446029711,
				"element": "C" 
			},
			{
				"x": 0.6479625574,
				"y": 1.4778963396,
				"z": -1.9746675665,
				"element": "C" 
			},
			{
				"x": 4.1328197676,
				"y": 1.0519434788,
				"z": -3.2587592307,
				"element": "N" 
			},
			{
				"x": 4.4340650845,
				"y": 2.239265427,
				"z": -3.3781185585,
				"element": "O" 
			},
			{
				"x": 4.8735932761,
				"y": 0.1088047079,
				"z": -3.5333637697,
				"element": "O" 
			},
			{
				"x": -2.9850129549,
				"y": 1.7637382593,
				"z": 0.9725183964,
				"element": "H" 
			},
			{
				"x": -3.2422534691,
				"y": -0.9468216987,
				"z": 0.2606619873,
				"element": "H" 
			},
			{
				"x": -2.720652918,
				"y": -0.3110681707,
				"z": 1.8338995518,
				"element": "H" 
			},
			{
				"x": -0.6713439569,
				"y": 0.6540196558,
				"z": 0.684116267,
				"element": "H" 
			},
			{
				"x": -0.8337850027,
				"y": -2.2762119155,
				"z": 0.2720712396,
				"element": "H" 
			},
			{
				"x": 1.5162550602,
				"y": -0.9460500809,
				"z": 3.3609682452,
				"element": "H" 
			},
			{
				"x": -1.8229433704,
				"y": 0.6494934326,
				"z": -1.5559263204,
				"element": "H" 
			},
			{
				"x": -1.7067542898,
				"y": -1.4076209377,
				"z": -2.6623240092,
				"element": "H" 
			},
			{
				"x": 0.8286895216,
				"y": -1.9164859736,
				"z": -2.0011021688,
				"element": "H" 
			},
			{
				"x": 3.1234121445,
				"y": -1.3771600339,
				"z": -2.8486161758,
				"element": "H" 
			},
			{
				"x": 2.246919913,
				"y": 2.8075791671,
				"z": -2.5898315981,
				"element": "H" 
			},
			{
				"x": -0.0440490591,
				"y": 2.2834488857,
				"z": -1.7428712818,
				"element": "H" 
			}
		],
		 "valence_orbital": [ 
			{
				"type": "occ",
				"energy": -0.29306,
				"method": "rhf"
			},
			{
				"type": "occ",
				"energy": -0.28557,
				"method": "rhf"
			},
			{
				"type": "occ",
				"energy": -0.28154,
				"method": "rhf"
			},
			{
				"type": "occ",
				"energy": -0.27572,
				"method": "rhf"
			},
			{
				"type": "occ",
				"energy": -0.26463,
				"method": "rhf"
			},
			{
				"type": "unocc",
				"energy": -0.09259,
				"method": "rhf"
			},
			{
				"type": "unocc",
				"energy": -0.03955,
				"method": "rhf"
			},
			{
				"type": "unocc",
				"energy": -0.03331,
				"method": "rhf"
			},
			{
				"type": "unocc",
				"energy": -0.03041,
				"method": "rhf"
			},
			{
				"type": "unocc",
				"energy": -0.0075,
				"method": "rhf"
			}
		],
		"cosmo_sigma_profile": { 
			"-0.025": 0.0,
			"-0.024": 0.0,
			"-0.023": 0.0,
			"-0.022": 0.0,
			"-0.021": 0.0,
			"-0.02": 0.0,
			"-0.019": 0.0,
			"-0.018": 0.0150351651241,
			"-0.017": 0.56652620087,
			"-0.016": 1.3009281262,
			"-0.015": 1.80864727927,
			"-0.014": 2.33141205898,
			"-0.013": 1.18289368123,
			"-0.012": 1.73126833733,
			"-0.011": 4.09802959145,
			"-0.01": 4.46744859791,
			"-0.009": 3.95702433672,
			"-0.008": 5.33794719708,
			"-0.007": 11.8563232361,
			"-0.006": 14.8982876479,
			"-0.005": 12.8322115494,
			"-0.004": 17.8887634409,
			"-0.003": 21.1627370574,
			"-0.002": 24.8149322065,
			"-0.001": 21.1987342834,
			"0.0": 23.5409977652,
			"0.001": 24.3310497781,
			"0.002": 24.5481119079,
			"0.003": 21.7769413857,
			"0.004": 14.1396714011,
			"0.005": 6.06184715498,
			"0.006": 6.28426996501,
			"0.007": 10.8891789632,
			"0.008": 11.8593379199,
			"0.009": 7.51293853919,
			"0.01": 6.14900213641,
			"0.011": 3.27969183917,
			"0.012": 7.26264535868,
			"0.013": 3.27248142024,
			"0.014": 0.787676487255,
			"0.015": 0.0,
			"0.016": 0.0,
			"0.017": 0.0,
			"0.018": 0.0,
			"0.019": 0.0,
			"0.02": 0.0,
			"0.021": 0.0,
			"0.022": 0.0,
			"0.023": 0.0,
			"0.024": 0.0,
			"0.025": 0.0
		}
	}
}
