{
	 "smiles": "COC(=O)C1=CC(Br)=C(N)C=C1", 
	 "Tm": 379.15, 
	 "num_atms": 20, 
	 "gaussian": { 
		 "optdone": 1, 
		 "sigma_profile": "yes", 
		 "theory": "DFT", 
		 "functional": "B3LYP", 
		 "basiset": "6-31G**", 
		 "properties": { 
			 "R2extent": 5733.5324, 
			 "electric_dipole_moment_norm": 2.26088278776, 
			 "electric_quadrupole_moment_norm": 15.9997397485, 
			 "total_energy": -3086.29527808, 
			 "HOMO_LUMO_gap": 0.18204, 
			 "cosmo_polarized_energy": -11.48, 
			 "cosmo_cavitation_energy": 26.74, 
			 "cosmo_dispersion_energy": -20.25, 
			 "cosmo_repulsion_energy": 1.62, 
			 "cosmo_total_nonelectrostatic_energy": 8.11, 
			 "SMD_solvation_energy": 5.04 
		},
		"coords": [
			{
				"x": 3.3770190382,
				"y": -1.6150271477,
				"z": -1.8793817973,
				"element": "C" 
			},
			{
				"x": 2.7000345654,
				"y": -0.4355794249,
				"z": -1.4230420252,
				"element": "O" 
			},
			{
				"x": 1.4699923239,
				"y": -0.6463753795,
				"z": -0.8925267966,
				"element": "C" 
			},
			{
				"x": 0.9685713971,
				"y": -1.752309643,
				"z": -0.8060663894,
				"element": "O" 
			},
			{
				"x": 0.8237616718,
				"y": 0.6076547884,
				"z": -0.4404732997,
				"element": "C" 
			},
			{
				"x": 1.4384343412,
				"y": 1.8608841178,
				"z": -0.5652493684,
				"element": "C" 
			},
			{
				"x": 0.7842359867,
				"y": 3.0010723149,
				"z": -0.1262381106,
				"element": "C" 
			},
			{
				"x": 1.6497918019,
				"y": 4.7026887208,
				"z": -0.3251978974,
				"element": "Br" 
			},
			{
				"x": -0.5009148112,
				"y": 2.9494009278,
				"z": 0.4570273657,
				"element": "C" 
			},
			{
				"x": -1.132962496,
				"y": 4.0714173832,
				"z": 0.9362259534,
				"element": "N" 
			},
			{
				"x": -1.1022499326,
				"y": 1.6762119855,
				"z": 0.5694177434,
				"element": "C" 
			},
			{
				"x": -0.4552956828,
				"y": 0.5337947297,
				"z": 0.1321286898,
				"element": "C" 
			},
			{
				"x": 3.5272173723,
				"y": -2.3175555017,
				"z": -1.0555937478,
				"element": "H" 
			},
			{
				"x": 2.8003425835,
				"y": -2.1128642083,
				"z": -2.6632130678,
				"element": "H" 
			},
			{
				"x": 4.3356992529,
				"y": -1.2723141211,
				"z": -2.2691998038,
				"element": "H" 
			},
			{
				"x": 2.4227638816,
				"y": 1.9397627316,
				"z": -1.0087504953,
				"element": "H" 
			},
			{
				"x": -2.13009269,
				"y": 4.0176494915,
				"z": 1.0745592499,
				"element": "H" 
			},
			{
				"x": -0.7830949963,
				"y": 4.9665453709,
				"z": 0.627121417,
				"element": "H" 
			},
			{
				"x": -2.09049037,
				"y": 1.6061808549,
				"z": 1.0163233901,
				"element": "H" 
			},
			{
				"x": -0.9256632376,
				"y": -0.439237991,
				"z": 0.2233289901,
				"element": "H" 
			}
		],
		 "valence_orbital": [ 
			{
				"type": "occ",
				"energy": -0.29768,
				"method": "rhf"
			},
			{
				"type": "occ",
				"energy": -0.29567,
				"method": "rhf"
			},
			{
				"type": "occ",
				"energy": -0.26781,
				"method": "rhf"
			},
			{
				"type": "occ",
				"energy": -0.25188,
				"method": "rhf"
			},
			{
				"type": "occ",
				"energy": -0.21728,
				"method": "rhf"
			},
			{
				"type": "unocc",
				"energy": -0.03524,
				"method": "rhf"
			},
			{
				"type": "unocc",
				"energy": -0.01313,
				"method": "rhf"
			},
			{
				"type": "unocc",
				"energy": 0.00307,
				"method": "rhf"
			},
			{
				"type": "unocc",
				"energy": 0.06234,
				"method": "rhf"
			},
			{
				"type": "unocc",
				"energy": 0.07866,
				"method": "rhf"
			}
		],
		"cosmo_sigma_profile": { 
			"-0.025": 0.0,
			"-0.024": 0.0,
			"-0.023": 0.0,
			"-0.022": 0.0,
			"-0.021": 0.0,
			"-0.02": 0.0,
			"-0.019": 0.0,
			"-0.018": 0.0,
			"-0.017": 0.0,
			"-0.016": 0.0,
			"-0.015": 0.0570452232157,
			"-0.014": 1.16711489179,
			"-0.013": 1.29291993723,
			"-0.012": 2.27297131276,
			"-0.011": 2.28554182025,
			"-0.01": 2.70496894127,
			"-0.009": 2.59920684425,
			"-0.008": 2.47527272466,
			"-0.007": 2.91458637395,
			"-0.006": 8.91662984913,
			"-0.005": 12.8338735918,
			"-0.004": 14.6610320155,
			"-0.003": 15.1587411736,
			"-0.002": 12.794193797,
			"-0.001": 12.3252967516,
			"0.0": 12.928482487,
			"0.001": 18.6337266758,
			"0.002": 22.3448099258,
			"0.003": 23.1954934372,
			"0.004": 16.5248326947,
			"0.005": 6.44091519052,
			"0.006": 4.73289880152,
			"0.007": 2.03721953428,
			"0.008": 2.18598151518,
			"0.009": 2.25013604891,
			"0.01": 1.98812298219,
			"0.011": 2.73586594854,
			"0.012": 4.61304356645,
			"0.013": 1.4463000479,
			"0.014": 0.0,
			"0.015": 0.0,
			"0.016": 0.0,
			"0.017": 0.0,
			"0.018": 0.0,
			"0.019": 0.0,
			"0.02": 0.0,
			"0.021": 0.0,
			"0.022": 0.0,
			"0.023": 0.0,
			"0.024": 0.0,
			"0.025": 0.0
		}
	}
}
