{
	 "smiles": "CC(C)(C)C1=NNC(=O)C1", 
	 "Tm": 483.15, 
	 "num_atms": 22, 
	 "gaussian": { 
		 "optdone": 1, 
		 "sigma_profile": "yes", 
		 "theory": "DFT", 
		 "functional": "B3LYP", 
		 "basiset": "6-31G**", 
		 "properties": { 
			 "R2extent": 1679.1884, 
			 "electric_dipole_moment_norm": 2.92720902055, 
			 "electric_quadrupole_moment_norm": 13.0914620505, 
			 "total_energy": -458.696195265, 
			 "HOMO_LUMO_gap": 0.21307, 
			 "cosmo_polarized_energy": -11.64, 
			 "cosmo_cavitation_energy": 24.41, 
			 "cosmo_dispersion_energy": -17.55, 
			 "cosmo_repulsion_energy": 1.44, 
			 "cosmo_total_nonelectrostatic_energy": 8.3, 
			 "SMD_solvation_energy": 4.45 
		},
		"coords": [
			{
				"x": 2.533072974,
				"y": -0.80842677,
				"z": -0.9044938498,
				"element": "C" 
			},
			{
				"x": 1.0087947564,
				"y": -0.7469157509,
				"z": -1.1645833409,
				"element": "C" 
			},
			{
				"x": 0.4208549508,
				"y": -2.1754355886,
				"z": -1.072623944,
				"element": "C" 
			},
			{
				"x": 0.7505060925,
				"y": -0.1750682505,
				"z": -2.5694153304,
				"element": "C" 
			},
			{
				"x": 0.360139312,
				"y": 0.1255319158,
				"z": -0.1083675166,
				"element": "C" 
			},
			{
				"x": -0.303643973,
				"y": 1.191531172,
				"z": -0.4086098873,
				"element": "N" 
			},
			{
				"x": -0.762581013,
				"y": 1.754430554,
				"z": 0.7759857365,
				"element": "N" 
			},
			{
				"x": -0.4141666601,
				"y": 1.07048935,
				"z": 1.9206047284,
				"element": "C" 
			},
			{
				"x": -0.6980074132,
				"y": 1.365814224,
				"z": 3.065625365,
				"element": "O" 
			},
			{
				"x": 0.3958237818,
				"y": -0.1164625826,
				"z": 1.384022841,
				"element": "C" 
			},
			{
				"x": 2.9826676604,
				"y": 0.1885188387,
				"z": -0.9560189461,
				"element": "H" 
			},
			{
				"x": 2.7619790911,
				"y": -1.2361950554,
				"z": 0.0772716969,
				"element": "H" 
			},
			{
				"x": 3.0170868363,
				"y": -1.4370067802,
				"z": -1.6594050408,
				"element": "H" 
			},
			{
				"x": 0.6076063982,
				"y": -2.630741516,
				"z": -0.0943232902,
				"element": "H" 
			},
			{
				"x": -0.6602078791,
				"y": -2.1692029863,
				"z": -1.2457780373,
				"element": "H" 
			},
			{
				"x": 0.8807372909,
				"y": -2.8194942081,
				"z": -1.8295727321,
				"element": "H" 
			},
			{
				"x": 1.1568635052,
				"y": 0.8350896224,
				"z": -2.6671156331,
				"element": "H" 
			},
			{
				"x": -0.3199388848,
				"y": -0.1207767108,
				"z": -2.7846180346,
				"element": "H" 
			},
			{
				"x": 1.223952297,
				"y": -0.8140766436,
				"z": -3.3220522163,
				"element": "H" 
			},
			{
				"x": -1.3075736385,
				"y": 2.6019262163,
				"z": 0.7388136601,
				"element": "H" 
			},
			{
				"x": -0.068783954,
				"y": -1.0610513816,
				"z": 1.6860414103,
				"element": "H" 
			},
			{
				"x": 1.4068184691,
				"y": -0.1074776687,
				"z": 1.8050123612,
				"element": "H" 
			}
		],
		 "valence_orbital": [ 
			{
				"type": "occ",
				"energy": -0.33867,
				"method": "rhf"
			},
			{
				"type": "occ",
				"energy": -0.33631,
				"method": "rhf"
			},
			{
				"type": "occ",
				"energy": -0.30771,
				"method": "rhf"
			},
			{
				"type": "occ",
				"energy": -0.24858,
				"method": "rhf"
			},
			{
				"type": "occ",
				"energy": -0.23458,
				"method": "rhf"
			},
			{
				"type": "unocc",
				"energy": -0.02151,
				"method": "rhf"
			},
			{
				"type": "unocc",
				"energy": 0.0456,
				"method": "rhf"
			},
			{
				"type": "unocc",
				"energy": 0.06951,
				"method": "rhf"
			},
			{
				"type": "unocc",
				"energy": 0.09526,
				"method": "rhf"
			},
			{
				"type": "unocc",
				"energy": 0.11807,
				"method": "rhf"
			}
		],
		"cosmo_sigma_profile": { 
			"-0.025": 0.0,
			"-0.024": 0.0,
			"-0.023": 0.0,
			"-0.022": 0.0,
			"-0.021": 0.0,
			"-0.02": 0.0,
			"-0.019": 0.0,
			"-0.018": 0.0,
			"-0.017": 0.0,
			"-0.016": 0.458438172757,
			"-0.015": 1.35538802493,
			"-0.014": 1.18427914046,
			"-0.013": 1.02435122817,
			"-0.012": 0.661059584239,
			"-0.011": 0.280328951066,
			"-0.01": 1.15282550052,
			"-0.009": 1.18689874862,
			"-0.008": 2.51975939848,
			"-0.007": 4.36459318674,
			"-0.006": 6.31090845084,
			"-0.005": 8.79618446069,
			"-0.004": 10.2775394947,
			"-0.003": 21.3095761039,
			"-0.002": 22.3826479584,
			"-0.001": 18.7734758547,
			"0.0": 20.1693415889,
			"0.001": 21.0415109027,
			"0.002": 7.3058717684,
			"0.003": 3.62905401479,
			"0.004": 3.59528253929,
			"0.005": 2.43616391904,
			"0.006": 2.28498348607,
			"0.007": 3.36272467834,
			"0.008": 2.29826140383,
			"0.009": 2.61045137603,
			"0.01": 2.63875941595,
			"0.011": 2.5427440752,
			"0.012": 3.6869869687,
			"0.013": 7.06917244139,
			"0.014": 3.31670517356,
			"0.015": 0.146032503487,
			"0.016": 0.0,
			"0.017": 0.0,
			"0.018": 0.0,
			"0.019": 0.0,
			"0.02": 0.0,
			"0.021": 0.0,
			"0.022": 0.0,
			"0.023": 0.0,
			"0.024": 0.0,
			"0.025": 0.0
		}
	}
}
