{
	 "smiles": "ClC(Cl)C(=O)C1=CC=C(C=C1)C(=O)C(Cl)(Cl)Cl", 
	 "Tm": 409.15, 
	 "num_atms": 22, 
	 "gaussian": { 
		 "optdone": 1, 
		 "sigma_profile": "yes", 
		 "theory": "DFT", 
		 "functional": "B3LYP", 
		 "basiset": "6-31G**", 
		 "properties": { 
			 "R2extent": 9994.3419, 
			 "electric_dipole_moment_norm": 2.11679511762, 
			 "electric_quadrupole_moment_norm": 16.3871365256, 
			 "total_energy": -2835.44160202, 
			 "HOMO_LUMO_gap": 0.17035, 
			 "cosmo_polarized_energy": -11.62, 
			 "cosmo_cavitation_energy": 35.95, 
			 "cosmo_dispersion_energy": -26.15, 
			 "cosmo_repulsion_energy": 2.03, 
			 "cosmo_total_nonelectrostatic_energy": 11.84, 
			 "SMD_solvation_energy": 5.52 
		},
		"coords": [
			{
				"x": -3.1470858034,
				"y": -1.4558381195,
				"z": -0.0669194007,
				"element": "Cl" 
			},
			{
				"x": -2.387460007,
				"y": -1.0904813224,
				"z": 1.5363576474,
				"element": "C" 
			},
			{
				"x": -3.5279567127,
				"y": -1.3402314167,
				"z": 2.8759066023,
				"element": "Cl" 
			},
			{
				"x": -1.8574854657,
				"y": 0.3668751857,
				"z": 1.4962821489,
				"element": "C" 
			},
			{
				"x": -2.4611833583,
				"y": 1.2553624457,
				"z": 2.0568548673,
				"element": "O" 
			},
			{
				"x": -0.5771743065,
				"y": 0.6254382026,
				"z": 0.7597552688,
				"element": "C" 
			},
			{
				"x": -0.0784841456,
				"y": 1.9382766182,
				"z": 0.7921764969,
				"element": "C" 
			},
			{
				"x": 1.1124856789,
				"y": 2.2527162858,
				"z": 0.1563822841,
				"element": "C" 
			},
			{
				"x": 1.8417705591,
				"y": 1.2652615654,
				"z": -0.5329224628,
				"element": "C" 
			},
			{
				"x": 1.3410970992,
				"y": -0.0456151001,
				"z": -0.5693831804,
				"element": "C" 
			},
			{
				"x": 0.1452099473,
				"y": -0.3598017773,
				"z": 0.0709972684,
				"element": "C" 
			},
			{
				"x": 3.1142566403,
				"y": 1.7384155982,
				"z": -1.1740658042,
				"element": "C" 
			},
			{
				"x": 3.4693876128,
				"y": 2.8911649575,
				"z": -1.0883009692,
				"element": "O" 
			},
			{
				"x": 4.0378711489,
				"y": 0.7458634086,
				"z": -1.9852229933,
				"element": "C" 
			},
			{
				"x": 4.5941748674,
				"y": -0.5774105215,
				"z": -0.888243562,
				"element": "Cl" 
			},
			{
				"x": 5.4612493879,
				"y": 1.6056595305,
				"z": -2.6161527911,
				"element": "Cl" 
			},
			{
				"x": 3.1036079491,
				"y": 0.0651428261,
				"z": -3.3725610534,
				"element": "Cl" 
			},
			{
				"x": -1.58203306,
				"y": -1.8109292932,
				"z": 1.6653415236,
				"element": "H" 
			},
			{
				"x": -0.6431620846,
				"y": 2.694464206,
				"z": 1.3258820899,
				"element": "H" 
			},
			{
				"x": 1.5027611636,
				"y": 3.2635131599,
				"z": 0.1798700738,
				"element": "H" 
			},
			{
				"x": 1.8683791265,
				"y": -0.8305228841,
				"z": -1.093228639,
				"element": "H" 
			},
			{
				"x": -0.221426237,
				"y": -1.3776235556,
				"z": 0.0038945848,
				"element": "H" 
			}
		],
		 "valence_orbital": [ 
			{
				"type": "occ",
				"energy": -0.32078,
				"method": "rhf"
			},
			{
				"type": "occ",
				"energy": -0.29842,
				"method": "rhf"
			},
			{
				"type": "occ",
				"energy": -0.29475,
				"method": "rhf"
			},
			{
				"type": "occ",
				"energy": -0.29114,
				"method": "rhf"
			},
			{
				"type": "occ",
				"energy": -0.28968,
				"method": "rhf"
			},
			{
				"type": "unocc",
				"energy": -0.11933,
				"method": "rhf"
			},
			{
				"type": "unocc",
				"energy": -0.07076,
				"method": "rhf"
			},
			{
				"type": "unocc",
				"energy": -0.05769,
				"method": "rhf"
			},
			{
				"type": "unocc",
				"energy": -0.04054,
				"method": "rhf"
			},
			{
				"type": "unocc",
				"energy": -0.02808,
				"method": "rhf"
			}
		],
		"cosmo_sigma_profile": { 
			"-0.025": 0.0,
			"-0.024": 0.0,
			"-0.023": 0.0,
			"-0.022": 0.0,
			"-0.021": 0.0,
			"-0.02": 0.0,
			"-0.019": 0.0,
			"-0.018": 0.0,
			"-0.017": 0.0,
			"-0.016": 0.0,
			"-0.015": 0.0,
			"-0.014": 0.0653298044537,
			"-0.013": 1.24269940088,
			"-0.012": 2.82478009941,
			"-0.011": 2.43765665987,
			"-0.01": 2.10816138486,
			"-0.009": 1.8195616356,
			"-0.008": 4.46164881771,
			"-0.007": 5.85646301316,
			"-0.006": 6.51167441822,
			"-0.005": 11.3030562079,
			"-0.004": 14.2406857991,
			"-0.003": 18.629010066,
			"-0.002": 22.4297271195,
			"-0.001": 27.1877342062,
			"0.0": 37.7415587227,
			"0.001": 35.4518647879,
			"0.002": 35.9207956304,
			"0.003": 24.6865634464,
			"0.004": 15.2787287762,
			"0.005": 4.64643707337,
			"0.006": 4.02403043743,
			"0.007": 5.02244742303,
			"0.008": 5.65646411943,
			"0.009": 6.59987348159,
			"0.01": 3.33980191347,
			"0.011": 0.91666437521,
			"0.012": 0.0,
			"0.013": 0.0,
			"0.014": 0.0,
			"0.015": 0.0,
			"0.016": 0.0,
			"0.017": 0.0,
			"0.018": 0.0,
			"0.019": 0.0,
			"0.02": 0.0,
			"0.021": 0.0,
			"0.022": 0.0,
			"0.023": 0.0,
			"0.024": 0.0,
			"0.025": 0.0
		}
	}
}
