{
	 "smiles": "CC(C)(C)OC(=O)NC(CCC(O)=O)C1=CC=CC=C1", 
	 "Tm": 425.15, 
	 "num_atms": 41, 
	 "gaussian": { 
		 "optdone": 1, 
		 "sigma_profile": "yes", 
		 "theory": "DFT", 
		 "functional": "B3LYP", 
		 "basiset": "6-31G**", 
		 "properties": { 
			 "R2extent": 7161.3293, 
			 "electric_dipole_moment_norm": 3.923853746, 
			 "electric_quadrupole_moment_norm": 24.6976692248, 
			 "total_energy": -939.957057302, 
			 "HOMO_LUMO_gap": 0.2361, 
			 "cosmo_polarized_energy": -18.82, 
			 "cosmo_cavitation_energy": 42.37, 
			 "cosmo_dispersion_energy": -27.98, 
			 "cosmo_repulsion_energy": 2.15, 
			 "cosmo_total_nonelectrostatic_energy": 16.54, 
			 "SMD_solvation_energy": 8.82 
		},
		"coords": [
			{
				"x": -0.6975541554,
				"y": 3.3089607334,
				"z": 0.7579727566,
				"element": "C" 
			},
			{
				"x": 0.5218707582,
				"y": 2.8014545876,
				"z": -0.0167797941,
				"element": "C" 
			},
			{
				"x": 1.7263437057,
				"y": 3.7383678911,
				"z": 0.1003361822,
				"element": "C" 
			},
			{
				"x": 0.1576536992,
				"y": 2.5486370171,
				"z": -1.4817113703,
				"element": "C" 
			},
			{
				"x": 0.9035228215,
				"y": 1.4469719168,
				"z": 0.4753186352,
				"element": "O" 
			},
			{
				"x": 1.175660456,
				"y": 1.2463280629,
				"z": 1.8010712088,
				"element": "C" 
			},
			{
				"x": 1.2880991883,
				"y": 2.1243680469,
				"z": 2.637659392,
				"element": "O" 
			},
			{
				"x": 1.3552756513,
				"y": -0.0805117947,
				"z": 2.0818700488,
				"element": "N" 
			},
			{
				"x": 1.0051428774,
				"y": -1.250475259,
				"z": 1.2603683872,
				"element": "C" 
			},
			{
				"x": 2.2670731999,
				"y": -2.0818385624,
				"z": 0.9351320217,
				"element": "C" 
			},
			{
				"x": 3.359619773,
				"y": -1.3242728978,
				"z": 0.1503439111,
				"element": "C" 
			},
			{
				"x": 2.9984419079,
				"y": -1.1049125821,
				"z": -1.3152618482,
				"element": "C" 
			},
			{
				"x": 2.1700536638,
				"y": -0.0663130018,
				"z": -1.5856742265,
				"element": "O" 
			},
			{
				"x": 3.3878913077,
				"y": -1.8200049352,
				"z": -2.2071863564,
				"element": "O" 
			},
			{
				"x": -0.06888047,
				"y": -2.0923158839,
				"z": 1.939042643,
				"element": "C" 
			},
			{
				"x": 0.162516168,
				"y": -2.7054125187,
				"z": 3.1789538958,
				"element": "C" 
			},
			{
				"x": -0.8298923788,
				"y": -3.469106674,
				"z": 3.7930438742,
				"element": "C" 
			},
			{
				"x": -2.0691940003,
				"y": -3.6383187899,
				"z": 3.1717819521,
				"element": "C" 
			},
			{
				"x": -2.3084732823,
				"y": -3.0377802255,
				"z": 1.9355434464,
				"element": "C" 
			},
			{
				"x": -1.3147816056,
				"y": -2.2690179533,
				"z": 1.3265709264,
				"element": "C" 
			},
			{
				"x": -0.456672338,
				"y": 3.4963765205,
				"z": 1.8038163213,
				"element": "H" 
			},
			{
				"x": -1.0465248276,
				"y": 4.2412939013,
				"z": 0.3030159133,
				"element": "H" 
			},
			{
				"x": -1.5135482527,
				"y": 2.5813970212,
				"z": 0.70335473,
				"element": "H" 
			},
			{
				"x": 2.0017492832,
				"y": 3.8904184063,
				"z": 1.1440451179,
				"element": "H" 
			},
			{
				"x": 2.5845539147,
				"y": 3.3279097785,
				"z": -0.4413568947,
				"element": "H" 
			},
			{
				"x": 1.4794469716,
				"y": 4.70681908,
				"z": -0.3463567581,
				"element": "H" 
			},
			{
				"x": 1.0055407675,
				"y": 2.1555947211,
				"z": -2.0481731751,
				"element": "H" 
			},
			{
				"x": -0.1561496399,
				"y": 3.4890565389,
				"z": -1.9439666741,
				"element": "H" 
			},
			{
				"x": -0.6686267771,
				"y": 1.8361056322,
				"z": -1.5596397596,
				"element": "H" 
			},
			{
				"x": 1.5088892535,
				"y": -0.2357600563,
				"z": 3.0688040505,
				"element": "H" 
			},
			{
				"x": 0.5862839068,
				"y": -0.8642211214,
				"z": 0.3304603101,
				"element": "H" 
			},
			{
				"x": 2.7050604509,
				"y": -2.4381092572,
				"z": 1.8750007788,
				"element": "H" 
			},
			{
				"x": 1.9652700782,
				"y": -2.9742713524,
				"z": 0.3758969616,
				"element": "H" 
			},
			{
				"x": 4.2764437353,
				"y": -1.9173368032,
				"z": 0.153642671,
				"element": "H" 
			},
			{
				"x": 3.5723230984,
				"y": -0.3700512427,
				"z": 0.6462023786,
				"element": "H" 
			},
			{
				"x": 1.9173896628,
				"y": 0.4322092205,
				"z": -0.7851745294,
				"element": "H" 
			},
			{
				"x": 1.1245472636,
				"y": -2.5935543009,
				"z": 3.6744626544,
				"element": "H" 
			},
			{
				"x": -0.634264144,
				"y": -3.9349892777,
				"z": 4.7545513213,
				"element": "H" 
			},
			{
				"x": -2.8413044559,
				"y": -4.2350492586,
				"z": 3.6483783021,
				"element": "H" 
			},
			{
				"x": -3.2687872297,
				"y": -3.164571133,
				"z": 1.4441169928,
				"element": "H" 
			},
			{
				"x": -1.5087100074,
				"y": -1.8021741949,
				"z": 0.364123601,
				"element": "H" 
			}
		],
		 "valence_orbital": [ 
			{
				"type": "occ",
				"energy": -0.28019,
				"method": "rhf"
			},
			{
				"type": "occ",
				"energy": -0.26733,
				"method": "rhf"
			},
			{
				"type": "occ",
				"energy": -0.2635,
				"method": "rhf"
			},
			{
				"type": "occ",
				"energy": -0.25832,
				"method": "rhf"
			},
			{
				"type": "occ",
				"energy": -0.25447,
				"method": "rhf"
			},
			{
				"type": "unocc",
				"energy": -0.01837,
				"method": "rhf"
			},
			{
				"type": "unocc",
				"energy": -0.015,
				"method": "rhf"
			},
			{
				"type": "unocc",
				"energy": 0.01617,
				"method": "rhf"
			},
			{
				"type": "unocc",
				"energy": 0.03931,
				"method": "rhf"
			},
			{
				"type": "unocc",
				"energy": 0.06304,
				"method": "rhf"
			}
		],
		"cosmo_sigma_profile": { 
			"-0.025": 0.0,
			"-0.024": 0.0,
			"-0.023": 0.0,
			"-0.022": 0.0,
			"-0.021": 0.0,
			"-0.02": 0.0,
			"-0.019": 0.0,
			"-0.018": 0.0,
			"-0.017": 0.0,
			"-0.016": 0.0,
			"-0.015": 0.0,
			"-0.014": 0.0448700778553,
			"-0.013": 0.772728533387,
			"-0.012": 1.88739713106,
			"-0.011": 1.69077166152,
			"-0.01": 1.6820658762,
			"-0.009": 2.35773779513,
			"-0.008": 2.12905552933,
			"-0.007": 4.00862097915,
			"-0.006": 12.5812202102,
			"-0.005": 24.3471058534,
			"-0.004": 35.100400429,
			"-0.003": 31.9657532575,
			"-0.002": 32.6338841947,
			"-0.001": 30.2635838708,
			"0.0": 32.5092640888,
			"0.001": 21.9163449832,
			"0.002": 13.3085031276,
			"0.003": 11.9241797734,
			"0.004": 11.07952109,
			"0.005": 12.9415353397,
			"0.006": 8.40779191155,
			"0.007": 3.65689225445,
			"0.008": 4.0164185088,
			"0.009": 3.59885393296,
			"0.01": 4.91065263127,
			"0.011": 5.73337711658,
			"0.012": 8.34852409603,
			"0.013": 7.47898905953,
			"0.014": 1.52250725594,
			"0.015": 0.0,
			"0.016": 0.0,
			"0.017": 0.0,
			"0.018": 0.0,
			"0.019": 0.0,
			"0.02": 0.0,
			"0.021": 0.0,
			"0.022": 0.0,
			"0.023": 0.0,
			"0.024": 0.0,
			"0.025": 0.0
		}
	}
}
