{
	 "smiles": "C1C(=C(C(=C1C1=CC=CC=C1)C1=CC=CC=C1)C1=CC=CC=C1)C1=CC=CC=C1", 
	 "Tm": 453.15, 
	 "num_atms": 51, 
	 "gaussian": { 
		 "optdone": 1, 
		 "sigma_profile": "yes", 
		 "theory": "DFT", 
		 "functional": "B3LYP", 
		 "basiset": "6-31G**", 
		 "properties": { 
			 "R2extent": 12162.4086, 
			 "electric_dipole_moment_norm": 0.40492520297, 
			 "electric_quadrupole_moment_norm": 9.16020935951, 
			 "total_energy": -1118.33915604, 
			 "HOMO_LUMO_gap": 0.13544, 
			 "cosmo_polarized_energy": -10.92, 
			 "cosmo_cavitation_energy": 53.63, 
			 "cosmo_dispersion_energy": -35.22, 
			 "cosmo_repulsion_energy": 2.7, 
			 "cosmo_total_nonelectrostatic_energy": 21.11, 
			 "SMD_solvation_energy": 8.08 
		},
		"coords": [
			{
				"x": 1.1864657543,
				"y": -1.2253906151,
				"z": 0.5193864572,
				"element": "C" 
			},
			{
				"x": 1.6081800797,
				"y": 0.0314784285,
				"z": -0.2017224081,
				"element": "C" 
			},
			{
				"x": 0.5290730599,
				"y": 0.494673411,
				"z": -0.9047163334,
				"element": "C" 
			},
			{
				"x": -0.6314555382,
				"y": -0.3966927331,
				"z": -0.6753176466,
				"element": "C" 
			},
			{
				"x": -0.2697117366,
				"y": -1.4111042318,
				"z": 0.1692496383,
				"element": "C" 
			},
			{
				"x": -1.0619969542,
				"y": -2.5268645539,
				"z": 0.7057986764,
				"element": "C" 
			},
			{
				"x": -2.4652483787,
				"y": -2.4648351173,
				"z": 0.8356157521,
				"element": "C" 
			},
			{
				"x": -3.1860348015,
				"y": -3.5317809094,
				"z": 1.3658032653,
				"element": "C" 
			},
			{
				"x": -2.5328102615,
				"y": -4.6917414815,
				"z": 1.7885347644,
				"element": "C" 
			},
			{
				"x": -1.1436021616,
				"y": -4.7685294992,
				"z": 1.6786851757,
				"element": "C" 
			},
			{
				"x": -0.4204231061,
				"y": -3.7023203209,
				"z": 1.1484927566,
				"element": "C" 
			},
			{
				"x": -1.9342138796,
				"y": -0.2235717651,
				"z": -1.3734694053,
				"element": "C" 
			},
			{
				"x": -2.2781179777,
				"y": -1.0729348562,
				"z": -2.4367924437,
				"element": "C" 
			},
			{
				"x": -3.491071235,
				"y": -0.9209377546,
				"z": -3.1087450116,
				"element": "C" 
			},
			{
				"x": -4.3832836722,
				"y": 0.0832065332,
				"z": -2.7285576255,
				"element": "C" 
			},
			{
				"x": -4.0537821737,
				"y": 0.9344898763,
				"z": -1.6723828729,
				"element": "C" 
			},
			{
				"x": -2.8382895281,
				"y": 0.7844404371,
				"z": -1.0033341213,
				"element": "C" 
			},
			{
				"x": 0.4934011449,
				"y": 1.6404040408,
				"z": -1.8537187971,
				"element": "C" 
			},
			{
				"x": -0.1616456145,
				"y": 2.8400284951,
				"z": -1.533883308,
				"element": "C" 
			},
			{
				"x": -0.1876919772,
				"y": 3.9026134605,
				"z": -2.4382053281,
				"element": "C" 
			},
			{
				"x": 0.4348477769,
				"y": 3.7812717711,
				"z": -3.6817704253,
				"element": "C" 
			},
			{
				"x": 1.0863367942,
				"y": 2.5919649162,
				"z": -4.0134452582,
				"element": "C" 
			},
			{
				"x": 1.1155981138,
				"y": 1.5318155696,
				"z": -3.1073004084,
				"element": "C" 
			},
			{
				"x": 2.9707676214,
				"y": 0.5713843673,
				"z": -0.0905853313,
				"element": "C" 
			},
			{
				"x": 3.263271409,
				"y": 1.9358354868,
				"z": -0.2969147361,
				"element": "C" 
			},
			{
				"x": 4.5619841538,
				"y": 2.420595707,
				"z": -0.1652297665,
				"element": "C" 
			},
			{
				"x": 5.6095282787,
				"y": 1.564129706,
				"z": 0.1812317766,
				"element": "C" 
			},
			{
				"x": 5.3389820708,
				"y": 0.2126048778,
				"z": 0.4004299349,
				"element": "C" 
			},
			{
				"x": 4.0404121304,
				"y": -0.2746151004,
				"z": 0.2691853723,
				"element": "C" 
			},
			{
				"x": 1.3458343744,
				"y": -1.1542276653,
				"z": 1.6033480253,
				"element": "H" 
			},
			{
				"x": 1.7810652843,
				"y": -2.0859686457,
				"z": 0.1823858846,
				"element": "H" 
			},
			{
				"x": -2.9907044771,
				"y": -1.5676889517,
				"z": 0.5326413283,
				"element": "H" 
			},
			{
				"x": -4.2658912125,
				"y": -3.4521840978,
				"z": 1.4566015012,
				"element": "H" 
			},
			{
				"x": -3.0982943656,
				"y": -5.5218422285,
				"z": 2.2018960061,
				"element": "H" 
			},
			{
				"x": -0.6190198169,
				"y": -5.6624974814,
				"z": 2.0047188214,
				"element": "H" 
			},
			{
				"x": 0.6584421055,
				"y": -3.7893643616,
				"z": 1.0666636851,
				"element": "H" 
			},
			{
				"x": -1.5866912402,
				"y": -1.856703143,
				"z": -2.7314756868,
				"element": "H" 
			},
			{
				"x": -3.7392498999,
				"y": -1.5882323561,
				"z": -3.9294050292,
				"element": "H" 
			},
			{
				"x": -5.3283860458,
				"y": 0.2013394178,
				"z": -3.2508531524,
				"element": "H" 
			},
			{
				"x": -4.7433311807,
				"y": 1.7167985841,
				"z": -1.3675267886,
				"element": "H" 
			},
			{
				"x": -2.5936696601,
				"y": 1.4423845183,
				"z": -0.174852619,
				"element": "H" 
			},
			{
				"x": -0.6376511231,
				"y": 2.9455797021,
				"z": -0.5636417459,
				"element": "H" 
			},
			{
				"x": -0.6944607898,
				"y": 4.8255375896,
				"z": -2.1702180466,
				"element": "H" 
			},
			{
				"x": 0.4126880345,
				"y": 4.607496821,
				"z": -4.3866315484,
				"element": "H" 
			},
			{
				"x": 1.5737197737,
				"y": 2.4886272235,
				"z": -4.9789174127,
				"element": "H" 
			},
			{
				"x": 1.6258811538,
				"y": 0.6086745874,
				"z": -3.3654048265,
				"element": "H" 
			},
			{
				"x": 2.463519583,
				"y": 2.6218590887,
				"z": -0.5469749331,
				"element": "H" 
			},
			{
				"x": 4.7547809578,
				"y": 3.4776691199,
				"z": -0.3267741946,
				"element": "H" 
			},
			{
				"x": 6.6212333764,
				"y": 1.945873501,
				"z": 0.2833702923,
				"element": "H" 
			},
			{
				"x": 6.1415429782,
				"y": -0.4673589372,
				"z": 0.6728463321,
				"element": "H" 
			},
			{
				"x": 3.8569727988,
				"y": -1.3310904309,
				"z": 0.4377817651,
				"element": "H" 
			}
		],
		 "valence_orbital": [ 
			{
				"type": "occ",
				"energy": -0.24491,
				"method": "rhf"
			},
			{
				"type": "occ",
				"energy": -0.24235,
				"method": "rhf"
			},
			{
				"type": "occ",
				"energy": -0.24036,
				"method": "rhf"
			},
			{
				"type": "occ",
				"energy": -0.23493,
				"method": "rhf"
			},
			{
				"type": "occ",
				"energy": -0.18555,
				"method": "rhf"
			},
			{
				"type": "unocc",
				"energy": -0.05011,
				"method": "rhf"
			},
			{
				"type": "unocc",
				"energy": -0.00797,
				"method": "rhf"
			},
			{
				"type": "unocc",
				"energy": -0.00668,
				"method": "rhf"
			},
			{
				"type": "unocc",
				"energy": -0.00182,
				"method": "rhf"
			},
			{
				"type": "unocc",
				"energy": 0.00057,
				"method": "rhf"
			}
		],
		"cosmo_sigma_profile": { 
			"-0.025": 0.0,
			"-0.024": 0.0,
			"-0.023": 0.0,
			"-0.022": 0.0,
			"-0.021": 0.0,
			"-0.02": 0.0,
			"-0.019": 0.0,
			"-0.018": 0.0,
			"-0.017": 0.0,
			"-0.016": 0.0,
			"-0.015": 0.0,
			"-0.014": 0.0,
			"-0.013": 0.0,
			"-0.012": 0.0,
			"-0.011": 0.0,
			"-0.01": 0.0,
			"-0.009": 0.0,
			"-0.008": 0.0880878501636,
			"-0.007": 2.91910017392,
			"-0.006": 16.816052733,
			"-0.005": 38.9472282775,
			"-0.004": 39.7089517848,
			"-0.003": 45.454603278,
			"-0.002": 29.8244034232,
			"-0.001": 32.1075462636,
			"0.0": 26.7666731974,
			"0.001": 29.7967350146,
			"0.002": 31.1253492278,
			"0.003": 34.4251758336,
			"0.004": 35.8347956672,
			"0.005": 35.0790985402,
			"0.006": 28.1557740543,
			"0.007": 2.92796220484,
			"0.008": 0.0,
			"0.009": 0.0,
			"0.01": 0.0,
			"0.011": 0.0,
			"0.012": 0.0,
			"0.013": 0.0,
			"0.014": 0.0,
			"0.015": 0.0,
			"0.016": 0.0,
			"0.017": 0.0,
			"0.018": 0.0,
			"0.019": 0.0,
			"0.02": 0.0,
			"0.021": 0.0,
			"0.022": 0.0,
			"0.023": 0.0,
			"0.024": 0.0,
			"0.025": 0.0
		}
	}
}
