{
	 "smiles": "OCC1=CC(=CC=C1)C1=NN=NN1", 
	 "Tm": 482.15, 
	 "num_atms": 21, 
	 "gaussian": { 
		 "optdone": 1, 
		 "sigma_profile": "yes", 
		 "theory": "DFT", 
		 "functional": "B3LYP", 
		 "basiset": "6-31G**", 
		 "properties": { 
			 "R2extent": 3739.9426, 
			 "electric_dipole_moment_norm": 5.09956253908, 
			 "electric_quadrupole_moment_norm": 37.3141013853, 
			 "total_energy": -603.83941489, 
			 "HOMO_LUMO_gap": 0.1984, 
			 "cosmo_polarized_energy": -20.96, 
			 "cosmo_cavitation_energy": 25.86, 
			 "cosmo_dispersion_energy": -19.4, 
			 "cosmo_repulsion_energy": 1.53, 
			 "cosmo_total_nonelectrostatic_energy": 7.98, 
			 "SMD_solvation_energy": 2.69 
		},
		"coords": [
			{
				"x": 1.9651313371,
				"y": -2.5805574338,
				"z": 0.8196302215,
				"element": "O" 
			},
			{
				"x": 1.7558954174,
				"y": -1.9932066385,
				"z": -0.4532090033,
				"element": "C" 
			},
			{
				"x": 0.8710105072,
				"y": -0.773020953,
				"z": -0.3126080214,
				"element": "C" 
			},
			{
				"x": 0.536676026,
				"y": -0.0365208435,
				"z": -1.4507592185,
				"element": "C" 
			},
			{
				"x": -0.2803913757,
				"y": 1.0980198396,
				"z": -1.3568292128,
				"element": "C" 
			},
			{
				"x": -0.7668429613,
				"y": 1.4956933988,
				"z": -0.1010759678,
				"element": "C" 
			},
			{
				"x": -0.4336533552,
				"y": 0.7618409857,
				"z": 1.0333763403,
				"element": "C" 
			},
			{
				"x": 0.3812995527,
				"y": -0.36811809,
				"z": 0.9331316452,
				"element": "C" 
			},
			{
				"x": -0.5991002761,
				"y": 1.8327719238,
				"z": -2.5821859009,
				"element": "C" 
			},
			{
				"x": -0.1898908207,
				"y": 1.5308310645,
				"z": -3.8077657122,
				"element": "N" 
			},
			{
				"x": -0.7150098357,
				"y": 2.4686823959,
				"z": -4.6356273962,
				"element": "N" 
			},
			{
				"x": -1.4243408238,
				"y": 3.3292249115,
				"z": -3.9817990931,
				"element": "N" 
			},
			{
				"x": -1.3639236765,
				"y": 2.9457402162,
				"z": -2.6846234631,
				"element": "N" 
			},
			{
				"x": 2.5292247735,
				"y": -3.3540195856,
				"z": 0.7045320045,
				"element": "H" 
			},
			{
				"x": 1.2767875349,
				"y": -2.7025174439,
				"z": -1.1480175787,
				"element": "H" 
			},
			{
				"x": 2.7093389403,
				"y": -1.6903631714,
				"z": -0.9164997746,
				"element": "H" 
			},
			{
				"x": 0.9032683964,
				"y": -0.3285531645,
				"z": -2.430585549,
				"element": "H" 
			},
			{
				"x": -1.4025460689,
				"y": 2.3713458688,
				"z": -0.0008466647,
				"element": "H" 
			},
			{
				"x": -0.8107356984,
				"y": 1.0707901422,
				"z": 2.0037190166,
				"element": "H" 
			},
			{
				"x": 0.6433632842,
				"y": -0.9425656042,
				"z": 1.813569812,
				"element": "H" 
			},
			{
				"x": -1.8510608774,
				"y": 3.4795021811,
				"z": -1.980726484,
				"element": "H" 
			}
		],
		 "valence_orbital": [ 
			{
				"type": "occ",
				"energy": -0.29559,
				"method": "rhf"
			},
			{
				"type": "occ",
				"energy": -0.29129,
				"method": "rhf"
			},
			{
				"type": "occ",
				"energy": -0.28083,
				"method": "rhf"
			},
			{
				"type": "occ",
				"energy": -0.25693,
				"method": "rhf"
			},
			{
				"type": "occ",
				"energy": -0.24945,
				"method": "rhf"
			},
			{
				"type": "unocc",
				"energy": -0.05105,
				"method": "rhf"
			},
			{
				"type": "unocc",
				"energy": -0.01997,
				"method": "rhf"
			},
			{
				"type": "unocc",
				"energy": 0.00375,
				"method": "rhf"
			},
			{
				"type": "unocc",
				"energy": 0.04718,
				"method": "rhf"
			},
			{
				"type": "unocc",
				"energy": 0.05803,
				"method": "rhf"
			}
		],
		"cosmo_sigma_profile": { 
			"-0.025": 0.0,
			"-0.024": 0.0,
			"-0.023": 0.0,
			"-0.022": 0.0,
			"-0.021": 0.0,
			"-0.02": 0.0,
			"-0.019": 0.650895031155,
			"-0.018": 1.71969852869,
			"-0.017": 1.78244817374,
			"-0.016": 2.14005644608,
			"-0.015": 3.0750048031,
			"-0.014": 1.64035855234,
			"-0.013": 2.43690321228,
			"-0.012": 1.5904358669,
			"-0.011": 1.76971633984,
			"-0.01": 2.15732378022,
			"-0.009": 1.98921281905,
			"-0.008": 2.76220802729,
			"-0.007": 3.96063111429,
			"-0.006": 6.88289933124,
			"-0.005": 15.1723214691,
			"-0.004": 15.1533976094,
			"-0.003": 13.0180369003,
			"-0.002": 10.4617521346,
			"-0.001": 8.49496247301,
			"0.0": 9.89874472448,
			"0.001": 10.5592856907,
			"0.002": 11.2720867511,
			"0.003": 14.6868325454,
			"0.004": 14.047720946,
			"0.005": 5.29968924141,
			"0.006": 4.34260248547,
			"0.007": 5.95461248066,
			"0.008": 5.91501904164,
			"0.009": 6.54395699948,
			"0.01": 6.2377936877,
			"0.011": 6.37979759514,
			"0.012": 5.03247878491,
			"0.013": 2.23413478206,
			"0.014": 1.58364381196,
			"0.015": 0.0521142391696,
			"0.016": 0.0,
			"0.017": 0.0,
			"0.018": 0.0,
			"0.019": 0.0,
			"0.02": 0.0,
			"0.021": 0.0,
			"0.022": 0.0,
			"0.023": 0.0,
			"0.024": 0.0,
			"0.025": 0.0
		}
	}
}
