{
	 "smiles": "OC(=O)C1=C(Cl)C(=C(Cl)C(=C1)[N+]([O-])=O)[N+]([O-])=O", 
	 "Tm": 485.15, 
	 "num_atms": 19, 
	 "gaussian": { 
		 "optdone": 1, 
		 "sigma_profile": "yes", 
		 "theory": "DFT", 
		 "functional": "B3LYP", 
		 "basiset": "6-31G**", 
		 "properties": { 
			 "R2extent": 4700.6561, 
			 "electric_dipole_moment_norm": 2.53227162445, 
			 "electric_quadrupole_moment_norm": 11.6714401648, 
			 "total_energy": -1748.93570075, 
			 "HOMO_LUMO_gap": 0.17933, 
			 "cosmo_polarized_energy": -16.56, 
			 "cosmo_cavitation_energy": 29.96, 
			 "cosmo_dispersion_energy": -21.43, 
			 "cosmo_repulsion_energy": 1.64, 
			 "cosmo_total_nonelectrostatic_energy": 10.16, 
			 "SMD_solvation_energy": 10.83 
		},
		"coords": [
			{
				"x": 3.1474022117,
				"y": 1.0919416321,
				"z": 1.0761769023,
				"element": "O" 
			},
			{
				"x": 2.3705569137,
				"y": 0.0183519235,
				"z": 1.27670004,
				"element": "C" 
			},
			{
				"x": 2.6992775566,
				"y": -0.8422503025,
				"z": 2.0572418939,
				"element": "O" 
			},
			{
				"x": 1.04046829,
				"y": -0.0948985647,
				"z": 0.5418920451,
				"element": "C" 
			},
			{
				"x": 0.6063218754,
				"y": 0.5884007028,
				"z": -0.6062875896,
				"element": "C" 
			},
			{
				"x": 1.6023435983,
				"y": 1.7630405871,
				"z": -1.4419876965,
				"element": "Cl" 
			},
			{
				"x": -0.6605416202,
				"y": 0.3354749226,
				"z": -1.1382032238,
				"element": "C" 
			},
			{
				"x": -1.5336098821,
				"y": -0.602851591,
				"z": -0.5815965541,
				"element": "C" 
			},
			{
				"x": -3.0977221051,
				"y": -0.8117176393,
				"z": -1.2807675276,
				"element": "Cl" 
			},
			{
				"x": -1.0860907614,
				"y": -1.2896149209,
				"z": 0.5566685115,
				"element": "C" 
			},
			{
				"x": 0.1614241585,
				"y": -1.0282179256,
				"z": 1.101534222,
				"element": "C" 
			},
			{
				"x": -1.8956479699,
				"y": -2.3258734857,
				"z": 1.2329597765,
				"element": "N" 
			},
			{
				"x": -2.5934311668,
				"y": -3.0483405021,
				"z": 0.5325763618,
				"element": "O" 
			},
			{
				"x": -1.7756704122,
				"y": -2.3970010214,
				"z": 2.4523253259,
				"element": "O" 
			},
			{
				"x": -1.1022017382,
				"y": 1.0918738652,
				"z": -2.3345560964,
				"element": "N" 
			},
			{
				"x": -0.8122823182,
				"y": 0.608973099,
				"z": -3.4196023555,
				"element": "O" 
			},
			{
				"x": -1.7110729896,
				"y": 2.1309555991,
				"z": -2.1230614856,
				"element": "O" 
			},
			{
				"x": 2.7695123862,
				"y": 1.7058786883,
				"z": 0.4275142852,
				"element": "H" 
			},
			{
				"x": 0.4818639732,
				"y": -1.5669250664,
				"z": 1.9849731652,
				"element": "H" 
			}
		],
		 "valence_orbital": [ 
			{
				"type": "occ",
				"energy": -0.33556,
				"method": "rhf"
			},
			{
				"type": "occ",
				"energy": -0.32736,
				"method": "rhf"
			},
			{
				"type": "occ",
				"energy": -0.31566,
				"method": "rhf"
			},
			{
				"type": "occ",
				"energy": -0.30997,
				"method": "rhf"
			},
			{
				"type": "occ",
				"energy": -0.30563,
				"method": "rhf"
			},
			{
				"type": "unocc",
				"energy": -0.1263,
				"method": "rhf"
			},
			{
				"type": "unocc",
				"energy": -0.11122,
				"method": "rhf"
			},
			{
				"type": "unocc",
				"energy": -0.10114,
				"method": "rhf"
			},
			{
				"type": "unocc",
				"energy": -0.06733,
				"method": "rhf"
			},
			{
				"type": "unocc",
				"energy": -0.05358,
				"method": "rhf"
			}
		],
		"cosmo_sigma_profile": { 
			"-0.025": 0.0,
			"-0.024": 0.0,
			"-0.023": 0.0,
			"-0.022": 0.0,
			"-0.021": 0.0,
			"-0.02": 0.0,
			"-0.019": 0.0,
			"-0.018": 0.000757176028897,
			"-0.017": 0.178515694307,
			"-0.016": 0.493653972183,
			"-0.015": 0.964338751336,
			"-0.014": 1.32262729592,
			"-0.013": 1.118977772,
			"-0.012": 1.01998704305,
			"-0.011": 1.43186130467,
			"-0.01": 3.0802871962,
			"-0.009": 3.42176688309,
			"-0.008": 4.35373552197,
			"-0.007": 10.1214847481,
			"-0.006": 17.1404166803,
			"-0.005": 16.5766487827,
			"-0.004": 14.5813329146,
			"-0.003": 14.165704862,
			"-0.002": 16.2006677606,
			"-0.001": 15.2807031618,
			"0.0": 15.6986779797,
			"0.001": 11.3763399791,
			"0.002": 9.14833061364,
			"0.003": 7.32636344934,
			"0.004": 10.870955403,
			"0.005": 15.1312113625,
			"0.006": 21.9237504779,
			"0.007": 12.6173216476,
			"0.008": 8.16672883431,
			"0.009": 5.213118646,
			"0.01": 4.57289792393,
			"0.011": 2.66607364178,
			"0.012": 0.60492382749,
			"0.013": 0.0,
			"0.014": 0.0,
			"0.015": 0.0,
			"0.016": 0.0,
			"0.017": 0.0,
			"0.018": 0.0,
			"0.019": 0.0,
			"0.02": 0.0,
			"0.021": 0.0,
			"0.022": 0.0,
			"0.023": 0.0,
			"0.024": 0.0,
			"0.025": 0.0
		}
	}
}
