{
	 "smiles": "BrCCCOC1=CC=CC=C1", 
	 "Tm": 283.45, 
	 "num_atms": 22, 
	 "gaussian": { 
		 "optdone": 1, 
		 "sigma_profile": "yes", 
		 "theory": "DFT", 
		 "functional": "B3LYP", 
		 "basiset": "6-31G**", 
		 "properties": { 
			 "R2extent": 5382.3267, 
			 "electric_dipole_moment_norm": 1.8669274919, 
			 "electric_quadrupole_moment_norm": 11.5525361471, 
			 "total_energy": -2996.21573756, 
			 "HOMO_LUMO_gap": 0.21919, 
			 "cosmo_polarized_energy": -7.24, 
			 "cosmo_cavitation_energy": 27.52, 
			 "cosmo_dispersion_energy": -20.38, 
			 "cosmo_repulsion_energy": 1.66, 
			 "cosmo_total_nonelectrostatic_energy": 8.8, 
			 "SMD_solvation_energy": 3.57 
		},
		"coords": [
			{
				"x": -4.4413302591,
				"y": 0.3552448405,
				"z": -2.2408311618,
				"element": "Br" 
			},
			{
				"x": -4.1397239972,
				"y": -1.3058675845,
				"z": -1.1928334225,
				"element": "C" 
			},
			{
				"x": -2.8280527028,
				"y": -1.986470519,
				"z": -1.5567506912,
				"element": "C" 
			},
			{
				"x": -1.585195689,
				"y": -1.2019649205,
				"z": -1.1584565596,
				"element": "C" 
			},
			{
				"x": -1.6031222865,
				"y": -1.0698047736,
				"z": 0.26052014,
				"element": "O" 
			},
			{
				"x": -0.5978023315,
				"y": -0.3710639438,
				"z": 0.8714053339,
				"element": "C" 
			},
			{
				"x": -0.6887963829,
				"y": -0.2733254486,
				"z": 2.2676832759,
				"element": "C" 
			},
			{
				"x": 0.2869991969,
				"y": 0.413297929,
				"z": 2.9815208354,
				"element": "C" 
			},
			{
				"x": 1.3646975874,
				"y": 1.0108066682,
				"z": 2.318510868,
				"element": "C" 
			},
			{
				"x": 1.4496600261,
				"y": 0.9100789859,
				"z": 0.9318973298,
				"element": "C" 
			},
			{
				"x": 0.4766560277,
				"y": 0.2225511431,
				"z": 0.1988634492,
				"element": "C" 
			},
			{
				"x": -5.0007757752,
				"y": -1.9351204713,
				"z": -1.4125459487,
				"element": "H" 
			},
			{
				"x": -4.1575082094,
				"y": -0.9954882004,
				"z": -0.1497162521,
				"element": "H" 
			},
			{
				"x": -2.7926436135,
				"y": -2.1894489672,
				"z": -2.6321249448,
				"element": "H" 
			},
			{
				"x": -2.8096614312,
				"y": -2.9558140029,
				"z": -1.040413607,
				"element": "H" 
			},
			{
				"x": -1.5878301793,
				"y": -0.2129335129,
				"z": -1.6346515973,
				"element": "H" 
			},
			{
				"x": -0.6815083317,
				"y": -1.7384567959,
				"z": -1.479022608,
				"element": "H" 
			},
			{
				"x": -1.5312867615,
				"y": -0.7424112806,
				"z": 2.7656609906,
				"element": "H" 
			},
			{
				"x": 0.2059030816,
				"y": 0.4831516818,
				"z": 4.0626883551,
				"element": "H" 
			},
			{
				"x": 2.1249628236,
				"y": 1.5467126884,
				"z": 2.8780537935,
				"element": "H" 
			},
			{
				"x": 2.2801343617,
				"y": 1.3693105956,
				"z": 0.4027639034,
				"element": "H" 
			},
			{
				"x": 0.5644248457,
				"y": 0.1591158886,
				"z": -0.8791214818,
				"element": "H" 
			}
		],
		 "valence_orbital": [ 
			{
				"type": "occ",
				"energy": -0.31714,
				"method": "rhf"
			},
			{
				"type": "occ",
				"energy": -0.27368,
				"method": "rhf"
			},
			{
				"type": "occ",
				"energy": -0.27101,
				"method": "rhf"
			},
			{
				"type": "occ",
				"energy": -0.24891,
				"method": "rhf"
			},
			{
				"type": "occ",
				"energy": -0.21888,
				"method": "rhf"
			},
			{
				"type": "unocc",
				"energy": 0.00031,
				"method": "rhf"
			},
			{
				"type": "unocc",
				"energy": 0.00289,
				"method": "rhf"
			},
			{
				"type": "unocc",
				"energy": 0.01444,
				"method": "rhf"
			},
			{
				"type": "unocc",
				"energy": 0.09035,
				"method": "rhf"
			},
			{
				"type": "unocc",
				"energy": 0.09175,
				"method": "rhf"
			}
		],
		"cosmo_sigma_profile": { 
			"-0.025": 0.0,
			"-0.024": 0.0,
			"-0.023": 0.0,
			"-0.022": 0.0,
			"-0.021": 0.0,
			"-0.02": 0.0,
			"-0.019": 0.0,
			"-0.018": 0.0,
			"-0.017": 0.0,
			"-0.016": 0.0,
			"-0.015": 0.0,
			"-0.014": 0.0,
			"-0.013": 0.0,
			"-0.012": 0.0,
			"-0.011": 0.0,
			"-0.01": 0.0,
			"-0.009": 0.0,
			"-0.008": 0.162297755604,
			"-0.007": 2.29946304411,
			"-0.006": 9.55157308055,
			"-0.005": 24.4771280785,
			"-0.004": 25.3780979182,
			"-0.003": 20.9267810916,
			"-0.002": 15.1591705327,
			"-0.001": 12.3041134162,
			"0.0": 10.9335450621,
			"0.001": 12.0148291699,
			"0.002": 13.5756924465,
			"0.003": 12.9806606839,
			"0.004": 16.8802499352,
			"0.005": 18.3645138897,
			"0.006": 18.8340808463,
			"0.007": 5.76467708979,
			"0.008": 0.943037862914,
			"0.009": 0.586032959098,
			"0.01": 0.0548982190742,
			"0.011": 0.0,
			"0.012": 0.0,
			"0.013": 0.0,
			"0.014": 0.0,
			"0.015": 0.0,
			"0.016": 0.0,
			"0.017": 0.0,
			"0.018": 0.0,
			"0.019": 0.0,
			"0.02": 0.0,
			"0.021": 0.0,
			"0.022": 0.0,
			"0.023": 0.0,
			"0.024": 0.0,
			"0.025": 0.0
		}
	}
}
