{
	 "smiles": "SC1=NN=C2N1C=C(Cl)C=C2Cl", 
	 "Tm": 531.15, 
	 "num_atms": 15, 
	 "gaussian": { 
		 "optdone": 1, 
		 "sigma_profile": "yes", 
		 "theory": "DFT", 
		 "functional": "B3LYP", 
		 "basiset": "6-31G**", 
		 "properties": { 
			 "R2extent": 3232.4982, 
			 "electric_dipole_moment_norm": 3.51021302203, 
			 "electric_quadrupole_moment_norm": 13.3539899292, 
			 "total_energy": -1713.22095246, 
			 "HOMO_LUMO_gap": 0.15724, 
			 "cosmo_polarized_energy": -13.89, 
			 "cosmo_cavitation_energy": 25.53, 
			 "cosmo_dispersion_energy": -19.8, 
			 "cosmo_repulsion_energy": 1.52, 
			 "cosmo_total_nonelectrostatic_energy": 7.25, 
			 "SMD_solvation_energy": 1.71 
		},
		"coords": [
			{
				"x": 3.03819279,
				"y": 0.7781966192,
				"z": -2.0128571162,
				"element": "S" 
			},
			{
				"x": 1.4828333213,
				"y": 1.1861099859,
				"z": -1.2897281034,
				"element": "C" 
			},
			{
				"x": 0.7815521655,
				"y": 2.2865303662,
				"z": -1.4840378828,
				"element": "N" 
			},
			{
				"x": -0.363477589,
				"y": 2.2157183987,
				"z": -0.7409388271,
				"element": "N" 
			},
			{
				"x": -0.3415416149,
				"y": 1.0612695558,
				"z": -0.0991361917,
				"element": "C" 
			},
			{
				"x": 0.8282223056,
				"y": 0.3530641728,
				"z": -0.4150598972,
				"element": "N" 
			},
			{
				"x": 1.1349440474,
				"y": -0.8895398089,
				"z": 0.102224872,
				"element": "C" 
			},
			{
				"x": 0.2420440339,
				"y": -1.4472373565,
				"z": 0.9669336831,
				"element": "C" 
			},
			{
				"x": 0.5795159441,
				"y": -3.0176568388,
				"z": 1.651654935,
				"element": "Cl" 
			},
			{
				"x": -0.9706992765,
				"y": -0.7836677659,
				"z": 1.3344550109,
				"element": "C" 
			},
			{
				"x": -1.2528238628,
				"y": 0.4481197684,
				"z": 0.8082281675,
				"element": "C" 
			},
			{
				"x": -2.7052821542,
				"y": 1.299967464,
				"z": 1.2159886817,
				"element": "Cl" 
			},
			{
				"x": 3.0924262207,
				"y": 1.9341389043,
				"z": -2.7005676624,
				"element": "H" 
			},
			{
				"x": 2.0623785735,
				"y": -1.3541056011,
				"z": -0.203194903,
				"element": "H" 
			},
			{
				"x": -1.6545849045,
				"y": -1.2607078638,
				"z": 2.0250352335,
				"element": "H" 
			}
		],
		 "valence_orbital": [ 
			{
				"type": "occ",
				"energy": -0.33127,
				"method": "rhf"
			},
			{
				"type": "occ",
				"energy": -0.30352,
				"method": "rhf"
			},
			{
				"type": "occ",
				"energy": -0.27333,
				"method": "rhf"
			},
			{
				"type": "occ",
				"energy": -0.27215,
				"method": "rhf"
			},
			{
				"type": "occ",
				"energy": -0.23137,
				"method": "rhf"
			},
			{
				"type": "unocc",
				"energy": -0.07413,
				"method": "rhf"
			},
			{
				"type": "unocc",
				"energy": -0.02978,
				"method": "rhf"
			},
			{
				"type": "unocc",
				"energy": -0.01552,
				"method": "rhf"
			},
			{
				"type": "unocc",
				"energy": -0.00886,
				"method": "rhf"
			},
			{
				"type": "unocc",
				"energy": 0.02731,
				"method": "rhf"
			}
		],
		"cosmo_sigma_profile": { 
			"-0.025": 0.0,
			"-0.024": 0.0,
			"-0.023": 0.0,
			"-0.022": 0.0,
			"-0.021": 0.0,
			"-0.02": 0.0,
			"-0.019": 0.0,
			"-0.018": 0.0,
			"-0.017": 0.0,
			"-0.016": 0.0,
			"-0.015": 0.0,
			"-0.014": 0.0,
			"-0.013": 0.926330588026,
			"-0.012": 2.10227515357,
			"-0.011": 2.52868779368,
			"-0.01": 3.74381290485,
			"-0.009": 4.443537296,
			"-0.008": 5.322310172,
			"-0.007": 5.09694049908,
			"-0.006": 6.64902100946,
			"-0.005": 10.0379756361,
			"-0.004": 10.8039758013,
			"-0.003": 14.0853054596,
			"-0.002": 18.7698426148,
			"-0.001": 20.4754235605,
			"0.0": 15.6912662204,
			"0.001": 15.0002162422,
			"0.002": 16.9543969406,
			"0.003": 21.6820566343,
			"0.004": 7.51347102542,
			"0.005": 4.52535607638,
			"0.006": 4.66712181951,
			"0.007": 2.55258325548,
			"0.008": 2.25803080914,
			"0.009": 2.1185129022,
			"0.01": 2.23430619456,
			"0.011": 2.73153567525,
			"0.012": 4.07205553772,
			"0.013": 2.82200222378,
			"0.014": 2.07934123595,
			"0.015": 1.96963764257,
			"0.016": 0.177901463633,
			"0.017": 0.0,
			"0.018": 0.0,
			"0.019": 0.0,
			"0.02": 0.0,
			"0.021": 0.0,
			"0.022": 0.0,
			"0.023": 0.0,
			"0.024": 0.0,
			"0.025": 0.0
		}
	}
}
