{
	 "smiles": "N1C(C(N=C1C1=CC=CC=C1)C1=CC=CC=C1)C1=CC=CC=C1", 
	 "Tm": 407.15, 
	 "num_atms": 41, 
	 "gaussian": { 
		 "optdone": 1, 
		 "sigma_profile": "yes", 
		 "theory": "DFT", 
		 "functional": "B3LYP", 
		 "basiset": "6-31G**", 
		 "properties": { 
			 "R2extent": 8760.1441, 
			 "electric_dipole_moment_norm": 2.68025865543, 
			 "electric_quadrupole_moment_norm": 13.419632884, 
			 "total_energy": -920.590117646, 
			 "HOMO_LUMO_gap": 0.18288, 
			 "cosmo_polarized_energy": -12.79, 
			 "cosmo_cavitation_energy": 44.52, 
			 "cosmo_dispersion_energy": -30.7, 
			 "cosmo_repulsion_energy": 2.33, 
			 "cosmo_total_nonelectrostatic_energy": 16.15, 
			 "SMD_solvation_energy": 3.9 
		},
		"coords": [
			{
				"x": -0.4263734923,
				"y": 0.6603646176,
				"z": -0.2236901475,
				"element": "N" 
			},
			{
				"x": 0.9894973809,
				"y": 0.6692644489,
				"z": 0.1805763762,
				"element": "C" 
			},
			{
				"x": 0.9598516849,
				"y": -0.3716074062,
				"z": 1.3854679532,
				"element": "C" 
			},
			{
				"x": -0.4567793831,
				"y": -0.6359152913,
				"z": 1.6514532835,
				"element": "N" 
			},
			{
				"x": -1.1475908803,
				"y": -0.0199799902,
				"z": 0.7556672392,
				"element": "C" 
			},
			{
				"x": -2.6254456855,
				"y": -0.0392117269,
				"z": 0.7118328937,
				"element": "C" 
			},
			{
				"x": -3.3398287706,
				"y": -0.4411444034,
				"z": 1.8511951944,
				"element": "C" 
			},
			{
				"x": -4.7315204266,
				"y": -0.4611103702,
				"z": 1.8350216785,
				"element": "C" 
			},
			{
				"x": -5.4275327915,
				"y": -0.0826042935,
				"z": 0.6826886914,
				"element": "C" 
			},
			{
				"x": -4.7233270324,
				"y": 0.3098206482,
				"z": -0.4564668933,
				"element": "C" 
			},
			{
				"x": -3.3283107041,
				"y": 0.3308738366,
				"z": -0.4440550074,
				"element": "C" 
			},
			{
				"x": 1.755408617,
				"y": -1.6328848291,
				"z": 1.0803787278,
				"element": "C" 
			},
			{
				"x": 3.1559426711,
				"y": -1.5934006001,
				"z": 1.1368879548,
				"element": "C" 
			},
			{
				"x": 3.9147129218,
				"y": -2.7215358625,
				"z": 0.8263220456,
				"element": "C" 
			},
			{
				"x": 3.2808806739,
				"y": -3.9114071316,
				"z": 0.4601617503,
				"element": "C" 
			},
			{
				"x": 1.887193808,
				"y": -3.9612535004,
				"z": 0.4105844854,
				"element": "C" 
			},
			{
				"x": 1.1287524402,
				"y": -2.829730195,
				"z": 0.7188946643,
				"element": "C" 
			},
			{
				"x": 1.5003525252,
				"y": 2.0458777367,
				"z": 0.5574920711,
				"element": "C" 
			},
			{
				"x": 2.6839322417,
				"y": 2.5371188515,
				"z": -0.0067349293,
				"element": "C" 
			},
			{
				"x": 3.1789465621,
				"y": 3.7936511931,
				"z": 0.3488818224,
				"element": "C" 
			},
			{
				"x": 2.4907812328,
				"y": 4.5797309567,
				"z": 1.2734183489,
				"element": "C" 
			},
			{
				"x": 1.3072555987,
				"y": 4.1009173114,
				"z": 1.8418224008,
				"element": "C" 
			},
			{
				"x": 0.8167975519,
				"y": 2.844732201,
				"z": 1.4877343211,
				"element": "C" 
			},
			{
				"x": -0.8101841454,
				"y": 1.5282838024,
				"z": -0.5759667227,
				"element": "H" 
			},
			{
				"x": 1.6085614159,
				"y": 0.2773021764,
				"z": -0.6326628537,
				"element": "H" 
			},
			{
				"x": 1.4036834028,
				"y": 0.0938962378,
				"z": 2.2750452499,
				"element": "H" 
			},
			{
				"x": -2.7813472536,
				"y": -0.7330075211,
				"z": 2.7340081709,
				"element": "H" 
			},
			{
				"x": -5.2766784838,
				"y": -0.7706397714,
				"z": 2.7220731752,
				"element": "H" 
			},
			{
				"x": -6.5136621824,
				"y": -0.0977438981,
				"z": 0.6726620931,
				"element": "H" 
			},
			{
				"x": -5.2586585204,
				"y": 0.5932052361,
				"z": -1.3580375831,
				"element": "H" 
			},
			{
				"x": -2.7848451171,
				"y": 0.6066422696,
				"z": -1.3426754697,
				"element": "H" 
			},
			{
				"x": 3.6548835094,
				"y": -0.6719887595,
				"z": 1.4299806739,
				"element": "H" 
			},
			{
				"x": 4.9991629629,
				"y": -2.6743255778,
				"z": 0.8771103469,
				"element": "H" 
			},
			{
				"x": 3.8693396702,
				"y": -4.793080088,
				"z": 0.2221525714,
				"element": "H" 
			},
			{
				"x": 1.3860336842,
				"y": -4.885094491,
				"z": 0.1343316973,
				"element": "H" 
			},
			{
				"x": 0.0448922621,
				"y": -2.8693107613,
				"z": 0.699040067,
				"element": "H" 
			},
			{
				"x": 3.2197811214,
				"y": 1.930142416,
				"z": -0.7325316688,
				"element": "H" 
			},
			{
				"x": 4.0980846423,
				"y": 4.1588766791,
				"z": -0.1006220105,
				"element": "H" 
			},
			{
				"x": 2.8717844094,
				"y": 5.5586786057,
				"z": 1.5495827653,
				"element": "H" 
			},
			{
				"x": 0.7668493258,
				"y": 4.7065669145,
				"z": 2.5639571172,
				"element": "H" 
			},
			{
				"x": -0.1008774474,
				"y": 2.4778303295,
				"z": 1.9403174555,
				"element": "H" 
			}
		],
		 "valence_orbital": [ 
			{
				"type": "occ",
				"energy": -0.25301,
				"method": "rhf"
			},
			{
				"type": "occ",
				"energy": -0.2437,
				"method": "rhf"
			},
			{
				"type": "occ",
				"energy": -0.23977,
				"method": "rhf"
			},
			{
				"type": "occ",
				"energy": -0.23237,
				"method": "rhf"
			},
			{
				"type": "occ",
				"energy": -0.21698,
				"method": "rhf"
			},
			{
				"type": "unocc",
				"energy": -0.0341,
				"method": "rhf"
			},
			{
				"type": "unocc",
				"energy": -0.01228,
				"method": "rhf"
			},
			{
				"type": "unocc",
				"energy": -0.00601,
				"method": "rhf"
			},
			{
				"type": "unocc",
				"energy": -0.00512,
				"method": "rhf"
			},
			{
				"type": "unocc",
				"energy": 0.00734,
				"method": "rhf"
			}
		],
		"cosmo_sigma_profile": { 
			"-0.025": 0.0,
			"-0.024": 0.0,
			"-0.023": 0.0,
			"-0.022": 0.0,
			"-0.021": 0.0,
			"-0.02": 0.0,
			"-0.019": 0.0,
			"-0.018": 0.0,
			"-0.017": 0.0,
			"-0.016": 0.0,
			"-0.015": 0.0,
			"-0.014": 0.0,
			"-0.013": 0.190443526562,
			"-0.012": 1.12710069647,
			"-0.011": 0.990748818148,
			"-0.01": 1.07027686746,
			"-0.009": 0.963094008147,
			"-0.008": 2.05322032226,
			"-0.007": 2.56451921539,
			"-0.006": 13.9951080662,
			"-0.005": 29.3045324575,
			"-0.004": 37.0299806703,
			"-0.003": 35.0510836563,
			"-0.002": 25.9598056382,
			"-0.001": 24.2468547738,
			"0.0": 21.4644929988,
			"0.001": 24.8041762825,
			"0.002": 25.2199891046,
			"0.003": 22.7055528497,
			"0.004": 29.1328303705,
			"0.005": 26.3451706709,
			"0.006": 16.9811031797,
			"0.007": 4.81164648047,
			"0.008": 1.54517250016,
			"0.009": 2.27328854613,
			"0.01": 1.4300707725,
			"0.011": 1.21645213232,
			"0.012": 0.936306776851,
			"0.013": 0.706383927167,
			"0.014": 0.857692377267,
			"0.015": 0.400167681043,
			"0.016": 0.647944753376,
			"0.017": 0.106144490313,
			"0.018": 0.0,
			"0.019": 0.0,
			"0.02": 0.0,
			"0.021": 0.0,
			"0.022": 0.0,
			"0.023": 0.0,
			"0.024": 0.0,
			"0.025": 0.0
		}
	}
}
