{
	 "smiles": "O=C1OC(=O)[C@@H]2[C@@H]3[C@H]([C@H]12)C1C=CC3[C@@H]2[C@H]1C(=O)OC2=O", 
	 "Tm": 629.15, 
	 "num_atms": 30, 
	 "gaussian": { 
		 "optdone": 1, 
		 "sigma_profile": "yes", 
		 "theory": "DFT", 
		 "functional": "B3LYP", 
		 "basiset": "6-31G**", 
		 "properties": { 
			 "R2extent": 5225.8591, 
			 "electric_dipole_moment_norm": 0.872463833061, 
			 "electric_quadrupole_moment_norm": 31.0756824968, 
			 "total_energy": -990.839773332, 
			 "HOMO_LUMO_gap": 0.23915, 
			 "cosmo_polarized_energy": -24.03, 
			 "cosmo_cavitation_energy": 32.83, 
			 "cosmo_dispersion_energy": -23.85, 
			 "cosmo_repulsion_energy": 1.82, 
			 "cosmo_total_nonelectrostatic_energy": 10.8, 
			 "SMD_solvation_energy": 8.39 
		},
		"coords": [
			{
				"x": 3.9137532103,
				"y": -2.0783146076,
				"z": 1.1161197115,
				"element": "O" 
			},
			{
				"x": 3.0794907501,
				"y": -2.0153109069,
				"z": 0.2601787103,
				"element": "C" 
			},
			{
				"x": 3.3858647613,
				"y": -2.260700475,
				"z": -1.0768955329,
				"element": "O" 
			},
			{
				"x": 2.268162106,
				"y": -2.1317406501,
				"z": -1.8990843036,
				"element": "C" 
			},
			{
				"x": 2.3357788914,
				"y": -2.3080315074,
				"z": -3.0810100042,
				"element": "O" 
			},
			{
				"x": 1.0719576106,
				"y": -1.7303344732,
				"z": -1.0596768631,
				"element": "C" 
			},
			{
				"x": 0.7944055774,
				"y": -0.1908711473,
				"z": -1.0528679837,
				"element": "C" 
			},
			{
				"x": 1.3448139699,
				"y": -0.1118183638,
				"z": 0.4122157172,
				"element": "C" 
			},
			{
				"x": 1.6129290819,
				"y": -1.652612596,
				"z": 0.3801839851,
				"element": "C" 
			},
			{
				"x": 0.229876756,
				"y": 0.3933132766,
				"z": 1.3622930795,
				"element": "C" 
			},
			{
				"x": -1.0093983845,
				"y": -0.4594113463,
				"z": 1.1938177346,
				"element": "C" 
			},
			{
				"x": -1.4800248142,
				"y": -0.5270738915,
				"z": -0.0588949971,
				"element": "C" 
			},
			{
				"x": -0.687412914,
				"y": 0.261524058,
				"z": -1.0793075521,
				"element": "C" 
			},
			{
				"x": -0.6505447014,
				"y": 1.7492642698,
				"z": -0.6011235833,
				"element": "C" 
			},
			{
				"x": -0.1088847409,
				"y": 1.8271037305,
				"z": 0.839884354,
				"element": "C" 
			},
			{
				"x": -1.2346434726,
				"y": 2.4769459261,
				"z": 1.6327197159,
				"element": "C" 
			},
			{
				"x": -1.2770371265,
				"y": 2.7184835698,
				"z": 2.8041071711,
				"element": "O" 
			},
			{
				"x": -2.2937192825,
				"y": 2.7768409183,
				"z": 0.7854450868,
				"element": "O" 
			},
			{
				"x": -2.0424834511,
				"y": 2.3603707451,
				"z": -0.5156432921,
				"element": "C" 
			},
			{
				"x": -2.8528886195,
				"y": 2.4909619139,
				"z": -1.386554118,
				"element": "O" 
			},
			{
				"x": 0.2146490705,
				"y": -2.3688503071,
				"z": -1.2786580068,
				"element": "H" 
			},
			{
				"x": 1.3645166951,
				"y": 0.3671790598,
				"z": -1.8019999786,
				"element": "H" 
			},
			{
				"x": 2.2464267025,
				"y": 0.4939164439,
				"z": 0.5457808667,
				"element": "H" 
			},
			{
				"x": 1.1339029087,
				"y": -2.2369789587,
				"z": 1.1674052027,
				"element": "H" 
			},
			{
				"x": 0.5711720543,
				"y": 0.4417243848,
				"z": 2.3986106373,
				"element": "H" 
			},
			{
				"x": -1.4747021274,
				"y": -0.9511971556,
				"z": 2.0421572729,
				"element": "H" 
			},
			{
				"x": -2.3702300976,
				"y": -1.0799404205,
				"z": -0.3415870619,
				"element": "H" 
			},
			{
				"x": -1.1125684854,
				"y": 0.1998425546,
				"z": -2.0834028201,
				"element": "H" 
			},
			{
				"x": -0.0649520819,
				"y": 2.3454714615,
				"z": -1.3088623153,
				"element": "H" 
			},
			{
				"x": 0.7761901536,
				"y": 2.4659444944,
				"z": 0.9281491673,
				"element": "H" 
			}
		],
		 "valence_orbital": [ 
			{
				"type": "occ",
				"energy": -0.31757,
				"method": "rhf"
			},
			{
				"type": "occ",
				"energy": -0.31057,
				"method": "rhf"
			},
			{
				"type": "occ",
				"energy": -0.29396,
				"method": "rhf"
			},
			{
				"type": "occ",
				"energy": -0.29278,
				"method": "rhf"
			},
			{
				"type": "occ",
				"energy": -0.28741,
				"method": "rhf"
			},
			{
				"type": "unocc",
				"energy": -0.04826,
				"method": "rhf"
			},
			{
				"type": "unocc",
				"energy": -0.03935,
				"method": "rhf"
			},
			{
				"type": "unocc",
				"energy": -0.02701,
				"method": "rhf"
			},
			{
				"type": "unocc",
				"energy": -0.02518,
				"method": "rhf"
			},
			{
				"type": "unocc",
				"energy": -0.01562,
				"method": "rhf"
			}
		],
		"cosmo_sigma_profile": { 
			"-0.025": 0.0,
			"-0.024": 0.0,
			"-0.023": 0.0,
			"-0.022": 0.0,
			"-0.021": 0.0,
			"-0.02": 0.0,
			"-0.019": 0.0,
			"-0.018": 0.0,
			"-0.017": 0.0,
			"-0.016": 0.0,
			"-0.015": 0.0,
			"-0.014": 0.0,
			"-0.013": 0.0,
			"-0.012": 0.204417375454,
			"-0.011": 1.52560514885,
			"-0.01": 2.98573814551,
			"-0.009": 6.71734643393,
			"-0.008": 19.9852132025,
			"-0.007": 17.0377668426,
			"-0.006": 24.247670491,
			"-0.005": 21.4016503324,
			"-0.004": 14.9808021867,
			"-0.003": 10.6886923214,
			"-0.002": 11.6876211975,
			"-0.001": 9.18202434557,
			"0.0": 9.24766215795,
			"0.001": 6.42315005532,
			"0.002": 7.05369048563,
			"0.003": 6.04763104189,
			"0.004": 8.10427450589,
			"0.005": 6.90248540171,
			"0.006": 8.88537067333,
			"0.007": 13.3074455187,
			"0.008": 11.3722224884,
			"0.009": 13.9498277921,
			"0.01": 21.5212081361,
			"0.011": 7.32855578473,
			"0.012": 0.00637746474178,
			"0.013": 0.0,
			"0.014": 0.0,
			"0.015": 0.0,
			"0.016": 0.0,
			"0.017": 0.0,
			"0.018": 0.0,
			"0.019": 0.0,
			"0.02": 0.0,
			"0.021": 0.0,
			"0.022": 0.0,
			"0.023": 0.0,
			"0.024": 0.0,
			"0.025": 0.0
		}
	}
}
