{
	 "smiles": "SC1=NC(=NO1)C1=CC=CS1", 
	 "Tm": 382.15, 
	 "num_atms": 15, 
	 "gaussian": { 
		 "optdone": 1, 
		 "sigma_profile": "yes", 
		 "theory": "DFT", 
		 "functional": "B3LYP", 
		 "basiset": "6-31G**", 
		 "properties": { 
			 "R2extent": 4675.0648, 
			 "electric_dipole_moment_norm": 1.97686521038, 
			 "electric_quadrupole_moment_norm": 14.2162408765, 
			 "total_energy": -1212.08489469, 
			 "HOMO_LUMO_gap": 0.17933, 
			 "cosmo_polarized_energy": -8.69, 
			 "cosmo_cavitation_energy": 23.91, 
			 "cosmo_dispersion_energy": -19.01, 
			 "cosmo_repulsion_energy": 1.43, 
			 "cosmo_total_nonelectrostatic_energy": 6.32, 
			 "SMD_solvation_energy": 2.11 
		},
		"coords": [
			{
				"x": 3.915105823,
				"y": 4.6138294637,
				"z": -0.2526391641,
				"element": "S" 
			},
			{
				"x": 3.1486932997,
				"y": 3.0862062698,
				"z": -0.6493542854,
				"element": "C" 
			},
			{
				"x": 2.519191168,
				"y": 2.2599435217,
				"z": 0.1324333091,
				"element": "N" 
			},
			{
				"x": 2.1529715745,
				"y": 1.2610265178,
				"z": -0.7528210794,
				"element": "C" 
			},
			{
				"x": 2.5319182956,
				"y": 1.4584750946,
				"z": -1.9985317151,
				"element": "N" 
			},
			{
				"x": 3.2093992986,
				"y": 2.6995756858,
				"z": -1.9303529546,
				"element": "O" 
			},
			{
				"x": 1.4083819004,
				"y": 0.088125597,
				"z": -0.3337582834,
				"element": "C" 
			},
			{
				"x": 0.983322004,
				"y": -0.9713182881,
				"z": -1.1032252574,
				"element": "C" 
			},
			{
				"x": 0.2761427322,
				"y": -1.9484535602,
				"z": -0.3513528648,
				"element": "C" 
			},
			{
				"x": 0.1735276924,
				"y": -1.6193429797,
				"z": 0.9759797128,
				"element": "C" 
			},
			{
				"x": 0.9378193552,
				"y": -0.1104553111,
				"z": 1.334775466,
				"element": "S" 
			},
			{
				"x": 3.5853828494,
				"y": 4.5262642234,
				"z": 1.049721109,
				"element": "H" 
			},
			{
				"x": 1.1777423501,
				"y": -1.0340529445,
				"z": -2.1672490697,
				"element": "H" 
			},
			{
				"x": -0.1379185093,
				"y": -2.8551609989,
				"z": -0.7766781075,
				"element": "H" 
			},
			{
				"x": -0.3085798338,
				"y": -2.1781622916,
				"z": 1.7663531846,
				"element": "H" 
			}
		],
		 "valence_orbital": [ 
			{
				"type": "occ",
				"energy": -0.34028,
				"method": "rhf"
			},
			{
				"type": "occ",
				"energy": -0.30654,
				"method": "rhf"
			},
			{
				"type": "occ",
				"energy": -0.27106,
				"method": "rhf"
			},
			{
				"type": "occ",
				"energy": -0.26098,
				"method": "rhf"
			},
			{
				"type": "occ",
				"energy": -0.2341,
				"method": "rhf"
			},
			{
				"type": "unocc",
				"energy": -0.05477,
				"method": "rhf"
			},
			{
				"type": "unocc",
				"energy": -0.01336,
				"method": "rhf"
			},
			{
				"type": "unocc",
				"energy": -0.00868,
				"method": "rhf"
			},
			{
				"type": "unocc",
				"energy": 0.02115,
				"method": "rhf"
			},
			{
				"type": "unocc",
				"energy": 0.03942,
				"method": "rhf"
			}
		],
		"cosmo_sigma_profile": { 
			"-0.025": 0.0,
			"-0.024": 0.0,
			"-0.023": 0.0,
			"-0.022": 0.0,
			"-0.021": 0.0,
			"-0.02": 0.0,
			"-0.019": 0.0,
			"-0.018": 0.0,
			"-0.017": 0.0,
			"-0.016": 0.0,
			"-0.015": 0.0,
			"-0.014": 0.404337421532,
			"-0.013": 1.89725659051,
			"-0.012": 1.50053238576,
			"-0.011": 1.08357233867,
			"-0.01": 1.29504526367,
			"-0.009": 3.2374374797,
			"-0.008": 4.36285652102,
			"-0.007": 7.3019185718,
			"-0.006": 6.27219829857,
			"-0.005": 7.24765031572,
			"-0.004": 10.146825112,
			"-0.003": 11.0039981263,
			"-0.002": 13.2375082497,
			"-0.001": 14.3778578953,
			"0.0": 15.1294107206,
			"0.001": 16.7570866835,
			"0.002": 21.2671305133,
			"0.003": 22.6141419374,
			"0.004": 12.9793459228,
			"0.005": 6.40467437274,
			"0.006": 6.21131182666,
			"0.007": 2.92084555526,
			"0.008": 3.13331325456,
			"0.009": 1.86068035539,
			"0.01": 2.822759668,
			"0.011": 1.55364846664,
			"0.012": 1.16760573095,
			"0.013": 0.199148101014,
			"0.014": 0.0,
			"0.015": 0.0,
			"0.016": 0.0,
			"0.017": 0.0,
			"0.018": 0.0,
			"0.019": 0.0,
			"0.02": 0.0,
			"0.021": 0.0,
			"0.022": 0.0,
			"0.023": 0.0,
			"0.024": 0.0,
			"0.025": 0.0
		}
	}
}
