{
	 "smiles": "COC1=CC=CN=C1I", 
	 "Tm": 332.15, 
	 "num_atms": 15, 
	 "gaussian": { 
		 "optdone": 1, 
		 "sigma_profile": "no", 
		 "theory": "DFT", 
		 "functional": "B3LYP", 
		 "basiset": "6-31G**", 
		 "properties": { 
			 "R2extent": 1421.3634, 
			 "electric_dipole_moment_norm": 4.86401974194, 
			 "electric_quadrupole_moment_norm": 8.16842641639, 
			 "total_energy": -373.592603983, 
			 "HOMO_LUMO_gap": 0.19853, 
			 "cosmo_polarized_energy": -95727.18, 
			 "cosmo_cavitation_energy": 22.14, 
			 "cosmo_dispersion_energy": -17.97, 
			 "cosmo_repulsion_energy": 1.44, 
			 "cosmo_total_nonelectrostatic_energy": 5.62, 
			 "SMD_solvation_energy": 2.49 
		},
		"coords": [
			{
				"x": -0.8408066841,
				"y": 2.0737668233,
				"z": 0.1177963874,
				"element": "C" 
			},
			{
				"x": 0.3251301998,
				"y": 1.3054121933,
				"z": -0.1528362729,
				"element": "O" 
			},
			{
				"x": 0.4663269494,
				"y": 0.109766889,
				"z": 0.4598444211,
				"element": "C" 
			},
			{
				"x": -0.45085723,
				"y": -0.4505570424,
				"z": 1.3541969836,
				"element": "C" 
			},
			{
				"x": -0.1792795956,
				"y": -1.6994504322,
				"z": 1.917622431,
				"element": "C" 
			},
			{
				"x": 0.9977209224,
				"y": -2.3519344413,
				"z": 1.5727965867,
				"element": "C" 
			},
			{
				"x": 1.883484795,
				"y": -1.8199392956,
				"z": 0.7143649971,
				"element": "N" 
			},
			{
				"x": 1.6290828675,
				"y": -0.6465912237,
				"z": 0.1845758567,
				"element": "C" 
			},
			{
				"x": 3.0749836275,
				"y": 0.1477952666,
				"z": -1.1733416724,
				"element": "I" 
			},
			{
				"x": -1.7510893684,
				"y": 1.5410220527,
				"z": -0.1837698927,
				"element": "H" 
			},
			{
				"x": -0.9085535458,
				"y": 2.3391176755,
				"z": 1.180045057,
				"element": "H" 
			},
			{
				"x": -0.7406848391,
				"y": 2.9825869334,
				"z": -0.4758962627,
				"element": "H" 
			},
			{
				"x": -1.3635477536,
				"y": 0.0751167572,
				"z": 1.6100028279,
				"element": "H" 
			},
			{
				"x": -0.8782825682,
				"y": -2.1516246364,
				"z": 2.6139513383,
				"element": "H" 
			},
			{
				"x": 1.251472223,
				"y": -3.3244875195,
				"z": 1.9854472137,
				"element": "H" 
			}
		],
		 "valence_orbital": [ 
			{
				"type": "occ",
				"energy": -0.30511,
				"method": "rhf"
			},
			{
				"type": "occ",
				"energy": -0.26775,
				"method": "rhf"
			},
			{
				"type": "occ",
				"energy": -0.26431,
				"method": "rhf"
			},
			{
				"type": "occ",
				"energy": -0.24994,
				"method": "rhf"
			},
			{
				"type": "occ",
				"energy": -0.23199,
				"method": "rhf"
			},
			{
				"type": "unocc",
				"energy": -0.03346,
				"method": "rhf"
			},
			{
				"type": "unocc",
				"energy": -0.02966,
				"method": "rhf"
			},
			{
				"type": "unocc",
				"energy": -0.01362,
				"method": "rhf"
			},
			{
				"type": "unocc",
				"energy": 0.05055,
				"method": "rhf"
			},
			{
				"type": "unocc",
				"energy": 0.0576,
				"method": "rhf"
			}
		],
		"cosmo_sigma_profile": { 
			"0.0": 0.0,
			"0.0": 0.0,
			"0.0": 0.0,
			"0.0": 0.0,
			"0.0": 0.0,
			"0.0": 0.0,
			"0.0": 0.0,
			"0.0": 0.0,
			"0.0": 0.0,
			"0.0": 0.0,
			"0.0": 0.0,
			"0.0": 0.0,
			"0.0": 0.0,
			"0.0": 0.0,
			"0.0": 0.0,
			"0.0": 0.0,
			"0.0": 0.0,
			"0.0": 0.0,
			"0.0": 0.0,
			"0.0": 0.0,
			"0.0": 0.0,
			"0.0": 0.0,
			"0.0": 0.0,
			"0.0": 0.0,
			"0.0": 0.0,
			"0.0": 0.0,
			"0.0": 0.0,
			"0.0": 0.0,
			"0.0": 0.0,
			"0.0": 0.0,
			"0.0": 0.0,
			"0.0": 0.0,
			"0.0": 0.0,
			"0.0": 0.0,
			"0.0": 0.0,
			"0.0": 0.0,
			"0.0": 0.0,
			"0.0": 0.0,
			"0.0": 0.0,
			"0.0": 0.0,
			"0.0": 0.0,
			"0.0": 0.0,
			"0.0": 0.0,
			"0.0": 0.0,
			"0.0": 0.0,
			"0.0": 0.0,
			"0.0": 0.0,
			"0.0": 0.0,
			"0.0": 0.0,
			"0.0": 0.0,
			"0.0": 0.0
		}
	}
}
