{
	 "smiles": "CC1(CCCCN1C(=O)C1=CC=CC=C1)C(O)=O", 
	 "Tm": 461.15, 
	 "num_atms": 35, 
	 "gaussian": { 
		 "optdone": 1, 
		 "sigma_profile": "yes", 
		 "theory": "DFT", 
		 "functional": "B3LYP", 
		 "basiset": "6-31G**", 
		 "properties": { 
			 "R2extent": 5041.343, 
			 "electric_dipole_moment_norm": 6.61534915178, 
			 "electric_quadrupole_moment_norm": 11.7564317482, 
			 "total_energy": -824.193246656, 
			 "HOMO_LUMO_gap": 0.18925, 
			 "cosmo_polarized_energy": -15.0, 
			 "cosmo_cavitation_energy": 35.25, 
			 "cosmo_dispersion_energy": -25.19, 
			 "cosmo_repulsion_energy": 1.91, 
			 "cosmo_total_nonelectrostatic_energy": 11.97, 
			 "SMD_solvation_energy": 6.53 
		},
		"coords": [
			{
				"x": 0.3547727398,
				"y": 1.7396673097,
				"z": 1.9184041839,
				"element": "C" 
			},
			{
				"x": 0.2614795365,
				"y": 0.2949374251,
				"z": 1.3800793134,
				"element": "C" 
			},
			{
				"x": -1.0863141343,
				"y": -0.3042471899,
				"z": 1.8345153647,
				"element": "C" 
			},
			{
				"x": -1.3519462466,
				"y": -1.7393180254,
				"z": 1.3412208538,
				"element": "C" 
			},
			{
				"x": -0.7461099589,
				"y": -1.956762133,
				"z": -0.0587116864,
				"element": "C" 
			},
			{
				"x": -0.6537093583,
				"y": -0.6326933883,
				"z": -0.8164954937,
				"element": "C" 
			},
			{
				"x": 0.2834876026,
				"y": 0.2910397557,
				"z": -0.1294413542,
				"element": "N" 
			},
			{
				"x": 1.2193580918,
				"y": 0.9915653608,
				"z": -0.8343125994,
				"element": "C" 
			},
			{
				"x": 2.2712051324,
				"y": 1.4185807753,
				"z": -0.3151645585,
				"element": "O" 
			},
			{
				"x": 0.9848653929,
				"y": 1.2978163704,
				"z": -2.2838495711,
				"element": "C" 
			},
			{
				"x": -0.2534080119,
				"y": 1.7406945502,
				"z": -2.7706724296,
				"element": "C" 
			},
			{
				"x": -0.3901507968,
				"y": 2.1113209327,
				"z": -4.1080130675,
				"element": "C" 
			},
			{
				"x": 0.7042736206,
				"y": 2.0306272017,
				"z": -4.9715887528,
				"element": "C" 
			},
			{
				"x": 1.9426965351,
				"y": 1.5981562486,
				"z": -4.4903161434,
				"element": "C" 
			},
			{
				"x": 2.0869573363,
				"y": 1.2484627326,
				"z": -3.1496141252,
				"element": "C" 
			},
			{
				"x": 1.425064867,
				"y": -0.5422446922,
				"z": 2.0107061371,
				"element": "C" 
			},
			{
				"x": 2.6562850348,
				"y": -0.2750638817,
				"z": 1.5860863707,
				"element": "O" 
			},
			{
				"x": 1.2114120225,
				"y": -1.3566872986,
				"z": 2.8848277273,
				"element": "O" 
			},
			{
				"x": 1.2860159217,
				"y": 2.2312072832,
				"z": 1.6413972197,
				"element": "H" 
			},
			{
				"x": -0.481440147,
				"y": 2.331520725,
				"z": 1.5331070801,
				"element": "H" 
			},
			{
				"x": 0.2847873368,
				"y": 1.7150566292,
				"z": 3.0095477516,
				"element": "H" 
			},
			{
				"x": -1.1053083134,
				"y": -0.2752452222,
				"z": 2.9252738196,
				"element": "H" 
			},
			{
				"x": -1.8751665891,
				"y": 0.3702639902,
				"z": 1.4805946975,
				"element": "H" 
			},
			{
				"x": -0.9265240537,
				"y": -2.454430791,
				"z": 2.0467608977,
				"element": "H" 
			},
			{
				"x": -2.4347971107,
				"y": -1.9059075512,
				"z": 1.3142796328,
				"element": "H" 
			},
			{
				"x": -1.3446647739,
				"y": -2.6607943302,
				"z": -0.646695909,
				"element": "H" 
			},
			{
				"x": 0.2593285762,
				"y": -2.3857354508,
				"z": 0.0188993338,
				"element": "H" 
			},
			{
				"x": -0.2855605929,
				"y": -0.7941802113,
				"z": -1.8289144671,
				"element": "H" 
			},
			{
				"x": -1.6507118968,
				"y": -0.1805240467,
				"z": -0.8986659883,
				"element": "H" 
			},
			{
				"x": -1.1022664192,
				"y": 1.8187260465,
				"z": -2.0987604195,
				"element": "H" 
			},
			{
				"x": -1.348734552,
				"y": 2.4668925663,
				"z": -4.4740736438,
				"element": "H" 
			},
			{
				"x": 0.5945310729,
				"y": 2.3122750343,
				"z": -6.0148160852,
				"element": "H" 
			},
			{
				"x": 2.7974660752,
				"y": 1.5431606562,
				"z": -5.1577763698,
				"element": "H" 
			},
			{
				"x": 3.0494924565,
				"y": 0.9403771422,
				"z": -2.7553930942,
				"element": "H" 
			},
			{
				"x": 2.6358336037,
				"y": 0.4403854765,
				"z": 0.8858753749,
				"element": "H" 
			}
		],
		 "valence_orbital": [ 
			{
				"type": "occ",
				"energy": -0.2864,
				"method": "rhf"
			},
			{
				"type": "occ",
				"energy": -0.27628,
				"method": "rhf"
			},
			{
				"type": "occ",
				"energy": -0.26957,
				"method": "rhf"
			},
			{
				"type": "occ",
				"energy": -0.26121,
				"method": "rhf"
			},
			{
				"type": "occ",
				"energy": -0.24027,
				"method": "rhf"
			},
			{
				"type": "unocc",
				"energy": -0.05102,
				"method": "rhf"
			},
			{
				"type": "unocc",
				"energy": -0.01946,
				"method": "rhf"
			},
			{
				"type": "unocc",
				"energy": 0.01897,
				"method": "rhf"
			},
			{
				"type": "unocc",
				"energy": 0.02872,
				"method": "rhf"
			},
			{
				"type": "unocc",
				"energy": 0.06343,
				"method": "rhf"
			}
		],
		"cosmo_sigma_profile": { 
			"-0.025": 0.0,
			"-0.024": 0.0,
			"-0.023": 0.0,
			"-0.022": 0.0,
			"-0.021": 0.0,
			"-0.02": 0.0,
			"-0.019": 0.0,
			"-0.018": 0.0,
			"-0.017": 0.0,
			"-0.016": 0.0,
			"-0.015": 0.0,
			"-0.014": 0.0,
			"-0.013": 0.0,
			"-0.012": 0.0,
			"-0.011": 0.0,
			"-0.01": 0.0,
			"-0.009": 0.0,
			"-0.008": 0.0,
			"-0.007": 1.97980987398,
			"-0.006": 11.2348601867,
			"-0.005": 22.9740961579,
			"-0.004": 34.7106998001,
			"-0.003": 34.2281040911,
			"-0.002": 29.4750215135,
			"-0.001": 27.0249768595,
			"0.0": 23.661855687,
			"0.001": 12.9561407615,
			"0.002": 10.0376392899,
			"0.003": 11.7024163377,
			"0.004": 14.0001423103,
			"0.005": 6.88128249512,
			"0.006": 4.24583482675,
			"0.007": 3.35262894279,
			"0.008": 3.15027896363,
			"0.009": 4.03552393201,
			"0.01": 4.56579899178,
			"0.011": 5.24787377026,
			"0.012": 7.12841507956,
			"0.013": 3.71407606597,
			"0.014": 1.13868874002,
			"0.015": 0.0,
			"0.016": 0.0,
			"0.017": 0.0,
			"0.018": 0.0,
			"0.019": 0.0,
			"0.02": 0.0,
			"0.021": 0.0,
			"0.022": 0.0,
			"0.023": 0.0,
			"0.024": 0.0,
			"0.025": 0.0
		}
	}
}
