{
	 "smiles": "CC1=CC(=CC(C)=C1O)C#N", 
	 "Tm": 398.15, 
	 "num_atms": 20, 
	 "gaussian": { 
		 "optdone": 1, 
		 "sigma_profile": "yes", 
		 "theory": "DFT", 
		 "functional": "B3LYP", 
		 "basiset": "6-31G**", 
		 "properties": { 
			 "R2extent": 2557.8868, 
			 "electric_dipole_moment_norm": 5.7447701625, 
			 "electric_quadrupole_moment_norm": 29.9500235744, 
			 "total_energy": -478.354532398, 
			 "HOMO_LUMO_gap": 0.19793, 
			 "cosmo_polarized_energy": -12.97, 
			 "cosmo_cavitation_energy": 24.64, 
			 "cosmo_dispersion_energy": -17.54, 
			 "cosmo_repulsion_energy": 1.41, 
			 "cosmo_total_nonelectrostatic_energy": 8.51, 
			 "SMD_solvation_energy": 5.95 
		},
		"coords": [
			{
				"x": -1.4721821017,
				"y": 0.5122317125,
				"z": 0.5841998237,
				"element": "C" 
			},
			{
				"x": -0.2972207415,
				"y": 0.5155619635,
				"z": -0.3592592547,
				"element": "C" 
			},
			{
				"x": -0.3560512669,
				"y": -0.0808614528,
				"z": -1.6150200236,
				"element": "C" 
			},
			{
				"x": 0.7525259809,
				"y": -0.0656934001,
				"z": -2.4789479045,
				"element": "C" 
			},
			{
				"x": 1.9393931183,
				"y": 0.5606640452,
				"z": -2.0706590663,
				"element": "C" 
			},
			{
				"x": 2.0338336197,
				"y": 1.1680066768,
				"z": -0.8198014275,
				"element": "C" 
			},
			{
				"x": 3.305782572,
				"y": 1.8459740412,
				"z": -0.3675465707,
				"element": "C" 
			},
			{
				"x": 0.9071296074,
				"y": 1.1366387327,
				"z": 0.023452548,
				"element": "C" 
			},
			{
				"x": 0.9199099073,
				"y": 1.7083200489,
				"z": 1.2624036608,
				"element": "O" 
			},
			{
				"x": 0.672578935,
				"y": -0.6848795324,
				"z": -3.7673003914,
				"element": "C" 
			},
			{
				"x": 0.6088847653,
				"y": -1.1879901512,
				"z": -4.8151066553,
				"element": "N" 
			},
			{
				"x": -1.2189801532,
				"y": 0.0197323884,
				"z": 1.5292378763,
				"element": "H" 
			},
			{
				"x": -2.3261310251,
				"y": -0.006408474,
				"z": 0.1420135518,
				"element": "H" 
			},
			{
				"x": -1.7793508575,
				"y": 1.5328536307,
				"z": 0.8366702508,
				"element": "H" 
			},
			{
				"x": -1.2729353497,
				"y": -0.5663921172,
				"z": -1.9341090192,
				"element": "H" 
			},
			{
				"x": 2.7947976365,
				"y": 0.5717249554,
				"z": -2.7387983674,
				"element": "H" 
			},
			{
				"x": 4.0769087235,
				"y": 1.7795772806,
				"z": -1.137973677,
				"element": "H" 
			},
			{
				"x": 3.1517893344,
				"y": 2.9133860413,
				"z": -0.1585053114,
				"element": "H" 
			},
			{
				"x": 3.7182055737,
				"y": 1.3846857991,
				"z": 0.5401420745,
				"element": "H" 
			},
			{
				"x": 1.7837117214,
				"y": 2.1052678113,
				"z": 1.431407883,
				"element": "H" 
			}
		],
		 "valence_orbital": [ 
			{
				"type": "occ",
				"energy": -0.34693,
				"method": "rhf"
			},
			{
				"type": "occ",
				"energy": -0.31979,
				"method": "rhf"
			},
			{
				"type": "occ",
				"energy": -0.31802,
				"method": "rhf"
			},
			{
				"type": "occ",
				"energy": -0.26029,
				"method": "rhf"
			},
			{
				"type": "occ",
				"energy": -0.23259,
				"method": "rhf"
			},
			{
				"type": "unocc",
				"energy": -0.03466,
				"method": "rhf"
			},
			{
				"type": "unocc",
				"energy": -0.01527,
				"method": "rhf"
			},
			{
				"type": "unocc",
				"energy": 0.04569,
				"method": "rhf"
			},
			{
				"type": "unocc",
				"energy": 0.0486,
				"method": "rhf"
			},
			{
				"type": "unocc",
				"energy": 0.0806,
				"method": "rhf"
			}
		],
		"cosmo_sigma_profile": { 
			"-0.025": 0.0,
			"-0.024": 0.0,
			"-0.023": 0.0,
			"-0.022": 0.0,
			"-0.021": 0.0,
			"-0.02": 0.0,
			"-0.019": 0.0,
			"-0.018": 0.0,
			"-0.017": 0.40398126384,
			"-0.016": 0.470630560471,
			"-0.015": 0.789118221999,
			"-0.014": 1.36056859714,
			"-0.013": 0.805762758316,
			"-0.012": 1.22160834101,
			"-0.011": 1.25182967415,
			"-0.01": 1.34526913479,
			"-0.009": 0.839726277113,
			"-0.008": 1.79540667551,
			"-0.007": 6.6468569873,
			"-0.006": 8.84028383958,
			"-0.005": 10.9536581532,
			"-0.004": 12.9862059981,
			"-0.003": 13.0802757904,
			"-0.002": 14.0580455434,
			"-0.001": 18.4021983195,
			"0.0": 20.2054261099,
			"0.001": 13.9759467726,
			"0.002": 13.772421456,
			"0.003": 12.982944648,
			"0.004": 5.38574815078,
			"0.005": 3.86660551653,
			"0.006": 4.07933763948,
			"0.007": 3.89808983179,
			"0.008": 4.79991569518,
			"0.009": 5.30836942386,
			"0.01": 4.01973378798,
			"0.011": 3.04541489188,
			"0.012": 2.94214414439,
			"0.013": 2.22081187188,
			"0.014": 0.773687688839,
			"0.015": 0.0,
			"0.016": 0.0,
			"0.017": 0.0,
			"0.018": 0.0,
			"0.019": 0.0,
			"0.02": 0.0,
			"0.021": 0.0,
			"0.022": 0.0,
			"0.023": 0.0,
			"0.024": 0.0,
			"0.025": 0.0
		}
	}
}
