{
	 "smiles": "OC(=O)C1=C(C(Cl)=CC=C1)[N+]([O-])=O", 
	 "Tm": 511.15, 
	 "num_atms": 17, 
	 "gaussian": { 
		 "optdone": 1, 
		 "sigma_profile": "yes", 
		 "theory": "DFT", 
		 "functional": "B3LYP", 
		 "basiset": "6-31G**", 
		 "properties": { 
			 "R2extent": 2937.5041, 
			 "electric_dipole_moment_norm": 5.05097875367, 
			 "electric_quadrupole_moment_norm": 13.4978548596, 
			 "total_energy": -1084.8825921, 
			 "HOMO_LUMO_gap": 0.16232, 
			 "cosmo_polarized_energy": -12.49, 
			 "cosmo_cavitation_energy": 24.38, 
			 "cosmo_dispersion_energy": -17.98, 
			 "cosmo_repulsion_energy": 1.41, 
			 "cosmo_total_nonelectrostatic_energy": 7.8, 
			 "SMD_solvation_energy": 7.38 
		},
		"coords": [
			{
				"x": -0.0641312426,
				"y": 3.4780276595,
				"z": -0.8248013744,
				"element": "O" 
			},
			{
				"x": -0.9463487795,
				"y": 2.9390777917,
				"z": 0.0219389122,
				"element": "C" 
			},
			{
				"x": -1.9113743134,
				"y": 3.5616359947,
				"z": 0.4011098886,
				"element": "O" 
			},
			{
				"x": -0.7594567415,
				"y": 1.4930523775,
				"z": 0.4694278063,
				"element": "C" 
			},
			{
				"x": 0.4465834871,
				"y": 0.7980778649,
				"z": 0.6769257138,
				"element": "C" 
			},
			{
				"x": 0.4517943633,
				"y": -0.5317680058,
				"z": 1.1221702458,
				"element": "C" 
			},
			{
				"x": 1.9375440537,
				"y": -1.4199333221,
				"z": 1.3394729919,
				"element": "Cl" 
			},
			{
				"x": -0.7554734311,
				"y": -1.1859813267,
				"z": 1.3619459705,
				"element": "C" 
			},
			{
				"x": -1.9559123072,
				"y": -0.5013595462,
				"z": 1.1900803969,
				"element": "C" 
			},
			{
				"x": -1.9541404909,
				"y": 0.8218415429,
				"z": 0.7623707031,
				"element": "C" 
			},
			{
				"x": 1.7542231906,
				"y": 1.4540400879,
				"z": 0.4663356255,
				"element": "N" 
			},
			{
				"x": 2.0263316233,
				"y": 1.8184970548,
				"z": -0.687584972,
				"element": "O" 
			},
			{
				"x": 2.4894971866,
				"y": 1.5767557053,
				"z": 1.4280136179,
				"element": "O" 
			},
			{
				"x": 0.6385565361,
				"y": 2.8471866961,
				"z": -1.0785736047,
				"element": "H" 
			},
			{
				"x": -0.7389871749,
				"y": -2.2199708365,
				"z": 1.6869124505,
				"element": "H" 
			},
			{
				"x": -2.8953551264,
				"y": -1.0051715917,
				"z": 1.3929501897,
				"element": "H" 
			},
			{
				"x": -2.8778508333,
				"y": 1.3762918538,
				"z": 0.6480054383,
				"element": "H" 
			}
		],
		 "valence_orbital": [ 
			{
				"type": "occ",
				"energy": -0.33557,
				"method": "rhf"
			},
			{
				"type": "occ",
				"energy": -0.32538,
				"method": "rhf"
			},
			{
				"type": "occ",
				"energy": -0.30373,
				"method": "rhf"
			},
			{
				"type": "occ",
				"energy": -0.2938,
				"method": "rhf"
			},
			{
				"type": "occ",
				"energy": -0.28042,
				"method": "rhf"
			},
			{
				"type": "unocc",
				"energy": -0.1181,
				"method": "rhf"
			},
			{
				"type": "unocc",
				"energy": -0.07601,
				"method": "rhf"
			},
			{
				"type": "unocc",
				"energy": -0.05316,
				"method": "rhf"
			},
			{
				"type": "unocc",
				"energy": -0.0093,
				"method": "rhf"
			},
			{
				"type": "unocc",
				"energy": 0.01967,
				"method": "rhf"
			}
		],
		"cosmo_sigma_profile": { 
			"-0.025": 0.0,
			"-0.024": 0.0,
			"-0.023": 0.0,
			"-0.022": 0.0,
			"-0.021": 0.0,
			"-0.02": 0.0,
			"-0.019": 0.0,
			"-0.018": 0.0,
			"-0.017": 0.0,
			"-0.016": 0.0,
			"-0.015": 0.0,
			"-0.014": 0.0,
			"-0.013": 0.253573736962,
			"-0.012": 1.03104537255,
			"-0.011": 1.35248581986,
			"-0.01": 2.22551175979,
			"-0.009": 4.66907712166,
			"-0.008": 8.20365202944,
			"-0.007": 8.64468467493,
			"-0.006": 8.35254619161,
			"-0.005": 8.29081726424,
			"-0.004": 9.95655951906,
			"-0.003": 13.4529208637,
			"-0.002": 16.0048619948,
			"-0.001": 16.8439751661,
			"0.0": 15.4912255203,
			"0.001": 11.1187969904,
			"0.002": 10.7303513236,
			"0.003": 10.1902090297,
			"0.004": 7.70477341881,
			"0.005": 10.5228537758,
			"0.006": 8.56353083479,
			"0.007": 5.39856948616,
			"0.008": 3.74235143958,
			"0.009": 3.95939959375,
			"0.01": 5.09633773955,
			"0.011": 5.12539133738,
			"0.012": 2.0689127347,
			"0.013": 0.218084069752,
			"0.014": 0.0,
			"0.015": 0.0,
			"0.016": 0.0,
			"0.017": 0.0,
			"0.018": 0.0,
			"0.019": 0.0,
			"0.02": 0.0,
			"0.021": 0.0,
			"0.022": 0.0,
			"0.023": 0.0,
			"0.024": 0.0,
			"0.025": 0.0
		}
	}
}
