{
	 "smiles": "COC1=CC=C(C=C1)S(=O)(=O)NC1=NC=C(Br)S1", 
	 "Tm": 406.15, 
	 "num_atms": 27, 
	 "gaussian": { 
		 "optdone": 1, 
		 "sigma_profile": "yes", 
		 "theory": "DFT", 
		 "functional": "B3LYP", 
		 "basiset": "6-31G**", 
		 "properties": { 
			 "R2extent": 11725.3258, 
			 "electric_dipole_moment_norm": 6.28273652957, 
			 "electric_quadrupole_moment_norm": 12.3587326769, 
			 "total_energy": -4089.33741598, 
			 "HOMO_LUMO_gap": 0.179, 
			 "cosmo_polarized_energy": -15.84, 
			 "cosmo_cavitation_energy": 37.43, 
			 "cosmo_dispersion_energy": -27.92, 
			 "cosmo_repulsion_energy": 2.09, 
			 "cosmo_total_nonelectrostatic_energy": 11.6, 
			 "SMD_solvation_energy": 3.5 
		},
		"coords": [
			{
				"x": 4.8325994239,
				"y": -1.3509410193,
				"z": -1.8871105584,
				"element": "C" 
			},
			{
				"x": 3.6996371438,
				"y": -0.7613496461,
				"z": -2.5149760963,
				"element": "O" 
			},
			{
				"x": 2.6304522769,
				"y": -0.4289979933,
				"z": -1.7518098222,
				"element": "C" 
			},
			{
				"x": 1.5535365547,
				"y": 0.1569600102,
				"z": -2.441185281,
				"element": "C" 
			},
			{
				"x": 0.4094260619,
				"y": 0.536651631,
				"z": -1.7577725042,
				"element": "C" 
			},
			{
				"x": 0.3349752429,
				"y": 0.3280336943,
				"z": -0.3729846317,
				"element": "C" 
			},
			{
				"x": 1.4007842232,
				"y": -0.2448947472,
				"z": 0.3219887985,
				"element": "C" 
			},
			{
				"x": 2.5527466416,
				"y": -0.6245783087,
				"z": -0.3640550023,
				"element": "C" 
			},
			{
				"x": -1.1423122571,
				"y": 0.7805071158,
				"z": 0.5132354187,
				"element": "S" 
			},
			{
				"x": -0.8087162675,
				"y": 0.9301238348,
				"z": 1.9266936999,
				"element": "O" 
			},
			{
				"x": -1.8482968223,
				"y": 1.8016192617,
				"z": -0.2597047474,
				"element": "O" 
			},
			{
				"x": -2.1796626898,
				"y": -0.5832458843,
				"z": 0.4881203154,
				"element": "N" 
			},
			{
				"x": -2.7901029735,
				"y": -1.078898906,
				"z": -0.6607652921,
				"element": "C" 
			},
			{
				"x": -2.886419984,
				"y": -2.359984451,
				"z": -0.8833829357,
				"element": "N" 
			},
			{
				"x": -3.6339086975,
				"y": -2.607830923,
				"z": -2.0119629065,
				"element": "C" 
			},
			{
				"x": -4.0996092346,
				"y": -1.5020796835,
				"z": -2.6557738849,
				"element": "C" 
			},
			{
				"x": -5.0870417965,
				"y": -1.4359685928,
				"z": -4.2561286348,
				"element": "Br" 
			},
			{
				"x": -3.6171004931,
				"y": -0.0409046072,
				"z": -1.8202039753,
				"element": "S" 
			},
			{
				"x": 5.2744767255,
				"y": -0.6775866457,
				"z": -1.1427461425,
				"element": "H" 
			},
			{
				"x": 5.5546561842,
				"y": -1.5306690806,
				"z": -2.6841038083,
				"element": "H" 
			},
			{
				"x": 4.5757535769,
				"y": -2.3039342676,
				"z": -1.4089639848,
				"element": "H" 
			},
			{
				"x": 1.6462439864,
				"y": 0.3098758985,
				"z": -3.510894315,
				"element": "H" 
			},
			{
				"x": -0.4143447417,
				"y": 1.0095170461,
				"z": -2.2801636299,
				"element": "H" 
			},
			{
				"x": 1.3375562763,
				"y": -0.3732506739,
				"z": 1.397232033,
				"element": "H" 
			},
			{
				"x": 3.3777415088,
				"y": -1.0598647008,
				"z": 0.1860654361,
				"element": "H" 
			},
			{
				"x": -1.8699022201,
				"y": -1.3245137799,
				"z": 1.1114640142,
				"element": "H" 
			},
			{
				"x": -3.7991676496,
				"y": -3.6281945813,
				"z": -2.3338115623,
				"element": "H" 
			}
		],
		 "valence_orbital": [ 
			{
				"type": "occ",
				"energy": -0.28792,
				"method": "rhf"
			},
			{
				"type": "occ",
				"energy": -0.28681,
				"method": "rhf"
			},
			{
				"type": "occ",
				"energy": -0.28083,
				"method": "rhf"
			},
			{
				"type": "occ",
				"energy": -0.25187,
				"method": "rhf"
			},
			{
				"type": "occ",
				"energy": -0.22745,
				"method": "rhf"
			},
			{
				"type": "unocc",
				"energy": -0.04845,
				"method": "rhf"
			},
			{
				"type": "unocc",
				"energy": -0.03178,
				"method": "rhf"
			},
			{
				"type": "unocc",
				"energy": -0.02531,
				"method": "rhf"
			},
			{
				"type": "unocc",
				"energy": -0.00668,
				"method": "rhf"
			},
			{
				"type": "unocc",
				"energy": 0.00792,
				"method": "rhf"
			}
		],
		"cosmo_sigma_profile": { 
			"-0.025": 0.0,
			"-0.024": 0.0,
			"-0.023": 0.0,
			"-0.022": 0.0,
			"-0.021": 0.0,
			"-0.02": 0.0,
			"-0.019": 0.0,
			"-0.018": 0.0,
			"-0.017": 0.206909730087,
			"-0.016": 0.804434719915,
			"-0.015": 1.16971307889,
			"-0.014": 0.758387604398,
			"-0.013": 1.06868828684,
			"-0.012": 0.653191563513,
			"-0.011": 0.906286146092,
			"-0.01": 1.18378600721,
			"-0.009": 1.49920571279,
			"-0.008": 4.76000020399,
			"-0.007": 11.4157127672,
			"-0.006": 19.2066164012,
			"-0.005": 16.1536243637,
			"-0.004": 16.8947436181,
			"-0.003": 18.3833506585,
			"-0.002": 19.9638710142,
			"-0.001": 20.37395807,
			"0.0": 23.218488932,
			"0.001": 33.2702149235,
			"0.002": 33.8205584243,
			"0.003": 23.4447136447,
			"0.004": 9.83673859128,
			"0.005": 6.8687652672,
			"0.006": 5.76021201935,
			"0.007": 6.23415129373,
			"0.008": 5.45660794934,
			"0.009": 7.84836103743,
			"0.01": 9.67315967581,
			"0.011": 3.57609980929,
			"0.012": 0.854186672889,
			"0.013": 0.624588679107,
			"0.014": 0.199188898595,
			"0.015": 0.0,
			"0.016": 0.0,
			"0.017": 0.0,
			"0.018": 0.0,
			"0.019": 0.0,
			"0.02": 0.0,
			"0.021": 0.0,
			"0.022": 0.0,
			"0.023": 0.0,
			"0.024": 0.0,
			"0.025": 0.0
		}
	}
}
