{
	 "smiles": "OCC1=CC=C(C=C1)C1=CC=CS1", 
	 "Tm": 385.15, 
	 "num_atms": 23, 
	 "gaussian": { 
		 "optdone": 1, 
		 "sigma_profile": "yes", 
		 "theory": "DFT", 
		 "functional": "B3LYP", 
		 "basiset": "6-31G**", 
		 "properties": { 
			 "R2extent": 4241.2343, 
			 "electric_dipole_moment_norm": 1.06567907927, 
			 "electric_quadrupole_moment_norm": 8.36258709431, 
			 "total_energy": -898.590208252, 
			 "HOMO_LUMO_gap": 0.17216, 
			 "cosmo_polarized_energy": -9.12, 
			 "cosmo_cavitation_energy": 28.35, 
			 "cosmo_dispersion_energy": -21.47, 
			 "cosmo_repulsion_energy": 1.64, 
			 "cosmo_total_nonelectrostatic_energy": 8.52, 
			 "SMD_solvation_energy": 4.7 
		},
		"coords": [
			{
				"x": -1.9579714799,
				"y": -0.9285739706,
				"z": 3.62238911,
				"element": "O" 
			},
			{
				"x": -0.645681684,
				"y": -1.1620822675,
				"z": 3.1306956422,
				"element": "C" 
			},
			{
				"x": -0.5230191525,
				"y": -1.0183075694,
				"z": 1.6262930789,
				"element": "C" 
			},
			{
				"x": 0.6730516511,
				"y": -0.5938150571,
				"z": 1.0370524164,
				"element": "C" 
			},
			{
				"x": 0.796621884,
				"y": -0.4994780185,
				"z": -0.3466642498,
				"element": "C" 
			},
			{
				"x": -0.2839623184,
				"y": -0.8089390886,
				"z": -1.1915988594,
				"element": "C" 
			},
			{
				"x": -1.4904305261,
				"y": -1.2172051774,
				"z": -0.592363309,
				"element": "C" 
			},
			{
				"x": -1.6030356771,
				"y": -1.3284740909,
				"z": 0.7899055149,
				"element": "C" 
			},
			{
				"x": -0.1748819903,
				"y": -0.7148035877,
				"z": -2.6528890915,
				"element": "C" 
			},
			{
				"x": -0.8737234039,
				"y": -1.4140405596,
				"z": -3.6114550112,
				"element": "C" 
			},
			{
				"x": -0.5154264513,
				"y": -1.0709411889,
				"z": -4.9472534738,
				"element": "C" 
			},
			{
				"x": 0.4558957478,
				"y": -0.1096673636,
				"z": -5.0055026823,
				"element": "C" 
			},
			{
				"x": 0.9438967796,
				"y": 0.3969525073,
				"z": -3.4213249505,
				"element": "S" 
			},
			{
				"x": -2.2137921012,
				"y": -0.036580949,
				"z": 3.3514006503,
				"element": "H" 
			},
			{
				"x": -0.4093647857,
				"y": -2.1905351694,
				"z": 3.4305336448,
				"element": "H" 
			},
			{
				"x": 0.094295534,
				"y": -0.512005031,
				"z": 3.6243320399,
				"element": "H" 
			},
			{
				"x": 1.5229805195,
				"y": -0.3397739564,
				"z": 1.6665882163,
				"element": "H" 
			},
			{
				"x": 1.7447619378,
				"y": -0.1914800218,
				"z": -0.7782001257,
				"element": "H" 
			},
			{
				"x": -2.3514744276,
				"y": -1.4298293406,
				"z": -1.218580797,
				"element": "H" 
			},
			{
				"x": -2.5413562325,
				"y": -1.6403794957,
				"z": 1.2383774008,
				"element": "H" 
			},
			{
				"x": -1.6041670852,
				"y": -2.1760513926,
				"z": -3.3646298612,
				"element": "H" 
			},
			{
				"x": -0.9566910585,
				"y": -1.5276102047,
				"z": -5.8259819434,
				"element": "H" 
			},
			{
				"x": 0.9129743208,
				"y": 0.3336209939,
				"z": -5.8792233595,
				"element": "H" 
			}
		],
		 "valence_orbital": [ 
			{
				"type": "occ",
				"energy": -0.28281,
				"method": "rhf"
			},
			{
				"type": "occ",
				"energy": -0.26598,
				"method": "rhf"
			},
			{
				"type": "occ",
				"energy": -0.25486,
				"method": "rhf"
			},
			{
				"type": "occ",
				"energy": -0.25031,
				"method": "rhf"
			},
			{
				"type": "occ",
				"energy": -0.21061,
				"method": "rhf"
			},
			{
				"type": "unocc",
				"energy": -0.03845,
				"method": "rhf"
			},
			{
				"type": "unocc",
				"energy": -0.00714,
				"method": "rhf"
			},
			{
				"type": "unocc",
				"energy": 0.01868,
				"method": "rhf"
			},
			{
				"type": "unocc",
				"energy": 0.03513,
				"method": "rhf"
			},
			{
				"type": "unocc",
				"energy": 0.0699,
				"method": "rhf"
			}
		],
		"cosmo_sigma_profile": { 
			"-0.025": 0.0,
			"-0.024": 0.0,
			"-0.023": 0.0,
			"-0.022": 0.0,
			"-0.021": 0.0,
			"-0.02": 0.0,
			"-0.019": 0.0,
			"-0.018": 0.0,
			"-0.017": 0.0,
			"-0.016": 0.183148912456,
			"-0.015": 0.823294107909,
			"-0.014": 0.68352953055,
			"-0.013": 1.41435831639,
			"-0.012": 0.587232407246,
			"-0.011": 0.58336421101,
			"-0.01": 0.726465090519,
			"-0.009": 0.904983521033,
			"-0.008": 3.10098415619,
			"-0.007": 4.21798996097,
			"-0.006": 11.272491246,
			"-0.005": 16.6489767974,
			"-0.004": 19.7490695708,
			"-0.003": 17.5630461094,
			"-0.002": 14.5489579957,
			"-0.001": 13.2096522392,
			"0.0": 14.3671320047,
			"0.001": 12.9022685656,
			"0.002": 16.0744150444,
			"0.003": 18.3317634994,
			"0.004": 23.6646060274,
			"0.005": 20.6554036825,
			"0.006": 5.67479604645,
			"0.007": 0.699200580692,
			"0.008": 1.09995615186,
			"0.009": 1.24384733584,
			"0.01": 1.58730247701,
			"0.011": 1.05787603894,
			"0.012": 0.934397021055,
			"0.013": 1.86019743699,
			"0.014": 1.97086230899,
			"0.015": 0.0400532793746,
			"0.016": 0.0,
			"0.017": 0.0,
			"0.018": 0.0,
			"0.019": 0.0,
			"0.02": 0.0,
			"0.021": 0.0,
			"0.022": 0.0,
			"0.023": 0.0,
			"0.024": 0.0,
			"0.025": 0.0
		}
	}
}
