{
	 "smiles": "NC1=NC=C(S1)C#N", 
	 "Tm": 458.15, 
	 "num_atms": 11, 
	 "gaussian": { 
		 "optdone": 1, 
		 "sigma_profile": "yes", 
		 "theory": "DFT", 
		 "functional": "B3LYP", 
		 "basiset": "6-31G**", 
		 "properties": { 
			 "R2extent": 2315.4491, 
			 "electric_dipole_moment_norm": 5.90506952372, 
			 "electric_quadrupole_moment_norm": 19.9114645787, 
			 "total_energy": -716.647130959, 
			 "HOMO_LUMO_gap": 0.18051, 
			 "cosmo_polarized_energy": -14.73, 
			 "cosmo_cavitation_energy": 18.53, 
			 "cosmo_dispersion_energy": -13.94, 
			 "cosmo_repulsion_energy": 1.13, 
			 "cosmo_total_nonelectrostatic_energy": 5.71, 
			 "SMD_solvation_energy": 2.97 
		},
		"coords": [
			{
				"x": -0.6103326434,
				"y": -0.6394918174,
				"z": 0.1741149935,
				"element": "N" 
			},
			{
				"x": 0.6398635578,
				"y": -0.4521451618,
				"z": -0.3361979602,
				"element": "C" 
			},
			{
				"x": 1.6118946055,
				"y": 0.1192564708,
				"z": 0.3332967533,
				"element": "N" 
			},
			{
				"x": 2.7632092044,
				"y": 0.1179175494,
				"z": -0.3970307149,
				"element": "C" 
			},
			{
				"x": 2.7093743871,
				"y": -0.4468448366,
				"z": -1.6486051872,
				"element": "C" 
			},
			{
				"x": 1.0731338491,
				"y": -1.0474635669,
				"z": -1.9414392278,
				"element": "S" 
			},
			{
				"x": 3.7408309078,
				"y": -0.5624883602,
				"z": -2.6038980162,
				"element": "C" 
			},
			{
				"x": 4.5929911336,
				"y": -0.6578393447,
				"z": -3.3938658973,
				"element": "N" 
			},
			{
				"x": -0.8040599287,
				"y": -0.1204506823,
				"z": 1.0193356733,
				"element": "H" 
			},
			{
				"x": -1.3865279302,
				"y": -0.7638533573,
				"z": -0.4572519947,
				"element": "H" 
			},
			{
				"x": 3.6610228572,
				"y": 0.5590031071,
				"z": 0.0202415781,
				"element": "H" 
			}
		],
		 "valence_orbital": [ 
			{
				"type": "occ",
				"energy": -0.33285,
				"method": "rhf"
			},
			{
				"type": "occ",
				"energy": -0.32718,
				"method": "rhf"
			},
			{
				"type": "occ",
				"energy": -0.29873,
				"method": "rhf"
			},
			{
				"type": "occ",
				"energy": -0.29689,
				"method": "rhf"
			},
			{
				"type": "occ",
				"energy": -0.23228,
				"method": "rhf"
			},
			{
				"type": "unocc",
				"energy": -0.05177,
				"method": "rhf"
			},
			{
				"type": "unocc",
				"energy": -0.02275,
				"method": "rhf"
			},
			{
				"type": "unocc",
				"energy": 0.01361,
				"method": "rhf"
			},
			{
				"type": "unocc",
				"energy": 0.02419,
				"method": "rhf"
			},
			{
				"type": "unocc",
				"energy": 0.06308,
				"method": "rhf"
			}
		],
		"cosmo_sigma_profile": { 
			"-0.025": 0.0,
			"-0.024": 0.0,
			"-0.023": 0.0,
			"-0.022": 0.0,
			"-0.021": 0.0,
			"-0.02": 0.0,
			"-0.019": 0.0,
			"-0.018": 0.0,
			"-0.017": 0.0,
			"-0.016": 1.0123041536,
			"-0.015": 2.52819633764,
			"-0.014": 3.21621068459,
			"-0.013": 2.89093028123,
			"-0.012": 2.33738272319,
			"-0.011": 1.83359741247,
			"-0.01": 2.30207774569,
			"-0.009": 3.94207384187,
			"-0.008": 4.00452863207,
			"-0.007": 2.71518097411,
			"-0.006": 3.54473012148,
			"-0.005": 4.26388205943,
			"-0.004": 6.45903026857,
			"-0.003": 5.93308094749,
			"-0.002": 7.22873605192,
			"-0.001": 11.9970335691,
			"0.0": 15.9085925537,
			"0.001": 12.5173383655,
			"0.002": 7.92756217229,
			"0.003": 7.68298949774,
			"0.004": 4.31607535667,
			"0.005": 4.29662481724,
			"0.006": 4.37784458131,
			"0.007": 4.93800310288,
			"0.008": 4.66246038181,
			"0.009": 4.47898422575,
			"0.01": 4.3298744883,
			"0.011": 3.51320431715,
			"0.012": 3.54138213084,
			"0.013": 2.97565399252,
			"0.014": 0.71076711686,
			"0.015": 0.0,
			"0.016": 0.0,
			"0.017": 0.0,
			"0.018": 0.0,
			"0.019": 0.0,
			"0.02": 0.0,
			"0.021": 0.0,
			"0.022": 0.0,
			"0.023": 0.0,
			"0.024": 0.0,
			"0.025": 0.0
		}
	}
}
