{
	 "smiles": "OC(=O)C1=CC=C(OC(=O)C2=CC=CC=C2)C=C1", 
	 "Tm": 362.15, 
	 "num_atms": 28, 
	 "gaussian": { 
		 "optdone": 1, 
		 "sigma_profile": "yes", 
		 "theory": "DFT", 
		 "functional": "B3LYP", 
		 "basiset": "6-31G**", 
		 "properties": { 
			 "R2extent": 7585.1301, 
			 "electric_dipole_moment_norm": 3.94930051148, 
			 "electric_quadrupole_moment_norm": 17.6469036261, 
			 "total_energy": -840.442827607, 
			 "HOMO_LUMO_gap": 0.1881, 
			 "cosmo_polarized_energy": -12.9, 
			 "cosmo_cavitation_energy": 34.17, 
			 "cosmo_dispersion_energy": -24.83, 
			 "cosmo_repulsion_energy": 1.89, 
			 "cosmo_total_nonelectrostatic_energy": 11.23, 
			 "SMD_solvation_energy": 8.01 
		},
		"coords": [
			{
				"x": 3.5725390292,
				"y": 3.6028487453,
				"z": -2.7317365238,
				"element": "O" 
			},
			{
				"x": 2.4915660119,
				"y": 3.0636194676,
				"z": -3.352288141,
				"element": "C" 
			},
			{
				"x": 2.3296368335,
				"y": 3.1516386617,
				"z": -4.5538627932,
				"element": "O" 
			},
			{
				"x": 1.5649269057,
				"y": 2.3790825277,
				"z": -2.4163392275,
				"element": "C" 
			},
			{
				"x": 0.4118966646,
				"y": 1.7845051679,
				"z": -2.9465787236,
				"element": "C" 
			},
			{
				"x": -0.4980071957,
				"y": 1.1289838836,
				"z": -2.1237775749,
				"element": "C" 
			},
			{
				"x": -0.2389523395,
				"y": 1.0696911569,
				"z": -0.7511387424,
				"element": "C" 
			},
			{
				"x": -1.1155442915,
				"y": 0.5095556556,
				"z": 0.1686922739,
				"element": "O" 
			},
			{
				"x": -1.7845478503,
				"y": -0.6638681873,
				"z": -0.0866186411,
				"element": "C" 
			},
			{
				"x": -1.6505273359,
				"y": -1.307968212,
				"z": -1.1022827391,
				"element": "O" 
			},
			{
				"x": -2.6762421356,
				"y": -1.0330830204,
				"z": 1.0447354295,
				"element": "C" 
			},
			{
				"x": -3.4027170729,
				"y": -2.2274709909,
				"z": 0.9298764327,
				"element": "C" 
			},
			{
				"x": -4.2559421775,
				"y": -2.6260484918,
				"z": 1.9550402765,
				"element": "C" 
			},
			{
				"x": -4.389832975,
				"y": -1.8344406404,
				"z": 3.0991774944,
				"element": "C" 
			},
			{
				"x": -3.6684337777,
				"y": -0.6437537388,
				"z": 3.2166529483,
				"element": "C" 
			},
			{
				"x": -2.8116969692,
				"y": -0.2405717787,
				"z": 2.1940408276,
				"element": "C" 
			},
			{
				"x": 0.9029928655,
				"y": 1.6595257802,
				"z": -0.204552515,
				"element": "C" 
			},
			{
				"x": 1.8046864237,
				"y": 2.3141610849,
				"z": -1.0364732328,
				"element": "C" 
			},
			{
				"x": 4.098526053,
				"y": 4.0165432938,
				"z": -3.4354880929,
				"element": "H" 
			},
			{
				"x": 0.2415251843,
				"y": 1.8478142004,
				"z": -4.0158463026,
				"element": "H" 
			},
			{
				"x": -1.3825676518,
				"y": 0.663638968,
				"z": -2.5359639462,
				"element": "H" 
			},
			{
				"x": -3.2829125769,
				"y": -2.8242065376,
				"z": 0.0320755364,
				"element": "H" 
			},
			{
				"x": -4.8167244085,
				"y": -3.5513862142,
				"z": 1.8638754008,
				"element": "H" 
			},
			{
				"x": -5.0561056762,
				"y": -2.1452967481,
				"z": 3.8988495313,
				"element": "H" 
			},
			{
				"x": -3.7736060118,
				"y": -0.0293097519,
				"z": 4.1057827563,
				"element": "H" 
			},
			{
				"x": -2.2491158817,
				"y": 0.6816050148,
				"z": 2.2791265447,
				"element": "H" 
			},
			{
				"x": 1.0661612965,
				"y": 1.5975128391,
				"z": 0.8660421533,
				"element": "H" 
			},
			{
				"x": 2.6939190594,
				"y": 2.7743778647,
				"z": -0.6217204095,
				"element": "H" 
			}
		],
		 "valence_orbital": [ 
			{
				"type": "occ",
				"energy": -0.27585,
				"method": "rhf"
			},
			{
				"type": "occ",
				"energy": -0.26938,
				"method": "rhf"
			},
			{
				"type": "occ",
				"energy": -0.26605,
				"method": "rhf"
			},
			{
				"type": "occ",
				"energy": -0.26414,
				"method": "rhf"
			},
			{
				"type": "occ",
				"energy": -0.25059,
				"method": "rhf"
			},
			{
				"type": "unocc",
				"energy": -0.06249,
				"method": "rhf"
			},
			{
				"type": "unocc",
				"energy": -0.04145,
				"method": "rhf"
			},
			{
				"type": "unocc",
				"energy": -0.01516,
				"method": "rhf"
			},
			{
				"type": "unocc",
				"energy": -0.01347,
				"method": "rhf"
			},
			{
				"type": "unocc",
				"energy": 0.04358,
				"method": "rhf"
			}
		],
		"cosmo_sigma_profile": { 
			"-0.025": 0.0,
			"-0.024": 0.0,
			"-0.023": 0.0,
			"-0.022": 0.0,
			"-0.021": 0.0,
			"-0.02": 0.0,
			"-0.019": 0.00372867421125,
			"-0.018": 0.806649546288,
			"-0.017": 0.914710640187,
			"-0.016": 0.723400402487,
			"-0.015": 0.970304178136,
			"-0.014": 0.832163760326,
			"-0.013": 0.276944599199,
			"-0.012": 0.375868659125,
			"-0.011": 1.31237252734,
			"-0.01": 0.654688618954,
			"-0.009": 0.39021550685,
			"-0.008": 1.11011556657,
			"-0.007": 6.69095749498,
			"-0.006": 17.9328762404,
			"-0.005": 18.3540381185,
			"-0.004": 16.2614783967,
			"-0.003": 17.6346048154,
			"-0.002": 18.1227213054,
			"-0.001": 17.9593144236,
			"0.0": 22.7582289351,
			"0.001": 27.2596585757,
			"0.002": 30.1445190746,
			"0.003": 23.3750354777,
			"0.004": 13.2145897516,
			"0.005": 4.7826927613,
			"0.006": 3.92208406782,
			"0.007": 5.611528785,
			"0.008": 3.47238024991,
			"0.009": 3.05778470202,
			"0.01": 5.31437557812,
			"0.011": 6.91048374543,
			"0.012": 3.87133439077,
			"0.013": 0.0874818679578,
			"0.014": 0.0,
			"0.015": 0.0,
			"0.016": 0.0,
			"0.017": 0.0,
			"0.018": 0.0,
			"0.019": 0.0,
			"0.02": 0.0,
			"0.021": 0.0,
			"0.022": 0.0,
			"0.023": 0.0,
			"0.024": 0.0,
			"0.025": 0.0
		}
	}
}
