{
	 "smiles": "COC1=CC2=C(C=C1OC)C(C2)C#N", 
	 "Tm": 355.15, 
	 "num_atms": 25, 
	 "gaussian": { 
		 "optdone": 1, 
		 "sigma_profile": "yes", 
		 "theory": "DFT", 
		 "functional": "B3LYP", 
		 "basiset": "6-31G**", 
		 "properties": { 
			 "R2extent": 4121.7452, 
			 "electric_dipole_moment_norm": 4.64113431825, 
			 "electric_quadrupole_moment_norm": 19.1630101839, 
			 "total_energy": -630.908971792, 
			 "HOMO_LUMO_gap": 0.20365, 
			 "cosmo_polarized_energy": -12.83, 
			 "cosmo_cavitation_energy": 29.76, 
			 "cosmo_dispersion_energy": -20.9, 
			 "cosmo_repulsion_energy": 1.68, 
			 "cosmo_total_nonelectrostatic_energy": 10.54, 
			 "SMD_solvation_energy": 7.72 
		},
		"coords": [
			{
				"x": 2.9036268464,
				"y": -3.1510884755,
				"z": -1.468001831,
				"element": "C" 
			},
			{
				"x": 3.217580859,
				"y": -2.437762703,
				"z": -0.269127115,
				"element": "O" 
			},
			{
				"x": 2.3502541691,
				"y": -1.4325625106,
				"z": 0.0796799217,
				"element": "C" 
			},
			{
				"x": 1.57384445,
				"y": -1.6003758352,
				"z": 1.2307326032,
				"element": "C" 
			},
			{
				"x": 0.7605112932,
				"y": -0.5337830422,
				"z": 1.5969421443,
				"element": "C" 
			},
			{
				"x": 0.7100574977,
				"y": 0.6269565967,
				"z": 0.8436651622,
				"element": "C" 
			},
			{
				"x": 1.4685960913,
				"y": 0.8361202856,
				"z": -0.3013146711,
				"element": "C" 
			},
			{
				"x": 2.3103183335,
				"y": -0.2238880557,
				"z": -0.6755439224,
				"element": "C" 
			},
			{
				"x": 3.1463320065,
				"y": -0.1902641611,
				"z": -1.7541287041,
				"element": "O" 
			},
			{
				"x": 3.210559979,
				"y": 1.0059600816,
				"z": -2.5156994142,
				"element": "C" 
			},
			{
				"x": -0.3440277866,
				"y": 1.2789846683,
				"z": 1.7417632246,
				"element": "C" 
			},
			{
				"x": -0.2416256038,
				"y": -0.0431779347,
				"z": 2.6283782295,
				"element": "C" 
			},
			{
				"x": 0.0151317828,
				"y": 2.5314127799,
				"z": 2.402727034,
				"element": "C" 
			},
			{
				"x": 0.3096538821,
				"y": 3.5259264106,
				"z": 2.92566443,
				"element": "N" 
			},
			{
				"x": 1.9130628066,
				"y": -3.6192194917,
				"z": -1.3963676833,
				"element": "H" 
			},
			{
				"x": 3.6623677419,
				"y": -3.9304024896,
				"z": -1.563834366,
				"element": "H" 
			},
			{
				"x": 2.9379725211,
				"y": -2.4984425246,
				"z": -2.3450243689,
				"element": "H" 
			},
			{
				"x": 1.6540626275,
				"y": -2.5323201995,
				"z": 1.7809729116,
				"element": "H" 
			},
			{
				"x": 1.4320099646,
				"y": 1.7597239897,
				"z": -0.8661610029,
				"element": "H" 
			},
			{
				"x": 3.5303760622,
				"y": 1.8567891151,
				"z": -1.9012394417,
				"element": "H" 
			},
			{
				"x": 3.9522200499,
				"y": 0.8258659981,
				"z": -3.2950934182,
				"element": "H" 
			},
			{
				"x": 2.2456919936,
				"y": 1.2422589122,
				"z": -2.9829556097,
				"element": "H" 
			},
			{
				"x": -1.3274657783,
				"y": 1.3988835397,
				"z": 1.2719933207,
				"element": "H" 
			},
			{
				"x": 0.1519917681,
				"y": 0.1326738057,
				"z": 3.6336528006,
				"element": "H" 
			},
			{
				"x": -1.1852035572,
				"y": -0.5927687599,
				"z": 2.7058197661,
				"element": "H" 
			}
		],
		 "valence_orbital": [ 
			{
				"type": "occ",
				"energy": -0.3119,
				"method": "rhf"
			},
			{
				"type": "occ",
				"energy": -0.3111,
				"method": "rhf"
			},
			{
				"type": "occ",
				"energy": -0.27845,
				"method": "rhf"
			},
			{
				"type": "occ",
				"energy": -0.25178,
				"method": "rhf"
			},
			{
				"type": "occ",
				"energy": -0.21885,
				"method": "rhf"
			},
			{
				"type": "unocc",
				"energy": -0.0152,
				"method": "rhf"
			},
			{
				"type": "unocc",
				"energy": 0.00227,
				"method": "rhf"
			},
			{
				"type": "unocc",
				"energy": 0.02755,
				"method": "rhf"
			},
			{
				"type": "unocc",
				"energy": 0.04174,
				"method": "rhf"
			},
			{
				"type": "unocc",
				"energy": 0.08517,
				"method": "rhf"
			}
		],
		"cosmo_sigma_profile": { 
			"-0.025": 0.0,
			"-0.024": 0.0,
			"-0.023": 0.0,
			"-0.022": 0.0,
			"-0.021": 0.0,
			"-0.02": 0.0,
			"-0.019": 0.0,
			"-0.018": 0.0,
			"-0.017": 0.0,
			"-0.016": 0.0,
			"-0.015": 0.0,
			"-0.014": 0.0,
			"-0.013": 0.0,
			"-0.012": 0.0,
			"-0.011": 0.0,
			"-0.01": 0.0,
			"-0.009": 0.763125456734,
			"-0.008": 3.02112659392,
			"-0.007": 5.30840813043,
			"-0.006": 15.1007918822,
			"-0.005": 22.7708364729,
			"-0.004": 23.4186265252,
			"-0.003": 26.3602485602,
			"-0.002": 22.9611120201,
			"-0.001": 12.8471935172,
			"0.0": 12.4714563501,
			"0.001": 11.3666810273,
			"0.002": 11.6373250695,
			"0.003": 13.8015644225,
			"0.004": 13.9044224284,
			"0.005": 4.37858366724,
			"0.006": 5.08045151908,
			"0.007": 4.32371771872,
			"0.008": 4.78870705332,
			"0.009": 6.03806687585,
			"0.01": 5.22229948447,
			"0.011": 5.48718528896,
			"0.012": 4.33548227763,
			"0.013": 2.0745872482,
			"0.014": 0.33257564472,
			"0.015": 0.0,
			"0.016": 0.0,
			"0.017": 0.0,
			"0.018": 0.0,
			"0.019": 0.0,
			"0.02": 0.0,
			"0.021": 0.0,
			"0.022": 0.0,
			"0.023": 0.0,
			"0.024": 0.0,
			"0.025": 0.0
		}
	}
}
