{
	 "smiles": "OCC1=CN(N=N1)C1=C(Cl)C=CC=C1", 
	 "Tm": 361.15, 
	 "num_atms": 22, 
	 "gaussian": { 
		 "optdone": 1, 
		 "sigma_profile": "yes", 
		 "theory": "DFT", 
		 "functional": "B3LYP", 
		 "basiset": "6-31G**", 
		 "properties": { 
			 "R2extent": 3875.1094, 
			 "electric_dipole_moment_norm": 4.98519036648, 
			 "electric_quadrupole_moment_norm": 8.14858694744, 
			 "total_energy": -1047.39061012, 
			 "HOMO_LUMO_gap": 0.20674, 
			 "cosmo_polarized_energy": -12.86, 
			 "cosmo_cavitation_energy": 28.48, 
			 "cosmo_dispersion_energy": -21.06, 
			 "cosmo_repulsion_energy": 1.67, 
			 "cosmo_total_nonelectrostatic_energy": 9.09, 
			 "SMD_solvation_energy": 3.66 
		},
		"coords": [
			{
				"x": -0.50963859,
				"y": -0.7011336314,
				"z": 3.8579743185,
				"element": "O" 
			},
			{
				"x": -0.6422083875,
				"y": 0.4511303621,
				"z": 3.0417169622,
				"element": "C" 
			},
			{
				"x": 0.1335258888,
				"y": 0.3251377209,
				"z": 1.7621917729,
				"element": "C" 
			},
			{
				"x": -0.2248443496,
				"y": 0.4936700705,
				"z": 0.4463955352,
				"element": "C" 
			},
			{
				"x": 0.9151446698,
				"y": 0.2288221316,
				"z": -0.2577629779,
				"element": "N" 
			},
			{
				"x": 1.9323812043,
				"y": -0.0892447443,
				"z": 0.5961567276,
				"element": "N" 
			},
			{
				"x": 1.4546139383,
				"y": -0.0298780166,
				"z": 1.8010383519,
				"element": "N" 
			},
			{
				"x": 1.1837100838,
				"y": 0.3254318352,
				"z": -1.6497402161,
				"element": "C" 
			},
			{
				"x": 0.3293645156,
				"y": -0.1968187229,
				"z": -2.6336544663,
				"element": "C" 
			},
			{
				"x": -1.1439865346,
				"y": -1.0534442089,
				"z": -2.2185635103,
				"element": "Cl" 
			},
			{
				"x": 0.6546851703,
				"y": -0.0696813867,
				"z": -3.9850953482,
				"element": "C" 
			},
			{
				"x": 1.8397500545,
				"y": 0.5572271658,
				"z": -4.3637296417,
				"element": "C" 
			},
			{
				"x": 2.704699342,
				"y": 1.0602681404,
				"z": -3.3905776659,
				"element": "C" 
			},
			{
				"x": 2.3737438439,
				"y": 0.9506666244,
				"z": -2.0441033105,
				"element": "C" 
			},
			{
				"x": 0.43526917,
				"y": -0.9088671207,
				"z": 3.8862220961,
				"element": "H" 
			},
			{
				"x": -1.7080075625,
				"y": 0.5737149273,
				"z": 2.8268656508,
				"element": "H" 
			},
			{
				"x": -0.310859943,
				"y": 1.3552748781,
				"z": 3.5784876832,
				"element": "H" 
			},
			{
				"x": -1.1515443096,
				"y": 0.7708777445,
				"z": -0.0269317873,
				"element": "H" 
			},
			{
				"x": -0.0210858843,
				"y": -0.4776744551,
				"z": -4.7282343904,
				"element": "H" 
			},
			{
				"x": 2.0846638118,
				"y": 0.6461366298,
				"z": -5.4174013175,
				"element": "H" 
			},
			{
				"x": 3.6316964833,
				"y": 1.5460571268,
				"z": -3.6772841828,
				"element": "H" 
			},
			{
				"x": 3.0266273846,
				"y": 1.336726929,
				"z": -1.2702702836,
				"element": "H" 
			}
		],
		 "valence_orbital": [ 
			{
				"type": "occ",
				"energy": -0.27793,
				"method": "rhf"
			},
			{
				"type": "occ",
				"energy": -0.27457,
				"method": "rhf"
			},
			{
				"type": "occ",
				"energy": -0.26795,
				"method": "rhf"
			},
			{
				"type": "occ",
				"energy": -0.26314,
				"method": "rhf"
			},
			{
				"type": "occ",
				"energy": -0.25338,
				"method": "rhf"
			},
			{
				"type": "unocc",
				"energy": -0.04664,
				"method": "rhf"
			},
			{
				"type": "unocc",
				"energy": -0.03169,
				"method": "rhf"
			},
			{
				"type": "unocc",
				"energy": 0.00031,
				"method": "rhf"
			},
			{
				"type": "unocc",
				"energy": 0.01147,
				"method": "rhf"
			},
			{
				"type": "unocc",
				"energy": 0.03877,
				"method": "rhf"
			}
		],
		"cosmo_sigma_profile": { 
			"-0.025": 0.0,
			"-0.024": 0.0,
			"-0.023": 0.0,
			"-0.022": 0.0,
			"-0.021": 0.0,
			"-0.02": 0.0,
			"-0.019": 0.0,
			"-0.018": 0.0,
			"-0.017": 0.0,
			"-0.016": 0.0,
			"-0.015": 0.0,
			"-0.014": 0.0,
			"-0.013": 0.700234496258,
			"-0.012": 0.634504065488,
			"-0.011": 0.576418591163,
			"-0.01": 1.38992967422,
			"-0.009": 2.63895821627,
			"-0.008": 5.02334315642,
			"-0.007": 11.4382815398,
			"-0.006": 13.3722597648,
			"-0.005": 14.561287798,
			"-0.004": 14.4860256432,
			"-0.003": 14.6827433926,
			"-0.002": 15.0410526596,
			"-0.001": 15.1831589384,
			"0.0": 19.0904718025,
			"0.001": 20.2470688759,
			"0.002": 20.6758396843,
			"0.003": 17.8910604882,
			"0.004": 7.95059791072,
			"0.005": 3.37356513812,
			"0.006": 3.34988916299,
			"0.007": 2.53075347966,
			"0.008": 3.05717951093,
			"0.009": 4.3004020944,
			"0.01": 5.47042505945,
			"0.011": 4.31255374292,
			"0.012": 2.52779844758,
			"0.013": 3.60851534154,
			"0.014": 2.45669986188,
			"0.015": 0.00271411567927,
			"0.016": 0.0,
			"0.017": 0.0,
			"0.018": 0.0,
			"0.019": 0.0,
			"0.02": 0.0,
			"0.021": 0.0,
			"0.022": 0.0,
			"0.023": 0.0,
			"0.024": 0.0,
			"0.025": 0.0
		}
	}
}
