{
	 "smiles": "OCCC1=CNN=C1C(F)(F)F", 
	 "Tm": 364.15, 
	 "num_atms": 19, 
	 "gaussian": { 
		 "optdone": 1, 
		 "sigma_profile": "yes", 
		 "theory": "DFT", 
		 "functional": "B3LYP", 
		 "basiset": "6-31G**", 
		 "properties": { 
			 "R2extent": 2306.2118, 
			 "electric_dipole_moment_norm": 4.19596449222, 
			 "electric_quadrupole_moment_norm": 13.3498049158, 
			 "total_energy": -717.077026434, 
			 "HOMO_LUMO_gap": 0.25466, 
			 "cosmo_polarized_energy": -14.26, 
			 "cosmo_cavitation_energy": 24.32, 
			 "cosmo_dispersion_energy": -17.47, 
			 "cosmo_repulsion_energy": 1.38, 
			 "cosmo_total_nonelectrostatic_energy": 8.23, 
			 "SMD_solvation_energy": 4.69 
		},
		"coords": [
			{
				"x": -1.3258211364,
				"y": -0.4611004997,
				"z": 2.700295908,
				"element": "O" 
			},
			{
				"x": -0.3703673253,
				"y": -0.3297926172,
				"z": 1.6567190484,
				"element": "C" 
			},
			{
				"x": -1.0443614595,
				"y": -0.8026633376,
				"z": 0.3641517126,
				"element": "C" 
			},
			{
				"x": -0.1271280158,
				"y": -0.7569655618,
				"z": -0.8247639762,
				"element": "C" 
			},
			{
				"x": 0.5878592871,
				"y": -1.8003805747,
				"z": -1.3839190367,
				"element": "C" 
			},
			{
				"x": 1.2965798295,
				"y": -1.2820886435,
				"z": -2.4234233114,
				"element": "N" 
			},
			{
				"x": 1.1009368043,
				"y": 0.0332928572,
				"z": -2.5960862238,
				"element": "N" 
			},
			{
				"x": 0.2416262604,
				"y": 0.356019211,
				"z": -1.6308811871,
				"element": "C" 
			},
			{
				"x": -0.2161555456,
				"y": 1.7728106324,
				"z": -1.4839700684,
				"element": "C" 
			},
			{
				"x": 0.1552066644,
				"y": 2.5409407615,
				"z": -2.5170738136,
				"element": "F" 
			},
			{
				"x": -1.5661010211,
				"y": 1.8397358437,
				"z": -1.3783566718,
				"element": "F" 
			},
			{
				"x": 0.282090505,
				"y": 2.3422105603,
				"z": -0.3541288736,
				"element": "F" 
			},
			{
				"x": -0.9510398434,
				"y": -0.0761735655,
				"z": 3.5017038304,
				"element": "H" 
			},
			{
				"x": 0.5255433695,
				"y": -0.9429022781,
				"z": 1.8482186799,
				"element": "H" 
			},
			{
				"x": -0.0390579397,
				"y": 0.7107706803,
				"z": 1.5339958593,
				"element": "H" 
			},
			{
				"x": -1.9230393284,
				"y": -0.1752143759,
				"z": 0.1875964148,
				"element": "H" 
			},
			{
				"x": -1.405738587,
				"y": -1.8246081246,
				"z": 0.5198238341,
				"element": "H" 
			},
			{
				"x": 0.6323508201,
				"y": -2.8487185973,
				"z": -1.1258853454,
				"element": "H" 
			},
			{
				"x": 1.910716662,
				"y": -1.7688723706,
				"z": -3.0581167796,
				"element": "H" 
			}
		],
		 "valence_orbital": [ 
			{
				"type": "occ",
				"energy": -0.33345,
				"method": "rhf"
			},
			{
				"type": "occ",
				"energy": -0.30606,
				"method": "rhf"
			},
			{
				"type": "occ",
				"energy": -0.27552,
				"method": "rhf"
			},
			{
				"type": "occ",
				"energy": -0.26683,
				"method": "rhf"
			},
			{
				"type": "occ",
				"energy": -0.25602,
				"method": "rhf"
			},
			{
				"type": "unocc",
				"energy": -0.00136,
				"method": "rhf"
			},
			{
				"type": "unocc",
				"energy": 0.03572,
				"method": "rhf"
			},
			{
				"type": "unocc",
				"energy": 0.06713,
				"method": "rhf"
			},
			{
				"type": "unocc",
				"energy": 0.08007,
				"method": "rhf"
			},
			{
				"type": "unocc",
				"energy": 0.11058,
				"method": "rhf"
			}
		],
		"cosmo_sigma_profile": { 
			"-0.025": 0.0,
			"-0.024": 0.0,
			"-0.023": 0.0,
			"-0.022": 0.0,
			"-0.021": 0.0,
			"-0.02": 0.0,
			"-0.019": 0.0,
			"-0.018": 0.0979546258417,
			"-0.017": 1.63152702286,
			"-0.016": 2.23959769819,
			"-0.015": 2.57653335325,
			"-0.014": 1.45932231437,
			"-0.013": 1.56487295553,
			"-0.012": 2.47225094964,
			"-0.011": 2.32141635193,
			"-0.01": 2.00794819588,
			"-0.009": 3.82217283635,
			"-0.008": 3.42519774736,
			"-0.007": 3.91494517502,
			"-0.006": 3.75508707316,
			"-0.005": 3.71154261549,
			"-0.004": 5.52987444093,
			"-0.003": 9.86049644804,
			"-0.002": 11.4607524797,
			"-0.001": 14.2787053991,
			"0.0": 13.2078707107,
			"0.001": 16.0339335229,
			"0.002": 24.8274855674,
			"0.003": 29.0879024781,
			"0.004": 5.99826167041,
			"0.005": 2.97866480318,
			"0.006": 3.42972820482,
			"0.007": 2.20576165923,
			"0.008": 3.03800107893,
			"0.009": 2.82374610408,
			"0.01": 1.18510197251,
			"0.011": 3.51628542876,
			"0.012": 2.47637618035,
			"0.013": 2.612943832,
			"0.014": 2.82070864045,
			"0.015": 0.446246792512,
			"0.016": 0.0,
			"0.017": 0.0,
			"0.018": 0.0,
			"0.019": 0.0,
			"0.02": 0.0,
			"0.021": 0.0,
			"0.022": 0.0,
			"0.023": 0.0,
			"0.024": 0.0,
			"0.025": 0.0
		}
	}
}
