{
	 "smiles": "NC1=CC(Cl)=CN=C1Br", 
	 "Tm": 415.15, 
	 "num_atms": 13, 
	 "gaussian": { 
		 "optdone": 1, 
		 "sigma_profile": "yes", 
		 "theory": "DFT", 
		 "functional": "B3LYP", 
		 "basiset": "6-31G**", 
		 "properties": { 
			 "R2extent": 2581.2291, 
			 "electric_dipole_moment_norm": 3.41608900499, 
			 "electric_quadrupole_moment_norm": 6.60529756105, 
			 "total_energy": -3334.03967034, 
			 "HOMO_LUMO_gap": 0.18877, 
			 "cosmo_polarized_energy": -9.68, 
			 "cosmo_cavitation_energy": 21.42, 
			 "cosmo_dispersion_energy": -16.84, 
			 "cosmo_repulsion_energy": 1.38, 
			 "cosmo_total_nonelectrostatic_energy": 5.96, 
			 "SMD_solvation_energy": 0.97 
		},
		"coords": [
			{
				"x": -1.4943585245,
				"y": -1.2907422493,
				"z": -0.1306487224,
				"element": "N" 
			},
			{
				"x": -0.3022638099,
				"y": -0.6119823071,
				"z": -0.2207222576,
				"element": "C" 
			},
			{
				"x": 0.2935323103,
				"y": -0.3210518534,
				"z": -1.4594604145,
				"element": "C" 
			},
			{
				"x": 1.5256932875,
				"y": 0.322340952,
				"z": -1.4889817265,
				"element": "C" 
			},
			{
				"x": 2.2800495019,
				"y": 0.6917151278,
				"z": -3.0264170073,
				"element": "Cl" 
			},
			{
				"x": 2.1628507948,
				"y": 0.6761564257,
				"z": -0.3005238584,
				"element": "C" 
			},
			{
				"x": 1.5956112543,
				"y": 0.4048764347,
				"z": 0.8801020302,
				"element": "N" 
			},
			{
				"x": 0.434398841,
				"y": -0.2000076575,
				"z": 0.9159155162,
				"element": "C" 
			},
			{
				"x": -0.3174011868,
				"y": -0.5394573408,
				"z": 2.6627113506,
				"element": "Br" 
			},
			{
				"x": -1.9652365513,
				"y": -1.254237453,
				"z": 0.7623448144,
				"element": "H" 
			},
			{
				"x": -2.0985489572,
				"y": -1.2733701133,
				"z": -0.938128792,
				"element": "H" 
			},
			{
				"x": -0.2015550122,
				"y": -0.6031118392,
				"z": -2.3829711407,
				"element": "H" 
			},
			{
				"x": 3.1244280523,
				"y": 1.1787718734,
				"z": -0.2965197922,
				"element": "H" 
			}
		],
		 "valence_orbital": [ 
			{
				"type": "occ",
				"energy": -0.30822,
				"method": "rhf"
			},
			{
				"type": "occ",
				"energy": -0.29816,
				"method": "rhf"
			},
			{
				"type": "occ",
				"energy": -0.27666,
				"method": "rhf"
			},
			{
				"type": "occ",
				"energy": -0.26922,
				"method": "rhf"
			},
			{
				"type": "occ",
				"energy": -0.22802,
				"method": "rhf"
			},
			{
				"type": "unocc",
				"energy": -0.03925,
				"method": "rhf"
			},
			{
				"type": "unocc",
				"energy": -0.01638,
				"method": "rhf"
			},
			{
				"type": "unocc",
				"energy": 0.00285,
				"method": "rhf"
			},
			{
				"type": "unocc",
				"energy": 0.02206,
				"method": "rhf"
			},
			{
				"type": "unocc",
				"energy": 0.06997,
				"method": "rhf"
			}
		],
		"cosmo_sigma_profile": { 
			"-0.025": 0.0,
			"-0.024": 0.0,
			"-0.023": 0.0,
			"-0.022": 0.0,
			"-0.021": 0.0,
			"-0.02": 0.0,
			"-0.019": 0.0,
			"-0.018": 0.0,
			"-0.017": 0.0,
			"-0.016": 0.0,
			"-0.015": 0.166447336075,
			"-0.014": 1.50450992343,
			"-0.013": 1.94739895662,
			"-0.012": 2.39265053107,
			"-0.011": 2.74433931895,
			"-0.01": 3.12314730422,
			"-0.009": 2.67062450106,
			"-0.008": 3.45738481404,
			"-0.007": 4.58274245675,
			"-0.006": 4.63375857699,
			"-0.005": 4.31097609921,
			"-0.004": 4.82730064285,
			"-0.003": 7.12736527489,
			"-0.002": 9.02781980911,
			"-0.001": 12.5347226887,
			"0.0": 20.2120438562,
			"0.001": 22.1454659289,
			"0.002": 12.9552079992,
			"0.003": 15.3157700694,
			"0.004": 19.1515864965,
			"0.005": 7.82576123362,
			"0.006": 3.58222238194,
			"0.007": 2.06812384673,
			"0.008": 1.99816845465,
			"0.009": 2.07899315633,
			"0.01": 1.88423056036,
			"0.011": 1.18714564675,
			"0.012": 1.08139776958,
			"0.013": 0.775483445134,
			"0.014": 0.293272843809,
			"0.015": 0.0,
			"0.016": 0.0,
			"0.017": 0.0,
			"0.018": 0.0,
			"0.019": 0.0,
			"0.02": 0.0,
			"0.021": 0.0,
			"0.022": 0.0,
			"0.023": 0.0,
			"0.024": 0.0,
			"0.025": 0.0
		}
	}
}
