{
	 "smiles": "CS(=O)(=O)CCCS(Cl)(=O)=O", 
	 "Tm": 336.15, 
	 "num_atms": 20, 
	 "gaussian": { 
		 "optdone": 1, 
		 "sigma_profile": "yes", 
		 "theory": "DFT", 
		 "functional": "B3LYP", 
		 "basiset": "6-31G**", 
		 "properties": { 
			 "R2extent": 3676.5402, 
			 "electric_dipole_moment_norm": 2.09324792846, 
			 "electric_quadrupole_moment_norm": 24.8428522513, 
			 "total_energy": -1715.19009831, 
			 "HOMO_LUMO_gap": 0.19808, 
			 "cosmo_polarized_energy": -22.74, 
			 "cosmo_cavitation_energy": 28.14, 
			 "cosmo_dispersion_energy": -21.04, 
			 "cosmo_repulsion_energy": 1.61, 
			 "cosmo_total_nonelectrostatic_energy": 8.72, 
			 "SMD_solvation_energy": 2.97 
		},
		"coords": [
			{
				"x": 0.2523422016,
				"y": 1.3538746379,
				"z": -2.4470929213,
				"element": "C" 
			},
			{
				"x": 1.4631279629,
				"y": 1.1457923135,
				"z": -1.1209511351,
				"element": "S" 
			},
			{
				"x": 1.5295045327,
				"y": 2.4078759995,
				"z": -0.3649518525,
				"element": "O" 
			},
			{
				"x": 2.6730176066,
				"y": 0.5521468005,
				"z": -1.7062086563,
				"element": "O" 
			},
			{
				"x": 0.72710828,
				"y": -0.1161410992,
				"z": -0.0301211526,
				"element": "C" 
			},
			{
				"x": -0.3917196417,
				"y": 0.441603428,
				"z": 0.8517763227,
				"element": "C" 
			},
			{
				"x": -0.9192770662,
				"y": -0.5506981095,
				"z": 1.8884888839,
				"element": "C" 
			},
			{
				"x": -1.9882796833,
				"y": -1.8701491183,
				"z": 1.2203798231,
				"element": "S" 
			},
			{
				"x": -3.6983450541,
				"y": -0.7129297923,
				"z": 0.6661760129,
				"element": "Cl" 
			},
			{
				"x": -1.4254206245,
				"y": -2.3982866129,
				"z": -0.0184026338,
				"element": "O" 
			},
			{
				"x": -2.3936549651,
				"y": -2.7406434193,
				"z": 2.3144280516,
				"element": "O" 
			},
			{
				"x": 0.1316568998,
				"y": 0.4086659752,
				"z": -2.9782004568,
				"element": "H" 
			},
			{
				"x": 0.6706763796,
				"y": 2.1103254961,
				"z": -3.1137174228,
				"element": "H" 
			},
			{
				"x": -0.6956582497,
				"y": 1.7042857619,
				"z": -2.036038665,
				"element": "H" 
			},
			{
				"x": 1.581401674,
				"y": -0.4509029541,
				"z": 0.5676310837,
				"element": "H" 
			},
			{
				"x": 0.4050471046,
				"y": -0.9492796344,
				"z": -0.6582908372,
				"element": "H" 
			},
			{
				"x": -1.2265476951,
				"y": 0.8116442237,
				"z": 0.2472824711,
				"element": "H" 
			},
			{
				"x": -0.0042897568,
				"y": 1.3062765556,
				"z": 1.4000409093,
				"element": "H" 
			},
			{
				"x": -1.5306642386,
				"y": -0.0674666597,
				"z": 2.6537104201,
				"element": "H" 
			},
			{
				"x": -0.1203256664,
				"y": -1.1121937921,
				"z": 2.3854617552,
				"element": "H" 
			}
		],
		 "valence_orbital": [ 
			{
				"type": "occ",
				"energy": -0.3334,
				"method": "rhf"
			},
			{
				"type": "occ",
				"energy": -0.3319,
				"method": "rhf"
			},
			{
				"type": "occ",
				"energy": -0.32079,
				"method": "rhf"
			},
			{
				"type": "occ",
				"energy": -0.30455,
				"method": "rhf"
			},
			{
				"type": "occ",
				"energy": -0.2968,
				"method": "rhf"
			},
			{
				"type": "unocc",
				"energy": -0.09872,
				"method": "rhf"
			},
			{
				"type": "unocc",
				"energy": 0.02448,
				"method": "rhf"
			},
			{
				"type": "unocc",
				"energy": 0.04181,
				"method": "rhf"
			},
			{
				"type": "unocc",
				"energy": 0.04234,
				"method": "rhf"
			},
			{
				"type": "unocc",
				"energy": 0.04913,
				"method": "rhf"
			}
		],
		"cosmo_sigma_profile": { 
			"-0.025": 0.0,
			"-0.024": 0.0,
			"-0.023": 0.0,
			"-0.022": 0.0,
			"-0.021": 0.0,
			"-0.02": 0.0,
			"-0.019": 0.0,
			"-0.018": 0.0,
			"-0.017": 0.0,
			"-0.016": 0.0,
			"-0.015": 0.0,
			"-0.014": 0.0,
			"-0.013": 0.414670972973,
			"-0.012": 0.964296078036,
			"-0.011": 3.54112905398,
			"-0.01": 7.83438472087,
			"-0.009": 11.6474250916,
			"-0.008": 14.5336511695,
			"-0.007": 14.3543023225,
			"-0.006": 11.9126284481,
			"-0.005": 10.5988711007,
			"-0.004": 12.6692043821,
			"-0.003": 9.37327381194,
			"-0.002": 5.53567772329,
			"-0.001": 7.59014078501,
			"0.0": 9.03367703938,
			"0.001": 8.0621591656,
			"0.002": 10.6952709091,
			"0.003": 13.5568036119,
			"0.004": 10.5285880195,
			"0.005": 4.78272420641,
			"0.006": 4.65897081613,
			"0.007": 7.09772851678,
			"0.008": 12.0858792249,
			"0.009": 8.52306158911,
			"0.01": 3.54635577988,
			"0.011": 8.74534283483,
			"0.012": 10.7298867828,
			"0.013": 1.960642184,
			"0.014": 0.0,
			"0.015": 0.0,
			"0.016": 0.0,
			"0.017": 0.0,
			"0.018": 0.0,
			"0.019": 0.0,
			"0.02": 0.0,
			"0.021": 0.0,
			"0.022": 0.0,
			"0.023": 0.0,
			"0.024": 0.0,
			"0.025": 0.0
		}
	}
}
