{
	 "smiles": "ClC1=C(Cl)C(Cl)=C2C=CC=CC2=C1Cl", 
	 "Tm": 471.15, 
	 "num_atms": 18, 
	 "gaussian": { 
		 "optdone": 1, 
		 "sigma_profile": "yes", 
		 "theory": "DFT", 
		 "functional": "B3LYP", 
		 "basiset": "6-31G**", 
		 "properties": { 
			 "R2extent": 4534.3288, 
			 "electric_dipole_moment_norm": 3.04751865622, 
			 "electric_quadrupole_moment_norm": 4.08623990118, 
			 "total_energy": -2224.2385413, 
			 "HOMO_LUMO_gap": 0.163, 
			 "cosmo_polarized_energy": -3.95, 
			 "cosmo_cavitation_energy": 28.56, 
			 "cosmo_dispersion_energy": -22.04, 
			 "cosmo_repulsion_energy": 1.69, 
			 "cosmo_total_nonelectrostatic_energy": 8.22, 
			 "SMD_solvation_energy": 3.66 
		},
		"coords": [
			{
				"x": 0.9432252901,
				"y": 1.745005748,
				"z": -3.3601886459,
				"element": "Cl" 
			},
			{
				"x": 0.6677359619,
				"y": 0.7815453347,
				"z": -1.9411923785,
				"element": "C" 
			},
			{
				"x": 1.171560671,
				"y": -0.5545006849,
				"z": -1.8940893268,
				"element": "C" 
			},
			{
				"x": 2.0470684766,
				"y": -1.1819804994,
				"z": -3.2569702673,
				"element": "Cl" 
			},
			{
				"x": 0.9593080755,
				"y": -1.3326188182,
				"z": -0.7704057094,
				"element": "C" 
			},
			{
				"x": 1.5780994709,
				"y": -2.965421749,
				"z": -0.7195861717,
				"element": "Cl" 
			},
			{
				"x": 0.2416366595,
				"y": -0.8290697625,
				"z": 0.3560252516,
				"element": "C" 
			},
			{
				"x": 0.0086919754,
				"y": -1.6053384261,
				"z": 1.5229765114,
				"element": "C" 
			},
			{
				"x": -0.687333183,
				"y": -1.0885024098,
				"z": 2.5910958875,
				"element": "C" 
			},
			{
				"x": -1.185319842,
				"y": 0.2320551672,
				"z": 2.544534269,
				"element": "C" 
			},
			{
				"x": -0.9784620196,
				"y": 1.0124272864,
				"z": 1.4306757871,
				"element": "C" 
			},
			{
				"x": -0.2642970834,
				"y": 0.5126085804,
				"z": 0.3087270792,
				"element": "C" 
			},
			{
				"x": -0.0310668203,
				"y": 1.2937286805,
				"z": -0.8629915468,
				"element": "C" 
			},
			{
				"x": -0.6442894481,
				"y": 2.9281648455,
				"z": -0.9273129979,
				"element": "Cl" 
			},
			{
				"x": 0.3900246461,
				"y": -2.6179610295,
				"z": 1.5598654552,
				"element": "H" 
			},
			{
				"x": -0.8536374666,
				"y": -1.6996740988,
				"z": 3.4728063601,
				"element": "H" 
			},
			{
				"x": -1.7338910361,
				"y": 0.6345640719,
				"z": 3.3904991449,
				"element": "H" 
			},
			{
				"x": -1.360754328,
				"y": 2.0247677637,
				"z": 1.3961312984,
				"element": "H" 
			}
		],
		 "valence_orbital": [ 
			{
				"type": "occ",
				"energy": -0.31173,
				"method": "rhf"
			},
			{
				"type": "occ",
				"energy": -0.30417,
				"method": "rhf"
			},
			{
				"type": "occ",
				"energy": -0.28883,
				"method": "rhf"
			},
			{
				"type": "occ",
				"energy": -0.26113,
				"method": "rhf"
			},
			{
				"type": "occ",
				"energy": -0.23447,
				"method": "rhf"
			},
			{
				"type": "unocc",
				"energy": -0.07147,
				"method": "rhf"
			},
			{
				"type": "unocc",
				"energy": -0.04229,
				"method": "rhf"
			},
			{
				"type": "unocc",
				"energy": -0.03085,
				"method": "rhf"
			},
			{
				"type": "unocc",
				"energy": 0.00532,
				"method": "rhf"
			},
			{
				"type": "unocc",
				"energy": 0.01886,
				"method": "rhf"
			}
		],
		"cosmo_sigma_profile": { 
			"-0.025": 0.0,
			"-0.024": 0.0,
			"-0.023": 0.0,
			"-0.022": 0.0,
			"-0.021": 0.0,
			"-0.02": 0.0,
			"-0.019": 0.0,
			"-0.018": 0.0,
			"-0.017": 0.0,
			"-0.016": 0.0,
			"-0.015": 0.0,
			"-0.014": 0.0,
			"-0.013": 0.0,
			"-0.012": 0.0,
			"-0.011": 0.0,
			"-0.01": 0.0,
			"-0.009": 0.0,
			"-0.008": 0.0457697269076,
			"-0.007": 4.10428879616,
			"-0.006": 8.02613290521,
			"-0.005": 8.58922059745,
			"-0.004": 9.45320897433,
			"-0.003": 12.3165455757,
			"-0.002": 19.3041091889,
			"-0.001": 38.6290007739,
			"0.0": 28.8885998453,
			"0.001": 25.129720941,
			"0.002": 28.6081787378,
			"0.003": 36.2985074382,
			"0.004": 18.8606662583,
			"0.005": 1.47220867091,
			"0.006": 0.0,
			"0.007": 0.0,
			"0.008": 0.0,
			"0.009": 0.0,
			"0.01": 0.0,
			"0.011": 0.0,
			"0.012": 0.0,
			"0.013": 0.0,
			"0.014": 0.0,
			"0.015": 0.0,
			"0.016": 0.0,
			"0.017": 0.0,
			"0.018": 0.0,
			"0.019": 0.0,
			"0.02": 0.0,
			"0.021": 0.0,
			"0.022": 0.0,
			"0.023": 0.0,
			"0.024": 0.0,
			"0.025": 0.0
		}
	}
}
