{
	 "smiles": "BrC(C(Br)C1=CC=CC=C1)C(=O)C1=CC=CC=C1", 
	 "Tm": 429.15, 
	 "num_atms": 30, 
	 "gaussian": { 
		 "optdone": 1, 
		 "sigma_profile": "yes", 
		 "theory": "DFT", 
		 "functional": "B3LYP", 
		 "basiset": "6-31G**", 
		 "properties": { 
			 "R2extent": 8203.1668, 
			 "electric_dipole_moment_norm": 4.7022489311, 
			 "electric_quadrupole_moment_norm": 10.4603626567, 
			 "total_energy": -5796.85632291, 
			 "HOMO_LUMO_gap": 0.16661, 
			 "cosmo_polarized_energy": -13.08, 
			 "cosmo_cavitation_energy": 37.78, 
			 "cosmo_dispersion_energy": -26.93, 
			 "cosmo_repulsion_energy": 2.09, 
			 "cosmo_total_nonelectrostatic_energy": 12.94, 
			 "SMD_solvation_energy": 4.41 
		},
		"coords": [
			{
				"x": 1.7178852989,
				"y": -2.9762361768,
				"z": -0.7341930365,
				"element": "Br" 
			},
			{
				"x": 0.2556317178,
				"y": -1.6265475896,
				"z": -0.8949968262,
				"element": "C" 
			},
			{
				"x": -0.328272572,
				"y": -1.6183529367,
				"z": -2.3136024765,
				"element": "C" 
			},
			{
				"x": 0.981982556,
				"y": -1.1313978687,
				"z": -3.7257403912,
				"element": "Br" 
			},
			{
				"x": -1.6070827466,
				"y": -0.8078959372,
				"z": -2.4038408978,
				"element": "C" 
			},
			{
				"x": -2.8256159406,
				"y": -1.4982773583,
				"z": -2.33293427,
				"element": "C" 
			},
			{
				"x": -4.0390163321,
				"y": -0.8094186667,
				"z": -2.3645984387,
				"element": "C" 
			},
			{
				"x": -4.0467621231,
				"y": 0.5809930969,
				"z": -2.4741663662,
				"element": "C" 
			},
			{
				"x": -2.8366980986,
				"y": 1.2749426364,
				"z": -2.5532832219,
				"element": "C" 
			},
			{
				"x": -1.6235541345,
				"y": 0.5893777939,
				"z": -2.517809619,
				"element": "C" 
			},
			{
				"x": 0.7866105637,
				"y": -0.3081017583,
				"z": -0.3066907154,
				"element": "C" 
			},
			{
				"x": 1.0962998753,
				"y": 0.6137938713,
				"z": -1.0409234015,
				"element": "O" 
			},
			{
				"x": 0.8731580076,
				"y": -0.1695267437,
				"z": 1.1824690462,
				"element": "C" 
			},
			{
				"x": 1.2867628093,
				"y": 1.0772343017,
				"z": 1.6818138856,
				"element": "C" 
			},
			{
				"x": 1.3644920503,
				"y": 1.2999586509,
				"z": 3.0525749246,
				"element": "C" 
			},
			{
				"x": 1.0300978945,
				"y": 0.2782855091,
				"z": 3.946099877,
				"element": "C" 
			},
			{
				"x": 0.6223031599,
				"y": -0.9658792112,
				"z": 3.4612948023,
				"element": "C" 
			},
			{
				"x": 0.5442336609,
				"y": -1.1914708079,
				"z": 2.0878795966,
				"element": "C" 
			},
			{
				"x": -0.529144109,
				"y": -2.0243338922,
				"z": -0.248686262,
				"element": "H" 
			},
			{
				"x": -0.5549793591,
				"y": -2.6560437047,
				"z": -2.5557993135,
				"element": "H" 
			},
			{
				"x": -2.8264407685,
				"y": -2.5834742557,
				"z": -2.2603415951,
				"element": "H" 
			},
			{
				"x": -4.9735349296,
				"y": -1.3605309658,
				"z": -2.3132782501,
				"element": "H" 
			},
			{
				"x": -4.9887938061,
				"y": 1.1207817707,
				"z": -2.5054147407,
				"element": "H" 
			},
			{
				"x": -2.8362727342,
				"y": 2.3570476801,
				"z": -2.6471658834,
				"element": "H" 
			},
			{
				"x": -0.6853020252,
				"y": 1.1268733099,
				"z": -2.5857093197,
				"element": "H" 
			},
			{
				"x": 1.5386310522,
				"y": 1.8562595139,
				"z": 0.9706268782,
				"element": "H" 
			},
			{
				"x": 1.6841648596,
				"y": 2.2680307242,
				"z": 3.42665805,
				"element": "H" 
			},
			{
				"x": 1.0896332603,
				"y": 0.450517612,
				"z": 5.0169645433,
				"element": "H" 
			},
			{
				"x": 0.3691120881,
				"y": -1.7639159999,
				"z": 4.1526944388,
				"element": "H" 
			},
			{
				"x": 0.2520708246,
				"y": -2.1737925978,
				"z": 1.7341989827,
				"element": "H" 
			}
		],
		 "valence_orbital": [ 
			{
				"type": "occ",
				"energy": -0.26553,
				"method": "rhf"
			},
			{
				"type": "occ",
				"energy": -0.26522,
				"method": "rhf"
			},
			{
				"type": "occ",
				"energy": -0.25782,
				"method": "rhf"
			},
			{
				"type": "occ",
				"energy": -0.25258,
				"method": "rhf"
			},
			{
				"type": "occ",
				"energy": -0.24472,
				"method": "rhf"
			},
			{
				"type": "unocc",
				"energy": -0.07811,
				"method": "rhf"
			},
			{
				"type": "unocc",
				"energy": -0.0367,
				"method": "rhf"
			},
			{
				"type": "unocc",
				"energy": -0.01601,
				"method": "rhf"
			},
			{
				"type": "unocc",
				"energy": -0.01049,
				"method": "rhf"
			},
			{
				"type": "unocc",
				"energy": -0.00359,
				"method": "rhf"
			}
		],
		"cosmo_sigma_profile": { 
			"-0.025": 0.0,
			"-0.024": 0.0,
			"-0.023": 0.0,
			"-0.022": 0.0,
			"-0.021": 0.0,
			"-0.02": 0.0,
			"-0.019": 0.0,
			"-0.018": 0.0,
			"-0.017": 0.0,
			"-0.016": 0.0,
			"-0.015": 0.0,
			"-0.014": 0.0,
			"-0.013": 0.0,
			"-0.012": 0.0,
			"-0.011": 0.422622130386,
			"-0.01": 1.74686459113,
			"-0.009": 5.02878298319,
			"-0.008": 5.3583017573,
			"-0.007": 7.29497868422,
			"-0.006": 18.0841787827,
			"-0.005": 21.3301867061,
			"-0.004": 22.32951727,
			"-0.003": 18.3589159449,
			"-0.002": 17.4808025019,
			"-0.001": 17.2386352751,
			"0.0": 19.2623249539,
			"0.001": 21.4062092994,
			"0.002": 26.1104467453,
			"0.003": 32.4106188129,
			"0.004": 30.4771713756,
			"0.005": 20.4897729695,
			"0.006": 10.9994981227,
			"0.007": 3.60878347763,
			"0.008": 2.26179589963,
			"0.009": 2.34618548903,
			"0.01": 2.38098733736,
			"0.011": 2.06013051608,
			"0.012": 0.0967405440158,
			"0.013": 0.0,
			"0.014": 0.0,
			"0.015": 0.0,
			"0.016": 0.0,
			"0.017": 0.0,
			"0.018": 0.0,
			"0.019": 0.0,
			"0.02": 0.0,
			"0.021": 0.0,
			"0.022": 0.0,
			"0.023": 0.0,
			"0.024": 0.0,
			"0.025": 0.0
		}
	}
}
