{
	 "smiles": "NC1=CC(=CC=C1)N1C=CC=C1", 
	 "Tm": 316.65, 
	 "num_atms": 22, 
	 "gaussian": { 
		 "optdone": 1, 
		 "sigma_profile": "yes", 
		 "theory": "DFT", 
		 "functional": "B3LYP", 
		 "basiset": "6-31G**", 
		 "properties": { 
			 "R2extent": 3223.2273, 
			 "electric_dipole_moment_norm": 2.83887767436, 
			 "electric_quadrupole_moment_norm": 14.9108709212, 
			 "total_energy": -496.582323267, 
			 "HOMO_LUMO_gap": 0.19606, 
			 "cosmo_polarized_energy": -10.4, 
			 "cosmo_cavitation_energy": 25.69, 
			 "cosmo_dispersion_energy": -19.02, 
			 "cosmo_repulsion_energy": 1.5, 
			 "cosmo_total_nonelectrostatic_energy": 8.17, 
			 "SMD_solvation_energy": 5.0 
		},
		"coords": [
			{
				"x": -3.5735155854,
				"y": -0.9456897628,
				"z": 1.2517140254,
				"element": "N" 
			},
			{
				"x": -2.9183550281,
				"y": 0.1079739384,
				"z": 0.6151847376,
				"element": "C" 
			},
			{
				"x": -1.642774759,
				"y": 0.5097771331,
				"z": 1.0423762176,
				"element": "C" 
			},
			{
				"x": -0.9604035178,
				"y": 1.5298117579,
				"z": 0.374075817,
				"element": "C" 
			},
			{
				"x": -1.5335125114,
				"y": 2.1565033765,
				"z": -0.7396327108,
				"element": "C" 
			},
			{
				"x": -2.7920166502,
				"y": 1.7392268796,
				"z": -1.1715227555,
				"element": "C" 
			},
			{
				"x": -3.488286729,
				"y": 0.7331126012,
				"z": -0.5081400718,
				"element": "C" 
			},
			{
				"x": 0.3207770865,
				"y": 1.9307409507,
				"z": 0.8320764232,
				"element": "N" 
			},
			{
				"x": 1.3772709897,
				"y": 2.3241766088,
				"z": 0.028691645,
				"element": "C" 
			},
			{
				"x": 2.4461787514,
				"y": 2.6319305162,
				"z": 0.8375421613,
				"element": "C" 
			},
			{
				"x": 2.0317903968,
				"y": 2.4279056564,
				"z": 2.1866651797,
				"element": "C" 
			},
			{
				"x": 0.726952687,
				"y": 1.9943196248,
				"z": 2.1540550836,
				"element": "C" 
			},
			{
				"x": -4.5758231659,
				"y": -0.9696831526,
				"z": 1.127026223,
				"element": "H" 
			},
			{
				"x": -3.3052383797,
				"y": -1.1088067778,
				"z": 2.2120520098,
				"element": "H" 
			},
			{
				"x": -1.1673074079,
				"y": 0.0018993817,
				"z": 1.8758545775,
				"element": "H" 
			},
			{
				"x": -1.0169206279,
				"y": 2.9722017783,
				"z": -1.2319839321,
				"element": "H" 
			},
			{
				"x": -3.2467571657,
				"y": 2.2219373035,
				"z": -2.0319538956,
				"element": "H" 
			},
			{
				"x": -4.4699281225,
				"y": 0.4229330841,
				"z": -0.8563465953,
				"element": "H" 
			},
			{
				"x": 1.2851576713,
				"y": 2.3015937959,
				"z": -1.046124383,
				"element": "H" 
			},
			{
				"x": 3.4199558503,
				"y": 2.9567478632,
				"z": 0.4984294342,
				"element": "H" 
			},
			{
				"x": 2.6191846887,
				"y": 2.5920198359,
				"z": 3.079337407,
				"element": "H" 
			},
			{
				"x": 0.0338715289,
				"y": 1.7741676072,
				"z": 2.9512234023,
				"element": "H" 
			}
		],
		 "valence_orbital": [ 
			{
				"type": "occ",
				"energy": -0.31324,
				"method": "rhf"
			},
			{
				"type": "occ",
				"energy": -0.26579,
				"method": "rhf"
			},
			{
				"type": "occ",
				"energy": -0.2194,
				"method": "rhf"
			},
			{
				"type": "occ",
				"energy": -0.20433,
				"method": "rhf"
			},
			{
				"type": "occ",
				"energy": -0.20321,
				"method": "rhf"
			},
			{
				"type": "unocc",
				"energy": -0.00715,
				"method": "rhf"
			},
			{
				"type": "unocc",
				"energy": 0.0099,
				"method": "rhf"
			},
			{
				"type": "unocc",
				"energy": 0.05634,
				"method": "rhf"
			},
			{
				"type": "unocc",
				"energy": 0.07745,
				"method": "rhf"
			},
			{
				"type": "unocc",
				"energy": 0.08844,
				"method": "rhf"
			}
		],
		"cosmo_sigma_profile": { 
			"-0.025": 0.0,
			"-0.024": 0.0,
			"-0.023": 0.0,
			"-0.022": 0.0,
			"-0.021": 0.0,
			"-0.02": 0.0,
			"-0.019": 0.0,
			"-0.018": 0.0,
			"-0.017": 0.0,
			"-0.016": 0.0,
			"-0.015": 0.0,
			"-0.014": 0.0,
			"-0.013": 0.466771844777,
			"-0.012": 2.55815270516,
			"-0.011": 2.66792263398,
			"-0.01": 3.40698461377,
			"-0.009": 3.38922011527,
			"-0.008": 2.74295356335,
			"-0.007": 5.81751053908,
			"-0.006": 10.2427196624,
			"-0.005": 14.7381869374,
			"-0.004": 13.4041676467,
			"-0.003": 13.3914308385,
			"-0.002": 12.5351361862,
			"-0.001": 10.6503745323,
			"0.0": 10.8521766861,
			"0.001": 11.3038687982,
			"0.002": 11.9091382781,
			"0.003": 13.8115216511,
			"0.004": 11.6715882788,
			"0.005": 15.1137906378,
			"0.006": 14.6447698801,
			"0.007": 7.23406797431,
			"0.008": 6.3357867381,
			"0.009": 3.10496297835,
			"0.01": 0.613408890719,
			"0.011": 0.749617589672,
			"0.012": 0.504574829463,
			"0.013": 0.645328466129,
			"0.014": 0.578928596426,
			"0.015": 0.077930787746,
			"0.016": 0.0,
			"0.017": 0.0,
			"0.018": 0.0,
			"0.019": 0.0,
			"0.02": 0.0,
			"0.021": 0.0,
			"0.022": 0.0,
			"0.023": 0.0,
			"0.024": 0.0,
			"0.025": 0.0
		}
	}
}
