{
	 "smiles": "CCOC(=O)C1=CC2=C(CCCC2)C(C(=O)OCC)=C1O", 
	 "Tm": 319.15, 
	 "num_atms": 41, 
	 "gaussian": { 
		 "optdone": 1, 
		 "sigma_profile": "yes", 
		 "theory": "DFT", 
		 "functional": "B3LYP", 
		 "basiset": "6-31G**", 
		 "properties": { 
			 "R2extent": 8115.1449, 
			 "electric_dipole_moment_norm": 1.77605501322, 
			 "electric_quadrupole_moment_norm": 18.5469202357, 
			 "total_energy": -997.925224322, 
			 "HOMO_LUMO_gap": 0.16815, 
			 "cosmo_polarized_energy": -13.7, 
			 "cosmo_cavitation_energy": 42.68, 
			 "cosmo_dispersion_energy": -30.89, 
			 "cosmo_repulsion_energy": 2.4, 
			 "cosmo_total_nonelectrostatic_energy": 14.2, 
			 "SMD_solvation_energy": 8.51 
		},
		"coords": [
			{
				"x": -3.0067003283,
				"y": -4.3645257211,
				"z": -3.3269485738,
				"element": "C" 
			},
			{
				"x": -2.6704275841,
				"y": -4.715320429,
				"z": -1.884628076,
				"element": "C" 
			},
			{
				"x": -2.3496049677,
				"y": -3.5359860016,
				"z": -1.1157543194,
				"element": "O" 
			},
			{
				"x": -1.0541492086,
				"y": -3.1122019372,
				"z": -1.1777278473,
				"element": "C" 
			},
			{
				"x": -0.2148971837,
				"y": -3.6702850632,
				"z": -1.8526696105,
				"element": "O" 
			},
			{
				"x": -0.8432125083,
				"y": -1.9209588881,
				"z": -0.3039794384,
				"element": "C" 
			},
			{
				"x": -1.7933532089,
				"y": -1.5852781918,
				"z": 0.6576171489,
				"element": "C" 
			},
			{
				"x": -1.6574464208,
				"y": -0.4998223296,
				"z": 1.5247009975,
				"element": "C" 
			},
			{
				"x": -0.5028712085,
				"y": 0.2960308741,
				"z": 1.4487826773,
				"element": "C" 
			},
			{
				"x": -0.3480132196,
				"y": 1.4820484681,
				"z": 2.3911354955,
				"element": "C" 
			},
			{
				"x": -1.6475523849,
				"y": 1.9080925727,
				"z": 3.0845446599,
				"element": "C" 
			},
			{
				"x": -2.3827682476,
				"y": 0.6968335785,
				"z": 3.6568744054,
				"element": "C" 
			},
			{
				"x": -2.78641394,
				"y": -0.2285787688,
				"z": 2.5081482235,
				"element": "C" 
			},
			{
				"x": 0.5002732647,
				"y": -0.0230105252,
				"z": 0.4842913392,
				"element": "C" 
			},
			{
				"x": 1.7658104923,
				"y": 0.7598710607,
				"z": 0.4843720083,
				"element": "C" 
			},
			{
				"x": 2.208850118,
				"y": 1.4177291925,
				"z": 1.4036589629,
				"element": "O" 
			},
			{
				"x": 2.455413342,
				"y": 0.6873908761,
				"z": -0.7053744723,
				"element": "O" 
			},
			{
				"x": 3.7301412114,
				"y": 1.3802045434,
				"z": -0.7502117519,
				"element": "C" 
			},
			{
				"x": 4.3306266268,
				"y": 1.1492149893,
				"z": -2.1235509584,
				"element": "C" 
			},
			{
				"x": 0.3182662584,
				"y": -1.1169033092,
				"z": -0.4140343388,
				"element": "C" 
			},
			{
				"x": 1.1999055638,
				"y": -1.4371427122,
				"z": -1.3703793124,
				"element": "O" 
			},
			{
				"x": -3.3215064987,
				"y": -5.2647131148,
				"z": -3.8657972286,
				"element": "H" 
			},
			{
				"x": -3.8211450953,
				"y": -3.6351842158,
				"z": -3.3707350899,
				"element": "H" 
			},
			{
				"x": -2.1315338602,
				"y": -3.9496308798,
				"z": -3.8323532361,
				"element": "H" 
			},
			{
				"x": -3.5303630921,
				"y": -5.1515830248,
				"z": -1.3695018186,
				"element": "H" 
			},
			{
				"x": -1.8281393322,
				"y": -5.4098813966,
				"z": -1.8378667328,
				"element": "H" 
			},
			{
				"x": -2.681313439,
				"y": -2.2040021784,
				"z": 0.7278244392,
				"element": "H" 
			},
			{
				"x": 0.0839914414,
				"y": 2.330241676,
				"z": 1.8547645682,
				"element": "H" 
			},
			{
				"x": 0.4044427728,
				"y": 1.2251001164,
				"z": 3.1464607358,
				"element": "H" 
			},
			{
				"x": -1.4094270621,
				"y": 2.6345431747,
				"z": 3.8694589406,
				"element": "H" 
			},
			{
				"x": -2.3034145282,
				"y": 2.4228255514,
				"z": 2.3688823745,
				"element": "H" 
			},
			{
				"x": -3.2690167642,
				"y": 1.0007409593,
				"z": 4.2249758602,
				"element": "H" 
			},
			{
				"x": -1.7229839306,
				"y": 0.1640696404,
				"z": 4.3548704508,
				"element": "H" 
			},
			{
				"x": -3.6281121205,
				"y": 0.2268994486,
				"z": 1.9655672533,
				"element": "H" 
			},
			{
				"x": -3.1615936163,
				"y": -1.1841914704,
				"z": 2.8934711817,
				"element": "H" 
			},
			{
				"x": 4.3653627074,
				"y": 0.9951098337,
				"z": 0.0524971832,
				"element": "H" 
			},
			{
				"x": 3.5489161835,
				"y": 2.4397863398,
				"z": -0.5511349666,
				"element": "H" 
			},
			{
				"x": 4.5144458894,
				"y": 0.0856058914,
				"z": -2.3032980663,
				"element": "H" 
			},
			{
				"x": 3.6709487865,
				"y": 1.5261216144,
				"z": -2.9103148108,
				"element": "H" 
			},
			{
				"x": 5.2872286763,
				"y": 1.675492405,
				"z": -2.1974489969,
				"element": "H" 
			},
			{
				"x": 1.890036416,
				"y": -0.7474526489,
				"z": -1.3942892601,
				"element": "H" 
			}
		],
		 "valence_orbital": [ 
			{
				"type": "occ",
				"energy": -0.28555,
				"method": "rhf"
			},
			{
				"type": "occ",
				"energy": -0.27841,
				"method": "rhf"
			},
			{
				"type": "occ",
				"energy": -0.25622,
				"method": "rhf"
			},
			{
				"type": "occ",
				"energy": -0.25227,
				"method": "rhf"
			},
			{
				"type": "occ",
				"energy": -0.21964,
				"method": "rhf"
			},
			{
				"type": "unocc",
				"energy": -0.05149,
				"method": "rhf"
			},
			{
				"type": "unocc",
				"energy": -0.01861,
				"method": "rhf"
			},
			{
				"type": "unocc",
				"energy": 0.03318,
				"method": "rhf"
			},
			{
				"type": "unocc",
				"energy": 0.0717,
				"method": "rhf"
			},
			{
				"type": "unocc",
				"energy": 0.08661,
				"method": "rhf"
			}
		],
		"cosmo_sigma_profile": { 
			"-0.025": 0.0,
			"-0.024": 0.0,
			"-0.023": 0.0,
			"-0.022": 0.0,
			"-0.021": 0.0,
			"-0.02": 0.0,
			"-0.019": 0.0,
			"-0.018": 0.0,
			"-0.017": 0.0,
			"-0.016": 0.0,
			"-0.015": 0.0,
			"-0.014": 0.0,
			"-0.013": 0.0,
			"-0.012": 0.0,
			"-0.011": 0.0,
			"-0.01": 0.0,
			"-0.009": 0.0,
			"-0.008": 0.610347832993,
			"-0.007": 2.00242252591,
			"-0.006": 5.54911186803,
			"-0.005": 16.3767676526,
			"-0.004": 31.3648087438,
			"-0.003": 40.7832322359,
			"-0.002": 47.8287267323,
			"-0.001": 44.494685955,
			"0.0": 40.8312375741,
			"0.001": 26.8258209357,
			"0.002": 17.4016167675,
			"0.003": 11.5910888809,
			"0.004": 7.36451096473,
			"0.005": 5.24882398249,
			"0.006": 5.34377163613,
			"0.007": 3.97164070215,
			"0.008": 3.09769308559,
			"0.009": 3.65873021314,
			"0.01": 3.90295136507,
			"0.011": 5.20592865328,
			"0.012": 5.10451541592,
			"0.013": 2.24048696691,
			"0.014": 1.96347983919,
			"0.015": 1.32673060733,
			"0.016": 1.09599555321,
			"0.017": 0.128894243973,
			"0.018": 0.0,
			"0.019": 0.0,
			"0.02": 0.0,
			"0.021": 0.0,
			"0.022": 0.0,
			"0.023": 0.0,
			"0.024": 0.0,
			"0.025": 0.0
		}
	}
}
