{
	 "smiles": "SCC1=C(Cl)C=CC=C1Cl", 
	 "Tm": 318.15, 
	 "num_atms": 16, 
	 "gaussian": { 
		 "optdone": 1, 
		 "sigma_profile": "yes", 
		 "theory": "DFT", 
		 "functional": "B3LYP", 
		 "basiset": "6-31G**", 
		 "properties": { 
			 "R2extent": 2769.5429, 
			 "electric_dipole_moment_norm": 1.90936573762, 
			 "electric_quadrupole_moment_norm": 11.093572064, 
			 "total_energy": -1588.92924863, 
			 "HOMO_LUMO_gap": 0.20192, 
			 "cosmo_polarized_energy": -7.23, 
			 "cosmo_cavitation_energy": 24.71, 
			 "cosmo_dispersion_energy": -18.75, 
			 "cosmo_repulsion_energy": 1.48, 
			 "cosmo_total_nonelectrostatic_energy": 7.44, 
			 "SMD_solvation_energy": 3.22 
		},
		"coords": [
			{
				"x": 2.8855778853,
				"y": 0.3787541303,
				"z": 0.2165914766,
				"element": "S" 
			},
			{
				"x": 1.7898566066,
				"y": -0.1487581895,
				"z": -1.1915189871,
				"element": "C" 
			},
			{
				"x": 0.4529181246,
				"y": 0.5308234458,
				"z": -1.0779844256,
				"element": "C" 
			},
			{
				"x": 0.1955606349,
				"y": 1.7800933734,
				"z": -1.674536113,
				"element": "C" 
			},
			{
				"x": 1.4518421892,
				"y": 2.5900494632,
				"z": -2.6019435358,
				"element": "Cl" 
			},
			{
				"x": -1.0372252449,
				"y": 2.4224377964,
				"z": -1.5739397002,
				"element": "C" 
			},
			{
				"x": -2.0642826932,
				"y": 1.8177594454,
				"z": -0.8540303129,
				"element": "C" 
			},
			{
				"x": -1.8599507134,
				"y": 0.5820612943,
				"z": -0.2457250594,
				"element": "C" 
			},
			{
				"x": -0.6174669518,
				"y": -0.0386218082,
				"z": -0.3619180609,
				"element": "C" 
			},
			{
				"x": -0.4215782833,
				"y": -1.6007439319,
				"z": 0.4228221548,
				"element": "Cl" 
			},
			{
				"x": 3.9530216531,
				"y": -0.3577448415,
				"z": -0.1548146056,
				"element": "H" 
			},
			{
				"x": 1.6659683935,
				"y": -1.2303641777,
				"z": -1.1479382789,
				"element": "H" 
			},
			{
				"x": 2.272796888,
				"y": 0.1273662483,
				"z": -2.1283396807,
				"element": "H" 
			},
			{
				"x": -1.1810926636,
				"y": 3.3827244952,
				"z": -2.0551826051,
				"element": "H" 
			},
			{
				"x": -3.027814767,
				"y": 2.3102112718,
				"z": -0.7685010524,
				"element": "H" 
			},
			{
				"x": -2.6498310581,
				"y": 0.0972519845,
				"z": 0.3159587863,
				"element": "H" 
			}
		],
		 "valence_orbital": [ 
			{
				"type": "occ",
				"energy": -0.3233,
				"method": "rhf"
			},
			{
				"type": "occ",
				"energy": -0.31747,
				"method": "rhf"
			},
			{
				"type": "occ",
				"energy": -0.263,
				"method": "rhf"
			},
			{
				"type": "occ",
				"energy": -0.25488,
				"method": "rhf"
			},
			{
				"type": "occ",
				"energy": -0.23796,
				"method": "rhf"
			},
			{
				"type": "unocc",
				"energy": -0.03604,
				"method": "rhf"
			},
			{
				"type": "unocc",
				"energy": -0.02751,
				"method": "rhf"
			},
			{
				"type": "unocc",
				"energy": 0.00257,
				"method": "rhf"
			},
			{
				"type": "unocc",
				"energy": 0.0231,
				"method": "rhf"
			},
			{
				"type": "unocc",
				"energy": 0.04762,
				"method": "rhf"
			}
		],
		"cosmo_sigma_profile": { 
			"-0.025": 0.0,
			"-0.024": 0.0,
			"-0.023": 0.0,
			"-0.022": 0.0,
			"-0.021": 0.0,
			"-0.02": 0.0,
			"-0.019": 0.0,
			"-0.018": 0.0,
			"-0.017": 0.0,
			"-0.016": 0.0,
			"-0.015": 0.0,
			"-0.014": 0.0,
			"-0.013": 0.0,
			"-0.012": 0.0,
			"-0.011": 0.0,
			"-0.01": 0.637928670888,
			"-0.009": 2.51820321167,
			"-0.008": 4.48944722746,
			"-0.007": 7.94499259608,
			"-0.006": 12.3196472833,
			"-0.005": 9.99785850918,
			"-0.004": 9.70857470441,
			"-0.003": 11.9395602636,
			"-0.002": 10.9519437361,
			"-0.001": 11.3776779564,
			"0.0": 17.7771351276,
			"0.001": 24.8123443177,
			"0.002": 21.2511258113,
			"0.003": 18.2600473435,
			"0.004": 16.2295992098,
			"0.005": 7.72135730081,
			"0.006": 4.84614161612,
			"0.007": 4.12253254685,
			"0.008": 2.94910147634,
			"0.009": 2.35430139837,
			"0.01": 2.03622956455,
			"0.011": 0.332238687997,
			"0.012": 0.0,
			"0.013": 0.0,
			"0.014": 0.0,
			"0.015": 0.0,
			"0.016": 0.0,
			"0.017": 0.0,
			"0.018": 0.0,
			"0.019": 0.0,
			"0.02": 0.0,
			"0.021": 0.0,
			"0.022": 0.0,
			"0.023": 0.0,
			"0.024": 0.0,
			"0.025": 0.0
		}
	}
}
