{
	 "smiles": "ClC1=CC(C=O)=C2OCCC2=C1", 
	 "Tm": 359.15, 
	 "num_atms": 19, 
	 "gaussian": { 
		 "optdone": 1, 
		 "sigma_profile": "yes", 
		 "theory": "DFT", 
		 "functional": "B3LYP", 
		 "basiset": "6-31G**", 
		 "properties": { 
			 "R2extent": 2540.6402, 
			 "electric_dipole_moment_norm": 5.74004618535, 
			 "electric_quadrupole_moment_norm": 8.96262077073, 
			 "total_energy": -957.800140577, 
			 "HOMO_LUMO_gap": 0.16169, 
			 "cosmo_polarized_energy": -9.92, 
			 "cosmo_cavitation_energy": 25.06, 
			 "cosmo_dispersion_energy": -18.8, 
			 "cosmo_repulsion_energy": 1.5, 
			 "cosmo_total_nonelectrostatic_energy": 7.77, 
			 "SMD_solvation_energy": 5.08 
		},
		"coords": [
			{
				"x": -0.631903249,
				"y": 2.4283772386,
				"z": -1.8182100251,
				"element": "Cl" 
			},
			{
				"x": -0.3605539483,
				"y": 0.9938592184,
				"z": -0.836590822,
				"element": "C" 
			},
			{
				"x": 0.8568660981,
				"y": 0.3345270117,
				"z": -0.9029223871,
				"element": "C" 
			},
			{
				"x": 1.0914296823,
				"y": -0.812819999,
				"z": -0.118693052,
				"element": "C" 
			},
			{
				"x": 2.3940975449,
				"y": -1.5071260764,
				"z": -0.1846766809,
				"element": "C" 
			},
			{
				"x": 3.3139438904,
				"y": -1.1527259597,
				"z": -0.9008351826,
				"element": "O" 
			},
			{
				"x": 0.0552333676,
				"y": -1.2485185448,
				"z": 0.7142522267,
				"element": "C" 
			},
			{
				"x": 0.1209271025,
				"y": -2.3367081165,
				"z": 1.524284326,
				"element": "O" 
			},
			{
				"x": -1.0705964029,
				"y": -2.3434058569,
				"z": 2.3605990031,
				"element": "C" 
			},
			{
				"x": -2.070786388,
				"y": -1.3453251249,
				"z": 1.7270728533,
				"element": "C" 
			},
			{
				"x": -1.1747369928,
				"y": -0.5823862813,
				"z": 0.7771892608,
				"element": "C" 
			},
			{
				"x": -1.3967315286,
				"y": 0.5430478617,
				"z": 0.0014434699,
				"element": "C" 
			},
			{
				"x": 1.6548466689,
				"y": 0.6826509038,
				"z": -1.5490967556,
				"element": "H" 
			},
			{
				"x": 2.4885018985,
				"y": -2.3923512077,
				"z": 0.4744860869,
				"element": "H" 
			},
			{
				"x": -1.4359780832,
				"y": -3.3712137172,
				"z": 2.3989615419,
				"element": "H" 
			},
			{
				"x": -0.7689873105,
				"y": -2.0346575377,
				"z": 3.3673785346,
				"element": "H" 
			},
			{
				"x": -2.8712698257,
				"y": -1.8627968817,
				"z": 1.1849678314,
				"element": "H" 
			},
			{
				"x": -2.5427425722,
				"y": -0.7099408623,
				"z": 2.4822287595,
				"element": "H" 
			},
			{
				"x": -2.342459952,
				"y": 1.0741139318,
				"z": 0.0285610111,
				"element": "H" 
			}
		],
		 "valence_orbital": [ 
			{
				"type": "occ",
				"energy": -0.31567,
				"method": "rhf"
			},
			{
				"type": "occ",
				"energy": -0.3079,
				"method": "rhf"
			},
			{
				"type": "occ",
				"energy": -0.27052,
				"method": "rhf"
			},
			{
				"type": "occ",
				"energy": -0.2536,
				"method": "rhf"
			},
			{
				"type": "occ",
				"energy": -0.22947,
				"method": "rhf"
			},
			{
				"type": "unocc",
				"energy": -0.06778,
				"method": "rhf"
			},
			{
				"type": "unocc",
				"energy": -0.01109,
				"method": "rhf"
			},
			{
				"type": "unocc",
				"energy": 0.0267,
				"method": "rhf"
			},
			{
				"type": "unocc",
				"energy": 0.02775,
				"method": "rhf"
			},
			{
				"type": "unocc",
				"energy": 0.07475,
				"method": "rhf"
			}
		],
		"cosmo_sigma_profile": { 
			"-0.025": 0.0,
			"-0.024": 0.0,
			"-0.023": 0.0,
			"-0.022": 0.0,
			"-0.021": 0.0,
			"-0.02": 0.0,
			"-0.019": 0.0,
			"-0.018": 0.0,
			"-0.017": 0.0,
			"-0.016": 0.0,
			"-0.015": 0.0,
			"-0.014": 0.0,
			"-0.013": 0.0,
			"-0.012": 0.0,
			"-0.011": 0.0,
			"-0.01": 0.0,
			"-0.009": 0.0460399186166,
			"-0.008": 1.36580682515,
			"-0.007": 3.404860084,
			"-0.006": 17.1347826897,
			"-0.005": 18.6842940664,
			"-0.004": 17.1955883847,
			"-0.003": 14.7277747577,
			"-0.002": 11.7349826895,
			"-0.001": 13.3245890677,
			"0.0": 14.691916906,
			"0.001": 19.9632417865,
			"0.002": 18.5161787729,
			"0.003": 9.22857789659,
			"0.004": 11.4623392434,
			"0.005": 9.87767629295,
			"0.006": 2.74290750546,
			"0.007": 3.06237844339,
			"0.008": 2.87996208354,
			"0.009": 2.83277988765,
			"0.01": 2.28242082053,
			"0.011": 4.3185776144,
			"0.012": 2.72807511151,
			"0.013": 0.849245038611,
			"0.014": 0.0,
			"0.015": 0.0,
			"0.016": 0.0,
			"0.017": 0.0,
			"0.018": 0.0,
			"0.019": 0.0,
			"0.02": 0.0,
			"0.021": 0.0,
			"0.022": 0.0,
			"0.023": 0.0,
			"0.024": 0.0,
			"0.025": 0.0
		}
	}
}
