{
	 "smiles": "NC1=C(C=C(Br)C=C1)C1=NC(=NO1)C1CC1", 
	 "Tm": 397.15, 
	 "num_atms": 26, 
	 "gaussian": { 
		 "optdone": 1, 
		 "sigma_profile": "yes", 
		 "theory": "DFT", 
		 "functional": "B3LYP", 
		 "basiset": "6-31G**", 
		 "properties": { 
			 "R2extent": 7598.0041, 
			 "electric_dipole_moment_norm": 4.84914771584, 
			 "electric_quadrupole_moment_norm": 8.34269081292, 
			 "total_energy": -3236.03140912, 
			 "HOMO_LUMO_gap": 0.15115, 
			 "cosmo_polarized_energy": -10.88, 
			 "cosmo_cavitation_energy": 32.76, 
			 "cosmo_dispersion_energy": -24.44, 
			 "cosmo_repulsion_energy": 1.89, 
			 "cosmo_total_nonelectrostatic_energy": 10.21, 
			 "SMD_solvation_energy": 2.93 
		},
		"coords": [
			{
				"x": 2.540833605,
				"y": 1.5461675376,
				"z": -1.1036400116,
				"element": "N" 
			},
			{
				"x": 2.3824818307,
				"y": 1.4451579175,
				"z": 0.2462643372,
				"element": "C" 
			},
			{
				"x": 1.2400636369,
				"y": 0.8212549409,
				"z": 0.829314646,
				"element": "C" 
			},
			{
				"x": 1.136040659,
				"y": 0.7096798494,
				"z": 2.2304630198,
				"element": "C" 
			},
			{
				"x": 2.1310069544,
				"y": 1.206706178,
				"z": 3.0503811721,
				"element": "C" 
			},
			{
				"x": 1.977232513,
				"y": 1.0511163252,
				"z": 4.9487584788,
				"element": "Br" 
			},
			{
				"x": 3.2566135686,
				"y": 1.829977393,
				"z": 2.4951859217,
				"element": "C" 
			},
			{
				"x": 3.3751071621,
				"y": 1.944367658,
				"z": 1.1214869479,
				"element": "C" 
			},
			{
				"x": 0.1679607412,
				"y": 0.3041588527,
				"z": -0.0010523162,
				"element": "C" 
			},
			{
				"x": 0.0566934237,
				"y": 0.3345015616,
				"z": -1.3112399636,
				"element": "N" 
			},
			{
				"x": -1.152950071,
				"y": -0.2866215749,
				"z": -1.534326979,
				"element": "C" 
			},
			{
				"x": -1.7671494974,
				"y": -0.6844888573,
				"z": -0.4463909714,
				"element": "N" 
			},
			{
				"x": -0.8864760118,
				"y": -0.2914313873,
				"z": 0.5855835704,
				"element": "O" 
			},
			{
				"x": -1.7261145214,
				"y": -0.4978380663,
				"z": -2.8732907876,
				"element": "C" 
			},
			{
				"x": -0.8030815489,
				"y": -0.7842361018,
				"z": -4.0437541947,
				"element": "C" 
			},
			{
				"x": -1.4981289241,
				"y": 0.5410265608,
				"z": -3.9561328745,
				"element": "C" 
			},
			{
				"x": 1.7751192608,
				"y": 1.2683095614,
				"z": -1.7063645473,
				"element": "H" 
			},
			{
				"x": 3.2857527227,
				"y": 2.1140581328,
				"z": -1.4708441318,
				"element": "H" 
			},
			{
				"x": 0.262138506,
				"y": 0.231804092,
				"z": 2.6559389732,
				"element": "H" 
			},
			{
				"x": 4.0339899545,
				"y": 2.2213775091,
				"z": 3.1419765252,
				"element": "H" 
			},
			{
				"x": 4.252711709,
				"y": 2.4241574446,
				"z": 0.6967713995,
				"element": "H" 
			},
			{
				"x": -2.6861446755,
				"y": -1.0024988018,
				"z": -2.8550590147,
				"element": "H" 
			},
			{
				"x": -1.1449706867,
				"y": -1.5077371309,
				"z": -4.7769960802,
				"element": "H" 
			},
			{
				"x": 0.2608652324,
				"y": -0.8150248785,
				"z": -3.8330423755,
				"element": "H" 
			},
			{
				"x": -2.3258995119,
				"y": 0.744232566,
				"z": -4.6280739665,
				"element": "H" 
			},
			{
				"x": -0.9052960314,
				"y": 1.4088227181,
				"z": -3.686316777,
				"element": "H" 
			}
		],
		 "valence_orbital": [ 
			{
				"type": "occ",
				"energy": -0.28756,
				"method": "rhf"
			},
			{
				"type": "occ",
				"energy": -0.28463,
				"method": "rhf"
			},
			{
				"type": "occ",
				"energy": -0.2803,
				"method": "rhf"
			},
			{
				"type": "occ",
				"energy": -0.25271,
				"method": "rhf"
			},
			{
				"type": "occ",
				"energy": -0.20851,
				"method": "rhf"
			},
			{
				"type": "unocc",
				"energy": -0.05736,
				"method": "rhf"
			},
			{
				"type": "unocc",
				"energy": -0.00228,
				"method": "rhf"
			},
			{
				"type": "unocc",
				"energy": 0.00942,
				"method": "rhf"
			},
			{
				"type": "unocc",
				"energy": 0.01462,
				"method": "rhf"
			},
			{
				"type": "unocc",
				"energy": 0.05274,
				"method": "rhf"
			}
		],
		"cosmo_sigma_profile": { 
			"-0.025": 0.0,
			"-0.024": 0.0,
			"-0.023": 0.0,
			"-0.022": 0.0,
			"-0.021": 0.0,
			"-0.02": 0.0,
			"-0.019": 0.0,
			"-0.018": 0.0,
			"-0.017": 0.0,
			"-0.016": 0.0,
			"-0.015": 0.0,
			"-0.014": 0.932128202194,
			"-0.013": 1.57974981859,
			"-0.012": 1.30023318025,
			"-0.011": 1.30420190209,
			"-0.01": 1.82196726614,
			"-0.009": 1.67894670608,
			"-0.008": 2.9023160956,
			"-0.007": 5.51150725508,
			"-0.006": 9.45806052514,
			"-0.005": 14.9887356765,
			"-0.004": 14.7433175821,
			"-0.003": 15.6504263636,
			"-0.002": 19.2128170358,
			"-0.001": 21.6159508871,
			"0.0": 22.3517740766,
			"0.001": 26.8536146755,
			"0.002": 29.3706960309,
			"0.003": 25.9932804029,
			"0.004": 17.8935059286,
			"0.005": 12.3205844321,
			"0.006": 4.28909488702,
			"0.007": 3.63976070001,
			"0.008": 2.52730100104,
			"0.009": 1.6740248997,
			"0.01": 1.84375552281,
			"0.011": 1.27898594667,
			"0.012": 1.14603772978,
			"0.013": 1.37694475319,
			"0.014": 0.486018490891,
			"0.015": 0.0,
			"0.016": 0.0,
			"0.017": 0.0,
			"0.018": 0.0,
			"0.019": 0.0,
			"0.02": 0.0,
			"0.021": 0.0,
			"0.022": 0.0,
			"0.023": 0.0,
			"0.024": 0.0,
			"0.025": 0.0
		}
	}
}
