{
	 "smiles": "[O-][N+](=O)C1=CC=CC2=C1N=CC=C2", 
	 "Tm": 362.15, 
	 "num_atms": 19, 
	 "gaussian": { 
		 "optdone": 1, 
		 "sigma_profile": "yes", 
		 "theory": "DFT", 
		 "functional": "B3LYP", 
		 "basiset": "6-31G**", 
		 "properties": { 
			 "R2extent": 2514.7884, 
			 "electric_dipole_moment_norm": 5.87105239629, 
			 "electric_quadrupole_moment_norm": 17.4615314217, 
			 "total_energy": -606.414361529, 
			 "HOMO_LUMO_gap": 0.17495, 
			 "cosmo_polarized_energy": -12.61, 
			 "cosmo_cavitation_energy": 24.57, 
			 "cosmo_dispersion_energy": -17.78, 
			 "cosmo_repulsion_energy": 1.39, 
			 "cosmo_total_nonelectrostatic_energy": 8.18, 
			 "SMD_solvation_energy": 5.6 
		},
		"coords": [
			{
				"x": -1.2269819157,
				"y": 2.5740898942,
				"z": -2.4426379448,
				"element": "O" 
			},
			{
				"x": -0.0589330822,
				"y": 2.291707977,
				"z": -2.2013593316,
				"element": "N" 
			},
			{
				"x": 0.9292246546,
				"y": 2.9199790934,
				"z": -2.5634481826,
				"element": "O" 
			},
			{
				"x": 0.1819086485,
				"y": 1.0628131975,
				"z": -1.4211058948,
				"element": "C" 
			},
			{
				"x": 0.3366517807,
				"y": -0.1316293101,
				"z": -2.0783491757,
				"element": "C" 
			},
			{
				"x": 0.5675937957,
				"y": -1.3097385189,
				"z": -1.328150135,
				"element": "C" 
			},
			{
				"x": 0.6368402273,
				"y": -1.2617388618,
				"z": 0.0461001118,
				"element": "C" 
			},
			{
				"x": 0.4778883696,
				"y": -0.0303246454,
				"z": 0.7342720672,
				"element": "C" 
			},
			{
				"x": 0.2437998849,
				"y": 1.1705848267,
				"z": -0.0070512604,
				"element": "C" 
			},
			{
				"x": 0.0806537309,
				"y": 2.3898531591,
				"z": 0.5723959032,
				"element": "N" 
			},
			{
				"x": 0.1444567229,
				"y": 2.4506204792,
				"z": 1.8869178665,
				"element": "C" 
			},
			{
				"x": 0.3713369405,
				"y": 1.3283730853,
				"z": 2.7244760052,
				"element": "C" 
			},
			{
				"x": 0.537271069,
				"y": 0.0923340196,
				"z": 2.1468919147,
				"element": "C" 
			},
			{
				"x": 0.2819946152,
				"y": -0.1691063082,
				"z": -3.1612517523,
				"element": "H" 
			},
			{
				"x": 0.6896398832,
				"y": -2.2530964244,
				"z": -1.8504767093,
				"element": "H" 
			},
			{
				"x": 0.8141113194,
				"y": -2.1663278711,
				"z": 0.6213612829,
				"element": "H" 
			},
			{
				"x": 0.0112462901,
				"y": 3.4359577724,
				"z": 2.3307826153,
				"element": "H" 
			},
			{
				"x": 0.4107438839,
				"y": 1.458319227,
				"z": 3.801078229,
				"element": "H" 
			},
			{
				"x": 0.7131531816,
				"y": -0.7930707914,
				"z": 2.7522543907,
				"element": "H" 
			}
		],
		 "valence_orbital": [ 
			{
				"type": "occ",
				"energy": -0.3,
				"method": "rhf"
			},
			{
				"type": "occ",
				"energy": -0.29387,
				"method": "rhf"
			},
			{
				"type": "occ",
				"energy": -0.27303,
				"method": "rhf"
			},
			{
				"type": "occ",
				"energy": -0.27233,
				"method": "rhf"
			},
			{
				"type": "occ",
				"energy": -0.24916,
				"method": "rhf"
			},
			{
				"type": "unocc",
				"energy": -0.07421,
				"method": "rhf"
			},
			{
				"type": "unocc",
				"energy": -0.06267,
				"method": "rhf"
			},
			{
				"type": "unocc",
				"energy": -0.03736,
				"method": "rhf"
			},
			{
				"type": "unocc",
				"energy": -0.00112,
				"method": "rhf"
			},
			{
				"type": "unocc",
				"energy": 0.06834,
				"method": "rhf"
			}
		],
		"cosmo_sigma_profile": { 
			"-0.025": 0.0,
			"-0.024": 0.0,
			"-0.023": 0.0,
			"-0.022": 0.0,
			"-0.021": 0.0,
			"-0.02": 0.0,
			"-0.019": 0.0,
			"-0.018": 0.0,
			"-0.017": 0.0,
			"-0.016": 0.0,
			"-0.015": 0.0,
			"-0.014": 0.0,
			"-0.013": 0.0,
			"-0.012": 0.0,
			"-0.011": 0.115039467193,
			"-0.01": 0.987901845646,
			"-0.009": 2.70101514973,
			"-0.008": 7.29665256503,
			"-0.007": 14.6377377909,
			"-0.006": 13.2643881572,
			"-0.005": 11.2152645053,
			"-0.004": 8.55671927482,
			"-0.003": 9.16356100821,
			"-0.002": 7.16920529428,
			"-0.001": 11.6941419915,
			"0.0": 20.1917955163,
			"0.001": 19.6169588151,
			"0.002": 14.6046428573,
			"0.003": 6.33455485384,
			"0.004": 5.36998720385,
			"0.005": 5.19161911033,
			"0.006": 9.29819841309,
			"0.007": 14.3786622349,
			"0.008": 8.95855555675,
			"0.009": 4.27485882425,
			"0.01": 1.82231812381,
			"0.011": 0.888251380828,
			"0.012": 0.677136309057,
			"0.013": 0.00397406576991,
			"0.014": 0.0,
			"0.015": 0.0,
			"0.016": 0.0,
			"0.017": 0.0,
			"0.018": 0.0,
			"0.019": 0.0,
			"0.02": 0.0,
			"0.021": 0.0,
			"0.022": 0.0,
			"0.023": 0.0,
			"0.024": 0.0,
			"0.025": 0.0
		}
	}
}
