{
	 "smiles": "CC1=CC(C)=C(C(O)=O)C(C)=N1", 
	 "Tm": 418.15, 
	 "num_atms": 23, 
	 "gaussian": { 
		 "optdone": 1, 
		 "sigma_profile": "yes", 
		 "theory": "DFT", 
		 "functional": "B3LYP", 
		 "basiset": "6-31G**", 
		 "properties": { 
			 "R2extent": 2405.1128, 
			 "electric_dipole_moment_norm": 4.54207028898, 
			 "electric_quadrupole_moment_norm": 12.7607821481, 
			 "total_energy": -554.809714578, 
			 "HOMO_LUMO_gap": 0.20816, 
			 "cosmo_polarized_energy": -14.67, 
			 "cosmo_cavitation_energy": 26.38, 
			 "cosmo_dispersion_energy": -19.16, 
			 "cosmo_repulsion_energy": 1.54, 
			 "cosmo_total_nonelectrostatic_energy": 8.75, 
			 "SMD_solvation_energy": 4.33 
		},
		"coords": [
			{
				"x": -1.7126585542,
				"y": 2.380827927,
				"z": 1.0652781265,
				"element": "C" 
			},
			{
				"x": -0.8900125394,
				"y": 1.1325411249,
				"z": 0.8747765723,
				"element": "C" 
			},
			{
				"x": 0.2101981388,
				"y": 0.8452846317,
				"z": 1.6819491043,
				"element": "C" 
			},
			{
				"x": 0.9452363007,
				"y": -0.3268031417,
				"z": 1.4788727615,
				"element": "C" 
			},
			{
				"x": 2.1429510345,
				"y": -0.6089304558,
				"z": 2.3616106224,
				"element": "C" 
			},
			{
				"x": 0.5337583183,
				"y": -1.1775254634,
				"z": 0.4354070753,
				"element": "C" 
			},
			{
				"x": 1.2782389086,
				"y": -2.4387248706,
				"z": 0.1001596446,
				"element": "C" 
			},
			{
				"x": 1.5223692189,
				"y": -3.2841140169,
				"z": 1.1419306981,
				"element": "O" 
			},
			{
				"x": 1.6561541007,
				"y": -2.7364146971,
				"z": -1.0070959807,
				"element": "O" 
			},
			{
				"x": -0.5781468566,
				"y": -0.8012178767,
				"z": -0.3582264892,
				"element": "C" 
			},
			{
				"x": -1.0600751629,
				"y": -1.6423974306,
				"z": -1.515048165,
				"element": "C" 
			},
			{
				"x": -1.2714726596,
				"y": 0.3177708998,
				"z": -0.1238924337,
				"element": "N" 
			},
			{
				"x": -2.7567946295,
				"y": 2.1185436118,
				"z": 1.264912812,
				"element": "H" 
			},
			{
				"x": -1.705818042,
				"y": 2.981060193,
				"z": 0.1496647713,
				"element": "H" 
			},
			{
				"x": -1.3402096547,
				"y": 2.9933126991,
				"z": 1.8902150555,
				"element": "H" 
			},
			{
				"x": 0.5042762645,
				"y": 1.5373587082,
				"z": 2.4658880643,
				"element": "H" 
			},
			{
				"x": 2.9342523842,
				"y": -1.1479346173,
				"z": 1.8364806655,
				"element": "H" 
			},
			{
				"x": 2.5590941466,
				"y": 0.3278315841,
				"z": 2.7407978527,
				"element": "H" 
			},
			{
				"x": 1.8665464935,
				"y": -1.2065752909,
				"z": 3.2405016897,
				"element": "H" 
			},
			{
				"x": 1.0675863201,
				"y": -2.964246041,
				"z": 1.933672586,
				"element": "H" 
			},
			{
				"x": -1.9880659904,
				"y": -1.2145753198,
				"z": -1.8954994692,
				"element": "H" 
			},
			{
				"x": -1.2347309746,
				"y": -2.6822093889,
				"z": -1.2195801137,
				"element": "H" 
			},
			{
				"x": -0.3119765654,
				"y": -1.6676627689,
				"z": -2.3119754507,
				"element": "H" 
			}
		],
		 "valence_orbital": [ 
			{
				"type": "occ",
				"energy": -0.31815,
				"method": "rhf"
			},
			{
				"type": "occ",
				"energy": -0.28628,
				"method": "rhf"
			},
			{
				"type": "occ",
				"energy": -0.27606,
				"method": "rhf"
			},
			{
				"type": "occ",
				"energy": -0.2566,
				"method": "rhf"
			},
			{
				"type": "occ",
				"energy": -0.25321,
				"method": "rhf"
			},
			{
				"type": "unocc",
				"energy": -0.04505,
				"method": "rhf"
			},
			{
				"type": "unocc",
				"energy": -0.02484,
				"method": "rhf"
			},
			{
				"type": "unocc",
				"energy": 0.02471,
				"method": "rhf"
			},
			{
				"type": "unocc",
				"energy": 0.05698,
				"method": "rhf"
			},
			{
				"type": "unocc",
				"energy": 0.09827,
				"method": "rhf"
			}
		],
		"cosmo_sigma_profile": { 
			"-0.025": 0.0,
			"-0.024": 0.0,
			"-0.023": 0.0,
			"-0.022": 0.0,
			"-0.021": 0.0,
			"-0.02": 0.0,
			"-0.019": 0.0464420140685,
			"-0.018": 0.702706629055,
			"-0.017": 0.814775491057,
			"-0.016": 0.618410126078,
			"-0.015": 1.2887075654,
			"-0.014": 0.951055563252,
			"-0.013": 1.0187359809,
			"-0.012": 0.73954699083,
			"-0.011": 1.52273302265,
			"-0.01": 0.715785045344,
			"-0.009": 0.969859833239,
			"-0.008": 1.22194253307,
			"-0.007": 1.76162611637,
			"-0.006": 8.70204396686,
			"-0.005": 14.0673569179,
			"-0.004": 16.3584447843,
			"-0.003": 16.4827306176,
			"-0.002": 20.4257174893,
			"-0.001": 23.0704548964,
			"0.0": 20.4804055137,
			"0.001": 13.9753236565,
			"0.002": 11.2824926887,
			"0.003": 5.80176858178,
			"0.004": 4.68831188831,
			"0.005": 4.48632173137,
			"0.006": 4.28305952324,
			"0.007": 3.3950072348,
			"0.008": 4.07826787588,
			"0.009": 4.55062673279,
			"0.01": 6.0126622679,
			"0.011": 6.1616580237,
			"0.012": 4.29301831574,
			"0.013": 1.78897177743,
			"0.014": 0.967643668591,
			"0.015": 0.458157383489,
			"0.016": 0.18741537233,
			"0.017": 0.0,
			"0.018": 0.0,
			"0.019": 0.0,
			"0.02": 0.0,
			"0.021": 0.0,
			"0.022": 0.0,
			"0.023": 0.0,
			"0.024": 0.0,
			"0.025": 0.0
		}
	}
}
