{
	 "smiles": "SC1=NCC(=O)N1C1CCCCCC1", 
	 "Tm": 346.15, 
	 "num_atms": 30, 
	 "gaussian": { 
		 "optdone": 1, 
		 "sigma_profile": "yes", 
		 "theory": "DFT", 
		 "functional": "B3LYP", 
		 "basiset": "6-31G**", 
		 "properties": { 
			 "R2extent": 3564.8968, 
			 "electric_dipole_moment_norm": 1.7788542408, 
			 "electric_quadrupole_moment_norm": 1.80708690162, 
			 "total_energy": -973.633669973, 
			 "HOMO_LUMO_gap": 0.22437, 
			 "cosmo_polarized_energy": -9.61, 
			 "cosmo_cavitation_energy": 31.62, 
			 "cosmo_dispersion_energy": -23.42, 
			 "cosmo_repulsion_energy": 1.81, 
			 "cosmo_total_nonelectrostatic_energy": 10.01, 
			 "SMD_solvation_energy": 1.24 
		},
		"coords": [
			{
				"x": -0.5586623655,
				"y": -2.8576114195,
				"z": -2.2736032278,
				"element": "S" 
			},
			{
				"x": -1.3617402198,
				"y": -1.7177935847,
				"z": -1.1712181074,
				"element": "C" 
			},
			{
				"x": -2.6111099387,
				"y": -1.7562618394,
				"z": -0.890937704,
				"element": "N" 
			},
			{
				"x": -2.8341041762,
				"y": -0.6501538216,
				"z": 0.0396165359,
				"element": "C" 
			},
			{
				"x": -1.4816248876,
				"y": 0.0328361625,
				"z": 0.2381064449,
				"element": "C" 
			},
			{
				"x": -1.2015362474,
				"y": 0.9974528301,
				"z": 0.9251300585,
				"element": "O" 
			},
			{
				"x": -0.6049126165,
				"y": -0.7053547054,
				"z": -0.5609029166,
				"element": "N" 
			},
			{
				"x": 0.8480077251,
				"y": -0.4598218039,
				"z": -0.7059923482,
				"element": "C" 
			},
			{
				"x": 1.5393994857,
				"y": -0.6690782575,
				"z": 0.6560463366,
				"element": "C" 
			},
			{
				"x": 3.0441582693,
				"y": -0.3412176938,
				"z": 0.6793449121,
				"element": "C" 
			},
			{
				"x": 3.3609172984,
				"y": 1.1352245698,
				"z": 0.9695129975,
				"element": "C" 
			},
			{
				"x": 2.9828877428,
				"y": 2.132468835,
				"z": -0.1346637802,
				"element": "C" 
			},
			{
				"x": 1.5129570241,
				"y": 2.1087807508,
				"z": -0.588174599,
				"element": "C" 
			},
			{
				"x": 1.1375877124,
				"y": 0.8808307479,
				"z": -1.4381456578,
				"element": "C" 
			},
			{
				"x": -1.7034406712,
				"y": -3.5270971536,
				"z": -2.5052000435,
				"element": "H" 
			},
			{
				"x": -3.5670134652,
				"y": 0.0619351961,
				"z": -0.358047326,
				"element": "H" 
			},
			{
				"x": -3.2242916114,
				"y": -1.0105114833,
				"z": 0.9989915764,
				"element": "H" 
			},
			{
				"x": 1.1964206478,
				"y": -1.2574201262,
				"z": -1.3704217761,
				"element": "H" 
			},
			{
				"x": 1.3842021929,
				"y": -1.7182677169,
				"z": 0.9340381688,
				"element": "H" 
			},
			{
				"x": 1.0261636634,
				"y": -0.0662345195,
				"z": 1.4113379092,
				"element": "H" 
			},
			{
				"x": 3.5202563165,
				"y": -0.6555051292,
				"z": -0.2608420874,
				"element": "H" 
			},
			{
				"x": 3.5097303831,
				"y": -0.9486864973,
				"z": 1.4644687018,
				"element": "H" 
			},
			{
				"x": 4.435149982,
				"y": 1.2332170785,
				"z": 1.1729434778,
				"element": "H" 
			},
			{
				"x": 2.8484863816,
				"y": 1.4187002884,
				"z": 1.8994223793,
				"element": "H" 
			},
			{
				"x": 3.6234625628,
				"y": 1.9597071681,
				"z": -1.0124001252,
				"element": "H" 
			},
			{
				"x": 3.2264673392,
				"y": 3.1418674678,
				"z": 0.2206225409,
				"element": "H" 
			},
			{
				"x": 0.835938329,
				"y": 2.1954029957,
				"z": 0.2675225093,
				"element": "H" 
			},
			{
				"x": 1.3390635103,
				"y": 2.9966699392,
				"z": -1.2088012367,
				"element": "H" 
			},
			{
				"x": 0.259314874,
				"y": 1.1104589324,
				"z": -2.0509197705,
				"element": "H" 
			},
			{
				"x": 1.9532647594,
				"y": 0.6993627895,
				"z": -2.1499338426,
				"element": "H" 
			}
		],
		 "valence_orbital": [ 
			{
				"type": "occ",
				"energy": -0.3089,
				"method": "rhf"
			},
			{
				"type": "occ",
				"energy": -0.30476,
				"method": "rhf"
			},
			{
				"type": "occ",
				"energy": -0.27355,
				"method": "rhf"
			},
			{
				"type": "occ",
				"energy": -0.2489,
				"method": "rhf"
			},
			{
				"type": "occ",
				"energy": -0.23981,
				"method": "rhf"
			},
			{
				"type": "unocc",
				"energy": -0.01544,
				"method": "rhf"
			},
			{
				"type": "unocc",
				"energy": 0.00123,
				"method": "rhf"
			},
			{
				"type": "unocc",
				"energy": 0.03898,
				"method": "rhf"
			},
			{
				"type": "unocc",
				"energy": 0.05721,
				"method": "rhf"
			},
			{
				"type": "unocc",
				"energy": 0.07742,
				"method": "rhf"
			}
		],
		"cosmo_sigma_profile": { 
			"-0.025": 0.0,
			"-0.024": 0.0,
			"-0.023": 0.0,
			"-0.022": 0.0,
			"-0.021": 0.0,
			"-0.02": 0.0,
			"-0.019": 0.0,
			"-0.018": 0.0,
			"-0.017": 0.0,
			"-0.016": 0.0,
			"-0.015": 0.0,
			"-0.014": 0.0,
			"-0.013": 0.0,
			"-0.012": 0.888653637504,
			"-0.011": 1.44362044917,
			"-0.01": 1.31398959876,
			"-0.009": 0.98886529373,
			"-0.008": 2.65809199374,
			"-0.007": 5.66321591917,
			"-0.006": 6.41191391298,
			"-0.005": 8.67019476288,
			"-0.004": 12.3800464458,
			"-0.003": 23.5587906029,
			"-0.002": 33.4819768318,
			"-0.001": 30.8738778765,
			"0.0": 35.5352503673,
			"0.001": 24.9207326398,
			"0.002": 12.3105894037,
			"0.003": 6.28052458963,
			"0.004": 5.97120865285,
			"0.005": 6.25615138624,
			"0.006": 5.68930604945,
			"0.007": 4.18067096632,
			"0.008": 1.9768572483,
			"0.009": 2.3268918834,
			"0.01": 2.64070093055,
			"0.011": 3.12380312278,
			"0.012": 3.58656717949,
			"0.013": 3.12719465133,
			"0.014": 1.24602508683,
			"0.015": 0.659212321986,
			"0.016": 0.637074247684,
			"0.017": 0.0645971984297,
			"0.018": 0.0,
			"0.019": 0.0,
			"0.02": 0.0,
			"0.021": 0.0,
			"0.022": 0.0,
			"0.023": 0.0,
			"0.024": 0.0,
			"0.025": 0.0
		}
	}
}
