{
	 "smiles": "CC(=O)NC1=CC=C(C=C1NC(C)=O)C(O)=O", 
	 "Tm": 499.15, 
	 "num_atms": 29, 
	 "gaussian": { 
		 "optdone": 1, 
		 "sigma_profile": "yes", 
		 "theory": "DFT", 
		 "functional": "B3LYP", 
		 "basiset": "6-31G**", 
		 "properties": { 
			 "R2extent": 4742.3872, 
			 "electric_dipole_moment_norm": 4.06575769199, 
			 "electric_quadrupole_moment_norm": 27.9836446332, 
			 "total_energy": -836.84008243, 
			 "HOMO_LUMO_gap": 0.17466, 
			 "cosmo_polarized_energy": -27.32, 
			 "cosmo_cavitation_energy": 34.09, 
			 "cosmo_dispersion_energy": -23.28, 
			 "cosmo_repulsion_energy": 1.82, 
			 "cosmo_total_nonelectrostatic_energy": 12.62, 
			 "SMD_solvation_energy": 9.27 
		},
		"coords": [
			{
				"x": -0.721347661,
				"y": -0.7985740707,
				"z": 2.6859662736,
				"element": "C" 
			},
			{
				"x": -1.6578396852,
				"y": -1.6773191187,
				"z": 1.8819984103,
				"element": "C" 
			},
			{
				"x": -2.4917746483,
				"y": -2.4091780992,
				"z": 2.383138856,
				"element": "O" 
			},
			{
				"x": -1.546644517,
				"y": -1.6033667261,
				"z": 0.4883773533,
				"element": "N" 
			},
			{
				"x": -0.4534280534,
				"y": -1.054519064,
				"z": -0.2475947281,
				"element": "C" 
			},
			{
				"x": 0.578784149,
				"y": -1.8816865697,
				"z": -0.6922218491,
				"element": "C" 
			},
			{
				"x": 1.632423284,
				"y": -1.3752119512,
				"z": -1.4492424092,
				"element": "C" 
			},
			{
				"x": 1.6465451096,
				"y": -0.0136491676,
				"z": -1.7740372293,
				"element": "C" 
			},
			{
				"x": 0.6181139759,
				"y": 0.8252114754,
				"z": -1.3350536212,
				"element": "C" 
			},
			{
				"x": -0.4431302361,
				"y": 0.3302800358,
				"z": -0.5670720647,
				"element": "C" 
			},
			{
				"x": -1.5296759184,
				"y": 1.0944950973,
				"z": -0.1374888871,
				"element": "N" 
			},
			{
				"x": -1.7381635493,
				"y": 2.4568599212,
				"z": 0.0835348194,
				"element": "C" 
			},
			{
				"x": -0.5937683402,
				"y": 3.4302207019,
				"z": -0.1007978464,
				"element": "C" 
			},
			{
				"x": -2.8455377069,
				"y": 2.8179693202,
				"z": 0.4461052121,
				"element": "O" 
			},
			{
				"x": 2.7388042803,
				"y": 0.6260051398,
				"z": -2.583200027,
				"element": "C" 
			},
			{
				"x": 3.4919926009,
				"y": -0.1993427277,
				"z": -3.3543989461,
				"element": "O" 
			},
			{
				"x": 2.9602863122,
				"y": 1.8139319877,
				"z": -2.5692437693,
				"element": "O" 
			},
			{
				"x": -0.8880817991,
				"y": 0.2591187367,
				"z": 2.4602537538,
				"element": "H" 
			},
			{
				"x": -0.9140550048,
				"y": -0.9778737468,
				"z": 3.7429669967,
				"element": "H" 
			},
			{
				"x": 0.3251318426,
				"y": -1.0238597566,
				"z": 2.4582150306,
				"element": "H" 
			},
			{
				"x": -2.090305701,
				"y": -2.3288830975,
				"z": 0.033370644,
				"element": "H" 
			},
			{
				"x": 0.5533554644,
				"y": -2.9324120086,
				"z": -0.4194100193,
				"element": "H" 
			},
			{
				"x": 2.4460660872,
				"y": -2.0362875124,
				"z": -1.7340312456,
				"element": "H" 
			},
			{
				"x": 0.6631760531,
				"y": 1.8615430319,
				"z": -1.6359104897,
				"element": "H" 
			},
			{
				"x": -2.3408837272,
				"y": 0.5484323786,
				"z": 0.1354950822,
				"element": "H" 
			},
			{
				"x": 0.355882739,
				"y": 3.0462348425,
				"z": 0.2800471045,
				"element": "H" 
			},
			{
				"x": -0.862795012,
				"y": 4.345757134,
				"z": 0.4260359771,
				"element": "H" 
			},
			{
				"x": -0.4608392918,
				"y": 3.674841936,
				"z": -1.160077186,
				"element": "H" 
			},
			{
				"x": 3.0958089535,
				"y": -1.0809381221,
				"z": -3.3908251954,
				"element": "H" 
			}
		],
		 "valence_orbital": [ 
			{
				"type": "occ",
				"energy": -0.28946,
				"method": "rhf"
			},
			{
				"type": "occ",
				"energy": -0.27875,
				"method": "rhf"
			},
			{
				"type": "occ",
				"energy": -0.26906,
				"method": "rhf"
			},
			{
				"type": "occ",
				"energy": -0.26446,
				"method": "rhf"
			},
			{
				"type": "occ",
				"energy": -0.24517,
				"method": "rhf"
			},
			{
				"type": "unocc",
				"energy": -0.07051,
				"method": "rhf"
			},
			{
				"type": "unocc",
				"energy": -0.04349,
				"method": "rhf"
			},
			{
				"type": "unocc",
				"energy": 0.00372,
				"method": "rhf"
			},
			{
				"type": "unocc",
				"energy": 0.01001,
				"method": "rhf"
			},
			{
				"type": "unocc",
				"energy": 0.03878,
				"method": "rhf"
			}
		],
		"cosmo_sigma_profile": { 
			"-0.025": 0.0,
			"-0.024": 0.0,
			"-0.023": 0.0,
			"-0.022": 0.0,
			"-0.021": 0.0,
			"-0.02": 0.0,
			"-0.019": 0.312689660526,
			"-0.018": 0.861084439701,
			"-0.017": 1.28463780676,
			"-0.016": 0.836739203383,
			"-0.015": 0.886280312367,
			"-0.014": 1.67351163979,
			"-0.013": 3.13089804128,
			"-0.012": 1.93526012539,
			"-0.011": 2.12502325478,
			"-0.01": 3.04470203611,
			"-0.009": 4.445410047,
			"-0.008": 7.37710988819,
			"-0.007": 10.5155550096,
			"-0.006": 12.2898998065,
			"-0.005": 20.8264007237,
			"-0.004": 21.8069193775,
			"-0.003": 19.7251956798,
			"-0.002": 23.1777060446,
			"-0.001": 18.3736411282,
			"0.0": 11.3246819601,
			"0.001": 14.6620070133,
			"0.002": 11.6371818723,
			"0.003": 5.5172605131,
			"0.004": 4.51392708507,
			"0.005": 5.21370529726,
			"0.006": 4.2550661167,
			"0.007": 3.81765834324,
			"0.008": 6.3014189251,
			"0.009": 6.84593697101,
			"0.01": 7.21166219416,
			"0.011": 9.1227989449,
			"0.012": 11.1418098208,
			"0.013": 11.67613742,
			"0.014": 3.09998343886,
			"0.015": 0.0634532629576,
			"0.016": 0.0,
			"0.017": 0.0,
			"0.018": 0.0,
			"0.019": 0.0,
			"0.02": 0.0,
			"0.021": 0.0,
			"0.022": 0.0,
			"0.023": 0.0,
			"0.024": 0.0,
			"0.025": 0.0
		}
	}
}
