{
	 "smiles": "CCOC(=O)C=C", 
	 "Tm": 202.05, 
	 "num_atms": 15, 
	 "gaussian": { 
		 "optdone": 1, 
		 "sigma_profile": "yes", 
		 "theory": "DFT", 
		 "functional": "B3LYP", 
		 "basiset": "6-31G**", 
		 "properties": { 
			 "R2extent": 1724.9323, 
			 "electric_dipole_moment_norm": 1.457533166, 
			 "electric_quadrupole_moment_norm": 9.0856289353, 
			 "total_energy": -345.791719096, 
			 "HOMO_LUMO_gap": 0.22746, 
			 "cosmo_polarized_energy": -6.13, 
			 "cosmo_cavitation_energy": 19.17, 
			 "cosmo_dispersion_energy": -13.8, 
			 "cosmo_repulsion_energy": 1.19, 
			 "cosmo_total_nonelectrostatic_energy": 6.56, 
			 "SMD_solvation_energy": 5.43 
		},
		"coords": [
			{
				"x": -1.303647355,
				"y": 0.9962516598,
				"z": 2.3898302242,
				"element": "C" 
			},
			{
				"x": -0.6547745152,
				"y": 0.5581668392,
				"z": 1.084911403,
				"element": "C" 
			},
			{
				"x": -1.276487401,
				"y": -0.6399055582,
				"z": 0.5643777312,
				"element": "O" 
			},
			{
				"x": -0.8107411864,
				"y": -1.8174360756,
				"z": 1.0441927864,
				"element": "C" 
			},
			{
				"x": 0.0819267923,
				"y": -1.914753103,
				"z": 1.8640134789,
				"element": "O" 
			},
			{
				"x": -1.5390782902,
				"y": -2.954732433,
				"z": 0.4241424457,
				"element": "C" 
			},
			{
				"x": -1.2391284097,
				"y": -4.2132990204,
				"z": 0.7505850541,
				"element": "C" 
			},
			{
				"x": -1.1364088595,
				"y": 0.2498285255,
				"z": 3.1700609931,
				"element": "H" 
			},
			{
				"x": -0.867256188,
				"y": 1.9442061695,
				"z": 2.7219820685,
				"element": "H" 
			},
			{
				"x": -2.3804372107,
				"y": 1.1401429289,
				"z": 2.2606983258,
				"element": "H" 
			},
			{
				"x": 0.413063933,
				"y": 0.3705040175,
				"z": 1.2208651709,
				"element": "H" 
			},
			{
				"x": -0.7964342752,
				"y": 1.3025566966,
				"z": 0.2975834436,
				"element": "H" 
			},
			{
				"x": -2.3135442981,
				"y": -2.7074251683,
				"z": -0.2953005392,
				"element": "H" 
			},
			{
				"x": -0.4566634234,
				"y": -4.4171641679,
				"z": 1.4754809427,
				"element": "H" 
			},
			{
				"x": -1.7582893127,
				"y": -5.0574413108,
				"z": 0.308476471,
				"element": "H" 
			}
		],
		 "valence_orbital": [ 
			{
				"type": "occ",
				"energy": -0.36599,
				"method": "rhf"
			},
			{
				"type": "occ",
				"energy": -0.33857,
				"method": "rhf"
			},
			{
				"type": "occ",
				"energy": -0.29603,
				"method": "rhf"
			},
			{
				"type": "occ",
				"energy": -0.28134,
				"method": "rhf"
			},
			{
				"type": "occ",
				"energy": -0.27096,
				"method": "rhf"
			},
			{
				"type": "unocc",
				"energy": -0.0435,
				"method": "rhf"
			},
			{
				"type": "unocc",
				"energy": 0.08811,
				"method": "rhf"
			},
			{
				"type": "unocc",
				"energy": 0.10961,
				"method": "rhf"
			},
			{
				"type": "unocc",
				"energy": 0.11904,
				"method": "rhf"
			},
			{
				"type": "unocc",
				"energy": 0.13169,
				"method": "rhf"
			}
		],
		"cosmo_sigma_profile": { 
			"-0.025": 0.0,
			"-0.024": 0.0,
			"-0.023": 0.0,
			"-0.022": 0.0,
			"-0.021": 0.0,
			"-0.02": 0.0,
			"-0.019": 0.0,
			"-0.018": 0.0,
			"-0.017": 0.0,
			"-0.016": 0.0,
			"-0.015": 0.0,
			"-0.014": 0.0,
			"-0.013": 0.0,
			"-0.012": 0.0,
			"-0.011": 0.0,
			"-0.01": 0.0,
			"-0.009": 0.0,
			"-0.008": 0.17164686313,
			"-0.007": 3.03249092821,
			"-0.006": 5.89626846838,
			"-0.005": 9.82084593409,
			"-0.004": 14.3219709207,
			"-0.003": 15.5635591902,
			"-0.002": 18.2651833605,
			"-0.001": 15.6860608904,
			"0.0": 15.4340465815,
			"0.001": 11.3039572228,
			"0.002": 6.89902394303,
			"0.003": 7.98594806646,
			"0.004": 4.72818739622,
			"0.005": 3.05086626534,
			"0.006": 3.18785816051,
			"0.007": 2.37716022102,
			"0.008": 1.99384196502,
			"0.009": 2.7374103577,
			"0.01": 1.71779760497,
			"0.011": 2.29551041228,
			"0.012": 4.230946233,
			"0.013": 0.837397861418,
			"0.014": 0.0,
			"0.015": 0.0,
			"0.016": 0.0,
			"0.017": 0.0,
			"0.018": 0.0,
			"0.019": 0.0,
			"0.02": 0.0,
			"0.021": 0.0,
			"0.022": 0.0,
			"0.023": 0.0,
			"0.024": 0.0,
			"0.025": 0.0
		}
	}
}
