{
	 "smiles": "COC1=C(C=C(Cl)C(I)=C1)C(O)=O", 
	 "Tm": 415.15, 
	 "num_atms": 19, 
	 "gaussian": { 
		 "optdone": 1, 
		 "sigma_profile": "yes", 
		 "theory": "DFT", 
		 "functional": "B3LYP", 
		 "basiset": "6-31G**", 
		 "properties": { 
			 "R2extent": 3389.818, 
			 "electric_dipole_moment_norm": 6.43110362069, 
			 "electric_quadrupole_moment_norm": 12.9054055039, 
			 "total_energy": -1005.71203262, 
			 "HOMO_LUMO_gap": 0.1836, 
			 "cosmo_polarized_energy": -14.29, 
			 "cosmo_cavitation_energy": 28.38, 
			 "cosmo_dispersion_energy": -22.38, 
			 "cosmo_repulsion_energy": 1.74, 
			 "cosmo_total_nonelectrostatic_energy": 7.74, 
			 "SMD_solvation_energy": 5.72 
		},
		"coords": [
			{
				"x": 0.5675669458,
				"y": -2.6538693493,
				"z": -0.256177664,
				"element": "C" 
			},
			{
				"x": 0.0678516367,
				"y": -1.4565286175,
				"z": -0.8530018387,
				"element": "O" 
			},
			{
				"x": 0.234608404,
				"y": -0.2543404474,
				"z": -0.2159984951,
				"element": "C" 
			},
			{
				"x": -0.2810734782,
				"y": 0.8944735282,
				"z": -0.8552287217,
				"element": "C" 
			},
			{
				"x": -0.121020929,
				"y": 2.1275794623,
				"z": -0.2219959107,
				"element": "C" 
			},
			{
				"x": 0.525082091,
				"y": 2.2510812083,
				"z": 1.0063066583,
				"element": "C" 
			},
			{
				"x": 0.6707663793,
				"y": 3.8421741444,
				"z": 1.7109270979,
				"element": "Cl" 
			},
			{
				"x": 1.0317019744,
				"y": 1.1042115599,
				"z": 1.6291649373,
				"element": "C" 
			},
			{
				"x": 2.0272721026,
				"y": 1.1694338335,
				"z": 3.4874541648,
				"element": "I" 
			},
			{
				"x": 0.8840918412,
				"y": -0.1437748049,
				"z": 1.0149199675,
				"element": "C" 
			},
			{
				"x": -1.0039378737,
				"y": 0.9264529666,
				"z": -2.1831501177,
				"element": "C" 
			},
			{
				"x": -1.1810333088,
				"y": -0.238526666,
				"z": -2.8295164387,
				"element": "O" 
			},
			{
				"x": -1.411714929,
				"y": 1.9655482139,
				"z": -2.6528088798,
				"element": "O" 
			},
			{
				"x": 0.0902793115,
				"y": -2.8380380909,
				"z": 0.7122097193,
				"element": "H" 
			},
			{
				"x": 0.3126867324,
				"y": -3.4571548297,
				"z": -0.9471775679,
				"element": "H" 
			},
			{
				"x": 1.6549004884,
				"y": -2.6067356689,
				"z": -0.1337990806,
				"element": "H" 
			},
			{
				"x": -0.5214235981,
				"y": 3.0012359505,
				"z": -0.7233720271,
				"element": "H" 
			},
			{
				"x": 1.2806153017,
				"y": -1.0201897622,
				"z": 1.508238987,
				"element": "H" 
			},
			{
				"x": -0.7931190922,
				"y": -0.9680326308,
				"z": -2.3117947899,
				"element": "H" 
			}
		],
		 "valence_orbital": [ 
			{
				"type": "occ",
				"energy": -0.30139,
				"method": "rhf"
			},
			{
				"type": "occ",
				"energy": -0.28095,
				"method": "rhf"
			},
			{
				"type": "occ",
				"energy": -0.27422,
				"method": "rhf"
			},
			{
				"type": "occ",
				"energy": -0.26749,
				"method": "rhf"
			},
			{
				"type": "occ",
				"energy": -0.25023,
				"method": "rhf"
			},
			{
				"type": "unocc",
				"energy": -0.06663,
				"method": "rhf"
			},
			{
				"type": "unocc",
				"energy": -0.06012,
				"method": "rhf"
			},
			{
				"type": "unocc",
				"energy": -0.02924,
				"method": "rhf"
			},
			{
				"type": "unocc",
				"energy": 0.02206,
				"method": "rhf"
			},
			{
				"type": "unocc",
				"energy": 0.03513,
				"method": "rhf"
			}
		],
		"cosmo_sigma_profile": { 
			"-0.025": 0.0,
			"-0.024": 0.0,
			"-0.023": 0.0,
			"-0.022": 0.0,
			"-0.021": 0.0,
			"-0.02": 0.0,
			"-0.019": 0.0,
			"-0.018": 0.0,
			"-0.017": 0.0,
			"-0.016": 0.0,
			"-0.015": 0.0,
			"-0.014": 0.0,
			"-0.013": 0.0,
			"-0.012": 0.0,
			"-0.011": 0.246120073063,
			"-0.01": 0.561814929651,
			"-0.009": 2.27617170306,
			"-0.008": 5.68043522137,
			"-0.007": 11.7805187728,
			"-0.006": 14.3509976496,
			"-0.005": 14.8235968369,
			"-0.004": 14.5633147275,
			"-0.003": 11.6486742545,
			"-0.002": 13.4379333511,
			"-0.001": 19.6593514784,
			"0.0": 28.4504985355,
			"0.001": 16.7753660271,
			"0.002": 13.7480641852,
			"0.003": 19.6534011399,
			"0.004": 16.1559654024,
			"0.005": 4.93915933613,
			"0.006": 1.68079844974,
			"0.007": 2.61704679391,
			"0.008": 3.17357512586,
			"0.009": 2.09335089707,
			"0.01": 4.67159156439,
			"0.011": 5.57829346285,
			"0.012": 4.51774667635,
			"0.013": 1.93467780776,
			"0.014": 0.127836247846,
			"0.015": 0.0,
			"0.016": 0.0,
			"0.017": 0.0,
			"0.018": 0.0,
			"0.019": 0.0,
			"0.02": 0.0,
			"0.021": 0.0,
			"0.022": 0.0,
			"0.023": 0.0,
			"0.024": 0.0,
			"0.025": 0.0
		}
	}
}
