{
	 "smiles": "CCOC(=O)C1=CN2N=C(Cl)C=CC2=N1", 
	 "Tm": 429.15, 
	 "num_atms": 23, 
	 "gaussian": { 
		 "optdone": 1, 
		 "sigma_profile": "yes", 
		 "theory": "DFT", 
		 "functional": "B3LYP", 
		 "basiset": "6-31G**", 
		 "properties": { 
			 "R2extent": 5611.2813, 
			 "electric_dipole_moment_norm": 1.73033195659, 
			 "electric_quadrupole_moment_norm": 21.2850764694, 
			 "total_energy": -1122.64968204, 
			 "HOMO_LUMO_gap": 0.16552, 
			 "cosmo_polarized_energy": -14.18, 
			 "cosmo_cavitation_energy": 30.49, 
			 "cosmo_dispersion_energy": -22.59, 
			 "cosmo_repulsion_energy": 1.78, 
			 "cosmo_total_nonelectrostatic_energy": 9.68, 
			 "SMD_solvation_energy": 3.76 
		},
		"coords": [
			{
				"x": -3.1639595481,
				"y": 3.0116954208,
				"z": 1.3321565284,
				"element": "C" 
			},
			{
				"x": -2.5671453705,
				"y": 2.7828861806,
				"z": -0.0484791038,
				"element": "C" 
			},
			{
				"x": -1.3430097561,
				"y": 2.0138609435,
				"z": 0.026981106,
				"element": "O" 
			},
			{
				"x": -1.4826942216,
				"y": 0.6646624634,
				"z": 0.0520318412,
				"element": "C" 
			},
			{
				"x": -2.542759792,
				"y": 0.0812196133,
				"z": 0.010144081,
				"element": "O" 
			},
			{
				"x": -0.1529938443,
				"y": 0.0130529572,
				"z": 0.1324184327,
				"element": "C" 
			},
			{
				"x": 1.08157501,
				"y": 0.652837502,
				"z": 0.177934361,
				"element": "C" 
			},
			{
				"x": 1.9936457264,
				"y": -0.3566780247,
				"z": 0.2466732324,
				"element": "N" 
			},
			{
				"x": 3.3374412768,
				"y": -0.2227113854,
				"z": 0.3093640898,
				"element": "N" 
			},
			{
				"x": 3.9825862624,
				"y": -1.3549513321,
				"z": 0.3679408495,
				"element": "C" 
			},
			{
				"x": 5.723574869,
				"y": -1.228972267,
				"z": 0.4502175099,
				"element": "Cl" 
			},
			{
				"x": 3.3978907295,
				"y": -2.6578133555,
				"z": 0.3702876308,
				"element": "C" 
			},
			{
				"x": 2.0324861764,
				"y": -2.7577880291,
				"z": 0.3058385636,
				"element": "C" 
			},
			{
				"x": 1.2723040266,
				"y": -1.5695390069,
				"z": 0.2403521752,
				"element": "C" 
			},
			{
				"x": -0.0300460998,
				"y": -1.346303675,
				"z": 0.1711523072,
				"element": "N" 
			},
			{
				"x": -3.4728795249,
				"y": 2.0633913158,
				"z": 1.7784055041,
				"element": "H" 
			},
			{
				"x": -2.4410972102,
				"y": 3.4972954617,
				"z": 1.9944018104,
				"element": "H" 
			},
			{
				"x": -4.0451933405,
				"y": 3.6570187063,
				"z": 1.2528451196,
				"element": "H" 
			},
			{
				"x": -3.2707999423,
				"y": 2.2590824912,
				"z": -0.6997992233,
				"element": "H" 
			},
			{
				"x": -2.2681841716,
				"y": 3.7232831466,
				"z": -0.5177224859,
				"element": "H" 
			},
			{
				"x": 1.3693233898,
				"y": 1.6904880323,
				"z": 0.1672508082,
				"element": "H" 
			},
			{
				"x": 4.0382772046,
				"y": -3.5287587582,
				"z": 0.4222465562,
				"element": "H" 
			},
			{
				"x": 1.5170581503,
				"y": -3.7113584007,
				"z": 0.3031583056,
				"element": "H" 
			}
		],
		 "valence_orbital": [ 
			{
				"type": "occ",
				"energy": -0.29897,
				"method": "rhf"
			},
			{
				"type": "occ",
				"energy": -0.2875,
				"method": "rhf"
			},
			{
				"type": "occ",
				"energy": -0.27396,
				"method": "rhf"
			},
			{
				"type": "occ",
				"energy": -0.26993,
				"method": "rhf"
			},
			{
				"type": "occ",
				"energy": -0.247,
				"method": "rhf"
			},
			{
				"type": "unocc",
				"energy": -0.08148,
				"method": "rhf"
			},
			{
				"type": "unocc",
				"energy": -0.03195,
				"method": "rhf"
			},
			{
				"type": "unocc",
				"energy": -0.01023,
				"method": "rhf"
			},
			{
				"type": "unocc",
				"energy": 0.01061,
				"method": "rhf"
			},
			{
				"type": "unocc",
				"energy": 0.09524,
				"method": "rhf"
			}
		],
		"cosmo_sigma_profile": { 
			"-0.025": 0.0,
			"-0.024": 0.0,
			"-0.023": 0.0,
			"-0.022": 0.0,
			"-0.021": 0.0,
			"-0.02": 0.0,
			"-0.019": 0.0,
			"-0.018": 0.0,
			"-0.017": 0.0,
			"-0.016": 0.0,
			"-0.015": 0.0,
			"-0.014": 0.0,
			"-0.013": 0.0,
			"-0.012": 0.0,
			"-0.011": 0.253945583181,
			"-0.01": 2.73523169532,
			"-0.009": 6.09420510698,
			"-0.008": 4.65054555506,
			"-0.007": 4.24958564418,
			"-0.006": 7.34034145655,
			"-0.005": 11.3432259383,
			"-0.004": 18.4442140369,
			"-0.003": 26.9163819901,
			"-0.002": 27.0414566745,
			"-0.001": 26.0377482086,
			"0.0": 23.1270755122,
			"0.001": 14.5313850162,
			"0.002": 12.7561201605,
			"0.003": 14.5378823486,
			"0.004": 7.75434615963,
			"0.005": 4.98491913475,
			"0.006": 5.19386851432,
			"0.007": 3.46012565963,
			"0.008": 3.35085645085,
			"0.009": 3.25261605203,
			"0.01": 3.41446007321,
			"0.011": 4.34380536342,
			"0.012": 4.1408791331,
			"0.013": 2.50301606005,
			"0.014": 2.17376137045,
			"0.015": 1.46730751309,
			"0.016": 1.1486489915,
			"0.017": 0.0111054859043,
			"0.018": 0.0,
			"0.019": 0.0,
			"0.02": 0.0,
			"0.021": 0.0,
			"0.022": 0.0,
			"0.023": 0.0,
			"0.024": 0.0,
			"0.025": 0.0
		}
	}
}
