{
	 "smiles": "NC1=C(Br)C=C(Br)C=C1Br", 
	 "Tm": 394.15, 
	 "num_atms": 14, 
	 "gaussian": { 
		 "optdone": 1, 
		 "sigma_profile": "yes", 
		 "theory": "DFT", 
		 "functional": "B3LYP", 
		 "basiset": "6-31G**", 
		 "properties": { 
			 "R2extent": 5896.4061, 
			 "electric_dipole_moment_norm": 2.02007411993, 
			 "electric_quadrupole_moment_norm": 9.52598930873, 
			 "total_energy": -8000.0160514, 
			 "HOMO_LUMO_gap": 0.18123, 
			 "cosmo_polarized_energy": -5.84, 
			 "cosmo_cavitation_energy": 24.89, 
			 "cosmo_dispersion_energy": -19.96, 
			 "cosmo_repulsion_energy": 1.61, 
			 "cosmo_total_nonelectrostatic_energy": 6.54, 
			 "SMD_solvation_energy": 0.82 
		},
		"coords": [
			{
				"x": -1.4837639958,
				"y": 3.0460359854,
				"z": 1.6273309972,
				"element": "N" 
			},
			{
				"x": -0.7677671991,
				"y": 2.2043032112,
				"z": 0.8149691866,
				"element": "C" 
			},
			{
				"x": -0.3552025877,
				"y": 0.9198682836,
				"z": 1.2344229766,
				"element": "C" 
			},
			{
				"x": -0.7450692728,
				"y": 0.3648371985,
				"z": 3.024877014,
				"element": "Br" 
			},
			{
				"x": 0.3260312497,
				"y": 0.0370474877,
				"z": 0.4055019369,
				"element": "C" 
			},
			{
				"x": 0.6264124801,
				"y": 0.4247572973,
				"z": -0.8974573986,
				"element": "C" 
			},
			{
				"x": 1.5600764379,
				"y": -0.7739541415,
				"z": -2.0507130753,
				"element": "Br" 
			},
			{
				"x": 0.2527781875,
				"y": 1.6822152461,
				"z": -1.3637743305,
				"element": "C" 
			},
			{
				"x": -0.4275249518,
				"y": 2.5449627464,
				"z": -0.513226487,
				"element": "C" 
			},
			{
				"x": -0.9189466144,
				"y": 4.2722006986,
				"z": -1.1771933372,
				"element": "Br" 
			},
			{
				"x": -1.5154696936,
				"y": 4.0187345337,
				"z": 1.3612829069,
				"element": "H" 
			},
			{
				"x": -1.4633457794,
				"y": 2.8510971302,
				"z": 2.6170348462,
				"element": "H" 
			},
			{
				"x": 0.6187091951,
				"y": -0.9369991375,
				"z": 0.7755027904,
				"element": "H" 
			},
			{
				"x": 0.4882825444,
				"y": 1.9913934602,
				"z": -2.3738580262,
				"element": "H" 
			}
		],
		 "valence_orbital": [ 
			{
				"type": "occ",
				"energy": -0.30383,
				"method": "rhf"
			},
			{
				"type": "occ",
				"energy": -0.29212,
				"method": "rhf"
			},
			{
				"type": "occ",
				"energy": -0.28708,
				"method": "rhf"
			},
			{
				"type": "occ",
				"energy": -0.25537,
				"method": "rhf"
			},
			{
				"type": "occ",
				"energy": -0.21817,
				"method": "rhf"
			},
			{
				"type": "unocc",
				"energy": -0.03694,
				"method": "rhf"
			},
			{
				"type": "unocc",
				"energy": -0.03151,
				"method": "rhf"
			},
			{
				"type": "unocc",
				"energy": -0.01295,
				"method": "rhf"
			},
			{
				"type": "unocc",
				"energy": 0.0172,
				"method": "rhf"
			},
			{
				"type": "unocc",
				"energy": 0.02209,
				"method": "rhf"
			}
		],
		"cosmo_sigma_profile": { 
			"-0.025": 0.0,
			"-0.024": 0.0,
			"-0.023": 0.0,
			"-0.022": 0.0,
			"-0.021": 0.0,
			"-0.02": 0.0,
			"-0.019": 0.0,
			"-0.018": 0.0,
			"-0.017": 0.0,
			"-0.016": 0.0,
			"-0.015": 0.0,
			"-0.014": 0.0,
			"-0.013": 0.386989561877,
			"-0.012": 1.13855684842,
			"-0.011": 2.17005977673,
			"-0.01": 2.3285775546,
			"-0.009": 1.93463491039,
			"-0.008": 3.88056683677,
			"-0.007": 4.23247222618,
			"-0.006": 5.06705224386,
			"-0.005": 8.2379468271,
			"-0.004": 8.83210339899,
			"-0.003": 10.9377778118,
			"-0.002": 10.760514687,
			"-0.001": 14.1197534745,
			"0.0": 18.73864237,
			"0.001": 28.0850005229,
			"0.002": 33.2333976511,
			"0.003": 22.5102994982,
			"0.004": 23.7572627115,
			"0.005": 6.19423821327,
			"0.006": 0.52376265764,
			"0.007": 0.57377801988,
			"0.008": 1.00935627396,
			"0.009": 0.495525654686,
			"0.01": 0.431143346326,
			"0.011": 0.239048280144,
			"0.012": 0.0,
			"0.013": 0.0,
			"0.014": 0.0,
			"0.015": 0.0,
			"0.016": 0.0,
			"0.017": 0.0,
			"0.018": 0.0,
			"0.019": 0.0,
			"0.02": 0.0,
			"0.021": 0.0,
			"0.022": 0.0,
			"0.023": 0.0,
			"0.024": 0.0,
			"0.025": 0.0
		}
	}
}
