{
	 "smiles": "CC1=CCC2C(C)(C)CCCC2(C)C11CCC(C)(CC(O)=O)O1", 
	 "Tm": 373.15, 
	 "num_atms": 55, 
	 "gaussian": { 
		 "optdone": 1, 
		 "sigma_profile": "yes", 
		 "theory": "DFT", 
		 "functional": "B3LYP", 
		 "basiset": "6-31G**", 
		 "properties": { 
			 "R2extent": 7054.0512, 
			 "electric_dipole_moment_norm": 1.95808159942, 
			 "electric_quadrupole_moment_norm": 12.4072373674, 
			 "total_energy": -1007.0977772, 
			 "HOMO_LUMO_gap": 0.23484, 
			 "cosmo_polarized_energy": -11.91, 
			 "cosmo_cavitation_energy": 46.64, 
			 "cosmo_dispersion_energy": -31.47, 
			 "cosmo_repulsion_energy": 2.3, 
			 "cosmo_total_nonelectrostatic_energy": 17.47, 
			 "SMD_solvation_energy": 8.24 
		},
		"coords": [
			{
				"x": -1.4396190878,
				"y": 4.0526023555,
				"z": 0.2637852661,
				"element": "C" 
			},
			{
				"x": -1.3874744161,
				"y": 2.5523153404,
				"z": 0.4394308888,
				"element": "C" 
			},
			{
				"x": -2.3124534967,
				"y": 1.9502270684,
				"z": 1.1977099782,
				"element": "C" 
			},
			{
				"x": -2.451572022,
				"y": 0.4720073228,
				"z": 1.3984410318,
				"element": "C" 
			},
			{
				"x": -1.273764158,
				"y": -0.3493297256,
				"z": 0.8467214435,
				"element": "C" 
			},
			{
				"x": -1.5472615299,
				"y": -1.9054927929,
				"z": 0.9053313973,
				"element": "C" 
			},
			{
				"x": -1.1930006244,
				"y": -2.3794816784,
				"z": 2.3342537372,
				"element": "C" 
			},
			{
				"x": -3.009508183,
				"y": -2.3138522327,
				"z": 0.6255600853,
				"element": "C" 
			},
			{
				"x": -0.6371572286,
				"y": -2.6602493088,
				"z": -0.1012707824,
				"element": "C" 
			},
			{
				"x": 0.6772930416,
				"y": -1.9262323578,
				"z": -0.3494045497,
				"element": "C" 
			},
			{
				"x": 0.4097269386,
				"y": -0.610051326,
				"z": -1.0923116842,
				"element": "C" 
			},
			{
				"x": -0.7675020467,
				"y": 0.2489317337,
				"z": -0.5122247541,
				"element": "C" 
			},
			{
				"x": -1.8961910844,
				"y": 0.3045356925,
				"z": -1.5685447552,
				"element": "C" 
			},
			{
				"x": -0.2597545727,
				"y": 1.7199194314,
				"z": -0.1979183504,
				"element": "C" 
			},
			{
				"x": 0.4311629329,
				"y": 2.4054267669,
				"z": -1.4177329408,
				"element": "C" 
			},
			{
				"x": 1.9416164192,
				"y": 2.4451515937,
				"z": -1.1042878031,
				"element": "C" 
			},
			{
				"x": 2.0338602168,
				"y": 2.2451779665,
				"z": 0.4267102061,
				"element": "C" 
			},
			{
				"x": 2.20239987,
				"y": 3.5793625813,
				"z": 1.1687024687,
				"element": "C" 
			},
			{
				"x": 3.1658433739,
				"y": 1.2551786154,
				"z": 0.8128759561,
				"element": "C" 
			},
			{
				"x": 3.1076393607,
				"y": 0.8385430417,
				"z": 2.2677542257,
				"element": "C" 
			},
			{
				"x": 2.7244716159,
				"y": -0.4542514885,
				"z": 2.415054912,
				"element": "O" 
			},
			{
				"x": 3.3718784595,
				"y": 1.5419284056,
				"z": 3.2193391089,
				"element": "O" 
			},
			{
				"x": 0.7979532502,
				"y": 1.6181403163,
				"z": 0.801816382,
				"element": "O" 
			},
			{
				"x": -0.4918701174,
				"y": 4.5424751893,
				"z": 0.5087461123,
				"element": "H" 
			},
			{
				"x": -2.2061781783,
				"y": 4.4817671579,
				"z": 0.9149119678,
				"element": "H" 
			},
			{
				"x": -1.6902538582,
				"y": 4.3408360049,
				"z": -0.7652928445,
				"element": "H" 
			},
			{
				"x": -3.0725100219,
				"y": 2.5659808699,
				"z": 1.6794041263,
				"element": "H" 
			},
			{
				"x": -3.3954552073,
				"y": 0.1673196757,
				"z": 0.9253681731,
				"element": "H" 
			},
			{
				"x": -2.5900715361,
				"y": 0.2594366775,
				"z": 2.4673397348,
				"element": "H" 
			},
			{
				"x": -0.4350711605,
				"y": -0.1797073919,
				"z": 1.5292482547,
				"element": "H" 
			},
			{
				"x": -1.4340849089,
				"y": -3.4410534951,
				"z": 2.4631877604,
				"element": "H" 
			},
			{
				"x": -0.1251737191,
				"y": -2.2495411851,
				"z": 2.5417612305,
				"element": "H" 
			},
			{
				"x": -1.748903485,
				"y": -1.8198043593,
				"z": 3.0945398418,
				"element": "H" 
			},
			{
				"x": -3.3745215222,
				"y": -1.9280622548,
				"z": -0.3313574405,
				"element": "H" 
			},
			{
				"x": -3.6954380843,
				"y": -1.9770562498,
				"z": 1.4090255808,
				"element": "H" 
			},
			{
				"x": -3.0799738174,
				"y": -3.407225157,
				"z": 0.5848924084,
				"element": "H" 
			},
			{
				"x": -0.4607712011,
				"y": -3.6780449893,
				"z": 0.2694980137,
				"element": "H" 
			},
			{
				"x": -1.1584446422,
				"y": -2.7751162793,
				"z": -1.0620095181,
				"element": "H" 
			},
			{
				"x": 1.1914092704,
				"y": -1.7296390751,
				"z": 0.5984804145,
				"element": "H" 
			},
			{
				"x": 1.3574431556,
				"y": -2.5455190255,
				"z": -0.9472061024,
				"element": "H" 
			},
			{
				"x": 1.3340797943,
				"y": -0.0333690995,
				"z": -1.1124500815,
				"element": "H" 
			},
			{
				"x": 0.1840209901,
				"y": -0.8520769456,
				"z": -2.1386213303,
				"element": "H" 
			},
			{
				"x": -2.7611571032,
				"y": 0.8810301217,
				"z": -1.2336361168,
				"element": "H" 
			},
			{
				"x": -2.2349261781,
				"y": -0.7045922794,
				"z": -1.8189760309,
				"element": "H" 
			},
			{
				"x": -1.5426965075,
				"y": 0.755661964,
				"z": -2.5019681081,
				"element": "H" 
			},
			{
				"x": 0.04897128,
				"y": 3.4154187531,
				"z": -1.5659692251,
				"element": "H" 
			},
			{
				"x": 0.2389886659,
				"y": 1.8626300736,
				"z": -2.3449083641,
				"element": "H" 
			},
			{
				"x": 2.4010364162,
				"y": 3.388752447,
				"z": -1.4128123025,
				"element": "H" 
			},
			{
				"x": 2.4702730874,
				"y": 1.645728619,
				"z": -1.6318163898,
				"element": "H" 
			},
			{
				"x": 2.1022744826,
				"y": 3.4384006632,
				"z": 2.2456922419,
				"element": "H" 
			},
			{
				"x": 3.1916163674,
				"y": 4.0061744311,
				"z": 0.9713039084,
				"element": "H" 
			},
			{
				"x": 1.4542855959,
				"y": 4.3016053009,
				"z": 0.8343275161,
				"element": "H" 
			},
			{
				"x": 3.1044203629,
				"y": 0.3657246817,
				"z": 0.184034125,
				"element": "H" 
			},
			{
				"x": 4.1342698136,
				"y": 1.7378589291,
				"z": 0.6464778012,
				"element": "H" 
			},
			{
				"x": 2.6981249376,
				"y": -0.6161010945,
				"z": 3.373593175,
				"element": "H" 
			}
		],
		 "valence_orbital": [ 
			{
				"type": "occ",
				"energy": -0.28153,
				"method": "rhf"
			},
			{
				"type": "occ",
				"energy": -0.27249,
				"method": "rhf"
			},
			{
				"type": "occ",
				"energy": -0.26775,
				"method": "rhf"
			},
			{
				"type": "occ",
				"energy": -0.24305,
				"method": "rhf"
			},
			{
				"type": "occ",
				"energy": -0.22613,
				"method": "rhf"
			},
			{
				"type": "unocc",
				"energy": 0.00871,
				"method": "rhf"
			},
			{
				"type": "unocc",
				"energy": 0.02475,
				"method": "rhf"
			},
			{
				"type": "unocc",
				"energy": 0.0677,
				"method": "rhf"
			},
			{
				"type": "unocc",
				"energy": 0.07849,
				"method": "rhf"
			},
			{
				"type": "unocc",
				"energy": 0.08534,
				"method": "rhf"
			}
		],
		"cosmo_sigma_profile": { 
			"-0.025": 0.0,
			"-0.024": 0.0,
			"-0.023": 0.0,
			"-0.022": 0.0,
			"-0.021": 0.0,
			"-0.02": 0.0,
			"-0.019": 0.0015177582971,
			"-0.018": 0.534743701281,
			"-0.017": 0.816478587598,
			"-0.016": 0.813102843613,
			"-0.015": 1.09374384291,
			"-0.014": 0.661763154623,
			"-0.013": 0.180234302849,
			"-0.012": 0.606451371363,
			"-0.011": 0.581241655501,
			"-0.01": 0.940749663204,
			"-0.009": 0.772646293214,
			"-0.008": 0.837287581258,
			"-0.007": 0.699207838151,
			"-0.006": 3.75090766731,
			"-0.005": 7.32103542555,
			"-0.004": 17.6368016286,
			"-0.003": 34.3076077986,
			"-0.002": 44.74798302,
			"-0.001": 56.6762781277,
			"0.0": 52.4914038348,
			"0.001": 46.5763379622,
			"0.002": 30.1379144687,
			"0.003": 11.3275700875,
			"0.004": 7.25401062122,
			"0.005": 6.74780140169,
			"0.006": 6.01891419316,
			"0.007": 4.6508893555,
			"0.008": 5.07123297126,
			"0.009": 3.49933291809,
			"0.01": 2.43187987353,
			"0.011": 3.8697734038,
			"0.012": 5.15211179607,
			"0.013": 1.03475598121,
			"0.014": 0.061496139709,
			"0.015": 0.0,
			"0.016": 0.0,
			"0.017": 0.0,
			"0.018": 0.0,
			"0.019": 0.0,
			"0.02": 0.0,
			"0.021": 0.0,
			"0.022": 0.0,
			"0.023": 0.0,
			"0.024": 0.0,
			"0.025": 0.0
		}
	}
}
