{
	 "smiles": "C1CCC2OC2C1", 
	 "Tm": 233.15, 
	 "num_atms": 17, 
	 "gaussian": { 
		 "optdone": 1, 
		 "sigma_profile": "yes", 
		 "theory": "DFT", 
		 "functional": "B3LYP", 
		 "basiset": "6-31G**", 
		 "properties": { 
			 "R2extent": 898.6359, 
			 "electric_dipole_moment_norm": 1.8820095749, 
			 "electric_quadrupole_moment_norm": 4.6361304835, 
			 "total_energy": -309.852016525, 
			 "HOMO_LUMO_gap": 0.34261, 
			 "cosmo_polarized_energy": -4.53, 
			 "cosmo_cavitation_energy": 18.05, 
			 "cosmo_dispersion_energy": -14.23, 
			 "cosmo_repulsion_energy": 1.21, 
			 "cosmo_total_nonelectrostatic_energy": 5.03, 
			 "SMD_solvation_energy": 2.16 
		},
		"coords": [
			{
				"x": 0.1382785128,
				"y": -0.176512741,
				"z": 0.8352269567,
				"element": "C" 
			},
			{
				"x": 1.4503225038,
				"y": -0.0149870986,
				"z": 0.0091393422,
				"element": "C" 
			},
			{
				"x": 1.7154287052,
				"y": -1.1173858934,
				"z": -1.0346548527,
				"element": "C" 
			},
			{
				"x": 0.4570020584,
				"y": -1.5223187105,
				"z": -1.7764104054,
				"element": "C" 
			},
			{
				"x": -0.5950065475,
				"y": -0.5427037649,
				"z": -1.8718075683,
				"element": "O" 
			},
			{
				"x": -0.7776072555,
				"y": -1.6742771083,
				"z": -0.9990669665,
				"element": "C" 
			},
			{
				"x": -0.7110399738,
				"y": -1.4161161003,
				"z": 0.4931446163,
				"element": "C" 
			},
			{
				"x": -0.4823790923,
				"y": 0.7085746279,
				"z": 0.6698425364,
				"element": "H" 
			},
			{
				"x": 0.3646876222,
				"y": -0.1969952647,
				"z": 1.9066895157,
				"element": "H" 
			},
			{
				"x": 1.407094105,
				"y": 0.9411665145,
				"z": -0.5198661581,
				"element": "H" 
			},
			{
				"x": 2.3153797906,
				"y": 0.0431595947,
				"z": 0.6784700505,
				"element": "H" 
			},
			{
				"x": 2.1206067648,
				"y": -2.020909064,
				"z": -0.5562478423,
				"element": "H" 
			},
			{
				"x": 2.4833392513,
				"y": -0.7758756787,
				"z": -1.7391332571,
				"element": "H" 
			},
			{
				"x": 0.5919684478,
				"y": -2.1205049392,
				"z": -2.6792766154,
				"element": "H" 
			},
			{
				"x": -1.5350052621,
				"y": -2.3822806364,
				"z": -1.3400731574,
				"element": "H" 
			},
			{
				"x": -0.2955250025,
				"y": -2.3183548068,
				"z": 0.9650593908,
				"element": "H" 
			},
			{
				"x": -1.7191446283,
				"y": -1.2932789302,
				"z": 0.9069644145,
				"element": "H" 
			}
		],
		 "valence_orbital": [ 
			{
				"type": "occ",
				"energy": -0.33882,
				"method": "rhf"
			},
			{
				"type": "occ",
				"energy": -0.31496,
				"method": "rhf"
			},
			{
				"type": "occ",
				"energy": -0.30789,
				"method": "rhf"
			},
			{
				"type": "occ",
				"energy": -0.27514,
				"method": "rhf"
			},
			{
				"type": "occ",
				"energy": -0.25923,
				"method": "rhf"
			},
			{
				"type": "unocc",
				"energy": 0.08338,
				"method": "rhf"
			},
			{
				"type": "unocc",
				"energy": 0.1152,
				"method": "rhf"
			},
			{
				"type": "unocc",
				"energy": 0.11828,
				"method": "rhf"
			},
			{
				"type": "unocc",
				"energy": 0.11965,
				"method": "rhf"
			},
			{
				"type": "unocc",
				"energy": 0.13153,
				"method": "rhf"
			}
		],
		"cosmo_sigma_profile": { 
			"-0.025": 0.0,
			"-0.024": 0.0,
			"-0.023": 0.0,
			"-0.022": 0.0,
			"-0.021": 0.0,
			"-0.02": 0.0,
			"-0.019": 0.0,
			"-0.018": 0.0,
			"-0.017": 0.0,
			"-0.016": 0.0,
			"-0.015": 0.0,
			"-0.014": 0.0,
			"-0.013": 0.0,
			"-0.012": 0.0,
			"-0.011": 0.0,
			"-0.01": 0.0,
			"-0.009": 0.0,
			"-0.008": 0.0,
			"-0.007": 0.0,
			"-0.006": 0.661416471603,
			"-0.005": 4.61680149928,
			"-0.004": 7.04528642168,
			"-0.003": 18.5543038912,
			"-0.002": 27.9151171979,
			"-0.001": 25.9592837165,
			"0.0": 20.7430541895,
			"0.001": 10.7087164209,
			"0.002": 2.77065826955,
			"0.003": 1.25642877017,
			"0.004": 1.88787115008,
			"0.005": 2.2125642545,
			"0.006": 1.30363279706,
			"0.007": 1.61597345416,
			"0.008": 1.86540230411,
			"0.009": 1.54887256606,
			"0.01": 1.69099048414,
			"0.011": 1.8661099482,
			"0.012": 3.04261411722,
			"0.013": 2.06459560938,
			"0.014": 0.412471392891,
			"0.015": 0.0,
			"0.016": 0.0,
			"0.017": 0.0,
			"0.018": 0.0,
			"0.019": 0.0,
			"0.02": 0.0,
			"0.021": 0.0,
			"0.022": 0.0,
			"0.023": 0.0,
			"0.024": 0.0,
			"0.025": 0.0
		}
	}
}
