{
	 "smiles": "CNS(=O)(=O)CC1=CC=C(N)C=C1", 
	 "Tm": 414.15, 
	 "num_atms": 25, 
	 "gaussian": { 
		 "optdone": 1, 
		 "sigma_profile": "yes", 
		 "theory": "DFT", 
		 "functional": "B3LYP", 
		 "basiset": "6-31G**", 
		 "properties": { 
			 "R2extent": 3572.6738, 
			 "electric_dipole_moment_norm": 6.74696341327, 
			 "electric_quadrupole_moment_norm": 22.7509060059, 
			 "total_energy": -970.16070697, 
			 "HOMO_LUMO_gap": 0.20083, 
			 "cosmo_polarized_energy": -21.29, 
			 "cosmo_cavitation_energy": 29.83, 
			 "cosmo_dispersion_energy": -21.6, 
			 "cosmo_repulsion_energy": 1.67, 
			 "cosmo_total_nonelectrostatic_energy": 9.89, 
			 "SMD_solvation_energy": 3.82 
		},
		"coords": [
			{
				"x": -0.6798766451,
				"y": -1.9094939955,
				"z": 3.5158376173,
				"element": "C" 
			},
			{
				"x": -0.5006401134,
				"y": -2.2988504196,
				"z": 2.1173938607,
				"element": "N" 
			},
			{
				"x": 0.8908538512,
				"y": -1.8349656475,
				"z": 1.3035843092,
				"element": "S" 
			},
			{
				"x": 0.8077557067,
				"y": -2.4613794651,
				"z": -0.0180241301,
				"element": "O" 
			},
			{
				"x": 2.0176133055,
				"y": -2.0774961354,
				"z": 2.2088361367,
				"element": "O" 
			},
			{
				"x": 0.7922213829,
				"y": -0.0136322056,
				"z": 1.0570776437,
				"element": "C" 
			},
			{
				"x": -0.4581199793,
				"y": 0.4431797891,
				"z": 0.362506539,
				"element": "C" 
			},
			{
				"x": -1.4690231211,
				"y": 1.111459786,
				"z": 1.06719383,
				"element": "C" 
			},
			{
				"x": -2.6367514808,
				"y": 1.5336529665,
				"z": 0.4386917342,
				"element": "C" 
			},
			{
				"x": -2.8336513531,
				"y": 1.2954119482,
				"z": -0.932809501,
				"element": "C" 
			},
			{
				"x": -3.9699208292,
				"y": 1.7644261039,
				"z": -1.5839099424,
				"element": "N" 
			},
			{
				"x": -1.823122041,
				"y": 0.6209922598,
				"z": -1.6439681036,
				"element": "C" 
			},
			{
				"x": -0.6607941805,
				"y": 0.2057105721,
				"z": -1.006572819,
				"element": "C" 
			},
			{
				"x": 0.2485220002,
				"y": -2.1150148135,
				"z": 4.0504998421,
				"element": "H" 
			},
			{
				"x": -0.9492991828,
				"y": -0.8528154656,
				"z": 3.6542340841,
				"element": "H" 
			},
			{
				"x": -1.4698797743,
				"y": -2.5300590715,
				"z": 3.947075134,
				"element": "H" 
			},
			{
				"x": -1.314022789,
				"y": -2.1895795115,
				"z": 1.5197308692,
				"element": "H" 
			},
			{
				"x": 0.8995522602,
				"y": 0.4260417107,
				"z": 2.0519589946,
				"element": "H" 
			},
			{
				"x": 1.702221824,
				"y": 0.2064253787,
				"z": 0.4901649491,
				"element": "H" 
			},
			{
				"x": -1.3375001528,
				"y": 1.3195119456,
				"z": 2.1267933373,
				"element": "H" 
			},
			{
				"x": -3.3987070345,
				"y": 2.0609894951,
				"z": 1.0072310125,
				"element": "H" 
			},
			{
				"x": -4.207520328,
				"y": 1.2971410521,
				"z": -2.4473223865,
				"element": "H" 
			},
			{
				"x": -4.7763939969,
				"y": 1.9333576014,
				"z": -0.99975685,
				"element": "H" 
			},
			{
				"x": -1.9539831171,
				"y": 0.4293451733,
				"z": -2.7060411356,
				"element": "H" 
			},
			{
				"x": 0.0962657882,
				"y": -0.3284590518,
				"z": -1.5720050255,
				"element": "H" 
			}
		],
		 "valence_orbital": [ 
			{
				"type": "occ",
				"energy": -0.29212,
				"method": "rhf"
			},
			{
				"type": "occ",
				"energy": -0.28846,
				"method": "rhf"
			},
			{
				"type": "occ",
				"energy": -0.27154,
				"method": "rhf"
			},
			{
				"type": "occ",
				"energy": -0.25865,
				"method": "rhf"
			},
			{
				"type": "occ",
				"energy": -0.21157,
				"method": "rhf"
			},
			{
				"type": "unocc",
				"energy": -0.01074,
				"method": "rhf"
			},
			{
				"type": "unocc",
				"energy": -0.00551,
				"method": "rhf"
			},
			{
				"type": "unocc",
				"energy": 0.06381,
				"method": "rhf"
			},
			{
				"type": "unocc",
				"energy": 0.06915,
				"method": "rhf"
			},
			{
				"type": "unocc",
				"energy": 0.08108,
				"method": "rhf"
			}
		],
		"cosmo_sigma_profile": { 
			"-0.025": 0.0,
			"-0.024": 0.0,
			"-0.023": 0.0,
			"-0.022": 0.0,
			"-0.021": 0.0,
			"-0.02": 0.0,
			"-0.019": 0.0,
			"-0.018": 0.0,
			"-0.017": 0.0,
			"-0.016": 0.0,
			"-0.015": 0.00574317739067,
			"-0.014": 0.533355926219,
			"-0.013": 1.46609483041,
			"-0.012": 3.1215969926,
			"-0.011": 4.16229480367,
			"-0.01": 4.03870785989,
			"-0.009": 3.22183370827,
			"-0.008": 6.3935413444,
			"-0.007": 11.8828047538,
			"-0.006": 13.2957246925,
			"-0.005": 18.7846903069,
			"-0.004": 17.3029915183,
			"-0.003": 18.5075087356,
			"-0.002": 15.4037792843,
			"-0.001": 9.70468744812,
			"0.0": 8.1109347649,
			"0.001": 7.03560875644,
			"0.002": 7.62528756595,
			"0.003": 8.79086689957,
			"0.004": 8.99824965272,
			"0.005": 12.4439838284,
			"0.006": 11.6342086449,
			"0.007": 4.65335637514,
			"0.008": 5.44858131182,
			"0.009": 5.92067682544,
			"0.01": 5.12448589374,
			"0.011": 9.88385718415,
			"0.012": 9.4018388657,
			"0.013": 2.05515884703,
			"0.014": 0.28380557186,
			"0.015": 0.0,
			"0.016": 0.0,
			"0.017": 0.0,
			"0.018": 0.0,
			"0.019": 0.0,
			"0.02": 0.0,
			"0.021": 0.0,
			"0.022": 0.0,
			"0.023": 0.0,
			"0.024": 0.0,
			"0.025": 0.0
		}
	}
}
