{
	 "smiles": "CCNC(=O)N1CCC2=C1C=C(N)C=C2", 
	 "Tm": 408.15, 
	 "num_atms": 30, 
	 "gaussian": { 
		 "optdone": 1, 
		 "sigma_profile": "yes", 
		 "theory": "DFT", 
		 "functional": "B3LYP", 
		 "basiset": "6-31G**", 
		 "properties": { 
			 "R2extent": 3674.3986, 
			 "electric_dipole_moment_norm": 4.12975475059, 
			 "electric_quadrupole_moment_norm": 14.2474339925, 
			 "total_energy": -667.718235751, 
			 "HOMO_LUMO_gap": 0.18789, 
			 "cosmo_polarized_energy": -14.85, 
			 "cosmo_cavitation_energy": 32.06, 
			 "cosmo_dispersion_energy": -22.99, 
			 "cosmo_repulsion_energy": 1.83, 
			 "cosmo_total_nonelectrostatic_energy": 10.89, 
			 "SMD_solvation_energy": 5.04 
		},
		"coords": [
			{
				"x": 1.4769383982,
				"y": -2.1240797877,
				"z": -3.9085314186,
				"element": "C" 
			},
			{
				"x": 1.0466540911,
				"y": -0.7643420142,
				"z": -3.3652154535,
				"element": "C" 
			},
			{
				"x": 2.0958200565,
				"y": -0.2075293521,
				"z": -2.4949084501,
				"element": "N" 
			},
			{
				"x": 1.9336513461,
				"y": 1.0288559297,
				"z": -1.8661779225,
				"element": "C" 
			},
			{
				"x": 2.7848949863,
				"y": 1.9094146575,
				"z": -1.932017768,
				"element": "O" 
			},
			{
				"x": 0.7489997349,
				"y": 1.2215984773,
				"z": -1.1684835759,
				"element": "N" 
			},
			{
				"x": 0.4334766777,
				"y": 2.593891554,
				"z": -0.7119922039,
				"element": "C" 
			},
			{
				"x": -0.9811555268,
				"y": 2.4614628118,
				"z": -0.1099859262,
				"element": "C" 
			},
			{
				"x": -1.0346284585,
				"y": 0.997185579,
				"z": 0.2651884551,
				"element": "C" 
			},
			{
				"x": -0.0049289971,
				"y": 0.305787403,
				"z": -0.3962970713,
				"element": "C" 
			},
			{
				"x": 0.1923717988,
				"y": -1.0604359167,
				"z": -0.213086249,
				"element": "C" 
			},
			{
				"x": -0.6852054768,
				"y": -1.7607973432,
				"z": 0.6389486782,
				"element": "C" 
			},
			{
				"x": -0.4665130241,
				"y": -3.1186530432,
				"z": 0.8904954428,
				"element": "N" 
			},
			{
				"x": -1.7300304976,
				"y": -1.077748985,
				"z": 1.2838112937,
				"element": "C" 
			},
			{
				"x": -1.8952612559,
				"y": 0.2979139852,
				"z": 1.0985436588,
				"element": "C" 
			},
			{
				"x": 1.6585626429,
				"y": -2.832860838,
				"z": -3.0945535524,
				"element": "H" 
			},
			{
				"x": 2.3983453838,
				"y": -2.0447760378,
				"z": -4.4969753154,
				"element": "H" 
			},
			{
				"x": 0.7019714039,
				"y": -2.5367720756,
				"z": -4.56146547,
				"element": "H" 
			},
			{
				"x": 0.1289581874,
				"y": -0.8723053474,
				"z": -2.7837376827,
				"element": "H" 
			},
			{
				"x": 0.8250585438,
				"y": -0.082163597,
				"z": -4.2001002376,
				"element": "H" 
			},
			{
				"x": 3.0036436952,
				"y": -0.1945637144,
				"z": -2.9490336963,
				"element": "H" 
			},
			{
				"x": 1.1652004633,
				"y": 2.9069180281,
				"z": 0.0422603993,
				"element": "H" 
			},
			{
				"x": 0.499674678,
				"y": 3.2886919637,
				"z": -1.5505699055,
				"element": "H" 
			},
			{
				"x": -1.7479285037,
				"y": 2.709386441,
				"z": -0.8570245667,
				"element": "H" 
			},
			{
				"x": -1.1250245425,
				"y": 3.1356903947,
				"z": 0.7395023775,
				"element": "H" 
			},
			{
				"x": 1.0294417157,
				"y": -1.5688577353,
				"z": -0.6781572517,
				"element": "H" 
			},
			{
				"x": 0.0241224773,
				"y": -3.6160848352,
				"z": 0.1603155315,
				"element": "H" 
			},
			{
				"x": -1.2775645636,
				"y": -3.6286370756,
				"z": 1.2121766981,
				"element": "H" 
			},
			{
				"x": -2.3994132774,
				"y": -1.6231891379,
				"z": 1.9435914378,
				"element": "H" 
			},
			{
				"x": -2.6988321568,
				"y": 0.8159996111,
				"z": 1.6159797443,
				"element": "H" 
			}
		],
		 "valence_orbital": [ 
			{
				"type": "occ",
				"energy": -0.27301,
				"method": "rhf"
			},
			{
				"type": "occ",
				"energy": -0.26718,
				"method": "rhf"
			},
			{
				"type": "occ",
				"energy": -0.24016,
				"method": "rhf"
			},
			{
				"type": "occ",
				"energy": -0.21641,
				"method": "rhf"
			},
			{
				"type": "occ",
				"energy": -0.188,
				"method": "rhf"
			},
			{
				"type": "unocc",
				"energy": -0.00011,
				"method": "rhf"
			},
			{
				"type": "unocc",
				"energy": 0.0176,
				"method": "rhf"
			},
			{
				"type": "unocc",
				"energy": 0.05384,
				"method": "rhf"
			},
			{
				"type": "unocc",
				"energy": 0.0755,
				"method": "rhf"
			},
			{
				"type": "unocc",
				"energy": 0.09153,
				"method": "rhf"
			}
		],
		"cosmo_sigma_profile": { 
			"-0.025": 0.0,
			"-0.024": 0.0,
			"-0.023": 0.0,
			"-0.022": 0.0,
			"-0.021": 0.0,
			"-0.02": 0.0,
			"-0.019": 0.0,
			"-0.018": 0.0,
			"-0.017": 0.0,
			"-0.016": 0.0,
			"-0.015": 0.0,
			"-0.014": 0.0,
			"-0.013": 0.0234609535267,
			"-0.012": 2.16081870851,
			"-0.011": 4.01620179934,
			"-0.01": 3.40270314495,
			"-0.009": 4.21480244167,
			"-0.008": 3.70104032226,
			"-0.007": 4.25640105223,
			"-0.006": 5.00072946709,
			"-0.005": 9.1318690599,
			"-0.004": 21.7930795862,
			"-0.003": 28.6157388076,
			"-0.002": 27.923699927,
			"-0.001": 23.5123687608,
			"0.0": 20.5758781623,
			"0.001": 15.5774084353,
			"0.002": 10.1585972836,
			"0.003": 9.49309253725,
			"0.004": 8.95704545616,
			"0.005": 8.46260016187,
			"0.006": 9.57646124727,
			"0.007": 8.18722433743,
			"0.008": 3.39548359465,
			"0.009": 1.72922008468,
			"0.01": 1.75477804684,
			"0.011": 2.19710047599,
			"0.012": 2.82241252654,
			"0.013": 4.0081665876,
			"0.014": 6.13426536103,
			"0.015": 0.977259851493,
			"0.016": 0.0,
			"0.017": 0.0,
			"0.018": 0.0,
			"0.019": 0.0,
			"0.02": 0.0,
			"0.021": 0.0,
			"0.022": 0.0,
			"0.023": 0.0,
			"0.024": 0.0,
			"0.025": 0.0
		}
	}
}
