{
	 "smiles": "OC(CC(O)=O)C1=CC(Cl)=CC(Cl)=C1", 
	 "Tm": 472.15, 
	 "num_atms": 22, 
	 "gaussian": { 
		 "optdone": 1, 
		 "sigma_profile": "yes", 
		 "theory": "DFT", 
		 "functional": "B3LYP", 
		 "basiset": "6-31G**", 
		 "properties": { 
			 "R2extent": 4940.2537, 
			 "electric_dipole_moment_norm": 5.31820590519, 
			 "electric_quadrupole_moment_norm": 24.5585909759, 
			 "total_energy": -1493.83459412, 
			 "HOMO_LUMO_gap": 0.21292, 
			 "cosmo_polarized_energy": -19.39, 
			 "cosmo_cavitation_energy": 30.06, 
			 "cosmo_dispersion_energy": -21.51, 
			 "cosmo_repulsion_energy": 1.72, 
			 "cosmo_total_nonelectrostatic_energy": 10.28, 
			 "SMD_solvation_energy": 5.49 
		},
		"coords": [
			{
				"x": -0.8822012613,
				"y": -1.5817097206,
				"z": 0.6559697087,
				"element": "O" 
			},
			{
				"x": -0.6120811986,
				"y": -1.3996540181,
				"z": -0.722799951,
				"element": "C" 
			},
			{
				"x": -1.9224386868,
				"y": -1.7236852376,
				"z": -1.4701169024,
				"element": "C" 
			},
			{
				"x": -3.1884336917,
				"y": -1.0160541151,
				"z": -0.9782172802,
				"element": "C" 
			},
			{
				"x": -3.1533698827,
				"y": 0.337476881,
				"z": -0.9080473314,
				"element": "O" 
			},
			{
				"x": -4.2011571764,
				"y": -1.6120160544,
				"z": -0.7147109873,
				"element": "O" 
			},
			{
				"x": -0.0317406522,
				"y": -0.016333624,
				"z": -1.0299710571,
				"element": "C" 
			},
			{
				"x": -0.1339247698,
				"y": 1.0242251118,
				"z": -0.0987695965,
				"element": "C" 
			},
			{
				"x": 0.4167337966,
				"y": 2.2720143648,
				"z": -0.4013176177,
				"element": "C" 
			},
			{
				"x": 0.2941510425,
				"y": 3.5686286521,
				"z": 0.7700000744,
				"element": "Cl" 
			},
			{
				"x": 1.0655583939,
				"y": 2.5133613641,
				"z": -1.6099191477,
				"element": "C" 
			},
			{
				"x": 1.1554098981,
				"y": 1.4620681449,
				"z": -2.5245728287,
				"element": "C" 
			},
			{
				"x": 1.9737020478,
				"y": 1.7346427043,
				"z": -4.0503875006,
				"element": "Cl" 
			},
			{
				"x": 0.6206481461,
				"y": 0.206181745,
				"z": -2.2506378556,
				"element": "C" 
			},
			{
				"x": -0.0468181578,
				"y": -1.5559894424,
				"z": 1.1415921265,
				"element": "H" 
			},
			{
				"x": 0.1271983513,
				"y": -2.1374479276,
				"z": -1.0727254762,
				"element": "H" 
			},
			{
				"x": -1.7911496133,
				"y": -1.501661484,
				"z": -2.536353324,
				"element": "H" 
			},
			{
				"x": -2.1233615265,
				"y": -2.7914430459,
				"z": -1.3716771355,
				"element": "H" 
			},
			{
				"x": -2.2704973347,
				"y": 0.6761004979,
				"z": -1.1206387099,
				"element": "H" 
			},
			{
				"x": -0.6340759561,
				"y": 0.8555911603,
				"z": 0.8476145964,
				"element": "H" 
			},
			{
				"x": 1.4903905333,
				"y": 3.4840608179,
				"z": -1.8326688312,
				"element": "H" 
			},
			{
				"x": 0.7224576983,
				"y": -0.5925567743,
				"z": -2.9784449728,
				"element": "H" 
			}
		],
		 "valence_orbital": [ 
			{
				"type": "occ",
				"energy": -0.31052,
				"method": "rhf"
			},
			{
				"type": "occ",
				"energy": -0.30856,
				"method": "rhf"
			},
			{
				"type": "occ",
				"energy": -0.2811,
				"method": "rhf"
			},
			{
				"type": "occ",
				"energy": -0.27345,
				"method": "rhf"
			},
			{
				"type": "occ",
				"energy": -0.26436,
				"method": "rhf"
			},
			{
				"type": "unocc",
				"energy": -0.05144,
				"method": "rhf"
			},
			{
				"type": "unocc",
				"energy": -0.04681,
				"method": "rhf"
			},
			{
				"type": "unocc",
				"energy": -0.00863,
				"method": "rhf"
			},
			{
				"type": "unocc",
				"energy": 0.0099,
				"method": "rhf"
			},
			{
				"type": "unocc",
				"energy": 0.03278,
				"method": "rhf"
			}
		],
		"cosmo_sigma_profile": { 
			"-0.025": 0.0,
			"-0.024": 0.0,
			"-0.023": 0.0,
			"-0.022": 0.0,
			"-0.021": 0.0,
			"-0.02": 0.0,
			"-0.019": 0.0,
			"-0.018": 0.0,
			"-0.017": 0.434897344212,
			"-0.016": 1.24089872934,
			"-0.015": 0.729859713371,
			"-0.014": 1.14964989914,
			"-0.013": 1.04618643381,
			"-0.012": 2.32866559449,
			"-0.011": 2.18833966528,
			"-0.01": 1.85718202006,
			"-0.009": 4.97714850014,
			"-0.008": 9.91494783089,
			"-0.007": 10.4667132318,
			"-0.006": 13.4412935006,
			"-0.005": 10.4080733947,
			"-0.004": 10.0048262095,
			"-0.003": 10.3060804532,
			"-0.002": 12.3232633253,
			"-0.001": 14.2321968901,
			"0.0": 19.0108780102,
			"0.001": 23.0199808176,
			"0.002": 13.7095374815,
			"0.003": 16.1330892149,
			"0.004": 22.3334813202,
			"0.005": 5.47825554936,
			"0.006": 3.9111279874,
			"0.007": 3.27462108964,
			"0.008": 4.53523321252,
			"0.009": 4.11495470674,
			"0.01": 6.06359136604,
			"0.011": 6.85481714489,
			"0.012": 6.03053943603,
			"0.013": 2.24435645957,
			"0.014": 0.0643948705963,
			"0.015": 0.0,
			"0.016": 0.0,
			"0.017": 0.0,
			"0.018": 0.0,
			"0.019": 0.0,
			"0.02": 0.0,
			"0.021": 0.0,
			"0.022": 0.0,
			"0.023": 0.0,
			"0.024": 0.0,
			"0.025": 0.0
		}
	}
}
