{
	 "smiles": "CN(C)C1=CC=C(C=C1)N1C(=O)CSC1=S", 
	 "Tm": 412.15, 
	 "num_atms": 28, 
	 "gaussian": { 
		 "optdone": 1, 
		 "sigma_profile": "yes", 
		 "theory": "DFT", 
		 "functional": "B3LYP", 
		 "basiset": "6-31G**", 
		 "properties": { 
			 "R2extent": 5577.9576, 
			 "electric_dipole_moment_norm": 3.60177990582, 
			 "electric_quadrupole_moment_norm": 26.4503588616, 
			 "total_energy": -1407.50730983, 
			 "HOMO_LUMO_gap": 0.13773, 
			 "cosmo_polarized_energy": -16.22, 
			 "cosmo_cavitation_energy": 34.97, 
			 "cosmo_dispersion_energy": -25.49, 
			 "cosmo_repulsion_energy": 1.91, 
			 "cosmo_total_nonelectrostatic_energy": 11.39, 
			 "SMD_solvation_energy": 5.3 
		},
		"coords": [
			{
				"x": -3.644063308,
				"y": -1.4761645702,
				"z": 2.7776763618,
				"element": "C" 
			},
			{
				"x": -2.4077696392,
				"y": -2.0396541525,
				"z": 2.2626583323,
				"element": "N" 
			},
			{
				"x": -2.0052136499,
				"y": -3.3676300712,
				"z": 2.6933587067,
				"element": "C" 
			},
			{
				"x": -1.4998923916,
				"y": -1.2237659394,
				"z": 1.6111277587,
				"element": "C" 
			},
			{
				"x": -1.8114972997,
				"y": 0.1224773662,
				"z": 1.303115878,
				"element": "C" 
			},
			{
				"x": -0.9053342518,
				"y": 0.929967299,
				"z": 0.6278642531,
				"element": "C" 
			},
			{
				"x": 0.3376354594,
				"y": 0.4295824862,
				"z": 0.2450836428,
				"element": "C" 
			},
			{
				"x": 0.6726695547,
				"y": -0.8885258316,
				"z": 0.5495599485,
				"element": "C" 
			},
			{
				"x": -0.2261012799,
				"y": -1.7052463373,
				"z": 1.2231997484,
				"element": "C" 
			},
			{
				"x": 1.2833699469,
				"y": 1.2808392858,
				"z": -0.4310932325,
				"element": "N" 
			},
			{
				"x": 2.1306927396,
				"y": 2.1161646677,
				"z": 0.319432137,
				"element": "C" 
			},
			{
				"x": 2.1287154149,
				"y": 2.1816740312,
				"z": 1.5268450627,
				"element": "O" 
			},
			{
				"x": 3.0495450047,
				"y": 2.9276107009,
				"z": -0.584773453,
				"element": "C" 
			},
			{
				"x": 2.6561664868,
				"y": 2.4645215198,
				"z": -2.306942121,
				"element": "S" 
			},
			{
				"x": 1.3967177495,
				"y": 1.3170150889,
				"z": -1.815056014,
				"element": "C" 
			},
			{
				"x": 0.5217382835,
				"y": 0.4493816692,
				"z": -2.9012865972,
				"element": "S" 
			},
			{
				"x": -4.2482322013,
				"y": -1.0401470393,
				"z": 1.9728798735,
				"element": "H" 
			},
			{
				"x": -3.471680649,
				"y": -0.6951727056,
				"z": 3.5335952403,
				"element": "H" 
			},
			{
				"x": -4.2342139326,
				"y": -2.2693232384,
				"z": 3.2384245299,
				"element": "H" 
			},
			{
				"x": -2.8546293897,
				"y": -3.8638276971,
				"z": 3.1644936494,
				"element": "H" 
			},
			{
				"x": -1.69336633,
				"y": -3.9844301626,
				"z": 1.8418614654,
				"element": "H" 
			},
			{
				"x": -1.1770962381,
				"y": -3.3459216969,
				"z": 3.4178592748,
				"element": "H" 
			},
			{
				"x": -2.76554862,
				"y": 0.5448646305,
				"z": 1.5909802836,
				"element": "H" 
			},
			{
				"x": -1.1663474398,
				"y": 1.9583511885,
				"z": 0.3985761466,
				"element": "H" 
			},
			{
				"x": 1.6426206736,
				"y": -1.2791175464,
				"z": 0.2583520965,
				"element": "H" 
			},
			{
				"x": 0.0680079213,
				"y": -2.7223870916,
				"z": 1.4477543522,
				"element": "H" 
			},
			{
				"x": 2.8777589352,
				"y": 3.9926586564,
				"z": -0.4103134867,
				"element": "H" 
			},
			{
				"x": 4.0894484507,
				"y": 2.6988054898,
				"z": -0.338833838,
				"element": "H" 
			}
		],
		 "valence_orbital": [ 
			{
				"type": "occ",
				"energy": -0.27118,
				"method": "rhf"
			},
			{
				"type": "occ",
				"energy": -0.25458,
				"method": "rhf"
			},
			{
				"type": "occ",
				"energy": -0.23886,
				"method": "rhf"
			},
			{
				"type": "occ",
				"energy": -0.22174,
				"method": "rhf"
			},
			{
				"type": "occ",
				"energy": -0.19785,
				"method": "rhf"
			},
			{
				"type": "unocc",
				"energy": -0.06012,
				"method": "rhf"
			},
			{
				"type": "unocc",
				"energy": -0.00565,
				"method": "rhf"
			},
			{
				"type": "unocc",
				"energy": -0.00349,
				"method": "rhf"
			},
			{
				"type": "unocc",
				"energy": 0.00901,
				"method": "rhf"
			},
			{
				"type": "unocc",
				"energy": 0.01712,
				"method": "rhf"
			}
		],
		"cosmo_sigma_profile": { 
			"-0.025": 0.0,
			"-0.024": 0.0,
			"-0.023": 0.0,
			"-0.022": 0.0,
			"-0.021": 0.0,
			"-0.02": 0.0,
			"-0.019": 0.0,
			"-0.018": 0.0,
			"-0.017": 0.0,
			"-0.016": 0.0,
			"-0.015": 0.0,
			"-0.014": 0.0,
			"-0.013": 0.0,
			"-0.012": 0.0,
			"-0.011": 0.0,
			"-0.01": 2.71648688961,
			"-0.009": 6.06441697706,
			"-0.008": 5.89029712392,
			"-0.007": 10.3663466452,
			"-0.006": 18.2312362722,
			"-0.005": 19.0331762847,
			"-0.004": 22.7828868177,
			"-0.003": 21.3149879125,
			"-0.002": 23.8471423702,
			"-0.001": 16.5477179319,
			"0.0": 12.3168538622,
			"0.001": 14.0903222806,
			"0.002": 13.704869599,
			"0.003": 15.4595031704,
			"0.004": 17.3845116782,
			"0.005": 15.2552989571,
			"0.006": 13.4191577688,
			"0.007": 8.9644543989,
			"0.008": 7.73355411638,
			"0.009": 6.16820473272,
			"0.01": 6.01010898064,
			"0.011": 5.17801062255,
			"0.012": 1.05514586656,
			"0.013": 0.0,
			"0.014": 0.0,
			"0.015": 0.0,
			"0.016": 0.0,
			"0.017": 0.0,
			"0.018": 0.0,
			"0.019": 0.0,
			"0.02": 0.0,
			"0.021": 0.0,
			"0.022": 0.0,
			"0.023": 0.0,
			"0.024": 0.0,
			"0.025": 0.0
		}
	}
}
