{
	 "smiles": "CC12CCC3C(CCC4=CC(=O)CCC34)C1CCC2(O)C#C", 
	 "Tm": 477.15, 
	 "num_atms": 48, 
	 "gaussian": { 
		 "optdone": 1, 
		 "sigma_profile": "yes", 
		 "theory": "DFT", 
		 "functional": "B3LYP", 
		 "basiset": "6-31G**", 
		 "properties": { 
			 "R2extent": 8349.9359, 
			 "electric_dipole_moment_norm": 3.9440408289, 
			 "electric_quadrupole_moment_norm": 34.1988401628, 
			 "total_energy": -928.161509941, 
			 "HOMO_LUMO_gap": 0.18713, 
			 "cosmo_polarized_energy": -15.22, 
			 "cosmo_cavitation_energy": 43.76, 
			 "cosmo_dispersion_energy": -30.15, 
			 "cosmo_repulsion_energy": 2.22, 
			 "cosmo_total_nonelectrostatic_energy": 15.83, 
			 "SMD_solvation_energy": 7.8 
		},
		"coords": [
			{
				"x": -0.5841521389,
				"y": -0.7529974177,
				"z": -2.6987782103,
				"element": "C" 
			},
			{
				"x": 0.345209543,
				"y": -0.9290324642,
				"z": -1.4782721249,
				"element": "C" 
			},
			{
				"x": 0.8561234926,
				"y": 0.4642848958,
				"z": -1.0045094877,
				"element": "C" 
			},
			{
				"x": 0.1685278394,
				"y": 0.9570505216,
				"z": 0.2956865818,
				"element": "C" 
			},
			{
				"x": -1.3166579106,
				"y": 0.5679432513,
				"z": 0.3284515815,
				"element": "C" 
			},
			{
				"x": -1.5048971368,
				"y": -0.9724977987,
				"z": 0.3760584463,
				"element": "C" 
			},
			{
				"x": -2.9256162134,
				"y": -1.3188287533,
				"z": -0.1193562129,
				"element": "C" 
			},
			{
				"x": -3.9574414773,
				"y": -0.2444429554,
				"z": 0.344631773,
				"element": "C" 
			},
			{
				"x": -3.4935635797,
				"y": 0.4765407763,
				"z": 1.5848397801,
				"element": "C" 
			},
			{
				"x": -4.1835560079,
				"y": 0.4404715228,
				"z": 2.7432805957,
				"element": "C" 
			},
			{
				"x": -3.7397808585,
				"y": 1.1244738822,
				"z": 3.971250157,
				"element": "C" 
			},
			{
				"x": -4.3936225715,
				"y": 1.0851930263,
				"z": 5.0051485993,
				"element": "O" 
			},
			{
				"x": -2.432345336,
				"y": 1.9039046263,
				"z": 3.8762214692,
				"element": "C" 
			},
			{
				"x": -1.4760124656,
				"y": 1.3249288857,
				"z": 2.8258393644,
				"element": "C" 
			},
			{
				"x": -2.1673832357,
				"y": 1.2218984906,
				"z": 1.4550365091,
				"element": "C" 
			},
			{
				"x": -0.3143091346,
				"y": -1.6901148022,
				"z": -0.2982981041,
				"element": "C" 
			},
			{
				"x": -0.4727854387,
				"y": -3.1405273656,
				"z": -0.8004203137,
				"element": "C" 
			},
			{
				"x": 0.7132362601,
				"y": -3.3450653686,
				"z": -1.7829474511,
				"element": "C" 
			},
			{
				"x": 1.4621874836,
				"y": -1.9794963422,
				"z": -1.8725663155,
				"element": "C" 
			},
			{
				"x": 1.9584100881,
				"y": -1.8381467105,
				"z": -3.2050088309,
				"element": "O" 
			},
			{
				"x": 2.5969141479,
				"y": -1.9466178008,
				"z": -0.9308635383,
				"element": "C" 
			},
			{
				"x": 3.5521218676,
				"y": -1.9132610089,
				"z": -0.190071448,
				"element": "C" 
			},
			{
				"x": -1.0456868307,
				"y": -1.6899683445,
				"z": -3.0219312075,
				"element": "H" 
			},
			{
				"x": -0.0112887076,
				"y": -0.3695837549,
				"z": -3.5469207176,
				"element": "H" 
			},
			{
				"x": -1.3853530813,
				"y": -0.041920576,
				"z": -2.4844236691,
				"element": "H" 
			},
			{
				"x": 1.9380180532,
				"y": 0.4419613603,
				"z": -0.8367670961,
				"element": "H" 
			},
			{
				"x": 0.6792389551,
				"y": 1.1988765899,
				"z": -1.7991825092,
				"element": "H" 
			},
			{
				"x": 0.2818343904,
				"y": 2.0455866212,
				"z": 0.3715046527,
				"element": "H" 
			},
			{
				"x": 0.6817137291,
				"y": 0.5356147867,
				"z": 1.1685501227,
				"element": "H" 
			},
			{
				"x": -1.7452848855,
				"y": 0.9213889876,
				"z": -0.6193812339,
				"element": "H" 
			},
			{
				"x": -1.4745241113,
				"y": -1.2617198985,
				"z": 1.4369389949,
				"element": "H" 
			},
			{
				"x": -2.956418087,
				"y": -1.3917005124,
				"z": -1.2112400826,
				"element": "H" 
			},
			{
				"x": -3.22118899,
				"y": -2.2989279668,
				"z": 0.2699263781,
				"element": "H" 
			},
			{
				"x": -4.9410216408,
				"y": -0.6946112317,
				"z": 0.5060867904,
				"element": "H" 
			},
			{
				"x": -4.0818409883,
				"y": 0.4981781233,
				"z": -0.455776922,
				"element": "H" 
			},
			{
				"x": -5.1214740781,
				"y": -0.1047697874,
				"z": 2.8212815615,
				"element": "H" 
			},
			{
				"x": -2.6917869495,
				"y": 2.9392336188,
				"z": 3.6075785,
				"element": "H" 
			},
			{
				"x": -1.9845335448,
				"y": 1.9407351143,
				"z": 4.8734392814,
				"element": "H" 
			},
			{
				"x": -0.5791065274,
				"y": 1.9483845116,
				"z": 2.7534974564,
				"element": "H" 
			},
			{
				"x": -1.1449346104,
				"y": 0.3283739183,
				"z": 3.1461414909,
				"element": "H" 
			},
			{
				"x": -2.402315412,
				"y": 2.2508804992,
				"z": 1.1329234775,
				"element": "H" 
			},
			{
				"x": 0.4697152249,
				"y": -1.7272699071,
				"z": 0.469433661,
				"element": "H" 
			},
			{
				"x": -0.4531941363,
				"y": -3.8571039139,
				"z": 0.0264353355,
				"element": "H" 
			},
			{
				"x": -1.4262338956,
				"y": -3.2835255506,
				"z": -1.3177119165,
				"element": "H" 
			},
			{
				"x": 1.3937158202,
				"y": -4.1396480566,
				"z": -1.4706804069,
				"element": "H" 
			},
			{
				"x": 0.3712236962,
				"y": -3.5910455436,
				"z": -2.7916350526,
				"element": "H" 
			},
			{
				"x": 2.5935093058,
				"y": -1.1089609912,
				"z": -3.207780198,
				"element": "H" 
			},
			{
				"x": 4.3925100849,
				"y": -1.8989191868,
				"z": 0.4650404891,
				"element": "H" 
			}
		],
		 "valence_orbital": [ 
			{
				"type": "occ",
				"energy": -0.27959,
				"method": "rhf"
			},
			{
				"type": "occ",
				"energy": -0.27429,
				"method": "rhf"
			},
			{
				"type": "occ",
				"energy": -0.26118,
				"method": "rhf"
			},
			{
				"type": "occ",
				"energy": -0.25183,
				"method": "rhf"
			},
			{
				"type": "occ",
				"energy": -0.22877,
				"method": "rhf"
			},
			{
				"type": "unocc",
				"energy": -0.04164,
				"method": "rhf"
			},
			{
				"type": "unocc",
				"energy": 0.02736,
				"method": "rhf"
			},
			{
				"type": "unocc",
				"energy": 0.0445,
				"method": "rhf"
			},
			{
				"type": "unocc",
				"energy": 0.05677,
				"method": "rhf"
			},
			{
				"type": "unocc",
				"energy": 0.07516,
				"method": "rhf"
			}
		],
		"cosmo_sigma_profile": { 
			"-0.025": 0.0,
			"-0.024": 0.0,
			"-0.023": 0.0,
			"-0.022": 0.0,
			"-0.021": 0.0,
			"-0.02": 0.0,
			"-0.019": 0.0,
			"-0.018": 0.0,
			"-0.017": 0.0,
			"-0.016": 0.0644982904577,
			"-0.015": 0.578471246912,
			"-0.014": 0.917961910498,
			"-0.013": 0.768457859172,
			"-0.012": 0.600571667766,
			"-0.011": 1.88881368589,
			"-0.01": 2.17541026767,
			"-0.009": 2.10667232318,
			"-0.008": 1.31915094092,
			"-0.007": 2.52505452894,
			"-0.006": 1.7321040252,
			"-0.005": 8.14379385067,
			"-0.004": 24.4519902227,
			"-0.003": 37.918674088,
			"-0.002": 55.1824063163,
			"-0.001": 52.9854304119,
			"0.0": 36.1059689744,
			"0.001": 25.6096199623,
			"0.002": 15.2674620195,
			"0.003": 11.6022379226,
			"0.004": 10.3929394673,
			"0.005": 8.79045867614,
			"0.006": 6.73127005258,
			"0.007": 4.49841162046,
			"0.008": 2.85617499205,
			"0.009": 2.62122689283,
			"0.01": 2.83214022739,
			"0.011": 3.4886161572,
			"0.012": 3.98622259548,
			"0.013": 6.5620444868,
			"0.014": 3.71853422765,
			"0.015": 0.752441637241,
			"0.016": 0.0,
			"0.017": 0.0,
			"0.018": 0.0,
			"0.019": 0.0,
			"0.02": 0.0,
			"0.021": 0.0,
			"0.022": 0.0,
			"0.023": 0.0,
			"0.024": 0.0,
			"0.025": 0.0
		}
	}
}
