{
	 "smiles": "CCOC1=CC=C(NC(=O)CC#N)C=C1", 
	 "Tm": 370.65, 
	 "num_atms": 27, 
	 "gaussian": { 
		 "optdone": 1, 
		 "sigma_profile": "yes", 
		 "theory": "DFT", 
		 "functional": "B3LYP", 
		 "basiset": "6-31G**", 
		 "properties": { 
			 "R2extent": 5321.1079, 
			 "electric_dipole_moment_norm": 7.11976544066, 
			 "electric_quadrupole_moment_norm": 14.1284565764, 
			 "total_energy": -686.339853662, 
			 "HOMO_LUMO_gap": 0.2039, 
			 "cosmo_polarized_energy": -17.18, 
			 "cosmo_cavitation_energy": 32.4, 
			 "cosmo_dispersion_energy": -22.52, 
			 "cosmo_repulsion_energy": 1.8, 
			 "cosmo_total_nonelectrostatic_energy": 11.68, 
			 "SMD_solvation_energy": 8.0 
		},
		"coords": [
			{
				"x": -0.7222363351,
				"y": -3.5095302418,
				"z": 4.2919299278,
				"element": "C" 
			},
			{
				"x": -0.7661321061,
				"y": -3.2242859949,
				"z": 2.8012751043,
				"element": "C" 
			},
			{
				"x": -1.278132835,
				"y": -1.9009161976,
				"z": 2.631420825,
				"element": "O" 
			},
			{
				"x": -1.4188522571,
				"y": -1.4053520083,
				"z": 1.3727610973,
				"element": "C" 
			},
			{
				"x": -1.9343161436,
				"y": -0.1024532574,
				"z": 1.2832201808,
				"element": "C" 
			},
			{
				"x": -2.1315023819,
				"y": 0.4938847206,
				"z": 0.0450062819,
				"element": "C" 
			},
			{
				"x": -1.7838329536,
				"y": -0.1871231512,
				"z": -1.1321462167,
				"element": "C" 
			},
			{
				"x": -1.9947520639,
				"y": 0.3965357167,
				"z": -2.4185245426,
				"element": "N" 
			},
			{
				"x": -1.447765401,
				"y": 1.5280715596,
				"z": -2.9658454567,
				"element": "C" 
			},
			{
				"x": -1.7253078558,
				"y": 1.9060713248,
				"z": -4.0907284209,
				"element": "O" 
			},
			{
				"x": -0.4283963968,
				"y": 2.3026922369,
				"z": -2.1000143411,
				"element": "C" 
			},
			{
				"x": -1.0632834878,
				"y": 3.3711621992,
				"z": -1.3289124037,
				"element": "C" 
			},
			{
				"x": -1.5795356984,
				"y": 4.2063401864,
				"z": -0.7095478331,
				"element": "N" 
			},
			{
				"x": -1.2692227812,
				"y": -1.4827002038,
				"z": -1.0402377724,
				"element": "C" 
			},
			{
				"x": -1.0933770511,
				"y": -2.0998716365,
				"z": 0.1994310326,
				"element": "C" 
			},
			{
				"x": -0.3343391673,
				"y": -4.5171052491,
				"z": 4.4696761434,
				"element": "H" 
			},
			{
				"x": -0.0738144042,
				"y": -2.792425599,
				"z": 4.8027003049,
				"element": "H" 
			},
			{
				"x": -1.7229316984,
				"y": -3.4406257421,
				"z": 4.7271568544,
				"element": "H" 
			},
			{
				"x": 0.237352582,
				"y": -3.2949751273,
				"z": 2.358446628,
				"element": "H" 
			},
			{
				"x": -1.4151699632,
				"y": -3.9439433555,
				"z": 2.2827437285,
				"element": "H" 
			},
			{
				"x": -2.1913293788,
				"y": 0.4172959886,
				"z": 2.2000089721,
				"element": "H" 
			},
			{
				"x": -2.559600921,
				"y": 1.4891793285,
				"z": -0.012524737,
				"element": "H" 
			},
			{
				"x": -2.6018310058,
				"y": -0.0902588476,
				"z": -3.0678629812,
				"element": "H" 
			},
			{
				"x": 0.1087712948,
				"y": 1.6419276157,
				"z": -1.413034801,
				"element": "H" 
			},
			{
				"x": 0.2849696706,
				"y": 2.7467741139,
				"z": -2.7995483244,
				"element": "H" 
			},
			{
				"x": -0.9999943021,
				"y": -2.0147028942,
				"z": -1.9483147559,
				"element": "H" 
			},
			{
				"x": -0.6966369582,
				"y": -3.1069654844,
				"z": 0.2374655057,
				"element": "H" 
			}
		],
		 "valence_orbital": [ 
			{
				"type": "occ",
				"energy": -0.32721,
				"method": "rhf"
			},
			{
				"type": "occ",
				"energy": -0.28087,
				"method": "rhf"
			},
			{
				"type": "occ",
				"energy": -0.2695,
				"method": "rhf"
			},
			{
				"type": "occ",
				"energy": -0.26626,
				"method": "rhf"
			},
			{
				"type": "occ",
				"energy": -0.22825,
				"method": "rhf"
			},
			{
				"type": "unocc",
				"energy": -0.02435,
				"method": "rhf"
			},
			{
				"type": "unocc",
				"energy": -0.01505,
				"method": "rhf"
			},
			{
				"type": "unocc",
				"energy": 0.00938,
				"method": "rhf"
			},
			{
				"type": "unocc",
				"energy": 0.03676,
				"method": "rhf"
			},
			{
				"type": "unocc",
				"energy": 0.04538,
				"method": "rhf"
			}
		],
		"cosmo_sigma_profile": { 
			"-0.025": 0.0,
			"-0.024": 0.0,
			"-0.023": 0.0,
			"-0.022": 0.0,
			"-0.021": 0.0,
			"-0.02": 0.0,
			"-0.019": 0.0,
			"-0.018": 0.0,
			"-0.017": 0.0,
			"-0.016": 0.0,
			"-0.015": 0.247994673925,
			"-0.014": 1.24639985077,
			"-0.013": 0.942320123571,
			"-0.012": 1.13639702155,
			"-0.011": 0.998867066924,
			"-0.01": 1.54255634605,
			"-0.009": 4.58382617199,
			"-0.008": 5.47406729253,
			"-0.007": 7.96639948804,
			"-0.006": 14.1790664623,
			"-0.005": 18.3555759513,
			"-0.004": 22.4314350208,
			"-0.003": 20.0811492489,
			"-0.002": 18.7975375704,
			"-0.001": 16.4119489591,
			"0.0": 19.6301110617,
			"0.001": 13.8708191885,
			"0.002": 11.3007151451,
			"0.003": 14.8319800942,
			"0.004": 13.633085657,
			"0.005": 6.88134606444,
			"0.006": 4.92854012316,
			"0.007": 5.24811601921,
			"0.008": 4.69172448658,
			"0.009": 6.0705319373,
			"0.01": 5.4274423589,
			"0.011": 4.17310357243,
			"0.012": 6.53438080809,
			"0.013": 6.02852676201,
			"0.014": 0.434261641082,
			"0.015": 0.0,
			"0.016": 0.0,
			"0.017": 0.0,
			"0.018": 0.0,
			"0.019": 0.0,
			"0.02": 0.0,
			"0.021": 0.0,
			"0.022": 0.0,
			"0.023": 0.0,
			"0.024": 0.0,
			"0.0": 0.0
		}
	}
}
