{
	 "smiles": "CC(=O)N1CCC(CC1)NC1=CC=CC=C1", 
	 "Tm": 389.15, 
	 "num_atms": 34, 
	 "gaussian": { 
		 "optdone": 1, 
		 "sigma_profile": "yes", 
		 "theory": "DFT", 
		 "functional": "B3LYP", 
		 "basiset": "6-31G**", 
		 "properties": { 
			 "R2extent": 5661.554, 
			 "electric_dipole_moment_norm": 2.40736957071, 
			 "electric_quadrupole_moment_norm": 26.3501509827, 
			 "total_energy": -690.983580889, 
			 "HOMO_LUMO_gap": 0.19946, 
			 "cosmo_polarized_energy": -14.83, 
			 "cosmo_cavitation_energy": 35.15, 
			 "cosmo_dispersion_energy": -25.27, 
			 "cosmo_repulsion_energy": 1.96, 
			 "cosmo_total_nonelectrostatic_energy": 11.84, 
			 "SMD_solvation_energy": 4.98 
		},
		"coords": [
			{
				"x": 0.2425964727,
				"y": 2.8728206266,
				"z": -4.3158892515,
				"element": "C" 
			},
			{
				"x": 0.2641464062,
				"y": 1.3506613728,
				"z": -4.3946090211,
				"element": "C" 
			},
			{
				"x": -0.0584747977,
				"y": 0.7739448964,
				"z": -5.4287313308,
				"element": "O" 
			},
			{
				"x": 0.6538615629,
				"y": 0.6586511531,
				"z": -3.2686031476,
				"element": "N" 
			},
			{
				"x": 0.7017876094,
				"y": -0.8025468826,
				"z": -3.3072054838,
				"element": "C" 
			},
			{
				"x": -0.134662035,
				"y": -1.41553383,
				"z": -2.1770192565,
				"element": "C" 
			},
			{
				"x": 0.2793771088,
				"y": -0.8570173464,
				"z": -0.8079052891,
				"element": "C" 
			},
			{
				"x": 0.2325677275,
				"y": 0.6858675229,
				"z": -0.8367425182,
				"element": "C" 
			},
			{
				"x": 1.0667829431,
				"y": 1.2472722657,
				"z": -1.9985048174,
				"element": "C" 
			},
			{
				"x": -0.5442757711,
				"y": -1.454566877,
				"z": 0.2338780715,
				"element": "N" 
			},
			{
				"x": -0.2812270398,
				"y": -1.3236712409,
				"z": 1.597715479,
				"element": "C" 
			},
			{
				"x": -1.3169240585,
				"y": -1.56904345,
				"z": 2.5224025608,
				"element": "C" 
			},
			{
				"x": -1.0826474271,
				"y": -1.5064687513,
				"z": 3.8915633326,
				"element": "C" 
			},
			{
				"x": 0.1871735513,
				"y": -1.19403132,
				"z": 4.3857172957,
				"element": "C" 
			},
			{
				"x": 1.2162823383,
				"y": -0.9471739376,
				"z": 3.4776715028,
				"element": "C" 
			},
			{
				"x": 0.9948445148,
				"y": -1.0063085062,
				"z": 2.1012233606,
				"element": "C" 
			},
			{
				"x": -0.4467114135,
				"y": 3.2353053326,
				"z": -3.5461228425,
				"element": "H" 
			},
			{
				"x": -0.0891542514,
				"y": 3.238568065,
				"z": -5.2870020324,
				"element": "H" 
			},
			{
				"x": 1.2336072631,
				"y": 3.2856534805,
				"z": -4.100429003,
				"element": "H" 
			},
			{
				"x": 0.3409563582,
				"y": -1.1119616545,
				"z": -4.287648949,
				"element": "H" 
			},
			{
				"x": 1.7484957118,
				"y": -1.1301053146,
				"z": -3.2098077988,
				"element": "H" 
			},
			{
				"x": -0.0268316934,
				"y": -2.5054983164,
				"z": -2.1798509603,
				"element": "H" 
			},
			{
				"x": -1.1951802615,
				"y": -1.1897208939,
				"z": -2.3567355338,
				"element": "H" 
			},
			{
				"x": 1.3180303763,
				"y": -1.167496205,
				"z": -0.6285088348,
				"element": "H" 
			},
			{
				"x": 0.5950118957,
				"y": 1.0936051402,
				"z": 0.112955094,
				"element": "H" 
			},
			{
				"x": -0.8111511048,
				"y": 1.0055558915,
				"z": -0.9541740466,
				"element": "H" 
			},
			{
				"x": 2.1317808892,
				"y": 1.0223419776,
				"z": -1.8257301789,
				"element": "H" 
			},
			{
				"x": 0.9747610152,
				"y": 2.3319643014,
				"z": -2.0417678184,
				"element": "H" 
			},
			{
				"x": -1.5316739136,
				"y": -1.4602706848,
				"z": 0.0116648492,
				"element": "H" 
			},
			{
				"x": -2.3096197097,
				"y": -1.8169126877,
				"z": 2.1523887333,
				"element": "H" 
			},
			{
				"x": -1.9018244421,
				"y": -1.7015537955,
				"z": 4.5785296304,
				"element": "H" 
			},
			{
				"x": 0.3677717458,
				"y": -1.1431029941,
				"z": 5.4547009393,
				"element": "H" 
			},
			{
				"x": 2.2114076934,
				"y": -0.7012625674,
				"z": 3.8389824469,
				"element": "H" 
			},
			{
				"x": 1.8192147354,
				"y": -0.8125647707,
				"z": 1.4235948185,
				"element": "H" 
			}
		],
		 "valence_orbital": [ 
			{
				"type": "occ",
				"energy": -0.29041,
				"method": "rhf"
			},
			{
				"type": "occ",
				"energy": -0.24456,
				"method": "rhf"
			},
			{
				"type": "occ",
				"energy": -0.24285,
				"method": "rhf"
			},
			{
				"type": "occ",
				"energy": -0.23661,
				"method": "rhf"
			},
			{
				"type": "occ",
				"energy": -0.19514,
				"method": "rhf"
			},
			{
				"type": "unocc",
				"energy": 0.00432,
				"method": "rhf"
			},
			{
				"type": "unocc",
				"energy": 0.0198,
				"method": "rhf"
			},
			{
				"type": "unocc",
				"energy": 0.02844,
				"method": "rhf"
			},
			{
				"type": "unocc",
				"energy": 0.07589,
				"method": "rhf"
			},
			{
				"type": "unocc",
				"energy": 0.07981,
				"method": "rhf"
			}
		],
		"cosmo_sigma_profile": { 
			"-0.025": 0.0,
			"-0.024": 0.0,
			"-0.023": 0.0,
			"-0.022": 0.0,
			"-0.021": 0.0,
			"-0.02": 0.0,
			"-0.019": 0.0,
			"-0.018": 0.0,
			"-0.017": 0.0,
			"-0.016": 0.0,
			"-0.015": 0.0,
			"-0.014": 0.0,
			"-0.013": 0.0,
			"-0.012": 0.450913197004,
			"-0.011": 1.14471943981,
			"-0.01": 1.29626900073,
			"-0.009": 1.79494023002,
			"-0.008": 1.73133259856,
			"-0.007": 1.71843339908,
			"-0.006": 8.74597498454,
			"-0.005": 21.8923750267,
			"-0.004": 30.3456022521,
			"-0.003": 36.114756488,
			"-0.002": 31.4448639124,
			"-0.001": 24.5325735718,
			"0.0": 20.0726007871,
			"0.001": 12.3531637057,
			"0.002": 9.34650356837,
			"0.003": 9.08623368314,
			"0.004": 9.25897678795,
			"0.005": 9.20634278497,
			"0.006": 10.8407847897,
			"0.007": 10.0811014516,
			"0.008": 6.14432517749,
			"0.009": 1.78996264057,
			"0.01": 1.96037118337,
			"0.011": 2.13371580971,
			"0.012": 2.15303274832,
			"0.013": 2.03700332367,
			"0.014": 5.11024829249,
			"0.015": 2.60734348658,
			"0.016": 0.193606606643,
			"0.017": 0.0,
			"0.018": 0.0,
			"0.019": 0.0,
			"0.02": 0.0,
			"0.021": 0.0,
			"0.022": 0.0,
			"0.023": 0.0,
			"0.024": 0.0,
			"0.025": 0.0
		}
	}
}
