{
	 "smiles": "CNC(=S)NC", 
	 "Tm": 335.15, 
	 "num_atms": 14, 
	 "gaussian": { 
		 "optdone": 1, 
		 "sigma_profile": "yes", 
		 "theory": "DFT", 
		 "functional": "B3LYP", 
		 "basiset": "6-31G**", 
		 "properties": { 
			 "R2extent": 1503.9301, 
			 "electric_dipole_moment_norm": 5.79448459572, 
			 "electric_quadrupole_moment_norm": 13.0407351369, 
			 "total_energy": -626.842142208, 
			 "HOMO_LUMO_gap": 0.20803, 
			 "cosmo_polarized_energy": -17.68, 
			 "cosmo_cavitation_energy": 18.69, 
			 "cosmo_dispersion_energy": -14.47, 
			 "cosmo_repulsion_energy": 1.21, 
			 "cosmo_total_nonelectrostatic_energy": 5.43, 
			 "SMD_solvation_energy": 1.72 
		},
		"coords": [
			{
				"x": 0.7765052651,
				"y": -1.0949918758,
				"z": -1.844541565,
				"element": "C" 
			},
			{
				"x": -0.2561100166,
				"y": -0.0737306251,
				"z": -1.764972075,
				"element": "N" 
			},
			{
				"x": 0.0000980906,
				"y": 1.2278234854,
				"z": -1.4801655092,
				"element": "C" 
			},
			{
				"x": 1.5441070274,
				"y": 1.8124950616,
				"z": -1.1309483484,
				"element": "S" 
			},
			{
				"x": -1.0788572928,
				"y": 2.0618716114,
				"z": -1.4867373368,
				"element": "N" 
			},
			{
				"x": -2.460625986,
				"y": 1.6774836735,
				"z": -1.6953657033,
				"element": "C" 
			},
			{
				"x": 1.4876555796,
				"y": -0.8828579799,
				"z": -2.6493997679,
				"element": "H" 
			},
			{
				"x": 1.3368907218,
				"y": -1.1467513593,
				"z": -0.9078196282,
				"element": "H" 
			},
			{
				"x": 0.2901302815,
				"y": -2.0554431282,
				"z": -2.0318176926,
				"element": "H" 
			},
			{
				"x": -1.1903272209,
				"y": -0.3405022019,
				"z": -2.0357195976,
				"element": "H" 
			},
			{
				"x": -0.8590623928,
				"y": 3.0149851725,
				"z": -1.2434642449,
				"element": "H" 
			},
			{
				"x": -3.0885471061,
				"y": 2.5637948451,
				"z": -1.5926911574,
				"element": "H" 
			},
			{
				"x": -2.6286376357,
				"y": 1.270373548,
				"z": -2.7025179838,
				"element": "H" 
			},
			{
				"x": -2.8004193151,
				"y": 0.9378497728,
				"z": -0.95703939,
				"element": "H" 
			}
		],
		 "valence_orbital": [ 
			{
				"type": "occ",
				"energy": -0.36007,
				"method": "rhf"
			},
			{
				"type": "occ",
				"energy": -0.3486,
				"method": "rhf"
			},
			{
				"type": "occ",
				"energy": -0.25614,
				"method": "rhf"
			},
			{
				"type": "occ",
				"energy": -0.20203,
				"method": "rhf"
			},
			{
				"type": "occ",
				"energy": -0.1948,
				"method": "rhf"
			},
			{
				"type": "unocc",
				"energy": 0.01323,
				"method": "rhf"
			},
			{
				"type": "unocc",
				"energy": 0.05633,
				"method": "rhf"
			},
			{
				"type": "unocc",
				"energy": 0.07976,
				"method": "rhf"
			},
			{
				"type": "unocc",
				"energy": 0.11204,
				"method": "rhf"
			},
			{
				"type": "unocc",
				"energy": 0.12345,
				"method": "rhf"
			}
		],
		"cosmo_sigma_profile": { 
			"-0.025": 0.0,
			"-0.024": 0.0,
			"-0.023": 0.0,
			"-0.022": 0.0,
			"-0.021": 0.0,
			"-0.02": 0.0,
			"-0.019": 0.0,
			"-0.018": 0.0,
			"-0.017": 0.0,
			"-0.016": 0.0,
			"-0.015": 0.304668336186,
			"-0.014": 1.8725139528,
			"-0.013": 2.06509265083,
			"-0.012": 2.24370857795,
			"-0.011": 2.01292352127,
			"-0.01": 2.59670650205,
			"-0.009": 3.1532774557,
			"-0.008": 2.84449194629,
			"-0.007": 4.57148247582,
			"-0.006": 8.89587867815,
			"-0.005": 9.17805258338,
			"-0.004": 11.4611344689,
			"-0.003": 14.6780422362,
			"-0.002": 12.5836207529,
			"-0.001": 7.79737171637,
			"0.0": 4.73663578963,
			"0.001": 3.97263955792,
			"0.002": 4.8803632995,
			"0.003": 4.11381399754,
			"0.004": 4.31912631274,
			"0.005": 3.51559278607,
			"0.006": 4.00481015618,
			"0.007": 3.47971108024,
			"0.008": 3.76548235859,
			"0.009": 3.45204710735,
			"0.01": 3.50178958441,
			"0.011": 6.08837547268,
			"0.012": 8.1193147174,
			"0.013": 4.9421104741,
			"0.014": 0.140148297866,
			"0.015": 0.0,
			"0.016": 0.0,
			"0.017": 0.0,
			"0.018": 0.0,
			"0.019": 0.0,
			"0.02": 0.0,
			"0.021": 0.0,
			"0.022": 0.0,
			"0.023": 0.0,
			"0.024": 0.0,
			"0.025": 0.0
		}
	}
}
