{
	 "smiles": "CN1C=CC2=C1C(=O)NCC2", 
	 "Tm": 345.15, 
	 "num_atms": 21, 
	 "gaussian": { 
		 "optdone": 1, 
		 "sigma_profile": "yes", 
		 "theory": "DFT", 
		 "functional": "B3LYP", 
		 "basiset": "6-31G**", 
		 "properties": { 
			 "R2extent": 1629.3895, 
			 "electric_dipole_moment_norm": 2.38854483734, 
			 "electric_quadrupole_moment_norm": 11.1037150941, 
			 "total_energy": -495.618997128, 
			 "HOMO_LUMO_gap": 0.20002, 
			 "cosmo_polarized_energy": -10.58, 
			 "cosmo_cavitation_energy": 23.42, 
			 "cosmo_dispersion_energy": -17.85, 
			 "cosmo_repulsion_energy": 1.43, 
			 "cosmo_total_nonelectrostatic_energy": 7.0, 
			 "SMD_solvation_energy": 3.93 
		},
		"coords": [
			{
				"x": 1.2782436015,
				"y": 0.448131385,
				"z": -2.7565487872,
				"element": "C" 
			},
			{
				"x": 1.4699308281,
				"y": 0.1758502548,
				"z": -1.3353729739,
				"element": "N" 
			},
			{
				"x": 2.6683598389,
				"y": -0.1098312429,
				"z": -0.7437330704,
				"element": "C" 
			},
			{
				"x": 2.4651285433,
				"y": -0.3916267328,
				"z": 0.5992639746,
				"element": "C" 
			},
			{
				"x": 1.0753848774,
				"y": -0.2837135469,
				"z": 0.8320800689,
				"element": "C" 
			},
			{
				"x": 0.4809777667,
				"y": 0.065237354,
				"z": -0.376596262,
				"element": "C" 
			},
			{
				"x": -0.9468304197,
				"y": 0.3427731733,
				"z": -0.5472577719,
				"element": "C" 
			},
			{
				"x": -1.4770484673,
				"y": 0.7921376007,
				"z": -1.5663561667,
				"element": "O" 
			},
			{
				"x": -1.6774151228,
				"y": 0.0918908133,
				"z": 0.5997586861,
				"element": "N" 
			},
			{
				"x": -1.1950096833,
				"y": -0.7828450915,
				"z": 1.6714112479,
				"element": "C" 
			},
			{
				"x": 0.2396047517,
				"y": -0.410356322,
				"z": 2.0733107029,
				"element": "C" 
			},
			{
				"x": 1.255396166,
				"y": -0.4837730105,
				"z": -3.3323963328,
				"element": "H" 
			},
			{
				"x": 0.3286992649,
				"y": 0.9651204131,
				"z": -2.8830251954,
				"element": "H" 
			},
			{
				"x": 2.1014719985,
				"y": 1.0691705958,
				"z": -3.1182784602,
				"element": "H" 
			},
			{
				"x": 3.5801379222,
				"y": -0.0997161321,
				"z": -1.3244362619,
				"element": "H" 
			},
			{
				"x": 3.2345461979,
				"y": -0.6411820374,
				"z": 1.3169325924,
				"element": "H" 
			},
			{
				"x": -2.6758083849,
				"y": 0.1518073835,
				"z": 0.4482029962,
				"element": "H" 
			},
			{
				"x": -1.8722019968,
				"y": -0.6799841957,
				"z": 2.5244354669,
				"element": "H" 
			},
			{
				"x": -1.216696673,
				"y": -1.8376868517,
				"z": 1.3542707727,
				"element": "H" 
			},
			{
				"x": 0.2314710329,
				"y": 0.5393461126,
				"z": 2.6269129151,
				"element": "H" 
			},
			{
				"x": 0.6353579579,
				"y": -1.1730499226,
				"z": 2.7528218588,
				"element": "H" 
			}
		],
		 "valence_orbital": [ 
			{
				"type": "occ",
				"energy": -0.34882,
				"method": "rhf"
			},
			{
				"type": "occ",
				"energy": -0.24977,
				"method": "rhf"
			},
			{
				"type": "occ",
				"energy": -0.23839,
				"method": "rhf"
			},
			{
				"type": "occ",
				"energy": -0.2326,
				"method": "rhf"
			},
			{
				"type": "occ",
				"energy": -0.21182,
				"method": "rhf"
			},
			{
				"type": "unocc",
				"energy": -0.0118,
				"method": "rhf"
			},
			{
				"type": "unocc",
				"energy": 0.05934,
				"method": "rhf"
			},
			{
				"type": "unocc",
				"energy": 0.08881,
				"method": "rhf"
			},
			{
				"type": "unocc",
				"energy": 0.10658,
				"method": "rhf"
			},
			{
				"type": "unocc",
				"energy": 0.11515,
				"method": "rhf"
			}
		],
		"cosmo_sigma_profile": { 
			"-0.025": 0.0,
			"-0.024": 0.0,
			"-0.023": 0.0,
			"-0.022": 0.0,
			"-0.021": 0.0,
			"-0.02": 0.0,
			"-0.019": 0.0,
			"-0.018": 0.0,
			"-0.017": 0.0,
			"-0.016": 0.0,
			"-0.015": 0.0,
			"-0.014": 0.0613200510281,
			"-0.013": 0.848037155825,
			"-0.012": 1.11436084536,
			"-0.011": 0.710356915221,
			"-0.01": 1.16169398379,
			"-0.009": 1.0758586176,
			"-0.008": 1.65285922512,
			"-0.007": 3.59186756758,
			"-0.006": 8.1745533249,
			"-0.005": 12.2010153633,
			"-0.004": 15.689508127,
			"-0.003": 23.2343558404,
			"-0.002": 22.4033786702,
			"-0.001": 13.1224624299,
			"0.0": 10.4723121322,
			"0.001": 8.60455981541,
			"0.002": 9.23700238022,
			"0.003": 8.54375480943,
			"0.004": 7.14848211536,
			"0.005": 7.42973848163,
			"0.006": 6.95771534609,
			"0.007": 5.34269023793,
			"0.008": 1.78082202329,
			"0.009": 2.04826820385,
			"0.01": 1.38365409864,
			"0.011": 1.49496807797,
			"0.012": 1.62894823118,
			"0.013": 2.43494977818,
			"0.014": 3.99412498481,
			"0.015": 1.62889565826,
			"0.016": 0.036305917308,
			"0.017": 0.0,
			"0.018": 0.0,
			"0.019": 0.0,
			"0.02": 0.0,
			"0.021": 0.0,
			"0.022": 0.0,
			"0.023": 0.0,
			"0.024": 0.0,
			"0.025": 0.0
		}
	}
}
