{
	 "smiles": "[O-][N+](=O)C1=CC(=CC(=C1)C(=O)NCCBr)[N+]([O-])=O", 
	 "Tm": 413.15, 
	 "num_atms": 26, 
	 "gaussian": { 
		 "optdone": 1, 
		 "sigma_profile": "yes", 
		 "theory": "DFT", 
		 "functional": "B3LYP", 
		 "basiset": "6-31G**", 
		 "properties": { 
			 "R2extent": 10220.0002, 
			 "electric_dipole_moment_norm": 3.38034397954, 
			 "electric_quadrupole_moment_norm": 19.9416094664, 
			 "total_energy": -3459.37042571, 
			 "HOMO_LUMO_gap": 0.15873, 
			 "cosmo_polarized_energy": -21.6, 
			 "cosmo_cavitation_energy": 35.55, 
			 "cosmo_dispersion_energy": -25.68, 
			 "cosmo_repulsion_energy": 2.01, 
			 "cosmo_total_nonelectrostatic_energy": 11.88, 
			 "SMD_solvation_energy": 9.32 
		},
		"coords": [
			{
				"x": -2.7601710716,
				"y": -1.1094142841,
				"z": 2.4580564811,
				"element": "O" 
			},
			{
				"x": -2.1174299339,
				"y": -0.3490589689,
				"z": 3.1799980589,
				"element": "N" 
			},
			{
				"x": -2.4299231626,
				"y": -0.0165272323,
				"z": 4.3187927816,
				"element": "O" 
			},
			{
				"x": -0.8680547076,
				"y": 0.2115853811,
				"z": 2.626789623,
				"element": "C" 
			},
			{
				"x": -0.1157213033,
				"y": 1.073877303,
				"z": 3.4137468504,
				"element": "C" 
			},
			{
				"x": 1.0607085273,
				"y": 1.5668479269,
				"z": 2.8579493278,
				"element": "C" 
			},
			{
				"x": 1.4835797115,
				"y": 1.2273357464,
				"z": 1.5783822292,
				"element": "C" 
			},
			{
				"x": 0.6945172612,
				"y": 0.3704758406,
				"z": 0.8004381943,
				"element": "C" 
			},
			{
				"x": -0.4870259947,
				"y": -0.1500986462,
				"z": 1.3360513183,
				"element": "C" 
			},
			{
				"x": 1.2157296756,
				"y": 0.0315290014,
				"z": -0.5757487241,
				"element": "C" 
			},
			{
				"x": 2.3964357654,
				"y": 0.2031333248,
				"z": -0.8571183472,
				"element": "O" 
			},
			{
				"x": 0.3114841613,
				"y": -0.4617328213,
				"z": -1.4724115795,
				"element": "N" 
			},
			{
				"x": 0.7106063938,
				"y": -0.77644804,
				"z": -2.842146083,
				"element": "C" 
			},
			{
				"x": 1.3538912677,
				"y": -2.1602708296,
				"z": -2.9200218553,
				"element": "C" 
			},
			{
				"x": 1.8315649647,
				"y": -2.5784482191,
				"z": -4.7876617937,
				"element": "Br" 
			},
			{
				"x": 1.8917408439,
				"y": 2.483588382,
				"z": 3.6687561912,
				"element": "N" 
			},
			{
				"x": 2.9215344794,
				"y": 2.9106886422,
				"z": 3.1560523343,
				"element": "O" 
			},
			{
				"x": 1.4907298526,
				"y": 2.7529035859,
				"z": 4.7978993386,
				"element": "O" 
			},
			{
				"x": -0.4261603533,
				"y": 1.3448933942,
				"z": 4.4136206614,
				"element": "H" 
			},
			{
				"x": 2.4144426819,
				"y": 1.611506065,
				"z": 1.1801611553,
				"element": "H" 
			},
			{
				"x": -1.1149695305,
				"y": -0.8516852097,
				"z": 0.8006062418,
				"element": "H" 
			},
			{
				"x": -0.6698469593,
				"y": -0.4739963637,
				"z": -1.2427275049,
				"element": "H" 
			},
			{
				"x": -0.1756914716,
				"y": -0.7315635175,
				"z": -3.4788404191,
				"element": "H" 
			},
			{
				"x": 1.4235703247,
				"y": -0.0222041958,
				"z": -3.1835918751,
				"element": "H" 
			},
			{
				"x": 2.2800450602,
				"y": -2.1950457144,
				"z": -2.349079284,
				"element": "H" 
			},
			{
				"x": 0.6765135174,
				"y": -2.9488705509,
				"z": -2.5932533212,
				"element": "H" 
			}
		],
		 "valence_orbital": [ 
			{
				"type": "occ",
				"energy": -0.31498,
				"method": "rhf"
			},
			{
				"type": "occ",
				"energy": -0.29772,
				"method": "rhf"
			},
			{
				"type": "occ",
				"energy": -0.29034,
				"method": "rhf"
			},
			{
				"type": "occ",
				"energy": -0.28408,
				"method": "rhf"
			},
			{
				"type": "occ",
				"energy": -0.282,
				"method": "rhf"
			},
			{
				"type": "unocc",
				"energy": -0.12327,
				"method": "rhf"
			},
			{
				"type": "unocc",
				"energy": -0.11397,
				"method": "rhf"
			},
			{
				"type": "unocc",
				"energy": -0.07329,
				"method": "rhf"
			},
			{
				"type": "unocc",
				"energy": -0.02041,
				"method": "rhf"
			},
			{
				"type": "unocc",
				"energy": -0.01008,
				"method": "rhf"
			}
		],
		"cosmo_sigma_profile": { 
			"-0.025": 0.0,
			"-0.024": 0.0,
			"-0.023": 0.0,
			"-0.022": 0.0,
			"-0.021": 0.0,
			"-0.02": 0.0,
			"-0.019": 0.0,
			"-0.018": 0.0,
			"-0.017": 0.350707182119,
			"-0.016": 1.63136780484,
			"-0.015": 1.28565018033,
			"-0.014": 1.14087557038,
			"-0.013": 1.6356879379,
			"-0.012": 1.74748855802,
			"-0.011": 1.62943181633,
			"-0.01": 1.63578376452,
			"-0.009": 1.90705907489,
			"-0.008": 6.96610063247,
			"-0.007": 11.1806174721,
			"-0.006": 13.879411093,
			"-0.005": 18.120508701,
			"-0.004": 28.38872704,
			"-0.003": 27.2578787269,
			"-0.002": 17.3217738267,
			"-0.001": 13.2791544148,
			"0.0": 10.9942382021,
			"0.001": 9.91517417952,
			"0.002": 10.5260298339,
			"0.003": 10.1611634465,
			"0.004": 12.8133580192,
			"0.005": 17.3272163088,
			"0.006": 24.7537376356,
			"0.007": 16.4305797877,
			"0.008": 9.56532386936,
			"0.009": 7.10973417425,
			"0.01": 2.1396695197,
			"0.011": 1.73812755572,
			"0.012": 3.04962035301,
			"0.013": 2.1664026784,
			"0.014": 0.0,
			"0.015": 0.0,
			"0.016": 0.0,
			"0.017": 0.0,
			"0.018": 0.0,
			"0.019": 0.0,
			"0.02": 0.0,
			"0.021": 0.0,
			"0.022": 0.0,
			"0.023": 0.0,
			"0.024": 0.0,
			"0.025": 0.0
		}
	}
}
