{
	 "smiles": "CCOC1=C(OCC)C=C(C=C1)C(C)(C)C(O)=O", 
	 "Tm": 348.15, 
	 "num_atms": 38, 
	 "gaussian": { 
		 "optdone": 1, 
		 "sigma_profile": "yes", 
		 "theory": "DFT", 
		 "functional": "B3LYP", 
		 "basiset": "6-31G**", 
		 "properties": { 
			 "R2extent": 6140.2261, 
			 "electric_dipole_moment_norm": 1.90277397764, 
			 "electric_quadrupole_moment_norm": 7.89443837901, 
			 "total_energy": -846.447020689, 
			 "HOMO_LUMO_gap": 0.2174, 
			 "cosmo_polarized_energy": -11.77, 
			 "cosmo_cavitation_energy": 40.28, 
			 "cosmo_dispersion_energy": -27.2, 
			 "cosmo_repulsion_energy": 2.17, 
			 "cosmo_total_nonelectrostatic_energy": 15.24, 
			 "SMD_solvation_energy": 8.61 
		},
		"coords": [
			{
				"x": 1.3624681633,
				"y": 3.1038794792,
				"z": -3.7453983669,
				"element": "C" 
			},
			{
				"x": 0.7591782347,
				"y": 1.9570634764,
				"z": -2.9551218912,
				"element": "C" 
			},
			{
				"x": 1.0723515154,
				"y": 2.1701462551,
				"z": -1.5644507128,
				"element": "O" 
			},
			{
				"x": 0.599119223,
				"y": 1.2045799685,
				"z": -0.7048696513,
				"element": "C" 
			},
			{
				"x": -0.7696747023,
				"y": 1.0840685439,
				"z": -0.4097107837,
				"element": "C" 
			},
			{
				"x": -1.7091524441,
				"y": 1.8919288041,
				"z": -1.0123346658,
				"element": "O" 
			},
			{
				"x": -1.7031639783,
				"y": 3.2651226582,
				"z": -0.5740429939,
				"element": "C" 
			},
			{
				"x": -2.7993938741,
				"y": 3.9956512048,
				"z": -1.3279152476,
				"element": "C" 
			},
			{
				"x": -1.2062420325,
				"y": 0.1033268582,
				"z": 0.4840124474,
				"element": "C" 
			},
			{
				"x": -0.3067293754,
				"y": -0.7689125318,
				"z": 1.1065264207,
				"element": "C" 
			},
			{
				"x": 1.0599848674,
				"y": -0.6207126569,
				"z": 0.8229201677,
				"element": "C" 
			},
			{
				"x": 1.5035810164,
				"y": 0.3500354398,
				"z": -0.0722397931,
				"element": "C" 
			},
			{
				"x": -0.7679755595,
				"y": -1.8879414697,
				"z": 2.063493524,
				"element": "C" 
			},
			{
				"x": -0.4569477516,
				"y": -3.2650538395,
				"z": 1.4392981229,
				"element": "C" 
			},
			{
				"x": -2.269810459,
				"y": -1.8102863287,
				"z": 2.4033478859,
				"element": "C" 
			},
			{
				"x": 0.0540302814,
				"y": -1.7381601884,
				"z": 3.3515211727,
				"element": "C" 
			},
			{
				"x": -0.3889701877,
				"y": -0.7268443924,
				"z": 4.1367124878,
				"element": "O" 
			},
			{
				"x": 1.0148982418,
				"y": -2.4121668407,
				"z": 3.6579272298,
				"element": "O" 
			},
			{
				"x": 0.9329554683,
				"y": 4.0601302288,
				"z": -3.4322223592,
				"element": "H" 
			},
			{
				"x": 2.44509442,
				"y": 3.1493742157,
				"z": -3.5959033882,
				"element": "H" 
			},
			{
				"x": 1.1645117529,
				"y": 2.9700487327,
				"z": -4.8136210727,
				"element": "H" 
			},
			{
				"x": -0.3278266879,
				"y": 1.9096891958,
				"z": -3.08516186,
				"element": "H" 
			},
			{
				"x": 1.1845741366,
				"y": 0.9950186087,
				"z": -3.2735022661,
				"element": "H" 
			},
			{
				"x": -0.7203076664,
				"y": 3.709396484,
				"z": -0.7673177261,
				"element": "H" 
			},
			{
				"x": -1.8853832994,
				"y": 3.2947380441,
				"z": 0.5093502948,
				"element": "H" 
			},
			{
				"x": -2.6128538593,
				"y": 3.9712904141,
				"z": -2.4056811481,
				"element": "H" 
			},
			{
				"x": -2.8426332718,
				"y": 5.0418622791,
				"z": -1.0089010819,
				"element": "H" 
			},
			{
				"x": -3.7729705722,
				"y": 3.5343752538,
				"z": -1.1383565014,
				"element": "H" 
			},
			{
				"x": -2.272404023,
				"y": 0.0522810711,
				"z": 0.6706525577,
				"element": "H" 
			},
			{
				"x": 1.7850227921,
				"y": -1.2695420526,
				"z": 1.3051202699,
				"element": "H" 
			},
			{
				"x": 2.5596517842,
				"y": 0.4634775537,
				"z": -0.2968643017,
				"element": "H" 
			},
			{
				"x": -0.7667936395,
				"y": -4.0721362425,
				"z": 2.1104970922,
				"element": "H" 
			},
			{
				"x": -0.9980600545,
				"y": -3.3693465241,
				"z": 0.4944209201,
				"element": "H" 
			},
			{
				"x": 0.6098855215,
				"y": -3.3845257717,
				"z": 1.2458102253,
				"element": "H" 
			},
			{
				"x": -2.5422725025,
				"y": -0.8458716867,
				"z": 2.8356093696,
				"element": "H" 
			},
			{
				"x": -2.5307591856,
				"y": -2.5905323109,
				"z": 3.1248873023,
				"element": "H" 
			},
			{
				"x": -2.8706786612,
				"y": -1.9782123419,
				"z": 1.5047709336,
				"element": "H" 
			},
			{
				"x": 0.216396369,
				"y": -0.6970395914,
				"z": 4.8965373871,
				"element": "H" 
			}
		],
		 "valence_orbital": [ 
			{
				"type": "occ",
				"energy": -0.29173,
				"method": "rhf"
			},
			{
				"type": "occ",
				"energy": -0.27005,
				"method": "rhf"
			},
			{
				"type": "occ",
				"energy": -0.25908,
				"method": "rhf"
			},
			{
				"type": "occ",
				"energy": -0.24175,
				"method": "rhf"
			},
			{
				"type": "occ",
				"energy": -0.22381,
				"method": "rhf"
			},
			{
				"type": "unocc",
				"energy": -0.00641,
				"method": "rhf"
			},
			{
				"type": "unocc",
				"energy": 0.00076,
				"method": "rhf"
			},
			{
				"type": "unocc",
				"energy": 0.02146,
				"method": "rhf"
			},
			{
				"type": "unocc",
				"energy": 0.07713,
				"method": "rhf"
			},
			{
				"type": "unocc",
				"energy": 0.08375,
				"method": "rhf"
			}
		],
		"cosmo_sigma_profile": { 
			"-0.025": 0.0,
			"-0.024": 0.0,
			"-0.023": 0.0,
			"-0.022": 0.0,
			"-0.021": 0.0,
			"-0.02": 0.0,
			"-0.019": 0.0548263909719,
			"-0.018": 0.765081238783,
			"-0.017": 0.822630370549,
			"-0.016": 0.795912886156,
			"-0.015": 0.992135568603,
			"-0.014": 0.167068935363,
			"-0.013": 0.373695197716,
			"-0.012": 1.34541511173,
			"-0.011": 0.936605693834,
			"-0.01": 0.686218653345,
			"-0.009": 0.289619546535,
			"-0.008": 0.543024672029,
			"-0.007": 1.00317738917,
			"-0.006": 2.97483430746,
			"-0.005": 8.44132872259,
			"-0.004": 27.4402749577,
			"-0.003": 40.1897914313,
			"-0.002": 38.292729104,
			"-0.001": 36.5499310025,
			"0.0": 39.1982335408,
			"0.001": 25.5549031156,
			"0.002": 12.6396301555,
			"0.003": 14.9835338705,
			"0.004": 14.7452555478,
			"0.005": 10.6731385541,
			"0.006": 5.78866400903,
			"0.007": 5.37775089913,
			"0.008": 4.90111717592,
			"0.009": 4.25561772335,
			"0.01": 3.82325653881,
			"0.011": 5.00476128881,
			"0.012": 5.1484629999,
			"0.013": 0.200462126205,
			"0.014": 0.0,
			"0.015": 0.0,
			"0.016": 0.0,
			"0.017": 0.0,
			"0.018": 0.0,
			"0.019": 0.0,
			"0.02": 0.0,
			"0.021": 0.0,
			"0.022": 0.0,
			"0.023": 0.0,
			"0.024": 0.0,
			"0.025": 0.0
		}
	}
}
