{
	 "smiles": "CCOC(=O)C1=C(N=C(N)S1)C1=CC=CC=C1", 
	 "Tm": 444.65, 
	 "num_atms": 29, 
	 "gaussian": { 
		 "optdone": 1, 
		 "sigma_profile": "yes", 
		 "theory": "DFT", 
		 "functional": "B3LYP", 
		 "basiset": "6-31G**", 
		 "properties": { 
			 "R2extent": 6242.6094, 
			 "electric_dipole_moment_norm": 3.42213814157, 
			 "electric_quadrupole_moment_norm": 18.0043209311, 
			 "total_energy": -1122.66631564, 
			 "HOMO_LUMO_gap": 0.15795, 
			 "cosmo_polarized_energy": -14.94, 
			 "cosmo_cavitation_energy": 34.82, 
			 "cosmo_dispersion_energy": -25.79, 
			 "cosmo_repulsion_energy": 2.0, 
			 "cosmo_total_nonelectrostatic_energy": 11.03, 
			 "SMD_solvation_energy": 5.39 
		},
		"coords": [
			{
				"x": 0.7520031142,
				"y": -2.5630063646,
				"z": -1.5830224945,
				"element": "C" 
			},
			{
				"x": -0.5414090292,
				"y": -1.7979342341,
				"z": -1.8216764385,
				"element": "C" 
			},
			{
				"x": -0.3482521365,
				"y": -0.3738761379,
				"z": -1.6705174911,
				"element": "O" 
			},
			{
				"x": -0.4423022649,
				"y": 0.1231548481,
				"z": -0.4038968392,
				"element": "C" 
			},
			{
				"x": -0.6840946303,
				"y": -0.5781873505,
				"z": 0.5628360492,
				"element": "O" 
			},
			{
				"x": -0.21222474,
				"y": 1.568261978,
				"z": -0.4112366095,
				"element": "C" 
			},
			{
				"x": -0.0980752791,
				"y": 2.5006507914,
				"z": 0.6162231982,
				"element": "C" 
			},
			{
				"x": 0.2832027628,
				"y": 3.762248022,
				"z": 0.2117213332,
				"element": "N" 
			},
			{
				"x": 0.4411952787,
				"y": 3.8333389338,
				"z": -1.0845164141,
				"element": "C" 
			},
			{
				"x": 0.7459523182,
				"y": 4.9996900795,
				"z": -1.7279853857,
				"element": "N" 
			},
			{
				"x": 0.1481196696,
				"y": 2.3459536138,
				"z": -1.9599673,
				"element": "S" 
			},
			{
				"x": -0.3069857338,
				"y": 2.3281221427,
				"z": 2.0724109331,
				"element": "C" 
			},
			{
				"x": -1.2393867323,
				"y": 1.4297661177,
				"z": 2.6157029109,
				"element": "C" 
			},
			{
				"x": -1.4192480815,
				"y": 1.3498532733,
				"z": 3.9957725093,
				"element": "C" 
			},
			{
				"x": -0.6741574407,
				"y": 2.1574069328,
				"z": 4.8562565301,
				"element": "C" 
			},
			{
				"x": 0.2496569588,
				"y": 3.0607834668,
				"z": 4.3257067063,
				"element": "C" 
			},
			{
				"x": 0.4241828197,
				"y": 3.1531796823,
				"z": 2.9477958831,
				"element": "C" 
			},
			{
				"x": 1.5445019022,
				"y": -2.2055138962,
				"z": -2.2471372792,
				"element": "H" 
			},
			{
				"x": 1.0787748608,
				"y": -2.447996209,
				"z": -0.5467938466,
				"element": "H" 
			},
			{
				"x": 0.5945006038,
				"y": -3.6292662205,
				"z": -1.777789718,
				"element": "H" 
			},
			{
				"x": -1.3230524724,
				"y": -2.1221510527,
				"z": -1.1305194148,
				"element": "H" 
			},
			{
				"x": -0.8932586796,
				"y": -1.9159155864,
				"z": -2.849536689,
				"element": "H" 
			},
			{
				"x": 1.1932156013,
				"y": 4.9528165594,
				"z": -2.6305339877,
				"element": "H" 
			},
			{
				"x": 1.0572201573,
				"y": 5.7443978458,
				"z": -1.1198655082,
				"element": "H" 
			},
			{
				"x": -1.8151029247,
				"y": 0.7908076682,
				"z": 1.9612629936,
				"element": "H" 
			},
			{
				"x": -2.148105851,
				"y": 0.6523143045,
				"z": 4.3983678365,
				"element": "H" 
			},
			{
				"x": -0.8150340057,
				"y": 2.0871724881,
				"z": 5.9312771231,
				"element": "H" 
			},
			{
				"x": 0.831370039,
				"y": 3.6981009609,
				"z": 4.9858012581,
				"element": "H" 
			},
			{
				"x": 1.1247939154,
				"y": 3.8666273427,
				"z": 2.5294601514,
				"element": "H" 
			}
		],
		 "valence_orbital": [ 
			{
				"type": "occ",
				"energy": -0.27701,
				"method": "rhf"
			},
			{
				"type": "occ",
				"energy": -0.26912,
				"method": "rhf"
			},
			{
				"type": "occ",
				"energy": -0.24436,
				"method": "rhf"
			},
			{
				"type": "occ",
				"energy": -0.23917,
				"method": "rhf"
			},
			{
				"type": "occ",
				"energy": -0.21094,
				"method": "rhf"
			},
			{
				"type": "unocc",
				"energy": -0.05299,
				"method": "rhf"
			},
			{
				"type": "unocc",
				"energy": 0.00198,
				"method": "rhf"
			},
			{
				"type": "unocc",
				"energy": 0.01207,
				"method": "rhf"
			},
			{
				"type": "unocc",
				"energy": 0.01488,
				"method": "rhf"
			},
			{
				"type": "unocc",
				"energy": 0.03871,
				"method": "rhf"
			}
		],
		"cosmo_sigma_profile": { 
			"-0.025": 0.0,
			"-0.024": 0.0,
			"-0.023": 0.0,
			"-0.022": 0.0,
			"-0.021": 0.0,
			"-0.02": 0.0,
			"-0.019": 0.0,
			"-0.018": 0.0,
			"-0.017": 0.0,
			"-0.016": 0.203580712914,
			"-0.015": 1.52174538451,
			"-0.014": 3.42053491775,
			"-0.013": 2.0209637419,
			"-0.012": 2.87615988405,
			"-0.011": 2.74972960881,
			"-0.01": 1.62078624677,
			"-0.009": 2.30748443377,
			"-0.008": 1.74828516741,
			"-0.007": 1.10039073408,
			"-0.006": 7.41862488159,
			"-0.005": 13.23840146,
			"-0.004": 19.346362342,
			"-0.003": 22.6468634812,
			"-0.002": 22.0027958619,
			"-0.001": 20.4116364015,
			"0.0": 23.7576839081,
			"0.001": 24.1053087125,
			"0.002": 20.4397831459,
			"0.003": 19.3347806311,
			"0.004": 18.5985213701,
			"0.005": 18.4706155843,
			"0.006": 9.51299118616,
			"0.007": 4.14250001034,
			"0.008": 3.90827728119,
			"0.009": 3.5674747913,
			"0.01": 2.38948279476,
			"0.011": 3.57942401164,
			"0.012": 2.86322622613,
			"0.013": 0.531317128495,
			"0.014": 0.0142496938473,
			"0.015": 0.0,
			"0.016": 0.0,
			"0.017": 0.0,
			"0.018": 0.0,
			"0.019": 0.0,
			"0.02": 0.0,
			"0.021": 0.0,
			"0.022": 0.0,
			"0.023": 0.0,
			"0.024": 0.0,
			"0.025": 0.0
		}
	}
}
