{
	 "smiles": "COC(=O)NC1=NC2=C(N1)C=C(C=C2)C(=O)C1=CC=CS1", 
	 "Tm": 575.15, 
	 "num_atms": 32, 
	 "gaussian": { 
		 "optdone": 1, 
		 "sigma_profile": "yes", 
		 "theory": "DFT", 
		 "functional": "B3LYP", 
		 "basiset": "6-31G**", 
		 "properties": { 
			 "R2extent": 11381.531, 
			 "electric_dipole_moment_norm": 0.401239417306, 
			 "electric_quadrupole_moment_norm": 16.883672142, 
			 "total_energy": -1328.2430424, 
			 "HOMO_LUMO_gap": 0.15708, 
			 "cosmo_polarized_energy": -25.66, 
			 "cosmo_cavitation_energy": 39.74, 
			 "cosmo_dispersion_energy": -29.5, 
			 "cosmo_repulsion_energy": 2.2, 
			 "cosmo_total_nonelectrostatic_energy": 12.45, 
			 "SMD_solvation_energy": 7.15 
		},
		"coords": [
			{
				"x": -1.0178875474,
				"y": 5.6676631294,
				"z": -1.5195034881,
				"element": "C" 
			},
			{
				"x": -0.2674092673,
				"y": 4.5337425549,
				"z": -1.0536384809,
				"element": "O" 
			},
			{
				"x": 1.0317551364,
				"y": 4.7686746718,
				"z": -0.852589483,
				"element": "C" 
			},
			{
				"x": 1.597012658,
				"y": 5.8343228116,
				"z": -0.9978786772,
				"element": "O" 
			},
			{
				"x": 1.7168967006,
				"y": 3.6428122469,
				"z": -0.4022335276,
				"element": "N" 
			},
			{
				"x": 1.3105595827,
				"y": 2.3165446405,
				"z": -0.3515030117,
				"element": "C" 
			},
			{
				"x": 0.3505946997,
				"y": 1.7457232698,
				"z": -1.0331844903,
				"element": "N" 
			},
			{
				"x": 0.3706652118,
				"y": 0.4228984505,
				"z": -0.6188596323,
				"element": "C" 
			},
			{
				"x": 1.401478221,
				"y": 0.2060741484,
				"z": 0.3314247727,
				"element": "C" 
			},
			{
				"x": 2.002558451,
				"y": 1.4519373608,
				"z": 0.4770243978,
				"element": "N" 
			},
			{
				"x": 1.6474203054,
				"y": -1.0288096436,
				"z": 0.9072803416,
				"element": "C" 
			},
			{
				"x": 0.8389811655,
				"y": -2.1023600178,
				"z": 0.4976701157,
				"element": "C" 
			},
			{
				"x": -0.1980516894,
				"y": -1.8969158882,
				"z": -0.4425397041,
				"element": "C" 
			},
			{
				"x": -0.4435189032,
				"y": -0.6470069142,
				"z": -1.0031538155,
				"element": "C" 
			},
			{
				"x": 1.100754555,
				"y": -3.4162395344,
				"z": 1.161282413,
				"element": "C" 
			},
			{
				"x": 1.6140444611,
				"y": -3.4498323431,
				"z": 2.2788347842,
				"element": "O" 
			},
			{
				"x": 0.7824058632,
				"y": -4.7052209698,
				"z": 0.4953056384,
				"element": "C" 
			},
			{
				"x": 0.761282472,
				"y": -5.9152937363,
				"z": 1.1570789153,
				"element": "C" 
			},
			{
				"x": 0.5304018315,
				"y": -7.0259338029,
				"z": 0.3059148704,
				"element": "C" 
			},
			{
				"x": 0.3977378905,
				"y": -6.6594935382,
				"z": -1.0101809607,
				"element": "C" 
			},
			{
				"x": 0.5368255787,
				"y": -4.9519570801,
				"z": -1.2232589881,
				"element": "S" 
			},
			{
				"x": -0.6134288071,
				"y": 6.0330045062,
				"z": -2.466168333,
				"element": "H" 
			},
			{
				"x": -0.9913628144,
				"y": 6.4755004782,
				"z": -0.7842086834,
				"element": "H" 
			},
			{
				"x": -2.0352128084,
				"y": 5.3017029863,
				"z": -1.6526674501,
				"element": "H" 
			},
			{
				"x": 2.6916541384,
				"y": 3.8431819609,
				"z": -0.2281794574,
				"element": "H" 
			},
			{
				"x": 2.6686537352,
				"y": 1.7135454284,
				"z": 1.187592499,
				"element": "H" 
			},
			{
				"x": 2.4182797817,
				"y": -1.1990777057,
				"z": 1.6508322762,
				"element": "H" 
			},
			{
				"x": -0.8470954471,
				"y": -2.7233797587,
				"z": -0.7068799992,
				"element": "H" 
			},
			{
				"x": -1.2502548117,
				"y": -0.4935517374,
				"z": -1.7118237828,
				"element": "H" 
			},
			{
				"x": 0.9194564169,
				"y": -5.9715275735,
				"z": 2.2269768157,
				"element": "H" 
			},
			{
				"x": 0.4711741019,
				"y": -8.0525587391,
				"z": 0.6485891351,
				"element": "H" 
			},
			{
				"x": 0.2236291382,
				"y": -7.2967696616,
				"z": -1.8668550099,
				"element": "H" 
			}
		],
		 "valence_orbital": [ 
			{
				"type": "occ",
				"energy": -0.25883,
				"method": "rhf"
			},
			{
				"type": "occ",
				"energy": -0.25245,
				"method": "rhf"
			},
			{
				"type": "occ",
				"energy": -0.24021,
				"method": "rhf"
			},
			{
				"type": "occ",
				"energy": -0.23569,
				"method": "rhf"
			},
			{
				"type": "occ",
				"energy": -0.22242,
				"method": "rhf"
			},
			{
				"type": "unocc",
				"energy": -0.06534,
				"method": "rhf"
			},
			{
				"type": "unocc",
				"energy": -0.02324,
				"method": "rhf"
			},
			{
				"type": "unocc",
				"energy": -0.00254,
				"method": "rhf"
			},
			{
				"type": "unocc",
				"energy": 0.01929,
				"method": "rhf"
			},
			{
				"type": "unocc",
				"energy": 0.03442,
				"method": "rhf"
			}
		],
		"cosmo_sigma_profile": { 
			"-0.025": 0.0,
			"-0.024": 0.0,
			"-0.023": 0.0,
			"-0.022": 0.0,
			"-0.021": 0.0,
			"-0.02": 0.0,
			"-0.019": 0.0634544970187,
			"-0.018": 1.55012532092,
			"-0.017": 3.34356595349,
			"-0.016": 2.86417520148,
			"-0.015": 1.67766146562,
			"-0.014": 1.8836287225,
			"-0.013": 1.77644102437,
			"-0.012": 1.9547907635,
			"-0.011": 1.21582987364,
			"-0.01": 1.79926331583,
			"-0.009": 3.65462727286,
			"-0.008": 4.32411512206,
			"-0.007": 8.97966338935,
			"-0.006": 15.4126747127,
			"-0.005": 18.874485482,
			"-0.004": 20.29783916,
			"-0.003": 19.9011424568,
			"-0.002": 20.1327835264,
			"-0.001": 20.4528480384,
			"0.0": 19.3345965264,
			"0.001": 21.6382516948,
			"0.002": 27.0137057027,
			"0.003": 27.9693483112,
			"0.004": 18.6274396872,
			"0.005": 6.84103913765,
			"0.006": 5.79773427897,
			"0.007": 4.20756482886,
			"0.008": 4.08464677372,
			"0.009": 5.2032239946,
			"0.01": 4.71096293381,
			"0.011": 6.09120739227,
			"0.012": 11.8157693498,
			"0.013": 3.40370796284,
			"0.014": 1.23541761607,
			"0.015": 1.16428739676,
			"0.016": 1.19030310846,
			"0.017": 0.812000277824,
			"0.018": 0.0,
			"0.019": 0.0,
			"0.02": 0.0,
			"0.021": 0.0,
			"0.022": 0.0,
			"0.023": 0.0,
			"0.024": 0.0,
			"0.025": 0.0
		}
	}
}
