{
	 "smiles": "ClC1=NN=C(C=C1)C(C#N)C1=C(Cl)C=CC=C1Cl", 
	 "Tm": 401.15, 
	 "num_atms": 24, 
	 "gaussian": { 
		 "optdone": 1, 
		 "sigma_profile": "yes", 
		 "theory": "DFT", 
		 "functional": "B3LYP", 
		 "basiset": "6-31G**", 
		 "properties": { 
			 "R2extent": 6412.4698, 
			 "electric_dipole_moment_norm": 1.45021430485, 
			 "electric_quadrupole_moment_norm": 29.3462981188, 
			 "total_energy": -2005.65077492, 
			 "HOMO_LUMO_gap": 0.18337, 
			 "cosmo_polarized_energy": -15.28, 
			 "cosmo_cavitation_energy": 35.31, 
			 "cosmo_dispersion_energy": -24.47, 
			 "cosmo_repulsion_energy": 1.9, 
			 "cosmo_total_nonelectrostatic_energy": 12.74, 
			 "SMD_solvation_energy": 4.67 
		},
		"coords": [
			{
				"x": -0.4621583996,
				"y": -3.5593447543,
				"z": -4.1349921715,
				"element": "Cl" 
			},
			{
				"x": -0.9203099558,
				"y": -2.4017759781,
				"z": -2.9077796365,
				"element": "C" 
			},
			{
				"x": -0.5451987165,
				"y": -2.6844643443,
				"z": -1.6695331618,
				"element": "N" 
			},
			{
				"x": -0.8651790192,
				"y": -1.8379885245,
				"z": -0.6895268652,
				"element": "N" 
			},
			{
				"x": -1.5473204576,
				"y": -0.7247611036,
				"z": -0.9603221314,
				"element": "C" 
			},
			{
				"x": -1.9695673795,
				"y": -0.3871852792,
				"z": -2.2546414435,
				"element": "C" 
			},
			{
				"x": -1.6439171302,
				"y": -1.2599792776,
				"z": -3.274191252,
				"element": "C" 
			},
			{
				"x": -1.8823413947,
				"y": 0.1084786359,
				"z": 0.284546339,
				"element": "C" 
			},
			{
				"x": -2.5586491179,
				"y": 1.3724212598,
				"z": -0.0451642161,
				"element": "C" 
			},
			{
				"x": -3.1315970615,
				"y": 2.3478238247,
				"z": -0.3039516585,
				"element": "N" 
			},
			{
				"x": -0.6935407358,
				"y": 0.319226178,
				"z": 1.2217286486,
				"element": "C" 
			},
			{
				"x": -0.6881367792,
				"y": -0.2123305399,
				"z": 2.5236726371,
				"element": "C" 
			},
			{
				"x": -2.05793737,
				"y": -1.1372120167,
				"z": 3.1264956886,
				"element": "Cl" 
			},
			{
				"x": 0.3870213089,
				"y": -0.0388389706,
				"z": 3.3939106403,
				"element": "C" 
			},
			{
				"x": 1.4972219068,
				"y": 0.686874161,
				"z": 2.9730365732,
				"element": "C" 
			},
			{
				"x": 1.5323180687,
				"y": 1.2350287934,
				"z": 1.6938912082,
				"element": "C" 
			},
			{
				"x": 0.4466602498,
				"y": 1.0484954051,
				"z": 0.841250002,
				"element": "C" 
			},
			{
				"x": 0.5466822717,
				"y": 1.7636562499,
				"z": -0.7588351585,
				"element": "Cl" 
			},
			{
				"x": -2.5226937475,
				"y": 0.5265738768,
				"z": -2.4436750055,
				"element": "H" 
			},
			{
				"x": -1.9238014981,
				"y": -1.0804530123,
				"z": -4.3056512183,
				"element": "H" 
			},
			{
				"x": -2.6192333254,
				"y": -0.4793780959,
				"z": 0.843233362,
				"element": "H" 
			},
			{
				"x": 0.3456075132,
				"y": -0.4717062152,
				"z": 4.3863056359,
				"element": "H" 
			},
			{
				"x": 2.3384750791,
				"y": 0.8259510225,
				"z": 3.6443779931,
				"element": "H" 
			},
			{
				"x": 2.3883956904,
				"y": 1.803988705,
				"z": 1.3509151908,
				"element": "H" 
			}
		],
		 "valence_orbital": [ 
			{
				"type": "occ",
				"energy": -0.3231,
				"method": "rhf"
			},
			{
				"type": "occ",
				"energy": -0.28761,
				"method": "rhf"
			},
			{
				"type": "occ",
				"energy": -0.27733,
				"method": "rhf"
			},
			{
				"type": "occ",
				"energy": -0.26448,
				"method": "rhf"
			},
			{
				"type": "occ",
				"energy": -0.25844,
				"method": "rhf"
			},
			{
				"type": "unocc",
				"energy": -0.07507,
				"method": "rhf"
			},
			{
				"type": "unocc",
				"energy": -0.05371,
				"method": "rhf"
			},
			{
				"type": "unocc",
				"energy": -0.04358,
				"method": "rhf"
			},
			{
				"type": "unocc",
				"energy": -0.03705,
				"method": "rhf"
			},
			{
				"type": "unocc",
				"energy": -0.01084,
				"method": "rhf"
			}
		],
		"cosmo_sigma_profile": { 
			"-0.025": 0.0,
			"-0.024": 0.0,
			"-0.023": 0.0,
			"-0.022": 0.0,
			"-0.021": 0.0,
			"-0.02": 0.0,
			"-0.019": 0.0,
			"-0.018": 0.0,
			"-0.017": 0.0,
			"-0.016": 0.0,
			"-0.015": 0.0,
			"-0.014": 0.0,
			"-0.013": 0.0,
			"-0.012": 0.0,
			"-0.011": 0.76871646199,
			"-0.01": 3.91377156553,
			"-0.009": 5.49231462717,
			"-0.008": 10.8988942581,
			"-0.007": 11.3701276671,
			"-0.006": 12.3173689606,
			"-0.005": 10.4501014256,
			"-0.004": 15.2772054078,
			"-0.003": 19.9259011353,
			"-0.002": 20.9001976941,
			"-0.001": 22.3001903497,
			"0.0": 26.2102948569,
			"0.001": 24.7884502816,
			"0.002": 25.7931085236,
			"0.003": 25.5876359822,
			"0.004": 14.2805859933,
			"0.005": 6.46133187839,
			"0.006": 4.83988512851,
			"0.007": 5.50816497135,
			"0.008": 4.31829117815,
			"0.009": 5.76977255974,
			"0.01": 4.70531886559,
			"0.011": 4.99044528227,
			"0.012": 3.74935170559,
			"0.013": 1.82393564417,
			"0.014": 0.418875310773,
			"0.015": 0.0,
			"0.016": 0.0,
			"0.017": 0.0,
			"0.018": 0.0,
			"0.019": 0.0,
			"0.02": 0.0,
			"0.021": 0.0,
			"0.022": 0.0,
			"0.023": 0.0,
			"0.024": 0.0,
			"0.025": 0.0
		}
	}
}
