{
	 "smiles": "CC1=CSC(NC2CC2)=N1", 
	 "Tm": 338.15, 
	 "num_atms": 20, 
	 "gaussian": { 
		 "optdone": 1, 
		 "sigma_profile": "yes", 
		 "theory": "DFT", 
		 "functional": "B3LYP", 
		 "basiset": "6-31G**", 
		 "properties": { 
			 "R2extent": 2134.7358, 
			 "electric_dipole_moment_norm": 1.595736576, 
			 "electric_quadrupole_moment_norm": 8.238867725, 
			 "total_energy": -780.428830129, 
			 "HOMO_LUMO_gap": 0.20541, 
			 "cosmo_polarized_energy": -7.55, 
			 "cosmo_cavitation_energy": 24.8, 
			 "cosmo_dispersion_energy": -18.85, 
			 "cosmo_repulsion_energy": 1.5, 
			 "cosmo_total_nonelectrostatic_energy": 7.45, 
			 "SMD_solvation_energy": 1.83 
		},
		"coords": [
			{
				"x": 3.1748865196,
				"y": 1.21612367,
				"z": 1.9622470899,
				"element": "C" 
			},
			{
				"x": 2.2881062668,
				"y": 0.5795953968,
				"z": 0.9332302144,
				"element": "C" 
			},
			{
				"x": 2.6719996699,
				"y": 0.1842313877,
				"z": -0.3130410906,
				"element": "C" 
			},
			{
				"x": 1.3175436228,
				"y": -0.5073446105,
				"z": -1.180765415,
				"element": "S" 
			},
			{
				"x": 0.3266452654,
				"y": -0.1948475564,
				"z": 0.2527220058,
				"element": "C" 
			},
			{
				"x": -0.9976902153,
				"y": -0.561421235,
				"z": 0.3031618513,
				"element": "N" 
			},
			{
				"x": -1.7672336498,
				"y": -0.7894218642,
				"z": -0.8845896991,
				"element": "C" 
			},
			{
				"x": -1.6910464603,
				"y": -2.1539003237,
				"z": -1.535466639,
				"element": "C" 
			},
			{
				"x": -2.928569784,
				"y": -1.7415414656,
				"z": -0.7814073154,
				"element": "C" 
			},
			{
				"x": 0.9550889862,
				"y": 0.3676986597,
				"z": 1.2464201632,
				"element": "N" 
			},
			{
				"x": 4.1955632454,
				"y": 1.3327860741,
				"z": 1.5895003788,
				"element": "H" 
			},
			{
				"x": 2.7927592263,
				"y": 2.203409587,
				"z": 2.2445442425,
				"element": "H" 
			},
			{
				"x": 3.2050931088,
				"y": 0.6102483574,
				"z": 2.8746163845,
				"element": "H" 
			},
			{
				"x": 3.6454415092,
				"y": 0.2554672016,
				"z": -0.7757321809,
				"element": "H" 
			},
			{
				"x": -1.4796734333,
				"y": -0.1381900855,
				"z": 1.0873442009,
				"element": "H" 
			},
			{
				"x": -1.8829514988,
				"y": 0.0654652128,
				"z": -1.5539710841,
				"element": "H" 
			},
			{
				"x": -1.0393989497,
				"y": -2.8840987417,
				"z": -1.0681509263,
				"element": "H" 
			},
			{
				"x": -1.7288359518,
				"y": -2.1983537219,
				"z": -2.619127877,
				"element": "H" 
			},
			{
				"x": -3.8278203767,
				"y": -1.5028121705,
				"z": -1.340038336,
				"element": "H" 
			},
			{
				"x": -3.1019071006,
				"y": -2.205093772,
				"z": 0.1847040319,
				"element": "H" 
			}
		],
		 "valence_orbital": [ 
			{
				"type": "occ",
				"energy": -0.30623,
				"method": "rhf"
			},
			{
				"type": "occ",
				"energy": -0.28714,
				"method": "rhf"
			},
			{
				"type": "occ",
				"energy": -0.26245,
				"method": "rhf"
			},
			{
				"type": "occ",
				"energy": -0.25678,
				"method": "rhf"
			},
			{
				"type": "occ",
				"energy": -0.19604,
				"method": "rhf"
			},
			{
				"type": "unocc",
				"energy": 0.00937,
				"method": "rhf"
			},
			{
				"type": "unocc",
				"energy": 0.03022,
				"method": "rhf"
			},
			{
				"type": "unocc",
				"energy": 0.06828,
				"method": "rhf"
			},
			{
				"type": "unocc",
				"energy": 0.08488,
				"method": "rhf"
			},
			{
				"type": "unocc",
				"energy": 0.09724,
				"method": "rhf"
			}
		],
		"cosmo_sigma_profile": { 
			"-0.025": 0.0,
			"-0.024": 0.0,
			"-0.023": 0.0,
			"-0.022": 0.0,
			"-0.021": 0.0,
			"-0.02": 0.0,
			"-0.019": 0.0,
			"-0.018": 0.0,
			"-0.017": 0.0,
			"-0.016": 0.0,
			"-0.015": 0.0,
			"-0.014": 0.155152053271,
			"-0.013": 0.869224555562,
			"-0.012": 1.07370552194,
			"-0.011": 0.786759977668,
			"-0.01": 0.476568746652,
			"-0.009": 0.862342530558,
			"-0.008": 1.57467678204,
			"-0.007": 2.86691573536,
			"-0.006": 3.82524100608,
			"-0.005": 13.4467483877,
			"-0.004": 18.1485133378,
			"-0.003": 16.6987157244,
			"-0.002": 18.0268334488,
			"-0.001": 17.4766255209,
			"0.0": 19.2497259338,
			"0.001": 13.5637095262,
			"0.002": 15.2281660908,
			"0.003": 12.7326727632,
			"0.004": 12.2332607779,
			"0.005": 11.2547845059,
			"0.006": 5.56120821378,
			"0.007": 2.49298928439,
			"0.008": 1.71819848143,
			"0.009": 1.32265008699,
			"0.01": 1.15735767354,
			"0.011": 1.2418078154,
			"0.012": 0.879829917752,
			"0.013": 0.562508383213,
			"0.014": 1.12245318343,
			"0.015": 1.07059349413,
			"0.016": 0.402317128341,
			"0.017": 0.0,
			"0.018": 0.0,
			"0.019": 0.0,
			"0.02": 0.0,
			"0.021": 0.0,
			"0.022": 0.0,
			"0.023": 0.0,
			"0.024": 0.0,
			"0.025": 0.0
		}
	}
}
