{
	 "smiles": "NC1=C(Cl)C=CC(=C1)N1CCNC1=O", 
	 "Tm": 498.15, 
	 "num_atms": 24, 
	 "gaussian": { 
		 "optdone": 1, 
		 "sigma_profile": "yes", 
		 "theory": "DFT", 
		 "functional": "B3LYP", 
		 "basiset": "6-31G**", 
		 "properties": { 
			 "R2extent": 4304.3404, 
			 "electric_dipole_moment_norm": 4.38402414455, 
			 "electric_quadrupole_moment_norm": 18.1097609335, 
			 "total_energy": -1048.68364842, 
			 "HOMO_LUMO_gap": 0.19696, 
			 "cosmo_polarized_energy": -16.0, 
			 "cosmo_cavitation_energy": 28.73, 
			 "cosmo_dispersion_energy": -21.99, 
			 "cosmo_repulsion_energy": 1.72, 
			 "cosmo_total_nonelectrostatic_energy": 8.46, 
			 "SMD_solvation_energy": 3.62 
		},
		"coords": [
			{
				"x": 0.7613912776,
				"y": -0.4981881094,
				"z": 3.0509541766,
				"element": "N" 
			},
			{
				"x": -0.2768388853,
				"y": -0.6337250861,
				"z": 2.1450858885,
				"element": "C" 
			},
			{
				"x": -1.5444476311,
				"y": -1.1058155216,
				"z": 2.5387217328,
				"element": "C" 
			},
			{
				"x": -1.8011379503,
				"y": -1.6204043714,
				"z": 4.208329558,
				"element": "Cl" 
			},
			{
				"x": -2.5924896019,
				"y": -1.1767124563,
				"z": 1.6315958204,
				"element": "C" 
			},
			{
				"x": -2.4131364959,
				"y": -0.7860328023,
				"z": 0.307043667,
				"element": "C" 
			},
			{
				"x": -1.1537700644,
				"y": -0.3211968941,
				"z": -0.1153810149,
				"element": "C" 
			},
			{
				"x": -0.1001093509,
				"y": -0.2537496339,
				"z": 0.8049773619,
				"element": "C" 
			},
			{
				"x": -0.9715484499,
				"y": 0.0449204592,
				"z": -1.4659549356,
				"element": "N" 
			},
			{
				"x": -2.0606318954,
				"y": -0.0218515679,
				"z": -2.4407435099,
				"element": "C" 
			},
			{
				"x": -1.3562538757,
				"y": 0.3230795444,
				"z": -3.7657360747,
				"element": "C" 
			},
			{
				"x": -0.229276208,
				"y": 1.1102352054,
				"z": -3.2913059908,
				"element": "N" 
			},
			{
				"x": 0.108847749,
				"y": 0.7653116022,
				"z": -1.9890920795,
				"element": "C" 
			},
			{
				"x": 1.1549492438,
				"y": 1.0578643699,
				"z": -1.4333983436,
				"element": "O" 
			},
			{
				"x": 0.6994422271,
				"y": -1.0608732736,
				"z": 3.8870409631,
				"element": "H" 
			},
			{
				"x": 1.6872728081,
				"y": -0.4529659712,
				"z": 2.6521083985,
				"element": "H" 
			},
			{
				"x": -3.5586136885,
				"y": -1.5406709326,
				"z": 1.9641971786,
				"element": "H" 
			},
			{
				"x": -3.2529998875,
				"y": -0.8423515156,
				"z": -0.3733417022,
				"element": "H" 
			},
			{
				"x": 0.8619385276,
				"y": 0.1178593234,
				"z": 0.478960249,
				"element": "H" 
			},
			{
				"x": -2.8448933985,
				"y": 0.7091035561,
				"z": -2.2005047261,
				"element": "H" 
			},
			{
				"x": -2.5120256239,
				"y": -1.0170443496,
				"z": -2.4655491625,
				"element": "H" 
			},
			{
				"x": -2.004469056,
				"y": 0.894317134,
				"z": -4.4359997524,
				"element": "H" 
			},
			{
				"x": -1.0351949613,
				"y": -0.5901466772,
				"z": -4.2876362013,
				"element": "H" 
			},
			{
				"x": 0.5492951914,
				"y": 1.323537968,
				"z": -3.8981715012,
				"element": "H" 
			}
		],
		 "valence_orbital": [ 
			{
				"type": "occ",
				"energy": -0.27748,
				"method": "rhf"
			},
			{
				"type": "occ",
				"energy": -0.26877,
				"method": "rhf"
			},
			{
				"type": "occ",
				"energy": -0.25759,
				"method": "rhf"
			},
			{
				"type": "occ",
				"energy": -0.21567,
				"method": "rhf"
			},
			{
				"type": "occ",
				"energy": -0.19833,
				"method": "rhf"
			},
			{
				"type": "unocc",
				"energy": -0.00137,
				"method": "rhf"
			},
			{
				"type": "unocc",
				"energy": 0.01372,
				"method": "rhf"
			},
			{
				"type": "unocc",
				"energy": 0.03903,
				"method": "rhf"
			},
			{
				"type": "unocc",
				"energy": 0.05917,
				"method": "rhf"
			},
			{
				"type": "unocc",
				"energy": 0.07451,
				"method": "rhf"
			}
		],
		"cosmo_sigma_profile": { 
			"-0.025": 0.0,
			"-0.024": 0.0,
			"-0.023": 0.0,
			"-0.022": 0.0,
			"-0.021": 0.0,
			"-0.02": 0.0,
			"-0.019": 0.0,
			"-0.018": 0.0,
			"-0.017": 0.0,
			"-0.016": 0.0,
			"-0.015": 0.00466152611354,
			"-0.014": 0.975763831813,
			"-0.013": 2.05556701815,
			"-0.012": 2.68086037862,
			"-0.011": 3.25264095472,
			"-0.01": 3.76570140414,
			"-0.009": 2.66068315133,
			"-0.008": 2.8207316227,
			"-0.007": 6.29606049091,
			"-0.006": 13.1982283585,
			"-0.005": 22.2771916821,
			"-0.004": 19.6025075754,
			"-0.003": 11.9901747632,
			"-0.002": 8.60582152406,
			"-0.001": 8.73550676174,
			"0.0": 10.7219661403,
			"0.001": 9.72484795369,
			"0.002": 11.9205984874,
			"0.003": 16.0958130383,
			"0.004": 20.2641240148,
			"0.005": 21.8894323069,
			"0.006": 7.73555531896,
			"0.007": 3.5673875518,
			"0.008": 2.74650055956,
			"0.009": 2.08275265177,
			"0.01": 2.52535991046,
			"0.011": 2.39067095599,
			"0.012": 3.41772164657,
			"0.013": 3.92182628152,
			"0.014": 2.40645644693,
			"0.015": 0.0703957344668,
			"0.016": 0.0,
			"0.017": 0.0,
			"0.018": 0.0,
			"0.019": 0.0,
			"0.02": 0.0,
			"0.021": 0.0,
			"0.022": 0.0,
			"0.023": 0.0,
			"0.024": 0.0,
			"0.025": 0.0
		}
	}
}
