{
	 "smiles": "CC1=C(NC(=O)C(C(F)(F)F)C(F)(F)F)C=CC=C1", 
	 "Tm": 467.15, 
	 "num_atms": 28, 
	 "gaussian": { 
		 "optdone": 1, 
		 "sigma_profile": "yes", 
		 "theory": "DFT", 
		 "functional": "B3LYP", 
		 "basiset": "6-31G**", 
		 "properties": { 
			 "R2extent": 6698.4823, 
			 "electric_dipole_moment_norm": 4.27645474196, 
			 "electric_quadrupole_moment_norm": 6.98436419368, 
			 "total_energy": -1153.64149829, 
			 "HOMO_LUMO_gap": 0.19908, 
			 "cosmo_polarized_energy": -12.74, 
			 "cosmo_cavitation_energy": 34.36, 
			 "cosmo_dispersion_energy": -23.47, 
			 "cosmo_repulsion_energy": 1.67, 
			 "cosmo_total_nonelectrostatic_energy": 12.56, 
			 "SMD_solvation_energy": 8.15 
		},
		"coords": [
			{
				"x": 0.4035953798,
				"y": 2.411857465,
				"z": 0.6920449636,
				"element": "C" 
			},
			{
				"x": 1.3238219439,
				"y": 1.2264982196,
				"z": 0.5077695433,
				"element": "C" 
			},
			{
				"x": 0.8885638522,
				"y": 0.0472817118,
				"z": -0.1387777093,
				"element": "C" 
			},
			{
				"x": -0.443934153,
				"y": 0.0299292235,
				"z": -0.624587034,
				"element": "N" 
			},
			{
				"x": -1.1578388573,
				"y": -1.0273216712,
				"z": -1.1202764884,
				"element": "C" 
			},
			{
				"x": -0.7406374147,
				"y": -2.1594065465,
				"z": -1.2830278897,
				"element": "O" 
			},
			{
				"x": -2.6171614467,
				"y": -0.641440701,
				"z": -1.4981855907,
				"element": "C" 
			},
			{
				"x": -3.229240226,
				"y": -1.6689186758,
				"z": -2.458830111,
				"element": "C" 
			},
			{
				"x": -2.4186572959,
				"y": -1.860799977,
				"z": -3.5123169824,
				"element": "F" 
			},
			{
				"x": -4.4042527377,
				"y": -1.2071589126,
				"z": -2.9406689903,
				"element": "F" 
			},
			{
				"x": -3.4640102652,
				"y": -2.8464286444,
				"z": -1.8678660045,
				"element": "F" 
			},
			{
				"x": -3.46563087,
				"y": -0.4358412807,
				"z": -0.238723622,
				"element": "C" 
			},
			{
				"x": -3.0361140803,
				"y": 0.680241085,
				"z": 0.4147077172,
				"element": "F" 
			},
			{
				"x": -3.3629536207,
				"y": -1.4660643638,
				"z": 0.6110044299,
				"element": "F" 
			},
			{
				"x": -4.7638650573,
				"y": -0.2477679443,
				"z": -0.517859067,
				"element": "F" 
			},
			{
				"x": 1.7559119478,
				"y": -1.0420472785,
				"z": -0.296974256,
				"element": "C" 
			},
			{
				"x": 3.0604751912,
				"y": -0.9607787425,
				"z": 0.1886004417,
				"element": "C" 
			},
			{
				"x": 3.5091694947,
				"y": 0.1933022715,
				"z": 0.8272843766,
				"element": "C" 
			},
			{
				"x": 2.6380741177,
				"y": 1.2721818716,
				"z": 0.9797198347,
				"element": "C" 
			},
			{
				"x": 0.9062389638,
				"y": 3.2050664907,
				"z": 1.2498105598,
				"element": "H" 
			},
			{
				"x": 0.088392073,
				"y": 2.8464422307,
				"z": -0.2667050186,
				"element": "H" 
			},
			{
				"x": -0.5047426555,
				"y": 2.1500355122,
				"z": 1.2504428543,
				"element": "H" 
			},
			{
				"x": -0.9670554564,
				"y": 0.8783827999,
				"z": -0.4684849257,
				"element": "H" 
			},
			{
				"x": -2.6249906058,
				"y": 0.3118312794,
				"z": -2.0356086008,
				"element": "H" 
			},
			{
				"x": 1.3998216125,
				"y": -1.936277455,
				"z": -0.7877088284,
				"element": "H" 
			},
			{
				"x": 3.724390026,
				"y": -1.8108515652,
				"z": 0.0624863081,
				"element": "H" 
			},
			{
				"x": 4.52493137,
				"y": 0.2562059888,
				"z": 1.2054178827,
				"element": "H" 
			},
			{
				"x": 2.9796987698,
				"y": 2.1752476088,
				"z": 1.4789122066,
				"element": "H" 
			}
		],
		 "valence_orbital": [ 
			{
				"type": "occ",
				"energy": -0.35117,
				"method": "rhf"
			},
			{
				"type": "occ",
				"energy": -0.31985,
				"method": "rhf"
			},
			{
				"type": "occ",
				"energy": -0.27881,
				"method": "rhf"
			},
			{
				"type": "occ",
				"energy": -0.25207,
				"method": "rhf"
			},
			{
				"type": "occ",
				"energy": -0.23022,
				"method": "rhf"
			},
			{
				"type": "unocc",
				"energy": -0.03114,
				"method": "rhf"
			},
			{
				"type": "unocc",
				"energy": -0.00563,
				"method": "rhf"
			},
			{
				"type": "unocc",
				"energy": 0.02351,
				"method": "rhf"
			},
			{
				"type": "unocc",
				"energy": 0.06047,
				"method": "rhf"
			},
			{
				"type": "unocc",
				"energy": 0.07836,
				"method": "rhf"
			}
		],
		"cosmo_sigma_profile": { 
			"-0.025": 0.0,
			"-0.024": 0.0,
			"-0.023": 0.0,
			"-0.022": 0.0,
			"-0.021": 0.0,
			"-0.02": 0.0,
			"-0.019": 0.0,
			"-0.018": 0.0,
			"-0.017": 0.0829082308165,
			"-0.016": 0.462599127308,
			"-0.015": 0.619547868775,
			"-0.014": 0.829766048601,
			"-0.013": 1.55978516859,
			"-0.012": 3.30182505773,
			"-0.011": 2.39551527746,
			"-0.01": 1.81565666616,
			"-0.009": 1.86224645044,
			"-0.008": 1.91474863854,
			"-0.007": 2.85577888575,
			"-0.006": 6.94069190429,
			"-0.005": 12.5788756019,
			"-0.004": 17.3453060131,
			"-0.003": 16.4181556173,
			"-0.002": 15.9684192841,
			"-0.001": 19.9997141419,
			"0.0": 19.3418945956,
			"0.001": 32.4632651745,
			"0.002": 52.9798907613,
			"0.003": 20.1642410639,
			"0.004": 11.5410217116,
			"0.005": 12.1595970942,
			"0.006": 6.21014986407,
			"0.007": 2.38275122184,
			"0.008": 2.57289897058,
			"0.009": 2.40612588786,
			"0.01": 2.60500557264,
			"0.011": 2.74211659187,
			"0.012": 0.18830483038,
			"0.013": 0.0,
			"0.014": 0.0,
			"0.015": 0.0,
			"0.016": 0.0,
			"0.017": 0.0,
			"0.018": 0.0,
			"0.019": 0.0,
			"0.02": 0.0,
			"0.021": 0.0,
			"0.022": 0.0,
			"0.023": 0.0,
			"0.024": 0.0,
			"0.025": 0.0
		}
	}
}
