{
	 "smiles": "FC(F)(F)C1=CC2=C(OCCN2)C=C1", 
	 "Tm": 368.15, 
	 "num_atms": 22, 
	 "gaussian": { 
		 "optdone": 1, 
		 "sigma_profile": "yes", 
		 "theory": "DFT", 
		 "functional": "B3LYP", 
		 "basiset": "6-31G**", 
		 "properties": { 
			 "R2extent": 3997.1295, 
			 "electric_dipole_moment_norm": 4.53957156899, 
			 "electric_quadrupole_moment_norm": 12.8139458685, 
			 "total_energy": -777.274393182, 
			 "HOMO_LUMO_gap": 0.19323, 
			 "cosmo_polarized_energy": -8.75, 
			 "cosmo_cavitation_energy": 26.59, 
			 "cosmo_dispersion_energy": -19.7, 
			 "cosmo_repulsion_energy": 1.48, 
			 "cosmo_total_nonelectrostatic_energy": 8.38, 
			 "SMD_solvation_energy": 4.63 
		},
		"coords": [
			{
				"x": -0.7525414087,
				"y": 2.6518493762,
				"z": -2.8153094492,
				"element": "F" 
			},
			{
				"x": 0.144093498,
				"y": 1.7257561985,
				"z": -3.2379348953,
				"element": "C" 
			},
			{
				"x": 1.2471190808,
				"y": 2.4101032472,
				"z": -3.6244752112,
				"element": "F" 
			},
			{
				"x": -0.3844146948,
				"y": 1.1533218773,
				"z": -4.3430715342,
				"element": "F" 
			},
			{
				"x": 0.452688496,
				"y": 0.7149065906,
				"z": -2.1722760232,
				"element": "C" 
			},
			{
				"x": 1.4637463366,
				"y": 0.9818770043,
				"z": -1.2467727567,
				"element": "C" 
			},
			{
				"x": 1.7331348647,
				"y": 0.0911224701,
				"z": -0.2034925209,
				"element": "C" 
			},
			{
				"x": 0.9612839632,
				"y": -1.0894665376,
				"z": -0.1113790413,
				"element": "C" 
			},
			{
				"x": 1.1574276607,
				"y": -2.0044902776,
				"z": 0.8916133952,
				"element": "O" 
			},
			{
				"x": 2.3916875882,
				"y": -1.8879464556,
				"z": 1.603936258,
				"element": "C" 
			},
			{
				"x": 2.6791120082,
				"y": -0.4345334867,
				"z": 1.9635153221,
				"element": "C" 
			},
			{
				"x": 2.7591438556,
				"y": 0.3174321163,
				"z": 0.7203735513,
				"element": "N" 
			},
			{
				"x": -0.0462685154,
				"y": -1.3495533134,
				"z": -1.0379960048,
				"element": "C" 
			},
			{
				"x": -0.3111320069,
				"y": -0.4499078743,
				"z": -2.0678493901,
				"element": "C" 
			},
			{
				"x": 2.0565426569,
				"y": 1.8869710828,
				"z": -1.3396664676,
				"element": "H" 
			},
			{
				"x": 3.2105253925,
				"y": -2.2895687795,
				"z": 0.9931439237,
				"element": "H" 
			},
			{
				"x": 2.2792665059,
				"y": -2.5029608804,
				"z": 2.4995474581,
				"element": "H" 
			},
			{
				"x": 1.8881458724,
				"y": -0.0694094702,
				"z": 2.6387433182,
				"element": "H" 
			},
			{
				"x": 3.6358397789,
				"y": -0.3667839754,
				"z": 2.4919038715,
				"element": "H" 
			},
			{
				"x": 3.0232335199,
				"y": 1.2885119156,
				"z": 0.8196621958,
				"element": "H" 
			},
			{
				"x": -0.6139167793,
				"y": -2.2680540557,
				"z": -0.9316189126,
				"element": "H" 
			},
			{
				"x": -1.0921176734,
				"y": -0.6574767724,
				"z": -2.7898970868,
				"element": "H" 
			}
		],
		 "valence_orbital": [ 
			{
				"type": "occ",
				"energy": -0.33448,
				"method": "rhf"
			},
			{
				"type": "occ",
				"energy": -0.3197,
				"method": "rhf"
			},
			{
				"type": "occ",
				"energy": -0.30715,
				"method": "rhf"
			},
			{
				"type": "occ",
				"energy": -0.23914,
				"method": "rhf"
			},
			{
				"type": "occ",
				"energy": -0.20294,
				"method": "rhf"
			},
			{
				"type": "unocc",
				"energy": -0.00971,
				"method": "rhf"
			},
			{
				"type": "unocc",
				"energy": 0.00314,
				"method": "rhf"
			},
			{
				"type": "unocc",
				"energy": 0.07008,
				"method": "rhf"
			},
			{
				"type": "unocc",
				"energy": 0.10026,
				"method": "rhf"
			},
			{
				"type": "unocc",
				"energy": 0.10386,
				"method": "rhf"
			}
		],
		"cosmo_sigma_profile": { 
			"-0.025": 0.0,
			"-0.024": 0.0,
			"-0.023": 0.0,
			"-0.022": 0.0,
			"-0.021": 0.0,
			"-0.02": 0.0,
			"-0.019": 0.0,
			"-0.018": 0.0,
			"-0.017": 0.0,
			"-0.016": 0.0,
			"-0.015": 0.0,
			"-0.014": 0.103862917735,
			"-0.013": 1.21968854728,
			"-0.012": 1.44897489394,
			"-0.011": 1.26097407863,
			"-0.01": 1.55788352929,
			"-0.009": 1.750209362,
			"-0.008": 1.86940722798,
			"-0.007": 3.05718114418,
			"-0.006": 11.4116430717,
			"-0.005": 14.390732181,
			"-0.004": 16.9940380536,
			"-0.003": 14.7984601703,
			"-0.002": 9.89678508759,
			"-0.001": 8.90240608333,
			"0.0": 9.49934246489,
			"0.001": 11.4605996249,
			"0.002": 19.7105467148,
			"0.003": 40.6676080476,
			"0.004": 23.1084668225,
			"0.005": 7.93517900344,
			"0.006": 1.82237746123,
			"0.007": 1.30227581521,
			"0.008": 2.31131080629,
			"0.009": 2.31882958635,
			"0.01": 1.68851556548,
			"0.011": 0.950126430157,
			"0.012": 0.267279245681,
			"0.013": 0.0,
			"0.014": 0.0,
			"0.015": 0.0,
			"0.016": 0.0,
			"0.017": 0.0,
			"0.018": 0.0,
			"0.019": 0.0,
			"0.02": 0.0,
			"0.021": 0.0,
			"0.022": 0.0,
			"0.023": 0.0,
			"0.024": 0.0,
			"0.025": 0.0
		}
	}
}
