{
	 "smiles": "FC(Cl)C(F)(F)C(F)(F)Cl", 
	 "Tm": 176.15, 
	 "num_atms": 11, 
	 "gaussian": { 
		 "optdone": 1, 
		 "sigma_profile": "yes", 
		 "theory": "DFT", 
		 "functional": "B3LYP", 
		 "basiset": "6-31G**", 
		 "properties": { 
			 "R2extent": 2874.0416, 
			 "electric_dipole_moment_norm": 1.2358895339, 
			 "electric_quadrupole_moment_norm": 5.73761665677, 
			 "total_energy": -1534.47296694, 
			 "HOMO_LUMO_gap": 0.31026, 
			 "cosmo_polarized_energy": -3.52, 
			 "cosmo_cavitation_energy": 20.8, 
			 "cosmo_dispersion_energy": -14.82, 
			 "cosmo_repulsion_energy": 1.13, 
			 "cosmo_total_nonelectrostatic_energy": 7.11, 
			 "SMD_solvation_energy": 4.82 
		},
		"coords": [
			{
				"x": 1.1467341894,
				"y": 3.6402193386,
				"z": 0.7665205668,
				"element": "F" 
			},
			{
				"x": 1.8524913048,
				"y": 2.6213651349,
				"z": 0.210520118,
				"element": "C" 
			},
			{
				"x": 2.2694075816,
				"y": 3.0418167023,
				"z": -1.4756790707,
				"element": "Cl" 
			},
			{
				"x": 0.9680096791,
				"y": 1.3557683994,
				"z": 0.3118926136,
				"element": "C" 
			},
			{
				"x": 0.6183261532,
				"y": 1.2565121819,
				"z": 1.6194667711,
				"element": "F" 
			},
			{
				"x": -0.1469269366,
				"y": 1.4909370077,
				"z": -0.4317871594,
				"element": "F" 
			},
			{
				"x": 1.680808013,
				"y": 0.0352984807,
				"z": -0.0864190151,
				"element": "C" 
			},
			{
				"x": 2.8702141487,
				"y": -0.008876672,
				"z": 0.5522527383,
				"element": "F" 
			},
			{
				"x": 1.9063830704,
				"y": 0.0097209332,
				"z": -1.4060718031,
				"element": "F" 
			},
			{
				"x": 0.7126051798,
				"y": -1.3920476763,
				"z": 0.3662562103,
				"element": "Cl" 
			},
			{
				"x": 2.7837476166,
				"y": 2.4721861695,
				"z": 0.7587480302,
				"element": "H" 
			}
		],
		 "valence_orbital": [ 
			{
				"type": "occ",
				"energy": -0.37479,
				"method": "rhf"
			},
			{
				"type": "occ",
				"energy": -0.35043,
				"method": "rhf"
			},
			{
				"type": "occ",
				"energy": -0.34893,
				"method": "rhf"
			},
			{
				"type": "occ",
				"energy": -0.34079,
				"method": "rhf"
			},
			{
				"type": "occ",
				"energy": -0.32916,
				"method": "rhf"
			},
			{
				"type": "unocc",
				"energy": -0.0189,
				"method": "rhf"
			},
			{
				"type": "unocc",
				"energy": -0.00748,
				"method": "rhf"
			},
			{
				"type": "unocc",
				"energy": 0.05812,
				"method": "rhf"
			},
			{
				"type": "unocc",
				"energy": 0.0699,
				"method": "rhf"
			},
			{
				"type": "unocc",
				"energy": 0.09717,
				"method": "rhf"
			}
		],
		"cosmo_sigma_profile": { 
			"-0.025": 0.0,
			"-0.024": 0.0,
			"-0.023": 0.0,
			"-0.022": 0.0,
			"-0.021": 0.0,
			"-0.02": 0.0,
			"-0.019": 0.0,
			"-0.018": 0.0,
			"-0.017": 0.0,
			"-0.016": 0.0,
			"-0.015": 0.0,
			"-0.014": 0.0,
			"-0.013": 0.0493252497185,
			"-0.012": 1.51069083345,
			"-0.011": 1.89615778386,
			"-0.01": 2.0089354102,
			"-0.009": 1.63842931738,
			"-0.008": 2.08037470065,
			"-0.007": 1.36793292287,
			"-0.006": 1.54747125811,
			"-0.005": 2.24254959497,
			"-0.004": 4.45486581829,
			"-0.003": 6.46148780571,
			"-0.002": 8.54653692873,
			"-0.001": 12.1351918289,
			"0.0": 21.2945566786,
			"0.001": 41.2563615006,
			"0.002": 43.8881342549,
			"0.003": 17.3915095629,
			"0.004": 1.46191398812,
			"0.005": 0.0,
			"0.006": 0.0,
			"0.007": 0.0,
			"0.008": 0.0,
			"0.009": 0.0,
			"0.01": 0.0,
			"0.011": 0.0,
			"0.012": 0.0,
			"0.013": 0.0,
			"0.014": 0.0,
			"0.015": 0.0,
			"0.016": 0.0,
			"0.017": 0.0,
			"0.018": 0.0,
			"0.019": 0.0,
			"0.02": 0.0,
			"0.021": 0.0,
			"0.022": 0.0,
			"0.023": 0.0,
			"0.024": 0.0,
			"0.025": 0.0
		}
	}
}
