{
	 "smiles": "CC(=O)NC1=CC=C(C=C1)N1C=NN=C1", 
	 "Tm": 558.15, 
	 "num_atms": 25, 
	 "gaussian": { 
		 "optdone": 1, 
		 "sigma_profile": "yes", 
		 "theory": "DFT", 
		 "functional": "B3LYP", 
		 "basiset": "6-31G**", 
		 "properties": { 
			 "R2extent": 4791.0208, 
			 "electric_dipole_moment_norm": 3.61460376528, 
			 "electric_quadrupole_moment_norm": 47.9084741274, 
			 "total_energy": -681.300076289, 
			 "HOMO_LUMO_gap": 0.18393, 
			 "cosmo_polarized_energy": -24.7, 
			 "cosmo_cavitation_energy": 29.64, 
			 "cosmo_dispersion_energy": -21.87, 
			 "cosmo_repulsion_energy": 1.65, 
			 "cosmo_total_nonelectrostatic_energy": 9.42, 
			 "SMD_solvation_energy": 4.95 
		},
		"coords": [
			{
				"x": -0.6148248956,
				"y": 3.8962152318,
				"z": 0.1302803632,
				"element": "C" 
			},
			{
				"x": 0.8301010479,
				"y": 3.477600228,
				"z": 0.2927015397,
				"element": "C" 
			},
			{
				"x": 1.7211974394,
				"y": 4.2927773816,
				"z": 0.4770592468,
				"element": "O" 
			},
			{
				"x": 1.1773108996,
				"y": 2.1310959772,
				"z": 0.233911886,
				"element": "N" 
			},
			{
				"x": 0.497122532,
				"y": 0.9182462984,
				"z": 0.046852966,
				"element": "C" 
			},
			{
				"x": 1.2798289311,
				"y": -0.2517087422,
				"z": 0.0603952559,
				"element": "C" 
			},
			{
				"x": 0.718236522,
				"y": -1.5080137543,
				"z": -0.1140338724,
				"element": "C" 
			},
			{
				"x": -0.6613936078,
				"y": -1.6466929255,
				"z": -0.3108698802,
				"element": "C" 
			},
			{
				"x": -1.4478983301,
				"y": -0.491975777,
				"z": -0.3261920704,
				"element": "C" 
			},
			{
				"x": -0.884654518,
				"y": 0.7701766904,
				"z": -0.1510797549,
				"element": "C" 
			},
			{
				"x": -1.2458209272,
				"y": -2.9311066811,
				"z": -0.490510015,
				"element": "N" 
			},
			{
				"x": -0.6245244133,
				"y": -4.1616828659,
				"z": -0.504378675,
				"element": "C" 
			},
			{
				"x": -1.4866046395,
				"y": -5.12594497,
				"z": -0.6959444992,
				"element": "N" 
			},
			{
				"x": -2.7348464534,
				"y": -4.5415642588,
				"z": -0.8170113405,
				"element": "N" 
			},
			{
				"x": -2.571550154,
				"y": -3.2501820241,
				"z": -0.6932746838,
				"element": "C" 
			},
			{
				"x": -1.2483838198,
				"y": 3.4597411535,
				"z": 0.908743597,
				"element": "H" 
			},
			{
				"x": -0.6469877993,
				"y": 4.9822459207,
				"z": 0.2109407279,
				"element": "H" 
			},
			{
				"x": -1.0115030246,
				"y": 3.5969753994,
				"z": -0.8449197176,
				"element": "H" 
			},
			{
				"x": 2.178511102,
				"y": 2.0402527567,
				"z": 0.3620313422,
				"element": "H" 
			},
			{
				"x": 2.3531101224,
				"y": -0.1728024941,
				"z": 0.2112544916,
				"element": "H" 
			},
			{
				"x": 1.3684852865,
				"y": -2.3744389229,
				"z": -0.0944306309,
				"element": "H" 
			},
			{
				"x": -2.5192622298,
				"y": -0.5552552083,
				"z": -0.4756796366,
				"element": "H" 
			},
			{
				"x": -1.5442684366,
				"y": 1.624119863,
				"z": -0.1729873512,
				"element": "H" 
			},
			{
				"x": 0.4370143292,
				"y": -4.2996180431,
				"z": -0.3731287124,
				"element": "H" 
			},
			{
				"x": -3.363894963,
				"y": -2.5201602335,
				"z": -0.7417305758,
				"element": "H" 
			}
		],
		 "valence_orbital": [ 
			{
				"type": "occ",
				"energy": -0.28719,
				"method": "rhf"
			},
			{
				"type": "occ",
				"energy": -0.2711,
				"method": "rhf"
			},
			{
				"type": "occ",
				"energy": -0.26976,
				"method": "rhf"
			},
			{
				"type": "occ",
				"energy": -0.25784,
				"method": "rhf"
			},
			{
				"type": "occ",
				"energy": -0.23032,
				"method": "rhf"
			},
			{
				"type": "unocc",
				"energy": -0.04639,
				"method": "rhf"
			},
			{
				"type": "unocc",
				"energy": -0.0376,
				"method": "rhf"
			},
			{
				"type": "unocc",
				"energy": 0.00585,
				"method": "rhf"
			},
			{
				"type": "unocc",
				"energy": 0.04025,
				"method": "rhf"
			},
			{
				"type": "unocc",
				"energy": 0.0413,
				"method": "rhf"
			}
		],
		"cosmo_sigma_profile": { 
			"-0.025": 0.0,
			"-0.024": 0.0,
			"-0.023": 0.0,
			"-0.022": 0.0,
			"-0.021": 0.0,
			"-0.02": 0.0,
			"-0.019": 0.0,
			"-0.018": 0.0,
			"-0.017": 0.0,
			"-0.016": 0.0,
			"-0.015": 0.248577073171,
			"-0.014": 0.890299518552,
			"-0.013": 1.52053398166,
			"-0.012": 3.22813843707,
			"-0.011": 5.69435383379,
			"-0.01": 5.13210029756,
			"-0.009": 5.04510919984,
			"-0.008": 7.03414330589,
			"-0.007": 11.6386711936,
			"-0.006": 15.5940903283,
			"-0.005": 12.4584106989,
			"-0.004": 12.2101914791,
			"-0.003": 14.8518991494,
			"-0.002": 16.763708794,
			"-0.001": 16.0942541598,
			"0.0": 12.0397198904,
			"0.001": 13.3853081815,
			"0.002": 11.665309711,
			"0.003": 15.2164577876,
			"0.004": 7.50300165546,
			"0.005": 2.44492645983,
			"0.006": 3.32571620584,
			"0.007": 4.4558864687,
			"0.008": 2.56373186658,
			"0.009": 3.1863894719,
			"0.01": 3.84601622379,
			"0.011": 4.24402272738,
			"0.012": 5.28970338334,
			"0.013": 9.77722601554,
			"0.014": 4.74534600366,
			"0.015": 2.88484905178,
			"0.016": 2.46353430185,
			"0.017": 0.832784429248,
			"0.018": 0.0,
			"0.019": 0.0,
			"0.02": 0.0,
			"0.021": 0.0,
			"0.022": 0.0,
			"0.023": 0.0,
			"0.024": 0.0,
			"0.025": 0.0
		}
	}
}
