{
	 "smiles": "CC1=CC(C(=O)CCl)=C(C)N1C1=CC=C(F)C=C1", 
	 "Tm": 354.15, 
	 "num_atms": 31, 
	 "gaussian": { 
		 "optdone": 1, 
		 "sigma_profile": "yes", 
		 "theory": "DFT", 
		 "functional": "B3LYP", 
		 "basiset": "6-31G**", 
		 "properties": { 
			 "R2extent": 6953.2727, 
			 "electric_dipole_moment_norm": 5.15686395981, 
			 "electric_quadrupole_moment_norm": 21.3033751089, 
			 "total_energy": -1231.32806191, 
			 "HOMO_LUMO_gap": 0.16772, 
			 "cosmo_polarized_energy": -13.33, 
			 "cosmo_cavitation_energy": 37.1, 
			 "cosmo_dispersion_energy": -25.24, 
			 "cosmo_repulsion_energy": 1.94, 
			 "cosmo_total_nonelectrostatic_energy": 13.8, 
			 "SMD_solvation_energy": 7.3 
		},
		"coords": [
			{
				"x": 2.006522241,
				"y": -1.2918684387,
				"z": 0.2135144097,
				"element": "C" 
			},
			{
				"x": 1.3016405317,
				"y": -0.24010992,
				"z": -0.5808332049,
				"element": "C" 
			},
			{
				"x": 1.5321980909,
				"y": 0.2293154186,
				"z": -1.8426285776,
				"element": "C" 
			},
			{
				"x": 0.5675535886,
				"y": 1.249614067,
				"z": -2.1312426666,
				"element": "C" 
			},
			{
				"x": 0.5417597564,
				"y": 1.9268599707,
				"z": -3.4284766165,
				"element": "C" 
			},
			{
				"x": 1.3013973045,
				"y": 1.6045307962,
				"z": -4.3352095851,
				"element": "O" 
			},
			{
				"x": -0.4544694116,
				"y": 3.0569012376,
				"z": -3.7139492637,
				"element": "C" 
			},
			{
				"x": 0.0798926425,
				"y": 4.6220216511,
				"z": -2.950167302,
				"element": "Cl" 
			},
			{
				"x": -0.2542272716,
				"y": 1.3782356562,
				"z": -1.0060908836,
				"element": "C" 
			},
			{
				"x": -1.4380048093,
				"y": 2.2504448234,
				"z": -0.7159553886,
				"element": "C" 
			},
			{
				"x": 0.2015630445,
				"y": 0.4667099375,
				"z": -0.0731349751,
				"element": "N" 
			},
			{
				"x": -0.3501166236,
				"y": 0.2563437618,
				"z": 1.2318969227,
				"element": "C" 
			},
			{
				"x": 0.1677310737,
				"y": 0.9523318944,
				"z": 2.3297890211,
				"element": "C" 
			},
			{
				"x": -0.3527814802,
				"y": 0.7384502387,
				"z": 3.6053943742,
				"element": "C" 
			},
			{
				"x": -1.3893540437,
				"y": -0.1765793503,
				"z": 3.7592086083,
				"element": "C" 
			},
			{
				"x": -1.895510665,
				"y": -0.3869310752,
				"z": 4.9887097289,
				"element": "F" 
			},
			{
				"x": -1.9204308013,
				"y": -0.8807702549,
				"z": 2.6833109045,
				"element": "C" 
			},
			{
				"x": -1.3921733164,
				"y": -0.6595985899,
				"z": 1.4122197887,
				"element": "C" 
			},
			{
				"x": 1.3392533562,
				"y": -2.112425724,
				"z": 0.5031210286,
				"element": "H" 
			},
			{
				"x": 2.4468785672,
				"y": -0.8946265791,
				"z": 1.135812176,
				"element": "H" 
			},
			{
				"x": 2.8147217431,
				"y": -1.7133506566,
				"z": -0.3883043404,
				"element": "H" 
			},
			{
				"x": 2.3050793242,
				"y": -0.096128382,
				"z": -2.5228967265,
				"element": "H" 
			},
			{
				"x": -0.4693059802,
				"y": 3.2260468301,
				"z": -4.788953583,
				"element": "H" 
			},
			{
				"x": -1.4588038047,
				"y": 2.85335162,
				"z": -3.3413290243,
				"element": "H" 
			},
			{
				"x": -1.6820644427,
				"y": 2.2339559454,
				"z": 0.3481350551,
				"element": "H" 
			},
			{
				"x": -1.2422579263,
				"y": 3.2879788007,
				"z": -0.9963135589,
				"element": "H" 
			},
			{
				"x": -2.3332380771,
				"y": 1.9180825887,
				"z": -1.2570913988,
				"element": "H" 
			},
			{
				"x": 0.9750767842,
				"y": 1.6613617965,
				"z": 2.1775368479,
				"element": "H" 
			},
			{
				"x": 0.0298097964,
				"y": 1.2663960213,
				"z": 4.4718072011,
				"element": "H" 
			},
			{
				"x": -2.7284368549,
				"y": -1.5846006187,
				"z": 2.8493008161,
				"element": "H" 
			},
			{
				"x": -1.7844023367,
				"y": -1.1955434666,
				"z": 0.5539202124,
				"element": "H" 
			}
		],
		 "valence_orbital": [ 
			{
				"type": "occ",
				"energy": -0.28489,
				"method": "rhf"
			},
			{
				"type": "occ",
				"energy": -0.26765,
				"method": "rhf"
			},
			{
				"type": "occ",
				"energy": -0.24671,
				"method": "rhf"
			},
			{
				"type": "occ",
				"energy": -0.24111,
				"method": "rhf"
			},
			{
				"type": "occ",
				"energy": -0.21173,
				"method": "rhf"
			},
			{
				"type": "unocc",
				"energy": -0.04401,
				"method": "rhf"
			},
			{
				"type": "unocc",
				"energy": -0.03501,
				"method": "rhf"
			},
			{
				"type": "unocc",
				"energy": -0.02665,
				"method": "rhf"
			},
			{
				"type": "unocc",
				"energy": 0.02334,
				"method": "rhf"
			},
			{
				"type": "unocc",
				"energy": 0.04643,
				"method": "rhf"
			}
		],
		"cosmo_sigma_profile": { 
			"-0.025": 0.0,
			"-0.024": 0.0,
			"-0.023": 0.0,
			"-0.022": 0.0,
			"-0.021": 0.0,
			"-0.02": 0.0,
			"-0.019": 0.0,
			"-0.018": 0.0,
			"-0.017": 0.0,
			"-0.016": 0.0,
			"-0.015": 0.0,
			"-0.014": 0.0,
			"-0.013": 0.0,
			"-0.012": 0.0,
			"-0.011": 0.0,
			"-0.01": 0.0,
			"-0.009": 0.0388644739519,
			"-0.008": 5.92985374102,
			"-0.007": 12.0726031956,
			"-0.006": 13.8975987167,
			"-0.005": 17.7686446788,
			"-0.004": 20.634051686,
			"-0.003": 22.2952884409,
			"-0.002": 25.8039683411,
			"-0.001": 27.6945356105,
			"0.0": 25.1847185546,
			"0.001": 20.636957398,
			"0.002": 23.0953150236,
			"0.003": 18.6334797169,
			"0.004": 20.4815720289,
			"0.005": 15.8383864778,
			"0.006": 10.3756655558,
			"0.007": 2.38823732988,
			"0.008": 1.75019970777,
			"0.009": 1.62921755434,
			"0.01": 2.12541065522,
			"0.011": 2.21915248425,
			"0.012": 4.37578641546,
			"0.013": 3.09310054663,
			"0.014": 0.197043902497,
			"0.015": 0.0,
			"0.016": 0.0,
			"0.017": 0.0,
			"0.018": 0.0,
			"0.019": 0.0,
			"0.02": 0.0,
			"0.021": 0.0,
			"0.022": 0.0,
			"0.023": 0.0,
			"0.024": 0.0,
			"0.025": 0.0
		}
	}
}
