{
	 "smiles": "CCCCN1C(=O)NC(=O)C(NC)=C1N", 
	 "Tm": 475.15, 
	 "num_atms": 31, 
	 "gaussian": { 
		 "optdone": 1, 
		 "sigma_profile": "yes", 
		 "theory": "DFT", 
		 "functional": "B3LYP", 
		 "basiset": "6-31G**", 
		 "properties": { 
			 "R2extent": 4353.3726, 
			 "electric_dipole_moment_norm": 5.1608618631, 
			 "electric_quadrupole_moment_norm": 9.89737591738, 
			 "total_energy": -722.103228448, 
			 "HOMO_LUMO_gap": 0.20266, 
			 "cosmo_polarized_energy": -18.21, 
			 "cosmo_cavitation_energy": 33.29, 
			 "cosmo_dispersion_energy": -23.71, 
			 "cosmo_repulsion_energy": 1.88, 
			 "cosmo_total_nonelectrostatic_energy": 11.46, 
			 "SMD_solvation_energy": 6.56 
		},
		"coords": [
			{
				"x": -0.3714155518,
				"y": -3.7509988275,
				"z": -0.950891153,
				"element": "C" 
			},
			{
				"x": 0.7760698734,
				"y": -3.2479011567,
				"z": -0.0652455512,
				"element": "C" 
			},
			{
				"x": 0.5459979419,
				"y": -1.8585664665,
				"z": 0.5517426366,
				"element": "C" 
			},
			{
				"x": 0.539952565,
				"y": -0.7286255305,
				"z": -0.4867447906,
				"element": "C" 
			},
			{
				"x": 0.3577477986,
				"y": 0.6051325851,
				"z": 0.1108627219,
				"element": "N" 
			},
			{
				"x": 1.5343111718,
				"y": 1.3237754092,
				"z": 0.3933614032,
				"element": "C" 
			},
			{
				"x": 2.6440935693,
				"y": 0.894883487,
				"z": 0.1118543632,
				"element": "O" 
			},
			{
				"x": 1.3333717553,
				"y": 2.536074718,
				"z": 1.0109042536,
				"element": "N" 
			},
			{
				"x": 0.1082898199,
				"y": 3.1251364613,
				"z": 1.3970674477,
				"element": "C" 
			},
			{
				"x": 0.1049432601,
				"y": 4.2143467921,
				"z": 1.9647542166,
				"element": "O" 
			},
			{
				"x": -1.0451300397,
				"y": 2.3317666371,
				"z": 1.0615099329,
				"element": "C" 
			},
			{
				"x": -2.3725673598,
				"y": 2.777675312,
				"z": 1.3534257386,
				"element": "N" 
			},
			{
				"x": -2.7832033132,
				"y": 3.9777968055,
				"z": 0.600151496,
				"element": "C" 
			},
			{
				"x": -0.8906064469,
				"y": 1.0937003746,
				"z": 0.4701994605,
				"element": "C" 
			},
			{
				"x": -1.9845410583,
				"y": 0.2922926865,
				"z": 0.2772910544,
				"element": "N" 
			},
			{
				"x": -1.317956459,
				"y": -3.7696382971,
				"z": -0.3978632581,
				"element": "H" 
			},
			{
				"x": -0.5155180828,
				"y": -3.125485476,
				"z": -1.8389059414,
				"element": "H" 
			},
			{
				"x": -0.1762233322,
				"y": -4.768256449,
				"z": -1.3046485683,
				"element": "H" 
			},
			{
				"x": 0.9329787434,
				"y": -3.962277899,
				"z": 0.7516098075,
				"element": "H" 
			},
			{
				"x": 1.7106430899,
				"y": -3.2392370225,
				"z": -0.6418565839,
				"element": "H" 
			},
			{
				"x": -0.3971435704,
				"y": -1.8492934238,
				"z": 1.111289518,
				"element": "H" 
			},
			{
				"x": 1.3465223855,
				"y": -1.6417937463,
				"z": 1.2678093391,
				"element": "H" 
			},
			{
				"x": 1.5007302575,
				"y": -0.6921747321,
				"z": -1.0013140682,
				"element": "H" 
			},
			{
				"x": -0.2296076423,
				"y": -0.8777446486,
				"z": -1.2503277119,
				"element": "H" 
			},
			{
				"x": 2.1733488879,
				"y": 3.0563648179,
				"z": 1.2314249227,
				"element": "H" 
			},
			{
				"x": -2.4421171056,
				"y": 2.9843121001,
				"z": 2.3474330663,
				"element": "H" 
			},
			{
				"x": -3.7957541375,
				"y": 4.2586647434,
				"z": 0.9071646652,
				"element": "H" 
			},
			{
				"x": -2.8073231309,
				"y": 3.7397510649,
				"z": -0.4678338229,
				"element": "H" 
			},
			{
				"x": -2.1124773065,
				"y": 4.8310456546,
				"z": 0.756071143,
				"element": "H" 
			},
			{
				"x": -2.8390429621,
				"y": 0.8015074583,
				"z": 0.4835801506,
				"element": "H" 
			},
			{
				"x": -2.0078736206,
				"y": -0.334333432,
				"z": -0.5114758882,
				"element": "H" 
			}
		],
		 "valence_orbital": [ 
			{
				"type": "occ",
				"energy": -0.27912,
				"method": "rhf"
			},
			{
				"type": "occ",
				"energy": -0.2707,
				"method": "rhf"
			},
			{
				"type": "occ",
				"energy": -0.25619,
				"method": "rhf"
			},
			{
				"type": "occ",
				"energy": -0.23598,
				"method": "rhf"
			},
			{
				"type": "occ",
				"energy": -0.21082,
				"method": "rhf"
			},
			{
				"type": "unocc",
				"energy": -0.00816,
				"method": "rhf"
			},
			{
				"type": "unocc",
				"energy": 0.02209,
				"method": "rhf"
			},
			{
				"type": "unocc",
				"energy": 0.04876,
				"method": "rhf"
			},
			{
				"type": "unocc",
				"energy": 0.08924,
				"method": "rhf"
			},
			{
				"type": "unocc",
				"energy": 0.09251,
				"method": "rhf"
			}
		],
		"cosmo_sigma_profile": { 
			"-0.025": 0.0,
			"-0.024": 0.0,
			"-0.023": 0.0,
			"-0.022": 0.0,
			"-0.021": 0.0,
			"-0.02": 0.0,
			"-0.019": 0.0,
			"-0.018": 0.0,
			"-0.017": 0.0,
			"-0.016": 0.0161727687478,
			"-0.015": 0.563494429845,
			"-0.014": 2.40069454793,
			"-0.013": 1.80687213312,
			"-0.012": 2.06823609024,
			"-0.011": 2.63146947736,
			"-0.01": 4.71864324653,
			"-0.009": 3.44901377494,
			"-0.008": 3.73126255205,
			"-0.007": 3.75663652166,
			"-0.006": 4.74670371681,
			"-0.005": 5.67948920347,
			"-0.004": 11.8351390001,
			"-0.003": 24.5390470309,
			"-0.002": 31.5277232972,
			"-0.001": 34.369918765,
			"0.0": 34.3694417202,
			"0.001": 21.7424892653,
			"0.002": 10.0779134822,
			"0.003": 6.63445314074,
			"0.004": 5.20958114086,
			"0.005": 4.3544045815,
			"0.006": 4.17520332247,
			"0.007": 3.13144209909,
			"0.008": 4.41434713357,
			"0.009": 3.69012176743,
			"0.01": 2.39685245816,
			"0.011": 2.65014935311,
			"0.012": 5.24463891204,
			"0.013": 6.86277443785,
			"0.014": 6.13708002078,
			"0.015": 1.1879238589,
			"0.016": 0.0,
			"0.017": 0.0,
			"0.018": 0.0,
			"0.019": 0.0,
			"0.02": 0.0,
			"0.021": 0.0,
			"0.022": 0.0,
			"0.023": 0.0,
			"0.024": 0.0,
			"0.025": 0.0
		}
	}
}
