{
	 "smiles": "ClC=CBr", 
	 "Tm": 186.45, 
	 "num_atms": 6, 
	 "gaussian": { 
		 "optdone": 1, 
		 "sigma_profile": "yes", 
		 "theory": "DFT", 
		 "functional": "B3LYP", 
		 "basiset": "6-31G**", 
		 "properties": { 
			 "R2extent": 3937.3479, 
			 "electric_dipole_moment_norm": 0.186456161067, 
			 "electric_quadrupole_moment_norm": 3.01281747705, 
			 "total_energy": -3108.98377031, 
			 "HOMO_LUMO_gap": 0.23456, 
			 "cosmo_polarized_energy": -2.92, 
			 "cosmo_cavitation_energy": 14.37, 
			 "cosmo_dispersion_energy": -11.38, 
			 "cosmo_repulsion_energy": 1.04, 
			 "cosmo_total_nonelectrostatic_energy": 4.04, 
			 "SMD_solvation_energy": 1.94 
		},
		"coords": [
			{
				"x": 0.1545117589,
				"y": -1.0731136051,
				"z": -2.052919552,
				"element": "Cl" 
			},
			{
				"x": -0.5725358789,
				"y": 0.4918355891,
				"z": -2.3109078551,
				"element": "C" 
			},
			{
				"x": -0.7307637091,
				"y": 0.9926214371,
				"z": -3.5311950469,
				"element": "C" 
			},
			{
				"x": -1.5231394817,
				"y": 2.6963898583,
				"z": -3.8003594452,
				"element": "Br" 
			},
			{
				"x": -0.8719953111,
				"y": 0.9967577223,
				"z": -1.4012531456,
				"element": "H" 
			},
			{
				"x": -0.431977378,
				"y": 0.4893089982,
				"z": -4.4413649552,
				"element": "H" 
			}
		],
		 "valence_orbital": [ 
			{
				"type": "occ",
				"energy": -0.38727,
				"method": "rhf"
			},
			{
				"type": "occ",
				"energy": -0.33222,
				"method": "rhf"
			},
			{
				"type": "occ",
				"energy": -0.32696,
				"method": "rhf"
			},
			{
				"type": "occ",
				"energy": -0.30087,
				"method": "rhf"
			},
			{
				"type": "occ",
				"energy": -0.25532,
				"method": "rhf"
			},
			{
				"type": "unocc",
				"energy": -0.02076,
				"method": "rhf"
			},
			{
				"type": "unocc",
				"energy": -0.01592,
				"method": "rhf"
			},
			{
				"type": "unocc",
				"energy": 0.04015,
				"method": "rhf"
			},
			{
				"type": "unocc",
				"energy": 0.10987,
				"method": "rhf"
			},
			{
				"type": "unocc",
				"energy": 0.18779,
				"method": "rhf"
			}
		],
		"cosmo_sigma_profile": { 
			"-0.025": 0.0,
			"-0.024": 0.0,
			"-0.023": 0.0,
			"-0.022": 0.0,
			"-0.021": 0.0,
			"-0.02": 0.0,
			"-0.019": 0.0,
			"-0.018": 0.0,
			"-0.017": 0.0,
			"-0.016": 0.0,
			"-0.015": 0.0,
			"-0.014": 0.0,
			"-0.013": 0.0,
			"-0.012": 0.0,
			"-0.011": 0.0638277164754,
			"-0.01": 2.59573900005,
			"-0.009": 2.59108415995,
			"-0.008": 3.56736603633,
			"-0.007": 2.44543468967,
			"-0.006": 3.14579454393,
			"-0.005": 4.15794109205,
			"-0.004": 4.39236573218,
			"-0.003": 5.11581760075,
			"-0.002": 7.04345613739,
			"-0.001": 8.17113340561,
			"0.0": 8.96348712401,
			"0.001": 14.7365793092,
			"0.002": 14.8411582187,
			"0.003": 15.433562505,
			"0.004": 22.1666082893,
			"0.005": 1.8054799374,
			"0.006": 0.0,
			"0.007": 0.0,
			"0.008": 0.0,
			"0.009": 0.0,
			"0.01": 0.0,
			"0.011": 0.0,
			"0.012": 0.0,
			"0.013": 0.0,
			"0.014": 0.0,
			"0.015": 0.0,
			"0.016": 0.0,
			"0.017": 0.0,
			"0.018": 0.0,
			"0.019": 0.0,
			"0.02": 0.0,
			"0.021": 0.0,
			"0.022": 0.0,
			"0.023": 0.0,
			"0.024": 0.0,
			"0.025": 0.0
		}
	}
}
