{
	 "smiles": "O=C1C=C(NCCC2=CC=CC=C2)C(=O)C2=CC=CC=C12", 
	 "Tm": 414.15, 
	 "num_atms": 36, 
	 "gaussian": { 
		 "optdone": 1, 
		 "sigma_profile": "yes", 
		 "theory": "DFT", 
		 "functional": "B3LYP", 
		 "basiset": "6-31G**", 
		 "properties": { 
			 "R2extent": 8484.7063, 
			 "electric_dipole_moment_norm": 2.59422256755, 
			 "electric_quadrupole_moment_norm": 22.5593671988, 
			 "total_energy": -900.158580265, 
			 "HOMO_LUMO_gap": 0.1165, 
			 "cosmo_polarized_energy": -14.57, 
			 "cosmo_cavitation_energy": 40.19, 
			 "cosmo_dispersion_energy": -28.07, 
			 "cosmo_repulsion_energy": 2.11, 
			 "cosmo_total_nonelectrostatic_energy": 14.23, 
			 "SMD_solvation_energy": 6.77 
		},
		"coords": [
			{
				"x": -0.0357067332,
				"y": -2.4025206496,
				"z": -3.3495644876,
				"element": "O" 
			},
			{
				"x": -0.4382021464,
				"y": -2.0352513016,
				"z": -2.2430768679,
				"element": "C" 
			},
			{
				"x": 0.2183743913,
				"y": -0.9821825618,
				"z": -1.4944998155,
				"element": "C" 
			},
			{
				"x": -0.1930806222,
				"y": -0.5324412375,
				"z": -0.2640096893,
				"element": "C" 
			},
			{
				"x": 0.438398133,
				"y": 0.5113119126,
				"z": 0.3468354293,
				"element": "N" 
			},
			{
				"x": 0.2788077508,
				"y": 1.0733694182,
				"z": 1.687098819,
				"element": "C" 
			},
			{
				"x": 1.0640557755,
				"y": 0.3188321013,
				"z": 2.7847939551,
				"element": "C" 
			},
			{
				"x": 2.5600485112,
				"y": 0.3209934264,
				"z": 2.5585971639,
				"element": "C" 
			},
			{
				"x": 3.1835656747,
				"y": -0.7058838515,
				"z": 1.8350255577,
				"element": "C" 
			},
			{
				"x": 4.5575217071,
				"y": -0.6771905082,
				"z": 1.5870719241,
				"element": "C" 
			},
			{
				"x": 5.3335476933,
				"y": 0.3818024826,
				"z": 2.0608875194,
				"element": "C" 
			},
			{
				"x": 4.7266390778,
				"y": 1.4100384944,
				"z": 2.7852423584,
				"element": "C" 
			},
			{
				"x": 3.3532887819,
				"y": 1.3777933902,
				"z": 3.029503582,
				"element": "C" 
			},
			{
				"x": -1.365880433,
				"y": -1.2047160828,
				"z": 0.4101132324,
				"element": "C" 
			},
			{
				"x": -1.7067342728,
				"y": -0.9062626271,
				"z": 1.5507329111,
				"element": "O" 
			},
			{
				"x": -2.085169851,
				"y": -2.2601855784,
				"z": -0.3516700336,
				"element": "C" 
			},
			{
				"x": -3.210984323,
				"y": -2.8620688545,
				"z": 0.2253770158,
				"element": "C" 
			},
			{
				"x": -3.8966076155,
				"y": -3.8592283599,
				"z": -0.4645838458,
				"element": "C" 
			},
			{
				"x": -3.4580502245,
				"y": -4.2636701442,
				"z": -1.7302909003,
				"element": "C" 
			},
			{
				"x": -2.3344776619,
				"y": -3.6710205685,
				"z": -2.3064866788,
				"element": "C" 
			},
			{
				"x": -1.6458849686,
				"y": -2.6682394762,
				"z": -1.6226570821,
				"element": "C" 
			},
			{
				"x": 1.0781849913,
				"y": -0.5305977713,
				"z": -1.9832396819,
				"element": "H" 
			},
			{
				"x": 1.2718092019,
				"y": 0.8176259139,
				"z": -0.1365099228,
				"element": "H" 
			},
			{
				"x": -0.7771468425,
				"y": 1.0951560938,
				"z": 1.9456071427,
				"element": "H" 
			},
			{
				"x": 0.6406346581,
				"y": 2.1057800033,
				"z": 1.6285199652,
				"element": "H" 
			},
			{
				"x": 0.828631891,
				"y": 0.7976095643,
				"z": 3.7431088791,
				"element": "H" 
			},
			{
				"x": 0.6792786213,
				"y": -0.7041880988,
				"z": 2.8374602699,
				"element": "H" 
			},
			{
				"x": 2.5883864673,
				"y": -1.5390705787,
				"z": 1.4698845164,
				"element": "H" 
			},
			{
				"x": 5.0212524936,
				"y": -1.4851354236,
				"z": 1.028010347,
				"element": "H" 
			},
			{
				"x": 6.4030278704,
				"y": 0.4032653965,
				"z": 1.8724490077,
				"element": "H" 
			},
			{
				"x": 5.3234782568,
				"y": 2.234849944,
				"z": 3.1646597145,
				"element": "H" 
			},
			{
				"x": 2.8896378101,
				"y": 2.17954761,
				"z": 3.6002625103,
				"element": "H" 
			},
			{
				"x": -3.5285483655,
				"y": -2.5343273146,
				"z": 1.2094186778,
				"element": "H" 
			},
			{
				"x": -4.7712737961,
				"y": -4.3228603839,
				"z": -0.0180852345,
				"element": "H" 
			},
			{
				"x": -3.9935043951,
				"y": -5.0426382647,
				"z": -2.2655525461,
				"element": "H" 
			},
			{
				"x": -1.9684175072,
				"y": -3.966296114,
				"z": -3.2841337126,
				"element": "H" 
			}
		],
		 "valence_orbital": [ 
			{
				"type": "occ",
				"energy": -0.26143,
				"method": "rhf"
			},
			{
				"type": "occ",
				"energy": -0.2538,
				"method": "rhf"
			},
			{
				"type": "occ",
				"energy": -0.24764,
				"method": "rhf"
			},
			{
				"type": "occ",
				"energy": -0.24262,
				"method": "rhf"
			},
			{
				"type": "occ",
				"energy": -0.21771,
				"method": "rhf"
			},
			{
				"type": "unocc",
				"energy": -0.10121,
				"method": "rhf"
			},
			{
				"type": "unocc",
				"energy": -0.03171,
				"method": "rhf"
			},
			{
				"type": "unocc",
				"energy": -0.00784,
				"method": "rhf"
			},
			{
				"type": "unocc",
				"energy": -0.00612,
				"method": "rhf"
			},
			{
				"type": "unocc",
				"energy": -0.00362,
				"method": "rhf"
			}
		],
		"cosmo_sigma_profile": { 
			"-0.025": 0.0,
			"-0.024": 0.0,
			"-0.023": 0.0,
			"-0.022": 0.0,
			"-0.021": 0.0,
			"-0.02": 0.0,
			"-0.019": 0.0,
			"-0.018": 0.0,
			"-0.017": 0.0,
			"-0.016": 0.0,
			"-0.015": 0.0,
			"-0.014": 0.410150239307,
			"-0.013": 0.884402076493,
			"-0.012": 1.0066743347,
			"-0.011": 1.08800615584,
			"-0.01": 1.0743164249,
			"-0.009": 1.80246270881,
			"-0.008": 1.67533871466,
			"-0.007": 5.13581592489,
			"-0.006": 11.6971358661,
			"-0.005": 23.8594021732,
			"-0.004": 32.1439063994,
			"-0.003": 30.9658553196,
			"-0.002": 25.1122768239,
			"-0.001": 24.3078722963,
			"0.0": 22.8408870454,
			"0.001": 24.2048789405,
			"0.002": 26.7997691326,
			"0.003": 24.3598865193,
			"0.004": 12.5049514051,
			"0.005": 11.4265487201,
			"0.006": 10.3526811162,
			"0.007": 5.29156665881,
			"0.008": 2.87569579152,
			"0.009": 3.28002008336,
			"0.01": 3.76079650155,
			"0.011": 2.41106161525,
			"0.012": 2.64608850239,
			"0.013": 4.99868415374,
			"0.014": 2.00105676488,
			"0.015": 0.360152347204,
			"0.016": 0.0,
			"0.017": 0.0,
			"0.018": 0.0,
			"0.019": 0.0,
			"0.02": 0.0,
			"0.021": 0.0,
			"0.022": 0.0,
			"0.023": 0.0,
			"0.024": 0.0,
			"0.025": 0.0
		}
	}
}
