{
	 "smiles": "NC1CCC2=C(O)C=CC=C12", 
	 "Tm": 441.15, 
	 "num_atms": 22, 
	 "gaussian": { 
		 "optdone": 1, 
		 "sigma_profile": "yes", 
		 "theory": "DFT", 
		 "functional": "B3LYP", 
		 "basiset": "6-31G**", 
		 "properties": { 
			 "R2extent": 1942.2691, 
			 "electric_dipole_moment_norm": 2.28867712008, 
			 "electric_quadrupole_moment_norm": 5.95489228366, 
			 "total_energy": -479.561477586, 
			 "HOMO_LUMO_gap": 0.21972, 
			 "cosmo_polarized_energy": -11.07, 
			 "cosmo_cavitation_energy": 24.48, 
			 "cosmo_dispersion_energy": -18.12, 
			 "cosmo_repulsion_energy": 1.47, 
			 "cosmo_total_nonelectrostatic_energy": 7.83, 
			 "SMD_solvation_energy": 2.78 
		},
		"coords": [
			{
				"x": 2.9127512157,
				"y": -0.8576393944,
				"z": -0.1109729265,
				"element": "N" 
			},
			{
				"x": 1.4555631447,
				"y": -0.934163417,
				"z": 0.1180517759,
				"element": "C" 
			},
			{
				"x": 0.7401485477,
				"y": -1.6045591515,
				"z": -1.0842155462,
				"element": "C" 
			},
			{
				"x": 0.1881785393,
				"y": -0.4512827035,
				"z": -1.9636095549,
				"element": "C" 
			},
			{
				"x": 0.084486037,
				"y": 0.6962814345,
				"z": -0.9859192166,
				"element": "C" 
			},
			{
				"x": -0.5703010174,
				"y": 1.9201547584,
				"z": -1.1492923758,
				"element": "C" 
			},
			{
				"x": -1.21194137,
				"y": 2.1461067032,
				"z": -2.337253555,
				"element": "O" 
			},
			{
				"x": -0.5505739722,
				"y": 2.8522378058,
				"z": -0.1045356221,
				"element": "C" 
			},
			{
				"x": 0.1236130911,
				"y": 2.5618068888,
				"z": 1.0858169604,
				"element": "C" 
			},
			{
				"x": 0.7890594023,
				"y": 1.3456626364,
				"z": 1.2522148022,
				"element": "C" 
			},
			{
				"x": 0.7607056723,
				"y": 0.4209538789,
				"z": 0.205594614,
				"element": "C" 
			},
			{
				"x": 3.0889703079,
				"y": -0.2628635713,
				"z": -0.9203119861,
				"element": "H" 
			},
			{
				"x": 3.349547359,
				"y": -0.3767040483,
				"z": 0.673846084,
				"element": "H" 
			},
			{
				"x": 1.3179858873,
				"y": -1.5183418005,
				"z": 1.0353274347,
				"element": "H" 
			},
			{
				"x": -0.0967407724,
				"y": -2.2054115908,
				"z": -0.7133510558,
				"element": "H" 
			},
			{
				"x": 1.4192265646,
				"y": -2.2752375887,
				"z": -1.6167262977,
				"element": "H" 
			},
			{
				"x": 0.8671448254,
				"y": -0.2010710558,
				"z": -2.7904497783,
				"element": "H" 
			},
			{
				"x": -0.7739378025,
				"y": -0.6966560676,
				"z": -2.4248361455,
				"element": "H" 
			},
			{
				"x": -1.6344702108,
				"y": 3.014337661,
				"z": -2.3069020886,
				"element": "H" 
			},
			{
				"x": -1.0671704413,
				"y": 3.8033676436,
				"z": -0.2197891418,
				"element": "H" 
			},
			{
				"x": 0.1205785564,
				"y": 3.2954205019,
				"z": 1.8872144932,
				"element": "H" 
			},
			{
				"x": 1.3087764358,
				"y": 1.1252004768,
				"z": 2.1810991263,
				"element": "H" 
			}
		],
		 "valence_orbital": [ 
			{
				"type": "occ",
				"energy": -0.32936,
				"method": "rhf"
			},
			{
				"type": "occ",
				"energy": -0.31996,
				"method": "rhf"
			},
			{
				"type": "occ",
				"energy": -0.2459,
				"method": "rhf"
			},
			{
				"type": "occ",
				"energy": -0.22405,
				"method": "rhf"
			},
			{
				"type": "occ",
				"energy": -0.21569,
				"method": "rhf"
			},
			{
				"type": "unocc",
				"energy": 0.00403,
				"method": "rhf"
			},
			{
				"type": "unocc",
				"energy": 0.01209,
				"method": "rhf"
			},
			{
				"type": "unocc",
				"energy": 0.06993,
				"method": "rhf"
			},
			{
				"type": "unocc",
				"energy": 0.08832,
				"method": "rhf"
			},
			{
				"type": "unocc",
				"energy": 0.10327,
				"method": "rhf"
			}
		],
		"cosmo_sigma_profile": { 
			"-0.025": 0.0,
			"-0.024": 0.0,
			"-0.023": 0.0,
			"-0.022": 0.0,
			"-0.021": 0.0,
			"-0.02": 0.0,
			"-0.019": 0.0,
			"-0.018": 0.10718162324,
			"-0.017": 0.868165167072,
			"-0.016": 1.19522967851,
			"-0.015": 1.19873817527,
			"-0.014": 0.849044982556,
			"-0.013": 1.00490601887,
			"-0.012": 0.852277076194,
			"-0.011": 0.661998310593,
			"-0.01": 1.11025391367,
			"-0.009": 3.73083689445,
			"-0.008": 2.97580338353,
			"-0.007": 3.83570685588,
			"-0.006": 5.68169565071,
			"-0.005": 8.8243925397,
			"-0.004": 12.2457312851,
			"-0.003": 18.3711336435,
			"-0.002": 19.4407535345,
			"-0.001": 14.6205431537,
			"0.0": 13.2989091658,
			"0.001": 11.8622824359,
			"0.002": 8.95598529327,
			"0.003": 10.1963097953,
			"0.004": 9.29897053901,
			"0.005": 9.82355246831,
			"0.006": 8.69535446468,
			"0.007": 6.80122339261,
			"0.008": 2.62323760533,
			"0.009": 2.0344901293,
			"0.01": 2.75779723418,
			"0.011": 2.544877538,
			"0.012": 0.602420777557,
			"0.013": 0.69517728735,
			"0.014": 0.849381301829,
			"0.015": 0.683006510331,
			"0.016": 0.321662186115,
			"0.017": 0.731688374129,
			"0.018": 0.731831587165,
			"0.019": 0.404320712015,
			"0.02": 0.339632230781,
			"0.021": 0.0,
			"0.022": 0.0,
			"0.023": 0.0,
			"0.024": 0.0,
			"0.025": 0.0
		}
	}
}
