{
	 "smiles": "N1C(=NN=C1C1=CC=CC=C1)C1=CC=CC=C1", 
	 "Tm": 463.15, 
	 "num_atms": 28, 
	 "gaussian": { 
		 "optdone": 1, 
		 "sigma_profile": "yes", 
		 "theory": "DFT", 
		 "functional": "B3LYP", 
		 "basiset": "6-31G**", 
		 "properties": { 
			 "R2extent": 5849.3335, 
			 "electric_dipole_moment_norm": 4.76782899966, 
			 "electric_quadrupole_moment_norm": 15.6047102873, 
			 "total_energy": -704.369945423, 
			 "HOMO_LUMO_gap": 0.16696, 
			 "cosmo_polarized_energy": -19.75, 
			 "cosmo_cavitation_energy": 32.7, 
			 "cosmo_dispersion_energy": -24.33, 
			 "cosmo_repulsion_energy": 1.83, 
			 "cosmo_total_nonelectrostatic_energy": 10.2, 
			 "SMD_solvation_energy": 3.23 
		},
		"coords": [
			{
				"x": 0.242508944,
				"y": 0.6206871673,
				"z": 0.1039233827,
				"element": "N" 
			},
			{
				"x": -0.6210330736,
				"y": 1.6257178687,
				"z": 0.4655795779,
				"element": "C" 
			},
			{
				"x": -1.8278149111,
				"y": 1.3403837565,
				"z": 0.0073206239,
				"element": "N" 
			},
			{
				"x": -1.7601365889,
				"y": 0.1469285048,
				"z": -0.656682413,
				"element": "N" 
			},
			{
				"x": -0.5125893522,
				"y": -0.2866151891,
				"z": -0.5983700151,
				"element": "C" 
			},
			{
				"x": -0.0170537901,
				"y": -1.5315832155,
				"z": -1.1868852028,
				"element": "C" 
			},
			{
				"x": -0.9198291044,
				"y": -2.3579452893,
				"z": -1.8784728338,
				"element": "C" 
			},
			{
				"x": -0.4845331107,
				"y": -3.549035817,
				"z": -2.450865176,
				"element": "C" 
			},
			{
				"x": 0.8541704893,
				"y": -3.9374762771,
				"z": -2.3450561547,
				"element": "C" 
			},
			{
				"x": 1.7567868196,
				"y": -3.1225951476,
				"z": -1.6601261422,
				"element": "C" 
			},
			{
				"x": 1.3258070412,
				"y": -1.9281411245,
				"z": -1.0847556991,
				"element": "C" 
			},
			{
				"x": -0.2638056625,
				"y": 2.8191131612,
				"z": 1.2337212498,
				"element": "C" 
			},
			{
				"x": 1.0429954566,
				"y": 3.0558861768,
				"z": 1.6888877739,
				"element": "C" 
			},
			{
				"x": 1.3410230502,
				"y": 4.2061622725,
				"z": 2.4179652658,
				"element": "C" 
			},
			{
				"x": 0.3396335141,
				"y": 5.1356582271,
				"z": 2.7028108938,
				"element": "C" 
			},
			{
				"x": -0.9639267962,
				"y": 4.9065835802,
				"z": 2.2528459608,
				"element": "C" 
			},
			{
				"x": -1.2666839321,
				"y": 3.7602137639,
				"z": 1.5248430223,
				"element": "C" 
			},
			{
				"x": 1.2263019083,
				"y": 0.5612377414,
				"z": 0.3110398903,
				"element": "H" 
			},
			{
				"x": -1.955392087,
				"y": -2.044981169,
				"z": -1.9532175965,
				"element": "H" 
			},
			{
				"x": -1.1929294012,
				"y": -4.1777827996,
				"z": -2.9823084259,
				"element": "H" 
			},
			{
				"x": 1.1911389952,
				"y": -4.867643088,
				"z": -2.7927841947,
				"element": "H" 
			},
			{
				"x": 2.7989290973,
				"y": -3.4153811495,
				"z": -1.5723358308,
				"element": "H" 
			},
			{
				"x": 2.048468211,
				"y": -1.3110900801,
				"z": -0.5566038168,
				"element": "H" 
			},
			{
				"x": 1.8406914705,
				"y": 2.3473273581,
				"z": 1.4801854993,
				"element": "H" 
			},
			{
				"x": 2.3568855876,
				"y": 4.3748407713,
				"z": 2.7630222153,
				"element": "H" 
			},
			{
				"x": 0.5730693364,
				"y": 6.0312598964,
				"z": 3.2708104834,
				"element": "H" 
			},
			{
				"x": -1.7486270692,
				"y": 5.625222097,
				"z": 2.4705241598,
				"element": "H" 
			},
			{
				"x": -2.2736550419,
				"y": 3.5704480032,
				"z": 1.1699835024,
				"element": "H" 
			}
		],
		 "valence_orbital": [ 
			{
				"type": "occ",
				"energy": -0.26342,
				"method": "rhf"
			},
			{
				"type": "occ",
				"energy": -0.2602,
				"method": "rhf"
			},
			{
				"type": "occ",
				"energy": -0.25961,
				"method": "rhf"
			},
			{
				"type": "occ",
				"energy": -0.24943,
				"method": "rhf"
			},
			{
				"type": "occ",
				"energy": -0.21483,
				"method": "rhf"
			},
			{
				"type": "unocc",
				"energy": -0.04787,
				"method": "rhf"
			},
			{
				"type": "unocc",
				"energy": -0.02288,
				"method": "rhf"
			},
			{
				"type": "unocc",
				"energy": -0.00886,
				"method": "rhf"
			},
			{
				"type": "unocc",
				"energy": -0.00885,
				"method": "rhf"
			},
			{
				"type": "unocc",
				"energy": 0.04211,
				"method": "rhf"
			}
		],
		"cosmo_sigma_profile": { 
			"-0.025": 0.0,
			"-0.024": 0.0,
			"-0.023": 0.0,
			"-0.022": 0.0,
			"-0.021": 0.0,
			"-0.02": 0.0,
			"-0.019": 0.0,
			"-0.018": 0.466214726203,
			"-0.017": 1.20192586571,
			"-0.016": 1.46079590642,
			"-0.015": 1.31507680113,
			"-0.014": 0.995279386189,
			"-0.013": 2.46638557963,
			"-0.012": 1.22217610248,
			"-0.011": 1.19733079702,
			"-0.01": 1.83378930793,
			"-0.009": 2.03622160754,
			"-0.008": 1.95084256696,
			"-0.007": 3.23035074973,
			"-0.006": 14.1500068199,
			"-0.005": 20.1209304672,
			"-0.004": 21.9725157173,
			"-0.003": 15.2087525557,
			"-0.002": 14.0299488054,
			"-0.001": 16.094232037,
			"0.0": 17.9915610306,
			"0.001": 16.0503968022,
			"0.002": 20.8915918649,
			"0.003": 22.1750192349,
			"0.004": 24.3678124917,
			"0.005": 15.9806221769,
			"0.006": 3.3791280936,
			"0.007": 1.69441055773,
			"0.008": 1.38094512105,
			"0.009": 2.09742276281,
			"0.01": 2.31378477046,
			"0.011": 1.94682757994,
			"0.012": 3.18005759314,
			"0.013": 2.28523340278,
			"0.014": 3.22964843194,
			"0.015": 2.88706494485,
			"0.016": 0.956919687298,
			"0.017": 0.0,
			"0.018": 0.0,
			"0.019": 0.0,
			"0.02": 0.0,
			"0.021": 0.0,
			"0.022": 0.0,
			"0.023": 0.0,
			"0.024": 0.0,
			"0.025": 0.0
		}
	}
}
