{
	 "smiles": "OC(=O)C1=CC=C(O1)C1=CC=CO1", 
	 "Tm": 421.15, 
	 "num_atms": 19, 
	 "gaussian": { 
		 "optdone": 1, 
		 "sigma_profile": "yes", 
		 "theory": "DFT", 
		 "functional": "B3LYP", 
		 "basiset": "6-31G**", 
		 "properties": { 
			 "R2extent": 3077.1124, 
			 "electric_dipole_moment_norm": 6.09453092945, 
			 "electric_quadrupole_moment_norm": 25.811684823, 
			 "total_energy": -647.421352097, 
			 "HOMO_LUMO_gap": 0.15404, 
			 "cosmo_polarized_energy": -19.24, 
			 "cosmo_cavitation_energy": 25.29, 
			 "cosmo_dispersion_energy": -18.57, 
			 "cosmo_repulsion_energy": 1.46, 
			 "cosmo_total_nonelectrostatic_energy": 8.18, 
			 "SMD_solvation_energy": 7.13 
		},
		"coords": [
			{
				"x": -1.5039988811,
				"y": -2.7818131828,
				"z": -3.0869465129,
				"element": "O" 
			},
			{
				"x": -1.4131461015,
				"y": -1.4516257642,
				"z": -2.798183766,
				"element": "C" 
			},
			{
				"x": -1.87799647,
				"y": -0.6250136658,
				"z": -3.5441725468,
				"element": "O" 
			},
			{
				"x": -0.7056946419,
				"y": -1.1326144511,
				"z": -1.5463551893,
				"element": "C" 
			},
			{
				"x": 0.0609075956,
				"y": -1.8612332451,
				"z": -0.6668309035,
				"element": "C" 
			},
			{
				"x": 0.501060031,
				"y": -0.9616118313,
				"z": 0.336841125,
				"element": "C" 
			},
			{
				"x": -0.0269386067,
				"y": 0.2683126986,
				"z": 0.0035734825,
				"element": "C" 
			},
			{
				"x": -0.7548959953,
				"y": 0.1701990593,
				"z": -1.1368741848,
				"element": "O" 
			},
			{
				"x": 0.0632413094,
				"y": 1.5577281345,
				"z": 0.6369714852,
				"element": "C" 
			},
			{
				"x": 0.6911124481,
				"y": 1.9841448921,
				"z": 1.782006235,
				"element": "C" 
			},
			{
				"x": 0.4222039656,
				"y": 3.3814899156,
				"z": 1.8892420483,
				"element": "C" 
			},
			{
				"x": -0.3458678315,
				"y": 3.7041928144,
				"z": 0.8090899914,
				"element": "C" 
			},
			{
				"x": -0.5731730296,
				"y": 2.6077684998,
				"z": 0.0380021405,
				"element": "O" 
			},
			{
				"x": -1.2076300968,
				"y": -3.3158550556,
				"z": -2.3370415583,
				"element": "H" 
			},
			{
				"x": 0.3095526556,
				"y": -2.9121690177,
				"z": -0.7321016043,
				"element": "H" 
			},
			{
				"x": 1.1275292032,
				"y": -1.1836473746,
				"z": 1.1879702312,
				"element": "H" 
			},
			{
				"x": 1.2706713106,
				"y": 1.3753478502,
				"z": 2.460684248,
				"element": "H" 
			},
			{
				"x": 0.7558583153,
				"y": 4.0536382413,
				"z": 2.6662312634,
				"element": "H" 
			},
			{
				"x": -0.7913951797,
				"y": 4.6222614822,
				"z": 0.4593940152,
				"element": "H" 
			}
		],
		 "valence_orbital": [ 
			{
				"type": "occ",
				"energy": -0.30626,
				"method": "rhf"
			},
			{
				"type": "occ",
				"energy": -0.29581,
				"method": "rhf"
			},
			{
				"type": "occ",
				"energy": -0.28397,
				"method": "rhf"
			},
			{
				"type": "occ",
				"energy": -0.27285,
				"method": "rhf"
			},
			{
				"type": "occ",
				"energy": -0.21418,
				"method": "rhf"
			},
			{
				"type": "unocc",
				"energy": -0.06014,
				"method": "rhf"
			},
			{
				"type": "unocc",
				"energy": -0.0084,
				"method": "rhf"
			},
			{
				"type": "unocc",
				"energy": 0.03967,
				"method": "rhf"
			},
			{
				"type": "unocc",
				"energy": 0.05345,
				"method": "rhf"
			},
			{
				"type": "unocc",
				"energy": 0.08503,
				"method": "rhf"
			}
		],
		"cosmo_sigma_profile": { 
			"-0.025": 0.0,
			"-0.024": 0.0,
			"-0.023": 0.0,
			"-0.022": 0.0,
			"-0.021": 0.0,
			"-0.02": 0.0,
			"-0.019": 0.254336837987,
			"-0.018": 1.49824045707,
			"-0.017": 0.914333532797,
			"-0.016": 1.21651935951,
			"-0.015": 1.1697746601,
			"-0.014": 0.919573970321,
			"-0.013": 1.33265527682,
			"-0.012": 1.05568309943,
			"-0.011": 0.993592485923,
			"-0.01": 2.47671587607,
			"-0.009": 3.71509325585,
			"-0.008": 8.41367636501,
			"-0.007": 10.0869561201,
			"-0.006": 8.27855552659,
			"-0.005": 9.82968926718,
			"-0.004": 8.43015545915,
			"-0.003": 8.24724251032,
			"-0.002": 8.89580419717,
			"-0.001": 11.8651083631,
			"0.0": 16.4289246595,
			"0.001": 15.9825837006,
			"0.002": 17.0440409741,
			"0.003": 12.9302268943,
			"0.004": 8.51148888853,
			"0.005": 4.77525057095,
			"0.006": 3.98657940642,
			"0.007": 4.59752797125,
			"0.008": 5.44381632533,
			"0.009": 5.17232629236,
			"0.01": 5.2801285666,
			"0.011": 6.24262121556,
			"0.012": 6.03333552571,
			"0.013": 2.3545842176,
			"0.014": 0.0341306946758,
			"0.015": 0.0,
			"0.016": 0.0,
			"0.017": 0.0,
			"0.018": 0.0,
			"0.019": 0.0,
			"0.02": 0.0,
			"0.021": 0.0,
			"0.022": 0.0,
			"0.023": 0.0,
			"0.024": 0.0,
			"0.025": 0.0
		}
	}
}
