{
	 "smiles": "CCOC(=O)CC1=NC(O)=CS1", 
	 "Tm": 427.15, 
	 "num_atms": 21, 
	 "gaussian": { 
		 "optdone": 1, 
		 "sigma_profile": "yes", 
		 "theory": "DFT", 
		 "functional": "B3LYP", 
		 "basiset": "6-31G**", 
		 "properties": { 
			 "R2extent": 3227.0702, 
			 "electric_dipole_moment_norm": 1.7020497525, 
			 "electric_quadrupole_moment_norm": 10.1739169276, 
			 "total_energy": -950.779577212, 
			 "HOMO_LUMO_gap": 0.18949, 
			 "cosmo_polarized_energy": -12.01, 
			 "cosmo_cavitation_energy": 27.77, 
			 "cosmo_dispersion_energy": -20.02, 
			 "cosmo_repulsion_energy": 1.62, 
			 "cosmo_total_nonelectrostatic_energy": 9.37, 
			 "SMD_solvation_energy": 4.71 
		},
		"coords": [
			{
				"x": -4.1581424143,
				"y": -1.9534101946,
				"z": -0.1250280156,
				"element": "C" 
			},
			{
				"x": -3.6833880801,
				"y": -1.0301011792,
				"z": -1.2300947265,
				"element": "C" 
			},
			{
				"x": -2.3907033218,
				"y": -0.5080024839,
				"z": -0.8348932882,
				"element": "O" 
			},
			{
				"x": -1.7933747144,
				"y": 0.3135986327,
				"z": -1.7163905324,
				"element": "C" 
			},
			{
				"x": -2.2718644942,
				"y": 0.6439777255,
				"z": -2.7776879172,
				"element": "O" 
			},
			{
				"x": -0.4498437503,
				"y": 0.8210407934,
				"z": -1.1901237424,
				"element": "C" 
			},
			{
				"x": 0.4028941489,
				"y": -0.2311621458,
				"z": -0.5425908454,
				"element": "C" 
			},
			{
				"x": 1.0801105491,
				"y": -1.1216555483,
				"z": -1.2184670344,
				"element": "N" 
			},
			{
				"x": 1.7531634626,
				"y": -1.9689707018,
				"z": -0.3776475378,
				"element": "C" 
			},
			{
				"x": 2.511652649,
				"y": -2.9557837239,
				"z": -0.9085809633,
				"element": "O" 
			},
			{
				"x": 1.6071004987,
				"y": -1.7431692693,
				"z": 0.9644926239,
				"element": "C" 
			},
			{
				"x": 0.5565376122,
				"y": -0.3815901282,
				"z": 1.1905682908,
				"element": "S" 
			},
			{
				"x": -4.2565775925,
				"y": -1.4139249957,
				"z": 0.8212807134,
				"element": "H" 
			},
			{
				"x": -3.4574689859,
				"y": -2.7802040775,
				"z": 0.0210940885,
				"element": "H" 
			},
			{
				"x": -5.135348175,
				"y": -2.371017358,
				"z": -0.3866925311,
				"element": "H" 
			},
			{
				"x": -3.5721232659,
				"y": -1.5509334667,
				"z": -2.1858877437,
				"element": "H" 
			},
			{
				"x": -4.3664344026,
				"y": -0.1897567187,
				"z": -1.3895215246,
				"element": "H" 
			},
			{
				"x": 0.0797328612,
				"y": 1.250156758,
				"z": -2.0430085154,
				"element": "H" 
			},
			{
				"x": -0.6600116535,
				"y": 1.6307017713,
				"z": -0.4820512877,
				"element": "H" 
			},
			{
				"x": 2.4315119546,
				"y": -2.8758625586,
				"z": -1.8701426325,
				"element": "H" 
			},
			{
				"x": 2.0509771143,
				"y": -2.2789311307,
				"z": 1.7886731216,
				"element": "H" 
			}
		],
		 "valence_orbital": [ 
			{
				"type": "occ",
				"energy": -0.30555,
				"method": "rhf"
			},
			{
				"type": "occ",
				"energy": -0.2908,
				"method": "rhf"
			},
			{
				"type": "occ",
				"energy": -0.28492,
				"method": "rhf"
			},
			{
				"type": "occ",
				"energy": -0.27507,
				"method": "rhf"
			},
			{
				"type": "occ",
				"energy": -0.21868,
				"method": "rhf"
			},
			{
				"type": "unocc",
				"energy": -0.02919,
				"method": "rhf"
			},
			{
				"type": "unocc",
				"energy": 0.00051,
				"method": "rhf"
			},
			{
				"type": "unocc",
				"energy": 0.01884,
				"method": "rhf"
			},
			{
				"type": "unocc",
				"energy": 0.0679,
				"method": "rhf"
			},
			{
				"type": "unocc",
				"energy": 0.09155,
				"method": "rhf"
			}
		],
		"cosmo_sigma_profile": { 
			"-0.025": 0.0,
			"-0.024": 0.0,
			"-0.023": 0.0,
			"-0.022": 0.0,
			"-0.021": 0.0,
			"-0.02": 0.0,
			"-0.019": 0.0,
			"-0.018": 0.156587138787,
			"-0.017": 0.885611600309,
			"-0.016": 0.393990584178,
			"-0.015": 0.840206050471,
			"-0.014": 1.19802931502,
			"-0.013": 0.616809452924,
			"-0.012": 0.383015830266,
			"-0.011": 0.292494122795,
			"-0.01": 0.883167919264,
			"-0.009": 3.78837811113,
			"-0.008": 5.33632309823,
			"-0.007": 6.41781438494,
			"-0.006": 6.57709489265,
			"-0.005": 13.6496912258,
			"-0.004": 20.1824498458,
			"-0.003": 17.936213081,
			"-0.002": 14.1364909634,
			"-0.001": 14.4754342576,
			"0.0": 16.5423508035,
			"0.001": 15.0169418251,
			"0.002": 14.7259165779,
			"0.003": 14.0479213899,
			"0.004": 12.4567761238,
			"0.005": 7.3481115008,
			"0.006": 5.61611876465,
			"0.007": 3.48867805443,
			"0.008": 4.7723347513,
			"0.009": 4.30784814029,
			"0.01": 4.16950632239,
			"0.011": 6.83752969597,
			"0.012": 4.20903687393,
			"0.013": 0.60892986745,
			"0.014": 0.0,
			"0.015": 0.0,
			"0.016": 0.0,
			"0.017": 0.0,
			"0.018": 0.0,
			"0.019": 0.0,
			"0.02": 0.0,
			"0.021": 0.0,
			"0.022": 0.0,
			"0.023": 0.0,
			"0.024": 0.0,
			"0.025": 0.0
		}
	}
}
