{
	 "smiles": "CC1=C(C=CC=C1O)[N+]([O-])=O", 
	 "Tm": 423.15, 
	 "num_atms": 18, 
	 "gaussian": { 
		 "optdone": 1, 
		 "sigma_profile": "yes", 
		 "theory": "DFT", 
		 "functional": "B3LYP", 
		 "basiset": "6-31G**", 
		 "properties": { 
			 "R2extent": 2172.6406, 
			 "electric_dipole_moment_norm": 3.37771415161, 
			 "electric_quadrupole_moment_norm": 9.18462803711, 
			 "total_energy": -551.282844838, 
			 "HOMO_LUMO_gap": 0.15838, 
			 "cosmo_polarized_energy": -10.84, 
			 "cosmo_cavitation_energy": 22.15, 
			 "cosmo_dispersion_energy": -16.66, 
			 "cosmo_repulsion_energy": 1.32, 
			 "cosmo_total_nonelectrostatic_energy": 6.82, 
			 "SMD_solvation_energy": 6.26 
		},
		"coords": [
			{
				"x": -0.3456600906,
				"y": 0.3812975041,
				"z": -1.3530762806,
				"element": "C" 
			},
			{
				"x": -0.1759238398,
				"y": -1.0012985526,
				"z": -0.7662107863,
				"element": "C" 
			},
			{
				"x": 0.4102945264,
				"y": -1.2858862297,
				"z": 0.4810960991,
				"element": "C" 
			},
			{
				"x": 0.6253917578,
				"y": -2.581406063,
				"z": 0.9512316769,
				"element": "C" 
			},
			{
				"x": 0.2137157811,
				"y": -3.656497323,
				"z": 0.1699990498,
				"element": "C" 
			},
			{
				"x": -0.395437196,
				"y": -3.4293346197,
				"z": -1.059119958,
				"element": "C" 
			},
			{
				"x": -0.5880472562,
				"y": -2.1220439206,
				"z": -1.5180338467,
				"element": "C" 
			},
			{
				"x": -1.1857063897,
				"y": -1.9997549705,
				"z": -2.7379835403,
				"element": "O" 
			},
			{
				"x": 0.8212338119,
				"y": -0.2002602119,
				"z": 1.3898231062,
				"element": "N" 
			},
			{
				"x": 0.2232064259,
				"y": 0.8755925519,
				"z": 1.3195303591,
				"element": "O" 
			},
			{
				"x": 1.7242184084,
				"y": -0.4397604991,
				"z": 2.1903632678,
				"element": "O" 
			},
			{
				"x": -0.1991590726,
				"y": 0.3572954132,
				"z": -2.4400096471,
				"element": "H" 
			},
			{
				"x": -1.3409733557,
				"y": 0.7917925751,
				"z": -1.1460987781,
				"element": "H" 
			},
			{
				"x": 0.3709372838,
				"y": 1.0902537132,
				"z": -0.9441943212,
				"element": "H" 
			},
			{
				"x": 1.0984313606,
				"y": -2.7189225823,
				"z": 1.9144955183,
				"element": "H" 
			},
			{
				"x": 0.360360507,
				"y": -4.6716897607,
				"z": 0.5240477085,
				"element": "H" 
			},
			{
				"x": -0.7335159336,
				"y": -4.247324394,
				"z": -1.6862554578,
				"element": "H" 
			},
			{
				"x": -1.3789667287,
				"y": -1.0718526303,
				"z": -2.9201041699,
				"element": "H" 
			}
		],
		 "valence_orbital": [ 
			{
				"type": "occ",
				"energy": -0.30796,
				"method": "rhf"
			},
			{
				"type": "occ",
				"energy": -0.30444,
				"method": "rhf"
			},
			{
				"type": "occ",
				"energy": -0.29334,
				"method": "rhf"
			},
			{
				"type": "occ",
				"energy": -0.27019,
				"method": "rhf"
			},
			{
				"type": "occ",
				"energy": -0.24237,
				"method": "rhf"
			},
			{
				"type": "unocc",
				"energy": -0.08399,
				"method": "rhf"
			},
			{
				"type": "unocc",
				"energy": -0.01613,
				"method": "rhf"
			},
			{
				"type": "unocc",
				"energy": 0.00175,
				"method": "rhf"
			},
			{
				"type": "unocc",
				"energy": 0.05509,
				"method": "rhf"
			},
			{
				"type": "unocc",
				"energy": 0.08865,
				"method": "rhf"
			}
		],
		"cosmo_sigma_profile": { 
			"-0.025": 0.0,
			"-0.024": 0.0,
			"-0.023": 0.0,
			"-0.022": 0.0,
			"-0.021": 0.0,
			"-0.02": 0.0,
			"-0.019": 0.0,
			"-0.018": 0.0103250477293,
			"-0.017": 0.710797575215,
			"-0.016": 0.378038367148,
			"-0.015": 1.22835870178,
			"-0.014": 1.1454043249,
			"-0.013": 0.513395954537,
			"-0.012": 0.95518914636,
			"-0.011": 1.05217845953,
			"-0.01": 1.59769793812,
			"-0.009": 1.00761262309,
			"-0.008": 1.42388906147,
			"-0.007": 7.30369663569,
			"-0.006": 10.3806809019,
			"-0.005": 12.0841397546,
			"-0.004": 10.4502366877,
			"-0.003": 10.4923778177,
			"-0.002": 10.5993764138,
			"-0.001": 11.8880595723,
			"0.0": 10.7666106013,
			"0.001": 12.9305783543,
			"0.002": 14.5783468305,
			"0.003": 11.5141365349,
			"0.004": 4.82134604824,
			"0.005": 4.22648732437,
			"0.006": 5.24293578618,
			"0.007": 7.83057235057,
			"0.008": 9.6928314221,
			"0.009": 6.17715299079,
			"0.01": 4.85167310432,
			"0.011": 1.06827555589,
			"0.012": 0.0,
			"0.013": 0.0,
			"0.014": 0.0,
			"0.015": 0.0,
			"0.016": 0.0,
			"0.017": 0.0,
			"0.018": 0.0,
			"0.019": 0.0,
			"0.02": 0.0,
			"0.021": 0.0,
			"0.022": 0.0,
			"0.023": 0.0,
			"0.024": 0.0,
			"0.025": 0.0
		}
	}
}
