{
	 "smiles": "[O-][N+](=O)C1=CC=C(C=C1)C1=C(C(=NO1)C(=O)C1=CC=C2C=CC=CC2=C1)S(=O)(=O)C1=CC=CC=C1", 
	 "Tm": 404.15, 
	 "num_atms": 51, 
	 "gaussian": { 
		 "optdone": 1, 
		 "sigma_profile": "yes", 
		 "theory": "DFT", 
		 "functional": "B3LYP", 
		 "basiset": "6-31G**", 
		 "properties": { 
			 "R2extent": 22145.6392, 
			 "electric_dipole_moment_norm": 3.55722007472, 
			 "electric_quadrupole_moment_norm": 39.4362362333, 
			 "total_energy": -1959.22575331, 
			 "HOMO_LUMO_gap": 0.12359, 
			 "cosmo_polarized_energy": -21.25, 
			 "cosmo_cavitation_energy": 58.91, 
			 "cosmo_dispersion_energy": -40.47, 
			 "cosmo_repulsion_energy": 2.93, 
			 "cosmo_total_nonelectrostatic_energy": 21.38, 
			 "SMD_solvation_energy": 11.3 
		},
		"coords": [
			{
				"x": 6.3582629822,
				"y": 0.9183695892,
				"z": -5.5043491888,
				"element": "O" 
			},
			{
				"x": 6.1387536719,
				"y": 1.8326337883,
				"z": -4.711853095,
				"element": "N" 
			},
			{
				"x": 6.757194318,
				"y": 2.8951157394,
				"z": -4.6722329075,
				"element": "O" 
			},
			{
				"x": 5.0527625231,
				"y": 1.6405868709,
				"z": -3.7337972101,
				"element": "C" 
			},
			{
				"x": 4.7840429834,
				"y": 2.6560344959,
				"z": -2.8179553258,
				"element": "C" 
			},
			{
				"x": 3.7615579438,
				"y": 2.4686302841,
				"z": -1.8971181011,
				"element": "C" 
			},
			{
				"x": 3.0166368681,
				"y": 1.271838034,
				"z": -1.8879697333,
				"element": "C" 
			},
			{
				"x": 3.3030572097,
				"y": 0.2685674112,
				"z": -2.8299913456,
				"element": "C" 
			},
			{
				"x": 4.3264654384,
				"y": 0.4532666673,
				"z": -3.7551614798,
				"element": "C" 
			},
			{
				"x": 1.9367516324,
				"y": 1.1396320927,
				"z": -0.8997765202,
				"element": "C" 
			},
			{
				"x": 1.340288417,
				"y": 0.1320531602,
				"z": -0.1664442066,
				"element": "C" 
			},
			{
				"x": 0.3838819109,
				"y": 0.8122414064,
				"z": 0.657246064,
				"element": "C" 
			},
			{
				"x": 0.3888407116,
				"y": 2.1038238639,
				"z": 0.4304807747,
				"element": "N" 
			},
			{
				"x": 1.3673606822,
				"y": 2.3120100197,
				"z": -0.541707624,
				"element": "O" 
			},
			{
				"x": -0.4665163761,
				"y": 0.2789488449,
				"z": 1.7982990282,
				"element": "C" 
			},
			{
				"x": 0.1174772216,
				"y": -0.1458922106,
				"z": 2.7845910813,
				"element": "O" 
			},
			{
				"x": -1.938619741,
				"y": 0.3389366726,
				"z": 1.697041765,
				"element": "C" 
			},
			{
				"x": -2.7005832517,
				"y": -0.1505499973,
				"z": 2.7985171056,
				"element": "C" 
			},
			{
				"x": -4.0698628863,
				"y": -0.1271576729,
				"z": 2.757465936,
				"element": "C" 
			},
			{
				"x": -4.7623159632,
				"y": 0.3825406541,
				"z": 1.6212908795,
				"element": "C" 
			},
			{
				"x": -6.1782974912,
				"y": 0.4199717697,
				"z": 1.5484213051,
				"element": "C" 
			},
			{
				"x": -6.8125215378,
				"y": 0.9203264461,
				"z": 0.4316155472,
				"element": "C" 
			},
			{
				"x": -6.0607338946,
				"y": 1.4072187093,
				"z": -0.6655833605,
				"element": "C" 
			},
			{
				"x": -4.6849284498,
				"y": 1.3845708757,
				"z": -0.6260956993,
				"element": "C" 
			},
			{
				"x": -4.0008496803,
				"y": 0.874702304,
				"z": 0.5108598774,
				"element": "C" 
			},
			{
				"x": -2.5858494146,
				"y": 0.8379153917,
				"z": 0.5781917776,
				"element": "C" 
			},
			{
				"x": 1.5856433283,
				"y": -1.6422387399,
				"z": -0.1596693939,
				"element": "S" 
			},
			{
				"x": 1.8915541871,
				"y": -2.0742570793,
				"z": -1.5337484774,
				"element": "O" 
			},
			{
				"x": 0.419622308,
				"y": -2.187287892,
				"z": 0.5431303938,
				"element": "O" 
			},
			{
				"x": 3.0602669011,
				"y": -1.8919107791,
				"z": 0.8332788765,
				"element": "C" 
			},
			{
				"x": 3.0117043648,
				"y": -1.6337390395,
				"z": 2.2068435708,
				"element": "C" 
			},
			{
				"x": 4.1610581558,
				"y": -1.8559481366,
				"z": 2.9642355234,
				"element": "C" 
			},
			{
				"x": 5.3259113175,
				"y": -2.3338123837,
				"z": 2.3566319286,
				"element": "C" 
			},
			{
				"x": 5.3527836911,
				"y": -2.59205407,
				"z": 0.9847111237,
				"element": "C" 
			},
			{
				"x": 4.2139918967,
				"y": -2.3698844563,
				"z": 0.2091956385,
				"element": "C" 
			},
			{
				"x": 5.3730973061,
				"y": 3.5640826037,
				"z": -2.8373617872,
				"element": "H" 
			},
			{
				"x": 3.5379659796,
				"y": 3.2455370561,
				"z": -1.1754491168,
				"element": "H" 
			},
			{
				"x": 2.7228270969,
				"y": -0.6450154736,
				"z": -2.8379144356,
				"element": "H" 
			},
			{
				"x": 4.5621125364,
				"y": -0.3031999134,
				"z": -4.4930309425,
				"element": "H" 
			},
			{
				"x": -2.1654860152,
				"y": -0.5395082102,
				"z": 3.6573919868,
				"element": "H" 
			},
			{
				"x": -4.6496883355,
				"y": -0.5018010524,
				"z": 3.596774745,
				"element": "H" 
			},
			{
				"x": -6.7567304439,
				"y": 0.0465731677,
				"z": 2.3891830649,
				"element": "H" 
			},
			{
				"x": -7.8975644922,
				"y": 0.9429262893,
				"z": 0.388772624,
				"element": "H" 
			},
			{
				"x": -6.5753153377,
				"y": 1.7981494453,
				"z": -1.5381346819,
				"element": "H" 
			},
			{
				"x": -4.101926735,
				"y": 1.7566581722,
				"z": -1.4643400061,
				"element": "H" 
			},
			{
				"x": -2.0159979194,
				"y": 1.2176969844,
				"z": -0.263084988,
				"element": "H" 
			},
			{
				"x": 2.1012762535,
				"y": -1.258808744,
				"z": 2.6646108329,
				"element": "H" 
			},
			{
				"x": 4.1446200605,
				"y": -1.659095639,
				"z": 4.0317651698,
				"element": "H" 
			},
			{
				"x": 6.2150931516,
				"y": -2.5070734494,
				"z": 2.9557464256,
				"element": "H" 
			},
			{
				"x": 6.2572748065,
				"y": -2.9683137558,
				"z": 0.5167394181,
				"element": "H" 
			},
			{
				"x": 4.2059501095,
				"y": -2.5723101149,
				"z": -0.8556628368,
				"element": "H" 
			}
		],
		 "valence_orbital": [ 
			{
				"type": "occ",
				"energy": -0.27751,
				"method": "rhf"
			},
			{
				"type": "occ",
				"energy": -0.27453,
				"method": "rhf"
			},
			{
				"type": "occ",
				"energy": -0.26849,
				"method": "rhf"
			},
			{
				"type": "occ",
				"energy": -0.25863,
				"method": "rhf"
			},
			{
				"type": "occ",
				"energy": -0.23244,
				"method": "rhf"
			},
			{
				"type": "unocc",
				"energy": -0.10885,
				"method": "rhf"
			},
			{
				"type": "unocc",
				"energy": -0.0827,
				"method": "rhf"
			},
			{
				"type": "unocc",
				"energy": -0.05905,
				"method": "rhf"
			},
			{
				"type": "unocc",
				"energy": -0.0479,
				"method": "rhf"
			},
			{
				"type": "unocc",
				"energy": -0.04199,
				"method": "rhf"
			}
		],
		"cosmo_sigma_profile": { 
			"-0.025": 0.0,
			"-0.024": 0.0,
			"-0.023": 0.0,
			"-0.022": 0.0,
			"-0.021": 0.0,
			"-0.02": 0.0,
			"-0.019": 0.0,
			"-0.018": 0.0,
			"-0.017": 0.0,
			"-0.016": 0.0,
			"-0.015": 0.0,
			"-0.014": 0.0,
			"-0.013": 0.0,
			"-0.012": 0.0,
			"-0.011": 0.0,
			"-0.01": 0.0,
			"-0.009": 0.628078634415,
			"-0.008": 6.27581871017,
			"-0.007": 21.9839875346,
			"-0.006": 30.4727761653,
			"-0.005": 34.7596298259,
			"-0.004": 33.4030235597,
			"-0.003": 30.0898459069,
			"-0.002": 34.1662006407,
			"-0.001": 36.2993754276,
			"0.0": 39.39188319,
			"0.001": 34.1342200122,
			"0.002": 43.1424803549,
			"0.003": 36.6197931355,
			"0.004": 19.3444018425,
			"0.005": 11.0185017263,
			"0.006": 10.1632738881,
			"0.007": 16.4148088532,
			"0.008": 12.7820750116,
			"0.009": 11.7493903484,
			"0.01": 8.19257095098,
			"0.011": 6.06276537083,
			"0.012": 0.189855411132,
			"0.013": 0.0,
			"0.014": 0.0,
			"0.015": 0.0,
			"0.016": 0.0,
			"0.017": 0.0,
			"0.018": 0.0,
			"0.019": 0.0,
			"0.02": 0.0,
			"0.021": 0.0,
			"0.022": 0.0,
			"0.023": 0.0,
			"0.024": 0.0,
			"0.025": 0.0
		}
	}
}
