{
	 "smiles": "CC(C)S(=O)(=O)CC1=CC(N)=CC=C1", 
	 "Tm": 387.15, 
	 "num_atms": 29, 
	 "gaussian": { 
		 "optdone": 1, 
		 "sigma_profile": "yes", 
		 "theory": "DFT", 
		 "functional": "B3LYP", 
		 "basiset": "6-31G**", 
		 "properties": { 
			 "R2extent": 3683.0727, 
			 "electric_dipole_moment_norm": 4.83092500563, 
			 "electric_quadrupole_moment_norm": 13.130609428, 
			 "total_energy": -993.450688625, 
			 "HOMO_LUMO_gap": 0.1937, 
			 "cosmo_polarized_energy": -18.31, 
			 "cosmo_cavitation_energy": 32.73, 
			 "cosmo_dispersion_energy": -23.07, 
			 "cosmo_repulsion_energy": 1.78, 
			 "cosmo_total_nonelectrostatic_energy": 11.44, 
			 "SMD_solvation_energy": 4.76 
		},
		"coords": [
			{
				"x": 1.4882094518,
				"y": 0.7857429479,
				"z": -3.4123685938,
				"element": "C" 
			},
			{
				"x": 1.9775558657,
				"y": 0.1705502372,
				"z": -2.1013912698,
				"element": "C" 
			},
			{
				"x": 3.4537521002,
				"y": -0.2367020243,
				"z": -2.1434396978,
				"element": "C" 
			},
			{
				"x": 1.0011480679,
				"y": -1.3326600907,
				"z": -1.6781909442,
				"element": "S" 
			},
			{
				"x": 1.5542638865,
				"y": -1.8869776538,
				"z": -0.4263646239,
				"element": "O" 
			},
			{
				"x": 0.903673349,
				"y": -2.1865446602,
				"z": -2.8780697756,
				"element": "O" 
			},
			{
				"x": -0.7041517737,
				"y": -0.7382872918,
				"z": -1.3166161176,
				"element": "C" 
			},
			{
				"x": -0.8074552248,
				"y": 0.311779673,
				"z": -0.2432934068,
				"element": "C" 
			},
			{
				"x": -0.5073444283,
				"y": -0.0081803952,
				"z": 1.0846882841,
				"element": "C" 
			},
			{
				"x": -0.5964741152,
				"y": 0.9605048565,
				"z": 2.0974159464,
				"element": "C" 
			},
			{
				"x": -0.344402082,
				"y": 0.6190422228,
				"z": 3.4238350665,
				"element": "N" 
			},
			{
				"x": -1.0008869588,
				"y": 2.2640575745,
				"z": 1.7540769144,
				"element": "C" 
			},
			{
				"x": -1.3019392726,
				"y": 2.5790917718,
				"z": 0.4328298831,
				"element": "C" 
			},
			{
				"x": -1.20631217,
				"y": 1.6150667776,
				"z": -0.5724381939,
				"element": "C" 
			},
			{
				"x": 2.1098980832,
				"y": 1.6526940335,
				"z": -3.6582174571,
				"element": "H" 
			},
			{
				"x": 0.4528060741,
				"y": 1.1316709154,
				"z": -3.3473964012,
				"element": "H" 
			},
			{
				"x": 1.5619977184,
				"y": 0.0619715682,
				"z": -4.2282312398,
				"element": "H" 
			},
			{
				"x": 1.795678811,
				"y": 0.8475153011,
				"z": -1.2600708187,
				"element": "H" 
			},
			{
				"x": 3.6341914682,
				"y": -0.9537486031,
				"z": -2.9498511515,
				"element": "H" 
			},
			{
				"x": 3.7657483886,
				"y": -0.6882204479,
				"z": -1.1997723142,
				"element": "H" 
			},
			{
				"x": 4.0657517888,
				"y": 0.6513452991,
				"z": -2.3293216709,
				"element": "H" 
			},
			{
				"x": -1.1183204071,
				"y": -0.4037134262,
				"z": -2.2697743906,
				"element": "H" 
			},
			{
				"x": -1.2013017312,
				"y": -1.6738248158,
				"z": -1.040166555,
				"element": "H" 
			},
			{
				"x": -0.1808560086,
				"y": -1.0145021377,
				"z": 1.3295667777,
				"element": "H" 
			},
			{
				"x": -0.0849667393,
				"y": 1.3837994498,
				"z": 4.0307619261,
				"element": "H" 
			},
			{
				"x": 0.2397204025,
				"y": -0.1943010231,
				"z": 3.5594397275,
				"element": "H" 
			},
			{
				"x": -1.0840032134,
				"y": 3.0215007238,
				"z": 2.5295053969,
				"element": "H" 
			},
			{
				"x": -1.6160359815,
				"y": 3.5889266478,
				"z": 0.1841356735,
				"element": "H" 
			},
			{
				"x": -1.4543453497,
				"y": 1.8680025699,
				"z": -1.5992809739,
				"element": "H" 
			}
		],
		 "valence_orbital": [ 
			{
				"type": "occ",
				"energy": -0.30178,
				"method": "rhf"
			},
			{
				"type": "occ",
				"energy": -0.28567,
				"method": "rhf"
			},
			{
				"type": "occ",
				"energy": -0.27701,
				"method": "rhf"
			},
			{
				"type": "occ",
				"energy": -0.24605,
				"method": "rhf"
			},
			{
				"type": "occ",
				"energy": -0.20974,
				"method": "rhf"
			},
			{
				"type": "unocc",
				"energy": -0.01604,
				"method": "rhf"
			},
			{
				"type": "unocc",
				"energy": 0.00628,
				"method": "rhf"
			},
			{
				"type": "unocc",
				"energy": 0.06458,
				"method": "rhf"
			},
			{
				"type": "unocc",
				"energy": 0.06686,
				"method": "rhf"
			},
			{
				"type": "unocc",
				"energy": 0.07992,
				"method": "rhf"
			}
		],
		"cosmo_sigma_profile": { 
			"-0.025": 0.0,
			"-0.024": 0.0,
			"-0.023": 0.0,
			"-0.022": 0.0,
			"-0.021": 0.0,
			"-0.02": 0.0,
			"-0.019": 0.0,
			"-0.018": 0.0,
			"-0.017": 0.0,
			"-0.016": 0.0,
			"-0.015": 0.0,
			"-0.014": 0.0,
			"-0.013": 0.54629394644,
			"-0.012": 2.62070201788,
			"-0.011": 2.65203534192,
			"-0.01": 2.23823840477,
			"-0.009": 3.97232493944,
			"-0.008": 6.8280967923,
			"-0.007": 7.827720622,
			"-0.006": 10.7684046436,
			"-0.005": 19.9660531203,
			"-0.004": 21.2996213995,
			"-0.003": 22.6269672513,
			"-0.002": 19.7849298288,
			"-0.001": 21.885140159,
			"0.0": 17.3465951561,
			"0.001": 9.8521912346,
			"0.002": 8.50866163605,
			"0.003": 8.35439983148,
			"0.004": 10.2450290828,
			"0.005": 11.2662787419,
			"0.006": 9.60034017011,
			"0.007": 4.25700255974,
			"0.008": 3.74360430994,
			"0.009": 3.61524834448,
			"0.01": 5.68232125498,
			"0.011": 6.50475856251,
			"0.012": 9.64855214084,
			"0.013": 4.59751241576,
			"0.014": 0.734790022574,
			"0.015": 0.0,
			"0.016": 0.0,
			"0.017": 0.0,
			"0.018": 0.0,
			"0.019": 0.0,
			"0.02": 0.0,
			"0.021": 0.0,
			"0.022": 0.0,
			"0.023": 0.0,
			"0.024": 0.0,
			"0.025": 0.0
		}
	}
}
