{
	 "smiles": "OC(=O)CCC(=O)C1=CC=C(Cl)C=C1", 
	 "Tm": 403.15, 
	 "num_atms": 23, 
	 "gaussian": { 
		 "optdone": 1, 
		 "sigma_profile": "yes", 
		 "theory": "DFT", 
		 "functional": "B3LYP", 
		 "basiset": "6-31G**", 
		 "properties": { 
			 "R2extent": 4803.8025, 
			 "electric_dipole_moment_norm": 2.67559733518, 
			 "electric_quadrupole_moment_norm": 17.3152326892, 
			 "total_energy": -1072.36933024, 
			 "HOMO_LUMO_gap": 0.18609, 
			 "cosmo_polarized_energy": -14.15, 
			 "cosmo_cavitation_energy": 30.08, 
			 "cosmo_dispersion_energy": -21.49, 
			 "cosmo_repulsion_energy": 1.71, 
			 "cosmo_total_nonelectrostatic_energy": 10.3, 
			 "SMD_solvation_energy": 6.51 
		},
		"coords": [
			{
				"x": -2.0726586965,
				"y": 1.493638166,
				"z": -2.5479322924,
				"element": "O" 
			},
			{
				"x": -1.2350726839,
				"y": 0.8632352366,
				"z": -3.4134156433,
				"element": "C" 
			},
			{
				"x": -1.474328198,
				"y": 0.7648147423,
				"z": -4.5945551646,
				"element": "O" 
			},
			{
				"x": -0.0170383722,
				"y": 0.3134368616,
				"z": -2.7021128006,
				"element": "C" 
			},
			{
				"x": 0.7899488348,
				"y": 1.4084666911,
				"z": -1.963726823,
				"element": "C" 
			},
			{
				"x": 1.9177358084,
				"y": 0.7981652444,
				"z": -1.1374307815,
				"element": "C" 
			},
			{
				"x": 3.0554491755,
				"y": 0.7662591785,
				"z": -1.5815841482,
				"element": "O" 
			},
			{
				"x": 1.6078259033,
				"y": 0.2120445081,
				"z": 0.2080508104,
				"element": "C" 
			},
			{
				"x": 0.3308887376,
				"y": 0.2465443904,
				"z": 0.7902062221,
				"element": "C" 
			},
			{
				"x": 0.1042923422,
				"y": -0.3145213794,
				"z": 2.0459543682,
				"element": "C" 
			},
			{
				"x": 1.1666720602,
				"y": -0.9127530268,
				"z": 2.7235424026,
				"element": "C" 
			},
			{
				"x": 0.8890870588,
				"y": -1.6187215962,
				"z": 4.3041341607,
				"element": "Cl" 
			},
			{
				"x": 2.4477046234,
				"y": -0.9598884761,
				"z": 2.1669396582,
				"element": "C" 
			},
			{
				"x": 2.6579047396,
				"y": -0.3981448972,
				"z": 0.9135031835,
				"element": "C" 
			},
			{
				"x": -2.822269217,
				"y": 1.8113349117,
				"z": -3.0789419517,
				"element": "H" 
			},
			{
				"x": 0.6055870808,
				"y": -0.1857557915,
				"z": -3.4464225421,
				"element": "H" 
			},
			{
				"x": -0.3642988818,
				"y": -0.4415443381,
				"z": -1.9868050418,
				"element": "H" 
			},
			{
				"x": 1.2561895301,
				"y": 2.0754370129,
				"z": -2.6928384548,
				"element": "H" 
			},
			{
				"x": 0.1184832484,
				"y": 2.001225471,
				"z": -1.3370623473,
				"element": "H" 
			},
			{
				"x": -0.5027782595,
				"y": 0.7097944994,
				"z": 0.2726448625,
				"element": "H" 
			},
			{
				"x": -0.881564969,
				"y": -0.2880921648,
				"z": 2.4962616907,
				"element": "H" 
			},
			{
				"x": 3.2591028822,
				"y": -1.4296505942,
				"z": 2.7116736746,
				"element": "H" 
			},
			{
				"x": 3.6401372526,
				"y": -0.4174246498,
				"z": 0.4535169578,
				"element": "H" 
			}
		],
		 "valence_orbital": [ 
			{
				"type": "occ",
				"energy": -0.32445,
				"method": "rhf"
			},
			{
				"type": "occ",
				"energy": -0.28729,
				"method": "rhf"
			},
			{
				"type": "occ",
				"energy": -0.27874,
				"method": "rhf"
			},
			{
				"type": "occ",
				"energy": -0.2613,
				"method": "rhf"
			},
			{
				"type": "occ",
				"energy": -0.25741,
				"method": "rhf"
			},
			{
				"type": "unocc",
				"energy": -0.07132,
				"method": "rhf"
			},
			{
				"type": "unocc",
				"energy": -0.02863,
				"method": "rhf"
			},
			{
				"type": "unocc",
				"energy": -0.00412,
				"method": "rhf"
			},
			{
				"type": "unocc",
				"energy": 0.01872,
				"method": "rhf"
			},
			{
				"type": "unocc",
				"energy": 0.02463,
				"method": "rhf"
			}
		],
		"cosmo_sigma_profile": { 
			"-0.025": 0.0,
			"-0.024": 0.0,
			"-0.023": 0.0,
			"-0.022": 0.0,
			"-0.021": 0.0,
			"-0.02": 0.0,
			"-0.019": 0.0,
			"-0.018": 0.860949572366,
			"-0.017": 0.837410450051,
			"-0.016": 0.782261669055,
			"-0.015": 0.824174338797,
			"-0.014": 0.954965901316,
			"-0.013": 0.515232212126,
			"-0.012": 0.657233287213,
			"-0.011": 0.536502844194,
			"-0.01": 0.764590917038,
			"-0.009": 0.842154497863,
			"-0.008": 2.17512208184,
			"-0.007": 8.64209939772,
			"-0.006": 17.3454950057,
			"-0.005": 18.2509586414,
			"-0.004": 16.4758095947,
			"-0.003": 16.0680212241,
			"-0.002": 14.3439922732,
			"-0.001": 13.0508072982,
			"0.0": 16.2475181546,
			"0.001": 20.6522561528,
			"0.002": 23.5773138327,
			"0.003": 12.971777185,
			"0.004": 14.268979847,
			"0.005": 4.73448700693,
			"0.006": 4.0048051071,
			"0.007": 4.17770724623,
			"0.008": 3.91203628821,
			"0.009": 3.18604194179,
			"0.01": 4.36394566715,
			"0.011": 8.39238412841,
			"0.012": 6.4039507706,
			"0.013": 1.23868722165,
			"0.014": 0.0,
			"0.015": 0.0,
			"0.016": 0.0,
			"0.017": 0.0,
			"0.018": 0.0,
			"0.019": 0.0,
			"0.02": 0.0,
			"0.021": 0.0,
			"0.022": 0.0,
			"0.023": 0.0,
			"0.024": 0.0,
			"0.025": 0.0
		}
	}
}
