{
	 "smiles": "CC(=O)N1CCC[C@H]1C(O)=O", 
	 "Tm": 390.65, 
	 "num_atms": 22, 
	 "gaussian": { 
		 "optdone": 1, 
		 "sigma_profile": "yes", 
		 "theory": "DFT", 
		 "functional": "B3LYP", 
		 "basiset": "6-31G**", 
		 "properties": { 
			 "R2extent": 1852.4907, 
			 "electric_dipole_moment_norm": 4.80482228704, 
			 "electric_quadrupole_moment_norm": 11.3005980567, 
			 "total_energy": -553.827673572, 
			 "HOMO_LUMO_gap": 0.23042, 
			 "cosmo_polarized_energy": -16.61, 
			 "cosmo_cavitation_energy": 24.78, 
			 "cosmo_dispersion_energy": -17.78, 
			 "cosmo_repulsion_energy": 1.45, 
			 "cosmo_total_nonelectrostatic_energy": 8.45, 
			 "SMD_solvation_energy": 5.46 
		},
		"coords": [
			{
				"x": 2.860443202,
				"y": 0.3306429384,
				"z": 1.098225535,
				"element": "C" 
			},
			{
				"x": 1.5711519631,
				"y": 0.427268275,
				"z": 1.8983877879,
				"element": "C" 
			},
			{
				"x": 1.4905554679,
				"y": 1.0809224869,
				"z": 2.9322579908,
				"element": "O" 
			},
			{
				"x": 0.4817960381,
				"y": -0.2563090023,
				"z": 1.4164957978,
				"element": "N" 
			},
			{
				"x": -0.8083403461,
				"y": -0.1588019198,
				"z": 2.1183821991,
				"element": "C" 
			},
			{
				"x": -1.7958074932,
				"y": -0.8386727415,
				"z": 1.1593796879,
				"element": "C" 
			},
			{
				"x": -0.9189254963,
				"y": -1.8399433174,
				"z": 0.3897394525,
				"element": "C" 
			},
			{
				"x": 0.4109842441,
				"y": -1.0644790728,
				"z": 0.2107505807,
				"element": "C" 
			},
			{
				"x": 0.3796887665,
				"y": -0.2184276208,
				"z": -1.0667319285,
				"element": "C" 
			},
			{
				"x": 0.5045848101,
				"y": -1.0075366675,
				"z": -2.161658545,
				"element": "O" 
			},
			{
				"x": 0.250773755,
				"y": 0.9819275728,
				"z": -1.1285509649,
				"element": "O" 
			},
			{
				"x": 2.7439997347,
				"y": 0.8039791792,
				"z": 0.1181635257,
				"element": "H" 
			},
			{
				"x": 3.1705282564,
				"y": -0.7080181315,
				"z": 0.9395572387,
				"element": "H" 
			},
			{
				"x": 3.6375298482,
				"y": 0.8531317949,
				"z": 1.655461585,
				"element": "H" 
			},
			{
				"x": -0.7473232214,
				"y": -0.6748740387,
				"z": 3.0847025591,
				"element": "H" 
			},
			{
				"x": -1.0472095969,
				"y": 0.8874990752,
				"z": 2.3230329804,
				"element": "H" 
			},
			{
				"x": -2.6252057863,
				"y": -1.3192594232,
				"z": 1.6843246265,
				"element": "H" 
			},
			{
				"x": -2.217700179,
				"y": -0.1010861131,
				"z": 0.4685694831,
				"element": "H" 
			},
			{
				"x": -0.7257333204,
				"y": -2.730095534,
				"z": 0.9972318893,
				"element": "H" 
			},
			{
				"x": -1.3418550662,
				"y": -2.1657349079,
				"z": -0.5630137644,
				"element": "H" 
			},
			{
				"x": 1.25685707,
				"y": -1.7546078116,
				"z": 0.1227245713,
				"element": "H" 
			},
			{
				"x": 0.4568073497,
				"y": -0.4175250202,
				"z": -2.932832288,
				"element": "H" 
			}
		],
		 "valence_orbital": [ 
			{
				"type": "occ",
				"energy": -0.33813,
				"method": "rhf"
			},
			{
				"type": "occ",
				"energy": -0.33091,
				"method": "rhf"
			},
			{
				"type": "occ",
				"energy": -0.28772,
				"method": "rhf"
			},
			{
				"type": "occ",
				"energy": -0.23836,
				"method": "rhf"
			},
			{
				"type": "occ",
				"energy": -0.23786,
				"method": "rhf"
			},
			{
				"type": "unocc",
				"energy": -0.00744,
				"method": "rhf"
			},
			{
				"type": "unocc",
				"energy": 0.03225,
				"method": "rhf"
			},
			{
				"type": "unocc",
				"energy": 0.06255,
				"method": "rhf"
			},
			{
				"type": "unocc",
				"energy": 0.08016,
				"method": "rhf"
			},
			{
				"type": "unocc",
				"energy": 0.10266,
				"method": "rhf"
			}
		],
		"cosmo_sigma_profile": { 
			"-0.025": 0.0,
			"-0.024": 0.0,
			"-0.023": 0.0,
			"-0.022": 0.0,
			"-0.021": 0.0,
			"-0.02": 0.0,
			"-0.019": 0.281625049262,
			"-0.018": 0.680936518995,
			"-0.017": 1.20210037345,
			"-0.016": 1.03861498775,
			"-0.015": 0.130415997542,
			"-0.014": 0.826388836209,
			"-0.013": 0.51546792168,
			"-0.012": 0.957844272618,
			"-0.011": 0.996349257576,
			"-0.01": 0.73601507232,
			"-0.009": 0.158816022535,
			"-0.008": 2.90798486332,
			"-0.007": 5.09199507936,
			"-0.006": 4.78167058635,
			"-0.005": 13.9130145804,
			"-0.004": 21.8553025892,
			"-0.003": 23.3705559058,
			"-0.002": 20.8102300482,
			"-0.001": 19.6726990443,
			"0.0": 8.54715319234,
			"0.001": 7.21189011977,
			"0.002": 5.02245681504,
			"0.003": 4.53152299774,
			"0.004": 4.09431392958,
			"0.005": 4.34275994916,
			"0.006": 3.75851653062,
			"0.007": 3.84730127592,
			"0.008": 5.1972968685,
			"0.009": 3.43903246536,
			"0.01": 3.78921061791,
			"0.011": 5.90164265848,
			"0.012": 3.33124093398,
			"0.013": 3.29581651816,
			"0.014": 5.16856055563,
			"0.015": 2.09002679734,
			"0.016": 0.111831932584,
			"0.017": 0.0,
			"0.018": 0.0,
			"0.019": 0.0,
			"0.02": 0.0,
			"0.021": 0.0,
			"0.022": 0.0,
			"0.023": 0.0,
			"0.024": 0.0,
			"0.025": 0.0
		}
	}
}
