{
	 "smiles": "OC(=O)C1=CC(COC2=CC(F)=CC=C2)=CC=C1", 
	 "Tm": 382.15, 
	 "num_atms": 29, 
	 "gaussian": { 
		 "optdone": 1, 
		 "sigma_profile": "yes", 
		 "theory": "DFT", 
		 "functional": "B3LYP", 
		 "basiset": "6-31G**", 
		 "properties": { 
			 "R2extent": 5890.9754, 
			 "electric_dipole_moment_norm": 5.21890329571, 
			 "electric_quadrupole_moment_norm": 16.5524655327, 
			 "total_energy": -865.624315019, 
			 "HOMO_LUMO_gap": 0.18079, 
			 "cosmo_polarized_energy": -16.68, 
			 "cosmo_cavitation_energy": 34.57, 
			 "cosmo_dispersion_energy": -24.08, 
			 "cosmo_repulsion_energy": 1.85, 
			 "cosmo_total_nonelectrostatic_energy": 12.33, 
			 "SMD_solvation_energy": 7.65 
		},
		"coords": [
			{
				"x": -3.180492691,
				"y": 0.469155341,
				"z": -1.1321917269,
				"element": "O" 
			},
			{
				"x": -2.3153691578,
				"y": 1.3237267073,
				"z": -1.7385428143,
				"element": "C" 
			},
			{
				"x": -2.6628561525,
				"y": 1.9456222394,
				"z": -2.714814561,
				"element": "O" 
			},
			{
				"x": -0.9446223399,
				"y": 1.4392739004,
				"z": -1.1372180491,
				"element": "C" 
			},
			{
				"x": -0.6679548326,
				"y": 1.0878186896,
				"z": 0.1899564512,
				"element": "C" 
			},
			{
				"x": 0.6240939999,
				"y": 1.2143018145,
				"z": 0.7069514243,
				"element": "C" 
			},
			{
				"x": 0.9115032376,
				"y": 0.8920751262,
				"z": 2.1620533014,
				"element": "C" 
			},
			{
				"x": -0.0040205834,
				"y": -0.0315090873,
				"z": 2.7420849405,
				"element": "O" 
			},
			{
				"x": 0.149829814,
				"y": -1.3717344485,
				"z": 2.4978603569,
				"element": "C" 
			},
			{
				"x": -0.7039056962,
				"y": -2.2055199708,
				"z": 3.2328446114,
				"element": "C" 
			},
			{
				"x": -0.6125768843,
				"y": -3.5762661458,
				"z": 3.0507558339,
				"element": "C" 
			},
			{
				"x": -1.434011925,
				"y": -4.3751028889,
				"z": 3.7621674117,
				"element": "F" 
			},
			{
				"x": 0.2938431475,
				"y": -4.1580932012,
				"z": 2.167689114,
				"element": "C" 
			},
			{
				"x": 1.129943719,
				"y": -3.3101395059,
				"z": 1.4455265268,
				"element": "C" 
			},
			{
				"x": 1.0693917228,
				"y": -1.9210183702,
				"z": 1.5955236796,
				"element": "C" 
			},
			{
				"x": 1.6419122075,
				"y": 1.7004313719,
				"z": -0.1208869311,
				"element": "C" 
			},
			{
				"x": 1.3682320366,
				"y": 2.0742208311,
				"z": -1.4386560755,
				"element": "C" 
			},
			{
				"x": 0.0778750012,
				"y": 1.952169877,
				"z": -1.9462481567,
				"element": "C" 
			},
			{
				"x": -2.7177392254,
				"y": -0.067308216,
				"z": -0.4734404019,
				"element": "H" 
			},
			{
				"x": -1.4514170037,
				"y": 0.7372815063,
				"z": 0.8563351076,
				"element": "H" 
			},
			{
				"x": 0.8009425875,
				"y": 1.7962094532,
				"z": 2.7706703651,
				"element": "H" 
			},
			{
				"x": 1.944277461,
				"y": 0.5404910161,
				"z": 2.2829313656,
				"element": "H" 
			},
			{
				"x": -1.412420271,
				"y": -1.7831062849,
				"z": 3.9354025049,
				"element": "H" 
			},
			{
				"x": 0.3288514696,
				"y": -5.2357945261,
				"z": 2.0591560585,
				"element": "H" 
			},
			{
				"x": 1.8422801872,
				"y": -3.7336152354,
				"z": 0.7438727573,
				"element": "H" 
			},
			{
				"x": 1.7160068592,
				"y": -1.2893283838,
				"z": 1.0000823161,
				"element": "H" 
			},
			{
				"x": 2.6536367771,
				"y": 1.7937417685,
				"z": 0.2674341903,
				"element": "H" 
			},
			{
				"x": 2.165719085,
				"y": 2.4560844942,
				"z": -2.0689274091,
				"element": "H" 
			},
			{
				"x": -0.1612525501,
				"y": 2.240332128,
				"z": -2.9639721916,
				"element": "H" 
			}
		],
		 "valence_orbital": [ 
			{
				"type": "occ",
				"energy": -0.28025,
				"method": "rhf"
			},
			{
				"type": "occ",
				"energy": -0.27425,
				"method": "rhf"
			},
			{
				"type": "occ",
				"energy": -0.26647,
				"method": "rhf"
			},
			{
				"type": "occ",
				"energy": -0.25551,
				"method": "rhf"
			},
			{
				"type": "occ",
				"energy": -0.23697,
				"method": "rhf"
			},
			{
				"type": "unocc",
				"energy": -0.05618,
				"method": "rhf"
			},
			{
				"type": "unocc",
				"energy": -0.02915,
				"method": "rhf"
			},
			{
				"type": "unocc",
				"energy": -0.01318,
				"method": "rhf"
			},
			{
				"type": "unocc",
				"energy": 0.00152,
				"method": "rhf"
			},
			{
				"type": "unocc",
				"energy": 0.04145,
				"method": "rhf"
			}
		],
		"cosmo_sigma_profile": { 
			"-0.025": 0.0,
			"-0.024": 0.0,
			"-0.023": 0.0,
			"-0.022": 0.0,
			"-0.021": 0.0,
			"-0.02": 0.0,
			"-0.019": 0.0,
			"-0.018": 0.516965403937,
			"-0.017": 1.15183282519,
			"-0.016": 0.756705109296,
			"-0.015": 0.815354702627,
			"-0.014": 0.546063756298,
			"-0.013": 1.29932151031,
			"-0.012": 1.59122274898,
			"-0.011": 0.871470377494,
			"-0.01": 0.927543281579,
			"-0.009": 1.03988458897,
			"-0.008": 1.95962033346,
			"-0.007": 13.2285947991,
			"-0.006": 18.8255951576,
			"-0.005": 18.772070318,
			"-0.004": 18.2091865114,
			"-0.003": 14.8249171271,
			"-0.002": 14.7130792128,
			"-0.001": 14.5146214204,
			"0.0": 15.0117053874,
			"0.001": 20.3181809719,
			"0.002": 24.9004145994,
			"0.003": 26.4185915291,
			"0.004": 22.4051517721,
			"0.005": 12.0715729098,
			"0.006": 3.34226182993,
			"0.007": 3.48299624674,
			"0.008": 3.57247695673,
			"0.009": 4.48156159099,
			"0.01": 4.74333503083,
			"0.011": 5.33778663478,
			"0.012": 4.96718732212,
			"0.013": 1.54387085117,
			"0.014": 0.0478615726826,
			"0.015": 0.0,
			"0.016": 0.0,
			"0.017": 0.0,
			"0.018": 0.0,
			"0.019": 0.0,
			"0.02": 0.0,
			"0.021": 0.0,
			"0.022": 0.0,
			"0.023": 0.0,
			"0.024": 0.0,
			"0.025": 0.0
		}
	}
}
