{
	 "smiles": "COC1=C(C=O)C2=CC=C(C=C2C=C1)[N+]([O-])=O", 
	 "Tm": 447.15, 
	 "num_atms": 26, 
	 "gaussian": { 
		 "optdone": 1, 
		 "sigma_profile": "yes", 
		 "theory": "DFT", 
		 "functional": "B3LYP", 
		 "basiset": "6-31G**", 
		 "properties": { 
			 "R2extent": 5169.0296, 
			 "electric_dipole_moment_norm": 8.08479991713, 
			 "electric_quadrupole_moment_norm": 18.6989163395, 
			 "total_energy": -818.23521812, 
			 "HOMO_LUMO_gap": 0.14528, 
			 "cosmo_polarized_energy": -14.94, 
			 "cosmo_cavitation_energy": 31.08, 
			 "cosmo_dispersion_energy": -22.9, 
			 "cosmo_repulsion_energy": 1.72, 
			 "cosmo_total_nonelectrostatic_energy": 9.9, 
			 "SMD_solvation_energy": 9.13 
		},
		"coords": [
			{
				"x": 3.0783290275,
				"y": 1.9970095065,
				"z": 1.9031006189,
				"element": "C" 
			},
			{
				"x": 2.2088805555,
				"y": 1.8698734254,
				"z": 0.7818552473,
				"element": "O" 
			},
			{
				"x": 1.3999831435,
				"y": 0.7882882273,
				"z": 0.6689582572,
				"element": "C" 
			},
			{
				"x": 0.5695326545,
				"y": 0.7249221818,
				"z": -0.4657062993,
				"element": "C" 
			},
			{
				"x": 0.6504901182,
				"y": 1.840322516,
				"z": -1.4362845724,
				"element": "C" 
			},
			{
				"x": 0.0064054367,
				"y": 1.9479955675,
				"z": -2.4698821046,
				"element": "O" 
			},
			{
				"x": -0.3060205934,
				"y": -0.4043013998,
				"z": -0.6265746258,
				"element": "C" 
			},
			{
				"x": -1.1838034369,
				"y": -0.5589892987,
				"z": -1.7400649681,
				"element": "C" 
			},
			{
				"x": -2.0053302043,
				"y": -1.6574218163,
				"z": -1.8526446536,
				"element": "C" 
			},
			{
				"x": -1.9838999214,
				"y": -2.6516628224,
				"z": -0.8527872963,
				"element": "C" 
			},
			{
				"x": -1.1587787415,
				"y": -2.5561451133,
				"z": 0.2422656321,
				"element": "C" 
			},
			{
				"x": -0.3081249883,
				"y": -1.4344253137,
				"z": 0.3740560599,
				"element": "C" 
			},
			{
				"x": 0.5517817686,
				"y": -1.3156517334,
				"z": 1.4964159498,
				"element": "C" 
			},
			{
				"x": 1.3864747164,
				"y": -0.2378537988,
				"z": 1.6486210169,
				"element": "C" 
			},
			{
				"x": -2.8641503775,
				"y": -3.8197179232,
				"z": -0.9818862666,
				"element": "N" 
			},
			{
				"x": -3.5914997469,
				"y": -3.876803957,
				"z": -1.9732976417,
				"element": "O" 
			},
			{
				"x": -2.823260825,
				"y": -4.6715232873,
				"z": -0.0928694029,
				"element": "O" 
			},
			{
				"x": 2.5173315454,
				"y": 2.0458336498,
				"z": 2.8433224932,
				"element": "H" 
			},
			{
				"x": 3.8007963577,
				"y": 1.1740849688,
				"z": 1.9468982662,
				"element": "H" 
			},
			{
				"x": 3.6114301526,
				"y": 2.9361392983,
				"z": 1.7532059338,
				"element": "H" 
			},
			{
				"x": 1.373924419,
				"y": 2.6258954385,
				"z": -1.1594034791,
				"element": "H" 
			},
			{
				"x": -1.1913244327,
				"y": 0.209182581,
				"z": -2.4997899073,
				"element": "H" 
			},
			{
				"x": -2.6725861608,
				"y": -1.777125997,
				"z": -2.6969630122,
				"element": "H" 
			},
			{
				"x": -1.1666849688,
				"y": -3.3378923299,
				"z": 0.9926473374,
				"element": "H" 
			},
			{
				"x": 0.5420406792,
				"y": -2.1010125898,
				"z": 2.247232292,
				"element": "H" 
			},
			{
				"x": 2.0307638226,
				"y": -0.1759199804,
				"z": 2.516075125,
				"element": "H" 
			}
		],
		 "valence_orbital": [ 
			{
				"type": "occ",
				"energy": -0.30147,
				"method": "rhf"
			},
			{
				"type": "occ",
				"energy": -0.28724,
				"method": "rhf"
			},
			{
				"type": "occ",
				"energy": -0.26371,
				"method": "rhf"
			},
			{
				"type": "occ",
				"energy": -0.2509,
				"method": "rhf"
			},
			{
				"type": "occ",
				"energy": -0.2382,
				"method": "rhf"
			},
			{
				"type": "unocc",
				"energy": -0.09292,
				"method": "rhf"
			},
			{
				"type": "unocc",
				"energy": -0.07943,
				"method": "rhf"
			},
			{
				"type": "unocc",
				"energy": -0.0243,
				"method": "rhf"
			},
			{
				"type": "unocc",
				"energy": -0.00535,
				"method": "rhf"
			},
			{
				"type": "unocc",
				"energy": 0.03469,
				"method": "rhf"
			}
		],
		"cosmo_sigma_profile": { 
			"-0.025": 0.0,
			"-0.024": 0.0,
			"-0.023": 0.0,
			"-0.022": 0.0,
			"-0.021": 0.0,
			"-0.02": 0.0,
			"-0.019": 0.0,
			"-0.018": 0.0,
			"-0.017": 0.0,
			"-0.016": 0.0,
			"-0.015": 0.0,
			"-0.014": 0.0,
			"-0.013": 0.0,
			"-0.012": 0.0,
			"-0.011": 0.0,
			"-0.01": 0.173226609178,
			"-0.009": 2.11342224747,
			"-0.008": 6.78721536771,
			"-0.007": 11.9945992504,
			"-0.006": 15.2380255576,
			"-0.005": 14.6606124336,
			"-0.004": 18.5675601179,
			"-0.003": 14.5234127831,
			"-0.002": 15.0026574828,
			"-0.001": 19.3320870977,
			"0.0": 29.5254757493,
			"0.001": 25.1481760855,
			"0.002": 15.1827210962,
			"0.003": 8.7037555917,
			"0.004": 5.55824889713,
			"0.005": 5.5507411158,
			"0.006": 5.05425243519,
			"0.007": 8.47850808376,
			"0.008": 10.4724985455,
			"0.009": 6.86410457003,
			"0.01": 4.94964651138,
			"0.011": 3.01871695653,
			"0.012": 2.040580068,
			"0.013": 1.20833534683,
			"0.014": 0.0922892337813,
			"0.015": 0.0,
			"0.016": 0.0,
			"0.017": 0.0,
			"0.018": 0.0,
			"0.019": 0.0,
			"0.02": 0.0,
			"0.021": 0.0,
			"0.022": 0.0,
			"0.023": 0.0,
			"0.024": 0.0,
			"0.025": 0.0
		}
	}
}
