{
	 "smiles": "[O-][N+](=O)C1=CC=C(COC(=O)CBr)C=C1", 
	 "Tm": 323.15, 
	 "num_atms": 23, 
	 "gaussian": { 
		 "optdone": 1, 
		 "sigma_profile": "yes", 
		 "theory": "DFT", 
		 "functional": "B3LYP", 
		 "basiset": "6-31G**", 
		 "properties": { 
			 "R2extent": 7257.5682, 
			 "electric_dipole_moment_norm": 4.31798566464, 
			 "electric_quadrupole_moment_norm": 21.860049548, 
			 "total_energy": -3274.73516922, 
			 "HOMO_LUMO_gap": 0.18606, 
			 "cosmo_polarized_energy": -13.73, 
			 "cosmo_cavitation_energy": 31.69, 
			 "cosmo_dispersion_energy": -22.77, 
			 "cosmo_repulsion_energy": 1.8, 
			 "cosmo_total_nonelectrostatic_energy": 10.72, 
			 "SMD_solvation_energy": 7.55 
		},
		"coords": [
			{
				"x": 4.0058179594,
				"y": 2.1225480152,
				"z": 1.9784678716,
				"element": "O" 
			},
			{
				"x": 2.9103609488,
				"y": 2.6815982654,
				"z": 2.0137784942,
				"element": "N" 
			},
			{
				"x": 2.7325507521,
				"y": 3.8580700375,
				"z": 2.3283747477,
				"element": "O" 
			},
			{
				"x": 1.7263245,
				"y": 1.8860092123,
				"z": 1.6526447732,
				"element": "C" 
			},
			{
				"x": 1.8923012692,
				"y": 0.5504693707,
				"z": 1.2917444817,
				"element": "C" 
			},
			{
				"x": 0.7690886889,
				"y": -0.1974846547,
				"z": 0.9503266342,
				"element": "C" 
			},
			{
				"x": -0.5057850357,
				"y": 0.3843272654,
				"z": 0.9760918118,
				"element": "C" 
			},
			{
				"x": -1.7286223412,
				"y": -0.3935218767,
				"z": 0.5587150424,
				"element": "C" 
			},
			{
				"x": -1.5233929453,
				"y": -1.7887556966,
				"z": 0.8556303916,
				"element": "O" 
			},
			{
				"x": -2.2623250804,
				"y": -2.6665050382,
				"z": 0.1484883438,
				"element": "C" 
			},
			{
				"x": -3.119357018,
				"y": -2.3623518386,
				"z": -0.6488413115,
				"element": "O" 
			},
			{
				"x": -1.8940303995,
				"y": -4.0927012225,
				"z": 0.4974853223,
				"element": "C" 
			},
			{
				"x": -0.0938940841,
				"y": -4.5321540674,
				"z": -0.1845544776,
				"element": "Br" 
			},
			{
				"x": -0.6428574289,
				"y": 1.727883945,
				"z": 1.3507012915,
				"element": "C" 
			},
			{
				"x": 0.4715633839,
				"y": 2.4903978396,
				"z": 1.6868381155,
				"element": "C" 
			},
			{
				"x": 2.8863143936,
				"y": 0.1212306499,
				"z": 1.282635786,
				"element": "H" 
			},
			{
				"x": 0.8757938339,
				"y": -1.2404438745,
				"z": 0.673292811,
				"element": "H" 
			},
			{
				"x": -1.9253195208,
				"y": -0.2888856998,
				"z": -0.5139382645,
				"element": "H" 
			},
			{
				"x": -2.6209021331,
				"y": -0.0440950839,
				"z": 1.0891791374,
				"element": "H" 
			},
			{
				"x": -1.8536682649,
				"y": -4.24445988,
				"z": 1.5751543874,
				"element": "H" 
			},
			{
				"x": -2.5898342327,
				"y": -4.7763127838,
				"z": 0.019420883,
				"element": "H" 
			},
			{
				"x": -1.6290405543,
				"y": 2.1830409311,
				"z": 1.3828397739,
				"element": "H" 
			},
			{
				"x": 0.3872133092,
				"y": 3.5291961847,
				"z": 1.9799239536,
				"element": "H" 
			}
		],
		 "valence_orbital": [ 
			{
				"type": "occ",
				"energy": -0.29519,
				"method": "rhf"
			},
			{
				"type": "occ",
				"energy": -0.29267,
				"method": "rhf"
			},
			{
				"type": "occ",
				"energy": -0.29038,
				"method": "rhf"
			},
			{
				"type": "occ",
				"energy": -0.283,
				"method": "rhf"
			},
			{
				"type": "occ",
				"energy": -0.27788,
				"method": "rhf"
			},
			{
				"type": "unocc",
				"energy": -0.09182,
				"method": "rhf"
			},
			{
				"type": "unocc",
				"energy": -0.05683,
				"method": "rhf"
			},
			{
				"type": "unocc",
				"energy": -0.03313,
				"method": "rhf"
			},
			{
				"type": "unocc",
				"energy": -0.00648,
				"method": "rhf"
			},
			{
				"type": "unocc",
				"energy": 0.0222,
				"method": "rhf"
			}
		],
		"cosmo_sigma_profile": { 
			"-0.025": 0.0,
			"-0.024": 0.0,
			"-0.023": 0.0,
			"-0.022": 0.0,
			"-0.021": 0.0,
			"-0.02": 0.0,
			"-0.019": 0.0,
			"-0.018": 0.0,
			"-0.017": 0.0,
			"-0.016": 0.0,
			"-0.015": 0.0,
			"-0.014": 0.0,
			"-0.013": 0.0,
			"-0.012": 0.0,
			"-0.011": 0.0,
			"-0.01": 1.24650487235,
			"-0.009": 4.37143701072,
			"-0.008": 9.61634368519,
			"-0.007": 14.0039732643,
			"-0.006": 17.1599986734,
			"-0.005": 13.9570682122,
			"-0.004": 14.5775424338,
			"-0.003": 13.5051565633,
			"-0.002": 15.2360232292,
			"-0.001": 17.6002424672,
			"0.0": 18.4115194431,
			"0.001": 21.8277663373,
			"0.002": 18.1898968585,
			"0.003": 12.0781240168,
			"0.004": 11.4837141246,
			"0.005": 12.9330623382,
			"0.006": 5.15915823948,
			"0.007": 9.63403851298,
			"0.008": 8.98021303625,
			"0.009": 6.37898263806,
			"0.01": 6.79519020609,
			"0.011": 3.57374347416,
			"0.012": 0.352949282808,
			"0.013": 0.0,
			"0.014": 0.0,
			"0.015": 0.0,
			"0.016": 0.0,
			"0.017": 0.0,
			"0.018": 0.0,
			"0.019": 0.0,
			"0.02": 0.0,
			"0.021": 0.0,
			"0.022": 0.0,
			"0.023": 0.0,
			"0.024": 0.0,
			"0.025": 0.0
		}
	}
}
