{
	 "smiles": "CC1=NN(C(N)=C1)C1=NC2=C(N1)C=CC=C2", 
	 "Tm": 477.15, 
	 "num_atms": 27, 
	 "gaussian": { 
		 "optdone": 1, 
		 "sigma_profile": "yes", 
		 "theory": "DFT", 
		 "functional": "B3LYP", 
		 "basiset": "6-31G**", 
		 "properties": { 
			 "R2extent": 5168.7075, 
			 "electric_dipole_moment_norm": 6.02712711414, 
			 "electric_quadrupole_moment_norm": 11.2445691225, 
			 "total_energy": -699.549157656, 
			 "HOMO_LUMO_gap": 0.18522, 
			 "cosmo_polarized_energy": -22.51, 
			 "cosmo_cavitation_energy": 31.23, 
			 "cosmo_dispersion_energy": -23.41, 
			 "cosmo_repulsion_energy": 1.82, 
			 "cosmo_total_nonelectrostatic_energy": 9.65, 
			 "SMD_solvation_energy": 2.63 
		},
		"coords": [
			{
				"x": 4.2924386424,
				"y": -2.9529129282,
				"z": 0.2706027281,
				"element": "C" 
			},
			{
				"x": 3.2138039954,
				"y": -1.9145914693,
				"z": 0.2393802271,
				"element": "C" 
			},
			{
				"x": 2.4401820115,
				"y": -1.7902089098,
				"z": -0.8292218108,
				"element": "N" 
			},
			{
				"x": 1.5722264812,
				"y": -0.7747132566,
				"z": -0.5246890697,
				"element": "N" 
			},
			{
				"x": 1.8233920649,
				"y": -0.2503266026,
				"z": 0.7271405864,
				"element": "C" 
			},
			{
				"x": 1.0334509729,
				"y": 0.7901199907,
				"z": 1.262875534,
				"element": "N" 
			},
			{
				"x": 2.8734160565,
				"y": -0.9701447385,
				"z": 1.2489301358,
				"element": "C" 
			},
			{
				"x": 0.565080452,
				"y": -0.4208715096,
				"z": -1.4308022341,
				"element": "C" 
			},
			{
				"x": 0.5750445773,
				"y": -0.6757712331,
				"z": -2.7113379955,
				"element": "N" 
			},
			{
				"x": -0.6346767668,
				"y": -0.1667212244,
				"z": -3.1660837811,
				"element": "C" 
			},
			{
				"x": -1.3665061884,
				"y": 0.4170564458,
				"z": -2.1015015718,
				"element": "C" 
			},
			{
				"x": -0.5632445192,
				"y": 0.2356682097,
				"z": -0.9866014992,
				"element": "N" 
			},
			{
				"x": -2.6130676163,
				"y": 1.0150936532,
				"z": -2.2840661441,
				"element": "C" 
			},
			{
				"x": -3.1245523058,
				"y": 1.0128050909,
				"z": -3.5812765149,
				"element": "C" 
			},
			{
				"x": -2.4125635403,
				"y": 0.4373399069,
				"z": -4.6515521367,
				"element": "C" 
			},
			{
				"x": -1.1672809682,
				"y": -0.1556716747,
				"z": -4.4605842746,
				"element": "C" 
			},
			{
				"x": 4.2912062175,
				"y": -3.511427436,
				"z": -0.667556845,
				"element": "H" 
			},
			{
				"x": 4.1429559364,
				"y": -3.6573051127,
				"z": 1.0965157393,
				"element": "H" 
			},
			{
				"x": 5.2804583932,
				"y": -2.4979440891,
				"z": 0.4033248567,
				"element": "H" 
			},
			{
				"x": 1.2182566379,
				"y": 1.6837959804,
				"z": 0.8105521619,
				"element": "H" 
			},
			{
				"x": 1.2141860047,
				"y": 0.8927959529,
				"z": 2.2554259333,
				"element": "H" 
			},
			{
				"x": 3.3432401287,
				"y": -0.8234374694,
				"z": 2.2109756946,
				"element": "H" 
			},
			{
				"x": -0.7248589952,
				"y": 0.4954685779,
				"z": -0.0222850439,
				"element": "H" 
			},
			{
				"x": -3.1646638651,
				"y": 1.4577650459,
				"z": -1.4600544707,
				"element": "H" 
			},
			{
				"x": -4.0943174295,
				"y": 1.4641779802,
				"z": -3.7690323596,
				"element": "H" 
			},
			{
				"x": -2.8477953281,
				"y": 0.4579088861,
				"z": -5.6463549008,
				"element": "H" 
			},
			{
				"x": -0.6145110496,
				"y": -0.6010480667,
				"z": -5.2812229446,
				"element": "H" 
			}
		],
		 "valence_orbital": [ 
			{
				"type": "occ",
				"energy": -0.2662,
				"method": "rhf"
			},
			{
				"type": "occ",
				"energy": -0.26468,
				"method": "rhf"
			},
			{
				"type": "occ",
				"energy": -0.23288,
				"method": "rhf"
			},
			{
				"type": "occ",
				"energy": -0.22112,
				"method": "rhf"
			},
			{
				"type": "occ",
				"energy": -0.20609,
				"method": "rhf"
			},
			{
				"type": "unocc",
				"energy": -0.02087,
				"method": "rhf"
			},
			{
				"type": "unocc",
				"energy": 0.02041,
				"method": "rhf"
			},
			{
				"type": "unocc",
				"energy": 0.02995,
				"method": "rhf"
			},
			{
				"type": "unocc",
				"energy": 0.05528,
				"method": "rhf"
			},
			{
				"type": "unocc",
				"energy": 0.06444,
				"method": "rhf"
			}
		],
		"cosmo_sigma_profile": { 
			"-0.025": 0.0,
			"-0.024": 0.0,
			"-0.023": 0.0,
			"-0.022": 0.0,
			"-0.021": 0.0,
			"-0.02": 0.0,
			"-0.019": 0.0,
			"-0.018": 0.0,
			"-0.017": 0.0,
			"-0.016": 0.0,
			"-0.015": 0.0,
			"-0.014": 0.837219136,
			"-0.013": 3.70918163369,
			"-0.012": 4.24740410523,
			"-0.011": 4.17567529256,
			"-0.01": 3.62027926809,
			"-0.009": 3.73274015572,
			"-0.008": 3.85202753851,
			"-0.007": 6.61909185787,
			"-0.006": 8.88379167092,
			"-0.005": 12.7206144088,
			"-0.004": 17.2859729186,
			"-0.003": 18.5794285587,
			"-0.002": 17.4714862048,
			"-0.001": 17.9202071773,
			"0.0": 15.9785077081,
			"0.001": 14.1697213456,
			"0.002": 14.5261090764,
			"0.003": 14.8464493356,
			"0.004": 16.1840164998,
			"0.005": 13.8632917274,
			"0.006": 11.4314697091,
			"0.007": 3.30156582242,
			"0.008": 2.46249265564,
			"0.009": 2.09924297227,
			"0.01": 1.65605569272,
			"0.011": 2.23173627595,
			"0.012": 2.06549842825,
			"0.013": 1.62323986073,
			"0.014": 1.57536790093,
			"0.015": 2.30788572458,
			"0.016": 1.17456669819,
			"0.017": 1.85447041513,
			"0.018": 1.83346155536,
			"0.019": 0.953099063868,
			"0.02": 0.0,
			"0.021": 0.0,
			"0.022": 0.0,
			"0.023": 0.0,
			"0.024": 0.0,
			"0.025": 0.0
		}
	}
}
