{
	 "smiles": "NC(=S)NC1CCOC2=C1C=CC=C2", 
	 "Tm": 452.15, 
	 "num_atms": 26, 
	 "gaussian": { 
		 "optdone": 1, 
		 "sigma_profile": "yes", 
		 "theory": "DFT", 
		 "functional": "B3LYP", 
		 "basiset": "6-31G**", 
		 "properties": { 
			 "R2extent": 4348.0627, 
			 "electric_dipole_moment_norm": 5.21126137706, 
			 "electric_quadrupole_moment_norm": 27.9771318582, 
			 "total_energy": -971.225581491, 
			 "HOMO_LUMO_gap": 0.18085, 
			 "cosmo_polarized_energy": -20.83, 
			 "cosmo_cavitation_energy": 30.31, 
			 "cosmo_dispersion_energy": -22.48, 
			 "cosmo_repulsion_energy": 1.73, 
			 "cosmo_total_nonelectrostatic_energy": 9.56, 
			 "SMD_solvation_energy": 3.99 
		},
		"coords": [
			{
				"x": 2.2426309762,
				"y": 0.9120765665,
				"z": -0.9870930372,
				"element": "N" 
			},
			{
				"x": 2.546555938,
				"y": 0.2640258825,
				"z": 0.1774229618,
				"element": "C" 
			},
			{
				"x": 4.0805919102,
				"y": 0.3564524419,
				"z": 0.8647658689,
				"element": "S" 
			},
			{
				"x": 1.53948639,
				"y": -0.4330577562,
				"z": 0.7666318798,
				"element": "N" 
			},
			{
				"x": 0.1351054073,
				"y": -0.514646888,
				"z": 0.3381808137,
				"element": "C" 
			},
			{
				"x": -0.6351246041,
				"y": 0.7966806453,
				"z": 0.5952466884,
				"element": "C" 
			},
			{
				"x": -0.9837772972,
				"y": 0.9006458782,
				"z": 2.0727662437,
				"element": "C" 
			},
			{
				"x": -1.840277534,
				"y": -0.1708109208,
				"z": 2.4841400936,
				"element": "O" 
			},
			{
				"x": -1.4857930797,
				"y": -1.422906425,
				"z": 2.0711128009,
				"element": "C" 
			},
			{
				"x": -0.5426396315,
				"y": -1.6660809935,
				"z": 1.0574281744,
				"element": "C" 
			},
			{
				"x": -0.2568393487,
				"y": -2.9951726208,
				"z": 0.7118648611,
				"element": "C" 
			},
			{
				"x": -0.8915219846,
				"y": -4.0605869112,
				"z": 1.3409902358,
				"element": "C" 
			},
			{
				"x": -1.8413143904,
				"y": -3.8001277575,
				"z": 2.3365594184,
				"element": "C" 
			},
			{
				"x": -2.1382815518,
				"y": -2.492855969,
				"z": 2.7007678571,
				"element": "C" 
			},
			{
				"x": 3.0356535734,
				"y": 1.2928860107,
				"z": -1.4801635244,
				"element": "H" 
			},
			{
				"x": 1.4497830521,
				"y": 0.6325365826,
				"z": -1.5470976372,
				"element": "H" 
			},
			{
				"x": 1.80099384,
				"y": -0.896754573,
				"z": 1.6246465881,
				"element": "H" 
			},
			{
				"x": 0.1194539788,
				"y": -0.7379799572,
				"z": -0.7384439486,
				"element": "H" 
			},
			{
				"x": -1.5586348598,
				"y": 0.7972331935,
				"z": 0.0040594488,
				"element": "H" 
			},
			{
				"x": -0.0354347472,
				"y": 1.658193099,
				"z": 0.2879086481,
				"element": "H" 
			},
			{
				"x": -0.0684807186,
				"y": 0.8874339588,
				"z": 2.6814409761,
				"element": "H" 
			},
			{
				"x": -1.5340254373,
				"y": 1.8162420567,
				"z": 2.2987809414,
				"element": "H" 
			},
			{
				"x": 0.4767840138,
				"y": -3.1831351253,
				"z": -0.0686601055,
				"element": "H" 
			},
			{
				"x": -0.6560080127,
				"y": -5.081563841,
				"z": 1.0584226387,
				"element": "H" 
			},
			{
				"x": -2.3488349383,
				"y": -4.6217678344,
				"z": 2.8336040332,
				"element": "H" 
			},
			{
				"x": -2.8655509438,
				"y": -2.2677587427,
				"z": 3.4738170809,
				"element": "H" 
			}
		],
		 "valence_orbital": [ 
			{
				"type": "occ",
				"energy": -0.27873,
				"method": "rhf"
			},
			{
				"type": "occ",
				"energy": -0.25974,
				"method": "rhf"
			},
			{
				"type": "occ",
				"energy": -0.23022,
				"method": "rhf"
			},
			{
				"type": "occ",
				"energy": -0.20823,
				"method": "rhf"
			},
			{
				"type": "occ",
				"energy": -0.20085,
				"method": "rhf"
			},
			{
				"type": "unocc",
				"energy": -0.02,
				"method": "rhf"
			},
			{
				"type": "unocc",
				"energy": -0.00476,
				"method": "rhf"
			},
			{
				"type": "unocc",
				"energy": 0.00762,
				"method": "rhf"
			},
			{
				"type": "unocc",
				"energy": 0.05149,
				"method": "rhf"
			},
			{
				"type": "unocc",
				"energy": 0.0699,
				"method": "rhf"
			}
		],
		"cosmo_sigma_profile": { 
			"-0.025": 0.0,
			"-0.024": 0.0,
			"-0.023": 0.0,
			"-0.022": 0.0,
			"-0.021": 0.0,
			"-0.02": 0.0,
			"-0.019": 0.0,
			"-0.018": 0.0,
			"-0.017": 0.0,
			"-0.016": 0.0262919524051,
			"-0.015": 0.972957324478,
			"-0.014": 2.63548486025,
			"-0.013": 2.31192420388,
			"-0.012": 3.47864650758,
			"-0.011": 3.08827101598,
			"-0.01": 3.26454107078,
			"-0.009": 3.17610352025,
			"-0.008": 3.86808388921,
			"-0.007": 3.81599005994,
			"-0.006": 12.045041213,
			"-0.005": 19.062567893,
			"-0.004": 24.1703525082,
			"-0.003": 19.3409324095,
			"-0.002": 13.9717779077,
			"-0.001": 11.8693164946,
			"0.0": 9.0697360244,
			"0.001": 10.1104131513,
			"0.002": 10.8980533947,
			"0.003": 11.8622644114,
			"0.004": 11.9712042693,
			"0.005": 13.6126355742,
			"0.006": 9.22159639892,
			"0.007": 4.04978811411,
			"0.008": 4.78797210543,
			"0.009": 4.97869381829,
			"0.01": 5.87128069004,
			"0.011": 6.94931779942,
			"0.012": 7.9934664596,
			"0.013": 4.13695108188,
			"0.014": 0.00446155323923,
			"0.015": 0.0,
			"0.016": 0.0,
			"0.017": 0.0,
			"0.018": 0.0,
			"0.019": 0.0,
			"0.02": 0.0,
			"0.021": 0.0,
			"0.022": 0.0,
			"0.023": 0.0,
			"0.024": 0.0,
			"0.025": 0.0
		}
	}
}
