{
	 "smiles": "ClP(Cl)(=O)OC1=CC=CC=C1", 
	 "Tm": 272.15, 
	 "num_atms": 16, 
	 "gaussian": { 
		 "optdone": 1, 
		 "sigma_profile": "yes", 
		 "theory": "DFT", 
		 "functional": "B3LYP", 
		 "basiset": "6-31G**", 
		 "properties": { 
			 "R2extent": 3635.3848, 
			 "electric_dipole_moment_norm": 3.28880033295, 
			 "electric_quadrupole_moment_norm": 9.16915253009, 
			 "total_energy": -1643.90631372, 
			 "HOMO_LUMO_gap": 0.20275, 
			 "cosmo_polarized_energy": -6.64, 
			 "cosmo_cavitation_energy": 26.04, 
			 "cosmo_dispersion_energy": -19.27, 
			 "cosmo_repulsion_energy": 1.54, 
			 "cosmo_total_nonelectrostatic_energy": 8.3, 
			 "SMD_solvation_energy": 4.74 
		},
		"coords": [
			{
				"x": 2.2712050691,
				"y": -1.6074222202,
				"z": 2.5011037736,
				"element": "Cl" 
			},
			{
				"x": 0.2364411124,
				"y": -1.3801170056,
				"z": 2.4956318619,
				"element": "P" 
			},
			{
				"x": -0.4860419993,
				"y": -3.2359274468,
				"z": 2.894901055,
				"element": "Cl" 
			},
			{
				"x": -0.2353303851,
				"y": -0.3149169574,
				"z": 3.3987443393,
				"element": "O" 
			},
			{
				"x": -0.1501462177,
				"y": -1.2969561627,
				"z": 0.9357457223,
				"element": "O" 
			},
			{
				"x": 0.1577146746,
				"y": -0.1742236027,
				"z": 0.1344093526,
				"element": "C" 
			},
			{
				"x": 0.8097149766,
				"y": -0.4320856345,
				"z": -1.0675961656,
				"element": "C" 
			},
			{
				"x": 1.0790145201,
				"y": 0.6352989424,
				"z": -1.9248601958,
				"element": "C" 
			},
			{
				"x": 0.7029051661,
				"y": 1.9333880436,
				"z": -1.5725916343,
				"element": "C" 
			},
			{
				"x": 0.05030144,
				"y": 2.165191611,
				"z": -0.3602781364,
				"element": "C" 
			},
			{
				"x": -0.2344193892,
				"y": 1.1091147524,
				"z": 0.5077100477,
				"element": "C" 
			},
			{
				"x": 1.090500758,
				"y": -1.4494677413,
				"z": -1.3167551121,
				"element": "H" 
			},
			{
				"x": 1.5852840659,
				"y": 0.4490769102,
				"z": -2.8670469941,
				"element": "H" 
			},
			{
				"x": 0.9165549072,
				"y": 2.7612555926,
				"z": -2.2415149601,
				"element": "H" 
			},
			{
				"x": -0.2457418228,
				"y": 3.1725494042,
				"z": -0.0840708684,
				"element": "H" 
			},
			{
				"x": -0.7424568759,
				"y": 1.2719415149,
				"z": 1.4509679145,
				"element": "H" 
			}
		],
		 "valence_orbital": [ 
			{
				"type": "occ",
				"energy": -0.34516,
				"method": "rhf"
			},
			{
				"type": "occ",
				"energy": -0.32328,
				"method": "rhf"
			},
			{
				"type": "occ",
				"energy": -0.32035,
				"method": "rhf"
			},
			{
				"type": "occ",
				"energy": -0.27135,
				"method": "rhf"
			},
			{
				"type": "occ",
				"energy": -0.26259,
				"method": "rhf"
			},
			{
				"type": "unocc",
				"energy": -0.05984,
				"method": "rhf"
			},
			{
				"type": "unocc",
				"energy": -0.02327,
				"method": "rhf"
			},
			{
				"type": "unocc",
				"energy": -0.01463,
				"method": "rhf"
			},
			{
				"type": "unocc",
				"energy": 0.02897,
				"method": "rhf"
			},
			{
				"type": "unocc",
				"energy": 0.04786,
				"method": "rhf"
			}
		],
		"cosmo_sigma_profile": { 
			"-0.025": 0.0,
			"-0.024": 0.0,
			"-0.023": 0.0,
			"-0.022": 0.0,
			"-0.021": 0.0,
			"-0.02": 0.0,
			"-0.019": 0.0,
			"-0.018": 0.0,
			"-0.017": 0.0,
			"-0.016": 0.0,
			"-0.015": 0.0,
			"-0.014": 0.0,
			"-0.013": 0.0,
			"-0.012": 0.0,
			"-0.011": 0.0,
			"-0.01": 0.0,
			"-0.009": 0.0523022871665,
			"-0.008": 0.718269782112,
			"-0.007": 4.85599714106,
			"-0.006": 11.5570374019,
			"-0.005": 13.272059264,
			"-0.004": 13.0128529997,
			"-0.003": 14.5565780383,
			"-0.002": 16.3988917533,
			"-0.001": 16.5404460223,
			"0.0": 20.2631713085,
			"0.001": 31.1904236817,
			"0.002": 27.9538517273,
			"0.003": 14.3628740588,
			"0.004": 11.2486534402,
			"0.005": 2.72168645091,
			"0.006": 1.01982882201,
			"0.007": 0.882860672971,
			"0.008": 1.59712328555,
			"0.009": 1.75676393933,
			"0.01": 2.85317187573,
			"0.011": 5.06170917702,
			"0.012": 0.483806443281,
			"0.013": 0.0,
			"0.014": 0.0,
			"0.015": 0.0,
			"0.016": 0.0,
			"0.017": 0.0,
			"0.018": 0.0,
			"0.019": 0.0,
			"0.02": 0.0,
			"0.021": 0.0,
			"0.022": 0.0,
			"0.023": 0.0,
			"0.024": 0.0,
			"0.025": 0.0
		}
	}
}
