{
	 "smiles": "OC(=O)CCN1C(=O)C2=C(C=C(Br)C=C2)C1=O", 
	 "Tm": 483.15, 
	 "num_atms": 25, 
	 "gaussian": { 
		 "optdone": 1, 
		 "sigma_profile": "yes", 
		 "theory": "DFT", 
		 "functional": "B3LYP", 
		 "basiset": "6-31G**", 
		 "properties": { 
			 "R2extent": 8039.339, 
			 "electric_dipole_moment_norm": 6.80050135358, 
			 "electric_quadrupole_moment_norm": 25.6862738524, 
			 "total_energy": -3351.08698577, 
			 "HOMO_LUMO_gap": 0.14394, 
			 "cosmo_polarized_energy": -18.25, 
			 "cosmo_cavitation_energy": 32.67, 
			 "cosmo_dispersion_energy": -24.05, 
			 "cosmo_repulsion_energy": 1.83, 
			 "cosmo_total_nonelectrostatic_energy": 10.46, 
			 "SMD_solvation_energy": 6.39 
		},
		"coords": [
			{
				"x": 3.3175784595,
				"y": -2.723144651,
				"z": 0.7943009213,
				"element": "O" 
			},
			{
				"x": 3.3246830717,
				"y": -2.0934785271,
				"z": 1.9826467952,
				"element": "C" 
			},
			{
				"x": 4.111581647,
				"y": -2.3939879168,
				"z": 2.8490425405,
				"element": "O" 
			},
			{
				"x": 2.2830234596,
				"y": -0.9847635847,
				"z": 2.1712497389,
				"element": "C" 
			},
			{
				"x": 0.8194729235,
				"y": -1.42863301,
				"z": 1.9040108633,
				"element": "C" 
			},
			{
				"x": 0.178920502,
				"y": -0.7341890359,
				"z": 0.7892807484,
				"element": "N" 
			},
			{
				"x": 0.5646710983,
				"y": -0.8611245195,
				"z": -0.5404520793,
				"element": "C" 
			},
			{
				"x": 1.5043717396,
				"y": -1.5369318782,
				"z": -0.9422547288,
				"element": "O" 
			},
			{
				"x": -0.3715507758,
				"y": -0.0227104054,
				"z": -1.334381046,
				"element": "C" 
			},
			{
				"x": -1.2751226959,
				"y": 0.5706842188,
				"z": -0.4499991742,
				"element": "C" 
			},
			{
				"x": -2.2791521618,
				"y": 1.4193612823,
				"z": -0.8862899689,
				"element": "C" 
			},
			{
				"x": -2.3435173587,
				"y": 1.6550341794,
				"z": -2.2660919205,
				"element": "C" 
			},
			{
				"x": -3.6965639649,
				"y": 2.8107800515,
				"z": -2.9412024238,
				"element": "Br" 
			},
			{
				"x": -1.4440017182,
				"y": 1.0676601332,
				"z": -3.1645056438,
				"element": "C" 
			},
			{
				"x": -0.4369982185,
				"y": 0.2132884922,
				"z": -2.7000293896,
				"element": "C" 
			},
			{
				"x": -0.940501213,
				"y": 0.1181591799,
				"z": 0.934337281,
				"element": "C" 
			},
			{
				"x": -1.4807871233,
				"y": 0.3893630854,
				"z": 1.983659511,
				"element": "O" 
			},
			{
				"x": 2.6756810198,
				"y": -2.3233909872,
				"z": 0.1671758491,
				"element": "H" 
			},
			{
				"x": 2.3917732574,
				"y": -0.6306743558,
				"z": 3.1970096698,
				"element": "H" 
			},
			{
				"x": 2.5401005288,
				"y": -0.148501329,
				"z": 1.510921583,
				"element": "H" 
			},
			{
				"x": 0.1917702995,
				"y": -1.2161013842,
				"z": 2.7707514249,
				"element": "H" 
			},
			{
				"x": 0.7678506436,
				"y": -2.5046593773,
				"z": 1.710506403,
				"element": "H" 
			},
			{
				"x": -2.9784561857,
				"y": 1.8773352728,
				"z": -0.1966912293,
				"element": "H" 
			},
			{
				"x": -1.534601214,
				"y": 1.2809468149,
				"z": -4.2232934664,
				"element": "H" 
			},
			{
				"x": 0.2664739792,
				"y": -0.2480217486,
				"z": -3.3852022591,
				"element": "H" 
			}
		],
		 "valence_orbital": [ 
			{
				"type": "occ",
				"energy": -0.30526,
				"method": "rhf"
			},
			{
				"type": "occ",
				"energy": -0.30105,
				"method": "rhf"
			},
			{
				"type": "occ",
				"energy": -0.29692,
				"method": "rhf"
			},
			{
				"type": "occ",
				"energy": -0.27847,
				"method": "rhf"
			},
			{
				"type": "occ",
				"energy": -0.25645,
				"method": "rhf"
			},
			{
				"type": "unocc",
				"energy": -0.11251,
				"method": "rhf"
			},
			{
				"type": "unocc",
				"energy": -0.06966,
				"method": "rhf"
			},
			{
				"type": "unocc",
				"energy": -0.02203,
				"method": "rhf"
			},
			{
				"type": "unocc",
				"energy": -0.00349,
				"method": "rhf"
			},
			{
				"type": "unocc",
				"energy": 0.01739,
				"method": "rhf"
			}
		],
		"cosmo_sigma_profile": { 
			"-0.025": 0.0,
			"-0.024": 0.0,
			"-0.023": 0.0,
			"-0.022": 0.0,
			"-0.021": 0.0,
			"-0.02": 0.0,
			"-0.019": 0.0,
			"-0.018": 0.0,
			"-0.017": 0.0,
			"-0.016": 0.0,
			"-0.015": 0.0,
			"-0.014": 0.0,
			"-0.013": 0.0,
			"-0.012": 0.0,
			"-0.011": 0.0,
			"-0.01": 0.0,
			"-0.009": 2.68191688144,
			"-0.008": 11.5723751278,
			"-0.007": 17.4257181696,
			"-0.006": 19.3542480418,
			"-0.005": 17.4082454454,
			"-0.004": 16.2577934724,
			"-0.003": 16.825385488,
			"-0.002": 19.6157691723,
			"-0.001": 22.0558219374,
			"0.0": 22.0129239602,
			"0.001": 12.1509639726,
			"0.002": 9.84391150072,
			"0.003": 16.2429224788,
			"0.004": 9.92059056898,
			"0.005": 3.74570321828,
			"0.006": 4.21352139243,
			"0.007": 4.64717347952,
			"0.008": 5.41313921518,
			"0.009": 7.15623338557,
			"0.01": 8.26612138008,
			"0.011": 7.74225291878,
			"0.012": 6.72381993404,
			"0.013": 3.94662819652,
			"0.014": 0.69339969707,
			"0.015": 0.0,
			"0.016": 0.0,
			"0.017": 0.0,
			"0.018": 0.0,
			"0.019": 0.0,
			"0.02": 0.0,
			"0.021": 0.0,
			"0.022": 0.0,
			"0.023": 0.0,
			"0.024": 0.0,
			"0.025": 0.0
		}
	}
}
