{
	 "smiles": "NC1=C2C=NC=CC2=C(NC2=CC=C(F)C=C2)C=C1", 
	 "Tm": 427.15, 
	 "num_atms": 31, 
	 "gaussian": { 
		 "optdone": 1, 
		 "sigma_profile": "yes", 
		 "theory": "DFT", 
		 "functional": "B3LYP", 
		 "basiset": "6-31G**", 
		 "properties": { 
			 "R2extent": 6640.3386, 
			 "electric_dipole_moment_norm": 1.92197586353, 
			 "electric_quadrupole_moment_norm": 26.0463530357, 
			 "total_energy": -842.921271402, 
			 "HOMO_LUMO_gap": 0.13449, 
			 "cosmo_polarized_energy": -15.36, 
			 "cosmo_cavitation_energy": 35.34, 
			 "cosmo_dispersion_energy": -25.77, 
			 "cosmo_repulsion_energy": 1.92, 
			 "cosmo_total_nonelectrostatic_energy": 11.49, 
			 "SMD_solvation_energy": 4.59 
		},
		"coords": [
			{
				"x": 2.8102684012,
				"y": 0.3049276186,
				"z": 3.9256793281,
				"element": "N" 
			},
			{
				"x": 1.8947631516,
				"y": 0.194787044,
				"z": 2.875810712,
				"element": "C" 
			},
			{
				"x": 1.6752131322,
				"y": 1.2997255989,
				"z": 1.9883136695,
				"element": "C" 
			},
			{
				"x": 2.3513515892,
				"y": 2.5411449666,
				"z": 2.1283950074,
				"element": "C" 
			},
			{
				"x": 2.2280864185,
				"y": 3.5687767337,
				"z": 1.309654147,
				"element": "N" 
			},
			{
				"x": 1.3919400817,
				"y": 3.4146435638,
				"z": 0.2501961907,
				"element": "C" 
			},
			{
				"x": 0.6444554736,
				"y": 2.2814895563,
				"z": 0.0222313349,
				"element": "C" 
			},
			{
				"x": 0.7422695508,
				"y": 1.1793737756,
				"z": 0.9095792623,
				"element": "C" 
			},
			{
				"x": -0.0424489655,
				"y": -0.0099766946,
				"z": 0.7750163718,
				"element": "C" 
			},
			{
				"x": -1.0135190075,
				"y": -0.0622098628,
				"z": -0.250173721,
				"element": "N" 
			},
			{
				"x": -1.5095921739,
				"y": -1.2187532204,
				"z": -0.8647797371,
				"element": "C" 
			},
			{
				"x": -2.8411933265,
				"y": -1.2442420253,
				"z": -1.3158263393,
				"element": "C" 
			},
			{
				"x": -3.348218765,
				"y": -2.3478594422,
				"z": -1.9989249249,
				"element": "C" 
			},
			{
				"x": -2.5234701155,
				"y": -3.4438664376,
				"z": -2.2174303617,
				"element": "C" 
			},
			{
				"x": -3.0134675513,
				"y": -4.5246897573,
				"z": -2.8673846047,
				"element": "F" 
			},
			{
				"x": -1.2038218993,
				"y": -3.4517092992,
				"z": -1.7803747119,
				"element": "C" 
			},
			{
				"x": -0.6956554263,
				"y": -2.3395314654,
				"z": -1.1131349484,
				"element": "C" 
			},
			{
				"x": 0.1616898785,
				"y": -1.0375494423,
				"z": 1.679824371,
				"element": "C" 
			},
			{
				"x": 1.1354682272,
				"y": -0.9503409303,
				"z": 2.6937475365,
				"element": "C" 
			},
			{
				"x": 3.0144974415,
				"y": -0.5727975079,
				"z": 4.3845293141,
				"element": "H" 
			},
			{
				"x": 3.6609685322,
				"y": 0.8062151481,
				"z": 3.7081290036,
				"element": "H" 
			},
			{
				"x": 3.009482053,
				"y": 2.6963245682,
				"z": 2.9822905035,
				"element": "H" 
			},
			{
				"x": 1.3325879231,
				"y": 4.2608241385,
				"z": -0.4307961239,
				"element": "H" 
			},
			{
				"x": -0.0004014036,
				"y": 2.2211971962,
				"z": -0.8477834153,
				"element": "H" 
			},
			{
				"x": -1.6452089824,
				"y": 0.7263679865,
				"z": -0.2740989616,
				"element": "H" 
			},
			{
				"x": -3.4863324766,
				"y": -0.3893662838,
				"z": -1.1283638431,
				"element": "H" 
			},
			{
				"x": -4.3743927269,
				"y": -2.3684088724,
				"z": -2.349886862,
				"element": "H" 
			},
			{
				"x": -0.5811911293,
				"y": -4.3184416537,
				"z": -1.9755008611,
				"element": "H" 
			},
			{
				"x": 0.3405181671,
				"y": -2.3322702272,
				"z": -0.7942760163,
				"element": "H" 
			},
			{
				"x": -0.4355550913,
				"y": -1.9401325994,
				"z": 1.604310322,
				"element": "H" 
			},
			{
				"x": 1.2780090196,
				"y": -1.7981521732,
				"z": 3.359328358,
				"element": "H" 
			}
		],
		 "valence_orbital": [ 
			{
				"type": "occ",
				"energy": -0.25947,
				"method": "rhf"
			},
			{
				"type": "occ",
				"energy": -0.258,
				"method": "rhf"
			},
			{
				"type": "occ",
				"energy": -0.25185,
				"method": "rhf"
			},
			{
				"type": "occ",
				"energy": -0.22372,
				"method": "rhf"
			},
			{
				"type": "occ",
				"energy": -0.18102,
				"method": "rhf"
			},
			{
				"type": "unocc",
				"energy": -0.04653,
				"method": "rhf"
			},
			{
				"type": "unocc",
				"energy": -0.02281,
				"method": "rhf"
			},
			{
				"type": "unocc",
				"energy": -0.00933,
				"method": "rhf"
			},
			{
				"type": "unocc",
				"energy": 0.01095,
				"method": "rhf"
			},
			{
				"type": "unocc",
				"energy": 0.04313,
				"method": "rhf"
			}
		],
		"cosmo_sigma_profile": { 
			"-0.025": 0.0,
			"-0.024": 0.0,
			"-0.023": 0.0,
			"-0.022": 0.0,
			"-0.021": 0.0,
			"-0.02": 0.0,
			"-0.019": 0.0,
			"-0.018": 0.0,
			"-0.017": 0.0,
			"-0.016": 0.0,
			"-0.015": 0.0,
			"-0.014": 0.115556774878,
			"-0.013": 2.27379829848,
			"-0.012": 3.7938684679,
			"-0.011": 4.5090158341,
			"-0.01": 5.3257679761,
			"-0.009": 4.6167376213,
			"-0.008": 4.46279079241,
			"-0.007": 8.00421604436,
			"-0.006": 13.4882621584,
			"-0.005": 16.4192280587,
			"-0.004": 16.4759071114,
			"-0.003": 13.2060723444,
			"-0.002": 13.6420025019,
			"-0.001": 12.8688751717,
			"0.0": 13.5201610069,
			"0.001": 17.1117580781,
			"0.002": 27.294712681,
			"0.003": 31.5502838802,
			"0.004": 28.1250428812,
			"0.005": 25.6732257259,
			"0.006": 4.01967718903,
			"0.007": 2.78811941085,
			"0.008": 2.69828682145,
			"0.009": 1.35976746691,
			"0.01": 1.46333669983,
			"0.011": 1.74339172381,
			"0.012": 1.88484982974,
			"0.013": 1.33597846806,
			"0.014": 1.19556371855,
			"0.015": 1.1391671835,
			"0.016": 0.803284054784,
			"0.017": 0.613420926448,
			"0.018": 0.0174024578863,
			"0.019": 0.0,
			"0.02": 0.0,
			"0.021": 0.0,
			"0.022": 0.0,
			"0.023": 0.0,
			"0.024": 0.0,
			"0.025": 0.0
		}
	}
}
