{
	 "smiles": "CN1N(C(=O)C(C=O)=C1C)C1=CC=CC=C1", 
	 "Tm": 437.15, 
	 "num_atms": 28, 
	 "gaussian": { 
		 "optdone": 1, 
		 "sigma_profile": "yes", 
		 "theory": "DFT", 
		 "functional": "B3LYP", 
		 "basiset": "6-31G**", 
		 "properties": { 
			 "R2extent": 4056.7121, 
			 "electric_dipole_moment_norm": 6.40513595406, 
			 "electric_quadrupole_moment_norm": 16.2008685746, 
			 "total_energy": -724.432873461, 
			 "HOMO_LUMO_gap": 0.16595, 
			 "cosmo_polarized_energy": -17.01, 
			 "cosmo_cavitation_energy": 31.79, 
			 "cosmo_dispersion_energy": -22.53, 
			 "cosmo_repulsion_energy": 1.74, 
			 "cosmo_total_nonelectrostatic_energy": 10.99, 
			 "SMD_solvation_energy": 7.15 
		},
		"coords": [
			{
				"x": 1.2163081637,
				"y": -0.4724457477,
				"z": 1.5611196012,
				"element": "C" 
			},
			{
				"x": 1.1369378463,
				"y": -0.0597590257,
				"z": 0.1577099433,
				"element": "N" 
			},
			{
				"x": -0.0146286517,
				"y": -0.4697276387,
				"z": -0.5456967927,
				"element": "N" 
			},
			{
				"x": 0.3351734043,
				"y": -0.6911014259,
				"z": -1.9145503634,
				"element": "C" 
			},
			{
				"x": -0.4675262925,
				"y": -0.963584801,
				"z": -2.7927700349,
				"element": "O" 
			},
			{
				"x": 1.7799899224,
				"y": -0.48966575,
				"z": -1.9591553716,
				"element": "C" 
			},
			{
				"x": 2.5623659425,
				"y": -0.6111590807,
				"z": -3.1818246481,
				"element": "C" 
			},
			{
				"x": 3.770219916,
				"y": -0.4270898109,
				"z": -3.2751006347,
				"element": "O" 
			},
			{
				"x": 2.2081390707,
				"y": -0.1574397722,
				"z": -0.69078121,
				"element": "C" 
			},
			{
				"x": 3.6073735253,
				"y": 0.0475942757,
				"z": -0.2094683399,
				"element": "C" 
			},
			{
				"x": -1.2888162129,
				"y": 0.0150892978,
				"z": -0.1397698674,
				"element": "C" 
			},
			{
				"x": -1.4198843263,
				"y": 1.2027751231,
				"z": 0.59197798,
				"element": "C" 
			},
			{
				"x": -2.687507716,
				"y": 1.6401235154,
				"z": 0.97667719,
				"element": "C" 
			},
			{
				"x": -3.8246272952,
				"y": 0.9166407154,
				"z": 0.6148690093,
				"element": "C" 
			},
			{
				"x": -3.6867063767,
				"y": -0.2539792641,
				"z": -0.1344365355,
				"element": "C" 
			},
			{
				"x": -2.4256221079,
				"y": -0.7170041836,
				"z": -0.505390368,
				"element": "C" 
			},
			{
				"x": 0.3269155716,
				"y": -0.1280532075,
				"z": 2.0885703972,
				"element": "H" 
			},
			{
				"x": 2.0924201258,
				"y": -0.0046090301,
				"z": 2.0105281493,
				"element": "H" 
			},
			{
				"x": 1.2906474087,
				"y": -1.5628552592,
				"z": 1.6511381169,
				"element": "H" 
			},
			{
				"x": 1.9589903006,
				"y": -0.8985275459,
				"z": -4.0653465784,
				"element": "H" 
			},
			{
				"x": 3.9337644393,
				"y": -0.7869967533,
				"z": 0.4229497591,
				"element": "H" 
			},
			{
				"x": 3.6951469751,
				"y": 0.9677736567,
				"z": 0.377126321,
				"element": "H" 
			},
			{
				"x": 4.2635552546,
				"y": 0.098558516,
				"z": -1.0781581158,
				"element": "H" 
			},
			{
				"x": -0.5382322652,
				"y": 1.7860624759,
				"z": 0.8362225908,
				"element": "H" 
			},
			{
				"x": -2.7833492377,
				"y": 2.5592623825,
				"z": 1.5474197283,
				"element": "H" 
			},
			{
				"x": -4.8099279043,
				"y": 1.2640627752,
				"z": 0.910269296,
				"element": "H" 
			},
			{
				"x": -4.5663999798,
				"y": -0.8198227987,
				"z": -0.4264783044,
				"element": "H" 
			},
			{
				"x": -2.3102195009,
				"y": -1.6226216382,
				"z": -1.0870509176,
				"element": "H" 
			}
		],
		 "valence_orbital": [ 
			{
				"type": "occ",
				"energy": -0.2669,
				"method": "rhf"
			},
			{
				"type": "occ",
				"energy": -0.25721,
				"method": "rhf"
			},
			{
				"type": "occ",
				"energy": -0.24772,
				"method": "rhf"
			},
			{
				"type": "occ",
				"energy": -0.23884,
				"method": "rhf"
			},
			{
				"type": "occ",
				"energy": -0.22102,
				"method": "rhf"
			},
			{
				"type": "unocc",
				"energy": -0.05507,
				"method": "rhf"
			},
			{
				"type": "unocc",
				"energy": -0.0163,
				"method": "rhf"
			},
			{
				"type": "unocc",
				"energy": -0.01011,
				"method": "rhf"
			},
			{
				"type": "unocc",
				"energy": 0.01213,
				"method": "rhf"
			},
			{
				"type": "unocc",
				"energy": 0.07527,
				"method": "rhf"
			}
		],
		"cosmo_sigma_profile": { 
			"-0.025": 0.0,
			"-0.024": 0.0,
			"-0.023": 0.0,
			"-0.022": 0.0,
			"-0.021": 0.0,
			"-0.02": 0.0,
			"-0.019": 0.0,
			"-0.018": 0.0,
			"-0.017": 0.0,
			"-0.016": 0.0,
			"-0.015": 0.0,
			"-0.014": 0.0,
			"-0.013": 0.0,
			"-0.012": 0.0,
			"-0.011": 0.0,
			"-0.01": 0.0,
			"-0.009": 0.0246306688389,
			"-0.008": 1.96020180826,
			"-0.007": 8.75763026032,
			"-0.006": 21.3087452689,
			"-0.005": 23.5159346256,
			"-0.004": 25.6075186277,
			"-0.003": 21.7008350341,
			"-0.002": 20.0198832694,
			"-0.001": 17.2616789353,
			"0.0": 17.7355689226,
			"0.001": 13.3918674116,
			"0.002": 11.8645121214,
			"0.003": 11.5789850168,
			"0.004": 11.3475823346,
			"0.005": 11.1844495037,
			"0.006": 4.19290873325,
			"0.007": 3.16592402148,
			"0.008": 3.32350883975,
			"0.009": 3.22854796147,
			"0.01": 4.10003811005,
			"0.011": 4.4776278528,
			"0.012": 5.53178227397,
			"0.013": 7.1693508611,
			"0.014": 1.57445482291,
			"0.015": 0.0,
			"0.016": 0.0,
			"0.017": 0.0,
			"0.018": 0.0,
			"0.019": 0.0,
			"0.02": 0.0,
			"0.021": 0.0,
			"0.022": 0.0,
			"0.023": 0.0,
			"0.024": 0.0,
			"0.025": 0.0
		}
	}
}
