{
	 "smiles": "CCC1=C(O)C=C2OC(=O)C=C(CCl)C2=C1", 
	 "Tm": 490.15, 
	 "num_atms": 27, 
	 "gaussian": { 
		 "optdone": 1, 
		 "sigma_profile": "yes", 
		 "theory": "DFT", 
		 "functional": "B3LYP", 
		 "basiset": "6-31G**", 
		 "properties": { 
			 "R2extent": 4788.1005, 
			 "electric_dipole_moment_norm": 7.93387379847, 
			 "electric_quadrupole_moment_norm": 11.6854695058, 
			 "total_energy": -1149.78185783, 
			 "HOMO_LUMO_gap": 0.16251, 
			 "cosmo_polarized_energy": -18.34, 
			 "cosmo_cavitation_energy": 32.34, 
			 "cosmo_dispersion_energy": -23.8, 
			 "cosmo_repulsion_energy": 1.84, 
			 "cosmo_total_nonelectrostatic_energy": 10.39, 
			 "SMD_solvation_energy": 6.29 
		},
		"coords": [
			{
				"x": 0.5608792038,
				"y": -1.7637495845,
				"z": -3.6830432965,
				"element": "C" 
			},
			{
				"x": 0.7566549877,
				"y": -2.6667073079,
				"z": -2.4622810312,
				"element": "C" 
			},
			{
				"x": 0.4898534083,
				"y": -2.0311210573,
				"z": -1.1090948575,
				"element": "C" 
			},
			{
				"x": 0.652131318,
				"y": -2.8126086789,
				"z": 0.0628950089,
				"element": "C" 
			},
			{
				"x": 1.0400855776,
				"y": -4.1161572802,
				"z": 0.0144806896,
				"element": "O" 
			},
			{
				"x": 0.4205046519,
				"y": -2.2792172372,
				"z": 1.3269381684,
				"element": "C" 
			},
			{
				"x": 0.0213192981,
				"y": -0.9511767583,
				"z": 1.4453054065,
				"element": "C" 
			},
			{
				"x": -0.18940544,
				"y": -0.4882259615,
				"z": 2.7082425915,
				"element": "O" 
			},
			{
				"x": -0.5920371064,
				"y": 0.8245003003,
				"z": 2.9635819579,
				"element": "C" 
			},
			{
				"x": -0.7552689458,
				"y": 1.1481715523,
				"z": 4.1160117823,
				"element": "O" 
			},
			{
				"x": -0.7758511999,
				"y": 1.678832792,
				"z": 1.7988453911,
				"element": "C" 
			},
			{
				"x": -0.5726637053,
				"y": 1.2423023413,
				"z": 0.53243595,
				"element": "C" 
			},
			{
				"x": -0.7577558953,
				"y": 2.1127961029,
				"z": -0.6877034042,
				"element": "C" 
			},
			{
				"x": -1.2772682853,
				"y": 3.8085806016,
				"z": -0.3603055996,
				"element": "Cl" 
			},
			{
				"x": -0.1539200254,
				"y": -0.1326783561,
				"z": 0.3112432366,
				"element": "C" 
			},
			{
				"x": 0.0904320328,
				"y": -0.7098617236,
				"z": -0.9518507466,
				"element": "C" 
			},
			{
				"x": 1.2292029171,
				"y": -0.8974554999,
				"z": -3.6528625077,
				"element": "H" 
			},
			{
				"x": -0.4687992062,
				"y": -1.3988764838,
				"z": -3.7512779817,
				"element": "H" 
			},
			{
				"x": 0.7777357668,
				"y": -2.3179858206,
				"z": -4.6003180444,
				"element": "H" 
			},
			{
				"x": 1.7888650786,
				"y": -3.0505616843,
				"z": -2.4804217703,
				"element": "H" 
			},
			{
				"x": 0.1061807573,
				"y": -3.5478951926,
				"z": -2.5785485228,
				"element": "H" 
			},
			{
				"x": 1.1741652126,
				"y": -4.3875797992,
				"z": -0.90209069,
				"element": "H" 
			},
			{
				"x": 0.5492978823,
				"y": -2.8908296765,
				"z": 2.211790042,
				"element": "H" 
			},
			{
				"x": -1.0875586378,
				"y": 2.6925179558,
				"z": 2.01209939,
				"element": "H" 
			},
			{
				"x": 0.1779588214,
				"y": 2.1839113094,
				"z": -1.2473892147,
				"element": "H" 
			},
			{
				"x": -1.5162924029,
				"y": 1.6841413015,
				"z": -1.3470524954,
				"element": "H" 
			},
			{
				"x": -0.0372460638,
				"y": -0.101666155,
				"z": -1.8395294522,
				"element": "H" 
			}
		],
		 "valence_orbital": [ 
			{
				"type": "occ",
				"energy": -0.3111,
				"method": "rhf"
			},
			{
				"type": "occ",
				"energy": -0.29352,
				"method": "rhf"
			},
			{
				"type": "occ",
				"energy": -0.27058,
				"method": "rhf"
			},
			{
				"type": "occ",
				"energy": -0.25308,
				"method": "rhf"
			},
			{
				"type": "occ",
				"energy": -0.22612,
				"method": "rhf"
			},
			{
				"type": "unocc",
				"energy": -0.06361,
				"method": "rhf"
			},
			{
				"type": "unocc",
				"energy": -0.01432,
				"method": "rhf"
			},
			{
				"type": "unocc",
				"energy": 0.0044,
				"method": "rhf"
			},
			{
				"type": "unocc",
				"energy": 0.00958,
				"method": "rhf"
			},
			{
				"type": "unocc",
				"energy": 0.05096,
				"method": "rhf"
			}
		],
		"cosmo_sigma_profile": { 
			"-0.025": 0.0,
			"-0.024": 0.0,
			"-0.023": 0.0,
			"-0.022": 0.0,
			"-0.021": 0.0,
			"-0.02": 0.0,
			"-0.019": 0.0,
			"-0.018": 0.0,
			"-0.017": 0.271083039539,
			"-0.016": 0.646595816321,
			"-0.015": 0.888615935321,
			"-0.014": 0.939726708122,
			"-0.013": 1.24081934881,
			"-0.012": 1.00635258084,
			"-0.011": 0.982624948032,
			"-0.01": 1.5966292885,
			"-0.009": 4.64889917386,
			"-0.008": 9.27836922405,
			"-0.007": 7.76006146211,
			"-0.006": 8.30268871209,
			"-0.005": 9.74818776629,
			"-0.004": 15.8669308272,
			"-0.003": 17.9576286084,
			"-0.002": 21.2870928647,
			"-0.001": 20.9706615874,
			"0.0": 22.2855813343,
			"0.001": 22.9906348687,
			"0.002": 20.3196487899,
			"0.003": 14.2604810578,
			"0.004": 9.56785038308,
			"0.005": 9.72461414451,
			"0.006": 7.68387604362,
			"0.007": 2.89879638347,
			"0.008": 3.88758891667,
			"0.009": 4.31510214782,
			"0.01": 4.61085867012,
			"0.011": 3.89325665727,
			"0.012": 6.16005184809,
			"0.013": 3.42042425125,
			"0.014": 0.219806647036,
			"0.015": 0.0,
			"0.016": 0.0,
			"0.017": 0.0,
			"0.018": 0.0,
			"0.019": 0.0,
			"0.02": 0.0,
			"0.021": 0.0,
			"0.022": 0.0,
			"0.023": 0.0,
			"0.024": 0.0,
			"0.025": 0.0
		}
	}
}
