{
	 "smiles": "CN1C(=O)CC(O)C1=O", 
	 "Tm": 357.65, 
	 "num_atms": 16, 
	 "gaussian": { 
		 "optdone": 1, 
		 "sigma_profile": "yes", 
		 "theory": "DFT", 
		 "functional": "B3LYP", 
		 "basiset": "6-31G**", 
		 "properties": { 
			 "R2extent": 1426.4632, 
			 "electric_dipole_moment_norm": 0.870073485402, 
			 "electric_quadrupole_moment_norm": 9.07069805473, 
			 "total_energy": -475.194200054, 
			 "HOMO_LUMO_gap": 0.23436, 
			 "cosmo_polarized_energy": -12.15, 
			 "cosmo_cavitation_energy": 19.94, 
			 "cosmo_dispersion_energy": -14.89, 
			 "cosmo_repulsion_energy": 1.24, 
			 "cosmo_total_nonelectrostatic_energy": 6.3, 
			 "SMD_solvation_energy": 4.96 
		},
		"coords": [
			{
				"x": 0.3942476948,
				"y": 2.3187348126,
				"z": -1.6448441379,
				"element": "C" 
			},
			{
				"x": 0.348568739,
				"y": 1.6427620564,
				"z": -0.356967508,
				"element": "N" 
			},
			{
				"x": -0.4639543376,
				"y": 2.0705254462,
				"z": 0.7045785796,
				"element": "C" 
			},
			{
				"x": -1.1324297975,
				"y": 3.0800986546,
				"z": 0.683810549,
				"element": "O" 
			},
			{
				"x": -0.353961978,
				"y": 1.0327173176,
				"z": 1.8176286429,
				"element": "C" 
			},
			{
				"x": 0.824958677,
				"y": 0.1455219043,
				"z": 1.4089879563,
				"element": "C" 
			},
			{
				"x": 0.5631816249,
				"y": -1.2265563183,
				"z": 1.5890955054,
				"element": "O" 
			},
			{
				"x": 1.037386672,
				"y": 0.4771586152,
				"z": -0.0725551735,
				"element": "C" 
			},
			{
				"x": 1.7006488771,
				"y": -0.1784626876,
				"z": -0.8534018307,
				"element": "O" 
			},
			{
				"x": -0.4056928688,
				"y": 1.9612691248,
				"z": -2.300317576,
				"element": "H" 
			},
			{
				"x": 1.3572826777,
				"y": 2.1099387303,
				"z": -2.1120776613,
				"element": "H" 
			},
			{
				"x": 0.2653507634,
				"y": 3.3889879533,
				"z": -1.4788481706,
				"element": "H" 
			},
			{
				"x": -0.252954397,
				"y": 1.5201481467,
				"z": 2.7887720253,
				"element": "H" 
			},
			{
				"x": -1.2719521071,
				"y": 0.4349700408,
				"z": 1.8295747913,
				"element": "H" 
			},
			{
				"x": 1.740522726,
				"y": 0.4526884146,
				"z": 1.942636845,
				"element": "H" 
			},
			{
				"x": 1.1525970341,
				"y": -1.6987022114,
				"z": 0.9804271634,
				"element": "H" 
			}
		],
		 "valence_orbital": [ 
			{
				"type": "occ",
				"energy": -0.35835,
				"method": "rhf"
			},
			{
				"type": "occ",
				"energy": -0.30346,
				"method": "rhf"
			},
			{
				"type": "occ",
				"energy": -0.29179,
				"method": "rhf"
			},
			{
				"type": "occ",
				"energy": -0.28537,
				"method": "rhf"
			},
			{
				"type": "occ",
				"energy": -0.26404,
				"method": "rhf"
			},
			{
				"type": "unocc",
				"energy": -0.02968,
				"method": "rhf"
			},
			{
				"type": "unocc",
				"energy": 0.01335,
				"method": "rhf"
			},
			{
				"type": "unocc",
				"energy": 0.08714,
				"method": "rhf"
			},
			{
				"type": "unocc",
				"energy": 0.10011,
				"method": "rhf"
			},
			{
				"type": "unocc",
				"energy": 0.11149,
				"method": "rhf"
			}
		],
		"cosmo_sigma_profile": { 
			"-0.025": 0.0,
			"-0.024": 0.0,
			"-0.023": 0.0,
			"-0.022": 0.0,
			"-0.021": 0.0,
			"-0.02": 0.0,
			"-0.019": 0.0,
			"-0.018": 0.0,
			"-0.017": 0.0,
			"-0.016": 0.0,
			"-0.015": 0.0321763877983,
			"-0.014": 0.636406176901,
			"-0.013": 0.656316312428,
			"-0.012": 1.0735724976,
			"-0.011": 0.418510622263,
			"-0.01": 0.307157868425,
			"-0.009": 1.68587781996,
			"-0.008": 5.7480639718,
			"-0.007": 11.1027447093,
			"-0.006": 14.7094057707,
			"-0.005": 12.5676766673,
			"-0.004": 14.1220632623,
			"-0.003": 15.9918197223,
			"-0.002": 7.87630951282,
			"-0.001": 4.87961210045,
			"0.0": 5.1910926908,
			"0.001": 4.31713630468,
			"0.002": 4.48238500897,
			"0.003": 3.85295242629,
			"0.004": 3.77258349184,
			"0.005": 3.87994371356,
			"0.006": 3.81083873272,
			"0.007": 3.19917158617,
			"0.008": 4.03238987346,
			"0.009": 4.26228262245,
			"0.01": 5.45257367116,
			"0.011": 10.7549434041,
			"0.012": 6.80425245204,
			"0.013": 1.73073713373,
			"0.014": 0.0359678755924,
			"0.015": 0.0,
			"0.016": 0.0,
			"0.017": 0.0,
			"0.018": 0.0,
			"0.019": 0.0,
			"0.02": 0.0,
			"0.021": 0.0,
			"0.022": 0.0,
			"0.023": 0.0,
			"0.024": 0.0,
			"0.025": 0.0
		}
	}
}
