{
	 "smiles": "ClCC(=O)NCCC1=CCCCC1", 
	 "Tm": 334.15, 
	 "num_atms": 29, 
	 "gaussian": { 
		 "optdone": 1, 
		 "sigma_profile": "yes", 
		 "theory": "DFT", 
		 "functional": "B3LYP", 
		 "basiset": "6-31G**", 
		 "properties": { 
			 "R2extent": 3953.7189, 
			 "electric_dipole_moment_norm": 3.95272459956, 
			 "electric_quadrupole_moment_norm": 17.3564496874, 
			 "total_energy": -980.885359766, 
			 "HOMO_LUMO_gap": 0.21843, 
			 "cosmo_polarized_energy": -11.08, 
			 "cosmo_cavitation_energy": 31.88, 
			 "cosmo_dispersion_energy": -22.07, 
			 "cosmo_repulsion_energy": 1.79, 
			 "cosmo_total_nonelectrostatic_energy": 11.6, 
			 "SMD_solvation_energy": 4.77 
		},
		"coords": [
			{
				"x": -1.0381563328,
				"y": -4.0415099699,
				"z": -1.3710538049,
				"element": "Cl" 
			},
			{
				"x": 0.2083555356,
				"y": -2.7196835767,
				"z": -1.456802645,
				"element": "C" 
			},
			{
				"x": 1.4329834926,
				"y": -3.0117904998,
				"z": -0.5873593649,
				"element": "C" 
			},
			{
				"x": 2.5058907342,
				"y": -3.2799469132,
				"z": -1.1125602856,
				"element": "O" 
			},
			{
				"x": 1.2888944468,
				"y": -2.9427169836,
				"z": 0.7688031256,
				"element": "N" 
			},
			{
				"x": 0.1399595366,
				"y": -2.5304389383,
				"z": 1.5645827295,
				"element": "C" 
			},
			{
				"x": 0.2646358338,
				"y": -1.1223504529,
				"z": 2.1896601879,
				"element": "C" 
			},
			{
				"x": 0.3738814028,
				"y": 0.0143902827,
				"z": 1.1902973393,
				"element": "C" 
			},
			{
				"x": -0.7210410203,
				"y": 0.6090609889,
				"z": 0.6908012299,
				"element": "C" 
			},
			{
				"x": -0.7006807996,
				"y": 1.7666603162,
				"z": -0.2783015435,
				"element": "C" 
			},
			{
				"x": 0.6827306868,
				"y": 2.4289677426,
				"z": -0.3617196243,
				"element": "C" 
			},
			{
				"x": 1.7879907193,
				"y": 1.3690660309,
				"z": -0.438465289,
				"element": "C" 
			},
			{
				"x": 1.7697559279,
				"y": 0.4640334309,
				"z": 0.8018017325,
				"element": "C" 
			},
			{
				"x": -0.2902464947,
				"y": -1.7909952171,
				"z": -1.1756676019,
				"element": "H" 
			},
			{
				"x": 0.5512965247,
				"y": -2.6756010975,
				"z": -2.4876367076,
				"element": "H" 
			},
			{
				"x": 2.1496643543,
				"y": -3.1520334064,
				"z": 1.2594262879,
				"element": "H" 
			},
			{
				"x": -0.753469223,
				"y": -2.5802785032,
				"z": 0.9409098015,
				"element": "H" 
			},
			{
				"x": -0.0031313039,
				"y": -3.2652310214,
				"z": 2.3667296764,
				"element": "H" 
			},
			{
				"x": -0.6192633465,
				"y": -0.9798821905,
				"z": 2.8232319549,
				"element": "H" 
			},
			{
				"x": 1.1333342664,
				"y": -1.109479839,
				"z": 2.8619733561,
				"element": "H" 
			},
			{
				"x": -1.7033607395,
				"y": 0.2561958542,
				"z": 1.0078780458,
				"element": "H" 
			},
			{
				"x": -1.0119706494,
				"y": 1.418016073,
				"z": -1.2754395086,
				"element": "H" 
			},
			{
				"x": -1.4575173353,
				"y": 2.5045005964,
				"z": 0.0186694635,
				"element": "H" 
			},
			{
				"x": 0.8407619264,
				"y": 3.0486753127,
				"z": 0.5310354429,
				"element": "H" 
			},
			{
				"x": 0.7289589663,
				"y": 3.10203938,
				"z": -1.2251501111,
				"element": "H" 
			},
			{
				"x": 2.771800365,
				"y": 1.8397542409,
				"z": -0.5437545877,
				"element": "H" 
			},
			{
				"x": 1.638375139,
				"y": 0.7555079916,
				"z": -1.3371939621,
				"element": "H" 
			},
			{
				"x": 2.2152719799,
				"y": 0.9930260515,
				"z": 1.6594317687,
				"element": "H" 
			},
			{
				"x": 2.4086954064,
				"y": -0.412155683,
				"z": 0.6370728938,
				"element": "H" 
			}
		],
		 "valence_orbital": [ 
			{
				"type": "occ",
				"energy": -0.30817,
				"method": "rhf"
			},
			{
				"type": "occ",
				"energy": -0.30215,
				"method": "rhf"
			},
			{
				"type": "occ",
				"energy": -0.26221,
				"method": "rhf"
			},
			{
				"type": "occ",
				"energy": -0.25241,
				"method": "rhf"
			},
			{
				"type": "occ",
				"energy": -0.23627,
				"method": "rhf"
			},
			{
				"type": "unocc",
				"energy": -0.01784,
				"method": "rhf"
			},
			{
				"type": "unocc",
				"energy": 0.01403,
				"method": "rhf"
			},
			{
				"type": "unocc",
				"energy": 0.05086,
				"method": "rhf"
			},
			{
				"type": "unocc",
				"energy": 0.08185,
				"method": "rhf"
			},
			{
				"type": "unocc",
				"energy": 0.08763,
				"method": "rhf"
			}
		],
		"cosmo_sigma_profile": { 
			"-0.025": 0.0,
			"-0.024": 0.0,
			"-0.023": 0.0,
			"-0.022": 0.0,
			"-0.021": 0.0,
			"-0.02": 0.0,
			"-0.019": 0.0,
			"-0.018": 0.0,
			"-0.017": 0.0,
			"-0.016": 0.0,
			"-0.015": 0.0,
			"-0.014": 0.336680217687,
			"-0.013": 1.29717760566,
			"-0.012": 0.976444724473,
			"-0.011": 0.859639434991,
			"-0.01": 1.09636976395,
			"-0.009": 1.1711077978,
			"-0.008": 2.06622757158,
			"-0.007": 2.61440967306,
			"-0.006": 3.82897319579,
			"-0.005": 9.21916768847,
			"-0.004": 15.7014807131,
			"-0.003": 26.0840957176,
			"-0.002": 32.1622757099,
			"-0.001": 34.2772570361,
			"0.0": 32.9849415925,
			"0.001": 21.083413207,
			"0.002": 11.7411533493,
			"0.003": 9.9332868112,
			"0.004": 8.0863338605,
			"0.005": 11.0087995853,
			"0.006": 6.33939625029,
			"0.007": 1.52930796443,
			"0.008": 0.779327726682,
			"0.009": 0.699617418004,
			"0.01": 1.35987362714,
			"0.011": 2.29259146633,
			"0.012": 1.86125268358,
			"0.013": 4.82700215855,
			"0.014": 3.94766790915,
			"0.015": 0.202897340861,
			"0.016": 0.0,
			"0.017": 0.0,
			"0.018": 0.0,
			"0.019": 0.0,
			"0.02": 0.0,
			"0.021": 0.0,
			"0.022": 0.0,
			"0.023": 0.0,
			"0.024": 0.0,
			"0.025": 0.0
		}
	}
}
