{
	 "smiles": "COC1=CC=C(C=C1)C1=NN2C(C)=NN=C2S1", 
	 "Tm": 450.15, 
	 "num_atms": 27, 
	 "gaussian": { 
		 "optdone": 1, 
		 "sigma_profile": "yes", 
		 "theory": "DFT", 
		 "functional": "B3LYP", 
		 "basiset": "6-31G**", 
		 "properties": { 
			 "R2extent": 6438.7114, 
			 "electric_dipole_moment_norm": 8.06777554968, 
			 "electric_quadrupole_moment_norm": 15.8039536829, 
			 "total_energy": -1117.55009616, 
			 "HOMO_LUMO_gap": 0.16536, 
			 "cosmo_polarized_energy": -16.18, 
			 "cosmo_cavitation_energy": 33.46, 
			 "cosmo_dispersion_energy": -25.3, 
			 "cosmo_repulsion_energy": 1.89, 
			 "cosmo_total_nonelectrostatic_energy": 10.06, 
			 "SMD_solvation_energy": 3.42 
		},
		"coords": [
			{
				"x": -3.3870452952,
				"y": 2.8051555069,
				"z": -3.5375859068,
				"element": "C" 
			},
			{
				"x": -3.0969415921,
				"y": 1.4132123988,
				"z": -3.5013781123,
				"element": "O" 
			},
			{
				"x": -2.1086514978,
				"y": 0.9756954357,
				"z": -2.681011748,
				"element": "C" 
			},
			{
				"x": -1.8739660964,
				"y": -0.4090361399,
				"z": -2.6935844603,
				"element": "C" 
			},
			{
				"x": -0.8861354753,
				"y": -0.9554873768,
				"z": -1.891028691,
				"element": "C" 
			},
			{
				"x": -0.1026781242,
				"y": -0.1408918408,
				"z": -1.0523307218,
				"element": "C" 
			},
			{
				"x": -0.3461876793,
				"y": 1.2421177212,
				"z": -1.0482152406,
				"element": "C" 
			},
			{
				"x": -1.335452595,
				"y": 1.801297588,
				"z": -1.8500660979,
				"element": "C" 
			},
			{
				"x": 0.9452264032,
				"y": -0.6963247797,
				"z": -0.1963175675,
				"element": "C" 
			},
			{
				"x": 1.6828645768,
				"y": 0.034863066,
				"z": 0.5894776411,
				"element": "N" 
			},
			{
				"x": 2.561467784,
				"y": -0.7685623966,
				"z": 1.2523006788,
				"element": "N" 
			},
			{
				"x": 3.5568867658,
				"y": -0.5803434794,
				"z": 2.1826905467,
				"element": "C" 
			},
			{
				"x": 3.9488429831,
				"y": 0.7368063566,
				"z": 2.7521059091,
				"element": "C" 
			},
			{
				"x": 4.0822037091,
				"y": -1.7559465206,
				"z": 2.4656333773,
				"element": "N" 
			},
			{
				"x": 3.4415331469,
				"y": -2.748541427,
				"z": 1.7246196994,
				"element": "N" 
			},
			{
				"x": 2.5422420523,
				"y": -2.1221643678,
				"z": 1.0140946897,
				"element": "C" 
			},
			{
				"x": 1.2959557003,
				"y": -2.4632376188,
				"z": -0.1676215694,
				"element": "S" 
			},
			{
				"x": -2.5214977717,
				"y": 3.3877069878,
				"z": -3.8761965934,
				"element": "H" 
			},
			{
				"x": -3.7108032634,
				"y": 3.1741481801,
				"z": -2.5566564434,
				"element": "H" 
			},
			{
				"x": -4.2017150771,
				"y": 2.9217251341,
				"z": -4.2529970039,
				"element": "H" 
			},
			{
				"x": -2.4808432002,
				"y": -1.0317185207,
				"z": -3.3418058502,
				"element": "H" 
			},
			{
				"x": -0.725041324,
				"y": -2.0294503956,
				"z": -1.9195276725,
				"element": "H" 
			},
			{
				"x": 0.2517694062,
				"y": 1.8790677959,
				"z": -0.405709108,
				"element": "H" 
			},
			{
				"x": -1.4966488758,
				"y": 2.8720684615,
				"z": -1.8222219992,
				"element": "H" 
			},
			{
				"x": 3.1108832455,
				"y": 1.2120823638,
				"z": 3.2730913933,
				"element": "H" 
			},
			{
				"x": 4.2881392971,
				"y": 1.424917039,
				"z": 1.9705281908,
				"element": "H" 
			},
			{
				"x": 4.7622927972,
				"y": 0.5770408284,
				"z": 3.46121266,
				"element": "H" 
			}
		],
		 "valence_orbital": [ 
			{
				"type": "occ",
				"energy": -0.28088,
				"method": "rhf"
			},
			{
				"type": "occ",
				"energy": -0.27563,
				"method": "rhf"
			},
			{
				"type": "occ",
				"energy": -0.25244,
				"method": "rhf"
			},
			{
				"type": "occ",
				"energy": -0.2357,
				"method": "rhf"
			},
			{
				"type": "occ",
				"energy": -0.22993,
				"method": "rhf"
			},
			{
				"type": "unocc",
				"energy": -0.06457,
				"method": "rhf"
			},
			{
				"type": "unocc",
				"energy": -0.02358,
				"method": "rhf"
			},
			{
				"type": "unocc",
				"energy": -0.00682,
				"method": "rhf"
			},
			{
				"type": "unocc",
				"energy": 0.02105,
				"method": "rhf"
			},
			{
				"type": "unocc",
				"energy": 0.04374,
				"method": "rhf"
			}
		],
		"cosmo_sigma_profile": { 
			"-0.025": 0.0,
			"-0.024": 0.0,
			"-0.023": 0.0,
			"-0.022": 0.0,
			"-0.021": 0.0,
			"-0.02": 0.0,
			"-0.019": 0.0,
			"-0.018": 0.0,
			"-0.017": 0.0,
			"-0.016": 0.0,
			"-0.015": 0.0,
			"-0.014": 0.0,
			"-0.013": 0.0,
			"-0.012": 0.0,
			"-0.011": 0.0,
			"-0.01": 0.0,
			"-0.009": 0.0915969073907,
			"-0.008": 1.55261717839,
			"-0.007": 6.66237870863,
			"-0.006": 21.8983666405,
			"-0.005": 22.1845186097,
			"-0.004": 25.9519519492,
			"-0.003": 26.2373266391,
			"-0.002": 23.6397936076,
			"-0.001": 21.1348293868,
			"0.0": 15.6653858827,
			"0.001": 19.0224100346,
			"0.002": 20.1508901654,
			"0.003": 18.684638706,
			"0.004": 7.86597322777,
			"0.005": 5.3623004279,
			"0.006": 3.52972506875,
			"0.007": 3.7602084923,
			"0.008": 4.34222586833,
			"0.009": 3.09402462447,
			"0.01": 2.95596859917,
			"0.011": 2.37718079968,
			"0.012": 2.94021681205,
			"0.013": 3.89490928629,
			"0.014": 2.80169015643,
			"0.015": 2.80752507373,
			"0.016": 2.16651774416,
			"0.017": 0.436274737932,
			"0.018": 0.0,
			"0.019": 0.0,
			"0.02": 0.0,
			"0.021": 0.0,
			"0.022": 0.0,
			"0.023": 0.0,
			"0.024": 0.0,
			"0.025": 0.0
		}
	}
}
