{
	 "smiles": "COC1=C(C)C2=C(C=C1C)C(=O)C2", 
	 "Tm": 324.15, 
	 "num_atms": 25, 
	 "gaussian": { 
		 "optdone": 1, 
		 "sigma_profile": "yes", 
		 "theory": "DFT", 
		 "functional": "B3LYP", 
		 "basiset": "6-31G**", 
		 "properties": { 
			 "R2extent": 2856.9977, 
			 "electric_dipole_moment_norm": 4.38479686645, 
			 "electric_quadrupole_moment_norm": 17.3184310998, 
			 "total_energy": -576.807342438, 
			 "HOMO_LUMO_gap": 0.18982, 
			 "cosmo_polarized_energy": -9.15, 
			 "cosmo_cavitation_energy": 28.36, 
			 "cosmo_dispersion_energy": -20.16, 
			 "cosmo_repulsion_energy": 1.61, 
			 "cosmo_total_nonelectrostatic_energy": 9.8, 
			 "SMD_solvation_energy": 5.98 
		},
		"coords": [
			{
				"x": 0.0027437662,
				"y": 1.2362236968,
				"z": 2.4035178864,
				"element": "C" 
			},
			{
				"x": 0.4550868775,
				"y": -0.0504630369,
				"z": 1.9796878243,
				"element": "O" 
			},
			{
				"x": 0.074592861,
				"y": -0.4148048681,
				"z": 0.7014973789,
				"element": "C" 
			},
			{
				"x": -1.1919768739,
				"y": -1.0097304322,
				"z": 0.5110507082,
				"element": "C" 
			},
			{
				"x": -2.1483357439,
				"y": -1.2421394619,
				"z": 1.6526262142,
				"element": "C" 
			},
			{
				"x": -1.4574877743,
				"y": -1.3799442159,
				"z": -0.8030102618,
				"element": "C" 
			},
			{
				"x": -0.5402347731,
				"y": -1.1871769434,
				"z": -1.8410568136,
				"element": "C" 
			},
			{
				"x": 0.7160376414,
				"y": -0.6214819751,
				"z": -1.6400030806,
				"element": "C" 
			},
			{
				"x": 1.0276604006,
				"y": -0.2262748989,
				"z": -0.334025289,
				"element": "C" 
			},
			{
				"x": 2.3729267022,
				"y": 0.3745894709,
				"z": -0.0015396717,
				"element": "C" 
			},
			{
				"x": -1.4755230547,
				"y": -1.8004330296,
				"z": -2.832820992,
				"element": "C" 
			},
			{
				"x": -1.4715411268,
				"y": -2.0376962888,
				"z": -4.0148696584,
				"element": "O" 
			},
			{
				"x": -2.5259409181,
				"y": -2.0313963918,
				"z": -1.6781942611,
				"element": "C" 
			},
			{
				"x": -1.0920834353,
				"y": 1.2889354628,
				"z": 2.4413401824,
				"element": "H" 
			},
			{
				"x": 0.4038117436,
				"y": 1.3905308154,
				"z": 3.4072668296,
				"element": "H" 
			},
			{
				"x": 0.3712777111,
				"y": 2.0292191813,
				"z": 1.7408426937,
				"element": "H" 
			},
			{
				"x": -1.6073675411,
				"y": -1.3767524424,
				"z": 2.5922374237,
				"element": "H" 
			},
			{
				"x": -2.8376708294,
				"y": -0.3984258572,
				"z": 1.7831675464,
				"element": "H" 
			},
			{
				"x": -2.7597329295,
				"y": -2.1298670046,
				"z": 1.4679684423,
				"element": "H" 
			},
			{
				"x": 1.4345175732,
				"y": -0.4908994024,
				"z": -2.4438931804,
				"element": "H" 
			},
			{
				"x": 2.8511385997,
				"y": -0.1609434439,
				"z": 0.8238488722,
				"element": "H" 
			},
			{
				"x": 3.0352897197,
				"y": 0.3402384746,
				"z": -0.8701791962,
				"element": "H" 
			},
			{
				"x": 2.2871884736,
				"y": 1.4220370759,
				"z": 0.3097880449,
				"element": "H" 
			},
			{
				"x": -2.7536120687,
				"y": -3.0848312732,
				"z": -1.4784288241,
				"element": "H" 
			},
			{
				"x": -3.4668650008,
				"y": -1.4833132116,
				"z": -1.8024188182,
				"element": "H" 
			}
		],
		 "valence_orbital": [ 
			{
				"type": "occ",
				"energy": -0.33351,
				"method": "rhf"
			},
			{
				"type": "occ",
				"energy": -0.28172,
				"method": "rhf"
			},
			{
				"type": "occ",
				"energy": -0.24981,
				"method": "rhf"
			},
			{
				"type": "occ",
				"energy": -0.24159,
				"method": "rhf"
			},
			{
				"type": "occ",
				"energy": -0.24025,
				"method": "rhf"
			},
			{
				"type": "unocc",
				"energy": -0.05043,
				"method": "rhf"
			},
			{
				"type": "unocc",
				"energy": -0.00844,
				"method": "rhf"
			},
			{
				"type": "unocc",
				"energy": 0.04726,
				"method": "rhf"
			},
			{
				"type": "unocc",
				"energy": 0.0748,
				"method": "rhf"
			},
			{
				"type": "unocc",
				"energy": 0.10491,
				"method": "rhf"
			}
		],
		"cosmo_sigma_profile": { 
			"-0.025": 0.0,
			"-0.024": 0.0,
			"-0.023": 0.0,
			"-0.022": 0.0,
			"-0.021": 0.0,
			"-0.02": 0.0,
			"-0.019": 0.0,
			"-0.018": 0.0,
			"-0.017": 0.0,
			"-0.016": 0.0,
			"-0.015": 0.0,
			"-0.014": 0.0,
			"-0.013": 0.0,
			"-0.012": 0.0,
			"-0.011": 0.0,
			"-0.01": 0.0,
			"-0.009": 0.0,
			"-0.008": 0.0,
			"-0.007": 0.714332427598,
			"-0.006": 5.63344308807,
			"-0.005": 17.3982666114,
			"-0.004": 23.4963807468,
			"-0.003": 27.4473059601,
			"-0.002": 25.342121155,
			"-0.001": 24.7360376484,
			"0.0": 23.2773680343,
			"0.001": 15.1974521869,
			"0.002": 12.2599807768,
			"0.003": 12.9506576104,
			"0.004": 6.52816534102,
			"0.005": 3.16256042748,
			"0.006": 2.80321934854,
			"0.007": 2.63377584601,
			"0.008": 2.99853524444,
			"0.009": 2.47345842485,
			"0.01": 3.86540661226,
			"0.011": 5.59104330192,
			"0.012": 4.82612671502,
			"0.013": 1.30899238759,
			"0.014": 0.0,
			"0.015": 0.0,
			"0.016": 0.0,
			"0.017": 0.0,
			"0.018": 0.0,
			"0.019": 0.0,
			"0.02": 0.0,
			"0.021": 0.0,
			"0.022": 0.0,
			"0.023": 0.0,
			"0.024": 0.0,
			"0.025": 0.0
		}
	}
}
