{
	 "smiles": "OS(=O)(=O)C1=CC=CC2=CC=CC(Cl)=C12", 
	 "Tm": 419.15, 
	 "num_atms": 22, 
	 "gaussian": { 
		 "optdone": 1, 
		 "sigma_profile": "yes", 
		 "theory": "DFT", 
		 "functional": "B3LYP", 
		 "basiset": "6-31G**", 
		 "properties": { 
			 "R2extent": 4342.4899, 
			 "electric_dipole_moment_norm": 6.85322915566, 
			 "electric_quadrupole_moment_norm": 20.9583602045, 
			 "total_energy": -1469.25562848, 
			 "HOMO_LUMO_gap": 0.16596, 
			 "cosmo_polarized_energy": -14.89, 
			 "cosmo_cavitation_energy": 28.18, 
			 "cosmo_dispersion_energy": -22.15, 
			 "cosmo_repulsion_energy": 1.62, 
			 "cosmo_total_nonelectrostatic_energy": 7.65, 
			 "SMD_solvation_energy": 3.3 
		},
		"coords": [
			{
				"x": 2.6476536091,
				"y": -1.2788284224,
				"z": -2.748773237,
				"element": "O" 
			},
			{
				"x": 2.5543020084,
				"y": -2.1257678687,
				"z": -1.3591638494,
				"element": "S" 
			},
			{
				"x": 1.516803264,
				"y": -3.1456268786,
				"z": -1.4571374768,
				"element": "O" 
			},
			{
				"x": 3.9348595631,
				"y": -2.4948990735,
				"z": -1.0826574419,
				"element": "O" 
			},
			{
				"x": 2.0515861051,
				"y": -0.8861574242,
				"z": -0.1248169084,
				"element": "C" 
			},
			{
				"x": 3.0545076908,
				"y": -0.6734611416,
				"z": 0.8021645162,
				"element": "C" 
			},
			{
				"x": 2.8624476743,
				"y": 0.1339408966,
				"z": 1.9398732014,
				"element": "C" 
			},
			{
				"x": 1.6346160848,
				"y": 0.6982238956,
				"z": 2.1521975641,
				"element": "C" 
			},
			{
				"x": 0.5693457735,
				"y": 0.5206473147,
				"z": 1.2284756977,
				"element": "C" 
			},
			{
				"x": -0.6704017378,
				"y": 1.1414013169,
				"z": 1.5267070607,
				"element": "C" 
			},
			{
				"x": -1.7384612867,
				"y": 1.037924645,
				"z": 0.6735430172,
				"element": "C" 
			},
			{
				"x": -1.5794204075,
				"y": 0.3309057053,
				"z": -0.5302097359,
				"element": "C" 
			},
			{
				"x": -0.384150545,
				"y": -0.2826363531,
				"z": -0.851486533,
				"element": "C" 
			},
			{
				"x": -0.4127380537,
				"y": -1.0284413088,
				"z": -2.4555594807,
				"element": "Cl" 
			},
			{
				"x": 0.7545676211,
				"y": -0.2639494875,
				"z": 0.0214054518,
				"element": "C" 
			},
			{
				"x": 1.7402231507,
				"y": -1.1626432869,
				"z": -3.0883877087,
				"element": "H" 
			},
			{
				"x": 4.0062143382,
				"y": -1.1662947615,
				"z": 0.6478395137,
				"element": "H" 
			},
			{
				"x": 3.6770837915,
				"y": 0.2785093719,
				"z": 2.6416334033,
				"element": "H" 
			},
			{
				"x": 1.4453433425,
				"y": 1.3007751535,
				"z": 3.0359264993,
				"element": "H" 
			},
			{
				"x": -0.7504817369,
				"y": 1.7056244753,
				"z": 2.450943589,
				"element": "H" 
			},
			{
				"x": -2.689683945,
				"y": 1.5073707023,
				"z": 0.9014422125,
				"element": "H" 
			},
			{
				"x": -2.4002163048,
				"y": 0.2713825296,
				"z": -1.2355593552,
				"element": "H" 
			}
		],
		 "valence_orbital": [ 
			{
				"type": "occ",
				"energy": -0.31675,
				"method": "rhf"
			},
			{
				"type": "occ",
				"energy": -0.30265,
				"method": "rhf"
			},
			{
				"type": "occ",
				"energy": -0.29856,
				"method": "rhf"
			},
			{
				"type": "occ",
				"energy": -0.27746,
				"method": "rhf"
			},
			{
				"type": "occ",
				"energy": -0.24491,
				"method": "rhf"
			},
			{
				"type": "unocc",
				"energy": -0.07895,
				"method": "rhf"
			},
			{
				"type": "unocc",
				"energy": -0.04436,
				"method": "rhf"
			},
			{
				"type": "unocc",
				"energy": -0.01146,
				"method": "rhf"
			},
			{
				"type": "unocc",
				"energy": 0.00183,
				"method": "rhf"
			},
			{
				"type": "unocc",
				"energy": 0.04771,
				"method": "rhf"
			}
		],
		"cosmo_sigma_profile": { 
			"-0.025": 0.0,
			"-0.024": 0.0,
			"-0.023": 0.0,
			"-0.022": 0.0,
			"-0.021": 0.0,
			"-0.02": 0.0,
			"-0.019": 0.0,
			"-0.018": 0.0,
			"-0.017": 0.0,
			"-0.016": 0.0,
			"-0.015": 0.248745507975,
			"-0.014": 0.771383412094,
			"-0.013": 0.662533592755,
			"-0.012": 0.898325771443,
			"-0.011": 0.921312656443,
			"-0.01": 0.408595077085,
			"-0.009": 1.98820944692,
			"-0.008": 7.74672890452,
			"-0.007": 14.8064340795,
			"-0.006": 13.2591447727,
			"-0.005": 11.6347246152,
			"-0.004": 9.36666343863,
			"-0.003": 10.315198475,
			"-0.002": 11.3477474917,
			"-0.001": 14.6497128804,
			"0.0": 24.8776664819,
			"0.001": 28.380504451,
			"0.002": 19.9848430367,
			"0.003": 9.59409394564,
			"0.004": 4.42637139096,
			"0.005": 4.1598866858,
			"0.006": 4.90251914669,
			"0.007": 4.47326914564,
			"0.008": 6.03748638833,
			"0.009": 9.19923002719,
			"0.01": 10.834286797,
			"0.011": 3.45334273886,
			"0.012": 0.0,
			"0.013": 0.0,
			"0.014": 0.0,
			"0.015": 0.0,
			"0.016": 0.0,
			"0.017": 0.0,
			"0.018": 0.0,
			"0.019": 0.0,
			"0.02": 0.0,
			"0.021": 0.0,
			"0.022": 0.0,
			"0.023": 0.0,
			"0.024": 0.0,
			"0.025": 0.0
		}
	}
}
