{
	 "smiles": "NC1=CC=C(SC2=CC=C(N)C=C2)C=C1", 
	 "Tm": 381.15, 
	 "num_atms": 27, 
	 "gaussian": { 
		 "optdone": 1, 
		 "sigma_profile": "yes", 
		 "theory": "DFT", 
		 "functional": "B3LYP", 
		 "basiset": "6-31G**", 
		 "properties": { 
			 "R2extent": 6004.6043, 
			 "electric_dipole_moment_norm": 4.84189543464, 
			 "electric_quadrupole_moment_norm": 19.1394426374, 
			 "total_energy": -972.203123239, 
			 "HOMO_LUMO_gap": 0.18032, 
			 "cosmo_polarized_energy": -16.49, 
			 "cosmo_cavitation_energy": 32.88, 
			 "cosmo_dispersion_energy": -23.97, 
			 "cosmo_repulsion_energy": 1.86, 
			 "cosmo_total_nonelectrostatic_energy": 10.77, 
			 "SMD_solvation_energy": 4.94 
		},
		"coords": [
			{
				"x": -3.9060060203,
				"y": -1.7533255482,
				"z": -2.9135505002,
				"element": "N" 
			},
			{
				"x": -3.4744192938,
				"y": -1.3636849827,
				"z": -1.6447294784,
				"element": "C" 
			},
			{
				"x": -2.1134860241,
				"y": -1.4408653992,
				"z": -1.2940218358,
				"element": "C" 
			},
			{
				"x": -1.690298176,
				"y": -1.1178134501,
				"z": -0.010205417,
				"element": "C" 
			},
			{
				"x": -2.6055514349,
				"y": -0.6812634975,
				"z": 0.9583534689,
				"element": "C" 
			},
			{
				"x": -2.1082083461,
				"y": -0.3177866265,
				"z": 2.6437886224,
				"element": "S" 
			},
			{
				"x": -0.813598343,
				"y": 0.9060969669,
				"z": 2.4291680346,
				"element": "C" 
			},
			{
				"x": -1.0286954283,
				"y": 2.1022016156,
				"z": 1.7295396912,
				"element": "C" 
			},
			{
				"x": -0.0221199535,
				"y": 3.0546006385,
				"z": 1.623023773,
				"element": "C" 
			},
			{
				"x": 1.2279913448,
				"y": 2.8533562569,
				"z": 2.2377334192,
				"element": "C" 
			},
			{
				"x": 2.2135849262,
				"y": 3.8402300625,
				"z": 2.1868103527,
				"element": "N" 
			},
			{
				"x": 1.4363346438,
				"y": 1.6609263699,
				"z": 2.9496277845,
				"element": "C" 
			},
			{
				"x": 0.4319667412,
				"y": 0.699166364,
				"z": 3.0340752317,
				"element": "C" 
			},
			{
				"x": -3.9587402426,
				"y": -0.594769637,
				"z": 0.6097345626,
				"element": "C" 
			},
			{
				"x": -4.3910118344,
				"y": -0.9396074141,
				"z": -0.6689840031,
				"element": "C" 
			},
			{
				"x": -3.2093332492,
				"y": -1.6939656777,
				"z": -3.6432231833,
				"element": "H" 
			},
			{
				"x": -4.7922700331,
				"y": -1.36507922,
				"z": -3.2053818603,
				"element": "H" 
			},
			{
				"x": -1.3889658065,
				"y": -1.7747183058,
				"z": -2.0332540563,
				"element": "H" 
			},
			{
				"x": -0.6372818445,
				"y": -1.1943059903,
				"z": 0.2426885183,
				"element": "H" 
			},
			{
				"x": -1.9893634973,
				"y": 2.281747501,
				"z": 1.2567464642,
				"element": "H" 
			},
			{
				"x": -0.2058501856,
				"y": 3.9751620868,
				"z": 1.0737910664,
				"element": "H" 
			},
			{
				"x": 2.1520612903,
				"y": 4.4711258428,
				"z": 1.3997413855,
				"element": "H" 
			},
			{
				"x": 3.158367896,
				"y": 3.5139750969,
				"z": 2.3361601999,
				"element": "H" 
			},
			{
				"x": 2.3950051394,
				"y": 1.4838877742,
				"z": 3.4314748854,
				"element": "H" 
			},
			{
				"x": 0.6177853025,
				"y": -0.2252096839,
				"z": 3.5727198814,
				"element": "H" 
			},
			{
				"x": -4.679502919,
				"y": -0.2505982669,
				"z": 1.3453933778,
				"element": "H" 
			},
			{
				"x": -5.4472946522,
				"y": -0.8712828761,
				"z": -0.918320385,
				"element": "H" 
			}
		],
		 "valence_orbital": [ 
			{
				"type": "occ",
				"energy": -0.24707,
				"method": "rhf"
			},
			{
				"type": "occ",
				"energy": -0.245,
				"method": "rhf"
			},
			{
				"type": "occ",
				"energy": -0.23826,
				"method": "rhf"
			},
			{
				"type": "occ",
				"energy": -0.2058,
				"method": "rhf"
			},
			{
				"type": "occ",
				"energy": -0.18131,
				"method": "rhf"
			},
			{
				"type": "unocc",
				"energy": -0.00099,
				"method": "rhf"
			},
			{
				"type": "unocc",
				"energy": 0.00264,
				"method": "rhf"
			},
			{
				"type": "unocc",
				"energy": 0.00624,
				"method": "rhf"
			},
			{
				"type": "unocc",
				"energy": 0.01493,
				"method": "rhf"
			},
			{
				"type": "unocc",
				"energy": 0.07363,
				"method": "rhf"
			}
		],
		"cosmo_sigma_profile": { 
			"-0.025": 0.0,
			"-0.024": 0.0,
			"-0.023": 0.0,
			"-0.022": 0.0,
			"-0.021": 0.0,
			"-0.02": 0.0,
			"-0.019": 0.0,
			"-0.018": 0.0,
			"-0.017": 0.0,
			"-0.016": 0.0,
			"-0.015": 0.0,
			"-0.014": 0.0,
			"-0.013": 0.768809655129,
			"-0.012": 5.54856475696,
			"-0.011": 5.20365782836,
			"-0.01": 6.54715591081,
			"-0.009": 6.56056250268,
			"-0.008": 5.89009090823,
			"-0.007": 5.99196860482,
			"-0.006": 10.6995119701,
			"-0.005": 15.6550556565,
			"-0.004": 15.2166460958,
			"-0.003": 15.4273538335,
			"-0.002": 10.243492978,
			"-0.001": 13.0253241346,
			"0.0": 11.9643410244,
			"0.001": 15.4283729752,
			"0.002": 15.5771505913,
			"0.003": 15.4955508501,
			"0.004": 19.2144163778,
			"0.005": 25.0305874164,
			"0.006": 23.0937944368,
			"0.007": 5.47534248531,
			"0.008": 4.18474582737,
			"0.009": 3.70720136899,
			"0.01": 1.81237238582,
			"0.011": 1.88456417479,
			"0.012": 0.966999326749,
			"0.013": 1.35212671237,
			"0.014": 1.15308221108,
			"0.015": 0.11890239689,
			"0.016": 0.0,
			"0.017": 0.0,
			"0.018": 0.0,
			"0.019": 0.0,
			"0.02": 0.0,
			"0.021": 0.0,
			"0.022": 0.0,
			"0.023": 0.0,
			"0.024": 0.0,
			"0.025": 0.0
		}
	}
}
