{
	 "smiles": "CCOC1=CC=C(C=C1)C1=NN=C2SC(NN12)C1=CC=C(Cl)C=C1", 
	 "Tm": 382.15, 
	 "num_atms": 39, 
	 "gaussian": { 
		 "optdone": 1, 
		 "sigma_profile": "yes", 
		 "theory": "DFT", 
		 "functional": "B3LYP", 
		 "basiset": "6-31G**", 
		 "properties": { 
			 "R2extent": 13409.6828, 
			 "electric_dipole_moment_norm": 5.27423550574, 
			 "electric_quadrupole_moment_norm": 39.9664426983, 
			 "total_energy": -1809.38518932, 
			 "HOMO_LUMO_gap": 0.16137, 
			 "cosmo_polarized_energy": -23.84, 
			 "cosmo_cavitation_energy": 46.45, 
			 "cosmo_dispersion_energy": -33.38, 
			 "cosmo_repulsion_energy": 2.48, 
			 "cosmo_total_nonelectrostatic_energy": 15.56, 
			 "SMD_solvation_energy": 5.17 
		},
		"coords": [
			{
				"x": 0.4363157868,
				"y": -0.3206696379,
				"z": -5.7933301209,
				"element": "C" 
			},
			{
				"x": 1.787524535,
				"y": -0.7521154194,
				"z": -5.2333897149,
				"element": "C" 
			},
			{
				"x": 2.1236023561,
				"y": -0.0667185352,
				"z": -4.0219225834,
				"element": "O" 
			},
			{
				"x": 1.5994641913,
				"y": -0.4793912352,
				"z": -2.8349233307,
				"element": "C" 
			},
			{
				"x": 1.9701201359,
				"y": 0.28104439,
				"z": -1.7153843438,
				"element": "C" 
			},
			{
				"x": 1.5131446742,
				"y": -0.0567033759,
				"z": -0.4487538991,
				"element": "C" 
			},
			{
				"x": 0.6665501863,
				"y": -1.1650933262,
				"z": -0.262766695,
				"element": "C" 
			},
			{
				"x": 0.2993337989,
				"y": -1.9189458622,
				"z": -1.3884781824,
				"element": "C" 
			},
			{
				"x": 0.7540688644,
				"y": -1.5864936795,
				"z": -2.6604961009,
				"element": "C" 
			},
			{
				"x": 0.1456349881,
				"y": -1.5664674797,
				"z": 1.0432592157,
				"element": "C" 
			},
			{
				"x": -0.6675274374,
				"y": -2.5880209616,
				"z": 1.2607505226,
				"element": "N" 
			},
			{
				"x": -0.9793852733,
				"y": -2.6568519911,
				"z": 2.6127081464,
				"element": "N" 
			},
			{
				"x": -0.3225764444,
				"y": -1.6846694712,
				"z": 3.184099484,
				"element": "C" 
			},
			{
				"x": -0.1424335629,
				"y": -1.0278284335,
				"z": 4.8073449701,
				"element": "S" 
			},
			{
				"x": 0.5311220182,
				"y": 0.5588246368,
				"z": 3.9604319971,
				"element": "C" 
			},
			{
				"x": 1.1749593906,
				"y": 0.1118579148,
				"z": 2.7235013595,
				"element": "N" 
			},
			{
				"x": 0.3965417695,
				"y": -0.9678264046,
				"z": 2.2614091099,
				"element": "N" 
			},
			{
				"x": -0.5589830139,
				"y": 1.5867710014,
				"z": 3.7361997954,
				"element": "C" 
			},
			{
				"x": -1.2785957124,
				"y": 2.0776149389,
				"z": 4.8341256458,
				"element": "C" 
			},
			{
				"x": -2.2574656571,
				"y": 3.05304179,
				"z": 4.6723484199,
				"element": "C" 
			},
			{
				"x": -2.5259291995,
				"y": 3.5389408871,
				"z": 3.3913235282,
				"element": "C" 
			},
			{
				"x": -3.762718556,
				"y": 4.7663214201,
				"z": 3.1760812777,
				"element": "Cl" 
			},
			{
				"x": -1.8259022791,
				"y": 3.0653456729,
				"z": 2.2850137017,
				"element": "C" 
			},
			{
				"x": -0.8393487781,
				"y": 2.0939058516,
				"z": 2.4636573669,
				"element": "C" 
			},
			{
				"x": 0.2534080867,
				"y": -0.8168814157,
				"z": -6.7522846729,
				"element": "H" 
			},
			{
				"x": -0.3837574248,
				"y": -0.5741008018,
				"z": -5.1161749531,
				"element": "H" 
			},
			{
				"x": 0.4222567382,
				"y": 0.7606214051,
				"z": -5.9567207572,
				"element": "H" 
			},
			{
				"x": 1.8363331914,
				"y": -1.8375238359,
				"z": -5.0818034417,
				"element": "H" 
			},
			{
				"x": 2.5891975118,
				"y": -0.4827847064,
				"z": -5.9265820011,
				"element": "H" 
			},
			{
				"x": 2.6243324657,
				"y": 1.1335393975,
				"z": -1.8652051088,
				"element": "H" 
			},
			{
				"x": 1.8131806407,
				"y": 0.5474915114,
				"z": 0.4004894123,
				"element": "H" 
			},
			{
				"x": -0.3559140172,
				"y": -2.7720079733,
				"z": -1.2498468478,
				"element": "H" 
			},
			{
				"x": 0.4423269506,
				"y": -2.1917328914,
				"z": -3.5030610005,
				"element": "H" 
			},
			{
				"x": 1.3050189013,
				"y": 0.9503319134,
				"z": 4.62458606,
				"element": "H" 
			},
			{
				"x": 2.0997052225,
				"y": -0.260112532,
				"z": 2.9481818712,
				"element": "H" 
			},
			{
				"x": -1.0834428201,
				"y": 1.6881655453,
				"z": 5.8296322452,
				"element": "H" 
			},
			{
				"x": -2.8104207492,
				"y": 3.43004698,
				"z": 5.5252605117,
				"element": "H" 
			},
			{
				"x": -2.0453091626,
				"y": 3.4506934791,
				"z": 1.2956081941,
				"element": "H" 
			},
			{
				"x": -0.2834323163,
				"y": 1.7363812343,
				"z": 1.6050109188,
				"element": "H" 
			}
		],
		 "valence_orbital": [ 
			{
				"type": "occ",
				"energy": -0.25997,
				"method": "rhf"
			},
			{
				"type": "occ",
				"energy": -0.25708,
				"method": "rhf"
			},
			{
				"type": "occ",
				"energy": -0.25,
				"method": "rhf"
			},
			{
				"type": "occ",
				"energy": -0.24584,
				"method": "rhf"
			},
			{
				"type": "occ",
				"energy": -0.20608,
				"method": "rhf"
			},
			{
				"type": "unocc",
				"energy": -0.04471,
				"method": "rhf"
			},
			{
				"type": "unocc",
				"energy": -0.02735,
				"method": "rhf"
			},
			{
				"type": "unocc",
				"energy": -0.02301,
				"method": "rhf"
			},
			{
				"type": "unocc",
				"energy": -0.01117,
				"method": "rhf"
			},
			{
				"type": "unocc",
				"energy": -0.00341,
				"method": "rhf"
			}
		],
		"cosmo_sigma_profile": { 
			"-0.025": 0.0,
			"-0.024": 0.0,
			"-0.023": 0.0,
			"-0.022": 0.0,
			"-0.021": 0.0,
			"-0.02": 0.0,
			"-0.019": 0.0,
			"-0.018": 0.0,
			"-0.017": 0.0,
			"-0.016": 0.443737334184,
			"-0.015": 2.57041010699,
			"-0.014": 1.56875691003,
			"-0.013": 2.07646367171,
			"-0.012": 1.64887085512,
			"-0.011": 2.22688052431,
			"-0.01": 4.5952973242,
			"-0.009": 3.34748701074,
			"-0.008": 4.94115223652,
			"-0.007": 9.34252782848,
			"-0.006": 13.6424901558,
			"-0.005": 19.5076764405,
			"-0.004": 27.2948547361,
			"-0.003": 26.485706593,
			"-0.002": 26.2791967194,
			"-0.001": 24.5644310081,
			"0.0": 27.9636502857,
			"0.001": 30.432891871,
			"0.002": 30.5025901692,
			"0.003": 35.8043255008,
			"0.004": 31.8312509274,
			"0.005": 14.9218133118,
			"0.006": 5.49652286321,
			"0.007": 3.25759059668,
			"0.008": 2.30729115904,
			"0.009": 3.30419045847,
			"0.01": 3.80260786937,
			"0.011": 3.13548179076,
			"0.012": 2.10638546413,
			"0.013": 3.29639689059,
			"0.014": 3.28028236525,
			"0.015": 3.01047585043,
			"0.016": 1.33166585291,
			"0.017": 0.238559118024,
			"0.018": 0.0,
			"0.019": 0.0,
			"0.02": 0.0,
			"0.021": 0.0,
			"0.022": 0.0,
			"0.023": 0.0,
			"0.024": 0.0,
			"0.025": 0.0
		}
	}
}
