{
	 "smiles": "OC(=O)CN1N=NC(=N1)C1=CC=CO1", 
	 "Tm": 490.15, 
	 "num_atms": 20, 
	 "gaussian": { 
		 "optdone": 1, 
		 "sigma_profile": "yes", 
		 "theory": "DFT", 
		 "functional": "B3LYP", 
		 "basiset": "6-31G**", 
		 "properties": { 
			 "R2extent": 3462.5331, 
			 "electric_dipole_moment_norm": 1.41563621386, 
			 "electric_quadrupole_moment_norm": 13.8839403596, 
			 "total_energy": -714.967599273, 
			 "HOMO_LUMO_gap": 0.18511, 
			 "cosmo_polarized_energy": -16.36, 
			 "cosmo_cavitation_energy": 27.04, 
			 "cosmo_dispersion_energy": -19.55, 
			 "cosmo_repulsion_energy": 1.55, 
			 "cosmo_total_nonelectrostatic_energy": 9.04, 
			 "SMD_solvation_energy": 4.55 
		},
		"coords": [
			{
				"x": -1.0944274595,
				"y": -1.6804495091,
				"z": 1.8239634325,
				"element": "O" 
			},
			{
				"x": -1.5954798351,
				"y": -0.6149730209,
				"z": 2.4690066802,
				"element": "C" 
			},
			{
				"x": -2.5606549352,
				"y": -0.639790486,
				"z": 3.1946638118,
				"element": "O" 
			},
			{
				"x": -0.7896090331,
				"y": 0.6600860747,
				"z": 2.2316595429,
				"element": "C" 
			},
			{
				"x": 0.1208774609,
				"y": 0.6111280818,
				"z": 1.1098393786,
				"element": "N" 
			},
			{
				"x": 1.4316222222,
				"y": 0.4127047415,
				"z": 1.2547259439,
				"element": "N" 
			},
			{
				"x": 1.926962028,
				"y": 0.3716163581,
				"z": 0.0486183627,
				"element": "N" 
			},
			{
				"x": 0.8742417921,
				"y": 0.5436198994,
				"z": -0.8059776784,
				"element": "C" 
			},
			{
				"x": -0.2819975881,
				"y": 0.6963057082,
				"z": -0.1576510653,
				"element": "N" 
			},
			{
				"x": 1.0348874164,
				"y": 0.5598695149,
				"z": -2.2417905873,
				"element": "C" 
			},
			{
				"x": 2.1425690925,
				"y": 0.4226433658,
				"z": -3.0347368472,
				"element": "C" 
			},
			{
				"x": 1.681111525,
				"y": 0.5246275428,
				"z": -4.382854396,
				"element": "C" 
			},
			{
				"x": 0.3328009501,
				"y": 0.7157522935,
				"z": -4.3087071116,
				"element": "C" 
			},
			{
				"x": -0.0787453907,
				"y": 0.7399129089,
				"z": -3.0123764275,
				"element": "O" 
			},
			{
				"x": -1.6633551206,
				"y": -2.4365179865,
				"z": 2.0479215837,
				"element": "H" 
			},
			{
				"x": -1.4938672493,
				"y": 1.4816844248,
				"z": 2.0923796575,
				"element": "H" 
			},
			{
				"x": -0.1911653089,
				"y": 0.8571450957,
				"z": 3.1244605617,
				"element": "H" 
			},
			{
				"x": 3.1527881326,
				"y": 0.268892768,
				"z": -2.685991466,
				"element": "H" 
			},
			{
				"x": 2.2739638834,
				"y": 0.4639522425,
				"z": -5.2838402618,
				"element": "H" 
			},
			{
				"x": -0.4421225826,
				"y": 0.8466899819,
				"z": -5.0478131145,
				"element": "H" 
			}
		],
		 "valence_orbital": [ 
			{
				"type": "occ",
				"energy": -0.31985,
				"method": "rhf"
			},
			{
				"type": "occ",
				"energy": -0.29857,
				"method": "rhf"
			},
			{
				"type": "occ",
				"energy": -0.293,
				"method": "rhf"
			},
			{
				"type": "occ",
				"energy": -0.28546,
				"method": "rhf"
			},
			{
				"type": "occ",
				"energy": -0.22454,
				"method": "rhf"
			},
			{
				"type": "unocc",
				"energy": -0.03943,
				"method": "rhf"
			},
			{
				"type": "unocc",
				"energy": -0.02196,
				"method": "rhf"
			},
			{
				"type": "unocc",
				"energy": -0.01188,
				"method": "rhf"
			},
			{
				"type": "unocc",
				"energy": 0.04578,
				"method": "rhf"
			},
			{
				"type": "unocc",
				"energy": 0.05902,
				"method": "rhf"
			}
		],
		"cosmo_sigma_profile": { 
			"-0.025": 0.0,
			"-0.024": 0.0,
			"-0.023": 0.0,
			"-0.022": 0.0,
			"-0.021": 0.0,
			"-0.02": 0.107398040228,
			"-0.019": 0.925787183619,
			"-0.018": 0.833826835723,
			"-0.017": 1.26172314689,
			"-0.016": 0.752470560122,
			"-0.015": 0.969942473549,
			"-0.014": 0.439439923503,
			"-0.013": 0.253655737214,
			"-0.012": 1.08014886007,
			"-0.011": 2.92952259857,
			"-0.01": 4.96172560875,
			"-0.009": 6.92758635609,
			"-0.008": 7.49630580383,
			"-0.007": 10.1729162465,
			"-0.006": 8.72616549701,
			"-0.005": 9.9851875315,
			"-0.004": 9.28202823012,
			"-0.003": 8.39262351997,
			"-0.002": 9.25283179243,
			"-0.001": 11.7182541452,
			"0.0": 11.8828464111,
			"0.001": 14.7205969969,
			"0.002": 16.1537688472,
			"0.003": 14.4389784257,
			"0.004": 10.1270142258,
			"0.005": 7.81321982744,
			"0.006": 8.74442873574,
			"0.007": 5.82896516762,
			"0.008": 7.62436861416,
			"0.009": 7.17072120678,
			"0.01": 6.65005636413,
			"0.011": 7.36312852015,
			"0.012": 1.89777959565,
			"0.013": 0.966122974839,
			"0.014": 0.0752131457478,
			"0.015": 0.0,
			"0.016": 0.0,
			"0.017": 0.0,
			"0.018": 0.0,
			"0.019": 0.0,
			"0.02": 0.0,
			"0.021": 0.0,
			"0.022": 0.0,
			"0.023": 0.0,
			"0.024": 0.0,
			"0.025": 0.0
		}
	}
}
