{
	 "smiles": "CS(=O)(=O)NCCBr", 
	 "Tm": 318.15, 
	 "num_atms": 16, 
	 "gaussian": { 
		 "optdone": 1, 
		 "sigma_profile": "yes", 
		 "theory": "DFT", 
		 "functional": "B3LYP", 
		 "basiset": "6-31G**", 
		 "properties": { 
			 "R2extent": 2808.9335, 
			 "electric_dipole_moment_norm": 4.19149279732, 
			 "electric_quadrupole_moment_norm": 4.71715012587, 
			 "total_energy": -3293.87111933, 
			 "HOMO_LUMO_gap": 0.26917, 
			 "cosmo_polarized_energy": -14.19, 
			 "cosmo_cavitation_energy": 22.77, 
			 "cosmo_dispersion_energy": -17.51, 
			 "cosmo_repulsion_energy": 1.41, 
			 "cosmo_total_nonelectrostatic_energy": 6.67, 
			 "SMD_solvation_energy": 1.82 
		},
		"coords": [
			{
				"x": -2.0718599548,
				"y": -0.1330302214,
				"z": -0.662124305,
				"element": "C" 
			},
			{
				"x": -0.273166286,
				"y": -0.1787817932,
				"z": -0.647182402,
				"element": "S" 
			},
			{
				"x": 0.2009728552,
				"y": 1.0769418591,
				"z": -1.2435260694,
				"element": "O" 
			},
			{
				"x": 0.1559913143,
				"y": -1.4829684195,
				"z": -1.1562116111,
				"element": "O" 
			},
			{
				"x": 0.068683727,
				"y": -0.1736921866,
				"z": 1.0123745499,
				"element": "N" 
			},
			{
				"x": 0.5975801022,
				"y": 1.052208216,
				"z": 1.6169679707,
				"element": "C" 
			},
			{
				"x": 2.0760814634,
				"y": 1.3239227497,
				"z": 1.3622767292,
				"element": "C" 
			},
			{
				"x": 3.2055993816,
				"y": -0.1202471709,
				"z": 2.1191138306,
				"element": "Br" 
			},
			{
				"x": -2.4471061648,
				"y": -1.0207354194,
				"z": -0.1531324623,
				"element": "H" 
			},
			{
				"x": -2.4082811982,
				"y": 0.7759400095,
				"z": -0.1619440856,
				"element": "H" 
			},
			{
				"x": -2.3820248931,
				"y": -0.1267920891,
				"z": -1.7086042675,
				"element": "H" 
			},
			{
				"x": 0.6325420017,
				"y": -0.9960880293,
				"z": 1.2228133919,
				"element": "H" 
			},
			{
				"x": 0.4047562321,
				"y": 0.9950535604,
				"z": 2.6927160622,
				"element": "H" 
			},
			{
				"x": 0.0301770456,
				"y": 1.9016400194,
				"z": 1.223042084,
				"element": "H" 
			},
			{
				"x": 2.3032693019,
				"y": 1.3608023374,
				"z": 0.2986775313,
				"element": "H" 
			},
			{
				"x": 2.4021850719,
				"y": 2.2403265779,
				"z": 1.8542430532,
				"element": "H" 
			}
		],
		 "valence_orbital": [ 
			{
				"type": "occ",
				"energy": -0.31441,
				"method": "rhf"
			},
			{
				"type": "occ",
				"energy": -0.306,
				"method": "rhf"
			},
			{
				"type": "occ",
				"energy": -0.29096,
				"method": "rhf"
			},
			{
				"type": "occ",
				"energy": -0.28373,
				"method": "rhf"
			},
			{
				"type": "occ",
				"energy": -0.27649,
				"method": "rhf"
			},
			{
				"type": "unocc",
				"energy": -0.00732,
				"method": "rhf"
			},
			{
				"type": "unocc",
				"energy": 0.0592,
				"method": "rhf"
			},
			{
				"type": "unocc",
				"energy": 0.06807,
				"method": "rhf"
			},
			{
				"type": "unocc",
				"energy": 0.08345,
				"method": "rhf"
			},
			{
				"type": "unocc",
				"energy": 0.0951,
				"method": "rhf"
			}
		],
		"cosmo_sigma_profile": { 
			"-0.025": 0.0,
			"-0.024": 0.0,
			"-0.023": 0.0,
			"-0.022": 0.0,
			"-0.021": 0.0,
			"-0.02": 0.0,
			"-0.019": 0.0,
			"-0.018": 0.0,
			"-0.017": 0.0,
			"-0.016": 0.0,
			"-0.015": 0.0,
			"-0.014": 0.0,
			"-0.013": 0.0,
			"-0.012": 0.216315931659,
			"-0.011": 0.481478872204,
			"-0.01": 0.628292037565,
			"-0.009": 3.8443434426,
			"-0.008": 8.90858578747,
			"-0.007": 11.9295063794,
			"-0.006": 15.2980680386,
			"-0.005": 15.9591370964,
			"-0.004": 14.3594263385,
			"-0.003": 11.2270342708,
			"-0.002": 7.34048033824,
			"-0.001": 7.81759680224,
			"0.0": 6.97477683532,
			"0.001": 6.90885331509,
			"0.002": 5.72173027468,
			"0.003": 7.76710240462,
			"0.004": 8.44737478912,
			"0.005": 8.63470280826,
			"0.006": 9.09030372514,
			"0.007": 3.78544412005,
			"0.008": 2.89899075854,
			"0.009": 3.28154320767,
			"0.01": 6.20301255972,
			"0.011": 10.2020510344,
			"0.012": 4.77501093581,
			"0.013": 0.00026706986137,
			"0.014": 0.0,
			"0.015": 0.0,
			"0.016": 0.0,
			"0.017": 0.0,
			"0.018": 0.0,
			"0.019": 0.0,
			"0.02": 0.0,
			"0.021": 0.0,
			"0.022": 0.0,
			"0.023": 0.0,
			"0.024": 0.0,
			"0.025": 0.0
		}
	}
}
