{
	 "smiles": "OC(=O)C1=C(N=CC=C1)C(F)(F)F", 
	 "Tm": 459.15, 
	 "num_atms": 17, 
	 "gaussian": { 
		 "optdone": 1, 
		 "sigma_profile": "yes", 
		 "theory": "DFT", 
		 "functional": "B3LYP", 
		 "basiset": "6-31G**", 
		 "properties": { 
			 "R2extent": 2844.6143, 
			 "electric_dipole_moment_norm": 6.27858484533, 
			 "electric_quadrupole_moment_norm": 12.6617872605, 
			 "total_energy": -773.868116278, 
			 "HOMO_LUMO_gap": 0.21179, 
			 "cosmo_polarized_energy": -17.43, 
			 "cosmo_cavitation_energy": 23.57, 
			 "cosmo_dispersion_energy": -16.78, 
			 "cosmo_repulsion_energy": 1.28, 
			 "cosmo_total_nonelectrostatic_energy": 8.07, 
			 "SMD_solvation_energy": 5.11 
		},
		"coords": [
			{
				"x": -1.3378113695,
				"y": 2.4871947482,
				"z": 0.123890826,
				"element": "O" 
			},
			{
				"x": -1.9834595888,
				"y": 1.2931462337,
				"z": 0.0617781222,
				"element": "C" 
			},
			{
				"x": -3.1777798421,
				"y": 1.2396794913,
				"z": -0.068441417,
				"element": "O" 
			},
			{
				"x": -1.1046960647,
				"y": 0.0824060432,
				"z": 0.2518177389,
				"element": "C" 
			},
			{
				"x": -1.1410943887,
				"y": -1.0418253765,
				"z": -0.5943400684,
				"element": "C" 
			},
			{
				"x": -0.4389956281,
				"y": -2.1499008332,
				"z": -0.3672737667,
				"element": "N" 
			},
			{
				"x": 0.338671351,
				"y": -2.2008448976,
				"z": 0.719501545,
				"element": "C" 
			},
			{
				"x": 0.4703273275,
				"y": -1.1390108554,
				"z": 1.6127882223,
				"element": "C" 
			},
			{
				"x": -0.2613844506,
				"y": 0.0197447806,
				"z": 1.367792618,
				"element": "C" 
			},
			{
				"x": -1.9864782862,
				"y": -1.0590702844,
				"z": -1.8656545326,
				"element": "C" 
			},
			{
				"x": -1.5422025115,
				"y": -1.9767043518,
				"z": -2.7338771206,
				"element": "F" 
			},
			{
				"x": -3.2730197819,
				"y": -1.3323245795,
				"z": -1.5932054187,
				"element": "F" 
			},
			{
				"x": -1.9363247295,
				"y": 0.1442388477,
				"z": -2.4838375392,
				"element": "F" 
			},
			{
				"x": -0.3798883525,
				"y": 2.3508751487,
				"z": 0.094827528,
				"element": "H" 
			},
			{
				"x": 0.8810401002,
				"y": -3.1306112109,
				"z": 0.8756057875,
				"element": "H" 
			},
			{
				"x": 1.1210162414,
				"y": -1.2199632586,
				"z": 2.4771391519,
				"element": "H" 
			},
			{
				"x": -0.204120026,
				"y": 0.8630703547,
				"z": 2.0505883232,
				"element": "H" 
			}
		],
		 "valence_orbital": [ 
			{
				"type": "occ",
				"energy": -0.3354,
				"method": "rhf"
			},
			{
				"type": "occ",
				"energy": -0.32217,
				"method": "rhf"
			},
			{
				"type": "occ",
				"energy": -0.30484,
				"method": "rhf"
			},
			{
				"type": "occ",
				"energy": -0.29252,
				"method": "rhf"
			},
			{
				"type": "occ",
				"energy": -0.28001,
				"method": "rhf"
			},
			{
				"type": "unocc",
				"energy": -0.06822,
				"method": "rhf"
			},
			{
				"type": "unocc",
				"energy": -0.06362,
				"method": "rhf"
			},
			{
				"type": "unocc",
				"energy": 0.0082,
				"method": "rhf"
			},
			{
				"type": "unocc",
				"energy": 0.05582,
				"method": "rhf"
			},
			{
				"type": "unocc",
				"energy": 0.07963,
				"method": "rhf"
			}
		],
		"cosmo_sigma_profile": { 
			"-0.025": 0.0,
			"-0.024": 0.0,
			"-0.023": 0.0,
			"-0.022": 0.0,
			"-0.021": 0.0,
			"-0.02": 0.155817674643,
			"-0.019": 0.946777058491,
			"-0.018": 0.691801794822,
			"-0.017": 0.686736715111,
			"-0.016": 0.983387125432,
			"-0.015": 0.842623790031,
			"-0.014": 0.882381392358,
			"-0.013": 1.47562125149,
			"-0.012": 0.931810888186,
			"-0.011": 1.38544743246,
			"-0.01": 1.63991154793,
			"-0.009": 4.80181965034,
			"-0.008": 9.24832730742,
			"-0.007": 7.74139342278,
			"-0.006": 6.07929906437,
			"-0.005": 5.78576385485,
			"-0.004": 6.93684847007,
			"-0.003": 7.64716291626,
			"-0.002": 9.26562169457,
			"-0.001": 13.7216000848,
			"0.0": 13.4552652098,
			"0.001": 9.97064249408,
			"0.002": 22.7390736861,
			"0.003": 15.5786057811,
			"0.004": 6.27441573214,
			"0.005": 4.14423308692,
			"0.006": 5.20528727534,
			"0.007": 5.04813194213,
			"0.008": 4.50194325345,
			"0.009": 6.55330544725,
			"0.01": 6.68448749684,
			"0.011": 4.96737955317,
			"0.012": 1.93323141287,
			"0.013": 0.842957410217,
			"0.014": 0.0193760103008,
			"0.015": 0.0,
			"0.016": 0.0,
			"0.017": 0.0,
			"0.018": 0.0,
			"0.019": 0.0,
			"0.02": 0.0,
			"0.021": 0.0,
			"0.022": 0.0,
			"0.023": 0.0,
			"0.024": 0.0,
			"0.025": 0.0
		}
	}
}
