{
	 "smiles": "COC(=O)C1=CSC(Br)=C1", 
	 "Tm": 311.15, 
	 "num_atms": 15, 
	 "gaussian": { 
		 "optdone": 1, 
		 "sigma_profile": "yes", 
		 "theory": "DFT", 
		 "functional": "B3LYP", 
		 "basiset": "6-31G**", 
		 "properties": { 
			 "R2extent": 4270.9001, 
			 "electric_dipole_moment_norm": 1.21748344547, 
			 "electric_quadrupole_moment_norm": 7.92034092132, 
			 "total_energy": -3351.67703806, 
			 "HOMO_LUMO_gap": 0.19154, 
			 "cosmo_polarized_energy": -6.57, 
			 "cosmo_cavitation_energy": 24.08, 
			 "cosmo_dispersion_energy": -18.67, 
			 "cosmo_repulsion_energy": 1.48, 
			 "cosmo_total_nonelectrostatic_energy": 6.89, 
			 "SMD_solvation_energy": 4.61 
		},
		"coords": [
			{
				"x": -1.6829297142,
				"y": -1.1378448426,
				"z": 2.4996664795,
				"element": "C" 
			},
			{
				"x": -0.6374647888,
				"y": -0.7799054691,
				"z": 1.5813955206,
				"element": "O" 
			},
			{
				"x": -0.2961364688,
				"y": -1.7432377128,
				"z": 0.6954585338,
				"element": "C" 
			},
			{
				"x": -0.8189606235,
				"y": -2.8392891313,
				"z": 0.656125792,
				"element": "O" 
			},
			{
				"x": 0.7844553339,
				"y": -1.2925262508,
				"z": -0.2117357568,
				"element": "C" 
			},
			{
				"x": 1.2776079222,
				"y": -2.1222365514,
				"z": -1.1884267353,
				"element": "C" 
			},
			{
				"x": 2.5248437976,
				"y": -1.3633642655,
				"z": -2.1062277148,
				"element": "S" 
			},
			{
				"x": 2.3777370884,
				"y": 0.0952417013,
				"z": -1.1569707531,
				"element": "C" 
			},
			{
				"x": 3.4748159671,
				"y": 1.5847197659,
				"z": -1.5186444153,
				"element": "Br" 
			},
			{
				"x": 1.4204512568,
				"y": -0.0072277152,
				"z": -0.1917162002,
				"element": "C" 
			},
			{
				"x": -1.830614614,
				"y": -0.2628997445,
				"z": 3.1323134936,
				"element": "H" 
			},
			{
				"x": -1.3876178487,
				"y": -2.0017431101,
				"z": 3.1003227323,
				"element": "H" 
			},
			{
				"x": -2.6013403348,
				"y": -1.3820599859,
				"z": 1.960025429,
				"element": "H" 
			},
			{
				"x": 0.9582287273,
				"y": -3.1335294635,
				"z": -1.3972710448,
				"element": "H" 
			},
			{
				"x": 1.1708242994,
				"y": 0.7824027756,
				"z": 0.5033846395,
				"element": "H" 
			}
		],
		 "valence_orbital": [ 
			{
				"type": "occ",
				"energy": -0.30659,
				"method": "rhf"
			},
			{
				"type": "occ",
				"energy": -0.30348,
				"method": "rhf"
			},
			{
				"type": "occ",
				"energy": -0.28,
				"method": "rhf"
			},
			{
				"type": "occ",
				"energy": -0.27304,
				"method": "rhf"
			},
			{
				"type": "occ",
				"energy": -0.24124,
				"method": "rhf"
			},
			{
				"type": "unocc",
				"energy": -0.0497,
				"method": "rhf"
			},
			{
				"type": "unocc",
				"energy": -0.01079,
				"method": "rhf"
			},
			{
				"type": "unocc",
				"energy": -0.00546,
				"method": "rhf"
			},
			{
				"type": "unocc",
				"energy": 0.0129,
				"method": "rhf"
			},
			{
				"type": "unocc",
				"energy": 0.08934,
				"method": "rhf"
			}
		],
		"cosmo_sigma_profile": { 
			"-0.025": 0.0,
			"-0.024": 0.0,
			"-0.023": 0.0,
			"-0.022": 0.0,
			"-0.021": 0.0,
			"-0.02": 0.0,
			"-0.019": 0.0,
			"-0.018": 0.0,
			"-0.017": 0.0,
			"-0.016": 0.0,
			"-0.015": 0.0,
			"-0.014": 0.0,
			"-0.013": 0.0,
			"-0.012": 0.0,
			"-0.011": 0.0,
			"-0.01": 0.929538597647,
			"-0.009": 1.90684561179,
			"-0.008": 2.40612971592,
			"-0.007": 3.47801472768,
			"-0.006": 9.04765332919,
			"-0.005": 11.1822375327,
			"-0.004": 12.0428757098,
			"-0.003": 14.0706836065,
			"-0.002": 16.2094804565,
			"-0.001": 15.9841447895,
			"0.0": 19.9720244551,
			"0.001": 27.3593676212,
			"0.002": 22.1921900367,
			"0.003": 15.5518121543,
			"0.004": 7.16340468774,
			"0.005": 2.95309948093,
			"0.006": 2.8639198833,
			"0.007": 1.44012448188,
			"0.008": 1.25225498682,
			"0.009": 1.48840415729,
			"0.01": 2.12598792127,
			"0.011": 3.13825250529,
			"0.012": 4.09047706862,
			"0.013": 0.0681073463357,
			"0.014": 0.0,
			"0.015": 0.0,
			"0.016": 0.0,
			"0.017": 0.0,
			"0.018": 0.0,
			"0.019": 0.0,
			"0.02": 0.0,
			"0.021": 0.0,
			"0.022": 0.0,
			"0.023": 0.0,
			"0.024": 0.0,
			"0.025": 0.0
		}
	}
}
