{
	 "smiles": "CC(C)(C)OC(=O)NC1=C(F)C=CC(=C1)C(O)=O", 
	 "Tm": 451.15, 
	 "num_atms": 32, 
	 "gaussian": { 
		 "optdone": 1, 
		 "sigma_profile": "yes", 
		 "theory": "DFT", 
		 "functional": "B3LYP", 
		 "basiset": "6-31G**", 
		 "properties": { 
			 "R2extent": 7260.4154, 
			 "electric_dipole_moment_norm": 1.82229043788, 
			 "electric_quadrupole_moment_norm": 16.3310745691, 
			 "total_energy": -921.255207586, 
			 "HOMO_LUMO_gap": 0.18043, 
			 "cosmo_polarized_energy": -13.06, 
			 "cosmo_cavitation_energy": 36.45, 
			 "cosmo_dispersion_energy": -25.0, 
			 "cosmo_repulsion_energy": 1.89, 
			 "cosmo_total_nonelectrostatic_energy": 13.34, 
			 "SMD_solvation_energy": 8.97 
		},
		"coords": [
			{
				"x": -0.708947266,
				"y": 1.0242405271,
				"z": -1.7861007713,
				"element": "C" 
			},
			{
				"x": 0.4247236212,
				"y": 0.1754069052,
				"z": -1.2036347492,
				"element": "C" 
			},
			{
				"x": 1.8097759846,
				"y": 0.7332178524,
				"z": -1.5434342244,
				"element": "C" 
			},
			{
				"x": 0.298830392,
				"y": -1.2836454642,
				"z": -1.647866807,
				"element": "C" 
			},
			{
				"x": 0.2717326773,
				"y": 0.0753228759,
				"z": 0.2657075658,
				"element": "O" 
			},
			{
				"x": 0.3232628981,
				"y": 1.1730945823,
				"z": 1.0380875808,
				"element": "C" 
			},
			{
				"x": 0.490486217,
				"y": 2.3210457313,
				"z": 0.6653530359,
				"element": "O" 
			},
			{
				"x": 0.1603044974,
				"y": 0.8833698444,
				"z": 2.3817530642,
				"element": "N" 
			},
			{
				"x": -0.042979297,
				"y": -0.3069334082,
				"z": 3.0912691834,
				"element": "C" 
			},
			{
				"x": -0.1680593741,
				"y": -0.1806380097,
				"z": 4.4868909467,
				"element": "C" 
			},
			{
				"x": -0.0810405631,
				"y": 1.0687639266,
				"z": 5.0062259699,
				"element": "F" 
			},
			{
				"x": -0.3717814378,
				"y": -1.2556170924,
				"z": 5.3345230737,
				"element": "C" 
			},
			{
				"x": -0.4589732375,
				"y": -2.5331537799,
				"z": 4.7880035912,
				"element": "C" 
			},
			{
				"x": -0.3389370331,
				"y": -2.6965204807,
				"z": 3.4034784959,
				"element": "C" 
			},
			{
				"x": -0.1326625816,
				"y": -1.5970160154,
				"z": 2.5575804302,
				"element": "C" 
			},
			{
				"x": -0.4376510185,
				"y": -4.0771882537,
				"z": 2.8616448801,
				"element": "C" 
			},
			{
				"x": -0.30885406,
				"y": -4.1347641217,
				"z": 1.511117679,
				"element": "O" 
			},
			{
				"x": -0.6153172143,
				"y": -5.0751031022,
				"z": 3.5324841212,
				"element": "O" 
			},
			{
				"x": -1.6804743889,
				"y": 0.6222417975,
				"z": -1.4820229566,
				"element": "H" 
			},
			{
				"x": -0.6580206831,
				"y": 0.9971266922,
				"z": -2.8793087155,
				"element": "H" 
			},
			{
				"x": -0.6338135341,
				"y": 2.0603360848,
				"z": -1.4557898991,
				"element": "H" 
			},
			{
				"x": 2.5901975305,
				"y": 0.1284856278,
				"z": -1.0710287421,
				"element": "H" 
			},
			{
				"x": 1.9099783754,
				"y": 1.7662499824,
				"z": -1.2101711228,
				"element": "H" 
			},
			{
				"x": 1.9608367275,
				"y": 0.6951845893,
				"z": -2.6270269073,
				"element": "H" 
			},
			{
				"x": -0.6735704442,
				"y": -1.6946950964,
				"z": -1.3615947421,
				"element": "H" 
			},
			{
				"x": 1.0811529585,
				"y": -1.8977191829,
				"z": -1.1924691971,
				"element": "H" 
			},
			{
				"x": 0.3959056045,
				"y": -1.3507185878,
				"z": -2.7354024291,
				"element": "H" 
			},
			{
				"x": 0.1995861592,
				"y": 1.7189648955,
				"z": 2.9486618866,
				"element": "H" 
			},
			{
				"x": -0.458140237,
				"y": -1.0761186685,
				"z": 6.4004243679,
				"element": "H" 
			},
			{
				"x": -0.6178262656,
				"y": -3.4047907805,
				"z": 5.411796748,
				"element": "H" 
			},
			{
				"x": -0.0427011688,
				"y": -1.7438438812,
				"z": 1.4934710037,
				"element": "H" 
			},
			{
				"x": -0.3900238385,
				"y": -5.0749859892,
				"z": 1.2819776394,
				"element": "H" 
			}
		],
		 "valence_orbital": [ 
			{
				"type": "occ",
				"energy": -0.30095,
				"method": "rhf"
			},
			{
				"type": "occ",
				"energy": -0.28013,
				"method": "rhf"
			},
			{
				"type": "occ",
				"energy": -0.27758,
				"method": "rhf"
			},
			{
				"type": "occ",
				"energy": -0.26541,
				"method": "rhf"
			},
			{
				"type": "occ",
				"energy": -0.22979,
				"method": "rhf"
			},
			{
				"type": "unocc",
				"energy": -0.04936,
				"method": "rhf"
			},
			{
				"type": "unocc",
				"energy": -0.02017,
				"method": "rhf"
			},
			{
				"type": "unocc",
				"energy": 0.04112,
				"method": "rhf"
			},
			{
				"type": "unocc",
				"energy": 0.06896,
				"method": "rhf"
			},
			{
				"type": "unocc",
				"energy": 0.07116,
				"method": "rhf"
			}
		],
		"cosmo_sigma_profile": { 
			"-0.025": 0.0,
			"-0.024": 0.0,
			"-0.023": 0.0,
			"-0.022": 0.0,
			"-0.021": 0.0,
			"-0.02": 0.0,
			"-0.019": 0.109065010375,
			"-0.018": 0.577796158254,
			"-0.017": 0.890662086843,
			"-0.016": 1.2755692135,
			"-0.015": 0.446751361895,
			"-0.014": 0.668872516974,
			"-0.013": 0.559575879285,
			"-0.012": 1.47363884769,
			"-0.011": 1.5800113389,
			"-0.01": 1.60930003651,
			"-0.009": 1.60821069125,
			"-0.008": 3.32540364918,
			"-0.007": 3.73249113457,
			"-0.006": 5.64339532352,
			"-0.005": 8.29356956381,
			"-0.004": 17.8753074906,
			"-0.003": 21.1759637186,
			"-0.002": 26.3768456396,
			"-0.001": 32.8151520573,
			"0.0": 44.3756278143,
			"0.001": 33.2398231443,
			"0.002": 21.6682854019,
			"0.003": 15.5365041973,
			"0.004": 6.78105185507,
			"0.005": 5.63521794003,
			"0.006": 4.63143955529,
			"0.007": 2.63235050054,
			"0.008": 2.68754847431,
			"0.009": 3.07356264783,
			"0.01": 3.88221937511,
			"0.011": 5.3431017966,
			"0.012": 6.69273458207,
			"0.013": 2.46990778447,
			"0.014": 0.0357715740261,
			"0.015": 0.0,
			"0.016": 0.0,
			"0.017": 0.0,
			"0.018": 0.0,
			"0.019": 0.0,
			"0.02": 0.0,
			"0.021": 0.0,
			"0.022": 0.0,
			"0.023": 0.0,
			"0.024": 0.0,
			"0.025": 0.0
		}
	}
}
