{
	 "smiles": "CN(C)C1=NC(Cl)=CN=C1", 
	 "Tm": 318.15, 
	 "num_atms": 18, 
	 "gaussian": { 
		 "optdone": 1, 
		 "sigma_profile": "yes", 
		 "theory": "DFT", 
		 "functional": "B3LYP", 
		 "basiset": "6-31G**", 
		 "properties": { 
			 "R2extent": 2490.1177, 
			 "electric_dipole_moment_norm": 3.93014249233, 
			 "electric_quadrupole_moment_norm": 8.03580289517, 
			 "total_energy": -857.894904625, 
			 "HOMO_LUMO_gap": 0.17199, 
			 "cosmo_polarized_energy": -7.63, 
			 "cosmo_cavitation_energy": 23.33, 
			 "cosmo_dispersion_energy": -17.56, 
			 "cosmo_repulsion_energy": 1.43, 
			 "cosmo_total_nonelectrostatic_energy": 7.2, 
			 "SMD_solvation_energy": 1.38 
		},
		"coords": [
			{
				"x": -1.4250294501,
				"y": 2.1956391271,
				"z": 1.0200299303,
				"element": "C" 
			},
			{
				"x": -1.5099063028,
				"y": 1.2819558024,
				"z": -0.1134627248,
				"element": "N" 
			},
			{
				"x": -2.8294387392,
				"y": 1.0180039867,
				"z": -0.6636286465,
				"element": "C" 
			},
			{
				"x": -0.3894406694,
				"y": 0.9530645726,
				"z": -0.8312916458,
				"element": "C" 
			},
			{
				"x": 0.809893803,
				"y": 1.318262515,
				"z": -0.333455842,
				"element": "N" 
			},
			{
				"x": 1.8801540581,
				"y": 0.9601307308,
				"z": -1.0100453579,
				"element": "C" 
			},
			{
				"x": 3.4434413577,
				"y": 1.4399340277,
				"z": -0.3485880512,
				"element": "Cl" 
			},
			{
				"x": 1.8427632765,
				"y": 0.2410250579,
				"z": -2.2045369128,
				"element": "C" 
			},
			{
				"x": 0.6564523126,
				"y": -0.1072568192,
				"z": -2.7171507026,
				"element": "N" 
			},
			{
				"x": -0.4442352448,
				"y": 0.2377168993,
				"z": -2.0604094739,
				"element": "C" 
			},
			{
				"x": -0.4183221034,
				"y": 2.1653096346,
				"z": 1.4316604546,
				"element": "H" 
			},
			{
				"x": -1.6510211236,
				"y": 3.2312960218,
				"z": 0.7275418473,
				"element": "H" 
			},
			{
				"x": -2.1405930083,
				"y": 1.8873652377,
				"z": 1.7883825733,
				"element": "H" 
			},
			{
				"x": -3.0541792994,
				"y": 1.6366123318,
				"z": -1.5450864541,
				"element": "H" 
			},
			{
				"x": -3.5761575774,
				"y": 1.2340081513,
				"z": 0.1024352682,
				"element": "H" 
			},
			{
				"x": -2.9366552742,
				"y": -0.0347551834,
				"z": -0.9444150281,
				"element": "H" 
			},
			{
				"x": 2.7443164245,
				"y": -0.0375387349,
				"z": -2.7391309726,
				"element": "H" 
			},
			{
				"x": -1.3884424398,
				"y": -0.0479733593,
				"z": -2.5113482616,
				"element": "H" 
			}
		],
		 "valence_orbital": [ 
			{
				"type": "occ",
				"energy": -0.32168,
				"method": "rhf"
			},
			{
				"type": "occ",
				"energy": -0.30122,
				"method": "rhf"
			},
			{
				"type": "occ",
				"energy": -0.28046,
				"method": "rhf"
			},
			{
				"type": "occ",
				"energy": -0.25597,
				"method": "rhf"
			},
			{
				"type": "occ",
				"energy": -0.21589,
				"method": "rhf"
			},
			{
				"type": "unocc",
				"energy": -0.0439,
				"method": "rhf"
			},
			{
				"type": "unocc",
				"energy": -0.00876,
				"method": "rhf"
			},
			{
				"type": "unocc",
				"energy": 0.03771,
				"method": "rhf"
			},
			{
				"type": "unocc",
				"energy": 0.08277,
				"method": "rhf"
			},
			{
				"type": "unocc",
				"energy": 0.10876,
				"method": "rhf"
			}
		],
		"cosmo_sigma_profile": { 
			"-0.025": 0.0,
			"-0.024": 0.0,
			"-0.023": 0.0,
			"-0.022": 0.0,
			"-0.021": 0.0,
			"-0.02": 0.0,
			"-0.019": 0.0,
			"-0.018": 0.0,
			"-0.017": 0.0,
			"-0.016": 0.0,
			"-0.015": 0.0,
			"-0.014": 0.0,
			"-0.013": 0.0,
			"-0.012": 0.0,
			"-0.011": 0.0,
			"-0.01": 0.0,
			"-0.009": 0.0,
			"-0.008": 0.618655932982,
			"-0.007": 4.75431756464,
			"-0.006": 8.3800639459,
			"-0.005": 12.1068249111,
			"-0.004": 15.9639891488,
			"-0.003": 16.9373664925,
			"-0.002": 23.1902086566,
			"-0.001": 17.1990866548,
			"0.0": 14.7255459011,
			"0.001": 11.677426333,
			"0.002": 11.0780545823,
			"0.003": 10.9293595237,
			"0.004": 14.2511589888,
			"0.005": 7.83063399869,
			"0.006": 4.26252551417,
			"0.007": 4.07005440331,
			"0.008": 2.55508303709,
			"0.009": 2.52954262756,
			"0.01": 1.48090181696,
			"0.011": 0.432181821259,
			"0.012": 0.957858496156,
			"0.013": 0.931368188016,
			"0.014": 0.936462069516,
			"0.015": 0.583523166792,
			"0.016": 0.0152910953039,
			"0.017": 0.0,
			"0.018": 0.0,
			"0.019": 0.0,
			"0.02": 0.0,
			"0.021": 0.0,
			"0.022": 0.0,
			"0.023": 0.0,
			"0.024": 0.0,
			"0.025": 0.0
		}
	}
}
