{
	 "smiles": "CC1=CC=C(C)N1C1=CC=C(Br)C=C1", 
	 "Tm": 335.15, 
	 "num_atms": 26, 
	 "gaussian": { 
		 "optdone": 1, 
		 "sigma_profile": "yes", 
		 "theory": "DFT", 
		 "functional": "B3LYP", 
		 "basiset": "6-31G**", 
		 "properties": { 
			 "R2extent": 5763.164, 
			 "electric_dipole_moment_norm": 0.188022924134, 
			 "electric_quadrupole_moment_norm": 7.09656442513, 
			 "total_energy": -3090.66479508, 
			 "HOMO_LUMO_gap": 0.16402, 
			 "cosmo_polarized_energy": -6.09, 
			 "cosmo_cavitation_energy": 31.72, 
			 "cosmo_dispersion_energy": -22.54, 
			 "cosmo_repulsion_energy": 1.79, 
			 "cosmo_total_nonelectrostatic_energy": 10.97, 
			 "SMD_solvation_energy": 4.45 
		},
		"coords": [
			{
				"x": 3.2572708369,
				"y": 1.0879397572,
				"z": 0.9513579005,
				"element": "C" 
			},
			{
				"x": 2.5585035138,
				"y": -0.2342170643,
				"z": 0.9183715416,
				"element": "C" 
			},
			{
				"x": 2.9870759303,
				"y": -1.4740891191,
				"z": 1.3346531474,
				"element": "C" 
			},
			{
				"x": 1.9623544421,
				"y": -2.4187323319,
				"z": 1.0390708458,
				"element": "C" 
			},
			{
				"x": 0.9222190243,
				"y": -1.7470939066,
				"z": 0.4380088828,
				"element": "C" 
			},
			{
				"x": -0.406167765,
				"y": -2.2498016096,
				"z": -0.0311510898,
				"element": "C" 
			},
			{
				"x": 1.2882643215,
				"y": -0.4022403592,
				"z": 0.3650435636,
				"element": "N" 
			},
			{
				"x": 0.4887166633,
				"y": 0.6384047156,
				"z": -0.1888172387,
				"element": "C" 
			},
			{
				"x": 0.2453578772,
				"y": 0.6840032808,
				"z": -1.566410487,
				"element": "C" 
			},
			{
				"x": -0.5424770723,
				"y": 1.6966841744,
				"z": -2.1124447727,
				"element": "C" 
			},
			{
				"x": -1.0748249247,
				"y": 2.6732496654,
				"z": -1.2717815113,
				"element": "C" 
			},
			{
				"x": -2.1472932029,
				"y": 4.0689251498,
				"z": -2.0147428521,
				"element": "Br" 
			},
			{
				"x": -0.8376882216,
				"y": 2.6483695556,
				"z": 0.101872802,
				"element": "C" 
			},
			{
				"x": -0.0600492923,
				"y": 1.6236882976,
				"z": 0.6401149693,
				"element": "C" 
			},
			{
				"x": 4.2679734632,
				"y": 0.9482907044,
				"z": 1.342612927,
				"element": "H" 
			},
			{
				"x": 2.7545958676,
				"y": 1.8241637408,
				"z": 1.5904082728,
				"element": "H" 
			},
			{
				"x": 3.3440707545,
				"y": 1.5367537954,
				"z": -0.0458533594,
				"element": "H" 
			},
			{
				"x": 3.9438900807,
				"y": -1.6764756649,
				"z": 1.796776972,
				"element": "H" 
			},
			{
				"x": 1.976209089,
				"y": -3.4796765793,
				"z": 1.2493513304,
				"element": "H" 
			},
			{
				"x": -1.2416961593,
				"y": -1.7239305816,
				"z": 0.4471135662,
				"element": "H" 
			},
			{
				"x": -0.4947438809,
				"y": -3.3103514634,
				"z": 0.216824647,
				"element": "H" 
			},
			{
				"x": -0.5449730804,
				"y": -2.1513619339,
				"z": -1.1147317065,
				"element": "H" 
			},
			{
				"x": 0.6847175135,
				"y": -0.0716715197,
				"z": -2.209477656,
				"element": "H" 
			},
			{
				"x": -0.7317430619,
				"y": 1.7324376885,
				"z": -3.1791335587,
				"element": "H" 
			},
			{
				"x": -1.2626659487,
				"y": 3.411981201,
				"z": 0.7431305627,
				"element": "H" 
			},
			{
				"x": 0.1166032318,
				"y": 1.5776504069,
				"z": 1.7098323009,
				"element": "H" 
			}
		],
		 "valence_orbital": [ 
			{
				"type": "occ",
				"energy": -0.29286,
				"method": "rhf"
			},
			{
				"type": "occ",
				"energy": -0.27368,
				"method": "rhf"
			},
			{
				"type": "occ",
				"energy": -0.25445,
				"method": "rhf"
			},
			{
				"type": "occ",
				"energy": -0.22592,
				"method": "rhf"
			},
			{
				"type": "occ",
				"energy": -0.19089,
				"method": "rhf"
			},
			{
				"type": "unocc",
				"energy": -0.02687,
				"method": "rhf"
			},
			{
				"type": "unocc",
				"energy": -0.02491,
				"method": "rhf"
			},
			{
				"type": "unocc",
				"energy": 0.00092,
				"method": "rhf"
			},
			{
				"type": "unocc",
				"energy": 0.04325,
				"method": "rhf"
			},
			{
				"type": "unocc",
				"energy": 0.09504,
				"method": "rhf"
			}
		],
		"cosmo_sigma_profile": { 
			"-0.025": 0.0,
			"-0.024": 0.0,
			"-0.023": 0.0,
			"-0.022": 0.0,
			"-0.021": 0.0,
			"-0.02": 0.0,
			"-0.019": 0.0,
			"-0.018": 0.0,
			"-0.017": 0.0,
			"-0.016": 0.0,
			"-0.015": 0.0,
			"-0.014": 0.0,
			"-0.013": 0.0,
			"-0.012": 0.0,
			"-0.011": 0.0,
			"-0.01": 0.0,
			"-0.009": 0.0,
			"-0.008": 0.889211266557,
			"-0.007": 6.88394631479,
			"-0.006": 6.99498777781,
			"-0.005": 11.995101714,
			"-0.004": 20.473138103,
			"-0.003": 21.7070114104,
			"-0.002": 23.5547708508,
			"-0.001": 23.8948034692,
			"0.0": 30.6755826008,
			"0.001": 22.4582022627,
			"0.002": 24.4485545118,
			"0.003": 19.01387054,
			"0.004": 15.7677978936,
			"0.005": 9.62090336574,
			"0.006": 3.41096874349,
			"0.007": 4.90815240706,
			"0.008": 3.99033206237,
			"0.009": 4.14750384889,
			"0.01": 0.958140297035,
			"0.011": 0.0,
			"0.012": 0.0,
			"0.013": 0.0,
			"0.014": 0.0,
			"0.015": 0.0,
			"0.016": 0.0,
			"0.017": 0.0,
			"0.018": 0.0,
			"0.019": 0.0,
			"0.02": 0.0,
			"0.021": 0.0,
			"0.022": 0.0,
			"0.023": 0.0,
			"0.024": 0.0,
			"0.025": 0.0
		}
	}
}
