{
	 "smiles": "COC(=O)C1=C2CCCN2C(=C1C(=O)OC)C1=CC(N)=CC=C1", 
	 "Tm": 440.15, 
	 "num_atms": 41, 
	 "gaussian": { 
		 "optdone": 1, 
		 "sigma_profile": "yes", 
		 "theory": "DFT", 
		 "functional": "B3LYP", 
		 "basiset": "6-31G**", 
		 "properties": { 
			 "R2extent": 7804.7087, 
			 "electric_dipole_moment_norm": 1.90716295318, 
			 "electric_quadrupole_moment_norm": 16.0200366036, 
			 "total_energy": -1069.08081939, 
			 "HOMO_LUMO_gap": 0.17467, 
			 "cosmo_polarized_energy": -19.69, 
			 "cosmo_cavitation_energy": 44.47, 
			 "cosmo_dispersion_energy": -30.5, 
			 "cosmo_repulsion_energy": 2.36, 
			 "cosmo_total_nonelectrostatic_energy": 16.34, 
			 "SMD_solvation_energy": 9.24 
		},
		"coords": [
			{
				"x": 0.7913824995,
				"y": -4.6759907514,
				"z": -1.2881367183,
				"element": "C" 
			},
			{
				"x": 0.59195849,
				"y": -3.276549816,
				"z": -1.0529217336,
				"element": "O" 
			},
			{
				"x": 0.4400240246,
				"y": -2.9302053226,
				"z": 0.2478075234,
				"element": "C" 
			},
			{
				"x": 0.5005962993,
				"y": -3.7417715376,
				"z": 1.1581144662,
				"element": "O" 
			},
			{
				"x": 0.2561470541,
				"y": -1.4899544061,
				"z": 0.4469274781,
				"element": "C" 
			},
			{
				"x": 0.4657145085,
				"y": -0.9025617871,
				"z": 1.6820836909,
				"element": "C" 
			},
			{
				"x": 0.8337666994,
				"y": -1.2586354141,
				"z": 3.0876496928,
				"element": "C" 
			},
			{
				"x": 1.322708474,
				"y": 0.1077731914,
				"z": 3.6458816866,
				"element": "C" 
			},
			{
				"x": 0.6116391021,
				"y": 1.1811336196,
				"z": 2.7841500923,
				"element": "C" 
			},
			{
				"x": 0.3440517099,
				"y": 0.4468492345,
				"z": 1.5433903454,
				"element": "N" 
			},
			{
				"x": 0.075519832,
				"y": 0.7930446327,
				"z": 0.2298847639,
				"element": "C" 
			},
			{
				"x": 0.0128467799,
				"y": -0.4105896962,
				"z": -0.4795700974,
				"element": "C" 
			},
			{
				"x": -0.3685392623,
				"y": -0.5413690498,
				"z": -1.9045558685,
				"element": "C" 
			},
			{
				"x": 0.1074537156,
				"y": 0.0829495879,
				"z": -2.8359595232,
				"element": "O" 
			},
			{
				"x": -1.3607795502,
				"y": -1.44533946,
				"z": -2.0656100256,
				"element": "O" 
			},
			{
				"x": -1.7386585086,
				"y": -1.7003084659,
				"z": -3.4241550361,
				"element": "C" 
			},
			{
				"x": -0.1422961325,
				"y": 2.1949302419,
				"z": -0.1697913717,
				"element": "C" 
			},
			{
				"x": 0.4396007493,
				"y": 2.6943398102,
				"z": -1.3416867862,
				"element": "C" 
			},
			{
				"x": 0.2431272347,
				"y": 4.0275446206,
				"z": -1.7353905849,
				"element": "C" 
			},
			{
				"x": 0.867240566,
				"y": 4.5156174419,
				"z": -2.8846437386,
				"element": "N" 
			},
			{
				"x": -0.5336163965,
				"y": 4.8710443634,
				"z": -0.9230613965,
				"element": "C" 
			},
			{
				"x": -1.1098818005,
				"y": 4.3767046679,
				"z": 0.2446646943,
				"element": "C" 
			},
			{
				"x": -0.9265910555,
				"y": 3.0499372455,
				"z": 0.6288541009,
				"element": "C" 
			},
			{
				"x": -0.0601826782,
				"y": -5.2569775888,
				"z": -0.9239093045,
				"element": "H" 
			},
			{
				"x": 1.6949485883,
				"y": -5.0299076114,
				"z": -0.7845535939,
				"element": "H" 
			},
			{
				"x": 0.8916718954,
				"y": -4.7817878401,
				"z": -2.3687131051,
				"element": "H" 
			},
			{
				"x": -0.0416838064,
				"y": -1.6325198243,
				"z": 3.633946549,
				"element": "H" 
			},
			{
				"x": 1.590651436,
				"y": -2.0442504324,
				"z": 3.1358946794,
				"element": "H" 
			},
			{
				"x": 2.4050298861,
				"y": 0.192803104,
				"z": 3.5079125008,
				"element": "H" 
			},
			{
				"x": 1.1110188373,
				"y": 0.2357724552,
				"z": 4.7101426078,
				"element": "H" 
			},
			{
				"x": -0.3284335826,
				"y": 1.5120114172,
				"z": 3.240422031,
				"element": "H" 
			},
			{
				"x": 1.2229849159,
				"y": 2.0648124933,
				"z": 2.5890873102,
				"element": "H" 
			},
			{
				"x": -2.1086965904,
				"y": -0.7896811833,
				"z": -3.9026363532,
				"element": "H" 
			},
			{
				"x": -0.8870034307,
				"y": -2.0762275544,
				"z": -3.9977733115,
				"element": "H" 
			},
			{
				"x": -2.5268437232,
				"y": -2.45201951,
				"z": -3.3742333841,
				"element": "H" 
			},
			{
				"x": 1.0298603068,
				"y": 2.0306971495,
				"z": -1.9621815057,
				"element": "H" 
			},
			{
				"x": 1.0979959136,
				"y": 3.8104543867,
				"z": -3.5716204778,
				"element": "H" 
			},
			{
				"x": 0.4232146548,
				"y": 5.3203492667,
				"z": -3.3051404437,
				"element": "H" 
			},
			{
				"x": -0.68412992,
				"y": 5.9084551241,
				"z": -1.2116749035,
				"element": "H" 
			},
			{
				"x": -1.7222125372,
				"y": 5.0340415011,
				"z": 0.8559970352,
				"element": "H" 
			},
			{
				"x": -1.4197051979,
				"y": 2.6694816963,
				"z": 1.5168080155,
				"element": "H" 
			}
		],
		 "valence_orbital": [ 
			{
				"type": "occ",
				"energy": -0.26022,
				"method": "rhf"
			},
			{
				"type": "occ",
				"energy": -0.2535,
				"method": "rhf"
			},
			{
				"type": "occ",
				"energy": -0.24072,
				"method": "rhf"
			},
			{
				"type": "occ",
				"energy": -0.20628,
				"method": "rhf"
			},
			{
				"type": "occ",
				"energy": -0.19707,
				"method": "rhf"
			},
			{
				"type": "unocc",
				"energy": -0.0224,
				"method": "rhf"
			},
			{
				"type": "unocc",
				"energy": -0.00414,
				"method": "rhf"
			},
			{
				"type": "unocc",
				"energy": 0.01507,
				"method": "rhf"
			},
			{
				"type": "unocc",
				"energy": 0.02312,
				"method": "rhf"
			},
			{
				"type": "unocc",
				"energy": 0.06647,
				"method": "rhf"
			}
		],
		"cosmo_sigma_profile": { 
			"-0.025": 0.0,
			"-0.024": 0.0,
			"-0.023": 0.0,
			"-0.022": 0.0,
			"-0.021": 0.0,
			"-0.02": 0.0,
			"-0.019": 0.0,
			"-0.018": 0.0,
			"-0.017": 0.0,
			"-0.016": 0.0,
			"-0.015": 0.0,
			"-0.014": 0.0,
			"-0.013": 0.169527854229,
			"-0.012": 2.26014394051,
			"-0.011": 2.57309514809,
			"-0.01": 2.80522231134,
			"-0.009": 2.87610692716,
			"-0.008": 2.42286489941,
			"-0.007": 4.87700585607,
			"-0.006": 16.3960269059,
			"-0.005": 31.9525752743,
			"-0.004": 38.7077160818,
			"-0.003": 38.3392452005,
			"-0.002": 24.0078766705,
			"-0.001": 24.1115118488,
			"0.0": 14.7153656427,
			"0.001": 16.5559134458,
			"0.002": 15.9611722264,
			"0.003": 19.4125120277,
			"0.004": 19.7269899642,
			"0.005": 16.4653509027,
			"0.006": 16.9887116574,
			"0.007": 8.70664237465,
			"0.008": 5.8644878651,
			"0.009": 5.24809958433,
			"0.01": 4.99342093874,
			"0.011": 5.36343318463,
			"0.012": 5.92406870296,
			"0.013": 3.68501216859,
			"0.014": 0.869354929653,
			"0.015": 0.144155766887,
			"0.016": 0.0,
			"0.017": 0.0,
			"0.018": 0.0,
			"0.019": 0.0,
			"0.02": 0.0,
			"0.021": 0.0,
			"0.022": 0.0,
			"0.023": 0.0,
			"0.024": 0.0,
			"0.025": 0.0
		}
	}
}
