{
	 "smiles": "O=C(C=CC1=CC=CO1)/C=C/C1=CC=CO1", 
	 "Tm": 333.65, 
	 "num_atms": 26, 
	 "gaussian": { 
		 "optdone": 1, 
		 "sigma_profile": "yes", 
		 "theory": "DFT", 
		 "functional": "B3LYP", 
		 "basiset": "6-31G**", 
		 "properties": { 
			 "R2extent": 7225.7869, 
			 "electric_dipole_moment_norm": 2.46570864662, 
			 "electric_quadrupole_moment_norm": 22.6304688749, 
			 "total_energy": -727.006880037, 
			 "HOMO_LUMO_gap": 0.13123, 
			 "cosmo_polarized_energy": -12.74, 
			 "cosmo_cavitation_energy": 33.07, 
			 "cosmo_dispersion_energy": -23.79, 
			 "cosmo_repulsion_energy": 1.83, 
			 "cosmo_total_nonelectrostatic_energy": 11.11, 
			 "SMD_solvation_energy": 8.26 
		},
		"coords": [
			{
				"x": -0.5582667663,
				"y": 0.0055213226,
				"z": -1.2572582944,
				"element": "O" 
			},
			{
				"x": -0.1483160878,
				"y": -0.1732672663,
				"z": -0.1063412033,
				"element": "C" 
			},
			{
				"x": -0.8095661213,
				"y": 0.4443283845,
				"z": 1.0647079447,
				"element": "C" 
			},
			{
				"x": -1.8956495042,
				"y": 1.2309851211,
				"z": 0.9022997144,
				"element": "C" 
			},
			{
				"x": -2.633617712,
				"y": 1.8903938316,
				"z": 1.9374829725,
				"element": "C" 
			},
			{
				"x": -3.7418079902,
				"y": 2.7064569446,
				"z": 1.8964578368,
				"element": "C" 
			},
			{
				"x": -4.0375395558,
				"y": 3.0721109342,
				"z": 3.2417406493,
				"element": "C" 
			},
			{
				"x": -3.0935746494,
				"y": 2.4572681189,
				"z": 4.0130224824,
				"element": "C" 
			},
			{
				"x": -2.2356526261,
				"y": 1.7382724819,
				"z": 3.244793033,
				"element": "O" 
			},
			{
				"x": 1.033370693,
				"y": -1.0164011698,
				"z": 0.1813469394,
				"element": "C" 
			},
			{
				"x": 1.7037489089,
				"y": -1.6219656355,
				"z": -0.8229816357,
				"element": "C" 
			},
			{
				"x": 2.8568506039,
				"y": -2.4614957075,
				"z": -0.6943030608,
				"element": "C" 
			},
			{
				"x": 3.6164701896,
				"y": -3.1261428648,
				"z": -1.630761382,
				"element": "C" 
			},
			{
				"x": 4.6451813895,
				"y": -3.8103059066,
				"z": -0.9203999646,
				"element": "C" 
			},
			{
				"x": 4.4465920497,
				"y": -3.5193134317,
				"z": 0.3986366141,
				"element": "C" 
			},
			{
				"x": 3.3712956448,
				"y": -2.7058205631,
				"z": 0.5571882634,
				"element": "O" 
			},
			{
				"x": -0.4044619539,
				"y": 0.2522392511,
				"z": 2.0541129335,
				"element": "H" 
			},
			{
				"x": -2.2534367111,
				"y": 1.3851085019,
				"z": -0.1136997902,
				"element": "H" 
			},
			{
				"x": -4.2730369189,
				"y": 3.0023745893,
				"z": 1.0031032382,
				"element": "H" 
			},
			{
				"x": -4.8405380183,
				"y": 3.7047647291,
				"z": 3.590965575,
				"element": "H" 
			},
			{
				"x": -2.9064471763,
				"y": 2.4345940503,
				"z": 5.0757221326,
				"element": "H" 
			},
			{
				"x": 1.3490043591,
				"y": -1.1375714869,
				"z": 1.2136373689,
				"element": "H" 
			},
			{
				"x": 1.3383700519,
				"y": -1.461842533,
				"z": -1.8353461507,
				"element": "H" 
			},
			{
				"x": 3.4484708346,
				"y": -3.1182847661,
				"z": -2.6982666843,
				"element": "H" 
			},
			{
				"x": 5.4264108808,
				"y": -4.4335173422,
				"z": -1.3306499351,
				"element": "H" 
			},
			{
				"x": 4.961346186,
				"y": -3.8015895876,
				"z": 1.3042904029,
				"element": "H" 
			}
		],
		 "valence_orbital": [ 
			{
				"type": "occ",
				"energy": -0.28627,
				"method": "rhf"
			},
			{
				"type": "occ",
				"energy": -0.2846,
				"method": "rhf"
			},
			{
				"type": "occ",
				"energy": -0.23558,
				"method": "rhf"
			},
			{
				"type": "occ",
				"energy": -0.21845,
				"method": "rhf"
			},
			{
				"type": "occ",
				"energy": -0.21129,
				"method": "rhf"
			},
			{
				"type": "unocc",
				"energy": -0.08006,
				"method": "rhf"
			},
			{
				"type": "unocc",
				"energy": -0.02977,
				"method": "rhf"
			},
			{
				"type": "unocc",
				"energy": 0.02805,
				"method": "rhf"
			},
			{
				"type": "unocc",
				"energy": 0.04623,
				"method": "rhf"
			},
			{
				"type": "unocc",
				"energy": 0.07584,
				"method": "rhf"
			}
		],
		"cosmo_sigma_profile": { 
			"-0.025": 0.0,
			"-0.024": 0.0,
			"-0.023": 0.0,
			"-0.022": 0.0,
			"-0.021": 0.0,
			"-0.02": 0.0,
			"-0.019": 0.0,
			"-0.018": 0.0,
			"-0.017": 0.0,
			"-0.016": 0.0,
			"-0.015": 0.0,
			"-0.014": 0.0,
			"-0.013": 0.0,
			"-0.012": 0.0,
			"-0.011": 0.0,
			"-0.01": 1.22102673587,
			"-0.009": 4.1533232122,
			"-0.008": 7.24655472046,
			"-0.007": 15.9753206544,
			"-0.006": 14.7111102242,
			"-0.005": 15.3690674816,
			"-0.004": 14.1836011851,
			"-0.003": 13.2658487513,
			"-0.002": 13.2182259369,
			"-0.001": 13.4174959239,
			"0.0": 14.6985907231,
			"0.001": 26.9162175096,
			"0.002": 34.6359874759,
			"0.003": 29.3035376728,
			"0.004": 17.9671532425,
			"0.005": 6.7004592118,
			"0.006": 6.00491986654,
			"0.007": 2.51488576654,
			"0.008": 1.3944641611,
			"0.009": 1.9048263945,
			"0.01": 1.56463461917,
			"0.011": 1.81872132505,
			"0.012": 2.47381871151,
			"0.013": 4.31228684664,
			"0.014": 1.9699521395,
			"0.015": 0.0,
			"0.016": 0.0,
			"0.017": 0.0,
			"0.018": 0.0,
			"0.019": 0.0,
			"0.02": 0.0,
			"0.021": 0.0,
			"0.022": 0.0,
			"0.023": 0.0,
			"0.024": 0.0,
			"0.025": 0.0
		}
	}
}
