{
	 "smiles": "COC(=O)C1=C(OC)C(Br)=CS1", 
	 "Tm": 346.65, 
	 "num_atms": 19, 
	 "gaussian": { 
		 "optdone": 1, 
		 "sigma_profile": "yes", 
		 "theory": "DFT", 
		 "functional": "B3LYP", 
		 "basiset": "6-31G**", 
		 "properties": { 
			 "R2extent": 4815.7749, 
			 "electric_dipole_moment_norm": 2.21897767677, 
			 "electric_quadrupole_moment_norm": 7.09900032751, 
			 "total_energy": -3466.19620721, 
			 "HOMO_LUMO_gap": 0.17996, 
			 "cosmo_polarized_energy": -7.98, 
			 "cosmo_cavitation_energy": 27.31, 
			 "cosmo_dispersion_energy": -20.85, 
			 "cosmo_repulsion_energy": 1.64, 
			 "cosmo_total_nonelectrostatic_energy": 8.1, 
			 "SMD_solvation_energy": 6.0 
		},
		"coords": [
			{
				"x": 2.6899804602,
				"y": 2.0190533042,
				"z": -0.6973745828,
				"element": "C" 
			},
			{
				"x": 1.6106870498,
				"y": 1.0873234418,
				"z": -0.5317572724,
				"element": "O" 
			},
			{
				"x": 0.7782100067,
				"y": 1.338499847,
				"z": 0.5100048509,
				"element": "C" 
			},
			{
				"x": 0.9477109048,
				"y": 2.268651494,
				"z": 1.2783394034,
				"element": "O" 
			},
			{
				"x": -0.324704796,
				"y": 0.373903727,
				"z": 0.5371989046,
				"element": "C" 
			},
			{
				"x": -1.3588119551,
				"y": 0.2306406544,
				"z": 1.4580431096,
				"element": "C" 
			},
			{
				"x": -1.5618158252,
				"y": 0.8312284758,
				"z": 2.6403110289,
				"element": "O" 
			},
			{
				"x": -0.4678667117,
				"y": 1.0354341852,
				"z": 3.5502643453,
				"element": "C" 
			},
			{
				"x": -2.3397821539,
				"y": -0.7163474034,
				"z": 1.0021856299,
				"element": "C" 
			},
			{
				"x": -3.8723908254,
				"y": -1.1506938757,
				"z": 2.0205409798,
				"element": "Br" 
			},
			{
				"x": -2.0498031923,
				"y": -1.2746620111,
				"z": -0.207013868,
				"element": "C" 
			},
			{
				"x": -0.5642091828,
				"y": -0.6799570722,
				"z": -0.8485092805,
				"element": "S" 
			},
			{
				"x": 3.2383688821,
				"y": 1.677686298,
				"z": -1.5750344308,
				"element": "H" 
			},
			{
				"x": 2.3059053022,
				"y": 3.0302926725,
				"z": -0.8532181826,
				"element": "H" 
			},
			{
				"x": 3.3367926859,
				"y": 2.0188298055,
				"z": 0.1834696634,
				"element": "H" 
			},
			{
				"x": -0.9333339159,
				"y": 1.1941726477,
				"z": 4.5241474418,
				"element": "H" 
			},
			{
				"x": 0.1641388527,
				"y": 0.1411809724,
				"z": 3.5868920802,
				"element": "H" 
			},
			{
				"x": 0.1299382736,
				"y": 1.8965518286,
				"z": 3.2550546136,
				"element": "H" 
			},
			{
				"x": -2.6225138595,
				"y": -2.0210889917,
				"z": -0.7381444345,
				"element": "H" 
			}
		],
		 "valence_orbital": [ 
			{
				"type": "occ",
				"energy": -0.30503,
				"method": "rhf"
			},
			{
				"type": "occ",
				"energy": -0.29031,
				"method": "rhf"
			},
			{
				"type": "occ",
				"energy": -0.28065,
				"method": "rhf"
			},
			{
				"type": "occ",
				"energy": -0.24408,
				"method": "rhf"
			},
			{
				"type": "occ",
				"energy": -0.23639,
				"method": "rhf"
			},
			{
				"type": "unocc",
				"energy": -0.05643,
				"method": "rhf"
			},
			{
				"type": "unocc",
				"energy": 0.00048,
				"method": "rhf"
			},
			{
				"type": "unocc",
				"energy": 0.01928,
				"method": "rhf"
			},
			{
				"type": "unocc",
				"energy": 0.0245,
				"method": "rhf"
			},
			{
				"type": "unocc",
				"energy": 0.0811,
				"method": "rhf"
			}
		],
		"cosmo_sigma_profile": { 
			"-0.025": 0.0,
			"-0.024": 0.0,
			"-0.023": 0.0,
			"-0.022": 0.0,
			"-0.021": 0.0,
			"-0.02": 0.0,
			"-0.019": 0.0,
			"-0.018": 0.0,
			"-0.017": 0.0,
			"-0.016": 0.0,
			"-0.015": 0.0,
			"-0.014": 0.0,
			"-0.013": 0.0,
			"-0.012": 0.0,
			"-0.011": 0.33180373945,
			"-0.01": 2.30924833966,
			"-0.009": 1.74919724047,
			"-0.008": 1.63355255436,
			"-0.007": 3.23149365461,
			"-0.006": 9.94359916777,
			"-0.005": 14.4563400509,
			"-0.004": 18.4353575015,
			"-0.003": 21.764505687,
			"-0.002": 15.0334725125,
			"-0.001": 13.3546152824,
			"0.0": 18.2663095732,
			"0.001": 21.1144298177,
			"0.002": 18.9629427924,
			"0.003": 17.451045381,
			"0.004": 15.8735055017,
			"0.005": 8.46556330946,
			"0.006": 5.41038817898,
			"0.007": 3.67318864418,
			"0.008": 3.80330451547,
			"0.009": 2.9669131279,
			"0.01": 2.30974374841,
			"0.011": 2.63236729707,
			"0.012": 0.823454687957,
			"0.013": 0.0,
			"0.014": 0.0,
			"0.015": 0.0,
			"0.016": 0.0,
			"0.017": 0.0,
			"0.018": 0.0,
			"0.019": 0.0,
			"0.02": 0.0,
			"0.021": 0.0,
			"0.022": 0.0,
			"0.023": 0.0,
			"0.024": 0.0,
			"0.025": 0.0
		}
	}
}
