{
	 "smiles": "NC(=S)NCC1CCC1", 
	 "Tm": 397.15, 
	 "num_atms": 21, 
	 "gaussian": { 
		 "optdone": 1, 
		 "sigma_profile": "yes", 
		 "theory": "DFT", 
		 "functional": "B3LYP", 
		 "basiset": "6-31G**", 
		 "properties": { 
			 "R2extent": 2209.9758, 
			 "electric_dipole_moment_norm": 5.11125167645, 
			 "electric_quadrupole_moment_norm": 21.8854500456, 
			 "total_energy": -743.553583922, 
			 "HOMO_LUMO_gap": 0.20289, 
			 "cosmo_polarized_energy": -18.67, 
			 "cosmo_cavitation_energy": 25.46, 
			 "cosmo_dispersion_energy": -18.4, 
			 "cosmo_repulsion_energy": 1.51, 
			 "cosmo_total_nonelectrostatic_energy": 8.57, 
			 "SMD_solvation_energy": 2.75 
		},
		"coords": [
			{
				"x": 3.2564274709,
				"y": -1.396445076,
				"z": 1.6138875588,
				"element": "N" 
			},
			{
				"x": 2.2632902642,
				"y": -0.4660713025,
				"z": 1.7901008227,
				"element": "C" 
			},
			{
				"x": 1.7822621814,
				"y": -0.0001918819,
				"z": 3.3338374067,
				"element": "S" 
			},
			{
				"x": 1.7617110894,
				"y": 0.0347392644,
				"z": 0.6304727688,
				"element": "N" 
			},
			{
				"x": 0.7559034505,
				"y": 1.0861644417,
				"z": 0.5226317462,
				"element": "C" 
			},
			{
				"x": -0.5859929773,
				"y": 0.6084927387,
				"z": -0.0332389548,
				"element": "C" 
			},
			{
				"x": -1.3430589359,
				"y": -0.5583305872,
				"z": 0.657880455,
				"element": "C" 
			},
			{
				"x": -1.8018008947,
				"y": -1.0364196408,
				"z": -0.7457607842,
				"element": "C" 
			},
			{
				"x": -0.6540271478,
				"y": -0.1940946967,
				"z": -1.3652497796,
				"element": "C" 
			},
			{
				"x": 3.2978839699,
				"y": -1.9301135506,
				"z": 0.7553432774,
				"element": "H" 
			},
			{
				"x": 3.5329753745,
				"y": -1.8845839595,
				"z": 2.45195388,
				"element": "H" 
			},
			{
				"x": 2.2297970393,
				"y": -0.2297811948,
				"z": -0.2256172123,
				"element": "H" 
			},
			{
				"x": 0.6245851441,
				"y": 1.496054665,
				"z": 1.5272655616,
				"element": "H" 
			},
			{
				"x": 1.1609519646,
				"y": 1.8830592075,
				"z": -0.1153337959,
				"element": "H" 
			},
			{
				"x": -1.2402605841,
				"y": 1.486615912,
				"z": -0.103993396,
				"element": "H" 
			},
			{
				"x": -2.1093208439,
				"y": -0.299241141,
				"z": 1.3933922899,
				"element": "H" 
			},
			{
				"x": -0.6445743217,
				"y": -1.2629960399,
				"z": 1.1189335791,
				"element": "H" 
			},
			{
				"x": -1.8031878905,
				"y": -2.1123152229,
				"z": -0.9427265692,
				"element": "H" 
			},
			{
				"x": -2.7844695807,
				"y": -0.634192779,
				"z": -1.0116790376,
				"element": "H" 
			},
			{
				"x": -0.8546098758,
				"y": 0.3589788743,
				"z": -2.2880668193,
				"element": "H" 
			},
			{
				"x": 0.2432151038,
				"y": -0.8061280306,
				"z": -1.5149329975,
				"element": "H" 
			}
		],
		 "valence_orbital": [ 
			{
				"type": "occ",
				"energy": -0.3082,
				"method": "rhf"
			},
			{
				"type": "occ",
				"energy": -0.30297,
				"method": "rhf"
			},
			{
				"type": "occ",
				"energy": -0.26554,
				"method": "rhf"
			},
			{
				"type": "occ",
				"energy": -0.21114,
				"method": "rhf"
			},
			{
				"type": "occ",
				"energy": -0.2003,
				"method": "rhf"
			},
			{
				"type": "unocc",
				"energy": 0.00259,
				"method": "rhf"
			},
			{
				"type": "unocc",
				"energy": 0.04799,
				"method": "rhf"
			},
			{
				"type": "unocc",
				"energy": 0.08898,
				"method": "rhf"
			},
			{
				"type": "unocc",
				"energy": 0.08984,
				"method": "rhf"
			},
			{
				"type": "unocc",
				"energy": 0.10194,
				"method": "rhf"
			}
		],
		"cosmo_sigma_profile": { 
			"-0.025": 0.0,
			"-0.024": 0.0,
			"-0.023": 0.0,
			"-0.022": 0.0,
			"-0.021": 0.0,
			"-0.02": 0.0,
			"-0.019": 0.0,
			"-0.018": 0.0,
			"-0.017": 0.398419120787,
			"-0.016": 1.60382134754,
			"-0.015": 1.86105753011,
			"-0.014": 3.08316992962,
			"-0.013": 3.2046246046,
			"-0.012": 2.70879072875,
			"-0.011": 3.2526651994,
			"-0.01": 2.53422201651,
			"-0.009": 3.54642978976,
			"-0.008": 2.15993072684,
			"-0.007": 2.49969016044,
			"-0.006": 2.31820593295,
			"-0.005": 4.57846818865,
			"-0.004": 4.93268017752,
			"-0.003": 13.482189572,
			"-0.002": 19.3722671868,
			"-0.001": 21.2708713979,
			"0.0": 21.9144306713,
			"0.001": 16.26226251,
			"0.002": 12.3715463653,
			"0.003": 11.3611431376,
			"0.004": 5.58248469909,
			"0.005": 3.97941871652,
			"0.006": 5.65895768691,
			"0.007": 4.31342180184,
			"0.008": 4.93596321144,
			"0.009": 5.28039643312,
			"0.01": 5.16528037196,
			"0.011": 6.20912975458,
			"0.012": 4.33568022353,
			"0.013": 1.39078377677,
			"0.014": 0.0,
			"0.015": 0.0,
			"0.016": 0.0,
			"0.017": 0.0,
			"0.018": 0.0,
			"0.019": 0.0,
			"0.02": 0.0,
			"0.021": 0.0,
			"0.022": 0.0,
			"0.023": 0.0,
			"0.024": 0.0,
			"0.025": 0.0
		}
	}
}
