{
	 "smiles": "CC(C)(C)C1=CC(=CC(=C1O)C(C)(C)C)C(O)=O", 
	 "Tm": 481.15, 
	 "num_atms": 40, 
	 "gaussian": { 
		 "optdone": 1, 
		 "sigma_profile": "yes", 
		 "theory": "DFT", 
		 "functional": "B3LYP", 
		 "basiset": "6-31G**", 
		 "properties": { 
			 "R2extent": 6208.8375, 
			 "electric_dipole_moment_norm": 5.09592038988, 
			 "electric_quadrupole_moment_norm": 28.3819761416, 
			 "total_energy": -810.556124596, 
			 "HOMO_LUMO_gap": 0.19441, 
			 "cosmo_polarized_energy": -15.56, 
			 "cosmo_cavitation_energy": 39.04, 
			 "cosmo_dispersion_energy": -27.0, 
			 "cosmo_repulsion_energy": 2.07, 
			 "cosmo_total_nonelectrostatic_energy": 14.1, 
			 "SMD_solvation_energy": 8.19 
		},
		"coords": [
			{
				"x": -1.8197349081,
				"y": 2.7693191885,
				"z": 0.4872866191,
				"element": "C" 
			},
			{
				"x": -1.6183667466,
				"y": 1.4708819426,
				"z": 1.3157049756,
				"element": "C" 
			},
			{
				"x": -2.8019056718,
				"y": 1.4043313432,
				"z": 2.3045673,
				"element": "C" 
			},
			{
				"x": -0.3339089545,
				"y": 1.5537474453,
				"z": 2.185394324,
				"element": "C" 
			},
			{
				"x": -1.5763612055,
				"y": 0.2286346635,
				"z": 0.390240233,
				"element": "C" 
			},
			{
				"x": -2.5338997456,
				"y": -0.7787380871,
				"z": 0.5081601471,
				"element": "C" 
			},
			{
				"x": -2.5326784549,
				"y": -1.9038825225,
				"z": -0.3178764027,
				"element": "C" 
			},
			{
				"x": -1.5212755477,
				"y": -2.0432415634,
				"z": -1.2739498714,
				"element": "C" 
			},
			{
				"x": -0.5226754555,
				"y": -1.0834121246,
				"z": -1.4481126539,
				"element": "C" 
			},
			{
				"x": -0.5778871661,
				"y": 0.0550913499,
				"z": -0.6043652253,
				"element": "C" 
			},
			{
				"x": 0.4030456502,
				"y": 0.9901635282,
				"z": -0.7993400609,
				"element": "O" 
			},
			{
				"x": 0.5904409672,
				"y": -1.2665653539,
				"z": -2.5062249331,
				"element": "C" 
			},
			{
				"x": 0.5366423484,
				"y": -0.1194641726,
				"z": -3.5463037326,
				"element": "C" 
			},
			{
				"x": 0.4284522097,
				"y": -2.5907496351,
				"z": -3.2823171992,
				"element": "C" 
			},
			{
				"x": 1.9811431317,
				"y": -1.3057168296,
				"z": -1.8247221425,
				"element": "C" 
			},
			{
				"x": -3.6074498039,
				"y": -2.9184289091,
				"z": -0.1022289311,
				"element": "C" 
			},
			{
				"x": -3.8235576299,
				"y": -3.8111432408,
				"z": -1.1096703842,
				"element": "O" 
			},
			{
				"x": -4.2809155327,
				"y": -2.9788480826,
				"z": 0.9018853207,
				"element": "O" 
			},
			{
				"x": -2.7689181242,
				"y": 2.725684481,
				"z": -0.055324831,
				"element": "H" 
			},
			{
				"x": -1.848786679,
				"y": 3.6385864207,
				"z": 1.1526991877,
				"element": "H" 
			},
			{
				"x": -1.0429890535,
				"y": 2.9599535173,
				"z": -0.260312626,
				"element": "H" 
			},
			{
				"x": -2.7930380649,
				"y": 2.2978037596,
				"z": 2.9367386308,
				"element": "H" 
			},
			{
				"x": -2.7375170234,
				"y": 0.5330701794,
				"z": 2.962793358,
				"element": "H" 
			},
			{
				"x": -3.765871646,
				"y": 1.3748140354,
				"z": 1.7882830963,
				"element": "H" 
			},
			{
				"x": 0.6001957012,
				"y": 1.6174571796,
				"z": 1.6177989577,
				"element": "H" 
			},
			{
				"x": -0.3771556877,
				"y": 2.4336249826,
				"z": 2.8358963437,
				"element": "H" 
			},
			{
				"x": -0.2517202143,
				"y": 0.666050097,
				"z": 2.819662053,
				"element": "H" 
			},
			{
				"x": -3.3184467351,
				"y": -0.7214820902,
				"z": 1.2501518401,
				"element": "H" 
			},
			{
				"x": -1.4793493189,
				"y": -2.9435361207,
				"z": -1.8759092627,
				"element": "H" 
			},
			{
				"x": 0.2925055561,
				"y": 1.7143650855,
				"z": -0.1751516889,
				"element": "H" 
			},
			{
				"x": 0.6923053881,
				"y": 0.8558554078,
				"z": -3.0853339575,
				"element": "H" 
			},
			{
				"x": 1.3146226884,
				"y": -0.2689859951,
				"z": -4.3035027216,
				"element": "H" 
			},
			{
				"x": -0.431392203,
				"y": -0.1080772289,
				"z": -4.0591547,
				"element": "H" 
			},
			{
				"x": -0.5177800667,
				"y": -2.6361736324,
				"z": -3.8325086186,
				"element": "H" 
			},
			{
				"x": 0.4929891345,
				"y": -3.4665501048,
				"z": -2.627782292,
				"element": "H" 
			},
			{
				"x": 1.2347635002,
				"y": -2.674431866,
				"z": -4.0173437798,
				"element": "H" 
			},
			{
				"x": 2.7602390017,
				"y": -1.4567465331,
				"z": -2.5804781796,
				"element": "H" 
			},
			{
				"x": 2.1989208404,
				"y": -0.3806337587,
				"z": -1.2910381141,
				"element": "H" 
			},
			{
				"x": 2.0390693624,
				"y": -2.1367673341,
				"z": -1.1134643156,
				"element": "H" 
			},
			{
				"x": -3.3392538404,
				"y": -3.5384594214,
				"z": -1.9008457625,
				"element": "H" 
			}
		],
		 "valence_orbital": [ 
			{
				"type": "occ",
				"energy": -0.31461,
				"method": "rhf"
			},
			{
				"type": "occ",
				"energy": -0.30398,
				"method": "rhf"
			},
			{
				"type": "occ",
				"energy": -0.26326,
				"method": "rhf"
			},
			{
				"type": "occ",
				"energy": -0.25494,
				"method": "rhf"
			},
			{
				"type": "occ",
				"energy": -0.23002,
				"method": "rhf"
			},
			{
				"type": "unocc",
				"energy": -0.03561,
				"method": "rhf"
			},
			{
				"type": "unocc",
				"energy": -0.01238,
				"method": "rhf"
			},
			{
				"type": "unocc",
				"energy": 0.05147,
				"method": "rhf"
			},
			{
				"type": "unocc",
				"energy": 0.0572,
				"method": "rhf"
			},
			{
				"type": "unocc",
				"energy": 0.06739,
				"method": "rhf"
			}
		],
		"cosmo_sigma_profile": { 
			"-0.025": 0.0,
			"-0.024": 0.0,
			"-0.023": 0.0,
			"-0.022": 0.0,
			"-0.021": 0.0,
			"-0.02": 0.0,
			"-0.019": 0.0,
			"-0.018": 0.162972155993,
			"-0.017": 0.930500880271,
			"-0.016": 0.821179252687,
			"-0.015": 1.43998018646,
			"-0.014": 1.57864420231,
			"-0.013": 1.08834737,
			"-0.012": 1.67646754569,
			"-0.011": 2.28020514042,
			"-0.01": 1.84904371096,
			"-0.009": 1.95528024799,
			"-0.008": 1.2761281988,
			"-0.007": 2.29770294393,
			"-0.006": 3.6925342688,
			"-0.005": 4.31296134442,
			"-0.004": 12.3125197139,
			"-0.003": 34.2940452761,
			"-0.002": 37.9992845373,
			"-0.001": 34.8118910537,
			"0.0": 38.0004916379,
			"0.001": 36.4266392567,
			"0.002": 23.286192987,
			"0.003": 14.44565286,
			"0.004": 13.5452640896,
			"0.005": 3.8585114463,
			"0.006": 3.35884572757,
			"0.007": 2.55060009959,
			"0.008": 2.50138032173,
			"0.009": 2.8876872995,
			"0.01": 3.59769553712,
			"0.011": 5.45235528999,
			"0.012": 5.64955398474,
			"0.013": 3.39182013314,
			"0.014": 0.652400581455,
			"0.015": 0.0,
			"0.016": 0.0,
			"0.017": 0.0,
			"0.018": 0.0,
			"0.019": 0.0,
			"0.02": 0.0,
			"0.021": 0.0,
			"0.022": 0.0,
			"0.023": 0.0,
			"0.024": 0.0,
			"0.025": 0.0
		}
	}
}
