{
	 "smiles": "N#CC1=NC=CC=C1N1CCCCC1", 
	 "Tm": 341.15, 
	 "num_atms": 27, 
	 "gaussian": { 
		 "optdone": 1, 
		 "sigma_profile": "yes", 
		 "theory": "DFT", 
		 "functional": "B3LYP", 
		 "basiset": "6-31G**", 
		 "properties": { 
			 "R2extent": 3785.677, 
			 "electric_dipole_moment_norm": 6.42274491475, 
			 "electric_quadrupole_moment_norm": 27.546345371, 
			 "total_energy": -591.230866073, 
			 "HOMO_LUMO_gap": 0.16055, 
			 "cosmo_polarized_energy": -12.59, 
			 "cosmo_cavitation_energy": 29.31, 
			 "cosmo_dispersion_energy": -21.18, 
			 "cosmo_repulsion_energy": 1.66, 
			 "cosmo_total_nonelectrostatic_energy": 9.78, 
			 "SMD_solvation_energy": 3.29 
		},
		"coords": [
			{
				"x": -0.617016483,
				"y": 4.1870135845,
				"z": -2.3428080493,
				"element": "N" 
			},
			{
				"x": -1.1933142898,
				"y": 3.3374564419,
				"z": -1.7946707735,
				"element": "C" 
			},
			{
				"x": -1.9174151307,
				"y": 2.32141343,
				"z": -1.0737808264,
				"element": "C" 
			},
			{
				"x": -3.2516308731,
				"y": 2.4885588721,
				"z": -1.0860454662,
				"element": "N" 
			},
			{
				"x": -4.0061469779,
				"y": 1.6859218896,
				"z": -0.3431630351,
				"element": "C" 
			},
			{
				"x": -3.4562317289,
				"y": 0.6875427018,
				"z": 0.4686474044,
				"element": "C" 
			},
			{
				"x": -2.0849504474,
				"y": 0.4919576905,
				"z": 0.4703070908,
				"element": "C" 
			},
			{
				"x": -1.2462508174,
				"y": 1.293510763,
				"z": -0.341765805,
				"element": "C" 
			},
			{
				"x": 0.117638137,
				"y": 1.095652829,
				"z": -0.3824350794,
				"element": "N" 
			},
			{
				"x": 0.7619017806,
				"y": 0.3059205639,
				"z": 0.6739272748,
				"element": "C" 
			},
			{
				"x": 2.2721946109,
				"y": 0.5559248064,
				"z": 0.6746494325,
				"element": "C" 
			},
			{
				"x": 2.9262001932,
				"y": 0.1095901557,
				"z": -0.6519005038,
				"element": "C" 
			},
			{
				"x": 1.9207085666,
				"y": 0.1996575416,
				"z": -1.8191524304,
				"element": "C" 
			},
			{
				"x": 0.9055002247,
				"y": 1.3286561712,
				"z": -1.6107596239,
				"element": "C" 
			},
			{
				"x": -5.0795479445,
				"y": 1.8550327842,
				"z": -0.379943076,
				"element": "H" 
			},
			{
				"x": -4.099061968,
				"y": 0.0618335327,
				"z": 1.0806272719,
				"element": "H" 
			},
			{
				"x": -1.6576562781,
				"y": -0.2997807959,
				"z": 1.0732032059,
				"element": "H" 
			},
			{
				"x": 0.3364905995,
				"y": 0.6060025589,
				"z": 1.6373409169,
				"element": "H" 
			},
			{
				"x": 0.5640219221,
				"y": -0.7734448893,
				"z": 0.5560461018,
				"element": "H" 
			},
			{
				"x": 2.4388651802,
				"y": 1.6265681476,
				"z": 0.838281492,
				"element": "H" 
			},
			{
				"x": 2.7199890181,
				"y": 0.0346563675,
				"z": 1.5269803802,
				"element": "H" 
			},
			{
				"x": 3.2957639217,
				"y": -0.9183834944,
				"z": -0.5678270235,
				"element": "H" 
			},
			{
				"x": 3.8002118854,
				"y": 0.7378165411,
				"z": -0.8547245527,
				"element": "H" 
			},
			{
				"x": 1.3742737297,
				"y": -0.7455004956,
				"z": -1.9217511192,
				"element": "H" 
			},
			{
				"x": 2.4404659726,
				"y": 0.3635100285,
				"z": -2.7688359549,
				"element": "H" 
			},
			{
				"x": 1.4169185466,
				"y": 2.2983304442,
				"z": -1.5750444727,
				"element": "H" 
			},
			{
				"x": 0.2198786499,
				"y": 1.3659818295,
				"z": -2.4600027792,
				"element": "H" 
			}
		],
		 "valence_orbital": [ 
			{
				"type": "occ",
				"energy": -0.31718,
				"method": "rhf"
			},
			{
				"type": "occ",
				"energy": -0.3084,
				"method": "rhf"
			},
			{
				"type": "occ",
				"energy": -0.2767,
				"method": "rhf"
			},
			{
				"type": "occ",
				"energy": -0.26637,
				"method": "rhf"
			},
			{
				"type": "occ",
				"energy": -0.21079,
				"method": "rhf"
			},
			{
				"type": "unocc",
				"energy": -0.05024,
				"method": "rhf"
			},
			{
				"type": "unocc",
				"energy": -0.01505,
				"method": "rhf"
			},
			{
				"type": "unocc",
				"energy": 0.04073,
				"method": "rhf"
			},
			{
				"type": "unocc",
				"energy": 0.0654,
				"method": "rhf"
			},
			{
				"type": "unocc",
				"energy": 0.08096,
				"method": "rhf"
			}
		],
		"cosmo_sigma_profile": { 
			"-0.025": 0.0,
			"-0.024": 0.0,
			"-0.023": 0.0,
			"-0.022": 0.0,
			"-0.021": 0.0,
			"-0.02": 0.0,
			"-0.019": 0.0,
			"-0.018": 0.0,
			"-0.017": 0.0,
			"-0.016": 0.0,
			"-0.015": 0.0,
			"-0.014": 0.0,
			"-0.013": 0.0,
			"-0.012": 0.0,
			"-0.011": 0.0,
			"-0.01": 0.0,
			"-0.009": 0.0,
			"-0.008": 0.70661918874,
			"-0.007": 5.51280306244,
			"-0.006": 8.8502277752,
			"-0.005": 11.7013538063,
			"-0.004": 17.3643759536,
			"-0.003": 32.1806948653,
			"-0.002": 33.582649934,
			"-0.001": 20.8984025396,
			"0.0": 23.4666761984,
			"0.001": 16.1362697647,
			"0.002": 13.3713114615,
			"0.003": 7.37813256169,
			"0.004": 4.54707811729,
			"0.005": 3.91217257405,
			"0.006": 4.46086720045,
			"0.007": 4.24983010711,
			"0.008": 4.4161226329,
			"0.009": 3.95247913246,
			"0.01": 3.88693402386,
			"0.011": 3.99490597864,
			"0.012": 3.26908173288,
			"0.013": 2.87196536191,
			"0.014": 1.05636251415,
			"0.015": 0.267704806827,
			"0.016": 0.0,
			"0.017": 0.0,
			"0.018": 0.0,
			"0.019": 0.0,
			"0.02": 0.0,
			"0.021": 0.0,
			"0.022": 0.0,
			"0.023": 0.0,
			"0.024": 0.0,
			"0.025": 0.0
		}
	}
}
