{
	 "smiles": "CC1=C(C=CC=C1)N1C(Cl)=NN=C1C1=C(C)C=CC=C1", 
	 "Tm": 474.15, 
	 "num_atms": 34, 
	 "gaussian": { 
		 "optdone": 1, 
		 "sigma_profile": "yes", 
		 "theory": "DFT", 
		 "functional": "B3LYP", 
		 "basiset": "6-31G**", 
		 "properties": { 
			 "R2extent": 5800.8849, 
			 "electric_dipole_moment_norm": 5.75570316469, 
			 "electric_quadrupole_moment_norm": 17.9965373547, 
			 "total_energy": -1242.57291048, 
			 "HOMO_LUMO_gap": 0.19767, 
			 "cosmo_polarized_energy": -13.61, 
			 "cosmo_cavitation_energy": 38.94, 
			 "cosmo_dispersion_energy": -26.33, 
			 "cosmo_repulsion_energy": 2.02, 
			 "cosmo_total_nonelectrostatic_energy": 14.63, 
			 "SMD_solvation_energy": 4.84 
		},
		"coords": [
			{
				"x": 0.2214959675,
				"y": 0.977806916,
				"z": -2.987107656,
				"element": "C" 
			},
			{
				"x": 1.0500390931,
				"y": -0.0554200013,
				"z": -2.2632355224,
				"element": "C" 
			},
			{
				"x": 0.4875498767,
				"y": -0.9405064521,
				"z": -1.3258651486,
				"element": "C" 
			},
			{
				"x": 1.2621854136,
				"y": -1.8915704651,
				"z": -0.6582719653,
				"element": "C" 
			},
			{
				"x": 2.6284805578,
				"y": -1.9796179108,
				"z": -0.9149493515,
				"element": "C" 
			},
			{
				"x": 3.208924081,
				"y": -1.116026732,
				"z": -1.8442579652,
				"element": "C" 
			},
			{
				"x": 2.4253973094,
				"y": -0.1698262173,
				"z": -2.5046620313,
				"element": "C" 
			},
			{
				"x": -0.9180673258,
				"y": -0.8813468812,
				"z": -1.0319149148,
				"element": "N" 
			},
			{
				"x": -1.9465017669,
				"y": -1.3870770592,
				"z": -1.7949217102,
				"element": "C" 
			},
			{
				"x": -1.691583491,
				"y": -2.1139981715,
				"z": -3.334043744,
				"element": "Cl" 
			},
			{
				"x": -3.101717637,
				"y": -1.2762852729,
				"z": -1.2025484673,
				"element": "N" 
			},
			{
				"x": -2.8582849073,
				"y": -0.6795488468,
				"z": 0.014486145,
				"element": "N" 
			},
			{
				"x": -1.5645428244,
				"y": -0.4500674284,
				"z": 0.1243191423,
				"element": "C" 
			},
			{
				"x": -0.9083669153,
				"y": 0.1822161108,
				"z": 1.2840767537,
				"element": "C" 
			},
			{
				"x": -1.3078000881,
				"y": -0.1418206747,
				"z": 2.6044873655,
				"element": "C" 
			},
			{
				"x": -2.384344688,
				"y": -1.1564902482,
				"z": 2.9103312793,
				"element": "C" 
			},
			{
				"x": -0.6645147889,
				"y": 0.5127803566,
				"z": 3.6625263842,
				"element": "C" 
			},
			{
				"x": 0.3367547661,
				"y": 1.459346859,
				"z": 3.4488941534,
				"element": "C" 
			},
			{
				"x": 0.7211449486,
				"y": 1.7757838301,
				"z": 2.1471247045,
				"element": "C" 
			},
			{
				"x": 0.0987624099,
				"y": 1.139199647,
				"z": 1.0769661841,
				"element": "C" 
			},
			{
				"x": -0.3871303064,
				"y": 0.5194588089,
				"z": -3.7743333812,
				"element": "H" 
			},
			{
				"x": -0.4675853249,
				"y": 1.4948775926,
				"z": -2.3119365427,
				"element": "H" 
			},
			{
				"x": 0.8646517044,
				"y": 1.7260553095,
				"z": -3.4567533089,
				"element": "H" 
			},
			{
				"x": 0.7852005112,
				"y": -2.5531769751,
				"z": 0.0575134426,
				"element": "H" 
			},
			{
				"x": 3.2310968028,
				"y": -2.7175004314,
				"z": -0.3949316671,
				"element": "H" 
			},
			{
				"x": 4.2728503548,
				"y": -1.1753811785,
				"z": -2.0536626479,
				"element": "H" 
			},
			{
				"x": 2.8863967361,
				"y": 0.5027796256,
				"z": -3.2228255471,
				"element": "H" 
			},
			{
				"x": -2.4051936732,
				"y": -1.376493024,
				"z": 3.9811636737,
				"element": "H" 
			},
			{
				"x": -2.2252586856,
				"y": -2.0938558625,
				"z": 2.3682292293,
				"element": "H" 
			},
			{
				"x": -3.3694090599,
				"y": -0.7947865647,
				"z": 2.6048224118,
				"element": "H" 
			},
			{
				"x": -0.9589825875,
				"y": 0.2672372068,
				"z": 4.679433796,
				"element": "H" 
			},
			{
				"x": 0.812242839,
				"y": 1.945751242,
				"z": 4.2958287172,
				"element": "H" 
			},
			{
				"x": 1.4945166284,
				"y": 2.5151596799,
				"z": 1.9623899691,
				"element": "H" 
			},
			{
				"x": 0.3908940698,
				"y": 1.3961432128,
				"z": 0.0650282198,
				"element": "H" 
			}
		],
		 "valence_orbital": [ 
			{
				"type": "occ",
				"energy": -0.27158,
				"method": "rhf"
			},
			{
				"type": "occ",
				"energy": -0.26462,
				"method": "rhf"
			},
			{
				"type": "occ",
				"energy": -0.25314,
				"method": "rhf"
			},
			{
				"type": "occ",
				"energy": -0.24744,
				"method": "rhf"
			},
			{
				"type": "occ",
				"energy": -0.23192,
				"method": "rhf"
			},
			{
				"type": "unocc",
				"energy": -0.03425,
				"method": "rhf"
			},
			{
				"type": "unocc",
				"energy": -0.02864,
				"method": "rhf"
			},
			{
				"type": "unocc",
				"energy": -0.02035,
				"method": "rhf"
			},
			{
				"type": "unocc",
				"energy": -0.00328,
				"method": "rhf"
			},
			{
				"type": "unocc",
				"energy": 0.01984,
				"method": "rhf"
			}
		],
		"cosmo_sigma_profile": { 
			"-0.025": 0.0,
			"-0.024": 0.0,
			"-0.023": 0.0,
			"-0.022": 0.0,
			"-0.021": 0.0,
			"-0.02": 0.0,
			"-0.019": 0.0,
			"-0.018": 0.0,
			"-0.017": 0.0,
			"-0.016": 0.0,
			"-0.015": 0.0,
			"-0.014": 0.0,
			"-0.013": 0.0,
			"-0.012": 0.0,
			"-0.011": 0.0,
			"-0.01": 0.0565354497494,
			"-0.009": 0.285728217233,
			"-0.008": 0.483942378806,
			"-0.007": 3.93389400744,
			"-0.006": 17.1350181825,
			"-0.005": 25.62604479,
			"-0.004": 29.7392900185,
			"-0.003": 27.1527479663,
			"-0.002": 26.0578788098,
			"-0.001": 27.1921431097,
			"0.0": 27.6866239486,
			"0.001": 22.3611201029,
			"0.002": 23.6966295072,
			"0.003": 24.7987104905,
			"0.004": 22.3246271766,
			"0.005": 11.0557721903,
			"0.006": 2.33950077064,
			"0.007": 2.13031499414,
			"0.008": 2.24095314113,
			"0.009": 2.38737223389,
			"0.01": 2.21879396114,
			"0.011": 2.39140977826,
			"0.012": 4.09894024061,
			"0.013": 2.4567043813,
			"0.014": 2.61942613424,
			"0.015": 1.13919278279,
			"0.016": 0.250009317794,
			"0.017": 0.0,
			"0.018": 0.0,
			"0.019": 0.0,
			"0.02": 0.0,
			"0.021": 0.0,
			"0.022": 0.0,
			"0.023": 0.0,
			"0.024": 0.0,
			"0.025": 0.0
		}
	}
}
