{
	 "smiles": "OC(=O)CSC1=CC=C(Br)C=C1", 
	 "Tm": 391.15, 
	 "num_atms": 19, 
	 "gaussian": { 
		 "optdone": 1, 
		 "sigma_profile": "yes", 
		 "theory": "DFT", 
		 "functional": "B3LYP", 
		 "basiset": "6-31G**", 
		 "properties": { 
			 "R2extent": 6666.9799, 
			 "electric_dipole_moment_norm": 2.50352785485, 
			 "electric_quadrupole_moment_norm": 7.25580943589, 
			 "total_energy": -3429.11822724, 
			 "HOMO_LUMO_gap": 0.19044, 
			 "cosmo_polarized_energy": -10.53, 
			 "cosmo_cavitation_energy": 27.65, 
			 "cosmo_dispersion_energy": -21.04, 
			 "cosmo_repulsion_energy": 1.64, 
			 "cosmo_total_nonelectrostatic_energy": 8.25, 
			 "SMD_solvation_energy": 4.4 
		},
		"coords": [
			{
				"x": 3.1878889594,
				"y": 0.3748137719,
				"z": -0.8000322763,
				"element": "O" 
			},
			{
				"x": 1.9884472818,
				"y": -0.2090734344,
				"z": -1.001300588,
				"element": "C" 
			},
			{
				"x": 1.8570100414,
				"y": -1.4001928338,
				"z": -1.1889494645,
				"element": "O" 
			},
			{
				"x": 0.8613117962,
				"y": 0.8005955508,
				"z": -0.9414698712,
				"element": "C" 
			},
			{
				"x": 0.207084076,
				"y": 1.0114842563,
				"z": 0.7690362818,
				"element": "S" 
			},
			{
				"x": -1.158638001,
				"y": -0.1459322443,
				"z": 0.8343779191,
				"element": "C" 
			},
			{
				"x": -2.269517111,
				"y": 0.2334403244,
				"z": 1.6011271436,
				"element": "C" 
			},
			{
				"x": -3.3540362548,
				"y": -0.629266331,
				"z": 1.750818842,
				"element": "C" 
			},
			{
				"x": -3.3337187638,
				"y": -1.8671371458,
				"z": 1.1106383417,
				"element": "C" 
			},
			{
				"x": -4.826825251,
				"y": -3.0458441487,
				"z": 1.2931219439,
				"element": "Br" 
			},
			{
				"x": -2.2408168481,
				"y": -2.2555213698,
				"z": 0.3386391746,
				"element": "C" 
			},
			{
				"x": -1.1442955842,
				"y": -1.4014104114,
				"z": 0.2116842758,
				"element": "C" 
			},
			{
				"x": 3.8484410912,
				"y": -0.3387966349,
				"z": -0.8056882636,
				"element": "H" 
			},
			{
				"x": 0.0494407781,
				"y": 0.4827011366,
				"z": -1.5963137643,
				"element": "H" 
			},
			{
				"x": 1.2208778433,
				"y": 1.7849058229,
				"z": -1.2467380997,
				"element": "H" 
			},
			{
				"x": -2.2945997,
				"y": 1.2104526225,
				"z": 2.0742347613,
				"element": "H" 
			},
			{
				"x": -4.2119224581,
				"y": -0.3332640242,
				"z": 2.3437683252,
				"element": "H" 
			},
			{
				"x": -2.2340025074,
				"y": -3.2236534899,
				"z": -0.1493629645,
				"element": "H" 
			},
			{
				"x": -0.2833293882,
				"y": -1.7232014173,
				"z": -0.3652917168,
				"element": "H" 
			}
		],
		 "valence_orbital": [ 
			{
				"type": "occ",
				"energy": -0.29656,
				"method": "rhf"
			},
			{
				"type": "occ",
				"energy": -0.28753,
				"method": "rhf"
			},
			{
				"type": "occ",
				"energy": -0.26889,
				"method": "rhf"
			},
			{
				"type": "occ",
				"energy": -0.26711,
				"method": "rhf"
			},
			{
				"type": "occ",
				"energy": -0.22318,
				"method": "rhf"
			},
			{
				"type": "unocc",
				"energy": -0.03274,
				"method": "rhf"
			},
			{
				"type": "unocc",
				"energy": -0.01952,
				"method": "rhf"
			},
			{
				"type": "unocc",
				"energy": -0.01342,
				"method": "rhf"
			},
			{
				"type": "unocc",
				"energy": 0.00622,
				"method": "rhf"
			},
			{
				"type": "unocc",
				"energy": 0.03542,
				"method": "rhf"
			}
		],
		"cosmo_sigma_profile": { 
			"-0.025": 0.0,
			"-0.024": 0.0,
			"-0.023": 0.0,
			"-0.022": 0.0,
			"-0.021": 0.0,
			"-0.02": 0.0,
			"-0.019": 0.401834357186,
			"-0.018": 0.793542904191,
			"-0.017": 1.26012909084,
			"-0.016": 1.10589555958,
			"-0.015": 0.365228671867,
			"-0.014": 0.50976814854,
			"-0.013": 0.444338617291,
			"-0.012": 0.754332085994,
			"-0.011": 1.24635176114,
			"-0.01": 0.61839403597,
			"-0.009": 1.04032324414,
			"-0.008": 4.36924774249,
			"-0.007": 10.7028230988,
			"-0.006": 11.5995936138,
			"-0.005": 11.3133878361,
			"-0.004": 10.9469109061,
			"-0.003": 11.6488173721,
			"-0.002": 10.369806627,
			"-0.001": 11.687562167,
			"0.0": 14.4646410819,
			"0.001": 18.062708367,
			"0.002": 23.3506600285,
			"0.003": 26.8360651097,
			"0.004": 19.2980415242,
			"0.005": 11.1109814516,
			"0.006": 5.74131025837,
			"0.007": 3.88167592559,
			"0.008": 3.92249840423,
			"0.009": 2.07558571194,
			"0.01": 2.78200857319,
			"0.011": 3.43956867989,
			"0.012": 0.462703488883,
			"0.013": 0.0,
			"0.014": 0.0,
			"0.015": 0.0,
			"0.016": 0.0,
			"0.017": 0.0,
			"0.018": 0.0,
			"0.019": 0.0,
			"0.02": 0.0,
			"0.021": 0.0,
			"0.022": 0.0,
			"0.023": 0.0,
			"0.024": 0.0,
			"0.025": 0.0
		}
	}
}
