{
	 "smiles": "CCOC(=O)C1=C(N)N(C)N=C1C", 
	 "Tm": 375.15, 
	 "num_atms": 26, 
	 "gaussian": { 
		 "optdone": 1, 
		 "sigma_profile": "yes", 
		 "theory": "DFT", 
		 "functional": "B3LYP", 
		 "basiset": "6-31G**", 
		 "properties": { 
			 "R2extent": 2963.9523, 
			 "electric_dipole_moment_norm": 1.73056741273, 
			 "electric_quadrupole_moment_norm": 17.4368802906, 
			 "total_energy": -627.407236192, 
			 "HOMO_LUMO_gap": 0.20724, 
			 "cosmo_polarized_energy": -12.63, 
			 "cosmo_cavitation_energy": 29.37, 
			 "cosmo_dispersion_energy": -21.23, 
			 "cosmo_repulsion_energy": 1.71, 
			 "cosmo_total_nonelectrostatic_energy": 9.86, 
			 "SMD_solvation_energy": 5.12 
		},
		"coords": [
			{
				"x": 2.1133545714,
				"y": -1.9013762705,
				"z": 3.0372242622,
				"element": "C" 
			},
			{
				"x": 1.1430393011,
				"y": -2.4282329662,
				"z": 1.9898513636,
				"element": "C" 
			},
			{
				"x": 0.8381833429,
				"y": -1.4223730583,
				"z": 0.9980684129,
				"element": "O" 
			},
			{
				"x": -0.1543261313,
				"y": -0.5503676469,
				"z": 1.3034664098,
				"element": "C" 
			},
			{
				"x": -0.7825308206,
				"y": -0.602206079,
				"z": 2.3613595095,
				"element": "O" 
			},
			{
				"x": -0.401047539,
				"y": 0.4252090575,
				"z": 0.2643002868,
				"element": "C" 
			},
			{
				"x": -1.4049214267,
				"y": 1.4014622793,
				"z": 0.3733306616,
				"element": "C" 
			},
			{
				"x": -2.2278163915,
				"y": 1.6821688691,
				"z": 1.4369231506,
				"element": "N" 
			},
			{
				"x": -1.378619547,
				"y": 2.1115432723,
				"z": -0.7750548286,
				"element": "N" 
			},
			{
				"x": -2.2176650515,
				"y": 3.2301458849,
				"z": -1.1433994697,
				"element": "C" 
			},
			{
				"x": -0.4182151382,
				"y": 1.6478803401,
				"z": -1.6527736486,
				"element": "N" 
			},
			{
				"x": 0.1738590843,
				"y": 0.6428908042,
				"z": -1.0288154737,
				"element": "C" 
			},
			{
				"x": 1.2911509021,
				"y": -0.0980786541,
				"z": -1.6939697659,
				"element": "C" 
			},
			{
				"x": 3.0270597069,
				"y": -1.5251611437,
				"z": 2.5674486508,
				"element": "H" 
			},
			{
				"x": 1.6527751748,
				"y": -1.0946291447,
				"z": 3.6123107217,
				"element": "H" 
			},
			{
				"x": 2.3880288032,
				"y": -2.7047888713,
				"z": 3.7292442447,
				"element": "H" 
			},
			{
				"x": 1.5814517038,
				"y": -3.2495167715,
				"z": 1.4172010412,
				"element": "H" 
			},
			{
				"x": 0.2122680307,
				"y": -2.765162245,
				"z": 2.4521123923,
				"element": "H" 
			},
			{
				"x": -2.1452551241,
				"y": 0.9624891434,
				"z": 2.1514604414,
				"element": "H" 
			},
			{
				"x": -3.1782041745,
				"y": 1.9481839156,
				"z": 1.2172599082,
				"element": "H" 
			},
			{
				"x": -3.1934167136,
				"y": 2.9041296044,
				"z": -1.5248231658,
				"element": "H" 
			},
			{
				"x": -1.7021284415,
				"y": 3.7845608369,
				"z": -1.9274410633,
				"element": "H" 
			},
			{
				"x": -2.3682231236,
				"y": 3.8811236658,
				"z": -0.2768496814,
				"element": "H" 
			},
			{
				"x": 1.0479121553,
				"y": -1.1588325567,
				"z": -1.8101901135,
				"element": "H" 
			},
			{
				"x": 1.4797232974,
				"y": 0.3356229836,
				"z": -2.6783602347,
				"element": "H" 
			},
			{
				"x": 2.2077635494,
				"y": -0.0477852492,
				"z": -1.0980840124,
				"element": "H" 
			}
		],
		 "valence_orbital": [ 
			{
				"type": "occ",
				"energy": -0.28896,
				"method": "rhf"
			},
			{
				"type": "occ",
				"energy": -0.28573,
				"method": "rhf"
			},
			{
				"type": "occ",
				"energy": -0.26259,
				"method": "rhf"
			},
			{
				"type": "occ",
				"energy": -0.23822,
				"method": "rhf"
			},
			{
				"type": "occ",
				"energy": -0.2092,
				"method": "rhf"
			},
			{
				"type": "unocc",
				"energy": -0.00196,
				"method": "rhf"
			},
			{
				"type": "unocc",
				"energy": 0.03714,
				"method": "rhf"
			},
			{
				"type": "unocc",
				"energy": 0.07505,
				"method": "rhf"
			},
			{
				"type": "unocc",
				"energy": 0.11198,
				"method": "rhf"
			},
			{
				"type": "unocc",
				"energy": 0.11939,
				"method": "rhf"
			}
		],
		"cosmo_sigma_profile": { 
			"-0.025": 0.0,
			"-0.024": 0.0,
			"-0.023": 0.0,
			"-0.022": 0.0,
			"-0.021": 0.0,
			"-0.02": 0.0,
			"-0.019": 0.0,
			"-0.018": 0.0,
			"-0.017": 0.0,
			"-0.016": 0.0,
			"-0.015": 0.0045598746695,
			"-0.014": 0.689189419692,
			"-0.013": 1.25476104214,
			"-0.012": 1.42173079496,
			"-0.011": 1.77325531942,
			"-0.01": 1.79158135032,
			"-0.009": 2.5516265098,
			"-0.008": 2.01799194105,
			"-0.007": 2.77943428488,
			"-0.006": 8.84469964902,
			"-0.005": 10.7003833757,
			"-0.004": 19.2492785684,
			"-0.003": 24.227294444,
			"-0.002": 19.8807424295,
			"-0.001": 18.8272382601,
			"0.0": 23.6511148812,
			"0.001": 16.2631639696,
			"0.002": 12.9501353664,
			"0.003": 13.7847267806,
			"0.004": 9.87242214134,
			"0.005": 7.70950228718,
			"0.006": 5.5245997515,
			"0.007": 3.53161233272,
			"0.008": 4.06118425904,
			"0.009": 3.43694282328,
			"0.01": 3.14902757902,
			"0.011": 3.47089411753,
			"0.012": 3.56436766004,
			"0.013": 2.00722599618,
			"0.014": 0.81425473788,
			"0.015": 1.05666184686,
			"0.016": 0.394838020911,
			"0.017": 0.0,
			"0.018": 0.0,
			"0.019": 0.0,
			"0.02": 0.0,
			"0.021": 0.0,
			"0.022": 0.0,
			"0.023": 0.0,
			"0.024": 0.0,
			"0.025": 0.0
		}
	}
}
