{
	 "smiles": "OC(C(=O)C1=CC=CO1)C1=CC=CO1", 
	 "Tm": 410.15, 
	 "num_atms": 22, 
	 "gaussian": { 
		 "optdone": 1, 
		 "sigma_profile": "yes", 
		 "theory": "DFT", 
		 "functional": "B3LYP", 
		 "basiset": "6-31G**", 
		 "properties": { 
			 "R2extent": 2978.2956, 
			 "electric_dipole_moment_norm": 4.43984259406, 
			 "electric_quadrupole_moment_norm": 10.3636607876, 
			 "total_energy": -686.705214553, 
			 "HOMO_LUMO_gap": 0.15863, 
			 "cosmo_polarized_energy": -12.7, 
			 "cosmo_cavitation_energy": 27.48, 
			 "cosmo_dispersion_energy": -19.33, 
			 "cosmo_repulsion_energy": 1.53, 
			 "cosmo_total_nonelectrostatic_energy": 9.67, 
			 "SMD_solvation_energy": 7.02 
		},
		"coords": [
			{
				"x": -0.1714519796,
				"y": 1.4393397973,
				"z": 0.7055225631,
				"element": "O" 
			},
			{
				"x": -0.5211208974,
				"y": 0.7696537102,
				"z": -0.4937469511,
				"element": "C" 
			},
			{
				"x": -1.9374711896,
				"y": 0.1468055197,
				"z": -0.4340280789,
				"element": "C" 
			},
			{
				"x": -2.761342623,
				"y": 0.3697537177,
				"z": -1.3061414514,
				"element": "O" 
			},
			{
				"x": -2.2832229179,
				"y": -0.7092149753,
				"z": 0.7079731561,
				"element": "C" 
			},
			{
				"x": -3.4439851079,
				"y": -1.3698428554,
				"z": 1.0154758378,
				"element": "C" 
			},
			{
				"x": -3.208704012,
				"y": -2.0659102597,
				"z": 2.2360976443,
				"element": "C" 
			},
			{
				"x": -1.920832455,
				"y": -1.784330676,
				"z": 2.592584195,
				"element": "C" 
			},
			{
				"x": -1.340124836,
				"y": -0.9635442812,
				"z": 1.6800985457,
				"element": "O" 
			},
			{
				"x": 0.5226480502,
				"y": -0.248575625,
				"z": -0.8640721193,
				"element": "C" 
			},
			{
				"x": 1.8093464629,
				"y": -0.4312299597,
				"z": -0.4515539682,
				"element": "C" 
			},
			{
				"x": 2.3079189555,
				"y": -1.5610769652,
				"z": -1.1828184355,
				"element": "C" 
			},
			{
				"x": 1.2887253857,
				"y": -1.9771616907,
				"z": -1.9817446648,
				"element": "C" 
			},
			{
				"x": 0.1889227908,
				"y": -1.1873821445,
				"z": -1.7987062104,
				"element": "O" 
			},
			{
				"x": -0.0843347298,
				"y": 0.7645847996,
				"z": 1.3943383042,
				"element": "H" 
			},
			{
				"x": -0.5931344705,
				"y": 1.5437490928,
				"z": -1.2660120516,
				"element": "H" 
			},
			{
				"x": -4.3453369418,
				"y": -1.3486096417,
				"z": 0.4214117803,
				"element": "H" 
			},
			{
				"x": -3.8998437345,
				"y": -2.6944864121,
				"z": 2.778437628,
				"element": "H" 
			},
			{
				"x": -1.3005833653,
				"y": -2.0777115703,
				"z": 3.4256892031,
				"element": "H" 
			},
			{
				"x": 2.3369032351,
				"y": 0.1741588793,
				"z": 0.2701904125,
				"element": "H" 
			},
			{
				"x": 3.2943485578,
				"y": -1.9977426323,
				"z": -1.1196273377,
				"element": "H" 
			},
			{
				"x": 1.1788758225,
				"y": -2.7735258276,
				"z": -2.7010680012,
				"element": "H" 
			}
		],
		 "valence_orbital": [ 
			{
				"type": "occ",
				"energy": -0.30131,
				"method": "rhf"
			},
			{
				"type": "occ",
				"energy": -0.27863,
				"method": "rhf"
			},
			{
				"type": "occ",
				"energy": -0.25391,
				"method": "rhf"
			},
			{
				"type": "occ",
				"energy": -0.24819,
				"method": "rhf"
			},
			{
				"type": "occ",
				"energy": -0.22148,
				"method": "rhf"
			},
			{
				"type": "unocc",
				"energy": -0.06285,
				"method": "rhf"
			},
			{
				"type": "unocc",
				"energy": 0.01048,
				"method": "rhf"
			},
			{
				"type": "unocc",
				"energy": 0.02234,
				"method": "rhf"
			},
			{
				"type": "unocc",
				"energy": 0.06942,
				"method": "rhf"
			},
			{
				"type": "unocc",
				"energy": 0.07599,
				"method": "rhf"
			}
		],
		"cosmo_sigma_profile": { 
			"-0.025": 0.0,
			"-0.024": 0.0,
			"-0.023": 0.0,
			"-0.022": 0.0,
			"-0.021": 0.0,
			"-0.02": 0.0,
			"-0.019": 0.0,
			"-0.018": 0.0,
			"-0.017": 0.0,
			"-0.016": 0.0,
			"-0.015": 0.0,
			"-0.014": 0.0,
			"-0.013": 0.110707970659,
			"-0.012": 0.583303088591,
			"-0.011": 0.481523822154,
			"-0.01": 2.3559446289,
			"-0.009": 4.19569533512,
			"-0.008": 8.51706892894,
			"-0.007": 10.877928422,
			"-0.006": 12.2794764,
			"-0.005": 11.884486677,
			"-0.004": 12.4860314297,
			"-0.003": 12.5173771595,
			"-0.002": 11.5567293031,
			"-0.001": 13.4213386836,
			"0.0": 15.8567708764,
			"0.001": 18.0068491173,
			"0.002": 19.0022506986,
			"0.003": 14.7369617688,
			"0.004": 11.1242770922,
			"0.005": 10.7906100075,
			"0.006": 4.97471034132,
			"0.007": 4.03575833203,
			"0.008": 3.37084133973,
			"0.009": 2.3547639281,
			"0.01": 4.29273054797,
			"0.011": 5.63001122055,
			"0.012": 4.29901528563,
			"0.013": 1.23422143553,
			"0.014": 0.0,
			"0.015": 0.0,
			"0.016": 0.0,
			"0.017": 0.0,
			"0.018": 0.0,
			"0.019": 0.0,
			"0.02": 0.0,
			"0.021": 0.0,
			"0.022": 0.0,
			"0.023": 0.0,
			"0.024": 0.0,
			"0.025": 0.0
		}
	}
}
