{
	 "smiles": "OCC1=C(Cl)C(Cl)=CC=C1", 
	 "Tm": 364.15, 
	 "num_atms": 16, 
	 "gaussian": { 
		 "optdone": 1, 
		 "sigma_profile": "yes", 
		 "theory": "DFT", 
		 "functional": "B3LYP", 
		 "basiset": "6-31G**", 
		 "properties": { 
			 "R2extent": 3655.6931, 
			 "electric_dipole_moment_norm": 2.10017983278, 
			 "electric_quadrupole_moment_norm": 6.23374088409, 
			 "total_energy": -1265.95467272, 
			 "HOMO_LUMO_gap": 0.22486, 
			 "cosmo_polarized_energy": -7.4, 
			 "cosmo_cavitation_energy": 23.05, 
			 "cosmo_dispersion_energy": -17.5, 
			 "cosmo_repulsion_energy": 1.41, 
			 "cosmo_total_nonelectrostatic_energy": 6.97, 
			 "SMD_solvation_energy": 3.38 
		},
		"coords": [
			{
				"x": -2.9008922108,
				"y": 0.673572846,
				"z": 1.9673064268,
				"element": "O" 
			},
			{
				"x": -2.8014848411,
				"y": 0.0363122576,
				"z": 0.7031807971,
				"element": "C" 
			},
			{
				"x": -1.6260318606,
				"y": 0.5182187016,
				"z": -0.1314696134,
				"element": "C" 
			},
			{
				"x": -1.6138355176,
				"y": 1.7914631496,
				"z": -0.7251529064,
				"element": "C" 
			},
			{
				"x": -2.9942469367,
				"y": 2.8566309759,
				"z": -0.4975664175,
				"element": "Cl" 
			},
			{
				"x": -0.5197381248,
				"y": 2.2183326775,
				"z": -1.4883591558,
				"element": "C" 
			},
			{
				"x": -0.4884885157,
				"y": 3.7969759537,
				"z": -2.2383063311,
				"element": "Cl" 
			},
			{
				"x": 0.5784371434,
				"y": 1.3738907298,
				"z": -1.6658980666,
				"element": "C" 
			},
			{
				"x": 0.57872101,
				"y": 0.1110967914,
				"z": -1.0814057725,
				"element": "C" 
			},
			{
				"x": -0.5132253492,
				"y": -0.3067156758,
				"z": -0.3223101891,
				"element": "C" 
			},
			{
				"x": -3.1721840807,
				"y": 1.5882258818,
				"z": 1.8114195213,
				"element": "H" 
			},
			{
				"x": -2.6678570135,
				"y": -1.028273438,
				"z": 0.9134257102,
				"element": "H" 
			},
			{
				"x": -3.7302359218,
				"y": 0.1436790594,
				"z": 0.1244276084,
				"element": "H" 
			},
			{
				"x": 1.4182801873,
				"y": 1.7186644209,
				"z": -2.2584714885,
				"element": "H" 
			},
			{
				"x": 1.4331255081,
				"y": -0.5442809908,
				"z": -1.2179505561,
				"element": "H" 
			},
			{
				"x": -0.5100434764,
				"y": -1.2909933406,
				"z": 0.1368304331,
				"element": "H" 
			}
		],
		 "valence_orbital": [ 
			{
				"type": "occ",
				"energy": -0.33048,
				"method": "rhf"
			},
			{
				"type": "occ",
				"energy": -0.31498,
				"method": "rhf"
			},
			{
				"type": "occ",
				"energy": -0.27685,
				"method": "rhf"
			},
			{
				"type": "occ",
				"energy": -0.26314,
				"method": "rhf"
			},
			{
				"type": "occ",
				"energy": -0.25608,
				"method": "rhf"
			},
			{
				"type": "unocc",
				"energy": -0.03122,
				"method": "rhf"
			},
			{
				"type": "unocc",
				"energy": -0.02699,
				"method": "rhf"
			},
			{
				"type": "unocc",
				"energy": -0.00435,
				"method": "rhf"
			},
			{
				"type": "unocc",
				"energy": 0.05528,
				"method": "rhf"
			},
			{
				"type": "unocc",
				"energy": 0.09086,
				"method": "rhf"
			}
		],
		"cosmo_sigma_profile": { 
			"-0.025": 0.0,
			"-0.024": 0.0,
			"-0.023": 0.0,
			"-0.022": 0.0,
			"-0.021": 0.0,
			"-0.02": 0.0,
			"-0.019": 0.0,
			"-0.018": 0.0,
			"-0.017": 0.0,
			"-0.016": 0.0,
			"-0.015": 0.0,
			"-0.014": 0.0,
			"-0.013": 0.0866951512349,
			"-0.012": 0.90270385145,
			"-0.011": 0.361541439034,
			"-0.01": 0.730337255499,
			"-0.009": 0.727601913349,
			"-0.008": 2.11221349852,
			"-0.007": 9.62346558275,
			"-0.006": 9.4513399283,
			"-0.005": 10.8566699987,
			"-0.004": 9.86864707334,
			"-0.003": 12.9637452109,
			"-0.002": 11.979133257,
			"-0.001": 11.996239246,
			"0.0": 16.3747371865,
			"0.001": 19.2626036933,
			"0.002": 18.4115072631,
			"0.003": 18.3392219907,
			"0.004": 15.0627677581,
			"0.005": 5.93606680531,
			"0.006": 1.62427585638,
			"0.007": 1.41110035637,
			"0.008": 1.28979021321,
			"0.009": 1.22150053609,
			"0.01": 0.899421026421,
			"0.011": 1.20690933801,
			"0.012": 1.75555084817,
			"0.013": 1.79291154517,
			"0.014": 2.03329237177,
			"0.015": 0.0306361183428,
			"0.016": 0.0,
			"0.017": 0.0,
			"0.018": 0.0,
			"0.019": 0.0,
			"0.02": 0.0,
			"0.021": 0.0,
			"0.022": 0.0,
			"0.023": 0.0,
			"0.024": 0.0,
			"0.025": 0.0
		}
	}
}
