{
	 "smiles": "CC1=CC=C(O)C(=C1)C(O)C1=CC=C(Br)C=C1", 
	 "Tm": 380.15, 
	 "num_atms": 30, 
	 "gaussian": { 
		 "optdone": 1, 
		 "sigma_profile": "yes", 
		 "theory": "DFT", 
		 "functional": "B3LYP", 
		 "basiset": "6-31G**", 
		 "properties": { 
			 "R2extent": 7675.1274, 
			 "electric_dipole_moment_norm": 2.06704398115, 
			 "electric_quadrupole_moment_norm": 16.0218910944, 
			 "total_energy": -3263.17458309, 
			 "HOMO_LUMO_gap": 0.19519, 
			 "cosmo_polarized_energy": -12.98, 
			 "cosmo_cavitation_energy": 35.93, 
			 "cosmo_dispersion_energy": -25.95, 
			 "cosmo_repulsion_energy": 2.04, 
			 "cosmo_total_nonelectrostatic_energy": 12.03, 
			 "SMD_solvation_energy": 5.16 
		},
		"coords": [
			{
				"x": -5.6507416844,
				"y": -0.6559916458,
				"z": 1.9229482454,
				"element": "C" 
			},
			{
				"x": -4.2557739139,
				"y": -0.5463074813,
				"z": 2.4943102658,
				"element": "C" 
			},
			{
				"x": -3.9975421065,
				"y": 0.1928251948,
				"z": 3.6513019123,
				"element": "C" 
			},
			{
				"x": -2.7049846649,
				"y": 0.2871423365,
				"z": 4.169686008,
				"element": "C" 
			},
			{
				"x": -1.6464491381,
				"y": -0.3558292095,
				"z": 3.5296625914,
				"element": "C" 
			},
			{
				"x": -0.3598601666,
				"y": -0.3015219622,
				"z": 4.008354477,
				"element": "O" 
			},
			{
				"x": -1.8734547133,
				"y": -1.1015775785,
				"z": 2.3602425128,
				"element": "C" 
			},
			{
				"x": -3.1758822456,
				"y": -1.1867950279,
				"z": 1.8689525439,
				"element": "C" 
			},
			{
				"x": -0.7099910906,
				"y": -1.7893813045,
				"z": 1.6609177081,
				"element": "C" 
			},
			{
				"x": -1.2477187996,
				"y": -2.8459934353,
				"z": 0.8677666778,
				"element": "O" 
			},
			{
				"x": 0.1011852972,
				"y": -0.8168047732,
				"z": 0.8036990748,
				"element": "C" 
			},
			{
				"x": 1.3013545879,
				"y": -0.2707133361,
				"z": 1.2707219658,
				"element": "C" 
			},
			{
				"x": 2.0400977964,
				"y": 0.6164033018,
				"z": 0.4860699357,
				"element": "C" 
			},
			{
				"x": 1.5702386814,
				"y": 0.9532202942,
				"z": -0.7811271351,
				"element": "C" 
			},
			{
				"x": 2.5786468897,
				"y": 2.1624720782,
				"z": -1.8688883171,
				"element": "Br" 
			},
			{
				"x": 0.3795680602,
				"y": 0.4193174096,
				"z": -1.2728520662,
				"element": "C" 
			},
			{
				"x": -0.3477584494,
				"y": -0.4627895749,
				"z": -0.4754226891,
				"element": "C" 
			},
			{
				"x": -5.7318419994,
				"y": -0.1422045048,
				"z": 0.9572818547,
				"element": "H" 
			},
			{
				"x": -5.9343011266,
				"y": -1.7009322522,
				"z": 1.7546610325,
				"element": "H" 
			},
			{
				"x": -6.3920965846,
				"y": -0.2131706762,
				"z": 2.5943503047,
				"element": "H" 
			},
			{
				"x": -4.812367036,
				"y": 0.6989351632,
				"z": 4.1625704766,
				"element": "H" 
			},
			{
				"x": -2.5198833564,
				"y": 0.8592587339,
				"z": 5.0769906971,
				"element": "H" 
			},
			{
				"x": -0.3486957068,
				"y": 0.2273041785,
				"z": 4.816303539,
				"element": "H" 
			},
			{
				"x": -3.3459642024,
				"y": -1.7884639353,
				"z": 0.9820894912,
				"element": "H" 
			},
			{
				"x": -0.041631996,
				"y": -2.1940309063,
				"z": 2.4346492027,
				"element": "H" 
			},
			{
				"x": -0.5209822771,
				"y": -3.2084213231,
				"z": 0.3445411071,
				"element": "H" 
			},
			{
				"x": 1.6568779762,
				"y": -0.531709112,
				"z": 2.2624990614,
				"element": "H" 
			},
			{
				"x": 2.9707043922,
				"y": 1.0352474015,
				"z": 0.8521660681,
				"element": "H" 
			},
			{
				"x": 0.0284883755,
				"y": 0.6890577494,
				"z": -2.2625790707,
				"element": "H" 
			},
			{
				"x": -1.2725407986,
				"y": -0.8897458025,
				"z": -0.8508674757,
				"element": "H" 
			}
		],
		 "valence_orbital": [ 
			{
				"type": "occ",
				"energy": -0.27992,
				"method": "rhf"
			},
			{
				"type": "occ",
				"energy": -0.25897,
				"method": "rhf"
			},
			{
				"type": "occ",
				"energy": -0.24527,
				"method": "rhf"
			},
			{
				"type": "occ",
				"energy": -0.23268,
				"method": "rhf"
			},
			{
				"type": "occ",
				"energy": -0.21326,
				"method": "rhf"
			},
			{
				"type": "unocc",
				"energy": -0.01807,
				"method": "rhf"
			},
			{
				"type": "unocc",
				"energy": -0.01068,
				"method": "rhf"
			},
			{
				"type": "unocc",
				"energy": 0.00605,
				"method": "rhf"
			},
			{
				"type": "unocc",
				"energy": 0.01086,
				"method": "rhf"
			},
			{
				"type": "unocc",
				"energy": 0.01746,
				"method": "rhf"
			}
		],
		"cosmo_sigma_profile": { 
			"-0.025": 0.0,
			"-0.024": 0.0,
			"-0.023": 0.0,
			"-0.022": 0.0,
			"-0.021": 0.0,
			"-0.02": 0.0,
			"-0.019": 0.0,
			"-0.018": 0.349068986592,
			"-0.017": 0.952355732903,
			"-0.016": 1.59991619744,
			"-0.015": 1.8595064644,
			"-0.014": 1.64712642575,
			"-0.013": 2.0176246726,
			"-0.012": 1.19490115309,
			"-0.011": 2.1014646628,
			"-0.01": 2.32347375613,
			"-0.009": 1.47758654506,
			"-0.008": 1.71385040178,
			"-0.007": 4.32812404576,
			"-0.006": 7.90359335425,
			"-0.005": 12.517103958,
			"-0.004": 20.2493134069,
			"-0.003": 19.7320316358,
			"-0.002": 20.0672588017,
			"-0.001": 19.3863930358,
			"0.0": 22.9707795262,
			"0.001": 21.2866678188,
			"0.002": 21.3840719902,
			"0.003": 25.6041369576,
			"0.004": 31.3494257087,
			"0.005": 19.9751529832,
			"0.006": 11.8424473298,
			"0.007": 4.15229209043,
			"0.008": 2.3654760732,
			"0.009": 1.87882008489,
			"0.01": 1.44862743296,
			"0.011": 0.940661910488,
			"0.012": 1.0367945843,
			"0.013": 0.796053103398,
			"0.014": 0.224672947122,
			"0.015": 0.0,
			"0.016": 0.0,
			"0.017": 0.0,
			"0.018": 0.0,
			"0.019": 0.0,
			"0.02": 0.0,
			"0.021": 0.0,
			"0.022": 0.0,
			"0.023": 0.0,
			"0.024": 0.0,
			"0.025": 0.0
		}
	}
}
