{
	 "smiles": "[O-][N+](=O)C1=CC(=C(OC(F)(F)F)C=C1)[N+]([O-])=O", 
	 "Tm": 252.15, 
	 "num_atms": 20, 
	 "gaussian": { 
		 "optdone": 1, 
		 "sigma_profile": "yes", 
		 "theory": "DFT", 
		 "functional": "B3LYP", 
		 "basiset": "6-31G**", 
		 "properties": { 
			 "R2extent": 5325.0812, 
			 "electric_dipole_moment_norm": 3.46624110529, 
			 "electric_quadrupole_moment_norm": 12.3187618818, 
			 "total_energy": -1053.47571081, 
			 "HOMO_LUMO_gap": 0.18619, 
			 "cosmo_polarized_energy": -11.66, 
			 "cosmo_cavitation_energy": 28.5, 
			 "cosmo_dispersion_energy": -20.01, 
			 "cosmo_repulsion_energy": 1.48, 
			 "cosmo_total_nonelectrostatic_energy": 9.96, 
			 "SMD_solvation_energy": 10.83 
		},
		"coords": [
			{
				"x": -0.0548034057,
				"y": 0.3310938451,
				"z": 3.149595857,
				"element": "O" 
			},
			{
				"x": -0.6731584538,
				"y": 0.594703252,
				"z": 2.1221254401,
				"element": "N" 
			},
			{
				"x": -1.6829796605,
				"y": 1.291695721,
				"z": 2.0563882805,
				"element": "O" 
			},
			{
				"x": -0.1623716395,
				"y": 0.0288045614,
				"z": 0.8596056472,
				"element": "C" 
			},
			{
				"x": 0.9702841669,
				"y": -0.773333851,
				"z": 0.8970448603,
				"element": "C" 
			},
			{
				"x": 1.4560565457,
				"y": -1.2862975325,
				"z": -0.3005843335,
				"element": "C" 
			},
			{
				"x": 0.7948407605,
				"y": -1.0312836941,
				"z": -1.5123718801,
				"element": "C" 
			},
			{
				"x": 1.2096982486,
				"y": -1.6662825943,
				"z": -2.6641371517,
				"element": "O" 
			},
			{
				"x": 1.7051730549,
				"y": -0.9062238976,
				"z": -3.6927980775,
				"element": "C" 
			},
			{
				"x": 2.2373728704,
				"y": -1.7375656717,
				"z": -4.5753989622,
				"element": "F" 
			},
			{
				"x": 0.7260347256,
				"y": -0.2016610657,
				"z": -4.3004941886,
				"element": "F" 
			},
			{
				"x": 2.6249910315,
				"y": -0.0321799138,
				"z": -3.2737679847,
				"element": "F" 
			},
			{
				"x": -0.3576710139,
				"y": -0.2412631797,
				"z": -1.515342114,
				"element": "C" 
			},
			{
				"x": -0.8342336104,
				"y": 0.3062978138,
				"z": -0.3290645977,
				"element": "C" 
			},
			{
				"x": 2.6901665648,
				"y": -2.0932271061,
				"z": -0.236284296,
				"element": "N" 
			},
			{
				"x": 2.8789780714,
				"y": -2.7207627298,
				"z": 0.8030554891,
				"element": "O" 
			},
			{
				"x": 3.4464268561,
				"y": -2.0580793435,
				"z": -1.1998815765,
				"element": "O" 
			},
			{
				"x": 1.469003473,
				"y": -0.9927799765,
				"z": 1.8317436383,
				"element": "H" 
			},
			{
				"x": -0.874766099,
				"y": -0.0747423927,
				"z": -2.4518731068,
				"element": "H" 
			},
			{
				"x": -1.7210424866,
				"y": 0.9271877555,
				"z": -0.3078609431,
				"element": "H" 
			}
		],
		 "valence_orbital": [ 
			{
				"type": "occ",
				"energy": -0.33141,
				"method": "rhf"
			},
			{
				"type": "occ",
				"energy": -0.32494,
				"method": "rhf"
			},
			{
				"type": "occ",
				"energy": -0.31691,
				"method": "rhf"
			},
			{
				"type": "occ",
				"energy": -0.31288,
				"method": "rhf"
			},
			{
				"type": "occ",
				"energy": -0.30661,
				"method": "rhf"
			},
			{
				"type": "unocc",
				"energy": -0.12042,
				"method": "rhf"
			},
			{
				"type": "unocc",
				"energy": -0.1085,
				"method": "rhf"
			},
			{
				"type": "unocc",
				"energy": -0.05243,
				"method": "rhf"
			},
			{
				"type": "unocc",
				"energy": -0.02554,
				"method": "rhf"
			},
			{
				"type": "unocc",
				"energy": 0.04155,
				"method": "rhf"
			}
		],
		"cosmo_sigma_profile": { 
			"-0.025": 0.0,
			"-0.024": 0.0,
			"-0.023": 0.0,
			"-0.022": 0.0,
			"-0.021": 0.0,
			"-0.02": 0.0,
			"-0.019": 0.0,
			"-0.018": 0.0,
			"-0.017": 0.0,
			"-0.016": 0.0,
			"-0.015": 0.0,
			"-0.014": 0.0,
			"-0.013": 0.0,
			"-0.012": 0.0,
			"-0.011": 0.0,
			"-0.01": 1.94362643352,
			"-0.009": 5.52772877897,
			"-0.008": 7.77617190563,
			"-0.007": 6.90178595126,
			"-0.006": 8.52579188197,
			"-0.005": 11.7860379436,
			"-0.004": 18.819362106,
			"-0.003": 18.3048727916,
			"-0.002": 14.3097124505,
			"-0.001": 10.1807020034,
			"0.0": 15.968927039,
			"0.001": 27.5634120979,
			"0.002": 15.6402014262,
			"0.003": 7.7825835027,
			"0.004": 9.09092423307,
			"0.005": 9.21551565775,
			"0.006": 13.737841144,
			"0.007": 14.5994912396,
			"0.008": 8.08732524574,
			"0.009": 4.54365831402,
			"0.01": 0.188503313649,
			"0.011": 0.0,
			"0.012": 0.0,
			"0.013": 0.0,
			"0.014": 0.0,
			"0.015": 0.0,
			"0.016": 0.0,
			"0.017": 0.0,
			"0.018": 0.0,
			"0.019": 0.0,
			"0.02": 0.0,
			"0.021": 0.0,
			"0.022": 0.0,
			"0.023": 0.0,
			"0.024": 0.0,
			"0.025": 0.0
		}
	}
}
