{
	 "smiles": "OC(=O)C1=C2C(Br)=CC=CC2=CC=C1", 
	 "Tm": 443.15, 
	 "num_atms": 21, 
	 "gaussian": { 
		 "optdone": 1, 
		 "sigma_profile": "yes", 
		 "theory": "DFT", 
		 "functional": "B3LYP", 
		 "basiset": "6-31G**", 
		 "properties": { 
			 "R2extent": 6730.4616, 
			 "electric_dipole_moment_norm": 3.15738734082, 
			 "electric_quadrupole_moment_norm": 13.3380129457, 
			 "total_energy": -3145.25137393, 
			 "HOMO_LUMO_gap": 0.16243, 
			 "cosmo_polarized_energy": -11.52, 
			 "cosmo_cavitation_energy": 27.44, 
			 "cosmo_dispersion_energy": -20.46, 
			 "cosmo_repulsion_energy": 1.57, 
			 "cosmo_total_nonelectrostatic_energy": 8.56, 
			 "SMD_solvation_energy": 4.47 
		},
		"coords": [
			{
				"x": 3.6645251036,
				"y": -2.7989071009,
				"z": 1.499804555,
				"element": "O" 
			},
			{
				"x": 3.9532808587,
				"y": -2.1021835233,
				"z": 0.3754955523,
				"element": "C" 
			},
			{
				"x": 5.0343111499,
				"y": -2.1523670035,
				"z": -0.1699933521,
				"element": "O" 
			},
			{
				"x": 2.8478043701,
				"y": -1.1555863752,
				"z": 0.0111428449,
				"element": "C" 
			},
			{
				"x": 1.4664666523,
				"y": -1.5056515407,
				"z": -0.1570502539,
				"element": "C" 
			},
			{
				"x": 0.9349612183,
				"y": -2.8190177024,
				"z": -0.3510119524,
				"element": "C" 
			},
			{
				"x": 2.0504613948,
				"y": -4.3428786789,
				"z": -0.6798274352,
				"element": "Br" 
			},
			{
				"x": -0.4213836267,
				"y": -3.0528153288,
				"z": -0.4301765554,
				"element": "C" 
			},
			{
				"x": -1.340964356,
				"y": -1.9855132649,
				"z": -0.3634303134,
				"element": "C" 
			},
			{
				"x": -0.8790164206,
				"y": -0.6953342564,
				"z": -0.2764490064,
				"element": "C" 
			},
			{
				"x": 0.5116473616,
				"y": -0.4247429739,
				"z": -0.1932019774,
				"element": "C" 
			},
			{
				"x": 0.966710607,
				"y": 0.9218154078,
				"z": -0.1727797702,
				"element": "C" 
			},
			{
				"x": 2.306069114,
				"y": 1.2182834427,
				"z": -0.1308222314,
				"element": "C" 
			},
			{
				"x": 3.243174806,
				"y": 0.1695812946,
				"z": -0.0265687769,
				"element": "C" 
			},
			{
				"x": 4.4344248983,
				"y": -3.3686778241,
				"z": 1.6667394585,
				"element": "H" 
			},
			{
				"x": -0.7774573438,
				"y": -4.0657282136,
				"z": -0.5775216275,
				"element": "H" 
			},
			{
				"x": -2.4046737219,
				"y": -2.1935221924,
				"z": -0.4232231011,
				"element": "H" 
			},
			{
				"x": -1.5698165399,
				"y": 0.1429133635,
				"z": -0.2820933032,
				"element": "H" 
			},
			{
				"x": 0.2244762963,
				"y": 1.7145838608,
				"z": -0.2087793502,
				"element": "H" 
			},
			{
				"x": 2.6475723174,
				"y": 2.2484908076,
				"z": -0.1434569078,
				"element": "H" 
			},
			{
				"x": 4.3002258606,
				"y": 0.3942578019,
				"z": 0.0706035039,
				"element": "H" 
			}
		],
		 "valence_orbital": [ 
			{
				"type": "occ",
				"energy": -0.28789,
				"method": "rhf"
			},
			{
				"type": "occ",
				"energy": -0.28128,
				"method": "rhf"
			},
			{
				"type": "occ",
				"energy": -0.26828,
				"method": "rhf"
			},
			{
				"type": "occ",
				"energy": -0.26077,
				"method": "rhf"
			},
			{
				"type": "occ",
				"energy": -0.22519,
				"method": "rhf"
			},
			{
				"type": "unocc",
				"energy": -0.06276,
				"method": "rhf"
			},
			{
				"type": "unocc",
				"energy": -0.02946,
				"method": "rhf"
			},
			{
				"type": "unocc",
				"energy": -0.00906,
				"method": "rhf"
			},
			{
				"type": "unocc",
				"energy": 0.01168,
				"method": "rhf"
			},
			{
				"type": "unocc",
				"energy": 0.03475,
				"method": "rhf"
			}
		],
		"cosmo_sigma_profile": { 
			"-0.025": 0.0,
			"-0.024": 0.0,
			"-0.023": 0.0,
			"-0.022": 0.0,
			"-0.021": 0.0,
			"-0.02": 0.0,
			"-0.019": 0.0252163097669,
			"-0.018": 0.627844336949,
			"-0.017": 1.10843389142,
			"-0.016": 0.643786340272,
			"-0.015": 0.844825602582,
			"-0.014": 0.548876634895,
			"-0.013": 0.540672473698,
			"-0.012": 0.689566499195,
			"-0.011": 0.850783672773,
			"-0.01": 0.614740444909,
			"-0.009": 0.428038588538,
			"-0.008": 1.58389538334,
			"-0.007": 11.5162431765,
			"-0.006": 14.0519347934,
			"-0.005": 13.6305216519,
			"-0.004": 11.7471003822,
			"-0.003": 10.8483720574,
			"-0.002": 10.3676814185,
			"-0.001": 11.4000891111,
			"0.0": 14.9254589409,
			"0.001": 19.9251683313,
			"0.002": 29.2140161938,
			"0.003": 24.0227601259,
			"0.004": 13.4603782299,
			"0.005": 5.96371168251,
			"0.006": 3.66375378556,
			"0.007": 2.77356981705,
			"0.008": 3.45999818024,
			"0.009": 3.27998103053,
			"0.01": 1.96212488954,
			"0.011": 4.30940660813,
			"0.012": 3.92906811509,
			"0.013": 0.425012579185,
			"0.014": 0.0,
			"0.015": 0.0,
			"0.016": 0.0,
			"0.017": 0.0,
			"0.018": 0.0,
			"0.019": 0.0,
			"0.02": 0.0,
			"0.021": 0.0,
			"0.022": 0.0,
			"0.023": 0.0,
			"0.024": 0.0,
			"0.025": 0.0
		}
	}
}
