{
	 "smiles": "OCC1C(CC2OC(=O)CC12)OC(=O)C1=CC=CC=C1", 
	 "Tm": 391.15, 
	 "num_atms": 36, 
	 "gaussian": { 
		 "optdone": 1, 
		 "sigma_profile": "yes", 
		 "theory": "DFT", 
		 "functional": "B3LYP", 
		 "basiset": "6-31G**", 
		 "properties": { 
			 "R2extent": 6007.8192, 
			 "electric_dipole_moment_norm": 5.143812482, 
			 "electric_quadrupole_moment_norm": 30.6243677086, 
			 "total_energy": -957.380224324, 
			 "HOMO_LUMO_gap": 0.21113, 
			 "cosmo_polarized_energy": -19.06, 
			 "cosmo_cavitation_energy": 38.18, 
			 "cosmo_dispersion_energy": -26.76, 
			 "cosmo_repulsion_energy": 2.04, 
			 "cosmo_total_nonelectrostatic_energy": 13.46, 
			 "SMD_solvation_energy": 7.69 
		},
		"coords": [
			{
				"x": 1.1951204091,
				"y": -1.1670272536,
				"z": -4.4539113546,
				"element": "O" 
			},
			{
				"x": 1.5883897361,
				"y": 0.0580850452,
				"z": -3.8432878809,
				"element": "C" 
			},
			{
				"x": 0.6208848205,
				"y": 0.3708620627,
				"z": -2.7022025484,
				"element": "C" 
			},
			{
				"x": 0.6346181017,
				"y": -0.7176548502,
				"z": -1.6056530892,
				"element": "C" 
			},
			{
				"x": -0.5616128213,
				"y": -1.6210620245,
				"z": -1.9225297845,
				"element": "C" 
			},
			{
				"x": -1.6253464606,
				"y": -0.6778139036,
				"z": -2.4808165638,
				"element": "C" 
			},
			{
				"x": -2.3636211407,
				"y": -0.060281232,
				"z": -1.3983488413,
				"element": "O" 
			},
			{
				"x": -2.3210008516,
				"y": 1.2962698576,
				"z": -1.4533620066,
				"element": "C" 
			},
			{
				"x": -2.8036585533,
				"y": 1.995630223,
				"z": -0.5979316596,
				"element": "O" 
			},
			{
				"x": -1.6110719157,
				"y": 1.7276916123,
				"z": -2.7311816168,
				"element": "C" 
			},
			{
				"x": -0.8587091554,
				"y": 0.4757392359,
				"z": -3.1934109926,
				"element": "C" 
			},
			{
				"x": 0.4285206954,
				"y": -0.0378858598,
				"z": -0.340483338,
				"element": "O" 
			},
			{
				"x": 0.9227933569,
				"y": -0.6458539057,
				"z": 0.7685070514,
				"element": "C" 
			},
			{
				"x": 1.5777534754,
				"y": -1.6706724106,
				"z": 0.7285797476,
				"element": "O" 
			},
			{
				"x": 0.5863937412,
				"y": 0.0884580728,
				"z": 2.019769425,
				"element": "C" 
			},
			{
				"x": 1.2151553533,
				"y": -0.3279362128,
				"z": 3.2024202597,
				"element": "C" 
			},
			{
				"x": 0.9374959488,
				"y": 0.3156945113,
				"z": 4.4050889852,
				"element": "C" 
			},
			{
				"x": 0.022569613,
				"y": 1.3722379468,
				"z": 4.4350808222,
				"element": "C" 
			},
			{
				"x": -0.6135800019,
				"y": 1.7815568899,
				"z": 3.2609781283,
				"element": "C" 
			},
			{
				"x": -0.3343133235,
				"y": 1.1461568624,
				"z": 2.0514103892,
				"element": "C" 
			},
			{
				"x": 1.8227675325,
				"y": -1.3769583477,
				"z": -5.155873981,
				"element": "H" 
			},
			{
				"x": 1.5668979291,
				"y": 0.8856836016,
				"z": -4.5704810826,
				"element": "H" 
			},
			{
				"x": 2.6125247027,
				"y": -0.0075471021,
				"z": -3.4448013512,
				"element": "H" 
			},
			{
				"x": 0.9518624372,
				"y": 1.3148220119,
				"z": -2.2557972208,
				"element": "H" 
			},
			{
				"x": 1.5742469876,
				"y": -1.2688457776,
				"z": -1.5477564047,
				"element": "H" 
			},
			{
				"x": -0.9099302713,
				"y": -2.1916955991,
				"z": -1.058891636,
				"element": "H" 
			},
			{
				"x": -0.2630279302,
				"y": -2.317456072,
				"z": -2.7117369717,
				"element": "H" 
			},
			{
				"x": -2.3537189968,
				"y": -1.1845304184,
				"z": -3.1211879387,
				"element": "H" 
			},
			{
				"x": -2.3809410853,
				"y": 2.033664032,
				"z": -3.4496547911,
				"element": "H" 
			},
			{
				"x": -0.983126811,
				"y": 2.5997647155,
				"z": -2.5370362755,
				"element": "H" 
			},
			{
				"x": -0.8984624282,
				"y": 0.3457450905,
				"z": -4.276796567,
				"element": "H" 
			},
			{
				"x": 1.914644821,
				"y": -1.1556810815,
				"z": 3.154142933,
				"element": "H" 
			},
			{
				"x": 1.4295149978,
				"y": -0.0058519168,
				"z": 5.3184159862,
				"element": "H" 
			},
			{
				"x": -0.1978610374,
				"y": 1.8723531784,
				"z": 5.3741545069,
				"element": "H" 
			},
			{
				"x": -1.3337514198,
				"y": 2.5938608726,
				"z": 3.2849823835,
				"element": "H" 
			},
			{
				"x": -0.8433204555,
				"y": 1.4569781456,
				"z": 1.1467032784,
				"element": "H" 
			}
		],
		 "valence_orbital": [ 
			{
				"type": "occ",
				"energy": -0.28033,
				"method": "rhf"
			},
			{
				"type": "occ",
				"energy": -0.26941,
				"method": "rhf"
			},
			{
				"type": "occ",
				"energy": -0.26243,
				"method": "rhf"
			},
			{
				"type": "occ",
				"energy": -0.25098,
				"method": "rhf"
			},
			{
				"type": "occ",
				"energy": -0.24933,
				"method": "rhf"
			},
			{
				"type": "unocc",
				"energy": -0.0382,
				"method": "rhf"
			},
			{
				"type": "unocc",
				"energy": 0.00121,
				"method": "rhf"
			},
			{
				"type": "unocc",
				"energy": 0.01443,
				"method": "rhf"
			},
			{
				"type": "unocc",
				"energy": 0.05261,
				"method": "rhf"
			},
			{
				"type": "unocc",
				"energy": 0.06223,
				"method": "rhf"
			}
		],
		"cosmo_sigma_profile": { 
			"-0.025": 0.0,
			"-0.024": 0.0,
			"-0.023": 0.0,
			"-0.022": 0.0,
			"-0.021": 0.0,
			"-0.02": 0.0,
			"-0.019": 0.0,
			"-0.018": 0.0,
			"-0.017": 0.0331454047986,
			"-0.016": 0.856577097286,
			"-0.015": 1.07476207538,
			"-0.014": 1.07981543769,
			"-0.013": 0.459885059716,
			"-0.012": 0.912452473121,
			"-0.011": 1.15880853723,
			"-0.01": 0.725773536063,
			"-0.009": 0.596120188651,
			"-0.008": 1.17352313017,
			"-0.007": 6.45361397854,
			"-0.006": 18.9500519408,
			"-0.005": 25.4918839838,
			"-0.004": 35.4656474355,
			"-0.003": 26.2510871637,
			"-0.002": 22.8235097383,
			"-0.001": 16.2079377266,
			"0.0": 15.8367327363,
			"0.001": 14.7354271639,
			"0.002": 18.8298673103,
			"0.003": 18.0821360571,
			"0.004": 18.6624865243,
			"0.005": 7.98070882071,
			"0.006": 6.63370774921,
			"0.007": 5.49671271315,
			"0.008": 5.50398062598,
			"0.009": 5.35523873372,
			"0.01": 7.15755066867,
			"0.011": 6.81592180777,
			"0.012": 8.51154504146,
			"0.013": 2.10872788092,
			"0.014": 0.0226543751165,
			"0.015": 0.0,
			"0.016": 0.0,
			"0.017": 0.0,
			"0.018": 0.0,
			"0.019": 0.0,
			"0.02": 0.0,
			"0.021": 0.0,
			"0.022": 0.0,
			"0.023": 0.0,
			"0.024": 0.0,
			"0.025": 0.0
		}
	}
}
