{
	 "smiles": "CC(=O)OC[C@@H](OC(C)=O)[C@H](OC(C)=O)[C@H](OC(C)=O)[C@@H](OC(C)=O)C(=O)CBr", 
	 "Tm": 397.15, 
	 "num_atms": 52, 
	 "gaussian": { 
		 "optdone": 1, 
		 "sigma_profile": "yes", 
		 "theory": "DFT", 
		 "functional": "B3LYP", 
		 "basiset": "6-31G**", 
		 "properties": { 
			 "R2extent": 13069.719, 
			 "electric_dipole_moment_norm": 4.19134595804, 
			 "electric_quadrupole_moment_norm": 25.1917914039, 
			 "total_energy": -4060.59260544, 
			 "HOMO_LUMO_gap": 0.20267, 
			 "cosmo_polarized_energy": -25.8, 
			 "cosmo_cavitation_energy": 58.63, 
			 "cosmo_dispersion_energy": -33.93, 
			 "cosmo_repulsion_energy": 2.61, 
			 "cosmo_total_nonelectrostatic_energy": 27.31, 
			 "SMD_solvation_energy": 14.39 
		},
		"coords": [
			{
				"x": -3.8968485457,
				"y": 1.3125184381,
				"z": 1.4650127832,
				"element": "C" 
			},
			{
				"x": -3.5385747273,
				"y": 0.3708021419,
				"z": 0.3466356004,
				"element": "C" 
			},
			{
				"x": -4.2660785861,
				"y": -0.0097643215,
				"z": -0.5397594936,
				"element": "O" 
			},
			{
				"x": -2.2247542778,
				"y": -0.0010223056,
				"z": 0.4289696459,
				"element": "O" 
			},
			{
				"x": -1.7329335912,
				"y": -0.7824417144,
				"z": -0.6686795769,
				"element": "C" 
			},
			{
				"x": -0.2084239409,
				"y": -0.8565926648,
				"z": -0.5668393076,
				"element": "C" 
			},
			{
				"x": 0.1818008992,
				"y": -1.4849128109,
				"z": -1.801649613,
				"element": "O" 
			},
			{
				"x": 1.1638948711,
				"y": -2.4276743782,
				"z": -1.7514129303,
				"element": "C" 
			},
			{
				"x": 1.4596506915,
				"y": -2.944041283,
				"z": -3.1372556435,
				"element": "C" 
			},
			{
				"x": 1.700267843,
				"y": -2.7953416259,
				"z": -0.7317962747,
				"element": "O" 
			},
			{
				"x": 0.4616254933,
				"y": 0.5372094984,
				"z": -0.4827265364,
				"element": "C" 
			},
			{
				"x": 1.8099394797,
				"y": 0.411122664,
				"z": -0.9581624614,
				"element": "O" 
			},
			{
				"x": 2.2819691386,
				"y": 1.385478414,
				"z": -1.7790136706,
				"element": "C" 
			},
			{
				"x": 3.7312646293,
				"y": 1.1305386783,
				"z": -2.1079469416,
				"element": "C" 
			},
			{
				"x": 1.6267827149,
				"y": 2.3263073517,
				"z": -2.1714799223,
				"element": "O" 
			},
			{
				"x": 0.4596891161,
				"y": 1.1671202146,
				"z": 0.9294927467,
				"element": "C" 
			},
			{
				"x": 1.2378984626,
				"y": 2.3827100357,
				"z": 0.8512801742,
				"element": "O" 
			},
			{
				"x": 0.5460404066,
				"y": 3.5532406539,
				"z": 0.7383835968,
				"element": "C" 
			},
			{
				"x": 1.4728353727,
				"y": 4.6854224682,
				"z": 0.3933298157,
				"element": "C" 
			},
			{
				"x": -0.654529953,
				"y": 3.637014045,
				"z": 0.8916443589,
				"element": "O" 
			},
			{
				"x": 0.9968589956,
				"y": 0.3039928412,
				"z": 2.0743371753,
				"element": "C" 
			},
			{
				"x": 2.2373834065,
				"y": -0.2873965319,
				"z": 1.7146264949,
				"element": "O" 
			},
			{
				"x": 2.4984885198,
				"y": -1.5089709869,
				"z": 2.2721928663,
				"element": "C" 
			},
			{
				"x": 3.8284023068,
				"y": -2.0319597075,
				"z": 1.8049627275,
				"element": "C" 
			},
			{
				"x": 1.722005676,
				"y": -2.0766450712,
				"z": 3.0049596764,
				"element": "O" 
			},
			{
				"x": 1.1841120489,
				"y": 1.1252635885,
				"z": 3.3680095465,
				"element": "C" 
			},
			{
				"x": 2.2535058322,
				"y": 1.1813956795,
				"z": 3.9299483343,
				"element": "O" 
			},
			{
				"x": -0.0197783813,
				"y": 1.8670139029,
				"z": 3.9375676298,
				"element": "C" 
			},
			{
				"x": -1.3880072304,
				"y": 0.582819031,
				"z": 4.5706203796,
				"element": "Br" 
			},
			{
				"x": -4.9758481281,
				"y": 1.4624986211,
				"z": 1.4814047803,
				"element": "H" 
			},
			{
				"x": -3.5444852316,
				"y": 0.9262034401,
				"z": 2.4248137651,
				"element": "H" 
			},
			{
				"x": -3.3949505714,
				"y": 2.2719008981,
				"z": 1.2962972568,
				"element": "H" 
			},
			{
				"x": -2.024245136,
				"y": -0.3183058419,
				"z": -1.6154114925,
				"element": "H" 
			},
			{
				"x": -2.1621867476,
				"y": -1.7881356781,
				"z": -0.6392225884,
				"element": "H" 
			},
			{
				"x": 0.1103885886,
				"y": -1.4934829889,
				"z": 0.2600819375,
				"element": "H" 
			},
			{
				"x": 2.2310383374,
				"y": -3.7111761881,
				"z": -3.0818802638,
				"element": "H" 
			},
			{
				"x": 0.5512839519,
				"y": -3.357449536,
				"z": -3.584870908,
				"element": "H" 
			},
			{
				"x": 1.7918743405,
				"y": -2.1224315569,
				"z": -3.7786915826,
				"element": "H" 
			},
			{
				"x": -0.0615758366,
				"y": 1.2325609987,
				"z": -1.1463163887,
				"element": "H" 
			},
			{
				"x": 4.0557578528,
				"y": 1.8210491744,
				"z": -2.885713091,
				"element": "H" 
			},
			{
				"x": 4.3330469001,
				"y": 1.2813334369,
				"z": -1.2060660144,
				"element": "H" 
			},
			{
				"x": 3.8796718127,
				"y": 0.096045406,
				"z": -2.4276012227,
				"element": "H" 
			},
			{
				"x": -0.5710297997,
				"y": 1.4304833322,
				"z": 1.1623430419,
				"element": "H" 
			},
			{
				"x": 2.3772551033,
				"y": 4.6450492466,
				"z": 1.0052734403,
				"element": "H" 
			},
			{
				"x": 0.9580950575,
				"y": 5.636362585,
				"z": 0.5265205912,
				"element": "H" 
			},
			{
				"x": 1.7715568898,
				"y": 4.5682117249,
				"z": -0.6536982103,
				"element": "H" 
			},
			{
				"x": 0.267007794,
				"y": -0.4819956954,
				"z": 2.2989112336,
				"element": "H" 
			},
			{
				"x": 4.5777247471,
				"y": -1.2375478073,
				"z": 1.8008655238,
				"element": "H" 
			},
			{
				"x": 3.7052598125,
				"y": -2.4020408258,
				"z": 0.7823374534,
				"element": "H" 
			},
			{
				"x": 4.1402010131,
				"y": -2.8523445186,
				"z": 2.4509982707,
				"element": "H" 
			},
			{
				"x": 0.2977914417,
				"y": 2.4344241107,
				"z": 4.80923645,
				"element": "H" 
			},
			{
				"x": -0.5215188629,
				"y": 2.5043814171,
				"z": 3.2090368372,
				"element": "H" 
			}
		],
		 "valence_orbital": [ 
			{
				"type": "occ",
				"energy": -0.28994,
				"method": "rhf"
			},
			{
				"type": "occ",
				"energy": -0.28729,
				"method": "rhf"
			},
			{
				"type": "occ",
				"energy": -0.28108,
				"method": "rhf"
			},
			{
				"type": "occ",
				"energy": -0.2726,
				"method": "rhf"
			},
			{
				"type": "occ",
				"energy": -0.26492,
				"method": "rhf"
			},
			{
				"type": "unocc",
				"energy": -0.06225,
				"method": "rhf"
			},
			{
				"type": "unocc",
				"energy": -0.01043,
				"method": "rhf"
			},
			{
				"type": "unocc",
				"energy": -0.00782,
				"method": "rhf"
			},
			{
				"type": "unocc",
				"energy": -0.00161,
				"method": "rhf"
			},
			{
				"type": "unocc",
				"energy": 0.00275,
				"method": "rhf"
			}
		],
		"cosmo_sigma_profile": { 
			"-0.025": 0.0,
			"-0.024": 0.0,
			"-0.023": 0.0,
			"-0.022": 0.0,
			"-0.021": 0.0,
			"-0.02": 0.0,
			"-0.019": 0.0,
			"-0.018": 0.0,
			"-0.017": 0.0,
			"-0.016": 0.0,
			"-0.015": 0.0,
			"-0.014": 0.0,
			"-0.013": 0.0,
			"-0.012": 0.0,
			"-0.011": 0.0,
			"-0.01": 0.0731197170406,
			"-0.009": 2.48128065967,
			"-0.008": 5.08502210417,
			"-0.007": 16.1690399744,
			"-0.006": 30.165942106,
			"-0.005": 34.7531986092,
			"-0.004": 41.3952070008,
			"-0.003": 47.1065032974,
			"-0.002": 54.2202954913,
			"-0.001": 36.358529893,
			"0.0": 20.7942853823,
			"0.001": 20.5787859826,
			"0.002": 21.6525350151,
			"0.003": 19.1882342587,
			"0.004": 20.9615269399,
			"0.005": 15.0311879475,
			"0.006": 12.8755319604,
			"0.007": 11.4446253588,
			"0.008": 10.786870164,
			"0.009": 11.9926928146,
			"0.01": 12.1954233989,
			"0.011": 13.3076578528,
			"0.012": 7.08279004637,
			"0.013": 0.621960016965,
			"0.014": 0.0,
			"0.015": 0.0,
			"0.016": 0.0,
			"0.017": 0.0,
			"0.018": 0.0,
			"0.019": 0.0,
			"0.02": 0.0,
			"0.021": 0.0,
			"0.022": 0.0,
			"0.023": 0.0,
			"0.024": 0.0,
			"0.025": 0.0
		}
	}
}
