{
	 "smiles": "CC12CC(O)C3C(CCC4CC(O)CCC34C)C1CCC2(O)C(=O)CO", 
	 "Tm": 517.15, 
	 "num_atms": 60, 
	 "gaussian": { 
		 "optdone": 1, 
		 "sigma_profile": "yes", 
		 "theory": "DFT", 
		 "functional": "B3LYP", 
		 "basiset": "6-31G**", 
		 "properties": { 
			 "R2extent": 10326.8592, 
			 "electric_dipole_moment_norm": 2.34480428394, 
			 "electric_quadrupole_moment_norm": 24.7324143544, 
			 "total_energy": -1196.81460386, 
			 "HOMO_LUMO_gap": 0.21435, 
			 "cosmo_polarized_energy": -20.42, 
			 "cosmo_cavitation_energy": 49.94, 
			 "cosmo_dispersion_energy": -34.69, 
			 "cosmo_repulsion_energy": 2.54, 
			 "cosmo_total_nonelectrostatic_energy": 17.79, 
			 "SMD_solvation_energy": 7.35 
		},
		"coords": [
			{
				"x": -0.4559012022,
				"y": 2.5631786605,
				"z": -0.948310665,
				"element": "C" 
			},
			{
				"x": -1.4039522452,
				"y": 1.3491989266,
				"z": -0.8187085681,
				"element": "C" 
			},
			{
				"x": -2.2359773531,
				"y": 1.4832198859,
				"z": 0.4955260433,
				"element": "C" 
			},
			{
				"x": -1.7730525406,
				"y": 0.5418397065,
				"z": 1.6399242747,
				"element": "C" 
			},
			{
				"x": -2.3231462958,
				"y": -0.7732159611,
				"z": 1.5094208801,
				"element": "O" 
			},
			{
				"x": -0.2410271137,
				"y": 0.4243756914,
				"z": 1.6548448708,
				"element": "C" 
			},
			{
				"x": 0.2739081018,
				"y": -0.2851795076,
				"z": 0.3741489089,
				"element": "C" 
			},
			{
				"x": 1.7701402088,
				"y": 0.0503179106,
				"z": 0.1750273257,
				"element": "C" 
			},
			{
				"x": 2.5184632167,
				"y": 0.2096641038,
				"z": 1.5258829987,
				"element": "C" 
			},
			{
				"x": 1.8921473375,
				"y": -0.6173865183,
				"z": 2.667690212,
				"element": "C" 
			},
			{
				"x": 2.0530327111,
				"y": -2.1294666035,
				"z": 2.3703798832,
				"element": "C" 
			},
			{
				"x": 1.2333191523,
				"y": -3.0436187743,
				"z": 3.272411747,
				"element": "C" 
			},
			{
				"x": 1.4402614992,
				"y": -4.3750811848,
				"z": 2.8017312649,
				"element": "O" 
			},
			{
				"x": -0.2357014248,
				"y": -2.6252623408,
				"z": 3.2403752444,
				"element": "C" 
			},
			{
				"x": -0.3793418276,
				"y": -1.1890688939,
				"z": 3.7520253809,
				"element": "C" 
			},
			{
				"x": 0.4303045735,
				"y": -0.1071234038,
				"z": 2.9804501047,
				"element": "C" 
			},
			{
				"x": 0.5442022387,
				"y": 1.10781755,
				"z": 3.9345479864,
				"element": "C" 
			},
			{
				"x": -0.6699934729,
				"y": -0.0202251363,
				"z": -0.8256584527,
				"element": "C" 
			},
			{
				"x": -0.1461246463,
				"y": -0.1728233961,
				"z": -2.2599807185,
				"element": "C" 
			},
			{
				"x": -1.2823087817,
				"y": 0.4290158881,
				"z": -3.1281236177,
				"element": "C" 
			},
			{
				"x": -2.2211955356,
				"y": 1.2467305791,
				"z": -2.1770885265,
				"element": "C" 
			},
			{
				"x": -2.5098447916,
				"y": 2.5582740844,
				"z": -2.6664212855,
				"element": "O" 
			},
			{
				"x": -3.5504964378,
				"y": 0.5176888005,
				"z": -1.9610635304,
				"element": "C" 
			},
			{
				"x": -3.6230228193,
				"y": -0.6837850721,
				"z": -1.7425624593,
				"element": "O" 
			},
			{
				"x": -4.8482536065,
				"y": 1.318275338,
				"z": -2.0215483426,
				"element": "C" 
			},
			{
				"x": -5.9345876606,
				"y": 0.5361390749,
				"z": -1.6111401887,
				"element": "O" 
			},
			{
				"x": 0.1785147871,
				"y": 2.5049316407,
				"z": -1.8367205656,
				"element": "H" 
			},
			{
				"x": 0.1961965869,
				"y": 2.6419545667,
				"z": -0.0761294458,
				"element": "H" 
			},
			{
				"x": -1.0342949855,
				"y": 3.4860140251,
				"z": -1.025345358,
				"element": "H" 
			},
			{
				"x": -2.1777126838,
				"y": 2.5158915325,
				"z": 0.8582761613,
				"element": "H" 
			},
			{
				"x": -3.3045476404,
				"y": 1.2954663566,
				"z": 0.3354172992,
				"element": "H" 
			},
			{
				"x": -2.1186470828,
				"y": 0.9853378082,
				"z": 2.5877030875,
				"element": "H" 
			},
			{
				"x": -3.2596187092,
				"y": -0.6961210893,
				"z": 1.2864835811,
				"element": "H" 
			},
			{
				"x": 0.0978027246,
				"y": 1.4654572112,
				"z": 1.5814256313,
				"element": "H" 
			},
			{
				"x": 0.2022786678,
				"y": -1.3602063347,
				"z": 0.5533193507,
				"element": "H" 
			},
			{
				"x": 2.2381377472,
				"y": -0.7373170787,
				"z": -0.4265641775,
				"element": "H" 
			},
			{
				"x": 1.8864618297,
				"y": 0.9756372902,
				"z": -0.3999895684,
				"element": "H" 
			},
			{
				"x": 3.571526591,
				"y": -0.0697403839,
				"z": 1.4025062467,
				"element": "H" 
			},
			{
				"x": 2.5249347601,
				"y": 1.2667604184,
				"z": 1.8169757572,
				"element": "H" 
			},
			{
				"x": 2.4767936303,
				"y": -0.4229494184,
				"z": 3.5779557205,
				"element": "H" 
			},
			{
				"x": 3.1148199053,
				"y": -2.3907211588,
				"z": 2.4576639794,
				"element": "H" 
			},
			{
				"x": 1.7683284697,
				"y": -2.3702376242,
				"z": 1.3412994356,
				"element": "H" 
			},
			{
				"x": 1.5990855765,
				"y": -2.951919184,
				"z": 4.3119288667,
				"element": "H" 
			},
			{
				"x": 0.8742149185,
				"y": -4.9594633267,
				"z": 3.3227650025,
				"element": "H" 
			},
			{
				"x": -0.6281914785,
				"y": -2.7238879884,
				"z": 2.2232038095,
				"element": "H" 
			},
			{
				"x": -0.829904816,
				"y": -3.2970830932,
				"z": 3.8768027789,
				"element": "H" 
			},
			{
				"x": -1.4354467581,
				"y": -0.9111521725,
				"z": 3.7841882999,
				"element": "H" 
			},
			{
				"x": -0.0273034686,
				"y": -1.1750738656,
				"z": 4.7936596684,
				"element": "H" 
			},
			{
				"x": 1.1548509025,
				"y": 1.9090075359,
				"z": 3.504019184,
				"element": "H" 
			},
			{
				"x": 0.9977372489,
				"y": 0.8192163338,
				"z": 4.8887103458,
				"element": "H" 
			},
			{
				"x": -0.4431506479,
				"y": 1.5300826767,
				"z": 4.1555555044,
				"element": "H" 
			},
			{
				"x": -1.4687787945,
				"y": -0.7582585835,
				"z": -0.7204614556,
				"element": "H" 
			},
			{
				"x": 0.0517277711,
				"y": -1.2181474595,
				"z": -2.5157268655,
				"element": "H" 
			},
			{
				"x": 0.7872035701,
				"y": 0.3768081708,
				"z": -2.4146860867,
				"element": "H" 
			},
			{
				"x": -0.8906046954,
				"y": 1.1039066949,
				"z": -3.8965672938,
				"element": "H" 
			},
			{
				"x": -1.8482999382,
				"y": -0.3581953666,
				"z": -3.6329140095,
				"element": "H" 
			},
			{
				"x": -2.637763543,
				"y": 2.504824008,
				"z": -3.6219712702,
				"element": "H" 
			},
			{
				"x": -4.7536309754,
				"y": 2.2197507981,
				"z": -1.4028153973,
				"element": "H" 
			},
			{
				"x": -4.9683056936,
				"y": 1.6812547547,
				"z": -3.0580833607,
				"element": "H" 
			},
			{
				"x": -5.5944650608,
				"y": -0.3762271023,
				"z": -1.5861656264,
				"element": "H" 
			}
		],
		 "valence_orbital": [ 
			{
				"type": "occ",
				"energy": -0.27208,
				"method": "rhf"
			},
			{
				"type": "occ",
				"energy": -0.26888,
				"method": "rhf"
			},
			{
				"type": "occ",
				"energy": -0.25706,
				"method": "rhf"
			},
			{
				"type": "occ",
				"energy": -0.25356,
				"method": "rhf"
			},
			{
				"type": "occ",
				"energy": -0.25102,
				"method": "rhf"
			},
			{
				"type": "unocc",
				"energy": -0.03667,
				"method": "rhf"
			},
			{
				"type": "unocc",
				"energy": 0.05073,
				"method": "rhf"
			},
			{
				"type": "unocc",
				"energy": 0.06261,
				"method": "rhf"
			},
			{
				"type": "unocc",
				"energy": 0.07737,
				"method": "rhf"
			},
			{
				"type": "unocc",
				"energy": 0.08434,
				"method": "rhf"
			}
		],
		"cosmo_sigma_profile": { 
			"-0.025": 0.0,
			"-0.024": 0.0,
			"-0.023": 0.0,
			"-0.022": 0.0,
			"-0.021": 0.0,
			"-0.02": 0.0,
			"-0.019": 0.0,
			"-0.018": 0.0,
			"-0.017": 0.0,
			"-0.016": 0.488732496363,
			"-0.015": 1.30845474865,
			"-0.014": 2.56795933161,
			"-0.013": 3.40397604882,
			"-0.012": 2.37164588133,
			"-0.011": 3.61061728823,
			"-0.01": 4.03841100196,
			"-0.009": 2.55765170885,
			"-0.008": 3.85273057306,
			"-0.007": 5.41211367023,
			"-0.006": 5.47862271219,
			"-0.005": 9.17426566481,
			"-0.004": 12.3250296188,
			"-0.003": 30.4181453917,
			"-0.002": 57.0479151489,
			"-0.001": 55.7467571853,
			"0.0": 44.3716300048,
			"0.001": 36.788857079,
			"0.002": 23.3140758794,
			"0.003": 8.80501983368,
			"0.004": 7.22784760763,
			"0.005": 6.97943476619,
			"0.006": 5.64341255489,
			"0.007": 7.57706431886,
			"0.008": 7.61597012683,
			"0.009": 7.95771298289,
			"0.01": 7.54747080412,
			"0.011": 4.73982632772,
			"0.012": 2.77337165391,
			"0.013": 4.00201228904,
			"0.014": 4.23324776612,
			"0.015": 2.09298836213,
			"0.016": 0.0321352190223,
			"0.017": 0.0,
			"0.018": 0.0,
			"0.019": 0.0,
			"0.02": 0.0,
			"0.021": 0.0,
			"0.022": 0.0,
			"0.023": 0.0,
			"0.024": 0.0,
			"0.025": 0.0
		}
	}
}
