{
	 "smiles": "CC(=C)C(C)(C)C", 
	 "Tm": 163.15, 
	 "num_atms": 21, 
	 "gaussian": { 
		 "optdone": 1, 
		 "sigma_profile": "yes", 
		 "theory": "DFT", 
		 "functional": "B3LYP", 
		 "basiset": "6-31G**", 
		 "properties": { 
			 "R2extent": 993.3429, 
			 "electric_dipole_moment_norm": 0.482930771436, 
			 "electric_quadrupole_moment_norm": 1.49796624795, 
			 "total_energy": -275.177624606, 
			 "HOMO_LUMO_gap": 0.26989, 
			 "cosmo_polarized_energy": -1.67, 
			 "cosmo_cavitation_energy": 21.73, 
			 "cosmo_dispersion_energy": -15.43, 
			 "cosmo_repulsion_energy": 1.26, 
			 "cosmo_total_nonelectrostatic_energy": 7.56, 
			 "SMD_solvation_energy": 4.73 
		},
		"coords": [
			{
				"x": -0.9790787426,
				"y": 1.7022133757,
				"z": -0.3650728551,
				"element": "C" 
			},
			{
				"x": 0.1397098934,
				"y": 0.7290058922,
				"z": -0.6761390082,
				"element": "C" 
			},
			{
				"x": 1.3986166202,
				"y": 1.1785648092,
				"z": -0.7455831951,
				"element": "C" 
			},
			{
				"x": -0.2426998099,
				"y": -0.7445828427,
				"z": -0.8978551167,
				"element": "C" 
			},
			{
				"x": -0.926191162,
				"y": -1.30418976,
				"z": 0.3734981436,
				"element": "C" 
			},
			{
				"x": 0.9842312492,
				"y": -1.6226470879,
				"z": -1.2070415913,
				"element": "C" 
			},
			{
				"x": -1.2259958913,
				"y": -0.8561012896,
				"z": -2.0883832384,
				"element": "C" 
			},
			{
				"x": -0.5859491432,
				"y": 2.7128684474,
				"z": -0.2281205211,
				"element": "H" 
			},
			{
				"x": -1.5182067069,
				"y": 1.4288128929,
				"z": 0.5491942217,
				"element": "H" 
			},
			{
				"x": -1.7236460135,
				"y": 1.741489732,
				"z": -1.1684035887,
				"element": "H" 
			},
			{
				"x": 1.6242927874,
				"y": 2.2289795877,
				"z": -0.5817598021,
				"element": "H" 
			},
			{
				"x": 2.245920296,
				"y": 0.5391991411,
				"z": -0.963548465,
				"element": "H" 
			},
			{
				"x": -0.2650507692,
				"y": -1.222432336,
				"z": 1.2428058888,
				"element": "H" 
			},
			{
				"x": -1.1732668141,
				"y": -2.3627138263,
				"z": 0.2352592867,
				"element": "H" 
			},
			{
				"x": -1.8573365387,
				"y": -0.7789805393,
				"z": 0.6058521386,
				"element": "H" 
			},
			{
				"x": 0.6701787223,
				"y": -2.6607879248,
				"z": -1.3580766842,
				"element": "H" 
			},
			{
				"x": 1.7071709997,
				"y": -1.6103451623,
				"z": -0.3851119999,
				"element": "H" 
			},
			{
				"x": 1.4967069736,
				"y": -1.2945911175,
				"z": -2.1170502796,
				"element": "H" 
			},
			{
				"x": -2.1627576562,
				"y": -0.3231655236,
				"z": -1.9004253633,
				"element": "H" 
			},
			{
				"x": -0.7823147619,
				"y": -0.449185865,
				"z": -3.0032994409,
				"element": "H" 
			},
			{
				"x": -1.4783335322,
				"y": -1.9062106033,
				"z": -2.27333853,
				"element": "H" 
			}
		],
		 "valence_orbital": [ 
			{
				"type": "occ",
				"energy": -0.35748,
				"method": "rhf"
			},
			{
				"type": "occ",
				"energy": -0.32706,
				"method": "rhf"
			},
			{
				"type": "occ",
				"energy": -0.31611,
				"method": "rhf"
			},
			{
				"type": "occ",
				"energy": -0.31047,
				"method": "rhf"
			},
			{
				"type": "occ",
				"energy": -0.23953,
				"method": "rhf"
			},
			{
				"type": "unocc",
				"energy": 0.03036,
				"method": "rhf"
			},
			{
				"type": "unocc",
				"energy": 0.08182,
				"method": "rhf"
			},
			{
				"type": "unocc",
				"energy": 0.12614,
				"method": "rhf"
			},
			{
				"type": "unocc",
				"energy": 0.13676,
				"method": "rhf"
			},
			{
				"type": "unocc",
				"energy": 0.13777,
				"method": "rhf"
			}
		],
		"cosmo_sigma_profile": { 
			"-0.025": 0.0,
			"-0.024": 0.0,
			"-0.023": 0.0,
			"-0.022": 0.0,
			"-0.021": 0.0,
			"-0.02": 0.0,
			"-0.019": 0.0,
			"-0.018": 0.0,
			"-0.017": 0.0,
			"-0.016": 0.0,
			"-0.015": 0.0,
			"-0.014": 0.0,
			"-0.013": 0.0,
			"-0.012": 0.0,
			"-0.011": 0.0,
			"-0.01": 0.0,
			"-0.009": 0.0,
			"-0.008": 0.0,
			"-0.007": 0.0,
			"-0.006": 0.0,
			"-0.005": 0.0,
			"-0.004": 3.16236109328,
			"-0.003": 17.0546173455,
			"-0.002": 29.4084505607,
			"-0.001": 26.8611961585,
			"0.0": 26.4528321484,
			"0.001": 30.317619189,
			"0.002": 17.2852586453,
			"0.003": 4.9277630762,
			"0.004": 2.95400845885,
			"0.005": 3.26382042924,
			"0.006": 2.7115270245,
			"0.007": 2.24378282179,
			"0.008": 1.10095085168,
			"0.009": 0.0,
			"0.01": 0.0,
			"0.011": 0.0,
			"0.012": 0.0,
			"0.013": 0.0,
			"0.014": 0.0,
			"0.015": 0.0,
			"0.016": 0.0,
			"0.017": 0.0,
			"0.018": 0.0,
			"0.019": 0.0,
			"0.02": 0.0,
			"0.021": 0.0,
			"0.022": 0.0,
			"0.023": 0.0,
			"0.024": 0.0,
			"0.025": 0.0
		}
	}
}
