{
	 "smiles": "COC1=CC2=C(C=C1)N=C(C=C2C(O)=O)C1=CC=CC=C1", 
	 "Tm": 511.15, 
	 "num_atms": 34, 
	 "gaussian": { 
		 "optdone": 1, 
		 "sigma_profile": "yes", 
		 "theory": "DFT", 
		 "functional": "B3LYP", 
		 "basiset": "6-31G**", 
		 "properties": { 
			 "R2extent": 8073.8522, 
			 "electric_dipole_moment_norm": 0.799180386396, 
			 "electric_quadrupole_moment_norm": 24.4130734929, 
			 "total_energy": -936.08571119, 
			 "HOMO_LUMO_gap": 0.13058, 
			 "cosmo_polarized_energy": -13.91, 
			 "cosmo_cavitation_energy": 38.5, 
			 "cosmo_dispersion_energy": -28.33, 
			 "cosmo_repulsion_energy": 2.12, 
			 "cosmo_total_nonelectrostatic_energy": 12.28, 
			 "SMD_solvation_energy": 7.05 
		},
		"coords": [
			{
				"x": 0.8499509243,
				"y": -0.9601523577,
				"z": 5.4966206375,
				"element": "C" 
			},
			{
				"x": 1.29202439,
				"y": -1.4984365483,
				"z": 4.2597368997,
				"element": "O" 
			},
			{
				"x": 0.7230916771,
				"y": -1.0531385015,
				"z": 3.1047027427,
				"element": "C" 
			},
			{
				"x": 1.2047232903,
				"y": -1.6233691765,
				"z": 1.9355657737,
				"element": "C" 
			},
			{
				"x": 0.6875410937,
				"y": -1.2361513102,
				"z": 0.6810824164,
				"element": "C" 
			},
			{
				"x": -0.3477567026,
				"y": -0.2375118506,
				"z": 0.63405819,
				"element": "C" 
			},
			{
				"x": -0.8156360983,
				"y": 0.3219793273,
				"z": 1.8509295644,
				"element": "C" 
			},
			{
				"x": -0.2995686757,
				"y": -0.0694793259,
				"z": 3.0639472905,
				"element": "C" 
			},
			{
				"x": -0.9098217318,
				"y": 0.2142858094,
				"z": -0.5153760557,
				"element": "N" 
			},
			{
				"x": -0.501301322,
				"y": -0.2745643873,
				"z": -1.6772296393,
				"element": "C" 
			},
			{
				"x": 0.503306994,
				"y": -1.2801148527,
				"z": -1.7398835109,
				"element": "C" 
			},
			{
				"x": 1.0998044683,
				"y": -1.7622363796,
				"z": -0.5920514146,
				"element": "C" 
			},
			{
				"x": 2.1451444884,
				"y": -2.8211092458,
				"z": -0.712312698,
				"element": "C" 
			},
			{
				"x": 2.3818912118,
				"y": -3.1799865894,
				"z": -2.0013541825,
				"element": "O" 
			},
			{
				"x": 2.7544932478,
				"y": -3.3432641327,
				"z": 0.2015127719,
				"element": "O" 
			},
			{
				"x": -1.1485879657,
				"y": 0.253828334,
				"z": -2.9081883022,
				"element": "C" 
			},
			{
				"x": -2.3715748105,
				"y": 0.9393312498,
				"z": -2.807773361,
				"element": "C" 
			},
			{
				"x": -3.001606957,
				"y": 1.4413460155,
				"z": -3.9429689002,
				"element": "C" 
			},
			{
				"x": -2.4217315576,
				"y": 1.27478338,
				"z": -5.203529375,
				"element": "C" 
			},
			{
				"x": -1.2028359233,
				"y": 0.6048756193,
				"z": -5.3158074448,
				"element": "C" 
			},
			{
				"x": -0.5718343567,
				"y": 0.098884925,
				"z": -4.1796493834,
				"element": "C" 
			},
			{
				"x": -0.2142667834,
				"y": -1.1627526872,
				"z": 5.6722353746,
				"element": "H" 
			},
			{
				"x": 1.4394777994,
				"y": -1.4598464134,
				"z": 6.2666350105,
				"element": "H" 
			},
			{
				"x": 1.0255230395,
				"y": 0.1215294776,
				"z": 5.5564300094,
				"element": "H" 
			},
			{
				"x": 1.9820225406,
				"y": -2.3711966087,
				"z": 1.9980807835,
				"element": "H" 
			},
			{
				"x": -1.5957958515,
				"y": 1.0729882185,
				"z": 1.7860914512,
				"element": "H" 
			},
			{
				"x": -0.6762907258,
				"y": 0.3763363949,
				"z": 3.976780967,
				"element": "H" 
			},
			{
				"x": 0.7954730047,
				"y": -1.695310267,
				"z": -2.694285562,
				"element": "H" 
			},
			{
				"x": 3.068008047,
				"y": -3.8656108973,
				"z": -1.954899688,
				"element": "H" 
			},
			{
				"x": -2.8108135226,
				"y": 1.0673310481,
				"z": -1.8249635675,
				"element": "H" 
			},
			{
				"x": -3.9497580088,
				"y": 1.9627516244,
				"z": -3.8453255125,
				"element": "H" 
			},
			{
				"x": -2.9138153336,
				"y": 1.6665926836,
				"z": -6.0891112894,
				"element": "H" 
			},
			{
				"x": -0.7367489988,
				"y": 0.4797655157,
				"z": -6.289020372,
				"element": "H" 
			},
			{
				"x": 0.387069109,
				"y": -0.3973780913,
				"z": -4.2901796243,
				"element": "H" 
			}
		],
		 "valence_orbital": [ 
			{
				"type": "occ",
				"energy": -0.25955,
				"method": "rhf"
			},
			{
				"type": "occ",
				"energy": -0.25504,
				"method": "rhf"
			},
			{
				"type": "occ",
				"energy": -0.24835,
				"method": "rhf"
			},
			{
				"type": "occ",
				"energy": -0.241,
				"method": "rhf"
			},
			{
				"type": "occ",
				"energy": -0.20819,
				"method": "rhf"
			},
			{
				"type": "unocc",
				"energy": -0.07761,
				"method": "rhf"
			},
			{
				"type": "unocc",
				"energy": -0.03229,
				"method": "rhf"
			},
			{
				"type": "unocc",
				"energy": -0.00568,
				"method": "rhf"
			},
			{
				"type": "unocc",
				"energy": 0.0015,
				"method": "rhf"
			},
			{
				"type": "unocc",
				"energy": 0.01968,
				"method": "rhf"
			}
		],
		"cosmo_sigma_profile": { 
			"-0.025": 0.0,
			"-0.024": 0.0,
			"-0.023": 0.0,
			"-0.022": 0.0,
			"-0.021": 0.0,
			"-0.02": 0.0,
			"-0.019": 0.142624631357,
			"-0.018": 0.841899676887,
			"-0.017": 0.935754062098,
			"-0.016": 1.20677665201,
			"-0.015": 0.196996214507,
			"-0.014": 0.54776565897,
			"-0.013": 0.435067501136,
			"-0.012": 1.10633017134,
			"-0.011": 1.24687465849,
			"-0.01": 0.228505645402,
			"-0.009": 0.412487850296,
			"-0.008": 2.39034778168,
			"-0.007": 6.02877293909,
			"-0.006": 17.6436193116,
			"-0.005": 21.2309524006,
			"-0.004": 22.3823456871,
			"-0.003": 23.4443516293,
			"-0.002": 17.632550953,
			"-0.001": 18.3787710128,
			"0.0": 24.5260032022,
			"0.001": 24.1732136753,
			"0.002": 26.9955343743,
			"0.003": 27.6770190005,
			"0.004": 19.7199408099,
			"0.005": 17.8551608683,
			"0.006": 9.11712048353,
			"0.007": 6.29728791923,
			"0.008": 4.19881793847,
			"0.009": 3.67803499924,
			"0.01": 4.56228823681,
			"0.011": 3.66475670046,
			"0.012": 0.599166324108,
			"0.013": 0.0,
			"0.014": 0.0,
			"0.015": 0.0,
			"0.016": 0.0,
			"0.017": 0.0,
			"0.018": 0.0,
			"0.019": 0.0,
			"0.02": 0.0,
			"0.021": 0.0,
			"0.022": 0.0,
			"0.023": 0.0,
			"0.024": 0.0,
			"0.025": 0.0
		}
	}
}
