{
	 "smiles": "ClC(=O)OC1=CC=CC=C1", 
	 "Tm": 245.15, 
	 "num_atms": 15, 
	 "gaussian": { 
		 "optdone": 1, 
		 "sigma_profile": "yes", 
		 "theory": "DFT", 
		 "functional": "B3LYP", 
		 "basiset": "6-31G**", 
		 "properties": { 
			 "R2extent": 3262.0761, 
			 "electric_dipole_moment_norm": 3.05148562015, 
			 "electric_quadrupole_moment_norm": 13.4434661103, 
			 "total_energy": -880.395565094, 
			 "HOMO_LUMO_gap": 0.24321, 
			 "cosmo_polarized_energy": -6.23, 
			 "cosmo_cavitation_energy": 22.25, 
			 "cosmo_dispersion_energy": -16.27, 
			 "cosmo_repulsion_energy": 1.35, 
			 "cosmo_total_nonelectrostatic_energy": 7.33, 
			 "SMD_solvation_energy": 5.13 
		},
		"coords": [
			{
				"x": -0.1563380438,
				"y": -2.2825798058,
				"z": -4.8368227032,
				"element": "Cl" 
			},
			{
				"x": -0.1828578085,
				"y": -0.972063007,
				"z": -3.6349065136,
				"element": "C" 
			},
			{
				"x": -0.0728881501,
				"y": 0.1803589224,
				"z": -3.9147433854,
				"element": "O" 
			},
			{
				"x": -0.3431857453,
				"y": -1.5282159393,
				"z": -2.4241013627,
				"element": "O" 
			},
			{
				"x": -0.3901866645,
				"y": -0.644984025,
				"z": -1.3199311684,
				"element": "C" 
			},
			{
				"x": 0.7913326156,
				"y": -0.3445064447,
				"z": -0.6526133895,
				"element": "C" 
			},
			{
				"x": 0.7284634537,
				"y": 0.4655491537,
				"z": 0.4824355782,
				"element": "C" 
			},
			{
				"x": -0.5000850625,
				"y": 0.9563724774,
				"z": 0.9297918006,
				"element": "C" 
			},
			{
				"x": -1.6734020483,
				"y": 0.6372723576,
				"z": 0.2428601584,
				"element": "C" 
			},
			{
				"x": -1.6254630155,
				"y": -0.1717239229,
				"z": -0.8936683461,
				"element": "C" 
			},
			{
				"x": 1.7332189915,
				"y": -0.7417154634,
				"z": -1.0156133894,
				"element": "H" 
			},
			{
				"x": 1.641669556,
				"y": 0.710825789,
				"z": 1.0158497607,
				"element": "H" 
			},
			{
				"x": -0.5432821207,
				"y": 1.5852887058,
				"z": 1.8136228998,
				"element": "H" 
			},
			{
				"x": -2.6297790847,
				"y": 1.0162440474,
				"z": 0.5897891911,
				"element": "H" 
			},
			{
				"x": -2.5240168729,
				"y": -0.4373228453,
				"z": -1.4402491306,
				"element": "H" 
			}
		],
		 "valence_orbital": [ 
			{
				"type": "occ",
				"energy": -0.33798,
				"method": "rhf"
			},
			{
				"type": "occ",
				"energy": -0.33161,
				"method": "rhf"
			},
			{
				"type": "occ",
				"energy": -0.30617,
				"method": "rhf"
			},
			{
				"type": "occ",
				"energy": -0.27077,
				"method": "rhf"
			},
			{
				"type": "occ",
				"energy": -0.26576,
				"method": "rhf"
			},
			{
				"type": "unocc",
				"energy": -0.02255,
				"method": "rhf"
			},
			{
				"type": "unocc",
				"energy": -0.02074,
				"method": "rhf"
			},
			{
				"type": "unocc",
				"energy": -0.00944,
				"method": "rhf"
			},
			{
				"type": "unocc",
				"energy": 0.0165,
				"method": "rhf"
			},
			{
				"type": "unocc",
				"energy": 0.07524,
				"method": "rhf"
			}
		],
		"cosmo_sigma_profile": { 
			"-0.025": 0.0,
			"-0.024": 0.0,
			"-0.023": 0.0,
			"-0.022": 0.0,
			"-0.021": 0.0,
			"-0.02": 0.0,
			"-0.019": 0.0,
			"-0.018": 0.0,
			"-0.017": 0.0,
			"-0.016": 0.0,
			"-0.015": 0.0,
			"-0.014": 0.0,
			"-0.013": 0.0,
			"-0.012": 0.0,
			"-0.011": 0.0,
			"-0.01": 0.0,
			"-0.009": 0.0,
			"-0.008": 1.98479360999,
			"-0.007": 8.73560794721,
			"-0.006": 12.896416731,
			"-0.005": 13.7756802716,
			"-0.004": 10.5253706419,
			"-0.003": 10.9873111077,
			"-0.002": 9.73216738338,
			"-0.001": 10.1464304362,
			"0.0": 10.8862131726,
			"0.001": 15.8504067174,
			"0.002": 16.7488752266,
			"0.003": 22.729343987,
			"0.004": 15.8471402936,
			"0.005": 5.23649341107,
			"0.006": 3.65042879581,
			"0.007": 3.07482989334,
			"0.008": 4.39443573364,
			"0.009": 4.21330977613,
			"0.01": 0.314678610642,
			"0.011": 0.0,
			"0.012": 0.0,
			"0.013": 0.0,
			"0.014": 0.0,
			"0.015": 0.0,
			"0.016": 0.0,
			"0.017": 0.0,
			"0.018": 0.0,
			"0.019": 0.0,
			"0.02": 0.0,
			"0.021": 0.0,
			"0.022": 0.0,
			"0.023": 0.0,
			"0.024": 0.0,
			"0.025": 0.0
		}
	}
}
