{
	 "smiles": "CN1C(=O)C(C(N)=O)=C(N)C11CCCC1", 
	 "Tm": 529.15, 
	 "num_atms": 30, 
	 "gaussian": { 
		 "optdone": 1, 
		 "sigma_profile": "yes", 
		 "theory": "DFT", 
		 "functional": "B3LYP", 
		 "basiset": "6-31G**", 
		 "properties": { 
			 "R2extent": 4473.2902, 
			 "electric_dipole_moment_norm": 8.29412268175, 
			 "electric_quadrupole_moment_norm": 42.3835338745, 
			 "total_energy": -704.836875769, 
			 "HOMO_LUMO_gap": 0.19614, 
			 "cosmo_polarized_energy": -29.5, 
			 "cosmo_cavitation_energy": 31.23, 
			 "cosmo_dispersion_energy": -22.48, 
			 "cosmo_repulsion_energy": 1.76, 
			 "cosmo_total_nonelectrostatic_energy": 10.51, 
			 "SMD_solvation_energy": 6.39 
		},
		"coords": [
			{
				"x": -2.3052661656,
				"y": -1.7062413441,
				"z": -1.5308001748,
				"element": "C" 
			},
			{
				"x": -1.5270389436,
				"y": -0.5053237101,
				"z": -1.7197042217,
				"element": "N" 
			},
			{
				"x": -1.098046849,
				"y": -0.1044794559,
				"z": -2.9837912787,
				"element": "C" 
			},
			{
				"x": -1.391581792,
				"y": -0.6688064379,
				"z": -4.0249904543,
				"element": "O" 
			},
			{
				"x": -0.2284516548,
				"y": 1.0795939472,
				"z": -2.7675425799,
				"element": "C" 
			},
			{
				"x": 0.3320999679,
				"y": 1.9078804958,
				"z": -3.8527678712,
				"element": "C" 
			},
			{
				"x": 1.5006827917,
				"y": 2.6104223425,
				"z": -3.4951298326,
				"element": "N" 
			},
			{
				"x": -0.1812126566,
				"y": 2.0582992577,
				"z": -4.9475774416,
				"element": "O" 
			},
			{
				"x": -0.1598204672,
				"y": 1.3229567644,
				"z": -1.4275082863,
				"element": "C" 
			},
			{
				"x": 0.5287445731,
				"y": 2.299584744,
				"z": -0.7693110408,
				"element": "N" 
			},
			{
				"x": -0.9761773205,
				"y": 0.304998337,
				"z": -0.6417203231,
				"element": "C" 
			},
			{
				"x": -2.0832999178,
				"y": 0.9762265045,
				"z": 0.2520909198,
				"element": "C" 
			},
			{
				"x": -1.670182428,
				"y": 0.7295618534,
				"z": 1.7149691405,
				"element": "C" 
			},
			{
				"x": -0.9344418828,
				"y": -0.6186590501,
				"z": 1.6585626619,
				"element": "C" 
			},
			{
				"x": -0.0953476518,
				"y": -0.5051501812,
				"z": 0.3757030775,
				"element": "C" 
			},
			{
				"x": -3.2475716926,
				"y": -1.5088350759,
				"z": -1.0039859343,
				"element": "H" 
			},
			{
				"x": -1.7552182373,
				"y": -2.4785026677,
				"z": -0.9763654941,
				"element": "H" 
			},
			{
				"x": -2.5343238934,
				"y": -2.0879809618,
				"z": -2.5277283033,
				"element": "H" 
			},
			{
				"x": 1.9132985089,
				"y": 3.0741059717,
				"z": -4.2972198452,
				"element": "H" 
			},
			{
				"x": 2.1758264737,
				"y": 2.0865513028,
				"z": -2.9489086863,
				"element": "H" 
			},
			{
				"x": 0.2220908966,
				"y": 2.5528726995,
				"z": 0.1585524528,
				"element": "H" 
			},
			{
				"x": 0.8841820572,
				"y": 3.0558513773,
				"z": -1.3434273861,
				"element": "H" 
			},
			{
				"x": -2.2252123204,
				"y": 2.0331637982,
				"z": 0.0076819693,
				"element": "H" 
			},
			{
				"x": -3.0351750802,
				"y": 0.4792039752,
				"z": 0.0440921336,
				"element": "H" 
			},
			{
				"x": -2.5245257345,
				"y": 0.7319873467,
				"z": 2.3986806154,
				"element": "H" 
			},
			{
				"x": -0.9812820629,
				"y": 1.5112819949,
				"z": 2.0648319868,
				"element": "H" 
			},
			{
				"x": -1.6623482517,
				"y": -1.4343594131,
				"z": 1.5693560984,
				"element": "H" 
			},
			{
				"x": -0.3269453178,
				"y": -0.8184595171,
				"z": 2.5465485696,
				"element": "H" 
			},
			{
				"x": 0.8205064403,
				"y": 0.0584128866,
				"z": 0.5852742755,
				"element": "H" 
			},
			{
				"x": 0.2071386111,
				"y": -1.4654577843,
				"z": -0.0492647467,
				"element": "H" 
			}
		],
		 "valence_orbital": [ 
			{
				"type": "occ",
				"energy": -0.27686,
				"method": "rhf"
			},
			{
				"type": "occ",
				"energy": -0.24541,
				"method": "rhf"
			},
			{
				"type": "occ",
				"energy": -0.23144,
				"method": "rhf"
			},
			{
				"type": "occ",
				"energy": -0.23085,
				"method": "rhf"
			},
			{
				"type": "occ",
				"energy": -0.2193,
				"method": "rhf"
			},
			{
				"type": "unocc",
				"energy": -0.02316,
				"method": "rhf"
			},
			{
				"type": "unocc",
				"energy": 0.03313,
				"method": "rhf"
			},
			{
				"type": "unocc",
				"energy": 0.04266,
				"method": "rhf"
			},
			{
				"type": "unocc",
				"energy": 0.07178,
				"method": "rhf"
			},
			{
				"type": "unocc",
				"energy": 0.08459,
				"method": "rhf"
			}
		],
		"cosmo_sigma_profile": { 
			"-0.025": 0.0,
			"-0.024": 0.0,
			"-0.023": 0.0,
			"-0.022": 0.0,
			"-0.021": 0.0,
			"-0.02": 0.0,
			"-0.019": 0.0,
			"-0.018": 0.0,
			"-0.017": 0.0,
			"-0.016": 0.0,
			"-0.015": 0.0,
			"-0.014": 0.103051320958,
			"-0.013": 2.68061205602,
			"-0.012": 3.52116636456,
			"-0.011": 5.27352759314,
			"-0.01": 5.56078508334,
			"-0.009": 4.96600953815,
			"-0.008": 4.38247970426,
			"-0.007": 3.87821147013,
			"-0.006": 6.05446748228,
			"-0.005": 8.09204814144,
			"-0.004": 18.7847876901,
			"-0.003": 25.2218112257,
			"-0.002": 27.5400928158,
			"-0.001": 26.9925458115,
			"0.0": 22.6444100274,
			"0.001": 12.4227591296,
			"0.002": 7.94937182829,
			"0.003": 6.03575704631,
			"0.004": 4.68559238338,
			"0.005": 3.41273685448,
			"0.006": 2.67626981215,
			"0.007": 3.17076939562,
			"0.008": 2.28916646208,
			"0.009": 2.82110591462,
			"0.01": 2.17602125549,
			"0.011": 2.98188528525,
			"0.012": 2.917482074,
			"0.013": 6.15016516406,
			"0.014": 9.88584263134,
			"0.015": 4.64121193324,
			"0.016": 1.9495583865,
			"0.017": 1.63746087684,
			"0.018": 0.507771346891,
			"0.019": 0.0,
			"0.02": 0.0,
			"0.021": 0.0,
			"0.022": 0.0,
			"0.023": 0.0,
			"0.024": 0.0,
			"0.025": 0.0
		}
	}
}
