{
	 "smiles": "CN(C)S(=O)(=O)C1=C(CNC(=O)CCl)C=CC=C1", 
	 "Tm": 361.15, 
	 "num_atms": 33, 
	 "gaussian": { 
		 "optdone": 1, 
		 "sigma_profile": "yes", 
		 "theory": "DFT", 
		 "functional": "B3LYP", 
		 "basiset": "6-31G**", 
		 "properties": { 
			 "R2extent": 7497.1226, 
			 "electric_dipole_moment_norm": 4.42594140268, 
			 "electric_quadrupole_moment_norm": 23.6664051129, 
			 "total_energy": -1621.70440606, 
			 "HOMO_LUMO_gap": 0.2194, 
			 "cosmo_polarized_energy": -19.51, 
			 "cosmo_cavitation_energy": 39.14, 
			 "cosmo_dispersion_energy": -27.71, 
			 "cosmo_repulsion_energy": 2.12, 
			 "cosmo_total_nonelectrostatic_energy": 13.55, 
			 "SMD_solvation_energy": 6.62 
		},
		"coords": [
			{
				"x": -0.0275751464,
				"y": 1.4499952407,
				"z": -4.4244967126,
				"element": "C" 
			},
			{
				"x": -0.3232161503,
				"y": 0.1066741602,
				"z": -3.9086630244,
				"element": "N" 
			},
			{
				"x": 0.0643062131,
				"y": -0.9912016053,
				"z": -4.8052124466,
				"element": "C" 
			},
			{
				"x": 0.0563242164,
				"y": -0.1129969653,
				"z": -2.2711710845,
				"element": "S" 
			},
			{
				"x": 0.2235299499,
				"y": -1.5562303345,
				"z": -2.0511426243,
				"element": "O" 
			},
			{
				"x": 1.1313959687,
				"y": 0.8102900676,
				"z": -1.8786442929,
				"element": "O" 
			},
			{
				"x": -1.4481366016,
				"y": 0.4221764656,
				"z": -1.4272116127,
				"element": "C" 
			},
			{
				"x": -1.4155460213,
				"y": 0.6064750183,
				"z": -0.0284053313,
				"element": "C" 
			},
			{
				"x": -0.1440489256,
				"y": 0.3974463825,
				"z": 0.7887740464,
				"element": "C" 
			},
			{
				"x": -0.3836881536,
				"y": 0.2351543249,
				"z": 2.2124922816,
				"element": "N" 
			},
			{
				"x": 0.0441300416,
				"y": 1.1432232261,
				"z": 3.1248100374,
				"element": "C" 
			},
			{
				"x": 0.6099628101,
				"y": 2.1951362161,
				"z": 2.859025377,
				"element": "O" 
			},
			{
				"x": -0.1827241167,
				"y": 0.8328349371,
				"z": 4.6071579942,
				"element": "C" 
			},
			{
				"x": -1.1258600494,
				"y": -0.6711387135,
				"z": 4.9995109612,
				"element": "Cl" 
			},
			{
				"x": -2.6037936271,
				"y": 1.0027441177,
				"z": 0.5926677907,
				"element": "C" 
			},
			{
				"x": -3.7790486426,
				"y": 1.2029124349,
				"z": -0.1330216915,
				"element": "C" 
			},
			{
				"x": -3.7937156121,
				"y": 1.000226987,
				"z": -1.5105062382,
				"element": "C" 
			},
			{
				"x": -2.6235216845,
				"y": 0.6047048751,
				"z": -2.1582605589,
				"element": "C" 
			},
			{
				"x": 1.0472256997,
				"y": 1.6191813198,
				"z": -4.5647249057,
				"element": "H" 
			},
			{
				"x": -0.4122043373,
				"y": 2.2089146281,
				"z": -3.7411756867,
				"element": "H" 
			},
			{
				"x": -0.5393894132,
				"y": 1.5607736571,
				"z": -5.3849262379,
				"element": "H" 
			},
			{
				"x": -0.1810693992,
				"y": -1.9461436259,
				"z": -4.3436864584,
				"element": "H" 
			},
			{
				"x": 1.1358314855,
				"y": -0.9772277278,
				"z": -5.0476944036,
				"element": "H" 
			},
			{
				"x": -0.5073648968,
				"y": -0.8821135165,
				"z": -5.7316990934,
				"element": "H" 
			},
			{
				"x": 0.5196382648,
				"y": 1.2579416847,
				"z": 0.6721619697,
				"element": "H" 
			},
			{
				"x": 0.3979497152,
				"y": -0.4777251503,
				"z": 0.4190272872,
				"element": "H" 
			},
			{
				"x": -0.8132151765,
				"y": -0.6160010057,
				"z": 2.5480207167,
				"element": "H" 
			},
			{
				"x": 0.7897340292,
				"y": 0.7350263122,
				"z": 5.0907115482,
				"element": "H" 
			},
			{
				"x": -0.7150952433,
				"y": 1.6722720556,
				"z": 5.0535653006,
				"element": "H" 
			},
			{
				"x": -2.6029305668,
				"y": 1.1507836252,
				"z": 1.6669308651,
				"element": "H" 
			},
			{
				"x": -4.6821647474,
				"y": 1.5136283047,
				"z": 0.3840211064,
				"element": "H" 
			},
			{
				"x": -4.7055522736,
				"y": 1.1438790437,
				"z": -2.0818159418,
				"element": "H" 
			},
			{
				"x": -2.609967609,
				"y": 0.4322835599,
				"z": -3.2276189368,
				"element": "H" 
			}
		],
		 "valence_orbital": [ 
			{
				"type": "occ",
				"energy": -0.27247,
				"method": "rhf"
			},
			{
				"type": "occ",
				"energy": -0.26781,
				"method": "rhf"
			},
			{
				"type": "occ",
				"energy": -0.26345,
				"method": "rhf"
			},
			{
				"type": "occ",
				"energy": -0.25909,
				"method": "rhf"
			},
			{
				"type": "occ",
				"energy": -0.25638,
				"method": "rhf"
			},
			{
				"type": "unocc",
				"energy": -0.03698,
				"method": "rhf"
			},
			{
				"type": "unocc",
				"energy": -0.01954,
				"method": "rhf"
			},
			{
				"type": "unocc",
				"energy": 0.01046,
				"method": "rhf"
			},
			{
				"type": "unocc",
				"energy": 0.01736,
				"method": "rhf"
			},
			{
				"type": "unocc",
				"energy": 0.05334,
				"method": "rhf"
			}
		],
		"cosmo_sigma_profile": { 
			"-0.025": 0.0,
			"-0.024": 0.0,
			"-0.023": 0.0,
			"-0.022": 0.0,
			"-0.021": 0.0,
			"-0.02": 0.0,
			"-0.019": 0.0,
			"-0.018": 0.0,
			"-0.017": 0.0,
			"-0.016": 0.0,
			"-0.015": 0.0,
			"-0.014": 0.196068847277,
			"-0.013": 0.711052212087,
			"-0.012": 0.809539872892,
			"-0.011": 0.912286161625,
			"-0.01": 0.786310014786,
			"-0.009": 4.50728706179,
			"-0.008": 5.01431696484,
			"-0.007": 8.30717669912,
			"-0.006": 18.4299302144,
			"-0.005": 28.2855610534,
			"-0.004": 27.6065354249,
			"-0.003": 24.5238169359,
			"-0.002": 28.91280648,
			"-0.001": 20.0746101062,
			"0.0": 16.8294449767,
			"0.001": 17.1544137625,
			"0.002": 17.9230363065,
			"0.003": 19.5936151798,
			"0.004": 12.4129634504,
			"0.005": 10.5919810468,
			"0.006": 6.15498486003,
			"0.007": 4.05195240276,
			"0.008": 5.34604581165,
			"0.009": 4.63758280483,
			"0.01": 8.01039015043,
			"0.011": 8.93207616848,
			"0.012": 5.67280130682,
			"0.013": 5.40059268207,
			"0.014": 0.689251094056,
			"0.015": 0.0,
			"0.016": 0.0,
			"0.017": 0.0,
			"0.018": 0.0,
			"0.019": 0.0,
			"0.02": 0.0,
			"0.021": 0.0,
			"0.022": 0.0,
			"0.023": 0.0,
			"0.024": 0.0,
			"0.025": 0.0
		}
	}
}
