{
	 "smiles": "NC1=NN=C(O1)C1COC2=C(O1)C=CC=C2", 
	 "Tm": 484.15, 
	 "num_atms": 25, 
	 "gaussian": { 
		 "optdone": 1, 
		 "sigma_profile": "yes", 
		 "theory": "DFT", 
		 "functional": "B3LYP", 
		 "basiset": "6-31G**", 
		 "properties": { 
			 "R2extent": 3555.8146, 
			 "electric_dipole_moment_norm": 3.35066182269, 
			 "electric_quadrupole_moment_norm": 13.9923110725, 
			 "total_energy": -776.359337848, 
			 "HOMO_LUMO_gap": 0.2084, 
			 "cosmo_polarized_energy": -18.64, 
			 "cosmo_cavitation_energy": 29.59, 
			 "cosmo_dispersion_energy": -21.76, 
			 "cosmo_repulsion_energy": 1.72, 
			 "cosmo_total_nonelectrostatic_energy": 9.55, 
			 "SMD_solvation_energy": 3.51 
		},
		"coords": [
			{
				"x": -1.6002955829,
				"y": 2.4441054024,
				"z": -1.0967471469,
				"element": "N" 
			},
			{
				"x": -0.296757199,
				"y": 2.1366095838,
				"z": -0.8343493962,
				"element": "C" 
			},
			{
				"x": 0.7774334402,
				"y": 2.7932016612,
				"z": -1.1660148751,
				"element": "N" 
			},
			{
				"x": 1.8447511462,
				"y": 1.992333747,
				"z": -0.7399399536,
				"element": "N" 
			},
			{
				"x": 1.3342606785,
				"y": 0.9490664075,
				"z": -0.1777373809,
				"element": "C" 
			},
			{
				"x": -0.0419844643,
				"y": 0.9638308512,
				"z": -0.1976835405,
				"element": "O" 
			},
			{
				"x": 2.0685644287,
				"y": -0.1858440418,
				"z": 0.4594896547,
				"element": "C" 
			},
			{
				"x": 1.8726939294,
				"y": -0.2920679526,
				"z": 1.976077252,
				"element": "C" 
			},
			{
				"x": 0.5331787624,
				"y": -0.6414594556,
				"z": 2.2993712647,
				"element": "O" 
			},
			{
				"x": 0.0696186504,
				"y": -1.7251393652,
				"z": 1.5890082123,
				"element": "C" 
			},
			{
				"x": 0.6657145815,
				"y": -2.1099328345,
				"z": 0.3785900911,
				"element": "C" 
			},
			{
				"x": 1.7423930154,
				"y": -1.4372760588,
				"z": -0.1579258293,
				"element": "O" 
			},
			{
				"x": 0.1722017593,
				"y": -3.2133486911,
				"z": -0.3180980882,
				"element": "C" 
			},
			{
				"x": -0.9177383688,
				"y": -3.9239107516,
				"z": 0.1823658233,
				"element": "C" 
			},
			{
				"x": -1.5225617291,
				"y": -3.5295223506,
				"z": 1.3793286919,
				"element": "C" 
			},
			{
				"x": -1.0252641327,
				"y": -2.4335839298,
				"z": 2.0831026771,
				"element": "C" 
			},
			{
				"x": -1.7422079659,
				"y": 3.4034123168,
				"z": -1.3792961702,
				"element": "H" 
			},
			{
				"x": -2.2789644411,
				"y": 2.0899191494,
				"z": -0.4376681167,
				"element": "H" 
			},
			{
				"x": 3.1260476773,
				"y": -0.0063567146,
				"z": 0.2463853038,
				"element": "H" 
			},
			{
				"x": 2.0778885425,
				"y": 0.6636115355,
				"z": 2.4628569442,
				"element": "H" 
			},
			{
				"x": 2.5664527689,
				"y": -1.0507443249,
				"z": 2.3639233848,
				"element": "H" 
			},
			{
				"x": 0.6537152452,
				"y": -3.4901221634,
				"z": -1.2504475369,
				"element": "H" 
			},
			{
				"x": -1.2963332603,
				"y": -4.780688055,
				"z": -0.3662294275,
				"element": "H" 
			},
			{
				"x": -2.3740583108,
				"y": -4.0778696917,
				"z": 1.7699765058,
				"element": "H" 
			},
			{
				"x": -1.4659491711,
				"y": -2.1094242734,
				"z": 3.0205616561,
				"element": "H" 
			}
		],
		 "valence_orbital": [ 
			{
				"type": "occ",
				"energy": -0.30942,
				"method": "rhf"
			},
			{
				"type": "occ",
				"energy": -0.27487,
				"method": "rhf"
			},
			{
				"type": "occ",
				"energy": -0.23973,
				"method": "rhf"
			},
			{
				"type": "occ",
				"energy": -0.23857,
				"method": "rhf"
			},
			{
				"type": "occ",
				"energy": -0.21499,
				"method": "rhf"
			},
			{
				"type": "unocc",
				"energy": -0.00659,
				"method": "rhf"
			},
			{
				"type": "unocc",
				"energy": 0.00104,
				"method": "rhf"
			},
			{
				"type": "unocc",
				"energy": 0.0145,
				"method": "rhf"
			},
			{
				"type": "unocc",
				"energy": 0.04611,
				"method": "rhf"
			},
			{
				"type": "unocc",
				"energy": 0.06397,
				"method": "rhf"
			}
		],
		"cosmo_sigma_profile": { 
			"-0.025": 0.0,
			"-0.024": 0.0,
			"-0.023": 0.0,
			"-0.022": 0.0,
			"-0.021": 0.0,
			"-0.02": 0.0,
			"-0.019": 0.0,
			"-0.018": 0.0,
			"-0.017": 0.0,
			"-0.016": 0.445973321981,
			"-0.015": 2.28443328102,
			"-0.014": 2.84983537869,
			"-0.013": 1.77812846572,
			"-0.012": 2.97436214746,
			"-0.011": 2.30622704511,
			"-0.01": 2.66937176499,
			"-0.009": 4.25664121668,
			"-0.008": 7.50868321637,
			"-0.007": 9.18629227078,
			"-0.006": 13.4551009352,
			"-0.005": 14.345124581,
			"-0.004": 14.4323719969,
			"-0.003": 14.1420255359,
			"-0.002": 10.0073685651,
			"-0.001": 9.62397286181,
			"0.0": 9.45799643181,
			"0.001": 12.1255529996,
			"0.002": 13.3024699806,
			"0.003": 14.6259172066,
			"0.004": 15.7640658248,
			"0.005": 15.7531271672,
			"0.006": 8.98166982686,
			"0.007": 5.21436939318,
			"0.008": 4.99206295472,
			"0.009": 4.47438723563,
			"0.01": 4.57507564798,
			"0.011": 2.76140387464,
			"0.012": 4.08801714987,
			"0.013": 2.71602683365,
			"0.014": 2.94177370068,
			"0.015": 1.72177657869,
			"0.016": 0.72316325491,
			"0.017": 0.0,
			"0.018": 0.0,
			"0.019": 0.0,
			"0.02": 0.0,
			"0.021": 0.0,
			"0.022": 0.0,
			"0.023": 0.0,
			"0.024": 0.0,
			"0.025": 0.0
		}
	}
}
