{
	 "smiles": "CCOC(=O)C1=C(N)SC(CC)=C1", 
	 "Tm": 343.15, 
	 "num_atms": 26, 
	 "gaussian": { 
		 "optdone": 1, 
		 "sigma_profile": "yes", 
		 "theory": "DFT", 
		 "functional": "B3LYP", 
		 "basiset": "6-31G**", 
		 "properties": { 
			 "R2extent": 4658.7864, 
			 "electric_dipole_moment_norm": 2.82620572677, 
			 "electric_quadrupole_moment_norm": 11.1533699643, 
			 "total_energy": -954.198678322, 
			 "HOMO_LUMO_gap": 0.17729, 
			 "cosmo_polarized_energy": -11.16, 
			 "cosmo_cavitation_energy": 30.89, 
			 "cosmo_dispersion_energy": -22.77, 
			 "cosmo_repulsion_energy": 1.8, 
			 "cosmo_total_nonelectrostatic_energy": 9.93, 
			 "SMD_solvation_energy": 5.91 
		},
		"coords": [
			{
				"x": 0.6882555036,
				"y": 2.169399005,
				"z": 1.7806005751,
				"element": "C" 
			},
			{
				"x": 0.9022842787,
				"y": 2.3013527668,
				"z": 0.2799782191,
				"element": "C" 
			},
			{
				"x": 0.2582567218,
				"y": 1.227613869,
				"z": -0.4443966041,
				"element": "O" 
			},
			{
				"x": 0.9797870918,
				"y": 0.0643921034,
				"z": -0.5729708444,
				"element": "C" 
			},
			{
				"x": 2.0992831007,
				"y": -0.0607019469,
				"z": -0.1089958388,
				"element": "O" 
			},
			{
				"x": 0.2598167548,
				"y": -0.9724480761,
				"z": -1.3083326897,
				"element": "C" 
			},
			{
				"x": -1.0174010301,
				"y": -0.8800379356,
				"z": -1.850058432,
				"element": "C" 
			},
			{
				"x": -1.855954586,
				"y": 0.2016381988,
				"z": -1.9078962619,
				"element": "N" 
			},
			{
				"x": -1.4798249572,
				"y": -2.386948861,
				"z": -2.6151669048,
				"element": "S" 
			},
			{
				"x": 0.0635724136,
				"y": -3.1544263983,
				"z": -2.1879387855,
				"element": "C" 
			},
			{
				"x": 0.336591837,
				"y": -4.58399218,
				"z": -2.5573477235,
				"element": "C" 
			},
			{
				"x": -0.5522648807,
				"y": -5.609092495,
				"z": -1.831159824,
				"element": "C" 
			},
			{
				"x": 0.8465527643,
				"y": -2.271917404,
				"z": -1.5187705324,
				"element": "C" 
			},
			{
				"x": 1.1251329629,
				"y": 3.0311111459,
				"z": 2.2965890728,
				"element": "H" 
			},
			{
				"x": 1.1705242905,
				"y": 1.2636042205,
				"z": 2.1552383092,
				"element": "H" 
			},
			{
				"x": -0.3782483007,
				"y": 2.1297634188,
				"z": 2.0230510193,
				"element": "H" 
			},
			{
				"x": 0.4420868206,
				"y": 3.2119848148,
				"z": -0.1126785036,
				"element": "H" 
			},
			{
				"x": 1.9662535261,
				"y": 2.2984144286,
				"z": 0.0341751877,
				"element": "H" 
			},
			{
				"x": -2.8464631684,
				"y": 0.0229508989,
				"z": -1.9789667736,
				"element": "H" 
			},
			{
				"x": -1.5831715121,
				"y": 0.96703907,
				"z": -1.3048860626,
				"element": "H" 
			},
			{
				"x": 1.3892934447,
				"y": -4.7809601923,
				"z": -2.3236605712,
				"element": "H" 
			},
			{
				"x": 0.2340549352,
				"y": -4.7215896614,
				"z": -3.6423586559,
				"element": "H" 
			},
			{
				"x": -0.2890129814,
				"y": -6.6293427643,
				"z": -2.1289917662,
				"element": "H" 
			},
			{
				"x": -1.6108732306,
				"y": -5.455220486,
				"z": -2.0649769942,
				"element": "H" 
			},
			{
				"x": -0.4351899331,
				"y": -5.5262199582,
				"z": -0.7463940957,
				"element": "H" 
			},
			{
				"x": 1.8394581342,
				"y": -2.5081655814,
				"z": -1.154084519,
				"element": "H" 
			}
		],
		 "valence_orbital": [ 
			{
				"type": "occ",
				"energy": -0.30635,
				"method": "rhf"
			},
			{
				"type": "occ",
				"energy": -0.29079,
				"method": "rhf"
			},
			{
				"type": "occ",
				"energy": -0.26366,
				"method": "rhf"
			},
			{
				"type": "occ",
				"energy": -0.2481,
				"method": "rhf"
			},
			{
				"type": "occ",
				"energy": -0.19475,
				"method": "rhf"
			},
			{
				"type": "unocc",
				"energy": -0.01746,
				"method": "rhf"
			},
			{
				"type": "unocc",
				"energy": 0.01276,
				"method": "rhf"
			},
			{
				"type": "unocc",
				"energy": 0.02208,
				"method": "rhf"
			},
			{
				"type": "unocc",
				"energy": 0.07722,
				"method": "rhf"
			},
			{
				"type": "unocc",
				"energy": 0.10274,
				"method": "rhf"
			}
		],
		"cosmo_sigma_profile": { 
			"-0.025": 0.0,
			"-0.024": 0.0,
			"-0.023": 0.0,
			"-0.022": 0.0,
			"-0.021": 0.0,
			"-0.02": 0.0,
			"-0.019": 0.0,
			"-0.018": 0.0,
			"-0.017": 0.0,
			"-0.016": 0.0,
			"-0.015": 0.307184602537,
			"-0.014": 1.34493304796,
			"-0.013": 1.14286858766,
			"-0.012": 1.28473279208,
			"-0.011": 1.98539328375,
			"-0.01": 1.95989796911,
			"-0.009": 2.54266408609,
			"-0.008": 1.79343593875,
			"-0.007": 1.10977887391,
			"-0.006": 3.32120125186,
			"-0.005": 6.77163154541,
			"-0.004": 19.05094977,
			"-0.003": 26.3039521478,
			"-0.002": 24.1903890787,
			"-0.001": 25.5694222778,
			"0.0": 27.0004757037,
			"0.001": 21.4661818521,
			"0.002": 14.5382131957,
			"0.003": 16.1214221295,
			"0.004": 15.1706139949,
			"0.005": 10.1351492936,
			"0.006": 4.29209586984,
			"0.007": 2.61964840933,
			"0.008": 2.09840612912,
			"0.009": 2.63748811355,
			"0.01": 1.65886003991,
			"0.011": 2.33417385705,
			"0.012": 3.31442423247,
			"0.013": 3.33609977788,
			"0.014": 0.0475557998792,
			"0.015": 0.0,
			"0.016": 0.0,
			"0.017": 0.0,
			"0.018": 0.0,
			"0.019": 0.0,
			"0.02": 0.0,
			"0.021": 0.0,
			"0.022": 0.0,
			"0.023": 0.0,
			"0.024": 0.0,
			"0.025": 0.0
		}
	}
}
