{
	 "smiles": "CC1=CC=C(C=C1)C1=NOC(CC#N)=N1", 
	 "Tm": 330.15, 
	 "num_atms": 24, 
	 "gaussian": { 
		 "optdone": 1, 
		 "sigma_profile": "yes", 
		 "theory": "DFT", 
		 "functional": "B3LYP", 
		 "basiset": "6-31G**", 
		 "properties": { 
			 "R2extent": 5528.3233, 
			 "electric_dipole_moment_norm": 4.63470236477, 
			 "electric_quadrupole_moment_norm": 28.4098715134, 
			 "total_energy": -664.022038916, 
			 "HOMO_LUMO_gap": 0.18815, 
			 "cosmo_polarized_energy": -13.74, 
			 "cosmo_cavitation_energy": 30.55, 
			 "cosmo_dispersion_energy": -21.74, 
			 "cosmo_repulsion_energy": 1.7, 
			 "cosmo_total_nonelectrostatic_energy": 10.52, 
			 "SMD_solvation_energy": 5.17 
		},
		"coords": [
			{
				"x": -2.6661577718,
				"y": 2.0039843219,
				"z": -2.320226385,
				"element": "C" 
			},
			{
				"x": -1.7479843965,
				"y": 0.97966033,
				"z": -1.698695389,
				"element": "C" 
			},
			{
				"x": -1.4447326844,
				"y": -0.2140368347,
				"z": -2.3741405493,
				"element": "C" 
			},
			{
				"x": -0.6183169055,
				"y": -1.1744241394,
				"z": -1.8041322109,
				"element": "C" 
			},
			{
				"x": -0.0664640214,
				"y": -0.9620238918,
				"z": -0.5300213744,
				"element": "C" 
			},
			{
				"x": -0.3588876248,
				"y": 0.225681723,
				"z": 0.1524256487,
				"element": "C" 
			},
			{
				"x": -1.1891785319,
				"y": 1.1808049097,
				"z": -0.4304351134,
				"element": "C" 
			},
			{
				"x": 0.8102719499,
				"y": -1.9631194241,
				"z": 0.0857514945,
				"element": "C" 
			},
			{
				"x": 1.1293538006,
				"y": -3.0981774168,
				"z": -0.4994762477,
				"element": "N" 
			},
			{
				"x": 1.9675338301,
				"y": -3.7280855962,
				"z": 0.436822122,
				"element": "O" 
			},
			{
				"x": 2.0574312986,
				"y": -2.8928812376,
				"z": 1.4803622233,
				"element": "C" 
			},
			{
				"x": 2.8759807949,
				"y": -3.3120263656,
				"z": 2.6665357566,
				"element": "C" 
			},
			{
				"x": 4.2942728525,
				"y": -3.5162449431,
				"z": 2.3492025674,
				"element": "C" 
			},
			{
				"x": 5.4176774375,
				"y": -3.6793803733,
				"z": 2.1132269581,
				"element": "N" 
			},
			{
				"x": 1.3792668658,
				"y": -1.798250596,
				"z": 1.3407195183,
				"element": "N" 
			},
			{
				"x": -3.7135081112,
				"y": 1.6832486196,
				"z": -2.2586965607,
				"element": "H" 
			},
			{
				"x": -2.5878985458,
				"y": 2.9709412788,
				"z": -1.8158555395,
				"element": "H" 
			},
			{
				"x": -2.4379257141,
				"y": 2.1538525681,
				"z": -3.3804994265,
				"element": "H" 
			},
			{
				"x": -1.8626743125,
				"y": -0.3892013587,
				"z": -3.3622794458,
				"element": "H" 
			},
			{
				"x": -0.3909837419,
				"y": -2.0908833278,
				"z": -2.3387915198,
				"element": "H" 
			},
			{
				"x": 0.0707559109,
				"y": 0.3926356873,
				"z": 1.1342278585,
				"element": "H" 
			},
			{
				"x": -1.4052914465,
				"y": 2.0994698422,
				"z": 0.108690651,
				"element": "H" 
			},
			{
				"x": 2.4731213298,
				"y": -4.2429842039,
				"z": 3.0837300439,
				"element": "H" 
			},
			{
				"x": 2.7805377376,
				"y": -2.5329595716,
				"z": 3.4275549196,
				"element": "H" 
			}
		],
		 "valence_orbital": [ 
			{
				"type": "occ",
				"energy": -0.34105,
				"method": "rhf"
			},
			{
				"type": "occ",
				"energy": -0.30983,
				"method": "rhf"
			},
			{
				"type": "occ",
				"energy": -0.30879,
				"method": "rhf"
			},
			{
				"type": "occ",
				"energy": -0.26092,
				"method": "rhf"
			},
			{
				"type": "occ",
				"energy": -0.2434,
				"method": "rhf"
			},
			{
				"type": "unocc",
				"energy": -0.05525,
				"method": "rhf"
			},
			{
				"type": "unocc",
				"energy": -0.02412,
				"method": "rhf"
			},
			{
				"type": "unocc",
				"energy": -0.00877,
				"method": "rhf"
			},
			{
				"type": "unocc",
				"energy": 0.01931,
				"method": "rhf"
			},
			{
				"type": "unocc",
				"energy": 0.02513,
				"method": "rhf"
			}
		],
		"cosmo_sigma_profile": { 
			"-0.025": 0.0,
			"-0.024": 0.0,
			"-0.023": 0.0,
			"-0.022": 0.0,
			"-0.021": 0.0,
			"-0.02": 0.0,
			"-0.019": 0.0,
			"-0.018": 0.0,
			"-0.017": 0.0,
			"-0.016": 0.0,
			"-0.015": 0.0,
			"-0.014": 0.0,
			"-0.013": 0.0,
			"-0.012": 1.67293676874,
			"-0.011": 5.76872318016,
			"-0.01": 4.58121880994,
			"-0.009": 4.08515368201,
			"-0.008": 4.9241462113,
			"-0.007": 3.65304097352,
			"-0.006": 8.01531007853,
			"-0.005": 13.8636634011,
			"-0.004": 19.9484624382,
			"-0.003": 15.176388103,
			"-0.002": 16.3832464561,
			"-0.001": 17.2884919045,
			"0.0": 20.3556565748,
			"0.001": 16.7454182858,
			"0.002": 15.2152263296,
			"0.003": 14.9136734367,
			"0.004": 16.4445971479,
			"0.005": 11.234993772,
			"0.006": 7.11880820712,
			"0.007": 6.10381391853,
			"0.008": 5.5472461103,
			"0.009": 5.42539471406,
			"0.01": 4.55949872063,
			"0.011": 4.49777356026,
			"0.012": 2.45406639693,
			"0.013": 0.242662798389,
			"0.014": 0.0,
			"0.015": 0.0,
			"0.016": 0.0,
			"0.017": 0.0,
			"0.018": 0.0,
			"0.019": 0.0,
			"0.02": 0.0,
			"0.021": 0.0,
			"0.022": 0.0,
			"0.023": 0.0,
			"0.024": 0.0,
			"0.025": 0.0
		}
	}
}
