{
	 "smiles": "CC1(C)CC(=O)C(=NNC2=CC=C(Br)C=C2)C(=O)C1", 
	 "Tm": 477.15, 
	 "num_atms": 34, 
	 "gaussian": { 
		 "optdone": 1, 
		 "sigma_profile": "yes", 
		 "theory": "DFT", 
		 "functional": "B3LYP", 
		 "basiset": "6-31G**", 
		 "properties": { 
			 "R2extent": 15696.7025, 
			 "electric_dipole_moment_norm": 3.29172602292, 
			 "electric_quadrupole_moment_norm": 6.96954623344, 
			 "total_energy": -3373.87009022, 
			 "HOMO_LUMO_gap": 0.13186, 
			 "cosmo_polarized_energy": -14.85, 
			 "cosmo_cavitation_energy": 39.61, 
			 "cosmo_dispersion_energy": -28.65, 
			 "cosmo_repulsion_energy": 2.19, 
			 "cosmo_total_nonelectrostatic_energy": 13.15, 
			 "SMD_solvation_energy": 5.8 
		},
		"coords": [
			{
				"x": -1.5372719943,
				"y": -1.5259959131,
				"z": -3.456437359,
				"element": "C" 
			},
			{
				"x": -0.7300717661,
				"y": -0.9267136228,
				"z": -2.2922533308,
				"element": "C" 
			},
			{
				"x": 0.2852108303,
				"y": 0.0908776506,
				"z": -2.8515233108,
				"element": "C" 
			},
			{
				"x": 0.0004438695,
				"y": -2.0551674664,
				"z": -1.5337359959,
				"element": "C" 
			},
			{
				"x": 0.7288583277,
				"y": -1.6151713701,
				"z": -0.267500636,
				"element": "C" 
			},
			{
				"x": 1.7432683382,
				"y": -2.1814343904,
				"z": 0.1040178943,
				"element": "O" 
			},
			{
				"x": 0.1172095909,
				"y": -0.4861045504,
				"z": 0.496969883,
				"element": "C" 
			},
			{
				"x": 0.7287297072,
				"y": -0.1845783773,
				"z": 1.6352858392,
				"element": "N" 
			},
			{
				"x": 0.2927099018,
				"y": 0.7885033462,
				"z": 2.3799866351,
				"element": "N" 
			},
			{
				"x": 0.9287386555,
				"y": 1.1090267484,
				"z": 3.5909591855,
				"element": "C" 
			},
			{
				"x": 0.4093463695,
				"y": 2.1650491999,
				"z": 4.350044497,
				"element": "C" 
			},
			{
				"x": 1.0092134704,
				"y": 2.5167959983,
				"z": 5.5566521061,
				"element": "C" 
			},
			{
				"x": 2.1264258268,
				"y": 1.8085535761,
				"z": 5.9963935729,
				"element": "C" 
			},
			{
				"x": 2.952304308,
				"y": 2.2858830125,
				"z": 7.6495526266,
				"element": "Br" 
			},
			{
				"x": 2.6496460573,
				"y": 0.7543839028,
				"z": 5.2439629921,
				"element": "C" 
			},
			{
				"x": 2.0525877876,
				"y": 0.4010930183,
				"z": 4.0387568389,
				"element": "C" 
			},
			{
				"x": -1.0577884111,
				"y": 0.2321156638,
				"z": -0.0084894695,
				"element": "C" 
			},
			{
				"x": -1.5515981514,
				"y": 1.1907897782,
				"z": 0.6091305806,
				"element": "O" 
			},
			{
				"x": -1.6950248825,
				"y": -0.2370197539,
				"z": -1.3040916511,
				"element": "C" 
			},
			{
				"x": -2.0812276282,
				"y": -0.7454629245,
				"z": -4.0000733718,
				"element": "H" 
			},
			{
				"x": -2.2689858634,
				"y": -2.2593428222,
				"z": -3.0992304172,
				"element": "H" 
			},
			{
				"x": -0.8767819696,
				"y": -2.0310878367,
				"z": -4.1695045759,
				"element": "H" 
			},
			{
				"x": -0.2274938481,
				"y": 0.8951383198,
				"z": -3.3902758252,
				"element": "H" 
			},
			{
				"x": 0.9739983648,
				"y": -0.3957427327,
				"z": -3.5500688782,
				"element": "H" 
			},
			{
				"x": 0.8879757414,
				"y": 0.5512323313,
				"z": -2.0616174498,
				"element": "H" 
			},
			{
				"x": 0.7315021922,
				"y": -2.563755862,
				"z": -2.1695204173,
				"element": "H" 
			},
			{
				"x": -0.7340944216,
				"y": -2.8163018802,
				"z": -1.2285363115,
				"element": "H" 
			},
			{
				"x": -0.5324491127,
				"y": 1.3082741439,
				"z": 2.0428808622,
				"element": "H" 
			},
			{
				"x": -0.4619380531,
				"y": 2.7110678313,
				"z": 3.9990695988,
				"element": "H" 
			},
			{
				"x": 0.6112310492,
				"y": 3.3331014246,
				"z": 6.1480242256,
				"element": "H" 
			},
			{
				"x": 3.5192117312,
				"y": 0.2133285043,
				"z": 5.5990201523,
				"element": "H" 
			},
			{
				"x": 2.4411663967,
				"y": -0.4126403268,
				"z": 3.4378199605,
				"element": "H" 
			},
			{
				"x": -2.1955281924,
				"y": 0.6263520583,
				"z": -1.7545889908,
				"element": "H" 
			},
			{
				"x": -2.4902242217,
				"y": -0.9440466791,
				"z": -1.0219794599,
				"element": "H" 
			}
		],
		 "valence_orbital": [ 
			{
				"type": "occ",
				"energy": -0.27629,
				"method": "rhf"
			},
			{
				"type": "occ",
				"energy": -0.27464,
				"method": "rhf"
			},
			{
				"type": "occ",
				"energy": -0.25748,
				"method": "rhf"
			},
			{
				"type": "occ",
				"energy": -0.23887,
				"method": "rhf"
			},
			{
				"type": "occ",
				"energy": -0.22378,
				"method": "rhf"
			},
			{
				"type": "unocc",
				"energy": -0.09192,
				"method": "rhf"
			},
			{
				"type": "unocc",
				"energy": -0.02448,
				"method": "rhf"
			},
			{
				"type": "unocc",
				"energy": -0.02292,
				"method": "rhf"
			},
			{
				"type": "unocc",
				"energy": -0.00234,
				"method": "rhf"
			},
			{
				"type": "unocc",
				"energy": 0.00266,
				"method": "rhf"
			}
		],
		"cosmo_sigma_profile": { 
			"-0.025": 0.0,
			"-0.024": 0.0,
			"-0.023": 0.0,
			"-0.022": 0.0,
			"-0.021": 0.0,
			"-0.02": 0.0,
			"-0.019": 0.0,
			"-0.018": 0.0,
			"-0.017": 0.0,
			"-0.016": 0.0,
			"-0.015": 0.0,
			"-0.014": 0.0,
			"-0.013": 0.0290639242529,
			"-0.012": 0.715992030094,
			"-0.011": 1.21166211746,
			"-0.01": 0.949994208956,
			"-0.009": 1.65408017378,
			"-0.008": 3.6558332838,
			"-0.007": 8.72046408157,
			"-0.006": 13.9985711755,
			"-0.005": 14.921858596,
			"-0.004": 24.7071843339,
			"-0.003": 34.9635711529,
			"-0.002": 27.540732301,
			"-0.001": 29.3847741386,
			"0.0": 27.9175771193,
			"0.001": 28.7039849864,
			"0.002": 25.2558547539,
			"0.003": 16.8217537393,
			"0.004": 14.4984422267,
			"0.005": 7.32904637404,
			"0.006": 3.39431291612,
			"0.007": 2.64379529617,
			"0.008": 3.46597574893,
			"0.009": 2.40920631357,
			"0.01": 3.80450441334,
			"0.011": 4.04370040511,
			"0.012": 5.7120707386,
			"0.013": 5.47782273045,
			"0.014": 2.76285990448,
			"0.015": 0.468325104678,
			"0.016": 0.0,
			"0.017": 0.0,
			"0.018": 0.0,
			"0.019": 0.0,
			"0.02": 0.0,
			"0.021": 0.0,
			"0.022": 0.0,
			"0.023": 0.0,
			"0.024": 0.0,
			"0.025": 0.0
		}
	}
}
