{
	 "smiles": "O=C1CC(C2=CC=CC=C12)C1=CC=CC=C1", 
	 "Tm": 350.15, 
	 "num_atms": 28, 
	 "gaussian": { 
		 "optdone": 1, 
		 "sigma_profile": "yes", 
		 "theory": "DFT", 
		 "functional": "B3LYP", 
		 "basiset": "6-31G**", 
		 "properties": { 
			 "R2extent": 3776.8324, 
			 "electric_dipole_moment_norm": 3.45750017498, 
			 "electric_quadrupole_moment_norm": 14.9185815636, 
			 "total_energy": -654.062739145, 
			 "HOMO_LUMO_gap": 0.18123, 
			 "cosmo_polarized_energy": -9.93, 
			 "cosmo_cavitation_energy": 31.65, 
			 "cosmo_dispersion_energy": -22.43, 
			 "cosmo_repulsion_energy": 1.74, 
			 "cosmo_total_nonelectrostatic_energy": 10.96, 
			 "SMD_solvation_energy": 5.55 
		},
		"coords": [
			{
				"x": 1.8370053612,
				"y": 3.4785001646,
				"z": 0.4417601142,
				"element": "O" 
			},
			{
				"x": 1.1303530406,
				"y": 2.5009539793,
				"z": 0.2809323854,
				"element": "C" 
			},
			{
				"x": 0.3573986064,
				"y": 2.1465757651,
				"z": -0.998295912,
				"element": "C" 
			},
			{
				"x": -0.5537544789,
				"y": 0.9334720105,
				"z": -0.6433265206,
				"element": "C" 
			},
			{
				"x": -0.0584829694,
				"y": 0.5112848525,
				"z": 0.7385201748,
				"element": "C" 
			},
			{
				"x": -0.4424463402,
				"y": -0.5975364647,
				"z": 1.4944808403,
				"element": "C" 
			},
			{
				"x": 0.1069461144,
				"y": -0.7632813557,
				"z": 2.7677952984,
				"element": "C" 
			},
			{
				"x": 1.0283534868,
				"y": 0.1595572263,
				"z": 3.2900713596,
				"element": "C" 
			},
			{
				"x": 1.4151834646,
				"y": 1.264170666,
				"z": 2.5368381353,
				"element": "C" 
			},
			{
				"x": 0.8643043895,
				"y": 1.4219166805,
				"z": 1.2615647717,
				"element": "C" 
			},
			{
				"x": -0.56737388,
				"y": -0.1763801391,
				"z": -1.6815648726,
				"element": "C" 
			},
			{
				"x": -1.7161000388,
				"y": -0.4255432326,
				"z": -2.4416715558,
				"element": "C" 
			},
			{
				"x": -1.7296815717,
				"y": -1.4268069598,
				"z": -3.4155425167,
				"element": "C" 
			},
			{
				"x": -0.5893827662,
				"y": -2.1973401724,
				"z": -3.6418260278,
				"element": "C" 
			},
			{
				"x": 0.562668529,
				"y": -1.9610006106,
				"z": -2.8870381566,
				"element": "C" 
			},
			{
				"x": 0.5721973183,
				"y": -0.9612380799,
				"z": -1.9156234645,
				"element": "C" 
			},
			{
				"x": -0.1951319168,
				"y": 3.0153132824,
				"z": -1.3668452797,
				"element": "H" 
			},
			{
				"x": 1.0843444305,
				"y": 1.8806776383,
				"z": -1.774050341,
				"element": "H" 
			},
			{
				"x": -1.5856192454,
				"y": 1.2917276649,
				"z": -0.5330844435,
				"element": "H" 
			},
			{
				"x": -1.1500010774,
				"y": -1.3215526215,
				"z": 1.1005163872,
				"element": "H" 
			},
			{
				"x": -0.1830398418,
				"y": -1.6224025625,
				"z": 3.3666158995,
				"element": "H" 
			},
			{
				"x": 1.4386001412,
				"y": 0.0043178411,
				"z": 4.2836055541,
				"element": "H" 
			},
			{
				"x": 2.1277965134,
				"y": 1.9935973609,
				"z": 2.9102641154,
				"element": "H" 
			},
			{
				"x": -2.6086347126,
				"y": 0.1720275398,
				"z": -2.2713137456,
				"element": "H" 
			},
			{
				"x": -2.6316996081,
				"y": -1.6034724095,
				"z": -3.9947165985,
				"element": "H" 
			},
			{
				"x": -0.5969905304,
				"y": -2.9772870596,
				"z": -4.3976963887,
				"element": "H" 
			},
			{
				"x": 1.4544490901,
				"y": -2.5588097332,
				"z": -3.0535035219,
				"element": "H" 
			},
			{
				"x": 1.4703384917,
				"y": -0.7916412713,
				"z": -1.3270656904,
				"element": "H" 
			}
		],
		 "valence_orbital": [ 
			{
				"type": "occ",
				"energy": -0.26246,
				"method": "rhf"
			},
			{
				"type": "occ",
				"energy": -0.25898,
				"method": "rhf"
			},
			{
				"type": "occ",
				"energy": -0.25413,
				"method": "rhf"
			},
			{
				"type": "occ",
				"energy": -0.24847,
				"method": "rhf"
			},
			{
				"type": "occ",
				"energy": -0.23473,
				"method": "rhf"
			},
			{
				"type": "unocc",
				"energy": -0.0535,
				"method": "rhf"
			},
			{
				"type": "unocc",
				"energy": -0.01468,
				"method": "rhf"
			},
			{
				"type": "unocc",
				"energy": -0.00815,
				"method": "rhf"
			},
			{
				"type": "unocc",
				"energy": -0.00347,
				"method": "rhf"
			},
			{
				"type": "unocc",
				"energy": 0.04657,
				"method": "rhf"
			}
		],
		"cosmo_sigma_profile": { 
			"-0.025": 0.0,
			"-0.024": 0.0,
			"-0.023": 0.0,
			"-0.022": 0.0,
			"-0.021": 0.0,
			"-0.02": 0.0,
			"-0.019": 0.0,
			"-0.018": 0.0,
			"-0.017": 0.0,
			"-0.016": 0.0,
			"-0.015": 0.0,
			"-0.014": 0.0,
			"-0.013": 0.0,
			"-0.012": 0.0,
			"-0.011": 0.0,
			"-0.01": 0.0,
			"-0.009": 0.0,
			"-0.008": 0.0,
			"-0.007": 1.25888040644,
			"-0.006": 14.7501147403,
			"-0.005": 29.4964930127,
			"-0.004": 27.1523054412,
			"-0.003": 23.0189930781,
			"-0.002": 18.5707473289,
			"-0.001": 16.8111063632,
			"0.0": 14.0921572408,
			"0.001": 16.2050901319,
			"0.002": 17.3558975864,
			"0.003": 19.7960502089,
			"0.004": 18.0342089659,
			"0.005": 9.42800058736,
			"0.006": 8.95843449901,
			"0.007": 2.16206761901,
			"0.008": 1.09478585657,
			"0.009": 1.72342822879,
			"0.01": 2.02419710095,
			"0.011": 2.78658635134,
			"0.012": 4.93988508467,
			"0.013": 2.97093871348,
			"0.014": 0.372561099005,
			"0.015": 0.0,
			"0.016": 0.0,
			"0.017": 0.0,
			"0.018": 0.0,
			"0.019": 0.0,
			"0.02": 0.0,
			"0.021": 0.0,
			"0.022": 0.0,
			"0.023": 0.0,
			"0.024": 0.0,
			"0.025": 0.0
		}
	}
}
