{
	 "smiles": "CC1=NN(CC2=CC=CC=C2)C(N)=C1C#N", 
	 "Tm": 351.15, 
	 "num_atms": 28, 
	 "gaussian": { 
		 "optdone": 1, 
		 "sigma_profile": "yes", 
		 "theory": "DFT", 
		 "functional": "B3LYP", 
		 "basiset": "6-31G**", 
		 "properties": { 
			 "R2extent": 4377.207, 
			 "electric_dipole_moment_norm": 5.53758992071, 
			 "electric_quadrupole_moment_norm": 25.3693047512, 
			 "total_energy": -683.497097151, 
			 "HOMO_LUMO_gap": 0.19731, 
			 "cosmo_polarized_energy": -15.9, 
			 "cosmo_cavitation_energy": 33.22, 
			 "cosmo_dispersion_energy": -22.71, 
			 "cosmo_repulsion_energy": 1.79, 
			 "cosmo_total_nonelectrostatic_energy": 12.3, 
			 "SMD_solvation_energy": 5.87 
		},
		"coords": [
			{
				"x": 1.587064042,
				"y": -2.5641339256,
				"z": -2.1838394863,
				"element": "C" 
			},
			{
				"x": 0.7889369945,
				"y": -2.0285379808,
				"z": -1.0383288627,
				"element": "C" 
			},
			{
				"x": -0.0234412635,
				"y": -0.9954539383,
				"z": -1.1881379833,
				"element": "N" 
			},
			{
				"x": -0.5896697805,
				"y": -0.7913617559,
				"z": 0.0499981727,
				"element": "N" 
			},
			{
				"x": -1.5586523294,
				"y": 0.2754875631,
				"z": 0.2503106666,
				"element": "C" 
			},
			{
				"x": -1.0283453107,
				"y": 1.4231403713,
				"z": 1.0936543229,
				"element": "C" 
			},
			{
				"x": -1.7481609747,
				"y": 1.8829545422,
				"z": 2.2022695093,
				"element": "C" 
			},
			{
				"x": -1.269297954,
				"y": 2.9509507792,
				"z": 2.9670253622,
				"element": "C" 
			},
			{
				"x": -0.0626905769,
				"y": 3.5631063088,
				"z": 2.629938509,
				"element": "C" 
			},
			{
				"x": 0.6637097886,
				"y": 3.1059241833,
				"z": 1.5257595202,
				"element": "C" 
			},
			{
				"x": 0.1850655725,
				"y": 2.0431774202,
				"z": 0.7620980877,
				"element": "C" 
			},
			{
				"x": -0.1279638841,
				"y": -1.6622794326,
				"z": 0.977463577,
				"element": "C" 
			},
			{
				"x": -0.5836749228,
				"y": -1.6775779954,
				"z": 2.2795442195,
				"element": "N" 
			},
			{
				"x": 0.7747051207,
				"y": -2.5016917293,
				"z": 0.3123742356,
				"element": "C" 
			},
			{
				"x": 1.5073998006,
				"y": -3.5542206132,
				"z": 0.9028275484,
				"element": "C" 
			},
			{
				"x": 2.1037629743,
				"y": -4.4143246896,
				"z": 1.4181603874,
				"element": "N" 
			},
			{
				"x": 2.6607254508,
				"y": -2.5292797974,
				"z": -1.9698440093,
				"element": "H" 
			},
			{
				"x": 1.3879015134,
				"y": -1.972655616,
				"z": -3.0796230265,
				"element": "H" 
			},
			{
				"x": 1.3313023616,
				"y": -3.6092877935,
				"z": -2.388820823,
				"element": "H" 
			},
			{
				"x": -1.8222141951,
				"y": 0.6126093837,
				"z": -0.7552996164,
				"element": "H" 
			},
			{
				"x": -2.4588697245,
				"y": -0.1470208863,
				"z": 0.7109106267,
				"element": "H" 
			},
			{
				"x": -2.6919466525,
				"y": 1.4097151323,
				"z": 2.4645192636,
				"element": "H" 
			},
			{
				"x": -1.8380934453,
				"y": 3.2991196771,
				"z": 3.8243308958,
				"element": "H" 
			},
			{
				"x": 0.3128750362,
				"y": 4.3913591974,
				"z": 3.2235926466,
				"element": "H" 
			},
			{
				"x": 1.6040157479,
				"y": 3.5802030429,
				"z": 1.26001177,
				"element": "H" 
			},
			{
				"x": 0.7487676621,
				"y": 1.6841520592,
				"z": -0.0947107314,
				"element": "H" 
			},
			{
				"x": -0.0714116045,
				"y": -2.3184755921,
				"z": 2.8725169556,
				"element": "H" 
			},
			{
				"x": -0.6883994468,
				"y": -0.7638979148,
				"z": 2.7060982621,
				"element": "H" 
			}
		],
		 "valence_orbital": [ 
			{
				"type": "occ",
				"energy": -0.29155,
				"method": "rhf"
			},
			{
				"type": "occ",
				"energy": -0.2683,
				"method": "rhf"
			},
			{
				"type": "occ",
				"energy": -0.26634,
				"method": "rhf"
			},
			{
				"type": "occ",
				"energy": -0.24447,
				"method": "rhf"
			},
			{
				"type": "occ",
				"energy": -0.22161,
				"method": "rhf"
			},
			{
				"type": "unocc",
				"energy": -0.0243,
				"method": "rhf"
			},
			{
				"type": "unocc",
				"energy": -0.01948,
				"method": "rhf"
			},
			{
				"type": "unocc",
				"energy": 0.00486,
				"method": "rhf"
			},
			{
				"type": "unocc",
				"energy": 0.02493,
				"method": "rhf"
			},
			{
				"type": "unocc",
				"energy": 0.03231,
				"method": "rhf"
			}
		],
		"cosmo_sigma_profile": { 
			"-0.025": 0.0,
			"-0.024": 0.0,
			"-0.023": 0.0,
			"-0.022": 0.0,
			"-0.021": 0.0,
			"-0.02": 0.0,
			"-0.019": 0.0,
			"-0.018": 0.0,
			"-0.017": 0.0,
			"-0.016": 0.0,
			"-0.015": 0.0,
			"-0.014": 0.507994680541,
			"-0.013": 1.36754818803,
			"-0.012": 2.29498760758,
			"-0.011": 2.04564142681,
			"-0.01": 2.05520595429,
			"-0.009": 1.84283876645,
			"-0.008": 3.09407529885,
			"-0.007": 7.24252106261,
			"-0.006": 14.0221019501,
			"-0.005": 19.0719541497,
			"-0.004": 23.0590924976,
			"-0.003": 20.8123446609,
			"-0.002": 18.2305738752,
			"-0.001": 19.8296436034,
			"0.0": 19.5196324671,
			"0.001": 18.0679307259,
			"0.002": 16.2487130288,
			"0.003": 13.2402816758,
			"0.004": 12.4687948465,
			"0.005": 11.7303547249,
			"0.006": 5.74971811098,
			"0.007": 3.68564203392,
			"0.008": 4.63879270141,
			"0.009": 5.31562467158,
			"0.01": 5.00756875276,
			"0.011": 4.56036483243,
			"0.012": 4.20030953074,
			"0.013": 3.15780556674,
			"0.014": 2.2228055907,
			"0.015": 0.464681262577,
			"0.016": 0.0,
			"0.017": 0.0,
			"0.018": 0.0,
			"0.019": 0.0,
			"0.02": 0.0,
			"0.021": 0.0,
			"0.022": 0.0,
			"0.023": 0.0,
			"0.024": 0.0,
			"0.025": 0.0
		}
	}
}
