{
	 "smiles": "COC(=O)C1=CC(=CNC1=O)[N+]([O-])=O", 
	 "Tm": 528.15, 
	 "num_atms": 20, 
	 "gaussian": { 
		 "optdone": 1, 
		 "sigma_profile": "yes", 
		 "theory": "DFT", 
		 "functional": "B3LYP", 
		 "basiset": "6-31G**", 
		 "properties": { 
			 "R2extent": 3656.5473, 
			 "electric_dipole_moment_norm": 3.60127424393, 
			 "electric_quadrupole_moment_norm": 21.1021020825, 
			 "total_energy": -755.887671679, 
			 "HOMO_LUMO_gap": 0.1604, 
			 "cosmo_polarized_energy": -21.27, 
			 "cosmo_cavitation_energy": 26.5, 
			 "cosmo_dispersion_energy": -19.38, 
			 "cosmo_repulsion_energy": 1.53, 
			 "cosmo_total_nonelectrostatic_energy": 8.65, 
			 "SMD_solvation_energy": 9.51 
		},
		"coords": [
			{
				"x": 3.059468705,
				"y": -1.3207327047,
				"z": 0.5341990843,
				"element": "C" 
			},
			{
				"x": 1.7331036772,
				"y": -1.0133929597,
				"z": 0.0712571619,
				"element": "O" 
			},
			{
				"x": 0.9613850349,
				"y": -0.3602300403,
				"z": 0.948129264,
				"element": "C" 
			},
			{
				"x": 1.3256281199,
				"y": -0.0354777157,
				"z": 2.0633933256,
				"element": "O" 
			},
			{
				"x": -0.4107882438,
				"y": -0.0583556508,
				"z": 0.4303074477,
				"element": "C" 
			},
			{
				"x": -1.2447323746,
				"y": 0.6126484405,
				"z": 1.2892868783,
				"element": "C" 
			},
			{
				"x": -2.5655942658,
				"y": 0.9560269703,
				"z": 0.9172434175,
				"element": "C" 
			},
			{
				"x": -3.0359581646,
				"y": 0.61665663,
				"z": -0.3265473696,
				"element": "C" 
			},
			{
				"x": -2.221741124,
				"y": -0.0398151533,
				"z": -1.1679024488,
				"element": "N" 
			},
			{
				"x": -0.8681421493,
				"y": -0.4429097641,
				"z": -0.9103473304,
				"element": "C" 
			},
			{
				"x": -0.2773937862,
				"y": -1.0331329949,
				"z": -1.7956065913,
				"element": "O" 
			},
			{
				"x": -3.4431484727,
				"y": 1.6659900484,
				"z": 1.8296374612,
				"element": "N" 
			},
			{
				"x": -4.5820613017,
				"y": 1.9310602664,
				"z": 1.4336446396,
				"element": "O" 
			},
			{
				"x": -2.9933960051,
				"y": 1.9561692214,
				"z": 2.9367714745,
				"element": "O" 
			},
			{
				"x": 3.6024017255,
				"y": -0.4042993572,
				"z": 0.7780776193,
				"element": "H" 
			},
			{
				"x": 3.0180790667,
				"y": -1.9538232598,
				"z": 1.4238797908,
				"element": "H" 
			},
			{
				"x": 3.5385232634,
				"y": -1.845406035,
				"z": -0.2915099223,
				"element": "H" 
			},
			{
				"x": -0.8775214528,
				"y": 0.8827935144,
				"z": 2.2731274014,
				"element": "H" 
			},
			{
				"x": -4.0405340398,
				"y": 0.8612781996,
				"z": -0.6492612522,
				"element": "H" 
			},
			{
				"x": -2.544578212,
				"y": -0.3023476555,
				"z": -2.0927800514,
				"element": "H" 
			}
		],
		 "valence_orbital": [ 
			{
				"type": "occ",
				"energy": -0.30852,
				"method": "rhf"
			},
			{
				"type": "occ",
				"energy": -0.3046,
				"method": "rhf"
			},
			{
				"type": "occ",
				"energy": -0.28739,
				"method": "rhf"
			},
			{
				"type": "occ",
				"energy": -0.28234,
				"method": "rhf"
			},
			{
				"type": "occ",
				"energy": -0.25947,
				"method": "rhf"
			},
			{
				"type": "unocc",
				"energy": -0.09907,
				"method": "rhf"
			},
			{
				"type": "unocc",
				"energy": -0.08686,
				"method": "rhf"
			},
			{
				"type": "unocc",
				"energy": -0.01195,
				"method": "rhf"
			},
			{
				"type": "unocc",
				"energy": 0.03349,
				"method": "rhf"
			},
			{
				"type": "unocc",
				"energy": 0.04111,
				"method": "rhf"
			}
		],
		"cosmo_sigma_profile": { 
			"-0.025": 0.0,
			"-0.024": 0.0,
			"-0.023": 0.0,
			"-0.022": 0.0,
			"-0.021": 0.0,
			"-0.02": 0.0,
			"-0.019": 0.0613672396437,
			"-0.018": 1.41826990048,
			"-0.017": 1.75522847308,
			"-0.016": 1.52547619496,
			"-0.015": 1.29710865467,
			"-0.014": 0.987504466274,
			"-0.013": 2.00851082806,
			"-0.012": 2.28162620518,
			"-0.011": 1.70321759994,
			"-0.01": 1.48795402347,
			"-0.009": 1.98227461103,
			"-0.008": 1.45548549769,
			"-0.007": 5.27467971464,
			"-0.006": 13.230955478,
			"-0.005": 17.8367100349,
			"-0.004": 23.3838145091,
			"-0.003": 20.2570554279,
			"-0.002": 13.7030174913,
			"-0.001": 7.36966194688,
			"0.0": 5.81040634824,
			"0.001": 6.75275488223,
			"0.002": 5.99836557671,
			"0.003": 5.22274280016,
			"0.004": 4.58419823881,
			"0.005": 6.81806519835,
			"0.006": 6.8039509611,
			"0.007": 9.66620885644,
			"0.008": 9.68242232345,
			"0.009": 7.83045831595,
			"0.01": 5.70910880755,
			"0.011": 6.73341501043,
			"0.012": 7.33718495331,
			"0.013": 2.21690237925,
			"0.014": 1.92146315771,
			"0.015": 0.530475978229,
			"0.016": 0.0,
			"0.017": 0.0,
			"0.018": 0.0,
			"0.019": 0.0,
			"0.02": 0.0,
			"0.021": 0.0,
			"0.022": 0.0,
			"0.023": 0.0,
			"0.024": 0.0,
			"0.025": 0.0
		}
	}
}
