{
	 "smiles": "CC1(C)OC(C)(CCC1C(O)=O)C(O)(C1=C2C=CC=CC2=CC=C1)C1=C2C=CC=CC2=CC=C1", 
	 "Tm": 483.15, 
	 "num_atms": 64, 
	 "gaussian": { 
		 "optdone": 1, 
		 "sigma_profile": "yes", 
		 "theory": "DFT", 
		 "functional": "B3LYP", 
		 "basiset": "6-31G**", 
		 "properties": { 
			 "R2extent": 13128.5658, 
			 "electric_dipole_moment_norm": 1.42989284564, 
			 "electric_quadrupole_moment_norm": 15.5796487881, 
			 "total_energy": -1462.17682316, 
			 "HOMO_LUMO_gap": 0.17052, 
			 "cosmo_polarized_energy": -19.5, 
			 "cosmo_cavitation_energy": 58.09, 
			 "cosmo_dispersion_energy": -37.92, 
			 "cosmo_repulsion_energy": 2.75, 
			 "cosmo_total_nonelectrostatic_energy": 22.93, 
			 "SMD_solvation_energy": 10.02 
		},
		"coords": [
			{
				"x": -4.2761203947,
				"y": 0.3953110643,
				"z": -0.9392525585,
				"element": "C" 
			},
			{
				"x": -3.0584035276,
				"y": 0.0340499218,
				"z": -1.8013529636,
				"element": "C" 
			},
			{
				"x": -3.1709903561,
				"y": 0.7870202802,
				"z": -3.1431600652,
				"element": "C" 
			},
			{
				"x": -1.9427847218,
				"y": 0.4972021518,
				"z": -1.0164706207,
				"element": "O" 
			},
			{
				"x": -0.5519979485,
				"y": 0.1251052494,
				"z": -1.2410642916,
				"element": "C" 
			},
			{
				"x": -0.0160685018,
				"y": 0.9330657416,
				"z": -2.4420034161,
				"element": "C" 
			},
			{
				"x": -0.4691447092,
				"y": -1.3936122351,
				"z": -1.468255949,
				"element": "C" 
			},
			{
				"x": -1.5292229874,
				"y": -1.9022632847,
				"z": -2.4580472481,
				"element": "C" 
			},
			{
				"x": -2.9705682637,
				"y": -1.5027909138,
				"z": -2.0776751582,
				"element": "C" 
			},
			{
				"x": -3.5669342551,
				"y": -2.3501555377,
				"z": -0.9626841967,
				"element": "C" 
			},
			{
				"x": -2.7823224889,
				"y": -2.4384336529,
				"z": 0.1345355729,
				"element": "O" 
			},
			{
				"x": -4.6473169389,
				"y": -2.8976011967,
				"z": -1.0297968897,
				"element": "O" 
			},
			{
				"x": 0.0899539069,
				"y": 0.6782803275,
				"z": 0.1440285466,
				"element": "C" 
			},
			{
				"x": -0.3078569584,
				"y": 2.0563495093,
				"z": 0.1539915852,
				"element": "O" 
			},
			{
				"x": -0.5454909039,
				"y": -0.0581169387,
				"z": 1.3818525885,
				"element": "C" 
			},
			{
				"x": -0.0966379555,
				"y": -1.3117814129,
				"z": 1.9446256556,
				"element": "C" 
			},
			{
				"x": 1.0160914397,
				"y": -2.0694641311,
				"z": 1.4716111696,
				"element": "C" 
			},
			{
				"x": 1.3930731556,
				"y": -3.2617605676,
				"z": 2.0490097615,
				"element": "C" 
			},
			{
				"x": 0.6831229397,
				"y": -3.7912900223,
				"z": 3.1492383406,
				"element": "C" 
			},
			{
				"x": -0.3950157342,
				"y": -3.0985409541,
				"z": 3.643593687,
				"element": "C" 
			},
			{
				"x": -0.8105899331,
				"y": -1.8644096945,
				"z": 3.0711434408,
				"element": "C" 
			},
			{
				"x": -1.9273924367,
				"y": -1.1820194629,
				"z": 3.6158353149,
				"element": "C" 
			},
			{
				"x": -2.3268555332,
				"y": 0.0143284805,
				"z": 3.0777208491,
				"element": "C" 
			},
			{
				"x": -1.6331741539,
				"y": 0.5593892505,
				"z": 1.9768432594,
				"element": "C" 
			},
			{
				"x": 1.6370373165,
				"y": 0.739016259,
				"z": 0.238125425,
				"element": "C" 
			},
			{
				"x": 2.2635557409,
				"y": 1.4967218334,
				"z": 1.2990256991,
				"element": "C" 
			},
			{
				"x": 1.5468686701,
				"y": 2.2113649256,
				"z": 2.3039432872,
				"element": "C" 
			},
			{
				"x": 2.1975108409,
				"y": 2.9009103098,
				"z": 3.3027652399,
				"element": "C" 
			},
			{
				"x": 3.6089194293,
				"y": 2.9319823405,
				"z": 3.3652472265,
				"element": "C" 
			},
			{
				"x": 4.3395510136,
				"y": 2.2620773182,
				"z": 2.4141656396,
				"element": "C" 
			},
			{
				"x": 3.7009458148,
				"y": 1.5345501203,
				"z": 1.3728885896,
				"element": "C" 
			},
			{
				"x": 4.483216751,
				"y": 0.8440448046,
				"z": 0.4116136882,
				"element": "C" 
			},
			{
				"x": 3.8723382352,
				"y": 0.1291642635,
				"z": -0.5847705917,
				"element": "C" 
			},
			{
				"x": 2.4611332525,
				"y": 0.0831680442,
				"z": -0.6590556552,
				"element": "C" 
			},
			{
				"x": -4.3615661349,
				"y": 1.4829322677,
				"z": -0.8557906078,
				"element": "H" 
			},
			{
				"x": -4.1674153533,
				"y": -0.0152298695,
				"z": 0.0668618646,
				"element": "H" 
			},
			{
				"x": -5.1958768158,
				"y": 0.0066297759,
				"z": -1.3848742214,
				"element": "H" 
			},
			{
				"x": -3.0308146977,
				"y": 1.8585368273,
				"z": -2.9771403392,
				"element": "H" 
			},
			{
				"x": -2.4418203456,
				"y": 0.4578615106,
				"z": -3.8856494091,
				"element": "H" 
			},
			{
				"x": -4.1681587055,
				"y": 0.6335187552,
				"z": -3.5678209426,
				"element": "H" 
			},
			{
				"x": 1.0698126898,
				"y": 0.901203357,
				"z": -2.5096015987,
				"element": "H" 
			},
			{
				"x": -0.4153484391,
				"y": 0.5460726825,
				"z": -3.3810452926,
				"element": "H" 
			},
			{
				"x": -0.3046185446,
				"y": 1.9801774502,
				"z": -2.3472161701,
				"element": "H" 
			},
			{
				"x": -0.5981778021,
				"y": -1.9169816238,
				"z": -0.5237189303,
				"element": "H" 
			},
			{
				"x": 0.5164516181,
				"y": -1.6633838416,
				"z": -1.8582199504,
				"element": "H" 
			},
			{
				"x": -1.4565399947,
				"y": -2.9926489523,
				"z": -2.533035578,
				"element": "H" 
			},
			{
				"x": -1.3259829913,
				"y": -1.5190809934,
				"z": -3.4643794501,
				"element": "H" 
			},
			{
				"x": -3.629580993,
				"y": -1.708290012,
				"z": -2.9258810092,
				"element": "H" 
			},
			{
				"x": -3.2645945428,
				"y": -2.976836464,
				"z": 0.7846665342,
				"element": "H" 
			},
			{
				"x": -1.2134263278,
				"y": 2.053561047,
				"z": -0.198346907,
				"element": "H" 
			},
			{
				"x": 1.5961767539,
				"y": -1.6987232054,
				"z": 0.6422312849,
				"element": "H" 
			},
			{
				"x": 2.2517438997,
				"y": -3.7967700381,
				"z": 1.6529586407,
				"element": "H" 
			},
			{
				"x": 0.9901320447,
				"y": -4.7314035031,
				"z": 3.598300912,
				"element": "H" 
			},
			{
				"x": -0.9551390364,
				"y": -3.4827086654,
				"z": 4.4927150305,
				"element": "H" 
			},
			{
				"x": -2.4452695746,
				"y": -1.6164758549,
				"z": 4.4672615878,
				"element": "H" 
			},
			{
				"x": -3.1717240143,
				"y": 0.5554516356,
				"z": 3.4945654356,
				"element": "H" 
			},
			{
				"x": -1.962505314,
				"y": 1.5185749662,
				"z": 1.6023543377,
				"element": "H" 
			},
			{
				"x": 0.4693154241,
				"y": 2.2271722793,
				"z": 2.2686919271,
				"element": "H" 
			},
			{
				"x": 1.6146156959,
				"y": 3.4317582158,
				"z": 4.0502670628,
				"element": "H" 
			},
			{
				"x": 4.1083251383,
				"y": 3.4823714471,
				"z": 4.1575244319,
				"element": "H" 
			},
			{
				"x": 5.426276253,
				"y": 2.2736196045,
				"z": 2.441392721,
				"element": "H" 
			},
			{
				"x": 5.5666885146,
				"y": 0.8895667736,
				"z": 0.4847239752,
				"element": "H" 
			},
			{
				"x": 4.4595828701,
				"y": -0.4090542212,
				"z": -1.3231448129,
				"element": "H" 
			},
			{
				"x": 2.0354089211,
				"y": -0.5196835417,
				"z": -1.4480654893,
				"element": "H" 
			}
		],
		 "valence_orbital": [ 
			{
				"type": "occ",
				"energy": -0.25621,
				"method": "rhf"
			},
			{
				"type": "occ",
				"energy": -0.23711,
				"method": "rhf"
			},
			{
				"type": "occ",
				"energy": -0.23539,
				"method": "rhf"
			},
			{
				"type": "occ",
				"energy": -0.20823,
				"method": "rhf"
			},
			{
				"type": "occ",
				"energy": -0.20576,
				"method": "rhf"
			},
			{
				"type": "unocc",
				"energy": -0.03524,
				"method": "rhf"
			},
			{
				"type": "unocc",
				"energy": -0.03392,
				"method": "rhf"
			},
			{
				"type": "unocc",
				"energy": -0.00536,
				"method": "rhf"
			},
			{
				"type": "unocc",
				"energy": -0.00221,
				"method": "rhf"
			},
			{
				"type": "unocc",
				"energy": 0.00687,
				"method": "rhf"
			}
		],
		"cosmo_sigma_profile": { 
			"-0.025": 0.0,
			"-0.024": 0.0,
			"-0.023": 0.0,
			"-0.022": 0.0,
			"-0.021": 0.0,
			"-0.02": 0.0,
			"-0.019": 0.0,
			"-0.018": 0.131589903448,
			"-0.017": 0.729745234702,
			"-0.016": 0.395623732295,
			"-0.015": 0.732047326282,
			"-0.014": 0.385779067465,
			"-0.013": 1.08854084012,
			"-0.012": 0.550675940802,
			"-0.011": 0.59789490248,
			"-0.01": 0.254586000534,
			"-0.009": 1.13252154525,
			"-0.008": 1.30080008639,
			"-0.007": 4.54180535555,
			"-0.006": 19.1033438839,
			"-0.005": 34.6413231134,
			"-0.004": 41.9698252965,
			"-0.003": 45.1919569765,
			"-0.002": 40.1085758708,
			"-0.001": 37.1362009626,
			"0.0": 39.7341702791,
			"0.001": 33.5242793818,
			"0.002": 21.0000287073,
			"0.003": 25.1166296957,
			"0.004": 35.4458663878,
			"0.005": 33.9889991049,
			"0.006": 12.1128021707,
			"0.007": 3.44439147466,
			"0.008": 4.34303004082,
			"0.009": 3.04179581643,
			"0.01": 3.76135174765,
			"0.011": 4.16477158017,
			"0.012": 6.57890254571,
			"0.013": 2.4735224649,
			"0.014": 0.299916820259,
			"0.015": 0.213557800832,
			"0.016": 0.0538074161679,
			"0.017": 0.0,
			"0.018": 0.0,
			"0.019": 0.0,
			"0.02": 0.0,
			"0.021": 0.0,
			"0.022": 0.0,
			"0.023": 0.0,
			"0.024": 0.0,
			"0.025": 0.0
		}
	}
}
