{
	 "smiles": "COC1=CC(N)=C(C=C1)C#N", 
	 "Tm": 365.15, 
	 "num_atms": 19, 
	 "gaussian": { 
		 "optdone": 1, 
		 "sigma_profile": "yes", 
		 "theory": "DFT", 
		 "functional": "B3LYP", 
		 "basiset": "6-31G**", 
		 "properties": { 
			 "R2extent": 2317.0134, 
			 "electric_dipole_moment_norm": 4.79225719364, 
			 "electric_quadrupole_moment_norm": 22.8106359488, 
			 "total_energy": -494.379757464, 
			 "HOMO_LUMO_gap": 0.18647, 
			 "cosmo_polarized_energy": -13.27, 
			 "cosmo_cavitation_energy": 23.96, 
			 "cosmo_dispersion_energy": -17.35, 
			 "cosmo_repulsion_energy": 1.39, 
			 "cosmo_total_nonelectrostatic_energy": 8.0, 
			 "SMD_solvation_energy": 6.14 
		},
		"coords": [
			{
				"x": -1.9409653956,
				"y": 1.8397006306,
				"z": -2.4073869491,
				"element": "C" 
			},
			{
				"x": -1.1085158906,
				"y": 0.7344948544,
				"z": -2.0816316508,
				"element": "O" 
			},
			{
				"x": -1.0931761027,
				"y": 0.2865719977,
				"z": -0.7983821855,
				"element": "C" 
			},
			{
				"x": -0.2543839097,
				"y": -0.8056453274,
				"z": -0.5608452649,
				"element": "C" 
			},
			{
				"x": -0.1443321202,
				"y": -1.3661847941,
				"z": 0.7165025679,
				"element": "C" 
			},
			{
				"x": 0.6426221148,
				"y": -2.4727600187,
				"z": 0.9418879961,
				"element": "N" 
			},
			{
				"x": -0.9045688641,
				"y": -0.7904021571,
				"z": 1.7757555472,
				"element": "C" 
			},
			{
				"x": -1.7422406314,
				"y": 0.3037071312,
				"z": 1.51507234,
				"element": "C" 
			},
			{
				"x": -1.8497408615,
				"y": 0.8519592766,
				"z": 0.2441220979,
				"element": "C" 
			},
			{
				"x": -0.786876551,
				"y": -1.332573174,
				"z": 3.0889402414,
				"element": "C" 
			},
			{
				"x": -0.6441568524,
				"y": -1.8092120737,
				"z": 4.1434213246,
				"element": "N" 
			},
			{
				"x": -2.9984613409,
				"y": 1.6173624144,
				"z": -2.2194640954,
				"element": "H" 
			},
			{
				"x": -1.6552881036,
				"y": 2.7388211931,
				"z": -1.8478266585,
				"element": "H" 
			},
			{
				"x": -1.7954667701,
				"y": 2.0187842488,
				"z": -3.4735015987,
				"element": "H" 
			},
			{
				"x": 0.3053916476,
				"y": -1.2174292354,
				"z": -1.3944607965,
				"element": "H" 
			},
			{
				"x": 0.8656929151,
				"y": -2.7014384286,
				"z": 1.9000061801,
				"element": "H" 
			},
			{
				"x": 1.3691234424,
				"y": -2.6733920074,
				"z": 0.2726918393,
				"element": "H" 
			},
			{
				"x": -2.312511295,
				"y": 0.728056003,
				"z": 2.3350371164,
				"element": "H" 
			},
			{
				"x": -2.5039454312,
				"y": 1.6970794665,
				"z": 0.0756619485,
				"element": "H" 
			}
		],
		 "valence_orbital": [ 
			{
				"type": "occ",
				"energy": -0.33824,
				"method": "rhf"
			},
			{
				"type": "occ",
				"energy": -0.32297,
				"method": "rhf"
			},
			{
				"type": "occ",
				"energy": -0.30348,
				"method": "rhf"
			},
			{
				"type": "occ",
				"energy": -0.23477,
				"method": "rhf"
			},
			{
				"type": "occ",
				"energy": -0.21612,
				"method": "rhf"
			},
			{
				"type": "unocc",
				"energy": -0.02965,
				"method": "rhf"
			},
			{
				"type": "unocc",
				"energy": 0.00159,
				"method": "rhf"
			},
			{
				"type": "unocc",
				"energy": 0.03907,
				"method": "rhf"
			},
			{
				"type": "unocc",
				"energy": 0.07814,
				"method": "rhf"
			},
			{
				"type": "unocc",
				"energy": 0.08879,
				"method": "rhf"
			}
		],
		"cosmo_sigma_profile": { 
			"-0.025": 0.0,
			"-0.024": 0.0,
			"-0.023": 0.0,
			"-0.022": 0.0,
			"-0.021": 0.0,
			"-0.02": 0.0,
			"-0.019": 0.0,
			"-0.018": 0.0,
			"-0.017": 0.0,
			"-0.016": 0.0,
			"-0.015": 0.0,
			"-0.014": 0.618173685257,
			"-0.013": 1.83988321653,
			"-0.012": 1.81117601466,
			"-0.011": 2.35820456053,
			"-0.01": 2.8772430516,
			"-0.009": 2.85879465804,
			"-0.008": 2.62425937019,
			"-0.007": 6.01707801052,
			"-0.006": 13.3858399019,
			"-0.005": 14.9510366556,
			"-0.004": 14.5876667849,
			"-0.003": 11.3636221759,
			"-0.002": 9.17589786576,
			"-0.001": 7.86613466106,
			"0.0": 9.14049469543,
			"0.001": 11.4753094092,
			"0.002": 10.6069433234,
			"0.003": 16.2107068344,
			"0.004": 13.4011517224,
			"0.005": 6.33703967876,
			"0.006": 3.91788689747,
			"0.007": 3.98784860045,
			"0.008": 4.83420891878,
			"0.009": 5.71889627093,
			"0.01": 4.58957302686,
			"0.011": 3.08313514812,
			"0.012": 3.01947950422,
			"0.013": 2.40544387821,
			"0.014": 0.777888496803,
			"0.015": 0.0,
			"0.016": 0.0,
			"0.017": 0.0,
			"0.018": 0.0,
			"0.019": 0.0,
			"0.02": 0.0,
			"0.021": 0.0,
			"0.022": 0.0,
			"0.023": 0.0,
			"0.024": 0.0,
			"0.025": 0.0
		}
	}
}
