{
	 "smiles": "O=S(=O)(CC1=CC=CC=C1)C1=CC=CC=C1", 
	 "Tm": 421.15, 
	 "num_atms": 28, 
	 "gaussian": { 
		 "optdone": 1, 
		 "sigma_profile": "yes", 
		 "theory": "DFT", 
		 "functional": "B3LYP", 
		 "basiset": "6-31G**", 
		 "properties": { 
			 "R2extent": 5416.4637, 
			 "electric_dipole_moment_norm": 4.63154472504, 
			 "electric_quadrupole_moment_norm": 16.16695278, 
			 "total_energy": -1051.18923517, 
			 "HOMO_LUMO_gap": 0.20295, 
			 "cosmo_polarized_energy": -16.49, 
			 "cosmo_cavitation_energy": 33.6, 
			 "cosmo_dispersion_energy": -24.07, 
			 "cosmo_repulsion_energy": 1.82, 
			 "cosmo_total_nonelectrostatic_energy": 11.35, 
			 "SMD_solvation_energy": 4.83 
		},
		"coords": [
			{
				"x": -0.5519542995,
				"y": -0.235607454,
				"z": 1.0836514998,
				"element": "O" 
			},
			{
				"x": -0.7810364037,
				"y": 1.0181616274,
				"z": 0.3458797986,
				"element": "S" 
			},
			{
				"x": -1.2686638356,
				"y": 2.2292078168,
				"z": 1.0272768825,
				"element": "O" 
			},
			{
				"x": 0.7852465015,
				"y": 1.4537240317,
				"z": -0.5236852262,
				"element": "C" 
			},
			{
				"x": 1.8760866155,
				"y": 1.7936989582,
				"z": 0.4519417986,
				"element": "C" 
			},
			{
				"x": 2.0432994756,
				"y": 3.1116384593,
				"z": 0.8979096814,
				"element": "C" 
			},
			{
				"x": 3.0466173893,
				"y": 3.4243876287,
				"z": 1.8142794097,
				"element": "C" 
			},
			{
				"x": 3.8886827603,
				"y": 2.4220498627,
				"z": 2.2997617137,
				"element": "C" 
			},
			{
				"x": 3.7208080529,
				"y": 1.104659258,
				"z": 1.8687768854,
				"element": "C" 
			},
			{
				"x": 2.7177051927,
				"y": 0.7911966925,
				"z": 0.9524160005,
				"element": "C" 
			},
			{
				"x": -1.9082492093,
				"y": 0.6593059474,
				"z": -1.0138301768,
				"element": "C" 
			},
			{
				"x": -2.6743585059,
				"y": 1.6940900933,
				"z": -1.5543697311,
				"element": "C" 
			},
			{
				"x": -3.5353832123,
				"y": 1.4125463553,
				"z": -2.6155791179,
				"element": "C" 
			},
			{
				"x": -3.6241668976,
				"y": 0.1122952038,
				"z": -3.1192130315,
				"element": "C" 
			},
			{
				"x": -2.8597163551,
				"y": -0.9156130455,
				"z": -2.5613636289,
				"element": "C" 
			},
			{
				"x": -1.9949500728,
				"y": -0.6468808333,
				"z": -1.4998670626,
				"element": "C" 
			},
			{
				"x": 0.5322391473,
				"y": 2.2929996089,
				"z": -1.1767476391,
				"element": "H" 
			},
			{
				"x": 1.0297926775,
				"y": 0.5826306079,
				"z": -1.1370976164,
				"element": "H" 
			},
			{
				"x": 1.3816371881,
				"y": 3.8899770521,
				"z": 0.5290866007,
				"element": "H" 
			},
			{
				"x": 3.1693964055,
				"y": 4.4498745274,
				"z": 2.1502318251,
				"element": "H" 
			},
			{
				"x": 4.6716520196,
				"y": 2.6663317045,
				"z": 3.0118611244,
				"element": "H" 
			},
			{
				"x": 4.3696268146,
				"y": 0.3202165564,
				"z": 2.247255068,
				"element": "H" 
			},
			{
				"x": 2.5806331071,
				"y": -0.235601656,
				"z": 0.6260263971,
				"element": "H" 
			},
			{
				"x": -2.6071214313,
				"y": 2.6906262453,
				"z": -1.1307527671,
				"element": "H" 
			},
			{
				"x": -4.1419427224,
				"y": 2.2052096415,
				"z": -3.0432262811,
				"element": "H" 
			},
			{
				"x": -4.2974812735,
				"y": -0.1023228385,
				"z": -3.9439872211,
				"element": "H" 
			},
			{
				"x": -2.9426168405,
				"y": -1.9273101649,
				"z": -2.9469932798,
				"element": "H" 
			},
			{
				"x": -1.4101822879,
				"y": -1.4334918873,
				"z": -1.0347419059,
				"element": "H" 
			}
		],
		 "valence_orbital": [ 
			{
				"type": "occ",
				"energy": -0.28915,
				"method": "rhf"
			},
			{
				"type": "occ",
				"energy": -0.27412,
				"method": "rhf"
			},
			{
				"type": "occ",
				"energy": -0.27234,
				"method": "rhf"
			},
			{
				"type": "occ",
				"energy": -0.25181,
				"method": "rhf"
			},
			{
				"type": "occ",
				"energy": -0.24575,
				"method": "rhf"
			},
			{
				"type": "unocc",
				"energy": -0.0428,
				"method": "rhf"
			},
			{
				"type": "unocc",
				"energy": -0.02321,
				"method": "rhf"
			},
			{
				"type": "unocc",
				"energy": -0.01172,
				"method": "rhf"
			},
			{
				"type": "unocc",
				"energy": -0.0035,
				"method": "rhf"
			},
			{
				"type": "unocc",
				"energy": 0.06494,
				"method": "rhf"
			}
		],
		"cosmo_sigma_profile": { 
			"-0.025": 0.0,
			"-0.024": 0.0,
			"-0.023": 0.0,
			"-0.022": 0.0,
			"-0.021": 0.0,
			"-0.02": 0.0,
			"-0.019": 0.0,
			"-0.018": 0.0,
			"-0.017": 0.0,
			"-0.016": 0.0,
			"-0.015": 0.0,
			"-0.014": 0.0,
			"-0.013": 0.0,
			"-0.012": 0.0,
			"-0.011": 0.0,
			"-0.01": 0.0,
			"-0.009": 0.411321089643,
			"-0.008": 4.99452530412,
			"-0.007": 13.1016654342,
			"-0.006": 24.1607634287,
			"-0.005": 24.6350513241,
			"-0.004": 22.8300873128,
			"-0.003": 17.2990873084,
			"-0.002": 13.4599726483,
			"-0.001": 13.5593365667,
			"0.0": 14.661909744,
			"0.001": 16.0010119299,
			"0.002": 18.0552325053,
			"0.003": 22.1481208167,
			"0.004": 12.993282281,
			"0.005": 13.888813997,
			"0.006": 5.20162847733,
			"0.007": 3.19499067052,
			"0.008": 3.63327088074,
			"0.009": 3.80851652162,
			"0.01": 5.31897547168,
			"0.011": 8.40038138237,
			"0.012": 6.14872007417,
			"0.013": 0.979039738697,
			"0.014": 0.0,
			"0.015": 0.0,
			"0.016": 0.0,
			"0.017": 0.0,
			"0.018": 0.0,
			"0.019": 0.0,
			"0.02": 0.0,
			"0.021": 0.0,
			"0.022": 0.0,
			"0.023": 0.0,
			"0.024": 0.0,
			"0.025": 0.0
		}
	}
}
