{
	 "smiles": "CN(C)S(=O)(=O)CC(O)=O", 
	 "Tm": 404.15, 
	 "num_atms": 19, 
	 "gaussian": { 
		 "optdone": 1, 
		 "sigma_profile": "yes", 
		 "theory": "DFT", 
		 "functional": "B3LYP", 
		 "basiset": "6-31G**", 
		 "properties": { 
			 "R2extent": 2124.14, 
			 "electric_dipole_moment_norm": 3.07601344113, 
			 "electric_quadrupole_moment_norm": 13.2977836928, 
			 "total_energy": -911.618583497, 
			 "HOMO_LUMO_gap": 0.26251, 
			 "cosmo_polarized_energy": -16.81, 
			 "cosmo_cavitation_energy": 23.33, 
			 "cosmo_dispersion_energy": -17.46, 
			 "cosmo_repulsion_energy": 1.36, 
			 "cosmo_total_nonelectrostatic_energy": 7.23, 
			 "SMD_solvation_energy": 4.0 
		},
		"coords": [
			{
				"x": 1.1330085285,
				"y": 2.5857001105,
				"z": 0.4727144714,
				"element": "C" 
			},
			{
				"x": 1.4546975065,
				"y": 1.3929513614,
				"z": -0.3183473828,
				"element": "N" 
			},
			{
				"x": 1.7000088775,
				"y": 0.1663546018,
				"z": 0.4506202505,
				"element": "C" 
			},
			{
				"x": 0.7287852421,
				"y": 1.2545244929,
				"z": -1.8136252942,
				"element": "S" 
			},
			{
				"x": 1.3433807726,
				"y": 0.0898340008,
				"z": -2.4846361357,
				"element": "O" 
			},
			{
				"x": 0.7387758304,
				"y": 2.5750916868,
				"z": -2.4360394042,
				"element": "O" 
			},
			{
				"x": -1.0240456729,
				"y": 0.7947190115,
				"z": -1.5703684211,
				"element": "C" 
			},
			{
				"x": -1.2997166433,
				"y": -0.624362816,
				"z": -1.0488663617,
				"element": "C" 
			},
			{
				"x": -0.5706326533,
				"y": -1.6115336774,
				"z": -1.5837455323,
				"element": "O" 
			},
			{
				"x": -2.1661926646,
				"y": -0.8246829331,
				"z": -0.2334820954,
				"element": "O" 
			},
			{
				"x": 0.2141859359,
				"y": 2.4621661397,
				"z": 1.0647073893,
				"element": "H" 
			},
			{
				"x": 1.9645119889,
				"y": 2.7685550009,
				"z": 1.1590541114,
				"element": "H" 
			},
			{
				"x": 1.0345303886,
				"y": 3.4457494553,
				"z": -0.1885663403,
				"element": "H" 
			},
			{
				"x": 0.8266814658,
				"y": -0.1410640657,
				"z": 1.0425757259,
				"element": "H" 
			},
			{
				"x": 1.9892162644,
				"y": -0.6384229079,
				"z": -0.2236488587,
				"element": "H" 
			},
			{
				"x": 2.5329529781,
				"y": 0.3606539221,
				"z": 1.1320977863,
				"element": "H" 
			},
			{
				"x": -1.484908005,
				"y": 1.5200987001,
				"z": -0.8993807742,
				"element": "H" 
			},
			{
				"x": -1.4654973897,
				"y": 0.9093552378,
				"z": -2.5663746496,
				"element": "H" 
			},
			{
				"x": 0.1442572495,
				"y": -1.2401873215,
				"z": -2.1475884848,
				"element": "H" 
			}
		],
		 "valence_orbital": [ 
			{
				"type": "occ",
				"energy": -0.33443,
				"method": "rhf"
			},
			{
				"type": "occ",
				"energy": -0.33138,
				"method": "rhf"
			},
			{
				"type": "occ",
				"energy": -0.32264,
				"method": "rhf"
			},
			{
				"type": "occ",
				"energy": -0.28512,
				"method": "rhf"
			},
			{
				"type": "occ",
				"energy": -0.27992,
				"method": "rhf"
			},
			{
				"type": "unocc",
				"energy": -0.01741,
				"method": "rhf"
			},
			{
				"type": "unocc",
				"energy": 0.04307,
				"method": "rhf"
			},
			{
				"type": "unocc",
				"energy": 0.05114,
				"method": "rhf"
			},
			{
				"type": "unocc",
				"energy": 0.05914,
				"method": "rhf"
			},
			{
				"type": "unocc",
				"energy": 0.06649,
				"method": "rhf"
			}
		],
		"cosmo_sigma_profile": { 
			"-0.025": 0.0,
			"-0.024": 0.0,
			"-0.023": 0.0,
			"-0.022": 0.0,
			"-0.021": 0.0,
			"-0.02": 0.0,
			"-0.019": 0.0,
			"-0.018": 0.0,
			"-0.017": 0.0,
			"-0.016": 0.0,
			"-0.015": 0.0,
			"-0.014": 0.0,
			"-0.013": 0.249272945568,
			"-0.012": 2.11276985751,
			"-0.011": 2.92560197993,
			"-0.01": 4.39036220983,
			"-0.009": 6.18360835917,
			"-0.008": 4.75411821203,
			"-0.007": 7.37542987125,
			"-0.006": 14.1145036475,
			"-0.005": 15.3777951956,
			"-0.004": 15.7239914599,
			"-0.003": 18.0391988695,
			"-0.002": 8.13834175337,
			"-0.001": 4.76266549094,
			"0.0": 3.76582991594,
			"0.001": 3.78394950283,
			"0.002": 4.88421242581,
			"0.003": 4.8217890748,
			"0.004": 5.40124262229,
			"0.005": 5.70105188649,
			"0.006": 6.12495221834,
			"0.007": 6.43838741587,
			"0.008": 5.52517624152,
			"0.009": 8.36116917534,
			"0.01": 12.5741954972,
			"0.011": 9.37061357969,
			"0.012": 2.96273280333,
			"0.013": 0.167585573509,
			"0.014": 0.0,
			"0.015": 0.0,
			"0.016": 0.0,
			"0.017": 0.0,
			"0.018": 0.0,
			"0.019": 0.0,
			"0.02": 0.0,
			"0.021": 0.0,
			"0.022": 0.0,
			"0.023": 0.0,
			"0.024": 0.0,
			"0.025": 0.0
		}
	}
}
