{
	 "smiles": "CC1=CC(=CC(C)=C1)N1N=CC(C=O)=N1", 
	 "Tm": 338.15, 
	 "num_atms": 26, 
	 "gaussian": { 
		 "optdone": 1, 
		 "sigma_profile": "yes", 
		 "theory": "DFT", 
		 "functional": "B3LYP", 
		 "basiset": "6-31G**", 
		 "properties": { 
			 "R2extent": 5212.9525, 
			 "electric_dipole_moment_norm": 3.60903339137, 
			 "electric_quadrupole_moment_norm": 19.9925193182, 
			 "total_energy": -665.244265406, 
			 "HOMO_LUMO_gap": 0.16914, 
			 "cosmo_polarized_energy": -11.24, 
			 "cosmo_cavitation_energy": 31.18, 
			 "cosmo_dispersion_energy": -22.46, 
			 "cosmo_repulsion_energy": 1.76, 
			 "cosmo_total_nonelectrostatic_energy": 10.48, 
			 "SMD_solvation_energy": 5.34 
		},
		"coords": [
			{
				"x": 0.7378399772,
				"y": 1.9344842972,
				"z": -2.4673334624,
				"element": "C" 
			},
			{
				"x": 0.4908201732,
				"y": 1.2204237109,
				"z": -1.1590768213,
				"element": "C" 
			},
			{
				"x": -0.7882788418,
				"y": 1.2013535645,
				"z": -0.5957586462,
				"element": "C" 
			},
			{
				"x": -0.9884797098,
				"y": 0.55751959,
				"z": 0.6259845847,
				"element": "C" 
			},
			{
				"x": 0.056503087,
				"y": -0.0719644653,
				"z": 1.3030357004,
				"element": "C" 
			},
			{
				"x": 1.3397304595,
				"y": -0.0585440775,
				"z": 0.7480567474,
				"element": "C" 
			},
			{
				"x": 2.4928691916,
				"y": -0.709415137,
				"z": 1.4756645648,
				"element": "C" 
			},
			{
				"x": 1.5380277149,
				"y": 0.5851393546,
				"z": -0.4795444583,
				"element": "C" 
			},
			{
				"x": -2.2998283503,
				"y": 0.5352340021,
				"z": 1.1927899601,
				"element": "N" 
			},
			{
				"x": -2.5583779698,
				"y": -0.0724470291,
				"z": 2.3652090118,
				"element": "N" 
			},
			{
				"x": -3.860713819,
				"y": 0.1298984355,
				"z": 2.5354578697,
				"element": "C" 
			},
			{
				"x": -4.3589852478,
				"y": 0.8682946714,
				"z": 1.4404438922,
				"element": "C" 
			},
			{
				"x": -5.7359738302,
				"y": 1.3240563692,
				"z": 1.1966847807,
				"element": "C" 
			},
			{
				"x": -6.1018989215,
				"y": 1.9596875491,
				"z": 0.2291028839,
				"element": "O" 
			},
			{
				"x": -3.3363891405,
				"y": 1.1098849952,
				"z": 0.6032704646,
				"element": "N" 
			},
			{
				"x": 1.5639276141,
				"y": 1.478647174,
				"z": -3.0209188163,
				"element": "H" 
			},
			{
				"x": 0.9990284374,
				"y": 2.9863279983,
				"z": -2.2974774741,
				"element": "H" 
			},
			{
				"x": -0.1501807607,
				"y": 1.9188904404,
				"z": -3.1055612109,
				"element": "H" 
			},
			{
				"x": -1.6268122378,
				"y": 1.6730281551,
				"z": -1.0943424108,
				"element": "H" 
			},
			{
				"x": -0.1396342023,
				"y": -0.5673766553,
				"z": 2.2463264193,
				"element": "H" 
			},
			{
				"x": 2.1572657517,
				"y": -1.5557143607,
				"z": 2.081926341,
				"element": "H" 
			},
			{
				"x": 3.2524450657,
				"y": -1.0713597915,
				"z": 0.7765867928,
				"element": "H" 
			},
			{
				"x": 2.9834544076,
				"y": 0.0020429563,
				"z": 2.151453023,
				"element": "H" 
			},
			{
				"x": 2.5328124224,
				"y": 0.5890331442,
				"z": -0.9196743756,
				"element": "H" 
			},
			{
				"x": -4.3734723091,
				"y": -0.2490446879,
				"z": 3.4079863242,
				"element": "H" 
			},
			{
				"x": -6.4470989617,
				"y": 1.0307197966,
				"z": 2.0000083155,
				"element": "H" 
			}
		],
		 "valence_orbital": [ 
			{
				"type": "occ",
				"energy": -0.30798,
				"method": "rhf"
			},
			{
				"type": "occ",
				"energy": -0.29891,
				"method": "rhf"
			},
			{
				"type": "occ",
				"energy": -0.25857,
				"method": "rhf"
			},
			{
				"type": "occ",
				"energy": -0.24841,
				"method": "rhf"
			},
			{
				"type": "occ",
				"energy": -0.2387,
				"method": "rhf"
			},
			{
				"type": "unocc",
				"energy": -0.06956,
				"method": "rhf"
			},
			{
				"type": "unocc",
				"energy": -0.02911,
				"method": "rhf"
			},
			{
				"type": "unocc",
				"energy": -0.00938,
				"method": "rhf"
			},
			{
				"type": "unocc",
				"energy": 0.0224,
				"method": "rhf"
			},
			{
				"type": "unocc",
				"energy": 0.09227,
				"method": "rhf"
			}
		],
		"cosmo_sigma_profile": { 
			"-0.025": 0.0,
			"-0.024": 0.0,
			"-0.023": 0.0,
			"-0.022": 0.0,
			"-0.021": 0.0,
			"-0.02": 0.0,
			"-0.019": 0.0,
			"-0.018": 0.0,
			"-0.017": 0.0,
			"-0.016": 0.0,
			"-0.015": 0.0,
			"-0.014": 0.0,
			"-0.013": 0.0,
			"-0.012": 0.0,
			"-0.011": 0.051827876631,
			"-0.01": 2.40143065247,
			"-0.009": 3.09717271742,
			"-0.008": 4.09567007571,
			"-0.007": 5.15298009377,
			"-0.006": 4.80927175417,
			"-0.005": 14.4979113402,
			"-0.004": 23.2522141989,
			"-0.003": 20.3359259681,
			"-0.002": 23.5504585902,
			"-0.001": 28.4957140046,
			"0.0": 26.0937265139,
			"0.001": 14.9521950824,
			"0.002": 15.0398424208,
			"0.003": 13.3593688309,
			"0.004": 13.9802624805,
			"0.005": 5.71830968596,
			"0.006": 3.58106165219,
			"0.007": 3.65818817166,
			"0.008": 4.20199544254,
			"0.009": 4.01725820184,
			"0.01": 5.28192561873,
			"0.011": 5.56213201976,
			"0.012": 3.73094784178,
			"0.013": 0.445662592739,
			"0.014": 0.0,
			"0.015": 0.0,
			"0.016": 0.0,
			"0.017": 0.0,
			"0.018": 0.0,
			"0.019": 0.0,
			"0.02": 0.0,
			"0.021": 0.0,
			"0.022": 0.0,
			"0.023": 0.0,
			"0.024": 0.0,
			"0.025": 0.0
		}
	}
}
