{
	 "smiles": "FC1=CC=C(CNC(=O)C=C)C=C1", 
	 "Tm": 392.15, 
	 "num_atms": 23, 
	 "gaussian": { 
		 "optdone": 1, 
		 "sigma_profile": "yes", 
		 "theory": "DFT", 
		 "functional": "B3LYP", 
		 "basiset": "6-31G**", 
		 "properties": { 
			 "R2extent": 3890.4474, 
			 "electric_dipole_moment_norm": 2.99124491475, 
			 "electric_quadrupole_moment_norm": 14.7261946833, 
			 "total_energy": -616.884331383, 
			 "HOMO_LUMO_gap": 0.21151, 
			 "cosmo_polarized_energy": -12.24, 
			 "cosmo_cavitation_energy": 27.87, 
			 "cosmo_dispersion_energy": -19.52, 
			 "cosmo_repulsion_energy": 1.53, 
			 "cosmo_total_nonelectrostatic_energy": 9.88, 
			 "SMD_solvation_energy": 6.61 
		},
		"coords": [
			{
				"x": 0.533115362,
				"y": -4.7445338107,
				"z": 2.455752891,
				"element": "F" 
			},
			{
				"x": 0.0882355718,
				"y": -3.5480694149,
				"z": 2.0176882353,
				"element": "C" 
			},
			{
				"x": -0.67641431,
				"y": -3.4915162575,
				"z": 0.8602615208,
				"element": "C" 
			},
			{
				"x": -1.1333758148,
				"y": -2.2482602392,
				"z": 0.4161645525,
				"element": "C" 
			},
			{
				"x": -0.8312301117,
				"y": -1.0772877287,
				"z": 1.118562884,
				"element": "C" 
			},
			{
				"x": -1.2919593085,
				"y": 0.2950791232,
				"z": 0.6430549085,
				"element": "C" 
			},
			{
				"x": -2.3367197532,
				"y": 0.2713188562,
				"z": -0.3679674144,
				"element": "N" 
			},
			{
				"x": -2.3175144843,
				"y": 0.7884871238,
				"z": -1.6448485249,
				"element": "C" 
			},
			{
				"x": -3.3626834122,
				"y": 0.9985256865,
				"z": -2.2516403396,
				"element": "O" 
			},
			{
				"x": -1.0084486817,
				"y": 1.0559274139,
				"z": -2.3197919607,
				"element": "C" 
			},
			{
				"x": 0.0798509146,
				"y": 0.2823889066,
				"z": -2.2745445431,
				"element": "C" 
			},
			{
				"x": -0.0627172395,
				"y": -1.1733546659,
				"z": 2.2873967731,
				"element": "C" 
			},
			{
				"x": 0.4046171202,
				"y": -2.4038225818,
				"z": 2.7438845231,
				"element": "C" 
			},
			{
				"x": -0.9080001386,
				"y": -4.4060819225,
				"z": 0.3249521091,
				"element": "H" 
			},
			{
				"x": -1.7404775971,
				"y": -2.1873435415,
				"z": -0.4814561901,
				"element": "H" 
			},
			{
				"x": -0.4429100518,
				"y": 0.8499465754,
				"z": 0.2347527251,
				"element": "H" 
			},
			{
				"x": -1.6449197252,
				"y": 0.8706633664,
				"z": 1.5094917892,
				"element": "H" 
			},
			{
				"x": -3.2849036344,
				"y": 0.1202985996,
				"z": -0.0450987749,
				"element": "H" 
			},
			{
				"x": -1.0557206859,
				"y": 1.9014820745,
				"z": -3.0010912143,
				"element": "H" 
			},
			{
				"x": 0.9462324901,
				"y": 0.5012485223,
				"z": -2.8919770981,
				"element": "H" 
			},
			{
				"x": 0.1411323019,
				"y": -0.604463211,
				"z": -1.65054396,
				"element": "H" 
			},
			{
				"x": 0.1743105747,
				"y": -0.2743264607,
				"z": 2.8518548875,
				"element": "H" 
			},
			{
				"x": 0.9989006137,
				"y": -2.4893064141,
				"z": 3.6472422211,
				"element": "H" 
			}
		],
		 "valence_orbital": [ 
			{
				"type": "occ",
				"energy": -0.28611,
				"method": "rhf"
			},
			{
				"type": "occ",
				"energy": -0.26717,
				"method": "rhf"
			},
			{
				"type": "occ",
				"energy": -0.26079,
				"method": "rhf"
			},
			{
				"type": "occ",
				"energy": -0.24857,
				"method": "rhf"
			},
			{
				"type": "occ",
				"energy": -0.24353,
				"method": "rhf"
			},
			{
				"type": "unocc",
				"energy": -0.03202,
				"method": "rhf"
			},
			{
				"type": "unocc",
				"energy": -0.01995,
				"method": "rhf"
			},
			{
				"type": "unocc",
				"energy": -0.00542,
				"method": "rhf"
			},
			{
				"type": "unocc",
				"energy": 0.06275,
				"method": "rhf"
			},
			{
				"type": "unocc",
				"energy": 0.08129,
				"method": "rhf"
			}
		],
		"cosmo_sigma_profile": { 
			"-0.025": 0.0,
			"-0.024": 0.0,
			"-0.023": 0.0,
			"-0.022": 0.0,
			"-0.021": 0.0,
			"-0.02": 0.0,
			"-0.019": 0.0,
			"-0.018": 0.0,
			"-0.017": 0.0,
			"-0.016": 0.0,
			"-0.015": 0.0,
			"-0.014": 0.245516659546,
			"-0.013": 1.143437076,
			"-0.012": 1.09129530296,
			"-0.011": 0.534565038228,
			"-0.01": 1.1746659529,
			"-0.009": 1.08640525757,
			"-0.008": 0.878757146846,
			"-0.007": 5.76751317529,
			"-0.006": 15.5270931557,
			"-0.005": 15.0021016354,
			"-0.004": 20.046553074,
			"-0.003": 18.6287044601,
			"-0.002": 18.9795548158,
			"-0.001": 13.9568960358,
			"0.0": 11.459629705,
			"0.001": 16.4357209353,
			"0.002": 15.0441576492,
			"0.003": 14.5231218252,
			"0.004": 20.8734511967,
			"0.005": 9.90685957079,
			"0.006": 0.799975254213,
			"0.007": 1.00845981119,
			"0.008": 1.66124936816,
			"0.009": 1.46177533914,
			"0.01": 1.13966045878,
			"0.011": 1.14380875924,
			"0.012": 2.3761924556,
			"0.013": 3.75021093701,
			"0.014": 5.45353061883,
			"0.015": 1.44891499936,
			"0.016": 0.0,
			"0.017": 0.0,
			"0.018": 0.0,
			"0.019": 0.0,
			"0.02": 0.0,
			"0.021": 0.0,
			"0.022": 0.0,
			"0.023": 0.0,
			"0.024": 0.0,
			"0.025": 0.0
		}
	}
}
