{
	 "smiles": "CN1CCN(CC1)C1=NC2=C(OC3=C1C=C(Cl)C=C3)C=CC=C2", 
	 "Tm": 383.15, 
	 "num_atms": 41, 
	 "gaussian": { 
		 "optdone": 1, 
		 "sigma_profile": "yes", 
		 "theory": "DFT", 
		 "functional": "B3LYP", 
		 "basiset": "6-31G**", 
		 "properties": { 
			 "R2extent": 8464.3351, 
			 "electric_dipole_moment_norm": 1.60902488794, 
			 "electric_quadrupole_moment_norm": 14.5091088448, 
			 "total_energy": -1396.40222211, 
			 "HOMO_LUMO_gap": 0.14995, 
			 "cosmo_polarized_energy": -10.87, 
			 "cosmo_cavitation_energy": 43.99, 
			 "cosmo_dispersion_energy": -30.94, 
			 "cosmo_repulsion_energy": 2.35, 
			 "cosmo_total_nonelectrostatic_energy": 15.4, 
			 "SMD_solvation_energy": 3.2 
		},
		"coords": [
			{
				"x": 0.8989934034,
				"y": 2.1800317018,
				"z": 4.419576018,
				"element": "C" 
			},
			{
				"x": 0.3009318738,
				"y": 1.4342633762,
				"z": 3.3277740803,
				"element": "N" 
			},
			{
				"x": -1.1388892103,
				"y": 1.5942861718,
				"z": 3.2115107497,
				"element": "C" 
			},
			{
				"x": -1.5870365681,
				"y": 1.1421316985,
				"z": 1.8001577959,
				"element": "C" 
			},
			{
				"x": -0.7666558938,
				"y": 0.0102956147,
				"z": 1.3313002517,
				"element": "N" 
			},
			{
				"x": -0.2594450033,
				"y": -0.7980838492,
				"z": 2.4376017767,
				"element": "C" 
			},
			{
				"x": 0.681774947,
				"y": 0.0180865262,
				"z": 3.348187969,
				"element": "C" 
			},
			{
				"x": 0.0028802935,
				"y": 0.0985829565,
				"z": 0.1820560851,
				"element": "C" 
			},
			{
				"x": 1.1294654947,
				"y": -0.5372135288,
				"z": 0.1430848053,
				"element": "N" 
			},
			{
				"x": 1.9880157647,
				"y": -0.5671408347,
				"z": -0.9511213994,
				"element": "C" 
			},
			{
				"x": 2.2212382264,
				"y": 0.5261112981,
				"z": -1.8108146376,
				"element": "C" 
			},
			{
				"x": 1.5136083671,
				"y": 1.7212431097,
				"z": -1.630605038,
				"element": "O" 
			},
			{
				"x": 0.1580887725,
				"y": 1.5781939833,
				"z": -1.8479612332,
				"element": "C" 
			},
			{
				"x": -0.6238211834,
				"y": 0.8065818513,
				"z": -0.974407124,
				"element": "C" 
			},
			{
				"x": -1.9956589785,
				"y": 0.6755020283,
				"z": -1.2431622924,
				"element": "C" 
			},
			{
				"x": -2.5600493696,
				"y": 1.3315228646,
				"z": -2.3319669873,
				"element": "C" 
			},
			{
				"x": -4.2814843554,
				"y": 1.1558344726,
				"z": -2.6470120936,
				"element": "Cl" 
			},
			{
				"x": -1.7857714322,
				"y": 2.1305974206,
				"z": -3.1745524611,
				"element": "C" 
			},
			{
				"x": -0.4188374788,
				"y": 2.2409695937,
				"z": -2.9310513547,
				"element": "C" 
			},
			{
				"x": 3.1814152395,
				"y": 0.4799863706,
				"z": -2.8154227285,
				"element": "C" 
			},
			{
				"x": 3.9420858505,
				"y": -0.6755940945,
				"z": -2.9977642574,
				"element": "C" 
			},
			{
				"x": 3.727071527,
				"y": -1.7782682615,
				"z": -2.1666115169,
				"element": "C" 
			},
			{
				"x": 2.7737110783,
				"y": -1.7175945348,
				"z": -1.1543463982,
				"element": "C" 
			},
			{
				"x": 0.6713447352,
				"y": 3.2459167987,
				"z": 4.3143787578,
				"element": "H" 
			},
			{
				"x": 0.5559210498,
				"y": 1.8510767637,
				"z": 5.4201591756,
				"element": "H" 
			},
			{
				"x": 1.9874039836,
				"y": 2.0625360869,
				"z": 4.3867975349,
				"element": "H" 
			},
			{
				"x": -1.6971558209,
				"y": 1.041843072,
				"z": 3.9936929587,
				"element": "H" 
			},
			{
				"x": -1.395141993,
				"y": 2.6513754583,
				"z": 3.3381688453,
				"element": "H" 
			},
			{
				"x": -2.6509168216,
				"y": 0.8679516861,
				"z": 1.8223896934,
				"element": "H" 
			},
			{
				"x": -1.4710384504,
				"y": 1.9714325154,
				"z": 1.1025446728,
				"element": "H" 
			},
			{
				"x": -1.1297100253,
				"y": -1.1461622541,
				"z": 3.005890813,
				"element": "H" 
			},
			{
				"x": 0.2591708489,
				"y": -1.6658523067,
				"z": 2.0333560191,
				"element": "H" 
			},
			{
				"x": 0.6320171377,
				"y": -0.4073088911,
				"z": 4.3701285178,
				"element": "H" 
			},
			{
				"x": 1.7161130189,
				"y": -0.068219981,
				"z": 2.9996863243,
				"element": "H" 
			},
			{
				"x": -2.6113317873,
				"y": 0.0573866553,
				"z": -0.6007821632,
				"element": "H" 
			},
			{
				"x": -2.2434310839,
				"y": 2.6448895327,
				"z": -4.0121809403,
				"element": "H" 
			},
			{
				"x": 0.2171538953,
				"y": 2.8407296024,
				"z": -3.5730150894,
				"element": "H" 
			},
			{
				"x": 3.3237662073,
				"y": 1.3584973069,
				"z": -3.4367750225,
				"element": "H" 
			},
			{
				"x": 4.6956757492,
				"y": -0.7108359869,
				"z": -3.778452649,
				"element": "H" 
			},
			{
				"x": 4.3136016121,
				"y": -2.6827867952,
				"z": -2.2988094123,
				"element": "H" 
			},
			{
				"x": 2.6143263791,
				"y": -2.5569951982,
				"z": -0.4848280453,
				"element": "H" 
			}
		],
		 "valence_orbital": [ 
			{
				"type": "occ",
				"energy": -0.24702,
				"method": "rhf"
			},
			{
				"type": "occ",
				"energy": -0.24115,
				"method": "rhf"
			},
			{
				"type": "occ",
				"energy": -0.23467,
				"method": "rhf"
			},
			{
				"type": "occ",
				"energy": -0.21214,
				"method": "rhf"
			},
			{
				"type": "occ",
				"energy": -0.19697,
				"method": "rhf"
			},
			{
				"type": "unocc",
				"energy": -0.04702,
				"method": "rhf"
			},
			{
				"type": "unocc",
				"energy": -0.01758,
				"method": "rhf"
			},
			{
				"type": "unocc",
				"energy": 0.00174,
				"method": "rhf"
			},
			{
				"type": "unocc",
				"energy": 0.01043,
				"method": "rhf"
			},
			{
				"type": "unocc",
				"energy": 0.02429,
				"method": "rhf"
			}
		],
		"cosmo_sigma_profile": { 
			"-0.025": 0.0,
			"-0.024": 0.0,
			"-0.023": 0.0,
			"-0.022": 0.0,
			"-0.021": 0.0,
			"-0.02": 0.0,
			"-0.019": 0.0,
			"-0.018": 0.0,
			"-0.017": 0.0,
			"-0.016": 0.0,
			"-0.015": 0.0,
			"-0.014": 0.0,
			"-0.013": 0.0,
			"-0.012": 0.0,
			"-0.011": 0.0,
			"-0.01": 0.0,
			"-0.009": 0.0193006301121,
			"-0.008": 1.93293819055,
			"-0.007": 4.94681412016,
			"-0.006": 8.9649829902,
			"-0.005": 18.639267848,
			"-0.004": 31.291348441,
			"-0.003": 33.6601391927,
			"-0.002": 38.1405010778,
			"-0.001": 36.8196710923,
			"0.0": 32.8676831638,
			"0.001": 28.9018859841,
			"0.002": 24.1473020081,
			"0.003": 21.6977137269,
			"0.004": 23.1237964713,
			"0.005": 19.8496906989,
			"0.006": 9.21410732084,
			"0.007": 4.56593010214,
			"0.008": 3.89871873066,
			"0.009": 3.46012301982,
			"0.01": 2.49892374703,
			"0.011": 1.0466527697,
			"0.012": 0.499489024702,
			"0.013": 0.548400117067,
			"0.014": 0.228669696567,
			"0.015": 0.124440333543,
			"0.016": 0.0,
			"0.017": 0.0,
			"0.018": 0.0,
			"0.019": 0.0,
			"0.02": 0.0,
			"0.021": 0.0,
			"0.022": 0.0,
			"0.023": 0.0,
			"0.024": 0.0,
			"0.025": 0.0
		}
	}
}
