{
	 "smiles": "NC1=C2N=CN(C3CCC(CO)O3)C2=NC=N1", 
	 "Tm": 458.15, 
	 "num_atms": 30, 
	 "gaussian": { 
		 "optdone": 1, 
		 "sigma_profile": "yes", 
		 "theory": "DFT", 
		 "functional": "B3LYP", 
		 "basiset": "6-31G**", 
		 "properties": { 
			 "R2extent": 5105.61, 
			 "electric_dipole_moment_norm": 1.36194101928, 
			 "electric_quadrupole_moment_norm": 17.1875538457, 
			 "total_energy": -813.112454672, 
			 "HOMO_LUMO_gap": 0.19948, 
			 "cosmo_polarized_energy": -17.41, 
			 "cosmo_cavitation_energy": 32.86, 
			 "cosmo_dispersion_energy": -24.16, 
			 "cosmo_repulsion_energy": 1.87, 
			 "cosmo_total_nonelectrostatic_energy": 10.57, 
			 "SMD_solvation_energy": 1.15 
		},
		"coords": [
			{
				"x": -3.7492811822,
				"y": 4.0617863491,
				"z": 0.1029482289,
				"element": "N" 
			},
			{
				"x": -2.5232566217,
				"y": 3.5826932972,
				"z": -0.2179669766,
				"element": "C" 
			},
			{
				"x": -2.1606915982,
				"y": 2.2374676482,
				"z": 0.0060610195,
				"element": "C" 
			},
			{
				"x": -2.8370587954,
				"y": 1.1650839765,
				"z": 0.5569923526,
				"element": "N" 
			},
			{
				"x": -1.9735764706,
				"y": 0.1787600581,
				"z": 0.4863659027,
				"element": "C" 
			},
			{
				"x": -0.7542591044,
				"y": 0.5379046912,
				"z": -0.063443381,
				"element": "N" 
			},
			{
				"x": 0.3791987124,
				"y": -0.360071281,
				"z": -0.372069503,
				"element": "C" 
			},
			{
				"x": 1.6961824451,
				"y": 0.152991816,
				"z": 0.2152025784,
				"element": "C" 
			},
			{
				"x": 1.6417033174,
				"y": -0.3978211591,
				"z": 1.6502752063,
				"element": "C" 
			},
			{
				"x": 0.8776184439,
				"y": -1.722384554,
				"z": 1.4887980815,
				"element": "C" 
			},
			{
				"x": 1.7668828156,
				"y": -2.9578758362,
				"z": 1.3723778889,
				"element": "C" 
			},
			{
				"x": 1.0197082756,
				"y": -4.1053106067,
				"z": 1.0255493311,
				"element": "O" 
			},
			{
				"x": 0.1452479877,
				"y": -1.611953727,
				"z": 0.2295341783,
				"element": "O" 
			},
			{
				"x": -0.8691956396,
				"y": 1.8758082376,
				"z": -0.3932559337,
				"element": "C" 
			},
			{
				"x": 0.0433493012,
				"y": 2.6768799321,
				"z": -0.9656006873,
				"element": "N" 
			},
			{
				"x": -0.4258018217,
				"y": 3.9195251111,
				"z": -1.1191951622,
				"element": "C" 
			},
			{
				"x": -1.6288424322,
				"y": 4.4130498031,
				"z": -0.7847382484,
				"element": "N" 
			},
			{
				"x": -4.3844272463,
				"y": 3.4859979459,
				"z": 0.6308147703,
				"element": "H" 
			},
			{
				"x": -3.9138035535,
				"y": 5.0520285716,
				"z": 0.0212633113,
				"element": "H" 
			},
			{
				"x": -2.1488482911,
				"y": -0.83528014,
				"z": 0.8134586943,
				"element": "H" 
			},
			{
				"x": 0.4126910068,
				"y": -0.4974792467,
				"z": -1.4573377848,
				"element": "H" 
			},
			{
				"x": 2.5203433241,
				"y": -0.2984888706,
				"z": -0.3463635368,
				"element": "H" 
			},
			{
				"x": 1.7865007301,
				"y": 1.2372140447,
				"z": 0.1445602128,
				"element": "H" 
			},
			{
				"x": 2.6364541433,
				"y": -0.5473144528,
				"z": 2.0802593862,
				"element": "H" 
			},
			{
				"x": 1.0950172575,
				"y": 0.286318084,
				"z": 2.3050717771,
				"element": "H" 
			},
			{
				"x": 0.1381714322,
				"y": -1.886024994,
				"z": 2.2805514958,
				"element": "H" 
			},
			{
				"x": 2.5710220858,
				"y": -2.7576258381,
				"z": 0.643382258,
				"element": "H" 
			},
			{
				"x": 2.2392836418,
				"y": -3.1612849161,
				"z": 2.339774319,
				"element": "H" 
			},
			{
				"x": 0.5097626547,
				"y": -3.8633447713,
				"z": 0.2390688046,
				"element": "H" 
			},
			{
				"x": 0.2583051819,
				"y": 4.6322508274,
				"z": -1.5758385837,
				"element": "H" 
			}
		],
		 "valence_orbital": [ 
			{
				"type": "occ",
				"energy": -0.27839,
				"method": "rhf"
			},
			{
				"type": "occ",
				"energy": -0.26669,
				"method": "rhf"
			},
			{
				"type": "occ",
				"energy": -0.25978,
				"method": "rhf"
			},
			{
				"type": "occ",
				"energy": -0.24669,
				"method": "rhf"
			},
			{
				"type": "occ",
				"energy": -0.21643,
				"method": "rhf"
			},
			{
				"type": "unocc",
				"energy": -0.01695,
				"method": "rhf"
			},
			{
				"type": "unocc",
				"energy": 0.00766,
				"method": "rhf"
			},
			{
				"type": "unocc",
				"energy": 0.04117,
				"method": "rhf"
			},
			{
				"type": "unocc",
				"energy": 0.07383,
				"method": "rhf"
			},
			{
				"type": "unocc",
				"energy": 0.08582,
				"method": "rhf"
			}
		],
		"cosmo_sigma_profile": { 
			"-0.025": 0.0,
			"-0.024": 0.0,
			"-0.023": 0.0,
			"-0.022": 0.0,
			"-0.021": 0.0,
			"-0.02": 0.0,
			"-0.019": 0.0,
			"-0.018": 0.0,
			"-0.017": 0.0,
			"-0.016": 0.0,
			"-0.015": 0.0493354837022,
			"-0.014": 1.15067522285,
			"-0.013": 2.39199978098,
			"-0.012": 2.53539459547,
			"-0.011": 2.56226450125,
			"-0.01": 2.43458433471,
			"-0.009": 2.87124820131,
			"-0.008": 3.67738744476,
			"-0.007": 5.89950454671,
			"-0.006": 8.60947785348,
			"-0.005": 21.9267589327,
			"-0.004": 25.7619002506,
			"-0.003": 21.1313401284,
			"-0.002": 19.9758861871,
			"-0.001": 19.6921806381,
			"0.0": 16.150060351,
			"0.001": 16.7953148789,
			"0.002": 13.7545880989,
			"0.003": 8.72403976988,
			"0.004": 8.8143192609,
			"0.005": 8.32925130942,
			"0.006": 5.95098306751,
			"0.007": 6.22212128691,
			"0.008": 5.16461207052,
			"0.009": 4.86727724151,
			"0.01": 4.323189959,
			"0.011": 4.01000218074,
			"0.012": 3.99712189282,
			"0.013": 4.511423185,
			"0.014": 4.50669232538,
			"0.015": 2.00728116492,
			"0.016": 0.843078878791,
			"0.017": 0.0,
			"0.018": 0.0,
			"0.019": 0.0,
			"0.02": 0.0,
			"0.021": 0.0,
			"0.022": 0.0,
			"0.023": 0.0,
			"0.024": 0.0,
			"0.025": 0.0
		}
	}
}
