{
	 "smiles": "CS(=O)(=O)N1CCC2=C(C=CC=C2)C1CC(O)=O", 
	 "Tm": 400.15, 
	 "num_atms": 33, 
	 "gaussian": { 
		 "optdone": 1, 
		 "sigma_profile": "yes", 
		 "theory": "DFT", 
		 "functional": "B3LYP", 
		 "basiset": "6-31G**", 
		 "properties": { 
			 "R2extent": 5208.2323, 
			 "electric_dipole_moment_norm": 5.18289334831, 
			 "electric_quadrupole_moment_norm": 19.9310076682, 
			 "total_energy": -1220.10367347, 
			 "HOMO_LUMO_gap": 0.23484, 
			 "cosmo_polarized_energy": -20.79, 
			 "cosmo_cavitation_energy": 36.41, 
			 "cosmo_dispersion_energy": -25.78, 
			 "cosmo_repulsion_energy": 1.95, 
			 "cosmo_total_nonelectrostatic_energy": 12.57, 
			 "SMD_solvation_energy": 5.97 
		},
		"coords": [
			{
				"x": -2.9584376595,
				"y": 1.3713031449,
				"z": -2.9404663174,
				"element": "C" 
			},
			{
				"x": -2.8208993564,
				"y": 0.4482882793,
				"z": -1.3964451237,
				"element": "S" 
			},
			{
				"x": -3.4366695072,
				"y": 1.2570443536,
				"z": -0.3389932138,
				"element": "O" 
			},
			{
				"x": -3.2855166459,
				"y": -0.9172924125,
				"z": -1.6666157822,
				"element": "O" 
			},
			{
				"x": -1.1465442273,
				"y": 0.4603889531,
				"z": -1.1211260362,
				"element": "N" 
			},
			{
				"x": -0.4048645955,
				"y": -0.5894532013,
				"z": -1.8455993741,
				"element": "C" 
			},
			{
				"x": 1.0946160173,
				"y": -0.3821010823,
				"z": -1.6333215065,
				"element": "C" 
			},
			{
				"x": 1.3979750538,
				"y": -0.5063535995,
				"z": -0.1609474447,
				"element": "C" 
			},
			{
				"x": 0.470532083,
				"y": 0.0282804381,
				"z": 0.7485307548,
				"element": "C" 
			},
			{
				"x": 0.6653867029,
				"y": -0.16335332,
				"z": 2.1227005101,
				"element": "C" 
			},
			{
				"x": 1.7851995617,
				"y": -0.8518550723,
				"z": 2.5892625858,
				"element": "C" 
			},
			{
				"x": 2.7156381179,
				"y": -1.3675698146,
				"z": 1.6858002819,
				"element": "C" 
			},
			{
				"x": 2.512161306,
				"y": -1.2031741097,
				"z": 0.3161320194,
				"element": "C" 
			},
			{
				"x": -0.7113868976,
				"y": 0.8533445826,
				"z": 0.2575264004,
				"element": "C" 
			},
			{
				"x": -0.3875670204,
				"y": 2.3661341911,
				"z": 0.2328373488,
				"element": "C" 
			},
			{
				"x": -0.293683132,
				"y": 2.9994314207,
				"z": 1.6036214567,
				"element": "C" 
			},
			{
				"x": 0.3956560254,
				"y": 4.1639677471,
				"z": 1.5620955491,
				"element": "O" 
			},
			{
				"x": -0.7944569492,
				"y": 2.5779222141,
				"z": 2.6241686801,
				"element": "O" 
			},
			{
				"x": -2.3832360532,
				"y": 0.8715193207,
				"z": -3.7206641017,
				"element": "H" 
			},
			{
				"x": -4.0172201536,
				"y": 1.3760399694,
				"z": -3.2057137149,
				"element": "H" 
			},
			{
				"x": -2.5974981267,
				"y": 2.3863548156,
				"z": -2.7764196194,
				"element": "H" 
			},
			{
				"x": -0.652923565,
				"y": -0.5117623833,
				"z": -2.909196312,
				"element": "H" 
			},
			{
				"x": -0.6952709384,
				"y": -1.5932427387,
				"z": -1.5115364616,
				"element": "H" 
			},
			{
				"x": 1.3845748708,
				"y": 0.6024862223,
				"z": -2.0255262758,
				"element": "H" 
			},
			{
				"x": 1.6494012514,
				"y": -1.1323507257,
				"z": -2.206085473,
				"element": "H" 
			},
			{
				"x": -0.0573134617,
				"y": 0.2421749508,
				"z": 2.8224327871,
				"element": "H" 
			},
			{
				"x": 1.9242722296,
				"y": -0.9919715313,
				"z": 3.6572505732,
				"element": "H" 
			},
			{
				"x": 3.585624261,
				"y": -1.9101157776,
				"z": 2.0444777404,
				"element": "H" 
			},
			{
				"x": 3.2176699287,
				"y": -1.6278577851,
				"z": -0.3940659196,
				"element": "H" 
			},
			{
				"x": -1.5441596639,
				"y": 0.7164081605,
				"z": 0.9498269095,
				"element": "H" 
			},
			{
				"x": 0.5285122767,
				"y": 2.5701438432,
				"z": -0.3287291102,
				"element": "H" 
			},
			{
				"x": -1.2045873823,
				"y": 2.8855916957,
				"z": -0.2815883089,
				"element": "H" 
			},
			{
				"x": 0.3659156495,
				"y": 4.5270292511,
				"z": 2.4637764985,
				"element": "H" 
			}
		],
		 "valence_orbital": [ 
			{
				"type": "occ",
				"energy": -0.29826,
				"method": "rhf"
			},
			{
				"type": "occ",
				"energy": -0.28192,
				"method": "rhf"
			},
			{
				"type": "occ",
				"energy": -0.2561,
				"method": "rhf"
			},
			{
				"type": "occ",
				"energy": -0.24798,
				"method": "rhf"
			},
			{
				"type": "occ",
				"energy": -0.24417,
				"method": "rhf"
			},
			{
				"type": "unocc",
				"energy": -0.00933,
				"method": "rhf"
			},
			{
				"type": "unocc",
				"energy": -0.00672,
				"method": "rhf"
			},
			{
				"type": "unocc",
				"energy": 0.00451,
				"method": "rhf"
			},
			{
				"type": "unocc",
				"energy": 0.05874,
				"method": "rhf"
			},
			{
				"type": "unocc",
				"energy": 0.06394,
				"method": "rhf"
			}
		],
		"cosmo_sigma_profile": { 
			"-0.025": 0.0,
			"-0.024": 0.0,
			"-0.023": 0.0,
			"-0.022": 0.0,
			"-0.021": 0.0,
			"-0.02": 0.0,
			"-0.019": 0.0219410792724,
			"-0.018": 0.610515720394,
			"-0.017": 1.26006662485,
			"-0.016": 0.715812932782,
			"-0.015": 0.438314014663,
			"-0.014": 1.01146885784,
			"-0.013": 0.648458546338,
			"-0.012": 0.436229265526,
			"-0.011": 1.07478714229,
			"-0.01": 1.13687293961,
			"-0.009": 3.37858069346,
			"-0.008": 6.71014433164,
			"-0.007": 8.2177386584,
			"-0.006": 14.2360725437,
			"-0.005": 23.5810924209,
			"-0.004": 28.5726231678,
			"-0.003": 27.7013281855,
			"-0.002": 18.9415296887,
			"-0.001": 17.0889857758,
			"0.0": 13.3697728208,
			"0.001": 12.1238901488,
			"0.002": 12.5294797287,
			"0.003": 13.592467823,
			"0.004": 12.6002489346,
			"0.005": 13.6044562052,
			"0.006": 8.66581587292,
			"0.007": 4.43934449086,
			"0.008": 5.72603893585,
			"0.009": 7.29749138103,
			"0.01": 7.36360508904,
			"0.011": 12.6213163698,
			"0.012": 7.43153518518,
			"0.013": 0.165526502751,
			"0.014": 0.0,
			"0.015": 0.0,
			"0.016": 0.0,
			"0.017": 0.0,
			"0.018": 0.0,
			"0.019": 0.0,
			"0.02": 0.0,
			"0.021": 0.0,
			"0.022": 0.0,
			"0.023": 0.0,
			"0.024": 0.0,
			"0.025": 0.0
		}
	}
}
