{
	 "smiles": "CN1C=C(C=N1)C1=NC(C(O)=O)=C(C)O1", 
	 "Tm": 523.15, 
	 "num_atms": 24, 
	 "gaussian": { 
		 "optdone": 1, 
		 "sigma_profile": "yes", 
		 "theory": "DFT", 
		 "functional": "B3LYP", 
		 "basiset": "6-31G**", 
		 "properties": { 
			 "R2extent": 4457.2247, 
			 "electric_dipole_moment_norm": 1.41235039916, 
			 "electric_quadrupole_moment_norm": 23.9178601514, 
			 "total_energy": -738.298429581, 
			 "HOMO_LUMO_gap": 0.18719, 
			 "cosmo_polarized_energy": -18.05, 
			 "cosmo_cavitation_energy": 30.12, 
			 "cosmo_dispersion_energy": -21.88, 
			 "cosmo_repulsion_energy": 1.73, 
			 "cosmo_total_nonelectrostatic_energy": 9.96, 
			 "SMD_solvation_energy": 4.91 
		},
		"coords": [
			{
				"x": -1.8446610151,
				"y": 1.7166589534,
				"z": 3.8333099093,
				"element": "C" 
			},
			{
				"x": -0.898860279,
				"y": 1.5895137903,
				"z": 2.7393889425,
				"element": "N" 
			},
			{
				"x": -1.0614429448,
				"y": 0.9278443411,
				"z": 1.5706845504,
				"element": "C" 
			},
			{
				"x": 0.1167120853,
				"y": 1.0942145211,
				"z": 0.8525114566,
				"element": "C" 
			},
			{
				"x": 0.9322544693,
				"y": 1.8866141898,
				"z": 1.6996489365,
				"element": "C" 
			},
			{
				"x": 0.3147512243,
				"y": 2.1836138242,
				"z": 2.8386957609,
				"element": "N" 
			},
			{
				"x": 0.4028736642,
				"y": 0.5622711689,
				"z": -0.4578588564,
				"element": "C" 
			},
			{
				"x": -0.3510941336,
				"y": -0.1629767819,
				"z": -1.2261084948,
				"element": "N" 
			},
			{
				"x": 0.4190170317,
				"y": -0.3890176699,
				"z": -2.3600023462,
				"element": "C" 
			},
			{
				"x": -0.0901755538,
				"y": -1.1847058841,
				"z": -3.4859769301,
				"element": "C" 
			},
			{
				"x": 0.8309169561,
				"y": -1.2779612608,
				"z": -4.4897868605,
				"element": "O" 
			},
			{
				"x": -1.180056093,
				"y": -1.7080639654,
				"z": -3.5546723585,
				"element": "O" 
			},
			{
				"x": 1.6382268521,
				"y": 0.2251690493,
				"z": -2.2260535275,
				"element": "C" 
			},
			{
				"x": 2.8675331722,
				"y": 0.359014137,
				"z": -3.0543861062,
				"element": "C" 
			},
			{
				"x": 1.6351969907,
				"y": 0.8393128509,
				"z": -1.0046558904,
				"element": "O" 
			},
			{
				"x": -2.0792312858,
				"y": 2.7703185594,
				"z": 4.0036258357,
				"element": "H" 
			},
			{
				"x": -1.4179102982,
				"y": 1.2952736271,
				"z": 4.7468456076,
				"element": "H" 
			},
			{
				"x": -2.7575427631,
				"y": 1.1777745511,
				"z": 3.5760858347,
				"element": "H" 
			},
			{
				"x": -1.9662085895,
				"y": 0.3954396716,
				"z": 1.319001077,
				"element": "H" 
			},
			{
				"x": 1.9358981963,
				"y": 2.2436258461,
				"z": 1.5152181576,
				"element": "H" 
			},
			{
				"x": 0.4067087224,
				"y": -1.8154565458,
				"z": -5.1787873338,
				"element": "H" 
			},
			{
				"x": 2.6442570532,
				"y": 0.8360476459,
				"z": -4.0131350538,
				"element": "H" 
			},
			{
				"x": 3.2979145992,
				"y": -0.6213558147,
				"z": -3.27857462,
				"element": "H" 
			},
			{
				"x": 3.6075219389,
				"y": 0.9594311954,
				"z": -2.5216176903,
				"element": "H" 
			}
		],
		 "valence_orbital": [ 
			{
				"type": "occ",
				"energy": -0.28706,
				"method": "rhf"
			},
			{
				"type": "occ",
				"energy": -0.28469,
				"method": "rhf"
			},
			{
				"type": "occ",
				"energy": -0.27169,
				"method": "rhf"
			},
			{
				"type": "occ",
				"energy": -0.26213,
				"method": "rhf"
			},
			{
				"type": "occ",
				"energy": -0.21766,
				"method": "rhf"
			},
			{
				"type": "unocc",
				"energy": -0.03047,
				"method": "rhf"
			},
			{
				"type": "unocc",
				"energy": -0.01722,
				"method": "rhf"
			},
			{
				"type": "unocc",
				"energy": 0.01477,
				"method": "rhf"
			},
			{
				"type": "unocc",
				"energy": 0.07966,
				"method": "rhf"
			},
			{
				"type": "unocc",
				"energy": 0.09132,
				"method": "rhf"
			}
		],
		"cosmo_sigma_profile": { 
			"-0.025": 0.0,
			"-0.024": 0.0,
			"-0.023": 0.0,
			"-0.022": 0.0,
			"-0.021": 0.0,
			"-0.02": 0.0,
			"-0.019": 0.0485808586668,
			"-0.018": 0.698862880017,
			"-0.017": 1.16775772803,
			"-0.016": 0.695675009869,
			"-0.015": 0.367478172986,
			"-0.014": 0.62037915843,
			"-0.013": 0.307746206818,
			"-0.012": 0.966152183752,
			"-0.011": 1.71381719389,
			"-0.01": 2.47252763615,
			"-0.009": 2.98572053977,
			"-0.008": 4.10666135194,
			"-0.007": 6.93452925959,
			"-0.006": 13.6632888761,
			"-0.005": 14.4999249046,
			"-0.004": 16.7045587359,
			"-0.003": 21.6375560856,
			"-0.002": 23.3391532612,
			"-0.001": 16.4165978734,
			"0.0": 14.9550064991,
			"0.001": 12.8412662473,
			"0.002": 14.1430818055,
			"0.003": 12.6490185832,
			"0.004": 8.12536464872,
			"0.005": 7.16699553448,
			"0.006": 5.73820827713,
			"0.007": 3.45852889664,
			"0.008": 3.7146822212,
			"0.009": 3.28032930323,
			"0.01": 4.14710367786,
			"0.011": 5.9640636671,
			"0.012": 6.23856385658,
			"0.013": 3.253172302,
			"0.014": 3.09922092794,
			"0.015": 2.3762847086,
			"0.016": 0.420053116872,
			"0.017": 0.0,
			"0.018": 0.0,
			"0.019": 0.0,
			"0.02": 0.0,
			"0.021": 0.0,
			"0.022": 0.0,
			"0.023": 0.0,
			"0.024": 0.0,
			"0.025": 0.0
		}
	}
}
