{
	 "smiles": "CC12CCC3C(CCC4=CC(=O)CCC34C)[C@]1(O)CCC2=O", 
	 "Tm": 531.15, 
	 "num_atms": 48, 
	 "gaussian": { 
		 "optdone": 1, 
		 "sigma_profile": "yes", 
		 "theory": "DFT", 
		 "functional": "B3LYP", 
		 "basiset": "6-31G**", 
		 "properties": { 
			 "R2extent": 6779.7653, 
			 "electric_dipole_moment_norm": 4.66477917698, 
			 "electric_quadrupole_moment_norm": 29.2172822136, 
			 "total_energy": -965.350904678, 
			 "HOMO_LUMO_gap": 0.18582, 
			 "cosmo_polarized_energy": -20.38, 
			 "cosmo_cavitation_energy": 42.89, 
			 "cosmo_dispersion_energy": -29.5, 
			 "cosmo_repulsion_energy": 2.17, 
			 "cosmo_total_nonelectrostatic_energy": 15.56, 
			 "SMD_solvation_energy": 7.32 
		},
		"coords": [
			{
				"x": 0.5443987632,
				"y": 2.3609213737,
				"z": -1.793988667,
				"element": "C" 
			},
			{
				"x": 1.3593492071,
				"y": 1.9674122428,
				"z": -0.5314396082,
				"element": "C" 
			},
			{
				"x": 2.2754812017,
				"y": 0.7507935747,
				"z": -0.8042843094,
				"element": "C" 
			},
			{
				"x": 1.6764525183,
				"y": -0.5882513979,
				"z": -0.2844723739,
				"element": "C" 
			},
			{
				"x": 0.1347621941,
				"y": -0.5736369181,
				"z": -0.3358914629,
				"element": "C" 
			},
			{
				"x": -0.4283157107,
				"y": 0.4872132205,
				"z": 0.662254265,
				"element": "C" 
			},
			{
				"x": -1.926776799,
				"y": 0.7284853469,
				"z": 0.4214481043,
				"element": "C" 
			},
			{
				"x": -2.6993738306,
				"y": -0.6090919021,
				"z": 0.5490475662,
				"element": "C" 
			},
			{
				"x": -2.0905428211,
				"y": -1.6202686833,
				"z": -0.3918184461,
				"element": "C" 
			},
			{
				"x": -2.7861096606,
				"y": -2.0518421309,
				"z": -1.4654634333,
				"element": "C" 
			},
			{
				"x": -2.1919343996,
				"y": -2.7709526044,
				"z": -2.6084926059,
				"element": "C" 
			},
			{
				"x": -2.8723746987,
				"y": -3.1975965652,
				"z": -3.5310203289,
				"element": "O" 
			},
			{
				"x": -0.6736544726,
				"y": -2.8492556287,
				"z": -2.6030966513,
				"element": "C" 
			},
			{
				"x": -0.1457363824,
				"y": -3.0302993069,
				"z": -1.178075286,
				"element": "C" 
			},
			{
				"x": -0.6117986772,
				"y": -1.952048454,
				"z": -0.1631420214,
				"element": "C" 
			},
			{
				"x": -0.3893653298,
				"y": -2.5651026249,
				"z": 1.2421479344,
				"element": "C" 
			},
			{
				"x": 0.5002429304,
				"y": 1.7287501915,
				"z": 0.7326229067,
				"element": "C" 
			},
			{
				"x": 1.5172168077,
				"y": 1.470923987,
				"z": 1.7372745264,
				"element": "O" 
			},
			{
				"x": -0.0828160279,
				"y": 3.1211706146,
				"z": 1.0605196468,
				"element": "C" 
			},
			{
				"x": 1.1114297424,
				"y": 4.0677543092,
				"z": 0.7881635349,
				"element": "C" 
			},
			{
				"x": 2.0671190609,
				"y": 3.2709309479,
				"z": -0.1228812168,
				"element": "C" 
			},
			{
				"x": 3.1664171988,
				"y": 3.631290707,
				"z": -0.477006016,
				"element": "O" 
			},
			{
				"x": -0.0818348577,
				"y": 3.2445218332,
				"z": -1.6381699131,
				"element": "H" 
			},
			{
				"x": 1.2466457219,
				"y": 2.5964058777,
				"z": -2.5993469716,
				"element": "H" 
			},
			{
				"x": -0.1040470512,
				"y": 1.5553190502,
				"z": -2.1436713991,
				"element": "H" 
			},
			{
				"x": 3.253548986,
				"y": 0.9199073121,
				"z": -0.3471332826,
				"element": "H" 
			},
			{
				"x": 2.4490108644,
				"y": 0.6771945282,
				"z": -1.8833287211,
				"element": "H" 
			},
			{
				"x": 2.0774634802,
				"y": -1.4046249547,
				"z": -0.8922002956,
				"element": "H" 
			},
			{
				"x": 2.0075038555,
				"y": -0.7582516183,
				"z": 0.7435787612,
				"element": "H" 
			},
			{
				"x": -0.1409457669,
				"y": -0.2434477872,
				"z": -1.3450137092,
				"element": "H" 
			},
			{
				"x": -0.3540678961,
				"y": 0.0536180612,
				"z": 1.6679020179,
				"element": "H" 
			},
			{
				"x": -2.1003634251,
				"y": 1.1472401605,
				"z": -0.5776634934,
				"element": "H" 
			},
			{
				"x": -2.3267146934,
				"y": 1.4479025471,
				"z": 1.1452439202,
				"element": "H" 
			},
			{
				"x": -2.6441055288,
				"y": -0.9505518638,
				"z": 1.5905759675,
				"element": "H" 
			},
			{
				"x": -3.7576019011,
				"y": -0.4607452403,
				"z": 0.3134117862,
				"element": "H" 
			},
			{
				"x": -3.8378984266,
				"y": -1.7966561765,
				"z": -1.5786892791,
				"element": "H" 
			},
			{
				"x": -0.2940759901,
				"y": -1.9194918349,
				"z": -3.0502986061,
				"element": "H" 
			},
			{
				"x": -0.3600035897,
				"y": -3.6663815816,
				"z": -3.2587228272,
				"element": "H" 
			},
			{
				"x": 0.9461299278,
				"y": -3.0953402211,
				"z": -1.1781666277,
				"element": "H" 
			},
			{
				"x": -0.5018392057,
				"y": -4.0014222001,
				"z": -0.8117080336,
				"element": "H" 
			},
			{
				"x": -0.6357907493,
				"y": -1.8911573443,
				"z": 2.0643473129,
				"element": "H" 
			},
			{
				"x": -1.0001916734,
				"y": -3.4655250813,
				"z": 1.362129613,
				"element": "H" 
			},
			{
				"x": 0.6593892742,
				"y": -2.8570862975,
				"z": 1.3590390593,
				"element": "H" 
			},
			{
				"x": 1.0791092811,
				"y": 1.4540531467,
				"z": 2.598911478,
				"element": "H" 
			},
			{
				"x": -0.9369445033,
				"y": 3.3600536194,
				"z": 0.4207737247,
				"element": "H" 
			},
			{
				"x": -0.4380246359,
				"y": 3.1726141754,
				"z": 2.0963993312,
				"element": "H" 
			},
			{
				"x": 1.655766618,
				"y": 4.3316388287,
				"z": 1.6984538369,
				"element": "H" 
			},
			{
				"x": 0.8247110707,
				"y": 5.0060127621,
				"z": 0.3026402925,
				"element": "H" 
			}
		],
		 "valence_orbital": [ 
			{
				"type": "occ",
				"energy": -0.29575,
				"method": "rhf"
			},
			{
				"type": "occ",
				"energy": -0.27913,
				"method": "rhf"
			},
			{
				"type": "occ",
				"energy": -0.25601,
				"method": "rhf"
			},
			{
				"type": "occ",
				"energy": -0.23366,
				"method": "rhf"
			},
			{
				"type": "occ",
				"energy": -0.2327,
				"method": "rhf"
			},
			{
				"type": "unocc",
				"energy": -0.04688,
				"method": "rhf"
			},
			{
				"type": "unocc",
				"energy": -0.00919,
				"method": "rhf"
			},
			{
				"type": "unocc",
				"energy": 0.05335,
				"method": "rhf"
			},
			{
				"type": "unocc",
				"energy": 0.05556,
				"method": "rhf"
			},
			{
				"type": "unocc",
				"energy": 0.07238,
				"method": "rhf"
			}
		],
		"cosmo_sigma_profile": { 
			"-0.025": 0.0,
			"-0.024": 0.0,
			"-0.023": 0.0,
			"-0.022": 0.0,
			"-0.021": 0.0,
			"-0.02": 0.0,
			"-0.019": 0.0,
			"-0.018": 0.0,
			"-0.017": 0.0,
			"-0.016": 0.0208398157823,
			"-0.015": 0.540771230006,
			"-0.014": 0.902391388629,
			"-0.013": 1.12011846205,
			"-0.012": 1.20102951095,
			"-0.011": 1.05347269486,
			"-0.01": 0.868329939777,
			"-0.009": 0.95948269054,
			"-0.008": 1.07666929138,
			"-0.007": 2.19469667144,
			"-0.006": 2.8213631244,
			"-0.005": 17.7118240096,
			"-0.004": 29.2735700839,
			"-0.003": 48.3571968858,
			"-0.002": 51.0361367538,
			"-0.001": 44.2126042619,
			"0.0": 33.758272441,
			"0.001": 19.0312640823,
			"0.002": 8.49016715921,
			"0.003": 6.60055251364,
			"0.004": 5.4308902514,
			"0.005": 4.99624632143,
			"0.006": 4.64051499103,
			"0.007": 5.4699547591,
			"0.008": 4.15702485113,
			"0.009": 4.76580571584,
			"0.01": 4.3236113103,
			"0.011": 6.01201424616,
			"0.012": 8.7495822003,
			"0.013": 7.9907487701,
			"0.014": 3.22947607016,
			"0.015": 0.56414732405,
			"0.016": 0.0,
			"0.017": 0.0,
			"0.018": 0.0,
			"0.019": 0.0,
			"0.02": 0.0,
			"0.021": 0.0,
			"0.022": 0.0,
			"0.023": 0.0,
			"0.024": 0.0,
			"0.025": 0.0
		}
	}
}
