{
	 "smiles": "COC(=O)CCC1=CC=C(N)C=C1", 
	 "Tm": 313.15, 
	 "num_atms": 26, 
	 "gaussian": { 
		 "optdone": 1, 
		 "sigma_profile": "yes", 
		 "theory": "DFT", 
		 "functional": "B3LYP", 
		 "basiset": "6-31G**", 
		 "properties": { 
			 "R2extent": 3646.7118, 
			 "electric_dipole_moment_norm": 2.67997619766, 
			 "electric_quadrupole_moment_norm": 6.65279105639, 
			 "total_energy": -594.116944604, 
			 "HOMO_LUMO_gap": 0.20041, 
			 "cosmo_polarized_energy": -12.51, 
			 "cosmo_cavitation_energy": 29.72, 
			 "cosmo_dispersion_energy": -21.21, 
			 "cosmo_repulsion_energy": 1.72, 
			 "cosmo_total_nonelectrostatic_energy": 10.23, 
			 "SMD_solvation_energy": 6.2 
		},
		"coords": [
			{
				"x": 1.6475014575,
				"y": -4.6917822103,
				"z": 0.5687699047,
				"element": "C" 
			},
			{
				"x": 1.7166877873,
				"y": -3.7633556938,
				"z": -0.5253718885,
				"element": "O" 
			},
			{
				"x": 0.6361291609,
				"y": -2.9651855019,
				"z": -0.6754827706,
				"element": "C" 
			},
			{
				"x": -0.3287496915,
				"y": -3.0085982271,
				"z": 0.0593468033,
				"element": "O" 
			},
			{
				"x": 0.7817155189,
				"y": -2.069064353,
				"z": -1.8903987621,
				"element": "C" 
			},
			{
				"x": -0.056188497,
				"y": -0.779813386,
				"z": -1.7943730667,
				"element": "C" 
			},
			{
				"x": 0.4918549799,
				"y": 0.2359777469,
				"z": -0.8127677592,
				"element": "C" 
			},
			{
				"x": 1.4259419639,
				"y": 1.1985731686,
				"z": -1.2184844033,
				"element": "C" 
			},
			{
				"x": 1.9582857842,
				"y": 2.1243138175,
				"z": -0.3248076763,
				"element": "C" 
			},
			{
				"x": 1.5661719743,
				"y": 2.1192750017,
				"z": 1.0240201355,
				"element": "C" 
			},
			{
				"x": 2.0475463923,
				"y": 3.0849037108,
				"z": 1.9149360417,
				"element": "N" 
			},
			{
				"x": 0.6289655641,
				"y": 1.1586607659,
				"z": 1.4389638799,
				"element": "C" 
			},
			{
				"x": 0.1051623997,
				"y": 0.2380307587,
				"z": 0.5350312676,
				"element": "C" 
			},
			{
				"x": 0.7980826647,
				"y": -5.3691930752,
				"z": 0.4482924749,
				"element": "H" 
			},
			{
				"x": 1.5402194881,
				"y": -4.1606143097,
				"z": 1.5178409081,
				"element": "H" 
			},
			{
				"x": 2.5854618014,
				"y": -5.2466510268,
				"z": 0.5447545611,
				"element": "H" 
			},
			{
				"x": 0.4550792909,
				"y": -2.6648775329,
				"z": -2.754296401,
				"element": "H" 
			},
			{
				"x": 1.8418101658,
				"y": -1.8494278855,
				"z": -2.0466940209,
				"element": "H" 
			},
			{
				"x": -1.0785315537,
				"y": -1.0566037125,
				"z": -1.5187812412,
				"element": "H" 
			},
			{
				"x": -0.1025301231,
				"y": -0.3325334233,
				"z": -2.7937591782,
				"element": "H" 
			},
			{
				"x": 1.7435889921,
				"y": 1.2303198097,
				"z": -2.2588740886,
				"element": "H" 
			},
			{
				"x": 2.6742941425,
				"y": 2.8655714155,
				"z": -0.6724969273,
				"element": "H" 
			},
			{
				"x": 2.0174189479,
				"y": 2.8144934825,
				"z": 2.8886973102,
				"element": "H" 
			},
			{
				"x": 2.9450363386,
				"y": 3.4796273891,
				"z": 1.6680797654,
				"element": "H" 
			},
			{
				"x": 0.3044659576,
				"y": 1.1417108955,
				"z": 2.4770431679,
				"element": "H" 
			},
			{
				"x": -0.6107209074,
				"y": -0.5017576246,
				"z": 0.8808119637,
				"element": "H" 
			}
		],
		 "valence_orbital": [ 
			{
				"type": "occ",
				"energy": -0.29857,
				"method": "rhf"
			},
			{
				"type": "occ",
				"energy": -0.29314,
				"method": "rhf"
			},
			{
				"type": "occ",
				"energy": -0.26776,
				"method": "rhf"
			},
			{
				"type": "occ",
				"energy": -0.2382,
				"method": "rhf"
			},
			{
				"type": "occ",
				"energy": -0.19287,
				"method": "rhf"
			},
			{
				"type": "unocc",
				"energy": 0.00754,
				"method": "rhf"
			},
			{
				"type": "unocc",
				"energy": 0.01789,
				"method": "rhf"
			},
			{
				"type": "unocc",
				"energy": 0.02322,
				"method": "rhf"
			},
			{
				"type": "unocc",
				"energy": 0.08556,
				"method": "rhf"
			},
			{
				"type": "unocc",
				"energy": 0.104,
				"method": "rhf"
			}
		],
		"cosmo_sigma_profile": { 
			"-0.025": 0.0,
			"-0.024": 0.0,
			"-0.023": 0.0,
			"-0.022": 0.0,
			"-0.021": 0.0,
			"-0.02": 0.0,
			"-0.019": 0.0,
			"-0.018": 0.0,
			"-0.017": 0.0,
			"-0.016": 0.0,
			"-0.015": 0.0,
			"-0.014": 0.0,
			"-0.013": 0.0309429154446,
			"-0.012": 1.72002761688,
			"-0.011": 2.58742192749,
			"-0.01": 2.97941401705,
			"-0.009": 3.22679600829,
			"-0.008": 2.65168257906,
			"-0.007": 3.52986909738,
			"-0.006": 10.0793272373,
			"-0.005": 16.2089974289,
			"-0.004": 21.0299876913,
			"-0.003": 25.4610817355,
			"-0.002": 21.0599361025,
			"-0.001": 15.178518075,
			"0.0": 14.2531713927,
			"0.001": 10.5491865807,
			"0.002": 8.97068048326,
			"0.003": 10.8286841242,
			"0.004": 10.3769823721,
			"0.005": 10.6072372882,
			"0.006": 10.7744710864,
			"0.007": 11.0487469519,
			"0.008": 5.49138574306,
			"0.009": 3.26158153566,
			"0.01": 2.85412752974,
			"0.011": 2.58069057576,
			"0.012": 4.38186163833,
			"0.013": 0.951269456911,
			"0.014": 0.58950204286,
			"0.015": 0.632606413903,
			"0.016": 0.0220434112685,
			"0.017": 0.0,
			"0.018": 0.0,
			"0.019": 0.0,
			"0.02": 0.0,
			"0.021": 0.0,
			"0.022": 0.0,
			"0.023": 0.0,
			"0.024": 0.0,
			"0.025": 0.0
		}
	}
}
