{
	 "smiles": "OC(C1=CC=C(F)C=C1)(C1=CC=C(F)C=C1)C1=CC=C(F)C=C1", 
	 "Tm": 365.15, 
	 "num_atms": 36, 
	 "gaussian": { 
		 "optdone": 1, 
		 "sigma_profile": "yes", 
		 "theory": "DFT", 
		 "functional": "B3LYP", 
		 "basiset": "6-31G**", 
		 "properties": { 
			 "R2extent": 8004.3771, 
			 "electric_dipole_moment_norm": 1.46858963635, 
			 "electric_quadrupole_moment_norm": 10.184025787, 
			 "total_energy": -1106.57361018, 
			 "HOMO_LUMO_gap": 0.20897, 
			 "cosmo_polarized_energy": -10.02, 
			 "cosmo_cavitation_energy": 41.14, 
			 "cosmo_dispersion_energy": -27.79, 
			 "cosmo_repulsion_energy": 2.04, 
			 "cosmo_total_nonelectrostatic_energy": 15.39, 
			 "SMD_solvation_energy": 8.54 
		},
		"coords": [
			{
				"x": 1.8657224093,
				"y": -1.2558181829,
				"z": -0.4893576157,
				"element": "O" 
			},
			{
				"x": 0.7454960098,
				"y": -0.5663299649,
				"z": 0.0968742275,
				"element": "C" 
			},
			{
				"x": 1.2023717043,
				"y": -0.1858847242,
				"z": 1.5155835975,
				"element": "C" 
			},
			{
				"x": 0.7634402144,
				"y": 0.9818372315,
				"z": 2.150611973,
				"element": "C" 
			},
			{
				"x": 1.1469769252,
				"y": 1.2777033948,
				"z": 3.4605018388,
				"element": "C" 
			},
			{
				"x": 1.9832922859,
				"y": 0.3923301976,
				"z": 4.1266885293,
				"element": "C" 
			},
			{
				"x": 2.3649330508,
				"y": 0.6726285835,
				"z": 5.3908442506,
				"element": "F" 
			},
			{
				"x": 2.442626455,
				"y": -0.7740723809,
				"z": 3.5241033946,
				"element": "C" 
			},
			{
				"x": 2.0444335996,
				"y": -1.0585793719,
				"z": 2.2198448209,
				"element": "C" 
			},
			{
				"x": -0.4646655115,
				"y": -1.5207353443,
				"z": 0.2007864413,
				"element": "C" 
			},
			{
				"x": -1.6140877864,
				"y": -1.1582910972,
				"z": 0.9209177497,
				"element": "C" 
			},
			{
				"x": -2.7092549807,
				"y": -2.01440313,
				"z": 1.0150407018,
				"element": "C" 
			},
			{
				"x": -2.6449207929,
				"y": -3.2546990725,
				"z": 0.3882905947,
				"element": "C" 
			},
			{
				"x": -3.7002384119,
				"y": -4.090812104,
				"z": 0.4786839593,
				"element": "F" 
			},
			{
				"x": -1.5197990061,
				"y": -3.6548942474,
				"z": -0.3185573161,
				"element": "C" 
			},
			{
				"x": -0.4338743149,
				"y": -2.780954649,
				"z": -0.4058387105,
				"element": "C" 
			},
			{
				"x": 0.4677322643,
				"y": 0.6734829841,
				"z": -0.7742899731,
				"element": "C" 
			},
			{
				"x": -0.7525408027,
				"y": 0.9261111846,
				"z": -1.4107489568,
				"element": "C" 
			},
			{
				"x": -0.9179227854,
				"y": 2.0416213961,
				"z": -2.2371511853,
				"element": "C" 
			},
			{
				"x": 0.1549110634,
				"y": 2.9005183443,
				"z": -2.4259986148,
				"element": "C" 
			},
			{
				"x": 0.003889104,
				"y": 3.9789021187,
				"z": -3.2213778681,
				"element": "F" 
			},
			{
				"x": 1.3878592127,
				"y": 2.6770325965,
				"z": -1.818344802,
				"element": "C" 
			},
			{
				"x": 1.535097534,
				"y": 1.5626030796,
				"z": -0.9989974126,
				"element": "C" 
			},
			{
				"x": 1.7285660693,
				"y": -1.2592414931,
				"z": -1.4462595704,
				"element": "H" 
			},
			{
				"x": 0.1262885731,
				"y": 1.6812625506,
				"z": 1.6191754782,
				"element": "H" 
			},
			{
				"x": 0.8145212068,
				"y": 2.1820800412,
				"z": 3.9584984161,
				"element": "H" 
			},
			{
				"x": 3.0988222831,
				"y": -1.4393041971,
				"z": 4.0751089251,
				"element": "H" 
			},
			{
				"x": 2.3959460212,
				"y": -1.9621569769,
				"z": 1.7355924771,
				"element": "H" 
			},
			{
				"x": -1.6551836757,
				"y": -0.1989005195,
				"z": 1.4265331402,
				"element": "H" 
			},
			{
				"x": -3.5990580272,
				"y": -1.7392833582,
				"z": 1.5710452451,
				"element": "H" 
			},
			{
				"x": -1.4976158431,
				"y": -4.6347536596,
				"z": -0.7834053514,
				"element": "H" 
			},
			{
				"x": 0.4592898006,
				"y": -3.0959886924,
				"z": -0.9321871088,
				"element": "H" 
			},
			{
				"x": -1.588707327,
				"y": 0.2514096505,
				"z": -1.2701006109,
				"element": "H" 
			},
			{
				"x": -1.8612871549,
				"y": 2.2432230836,
				"z": -2.7329836043,
				"element": "H" 
			},
			{
				"x": 2.2056230977,
				"y": 3.3679735047,
				"z": -1.9929863455,
				"element": "H" 
			},
			{
				"x": 2.4913175357,
				"y": 1.3692832238,
				"z": -0.5239407145,
				"element": "H" 
			}
		],
		 "valence_orbital": [ 
			{
				"type": "occ",
				"energy": -0.26427,
				"method": "rhf"
			},
			{
				"type": "occ",
				"energy": -0.25955,
				"method": "rhf"
			},
			{
				"type": "occ",
				"energy": -0.25278,
				"method": "rhf"
			},
			{
				"type": "occ",
				"energy": -0.24628,
				"method": "rhf"
			},
			{
				"type": "occ",
				"energy": -0.23409,
				"method": "rhf"
			},
			{
				"type": "unocc",
				"energy": -0.02512,
				"method": "rhf"
			},
			{
				"type": "unocc",
				"energy": -0.0172,
				"method": "rhf"
			},
			{
				"type": "unocc",
				"energy": -0.01423,
				"method": "rhf"
			},
			{
				"type": "unocc",
				"energy": -0.01319,
				"method": "rhf"
			},
			{
				"type": "unocc",
				"energy": -0.00188,
				"method": "rhf"
			}
		],
		"cosmo_sigma_profile": { 
			"-0.025": 0.0,
			"-0.024": 0.0,
			"-0.023": 0.0,
			"-0.022": 0.0,
			"-0.021": 0.0,
			"-0.02": 0.0,
			"-0.019": 0.0,
			"-0.018": 0.0,
			"-0.017": 0.0,
			"-0.016": 0.102319796815,
			"-0.015": 0.809599278682,
			"-0.014": 0.65644104031,
			"-0.013": 0.496879042206,
			"-0.012": 1.20164533875,
			"-0.011": 0.657737394828,
			"-0.01": 1.18157150946,
			"-0.009": 1.14208475709,
			"-0.008": 1.63160321883,
			"-0.007": 10.5799107381,
			"-0.006": 15.3851270694,
			"-0.005": 21.8664529681,
			"-0.004": 21.4991621786,
			"-0.003": 16.7976718397,
			"-0.002": 17.3362822299,
			"-0.001": 16.7588159151,
			"0.0": 25.3505694134,
			"0.001": 34.8556982732,
			"0.002": 34.3621098544,
			"0.003": 36.6009782736,
			"0.004": 47.100014619,
			"0.005": 16.2122145171,
			"0.006": 1.49000971108,
			"0.007": 1.14923288532,
			"0.008": 1.58128895281,
			"0.009": 1.06748248022,
			"0.01": 1.19486973794,
			"0.011": 1.12336079863,
			"0.012": 0.220627361481,
			"0.013": 0.0,
			"0.014": 0.0,
			"0.015": 0.0,
			"0.016": 0.0,
			"0.017": 0.0,
			"0.018": 0.0,
			"0.019": 0.0,
			"0.02": 0.0,
			"0.021": 0.0,
			"0.022": 0.0,
			"0.023": 0.0,
			"0.024": 0.0,
			"0.025": 0.0
		}
	}
}
