{
	 "smiles": "NC1=CC(OC2=NC=C(Br)C=N2)=CC=C1", 
	 "Tm": 366.15, 
	 "num_atms": 23, 
	 "gaussian": { 
		 "optdone": 1, 
		 "sigma_profile": "yes", 
		 "theory": "DFT", 
		 "functional": "B3LYP", 
		 "basiset": "6-31G**", 
		 "properties": { 
			 "R2extent": 8425.181, 
			 "electric_dipole_moment_norm": 3.01443221022, 
			 "electric_quadrupole_moment_norm": 9.94570004675, 
			 "total_energy": -3196.75480886, 
			 "HOMO_LUMO_gap": 0.1534, 
			 "cosmo_polarized_energy": -14.13, 
			 "cosmo_cavitation_energy": 30.98, 
			 "cosmo_dispersion_energy": -23.03, 
			 "cosmo_repulsion_energy": 1.82, 
			 "cosmo_total_nonelectrostatic_energy": 9.77, 
			 "SMD_solvation_energy": 1.82 
		},
		"coords": [
			{
				"x": 1.6095536044,
				"y": 2.4659702186,
				"z": -1.712889781,
				"element": "N" 
			},
			{
				"x": 1.2475172407,
				"y": 1.1368564041,
				"z": -1.4965900505,
				"element": "C" 
			},
			{
				"x": 0.015549384,
				"y": 0.8236683357,
				"z": -0.8973876089,
				"element": "C" 
			},
			{
				"x": -0.351429594,
				"y": -0.5061082764,
				"z": -0.7417211141,
				"element": "C" 
			},
			{
				"x": -1.6258697173,
				"y": -0.7757199628,
				"z": -0.2262911082,
				"element": "O" 
			},
			{
				"x": -1.766785651,
				"y": -1.124759844,
				"z": 1.0683028117,
				"element": "C" 
			},
			{
				"x": -0.6932636524,
				"y": -1.1421122742,
				"z": 1.8618546998,
				"element": "N" 
			},
			{
				"x": -0.9068023454,
				"y": -1.4917703397,
				"z": 3.1325895549,
				"element": "C" 
			},
			{
				"x": -2.1774697537,
				"y": -1.8159236327,
				"z": 3.599085313,
				"element": "C" 
			},
			{
				"x": -2.4748281821,
				"y": -2.3124722479,
				"z": 5.4078627016,
				"element": "Br" 
			},
			{
				"x": -3.225796603,
				"y": -1.7590572608,
				"z": 2.6781062391,
				"element": "C" 
			},
			{
				"x": -3.0295603937,
				"y": -1.4143645434,
				"z": 1.4078045281,
				"element": "N" 
			},
			{
				"x": 0.4557340615,
				"y": -1.5570887142,
				"z": -1.1671724267,
				"element": "C" 
			},
			{
				"x": 1.6780809958,
				"y": -1.2388643234,
				"z": -1.7605879549,
				"element": "C" 
			},
			{
				"x": 2.0770552883,
				"y": 0.0852154259,
				"z": -1.9252964619,
				"element": "C" 
			},
			{
				"x": 1.1750794816,
				"y": 3.1396124124,
				"z": -1.0977351457,
				"element": "H" 
			},
			{
				"x": 2.6009161446,
				"y": 2.6312907742,
				"z": -1.8169501612,
				"element": "H" 
			},
			{
				"x": -0.6590308324,
				"y": 1.6060487811,
				"z": -0.563711685,
				"element": "H" 
			},
			{
				"x": -0.0430496094,
				"y": -1.5117485196,
				"z": 3.7929313777,
				"element": "H" 
			},
			{
				"x": -4.244276716,
				"y": -1.9981656958,
				"z": 2.9755058724,
				"element": "H" 
			},
			{
				"x": 0.1307599608,
				"y": -2.5829967238,
				"z": -1.0388522803,
				"element": "H" 
			},
			{
				"x": 2.3312376945,
				"y": -2.0369689525,
				"z": -2.1014235805,
				"element": "H" 
			},
			{
				"x": 3.0297791944,
				"y": 0.3133589592,
				"z": -2.3959337393,
				"element": "H" 
			}
		],
		 "valence_orbital": [ 
			{
				"type": "occ",
				"energy": -0.30556,
				"method": "rhf"
			},
			{
				"type": "occ",
				"energy": -0.26322,
				"method": "rhf"
			},
			{
				"type": "occ",
				"energy": -0.24919,
				"method": "rhf"
			},
			{
				"type": "occ",
				"energy": -0.24376,
				"method": "rhf"
			},
			{
				"type": "occ",
				"energy": -0.20628,
				"method": "rhf"
			},
			{
				"type": "unocc",
				"energy": -0.05288,
				"method": "rhf"
			},
			{
				"type": "unocc",
				"energy": -0.02326,
				"method": "rhf"
			},
			{
				"type": "unocc",
				"energy": -0.00284,
				"method": "rhf"
			},
			{
				"type": "unocc",
				"energy": 0.00257,
				"method": "rhf"
			},
			{
				"type": "unocc",
				"energy": 0.01441,
				"method": "rhf"
			}
		],
		"cosmo_sigma_profile": { 
			"-0.025": 0.0,
			"-0.024": 0.0,
			"-0.023": 0.0,
			"-0.022": 0.0,
			"-0.021": 0.0,
			"-0.02": 0.0,
			"-0.019": 0.0,
			"-0.018": 0.0,
			"-0.017": 0.0,
			"-0.016": 0.0,
			"-0.015": 0.0,
			"-0.014": 0.0,
			"-0.013": 0.72117671821,
			"-0.012": 2.86327119285,
			"-0.011": 2.55703841786,
			"-0.01": 3.74969200763,
			"-0.009": 5.33094852926,
			"-0.008": 6.83449304336,
			"-0.007": 7.23975347014,
			"-0.006": 11.8944154046,
			"-0.005": 12.7250006631,
			"-0.004": 15.6219744035,
			"-0.003": 18.4300684484,
			"-0.002": 19.7854925156,
			"-0.001": 15.4843840266,
			"0.0": 14.2257295823,
			"0.001": 13.7809870649,
			"0.002": 14.6413182138,
			"0.003": 18.1431924941,
			"0.004": 18.1551962002,
			"0.005": 12.6987697357,
			"0.006": 8.94600511616,
			"0.007": 4.81873895596,
			"0.008": 4.48157517297,
			"0.009": 4.45257497953,
			"0.01": 4.21851062483,
			"0.011": 3.26261466742,
			"0.012": 2.68779519149,
			"0.013": 2.90357335666,
			"0.014": 1.46573288904,
			"0.015": 0.140821131917,
			"0.016": 0.0,
			"0.017": 0.0,
			"0.018": 0.0,
			"0.019": 0.0,
			"0.02": 0.0,
			"0.021": 0.0,
			"0.022": 0.0,
			"0.023": 0.0,
			"0.024": 0.0,
			"0.025": 0.0
		}
	}
}
