{
	 "smiles": "C[C@@H](CCC(O)(Cl)Cl)C1CCC2C3[C@H](O)C[C@@H]4C[C@H](O)CC[C@]4(C)C3C[C@H](O)[C@]12C", 
	 "Tm": 439.15, 
	 "num_atms": 70, 
	 "gaussian": { 
		 "optdone": 1, 
		 "sigma_profile": "yes", 
		 "theory": "DFT", 
		 "functional": "B3LYP", 
		 "basiset": "6-31G**", 
		 "properties": { 
			 "R2extent": 21047.4928, 
			 "electric_dipole_moment_norm": 2.46623356153, 
			 "electric_quadrupole_moment_norm": 38.115191813, 
			 "total_energy": -2159.93451204, 
			 "HOMO_LUMO_gap": 0.2349, 
			 "cosmo_polarized_energy": -22.48, 
			 "cosmo_cavitation_energy": 61.67, 
			 "cosmo_dispersion_energy": -41.4, 
			 "cosmo_repulsion_energy": 3.05, 
			 "cosmo_total_nonelectrostatic_energy": 23.32, 
			 "SMD_solvation_energy": 8.14 
		},
		"coords": [
			{
				"x": 0.1210060274,
				"y": -5.0585358211,
				"z": -0.1164593978,
				"element": "C" 
			},
			{
				"x": 0.7908805419,
				"y": -3.8443073429,
				"z": 0.55075055,
				"element": "C" 
			},
			{
				"x": 2.3344481436,
				"y": -3.9601186903,
				"z": 0.4888171363,
				"element": "C" 
			},
			{
				"x": 3.0136993656,
				"y": -5.2496415673,
				"z": 0.9940096834,
				"element": "C" 
			},
			{
				"x": 3.145359906,
				"y": -5.3995446977,
				"z": 2.5082824486,
				"element": "C" 
			},
			{
				"x": 3.6825389026,
				"y": -4.275059154,
				"z": 3.0466063496,
				"element": "O" 
			},
			{
				"x": 4.2450937473,
				"y": -6.8560365737,
				"z": 2.8611990103,
				"element": "Cl" 
			},
			{
				"x": 1.5383555846,
				"y": -5.7933670136,
				"z": 3.3219273798,
				"element": "Cl" 
			},
			{
				"x": 0.3882841099,
				"y": -2.4667625775,
				"z": -0.0642484491,
				"element": "C" 
			},
			{
				"x": 0.1536614106,
				"y": -2.4453660005,
				"z": -1.5873547319,
				"element": "C" 
			},
			{
				"x": -0.3497628964,
				"y": -1.0229256854,
				"z": -1.8513105222,
				"element": "C" 
			},
			{
				"x": -1.1778435901,
				"y": -0.6147890535,
				"z": -0.5959517512,
				"element": "C" 
			},
			{
				"x": -0.9022578461,
				"y": 0.8641596105,
				"z": -0.2090661995,
				"element": "C" 
			},
			{
				"x": -2.0522464323,
				"y": 1.6094964482,
				"z": 0.5021123274,
				"element": "C" 
			},
			{
				"x": -3.2505209774,
				"y": 1.6110120916,
				"z": -0.2755095657,
				"element": "O" 
			},
			{
				"x": -1.6736839038,
				"y": 3.0760460001,
				"z": 0.6996516585,
				"element": "C" 
			},
			{
				"x": -0.3540228794,
				"y": 3.2703909266,
				"z": 1.4747496638,
				"element": "C" 
			},
			{
				"x": -0.0357056673,
				"y": 4.7818521842,
				"z": 1.6747324183,
				"element": "C" 
			},
			{
				"x": 0.9366009809,
				"y": 5.4019458945,
				"z": 0.642264779,
				"element": "C" 
			},
			{
				"x": 0.6048781738,
				"y": 6.762369811,
				"z": 0.3602756534,
				"element": "O" 
			},
			{
				"x": 0.8979265672,
				"y": 4.648628831,
				"z": -0.6809630014,
				"element": "C" 
			},
			{
				"x": 1.2605838151,
				"y": 3.1552378096,
				"z": -0.5248825007,
				"element": "C" 
			},
			{
				"x": 0.8324919962,
				"y": 2.4928150716,
				"z": 0.8311476566,
				"element": "C" 
			},
			{
				"x": 2.0559128529,
				"y": 2.5234756281,
				"z": 1.7793428846,
				"element": "C" 
			},
			{
				"x": 0.4258683664,
				"y": 1.0003646721,
				"z": 0.5723791516,
				"element": "C" 
			},
			{
				"x": 0.4116832045,
				"y": 0.1138858609,
				"z": 1.8518140135,
				"element": "C" 
			},
			{
				"x": -0.6238954094,
				"y": -1.0263930013,
				"z": 1.8631159388,
				"element": "C" 
			},
			{
				"x": -0.2533836608,
				"y": -2.0214380297,
				"z": 2.8224288638,
				"element": "O" 
			},
			{
				"x": -0.867526771,
				"y": -1.7117030345,
				"z": 0.5045149243,
				"element": "C" 
			},
			{
				"x": -2.0908324518,
				"y": -2.638789373,
				"z": 0.6557467831,
				"element": "C" 
			},
			{
				"x": 0.3116432754,
				"y": -5.9698617992,
				"z": 0.4579393161,
				"element": "H" 
			},
			{
				"x": 0.4957738059,
				"y": -5.2220622212,
				"z": -1.134062196,
				"element": "H" 
			},
			{
				"x": -0.9635608967,
				"y": -4.9477826341,
				"z": -0.1786913727,
				"element": "H" 
			},
			{
				"x": 0.4975055377,
				"y": -3.8235767334,
				"z": 1.601262645,
				"element": "H" 
			},
			{
				"x": 2.6430630484,
				"y": -3.8566425267,
				"z": -0.5606961491,
				"element": "H" 
			},
			{
				"x": 2.7789291535,
				"y": -3.1122615381,
				"z": 1.0207819965,
				"element": "H" 
			},
			{
				"x": 2.5375815884,
				"y": -6.1501314854,
				"z": 0.6021341414,
				"element": "H" 
			},
			{
				"x": 4.0459777271,
				"y": -5.2535127094,
				"z": 0.6278851233,
				"element": "H" 
			},
			{
				"x": 3.7722565023,
				"y": -4.3850945135,
				"z": 4.0048708916,
				"element": "H" 
			},
			{
				"x": 1.2378595203,
				"y": -1.7938042537,
				"z": 0.1194972717,
				"element": "H" 
			},
			{
				"x": 1.0546152557,
				"y": -2.6868860623,
				"z": -2.1619973444,
				"element": "H" 
			},
			{
				"x": -0.6088287317,
				"y": -3.1797147928,
				"z": -1.8692790623,
				"element": "H" 
			},
			{
				"x": 0.5075310725,
				"y": -0.3485146279,
				"z": -1.9665329016,
				"element": "H" 
			},
			{
				"x": -0.9381074141,
				"y": -0.9366769101,
				"z": -2.7705001279,
				"element": "H" 
			},
			{
				"x": -2.2398330445,
				"y": -0.6918426889,
				"z": -0.8579374313,
				"element": "H" 
			},
			{
				"x": -0.8000227506,
				"y": 1.3964658291,
				"z": -1.1640040204,
				"element": "H" 
			},
			{
				"x": -2.2549854771,
				"y": 1.1647140959,
				"z": 1.4886256713,
				"element": "H" 
			},
			{
				"x": -3.6154774653,
				"y": 0.7177348198,
				"z": -0.2701800765,
				"element": "H" 
			},
			{
				"x": -1.6231857818,
				"y": 3.5396898043,
				"z": -0.2917775206,
				"element": "H" 
			},
			{
				"x": -2.4883752493,
				"y": 3.5809926259,
				"z": 1.2314512628,
				"element": "H" 
			},
			{
				"x": -0.5166635372,
				"y": 2.8410918517,
				"z": 2.4736446541,
				"element": "H" 
			},
			{
				"x": -0.9715595043,
				"y": 5.3480494109,
				"z": 1.6019033221,
				"element": "H" 
			},
			{
				"x": 0.3544570297,
				"y": 4.9524953742,
				"z": 2.6856500918,
				"element": "H" 
			},
			{
				"x": 1.964994206,
				"y": 5.3609040476,
				"z": 1.0356781023,
				"element": "H" 
			},
			{
				"x": 0.6389514056,
				"y": 7.2535611756,
				"z": 1.1914371159,
				"element": "H" 
			},
			{
				"x": -0.1074325258,
				"y": 4.7665093933,
				"z": -1.0998989294,
				"element": "H" 
			},
			{
				"x": 1.5802499965,
				"y": 5.1315482861,
				"z": -1.388311771,
				"element": "H" 
			},
			{
				"x": 2.3460882855,
				"y": 3.0350303434,
				"z": -0.6256563136,
				"element": "H" 
			},
			{
				"x": 0.8285589,
				"y": 2.6115283618,
				"z": -1.3703354284,
				"element": "H" 
			},
			{
				"x": 2.8520936419,
				"y": 1.8742425227,
				"z": 1.3968575851,
				"element": "H" 
			},
			{
				"x": 2.4758113542,
				"y": 3.5285508841,
				"z": 1.8648491407,
				"element": "H" 
			},
			{
				"x": 1.809167698,
				"y": 2.1885650288,
				"z": 2.7909785816,
				"element": "H" 
			},
			{
				"x": 1.2122818987,
				"y": 0.5929301491,
				"z": -0.0774722427,
				"element": "H" 
			},
			{
				"x": 1.3992946085,
				"y": -0.3354063757,
				"z": 1.9994943093,
				"element": "H" 
			},
			{
				"x": 0.2218927051,
				"y": 0.7240552691,
				"z": 2.7438134339,
				"element": "H" 
			},
			{
				"x": -1.5939695546,
				"y": -0.6033927261,
				"z": 2.1680211156,
				"element": "H" 
			},
			{
				"x": -0.1596527417,
				"y": -1.5874251213,
				"z": 3.6800209978,
				"element": "H" 
			},
			{
				"x": -1.9174662073,
				"y": -3.4127912091,
				"z": 1.4065689335,
				"element": "H" 
			},
			{
				"x": -2.9639437694,
				"y": -2.0581558045,
				"z": 0.9787373241,
				"element": "H" 
			},
			{
				"x": -2.3563047762,
				"y": -3.120325764,
				"z": -0.2902932948,
				"element": "H" 
			}
		],
		 "valence_orbital": [ 
			{
				"type": "occ",
				"energy": -0.28325,
				"method": "rhf"
			},
			{
				"type": "occ",
				"energy": -0.27597,
				"method": "rhf"
			},
			{
				"type": "occ",
				"energy": -0.2617,
				"method": "rhf"
			},
			{
				"type": "occ",
				"energy": -0.25937,
				"method": "rhf"
			},
			{
				"type": "occ",
				"energy": -0.2564,
				"method": "rhf"
			},
			{
				"type": "unocc",
				"energy": -0.0215,
				"method": "rhf"
			},
			{
				"type": "unocc",
				"energy": 0.02242,
				"method": "rhf"
			},
			{
				"type": "unocc",
				"energy": 0.05112,
				"method": "rhf"
			},
			{
				"type": "unocc",
				"energy": 0.06048,
				"method": "rhf"
			},
			{
				"type": "unocc",
				"energy": 0.0679,
				"method": "rhf"
			}
		],
		"cosmo_sigma_profile": { 
			"-0.025": 0.0,
			"-0.024": 0.0,
			"-0.023": 0.0,
			"-0.022": 0.0,
			"-0.021": 0.0,
			"-0.02": 0.0392646371062,
			"-0.019": 0.608908564449,
			"-0.018": 0.80077902432,
			"-0.017": 0.825374928248,
			"-0.016": 0.857113469624,
			"-0.015": 1.49469538174,
			"-0.014": 2.68326239363,
			"-0.013": 3.46310084345,
			"-0.012": 3.91076205418,
			"-0.011": 3.34133188149,
			"-0.01": 3.34933176488,
			"-0.009": 3.21361070771,
			"-0.008": 3.17026983529,
			"-0.007": 4.18296362902,
			"-0.006": 5.55107018394,
			"-0.005": 8.7305446693,
			"-0.004": 15.2654589848,
			"-0.003": 36.9667946426,
			"-0.002": 68.3189853902,
			"-0.001": 66.9366286394,
			"0.0": 58.3962561909,
			"0.001": 43.2550565098,
			"0.002": 30.8759624014,
			"0.003": 19.8202432412,
			"0.004": 17.0834356754,
			"0.005": 21.9225750274,
			"0.006": 12.2025009766,
			"0.007": 7.42088871038,
			"0.008": 5.92224094888,
			"0.009": 5.25263858335,
			"0.01": 4.30705849056,
			"0.011": 2.57209071621,
			"0.012": 3.69681451131,
			"0.013": 3.67849604875,
			"0.014": 3.28398327927,
			"0.015": 2.72640450279,
			"0.016": 0.00733067224455,
			"0.017": 0.0,
			"0.018": 0.0,
			"0.019": 0.0,
			"0.02": 0.0,
			"0.021": 0.0,
			"0.022": 0.0,
			"0.023": 0.0,
			"0.024": 0.0,
			"0.025": 0.0
		}
	}
}
