{
	 "smiles": "CC1=NC(=NO1)C1=C(N)C=CC=C1", 
	 "Tm": 351.15, 
	 "num_atms": 22, 
	 "gaussian": { 
		 "optdone": 1, 
		 "sigma_profile": "yes", 
		 "theory": "DFT", 
		 "functional": "B3LYP", 
		 "basiset": "6-31G**", 
		 "properties": { 
			 "R2extent": 2907.3199, 
			 "electric_dipole_moment_norm": 1.0746710613, 
			 "electric_quadrupole_moment_norm": 15.1968747975, 
			 "total_energy": -587.841589448, 
			 "HOMO_LUMO_gap": 0.16252, 
			 "cosmo_polarized_energy": -9.87, 
			 "cosmo_cavitation_energy": 26.06, 
			 "cosmo_dispersion_energy": -19.92, 
			 "cosmo_repulsion_energy": 1.57, 
			 "cosmo_total_nonelectrostatic_energy": 7.71, 
			 "SMD_solvation_energy": 3.38 
		},
		"coords": [
			{
				"x": -3.3574449741,
				"y": 0.7310516268,
				"z": -2.793977677,
				"element": "C" 
			},
			{
				"x": -2.6448765669,
				"y": 0.5669611916,
				"z": -1.497997478,
				"element": "C" 
			},
			{
				"x": -1.4258249542,
				"y": 0.1748256403,
				"z": -1.2901870565,
				"element": "N" 
			},
			{
				"x": -1.3162431576,
				"y": 0.21698253,
				"z": 0.093017931,
				"element": "C" 
			},
			{
				"x": -2.4227440151,
				"y": 0.6194242286,
				"z": 0.691222397,
				"element": "N" 
			},
			{
				"x": -3.3170270257,
				"y": 0.8530423911,
				"z": -0.367924508,
				"element": "O" 
			},
			{
				"x": -0.0929685366,
				"y": -0.1617639635,
				"z": 0.7962662078,
				"element": "C" 
			},
			{
				"x": 0.0155432126,
				"y": -0.1141142535,
				"z": 2.2160991406,
				"element": "C" 
			},
			{
				"x": -1.0007446231,
				"y": 0.3480070234,
				"z": 3.0118613188,
				"element": "N" 
			},
			{
				"x": 1.2317941564,
				"y": -0.529855556,
				"z": 2.8020649533,
				"element": "C" 
			},
			{
				"x": 2.2951363488,
				"y": -0.9625290072,
				"z": 2.0255324123,
				"element": "C" 
			},
			{
				"x": 2.1921740249,
				"y": -0.9999849038,
				"z": 0.6281565123,
				"element": "C" 
			},
			{
				"x": 1.0048224868,
				"y": -0.6016716568,
				"z": 0.0330227454,
				"element": "C" 
			},
			{
				"x": -4.2441910247,
				"y": 0.0908211298,
				"z": -2.8297605238,
				"element": "H" 
			},
			{
				"x": -3.6888810894,
				"y": 1.7659732785,
				"z": -2.9226431874,
				"element": "H" 
			},
			{
				"x": -2.6848020449,
				"y": 0.4629338724,
				"z": -3.6084872412,
				"element": "H" 
			},
			{
				"x": -1.9139109322,
				"y": 0.4999936683,
				"z": 2.6038902939,
				"element": "H" 
			},
			{
				"x": -0.9481164105,
				"y": 0.1708333173,
				"z": 4.0016592357,
				"element": "H" 
			},
			{
				"x": 1.3237115189,
				"y": -0.4979225259,
				"z": 3.8849848616,
				"element": "H" 
			},
			{
				"x": 3.2154169248,
				"y": -1.2738507825,
				"z": 2.5124852387,
				"element": "H" 
			},
			{
				"x": 3.025312029,
				"y": -1.3370749983,
				"z": 0.0204078876,
				"element": "H" 
			},
			{
				"x": 0.8909646528,
				"y": -0.6249822507,
				"z": -1.0451934642,
				"element": "H" 
			}
		],
		 "valence_orbital": [ 
			{
				"type": "occ",
				"energy": -0.30625,
				"method": "rhf"
			},
			{
				"type": "occ",
				"energy": -0.29171,
				"method": "rhf"
			},
			{
				"type": "occ",
				"energy": -0.29051,
				"method": "rhf"
			},
			{
				"type": "occ",
				"energy": -0.23787,
				"method": "rhf"
			},
			{
				"type": "occ",
				"energy": -0.19643,
				"method": "rhf"
			},
			{
				"type": "unocc",
				"energy": -0.03391,
				"method": "rhf"
			},
			{
				"type": "unocc",
				"energy": -0.0005,
				"method": "rhf"
			},
			{
				"type": "unocc",
				"energy": 0.02292,
				"method": "rhf"
			},
			{
				"type": "unocc",
				"energy": 0.07816,
				"method": "rhf"
			},
			{
				"type": "unocc",
				"energy": 0.07981,
				"method": "rhf"
			}
		],
		"cosmo_sigma_profile": { 
			"-0.025": 0.0,
			"-0.024": 0.0,
			"-0.023": 0.0,
			"-0.022": 0.0,
			"-0.021": 0.0,
			"-0.02": 0.0,
			"-0.019": 0.0,
			"-0.018": 0.0,
			"-0.017": 0.0,
			"-0.016": 0.0,
			"-0.015": 0.0,
			"-0.014": 0.0893672787218,
			"-0.013": 1.2688500129,
			"-0.012": 1.02229472869,
			"-0.011": 1.45808587513,
			"-0.01": 1.55622608359,
			"-0.009": 1.38335845337,
			"-0.008": 2.94111729194,
			"-0.007": 7.50728424651,
			"-0.006": 10.9800678553,
			"-0.005": 13.2670555027,
			"-0.004": 16.4461763655,
			"-0.003": 18.0237162189,
			"-0.002": 14.1117733006,
			"-0.001": 8.97747073141,
			"0.0": 9.98964320104,
			"0.001": 12.6894530046,
			"0.002": 12.8127065991,
			"0.003": 13.5458748837,
			"0.004": 15.4804149681,
			"0.005": 13.6559274623,
			"0.006": 14.0917842991,
			"0.007": 8.2819042072,
			"0.008": 3.82340292931,
			"0.009": 0.982483188127,
			"0.01": 2.40809981982,
			"0.011": 0.995731814193,
			"0.012": 0.754263387626,
			"0.013": 0.152008183645,
			"0.014": 0.0,
			"0.015": 0.0,
			"0.016": 0.0,
			"0.017": 0.0,
			"0.018": 0.0,
			"0.019": 0.0,
			"0.02": 0.0,
			"0.021": 0.0,
			"0.022": 0.0,
			"0.023": 0.0,
			"0.024": 0.0,
			"0.025": 0.0
		}
	}
}
