{
	 "smiles": "ClC1=CC=C(C=C1)C(=O)CC1=CC=CC=C1", 
	 "Tm": 378.15, 
	 "num_atms": 27, 
	 "gaussian": { 
		 "optdone": 1, 
		 "sigma_profile": "yes", 
		 "theory": "DFT", 
		 "functional": "B3LYP", 
		 "basiset": "6-31G**", 
		 "properties": { 
			 "R2extent": 5866.2895, 
			 "electric_dipole_moment_norm": 2.15840435507, 
			 "electric_quadrupole_moment_norm": 11.6173929253, 
			 "total_energy": -1075.54093438, 
			 "HOMO_LUMO_gap": 0.17546, 
			 "cosmo_polarized_energy": -9.08, 
			 "cosmo_cavitation_energy": 33.17, 
			 "cosmo_dispersion_energy": -23.65, 
			 "cosmo_repulsion_energy": 1.84, 
			 "cosmo_total_nonelectrostatic_energy": 11.36, 
			 "SMD_solvation_energy": 5.58 
		},
		"coords": [
			{
				"x": 0.5865239783,
				"y": -2.663781392,
				"z": 4.7286316647,
				"element": "Cl" 
			},
			{
				"x": 0.6638448247,
				"y": -1.5599850927,
				"z": 3.3674308136,
				"element": "C" 
			},
			{
				"x": -0.3195641475,
				"y": -0.5775874328,
				"z": 3.2252521611,
				"element": "C" 
			},
			{
				"x": -0.2500014191,
				"y": 0.2917266213,
				"z": 2.1432413663,
				"element": "C" 
			},
			{
				"x": 0.7915039881,
				"y": 0.1982897882,
				"z": 1.2057754035,
				"element": "C" 
			},
			{
				"x": 1.7646079932,
				"y": -0.7982157848,
				"z": 1.3710906845,
				"element": "C" 
			},
			{
				"x": 1.7050778885,
				"y": -1.6816292791,
				"z": 2.4473132913,
				"element": "C" 
			},
			{
				"x": 0.8017012955,
				"y": 1.1774492796,
				"z": 0.0723883544,
				"element": "C" 
			},
			{
				"x": -0.121370714,
				"y": 1.9664844413,
				"z": -0.0728083101,
				"element": "O" 
			},
			{
				"x": 1.9645177718,
				"y": 1.1808395402,
				"z": -0.9229737985,
				"element": "C" 
			},
			{
				"x": 1.8173022767,
				"y": 0.1084635879,
				"z": -1.9934890114,
				"element": "C" 
			},
			{
				"x": 2.8668164629,
				"y": -0.773574674,
				"z": -2.2783925577,
				"element": "C" 
			},
			{
				"x": 2.7350347801,
				"y": -1.7421377312,
				"z": -3.275689628,
				"element": "C" 
			},
			{
				"x": 1.5470614114,
				"y": -1.8425503479,
				"z": -4.0002887651,
				"element": "C" 
			},
			{
				"x": 0.4947801137,
				"y": -0.9663257857,
				"z": -3.7240230355,
				"element": "C" 
			},
			{
				"x": 0.6281821328,
				"y": 0.0018130388,
				"z": -2.7291597334,
				"element": "C" 
			},
			{
				"x": -1.1210685185,
				"y": -0.502519232,
				"z": 3.9517136324,
				"element": "H" 
			},
			{
				"x": -0.99932899,
				"y": 1.0631134854,
				"z": 2.001390119,
				"element": "H" 
			},
			{
				"x": 2.5674861513,
				"y": -0.9083973951,
				"z": 0.6510513974,
				"element": "H" 
			},
			{
				"x": 2.4534418537,
				"y": -2.4559852554,
				"z": 2.5727648944,
				"element": "H" 
			},
			{
				"x": 1.955650821,
				"y": 2.1737154622,
				"z": -1.3833848623,
				"element": "H" 
			},
			{
				"x": 2.9209363376,
				"y": 1.061453987,
				"z": -0.4045859969,
				"element": "H" 
			},
			{
				"x": 3.7993503792,
				"y": -0.6956750521,
				"z": -1.7237984005,
				"element": "H" 
			},
			{
				"x": 3.5610814572,
				"y": -2.4159210659,
				"z": -3.4851933712,
				"element": "H" 
			},
			{
				"x": 1.4418515281,
				"y": -2.5959392152,
				"z": -4.7754935938,
				"element": "H" 
			},
			{
				"x": -0.4328769956,
				"y": -1.0360935592,
				"z": -4.2850309781,
				"element": "H" 
			},
			{
				"x": -0.1915426612,
				"y": 0.682769063,
				"z": -2.5177317403,
				"element": "H" 
			}
		],
		 "valence_orbital": [ 
			{
				"type": "occ",
				"energy": -0.27385,
				"method": "rhf"
			},
			{
				"type": "occ",
				"energy": -0.26377,
				"method": "rhf"
			},
			{
				"type": "occ",
				"energy": -0.25585,
				"method": "rhf"
			},
			{
				"type": "occ",
				"energy": -0.25479,
				"method": "rhf"
			},
			{
				"type": "occ",
				"energy": -0.24191,
				"method": "rhf"
			},
			{
				"type": "unocc",
				"energy": -0.06645,
				"method": "rhf"
			},
			{
				"type": "unocc",
				"energy": -0.02284,
				"method": "rhf"
			},
			{
				"type": "unocc",
				"energy": -0.00855,
				"method": "rhf"
			},
			{
				"type": "unocc",
				"energy": -0.0056,
				"method": "rhf"
			},
			{
				"type": "unocc",
				"energy": 0.02286,
				"method": "rhf"
			}
		],
		"cosmo_sigma_profile": { 
			"-0.025": 0.0,
			"-0.024": 0.0,
			"-0.023": 0.0,
			"-0.022": 0.0,
			"-0.021": 0.0,
			"-0.02": 0.0,
			"-0.019": 0.0,
			"-0.018": 0.0,
			"-0.017": 0.0,
			"-0.016": 0.0,
			"-0.015": 0.0,
			"-0.014": 0.0,
			"-0.013": 0.0,
			"-0.012": 0.0,
			"-0.011": 0.0,
			"-0.01": 0.0,
			"-0.009": 0.331731746416,
			"-0.008": 3.07599317996,
			"-0.007": 7.10466793408,
			"-0.006": 14.8663080974,
			"-0.005": 20.1353606813,
			"-0.004": 18.3040024015,
			"-0.003": 20.2373669282,
			"-0.002": 17.6547146694,
			"-0.001": 17.5712322371,
			"0.0": 22.1051007812,
			"0.001": 27.7106614835,
			"0.002": 28.1279423225,
			"0.003": 19.9993052126,
			"0.004": 19.3890205511,
			"0.005": 12.0284018151,
			"0.006": 7.16181461582,
			"0.007": 0.86451878161,
			"0.008": 1.53490425346,
			"0.009": 1.83797031449,
			"0.01": 1.86574841151,
			"0.011": 3.19010348345,
			"0.012": 2.58345040188,
			"0.013": 0.648952287538,
			"0.014": 0.0,
			"0.015": 0.0,
			"0.016": 0.0,
			"0.017": 0.0,
			"0.018": 0.0,
			"0.019": 0.0,
			"0.02": 0.0,
			"0.021": 0.0,
			"0.022": 0.0,
			"0.023": 0.0,
			"0.024": 0.0,
			"0.025": 0.0
		}
	}
}
