{
	 "smiles": "OC1=CN=C(F)C=C1", 
	 "Tm": 424.65, 
	 "num_atms": 12, 
	 "gaussian": { 
		 "optdone": 1, 
		 "sigma_profile": "yes", 
		 "theory": "DFT", 
		 "functional": "B3LYP", 
		 "basiset": "6-31G**", 
		 "properties": { 
			 "R2extent": 2086.5268, 
			 "electric_dipole_moment_norm": 4.21503355384, 
			 "electric_quadrupole_moment_norm": 13.6394980978, 
			 "total_energy": -422.741208893, 
			 "HOMO_LUMO_gap": 0.19915, 
			 "cosmo_polarized_energy": -11.34, 
			 "cosmo_cavitation_energy": 16.99, 
			 "cosmo_dispersion_energy": -12.77, 
			 "cosmo_repulsion_energy": 1.04, 
			 "cosmo_total_nonelectrostatic_energy": 5.26, 
			 "SMD_solvation_energy": 2.48 
		},
		"coords": [
			{
				"x": 2.8101484603,
				"y": -2.9839050724,
				"z": -0.3311037746,
				"element": "O" 
			},
			{
				"x": 1.9941227726,
				"y": -2.1154312314,
				"z": -0.9955481869,
				"element": "C" 
			},
			{
				"x": 0.7461629506,
				"y": -2.5872675717,
				"z": -1.4188496814,
				"element": "C" 
			},
			{
				"x": -0.1335666901,
				"y": -1.8259504032,
				"z": -2.0775654935,
				"element": "N" 
			},
			{
				"x": 0.2073258484,
				"y": -0.5803216859,
				"z": -2.3297840071,
				"element": "C" 
			},
			{
				"x": -0.6940511705,
				"y": 0.1652374769,
				"z": -2.9932025672,
				"element": "F" 
			},
			{
				"x": 1.4156141074,
				"y": 0.0083415528,
				"z": -1.9633380311,
				"element": "C" 
			},
			{
				"x": 2.3293603753,
				"y": -0.7865920702,
				"z": -1.2777746884,
				"element": "C" 
			},
			{
				"x": 3.6341333929,
				"y": -2.5385787394,
				"z": -0.0956880437,
				"element": "H" 
			},
			{
				"x": 0.4645240507,
				"y": -3.6163471042,
				"z": -1.2105209561,
				"element": "H" 
			},
			{
				"x": 1.6225367495,
				"y": 1.0435521912,
				"z": -2.2083540145,
				"element": "H" 
			},
			{
				"x": 3.288489153,
				"y": -0.3780373425,
				"z": -0.9675705554,
				"element": "H" 
			}
		],
		 "valence_orbital": [ 
			{
				"type": "occ",
				"energy": -0.38122,
				"method": "rhf"
			},
			{
				"type": "occ",
				"energy": -0.35627,
				"method": "rhf"
			},
			{
				"type": "occ",
				"energy": -0.29537,
				"method": "rhf"
			},
			{
				"type": "occ",
				"energy": -0.27666,
				"method": "rhf"
			},
			{
				"type": "occ",
				"energy": -0.23425,
				"method": "rhf"
			},
			{
				"type": "unocc",
				"energy": -0.0351,
				"method": "rhf"
			},
			{
				"type": "unocc",
				"energy": 0.0028,
				"method": "rhf"
			},
			{
				"type": "unocc",
				"energy": 0.05439,
				"method": "rhf"
			},
			{
				"type": "unocc",
				"energy": 0.0907,
				"method": "rhf"
			},
			{
				"type": "unocc",
				"energy": 0.14779,
				"method": "rhf"
			}
		],
		"cosmo_sigma_profile": { 
			"-0.025": 0.0,
			"-0.024": 0.0,
			"-0.023": 0.0,
			"-0.022": 0.0,
			"-0.021": 0.0,
			"-0.02": 0.0,
			"-0.019": 0.161293939957,
			"-0.018": 1.38113931787,
			"-0.017": 0.872950042661,
			"-0.016": 1.05083110345,
			"-0.015": 1.67614587257,
			"-0.014": 1.14253590217,
			"-0.013": 0.650116339304,
			"-0.012": 0.894088329402,
			"-0.011": 1.40340300185,
			"-0.01": 1.06639238868,
			"-0.009": 1.89354226475,
			"-0.008": 3.61881735036,
			"-0.007": 5.36731611547,
			"-0.006": 5.47410880597,
			"-0.005": 4.96671328352,
			"-0.004": 4.45208863672,
			"-0.003": 3.77499298365,
			"-0.002": 4.89783996949,
			"-0.001": 6.48699486519,
			"0.0": 13.248254416,
			"0.001": 15.8963542756,
			"0.002": 10.055533706,
			"0.003": 6.05997365218,
			"0.004": 12.3401312097,
			"0.005": 6.4460122676,
			"0.006": 3.84824215483,
			"0.007": 2.98221741093,
			"0.008": 2.58129437575,
			"0.009": 2.79687579333,
			"0.01": 3.43735505267,
			"0.011": 2.35302296955,
			"0.012": 0.957924852886,
			"0.013": 0.866228054688,
			"0.014": 1.0843743698,
			"0.015": 0.429191382317,
			"0.016": 0.0,
			"0.017": 0.0,
			"0.018": 0.0,
			"0.019": 0.0,
			"0.02": 0.0,
			"0.021": 0.0,
			"0.022": 0.0,
			"0.023": 0.0,
			"0.024": 0.0,
			"0.025": 0.0
		}
	}
}
