{
	 "smiles": "OC(=O)C1=C(CC2=NC3=C(C=CC=C3)C(=O)N2)C=CC=C1", 
	 "Tm": 557.15, 
	 "num_atms": 33, 
	 "gaussian": { 
		 "optdone": 1, 
		 "sigma_profile": "yes", 
		 "theory": "DFT", 
		 "functional": "B3LYP", 
		 "basiset": "6-31G**", 
		 "properties": { 
			 "R2extent": 6640.745, 
			 "electric_dipole_moment_norm": 2.7002543695, 
			 "electric_quadrupole_moment_norm": 22.2499069892, 
			 "total_energy": -952.164318092, 
			 "HOMO_LUMO_gap": 0.16185, 
			 "cosmo_polarized_energy": -19.12, 
			 "cosmo_cavitation_energy": 37.82, 
			 "cosmo_dispersion_energy": -26.81, 
			 "cosmo_repulsion_energy": 2.03, 
			 "cosmo_total_nonelectrostatic_energy": 13.04, 
			 "SMD_solvation_energy": 6.27 
		},
		"coords": [
			{
				"x": -0.4309409767,
				"y": 2.5597129591,
				"z": 0.5982952804,
				"element": "O" 
			},
			{
				"x": -1.7359859383,
				"y": 2.7161397245,
				"z": 0.2800901318,
				"element": "C" 
			},
			{
				"x": -2.4453254534,
				"y": 3.506194884,
				"z": 0.8712726164,
				"element": "O" 
			},
			{
				"x": -2.2111152097,
				"y": 1.8337443658,
				"z": -0.8308828913,
				"element": "C" 
			},
			{
				"x": -1.4023483622,
				"y": 0.9673379139,
				"z": -1.6092929523,
				"element": "C" 
			},
			{
				"x": 0.1009014585,
				"y": 0.7996283398,
				"z": -1.4574755976,
				"element": "C" 
			},
			{
				"x": 0.5690741024,
				"y": -0.0699436517,
				"z": -0.3023433286,
				"element": "C" 
			},
			{
				"x": 1.7669520161,
				"y": 0.0893493778,
				"z": 0.1613020432,
				"element": "N" 
			},
			{
				"x": 2.1826756129,
				"y": -0.7696319161,
				"z": 1.1712360601,
				"element": "C" 
			},
			{
				"x": 1.3555936285,
				"y": -1.7900870206,
				"z": 1.7015094982,
				"element": "C" 
			},
			{
				"x": 1.8224225284,
				"y": -2.6297056563,
				"z": 2.7251613715,
				"element": "C" 
			},
			{
				"x": 3.1046367542,
				"y": -2.4642968731,
				"z": 3.2252241968,
				"element": "C" 
			},
			{
				"x": 3.9333186817,
				"y": -1.4539144352,
				"z": 2.7034612332,
				"element": "C" 
			},
			{
				"x": 3.4832045297,
				"y": -0.6179867215,
				"z": 1.6930489873,
				"element": "C" 
			},
			{
				"x": 0.0012562782,
				"y": -1.9603606883,
				"z": 1.167266634,
				"element": "C" 
			},
			{
				"x": -0.8279156005,
				"y": -2.7890690703,
				"z": 1.5180299919,
				"element": "O" 
			},
			{
				"x": -0.2945659526,
				"y": -1.0383338844,
				"z": 0.1517056966,
				"element": "N" 
			},
			{
				"x": -2.036197503,
				"y": 0.2071132639,
				"z": -2.6044775105,
				"element": "C" 
			},
			{
				"x": -3.4090486015,
				"y": 0.2856622391,
				"z": -2.8388025621,
				"element": "C" 
			},
			{
				"x": -4.1928843277,
				"y": 1.1477439307,
				"z": -2.073725098,
				"element": "C" 
			},
			{
				"x": -3.5901502295,
				"y": 1.9138829016,
				"z": -1.08220388,
				"element": "C" 
			},
			{
				"x": -0.2570346902,
				"y": 3.1685532828,
				"z": 1.3355708362,
				"element": "H" 
			},
			{
				"x": 0.611929592,
				"y": 1.7550585057,
				"z": -1.347345781,
				"element": "H" 
			},
			{
				"x": 0.4834477285,
				"y": 0.3380382558,
				"z": -2.3762240234,
				"element": "H" 
			},
			{
				"x": 1.1553924212,
				"y": -3.3979356845,
				"z": 3.1026056392,
				"element": "H" 
			},
			{
				"x": 3.4704986361,
				"y": -3.1112594893,
				"z": 4.0166541461,
				"element": "H" 
			},
			{
				"x": 4.9381435006,
				"y": -1.3271608239,
				"z": 3.0968797893,
				"element": "H" 
			},
			{
				"x": 4.1101894456,
				"y": 0.1654933435,
				"z": 1.2802609118,
				"element": "H" 
			},
			{
				"x": -1.2273778769,
				"y": -1.1069474512,
				"z": -0.2394208996,
				"element": "H" 
			},
			{
				"x": -1.4308202826,
				"y": -0.4557688972,
				"z": -3.2172282941,
				"element": "H" 
			},
			{
				"x": -3.8582527881,
				"y": -0.3209286089,
				"z": -3.6196684932,
				"element": "H" 
			},
			{
				"x": -5.2617243681,
				"y": 1.2238438342,
				"z": -2.247082448,
				"element": "H" 
			},
			{
				"x": -4.1719487539,
				"y": 2.5954337505,
				"z": -0.4718013044,
				"element": "H" 
			}
		],
		 "valence_orbital": [ 
			{
				"type": "occ",
				"energy": -0.27475,
				"method": "rhf"
			},
			{
				"type": "occ",
				"energy": -0.26681,
				"method": "rhf"
			},
			{
				"type": "occ",
				"energy": -0.25858,
				"method": "rhf"
			},
			{
				"type": "occ",
				"energy": -0.25694,
				"method": "rhf"
			},
			{
				"type": "occ",
				"energy": -0.2247,
				"method": "rhf"
			},
			{
				"type": "unocc",
				"energy": -0.06285,
				"method": "rhf"
			},
			{
				"type": "unocc",
				"energy": -0.03752,
				"method": "rhf"
			},
			{
				"type": "unocc",
				"energy": -0.03251,
				"method": "rhf"
			},
			{
				"type": "unocc",
				"energy": -0.02363,
				"method": "rhf"
			},
			{
				"type": "unocc",
				"energy": 0.03057,
				"method": "rhf"
			}
		],
		"cosmo_sigma_profile": { 
			"-0.025": 0.0,
			"-0.024": 0.0,
			"-0.023": 0.0,
			"-0.022": 0.0,
			"-0.021": 0.0,
			"-0.02": 0.0,
			"-0.019": 0.0897382987167,
			"-0.018": 1.06129511023,
			"-0.017": 0.839919389702,
			"-0.016": 0.677901695213,
			"-0.015": 0.713639680945,
			"-0.014": 0.577894543926,
			"-0.013": 0.768696009773,
			"-0.012": 1.55222255302,
			"-0.011": 1.50763562425,
			"-0.01": 1.25860699709,
			"-0.009": 1.87454767904,
			"-0.008": 4.10979044878,
			"-0.007": 10.8376232537,
			"-0.006": 18.6844226164,
			"-0.005": 20.8808205128,
			"-0.004": 22.4178942793,
			"-0.003": 21.4824682942,
			"-0.002": 21.7344356867,
			"-0.001": 17.8666185205,
			"0.0": 17.5446234941,
			"0.001": 21.6061616759,
			"0.002": 24.2555319072,
			"0.003": 26.5541467505,
			"0.004": 15.0446426008,
			"0.005": 5.5152733569,
			"0.006": 3.6918568047,
			"0.007": 5.28199865838,
			"0.008": 4.48432137718,
			"0.009": 3.80858084383,
			"0.01": 4.54625988758,
			"0.011": 6.44739125717,
			"0.012": 7.76834013143,
			"0.013": 6.34574546583,
			"0.014": 1.19017584425,
			"0.015": 0.468357856896,
			"0.016": 0.0,
			"0.017": 0.0,
			"0.018": 0.0,
			"0.019": 0.0,
			"0.02": 0.0,
			"0.021": 0.0,
			"0.022": 0.0,
			"0.023": 0.0,
			"0.024": 0.0,
			"0.025": 0.0
		}
	}
}
