{
	 "smiles": "ClC1=CC(C(=O)C2=CC=CC=C2)=C(Cl)C=C1", 
	 "Tm": 365.15, 
	 "num_atms": 24, 
	 "gaussian": { 
		 "optdone": 1, 
		 "sigma_profile": "yes", 
		 "theory": "DFT", 
		 "functional": "B3LYP", 
		 "basiset": "6-31G**", 
		 "properties": { 
			 "R2extent": 5835.8983, 
			 "electric_dipole_moment_norm": 3.12861765961, 
			 "electric_quadrupole_moment_norm": 16.2016210461, 
			 "total_energy": -1495.80900861, 
			 "HOMO_LUMO_gap": 0.18046, 
			 "cosmo_polarized_energy": -8.9, 
			 "cosmo_cavitation_energy": 32.47, 
			 "cosmo_dispersion_energy": -23.17, 
			 "cosmo_repulsion_energy": 1.81, 
			 "cosmo_total_nonelectrostatic_energy": 11.11, 
			 "SMD_solvation_energy": 5.42 
		},
		"coords": [
			{
				"x": -2.6070377538,
				"y": 4.4542089947,
				"z": 2.0258777817,
				"element": "Cl" 
			},
			{
				"x": -1.1954351011,
				"y": 3.4321655048,
				"z": 1.8259839405,
				"element": "C" 
			},
			{
				"x": -1.3171664406,
				"y": 2.0559242581,
				"z": 1.9862450034,
				"element": "C" 
			},
			{
				"x": -0.2050090187,
				"y": 1.2204864832,
				"z": 1.8094828489,
				"element": "C" 
			},
			{
				"x": -0.4245355556,
				"y": -0.2627189471,
				"z": 2.0412658445,
				"element": "C" 
			},
			{
				"x": -0.8615242449,
				"y": -0.6205327518,
				"z": 3.125188416,
				"element": "O" 
			},
			{
				"x": -0.1886090209,
				"y": -1.2336384822,
				"z": 0.9342068948,
				"element": "C" 
			},
			{
				"x": 0.0057763501,
				"y": -0.8275301145,
				"z": -0.3943756062,
				"element": "C" 
			},
			{
				"x": 0.1671745613,
				"y": -1.7782930634,
				"z": -1.401012358,
				"element": "C" 
			},
			{
				"x": 0.1433198195,
				"y": -3.1386855688,
				"z": -1.0869214356,
				"element": "C" 
			},
			{
				"x": -0.0519460807,
				"y": -3.5506276818,
				"z": 0.2356253463,
				"element": "C" 
			},
			{
				"x": -0.2243066516,
				"y": -2.6040543188,
				"z": 1.2399731433,
				"element": "C" 
			},
			{
				"x": 1.0315369426,
				"y": 1.8106535431,
				"z": 1.5164263398,
				"element": "C" 
			},
			{
				"x": 2.4884593157,
				"y": 0.83732401,
				"z": 1.3832009914,
				"element": "Cl" 
			},
			{
				"x": 1.1532142044,
				"y": 3.1940720935,
				"z": 1.3734528564,
				"element": "C" 
			},
			{
				"x": 0.035316065,
				"y": 4.0118397611,
				"z": 1.5166945197,
				"element": "C" 
			},
			{
				"x": -2.2718911383,
				"y": 1.6161852414,
				"z": 2.2513528406,
				"element": "H" 
			},
			{
				"x": 0.0212148983,
				"y": 0.2289294419,
				"z": -0.6418209628,
				"element": "H" 
			},
			{
				"x": 0.3117715648,
				"y": -1.4585838853,
				"z": -2.4286062115,
				"element": "H" 
			},
			{
				"x": 0.2744324291,
				"y": -3.8783424748,
				"z": -1.8716680988,
				"element": "H" 
			},
			{
				"x": -0.0720274549,
				"y": -4.6089985306,
				"z": 0.4781820363,
				"element": "H" 
			},
			{
				"x": -0.3890377696,
				"y": -2.8983689227,
				"z": 2.2709972725,
				"element": "H" 
			},
			{
				"x": 2.1237404368,
				"y": 3.6270938803,
				"z": 1.1584468392,
				"element": "H" 
			},
			{
				"x": 0.121169643,
				"y": 5.0862915295,
				"z": 1.4005017578,
				"element": "H" 
			}
		],
		 "valence_orbital": [ 
			{
				"type": "occ",
				"energy": -0.28499,
				"method": "rhf"
			},
			{
				"type": "occ",
				"energy": -0.26467,
				"method": "rhf"
			},
			{
				"type": "occ",
				"energy": -0.26414,
				"method": "rhf"
			},
			{
				"type": "occ",
				"energy": -0.25844,
				"method": "rhf"
			},
			{
				"type": "occ",
				"energy": -0.252,
				"method": "rhf"
			},
			{
				"type": "unocc",
				"energy": -0.07154,
				"method": "rhf"
			},
			{
				"type": "unocc",
				"energy": -0.03328,
				"method": "rhf"
			},
			{
				"type": "unocc",
				"energy": -0.03037,
				"method": "rhf"
			},
			{
				"type": "unocc",
				"energy": -0.01276,
				"method": "rhf"
			},
			{
				"type": "unocc",
				"energy": 0.01145,
				"method": "rhf"
			}
		],
		"cosmo_sigma_profile": { 
			"-0.025": 0.0,
			"-0.024": 0.0,
			"-0.023": 0.0,
			"-0.022": 0.0,
			"-0.021": 0.0,
			"-0.02": 0.0,
			"-0.019": 0.0,
			"-0.018": 0.0,
			"-0.017": 0.0,
			"-0.016": 0.0,
			"-0.015": 0.0,
			"-0.014": 0.0,
			"-0.013": 0.0,
			"-0.012": 0.0,
			"-0.011": 0.0,
			"-0.01": 0.0,
			"-0.009": 0.997095518828,
			"-0.008": 4.89558112374,
			"-0.007": 8.190539447,
			"-0.006": 14.832886829,
			"-0.005": 15.9917944395,
			"-0.004": 16.3552753166,
			"-0.003": 13.9065244023,
			"-0.002": 17.3146787942,
			"-0.001": 19.2872020751,
			"0.0": 27.5649098792,
			"0.001": 27.9189372191,
			"0.002": 24.276583829,
			"0.003": 26.5123780074,
			"0.004": 27.9033964481,
			"0.005": 4.79292574545,
			"0.006": 2.02379917682,
			"0.007": 1.43354492895,
			"0.008": 1.74468569104,
			"0.009": 1.83350530379,
			"0.01": 2.99461625282,
			"0.011": 3.9461463605,
			"0.012": 1.32186571014,
			"0.013": 0.0538401024695,
			"0.014": 0.0,
			"0.015": 0.0,
			"0.016": 0.0,
			"0.017": 0.0,
			"0.018": 0.0,
			"0.019": 0.0,
			"0.02": 0.0,
			"0.021": 0.0,
			"0.022": 0.0,
			"0.023": 0.0,
			"0.024": 0.0,
			"0.025": 0.0
		}
	}
}
