{
	 "smiles": "CC(=O)OC1=CC=C(C=C1)C1=CC=C(OC(C)=O)C=C1", 
	 "Tm": 435.15, 
	 "num_atms": 34, 
	 "gaussian": { 
		 "optdone": 1, 
		 "sigma_profile": "yes", 
		 "theory": "DFT", 
		 "functional": "B3LYP", 
		 "basiset": "6-31G**", 
		 "properties": { 
			 "R2extent": 10511.6922, 
			 "electric_dipole_moment_norm": 2.87490542627, 
			 "electric_quadrupole_moment_norm": 54.5155433521, 
			 "total_energy": -919.048713662, 
			 "HOMO_LUMO_gap": 0.18952, 
			 "cosmo_polarized_energy": -19.17, 
			 "cosmo_cavitation_energy": 39.7, 
			 "cosmo_dispersion_energy": -27.61, 
			 "cosmo_repulsion_energy": 2.13, 
			 "cosmo_total_nonelectrostatic_energy": 14.22, 
			 "SMD_solvation_energy": 9.22 
		},
		"coords": [
			{
				"x": 1.9548729797,
				"y": 1.3866107291,
				"z": 4.3132987439,
				"element": "C" 
			},
			{
				"x": 3.279152897,
				"y": 1.4070812572,
				"z": 3.5820601419,
				"element": "C" 
			},
			{
				"x": 4.3410213666,
				"y": 1.6411475108,
				"z": 4.0946532569,
				"element": "O" 
			},
			{
				"x": 3.2570888835,
				"y": 1.1377000891,
				"z": 2.2273011901,
				"element": "O" 
			},
			{
				"x": 2.08025081,
				"y": 0.8505309204,
				"z": 1.5470225075,
				"element": "C" 
			},
			{
				"x": 1.375709758,
				"y": 1.8798134602,
				"z": 0.9228289565,
				"element": "C" 
			},
			{
				"x": 0.23418554,
				"y": 1.5795404426,
				"z": 0.1828851736,
				"element": "C" 
			},
			{
				"x": -0.2185101056,
				"y": 0.2559603663,
				"z": 0.0453019133,
				"element": "C" 
			},
			{
				"x": 0.519072523,
				"y": -0.7624618847,
				"z": 0.6736979749,
				"element": "C" 
			},
			{
				"x": 1.6604874889,
				"y": -0.4735224305,
				"z": 1.4182204165,
				"element": "C" 
			},
			{
				"x": -1.4344621195,
				"y": -0.057746005,
				"z": -0.7467414036,
				"element": "C" 
			},
			{
				"x": -2.3317596954,
				"y": -1.0564922282,
				"z": -0.3307014552,
				"element": "C" 
			},
			{
				"x": -3.4731293133,
				"y": -1.3566504729,
				"z": -1.0709414308,
				"element": "C" 
			},
			{
				"x": -3.7375304873,
				"y": -0.648758047,
				"z": -2.2432827631,
				"element": "C" 
			},
			{
				"x": -4.8369462752,
				"y": -0.9922869089,
				"z": -3.0201078879,
				"element": "O" 
			},
			{
				"x": -6.0663046719,
				"y": -0.380202326,
				"z": -2.8702312767,
				"element": "C" 
			},
			{
				"x": -6.1810257304,
				"y": 0.6909680478,
				"z": -1.8080285958,
				"element": "C" 
			},
			{
				"x": -6.9648016317,
				"y": -0.7335691077,
				"z": -3.5864287757,
				"element": "O" 
			},
			{
				"x": -2.8586538458,
				"y": 0.3398356512,
				"z": -2.6861785315,
				"element": "C" 
			},
			{
				"x": -1.7190060375,
				"y": 0.6298459979,
				"z": -1.9393717053,
				"element": "C" 
			},
			{
				"x": 1.2598550229,
				"y": 2.1157135369,
				"z": 3.8870419352,
				"element": "H" 
			},
			{
				"x": 2.1434915983,
				"y": 1.6231910582,
				"z": 5.3595198036,
				"element": "H" 
			},
			{
				"x": 1.4786162196,
				"y": 0.4051181358,
				"z": 4.2351371051,
				"element": "H" 
			},
			{
				"x": 1.7268578832,
				"y": 2.9021653602,
				"z": 1.020555607,
				"element": "H" 
			},
			{
				"x": -0.3252163137,
				"y": 2.3875740367,
				"z": -0.2785706556,
				"element": "H" 
			},
			{
				"x": 0.2136343062,
				"y": -1.7972502488,
				"z": 0.5529446608,
				"element": "H" 
			},
			{
				"x": 2.2421611689,
				"y": -1.2647781732,
				"z": 1.8804566026,
				"element": "H" 
			},
			{
				"x": -2.1450335483,
				"y": -1.5924200464,
				"z": 0.5948804616,
				"element": "H" 
			},
			{
				"x": -4.1598523712,
				"y": -2.1338305447,
				"z": -0.7508475886,
				"element": "H" 
			},
			{
				"x": -7.2041031607,
				"y": 1.0643178409,
				"z": -1.8144808002,
				"element": "H" 
			},
			{
				"x": -5.9378116773,
				"y": 0.291019171,
				"z": -0.8194802514,
				"element": "H" 
			},
			{
				"x": -5.4853110656,
				"y": 1.5122568415,
				"z": -2.0022444561,
				"element": "H" 
			},
			{
				"x": -3.0617836264,
				"y": 0.8547062289,
				"z": -3.6198465551,
				"element": "H" 
			},
			{
				"x": -1.0239167688,
				"y": 1.3799717414,
				"z": -2.3038223185,
				"element": "H" 
			}
		],
		 "valence_orbital": [ 
			{
				"type": "occ",
				"energy": -0.28229,
				"method": "rhf"
			},
			{
				"type": "occ",
				"energy": -0.27537,
				"method": "rhf"
			},
			{
				"type": "occ",
				"energy": -0.27489,
				"method": "rhf"
			},
			{
				"type": "occ",
				"energy": -0.27067,
				"method": "rhf"
			},
			{
				"type": "occ",
				"energy": -0.23661,
				"method": "rhf"
			},
			{
				"type": "unocc",
				"energy": -0.04709,
				"method": "rhf"
			},
			{
				"type": "unocc",
				"energy": -0.02938,
				"method": "rhf"
			},
			{
				"type": "unocc",
				"energy": -0.02569,
				"method": "rhf"
			},
			{
				"type": "unocc",
				"energy": 0.00253,
				"method": "rhf"
			},
			{
				"type": "unocc",
				"energy": 0.0027,
				"method": "rhf"
			}
		],
		"cosmo_sigma_profile": { 
			"-0.025": 0.0,
			"-0.024": 0.0,
			"-0.023": 0.0,
			"-0.022": 0.0,
			"-0.021": 0.0,
			"-0.02": 0.0,
			"-0.019": 0.0,
			"-0.018": 0.0,
			"-0.017": 0.0,
			"-0.016": 0.0,
			"-0.015": 0.0,
			"-0.014": 0.0,
			"-0.013": 0.0,
			"-0.012": 0.0,
			"-0.011": 0.0,
			"-0.01": 0.0,
			"-0.009": 0.0,
			"-0.008": 0.387078614739,
			"-0.007": 16.1100422644,
			"-0.006": 32.5556139267,
			"-0.005": 30.1633513184,
			"-0.004": 25.0384075018,
			"-0.003": 25.4632131573,
			"-0.002": 25.4387179639,
			"-0.001": 16.858277833,
			"0.0": 12.6400974807,
			"0.001": 16.1501221396,
			"0.002": 23.6363212443,
			"0.003": 23.3487004125,
			"0.004": 14.8866750594,
			"0.005": 4.91441114415,
			"0.006": 3.50158444654,
			"0.007": 4.56281362983,
			"0.008": 5.29139339205,
			"0.009": 7.00930868094,
			"0.01": 8.02044878262,
			"0.011": 11.1134119748,
			"0.012": 8.88713780901,
			"0.013": 1.4367297922,
			"0.014": 0.0,
			"0.015": 0.0,
			"0.016": 0.0,
			"0.017": 0.0,
			"0.018": 0.0,
			"0.019": 0.0,
			"0.02": 0.0,
			"0.021": 0.0,
			"0.022": 0.0,
			"0.023": 0.0,
			"0.024": 0.0,
			"0.025": 0.0
		}
	}
}
