{
	 "smiles": "OC(=O)C1=CC=C(C=C1)C(=O)C1=CNC=C1", 
	 "Tm": 493.15, 
	 "num_atms": 25, 
	 "gaussian": { 
		 "optdone": 1, 
		 "sigma_profile": "yes", 
		 "theory": "DFT", 
		 "functional": "B3LYP", 
		 "basiset": "6-31G**", 
		 "properties": { 
			 "R2extent": 5687.8084, 
			 "electric_dipole_moment_norm": 6.45020060541, 
			 "electric_quadrupole_moment_norm": 36.4255840865, 
			 "total_energy": -743.122744512, 
			 "HOMO_LUMO_gap": 0.15847, 
			 "cosmo_polarized_energy": -22.82, 
			 "cosmo_cavitation_energy": 30.47, 
			 "cosmo_dispersion_energy": -22.29, 
			 "cosmo_repulsion_energy": 1.71, 
			 "cosmo_total_nonelectrostatic_energy": 9.89, 
			 "SMD_solvation_energy": 7.28 
		},
		"coords": [
			{
				"x": -4.989353884,
				"y": 1.9064270379,
				"z": 2.5672439631,
				"element": "O" 
			},
			{
				"x": -4.7794309019,
				"y": 0.6594612127,
				"z": 2.0669821209,
				"element": "C" 
			},
			{
				"x": -5.6324642239,
				"y": -0.1887894944,
				"z": 2.1829578958,
				"element": "O" 
			},
			{
				"x": -3.4629817215,
				"y": 0.4157403594,
				"z": 1.3897206049,
				"element": "C" 
			},
			{
				"x": -3.0487475602,
				"y": -0.9129533364,
				"z": 1.2351886342,
				"element": "C" 
			},
			{
				"x": -1.8310704551,
				"y": -1.2052977943,
				"z": 0.6272309576,
				"element": "C" 
			},
			{
				"x": -1.0150512622,
				"y": -0.1737711353,
				"z": 0.1378101726,
				"element": "C" 
			},
			{
				"x": -1.4561279839,
				"y": 1.152984614,
				"z": 0.2475952224,
				"element": "C" 
			},
			{
				"x": -2.6599342116,
				"y": 1.4474462097,
				"z": 0.8776205364,
				"element": "C" 
			},
			{
				"x": 0.2843404135,
				"y": -0.4185550955,
				"z": -0.5849432855,
				"element": "C" 
			},
			{
				"x": 0.6432994713,
				"y": 0.3794531202,
				"z": -1.4493460262,
				"element": "O" 
			},
			{
				"x": 1.1076755998,
				"y": -1.5916470325,
				"z": -0.2504485134,
				"element": "C" 
			},
			{
				"x": 2.1504807805,
				"y": -2.0141527945,
				"z": -1.0667154565,
				"element": "C" 
			},
			{
				"x": 2.742548031,
				"y": -3.0845329422,
				"z": -0.4717902723,
				"element": "N" 
			},
			{
				"x": 2.1202693017,
				"y": -3.3653928642,
				"z": 0.7298212492,
				"element": "C" 
			},
			{
				"x": 1.1018704663,
				"y": -2.4598377572,
				"z": 0.8944402571,
				"element": "C" 
			},
			{
				"x": -4.1712589246,
				"y": 2.4213127474,
				"z": 2.5368994406,
				"element": "H" 
			},
			{
				"x": -3.6990915878,
				"y": -1.7014721234,
				"z": 1.5981185688,
				"element": "H" 
			},
			{
				"x": -1.5271400704,
				"y": -2.2389604339,
				"z": 0.5053501161,
				"element": "H" 
			},
			{
				"x": -0.8416414291,
				"y": 1.9373869997,
				"z": -0.1808269325,
				"element": "H" 
			},
			{
				"x": -2.9866074246,
				"y": 2.4838929815,
				"z": 0.9244561923,
				"element": "H" 
			},
			{
				"x": 2.4799642183,
				"y": -1.6179401305,
				"z": -2.0145663395,
				"element": "H" 
			},
			{
				"x": 3.5214409917,
				"y": -3.5984159107,
				"z": -0.8533199531,
				"element": "H" 
			},
			{
				"x": 2.4596958454,
				"y": -4.1743190643,
				"z": 1.3589515027,
				"element": "H" 
			},
			{
				"x": 0.4498165214,
				"y": -2.3982673733,
				"z": 1.7525693444,
				"element": "H" 
			}
		],
		 "valence_orbital": [ 
			{
				"type": "occ",
				"energy": -0.27266,
				"method": "rhf"
			},
			{
				"type": "occ",
				"energy": -0.26604,
				"method": "rhf"
			},
			{
				"type": "occ",
				"energy": -0.26306,
				"method": "rhf"
			},
			{
				"type": "occ",
				"energy": -0.24831,
				"method": "rhf"
			},
			{
				"type": "occ",
				"energy": -0.2312,
				"method": "rhf"
			},
			{
				"type": "unocc",
				"energy": -0.07273,
				"method": "rhf"
			},
			{
				"type": "unocc",
				"energy": -0.02335,
				"method": "rhf"
			},
			{
				"type": "unocc",
				"energy": -0.01701,
				"method": "rhf"
			},
			{
				"type": "unocc",
				"energy": 0.02568,
				"method": "rhf"
			},
			{
				"type": "unocc",
				"energy": 0.04867,
				"method": "rhf"
			}
		],
		"cosmo_sigma_profile": { 
			"-0.025": 0.0,
			"-0.024": 0.0,
			"-0.023": 0.0,
			"-0.022": 0.0,
			"-0.021": 0.0,
			"-0.02": 0.0,
			"-0.019": 0.367786879699,
			"-0.018": 0.730259170422,
			"-0.017": 1.49385971595,
			"-0.016": 3.2624407854,
			"-0.015": 2.25518876115,
			"-0.014": 2.20607592623,
			"-0.013": 2.11006107298,
			"-0.012": 2.49587060391,
			"-0.011": 2.5084741678,
			"-0.01": 2.90244353721,
			"-0.009": 2.34505557296,
			"-0.008": 7.43989270887,
			"-0.007": 6.69375644834,
			"-0.006": 11.2761138467,
			"-0.005": 12.1084011049,
			"-0.004": 11.780472426,
			"-0.003": 12.0790181818,
			"-0.002": 13.1261849889,
			"-0.001": 14.4357602601,
			"0.0": 15.6911448635,
			"0.001": 14.7645330028,
			"0.002": 20.3193440282,
			"0.003": 12.8463552392,
			"0.004": 11.0715907084,
			"0.005": 9.86741595499,
			"0.006": 7.36825086749,
			"0.007": 5.50710556659,
			"0.008": 3.57029298868,
			"0.009": 5.47468792207,
			"0.01": 6.86890467044,
			"0.011": 7.58088846962,
			"0.012": 7.7293820921,
			"0.013": 4.60953128694,
			"0.014": 0.0981626916639,
			"0.015": 0.0,
			"0.016": 0.0,
			"0.017": 0.0,
			"0.018": 0.0,
			"0.019": 0.0,
			"0.02": 0.0,
			"0.021": 0.0,
			"0.022": 0.0,
			"0.023": 0.0,
			"0.024": 0.0,
			"0.025": 0.0
		}
	}
}
