{
	 "smiles": "O=CC1=CC=C(C=C1)C1=CN=CC=C1", 
	 "Tm": 328.15, 
	 "num_atms": 23, 
	 "gaussian": { 
		 "optdone": 1, 
		 "sigma_profile": "yes", 
		 "theory": "DFT", 
		 "functional": "B3LYP", 
		 "basiset": "6-31G**", 
		 "properties": { 
			 "R2extent": 3720.3856, 
			 "electric_dipole_moment_norm": 2.32334710924, 
			 "electric_quadrupole_moment_norm": 18.7458811652, 
			 "total_energy": -592.668142114, 
			 "HOMO_LUMO_gap": 0.1712, 
			 "cosmo_polarized_energy": -11.42, 
			 "cosmo_cavitation_energy": 27.98, 
			 "cosmo_dispersion_energy": -20.34, 
			 "cosmo_repulsion_energy": 1.56, 
			 "cosmo_total_nonelectrostatic_energy": 9.2, 
			 "SMD_solvation_energy": 4.25 
		},
		"coords": [
			{
				"x": -1.5067339105,
				"y": -4.3873351557,
				"z": 0.4949581327,
				"element": "O" 
			},
			{
				"x": -0.4159841676,
				"y": -3.8512580655,
				"z": 0.5519033148,
				"element": "C" 
			},
			{
				"x": -0.1940909632,
				"y": -2.3899639417,
				"z": 0.4891458136,
				"element": "C" 
			},
			{
				"x": -1.2803179124,
				"y": -1.5115924368,
				"z": 0.3547083937,
				"element": "C" 
			},
			{
				"x": -1.0659484872,
				"y": -0.1418613136,
				"z": 0.2975174837,
				"element": "C" 
			},
			{
				"x": 0.2374582284,
				"y": 0.3905769867,
				"z": 0.369533837,
				"element": "C" 
			},
			{
				"x": 1.319445515,
				"y": -0.4977971824,
				"z": 0.5024597985,
				"element": "C" 
			},
			{
				"x": 1.1045934443,
				"y": -1.8712873156,
				"z": 0.5635645226,
				"element": "C" 
			},
			{
				"x": 0.4614387958,
				"y": 1.8534341174,
				"z": 0.3076983735,
				"element": "C" 
			},
			{
				"x": 1.451284212,
				"y": 2.4735702163,
				"z": 1.0916389783,
				"element": "C" 
			},
			{
				"x": 1.7123656262,
				"y": 3.7831051579,
				"z": 1.0828745193,
				"element": "N" 
			},
			{
				"x": 0.9743188478,
				"y": 4.5543448212,
				"z": 0.2746926495,
				"element": "C" 
			},
			{
				"x": -0.0436403424,
				"y": 4.0558606446,
				"z": -0.5398005088,
				"element": "C" 
			},
			{
				"x": -0.3008876678,
				"y": 2.6883420569,
				"z": -0.5233418711,
				"element": "C" 
			},
			{
				"x": 0.5124971375,
				"y": -4.4558224701,
				"z": 0.658647619,
				"element": "H" 
			},
			{
				"x": -2.2810419154,
				"y": -1.9293397394,
				"z": 0.306673388,
				"element": "H" 
			},
			{
				"x": -1.9136256106,
				"y": 0.5325604666,
				"z": 0.2215504732,
				"element": "H" 
			},
			{
				"x": 2.3321862725,
				"y": -0.1083173354,
				"z": 0.5316142498,
				"element": "H" 
			},
			{
				"x": 1.9491070983,
				"y": -2.5499506923,
				"z": 0.6596633001,
				"element": "H" 
			},
			{
				"x": 2.047189807,
				"y": 1.8748138066,
				"z": 1.7783914125,
				"element": "H" 
			},
			{
				"x": 1.2078507006,
				"y": 5.6174003079,
				"z": 0.2789858585,
				"element": "H" 
			},
			{
				"x": -0.6120973532,
				"y": 4.7239183444,
				"z": -1.1792045617,
				"element": "H" 
			},
			{
				"x": -1.0680673551,
				"y": 2.2650987219,
				"z": -1.1652751768,
				"element": "H" 
			}
		],
		 "valence_orbital": [ 
			{
				"type": "occ",
				"energy": -0.28515,
				"method": "rhf"
			},
			{
				"type": "occ",
				"energy": -0.27205,
				"method": "rhf"
			},
			{
				"type": "occ",
				"energy": -0.2619,
				"method": "rhf"
			},
			{
				"type": "occ",
				"energy": -0.25777,
				"method": "rhf"
			},
			{
				"type": "occ",
				"energy": -0.24636,
				"method": "rhf"
			},
			{
				"type": "unocc",
				"energy": -0.07516,
				"method": "rhf"
			},
			{
				"type": "unocc",
				"energy": -0.03316,
				"method": "rhf"
			},
			{
				"type": "unocc",
				"energy": -0.02106,
				"method": "rhf"
			},
			{
				"type": "unocc",
				"energy": -0.01823,
				"method": "rhf"
			},
			{
				"type": "unocc",
				"energy": 0.04166,
				"method": "rhf"
			}
		],
		"cosmo_sigma_profile": { 
			"-0.025": 0.0,
			"-0.024": 0.0,
			"-0.023": 0.0,
			"-0.022": 0.0,
			"-0.021": 0.0,
			"-0.02": 0.0,
			"-0.019": 0.0,
			"-0.018": 0.0,
			"-0.017": 0.0,
			"-0.016": 0.0,
			"-0.015": 0.0,
			"-0.014": 0.0,
			"-0.013": 0.0,
			"-0.012": 0.0,
			"-0.011": 0.0,
			"-0.01": 0.0,
			"-0.009": 0.0,
			"-0.008": 1.23512843787,
			"-0.007": 12.7713660481,
			"-0.006": 21.4570333196,
			"-0.005": 17.8877444261,
			"-0.004": 15.8399768631,
			"-0.003": 12.5354787465,
			"-0.002": 13.4626052191,
			"-0.001": 13.012555179,
			"0.0": 15.9574597948,
			"0.001": 21.4126153479,
			"0.002": 24.4597253931,
			"0.003": 18.0758293357,
			"0.004": 4.96887169676,
			"0.005": 3.47554589665,
			"0.006": 2.38197150438,
			"0.007": 2.88430871249,
			"0.008": 3.65972422905,
			"0.009": 3.0256244851,
			"0.01": 3.12411730496,
			"0.011": 5.50795354688,
			"0.012": 3.94749893892,
			"0.013": 1.61431000138,
			"0.014": 0.609020469075,
			"0.015": 1.04725824793,
			"0.016": 0.915928861264,
			"0.017": 0.20324277411,
			"0.018": 0.0,
			"0.019": 0.0,
			"0.02": 0.0,
			"0.021": 0.0,
			"0.022": 0.0,
			"0.023": 0.0,
			"0.024": 0.0,
			"0.025": 0.0
		}
	}
}
