{
	 "smiles": "OC1=CC=C(C=C1)C1=NN=C2SC(NN12)C1=CC=CO1", 
	 "Tm": 503.15, 
	 "num_atms": 30, 
	 "gaussian": { 
		 "optdone": 1, 
		 "sigma_profile": "yes", 
		 "theory": "DFT", 
		 "functional": "B3LYP", 
		 "basiset": "6-31G**", 
		 "properties": { 
			 "R2extent": 7410.8105, 
			 "electric_dipole_moment_norm": 5.36262666424, 
			 "electric_quadrupole_moment_norm": 34.6461453221, 
			 "total_energy": -1268.94386896, 
			 "HOMO_LUMO_gap": 0.16604, 
			 "cosmo_polarized_energy": -26.94, 
			 "cosmo_cavitation_energy": 36.87, 
			 "cosmo_dispersion_energy": -26.66, 
			 "cosmo_repulsion_energy": 1.98, 
			 "cosmo_total_nonelectrostatic_energy": 12.2, 
			 "SMD_solvation_energy": 4.57 
		},
		"coords": [
			{
				"x": -0.5125739249,
				"y": 5.8577531493,
				"z": 0.0673642934,
				"element": "O" 
			},
			{
				"x": -0.9800774931,
				"y": 4.600966955,
				"z": -0.182959748,
				"element": "C" 
			},
			{
				"x": -0.0523533679,
				"y": 3.6328994899,
				"z": -0.582100835,
				"element": "C" 
			},
			{
				"x": -0.4737052608,
				"y": 2.335689029,
				"z": -0.8531367722,
				"element": "C" 
			},
			{
				"x": -1.8282369406,
				"y": 1.9795420555,
				"z": -0.7331716198,
				"element": "C" 
			},
			{
				"x": -2.7497693055,
				"y": 2.9603328949,
				"z": -0.3283519762,
				"element": "C" 
			},
			{
				"x": -2.3323935179,
				"y": 4.256725248,
				"z": -0.0552901767,
				"element": "C" 
			},
			{
				"x": -2.3225931574,
				"y": 0.6285592844,
				"z": -0.9964058948,
				"element": "C" 
			},
			{
				"x": -3.5507340787,
				"y": 0.2027567211,
				"z": -0.7475989525,
				"element": "N" 
			},
			{
				"x": -3.6609649122,
				"y": -1.1347527176,
				"z": -1.1070838185,
				"element": "N" 
			},
			{
				"x": -2.4966936603,
				"y": -1.4748419504,
				"z": -1.5900477677,
				"element": "C" 
			},
			{
				"x": -1.7421127988,
				"y": -2.934399131,
				"z": -2.2211809426,
				"element": "S" 
			},
			{
				"x": -0.0548383748,
				"y": -2.0594438164,
				"z": -1.9232496607,
				"element": "C" 
			},
			{
				"x": -0.3199425266,
				"y": -0.6155426365,
				"z": -2.0524110288,
				"element": "N" 
			},
			{
				"x": -1.6216274691,
				"y": -0.4204895141,
				"z": -1.5531509399,
				"element": "N" 
			},
			{
				"x": 0.5588365298,
				"y": -2.4373292964,
				"z": -0.629374267,
				"element": "C" 
			},
			{
				"x": 1.6929229883,
				"y": -3.1382403507,
				"z": -0.3324363082,
				"element": "C" 
			},
			{
				"x": 1.7588847769,
				"y": -3.209900494,
				"z": 1.0966286736,
				"element": "C" 
			},
			{
				"x": 0.6609287633,
				"y": -2.5491447495,
				"z": 1.556801984,
				"element": "C" 
			},
			{
				"x": -0.0816744561,
				"y": -2.0743780391,
				"z": 0.5183792016,
				"element": "O" 
			},
			{
				"x": -1.2487841489,
				"y": 6.4223951779,
				"z": 0.3368892245,
				"element": "H" 
			},
			{
				"x": 0.9920841729,
				"y": 3.9128433852,
				"z": -0.6703515244,
				"element": "H" 
			},
			{
				"x": 0.2558642608,
				"y": 1.589734071,
				"z": -1.1487528123,
				"element": "H" 
			},
			{
				"x": -3.7941036667,
				"y": 2.6849893903,
				"z": -0.2304504008,
				"element": "H" 
			},
			{
				"x": -3.0574667324,
				"y": 5.006026433,
				"z": 0.2559431384,
				"element": "H" 
			},
			{
				"x": 0.6123622499,
				"y": -2.3641140012,
				"z": -2.7299091194,
				"element": "H" 
			},
			{
				"x": -0.3480451208,
				"y": -0.3803547444,
				"z": -3.0471533575,
				"element": "H" 
			},
			{
				"x": 2.3954894187,
				"y": -3.5516236957,
				"z": -1.0422417713,
				"element": "H" 
			},
			{
				"x": 2.5214948698,
				"y": -3.6869413912,
				"z": 1.6945847134,
				"element": "H" 
			},
			{
				"x": 0.2792228832,
				"y": -2.3320167562,
				"z": 2.5421184654,
				"element": "H" 
			}
		],
		 "valence_orbital": [ 
			{
				"type": "occ",
				"energy": -0.2571,
				"method": "rhf"
			},
			{
				"type": "occ",
				"energy": -0.25142,
				"method": "rhf"
			},
			{
				"type": "occ",
				"energy": -0.2461,
				"method": "rhf"
			},
			{
				"type": "occ",
				"energy": -0.23826,
				"method": "rhf"
			},
			{
				"type": "occ",
				"energy": -0.20324,
				"method": "rhf"
			},
			{
				"type": "unocc",
				"energy": -0.0372,
				"method": "rhf"
			},
			{
				"type": "unocc",
				"energy": -0.02075,
				"method": "rhf"
			},
			{
				"type": "unocc",
				"energy": -0.00668,
				"method": "rhf"
			},
			{
				"type": "unocc",
				"energy": 0.00728,
				"method": "rhf"
			},
			{
				"type": "unocc",
				"energy": 0.03861,
				"method": "rhf"
			}
		],
		"cosmo_sigma_profile": { 
			"-0.025": 0.0,
			"-0.024": 0.0,
			"-0.023": 0.0,
			"-0.022": 0.0,
			"-0.021": 0.0,
			"-0.02": 0.0,
			"-0.019": 0.0,
			"-0.018": 0.595120639105,
			"-0.017": 1.58853690594,
			"-0.016": 1.37336710167,
			"-0.015": 3.92872578437,
			"-0.014": 2.46622577487,
			"-0.013": 3.03207675466,
			"-0.012": 3.00228040777,
			"-0.011": 4.46468140367,
			"-0.01": 4.50429503403,
			"-0.009": 5.98057368713,
			"-0.008": 6.96759691951,
			"-0.007": 9.98279724727,
			"-0.006": 10.4905914292,
			"-0.005": 12.6177368461,
			"-0.004": 14.1423717062,
			"-0.003": 12.217407158,
			"-0.002": 12.4415448418,
			"-0.001": 12.4953682221,
			"0.0": 17.9158540504,
			"0.001": 19.1320326945,
			"0.002": 25.7139830512,
			"0.003": 28.3912102606,
			"0.004": 31.9746702989,
			"0.005": 15.3567028766,
			"0.006": 5.10028209385,
			"0.007": 4.33495480222,
			"0.008": 3.6165649703,
			"0.009": 3.69327734785,
			"0.01": 3.58229603114,
			"0.011": 4.14214320664,
			"0.012": 2.611194932,
			"0.013": 3.14647552654,
			"0.014": 4.02329841705,
			"0.015": 2.55158225513,
			"0.016": 1.34581443763,
			"0.017": 0.199184111182,
			"0.018": 0.0,
			"0.019": 0.0,
			"0.02": 0.0,
			"0.021": 0.0,
			"0.022": 0.0,
			"0.023": 0.0,
			"0.024": 0.0,
			"0.025": 0.0
		}
	}
}
