{
	 "smiles": "CC1=CC=C(C=C1)S(=O)(=O)NCCCC(O)=O", 
	 "Tm": 412.15, 
	 "num_atms": 32, 
	 "gaussian": { 
		 "optdone": 1, 
		 "sigma_profile": "yes", 
		 "theory": "DFT", 
		 "functional": "B3LYP", 
		 "basiset": "6-31G**", 
		 "properties": { 
			 "R2extent": 5359.4206, 
			 "electric_dipole_moment_norm": 4.69085999471, 
			 "electric_quadrupole_moment_norm": 21.4207333084, 
			 "total_energy": -1182.00392443, 
			 "HOMO_LUMO_gap": 0.21911, 
			 "cosmo_polarized_energy": -20.24, 
			 "cosmo_cavitation_energy": 36.57, 
			 "cosmo_dispersion_energy": -25.51, 
			 "cosmo_repulsion_energy": 1.95, 
			 "cosmo_total_nonelectrostatic_energy": 13.0, 
			 "SMD_solvation_energy": 6.33 
		},
		"coords": [
			{
				"x": -3.3518311303,
				"y": -3.2089876724,
				"z": 0.578423171,
				"element": "C" 
			},
			{
				"x": -2.0429355987,
				"y": -2.6181791626,
				"z": 0.1127356031,
				"element": "C" 
			},
			{
				"x": -1.5668229751,
				"y": -1.4164706113,
				"z": 0.6623215385,
				"element": "C" 
			},
			{
				"x": -0.3480435716,
				"y": -0.8734124854,
				"z": 0.2673760064,
				"element": "C" 
			},
			{
				"x": 0.4023112341,
				"y": -1.5385417857,
				"z": -0.7074303878,
				"element": "C" 
			},
			{
				"x": -0.0454953205,
				"y": -2.7313541847,
				"z": -1.2745805097,
				"element": "C" 
			},
			{
				"x": -1.2671434808,
				"y": -3.26193231,
				"z": -0.8597460636,
				"element": "C" 
			},
			{
				"x": 2.0009372022,
				"y": -0.9025521177,
				"z": -1.1978756994,
				"element": "S" 
			},
			{
				"x": 2.8564737718,
				"y": -0.7096349067,
				"z": -0.0227654499,
				"element": "O" 
			},
			{
				"x": 2.4756121388,
				"y": -1.71551867,
				"z": -2.3278486787,
				"element": "O" 
			},
			{
				"x": 1.5721237029,
				"y": 0.6638258172,
				"z": -1.7116169443,
				"element": "N" 
			},
			{
				"x": 2.6656609259,
				"y": 1.6536621909,
				"z": -1.7607528918,
				"element": "C" 
			},
			{
				"x": 2.0997253125,
				"y": 3.0683938476,
				"z": -1.9142483798,
				"element": "C" 
			},
			{
				"x": 1.1806167384,
				"y": 3.5044861376,
				"z": -0.761694595,
				"element": "C" 
			},
			{
				"x": -0.1689966414,
				"y": 2.8219869523,
				"z": -0.6991354076,
				"element": "C" 
			},
			{
				"x": -0.7725697607,
				"y": 2.7569229432,
				"z": -1.9144672511,
				"element": "O" 
			},
			{
				"x": -0.7131597658,
				"y": 2.4289110324,
				"z": 0.3102718302,
				"element": "O" 
			},
			{
				"x": -3.2249804724,
				"y": -3.7356489281,
				"z": 1.5322884716,
				"element": "H" 
			},
			{
				"x": -3.7475728255,
				"y": -3.9283655364,
				"z": -0.143715467,
				"element": "H" 
			},
			{
				"x": -4.1069823391,
				"y": -2.432833706,
				"z": 0.7373285729,
				"element": "H" 
			},
			{
				"x": -2.1597448478,
				"y": -0.8958193335,
				"z": 1.4095688932,
				"element": "H" 
			},
			{
				"x": -0.0024714469,
				"y": 0.0626866234,
				"z": 0.6906881129,
				"element": "H" 
			},
			{
				"x": 0.5571867425,
				"y": -3.2251112606,
				"z": -2.0287521434,
				"element": "H" 
			},
			{
				"x": -1.6219080869,
				"y": -4.1898941082,
				"z": -1.3002707845,
				"element": "H" 
			},
			{
				"x": 1.0770187593,
				"y": 0.5908940224,
				"z": -2.5992299534,
				"element": "H" 
			},
			{
				"x": 3.2135887463,
				"y": 1.5641030889,
				"z": -0.8193767094,
				"element": "H" 
			},
			{
				"x": 3.3712052868,
				"y": 1.4452240209,
				"z": -2.5768396522,
				"element": "H" 
			},
			{
				"x": 1.5643924896,
				"y": 3.163318666,
				"z": -2.8656228377,
				"element": "H" 
			},
			{
				"x": 2.9497138656,
				"y": 3.758574968,
				"z": -1.9656943425,
				"element": "H" 
			},
			{
				"x": 0.9764177687,
				"y": 4.5788750979,
				"z": -0.8588230955,
				"element": "H" 
			},
			{
				"x": 1.6589839367,
				"y": 3.3518841821,
				"z": 0.2090942588,
				"element": "H" 
			},
			{
				"x": -1.6341103587,
				"y": 2.3353071887,
				"z": -1.7575092143,
				"element": "H" 
			}
		],
		 "valence_orbital": [ 
			{
				"type": "occ",
				"energy": -0.29533,
				"method": "rhf"
			},
			{
				"type": "occ",
				"energy": -0.27739,
				"method": "rhf"
			},
			{
				"type": "occ",
				"energy": -0.27102,
				"method": "rhf"
			},
			{
				"type": "occ",
				"energy": -0.26324,
				"method": "rhf"
			},
			{
				"type": "occ",
				"energy": -0.25168,
				"method": "rhf"
			},
			{
				"type": "unocc",
				"energy": -0.03257,
				"method": "rhf"
			},
			{
				"type": "unocc",
				"energy": -0.01428,
				"method": "rhf"
			},
			{
				"type": "unocc",
				"energy": 0.00568,
				"method": "rhf"
			},
			{
				"type": "unocc",
				"energy": 0.0552,
				"method": "rhf"
			},
			{
				"type": "unocc",
				"energy": 0.07359,
				"method": "rhf"
			}
		],
		"cosmo_sigma_profile": { 
			"-0.025": 0.0,
			"-0.024": 0.0,
			"-0.023": 0.0,
			"-0.022": 0.0,
			"-0.021": 0.0,
			"-0.02": 0.0,
			"-0.019": 0.0,
			"-0.018": 0.35326898028,
			"-0.017": 0.750977518795,
			"-0.016": 0.755682459172,
			"-0.015": 1.3338620728,
			"-0.014": 1.28895417194,
			"-0.013": 1.23872521379,
			"-0.012": 1.31994386258,
			"-0.011": 2.11615613535,
			"-0.01": 1.7992317088,
			"-0.009": 1.55937925851,
			"-0.008": 1.92174924919,
			"-0.007": 4.00171367802,
			"-0.006": 11.8215659181,
			"-0.005": 23.4411586422,
			"-0.004": 29.3804632482,
			"-0.003": 27.1743101948,
			"-0.002": 23.2661850152,
			"-0.001": 24.1235311806,
			"0.0": 16.3625387275,
			"0.001": 11.9606183457,
			"0.002": 16.5369835368,
			"0.003": 20.5154361317,
			"0.004": 9.61245499241,
			"0.005": 5.30874146089,
			"0.006": 4.62919603393,
			"0.007": 5.07660990195,
			"0.008": 5.38533022342,
			"0.009": 6.16316801091,
			"0.01": 7.16558263058,
			"0.011": 11.6084627857,
			"0.012": 9.10860086983,
			"0.013": 1.119004581,
			"0.014": 0.00961714719524,
			"0.015": 0.0,
			"0.016": 0.0,
			"0.017": 0.0,
			"0.018": 0.0,
			"0.019": 0.0,
			"0.02": 0.0,
			"0.021": 0.0,
			"0.022": 0.0,
			"0.023": 0.0,
			"0.024": 0.0,
			"0.025": 0.0
		}
	}
}
