{
	 "smiles": "CC1=CN=C(OC2=CC=C(N)C=C2)C=C1", 
	 "Tm": 364.15, 
	 "num_atms": 27, 
	 "gaussian": { 
		 "optdone": 1, 
		 "sigma_profile": "yes", 
		 "theory": "DFT", 
		 "functional": "B3LYP", 
		 "basiset": "6-31G**", 
		 "properties": { 
			 "R2extent": 4389.7201, 
			 "electric_dipole_moment_norm": 1.67564333317, 
			 "electric_quadrupole_moment_norm": 19.2708164606, 
			 "total_energy": -649.236187648, 
			 "HOMO_LUMO_gap": 0.17371, 
			 "cosmo_polarized_energy": -12.99, 
			 "cosmo_cavitation_energy": 31.48, 
			 "cosmo_dispersion_energy": -22.96, 
			 "cosmo_repulsion_energy": 1.82, 
			 "cosmo_total_nonelectrostatic_energy": 10.34, 
			 "SMD_solvation_energy": 4.71 
		},
		"coords": [
			{
				"x": -2.9580316458,
				"y": 1.5341340879,
				"z": 3.9022023659,
				"element": "C" 
			},
			{
				"x": -1.8629760511,
				"y": 1.0235168876,
				"z": 2.9995946392,
				"element": "C" 
			},
			{
				"x": -2.0057009668,
				"y": 0.9988344574,
				"z": 1.6135063593,
				"element": "C" 
			},
			{
				"x": -1.0714595406,
				"y": 0.5566738342,
				"z": 0.7556713799,
				"element": "N" 
			},
			{
				"x": 0.0654479662,
				"y": 0.11462967,
				"z": 1.267398166,
				"element": "C" 
			},
			{
				"x": 1.0518715383,
				"y": -0.3613112112,
				"z": 0.4515881718,
				"element": "O" 
			},
			{
				"x": 0.9132487817,
				"y": -0.3053274403,
				"z": -0.9360483107,
				"element": "C" 
			},
			{
				"x": 0.8817179777,
				"y": 0.9084275031,
				"z": -1.6212202691,
				"element": "C" 
			},
			{
				"x": 0.8425754473,
				"y": 0.9160380435,
				"z": -3.0119541888,
				"element": "C" 
			},
			{
				"x": 0.8408489051,
				"y": -0.2858614172,
				"z": -3.7418348774,
				"element": "C" 
			},
			{
				"x": 0.862294833,
				"y": -0.2714100965,
				"z": -5.1422960121,
				"element": "N" 
			},
			{
				"x": 0.8813775331,
				"y": -1.4972714535,
				"z": -3.0334263497,
				"element": "C" 
			},
			{
				"x": 0.9144875482,
				"y": -1.505475272,
				"z": -1.6401813873,
				"element": "C" 
			},
			{
				"x": 0.3413472155,
				"y": 0.086458564,
				"z": 2.6453871772,
				"element": "C" 
			},
			{
				"x": -0.6403407824,
				"y": 0.5463384797,
				"z": 3.5067872642,
				"element": "C" 
			},
			{
				"x": -3.826718543,
				"y": 1.8598354394,
				"z": 3.3228121444,
				"element": "H" 
			},
			{
				"x": -2.6209556414,
				"y": 2.3870823456,
				"z": 4.5028608552,
				"element": "H" 
			},
			{
				"x": -3.2968609311,
				"y": 0.7611810839,
				"z": 4.6019350343,
				"element": "H" 
			},
			{
				"x": -2.9292937811,
				"y": 1.3549488868,
				"z": 1.1577307975,
				"element": "H" 
			},
			{
				"x": 0.880912408,
				"y": 1.8408498202,
				"z": -1.0676797401,
				"element": "H" 
			},
			{
				"x": 0.8193630224,
				"y": 1.8645374755,
				"z": -3.5429041716,
				"element": "H" 
			},
			{
				"x": 0.4988728678,
				"y": -1.109242713,
				"z": -5.5764456701,
				"element": "H" 
			},
			{
				"x": 0.4636462713,
				"y": 0.5587893358,
				"z": -5.5598387908,
				"element": "H" 
			},
			{
				"x": 0.8894640444,
				"y": -2.4383418657,
				"z": -3.5777346543,
				"element": "H" 
			},
			{
				"x": 0.9451416049,
				"y": -2.4413651819,
				"z": -1.0916564584,
				"element": "H" 
			},
			{
				"x": 1.2958850111,
				"y": -0.2878559406,
				"z": 2.9976889761,
				"element": "H" 
			},
			{
				"x": -0.4633650925,
				"y": 0.5388866775,
				"z": 4.5798575494,
				"element": "H" 
			}
		],
		 "valence_orbital": [ 
			{
				"type": "occ",
				"energy": -0.27798,
				"method": "rhf"
			},
			{
				"type": "occ",
				"energy": -0.2578,
				"method": "rhf"
			},
			{
				"type": "occ",
				"energy": -0.24157,
				"method": "rhf"
			},
			{
				"type": "occ",
				"energy": -0.22533,
				"method": "rhf"
			},
			{
				"type": "occ",
				"energy": -0.19084,
				"method": "rhf"
			},
			{
				"type": "unocc",
				"energy": -0.01713,
				"method": "rhf"
			},
			{
				"type": "unocc",
				"energy": 0.005,
				"method": "rhf"
			},
			{
				"type": "unocc",
				"energy": 0.00982,
				"method": "rhf"
			},
			{
				"type": "unocc",
				"energy": 0.02863,
				"method": "rhf"
			},
			{
				"type": "unocc",
				"energy": 0.08382,
				"method": "rhf"
			}
		],
		"cosmo_sigma_profile": { 
			"-0.025": 0.0,
			"-0.024": 0.0,
			"-0.023": 0.0,
			"-0.022": 0.0,
			"-0.021": 0.0,
			"-0.02": 0.0,
			"-0.019": 0.0,
			"-0.018": 0.0,
			"-0.017": 0.0,
			"-0.016": 0.0,
			"-0.015": 0.0,
			"-0.014": 0.0,
			"-0.013": 0.0438430424624,
			"-0.012": 2.48814574276,
			"-0.011": 2.53846607078,
			"-0.01": 3.07074588694,
			"-0.009": 3.76482659629,
			"-0.008": 2.80430047467,
			"-0.007": 4.30453627414,
			"-0.006": 12.450639559,
			"-0.005": 17.4064310988,
			"-0.004": 19.6416288608,
			"-0.003": 17.8328125067,
			"-0.002": 16.6778241099,
			"-0.001": 16.315862278,
			"0.0": 18.3508023481,
			"0.001": 16.5098023031,
			"0.002": 17.8252786885,
			"0.003": 18.9134727839,
			"0.004": 13.0562880721,
			"0.005": 11.8906756726,
			"0.006": 11.8731480667,
			"0.007": 5.3797314854,
			"0.008": 3.88171658473,
			"0.009": 3.0814223057,
			"0.01": 2.28701856563,
			"0.011": 2.23215073289,
			"0.012": 1.66262386553,
			"0.013": 1.57405386119,
			"0.014": 1.55666216892,
			"0.015": 1.28975952875,
			"0.016": 4.99798138154e-05,
			"0.017": 0.0,
			"0.018": 0.0,
			"0.019": 0.0,
			"0.02": 0.0,
			"0.021": 0.0,
			"0.022": 0.0,
			"0.023": 0.0,
			"0.024": 0.0,
			"0.025": 0.0
		}
	}
}
