{
	 "smiles": "COC1=C(NC(=O)OC(C)(C)C)C=C(N)C=C1", 
	 "Tm": 382.15, 
	 "num_atms": 35, 
	 "gaussian": { 
		 "optdone": 1, 
		 "sigma_profile": "yes", 
		 "theory": "DFT", 
		 "functional": "B3LYP", 
		 "basiset": "6-31G**", 
		 "properties": { 
			 "R2extent": 5200.5247, 
			 "electric_dipole_moment_norm": 3.75721384805, 
			 "electric_quadrupole_moment_norm": 21.2606003321, 
			 "total_energy": -803.320039973, 
			 "HOMO_LUMO_gap": 0.19285, 
			 "cosmo_polarized_energy": -16.95, 
			 "cosmo_cavitation_energy": 37.9, 
			 "cosmo_dispersion_energy": -25.15, 
			 "cosmo_repulsion_energy": 1.98, 
			 "cosmo_total_nonelectrostatic_energy": 14.73, 
			 "SMD_solvation_energy": 8.44 
		},
		"coords": [
			{
				"x": 2.0358866704,
				"y": 2.3917503718,
				"z": 0.3768506708,
				"element": "C" 
			},
			{
				"x": 0.9212545584,
				"y": 1.7177731917,
				"z": -0.2066425356,
				"element": "O" 
			},
			{
				"x": -0.2973853326,
				"y": 2.3028630423,
				"z": 0.0749206445,
				"element": "C" 
			},
			{
				"x": -1.0070021373,
				"y": 1.9831371214,
				"z": 1.2467183973,
				"element": "C" 
			},
			{
				"x": -0.468951403,
				"y": 1.0770083159,
				"z": 2.1968080127,
				"element": "N" 
			},
			{
				"x": -0.1450781329,
				"y": -0.2530890998,
				"z": 2.0049776232,
				"element": "C" 
			},
			{
				"x": 0.3514442095,
				"y": -0.9284794728,
				"z": 2.892287703,
				"element": "O" 
			},
			{
				"x": -0.4748754439,
				"y": -0.6566857469,
				"z": 0.7683886208,
				"element": "O" 
			},
			{
				"x": -0.0388397456,
				"y": -1.9639788261,
				"z": 0.2552316071,
				"element": "C" 
			},
			{
				"x": -0.5337842549,
				"y": -1.9293919322,
				"z": -1.1927604705,
				"element": "C" 
			},
			{
				"x": 1.4896018913,
				"y": -2.0580832478,
				"z": 0.3044990562,
				"element": "C" 
			},
			{
				"x": -0.7197843049,
				"y": -3.0874041241,
				"z": 1.043708845,
				"element": "C" 
			},
			{
				"x": -2.2290144185,
				"y": 2.6076314614,
				"z": 1.5083626725,
				"element": "C" 
			},
			{
				"x": -2.7738068846,
				"y": 3.5472576125,
				"z": 0.6191839284,
				"element": "C" 
			},
			{
				"x": -4.0249266124,
				"y": 4.120952024,
				"z": 0.8686751632,
				"element": "N" 
			},
			{
				"x": -2.0713825011,
				"y": 3.8349057596,
				"z": -0.5623565159,
				"element": "C" 
			},
			{
				"x": -0.8518635003,
				"y": 3.2151736136,
				"z": -0.8224578392,
				"element": "C" 
			},
			{
				"x": 1.9722651154,
				"y": 2.3988066891,
				"z": 1.4719931556,
				"element": "H" 
			},
			{
				"x": 2.1099293778,
				"y": 3.4265267504,
				"z": 0.0161511415,
				"element": "H" 
			},
			{
				"x": 2.9286700278,
				"y": 1.840080284,
				"z": 0.0736961595,
				"element": "H" 
			},
			{
				"x": -0.4486377372,
				"y": 1.3493482981,
				"z": 3.1686397999,
				"element": "H" 
			},
			{
				"x": -1.6207058774,
				"y": -1.8104818024,
				"z": -1.2251230331,
				"element": "H" 
			},
			{
				"x": -0.2705691556,
				"y": -2.8610901354,
				"z": -1.7027921324,
				"element": "H" 
			},
			{
				"x": -0.0795678584,
				"y": -1.0923871618,
				"z": -1.7299132116,
				"element": "H" 
			},
			{
				"x": 1.8482180665,
				"y": -2.07555862,
				"z": 1.3344634575,
				"element": "H" 
			},
			{
				"x": 1.9308357296,
				"y": -1.201178386,
				"z": -0.2130969128,
				"element": "H" 
			},
			{
				"x": 1.8183331616,
				"y": -2.9733314264,
				"z": -0.1985262674,
				"element": "H" 
			},
			{
				"x": -0.3888998052,
				"y": -3.0878903094,
				"z": 2.0825288326,
				"element": "H" 
			},
			{
				"x": -0.4768699094,
				"y": -4.0546304481,
				"z": 0.5911432029,
				"element": "H" 
			},
			{
				"x": -1.8071043092,
				"y": -2.9635627952,
				"z": 1.017649536,
				"element": "H" 
			},
			{
				"x": -2.7726659563,
				"y": 2.3359631037,
				"z": 2.4099170982,
				"element": "H" 
			},
			{
				"x": -4.2896285326,
				"y": 4.1611491392,
				"z": 1.8433729155,
				"element": "H" 
			},
			{
				"x": -4.1870514299,
				"y": 5.003432083,
				"z": 0.4031583728,
				"element": "H" 
			},
			{
				"x": -2.4840739578,
				"y": 4.5429235912,
				"z": -1.2763612702,
				"element": "H" 
			},
			{
				"x": -0.3017696071,
				"y": 3.4412410816,
				"z": -1.730896428,
				"element": "H" 
			}
		],
		 "valence_orbital": [ 
			{
				"type": "occ",
				"energy": -0.27248,
				"method": "rhf"
			},
			{
				"type": "occ",
				"energy": -0.26213,
				"method": "rhf"
			},
			{
				"type": "occ",
				"energy": -0.25377,
				"method": "rhf"
			},
			{
				"type": "occ",
				"energy": -0.23129,
				"method": "rhf"
			},
			{
				"type": "occ",
				"energy": -0.19793,
				"method": "rhf"
			},
			{
				"type": "unocc",
				"energy": -0.00508,
				"method": "rhf"
			},
			{
				"type": "unocc",
				"energy": 0.01748,
				"method": "rhf"
			},
			{
				"type": "unocc",
				"energy": 0.06494,
				"method": "rhf"
			},
			{
				"type": "unocc",
				"energy": 0.07749,
				"method": "rhf"
			},
			{
				"type": "unocc",
				"energy": 0.08775,
				"method": "rhf"
			}
		],
		"cosmo_sigma_profile": { 
			"-0.025": 0.0,
			"-0.024": 0.0,
			"-0.023": 0.0,
			"-0.022": 0.0,
			"-0.021": 0.0,
			"-0.02": 0.0,
			"-0.019": 0.0,
			"-0.018": 0.0,
			"-0.017": 0.0,
			"-0.016": 0.0,
			"-0.015": 0.140019933834,
			"-0.014": 0.714954433487,
			"-0.013": 1.237875376,
			"-0.012": 3.65896458281,
			"-0.011": 3.39570533402,
			"-0.01": 3.06334292066,
			"-0.009": 5.27563042141,
			"-0.008": 3.98992548746,
			"-0.007": 4.78797198048,
			"-0.006": 6.86877267379,
			"-0.005": 9.74947480685,
			"-0.004": 21.576389541,
			"-0.003": 26.467120722,
			"-0.002": 29.1764564694,
			"-0.001": 26.6086513397,
			"0.0": 31.1328350954,
			"0.001": 26.9596045023,
			"0.002": 11.3344684012,
			"0.003": 11.699763094,
			"0.004": 10.3328657965,
			"0.005": 13.0442687289,
			"0.006": 12.6511099827,
			"0.007": 6.48467828878,
			"0.008": 6.43655033266,
			"0.009": 4.16383035944,
			"0.01": 3.67765479134,
			"0.011": 2.14423856648,
			"0.012": 2.68356852347,
			"0.013": 4.16899814208,
			"0.014": 2.73723005207,
			"0.015": 0.344455035647,
			"0.016": 0.0,
			"0.017": 0.0,
			"0.018": 0.0,
			"0.019": 0.0,
			"0.02": 0.0,
			"0.021": 0.0,
			"0.022": 0.0,
			"0.023": 0.0,
			"0.024": 0.0,
			"0.025": 0.0
		}
	}
}
