{
	 "smiles": "OC1=CC=C(C=C1)N1C=NC=N1", 
	 "Tm": 528.15, 
	 "num_atms": 19, 
	 "gaussian": { 
		 "optdone": 1, 
		 "sigma_profile": "yes", 
		 "theory": "DFT", 
		 "functional": "B3LYP", 
		 "basiset": "6-31G**", 
		 "properties": { 
			 "R2extent": 2598.9484, 
			 "electric_dipole_moment_norm": 3.21514702152, 
			 "electric_quadrupole_moment_norm": 7.82422134337, 
			 "total_energy": -548.523329399, 
			 "HOMO_LUMO_gap": 0.192, 
			 "cosmo_polarized_energy": -14.0, 
			 "cosmo_cavitation_energy": 23.7, 
			 "cosmo_dispersion_energy": -17.88, 
			 "cosmo_repulsion_energy": 1.38, 
			 "cosmo_total_nonelectrostatic_energy": 7.2, 
			 "SMD_solvation_energy": 2.71 
		},
		"coords": [
			{
				"x": 3.1384283712,
				"y": -0.4697223318,
				"z": 3.1736972707,
				"element": "O" 
			},
			{
				"x": 2.367066356,
				"y": -0.3822845097,
				"z": 2.051772836,
				"element": "C" 
			},
			{
				"x": 1.7531175957,
				"y": 0.8046414048,
				"z": 1.6381147711,
				"element": "C" 
			},
			{
				"x": 0.9769093468,
				"y": 0.8315427986,
				"z": 0.4829899509,
				"element": "C" 
			},
			{
				"x": 0.807342267,
				"y": -0.3324565608,
				"z": -0.2711684114,
				"element": "C" 
			},
			{
				"x": 1.4206860908,
				"y": -1.5219169389,
				"z": 0.1404128548,
				"element": "C" 
			},
			{
				"x": 2.1953682273,
				"y": -1.5465171059,
				"z": 1.2942508683,
				"element": "C" 
			},
			{
				"x": 0.0108547387,
				"y": -0.2917947082,
				"z": -1.4506937266,
				"element": "N" 
			},
			{
				"x": -0.2977033285,
				"y": -1.2766937398,
				"z": -2.3363366087,
				"element": "C" 
			},
			{
				"x": -1.0717693556,
				"y": -0.8126109773,
				"z": -3.3009098854,
				"element": "N" 
			},
			{
				"x": -1.2157625949,
				"y": 0.4976439388,
				"z": -2.9560318401,
				"element": "C" 
			},
			{
				"x": -0.5862049567,
				"y": 0.8652152355,
				"z": -1.8521873394,
				"element": "N" 
			},
			{
				"x": 3.1768574159,
				"y": 0.3949714485,
				"z": 3.6024093023,
				"element": "H" 
			},
			{
				"x": 1.8800716519,
				"y": 1.715281736,
				"z": 2.2195234101,
				"element": "H" 
			},
			{
				"x": 0.4977318956,
				"y": 1.7449931623,
				"z": 0.1545875618,
				"element": "H" 
			},
			{
				"x": 1.3024089468,
				"y": -2.4366258718,
				"z": -0.4298160121,
				"element": "H" 
			},
			{
				"x": 2.6746862783,
				"y": -2.4625752324,
				"z": 1.6217316061,
				"element": "H" 
			},
			{
				"x": 0.0531823215,
				"y": -2.2932803955,
				"z": -2.244457839,
				"element": "H" 
			},
			{
				"x": -1.8000712678,
				"y": 1.2013886476,
				"z": -3.5326887694,
				"element": "H" 
			}
		],
		 "valence_orbital": [ 
			{
				"type": "occ",
				"energy": -0.30258,
				"method": "rhf"
			},
			{
				"type": "occ",
				"energy": -0.27628,
				"method": "rhf"
			},
			{
				"type": "occ",
				"energy": -0.27546,
				"method": "rhf"
			},
			{
				"type": "occ",
				"energy": -0.26704,
				"method": "rhf"
			},
			{
				"type": "occ",
				"energy": -0.22074,
				"method": "rhf"
			},
			{
				"type": "unocc",
				"energy": -0.02874,
				"method": "rhf"
			},
			{
				"type": "unocc",
				"energy": -0.0188,
				"method": "rhf"
			},
			{
				"type": "unocc",
				"energy": 0.0399,
				"method": "rhf"
			},
			{
				"type": "unocc",
				"energy": 0.05534,
				"method": "rhf"
			},
			{
				"type": "unocc",
				"energy": 0.06055,
				"method": "rhf"
			}
		],
		"cosmo_sigma_profile": { 
			"-0.025": 0.0,
			"-0.024": 0.0,
			"-0.023": 0.0,
			"-0.022": 0.0,
			"-0.021": 0.0,
			"-0.02": 0.0,
			"-0.019": 0.0387109809664,
			"-0.018": 0.754963807087,
			"-0.017": 1.17143181936,
			"-0.016": 1.19344085551,
			"-0.015": 0.853419818502,
			"-0.014": 1.17009103179,
			"-0.013": 0.894873337332,
			"-0.012": 1.38152756855,
			"-0.011": 3.43936964154,
			"-0.01": 3.1890835805,
			"-0.009": 4.1327074862,
			"-0.008": 4.74502123269,
			"-0.007": 6.69302861102,
			"-0.006": 8.82149853361,
			"-0.005": 9.63349293089,
			"-0.004": 7.89373554651,
			"-0.003": 6.59809637952,
			"-0.002": 9.81633337417,
			"-0.001": 9.16227576777,
			"0.0": 10.5771166943,
			"0.001": 13.9558850478,
			"0.002": 15.4560677584,
			"0.003": 18.1141928892,
			"0.004": 15.3083635466,
			"0.005": 4.944983029,
			"0.006": 3.67235203628,
			"0.007": 5.36587324602,
			"0.008": 4.30668859255,
			"0.009": 3.21318213154,
			"0.01": 4.61850391627,
			"0.011": 4.10770188768,
			"0.012": 1.31653453706,
			"0.013": 1.06901277903,
			"0.014": 1.24120226944,
			"0.015": 1.09333115351,
			"0.016": 0.895930384676,
			"0.017": 0.205428621168,
			"0.018": 0.0,
			"0.019": 0.0,
			"0.02": 0.0,
			"0.021": 0.0,
			"0.022": 0.0,
			"0.023": 0.0,
			"0.024": 0.0,
			"0.025": 0.0
		}
	}
}
