{
	 "smiles": "CCN(CC)S(=O)(=O)C1=CN=C(S)C=C1", 
	 "Tm": 436.15, 
	 "num_atms": 29, 
	 "gaussian": { 
		 "optdone": 1, 
		 "sigma_profile": "yes", 
		 "theory": "DFT", 
		 "functional": "B3LYP", 
		 "basiset": "6-31G**", 
		 "properties": { 
			 "R2extent": 5425.7937, 
			 "electric_dipole_moment_norm": 3.65532423049, 
			 "electric_quadrupole_moment_norm": 7.71517270967, 
			 "total_energy": -1407.64621318, 
			 "HOMO_LUMO_gap": 0.19145, 
			 "cosmo_polarized_energy": -13.69, 
			 "cosmo_cavitation_energy": 34.82, 
			 "cosmo_dispersion_energy": -25.04, 
			 "cosmo_repulsion_energy": 1.88, 
			 "cosmo_total_nonelectrostatic_energy": 11.66, 
			 "SMD_solvation_energy": 3.06 
		},
		"coords": [
			{
				"x": -1.3550099846,
				"y": -0.9888676852,
				"z": 3.5910434123,
				"element": "C" 
			},
			{
				"x": -1.8934021378,
				"y": -0.6095526536,
				"z": 2.2079798914,
				"element": "C" 
			},
			{
				"x": -1.156803214,
				"y": -1.1714126954,
				"z": 1.0520779656,
				"element": "N" 
			},
			{
				"x": -1.1152558171,
				"y": -2.6439785731,
				"z": 0.9226221227,
				"element": "C" 
			},
			{
				"x": -2.5056658208,
				"y": -3.2370944635,
				"z": 0.6977515674,
				"element": "C" 
			},
			{
				"x": 0.3159028017,
				"y": -0.4087200325,
				"z": 0.7024535402,
				"element": "S" 
			},
			{
				"x": 1.4627817351,
				"y": -1.1767853913,
				"z": 1.2107775831,
				"element": "O" 
			},
			{
				"x": 0.1505427629,
				"y": 1.0016412605,
				"z": 1.0688762813,
				"element": "O" 
			},
			{
				"x": 0.36764812,
				"y": -0.5376520354,
				"z": -1.0849201808,
				"element": "C" 
			},
			{
				"x": -0.6306910131,
				"y": 0.0425852082,
				"z": -1.8698108739,
				"element": "C" 
			},
			{
				"x": -0.6070259594,
				"y": 0.0195912823,
				"z": -3.2047708558,
				"element": "N" 
			},
			{
				"x": 0.4308252862,
				"y": -0.5807420633,
				"z": -3.8019410794,
				"element": "C" 
			},
			{
				"x": 0.4549429563,
				"y": -0.6085029636,
				"z": -5.5813952372,
				"element": "S" 
			},
			{
				"x": 1.487264038,
				"y": -1.1826502051,
				"z": -3.099113035,
				"element": "C" 
			},
			{
				"x": 1.451631977,
				"y": -1.1569441605,
				"z": -1.711098588,
				"element": "C" 
			},
			{
				"x": -0.3284647853,
				"y": -0.6364224188,
				"z": 3.7249428256,
				"element": "H" 
			},
			{
				"x": -1.9757377148,
				"y": -0.5257624191,
				"z": 4.3652208717,
				"element": "H" 
			},
			{
				"x": -1.3699724153,
				"y": -2.070256177,
				"z": 3.7589842761,
				"element": "H" 
			},
			{
				"x": -1.8883692111,
				"y": 0.4745466017,
				"z": 2.0873875374,
				"element": "H" 
			},
			{
				"x": -2.9308686174,
				"y": -0.9390130413,
				"z": 2.0963388736,
				"element": "H" 
			},
			{
				"x": -0.6301007796,
				"y": -3.1066484363,
				"z": 1.7915856679,
				"element": "H" 
			},
			{
				"x": -0.4888207291,
				"y": -2.8763234626,
				"z": 0.0565902752,
				"element": "H" 
			},
			{
				"x": -2.9961997967,
				"y": -2.764815158,
				"z": -0.1584307829,
				"element": "H" 
			},
			{
				"x": -3.1525516384,
				"y": -3.1222502707,
				"z": 1.5721775248,
				"element": "H" 
			},
			{
				"x": -2.415800225,
				"y": -4.3091428759,
				"z": 0.4968199643,
				"element": "H" 
			},
			{
				"x": -1.4807453628,
				"y": 0.5369340154,
				"z": -1.407068104,
				"element": "H" 
			},
			{
				"x": -0.700122437,
				"y": 0.0712568908,
				"z": -5.7107461837,
				"element": "H" 
			},
			{
				"x": 2.3091648347,
				"y": -1.6531876787,
				"z": -3.6281082004,
				"element": "H" 
			},
			{
				"x": 2.2387031473,
				"y": -1.601230398,
				"z": -1.1110270598,
				"element": "H" 
			}
		],
		 "valence_orbital": [ 
			{
				"type": "occ",
				"energy": -0.30674,
				"method": "rhf"
			},
			{
				"type": "occ",
				"energy": -0.30197,
				"method": "rhf"
			},
			{
				"type": "occ",
				"energy": -0.27814,
				"method": "rhf"
			},
			{
				"type": "occ",
				"energy": -0.25788,
				"method": "rhf"
			},
			{
				"type": "occ",
				"energy": -0.24191,
				"method": "rhf"
			},
			{
				"type": "unocc",
				"energy": -0.05046,
				"method": "rhf"
			},
			{
				"type": "unocc",
				"energy": -0.04417,
				"method": "rhf"
			},
			{
				"type": "unocc",
				"energy": 0.0055,
				"method": "rhf"
			},
			{
				"type": "unocc",
				"energy": 0.06153,
				"method": "rhf"
			},
			{
				"type": "unocc",
				"energy": 0.06427,
				"method": "rhf"
			}
		],
		"cosmo_sigma_profile": { 
			"-0.025": 0.0,
			"-0.024": 0.0,
			"-0.023": 0.0,
			"-0.022": 0.0,
			"-0.021": 0.0,
			"-0.02": 0.0,
			"-0.019": 0.0,
			"-0.018": 0.0,
			"-0.017": 0.0,
			"-0.016": 0.0,
			"-0.015": 0.0,
			"-0.014": 0.0,
			"-0.013": 0.0,
			"-0.012": 0.0981514350657,
			"-0.011": 1.14625665258,
			"-0.01": 1.51970777658,
			"-0.009": 2.51847716253,
			"-0.008": 6.24913371141,
			"-0.007": 6.59941436622,
			"-0.006": 5.47608066679,
			"-0.005": 12.5991865981,
			"-0.004": 25.3060458086,
			"-0.003": 28.0700121753,
			"-0.002": 28.6342528022,
			"-0.001": 28.4210823369,
			"0.0": 33.0340302069,
			"0.001": 19.4708034099,
			"0.002": 11.8472512554,
			"0.003": 11.1566488305,
			"0.004": 7.14160682526,
			"0.005": 7.65439384707,
			"0.006": 7.05761116492,
			"0.007": 5.04687098063,
			"0.008": 4.29479765629,
			"0.009": 4.10504368698,
			"0.01": 8.03230317094,
			"0.011": 8.75410563919,
			"0.012": 3.65234510976,
			"0.013": 0.121921203017,
			"0.014": 0.0,
			"0.015": 0.0,
			"0.016": 0.0,
			"0.017": 0.0,
			"0.018": 0.0,
			"0.019": 0.0,
			"0.02": 0.0,
			"0.021": 0.0,
			"0.022": 0.0,
			"0.023": 0.0,
			"0.024": 0.0,
			"0.025": 0.0
		}
	}
}
