{
	 "smiles": "O=S(=O)(N1CCCCC1)C1=CC2=C(NCC2)C=C1", 
	 "Tm": 445.15, 
	 "num_atms": 36, 
	 "gaussian": { 
		 "optdone": 1, 
		 "sigma_profile": "yes", 
		 "theory": "DFT", 
		 "functional": "B3LYP", 
		 "basiset": "6-31G**", 
		 "properties": { 
			 "R2extent": 7045.695, 
			 "electric_dipole_moment_norm": 7.57292232959, 
			 "electric_quadrupole_moment_norm": 27.7121258677, 
			 "total_energy": -1164.31193665, 
			 "HOMO_LUMO_gap": 0.19031, 
			 "cosmo_polarized_energy": -17.36, 
			 "cosmo_cavitation_energy": 37.01, 
			 "cosmo_dispersion_energy": -27.0, 
			 "cosmo_repulsion_energy": 2.06, 
			 "cosmo_total_nonelectrostatic_energy": 12.06, 
			 "SMD_solvation_energy": 2.3 
		},
		"coords": [
			{
				"x": 1.9089513636,
				"y": 3.7690661882,
				"z": 2.5670600537,
				"element": "O" 
			},
			{
				"x": 2.3352198581,
				"y": 2.4774044396,
				"z": 2.0183069241,
				"element": "S" 
			},
			{
				"x": 3.6141730147,
				"y": 2.3075794837,
				"z": 1.3200871458,
				"element": "O" 
			},
			{
				"x": 2.3905886643,
				"y": 1.4251756888,
				"z": 3.3263356384,
				"element": "N" 
			},
			{
				"x": 1.3824523796,
				"y": 1.5194176736,
				"z": 4.3917332983,
				"element": "C" 
			},
			{
				"x": 0.3318628192,
				"y": 0.4015599596,
				"z": 4.3089788719,
				"element": "C" 
			},
			{
				"x": 1.0044924225,
				"y": -0.9785662044,
				"z": 4.2371325348,
				"element": "C" 
			},
			{
				"x": 2.0181114165,
				"y": -1.0349857435,
				"z": 3.0831036098,
				"element": "C" 
			},
			{
				"x": 3.0350775876,
				"y": 0.1114033732,
				"z": 3.1904996491,
				"element": "C" 
			},
			{
				"x": 1.0541373428,
				"y": 1.9471174353,
				"z": 0.8830545621,
				"element": "C" 
			},
			{
				"x": 1.3719643993,
				"y": 1.0353902425,
				"z": -0.1396410236,
				"element": "C" 
			},
			{
				"x": 0.3599968676,
				"y": 0.600155938,
				"z": -0.9755442208,
				"element": "C" 
			},
			{
				"x": -0.9577167524,
				"y": 1.0762783947,
				"z": -0.8119076284,
				"element": "C" 
			},
			{
				"x": -1.7900719982,
				"y": 0.5411956097,
				"z": -1.7866306104,
				"element": "N" 
			},
			{
				"x": -1.1196495806,
				"y": -0.6227805367,
				"z": -2.3942842343,
				"element": "C" 
			},
			{
				"x": 0.3846092601,
				"y": -0.3183360863,
				"z": -2.1808112969,
				"element": "C" 
			},
			{
				"x": -1.2718151925,
				"y": 1.9963769837,
				"z": 0.1927858845,
				"element": "C" 
			},
			{
				"x": -0.2492914028,
				"y": 2.428649616,
				"z": 1.0398782937,
				"element": "C" 
			},
			{
				"x": 1.9205220083,
				"y": 1.4476510753,
				"z": 5.3482720698,
				"element": "H" 
			},
			{
				"x": 0.9341822749,
				"y": 2.5131843178,
				"z": 4.3541623237,
				"element": "H" 
			},
			{
				"x": -0.2926021312,
				"y": 0.5552114396,
				"z": 3.420235212,
				"element": "H" 
			},
			{
				"x": -0.3291358089,
				"y": 0.4632610177,
				"z": 5.1821050004,
				"element": "H" 
			},
			{
				"x": 1.5253305857,
				"y": -1.176622569,
				"z": 5.1853013321,
				"element": "H" 
			},
			{
				"x": 0.2511732759,
				"y": -1.7665611148,
				"z": 4.1244235066,
				"element": "H" 
			},
			{
				"x": 1.4903240985,
				"y": -0.9631109869,
				"z": 2.1240107849,
				"element": "H" 
			},
			{
				"x": 2.5530297095,
				"y": -1.9926015306,
				"z": 3.0861555499,
				"element": "H" 
			},
			{
				"x": 3.7115946486,
				"y": 0.1470050781,
				"z": 2.3355263953,
				"element": "H" 
			},
			{
				"x": 3.6581168516,
				"y": -0.0333155785,
				"z": 4.0852304036,
				"element": "H" 
			},
			{
				"x": 2.3979710496,
				"y": 0.7060385007,
				"z": -0.2677525615,
				"element": "H" 
			},
			{
				"x": -2.7753856544,
				"y": 0.4572278538,
				"z": -1.5760391909,
				"element": "H" 
			},
			{
				"x": -1.3885188776,
				"y": -0.7218837317,
				"z": -3.4494146158,
				"element": "H" 
			},
			{
				"x": -1.3974205768,
				"y": -1.5558712095,
				"z": -1.8800400637,
				"element": "H" 
			},
			{
				"x": 0.7984247499,
				"y": 0.2069074319,
				"z": -3.0513500766,
				"element": "H" 
			},
			{
				"x": 0.9745608462,
				"y": -1.227208793,
				"z": -2.0346552819,
				"element": "H" 
			},
			{
				"x": -2.2815758784,
				"y": 2.3787009995,
				"z": 0.3087666425,
				"element": "H" 
			},
			{
				"x": -0.4541836405,
				"y": 3.1599853437,
				"z": 1.814125118,
				"element": "H" 
			}
		],
		 "valence_orbital": [ 
			{
				"type": "occ",
				"energy": -0.28504,
				"method": "rhf"
			},
			{
				"type": "occ",
				"energy": -0.28425,
				"method": "rhf"
			},
			{
				"type": "occ",
				"energy": -0.25859,
				"method": "rhf"
			},
			{
				"type": "occ",
				"energy": -0.2408,
				"method": "rhf"
			},
			{
				"type": "occ",
				"energy": -0.20588,
				"method": "rhf"
			},
			{
				"type": "unocc",
				"energy": -0.01557,
				"method": "rhf"
			},
			{
				"type": "unocc",
				"energy": -0.01416,
				"method": "rhf"
			},
			{
				"type": "unocc",
				"energy": 0.06737,
				"method": "rhf"
			},
			{
				"type": "unocc",
				"energy": 0.07598,
				"method": "rhf"
			},
			{
				"type": "unocc",
				"energy": 0.08314,
				"method": "rhf"
			}
		],
		"cosmo_sigma_profile": { 
			"-0.025": 0.0,
			"-0.024": 0.0,
			"-0.023": 0.0,
			"-0.022": 0.0,
			"-0.021": 0.0,
			"-0.02": 0.0,
			"-0.019": 0.0,
			"-0.018": 0.0,
			"-0.017": 0.0,
			"-0.016": 0.0,
			"-0.015": 0.0,
			"-0.014": 0.191586532364,
			"-0.013": 1.04071250722,
			"-0.012": 1.6397552392,
			"-0.011": 1.28206605491,
			"-0.01": 0.966300096369,
			"-0.009": 1.3101217579,
			"-0.008": 1.4781153868,
			"-0.007": 2.59927926311,
			"-0.006": 5.68709279016,
			"-0.005": 10.8253246302,
			"-0.004": 32.2902639746,
			"-0.003": 39.7827770737,
			"-0.002": 38.3994064474,
			"-0.001": 33.2350195295,
			"0.0": 22.8537628155,
			"0.001": 14.7881681676,
			"0.002": 9.58923539621,
			"0.003": 10.7217803363,
			"0.004": 13.3549721415,
			"0.005": 6.06190361075,
			"0.006": 5.39273144567,
			"0.007": 5.4560199663,
			"0.008": 4.27525267403,
			"0.009": 4.66486324562,
			"0.01": 4.9503513318,
			"0.011": 7.73806103181,
			"0.012": 8.19265250158,
			"0.013": 1.60068684702,
			"0.014": 0.0,
			"0.015": 0.0,
			"0.016": 0.0,
			"0.017": 0.0,
			"0.018": 0.0,
			"0.019": 0.0,
			"0.02": 0.0,
			"0.021": 0.0,
			"0.022": 0.0,
			"0.023": 0.0,
			"0.024": 0.0,
			"0.025": 0.0
		}
	}
}
