{
	 "smiles": "CC(Cl)Cl", 
	 "Tm": 176.15, 
	 "num_atms": 8, 
	 "gaussian": { 
		 "optdone": 1, 
		 "sigma_profile": "yes", 
		 "theory": "DFT", 
		 "functional": "B3LYP", 
		 "basiset": "6-31G**", 
		 "properties": { 
			 "R2extent": 1639.8165, 
			 "electric_dipole_moment_norm": 2.27163103958, 
			 "electric_quadrupole_moment_norm": 6.81300897181, 
			 "total_energy": -999.013657403, 
			 "HOMO_LUMO_gap": 0.29238, 
			 "cosmo_polarized_energy": -4.43, 
			 "cosmo_cavitation_energy": 14.68, 
			 "cosmo_dispersion_energy": -11.33, 
			 "cosmo_repulsion_energy": 1.03, 
			 "cosmo_total_nonelectrostatic_energy": 4.38, 
			 "SMD_solvation_energy": 2.09 
		},
		"coords": [
			{
				"x": -0.09156954,
				"y": 0.4184800787,
				"z": -0.776552192,
				"element": "C" 
			},
			{
				"x": 1.0235806831,
				"y": 0.8840571284,
				"z": -1.6920413213,
				"element": "C" 
			},
			{
				"x": 0.4286460174,
				"y": 2.1429976948,
				"z": -2.8452479622,
				"element": "Cl" 
			},
			{
				"x": 1.7449243938,
				"y": -0.5092475472,
				"z": -2.5904909052,
				"element": "Cl" 
			},
			{
				"x": -0.8985777269,
				"y": -0.0375181917,
				"z": -1.3534538249,
				"element": "H" 
			},
			{
				"x": 0.3002097404,
				"y": -0.3170091911,
				"z": -0.0685705981,
				"element": "H" 
			},
			{
				"x": -0.4888336033,
				"y": 1.2725636605,
				"z": -0.2212215835,
				"element": "H" 
			},
			{
				"x": 1.8470200354,
				"y": 1.3447763676,
				"z": -1.1501216128,
				"element": "H" 
			}
		],
		 "valence_orbital": [ 
			{
				"type": "occ",
				"energy": -0.3975,
				"method": "rhf"
			},
			{
				"type": "occ",
				"energy": -0.32868,
				"method": "rhf"
			},
			{
				"type": "occ",
				"energy": -0.3211,
				"method": "rhf"
			},
			{
				"type": "occ",
				"energy": -0.30623,
				"method": "rhf"
			},
			{
				"type": "occ",
				"energy": -0.30417,
				"method": "rhf"
			},
			{
				"type": "unocc",
				"energy": -0.01179,
				"method": "rhf"
			},
			{
				"type": "unocc",
				"energy": 0.02522,
				"method": "rhf"
			},
			{
				"type": "unocc",
				"energy": 0.0903,
				"method": "rhf"
			},
			{
				"type": "unocc",
				"energy": 0.12388,
				"method": "rhf"
			},
			{
				"type": "unocc",
				"energy": 0.15245,
				"method": "rhf"
			}
		],
		"cosmo_sigma_profile": { 
			"-0.025": 0.0,
			"-0.024": 0.0,
			"-0.023": 0.0,
			"-0.022": 0.0,
			"-0.021": 0.0,
			"-0.02": 0.0,
			"-0.019": 0.0,
			"-0.018": 0.0,
			"-0.017": 0.0,
			"-0.016": 0.0,
			"-0.015": 0.0,
			"-0.014": 0.0,
			"-0.013": 0.0,
			"-0.012": 0.0,
			"-0.011": 0.0,
			"-0.01": 1.69161513755,
			"-0.009": 2.20719599367,
			"-0.008": 2.06450475546,
			"-0.007": 2.181677023,
			"-0.006": 6.70536569321,
			"-0.005": 7.57041375408,
			"-0.004": 6.71891593313,
			"-0.003": 7.31915833306,
			"-0.002": 9.7497999442,
			"-0.001": 8.17257919131,
			"0.0": 6.17991719167,
			"0.001": 7.09284956211,
			"0.002": 7.49513641732,
			"0.003": 8.58851923055,
			"0.004": 12.6981600372,
			"0.005": 20.7870624679,
			"0.006": 3.14442566455,
			"0.007": 0.0,
			"0.008": 0.0,
			"0.009": 0.0,
			"0.01": 0.0,
			"0.011": 0.0,
			"0.012": 0.0,
			"0.013": 0.0,
			"0.014": 0.0,
			"0.015": 0.0,
			"0.016": 0.0,
			"0.017": 0.0,
			"0.018": 0.0,
			"0.019": 0.0,
			"0.02": 0.0,
			"0.021": 0.0,
			"0.022": 0.0,
			"0.023": 0.0,
			"0.024": 0.0,
			"0.025": 0.0
		}
	}
}
