{
	 "smiles": "OCCCCCCCCCCCC(O)=O", 
	 "Tm": 359.65, 
	 "num_atms": 39, 
	 "gaussian": { 
		 "optdone": 1, 
		 "sigma_profile": "yes", 
		 "theory": "DFT", 
		 "functional": "B3LYP", 
		 "basiset": "6-31G**", 
		 "properties": { 
			 "R2extent": 8052.6107, 
			 "electric_dipole_moment_norm": 2.38247578162, 
			 "electric_quadrupole_moment_norm": 6.87866068432, 
			 "total_energy": -697.441675194, 
			 "HOMO_LUMO_gap": 0.26555, 
			 "cosmo_polarized_energy": -13.21, 
			 "cosmo_cavitation_energy": 39.51, 
			 "cosmo_dispersion_energy": -26.78, 
			 "cosmo_repulsion_energy": 2.17, 
			 "cosmo_total_nonelectrostatic_energy": 14.91, 
			 "SMD_solvation_energy": 6.37 
		},
		"coords": [
			{
				"x": -2.3773154922,
				"y": 2.4804837121,
				"z": 3.9122431683,
				"element": "O" 
			},
			{
				"x": -2.1473322663,
				"y": 1.5954319564,
				"z": 2.8209822216,
				"element": "C" 
			},
			{
				"x": -0.6989887793,
				"y": 1.1013079319,
				"z": 2.7368879282,
				"element": "C" 
			},
			{
				"x": 0.3498775539,
				"y": 2.2109413802,
				"z": 2.5434598009,
				"element": "C" 
			},
			{
				"x": 0.2223829978,
				"y": 3.0426884195,
				"z": 1.2525592784,
				"element": "C" 
			},
			{
				"x": 0.346035147,
				"y": 2.2587766297,
				"z": -0.0662374466,
				"element": "C" 
			},
			{
				"x": 1.7079988818,
				"y": 1.5773272862,
				"z": -0.2717154075,
				"element": "C" 
			},
			{
				"x": 1.8991950038,
				"y": 0.9438638337,
				"z": -1.6600605594,
				"element": "C" 
			},
			{
				"x": 1.0141585384,
				"y": -0.2872568894,
				"z": -1.9225443796,
				"element": "C" 
			},
			{
				"x": 1.2163699676,
				"y": -0.944078175,
				"z": -3.3087521077,
				"element": "C" 
			},
			{
				"x": 0.1952327423,
				"y": -0.5474724488,
				"z": -4.3899926465,
				"element": "C" 
			},
			{
				"x": 0.1581572149,
				"y": 0.9455519376,
				"z": -4.7707109333,
				"element": "C" 
			},
			{
				"x": 1.4545214631,
				"y": 1.4740170462,
				"z": -5.3440678381,
				"element": "C" 
			},
			{
				"x": 1.8802362239,
				"y": 0.738675695,
				"z": -6.402486898,
				"element": "O" 
			},
			{
				"x": 2.067312011,
				"y": 2.441178687,
				"z": -4.9449214918,
				"element": "O" 
			},
			{
				"x": -1.9064509394,
				"y": 3.3030841506,
				"z": 3.7303751645,
				"element": "H" 
			},
			{
				"x": -2.454114044,
				"y": 2.0558202527,
				"z": 1.868270279,
				"element": "H" 
			},
			{
				"x": -2.8140964429,
				"y": 0.7432441571,
				"z": 2.9892638889,
				"element": "H" 
			},
			{
				"x": -0.6312777133,
				"y": 0.3681837589,
				"z": 1.9221273129,
				"element": "H" 
			},
			{
				"x": -0.4691114605,
				"y": 0.5602818553,
				"z": 3.6628423465,
				"element": "H" 
			},
			{
				"x": 1.3480078254,
				"y": 1.7598750824,
				"z": 2.5902226147,
				"element": "H" 
			},
			{
				"x": 0.3030678599,
				"y": 2.8910239693,
				"z": 3.4052376274,
				"element": "H" 
			},
			{
				"x": -0.7378399286,
				"y": 3.5766222739,
				"z": 1.2516775303,
				"element": "H" 
			},
			{
				"x": 0.9941214552,
				"y": 3.8241485092,
				"z": 1.2706552929,
				"element": "H" 
			},
			{
				"x": -0.4591322328,
				"y": 1.5159501902,
				"z": -0.1295935295,
				"element": "H" 
			},
			{
				"x": 0.1756719488,
				"y": 2.9567676195,
				"z": -0.8974410547,
				"element": "H" 
			},
			{
				"x": 2.4981186574,
				"y": 2.3248270778,
				"z": -0.1166082304,
				"element": "H" 
			},
			{
				"x": 1.8631204818,
				"y": 0.8083475973,
				"z": 0.4976362636,
				"element": "H" 
			},
			{
				"x": 2.9483344175,
				"y": 0.6344662976,
				"z": -1.7617743061,
				"element": "H" 
			},
			{
				"x": 1.7418393651,
				"y": 1.7068517818,
				"z": -2.4320332358,
				"element": "H" 
			},
			{
				"x": 1.2293259988,
				"y": -1.0282512018,
				"z": -1.1412166919,
				"element": "H" 
			},
			{
				"x": -0.0461553777,
				"y": -0.0288830204,
				"z": -1.7985509271,
				"element": "H" 
			},
			{
				"x": 2.2337235612,
				"y": -0.7385365304,
				"z": -3.6692614101,
				"element": "H" 
			},
			{
				"x": 1.1577919655,
				"y": -2.0339836536,
				"z": -3.2024097959,
				"element": "H" 
			},
			{
				"x": -0.8096931036,
				"y": -0.82695062,
				"z": -4.0489121985,
				"element": "H" 
			},
			{
				"x": 0.3902313093,
				"y": -1.131206895,
				"z": -5.2960951672,
				"element": "H" 
			},
			{
				"x": -0.096511717,
				"y": 1.5762169716,
				"z": -3.916710492,
				"element": "H" 
			},
			{
				"x": -0.6172796348,
				"y": 1.0948588472,
				"z": -5.5328350377,
				"element": "H" 
			},
			{
				"x": 2.7073665408,
				"y": 1.1534045265,
				"z": -6.7003089326,
				"element": "H" 
			}
		],
		 "valence_orbital": [ 
			{
				"type": "occ",
				"energy": -0.30762,
				"method": "rhf"
			},
			{
				"type": "occ",
				"energy": -0.30447,
				"method": "rhf"
			},
			{
				"type": "occ",
				"energy": -0.30252,
				"method": "rhf"
			},
			{
				"type": "occ",
				"energy": -0.27232,
				"method": "rhf"
			},
			{
				"type": "occ",
				"energy": -0.25934,
				"method": "rhf"
			},
			{
				"type": "unocc",
				"energy": 0.00621,
				"method": "rhf"
			},
			{
				"type": "unocc",
				"energy": 0.06033,
				"method": "rhf"
			},
			{
				"type": "unocc",
				"energy": 0.06924,
				"method": "rhf"
			},
			{
				"type": "unocc",
				"energy": 0.08612,
				"method": "rhf"
			},
			{
				"type": "unocc",
				"energy": 0.10059,
				"method": "rhf"
			}
		],
		"cosmo_sigma_profile": { 
			"-0.025": 0.0,
			"-0.024": 0.0,
			"-0.023": 0.0,
			"-0.022": 0.0,
			"-0.021": 0.0,
			"-0.02": 0.0,
			"-0.019": 0.0132395243158,
			"-0.018": 0.56663291839,
			"-0.017": 0.813924025405,
			"-0.016": 1.03525488498,
			"-0.015": 0.919824217398,
			"-0.014": 0.682976085391,
			"-0.013": 1.33634532224,
			"-0.012": 1.28973502335,
			"-0.011": 1.65903790023,
			"-0.01": 2.53134742144,
			"-0.009": 1.4358201757,
			"-0.008": 1.29232653334,
			"-0.007": 2.63782617406,
			"-0.006": 4.96132216783,
			"-0.005": 4.74594558532,
			"-0.004": 7.19559849998,
			"-0.003": 19.8205760058,
			"-0.002": 50.3029961381,
			"-0.001": 55.1486137911,
			"0.0": 47.85780406,
			"0.001": 35.3429450426,
			"0.002": 11.9309926118,
			"0.003": 4.03637596,
			"0.004": 4.20629525451,
			"0.005": 5.33796472716,
			"0.006": 3.80663424804,
			"0.007": 4.61437476978,
			"0.008": 3.79679531357,
			"0.009": 3.53660898418,
			"0.01": 3.93751231622,
			"0.011": 4.23173849202,
			"0.012": 6.10556510606,
			"0.013": 1.96355747135,
			"0.014": 2.43355394943,
			"0.015": 1.79467390797,
			"0.016": 0.0159630400744,
			"0.017": 0.0,
			"0.018": 0.0,
			"0.019": 0.0,
			"0.02": 0.0,
			"0.021": 0.0,
			"0.022": 0.0,
			"0.023": 0.0,
			"0.024": 0.0,
			"0.025": 0.0
		}
	}
}
