{
	 "smiles": "CC1=C(C=CC=C1NC(=O)CCCl)[N+]([O-])=O", 
	 "Tm": 405.15, 
	 "num_atms": 27, 
	 "gaussian": { 
		 "optdone": 1, 
		 "sigma_profile": "yes", 
		 "theory": "DFT", 
		 "functional": "B3LYP", 
		 "basiset": "6-31G**", 
		 "properties": { 
			 "R2extent": 5532.8685, 
			 "electric_dipole_moment_norm": 5.7840230411, 
			 "electric_quadrupole_moment_norm": 19.888373031, 
			 "total_energy": -1182.98272488, 
			 "HOMO_LUMO_gap": 0.17192, 
			 "cosmo_polarized_energy": -19.06, 
			 "cosmo_cavitation_energy": 33.29, 
			 "cosmo_dispersion_energy": -23.41, 
			 "cosmo_repulsion_energy": 1.83, 
			 "cosmo_total_nonelectrostatic_energy": 11.71, 
			 "SMD_solvation_energy": 7.9 
		},
		"coords": [
			{
				"x": -1.2159557585,
				"y": 1.535476875,
				"z": -0.0281050118,
				"element": "C" 
			},
			{
				"x": -0.00427561,
				"y": 0.7456269095,
				"z": 0.3926444433,
				"element": "C" 
			},
			{
				"x": 0.9489914455,
				"y": 1.1957943294,
				"z": 1.3261765842,
				"element": "C" 
			},
			{
				"x": 1.9973616736,
				"y": 0.4068786266,
				"z": 1.8009290617,
				"element": "C" 
			},
			{
				"x": 2.1515351275,
				"y": -0.8835111401,
				"z": 1.3113308672,
				"element": "C" 
			},
			{
				"x": 1.2611252603,
				"y": -1.3581764011,
				"z": 0.3526266586,
				"element": "C" 
			},
			{
				"x": 0.2036446926,
				"y": -0.5624347032,
				"z": -0.0995251414,
				"element": "C" 
			},
			{
				"x": -0.6909497759,
				"y": -1.1332593931,
				"z": -1.0505446711,
				"element": "N" 
			},
			{
				"x": -0.8739732536,
				"y": -0.6400929429,
				"z": -2.326427081,
				"element": "C" 
			},
			{
				"x": -0.3959892125,
				"y": 0.4104182324,
				"z": -2.7200449487,
				"element": "O" 
			},
			{
				"x": -1.7620648122,
				"y": -1.4985342586,
				"z": -3.2289558241,
				"element": "C" 
			},
			{
				"x": -1.0494407294,
				"y": -1.8475750376,
				"z": -4.5285019557,
				"element": "C" 
			},
			{
				"x": 0.2838137675,
				"y": -3.0547665268,
				"z": -4.2454193598,
				"element": "Cl" 
			},
			{
				"x": 0.8879308993,
				"y": 2.563975247,
				"z": 1.8766550076,
				"element": "N" 
			},
			{
				"x": 1.3748317696,
				"y": 2.7461343338,
				"z": 2.9930353632,
				"element": "O" 
			},
			{
				"x": 0.382145872,
				"y": 3.4475725554,
				"z": 1.1858090842,
				"element": "O" 
			},
			{
				"x": -2.0253919537,
				"y": 0.8478488368,
				"z": -0.2840988911,
				"element": "H" 
			},
			{
				"x": -0.9943256407,
				"y": 2.135517775,
				"z": -0.914295379,
				"element": "H" 
			},
			{
				"x": -1.5533000818,
				"y": 2.2103017461,
				"z": 0.7571612463,
				"element": "H" 
			},
			{
				"x": 2.6705251063,
				"y": 0.8230303656,
				"z": 2.5393406254,
				"element": "H" 
			},
			{
				"x": 2.9687701861,
				"y": -1.5070597717,
				"z": 1.6579212298,
				"element": "H" 
			},
			{
				"x": 1.386403227,
				"y": -2.3523979509,
				"z": -0.0668537565,
				"element": "H" 
			},
			{
				"x": -0.9308508106,
				"y": -2.1044937347,
				"z": -0.9068303877,
				"element": "H" 
			},
			{
				"x": -2.1266011303,
				"y": -2.4037499047,
				"z": -2.7336865537,
				"element": "H" 
			},
			{
				"x": -2.6359177336,
				"y": -0.8855351227,
				"z": -3.4834380879,
				"element": "H" 
			},
			{
				"x": -0.5827533891,
				"y": -0.9603236485,
				"z": -4.9563774865,
				"element": "H" 
			},
			{
				"x": -1.7262891353,
				"y": -2.303765296,
				"z": -5.2507256355,
				"element": "H" 
			}
		],
		 "valence_orbital": [ 
			{
				"type": "occ",
				"energy": -0.30112,
				"method": "rhf"
			},
			{
				"type": "occ",
				"energy": -0.28981,
				"method": "rhf"
			},
			{
				"type": "occ",
				"energy": -0.27404,
				"method": "rhf"
			},
			{
				"type": "occ",
				"energy": -0.26968,
				"method": "rhf"
			},
			{
				"type": "occ",
				"energy": -0.25552,
				"method": "rhf"
			},
			{
				"type": "unocc",
				"energy": -0.0836,
				"method": "rhf"
			},
			{
				"type": "unocc",
				"energy": -0.02997,
				"method": "rhf"
			},
			{
				"type": "unocc",
				"energy": -0.01202,
				"method": "rhf"
			},
			{
				"type": "unocc",
				"energy": 0.0058,
				"method": "rhf"
			},
			{
				"type": "unocc",
				"energy": 0.01791,
				"method": "rhf"
			}
		],
		"cosmo_sigma_profile": { 
			"-0.025": 0.0,
			"-0.024": 0.0,
			"-0.023": 0.0,
			"-0.022": 0.0,
			"-0.021": 0.0,
			"-0.02": 0.0,
			"-0.019": 0.0,
			"-0.018": 0.0,
			"-0.017": 0.0,
			"-0.016": 0.26776382264,
			"-0.015": 0.937572002019,
			"-0.014": 1.2670947659,
			"-0.013": 1.32896402625,
			"-0.012": 1.68353652434,
			"-0.011": 1.4595781919,
			"-0.01": 1.40576819443,
			"-0.009": 2.06733957924,
			"-0.008": 5.49118284442,
			"-0.007": 15.0653873819,
			"-0.006": 16.4328998976,
			"-0.005": 17.313173259,
			"-0.004": 17.0619376594,
			"-0.003": 16.1917851271,
			"-0.002": 11.296276559,
			"-0.001": 18.0114439827,
			"0.0": 19.5154721344,
			"0.001": 17.8060671907,
			"0.002": 17.9427654357,
			"0.003": 10.7157701933,
			"0.004": 9.20590946986,
			"0.005": 11.4142479337,
			"0.006": 13.1036328636,
			"0.007": 11.5081366708,
			"0.008": 9.36988529425,
			"0.009": 6.77825523306,
			"0.01": 4.00105702281,
			"0.011": 1.67520890896,
			"0.012": 3.11498363324,
			"0.013": 2.92499058838,
			"0.014": 0.286226984264,
			"0.015": 0.0,
			"0.016": 0.0,
			"0.017": 0.0,
			"0.018": 0.0,
			"0.019": 0.0,
			"0.02": 0.0,
			"0.021": 0.0,
			"0.022": 0.0,
			"0.023": 0.0,
			"0.024": 0.0,
			"0.025": 0.0
		}
	}
}
