{
	 "smiles": "O=CC1=C(C=C(C=C1)N(=O)=O)N(=O)=O", 
	 "Tm": 345.15, 
	 "num_atms": 18, 
	 "gaussian": { 
		 "optdone": 1, 
		 "sigma_profile": "yes", 
		 "theory": "DFT", 
		 "functional": "B3LYP", 
		 "basiset": "6-31G**", 
		 "properties": { 
			 "R2extent": 3575.3601, 
			 "electric_dipole_moment_norm": 1.8466873612, 
			 "electric_quadrupole_moment_norm": 15.4687323812, 
			 "total_energy": -754.548609794, 
			 "HOMO_LUMO_gap": 0.1533, 
			 "cosmo_polarized_energy": -12.88, 
			 "cosmo_cavitation_energy": 25.02, 
			 "cosmo_dispersion_energy": -18.12, 
			 "cosmo_repulsion_energy": 1.41, 
			 "cosmo_total_nonelectrostatic_energy": 8.3, 
			 "SMD_solvation_energy": 9.86 
		},
		"coords": [
			{
				"x": -3.2105967059,
				"y": 1.6249010058,
				"z": -0.4001835203,
				"element": "O" 
			},
			{
				"x": -2.2316368019,
				"y": 2.2022206167,
				"z": 0.0251862563,
				"element": "C" 
			},
			{
				"x": -0.8953185199,
				"y": 1.5056208957,
				"z": 0.1052027637,
				"element": "C" 
			},
			{
				"x": 0.3406893614,
				"y": 2.1174820305,
				"z": 0.385232922,
				"element": "C" 
			},
			{
				"x": 1.5109422409,
				"y": 1.3830775737,
				"z": 0.5430411255,
				"element": "C" 
			},
			{
				"x": 1.4402601322,
				"y": 0.0049459025,
				"z": 0.3856152214,
				"element": "C" 
			},
			{
				"x": 0.2465043162,
				"y": -0.649119346,
				"z": 0.0894635394,
				"element": "C" 
			},
			{
				"x": -0.910936942,
				"y": 0.1104226177,
				"z": -0.038861001,
				"element": "C" 
			},
			{
				"x": 2.6783787838,
				"y": -0.7881404369,
				"z": 0.5351336693,
				"element": "N" 
			},
			{
				"x": 2.5832618315,
				"y": -2.0051189788,
				"z": 0.3999443178,
				"element": "O" 
			},
			{
				"x": 3.7130463117,
				"y": -0.1762284977,
				"z": 0.7842508763,
				"element": "O" 
			},
			{
				"x": 0.4748762172,
				"y": 3.5858138192,
				"z": 0.4870428283,
				"element": "N" 
			},
			{
				"x": 1.4210737501,
				"y": 4.0207937721,
				"z": 1.134938952,
				"element": "O" 
			},
			{
				"x": -0.359052181,
				"y": 4.2728515599,
				"z": -0.1025191725,
				"element": "O" 
			},
			{
				"x": -2.2824424556,
				"y": 3.2343270193,
				"z": 0.3984316208,
				"element": "H" 
			},
			{
				"x": 2.4487044081,
				"y": 1.8713495807,
				"z": 0.7710876129,
				"element": "H" 
			},
			{
				"x": 0.2418296651,
				"y": -1.7256862915,
				"z": -0.027193995,
				"element": "H" 
			},
			{
				"x": -1.8662834118,
				"y": -0.3577128429,
				"z": -0.2498140166,
				"element": "H" 
			}
		],
		 "valence_orbital": [ 
			{
				"type": "occ",
				"energy": -0.33189,
				"method": "rhf"
			},
			{
				"type": "occ",
				"energy": -0.3195,
				"method": "rhf"
			},
			{
				"type": "occ",
				"energy": -0.31688,
				"method": "rhf"
			},
			{
				"type": "occ",
				"energy": -0.31371,
				"method": "rhf"
			},
			{
				"type": "occ",
				"energy": -0.28923,
				"method": "rhf"
			},
			{
				"type": "unocc",
				"energy": -0.13593,
				"method": "rhf"
			},
			{
				"type": "unocc",
				"energy": -0.11404,
				"method": "rhf"
			},
			{
				"type": "unocc",
				"energy": -0.07086,
				"method": "rhf"
			},
			{
				"type": "unocc",
				"energy": -0.04467,
				"method": "rhf"
			},
			{
				"type": "unocc",
				"energy": 0.00478,
				"method": "rhf"
			}
		],
		"cosmo_sigma_profile": { 
			"-0.025": 0.0,
			"-0.024": 0.0,
			"-0.023": 0.0,
			"-0.022": 0.0,
			"-0.021": 0.0,
			"-0.02": 0.0,
			"-0.019": 0.0,
			"-0.018": 0.0,
			"-0.017": 0.0,
			"-0.016": 0.0,
			"-0.015": 0.0,
			"-0.014": 0.0,
			"-0.013": 0.221302938032,
			"-0.012": 0.658315920622,
			"-0.011": 0.80619704137,
			"-0.01": 1.57692188215,
			"-0.009": 4.59832376485,
			"-0.008": 9.36095566833,
			"-0.007": 9.08838893201,
			"-0.006": 10.2950004779,
			"-0.005": 12.2940312516,
			"-0.004": 20.2938295955,
			"-0.003": 17.4446608444,
			"-0.002": 13.4169500631,
			"-0.001": 7.50335692334,
			"0.0": 7.69013598146,
			"0.001": 5.97121369696,
			"0.002": 5.41093260573,
			"0.003": 6.82973178161,
			"0.004": 6.58559921677,
			"0.005": 9.98240404744,
			"0.006": 15.8305628242,
			"0.007": 14.3977115529,
			"0.008": 10.9086257074,
			"0.009": 6.89272546446,
			"0.01": 3.1600864764,
			"0.011": 1.26709849778,
			"0.012": 0.0568421375911,
			"0.013": 0.0,
			"0.014": 0.0,
			"0.015": 0.0,
			"0.016": 0.0,
			"0.017": 0.0,
			"0.018": 0.0,
			"0.019": 0.0,
			"0.02": 0.0,
			"0.021": 0.0,
			"0.022": 0.0,
			"0.023": 0.0,
			"0.024": 0.0,
			"0.025": 0.0
		}
	}
}
