{
	 "smiles": "OC(=O)C1=CC(Br)=CN1", 
	 "Tm": 443.15, 
	 "num_atms": 13, 
	 "gaussian": { 
		 "optdone": 1, 
		 "sigma_profile": "yes", 
		 "theory": "DFT", 
		 "functional": "B3LYP", 
		 "basiset": "6-31G**", 
		 "properties": { 
			 "R2extent": 2477.9914, 
			 "electric_dipole_moment_norm": 3.76328202238, 
			 "electric_quadrupole_moment_norm": 8.39921742247, 
			 "total_energy": -2969.55075285, 
			 "HOMO_LUMO_gap": 0.19237, 
			 "cosmo_polarized_energy": -12.57, 
			 "cosmo_cavitation_energy": 20.6, 
			 "cosmo_dispersion_energy": -15.84, 
			 "cosmo_repulsion_energy": 1.32, 
			 "cosmo_total_nonelectrostatic_energy": 6.08, 
			 "SMD_solvation_energy": 3.89 
		},
		"coords": [
			{
				"x": 1.9947760236,
				"y": -2.5646473839,
				"z": -0.2515113176,
				"element": "O" 
			},
			{
				"x": 2.2697365118,
				"y": -1.2292592901,
				"z": -0.3513867118,
				"element": "C" 
			},
			{
				"x": 3.3863569448,
				"y": -0.8030148927,
				"z": -0.5627274586,
				"element": "O" 
			},
			{
				"x": 1.0693187509,
				"y": -0.4225361828,
				"z": -0.1744376081,
				"element": "C" 
			},
			{
				"x": 0.9261074486,
				"y": 0.9577780362,
				"z": -0.2035296749,
				"element": "C" 
			},
			{
				"x": -0.4401671648,
				"y": 1.2219209451,
				"z": 0.0236806808,
				"element": "C" 
			},
			{
				"x": -1.2574230501,
				"y": 2.9213558264,
				"z": 0.0996701428,
				"element": "Br" 
			},
			{
				"x": -1.1022605756,
				"y": 0.0143196424,
				"z": 0.1861677476,
				"element": "C" 
			},
			{
				"x": -0.1728039496,
				"y": -0.9739737318,
				"z": 0.0630523367,
				"element": "N" 
			},
			{
				"x": 2.8418091618,
				"y": -3.0210182454,
				"z": -0.3810979779,
				"element": "H" 
			},
			{
				"x": 1.7182274359,
				"y": 1.6714210693,
				"z": -0.3691589373,
				"element": "H" 
			},
			{
				"x": -2.1444077612,
				"y": -0.1901408157,
				"z": 0.3754646247,
				"element": "H" 
			},
			{
				"x": -0.3392697761,
				"y": -1.966504977,
				"z": 0.1308141535,
				"element": "H" 
			}
		],
		 "valence_orbital": [ 
			{
				"type": "occ",
				"energy": -0.32516,
				"method": "rhf"
			},
			{
				"type": "occ",
				"energy": -0.28924,
				"method": "rhf"
			},
			{
				"type": "occ",
				"energy": -0.28322,
				"method": "rhf"
			},
			{
				"type": "occ",
				"energy": -0.25657,
				"method": "rhf"
			},
			{
				"type": "occ",
				"energy": -0.23167,
				"method": "rhf"
			},
			{
				"type": "unocc",
				"energy": -0.0393,
				"method": "rhf"
			},
			{
				"type": "unocc",
				"energy": 0.01233,
				"method": "rhf"
			},
			{
				"type": "unocc",
				"energy": 0.04124,
				"method": "rhf"
			},
			{
				"type": "unocc",
				"energy": 0.06965,
				"method": "rhf"
			},
			{
				"type": "unocc",
				"energy": 0.09309,
				"method": "rhf"
			}
		],
		"cosmo_sigma_profile": { 
			"-0.025": 0.0,
			"-0.024": 0.0,
			"-0.023": 0.0,
			"-0.022": 0.0,
			"-0.021": 0.0,
			"-0.02": 0.0,
			"-0.019": 0.0636416338974,
			"-0.018": 0.905712594427,
			"-0.017": 1.07911737805,
			"-0.016": 1.7565069364,
			"-0.015": 2.15961220611,
			"-0.014": 1.48698783317,
			"-0.013": 0.97401884552,
			"-0.012": 1.52794505313,
			"-0.011": 1.93856562039,
			"-0.01": 3.0909035589,
			"-0.009": 3.70159382457,
			"-0.008": 3.77079119963,
			"-0.007": 4.06002485772,
			"-0.006": 3.94857842143,
			"-0.005": 4.44558004883,
			"-0.004": 5.68913526725,
			"-0.003": 5.85409364961,
			"-0.002": 9.74671117736,
			"-0.001": 10.0669374933,
			"0.0": 9.81332344843,
			"0.001": 11.4159213288,
			"0.002": 14.8378584323,
			"0.003": 19.2205370933,
			"0.004": 18.0541265379,
			"0.005": 10.2341528301,
			"0.006": 3.03721384872,
			"0.007": 1.36358856179,
			"0.008": 1.6617605006,
			"0.009": 1.55609744174,
			"0.01": 1.60015500538,
			"0.011": 3.52043135479,
			"0.012": 5.38285160201,
			"0.013": 0.679900876461,
			"0.014": 0.0,
			"0.015": 0.0,
			"0.016": 0.0,
			"0.017": 0.0,
			"0.018": 0.0,
			"0.019": 0.0,
			"0.02": 0.0,
			"0.021": 0.0,
			"0.022": 0.0,
			"0.023": 0.0,
			"0.024": 0.0,
			"0.025": 0.0
		}
	}
}
