{
	 "smiles": "CC1=C(C(C)=NN1)S(=O)(=O)N1CCC(=O)CC1", 
	 "Tm": 465.15, 
	 "num_atms": 32, 
	 "gaussian": { 
		 "optdone": 1, 
		 "sigma_profile": "yes", 
		 "theory": "DFT", 
		 "functional": "B3LYP", 
		 "basiset": "6-31G**", 
		 "properties": { 
			 "R2extent": 4657.877, 
			 "electric_dipole_moment_norm": 3.43815724626, 
			 "electric_quadrupole_moment_norm": 25.1643132819, 
			 "total_energy": -1178.13098909, 
			 "HOMO_LUMO_gap": 0.21856, 
			 "cosmo_polarized_energy": -23.4, 
			 "cosmo_cavitation_energy": 35.0, 
			 "cosmo_dispersion_energy": -24.93, 
			 "cosmo_repulsion_energy": 1.88, 
			 "cosmo_total_nonelectrostatic_energy": 11.96, 
			 "SMD_solvation_energy": 3.63 
		},
		"coords": [
			{
				"x": -0.2184253349,
				"y": 2.7620994217,
				"z": -2.2650361212,
				"element": "C" 
			},
			{
				"x": -0.5532171129,
				"y": 2.3793372449,
				"z": -0.8586152383,
				"element": "C" 
			},
			{
				"x": 0.2021725911,
				"y": 1.8981600353,
				"z": 0.2129298267,
				"element": "C" 
			},
			{
				"x": -0.70384633,
				"y": 1.774559792,
				"z": 1.3132691308,
				"element": "C" 
			},
			{
				"x": -0.4444215298,
				"y": 1.3415978604,
				"z": 2.7231173159,
				"element": "C" 
			},
			{
				"x": -1.925748022,
				"y": 2.1423921677,
				"z": 0.9437950774,
				"element": "N" 
			},
			{
				"x": -1.8050918935,
				"y": 2.4945151276,
				"z": -0.3607016151,
				"element": "N" 
			},
			{
				"x": 1.9400499251,
				"y": 1.5834075115,
				"z": 0.1941026039,
				"element": "S" 
			},
			{
				"x": 2.4694628746,
				"y": 2.2401172809,
				"z": -1.0054863222,
				"element": "O" 
			},
			{
				"x": 2.4621054884,
				"y": 1.870908342,
				"z": 1.5322715776,
				"element": "O" 
			},
			{
				"x": 2.1746146048,
				"y": -0.0622169757,
				"z": -0.0533374236,
				"element": "N" 
			},
			{
				"x": 2.1762932608,
				"y": -0.9829079741,
				"z": 1.1001322912,
				"element": "C" 
			},
			{
				"x": 1.096592295,
				"y": -2.0638924446,
				"z": 0.9711638101,
				"element": "C" 
			},
			{
				"x": 1.2454460424,
				"y": -2.8488095365,
				"z": -0.3291429947,
				"element": "C" 
			},
			{
				"x": 0.8116763604,
				"y": -3.9730088495,
				"z": -0.4736793321,
				"element": "O" 
			},
			{
				"x": 1.9884811446,
				"y": -2.1023257508,
				"z": -1.4326900169,
				"element": "C" 
			},
			{
				"x": 1.7575288508,
				"y": -0.5884367829,
				"z": -1.3665743047,
				"element": "C" 
			},
			{
				"x": 0.6666502781,
				"y": 3.3998568957,
				"z": -2.2824815097,
				"element": "H" 
			},
			{
				"x": -1.0559686313,
				"y": 3.2924371941,
				"z": -2.7280844328,
				"element": "H" 
			},
			{
				"x": 0.0073827989,
				"y": 1.8838095916,
				"z": -2.8779306711,
				"element": "H" 
			},
			{
				"x": -1.3289336667,
				"y": 1.5476538106,
				"z": 3.3289354354,
				"element": "H" 
			},
			{
				"x": -0.2348969456,
				"y": 0.2675923572,
				"z": 2.7855292206,
				"element": "H" 
			},
			{
				"x": 0.4181055089,
				"y": 1.8681865547,
				"z": 3.1380730767,
				"element": "H" 
			},
			{
				"x": -2.6191765408,
				"y": 2.8350401524,
				"z": -0.8505118678,
				"element": "H" 
			},
			{
				"x": 3.1647209487,
				"y": -1.4553994365,
				"z": 1.1683879191,
				"element": "H" 
			},
			{
				"x": 2.0549475245,
				"y": -0.3972115685,
				"z": 2.0113885895,
				"element": "H" 
			},
			{
				"x": 1.1239070176,
				"y": -2.7641565972,
				"z": 1.8114678125,
				"element": "H" 
			},
			{
				"x": 0.0981666235,
				"y": -1.6041568138,
				"z": 0.9687365554,
				"element": "H" 
			},
			{
				"x": 3.0602995693,
				"y": -2.3166592059,
				"z": -1.3199986522,
				"element": "H" 
			},
			{
				"x": 1.6802280854,
				"y": -2.5019366814,
				"z": -2.4020782289,
				"element": "H" 
			},
			{
				"x": 2.3311773258,
				"y": -0.0797151689,
				"z": -2.1440899344,
				"element": "H" 
			},
			{
				"x": 0.690716889,
				"y": -0.381137554,
				"z": -1.5498615769,
				"element": "H" 
			}
		],
		 "valence_orbital": [ 
			{
				"type": "occ",
				"energy": -0.29468,
				"method": "rhf"
			},
			{
				"type": "occ",
				"energy": -0.28003,
				"method": "rhf"
			},
			{
				"type": "occ",
				"energy": -0.26255,
				"method": "rhf"
			},
			{
				"type": "occ",
				"energy": -0.25328,
				"method": "rhf"
			},
			{
				"type": "occ",
				"energy": -0.24689,
				"method": "rhf"
			},
			{
				"type": "unocc",
				"energy": -0.02833,
				"method": "rhf"
			},
			{
				"type": "unocc",
				"energy": -0.00538,
				"method": "rhf"
			},
			{
				"type": "unocc",
				"energy": 0.01742,
				"method": "rhf"
			},
			{
				"type": "unocc",
				"energy": 0.05606,
				"method": "rhf"
			},
			{
				"type": "unocc",
				"energy": 0.05878,
				"method": "rhf"
			}
		],
		"cosmo_sigma_profile": { 
			"-0.025": 0.0,
			"-0.024": 0.0,
			"-0.023": 0.0,
			"-0.022": 0.0,
			"-0.021": 0.0,
			"-0.02": 0.0,
			"-0.019": 0.0,
			"-0.018": 0.0,
			"-0.017": 0.947947402732,
			"-0.016": 1.24741369277,
			"-0.015": 1.34073006212,
			"-0.014": 1.21053350079,
			"-0.013": 1.38229972171,
			"-0.012": 1.17548368465,
			"-0.011": 1.25557951381,
			"-0.01": 1.14093993759,
			"-0.009": 1.05502678609,
			"-0.008": 3.69342292022,
			"-0.007": 8.33973753509,
			"-0.006": 16.9707704897,
			"-0.005": 30.8600829628,
			"-0.004": 26.1728386363,
			"-0.003": 22.9792124476,
			"-0.002": 20.6185835863,
			"-0.001": 17.3035226592,
			"0.0": 13.2497145636,
			"0.001": 9.62476827152,
			"0.002": 10.9682305594,
			"0.003": 7.88925670298,
			"0.004": 7.81380075457,
			"0.005": 7.58275559048,
			"0.006": 6.36360272748,
			"0.007": 6.51730069001,
			"0.008": 6.46739253829,
			"0.009": 7.53843346446,
			"0.01": 7.83820693847,
			"0.011": 10.4421991961,
			"0.012": 10.5464571237,
			"0.013": 3.14012821706,
			"0.014": 1.05827148478,
			"0.015": 0.70069585358,
			"0.016": 0.165205398094,
			"0.017": 0.0,
			"0.018": 0.0,
			"0.019": 0.0,
			"0.02": 0.0,
			"0.021": 0.0,
			"0.022": 0.0,
			"0.023": 0.0,
			"0.024": 0.0,
			"0.025": 0.0
		}
	}
}
