{
	 "smiles": "OCC1CCCO1", 
	 "Tm": 193.15, 
	 "num_atms": 17, 
	 "gaussian": { 
		 "optdone": 1, 
		 "sigma_profile": "yes", 
		 "theory": "DFT", 
		 "functional": "B3LYP", 
		 "basiset": "6-31G**", 
		 "properties": { 
			 "R2extent": 987.6523, 
			 "electric_dipole_moment_norm": 1.98618072944, 
			 "electric_quadrupole_moment_norm": 3.94245707015, 
			 "total_energy": -346.989199183, 
			 "HOMO_LUMO_gap": 0.3301, 
			 "cosmo_polarized_energy": -6.48, 
			 "cosmo_cavitation_energy": 18.57, 
			 "cosmo_dispersion_energy": -14.27, 
			 "cosmo_repulsion_energy": 1.22, 
			 "cosmo_total_nonelectrostatic_energy": 5.52, 
			 "SMD_solvation_energy": 2.89 
		},
		"coords": [
			{
				"x": -0.7077700775,
				"y": -1.2250086896,
				"z": -0.9584490506,
				"element": "O" 
			},
			{
				"x": -0.9800665829,
				"y": -0.2393975651,
				"z": -1.9382698356,
				"element": "C" 
			},
			{
				"x": -0.6086014516,
				"y": 1.1532662853,
				"z": -1.4364223525,
				"element": "C" 
			},
			{
				"x": -1.323835839,
				"y": 1.5828184708,
				"z": -0.1253933853,
				"element": "C" 
			},
			{
				"x": -0.1798996238,
				"y": 1.7245407491,
				"z": 0.9002969042,
				"element": "C" 
			},
			{
				"x": 1.0352836476,
				"y": 1.9469240784,
				"z": -0.0029449207,
				"element": "C" 
			},
			{
				"x": 0.7994921068,
				"y": 1.1113523257,
				"z": -1.1343387481,
				"element": "O" 
			},
			{
				"x": 0.2146057734,
				"y": -1.0719263259,
				"z": -0.7045900365,
				"element": "H" 
			},
			{
				"x": -2.0522304572,
				"y": -0.2845581917,
				"z": -2.1576391192,
				"element": "H" 
			},
			{
				"x": -0.4357711114,
				"y": -0.4405839438,
				"z": -2.8747177626,
				"element": "H" 
			},
			{
				"x": -0.7871974386,
				"y": 1.8895576792,
				"z": -2.2355859113,
				"element": "H" 
			},
			{
				"x": -1.8449924811,
				"y": 2.5340034749,
				"z": -0.2698114612,
				"element": "H" 
			},
			{
				"x": -2.0574331161,
				"y": 0.8367283555,
				"z": 0.1883001482,
				"element": "H" 
			},
			{
				"x": -0.0571334431,
				"y": 0.7925337747,
				"z": 1.4610365774,
				"element": "H" 
			},
			{
				"x": -0.3369614763,
				"y": 2.5364678479,
				"z": 1.6161351967,
				"element": "H" 
			},
			{
				"x": 1.9897395903,
				"y": 1.6495353515,
				"z": 0.4408979465,
				"element": "H" 
			},
			{
				"x": 1.1104719804,
				"y": 3.0022463231,
				"z": -0.3128041896,
				"element": "H" 
			}
		],
		 "valence_orbital": [ 
			{
				"type": "occ",
				"energy": -0.34248,
				"method": "rhf"
			},
			{
				"type": "occ",
				"energy": -0.32271,
				"method": "rhf"
			},
			{
				"type": "occ",
				"energy": -0.31723,
				"method": "rhf"
			},
			{
				"type": "occ",
				"energy": -0.2668,
				"method": "rhf"
			},
			{
				"type": "occ",
				"energy": -0.25374,
				"method": "rhf"
			},
			{
				"type": "unocc",
				"energy": 0.07636,
				"method": "rhf"
			},
			{
				"type": "unocc",
				"energy": 0.10114,
				"method": "rhf"
			},
			{
				"type": "unocc",
				"energy": 0.1187,
				"method": "rhf"
			},
			{
				"type": "unocc",
				"energy": 0.13013,
				"method": "rhf"
			},
			{
				"type": "unocc",
				"energy": 0.13428,
				"method": "rhf"
			}
		],
		"cosmo_sigma_profile": { 
			"-0.025": 0.0,
			"-0.024": 0.0,
			"-0.023": 0.0,
			"-0.022": 0.0,
			"-0.021": 0.0,
			"-0.02": 0.0,
			"-0.019": 0.0,
			"-0.018": 0.0,
			"-0.017": 0.0,
			"-0.016": 0.0,
			"-0.015": 0.0,
			"-0.014": 0.0,
			"-0.013": 0.0,
			"-0.012": 0.361663637139,
			"-0.011": 0.762359799693,
			"-0.01": 0.266565989539,
			"-0.009": 0.557327168726,
			"-0.008": 0.309403253184,
			"-0.007": 1.01043956956,
			"-0.006": 1.05920762336,
			"-0.005": 3.28888086124,
			"-0.004": 13.2037082061,
			"-0.003": 29.4336405842,
			"-0.002": 25.8855225464,
			"-0.001": 15.9966791974,
			"0.0": 11.8744373763,
			"0.001": 7.80177707377,
			"0.002": 4.08776244326,
			"0.003": 2.03440759595,
			"0.004": 2.38993135355,
			"0.005": 2.12796023549,
			"0.006": 2.62077793245,
			"0.007": 1.51014345109,
			"0.008": 2.3112929278,
			"0.009": 2.33420626558,
			"0.01": 2.23013362126,
			"0.011": 1.46511302694,
			"0.012": 2.29333451528,
			"0.013": 2.67887304276,
			"0.014": 2.52140236904,
			"0.015": 1.10062848674,
			"0.016": 0.0,
			"0.017": 0.0,
			"0.018": 0.0,
			"0.019": 0.0,
			"0.02": 0.0,
			"0.021": 0.0,
			"0.022": 0.0,
			"0.023": 0.0,
			"0.024": 0.0,
			"0.025": 0.0
		}
	}
}
