{
	 "smiles": "OC(=O)CNS(=O)(=O)C1=CC=C(Cl)S1", 
	 "Tm": 416.15, 
	 "num_atms": 20, 
	 "gaussian": { 
		 "optdone": 1, 
		 "sigma_profile": "yes", 
		 "theory": "DFT", 
		 "functional": "B3LYP", 
		 "basiset": "6-31G**", 
		 "properties": { 
			 "R2extent": 5284.8041, 
			 "electric_dipole_moment_norm": 5.4299793646, 
			 "electric_quadrupole_moment_norm": 21.1292775511, 
			 "total_energy": -1844.37278576, 
			 "HOMO_LUMO_gap": 0.19092, 
			 "cosmo_polarized_energy": -22.54, 
			 "cosmo_cavitation_energy": 30.09, 
			 "cosmo_dispersion_energy": -22.43, 
			 "cosmo_repulsion_energy": 1.7, 
			 "cosmo_total_nonelectrostatic_energy": 9.36, 
			 "SMD_solvation_energy": 5.0 
		},
		"coords": [
			{
				"x": 1.2862732979,
				"y": -2.6915449914,
				"z": -0.8994130276,
				"element": "O" 
			},
			{
				"x": 0.5865545131,
				"y": -1.8108096051,
				"z": -1.6248528085,
				"element": "C" 
			},
			{
				"x": 0.700785649,
				"y": -1.6991932658,
				"z": -2.8202541686,
				"element": "O" 
			},
			{
				"x": -0.4315621221,
				"y": -0.9545068461,
				"z": -0.8532985009,
				"element": "C" 
			},
			{
				"x": -0.3967128954,
				"y": -1.1481546616,
				"z": 0.601270869,
				"element": "N" 
			},
			{
				"x": 0.4999227651,
				"y": -0.0826521033,
				"z": 1.5674986098,
				"element": "S" 
			},
			{
				"x": 0.17224414,
				"y": -0.4660698702,
				"z": 2.937719232,
				"element": "O" 
			},
			{
				"x": 1.8511974216,
				"y": -0.1020621671,
				"z": 1.0154916213,
				"element": "O" 
			},
			{
				"x": -0.1364570739,
				"y": 1.5439562356,
				"z": 1.2834746207,
				"element": "C" 
			},
			{
				"x": 0.3854104182,
				"y": 2.4652741133,
				"z": 0.4094714853,
				"element": "C" 
			},
			{
				"x": -0.3608317813,
				"y": 3.675912138,
				"z": 0.3795389931,
				"element": "C" 
			},
			{
				"x": -1.4316632468,
				"y": 3.6360856744,
				"z": 1.2343364313,
				"element": "C" 
			},
			{
				"x": -2.5772310435,
				"y": 4.8963223113,
				"z": 1.5096298466,
				"element": "Cl" 
			},
			{
				"x": -1.5529360657,
				"y": 2.1369188662,
				"z": 2.1126535197,
				"element": "S" 
			},
			{
				"x": 1.057890948,
				"y": -2.5631459539,
				"z": 0.0391111178,
				"element": "H" 
			},
			{
				"x": -0.2748071123,
				"y": 0.0906129438,
				"z": -1.1407668328,
				"element": "H" 
			},
			{
				"x": -1.4245026264,
				"y": -1.2320189608,
				"z": -1.2174144235,
				"element": "H" 
			},
			{
				"x": -1.2863530702,
				"y": -1.3608973988,
				"z": 1.0423229293,
				"element": "H" 
			},
			{
				"x": 1.2823201178,
				"y": 2.2791678662,
				"z": -0.1690658612,
				"element": "H" 
			},
			{
				"x": -0.1185422331,
				"y": 4.5345056752,
				"z": -0.2336536526,
				"element": "H" 
			}
		],
		 "valence_orbital": [ 
			{
				"type": "occ",
				"energy": -0.33206,
				"method": "rhf"
			},
			{
				"type": "occ",
				"energy": -0.31447,
				"method": "rhf"
			},
			{
				"type": "occ",
				"energy": -0.29976,
				"method": "rhf"
			},
			{
				"type": "occ",
				"energy": -0.2746,
				"method": "rhf"
			},
			{
				"type": "occ",
				"energy": -0.26824,
				"method": "rhf"
			},
			{
				"type": "unocc",
				"energy": -0.07732,
				"method": "rhf"
			},
			{
				"type": "unocc",
				"energy": -0.02362,
				"method": "rhf"
			},
			{
				"type": "unocc",
				"energy": -0.01121,
				"method": "rhf"
			},
			{
				"type": "unocc",
				"energy": 0.00367,
				"method": "rhf"
			},
			{
				"type": "unocc",
				"energy": 0.009,
				"method": "rhf"
			}
		],
		"cosmo_sigma_profile": { 
			"-0.025": 0.0,
			"-0.024": 0.0,
			"-0.023": 0.0,
			"-0.022": 0.0,
			"-0.021": 0.0,
			"-0.02": 0.0,
			"-0.019": 0.0,
			"-0.018": 0.0,
			"-0.017": 0.322026223141,
			"-0.016": 1.30306357346,
			"-0.015": 1.91393885693,
			"-0.014": 1.65247505364,
			"-0.013": 2.34619477118,
			"-0.012": 2.13317206735,
			"-0.011": 2.84799988237,
			"-0.01": 4.01413525338,
			"-0.009": 7.29635201823,
			"-0.008": 8.42286372418,
			"-0.007": 10.1914666045,
			"-0.006": 9.83561051028,
			"-0.005": 8.87397619648,
			"-0.004": 9.10402107023,
			"-0.003": 11.7147410358,
			"-0.002": 14.2502390791,
			"-0.001": 17.9860367281,
			"0.0": 21.7966361891,
			"0.001": 19.6952196893,
			"0.002": 15.237919351,
			"0.003": 11.0742917428,
			"0.004": 5.20059927078,
			"0.005": 4.13745158707,
			"0.006": 5.97095367979,
			"0.007": 5.23464801498,
			"0.008": 6.40448089915,
			"0.009": 10.7716563714,
			"0.01": 12.6012882087,
			"0.011": 6.39994510841,
			"0.012": 5.22247098162,
			"0.013": 1.72587714254,
			"0.014": 0.0,
			"0.015": 0.0,
			"0.016": 0.0,
			"0.017": 0.0,
			"0.018": 0.0,
			"0.019": 0.0,
			"0.02": 0.0,
			"0.021": 0.0,
			"0.022": 0.0,
			"0.023": 0.0,
			"0.024": 0.0,
			"0.025": 0.0
		}
	}
}
