{
	 "smiles": "CC(C)OC1=CC(=CN=C1)C(O)=O", 
	 "Tm": 446.15, 
	 "num_atms": 24, 
	 "gaussian": { 
		 "optdone": 1, 
		 "sigma_profile": "yes", 
		 "theory": "DFT", 
		 "functional": "B3LYP", 
		 "basiset": "6-31G**", 
		 "properties": { 
			 "R2extent": 3904.3736, 
			 "electric_dipole_moment_norm": 5.40554341487, 
			 "electric_quadrupole_moment_norm": 15.8693388151, 
			 "total_energy": -630.003725719, 
			 "HOMO_LUMO_gap": 0.1965, 
			 "cosmo_polarized_energy": -16.71, 
			 "cosmo_cavitation_energy": 27.94, 
			 "cosmo_dispersion_energy": -19.91, 
			 "cosmo_repulsion_energy": 1.58, 
			 "cosmo_total_nonelectrostatic_energy": 9.61, 
			 "SMD_solvation_energy": 4.63 
		},
		"coords": [
			{
				"x": -0.795515769,
				"y": -0.4256528717,
				"z": 1.3477673334,
				"element": "C" 
			},
			{
				"x": 0.2230080643,
				"y": 0.2292976201,
				"z": 2.2783284892,
				"element": "C" 
			},
			{
				"x": 1.3785711082,
				"y": -0.7003595873,
				"z": 2.6413452266,
				"element": "C" 
			},
			{
				"x": 0.6894894269,
				"y": 1.5091514609,
				"z": 1.7566893422,
				"element": "O" 
			},
			{
				"x": 1.3720377534,
				"y": 1.5442067782,
				"z": 0.5701074747,
				"element": "C" 
			},
			{
				"x": 0.7093171486,
				"y": 1.8199481258,
				"z": -0.6276900507,
				"element": "C" 
			},
			{
				"x": 1.4539204924,
				"y": 1.9236271319,
				"z": -1.8076157158,
				"element": "C" 
			},
			{
				"x": 2.84094954,
				"y": 1.7308467887,
				"z": -1.7339978371,
				"element": "C" 
			},
			{
				"x": 3.4897510804,
				"y": 1.496322292,
				"z": -0.5906332355,
				"element": "N" 
			},
			{
				"x": 2.7681273041,
				"y": 1.4116141217,
				"z": 0.5320645863,
				"element": "C" 
			},
			{
				"x": 0.8446808578,
				"y": 2.1968606391,
				"z": -3.1493094524,
				"element": "C" 
			},
			{
				"x": -0.3606843832,
				"y": 2.8273450064,
				"z": -3.1539296143,
				"element": "O" 
			},
			{
				"x": 1.3703254228,
				"y": 1.8831580064,
				"z": -4.1901038067,
				"element": "O" 
			},
			{
				"x": -1.2223052013,
				"y": -1.3111454094,
				"z": 1.829269504,
				"element": "H" 
			},
			{
				"x": -1.6139497733,
				"y": 0.2632526563,
				"z": 1.1190139075,
				"element": "H" 
			},
			{
				"x": -0.3347074758,
				"y": -0.7474911058,
				"z": 0.4084099877,
				"element": "H" 
			},
			{
				"x": -0.2839013923,
				"y": 0.5387690322,
				"z": 3.1975857449,
				"element": "H" 
			},
			{
				"x": 2.0851046508,
				"y": -0.1994947586,
				"z": 3.3090227431,
				"element": "H" 
			},
			{
				"x": 0.9919276835,
				"y": -1.5856758211,
				"z": 3.1562955814,
				"element": "H" 
			},
			{
				"x": 1.9179617958,
				"y": -1.0419043267,
				"z": 1.7523203273,
				"element": "H" 
			},
			{
				"x": -0.3718513375,
				"y": 1.9263319055,
				"z": -0.6116444151,
				"element": "H" 
			},
			{
				"x": 3.4327793215,
				"y": 1.7862081261,
				"z": -2.6433568565,
				"element": "H" 
			},
			{
				"x": 3.3117016342,
				"y": 1.2396792564,
				"z": 1.4582131008,
				"element": "H" 
			},
			{
				"x": -0.5683379525,
				"y": 3.1646049328,
				"z": -2.2714523651,
				"element": "H" 
			}
		],
		 "valence_orbital": [ 
			{
				"type": "occ",
				"energy": -0.30383,
				"method": "rhf"
			},
			{
				"type": "occ",
				"energy": -0.30147,
				"method": "rhf"
			},
			{
				"type": "occ",
				"energy": -0.28548,
				"method": "rhf"
			},
			{
				"type": "occ",
				"energy": -0.26419,
				"method": "rhf"
			},
			{
				"type": "occ",
				"energy": -0.25956,
				"method": "rhf"
			},
			{
				"type": "unocc",
				"energy": -0.06306,
				"method": "rhf"
			},
			{
				"type": "unocc",
				"energy": -0.03647,
				"method": "rhf"
			},
			{
				"type": "unocc",
				"energy": 0.03482,
				"method": "rhf"
			},
			{
				"type": "unocc",
				"energy": 0.05478,
				"method": "rhf"
			},
			{
				"type": "unocc",
				"energy": 0.07628,
				"method": "rhf"
			}
		],
		"cosmo_sigma_profile": { 
			"-0.025": 0.0,
			"-0.024": 0.0,
			"-0.023": 0.0,
			"-0.022": 0.0,
			"-0.021": 0.0,
			"-0.02": 0.0,
			"-0.019": 0.727098672499,
			"-0.018": 1.0111742731,
			"-0.017": 1.49833262142,
			"-0.016": 0.869197523146,
			"-0.015": 0.683835365677,
			"-0.014": 1.10597019178,
			"-0.013": 1.04831419504,
			"-0.012": 1.35374686022,
			"-0.011": 1.1843598765,
			"-0.01": 0.835396628831,
			"-0.009": 1.39986734343,
			"-0.008": 1.88618671294,
			"-0.007": 3.61487332515,
			"-0.006": 4.49647391712,
			"-0.005": 10.1475605845,
			"-0.004": 23.2139310236,
			"-0.003": 22.4737442186,
			"-0.002": 21.7360041079,
			"-0.001": 22.6870144556,
			"0.0": 22.8707087157,
			"0.001": 10.9550941039,
			"0.002": 6.21448809449,
			"0.003": 5.35206508435,
			"0.004": 5.11678516849,
			"0.005": 5.12934906107,
			"0.006": 5.34310348728,
			"0.007": 4.5881057352,
			"0.008": 4.16651336836,
			"0.009": 5.72541572458,
			"0.01": 8.2115203245,
			"0.011": 7.15273336329,
			"0.012": 4.83285030929,
			"0.013": 1.55088358319,
			"0.014": 0.687779819539,
			"0.015": 1.00674351364,
			"0.016": 0.210349252235,
			"0.017": 0.0,
			"0.018": 0.0,
			"0.019": 0.0,
			"0.02": 0.0,
			"0.021": 0.0,
			"0.022": 0.0,
			"0.023": 0.0,
			"0.024": 0.0,
			"0.025": 0.0
		}
	}
}
