{
	 "smiles": "CC(C)(C)OC(=O)NC1=CC(=CC(O)=C1)C(O)=O", 
	 "Tm": 423.15, 
	 "num_atms": 33, 
	 "gaussian": { 
		 "optdone": 1, 
		 "sigma_profile": "yes", 
		 "theory": "DFT", 
		 "functional": "B3LYP", 
		 "basiset": "6-31G**", 
		 "properties": { 
			 "R2extent": 6311.9934, 
			 "electric_dipole_moment_norm": 1.23534175433, 
			 "electric_quadrupole_moment_norm": 16.1024439313, 
			 "total_energy": -897.242099771, 
			 "HOMO_LUMO_gap": 0.17248, 
			 "cosmo_polarized_energy": -20.03, 
			 "cosmo_cavitation_energy": 37.16, 
			 "cosmo_dispersion_energy": -25.71, 
			 "cosmo_repulsion_energy": 1.97, 
			 "cosmo_total_nonelectrostatic_energy": 13.42, 
			 "SMD_solvation_energy": 9.01 
		},
		"coords": [
			{
				"x": -1.5544820473,
				"y": -1.5069461423,
				"z": -2.6391970456,
				"element": "C" 
			},
			{
				"x": -1.5666651598,
				"y": -1.2555814152,
				"z": -1.1287130515,
				"element": "C" 
			},
			{
				"x": -0.9998181935,
				"y": -2.4565912126,
				"z": -0.3687096832,
				"element": "C" 
			},
			{
				"x": -2.9574610743,
				"y": -0.8832896249,
				"z": -0.6071951492,
				"element": "C" 
			},
			{
				"x": -0.6030071087,
				"y": -0.1822968162,
				"z": -0.7928029867,
				"element": "O" 
			},
			{
				"x": -0.7550400598,
				"y": 1.0572988941,
				"z": -1.2787105335,
				"element": "C" 
			},
			{
				"x": -1.6447043743,
				"y": 1.4514742442,
				"z": -2.0145648204,
				"element": "O" 
			},
			{
				"x": 0.2402616788,
				"y": 1.925660785,
				"z": -0.8585308564,
				"element": "N" 
			},
			{
				"x": 1.3724237192,
				"y": 1.7917118989,
				"z": -0.0358767822,
				"element": "C" 
			},
			{
				"x": 1.7608862455,
				"y": 0.6069045741,
				"z": 0.5975397904,
				"element": "C" 
			},
			{
				"x": 2.912806859,
				"y": 0.6022231755,
				"z": 1.3938148792,
				"element": "C" 
			},
			{
				"x": 3.6900082301,
				"y": 1.7470834283,
				"z": 1.5771172263,
				"element": "C" 
			},
			{
				"x": 3.2954701538,
				"y": 2.9270982713,
				"z": 0.9411516779,
				"element": "C" 
			},
			{
				"x": 4.0721489017,
				"y": 4.0324139798,
				"z": 1.1363859662,
				"element": "O" 
			},
			{
				"x": 2.150864503,
				"y": 2.9506081965,
				"z": 0.1440629952,
				"element": "C" 
			},
			{
				"x": 3.2739847584,
				"y": -0.6906835133,
				"z": 2.0415918855,
				"element": "C" 
			},
			{
				"x": 4.3997105024,
				"y": -0.6135452698,
				"z": 2.7941566779,
				"element": "O" 
			},
			{
				"x": 2.6471336932,
				"y": -1.7259794244,
				"z": 1.9284492115,
				"element": "O" 
			},
			{
				"x": -2.1793464002,
				"y": -2.3763920714,
				"z": -2.8674178679,
				"element": "H" 
			},
			{
				"x": -0.5371515719,
				"y": -1.7221431065,
				"z": -2.9806365823,
				"element": "H" 
			},
			{
				"x": -1.9381539261,
				"y": -0.6445521726,
				"z": -3.1846715898,
				"element": "H" 
			},
			{
				"x": -1.6320995002,
				"y": -3.3335865114,
				"z": -0.5360418989,
				"element": "H" 
			},
			{
				"x": 0.0132145619,
				"y": -2.6900516112,
				"z": -0.7080446388,
				"element": "H" 
			},
			{
				"x": -0.9628339197,
				"y": -2.256124895,
				"z": 0.7056888647,
				"element": "H" 
			},
			{
				"x": -2.9157654008,
				"y": -0.6649797705,
				"z": 0.4644649592,
				"element": "H" 
			},
			{
				"x": -3.6382961073,
				"y": -1.7278233847,
				"z": -0.7545282083,
				"element": "H" 
			},
			{
				"x": -3.3550292969,
				"y": -0.0145921448,
				"z": -1.1323382083,
				"element": "H" 
			},
			{
				"x": 0.0829794105,
				"y": 2.8436200998,
				"z": -1.2496671697,
				"element": "H" 
			},
			{
				"x": 1.1949303097,
				"y": -0.3034740741,
				"z": 0.4877615148,
				"element": "H" 
			},
			{
				"x": 4.5793293662,
				"y": 1.7378174221,
				"z": 2.1935510182,
				"element": "H" 
			},
			{
				"x": 3.7000117508,
				"y": 4.7789710418,
				"z": 0.649547053,
				"element": "H" 
			},
			{
				"x": 1.8560051561,
				"y": 3.8777304098,
				"z": -0.3451939674,
				"element": "H" 
			},
			{
				"x": 4.5318843404,
				"y": -1.5034832606,
				"z": 3.15965732,
				"element": "H" 
			}
		],
		 "valence_orbital": [ 
			{
				"type": "occ",
				"energy": -0.29472,
				"method": "rhf"
			},
			{
				"type": "occ",
				"energy": -0.27595,
				"method": "rhf"
			},
			{
				"type": "occ",
				"energy": -0.27324,
				"method": "rhf"
			},
			{
				"type": "occ",
				"energy": -0.24406,
				"method": "rhf"
			},
			{
				"type": "occ",
				"energy": -0.21956,
				"method": "rhf"
			},
			{
				"type": "unocc",
				"energy": -0.04708,
				"method": "rhf"
			},
			{
				"type": "unocc",
				"energy": -0.00229,
				"method": "rhf"
			},
			{
				"type": "unocc",
				"energy": 0.05186,
				"method": "rhf"
			},
			{
				"type": "unocc",
				"energy": 0.06025,
				"method": "rhf"
			},
			{
				"type": "unocc",
				"energy": 0.07068,
				"method": "rhf"
			}
		],
		"cosmo_sigma_profile": { 
			"-0.025": 0.0,
			"-0.024": 0.0,
			"-0.023": 0.0,
			"-0.022": 0.0,
			"-0.021": 0.0,
			"-0.02": 0.0,
			"-0.019": 0.0532495177462,
			"-0.018": 1.90294230864,
			"-0.017": 2.11556698067,
			"-0.016": 2.08376475561,
			"-0.015": 2.72951943702,
			"-0.014": 2.69608190124,
			"-0.013": 2.48165514926,
			"-0.012": 2.65689340714,
			"-0.011": 3.34799657913,
			"-0.01": 3.56196886285,
			"-0.009": 2.80511196654,
			"-0.008": 2.65164032101,
			"-0.007": 2.88227289177,
			"-0.006": 3.31371062479,
			"-0.005": 5.22028366354,
			"-0.004": 16.3015222024,
			"-0.003": 19.7028739159,
			"-0.002": 20.6240425439,
			"-0.001": 27.6850819703,
			"0.0": 35.3317667923,
			"0.001": 25.4512365428,
			"0.002": 21.6980584214,
			"0.003": 25.3353860312,
			"0.004": 10.6464502033,
			"0.005": 6.192652155,
			"0.006": 6.56197063892,
			"0.007": 6.79819527912,
			"0.008": 5.04440429039,
			"0.009": 4.35333440969,
			"0.01": 4.66654535573,
			"0.011": 7.55492808835,
			"0.012": 5.67616960498,
			"0.013": 2.83959960605,
			"0.014": 0.115599797406,
			"0.015": 0.0,
			"0.016": 0.0,
			"0.017": 0.0,
			"0.018": 0.0,
			"0.019": 0.0,
			"0.02": 0.0,
			"0.021": 0.0,
			"0.022": 0.0,
			"0.023": 0.0,
			"0.024": 0.0,
			"0.025": 0.0
		}
	}
}
