{
	 "smiles": "CCOC(=O)C1=C(N)C(=CN1C)C#N", 
	 "Tm": 433.15, 
	 "num_atms": 25, 
	 "gaussian": { 
		 "optdone": 1, 
		 "sigma_profile": "yes", 
		 "theory": "DFT", 
		 "functional": "B3LYP", 
		 "basiset": "6-31G**", 
		 "properties": { 
			 "R2extent": 3321.3295, 
			 "electric_dipole_moment_norm": 3.94702612482, 
			 "electric_quadrupole_moment_norm": 28.8735373912, 
			 "total_energy": -664.292701955, 
			 "HOMO_LUMO_gap": 0.18036, 
			 "cosmo_polarized_energy": -15.34, 
			 "cosmo_cavitation_energy": 29.97, 
			 "cosmo_dispersion_energy": -21.03, 
			 "cosmo_repulsion_energy": 1.67, 
			 "cosmo_total_nonelectrostatic_energy": 10.61, 
			 "SMD_solvation_energy": 7.73 
		},
		"coords": [
			{
				"x": -3.5498225393,
				"y": -1.0569180136,
				"z": 0.4462831651,
				"element": "C" 
			},
			{
				"x": -2.7723678329,
				"y": -0.008123461,
				"z": 1.2271475378,
				"element": "C" 
			},
			{
				"x": -1.3448242765,
				"y": -0.1591535859,
				"z": 1.0388795249,
				"element": "O" 
			},
			{
				"x": -0.8125523391,
				"y": 0.4499997353,
				"z": -0.066035893,
				"element": "C" 
			},
			{
				"x": -1.4849958713,
				"y": 1.1108335371,
				"z": -0.8447414816,
				"element": "O" 
			},
			{
				"x": 0.6100714553,
				"y": 0.2101803424,
				"z": -0.1608081805,
				"element": "C" 
			},
			{
				"x": 1.4617391743,
				"y": -0.5354434747,
				"z": 0.6704632983,
				"element": "C" 
			},
			{
				"x": 1.1266665121,
				"y": -1.2912579435,
				"z": 1.7581851402,
				"element": "N" 
			},
			{
				"x": 2.7797517972,
				"y": -0.409401103,
				"z": 0.127226476,
				"element": "C" 
			},
			{
				"x": 2.6790382982,
				"y": 0.3959532105,
				"z": -1.0088914797,
				"element": "C" 
			},
			{
				"x": 1.3979931295,
				"y": 0.7643422227,
				"z": -1.1866618176,
				"element": "N" 
			},
			{
				"x": 0.9275946925,
				"y": 1.6114027879,
				"z": -2.2777960549,
				"element": "C" 
			},
			{
				"x": 3.9493406699,
				"y": -0.9946802489,
				"z": 0.6657523444,
				"element": "C" 
			},
			{
				"x": 4.8866402799,
				"y": -1.4907694228,
				"z": 1.1503381126,
				"element": "N" 
			},
			{
				"x": -3.2256271669,
				"y": -2.0661987294,
				"z": 0.7167495895,
				"element": "H" 
			},
			{
				"x": -4.6187328527,
				"y": -0.967885388,
				"z": 0.6676133612,
				"element": "H" 
			},
			{
				"x": -3.4090212215,
				"y": -0.9154811453,
				"z": -0.6278706446,
				"element": "H" 
			},
			{
				"x": -2.9176414092,
				"y": -0.1208640677,
				"z": 2.3044864885,
				"element": "H" 
			},
			{
				"x": -3.0609865918,
				"y": 1.0013641296,
				"z": 0.9268085327,
				"element": "H" 
			},
			{
				"x": 0.2145500005,
				"y": -1.1257910447,
				"z": 2.1555205514,
				"element": "H" 
			},
			{
				"x": 1.8701752134,
				"y": -1.5386530107,
				"z": 2.3936728489,
				"element": "H" 
			},
			{
				"x": 3.4580879899,
				"y": 0.7159507454,
				"z": -1.6850960757,
				"element": "H" 
			},
			{
				"x": 0.4703363271,
				"y": 2.5221292814,
				"z": -1.8881658394,
				"element": "H" 
			},
			{
				"x": 0.1795850184,
				"y": 1.0878878532,
				"z": -2.8748143076,
				"element": "H" 
			},
			{
				"x": 1.7876015429,
				"y": 1.8652767938,
				"z": -2.9001451968,
				"element": "H" 
			}
		],
		 "valence_orbital": [ 
			{
				"type": "occ",
				"energy": -0.32294,
				"method": "rhf"
			},
			{
				"type": "occ",
				"energy": -0.30144,
				"method": "rhf"
			},
			{
				"type": "occ",
				"energy": -0.27715,
				"method": "rhf"
			},
			{
				"type": "occ",
				"energy": -0.23901,
				"method": "rhf"
			},
			{
				"type": "occ",
				"energy": -0.20915,
				"method": "rhf"
			},
			{
				"type": "unocc",
				"energy": -0.02879,
				"method": "rhf"
			},
			{
				"type": "unocc",
				"energy": -0.00162,
				"method": "rhf"
			},
			{
				"type": "unocc",
				"energy": 0.03271,
				"method": "rhf"
			},
			{
				"type": "unocc",
				"energy": 0.08674,
				"method": "rhf"
			},
			{
				"type": "unocc",
				"energy": 0.09042,
				"method": "rhf"
			}
		],
		"cosmo_sigma_profile": { 
			"-0.025": 0.0,
			"-0.024": 0.0,
			"-0.023": 0.0,
			"-0.022": 0.0,
			"-0.021": 0.0,
			"-0.02": 0.0,
			"-0.019": 0.0,
			"-0.018": 0.0,
			"-0.017": 0.0,
			"-0.016": 0.0,
			"-0.015": 0.0,
			"-0.014": 0.0857918205869,
			"-0.013": 0.96710173086,
			"-0.012": 1.14458174238,
			"-0.011": 1.12159684283,
			"-0.01": 5.80431041306,
			"-0.009": 4.68845362383,
			"-0.008": 4.55622822036,
			"-0.007": 4.99211348969,
			"-0.006": 7.37396841982,
			"-0.005": 12.5268819871,
			"-0.004": 18.5563179049,
			"-0.003": 23.9588369467,
			"-0.002": 18.1394946115,
			"-0.001": 18.3422296011,
			"0.0": 20.6666511482,
			"0.001": 19.2622578624,
			"0.002": 16.2005055176,
			"0.003": 8.24131697432,
			"0.004": 5.91233530257,
			"0.005": 5.67690526896,
			"0.006": 4.54418080504,
			"0.007": 4.49549735539,
			"0.008": 4.84773959768,
			"0.009": 5.58906584897,
			"0.01": 5.79613404681,
			"0.011": 4.95706927782,
			"0.012": 5.51028356752,
			"0.013": 3.7710530638,
			"0.014": 1.0109756613,
			"0.015": 0.0,
			"0.016": 0.0,
			"0.017": 0.0,
			"0.018": 0.0,
			"0.019": 0.0,
			"0.02": 0.0,
			"0.021": 0.0,
			"0.022": 0.0,
			"0.023": 0.0,
			"0.024": 0.0,
			"0.025": 0.0
		}
	}
}
