{
	 "smiles": "CCOC(=O)C1=NNC2=C1C=CC=C2", 
	 "Tm": 406.15, 
	 "num_atms": 24, 
	 "gaussian": { 
		 "optdone": 1, 
		 "sigma_profile": "yes", 
		 "theory": "DFT", 
		 "functional": "B3LYP", 
		 "basiset": "6-31G**", 
		 "properties": { 
			 "R2extent": 3339.2298, 
			 "electric_dipole_moment_norm": 2.41641301313, 
			 "electric_quadrupole_moment_norm": 12.5331589466, 
			 "total_energy": -647.045026765, 
			 "HOMO_LUMO_gap": 0.18149, 
			 "cosmo_polarized_energy": -13.61, 
			 "cosmo_cavitation_energy": 28.49, 
			 "cosmo_dispersion_energy": -21.15, 
			 "cosmo_repulsion_energy": 1.68, 
			 "cosmo_total_nonelectrostatic_energy": 9.02, 
			 "SMD_solvation_energy": 4.89 
		},
		"coords": [
			{
				"x": -0.9777727071,
				"y": 1.0729570124,
				"z": -4.0289492664,
				"element": "C" 
			},
			{
				"x": -1.4147856627,
				"y": 1.8915570639,
				"z": -2.8229680901,
				"element": "C" 
			},
			{
				"x": -1.6309502024,
				"y": 1.0504613421,
				"z": -1.6660813464,
				"element": "O" 
			},
			{
				"x": -0.5451560579,
				"y": 0.7684420304,
				"z": -0.9221046171,
				"element": "C" 
			},
			{
				"x": 0.5790083251,
				"y": 1.1768859276,
				"z": -1.1608029118,
				"element": "O" 
			},
			{
				"x": -0.8475561938,
				"y": -0.0947571023,
				"z": 0.2363852521,
				"element": "C" 
			},
			{
				"x": -2.0698131302,
				"y": -0.5459613139,
				"z": 0.5018851471,
				"element": "N" 
			},
			{
				"x": -1.9517056191,
				"y": -1.2891468313,
				"z": 1.6182102408,
				"element": "N" 
			},
			{
				"x": -0.666478082,
				"y": -1.3396657614,
				"z": 2.1013030749,
				"element": "C" 
			},
			{
				"x": 0.1025025259,
				"y": -0.5563717046,
				"z": 1.2087372409,
				"element": "C" 
			},
			{
				"x": 1.4837883852,
				"y": -0.403445066,
				"z": 1.426870876,
				"element": "C" 
			},
			{
				"x": 2.0432544996,
				"y": -1.0371672723,
				"z": 2.5252462361,
				"element": "C" 
			},
			{
				"x": 1.2572228393,
				"y": -1.8168302246,
				"z": 3.4071123397,
				"element": "C" 
			},
			{
				"x": -0.1059097306,
				"y": -1.9834026718,
				"z": 3.214797977,
				"element": "C" 
			},
			{
				"x": -1.7025183245,
				"y": 0.2827605729,
				"z": -4.2456104942,
				"element": "H" 
			},
			{
				"x": -0.0003320845,
				"y": 0.61831079,
				"z": -3.8503396576,
				"element": "H" 
			},
			{
				"x": -0.9000123077,
				"y": 1.7202999929,
				"z": -4.9090082681,
				"element": "H" 
			},
			{
				"x": -0.6720359247,
				"y": 2.653430297,
				"z": -2.5743094582,
				"element": "H" 
			},
			{
				"x": -2.3828179656,
				"y": 2.3687765995,
				"z": -2.9929142498,
				"element": "H" 
			},
			{
				"x": -2.776848993,
				"y": -1.7295114059,
				"z": 1.9944517255,
				"element": "H" 
			},
			{
				"x": 2.0743200034,
				"y": 0.1963782832,
				"z": 0.7444982301,
				"element": "H" 
			},
			{
				"x": 3.1069447611,
				"y": -0.9370741774,
				"z": 2.7188875788,
				"element": "H" 
			},
			{
				"x": 1.7349336329,
				"y": -2.2967146632,
				"z": 4.2563086123,
				"element": "H" 
			},
			{
				"x": -0.7062819867,
				"y": -2.5819117173,
				"z": 3.8928938287,
				"element": "H" 
			}
		],
		 "valence_orbital": [ 
			{
				"type": "occ",
				"energy": -0.29481,
				"method": "rhf"
			},
			{
				"type": "occ",
				"energy": -0.2901,
				"method": "rhf"
			},
			{
				"type": "occ",
				"energy": -0.26956,
				"method": "rhf"
			},
			{
				"type": "occ",
				"energy": -0.24748,
				"method": "rhf"
			},
			{
				"type": "occ",
				"energy": -0.22804,
				"method": "rhf"
			},
			{
				"type": "unocc",
				"energy": -0.04655,
				"method": "rhf"
			},
			{
				"type": "unocc",
				"energy": -0.00138,
				"method": "rhf"
			},
			{
				"type": "unocc",
				"energy": 0.01508,
				"method": "rhf"
			},
			{
				"type": "unocc",
				"energy": 0.07738,
				"method": "rhf"
			},
			{
				"type": "unocc",
				"energy": 0.09755,
				"method": "rhf"
			}
		],
		"cosmo_sigma_profile": { 
			"-0.025": 0.0,
			"-0.024": 0.0,
			"-0.023": 0.0,
			"-0.022": 0.0,
			"-0.021": 0.0,
			"-0.02": 0.0,
			"-0.019": 0.0,
			"-0.018": 0.0,
			"-0.017": 1.57582692046,
			"-0.016": 1.44021656474,
			"-0.015": 1.63810914677,
			"-0.014": 0.932843633964,
			"-0.013": 1.00434169932,
			"-0.012": 1.15069263365,
			"-0.011": 1.41082510722,
			"-0.01": 0.588830002069,
			"-0.009": 1.08516539564,
			"-0.008": 1.49605381618,
			"-0.007": 2.82734132942,
			"-0.006": 7.90630389241,
			"-0.005": 12.3996941308,
			"-0.004": 18.5576271607,
			"-0.003": 19.4524005873,
			"-0.002": 18.0283952316,
			"-0.001": 17.4642812885,
			"0.0": 18.3539472173,
			"0.001": 17.5929348689,
			"0.002": 15.2724577031,
			"0.003": 15.4563236491,
			"0.004": 14.2032549296,
			"0.005": 9.28871695981,
			"0.006": 3.27117634171,
			"0.007": 3.45981150105,
			"0.008": 3.51630716502,
			"0.009": 3.3766781294,
			"0.01": 3.18118102167,
			"0.011": 4.14062710493,
			"0.012": 3.6360823387,
			"0.013": 1.42274082005,
			"0.014": 1.56040795368,
			"0.015": 0.734350513534,
			"0.016": 0.0283818537265,
			"0.017": 0.0,
			"0.018": 0.0,
			"0.019": 0.0,
			"0.02": 0.0,
			"0.021": 0.0,
			"0.022": 0.0,
			"0.023": 0.0,
			"0.024": 0.0,
			"0.025": 0.0
		}
	}
}
