{
	 "smiles": "OC(=O)C1=C(C2CC2)N(N=N1)C1=CC(F)=CC=C1", 
	 "Tm": 423.15, 
	 "num_atms": 28, 
	 "gaussian": { 
		 "optdone": 1, 
		 "sigma_profile": "yes", 
		 "theory": "DFT", 
		 "functional": "B3LYP", 
		 "basiset": "6-31G**", 
		 "properties": { 
			 "R2extent": 5321.0489, 
			 "electric_dipole_moment_norm": 3.4094924505, 
			 "electric_quadrupole_moment_norm": 13.9680992161, 
			 "total_energy": -877.782464665, 
			 "HOMO_LUMO_gap": 0.20499, 
			 "cosmo_polarized_energy": -16.89, 
			 "cosmo_cavitation_energy": 33.43, 
			 "cosmo_dispersion_energy": -23.29, 
			 "cosmo_repulsion_energy": 1.78, 
			 "cosmo_total_nonelectrostatic_energy": 11.91, 
			 "SMD_solvation_energy": 5.53 
		},
		"coords": [
			{
				"x": 1.7963602341,
				"y": -4.2823808246,
				"z": 2.5763051615,
				"element": "O" 
			},
			{
				"x": 0.868312964,
				"y": -3.3408328909,
				"z": 2.3038885605,
				"element": "C" 
			},
			{
				"x": -0.1236234053,
				"y": -3.1748391379,
				"z": 2.9902764068,
				"element": "O" 
			},
			{
				"x": 1.1897576731,
				"y": -2.5571554742,
				"z": 1.1004424015,
				"element": "C" 
			},
			{
				"x": 0.4839646112,
				"y": -1.4718439328,
				"z": 0.5881197592,
				"element": "C" 
			},
			{
				"x": -0.7156432482,
				"y": -0.759670675,
				"z": 1.0850529268,
				"element": "C" 
			},
			{
				"x": -0.7136120389,
				"y": 0.7456821139,
				"z": 1.277553517,
				"element": "C" 
			},
			{
				"x": -0.7201849156,
				"y": -0.1655412591,
				"z": 2.4730398539,
				"element": "C" 
			},
			{
				"x": 1.1883898359,
				"y": -1.15103427,
				"z": -0.537967936,
				"element": "N" 
			},
			{
				"x": 2.2722591577,
				"y": -1.9855364136,
				"z": -0.6889499553,
				"element": "N" 
			},
			{
				"x": 2.2634671564,
				"y": -2.82002899,
				"z": 0.2948753675,
				"element": "N" 
			},
			{
				"x": 0.9695949458,
				"y": -0.1407993748,
				"z": -1.5184447346,
				"element": "C" 
			},
			{
				"x": -0.3210943962,
				"y": 0.1215771794,
				"z": -1.9841664431,
				"element": "C" 
			},
			{
				"x": -0.4785702334,
				"y": 1.1056417181,
				"z": -2.952462893,
				"element": "C" 
			},
			{
				"x": -1.7215333857,
				"y": 1.3681533129,
				"z": -3.4012688173,
				"element": "F" 
			},
			{
				"x": 0.5952669646,
				"y": 1.8133254418,
				"z": -3.479932562,
				"element": "C" 
			},
			{
				"x": 1.8763644277,
				"y": 1.5189977166,
				"z": -3.0104210183,
				"element": "C" 
			},
			{
				"x": 2.0742315955,
				"y": 0.5494988796,
				"z": -2.0283935774,
				"element": "C" 
			},
			{
				"x": 1.4765078882,
				"y": -4.7390042923,
				"z": 3.3720793382,
				"element": "H" 
			},
			{
				"x": -1.6578874161,
				"y": -1.2044147926,
				"z": 0.7701641126,
				"element": "H" 
			},
			{
				"x": -1.6195611763,
				"y": 1.284935871,
				"z": 1.0194624543,
				"element": "H" 
			},
			{
				"x": 0.2024335855,
				"y": 1.2834294904,
				"z": 1.0539105461,
				"element": "H" 
			},
			{
				"x": -1.6306424568,
				"y": -0.2735546603,
				"z": 3.0520792463,
				"element": "H" 
			},
			{
				"x": 0.1902188584,
				"y": -0.2513101594,
				"z": 3.0559064576,
				"element": "H" 
			},
			{
				"x": -1.1838112924,
				"y": -0.423079603,
				"z": -1.6237344503,
				"element": "H" 
			},
			{
				"x": 0.4200960973,
				"y": 2.5679628568,
				"z": -4.2383846339,
				"element": "H" 
			},
			{
				"x": 2.7301180462,
				"y": 2.0563559311,
				"z": -3.4106668347,
				"element": "H" 
			},
			{
				"x": 3.0647199234,
				"y": 0.3130662391,
				"z": -1.6600622539,
				"element": "H" 
			}
		],
		 "valence_orbital": [ 
			{
				"type": "occ",
				"energy": -0.2774,
				"method": "rhf"
			},
			{
				"type": "occ",
				"energy": -0.27374,
				"method": "rhf"
			},
			{
				"type": "occ",
				"energy": -0.26994,
				"method": "rhf"
			},
			{
				"type": "occ",
				"energy": -0.26551,
				"method": "rhf"
			},
			{
				"type": "occ",
				"energy": -0.25611,
				"method": "rhf"
			},
			{
				"type": "unocc",
				"energy": -0.05112,
				"method": "rhf"
			},
			{
				"type": "unocc",
				"energy": -0.02635,
				"method": "rhf"
			},
			{
				"type": "unocc",
				"energy": -0.02103,
				"method": "rhf"
			},
			{
				"type": "unocc",
				"energy": 0.00404,
				"method": "rhf"
			},
			{
				"type": "unocc",
				"energy": 0.06739,
				"method": "rhf"
			}
		],
		"cosmo_sigma_profile": { 
			"-0.025": 0.0,
			"-0.024": 0.0,
			"-0.023": 0.0,
			"-0.022": 0.0,
			"-0.021": 0.0,
			"-0.02": 0.0,
			"-0.019": 0.211778052784,
			"-0.018": 0.759138430422,
			"-0.017": 0.93100751486,
			"-0.016": 0.933067781109,
			"-0.015": 0.882352305851,
			"-0.014": 0.535631874781,
			"-0.013": 0.600450275446,
			"-0.012": 0.692607007632,
			"-0.011": 0.823347371727,
			"-0.01": 0.750742754675,
			"-0.009": 1.74986502231,
			"-0.008": 4.99806413742,
			"-0.007": 10.2178261435,
			"-0.006": 13.3986776381,
			"-0.005": 20.6143456537,
			"-0.004": 16.9829028157,
			"-0.003": 19.3100405936,
			"-0.002": 18.4912347899,
			"-0.001": 18.871420618,
			"0.0": 19.8460549197,
			"0.001": 20.9855159678,
			"0.002": 16.7309674235,
			"0.003": 15.8262731257,
			"0.004": 14.9670555574,
			"0.005": 5.05788623827,
			"0.006": 4.17063753547,
			"0.007": 4.54089683283,
			"0.008": 4.19038310984,
			"0.009": 7.07976716034,
			"0.01": 6.61626777312,
			"0.011": 6.33087849318,
			"0.012": 5.81080013996,
			"0.013": 1.66664642222,
			"0.014": 1.42346312641,
			"0.015": 0.565206406643,
			"0.016": 0.0,
			"0.017": 0.0,
			"0.018": 0.0,
			"0.019": 0.0,
			"0.02": 0.0,
			"0.021": 0.0,
			"0.022": 0.0,
			"0.023": 0.0,
			"0.024": 0.0,
			"0.025": 0.0
		}
	}
}
