{
	 "smiles": "ClC(=O)C1=C(Cl)C=CC=C1Cl", 
	 "Tm": 291.15, 
	 "num_atms": 14, 
	 "gaussian": { 
		 "optdone": 1, 
		 "sigma_profile": "yes", 
		 "theory": "DFT", 
		 "functional": "B3LYP", 
		 "basiset": "6-31G**", 
		 "properties": { 
			 "R2extent": 2543.0824, 
			 "electric_dipole_moment_norm": 4.42211248839, 
			 "electric_quadrupole_moment_norm": 5.57200870064, 
			 "total_energy": -1724.34314213, 
			 "HOMO_LUMO_gap": 0.21469, 
			 "cosmo_polarized_energy": -6.09, 
			 "cosmo_cavitation_energy": 24.66, 
			 "cosmo_dispersion_energy": -17.82, 
			 "cosmo_repulsion_energy": 1.44, 
			 "cosmo_total_nonelectrostatic_energy": 8.28, 
			 "SMD_solvation_energy": 4.1 
		},
		"coords": [
			{
				"x": -0.4001656861,
				"y": -2.7883180482,
				"z": 0.1960915612,
				"element": "Cl" 
			},
			{
				"x": -0.1908187667,
				"y": -1.1422302112,
				"z": -0.5272008629,
				"element": "C" 
			},
			{
				"x": -0.2231584083,
				"y": -0.9750529712,
				"z": -1.7030812616,
				"element": "O" 
			},
			{
				"x": 0.0176000734,
				"y": -0.0819044642,
				"z": 0.5155088055,
				"element": "C" 
			},
			{
				"x": 1.3068750376,
				"y": 0.2652490293,
				"z": 0.9409500385,
				"element": "C" 
			},
			{
				"x": 2.6928019557,
				"y": -0.5791831944,
				"z": 0.2832867243,
				"element": "Cl" 
			},
			{
				"x": 1.5115966138,
				"y": 1.2712373688,
				"z": 1.8829754309,
				"element": "C" 
			},
			{
				"x": 0.4113239668,
				"y": 1.9462937928,
				"z": 2.4087767743,
				"element": "C" 
			},
			{
				"x": -0.8824256342,
				"y": 1.6257807859,
				"z": 2.0010399927,
				"element": "C" 
			},
			{
				"x": -1.0690061784,
				"y": 0.61710605,
				"z": 1.0581211397,
				"element": "C" 
			},
			{
				"x": -2.6964877748,
				"y": 0.2190217363,
				"z": 0.5489720152,
				"element": "Cl" 
			},
			{
				"x": 2.5206678695,
				"y": 1.5161226064,
				"z": 2.193252939,
				"element": "H" 
			},
			{
				"x": 0.5637191608,
				"y": 2.7307500051,
				"z": 3.1432144292,
				"element": "H" 
			},
			{
				"x": -1.7428222291,
				"y": 2.1475275145,
				"z": 2.4034922741,
				"element": "H" 
			}
		],
		 "valence_orbital": [ 
			{
				"type": "occ",
				"energy": -0.32993,
				"method": "rhf"
			},
			{
				"type": "occ",
				"energy": -0.32604,
				"method": "rhf"
			},
			{
				"type": "occ",
				"energy": -0.30966,
				"method": "rhf"
			},
			{
				"type": "occ",
				"energy": -0.28029,
				"method": "rhf"
			},
			{
				"type": "occ",
				"energy": -0.26998,
				"method": "rhf"
			},
			{
				"type": "unocc",
				"energy": -0.05529,
				"method": "rhf"
			},
			{
				"type": "unocc",
				"energy": -0.05222,
				"method": "rhf"
			},
			{
				"type": "unocc",
				"energy": -0.04343,
				"method": "rhf"
			},
			{
				"type": "unocc",
				"energy": -0.01515,
				"method": "rhf"
			},
			{
				"type": "unocc",
				"energy": 0.02665,
				"method": "rhf"
			}
		],
		"cosmo_sigma_profile": { 
			"-0.025": 0.0,
			"-0.024": 0.0,
			"-0.023": 0.0,
			"-0.022": 0.0,
			"-0.021": 0.0,
			"-0.02": 0.0,
			"-0.019": 0.0,
			"-0.018": 0.0,
			"-0.017": 0.0,
			"-0.016": 0.0,
			"-0.015": 0.0,
			"-0.014": 0.0,
			"-0.013": 0.0,
			"-0.012": 0.0,
			"-0.011": 0.0,
			"-0.01": 0.0,
			"-0.009": 1.72581573834,
			"-0.008": 6.50785927237,
			"-0.007": 7.45197240639,
			"-0.006": 5.59661034621,
			"-0.005": 4.55040681359,
			"-0.004": 5.92811263581,
			"-0.003": 6.91826754409,
			"-0.002": 13.562740708,
			"-0.001": 26.5974953379,
			"0.0": 27.1600871184,
			"0.001": 27.8530154685,
			"0.002": 23.6218053867,
			"0.003": 26.860951252,
			"0.004": 9.0051781756,
			"0.005": 2.29923256838,
			"0.006": 3.34791828878,
			"0.007": 4.87486795266,
			"0.008": 1.92086980718,
			"0.009": 0.00753862210574,
			"0.01": 0.0,
			"0.011": 0.0,
			"0.012": 0.0,
			"0.013": 0.0,
			"0.014": 0.0,
			"0.015": 0.0,
			"0.016": 0.0,
			"0.017": 0.0,
			"0.018": 0.0,
			"0.019": 0.0,
			"0.02": 0.0,
			"0.021": 0.0,
			"0.022": 0.0,
			"0.023": 0.0,
			"0.024": 0.0,
			"0.025": 0.0
		}
	}
}
