{
	 "smiles": "NC1=NC2=C(S1)C=C(C=C2)S(N)(=O)=O", 
	 "Tm": 533.15, 
	 "num_atms": 21, 
	 "gaussian": { 
		 "optdone": 1, 
		 "sigma_profile": "yes", 
		 "theory": "DFT", 
		 "functional": "B3LYP", 
		 "basiset": "6-31G**", 
		 "properties": { 
			 "R2extent": 4104.4248, 
			 "electric_dipole_moment_norm": 8.2192687053, 
			 "electric_quadrupole_moment_norm": 10.9822073341, 
			 "total_energy": -1381.98363028, 
			 "HOMO_LUMO_gap": 0.18772, 
			 "cosmo_polarized_energy": -25.11, 
			 "cosmo_cavitation_energy": 28.8, 
			 "cosmo_dispersion_energy": -22.49, 
			 "cosmo_repulsion_energy": 1.68, 
			 "cosmo_total_nonelectrostatic_energy": 7.98, 
			 "SMD_solvation_energy": 2.35 
		},
		"coords": [
			{
				"x": 0.139246685,
				"y": 3.9662708545,
				"z": -2.5471625921,
				"element": "N" 
			},
			{
				"x": 0.1511669732,
				"y": 2.797645607,
				"z": -1.8466723048,
				"element": "C" 
			},
			{
				"x": 0.9376074995,
				"y": 1.7996743227,
				"z": -2.1154153806,
				"element": "N" 
			},
			{
				"x": 0.6773644175,
				"y": 0.7333882268,
				"z": -1.27676137,
				"element": "C" 
			},
			{
				"x": -0.347856335,
				"y": 0.9361277717,
				"z": -0.3151121364,
				"element": "C" 
			},
			{
				"x": -1.0192532935,
				"y": 2.5526449797,
				"z": -0.5155960413,
				"element": "S" 
			},
			{
				"x": -0.7094542603,
				"y": -0.0479951034,
				"z": 0.596838367,
				"element": "C" 
			},
			{
				"x": -0.0203910515,
				"y": -1.2621143284,
				"z": 0.5365057195,
				"element": "C" 
			},
			{
				"x": 0.9868433514,
				"y": -1.4975681646,
				"z": -0.4125181162,
				"element": "C" 
			},
			{
				"x": 1.3390851785,
				"y": -0.5027860607,
				"z": -1.3170094331,
				"element": "C" 
			},
			{
				"x": -0.4303778995,
				"y": -2.5451065211,
				"z": 1.7227627327,
				"element": "S" 
			},
			{
				"x": 0.6392543182,
				"y": -2.3814400436,
				"z": 3.0146066234,
				"element": "N" 
			},
			{
				"x": -1.7502237177,
				"y": -2.2309692374,
				"z": 2.2690505106,
				"element": "O" 
			},
			{
				"x": -0.1052362645,
				"y": -3.8326062589,
				"z": 1.1115078977,
				"element": "O" 
			},
			{
				"x": -0.2337569197,
				"y": 4.7961939405,
				"z": -2.1132699596,
				"element": "H" 
			},
			{
				"x": 0.9242831708,
				"y": 4.10060957,
				"z": -3.1688905487,
				"element": "H" 
			},
			{
				"x": -1.5074994947,
				"y": 0.0895027019,
				"z": 1.3178989858,
				"element": "H" 
			},
			{
				"x": 1.4662275066,
				"y": -2.4699318894,
				"z": -0.4480253854,
				"element": "H" 
			},
			{
				"x": 2.108871154,
				"y": -0.667107278,
				"z": -2.0632430202,
				"element": "H" 
			},
			{
				"x": 1.6024868516,
				"y": -2.5580485517,
				"z": 2.7464679186,
				"element": "H" 
			},
			{
				"x": 0.5235121298,
				"y": -1.5005845377,
				"z": 3.5061375331,
				"element": "H" 
			}
		],
		 "valence_orbital": [ 
			{
				"type": "occ",
				"energy": -0.29956,
				"method": "rhf"
			},
			{
				"type": "occ",
				"energy": -0.29741,
				"method": "rhf"
			},
			{
				"type": "occ",
				"energy": -0.29194,
				"method": "rhf"
			},
			{
				"type": "occ",
				"energy": -0.25141,
				"method": "rhf"
			},
			{
				"type": "occ",
				"energy": -0.23119,
				"method": "rhf"
			},
			{
				"type": "unocc",
				"energy": -0.04347,
				"method": "rhf"
			},
			{
				"type": "unocc",
				"energy": -0.02267,
				"method": "rhf"
			},
			{
				"type": "unocc",
				"energy": -0.0152,
				"method": "rhf"
			},
			{
				"type": "unocc",
				"energy": 0.01964,
				"method": "rhf"
			},
			{
				"type": "unocc",
				"energy": 0.05012,
				"method": "rhf"
			}
		],
		"cosmo_sigma_profile": { 
			"-0.025": 0.0,
			"-0.024": 0.0,
			"-0.023": 0.0,
			"-0.022": 0.0,
			"-0.021": 0.0,
			"-0.02": 0.0,
			"-0.019": 0.0,
			"-0.018": 0.0,
			"-0.017": 0.0,
			"-0.016": 0.503481685691,
			"-0.015": 3.70357139892,
			"-0.014": 5.9967307074,
			"-0.013": 4.90939690798,
			"-0.012": 5.20114473741,
			"-0.011": 5.21198205535,
			"-0.01": 4.45485073432,
			"-0.009": 4.63376078786,
			"-0.008": 4.99424034406,
			"-0.007": 7.46777572714,
			"-0.006": 8.53766227051,
			"-0.005": 8.05674360881,
			"-0.004": 7.62285579781,
			"-0.003": 7.35783487358,
			"-0.002": 7.83234422822,
			"-0.001": 11.3755062615,
			"0.0": 11.9635273269,
			"0.001": 18.191945934,
			"0.002": 22.0318094955,
			"0.003": 15.1947566198,
			"0.004": 8.92097434324,
			"0.005": 5.74723879177,
			"0.006": 5.24791023415,
			"0.007": 5.57136423719,
			"0.008": 7.0974331844,
			"0.009": 5.76857217587,
			"0.01": 8.2109182381,
			"0.011": 11.9790873512,
			"0.012": 6.32106408175,
			"0.013": 1.46893660109,
			"0.014": 0.913102289051,
			"0.015": 0.174391367535,
			"0.016": 0.0,
			"0.017": 0.0,
			"0.018": 0.0,
			"0.019": 0.0,
			"0.02": 0.0,
			"0.021": 0.0,
			"0.022": 0.0,
			"0.023": 0.0,
			"0.024": 0.0,
			"0.025": 0.0
		}
	}
}
