{
	 "smiles": "FC(F)(F)COC(=O)NC1=CNN=C1", 
	 "Tm": 425.15, 
	 "num_atms": 20, 
	 "gaussian": { 
		 "optdone": 1, 
		 "sigma_profile": "yes", 
		 "theory": "DFT", 
		 "functional": "B3LYP", 
		 "basiset": "6-31G**", 
		 "properties": { 
			 "R2extent": 3372.1214, 
			 "electric_dipole_moment_norm": 1.70478143467, 
			 "electric_quadrupole_moment_norm": 9.94635833609, 
			 "total_energy": -846.469961456, 
			 "HOMO_LUMO_gap": 0.23153, 
			 "cosmo_polarized_energy": -15.29, 
			 "cosmo_cavitation_energy": 26.86, 
			 "cosmo_dispersion_energy": -18.93, 
			 "cosmo_repulsion_energy": 1.45, 
			 "cosmo_total_nonelectrostatic_energy": 9.38, 
			 "SMD_solvation_energy": 6.52 
		},
		"coords": [
			{
				"x": -1.9256832024,
				"y": -2.3720510212,
				"z": -0.9350600737,
				"element": "F" 
			},
			{
				"x": -0.9352771538,
				"y": -2.5240744807,
				"z": -1.8435141817,
				"element": "C" 
			},
			{
				"x": 0.078591912,
				"y": -3.163098059,
				"z": -1.2340916205,
				"element": "F" 
			},
			{
				"x": -1.4003346493,
				"y": -3.3098925764,
				"z": -2.8344099297,
				"element": "F" 
			},
			{
				"x": -0.4938194591,
				"y": -1.1871610413,
				"z": -2.4100738248,
				"element": "C" 
			},
			{
				"x": -0.0937975798,
				"y": -0.3562418439,
				"z": -1.3297347042,
				"element": "O" 
			},
			{
				"x": 1.2332405373,
				"y": -0.0214244143,
				"z": -1.2781078454,
				"element": "C" 
			},
			{
				"x": 2.0396941801,
				"y": -0.2586464854,
				"z": -2.155599251,
				"element": "O" 
			},
			{
				"x": 1.5242380477,
				"y": 0.6331924479,
				"z": -0.1178188488,
				"element": "N" 
			},
			{
				"x": 0.7071151722,
				"y": 0.8929576291,
				"z": 0.9965809556,
				"element": "C" 
			},
			{
				"x": -0.5288098321,
				"y": 0.372333077,
				"z": 1.3458760479,
				"element": "C" 
			},
			{
				"x": -0.8399169966,
				"y": 0.954586058,
				"z": 2.536905832,
				"element": "N" 
			},
			{
				"x": 0.0963956085,
				"y": 1.806267104,
				"z": 2.9882257622,
				"element": "N" 
			},
			{
				"x": 1.0430379111,
				"y": 1.7762986182,
				"z": 2.0521829612,
				"element": "C" 
			},
			{
				"x": -1.342067883,
				"y": -0.7199004987,
				"z": -2.9157818536,
				"element": "H" 
			},
			{
				"x": 0.3315953377,
				"y": -1.3354198539,
				"z": -3.1087531515,
				"element": "H" 
			},
			{
				"x": 2.4882052207,
				"y": 0.9276033182,
				"z": -0.0647032603,
				"element": "H" 
			},
			{
				"x": -1.1723557859,
				"y": -0.3364010181,
				"z": 0.8531458706,
				"element": "H" 
			},
			{
				"x": -1.6771749676,
				"y": 0.8150675587,
				"z": 3.0802224346,
				"element": "H" 
			},
			{
				"x": 1.9339235824,
				"y": 2.3812054818,
				"z": 2.1597086812,
				"element": "H" 
			}
		],
		 "valence_orbital": [ 
			{
				"type": "occ",
				"energy": -0.31645,
				"method": "rhf"
			},
			{
				"type": "occ",
				"energy": -0.30355,
				"method": "rhf"
			},
			{
				"type": "occ",
				"energy": -0.28922,
				"method": "rhf"
			},
			{
				"type": "occ",
				"energy": -0.26237,
				"method": "rhf"
			},
			{
				"type": "occ",
				"energy": -0.22328,
				"method": "rhf"
			},
			{
				"type": "unocc",
				"energy": 0.00825,
				"method": "rhf"
			},
			{
				"type": "unocc",
				"energy": 0.02766,
				"method": "rhf"
			},
			{
				"type": "unocc",
				"energy": 0.06633,
				"method": "rhf"
			},
			{
				"type": "unocc",
				"energy": 0.07459,
				"method": "rhf"
			},
			{
				"type": "unocc",
				"energy": 0.09539,
				"method": "rhf"
			}
		],
		"cosmo_sigma_profile": { 
			"-0.025": 0.0,
			"-0.024": 0.0,
			"-0.023": 0.0,
			"-0.022": 0.0,
			"-0.021": 0.0,
			"-0.02": 0.0,
			"-0.019": 0.0,
			"-0.018": 0.0,
			"-0.017": 0.706458347925,
			"-0.016": 2.54697887377,
			"-0.015": 1.76306678276,
			"-0.014": 2.72957434623,
			"-0.013": 2.02469474621,
			"-0.012": 2.03409106961,
			"-0.011": 1.94841893282,
			"-0.01": 2.69864306951,
			"-0.009": 4.85865167082,
			"-0.008": 6.74714333707,
			"-0.007": 8.03318720392,
			"-0.006": 6.77236602783,
			"-0.005": 7.27450623858,
			"-0.004": 5.54708995553,
			"-0.003": 6.30977345875,
			"-0.002": 10.9882186602,
			"-0.001": 13.324418906,
			"0.0": 13.6150805164,
			"0.001": 15.036567948,
			"0.002": 30.9118506476,
			"0.003": 23.556338556,
			"0.004": 10.6496293879,
			"0.005": 5.18449479736,
			"0.006": 3.35607737266,
			"0.007": 2.89472746081,
			"0.008": 2.71212161653,
			"0.009": 3.07441081539,
			"0.01": 3.0105087109,
			"0.011": 3.51658830956,
			"0.012": 6.43223292364,
			"0.013": 2.26040153591,
			"0.014": 0.993684936486,
			"0.015": 1.12704650689,
			"0.016": 0.452535072442,
			"0.017": 0.0,
			"0.018": 0.0,
			"0.019": 0.0,
			"0.02": 0.0,
			"0.021": 0.0,
			"0.022": 0.0,
			"0.023": 0.0,
			"0.024": 0.0,
			"0.025": 0.0
		}
	}
}
