{
	 "smiles": "CCCCC(CC)(CO)CO", 
	 "Tm": 316.95, 
	 "num_atms": 31, 
	 "gaussian": { 
		 "optdone": 1, 
		 "sigma_profile": "yes", 
		 "theory": "DFT", 
		 "functional": "B3LYP", 
		 "basiset": "6-31G**", 
		 "properties": { 
			 "R2extent": 2656.4198, 
			 "electric_dipole_moment_norm": 2.02025639214, 
			 "electric_quadrupole_moment_norm": 5.45496163873, 
			 "total_energy": -505.45368515, 
			 "HOMO_LUMO_gap": 0.32659, 
			 "cosmo_polarized_energy": -9.32, 
			 "cosmo_cavitation_energy": 30.45, 
			 "cosmo_dispersion_energy": -21.57, 
			 "cosmo_repulsion_energy": 1.79, 
			 "cosmo_total_nonelectrostatic_energy": 10.67, 
			 "SMD_solvation_energy": 5.27 
		},
		"coords": [
			{
				"x": -3.4382049423,
				"y": 1.1524830812,
				"z": -3.1954980776,
				"element": "C" 
			},
			{
				"x": -3.0397376532,
				"y": 0.8593652779,
				"z": -1.7454021831,
				"element": "C" 
			},
			{
				"x": -1.5212978896,
				"y": 0.8748460213,
				"z": -1.5214481526,
				"element": "C" 
			},
			{
				"x": -1.1481875704,
				"y": 0.5732423019,
				"z": -0.0621655905,
				"element": "C" 
			},
			{
				"x": 0.3588583501,
				"y": 0.5595129058,
				"z": 0.3175733559,
				"element": "C" 
			},
			{
				"x": 1.1908991683,
				"y": -0.4245239979,
				"z": -0.5478080458,
				"element": "C" 
			},
			{
				"x": 0.7163659667,
				"y": -1.8835810177,
				"z": -0.5837304717,
				"element": "C" 
			},
			{
				"x": 0.9930953202,
				"y": 1.9644157526,
				"z": 0.2117772313,
				"element": "C" 
			},
			{
				"x": 1.1351620023,
				"y": 2.3479864983,
				"z": -1.1553719681,
				"element": "O" 
			},
			{
				"x": 0.4749106077,
				"y": 0.1403853811,
				"z": 1.7978415547,
				"element": "C" 
			},
			{
				"x": -0.1579889063,
				"y": 1.1191404734,
				"z": 2.6202182737,
				"element": "O" 
			},
			{
				"x": -3.0778336953,
				"y": 2.1377511452,
				"z": -3.5128691774,
				"element": "H" 
			},
			{
				"x": -4.5256685292,
				"y": 1.1380004213,
				"z": -3.3255755597,
				"element": "H" 
			},
			{
				"x": -3.0115277721,
				"y": 0.4111909162,
				"z": -3.8811395851,
				"element": "H" 
			},
			{
				"x": -3.4447274646,
				"y": -0.1176411242,
				"z": -1.4457395282,
				"element": "H" 
			},
			{
				"x": -3.5115566109,
				"y": 1.5964811823,
				"z": -1.0808476583,
				"element": "H" 
			},
			{
				"x": -1.1108997026,
				"y": 1.8450774307,
				"z": -1.8169661355,
				"element": "H" 
			},
			{
				"x": -1.0568669129,
				"y": 0.1376496565,
				"z": -2.1903857036,
				"element": "H" 
			},
			{
				"x": -1.5737376717,
				"y": -0.4035444076,
				"z": 0.2086771053,
				"element": "H" 
			},
			{
				"x": -1.6451523529,
				"y": 1.2973249539,
				"z": 0.5942483068,
				"element": "H" 
			},
			{
				"x": 2.22911518,
				"y": -0.3970727816,
				"z": -0.1873588441,
				"element": "H" 
			},
			{
				"x": 1.225240633,
				"y": -0.030656811,
				"z": -1.5669338069,
				"element": "H" 
			},
			{
				"x": 1.3770123022,
				"y": -2.4773772651,
				"z": -1.2242663373,
				"element": "H" 
			},
			{
				"x": -0.2965238691,
				"y": -1.9748797202,
				"z": -0.9882663124,
				"element": "H" 
			},
			{
				"x": 0.7206145118,
				"y": -2.3529015669,
				"z": 0.4058276038,
				"element": "H" 
			},
			{
				"x": 0.3717065146,
				"y": 2.6809857748,
				"z": 0.7635544219,
				"element": "H" 
			},
			{
				"x": 1.9808123726,
				"y": 1.9390558149,
				"z": 0.7030737032,
				"element": "H" 
			},
			{
				"x": 1.4645343431,
				"y": 3.2544722181,
				"z": -1.1729699279,
				"element": "H" 
			},
			{
				"x": 1.5408476569,
				"y": 0.0402821275,
				"z": 2.0631985045,
				"element": "H" 
			},
			{
				"x": 0.005632758,
				"y": -0.8441935605,
				"z": 1.9377170103,
				"element": "H" 
			},
			{
				"x": -0.1372961445,
				"y": 0.803922918,
				"z": 3.5315359943,
				"element": "H" 
			}
		],
		 "valence_orbital": [ 
			{
				"type": "occ",
				"energy": -0.30036,
				"method": "rhf"
			},
			{
				"type": "occ",
				"energy": -0.29198,
				"method": "rhf"
			},
			{
				"type": "occ",
				"energy": -0.29052,
				"method": "rhf"
			},
			{
				"type": "occ",
				"energy": -0.26439,
				"method": "rhf"
			},
			{
				"type": "occ",
				"energy": -0.25489,
				"method": "rhf"
			},
			{
				"type": "unocc",
				"energy": 0.0717,
				"method": "rhf"
			},
			{
				"type": "unocc",
				"energy": 0.07916,
				"method": "rhf"
			},
			{
				"type": "unocc",
				"energy": 0.08956,
				"method": "rhf"
			},
			{
				"type": "unocc",
				"energy": 0.10801,
				"method": "rhf"
			},
			{
				"type": "unocc",
				"energy": 0.12798,
				"method": "rhf"
			}
		],
		"cosmo_sigma_profile": { 
			"-0.025": 0.0,
			"-0.024": 0.0,
			"-0.023": 0.0,
			"-0.022": 0.0,
			"-0.021": 0.0,
			"-0.02": 0.0,
			"-0.019": 0.0,
			"-0.018": 0.0,
			"-0.017": 0.0,
			"-0.016": 0.5541734199,
			"-0.015": 1.76460577179,
			"-0.014": 2.02720976487,
			"-0.013": 2.64817699203,
			"-0.012": 1.38264752363,
			"-0.011": 0.923173286208,
			"-0.01": 1.32911402254,
			"-0.009": 1.86646789476,
			"-0.008": 1.74425793568,
			"-0.007": 1.64124362962,
			"-0.006": 2.20071620139,
			"-0.005": 2.15752027095,
			"-0.004": 2.44270466876,
			"-0.003": 13.4929500094,
			"-0.002": 29.3688873236,
			"-0.001": 37.2241966017,
			"0.0": 34.854300908,
			"0.001": 33.8931647885,
			"0.002": 22.5980838206,
			"0.003": 6.41669786656,
			"0.004": 4.79376437974,
			"0.005": 2.68676645143,
			"0.006": 3.42526282793,
			"0.007": 3.65311304678,
			"0.008": 3.58024621844,
			"0.009": 2.79588307359,
			"0.01": 3.60179653396,
			"0.011": 2.80496610212,
			"0.012": 2.93696579256,
			"0.013": 1.5220577559,
			"0.014": 0.0,
			"0.015": 0.0,
			"0.016": 0.0,
			"0.017": 0.0,
			"0.018": 0.0,
			"0.019": 0.0,
			"0.02": 0.0,
			"0.021": 0.0,
			"0.022": 0.0,
			"0.023": 0.0,
			"0.024": 0.0,
			"0.025": 0.0
		}
	}
}
