{
	 "smiles": "CC1=CC=CC(Cl)=C1C(N)=O", 
	 "Tm": 438.15, 
	 "num_atms": 19, 
	 "gaussian": { 
		 "optdone": 1, 
		 "sigma_profile": "yes", 
		 "theory": "DFT", 
		 "functional": "B3LYP", 
		 "basiset": "6-31G**", 
		 "properties": { 
			 "R2extent": 2774.7297, 
			 "electric_dipole_moment_norm": 3.01715820931, 
			 "electric_quadrupole_moment_norm": 11.7908639476, 
			 "total_energy": -899.86037902, 
			 "HOMO_LUMO_gap": 0.21662, 
			 "cosmo_polarized_energy": -11.5, 
			 "cosmo_cavitation_energy": 24.45, 
			 "cosmo_dispersion_energy": -17.96, 
			 "cosmo_repulsion_energy": 1.45, 
			 "cosmo_total_nonelectrostatic_energy": 7.94, 
			 "SMD_solvation_energy": 4.56 
		},
		"coords": [
			{
				"x": -0.5167171463,
				"y": -0.6301836779,
				"z": -1.0729861192,
				"element": "C" 
			},
			{
				"x": -0.0651548678,
				"y": -0.2552250435,
				"z": 0.3196766433,
				"element": "C" 
			},
			{
				"x": -1.0104758406,
				"y": -0.0450093835,
				"z": 1.3278421696,
				"element": "C" 
			},
			{
				"x": -0.6262466978,
				"y": 0.2870073991,
				"z": 2.6267339731,
				"element": "C" 
			},
			{
				"x": 0.7216927424,
				"y": 0.4209192163,
				"z": 2.9433591165,
				"element": "C" 
			},
			{
				"x": 1.6691017486,
				"y": 0.2264951413,
				"z": 1.9384563439,
				"element": "C" 
			},
			{
				"x": 3.3701059492,
				"y": 0.3898894357,
				"z": 2.3966987558,
				"element": "Cl" 
			},
			{
				"x": 1.3078186038,
				"y": -0.1057658334,
				"z": 0.6267620182,
				"element": "C" 
			},
			{
				"x": 2.3261797631,
				"y": -0.3792978846,
				"z": -0.4625247216,
				"element": "C" 
			},
			{
				"x": 3.1172220167,
				"y": 0.6794378288,
				"z": -0.8126388522,
				"element": "N" 
			},
			{
				"x": 2.3747499905,
				"y": -1.456311619,
				"z": -1.039405167,
				"element": "O" 
			},
			{
				"x": -1.6076654082,
				"y": -0.6318413971,
				"z": -1.1354349906,
				"element": "H" 
			},
			{
				"x": -0.1407063062,
				"y": -1.6182350045,
				"z": -1.3491069621,
				"element": "H" 
			},
			{
				"x": -0.1339426928,
				"y": 0.0725367164,
				"z": -1.8212324741,
				"element": "H" 
			},
			{
				"x": -2.0649628689,
				"y": -0.1490704413,
				"z": 1.0889017541,
				"element": "H" 
			},
			{
				"x": -1.3771356906,
				"y": 0.4388583959,
				"z": 3.3963653305,
				"element": "H" 
			},
			{
				"x": 1.043948002,
				"y": 0.6681665092,
				"z": 3.9483310078,
				"element": "H" 
			},
			{
				"x": 3.2122636466,
				"y": 1.4726107524,
				"z": -0.1972544364,
				"element": "H" 
			},
			{
				"x": 3.8859250561,
				"y": 0.4780188898,
				"z": -1.4371433898,
				"element": "H" 
			}
		],
		 "valence_orbital": [ 
			{
				"type": "occ",
				"energy": -0.32077,
				"method": "rhf"
			},
			{
				"type": "occ",
				"energy": -0.27304,
				"method": "rhf"
			},
			{
				"type": "occ",
				"energy": -0.26688,
				"method": "rhf"
			},
			{
				"type": "occ",
				"energy": -0.24978,
				"method": "rhf"
			},
			{
				"type": "occ",
				"energy": -0.24756,
				"method": "rhf"
			},
			{
				"type": "unocc",
				"energy": -0.03094,
				"method": "rhf"
			},
			{
				"type": "unocc",
				"energy": -0.01433,
				"method": "rhf"
			},
			{
				"type": "unocc",
				"energy": 0.02116,
				"method": "rhf"
			},
			{
				"type": "unocc",
				"energy": 0.03317,
				"method": "rhf"
			},
			{
				"type": "unocc",
				"energy": 0.08717,
				"method": "rhf"
			}
		],
		"cosmo_sigma_profile": { 
			"-0.025": 0.0,
			"-0.024": 0.0,
			"-0.023": 0.0,
			"-0.022": 0.0,
			"-0.021": 0.0,
			"-0.02": 0.0,
			"-0.019": 0.0,
			"-0.018": 0.0,
			"-0.017": 0.0,
			"-0.016": 0.0,
			"-0.015": 0.0353082736861,
			"-0.014": 1.14469508479,
			"-0.013": 2.06326786684,
			"-0.012": 2.08236544866,
			"-0.011": 2.39252395598,
			"-0.01": 2.42300391934,
			"-0.009": 1.82880750201,
			"-0.008": 1.73954804312,
			"-0.007": 5.40787167096,
			"-0.006": 8.77311892621,
			"-0.005": 9.18128009976,
			"-0.004": 10.6934789568,
			"-0.003": 11.6757754628,
			"-0.002": 13.2231565143,
			"-0.001": 14.5020704389,
			"0.0": 16.8509207284,
			"0.001": 16.4786615102,
			"0.002": 17.0568109762,
			"0.003": 18.5575434279,
			"0.004": 16.1515768613,
			"0.005": 4.34656222052,
			"0.006": 1.98211258285,
			"0.007": 2.43514263699,
			"0.008": 1.95094549072,
			"0.009": 0.815458266282,
			"0.01": 1.15549577644,
			"0.011": 2.14055170111,
			"0.012": 2.55828126351,
			"0.013": 4.63491316083,
			"0.014": 2.18604295214,
			"0.015": 0.0233669214019,
			"0.016": 0.0,
			"0.017": 0.0,
			"0.018": 0.0,
			"0.019": 0.0,
			"0.02": 0.0,
			"0.021": 0.0,
			"0.022": 0.0,
			"0.023": 0.0,
			"0.024": 0.0,
			"0.025": 0.0
		}
	}
}
