{
	 "smiles": "CCOC(=O)C1=C(N)SC2=C1CCC2", 
	 "Tm": 365.15, 
	 "num_atms": 27, 
	 "gaussian": { 
		 "optdone": 1, 
		 "sigma_profile": "yes", 
		 "theory": "DFT", 
		 "functional": "B3LYP", 
		 "basiset": "6-31G**", 
		 "properties": { 
			 "R2extent": 3922.3575, 
			 "electric_dipole_moment_norm": 1.05655360962, 
			 "electric_quadrupole_moment_norm": 7.9201026881, 
			 "total_energy": -992.302960165, 
			 "HOMO_LUMO_gap": 0.17134, 
			 "cosmo_polarized_energy": -8.82, 
			 "cosmo_cavitation_energy": 31.08, 
			 "cosmo_dispersion_energy": -23.31, 
			 "cosmo_repulsion_energy": 1.83, 
			 "cosmo_total_nonelectrostatic_energy": 9.6, 
			 "SMD_solvation_energy": 5.13 
		},
		"coords": [
			{
				"x": 1.5794487769,
				"y": -1.0669493582,
				"z": 3.9679503164,
				"element": "C" 
			},
			{
				"x": 1.5298112761,
				"y": 0.0959660446,
				"z": 2.9945294941,
				"element": "C" 
			},
			{
				"x": 1.1478370056,
				"y": -0.4328963233,
				"z": 1.7073866286,
				"element": "O" 
			},
			{
				"x": 1.0357365186,
				"y": 0.4727781663,
				"z": 0.7054015373,
				"element": "C" 
			},
			{
				"x": 1.2484724691,
				"y": 1.6725163635,
				"z": 0.8847642242,
				"element": "O" 
			},
			{
				"x": 0.6585075075,
				"y": -0.125584446,
				"z": -0.5651056024,
				"element": "C" 
			},
			{
				"x": 0.525742924,
				"y": 0.669237946,
				"z": -1.7072606144,
				"element": "C" 
			},
			{
				"x": 0.6085549248,
				"y": 2.0264456373,
				"z": -1.7700476788,
				"element": "N" 
			},
			{
				"x": 0.1139762276,
				"y": -0.2877873028,
				"z": -3.1266867341,
				"element": "S" 
			},
			{
				"x": 0.1212680617,
				"y": -1.7569471932,
				"z": -2.165535878,
				"element": "C" 
			},
			{
				"x": 0.4164221765,
				"y": -1.5155875032,
				"z": -0.8644580477,
				"element": "C" 
			},
			{
				"x": 0.4929429948,
				"y": -2.8092747618,
				"z": -0.0922646698,
				"element": "C" 
			},
			{
				"x": -0.1177321253,
				"y": -3.8404483401,
				"z": -1.0896249942,
				"element": "C" 
			},
			{
				"x": -0.0238181582,
				"y": -3.2095311776,
				"z": -2.5147063686,
				"element": "C" 
			},
			{
				"x": 1.8697956601,
				"y": -0.7087630835,
				"z": 4.9606617811,
				"element": "H" 
			},
			{
				"x": 0.601818929,
				"y": -1.5509266239,
				"z": 4.0496920531,
				"element": "H" 
			},
			{
				"x": 2.3084324783,
				"y": -1.8162283739,
				"z": 3.6458350536,
				"element": "H" 
			},
			{
				"x": 0.8020162875,
				"y": 0.8549178599,
				"z": 3.2990058124,
				"element": "H" 
			},
			{
				"x": 2.500531362,
				"y": 0.5938834412,
				"z": 2.9019689983,
				"element": "H" 
			},
			{
				"x": 0.8388321297,
				"y": 2.4634493732,
				"z": -2.6489002597,
				"element": "H" 
			},
			{
				"x": 0.9635720347,
				"y": 2.4471348993,
				"z": -0.9143454866,
				"element": "H" 
			},
			{
				"x": 1.5355922994,
				"y": -3.0482431653,
				"z": 0.1571354467,
				"element": "H" 
			},
			{
				"x": -0.0501978972,
				"y": -2.7760919197,
				"z": 0.856760691,
				"element": "H" 
			},
			{
				"x": 0.3756587812,
				"y": -4.8151794254,
				"z": -1.0379241285,
				"element": "H" 
			},
			{
				"x": -1.172453384,
				"y": -3.9963874983,
				"z": -0.8417430438,
				"element": "H" 
			},
			{
				"x": 0.8494088766,
				"y": -3.5824931027,
				"z": -3.0693199005,
				"element": "H" 
			},
			{
				"x": -0.9066781371,
				"y": -3.4388101325,
				"z": -3.1226686297,
				"element": "H" 
			}
		],
		 "valence_orbital": [ 
			{
				"type": "occ",
				"energy": -0.29508,
				"method": "rhf"
			},
			{
				"type": "occ",
				"energy": -0.28981,
				"method": "rhf"
			},
			{
				"type": "occ",
				"energy": -0.26648,
				"method": "rhf"
			},
			{
				"type": "occ",
				"energy": -0.24355,
				"method": "rhf"
			},
			{
				"type": "occ",
				"energy": -0.18664,
				"method": "rhf"
			},
			{
				"type": "unocc",
				"energy": -0.0153,
				"method": "rhf"
			},
			{
				"type": "unocc",
				"energy": 0.01735,
				"method": "rhf"
			},
			{
				"type": "unocc",
				"energy": 0.02708,
				"method": "rhf"
			},
			{
				"type": "unocc",
				"energy": 0.08758,
				"method": "rhf"
			},
			{
				"type": "unocc",
				"energy": 0.0953,
				"method": "rhf"
			}
		],
		"cosmo_sigma_profile": { 
			"-0.025": 0.0,
			"-0.024": 0.0,
			"-0.023": 0.0,
			"-0.022": 0.0,
			"-0.021": 0.0,
			"-0.02": 0.0,
			"-0.019": 0.0,
			"-0.018": 0.0,
			"-0.017": 0.0,
			"-0.016": 0.0,
			"-0.015": 0.250590671016,
			"-0.014": 1.42877233126,
			"-0.013": 1.38536139564,
			"-0.012": 1.16495254416,
			"-0.011": 1.33898120257,
			"-0.01": 2.16878606334,
			"-0.009": 1.79898920806,
			"-0.008": 1.47325613186,
			"-0.007": 1.74263550012,
			"-0.006": 1.12855471959,
			"-0.005": 4.96775038216,
			"-0.004": 14.6637325039,
			"-0.003": 27.7554633025,
			"-0.002": 30.4716654144,
			"-0.001": 28.8538785221,
			"0.0": 25.0728629689,
			"0.001": 21.1255983479,
			"0.002": 15.0040400864,
			"0.003": 17.1991740113,
			"0.004": 17.4169694331,
			"0.005": 11.3908737549,
			"0.006": 5.10809986559,
			"0.007": 2.17053454241,
			"0.008": 2.46308985137,
			"0.009": 2.1800038616,
			"0.01": 1.92859512211,
			"0.011": 1.84040022031,
			"0.012": 2.03289030209,
			"0.013": 1.32571913491,
			"0.014": 0.0281621303393,
			"0.015": 0.0,
			"0.016": 0.0,
			"0.017": 0.0,
			"0.018": 0.0,
			"0.019": 0.0,
			"0.02": 0.0,
			"0.021": 0.0,
			"0.022": 0.0,
			"0.023": 0.0,
			"0.024": 0.0,
			"0.025": 0.0
		}
	}
}
