{
	 "smiles": "COC1=CC(=CC(OC)=C1OC)C1=NN=C(S)O1", 
	 "Tm": 371.15, 
	 "num_atms": 30, 
	 "gaussian": { 
		 "optdone": 1, 
		 "sigma_profile": "yes", 
		 "theory": "DFT", 
		 "functional": "B3LYP", 
		 "basiset": "6-31G**", 
		 "properties": { 
			 "R2extent": 7174.4147, 
			 "electric_dipole_moment_norm": 3.23837150895, 
			 "electric_quadrupole_moment_norm": 25.1620617204, 
			 "total_energy": -1234.90042951, 
			 "HOMO_LUMO_gap": 0.1709, 
			 "cosmo_polarized_energy": -15.2, 
			 "cosmo_cavitation_energy": 36.92, 
			 "cosmo_dispersion_energy": -26.79, 
			 "cosmo_repulsion_energy": 2.05, 
			 "cosmo_total_nonelectrostatic_energy": 12.18, 
			 "SMD_solvation_energy": 6.75 
		},
		"coords": [
			{
				"x": 0.8433763795,
				"y": -3.5625018299,
				"z": 1.3868737549,
				"element": "C" 
			},
			{
				"x": 0.8781383139,
				"y": -2.8804648399,
				"z": 0.127569851,
				"element": "O" 
			},
			{
				"x": 0.5031222198,
				"y": -1.5618970121,
				"z": 0.1454097166,
				"element": "C" 
			},
			{
				"x": 1.4592468666,
				"y": -0.5999770581,
				"z": -0.1920513936,
				"element": "C" 
			},
			{
				"x": 1.0940966881,
				"y": 0.7469398248,
				"z": -0.2538598798,
				"element": "C" 
			},
			{
				"x": -0.2216933993,
				"y": 1.1462511971,
				"z": 0.0398421573,
				"element": "C" 
			},
			{
				"x": -1.1721439783,
				"y": 0.187760281,
				"z": 0.3833992492,
				"element": "C" 
			},
			{
				"x": -2.4720418403,
				"y": 0.4618967406,
				"z": 0.6832428246,
				"element": "O" 
			},
			{
				"x": -2.8886695706,
				"y": 1.8216158103,
				"z": 0.6696065982,
				"element": "C" 
			},
			{
				"x": -0.8165021998,
				"y": -1.1815057687,
				"z": 0.43064422,
				"element": "C" 
			},
			{
				"x": -1.7340258736,
				"y": -2.1324469314,
				"z": 0.7929729153,
				"element": "O" 
			},
			{
				"x": -2.7106260274,
				"y": -2.4504612145,
				"z": -0.2067882849,
				"element": "C" 
			},
			{
				"x": 2.0612508487,
				"y": 1.7743638475,
				"z": -0.6138288993,
				"element": "C" 
			},
			{
				"x": 1.8875859045,
				"y": 3.0589106858,
				"z": -0.7097927582,
				"element": "N" 
			},
			{
				"x": 3.1157952933,
				"y": 3.6129434806,
				"z": -1.0745626474,
				"element": "N" 
			},
			{
				"x": 3.9345849239,
				"y": 2.6151681709,
				"z": -1.1756646373,
				"element": "C" 
			},
			{
				"x": 5.6264590564,
				"y": 2.6920947656,
				"z": -1.6411731659,
				"element": "S" 
			},
			{
				"x": 3.3575065168,
				"y": 1.4121825954,
				"z": -0.9032418361,
				"element": "O" 
			},
			{
				"x": 1.1905676938,
				"y": -4.5784002088,
				"z": 1.1879591879,
				"element": "H" 
			},
			{
				"x": 1.5211564924,
				"y": -3.0845151497,
				"z": 2.1057749817,
				"element": "H" 
			},
			{
				"x": -0.1689454931,
				"y": -3.5902776241,
				"z": 1.7977102372,
				"element": "H" 
			},
			{
				"x": 2.4676644067,
				"y": -0.9256855763,
				"z": -0.4166032796,
				"element": "H" 
			},
			{
				"x": -0.467318624,
				"y": 2.1988247406,
				"z": -0.0087973659,
				"element": "H" 
			},
			{
				"x": -2.778131443,
				"y": 2.2680705903,
				"z": -0.3263104479,
				"element": "H" 
			},
			{
				"x": -3.9433879007,
				"y": 1.8129496474,
				"z": 0.9474136809,
				"element": "H" 
			},
			{
				"x": -2.3264881331,
				"y": 2.4203016555,
				"z": 1.3964106548,
				"element": "H" 
			},
			{
				"x": -2.2275164013,
				"y": -2.8332590162,
				"z": -1.1134651284,
				"element": "H" 
			},
			{
				"x": -3.3224422616,
				"y": -1.5769291583,
				"z": -0.4508208625,
				"element": "H" 
			},
			{
				"x": -3.3426962598,
				"y": -3.2293103596,
				"z": 0.2240618137,
				"element": "H" 
			},
			{
				"x": 5.8681778017,
				"y": 1.3925577141,
				"z": -1.3829312564,
				"element": "H" 
			}
		],
		 "valence_orbital": [ 
			{
				"type": "occ",
				"energy": -0.27992,
				"method": "rhf"
			},
			{
				"type": "occ",
				"energy": -0.27706,
				"method": "rhf"
			},
			{
				"type": "occ",
				"energy": -0.2567,
				"method": "rhf"
			},
			{
				"type": "occ",
				"energy": -0.23401,
				"method": "rhf"
			},
			{
				"type": "occ",
				"energy": -0.21946,
				"method": "rhf"
			},
			{
				"type": "unocc",
				"energy": -0.04856,
				"method": "rhf"
			},
			{
				"type": "unocc",
				"energy": -0.00397,
				"method": "rhf"
			},
			{
				"type": "unocc",
				"energy": 0.0012,
				"method": "rhf"
			},
			{
				"type": "unocc",
				"energy": 0.01515,
				"method": "rhf"
			},
			{
				"type": "unocc",
				"energy": 0.04978,
				"method": "rhf"
			}
		],
		"cosmo_sigma_profile": { 
			"-0.025": 0.0,
			"-0.024": 0.0,
			"-0.023": 0.0,
			"-0.022": 0.0,
			"-0.021": 0.0,
			"-0.02": 0.0,
			"-0.019": 0.0,
			"-0.018": 0.0,
			"-0.017": 0.0,
			"-0.016": 0.0,
			"-0.015": 0.0,
			"-0.014": 0.314900939969,
			"-0.013": 1.80929468755,
			"-0.012": 1.61241302201,
			"-0.011": 1.81904479243,
			"-0.01": 1.23671403741,
			"-0.009": 1.04179329096,
			"-0.008": 1.99104741979,
			"-0.007": 2.8306883406,
			"-0.006": 12.9536592544,
			"-0.005": 20.8257091101,
			"-0.004": 26.3883580979,
			"-0.003": 33.2487054521,
			"-0.002": 26.2846628027,
			"-0.001": 20.1908880402,
			"0.0": 21.8990319229,
			"0.001": 24.0548785832,
			"0.002": 23.4098990738,
			"0.003": 16.5354127882,
			"0.004": 11.2948177157,
			"0.005": 7.92464179442,
			"0.006": 5.53187398,
			"0.007": 5.5434215808,
			"0.008": 4.0889374432,
			"0.009": 5.02652355452,
			"0.01": 5.48735666898,
			"0.011": 6.41372221925,
			"0.012": 3.72448729946,
			"0.013": 2.13194388636,
			"0.014": 1.83063944839,
			"0.015": 0.207542460623,
			"0.016": 0.0,
			"0.017": 0.0,
			"0.018": 0.0,
			"0.019": 0.0,
			"0.02": 0.0,
			"0.021": 0.0,
			"0.022": 0.0,
			"0.023": 0.0,
			"0.024": 0.0,
			"0.025": 0.0
		}
	}
}
