{
	 "smiles": "OC(=O)C1CCCN1C(=O)C1=C(OC(F)F)C=CC=C1", 
	 "Tm": 398.15, 
	 "num_atms": 33, 
	 "gaussian": { 
		 "optdone": 1, 
		 "sigma_profile": "yes", 
		 "theory": "DFT", 
		 "functional": "B3LYP", 
		 "basiset": "6-31G**", 
		 "properties": { 
			 "R2extent": 5885.6276, 
			 "electric_dipole_moment_norm": 4.62558629149, 
			 "electric_quadrupole_moment_norm": 24.1384643418, 
			 "total_energy": -1058.55564334, 
			 "HOMO_LUMO_gap": 0.21759, 
			 "cosmo_polarized_energy": -21.6, 
			 "cosmo_cavitation_energy": 37.34, 
			 "cosmo_dispersion_energy": -25.11, 
			 "cosmo_repulsion_energy": 1.91, 
			 "cosmo_total_nonelectrostatic_energy": 14.14, 
			 "SMD_solvation_energy": 8.19 
		},
		"coords": [
			{
				"x": -0.108632346,
				"y": 0.1452984123,
				"z": 3.6305582488,
				"element": "O" 
			},
			{
				"x": -0.9927144142,
				"y": 0.5618726492,
				"z": 2.6871757154,
				"element": "C" 
			},
			{
				"x": -1.4449939853,
				"y": 1.6773936234,
				"z": 2.7218309266,
				"element": "O" 
			},
			{
				"x": -1.382591614,
				"y": -0.5114930109,
				"z": 1.6544184206,
				"element": "C" 
			},
			{
				"x": -2.4057861597,
				"y": -1.498253352,
				"z": 2.2765687082,
				"element": "C" 
			},
			{
				"x": -3.7467931836,
				"y": -0.7864295107,
				"z": 2.0311545818,
				"element": "C" 
			},
			{
				"x": -3.5725362398,
				"y": -0.1562536461,
				"z": 0.6413871944,
				"element": "C" 
			},
			{
				"x": -2.1156732874,
				"y": 0.0407462096,
				"z": 0.5238986052,
				"element": "N" 
			},
			{
				"x": -1.5902682458,
				"y": 0.4348693419,
				"z": -0.673129717,
				"element": "C" 
			},
			{
				"x": -2.3131892264,
				"y": 0.659611988,
				"z": -1.6430394928,
				"element": "O" 
			},
			{
				"x": -0.0952056989,
				"y": 0.6053904111,
				"z": -0.7636785081,
				"element": "C" 
			},
			{
				"x": 0.6369286802,
				"y": -0.1742985945,
				"z": -1.6708979225,
				"element": "C" 
			},
			{
				"x": 0.0099223202,
				"y": -1.2261551828,
				"z": -2.3317309765,
				"element": "O" 
			},
			{
				"x": -0.5069249812,
				"y": -0.9339941249,
				"z": -3.5838373186,
				"element": "C" 
			},
			{
				"x": 0.5109782751,
				"y": -0.735757882,
				"z": -4.4717885275,
				"element": "F" 
			},
			{
				"x": -1.1818785997,
				"y": -2.0302623274,
				"z": -3.9727708234,
				"element": "F" 
			},
			{
				"x": 2.0019473741,
				"y": 0.0307549995,
				"z": -1.8587812644,
				"element": "C" 
			},
			{
				"x": 2.6521450926,
				"y": 1.0341072367,
				"z": -1.1390496179,
				"element": "C" 
			},
			{
				"x": 1.9383135053,
				"y": 1.8226340053,
				"z": -0.2349236378,
				"element": "C" 
			},
			{
				"x": 0.572161494,
				"y": 1.6075284367,
				"z": -0.045903738,
				"element": "C" 
			},
			{
				"x": 0.192498258,
				"y": -0.7560464585,
				"z": 3.4440999419,
				"element": "H" 
			},
			{
				"x": -0.4746492737,
				"y": -1.021078533,
				"z": 1.312991287,
				"element": "H" 
			},
			{
				"x": -2.2094721746,
				"y": -1.7040598355,
				"z": 3.3326197305,
				"element": "H" 
			},
			{
				"x": -2.3618922894,
				"y": -2.4456731824,
				"z": 1.7296690104,
				"element": "H" 
			},
			{
				"x": -4.5994919931,
				"y": -1.4682380222,
				"z": 2.0729351393,
				"element": "H" 
			},
			{
				"x": -3.8990299381,
				"y": -0.006774552,
				"z": 2.7836221301,
				"element": "H" 
			},
			{
				"x": -4.0947785927,
				"y": 0.7974731212,
				"z": 0.5322852001,
				"element": "H" 
			},
			{
				"x": -3.9124030542,
				"y": -0.8140415553,
				"z": -0.1662965972,
				"element": "H" 
			},
			{
				"x": -1.1587717362,
				"y": -0.057203224,
				"z": -3.575042847,
				"element": "H" 
			},
			{
				"x": 2.5313621696,
				"y": -0.5995114276,
				"z": -2.5643120546,
				"element": "H" 
			},
			{
				"x": 3.7152367934,
				"y": 1.1984896286,
				"z": -1.2872113536,
				"element": "H" 
			},
			{
				"x": 2.4411885331,
				"y": 2.6072990277,
				"z": 0.321831126,
				"element": "H" 
			},
			{
				"x": 0.0117945383,
				"y": 2.2255553304,
				"z": 0.6482484306,
				"element": "H" 
			}
		],
		 "valence_orbital": [ 
			{
				"type": "occ",
				"energy": -0.28933,
				"method": "rhf"
			},
			{
				"type": "occ",
				"energy": -0.27624,
				"method": "rhf"
			},
			{
				"type": "occ",
				"energy": -0.26325,
				"method": "rhf"
			},
			{
				"type": "occ",
				"energy": -0.25467,
				"method": "rhf"
			},
			{
				"type": "occ",
				"energy": -0.25021,
				"method": "rhf"
			},
			{
				"type": "unocc",
				"energy": -0.03262,
				"method": "rhf"
			},
			{
				"type": "unocc",
				"energy": -0.02139,
				"method": "rhf"
			},
			{
				"type": "unocc",
				"energy": -0.00525,
				"method": "rhf"
			},
			{
				"type": "unocc",
				"energy": 0.02062,
				"method": "rhf"
			},
			{
				"type": "unocc",
				"energy": 0.03842,
				"method": "rhf"
			}
		],
		"cosmo_sigma_profile": { 
			"-0.025": 0.0,
			"-0.024": 0.0,
			"-0.023": 0.0,
			"-0.022": 0.0,
			"-0.021": 0.0,
			"-0.02": 0.240851758414,
			"-0.019": 1.15017919898,
			"-0.018": 1.06228982672,
			"-0.017": 1.47857903083,
			"-0.016": 1.11551299606,
			"-0.015": 1.26737173967,
			"-0.014": 0.565482412722,
			"-0.013": 0.744835351317,
			"-0.012": 1.76477214355,
			"-0.011": 1.1744410363,
			"-0.01": 1.0472731434,
			"-0.009": 1.41156528186,
			"-0.008": 2.79000928571,
			"-0.007": 7.92844342453,
			"-0.006": 14.25792646,
			"-0.005": 22.4757733208,
			"-0.004": 26.1453037117,
			"-0.003": 21.3842164493,
			"-0.002": 21.599579753,
			"-0.001": 16.0898122191,
			"0.0": 12.314725962,
			"0.001": 14.3995502332,
			"0.002": 18.7265233364,
			"0.003": 28.3717163334,
			"0.004": 25.4729450396,
			"0.005": 7.34497302903,
			"0.006": 5.17016452836,
			"0.007": 5.67613580663,
			"0.008": 5.67643554741,
			"0.009": 6.08109702914,
			"0.01": 5.78081005982,
			"0.011": 6.21964844419,
			"0.012": 5.68706767923,
			"0.013": 3.02867412841,
			"0.014": 0.294228637325,
			"0.015": 0.0,
			"0.016": 0.0,
			"0.017": 0.0,
			"0.018": 0.0,
			"0.019": 0.0,
			"0.02": 0.0,
			"0.021": 0.0,
			"0.022": 0.0,
			"0.023": 0.0,
			"0.024": 0.0,
			"0.025": 0.0
		}
	}
}
