{
	 "smiles": "CCOC(=O)C(=O)C1=C(C)NC2=C1C=CC=C2", 
	 "Tm": 401.15, 
	 "num_atms": 30, 
	 "gaussian": { 
		 "optdone": 1, 
		 "sigma_profile": "yes", 
		 "theory": "DFT", 
		 "functional": "B3LYP", 
		 "basiset": "6-31G**", 
		 "properties": { 
			 "R2extent": 5391.9718, 
			 "electric_dipole_moment_norm": 4.90603728583, 
			 "electric_quadrupole_moment_norm": 16.7727936448, 
			 "total_energy": -783.660827597, 
			 "HOMO_LUMO_gap": 0.15793, 
			 "cosmo_polarized_energy": -18.78, 
			 "cosmo_cavitation_energy": 34.29, 
			 "cosmo_dispersion_energy": -24.42, 
			 "cosmo_repulsion_energy": 1.89, 
			 "cosmo_total_nonelectrostatic_energy": 11.76, 
			 "SMD_solvation_energy": 6.93 
		},
		"coords": [
			{
				"x": -0.5046833025,
				"y": -4.203625971,
				"z": 1.9050980415,
				"element": "C" 
			},
			{
				"x": -1.2698777416,
				"y": -3.2243323467,
				"z": 2.7821504175,
				"element": "C" 
			},
			{
				"x": -1.7459381782,
				"y": -2.0899619075,
				"z": 2.0140287143,
				"element": "O" 
			},
			{
				"x": -0.9050528771,
				"y": -1.0566832615,
				"z": 1.8776140512,
				"element": "C" 
			},
			{
				"x": 0.2289955774,
				"y": -1.0180708865,
				"z": 2.3136917156,
				"element": "O" 
			},
			{
				"x": -1.6024448553,
				"y": 0.131680831,
				"z": 1.1889822262,
				"element": "C" 
			},
			{
				"x": -2.6979433884,
				"y": 0.4565128379,
				"z": 1.6384629674,
				"element": "O" 
			},
			{
				"x": -0.9314160054,
				"y": 0.8557695481,
				"z": 0.1241769317,
				"element": "C" 
			},
			{
				"x": 0.253805501,
				"y": 0.5578970622,
				"z": -0.5591368046,
				"element": "C" 
			},
			{
				"x": 1.2502581136,
				"y": -0.5536736107,
				"z": -0.4389408532,
				"element": "C" 
			},
			{
				"x": 0.4534593207,
				"y": 1.523809673,
				"z": -1.5073113868,
				"element": "N" 
			},
			{
				"x": -0.5656434755,
				"y": 2.4669773867,
				"z": -1.4833305804,
				"element": "C" 
			},
			{
				"x": -1.4650946406,
				"y": 2.072678189,
				"z": -0.4668647412,
				"element": "C" 
			},
			{
				"x": -2.6046862578,
				"y": 2.8577385899,
				"z": -0.2295233561,
				"element": "C" 
			},
			{
				"x": -2.8013630935,
				"y": 3.9965585023,
				"z": -1.0050240148,
				"element": "C" 
			},
			{
				"x": -1.889342449,
				"y": 4.3694207699,
				"z": -2.0106546137,
				"element": "C" 
			},
			{
				"x": -0.753221033,
				"y": 3.6071345295,
				"z": -2.2661862003,
				"element": "C" 
			},
			{
				"x": 0.4166054689,
				"y": -3.7493176353,
				"z": 1.5315936708,
				"element": "H" 
			},
			{
				"x": -0.2355155124,
				"y": -5.0909611843,
				"z": 2.487581253,
				"element": "H" 
			},
			{
				"x": -1.1143891721,
				"y": -4.5235354863,
				"z": 1.055029471,
				"element": "H" 
			},
			{
				"x": -0.6489165222,
				"y": -2.8573343544,
				"z": 3.6025000016,
				"element": "H" 
			},
			{
				"x": -2.1791916544,
				"y": -3.6743559525,
				"z": 3.1863074205,
				"element": "H" 
			},
			{
				"x": 1.7523274572,
				"y": -0.5256274721,
				"z": 0.5301515496,
				"element": "H" 
			},
			{
				"x": 0.7692206073,
				"y": -1.5327305342,
				"z": -0.5217572697,
				"element": "H" 
			},
			{
				"x": 1.9992250721,
				"y": -0.4829975758,
				"z": -1.2335810634,
				"element": "H" 
			},
			{
				"x": 1.2419223661,
				"y": 1.5374949013,
				"z": -2.1360141395,
				"element": "H" 
			},
			{
				"x": -3.3057849593,
				"y": 2.5667899415,
				"z": 0.5424134669,
				"element": "H" 
			},
			{
				"x": -3.6788425809,
				"y": 4.6129571706,
				"z": -0.8324932258,
				"element": "H" 
			},
			{
				"x": -2.0739651131,
				"y": 5.2646512057,
				"z": -2.5969800377,
				"element": "H" 
			},
			{
				"x": -0.0450066722,
				"y": 3.8887370402,
				"z": -3.0402836114,
				"element": "H" 
			}
		],
		 "valence_orbital": [ 
			{
				"type": "occ",
				"energy": -0.30066,
				"method": "rhf"
			},
			{
				"type": "occ",
				"energy": -0.27575,
				"method": "rhf"
			},
			{
				"type": "occ",
				"energy": -0.23548,
				"method": "rhf"
			},
			{
				"type": "occ",
				"energy": -0.22735,
				"method": "rhf"
			},
			{
				"type": "occ",
				"energy": -0.2123,
				"method": "rhf"
			},
			{
				"type": "unocc",
				"energy": -0.05437,
				"method": "rhf"
			},
			{
				"type": "unocc",
				"energy": -0.00936,
				"method": "rhf"
			},
			{
				"type": "unocc",
				"energy": 0.0232,
				"method": "rhf"
			},
			{
				"type": "unocc",
				"energy": 0.02671,
				"method": "rhf"
			},
			{
				"type": "unocc",
				"energy": 0.06396,
				"method": "rhf"
			}
		],
		"cosmo_sigma_profile": { 
			"-0.025": 0.0,
			"-0.024": 0.0,
			"-0.023": 0.0,
			"-0.022": 0.0,
			"-0.021": 0.0,
			"-0.02": 0.0,
			"-0.019": 0.0,
			"-0.018": 0.0,
			"-0.017": 0.128122112142,
			"-0.016": 1.3600856444,
			"-0.015": 1.1255703852,
			"-0.014": 1.30237799081,
			"-0.013": 1.33420184801,
			"-0.012": 1.75329916613,
			"-0.011": 2.57756956015,
			"-0.01": 1.38013432701,
			"-0.009": 1.70572525801,
			"-0.008": 2.42747049308,
			"-0.007": 4.30828552979,
			"-0.006": 8.34836063955,
			"-0.005": 16.2311031,
			"-0.004": 24.3132063678,
			"-0.003": 25.779649754,
			"-0.002": 25.5143482529,
			"-0.001": 21.547569162,
			"0.0": 17.6410133461,
			"0.001": 13.8360883833,
			"0.002": 13.4176642451,
			"0.003": 14.6308280907,
			"0.004": 16.3840971804,
			"0.005": 13.672306096,
			"0.006": 12.7501506017,
			"0.007": 4.79872181687,
			"0.008": 4.07921648924,
			"0.009": 4.28697090853,
			"0.01": 4.51149750999,
			"0.011": 6.03002253199,
			"0.012": 3.15229824933,
			"0.013": 2.08426979436,
			"0.014": 0.263300258353,
			"0.015": 0.0,
			"0.016": 0.0,
			"0.017": 0.0,
			"0.018": 0.0,
			"0.019": 0.0,
			"0.02": 0.0,
			"0.021": 0.0,
			"0.022": 0.0,
			"0.023": 0.0,
			"0.024": 0.0,
			"0.025": 0.0
		}
	}
}
