{
	 "smiles": "CN(C)C(=O)C1=C(Cl)N=CC=C1", 
	 "Tm": 343.15, 
	 "num_atms": 21, 
	 "gaussian": { 
		 "optdone": 1, 
		 "sigma_profile": "yes", 
		 "theory": "DFT", 
		 "functional": "B3LYP", 
		 "basiset": "6-31G**", 
		 "properties": { 
			 "R2extent": 2537.0445, 
			 "electric_dipole_moment_norm": 3.92570642178, 
			 "electric_quadrupole_moment_norm": 14.8698277102, 
			 "total_energy": -955.194723109, 
			 "HOMO_LUMO_gap": 0.20152, 
			 "cosmo_polarized_energy": -12.47, 
			 "cosmo_cavitation_energy": 26.46, 
			 "cosmo_dispersion_energy": -18.98, 
			 "cosmo_repulsion_energy": 1.52, 
			 "cosmo_total_nonelectrostatic_energy": 9.0, 
			 "SMD_solvation_energy": 3.77 
		},
		"coords": [
			{
				"x": -2.1864237847,
				"y": 1.0716813751,
				"z": 0.1189833272,
				"element": "C" 
			},
			{
				"x": -0.8725899799,
				"y": 1.6907189357,
				"z": 0.0640680968,
				"element": "N" 
			},
			{
				"x": -0.8548171383,
				"y": 3.1292607671,
				"z": -0.1646710957,
				"element": "C" 
			},
			{
				"x": 0.3176858875,
				"y": 1.0336767447,
				"z": 0.2083413385,
				"element": "C" 
			},
			{
				"x": 1.410025902,
				"y": 1.5759431633,
				"z": 0.0617251163,
				"element": "O" 
			},
			{
				"x": 0.2904929835,
				"y": -0.4479114485,
				"z": 0.517773869,
				"element": "C" 
			},
			{
				"x": -0.0869275565,
				"y": -1.0132486427,
				"z": 1.7469556918,
				"element": "C" 
			},
			{
				"x": -0.6983021174,
				"y": 0.0303209049,
				"z": 3.0340727003,
				"element": "Cl" 
			},
			{
				"x": -0.003148935,
				"y": -2.2962795187,
				"z": 2.0469983601,
				"element": "N" 
			},
			{
				"x": 0.4850902,
				"y": -3.1256097233,
				"z": 1.1155919621,
				"element": "C" 
			},
			{
				"x": 0.9219359578,
				"y": -2.6897898204,
				"z": -0.1335933924,
				"element": "C" 
			},
			{
				"x": 0.8323096047,
				"y": -1.3306053464,
				"z": -0.4230450035,
				"element": "C" 
			},
			{
				"x": -2.1003648339,
				"y": -0.0131893911,
				"z": 0.1593895791,
				"element": "H" 
			},
			{
				"x": -2.7471045689,
				"y": 1.4098249998,
				"z": 0.9986105541,
				"element": "H" 
			},
			{
				"x": -2.7577077429,
				"y": 1.3378512116,
				"z": -0.7789445012,
				"element": "H" 
			},
			{
				"x": -1.402376652,
				"y": 3.647273201,
				"z": 0.6321357499,
				"element": "H" 
			},
			{
				"x": 0.1807631999,
				"y": 3.4646152102,
				"z": -0.1761536871,
				"element": "H" 
			},
			{
				"x": -1.3282639388,
				"y": 3.3708987517,
				"z": -1.1242737422,
				"element": "H" 
			},
			{
				"x": 0.5323033569,
				"y": -4.1763557031,
				"z": 1.392280037,
				"element": "H" 
			},
			{
				"x": 1.3285858149,
				"y": -3.3923733176,
				"z": -0.8531078109,
				"element": "H" 
			},
			{
				"x": 1.1842343413,
				"y": -0.9361023532,
				"z": -1.3712371492,
				"element": "H" 
			}
		],
		 "valence_orbital": [ 
			{
				"type": "occ",
				"energy": -0.30649,
				"method": "rhf"
			},
			{
				"type": "occ",
				"energy": -0.2841,
				"method": "rhf"
			},
			{
				"type": "occ",
				"energy": -0.26885,
				"method": "rhf"
			},
			{
				"type": "occ",
				"energy": -0.24848,
				"method": "rhf"
			},
			{
				"type": "occ",
				"energy": -0.24533,
				"method": "rhf"
			},
			{
				"type": "unocc",
				"energy": -0.04381,
				"method": "rhf"
			},
			{
				"type": "unocc",
				"energy": -0.0331,
				"method": "rhf"
			},
			{
				"type": "unocc",
				"energy": 0.02001,
				"method": "rhf"
			},
			{
				"type": "unocc",
				"energy": 0.03474,
				"method": "rhf"
			},
			{
				"type": "unocc",
				"energy": 0.08882,
				"method": "rhf"
			}
		],
		"cosmo_sigma_profile": { 
			"-0.025": 0.0,
			"-0.024": 0.0,
			"-0.023": 0.0,
			"-0.022": 0.0,
			"-0.021": 0.0,
			"-0.02": 0.0,
			"-0.019": 0.0,
			"-0.018": 0.0,
			"-0.017": 0.0,
			"-0.016": 0.0,
			"-0.015": 0.0,
			"-0.014": 0.0,
			"-0.013": 0.0,
			"-0.012": 0.0,
			"-0.011": 0.0,
			"-0.01": 0.0,
			"-0.009": 0.368301147889,
			"-0.008": 4.49503848083,
			"-0.007": 7.69586439718,
			"-0.006": 9.26986764973,
			"-0.005": 17.4185800971,
			"-0.004": 19.1665380317,
			"-0.003": 20.0785186654,
			"-0.002": 21.5413097858,
			"-0.001": 16.2967320507,
			"0.0": 16.088023928,
			"0.001": 16.8836682939,
			"0.002": 9.15153374978,
			"0.003": 10.3318694039,
			"0.004": 8.77935292688,
			"0.005": 5.80311119779,
			"0.006": 4.02967630244,
			"0.007": 3.46517554529,
			"0.008": 2.52850768318,
			"0.009": 2.54629738926,
			"0.01": 2.76536312761,
			"0.011": 2.35797588323,
			"0.012": 3.23314209126,
			"0.013": 5.54217711317,
			"0.014": 3.09980700355,
			"0.015": 0.132209383422,
			"0.016": 0.0,
			"0.017": 0.0,
			"0.018": 0.0,
			"0.019": 0.0,
			"0.02": 0.0,
			"0.021": 0.0,
			"0.022": 0.0,
			"0.023": 0.0,
			"0.024": 0.0,
			"0.025": 0.0
		}
	}
}
