{
	 "smiles": "N#CC1=CC=C(C=C1)C1=CC=CC=C1", 
	 "Tm": 359.15, 
	 "num_atms": 23, 
	 "gaussian": { 
		 "optdone": 1, 
		 "sigma_profile": "yes", 
		 "theory": "DFT", 
		 "functional": "B3LYP", 
		 "basiset": "6-31G**", 
		 "properties": { 
			 "R2extent": 4139.4988, 
			 "electric_dipole_moment_norm": 5.25494419095, 
			 "electric_quadrupole_moment_norm": 24.8974899287, 
			 "total_energy": -555.551514416, 
			 "HOMO_LUMO_gap": 0.1783, 
			 "cosmo_polarized_energy": -9.89, 
			 "cosmo_cavitation_energy": 28.43, 
			 "cosmo_dispersion_energy": -20.25, 
			 "cosmo_repulsion_energy": 1.57, 
			 "cosmo_total_nonelectrostatic_energy": 9.75, 
			 "SMD_solvation_energy": 6.06 
		},
		"coords": [
			{
				"x": 0.2063207726,
				"y": -5.0642532628,
				"z": -4.2292270351,
				"element": "N" 
			},
			{
				"x": 0.2685634789,
				"y": -4.1615604938,
				"z": -3.4976205621,
				"element": "C" 
			},
			{
				"x": 0.3453915231,
				"y": -3.049761754,
				"z": -2.5965443635,
				"element": "C" 
			},
			{
				"x": -0.0454242899,
				"y": -3.1968200018,
				"z": -1.2549246763,
				"element": "C" 
			},
			{
				"x": 0.0306074086,
				"y": -2.1144895166,
				"z": -0.386646975,
				"element": "C" 
			},
			{
				"x": 0.496741945,
				"y": -0.8608495782,
				"z": -0.8224746318,
				"element": "C" 
			},
			{
				"x": 0.8852308956,
				"y": -0.7297442816,
				"z": -2.1681065012,
				"element": "C" 
			},
			{
				"x": 0.8121906026,
				"y": -1.8034633691,
				"z": -3.0472625663,
				"element": "C" 
			},
			{
				"x": 0.576432622,
				"y": 0.2903009317,
				"z": 0.1105237731,
				"element": "C" 
			},
			{
				"x": 0.2673028172,
				"y": 1.5912900365,
				"z": -0.3222967876,
				"element": "C" 
			},
			{
				"x": 0.3414581291,
				"y": 2.672316284,
				"z": 0.554516899,
				"element": "C" 
			},
			{
				"x": 0.7279280981,
				"y": 2.4756918399,
				"z": 1.8816924057,
				"element": "C" 
			},
			{
				"x": 1.0387989221,
				"y": 1.1888327168,
				"z": 2.3252845394,
				"element": "C" 
			},
			{
				"x": 0.9630305977,
				"y": 0.1072015817,
				"z": 1.449352954,
				"element": "C" 
			},
			{
				"x": -0.4149240362,
				"y": -4.1555016142,
				"z": -0.9064024293,
				"element": "H" 
			},
			{
				"x": -0.3001819859,
				"y": -2.2338374494,
				"z": 0.6400916005,
				"element": "H" 
			},
			{
				"x": 1.2734296751,
				"y": 0.2200228193,
				"z": -2.5217949959,
				"element": "H" 
			},
			{
				"x": 1.1232972607,
				"y": -1.689435801,
				"z": -4.0803544079,
				"element": "H" 
			},
			{
				"x": -0.0605017444,
				"y": 1.7515558083,
				"z": -1.3451485349,
				"element": "H" 
			},
			{
				"x": 0.0889822152,
				"y": 3.6683389987,
				"z": 0.2023913211,
				"element": "H" 
			},
			{
				"x": 0.786354064,
				"y": 3.3181720493,
				"z": 2.5644827593,
				"element": "H" 
			},
			{
				"x": 1.3491147255,
				"y": 1.0270848747,
				"z": 3.3535546448,
				"element": "H" 
			},
			{
				"x": 1.2331563034,
				"y": -0.8852908185,
				"z": 1.79771357,
				"element": "H" 
			}
		],
		 "valence_orbital": [ 
			{
				"type": "occ",
				"energy": -0.32741,
				"method": "rhf"
			},
			{
				"type": "occ",
				"energy": -0.2845,
				"method": "rhf"
			},
			{
				"type": "occ",
				"energy": -0.27543,
				"method": "rhf"
			},
			{
				"type": "occ",
				"energy": -0.26299,
				"method": "rhf"
			},
			{
				"type": "occ",
				"energy": -0.24004,
				"method": "rhf"
			},
			{
				"type": "unocc",
				"energy": -0.06174,
				"method": "rhf"
			},
			{
				"type": "unocc",
				"energy": -0.02511,
				"method": "rhf"
			},
			{
				"type": "unocc",
				"energy": -0.01393,
				"method": "rhf"
			},
			{
				"type": "unocc",
				"energy": -0.00167,
				"method": "rhf"
			},
			{
				"type": "unocc",
				"energy": 0.03877,
				"method": "rhf"
			}
		],
		"cosmo_sigma_profile": { 
			"-0.025": 0.0,
			"-0.024": 0.0,
			"-0.023": 0.0,
			"-0.022": 0.0,
			"-0.021": 0.0,
			"-0.02": 0.0,
			"-0.019": 0.0,
			"-0.018": 0.0,
			"-0.017": 0.0,
			"-0.016": 0.0,
			"-0.015": 0.0,
			"-0.014": 0.0,
			"-0.013": 0.0,
			"-0.012": 0.0,
			"-0.011": 0.0,
			"-0.01": 0.0,
			"-0.009": 0.0,
			"-0.008": 2.56194260137,
			"-0.007": 6.82848233568,
			"-0.006": 19.0979242818,
			"-0.005": 19.3123008411,
			"-0.004": 17.6393362517,
			"-0.003": 14.714344117,
			"-0.002": 14.6747126758,
			"-0.001": 15.9993858033,
			"0.0": 16.0947667258,
			"0.001": 16.5863713079,
			"0.002": 23.3286902473,
			"0.003": 15.9799686938,
			"0.004": 10.900574193,
			"0.005": 12.2100148804,
			"0.006": 4.0705039397,
			"0.007": 2.8413827392,
			"0.008": 3.44490473897,
			"0.009": 3.42395434653,
			"0.01": 3.22891083294,
			"0.011": 2.78495775788,
			"0.012": 2.54429830551,
			"0.013": 1.71152344735,
			"0.014": 0.128228231145,
			"0.015": 0.0,
			"0.016": 0.0,
			"0.017": 0.0,
			"0.018": 0.0,
			"0.019": 0.0,
			"0.02": 0.0,
			"0.021": 0.0,
			"0.022": 0.0,
			"0.023": 0.0,
			"0.024": 0.0,
			"0.025": 0.0
		}
	}
}
