{
	 "smiles": "OC(=O)C=C/C(=O)NC1=CC(Cl)=CC=C1", 
	 "Tm": 470.65, 
	 "num_atms": 23, 
	 "gaussian": { 
		 "optdone": 1, 
		 "sigma_profile": "yes", 
		 "theory": "DFT", 
		 "functional": "B3LYP", 
		 "basiset": "6-31G**", 
		 "properties": { 
			 "R2extent": 3910.4327, 
			 "electric_dipole_moment_norm": 2.50820340483, 
			 "electric_quadrupole_moment_norm": 18.2664229369, 
			 "total_energy": -1126.498833, 
			 "HOMO_LUMO_gap": 0.17337, 
			 "cosmo_polarized_energy": -17.52, 
			 "cosmo_cavitation_energy": 30.64, 
			 "cosmo_dispersion_energy": -21.15, 
			 "cosmo_repulsion_energy": 1.71, 
			 "cosmo_total_nonelectrostatic_energy": 11.2, 
			 "SMD_solvation_energy": 6.77 
		},
		"coords": [
			{
				"x": 1.637402247,
				"y": 1.6029113261,
				"z": -2.5193309054,
				"element": "O" 
			},
			{
				"x": 0.3815255228,
				"y": 1.1666972685,
				"z": -2.2594893624,
				"element": "C" 
			},
			{
				"x": -0.0316474821,
				"y": 0.089741373,
				"z": -2.6428311851,
				"element": "O" 
			},
			{
				"x": -0.3771027124,
				"y": 2.1654731849,
				"z": -1.473104142,
				"element": "C" 
			},
			{
				"x": -1.6497042155,
				"y": 1.9891871791,
				"z": -1.094580783,
				"element": "C" 
			},
			{
				"x": -2.5688054328,
				"y": 0.8699557482,
				"z": -1.5092586827,
				"element": "C" 
			},
			{
				"x": -3.3983706896,
				"y": 1.089918582,
				"z": -2.3786409788,
				"element": "O" 
			},
			{
				"x": -2.5126035925,
				"y": -0.3420708007,
				"z": -0.860603875,
				"element": "N" 
			},
			{
				"x": -1.5859161985,
				"y": -0.8050095132,
				"z": 0.1005420206,
				"element": "C" 
			},
			{
				"x": -1.2928084032,
				"y": -0.045969291,
				"z": 1.2409084991,
				"element": "C" 
			},
			{
				"x": -0.3884731858,
				"y": -0.5469808906,
				"z": 2.174463233,
				"element": "C" 
			},
			{
				"x": -0.0147295262,
				"y": 0.4207891932,
				"z": 3.5946773325,
				"element": "Cl" 
			},
			{
				"x": 0.2031893047,
				"y": -1.7999988217,
				"z": 2.0255818666,
				"element": "C" 
			},
			{
				"x": -0.1222005065,
				"y": -2.557821833,
				"z": 0.8990826071,
				"element": "C" 
			},
			{
				"x": -1.0004313254,
				"y": -2.0674415551,
				"z": -0.063972414,
				"element": "C" 
			},
			{
				"x": 2.065440939,
				"y": 0.9021391115,
				"z": -3.0388975804,
				"element": "H" 
			},
			{
				"x": 0.1487824212,
				"y": 3.0798562865,
				"z": -1.2181594102,
				"element": "H" 
			},
			{
				"x": -2.1489053932,
				"y": 2.7914429472,
				"z": -0.5551050994,
				"element": "H" 
			},
			{
				"x": -3.0791286652,
				"y": -1.0414571653,
				"z": -1.3260313059,
				"element": "H" 
			},
			{
				"x": -1.7745838915,
				"y": 0.9086839685,
				"z": 1.4098692719,
				"element": "H" 
			},
			{
				"x": 0.8946421597,
				"y": -2.1710594343,
				"z": 2.7730843051,
				"element": "H" 
			},
			{
				"x": 0.3286498882,
				"y": -3.5364382209,
				"z": 0.7654458253,
				"element": "H" 
			},
			{
				"x": -1.2216212624,
				"y": -2.6460486428,
				"z": -0.955149237,
				"element": "H" 
			}
		],
		 "valence_orbital": [ 
			{
				"type": "occ",
				"energy": -0.30054,
				"method": "rhf"
			},
			{
				"type": "occ",
				"energy": -0.28528,
				"method": "rhf"
			},
			{
				"type": "occ",
				"energy": -0.26341,
				"method": "rhf"
			},
			{
				"type": "occ",
				"energy": -0.25739,
				"method": "rhf"
			},
			{
				"type": "occ",
				"energy": -0.23842,
				"method": "rhf"
			},
			{
				"type": "unocc",
				"energy": -0.06505,
				"method": "rhf"
			},
			{
				"type": "unocc",
				"energy": -0.02576,
				"method": "rhf"
			},
			{
				"type": "unocc",
				"energy": -0.02124,
				"method": "rhf"
			},
			{
				"type": "unocc",
				"energy": 0.01888,
				"method": "rhf"
			},
			{
				"type": "unocc",
				"energy": 0.02325,
				"method": "rhf"
			}
		],
		"cosmo_sigma_profile": { 
			"-0.025": 0.0,
			"-0.024": 0.0,
			"-0.023": 0.0,
			"-0.022": 0.0,
			"-0.021": 0.0,
			"-0.02": 0.0,
			"-0.019": 0.146787956221,
			"-0.018": 0.715362753408,
			"-0.017": 1.1270758781,
			"-0.016": 1.09123870552,
			"-0.015": 1.20575406851,
			"-0.014": 2.00208307558,
			"-0.013": 1.34452629999,
			"-0.012": 1.56771005557,
			"-0.011": 2.3930359085,
			"-0.01": 2.42220687343,
			"-0.009": 5.30006920053,
			"-0.008": 8.61764841846,
			"-0.007": 10.7238976673,
			"-0.006": 11.6907235964,
			"-0.005": 9.97569726202,
			"-0.004": 11.0906330363,
			"-0.003": 10.7439751646,
			"-0.002": 11.9160084591,
			"-0.001": 13.4361906182,
			"0.0": 14.8374833126,
			"0.001": 18.6365460507,
			"0.002": 20.7039528638,
			"0.003": 20.7582744565,
			"0.004": 15.2790145536,
			"0.005": 10.6580522184,
			"0.006": 3.75589062248,
			"0.007": 5.43033065213,
			"0.008": 5.85832472613,
			"0.009": 4.62719583147,
			"0.01": 3.45763838265,
			"0.011": 4.97588155451,
			"0.012": 6.53048009496,
			"0.013": 3.86138189159,
			"0.014": 0.354390158558,
			"0.015": 0.0,
			"0.016": 0.0,
			"0.017": 0.0,
			"0.018": 0.0,
			"0.019": 0.0,
			"0.02": 0.0,
			"0.021": 0.0,
			"0.022": 0.0,
			"0.023": 0.0,
			"0.024": 0.0,
			"0.025": 0.0
		}
	}
}
