{
	 "smiles": "CCC1=CC2=C(C=C(N2)C(O)=O)C=C1", 
	 "Tm": 452.15, 
	 "num_atms": 25, 
	 "gaussian": { 
		 "optdone": 1, 
		 "sigma_profile": "yes", 
		 "theory": "DFT", 
		 "functional": "B3LYP", 
		 "basiset": "6-31G**", 
		 "properties": { 
			 "R2extent": 4112.2705, 
			 "electric_dipole_moment_norm": 3.69706819115, 
			 "electric_quadrupole_moment_norm": 21.963337801, 
			 "total_energy": -631.028203041, 
			 "HOMO_LUMO_gap": 0.16689, 
			 "cosmo_polarized_energy": -14.72, 
			 "cosmo_cavitation_energy": 29.17, 
			 "cosmo_dispersion_energy": -21.39, 
			 "cosmo_repulsion_energy": 1.68, 
			 "cosmo_total_nonelectrostatic_energy": 9.47, 
			 "SMD_solvation_energy": 5.7 
		},
		"coords": [
			{
				"x": 1.5236365293,
				"y": -2.911496876,
				"z": 2.416700378,
				"element": "C" 
			},
			{
				"x": 1.4976020474,
				"y": -2.9077972023,
				"z": 0.8774024464,
				"element": "C" 
			},
			{
				"x": 0.8515658575,
				"y": -1.6655754898,
				"z": 0.2997524076,
				"element": "C" 
			},
			{
				"x": 1.6311470088,
				"y": -0.6118701799,
				"z": -0.1642804653,
				"element": "C" 
			},
			{
				"x": 0.9834523619,
				"y": 0.5306645576,
				"z": -0.6556793431,
				"element": "C" 
			},
			{
				"x": -0.4377914064,
				"y": 0.6402417346,
				"z": -0.6939999593,
				"element": "C" 
			},
			{
				"x": -0.7410555001,
				"y": 1.9197731978,
				"z": -1.2524809148,
				"element": "C" 
			},
			{
				"x": 0.4644256632,
				"y": 2.5369811466,
				"z": -1.5304316628,
				"element": "C" 
			},
			{
				"x": 1.4971800332,
				"y": 1.693283703,
				"z": -1.1687814517,
				"element": "N" 
			},
			{
				"x": 0.8298757422,
				"y": 3.8422017246,
				"z": -2.1025833349,
				"element": "C" 
			},
			{
				"x": -0.1845693646,
				"y": 4.6684286572,
				"z": -2.4575571544,
				"element": "O" 
			},
			{
				"x": 1.985518656,
				"y": 4.1800142398,
				"z": -2.2568221859,
				"element": "O" 
			},
			{
				"x": -1.2109465459,
				"y": -0.4394073739,
				"z": -0.2217200911,
				"element": "C" 
			},
			{
				"x": -0.5658353534,
				"y": -1.5630406133,
				"z": 0.2625459458,
				"element": "C" 
			},
			{
				"x": 1.987868262,
				"y": -3.8271065836,
				"z": 2.7978845643,
				"element": "H" 
			},
			{
				"x": 2.0902299322,
				"y": -2.056775846,
				"z": 2.7999071839,
				"element": "H" 
			},
			{
				"x": 0.5111844475,
				"y": -2.8487469673,
				"z": 2.8285197834,
				"element": "H" 
			},
			{
				"x": 0.957856339,
				"y": -3.7958855537,
				"z": 0.5255673514,
				"element": "H" 
			},
			{
				"x": 2.5220390507,
				"y": -2.9971128476,
				"z": 0.4979562223,
				"element": "H" 
			},
			{
				"x": 2.7159924512,
				"y": -0.6754204235,
				"z": -0.1477108294,
				"element": "H" 
			},
			{
				"x": -1.7327024849,
				"y": 2.3198459281,
				"z": -1.4213054202,
				"element": "H" 
			},
			{
				"x": 2.4648300217,
				"y": 1.9546271982,
				"z": -1.2881638591,
				"element": "H" 
			},
			{
				"x": -1.03825674,
				"y": 4.2530093446,
				"z": -2.2713226205,
				"element": "H" 
			},
			{
				"x": -2.2960260322,
				"y": -0.3911350482,
				"z": -0.2430259647,
				"element": "H" 
			},
			{
				"x": -1.1551209764,
				"y": -2.4021004269,
				"z": 0.6236289743,
				"element": "H" 
			}
		],
		 "valence_orbital": [ 
			{
				"type": "occ",
				"energy": -0.31539,
				"method": "rhf"
			},
			{
				"type": "occ",
				"energy": -0.28959,
				"method": "rhf"
			},
			{
				"type": "occ",
				"energy": -0.27983,
				"method": "rhf"
			},
			{
				"type": "occ",
				"energy": -0.23088,
				"method": "rhf"
			},
			{
				"type": "occ",
				"energy": -0.21858,
				"method": "rhf"
			},
			{
				"type": "unocc",
				"energy": -0.05169,
				"method": "rhf"
			},
			{
				"type": "unocc",
				"energy": 0.01039,
				"method": "rhf"
			},
			{
				"type": "unocc",
				"energy": 0.02187,
				"method": "rhf"
			},
			{
				"type": "unocc",
				"energy": 0.05302,
				"method": "rhf"
			},
			{
				"type": "unocc",
				"energy": 0.09251,
				"method": "rhf"
			}
		],
		"cosmo_sigma_profile": { 
			"-0.025": 0.0,
			"-0.024": 0.0,
			"-0.023": 0.0,
			"-0.022": 0.0,
			"-0.021": 0.0,
			"-0.02": 0.0,
			"-0.019": 0.150821732711,
			"-0.018": 1.13819834499,
			"-0.017": 0.987503529927,
			"-0.016": 1.4526726859,
			"-0.015": 1.45232274049,
			"-0.014": 1.31513533453,
			"-0.013": 1.43901549359,
			"-0.012": 2.92617515672,
			"-0.011": 1.92823229193,
			"-0.01": 1.75319318546,
			"-0.009": 2.27399518536,
			"-0.008": 2.67504147429,
			"-0.007": 3.14774377842,
			"-0.006": 6.380012375,
			"-0.005": 6.78663268801,
			"-0.004": 11.3289236709,
			"-0.003": 20.0492403833,
			"-0.002": 20.4715854525,
			"-0.001": 19.5563111504,
			"0.0": 20.4392095476,
			"0.001": 18.4826309925,
			"0.002": 13.802846918,
			"0.003": 13.262211684,
			"0.004": 14.4497542771,
			"0.005": 12.8046535123,
			"0.006": 7.56617843062,
			"0.007": 2.28665916602,
			"0.008": 2.55827647681,
			"0.009": 3.05999564019,
			"0.01": 4.91228772624,
			"0.011": 4.77413152753,
			"0.012": 3.91807757344,
			"0.013": 1.94298202064,
			"0.014": 0.24502417947,
			"0.015": 0.0,
			"0.016": 0.0,
			"0.017": 0.0,
			"0.018": 0.0,
			"0.019": 0.0,
			"0.02": 0.0,
			"0.021": 0.0,
			"0.022": 0.0,
			"0.023": 0.0,
			"0.024": 0.0,
			"0.025": 0.0
		}
	}
}
