{
	 "smiles": "CC(C)=NNC(N)=O", 
	 "Tm": 455.15, 
	 "num_atms": 17, 
	 "gaussian": { 
		 "optdone": 1, 
		 "sigma_profile": "yes", 
		 "theory": "DFT", 
		 "functional": "B3LYP", 
		 "basiset": "6-31G**", 
		 "properties": { 
			 "R2extent": 1669.5518, 
			 "electric_dipole_moment_norm": 5.16700476679, 
			 "electric_quadrupole_moment_norm": 13.1830217678, 
			 "total_energy": -397.317300632, 
			 "HOMO_LUMO_gap": 0.23189, 
			 "cosmo_polarized_energy": -20.95, 
			 "cosmo_cavitation_energy": 21.2, 
			 "cosmo_dispersion_energy": -15.51, 
			 "cosmo_repulsion_energy": 1.34, 
			 "cosmo_total_nonelectrostatic_energy": 7.04, 
			 "SMD_solvation_energy": 4.47 
		},
		"coords": [
			{
				"x": 1.6947016698,
				"y": 2.5075502402,
				"z": -0.8856117516,
				"element": "C" 
			},
			{
				"x": 0.7915873323,
				"y": 1.7111053835,
				"z": 0.0334132584,
				"element": "C" 
			},
			{
				"x": 0.7986496155,
				"y": 2.0411770925,
				"z": 1.5011318267,
				"element": "C" 
			},
			{
				"x": 0.0130490053,
				"y": 0.7636116236,
				"z": -0.3479740454,
				"element": "N" 
			},
			{
				"x": 0.0024430571,
				"y": 0.4327366637,
				"z": -1.6741297608,
				"element": "N" 
			},
			{
				"x": -0.9755101414,
				"y": -0.4510955187,
				"z": -2.1413467972,
				"element": "C" 
			},
			{
				"x": -0.8774904493,
				"y": -0.6337933711,
				"z": -3.5221905367,
				"element": "N" 
			},
			{
				"x": -1.8247238364,
				"y": -0.9781834981,
				"z": -1.4532812546,
				"element": "O" 
			},
			{
				"x": 2.2932261447,
				"y": 3.2261865034,
				"z": -0.3223162363,
				"element": "H" 
			},
			{
				"x": 1.118013874,
				"y": 3.0745500007,
				"z": -1.6295881907,
				"element": "H" 
			},
			{
				"x": 2.3857867853,
				"y": 1.8536180247,
				"z": -1.4334128485,
				"element": "H" 
			},
			{
				"x": 1.8026905483,
				"y": 1.9159728926,
				"z": 1.9268735498,
				"element": "H" 
			},
			{
				"x": 0.5107104397,
				"y": 3.0868973484,
				"z": 1.6695521727,
				"element": "H" 
			},
			{
				"x": 0.1028069718,
				"y": 1.3914168837,
				"z": 2.0340403575,
				"element": "H" 
			},
			{
				"x": 0.4297472229,
				"y": 1.0545594319,
				"z": -2.3533430951,
				"element": "H" 
			},
			{
				"x": -1.4668767198,
				"y": -1.3911649157,
				"z": -3.839098206,
				"element": "H" 
			},
			{
				"x": 0.0515884801,
				"y": -0.6510447852,
				"z": -3.9222184421,
				"element": "H" 
			}
		],
		 "valence_orbital": [ 
			{
				"type": "occ",
				"energy": -0.34783,
				"method": "rhf"
			},
			{
				"type": "occ",
				"energy": -0.2771,
				"method": "rhf"
			},
			{
				"type": "occ",
				"energy": -0.27017,
				"method": "rhf"
			},
			{
				"type": "occ",
				"energy": -0.25093,
				"method": "rhf"
			},
			{
				"type": "occ",
				"energy": -0.22787,
				"method": "rhf"
			},
			{
				"type": "unocc",
				"energy": 0.00402,
				"method": "rhf"
			},
			{
				"type": "unocc",
				"energy": 0.05948,
				"method": "rhf"
			},
			{
				"type": "unocc",
				"energy": 0.06342,
				"method": "rhf"
			},
			{
				"type": "unocc",
				"energy": 0.09447,
				"method": "rhf"
			},
			{
				"type": "unocc",
				"energy": 0.12442,
				"method": "rhf"
			}
		],
		"cosmo_sigma_profile": { 
			"-0.025": 0.0,
			"-0.024": 0.0,
			"-0.023": 0.0,
			"-0.022": 0.0,
			"-0.021": 0.0,
			"-0.02": 0.0,
			"-0.019": 0.0,
			"-0.018": 0.0,
			"-0.017": 0.0,
			"-0.016": 0.0,
			"-0.015": 0.192751254266,
			"-0.014": 2.26537301147,
			"-0.013": 3.97549338433,
			"-0.012": 3.58887171533,
			"-0.011": 3.56133519771,
			"-0.01": 2.50187882544,
			"-0.009": 3.92325266576,
			"-0.008": 2.7994163696,
			"-0.007": 3.69659068195,
			"-0.006": 4.2452720784,
			"-0.005": 8.36900609299,
			"-0.004": 13.5652247489,
			"-0.003": 14.3705232963,
			"-0.002": 15.3681866487,
			"-0.001": 14.8146333424,
			"0.0": 10.2005186486,
			"0.001": 5.19459144105,
			"0.002": 4.57667180581,
			"0.003": 4.80852102965,
			"0.004": 3.42349906976,
			"0.005": 4.094277544,
			"0.006": 3.82866054555,
			"0.007": 2.49939979154,
			"0.008": 3.01234991732,
			"0.009": 3.22588088098,
			"0.01": 1.59472096734,
			"0.011": 2.91006676636,
			"0.012": 2.80099770081,
			"0.013": 4.63316115768,
			"0.014": 5.81844586234,
			"0.015": 1.90327502276,
			"0.016": 1.36994673513,
			"0.017": 1.15524582069,
			"0.018": 1.16120141186,
			"0.019": 0.623955811209,
			"0.02": 0.0908402198643,
			"0.021": 0.0,
			"0.022": 0.0,
			"0.023": 0.0,
			"0.024": 0.0,
			"0.025": 0.0
		}
	}
}
