{
	 "smiles": "OCC(CO)ON(=O)=O", 
	 "Tm": 327.15, 
	 "num_atms": 16, 
	 "gaussian": { 
		 "optdone": 1, 
		 "sigma_profile": "yes", 
		 "theory": "DFT", 
		 "functional": "B3LYP", 
		 "basiset": "6-31G**", 
		 "properties": { 
			 "R2extent": 1531.0694, 
			 "electric_dipole_moment_norm": 4.22007916869, 
			 "electric_quadrupole_moment_norm": 6.98461033487, 
			 "total_energy": -549.240135456, 
			 "HOMO_LUMO_gap": 0.20652, 
			 "cosmo_polarized_energy": -13.75, 
			 "cosmo_cavitation_energy": 20.46, 
			 "cosmo_dispersion_energy": -15.02, 
			 "cosmo_repulsion_energy": 1.28, 
			 "cosmo_total_nonelectrostatic_energy": 6.72, 
			 "SMD_solvation_energy": 6.63 
		},
		"coords": [
			{
				"x": -0.3065217271,
				"y": -1.8031008428,
				"z": 0.9947973755,
				"element": "O" 
			},
			{
				"x": -0.8457943569,
				"y": -0.9611518945,
				"z": -0.0183492356,
				"element": "C" 
			},
			{
				"x": 0.179883192,
				"y": 0.0892978927,
				"z": -0.4758815763,
				"element": "C" 
			},
			{
				"x": 0.9198509898,
				"y": 0.7279752639,
				"z": 0.7116196217,
				"element": "C" 
			},
			{
				"x": 0.0943113595,
				"y": 0.9521850869,
				"z": 1.8341522492,
				"element": "O" 
			},
			{
				"x": -0.6392961939,
				"y": 1.0443737068,
				"z": -1.2012865106,
				"element": "O" 
			},
			{
				"x": 0.0581471476,
				"y": 1.8433978355,
				"z": -2.1409681679,
				"element": "N" 
			},
			{
				"x": 1.2559037223,
				"y": 1.6689554891,
				"z": -2.2582536242,
				"element": "O" 
			},
			{
				"x": -0.6660286659,
				"y": 2.6140785382,
				"z": -2.7190116518,
				"element": "O" 
			},
			{
				"x": 0.3459096885,
				"y": -2.3938087212,
				"z": 0.5967838653,
				"element": "H" 
			},
			{
				"x": -1.6900135979,
				"y": -0.4405506187,
				"z": 0.4380698644,
				"element": "H" 
			},
			{
				"x": -1.2198257547,
				"y": -1.5317710802,
				"z": -0.8769928386,
				"element": "H" 
			},
			{
				"x": 0.9084311392,
				"y": -0.3368348232,
				"z": -1.1727224345,
				"element": "H" 
			},
			{
				"x": 1.3254093494,
				"y": 1.6947596972,
				"z": 0.4028901391,
				"element": "H" 
			},
			{
				"x": 1.7760375131,
				"y": 0.0818373467,
				"z": 0.9562915228,
				"element": "H" 
			},
			{
				"x": -0.0869038049,
				"y": 0.0807571234,
				"z": 2.2156614015,
				"element": "H" 
			}
		],
		 "valence_orbital": [ 
			{
				"type": "occ",
				"energy": -0.33878,
				"method": "rhf"
			},
			{
				"type": "occ",
				"energy": -0.33357,
				"method": "rhf"
			},
			{
				"type": "occ",
				"energy": -0.3194,
				"method": "rhf"
			},
			{
				"type": "occ",
				"energy": -0.30464,
				"method": "rhf"
			},
			{
				"type": "occ",
				"energy": -0.27485,
				"method": "rhf"
			},
			{
				"type": "unocc",
				"energy": -0.06833,
				"method": "rhf"
			},
			{
				"type": "unocc",
				"energy": 0.03053,
				"method": "rhf"
			},
			{
				"type": "unocc",
				"energy": 0.04538,
				"method": "rhf"
			},
			{
				"type": "unocc",
				"energy": 0.10606,
				"method": "rhf"
			},
			{
				"type": "unocc",
				"energy": 0.10841,
				"method": "rhf"
			}
		],
		"cosmo_sigma_profile": { 
			"-0.025": 0.0,
			"-0.024": 0.0,
			"-0.023": 0.0,
			"-0.022": 0.0,
			"-0.021": 0.0,
			"-0.02": 0.0,
			"-0.019": 0.0,
			"-0.018": 0.0,
			"-0.017": 0.739058751935,
			"-0.016": 1.01873814945,
			"-0.015": 1.50716745561,
			"-0.014": 1.13047346459,
			"-0.013": 0.876401156479,
			"-0.012": 0.831551155798,
			"-0.011": 1.5747528448,
			"-0.01": 1.80067744481,
			"-0.009": 3.26356522671,
			"-0.008": 5.10412998208,
			"-0.007": 6.43002730064,
			"-0.006": 9.71327812543,
			"-0.005": 10.832654542,
			"-0.004": 10.1248922286,
			"-0.003": 9.82671971357,
			"-0.002": 8.80901129364,
			"-0.001": 6.55447120727,
			"0.0": 5.88205821326,
			"0.001": 4.75833199898,
			"0.002": 5.60893968188,
			"0.003": 5.74522721683,
			"0.004": 7.39040206626,
			"0.005": 10.2388559954,
			"0.006": 13.7177715152,
			"0.007": 10.4632105059,
			"0.008": 3.18779870828,
			"0.009": 2.48123652601,
			"0.01": 1.67016083866,
			"0.011": 2.12718136287,
			"0.012": 2.44454176661,
			"0.013": 2.2476916153,
			"0.014": 1.86792487771,
			"0.015": 0.0706886773626,
			"0.016": 0.0,
			"0.017": 0.0,
			"0.018": 0.0,
			"0.019": 0.0,
			"0.02": 0.0,
			"0.021": 0.0,
			"0.022": 0.0,
			"0.023": 0.0,
			"0.024": 0.0,
			"0.025": 0.0
		}
	}
}
