{
	 "smiles": "CC(C)(CO)C(O)C(=O)NCCCO", 
	 "Tm": 341.15, 
	 "num_atms": 33, 
	 "gaussian": { 
		 "optdone": 1, 
		 "sigma_profile": "yes", 
		 "theory": "DFT", 
		 "functional": "B3LYP", 
		 "basiset": "6-31G**", 
		 "properties": { 
			 "R2extent": 3502.2132, 
			 "electric_dipole_moment_norm": 3.93747064243, 
			 "electric_quadrupole_moment_norm": 7.09791279814, 
			 "total_energy": -710.055940534, 
			 "HOMO_LUMO_gap": 0.25237, 
			 "cosmo_polarized_energy": -16.91, 
			 "cosmo_cavitation_energy": 32.29, 
			 "cosmo_dispersion_energy": -22.72, 
			 "cosmo_repulsion_energy": 1.78, 
			 "cosmo_total_nonelectrostatic_energy": 11.35, 
			 "SMD_solvation_energy": 5.19 
		},
		"coords": [
			{
				"x": -1.7578650055,
				"y": 0.6410328405,
				"z": 2.8416822205,
				"element": "C" 
			},
			{
				"x": -0.4373089045,
				"y": 0.1012843342,
				"z": 2.2595509407,
				"element": "C" 
			},
			{
				"x": -0.5646801385,
				"y": -1.4116296636,
				"z": 1.9977844318,
				"element": "C" 
			},
			{
				"x": 0.7060257546,
				"y": 0.3691018,
				"z": 3.2715353102,
				"element": "C" 
			},
			{
				"x": 0.4684088231,
				"y": -0.2355537495,
				"z": 4.5409861302,
				"element": "O" 
			},
			{
				"x": -0.1832467755,
				"y": 0.8340221853,
				"z": 0.9067563881,
				"element": "C" 
			},
			{
				"x": 0.0023972848,
				"y": 2.2482602375,
				"z": 1.0659181442,
				"element": "O" 
			},
			{
				"x": 1.0517031574,
				"y": 0.3357810678,
				"z": 0.1407116953,
				"element": "C" 
			},
			{
				"x": 2.1699490437,
				"y": 0.6261901581,
				"z": 0.575271275,
				"element": "O" 
			},
			{
				"x": 0.9039149399,
				"y": -0.3998033516,
				"z": -0.9979383259,
				"element": "N" 
			},
			{
				"x": -0.2415802418,
				"y": -0.4251951927,
				"z": -1.911843072,
				"element": "C" 
			},
			{
				"x": -0.1920403267,
				"y": 0.6719352077,
				"z": -2.9899988674,
				"element": "C" 
			},
			{
				"x": -0.0782288382,
				"y": 2.0964710094,
				"z": -2.4371992905,
				"element": "C" 
			},
			{
				"x": -1.1640320879,
				"y": 2.3925043163,
				"z": -1.5707541271,
				"element": "O" 
			},
			{
				"x": -2.612150255,
				"y": 0.3556460366,
				"z": 2.2171721167,
				"element": "H" 
			},
			{
				"x": -1.9106593802,
				"y": 0.2399936885,
				"z": 3.8464261312,
				"element": "H" 
			},
			{
				"x": -1.7320923501,
				"y": 1.7324467293,
				"z": 2.9051150908,
				"element": "H" 
			},
			{
				"x": -1.3441017948,
				"y": -1.6251714364,
				"z": 1.2577935918,
				"element": "H" 
			},
			{
				"x": -0.8488304297,
				"y": -1.9296733751,
				"z": 2.9191964121,
				"element": "H" 
			},
			{
				"x": 0.3717847706,
				"y": -1.8492337499,
				"z": 1.6338416238,
				"element": "H" 
			},
			{
				"x": 1.6677617719,
				"y": 0.0515267207,
				"z": 2.8534971311,
				"element": "H" 
			},
			{
				"x": 0.7673548123,
				"y": 1.4446248793,
				"z": 3.4642971544,
				"element": "H" 
			},
			{
				"x": 0.6889614227,
				"y": -1.1717876786,
				"z": 4.4681610804,
				"element": "H" 
			},
			{
				"x": -1.088764764,
				"y": 0.7351705318,
				"z": 0.3082593801,
				"element": "H" 
			},
			{
				"x": 0.9523534634,
				"y": 2.3672870553,
				"z": 1.234234867,
				"element": "H" 
			},
			{
				"x": 1.8050552083,
				"y": -0.6143934274,
				"z": -1.4134511052,
				"element": "H" 
			},
			{
				"x": -0.2710039436,
				"y": -1.4121098082,
				"z": -2.3856285526,
				"element": "H" 
			},
			{
				"x": -1.1589570081,
				"y": -0.3271081667,
				"z": -1.3326039079,
				"element": "H" 
			},
			{
				"x": -1.1053654648,
				"y": 0.5889720221,
				"z": -3.5920640332,
				"element": "H" 
			},
			{
				"x": 0.6524148596,
				"y": 0.4922084778,
				"z": -3.6696990576,
				"element": "H" 
			},
			{
				"x": -0.0718396114,
				"y": 2.8009527049,
				"z": -3.2818677554,
				"element": "H" 
			},
			{
				"x": 0.8837077528,
				"y": 2.2159292381,
				"z": -1.9201424951,
				"element": "H" 
			},
			{
				"x": -0.8036457449,
				"y": 2.6870183585,
				"z": -0.7177005256,
				"element": "H" 
			}
		],
		 "valence_orbital": [ 
			{
				"type": "occ",
				"energy": -0.29332,
				"method": "rhf"
			},
			{
				"type": "occ",
				"energy": -0.27228,
				"method": "rhf"
			},
			{
				"type": "occ",
				"energy": -0.26399,
				"method": "rhf"
			},
			{
				"type": "occ",
				"energy": -0.26172,
				"method": "rhf"
			},
			{
				"type": "occ",
				"energy": -0.25142,
				"method": "rhf"
			},
			{
				"type": "unocc",
				"energy": 0.00095,
				"method": "rhf"
			},
			{
				"type": "unocc",
				"energy": 0.06522,
				"method": "rhf"
			},
			{
				"type": "unocc",
				"energy": 0.06718,
				"method": "rhf"
			},
			{
				"type": "unocc",
				"energy": 0.08125,
				"method": "rhf"
			},
			{
				"type": "unocc",
				"energy": 0.09332,
				"method": "rhf"
			}
		],
		"cosmo_sigma_profile": { 
			"-0.025": 0.0,
			"-0.024": 0.0,
			"-0.023": 0.0,
			"-0.022": 0.0,
			"-0.021": 0.0,
			"-0.02": 0.0,
			"-0.019": 0.0,
			"-0.018": 0.0,
			"-0.017": 0.0,
			"-0.016": 0.0,
			"-0.015": 0.36437125491,
			"-0.014": 1.15443281444,
			"-0.013": 1.88250134805,
			"-0.012": 3.245456136,
			"-0.011": 2.33653230326,
			"-0.01": 2.29388099164,
			"-0.009": 2.39194998813,
			"-0.008": 3.22824319487,
			"-0.007": 4.76852212129,
			"-0.006": 5.84041536519,
			"-0.005": 12.0888307584,
			"-0.004": 20.3415799055,
			"-0.003": 28.3811793636,
			"-0.002": 26.0054476274,
			"-0.001": 22.9619195305,
			"0.0": 19.7637271297,
			"0.001": 19.1482150605,
			"0.002": 12.5056431731,
			"0.003": 6.39883126497,
			"0.004": 6.79421545044,
			"0.005": 5.02334111427,
			"0.006": 4.73599836807,
			"0.007": 4.7831144396,
			"0.008": 3.39602508194,
			"0.009": 3.49251850061,
			"0.01": 3.94626832847,
			"0.011": 4.44473961591,
			"0.012": 4.53439533402,
			"0.013": 5.21183151957,
			"0.014": 4.86706277362,
			"0.015": 2.28439863378,
			"0.016": 0.102787375279,
			"0.017": 0.0,
			"0.018": 0.0,
			"0.019": 0.0,
			"0.02": 0.0,
			"0.021": 0.0,
			"0.022": 0.0,
			"0.023": 0.0,
			"0.024": 0.0,
			"0.025": 0.0
		}
	}
}
