{
	 "smiles": "COC(=O)C1=CC2=C(NN=C2)C=C1", 
	 "Tm": 467.15, 
	 "num_atms": 21, 
	 "gaussian": { 
		 "optdone": 1, 
		 "sigma_profile": "yes", 
		 "theory": "DFT", 
		 "functional": "B3LYP", 
		 "basiset": "6-31G**", 
		 "properties": { 
			 "R2extent": 3648.3401, 
			 "electric_dipole_moment_norm": 0.555450267801, 
			 "electric_quadrupole_moment_norm": 20.2897253808, 
			 "total_energy": -607.726216855, 
			 "HOMO_LUMO_gap": 0.18686, 
			 "cosmo_polarized_energy": -12.67, 
			 "cosmo_cavitation_energy": 25.83, 
			 "cosmo_dispersion_energy": -19.34, 
			 "cosmo_repulsion_energy": 1.52, 
			 "cosmo_total_nonelectrostatic_energy": 8.0, 
			 "SMD_solvation_energy": 5.07 
		},
		"coords": [
			{
				"x": -2.8624579796,
				"y": -1.762669757,
				"z": 0.8369150032,
				"element": "C" 
			},
			{
				"x": -1.876965019,
				"y": -0.7803762475,
				"z": 0.4866938586,
				"element": "O" 
			},
			{
				"x": -2.200088634,
				"y": 0.0091076579,
				"z": -0.5661023209,
				"element": "C" 
			},
			{
				"x": -3.2478015371,
				"y": -0.1007578161,
				"z": -1.1752009571,
				"element": "O" 
			},
			{
				"x": -1.1414003205,
				"y": 1.0049293016,
				"z": -0.8799477117,
				"element": "C" 
			},
			{
				"x": 0.0398868238,
				"y": 1.0843813609,
				"z": -0.1468140719,
				"element": "C" 
			},
			{
				"x": 0.9864461995,
				"y": 2.0533601074,
				"z": -0.5099217476,
				"element": "C" 
			},
			{
				"x": 0.7233055016,
				"y": 2.9211124094,
				"z": -1.6029094169,
				"element": "C" 
			},
			{
				"x": 1.8164742974,
				"y": 3.7312357967,
				"z": -1.6978032795,
				"element": "N" 
			},
			{
				"x": 2.762157882,
				"y": 3.4561103963,
				"z": -0.7552144803,
				"element": "N" 
			},
			{
				"x": 2.2772109832,
				"y": 2.4575989017,
				"z": -0.0420676444,
				"element": "C" 
			},
			{
				"x": -0.4672857219,
				"y": 2.8466295517,
				"z": -2.3477199514,
				"element": "C" 
			},
			{
				"x": -1.3834315177,
				"y": 1.8840263884,
				"z": -1.9703030083,
				"element": "C" 
			},
			{
				"x": -3.8068523882,
				"y": -1.2832000878,
				"z": 1.1069490816,
				"element": "H" 
			},
			{
				"x": -3.042266172,
				"y": -2.4443527156,
				"z": 0.0016489612,
				"element": "H" 
			},
			{
				"x": -2.449951114,
				"y": -2.3025234722,
				"z": 1.6893934722,
				"element": "H" 
			},
			{
				"x": 0.213537091,
				"y": 0.4086850316,
				"z": 0.6827040921,
				"element": "H" 
			},
			{
				"x": 1.9903806006,
				"y": 4.473206146,
				"z": -2.3565586324,
				"element": "H" 
			},
			{
				"x": 2.8531574863,
				"y": 2.0539114496,
				"z": 0.7799290244,
				"element": "H" 
			},
			{
				"x": -0.6616370659,
				"y": 3.513267913,
				"z": -3.1820097226,
				"element": "H" 
			},
			{
				"x": -2.3215193957,
				"y": 1.7738176841,
				"z": -2.503060548,
				"element": "H" 
			}
		],
		 "valence_orbital": [ 
			{
				"type": "occ",
				"energy": -0.30032,
				"method": "rhf"
			},
			{
				"type": "occ",
				"energy": -0.29829,
				"method": "rhf"
			},
			{
				"type": "occ",
				"energy": -0.2705,
				"method": "rhf"
			},
			{
				"type": "occ",
				"energy": -0.24944,
				"method": "rhf"
			},
			{
				"type": "occ",
				"energy": -0.2312,
				"method": "rhf"
			},
			{
				"type": "unocc",
				"energy": -0.04434,
				"method": "rhf"
			},
			{
				"type": "unocc",
				"energy": -0.02377,
				"method": "rhf"
			},
			{
				"type": "unocc",
				"energy": 0.04779,
				"method": "rhf"
			},
			{
				"type": "unocc",
				"energy": 0.07521,
				"method": "rhf"
			},
			{
				"type": "unocc",
				"energy": 0.0784,
				"method": "rhf"
			}
		],
		"cosmo_sigma_profile": { 
			"-0.025": 0.0,
			"-0.024": 0.0,
			"-0.023": 0.0,
			"-0.022": 0.0,
			"-0.021": 0.0,
			"-0.02": 0.0,
			"-0.019": 0.0,
			"-0.018": 0.0,
			"-0.017": 0.502195095047,
			"-0.016": 1.67090121147,
			"-0.015": 1.53567176674,
			"-0.014": 1.29266210935,
			"-0.013": 0.969444965597,
			"-0.012": 0.633763607964,
			"-0.011": 1.28160394127,
			"-0.01": 1.25939706535,
			"-0.009": 1.12994430698,
			"-0.008": 2.84604884157,
			"-0.007": 6.17919744357,
			"-0.006": 10.302865639,
			"-0.005": 14.0269451591,
			"-0.004": 13.9191146119,
			"-0.003": 14.2509346305,
			"-0.002": 12.5619081858,
			"-0.001": 10.0307598619,
			"0.0": 10.9877096726,
			"0.001": 16.5898640546,
			"0.002": 21.8631248306,
			"0.003": 20.4644221802,
			"0.004": 8.46947947459,
			"0.005": 5.43005188754,
			"0.006": 4.64798858436,
			"0.007": 2.19327712592,
			"0.008": 3.67440327055,
			"0.009": 2.39765553551,
			"0.01": 3.3117729372,
			"0.011": 3.68860234972,
			"0.012": 5.49963081706,
			"0.013": 1.87286761261,
			"0.014": 1.04434427304,
			"0.015": 0.645084211935,
			"0.016": 0.00565383891335,
			"0.017": 0.0,
			"0.018": 0.0,
			"0.019": 0.0,
			"0.02": 0.0,
			"0.021": 0.0,
			"0.022": 0.0,
			"0.023": 0.0,
			"0.024": 0.0,
			"0.025": 0.0
		}
	}
}
