{
	 "smiles": "CCOC1=CC=CC(O)=C1", 
	 "Tm": 302.65, 
	 "num_atms": 20, 
	 "gaussian": { 
		 "optdone": 1, 
		 "sigma_profile": "yes", 
		 "theory": "DFT", 
		 "functional": "B3LYP", 
		 "basiset": "6-31G**", 
		 "properties": { 
			 "R2extent": 2443.5164, 
			 "electric_dipole_moment_norm": 2.61196359469, 
			 "electric_quadrupole_moment_norm": 10.9237437035, 
			 "total_energy": -461.316909762, 
			 "HOMO_LUMO_gap": 0.21649, 
			 "cosmo_polarized_energy": -10.07, 
			 "cosmo_cavitation_energy": 23.51, 
			 "cosmo_dispersion_energy": -17.61, 
			 "cosmo_repulsion_energy": 1.45, 
			 "cosmo_total_nonelectrostatic_energy": 7.35, 
			 "SMD_solvation_energy": 4.77 
		},
		"coords": [
			{
				"x": -1.8670760021,
				"y": 3.1810105511,
				"z": -0.8762106391,
				"element": "C" 
			},
			{
				"x": -0.7121858042,
				"y": 2.6159347914,
				"z": -0.0673014081,
				"element": "C" 
			},
			{
				"x": -0.131239255,
				"y": 1.5594947899,
				"z": -0.8274029353,
				"element": "O" 
			},
			{
				"x": 0.93612895,
				"y": 0.8817930873,
				"z": -0.3133712463,
				"element": "C" 
			},
			{
				"x": 1.4533208627,
				"y": -0.1432125082,
				"z": -1.1183161451,
				"element": "C" 
			},
			{
				"x": 2.5420085224,
				"y": -0.8818845615,
				"z": -0.6657587093,
				"element": "C" 
			},
			{
				"x": 3.1315765916,
				"y": -0.6251595298,
				"z": 0.5730334827,
				"element": "C" 
			},
			{
				"x": 2.6088667186,
				"y": 0.3973432227,
				"z": 1.3662206517,
				"element": "C" 
			},
			{
				"x": 3.2069422712,
				"y": 0.626099408,
				"z": 2.5749907607,
				"element": "O" 
			},
			{
				"x": 1.5124539599,
				"y": 1.1562109433,
				"z": 0.9330244782,
				"element": "C" 
			},
			{
				"x": -2.6154265663,
				"y": 2.4076861066,
				"z": -1.0703229412,
				"element": "H" 
			},
			{
				"x": -1.512355439,
				"y": 3.565436774,
				"z": -1.8364851882,
				"element": "H" 
			},
			{
				"x": -2.3459079884,
				"y": 3.9991288918,
				"z": -0.3293296707,
				"element": "H" 
			},
			{
				"x": -1.0648616708,
				"y": 2.2320997264,
				"z": 0.9010295817,
				"element": "H" 
			},
			{
				"x": 0.0404973356,
				"y": 3.3921820426,
				"z": 0.1334141534,
				"element": "H" 
			},
			{
				"x": 0.9896518168,
				"y": -0.336254174,
				"z": -2.0791830043,
				"element": "H" 
			},
			{
				"x": 2.9418916951,
				"y": -1.6757778363,
				"z": -1.2902648768,
				"element": "H" 
			},
			{
				"x": 3.9800135247,
				"y": -1.1955689628,
				"z": 0.9336598789,
				"element": "H" 
			},
			{
				"x": 2.7534248464,
				"y": 1.3528284609,
				"z": 3.0207179551,
				"element": "H" 
			},
			{
				"x": 1.1252756307,
				"y": 1.9456087766,
				"z": 1.568955822,
				"element": "H" 
			}
		],
		 "valence_orbital": [ 
			{
				"type": "occ",
				"energy": -0.34521,
				"method": "rhf"
			},
			{
				"type": "occ",
				"energy": -0.32692,
				"method": "rhf"
			},
			{
				"type": "occ",
				"energy": -0.29737,
				"method": "rhf"
			},
			{
				"type": "occ",
				"energy": -0.23315,
				"method": "rhf"
			},
			{
				"type": "occ",
				"energy": -0.20528,
				"method": "rhf"
			},
			{
				"type": "unocc",
				"energy": 0.01121,
				"method": "rhf"
			},
			{
				"type": "unocc",
				"energy": 0.02361,
				"method": "rhf"
			},
			{
				"type": "unocc",
				"energy": 0.0694,
				"method": "rhf"
			},
			{
				"type": "unocc",
				"energy": 0.09671,
				"method": "rhf"
			},
			{
				"type": "unocc",
				"energy": 0.10192,
				"method": "rhf"
			}
		],
		"cosmo_sigma_profile": { 
			"-0.025": 0.0,
			"-0.024": 0.0,
			"-0.023": 0.0,
			"-0.022": 0.0,
			"-0.021": 0.0,
			"-0.02": 0.0,
			"-0.019": 0.0,
			"-0.018": 0.189678056449,
			"-0.017": 1.09941005232,
			"-0.016": 1.18886783232,
			"-0.015": 1.18726640384,
			"-0.014": 0.548128632542,
			"-0.013": 1.05172470001,
			"-0.012": 0.839383817784,
			"-0.011": 1.58943201322,
			"-0.01": 0.709493211165,
			"-0.009": 1.19204443075,
			"-0.008": 0.962929283381,
			"-0.007": 1.61435534558,
			"-0.006": 3.70039538919,
			"-0.005": 11.6370638341,
			"-0.004": 17.1811875009,
			"-0.003": 19.5725111672,
			"-0.002": 14.5022784981,
			"-0.001": 13.0318210094,
			"0.0": 12.4698391852,
			"0.001": 10.0058955141,
			"0.002": 7.21654387108,
			"0.003": 8.17336145282,
			"0.004": 13.3839478542,
			"0.005": 14.6477177452,
			"0.006": 12.2176775091,
			"0.007": 3.602576659,
			"0.008": 2.49833918595,
			"0.009": 3.40550739387,
			"0.01": 3.14181509866,
			"0.011": 1.94530857491,
			"0.012": 1.18816566056,
			"0.013": 0.0,
			"0.014": 0.0,
			"0.015": 0.0,
			"0.016": 0.0,
			"0.017": 0.0,
			"0.018": 0.0,
			"0.019": 0.0,
			"0.02": 0.0,
			"0.021": 0.0,
			"0.022": 0.0,
			"0.023": 0.0,
			"0.024": 0.0,
			"0.025": 0.0
		}
	}
}
