{
	 "smiles": "CC=CC(=O)N1C(COC1=O)C(C)C", 
	 "Tm": 329.15, 
	 "num_atms": 29, 
	 "gaussian": { 
		 "optdone": 1, 
		 "sigma_profile": "yes", 
		 "theory": "DFT", 
		 "functional": "B3LYP", 
		 "basiset": "6-31G**", 
		 "properties": { 
			 "R2extent": 3685.0308, 
			 "electric_dipole_moment_norm": 2.43323781411, 
			 "electric_quadrupole_moment_norm": 18.6928216316, 
			 "total_energy": -670.546558077, 
			 "HOMO_LUMO_gap": 0.21275, 
			 "cosmo_polarized_energy": -11.24, 
			 "cosmo_cavitation_energy": 30.95, 
			 "cosmo_dispersion_energy": -22.11, 
			 "cosmo_repulsion_energy": 1.75, 
			 "cosmo_total_nonelectrostatic_energy": 10.59, 
			 "SMD_solvation_energy": 7.42 
		},
		"coords": [
			{
				"x": -1.7493807975,
				"y": 2.8553033116,
				"z": 2.0706084878,
				"element": "C" 
			},
			{
				"x": -2.5177009084,
				"y": 2.5360701458,
				"z": 0.8264645893,
				"element": "C" 
			},
			{
				"x": -2.2014202656,
				"y": 1.7231994998,
				"z": -0.1994858644,
				"element": "C" 
			},
			{
				"x": -0.9579145642,
				"y": 0.9309754279,
				"z": -0.2913029319,
				"element": "C" 
			},
			{
				"x": -0.1034878738,
				"y": 0.8476770454,
				"z": 0.5840594965,
				"element": "O" 
			},
			{
				"x": -0.7451330582,
				"y": 0.203290973,
				"z": -1.4893548499,
				"element": "N" 
			},
			{
				"x": 0.4670013788,
				"y": -0.6211937284,
				"z": -1.6479913394,
				"element": "C" 
			},
			{
				"x": 0.6868927044,
				"y": -0.460160743,
				"z": -3.1599659885,
				"element": "C" 
			},
			{
				"x": -0.6290084628,
				"y": -0.2035577063,
				"z": -3.6897753247,
				"element": "O" 
			},
			{
				"x": -1.4245379027,
				"y": 0.3134629498,
				"z": -2.7162564527,
				"element": "C" 
			},
			{
				"x": -2.5211514851,
				"y": 0.7616319023,
				"z": -2.9421706443,
				"element": "O" 
			},
			{
				"x": 0.2734107571,
				"y": -2.1029549036,
				"z": -1.2337795426,
				"element": "C" 
			},
			{
				"x": 1.628912204,
				"y": -2.8278509695,
				"z": -1.2738117304,
				"element": "C" 
			},
			{
				"x": -0.3837958831,
				"y": -2.2745350286,
				"z": 0.1420930446,
				"element": "C" 
			},
			{
				"x": -1.6163709346,
				"y": 3.9417073622,
				"z": 2.15447764,
				"element": "H" 
			},
			{
				"x": -0.7810409926,
				"y": 2.3616685114,
				"z": 2.0980570419,
				"element": "H" 
			},
			{
				"x": -2.3324658939,
				"y": 2.5527125005,
				"z": 2.9507738311,
				"element": "H" 
			},
			{
				"x": -3.4795219711,
				"y": 3.0434936995,
				"z": 0.7405219842,
				"element": "H" 
			},
			{
				"x": -2.8912439052,
				"y": 1.6264640507,
				"z": -1.0275084701,
				"element": "H" 
			},
			{
				"x": 1.2695942555,
				"y": -0.1731791872,
				"z": -1.0584381247,
				"element": "H" 
			},
			{
				"x": 1.3329752245,
				"y": 0.3909522221,
				"z": -3.4024561455,
				"element": "H" 
			},
			{
				"x": 1.0711694424,
				"y": -1.3572680421,
				"z": -3.6462831911,
				"element": "H" 
			},
			{
				"x": -0.3881434979,
				"y": -2.5604237314,
				"z": -1.9847760853,
				"element": "H" 
			},
			{
				"x": 1.4996885644,
				"y": -3.8942484445,
				"z": -1.0658762975,
				"element": "H" 
			},
			{
				"x": 2.30719688,
				"y": -2.4210279072,
				"z": -0.5146079625,
				"element": "H" 
			},
			{
				"x": 2.1268082137,
				"y": -2.7433978839,
				"z": -2.245878202,
				"element": "H" 
			},
			{
				"x": -0.4849052747,
				"y": -3.3397891043,
				"z": 0.3747843557,
				"element": "H" 
			},
			{
				"x": -1.3839315169,
				"y": -1.8342572971,
				"z": 0.1705792669,
				"element": "H" 
			},
			{
				"x": 0.2121055637,
				"y": -1.8040649246,
				"z": 0.9290994096,
				"element": "H" 
			}
		],
		 "valence_orbital": [ 
			{
				"type": "occ",
				"energy": -0.30472,
				"method": "rhf"
			},
			{
				"type": "occ",
				"energy": -0.28695,
				"method": "rhf"
			},
			{
				"type": "occ",
				"energy": -0.27219,
				"method": "rhf"
			},
			{
				"type": "occ",
				"energy": -0.26682,
				"method": "rhf"
			},
			{
				"type": "occ",
				"energy": -0.26409,
				"method": "rhf"
			},
			{
				"type": "unocc",
				"energy": -0.05134,
				"method": "rhf"
			},
			{
				"type": "unocc",
				"energy": 0.02675,
				"method": "rhf"
			},
			{
				"type": "unocc",
				"energy": 0.07842,
				"method": "rhf"
			},
			{
				"type": "unocc",
				"energy": 0.08562,
				"method": "rhf"
			},
			{
				"type": "unocc",
				"energy": 0.09226,
				"method": "rhf"
			}
		],
		"cosmo_sigma_profile": { 
			"-0.025": 0.0,
			"-0.024": 0.0,
			"-0.023": 0.0,
			"-0.022": 0.0,
			"-0.021": 0.0,
			"-0.02": 0.0,
			"-0.019": 0.0,
			"-0.018": 0.0,
			"-0.017": 0.0,
			"-0.016": 0.0,
			"-0.015": 0.0,
			"-0.014": 0.0,
			"-0.013": 0.0,
			"-0.012": 0.0,
			"-0.011": 0.0,
			"-0.01": 0.0,
			"-0.009": 0.0,
			"-0.008": 0.582682229578,
			"-0.007": 8.23566241955,
			"-0.006": 12.413972898,
			"-0.005": 15.7656101978,
			"-0.004": 19.5665356911,
			"-0.003": 26.2534923996,
			"-0.002": 23.6694092738,
			"-0.001": 25.1597954913,
			"0.0": 23.724892612,
			"0.001": 20.3512845342,
			"0.002": 12.0375609378,
			"0.003": 8.57396887109,
			"0.004": 5.73220138487,
			"0.005": 5.28921059486,
			"0.006": 5.08088280182,
			"0.007": 4.54366663772,
			"0.008": 4.40934557079,
			"0.009": 6.48870147008,
			"0.01": 5.44210006811,
			"0.011": 5.81593135801,
			"0.012": 3.82272501959,
			"0.013": 0.280421280348,
			"0.014": 0.0,
			"0.015": 0.0,
			"0.016": 0.0,
			"0.017": 0.0,
			"0.018": 0.0,
			"0.019": 0.0,
			"0.02": 0.0,
			"0.021": 0.0,
			"0.022": 0.0,
			"0.023": 0.0,
			"0.024": 0.0,
			"0.025": 0.0
		}
	}
}
