{
	 "smiles": "COC1=CC=CC=C1C1=NN=C2SCNN12", 
	 "Tm": 396.15, 
	 "num_atms": 26, 
	 "gaussian": { 
		 "optdone": 1, 
		 "sigma_profile": "yes", 
		 "theory": "DFT", 
		 "functional": "B3LYP", 
		 "basiset": "6-31G**", 
		 "properties": { 
			 "R2extent": 4426.8058, 
			 "electric_dipole_moment_norm": 5.23187906875, 
			 "electric_quadrupole_moment_norm": 20.3756536813, 
			 "total_energy": -1079.41248152, 
			 "HOMO_LUMO_gap": 0.18991, 
			 "cosmo_polarized_energy": -21.33, 
			 "cosmo_cavitation_energy": 31.48, 
			 "cosmo_dispersion_energy": -23.52, 
			 "cosmo_repulsion_energy": 1.77, 
			 "cosmo_total_nonelectrostatic_energy": 9.73, 
			 "SMD_solvation_energy": 3.08 
		},
		"coords": [
			{
				"x": -1.9793180995,
				"y": -1.4014952142,
				"z": -2.583105217,
				"element": "C" 
			},
			{
				"x": -1.0417077111,
				"y": -1.6255074251,
				"z": -1.5208025827,
				"element": "O" 
			},
			{
				"x": -1.3887305952,
				"y": -1.1158040979,
				"z": -0.299219054,
				"element": "C" 
			},
			{
				"x": -2.1721320603,
				"y": -1.8915882036,
				"z": 0.5611287776,
				"element": "C" 
			},
			{
				"x": -2.4662838818,
				"y": -1.4513123169,
				"z": 1.8498929948,
				"element": "C" 
			},
			{
				"x": -1.9738787368,
				"y": -0.2228087579,
				"z": 2.2947208842,
				"element": "C" 
			},
			{
				"x": -1.1950407182,
				"y": 0.5556474477,
				"z": 1.4432653183,
				"element": "C" 
			},
			{
				"x": -0.8954366815,
				"y": 0.1340759913,
				"z": 0.1367393953,
				"element": "C" 
			},
			{
				"x": -0.0795977446,
				"y": 0.977140144,
				"z": -0.7442837449,
				"element": "C" 
			},
			{
				"x": -0.2728626347,
				"y": 1.2183712693,
				"z": -2.0294604595,
				"element": "N" 
			},
			{
				"x": 0.7274200373,
				"y": 2.0619993023,
				"z": -2.4980685736,
				"element": "N" 
			},
			{
				"x": 1.4840684768,
				"y": 2.3324617403,
				"z": -1.4690205618,
				"element": "C" 
			},
			{
				"x": 2.969108255,
				"y": 3.2337204219,
				"z": -1.1519574989,
				"element": "S" 
			},
			{
				"x": 3.1114486145,
				"y": 2.1650199001,
				"z": 0.4017141637,
				"element": "C" 
			},
			{
				"x": 1.7600445346,
				"y": 1.8453552425,
				"z": 0.8512064963,
				"element": "N" 
			},
			{
				"x": 1.0275572351,
				"y": 1.695611393,
				"z": -0.3437793642,
				"element": "N" 
			},
			{
				"x": -2.9749703995,
				"y": -1.7775294247,
				"z": -2.313641136,
				"element": "H" 
			},
			{
				"x": -1.6017353068,
				"y": -1.962049931,
				"z": -3.4402905306,
				"element": "H" 
			},
			{
				"x": -2.0233405966,
				"y": -0.3375752388,
				"z": -2.8316412394,
				"element": "H" 
			},
			{
				"x": -2.5210974946,
				"y": -2.8555224072,
				"z": 0.2041863725,
				"element": "H" 
			},
			{
				"x": -3.0718767875,
				"y": -2.0685993837,
				"z": 2.5070610082,
				"element": "H" 
			},
			{
				"x": -2.1963091003,
				"y": 0.1283583243,
				"z": 3.297504567,
				"element": "H" 
			},
			{
				"x": -0.828315253,
				"y": 1.5173534511,
				"z": 1.788097642,
				"element": "H" 
			},
			{
				"x": 3.632217644,
				"y": 1.2469174875,
				"z": 0.125167239,
				"element": "H" 
			},
			{
				"x": 3.6570040117,
				"y": 2.6994097474,
				"z": 1.1789730586,
				"element": "H" 
			},
			{
				"x": 1.3702649931,
				"y": 2.6560505384,
				"z": 1.3376120453,
				"element": "H" 
			}
		],
		 "valence_orbital": [ 
			{
				"type": "occ",
				"energy": -0.26829,
				"method": "rhf"
			},
			{
				"type": "occ",
				"energy": -0.26446,
				"method": "rhf"
			},
			{
				"type": "occ",
				"energy": -0.25162,
				"method": "rhf"
			},
			{
				"type": "occ",
				"energy": -0.24603,
				"method": "rhf"
			},
			{
				"type": "occ",
				"energy": -0.22331,
				"method": "rhf"
			},
			{
				"type": "unocc",
				"energy": -0.0334,
				"method": "rhf"
			},
			{
				"type": "unocc",
				"energy": -0.01227,
				"method": "rhf"
			},
			{
				"type": "unocc",
				"energy": -0.00647,
				"method": "rhf"
			},
			{
				"type": "unocc",
				"energy": 0.0222,
				"method": "rhf"
			},
			{
				"type": "unocc",
				"energy": 0.0377,
				"method": "rhf"
			}
		],
		"cosmo_sigma_profile": { 
			"-0.025": 0.0,
			"-0.024": 0.0,
			"-0.023": 0.0,
			"-0.022": 0.0,
			"-0.021": 0.0,
			"-0.02": 0.0,
			"-0.019": 0.0,
			"-0.018": 0.0,
			"-0.017": 0.0,
			"-0.016": 0.0149849237503,
			"-0.015": 1.32683951847,
			"-0.014": 2.25182814779,
			"-0.013": 2.0731013928,
			"-0.012": 1.84403539635,
			"-0.011": 2.72519692791,
			"-0.01": 3.95794327306,
			"-0.009": 4.50304479139,
			"-0.008": 5.50271154582,
			"-0.007": 6.83196711641,
			"-0.006": 13.2645014354,
			"-0.005": 15.7470115416,
			"-0.004": 16.1752041211,
			"-0.003": 15.7850898396,
			"-0.002": 18.9486150464,
			"-0.001": 14.0682463114,
			"0.0": 12.7107366994,
			"0.001": 15.0021139677,
			"0.002": 15.4765105024,
			"0.003": 17.9742978553,
			"0.004": 17.1308481998,
			"0.005": 10.0671048213,
			"0.006": 6.64164732202,
			"0.007": 3.98118652014,
			"0.008": 3.23020568973,
			"0.009": 5.16343659555,
			"0.01": 5.19959694029,
			"0.011": 4.89216175845,
			"0.012": 4.24733000099,
			"0.013": 3.33364606734,
			"0.014": 1.70925206145,
			"0.015": 1.21444563545,
			"0.016": 1.27759359202,
			"0.017": 0.0712131663481,
			"0.018": 0.0,
			"0.019": 0.0,
			"0.02": 0.0,
			"0.021": 0.0,
			"0.022": 0.0,
			"0.023": 0.0,
			"0.024": 0.0,
			"0.025": 0.0
		}
	}
}
