{
	 "smiles": "CC(N)C1=CC=C(C=C1)C1=CN=CC=C1", 
	 "Tm": 321.15, 
	 "num_atms": 29, 
	 "gaussian": { 
		 "optdone": 1, 
		 "sigma_profile": "yes", 
		 "theory": "DFT", 
		 "functional": "B3LYP", 
		 "basiset": "6-31G**", 
		 "properties": { 
			 "R2extent": 4853.9991, 
			 "electric_dipole_moment_norm": 1.70536803066, 
			 "electric_quadrupole_moment_norm": 13.7686270645, 
			 "total_energy": -613.327324341, 
			 "HOMO_LUMO_gap": 0.1879, 
			 "cosmo_polarized_energy": -11.31, 
			 "cosmo_cavitation_energy": 32.31, 
			 "cosmo_dispersion_energy": -23.22, 
			 "cosmo_repulsion_energy": 1.81, 
			 "cosmo_total_nonelectrostatic_energy": 10.89, 
			 "SMD_solvation_energy": 2.75 
		},
		"coords": [
			{
				"x": -1.8430221069,
				"y": 3.1864697031,
				"z": 1.7843731964,
				"element": "C" 
			},
			{
				"x": -0.3093956636,
				"y": 3.1385038527,
				"z": 1.7037530874,
				"element": "C" 
			},
			{
				"x": 0.1779607935,
				"y": 4.4499142208,
				"z": 1.2600212438,
				"element": "N" 
			},
			{
				"x": 0.1589148136,
				"y": 1.9398891399,
				"z": 0.8765781766,
				"element": "C" 
			},
			{
				"x": 0.2030343077,
				"y": 1.9807912747,
				"z": -0.52303787,
				"element": "C" 
			},
			{
				"x": 0.6005486257,
				"y": 0.8719978961,
				"z": -1.2659962218,
				"element": "C" 
			},
			{
				"x": 0.9769315897,
				"y": -0.3254203874,
				"z": -0.6339393721,
				"element": "C" 
			},
			{
				"x": 0.9370577906,
				"y": -0.3653522426,
				"z": 0.7693359675,
				"element": "C" 
			},
			{
				"x": 0.535277623,
				"y": 0.7467111072,
				"z": 1.5060736154,
				"element": "C" 
			},
			{
				"x": 1.4076330279,
				"y": -1.5045550655,
				"z": -1.4215089887,
				"element": "C" 
			},
			{
				"x": 2.1878239954,
				"y": -1.363268208,
				"z": -2.5834921802,
				"element": "C" 
			},
			{
				"x": 2.6049777317,
				"y": -2.3780446321,
				"z": -3.3455562973,
				"element": "N" 
			},
			{
				"x": 2.2607444666,
				"y": -3.6155989868,
				"z": -2.9677233838,
				"element": "C" 
			},
			{
				"x": 1.50117671,
				"y": -3.883109566,
				"z": -1.8280609709,
				"element": "C" 
			},
			{
				"x": 1.0676536918,
				"y": -2.8138733103,
				"z": -1.0492722925,
				"element": "C" 
			},
			{
				"x": -2.1588651122,
				"y": 4.0256408835,
				"z": 2.410653398,
				"element": "H" 
			},
			{
				"x": -2.2444957412,
				"y": 2.2582365052,
				"z": 2.2003533799,
				"element": "H" 
			},
			{
				"x": -2.2773295247,
				"y": 3.3171907573,
				"z": 0.7858467809,
				"element": "H" 
			},
			{
				"x": 0.0726432623,
				"y": 2.9925243521,
				"z": 2.7231493588,
				"element": "H" 
			},
			{
				"x": 1.1817481378,
				"y": 4.4151347281,
				"z": 1.0978171513,
				"element": "H" 
			},
			{
				"x": -0.2501833151,
				"y": 4.7041792808,
				"z": 0.3724824119,
				"element": "H" 
			},
			{
				"x": -0.0781168345,
				"y": 2.8921806193,
				"z": -1.0447711687,
				"element": "H" 
			},
			{
				"x": 0.597877788,
				"y": 0.9267125619,
				"z": -2.3507490968,
				"element": "H" 
			},
			{
				"x": 1.2534117836,
				"y": -1.2653880017,
				"z": 1.2890975343,
				"element": "H" 
			},
			{
				"x": 0.5254645902,
				"y": 0.6913361889,
				"z": 2.5925578,
				"element": "H" 
			},
			{
				"x": 2.5057852637,
				"y": -0.3707285582,
				"z": -2.8984688393,
				"element": "H" 
			},
			{
				"x": 2.6079122262,
				"y": -4.4275310505,
				"z": -3.6042957213,
				"element": "H" 
			},
			{
				"x": 1.2460323257,
				"y": -4.9052611971,
				"z": -1.5656093096,
				"element": "H" 
			},
			{
				"x": 0.4514977532,
				"y": -2.9863818655,
				"z": -0.1714113892,
				"element": "H" 
			}
		],
		 "valence_orbital": [ 
			{
				"type": "occ",
				"energy": -0.27382,
				"method": "rhf"
			},
			{
				"type": "occ",
				"energy": -0.2565,
				"method": "rhf"
			},
			{
				"type": "occ",
				"energy": -0.25219,
				"method": "rhf"
			},
			{
				"type": "occ",
				"energy": -0.24403,
				"method": "rhf"
			},
			{
				"type": "occ",
				"energy": -0.22467,
				"method": "rhf"
			},
			{
				"type": "unocc",
				"energy": -0.03677,
				"method": "rhf"
			},
			{
				"type": "unocc",
				"energy": -0.02085,
				"method": "rhf"
			},
			{
				"type": "unocc",
				"energy": -0.00815,
				"method": "rhf"
			},
			{
				"type": "unocc",
				"energy": 0.01986,
				"method": "rhf"
			},
			{
				"type": "unocc",
				"energy": 0.07774,
				"method": "rhf"
			}
		],
		"cosmo_sigma_profile": { 
			"-0.025": 0.0,
			"-0.024": 0.0,
			"-0.023": 0.0,
			"-0.022": 0.0,
			"-0.021": 0.0,
			"-0.02": 0.0,
			"-0.019": 0.0,
			"-0.018": 0.0,
			"-0.017": 0.0,
			"-0.016": 0.0,
			"-0.015": 0.0,
			"-0.014": 0.0,
			"-0.013": 0.0,
			"-0.012": 0.0,
			"-0.011": 0.0,
			"-0.01": 0.63033351794,
			"-0.009": 2.94876357437,
			"-0.008": 3.36953032906,
			"-0.007": 5.69222995322,
			"-0.006": 15.4961867351,
			"-0.005": 19.9128142033,
			"-0.004": 19.2770904279,
			"-0.003": 21.7503413141,
			"-0.002": 19.2103002454,
			"-0.001": 18.1700296139,
			"0.0": 19.7039970789,
			"0.001": 21.557792459,
			"0.002": 22.8246269738,
			"0.003": 17.9473285719,
			"0.004": 10.3889014404,
			"0.005": 11.8173907615,
			"0.006": 6.00883494652,
			"0.007": 1.46191968452,
			"0.008": 2.91385349275,
			"0.009": 2.68784250536,
			"0.01": 1.43654366271,
			"0.011": 1.12354678496,
			"0.012": 1.42580902493,
			"0.013": 1.95044464708,
			"0.014": 1.34181552549,
			"0.015": 1.60578292598,
			"0.016": 1.42271148696,
			"0.017": 0.999823988622,
			"0.018": 0.572421450313,
			"0.019": 0.378946164405,
			"0.02": 0.193899780636,
			"0.021": 0.0,
			"0.022": 0.0,
			"0.023": 0.0,
			"0.024": 0.0,
			"0.025": 0.0
		}
	}
}
