{
	 "smiles": "CC(C)N1N=CC2=C1N=C(OS(C)(=O)=O)C=C2C", 
	 "Tm": 352.15, 
	 "num_atms": 33, 
	 "gaussian": { 
		 "optdone": 1, 
		 "sigma_profile": "yes", 
		 "theory": "DFT", 
		 "functional": "B3LYP", 
		 "basiset": "6-31G**", 
		 "properties": { 
			 "R2extent": 5937.7064, 
			 "electric_dipole_moment_norm": 2.08704700714, 
			 "electric_quadrupole_moment_norm": 15.4828323145, 
			 "total_energy": -1216.26539789, 
			 "HOMO_LUMO_gap": 0.18564, 
			 "cosmo_polarized_energy": -15.62, 
			 "cosmo_cavitation_energy": 37.97, 
			 "cosmo_dispersion_energy": -26.75, 
			 "cosmo_repulsion_energy": 2.05, 
			 "cosmo_total_nonelectrostatic_energy": 13.28, 
			 "SMD_solvation_energy": 4.36 
		},
		"coords": [
			{
				"x": 1.3975426249,
				"y": 0.3707081276,
				"z": -3.134725171,
				"element": "C" 
			},
			{
				"x": 1.4174697907,
				"y": 1.7400122288,
				"z": -2.444016105,
				"element": "C" 
			},
			{
				"x": 0.0488592138,
				"y": 2.4323049321,
				"z": -2.4620257577,
				"element": "C" 
			},
			{
				"x": 1.9324133421,
				"y": 1.6289368668,
				"z": -1.0698645312,
				"element": "N" 
			},
			{
				"x": 3.0702246794,
				"y": 2.290634319,
				"z": -0.7185536557,
				"element": "N" 
			},
			{
				"x": 3.2911063311,
				"y": 2.0305566365,
				"z": 0.5607591123,
				"element": "C" 
			},
			{
				"x": 2.2836164048,
				"y": 1.1769651419,
				"z": 1.0921927064,
				"element": "C" 
			},
			{
				"x": 1.419252748,
				"y": 0.9426406395,
				"z": -0.0069127606,
				"element": "C" 
			},
			{
				"x": 0.3030978072,
				"y": 0.1937735667,
				"z": 0.0019110346,
				"element": "N" 
			},
			{
				"x": 0.0553420721,
				"y": -0.358409411,
				"z": 1.1686317038,
				"element": "C" 
			},
			{
				"x": -1.06053012,
				"y": -1.2045210642,
				"z": 1.1773940251,
				"element": "O" 
			},
			{
				"x": -2.3054277423,
				"y": -0.8585940336,
				"z": 2.2320811048,
				"element": "S" 
			},
			{
				"x": -3.5076986056,
				"y": -1.9139662587,
				"z": 1.423334601,
				"element": "C" 
			},
			{
				"x": -2.6761196563,
				"y": 0.544972131,
				"z": 2.090288325,
				"element": "O" 
			},
			{
				"x": -1.9819815628,
				"y": -1.4061883927,
				"z": 3.5473520111,
				"element": "O" 
			},
			{
				"x": 0.8309565726,
				"y": -0.2266448095,
				"z": 2.3428490785,
				"element": "C" 
			},
			{
				"x": 1.9732120695,
				"y": 0.5650567613,
				"z": 2.3257255821,
				"element": "C" 
			},
			{
				"x": 2.8338755152,
				"y": 0.7537379957,
				"z": 3.5446498159,
				"element": "C" 
			},
			{
				"x": 0.6945292123,
				"y": -0.3041265156,
				"z": -2.639733713,
				"element": "H" 
			},
			{
				"x": 1.0883796144,
				"y": 0.4878757127,
				"z": -4.1781629209,
				"element": "H" 
			},
			{
				"x": 2.3915080626,
				"y": -0.0859810953,
				"z": -3.1210010251,
				"element": "H" 
			},
			{
				"x": 2.1539793531,
				"y": 2.3818268328,
				"z": -2.9349164942,
				"element": "H" 
			},
			{
				"x": 0.1039113226,
				"y": 3.4132473493,
				"z": -1.9812574727,
				"element": "H" 
			},
			{
				"x": -0.699376254,
				"y": 1.8293085372,
				"z": -1.9412508064,
				"element": "H" 
			},
			{
				"x": -0.2796505656,
				"y": 2.5749359846,
				"z": -3.4963852836,
				"element": "H" 
			},
			{
				"x": 4.154253938,
				"y": 2.4590163501,
				"z": 1.0521284695,
				"element": "H" 
			},
			{
				"x": -4.4191887403,
				"y": -1.859672449,
				"z": 2.0206174572,
				"element": "H" 
			},
			{
				"x": -3.6781485875,
				"y": -1.5367395381,
				"z": 0.4155443791,
				"element": "H" 
			},
			{
				"x": -3.1181526807,
				"y": -2.9316582218,
				"z": 1.4067045102,
				"element": "H" 
			},
			{
				"x": 0.5210312338,
				"y": -0.7484059066,
				"z": 3.2404186231,
				"element": "H" 
			},
			{
				"x": 3.8627237119,
				"y": 0.4301651025,
				"z": 3.3505283631,
				"element": "H" 
			},
			{
				"x": 2.4501794705,
				"y": 0.1880053079,
				"z": 4.396572313,
				"element": "H" 
			},
			{
				"x": 2.8777094247,
				"y": 1.8115271723,
				"z": 3.8279224815,
				"element": "H" 
			}
		],
		 "valence_orbital": [ 
			{
				"type": "occ",
				"energy": -0.30011,
				"method": "rhf"
			},
			{
				"type": "occ",
				"energy": -0.29712,
				"method": "rhf"
			},
			{
				"type": "occ",
				"energy": -0.28049,
				"method": "rhf"
			},
			{
				"type": "occ",
				"energy": -0.2459,
				"method": "rhf"
			},
			{
				"type": "occ",
				"energy": -0.23312,
				"method": "rhf"
			},
			{
				"type": "unocc",
				"energy": -0.04748,
				"method": "rhf"
			},
			{
				"type": "unocc",
				"energy": -0.00094,
				"method": "rhf"
			},
			{
				"type": "unocc",
				"energy": 0.0368,
				"method": "rhf"
			},
			{
				"type": "unocc",
				"energy": 0.0534,
				"method": "rhf"
			},
			{
				"type": "unocc",
				"energy": 0.05875,
				"method": "rhf"
			}
		],
		"cosmo_sigma_profile": { 
			"-0.025": 0.0,
			"-0.024": 0.0,
			"-0.023": 0.0,
			"-0.022": 0.0,
			"-0.021": 0.0,
			"-0.02": 0.0,
			"-0.019": 0.0,
			"-0.018": 0.0,
			"-0.017": 0.0,
			"-0.016": 0.0,
			"-0.015": 0.0,
			"-0.014": 0.0,
			"-0.013": 0.0,
			"-0.012": 0.0,
			"-0.011": 0.855071413428,
			"-0.01": 3.01739801565,
			"-0.009": 5.95924496136,
			"-0.008": 6.23894722788,
			"-0.007": 7.04620067864,
			"-0.006": 11.3688427244,
			"-0.005": 18.382456069,
			"-0.004": 24.3148458373,
			"-0.003": 22.8258336547,
			"-0.002": 24.3232001473,
			"-0.001": 27.9213844653,
			"0.0": 33.992761162,
			"0.001": 24.4271466323,
			"0.002": 15.0344654374,
			"0.003": 9.64266204075,
			"0.004": 7.13976389806,
			"0.005": 8.72801669962,
			"0.006": 6.79634108639,
			"0.007": 8.45298256252,
			"0.008": 4.55493815174,
			"0.009": 12.6226200847,
			"0.01": 11.5194745182,
			"0.011": 2.5554286086,
			"0.012": 1.30500226743,
			"0.013": 1.10322246687,
			"0.014": 0.731739439597,
			"0.015": 0.273172773913,
			"0.016": 0.0,
			"0.017": 0.0,
			"0.018": 0.0,
			"0.019": 0.0,
			"0.02": 0.0,
			"0.021": 0.0,
			"0.022": 0.0,
			"0.023": 0.0,
			"0.024": 0.0,
			"0.025": 0.0
		}
	}
}
