{
	 "smiles": "C1=C(C=C2C=CC=CN12)C1=CC=CC=C1", 
	 "Tm": 485.15, 
	 "num_atms": 26, 
	 "gaussian": { 
		 "optdone": 1, 
		 "sigma_profile": "yes", 
		 "theory": "DFT", 
		 "functional": "B3LYP", 
		 "basiset": "6-31G**", 
		 "properties": { 
			 "R2extent": 4674.4487, 
			 "electric_dipole_moment_norm": 1.3990068799, 
			 "electric_quadrupole_moment_norm": 13.8036216798, 
			 "total_energy": -594.863396231, 
			 "HOMO_LUMO_gap": 0.15694, 
			 "cosmo_polarized_energy": -7.57, 
			 "cosmo_cavitation_energy": 29.8, 
			 "cosmo_dispersion_energy": -22.08, 
			 "cosmo_repulsion_energy": 1.67, 
			 "cosmo_total_nonelectrostatic_energy": 9.4, 
			 "SMD_solvation_energy": 5.3 
		},
		"coords": [
			{
				"x": -2.0226163205,
				"y": -1.4787747157,
				"z": -0.6823496659,
				"element": "C" 
			},
			{
				"x": -1.0594109409,
				"y": -0.5170075159,
				"z": -0.3786899914,
				"element": "C" 
			},
			{
				"x": 0.2128667777,
				"y": -1.092578917,
				"z": -0.6313763961,
				"element": "C" 
			},
			{
				"x": 0.0149994091,
				"y": -2.391300263,
				"z": -1.0887113535,
				"element": "C" 
			},
			{
				"x": 0.8603107611,
				"y": -3.4487995811,
				"z": -1.5089503142,
				"element": "C" 
			},
			{
				"x": 0.3267763848,
				"y": -4.6477910811,
				"z": -1.9085781258,
				"element": "C" 
			},
			{
				"x": -1.0888793155,
				"y": -4.8337776785,
				"z": -1.9021132611,
				"element": "C" 
			},
			{
				"x": -1.9141241047,
				"y": -3.8229754105,
				"z": -1.5054824117,
				"element": "C" 
			},
			{
				"x": -1.3836516301,
				"y": -2.6149759253,
				"z": -1.1093717118,
				"element": "N" 
			},
			{
				"x": -1.330459139,
				"y": 0.8420461657,
				"z": 0.1169973457,
				"element": "C" 
			},
			{
				"x": -0.3814881957,
				"y": 1.5259468872,
				"z": 0.8966950416,
				"element": "C" 
			},
			{
				"x": -0.6343130731,
				"y": 2.8127183572,
				"z": 1.3688482565,
				"element": "C" 
			},
			{
				"x": -1.8449392552,
				"y": 3.4450129255,
				"z": 1.0782014394,
				"element": "C" 
			},
			{
				"x": -2.79825187,
				"y": 2.7778302354,
				"z": 0.3058600205,
				"element": "C" 
			},
			{
				"x": -2.5421757856,
				"y": 1.4942990287,
				"z": -0.1726148274,
				"element": "C" 
			},
			{
				"x": -3.0974070443,
				"y": -1.453090179,
				"z": -0.5855550416,
				"element": "H" 
			},
			{
				"x": 1.1729164527,
				"y": -0.6068875502,
				"z": -0.5333988687,
				"element": "H" 
			},
			{
				"x": 1.9327035724,
				"y": -3.2825983004,
				"z": -1.5018940683,
				"element": "H" 
			},
			{
				"x": 0.9733718493,
				"y": -5.4580100744,
				"z": -2.2285273766,
				"element": "H" 
			},
			{
				"x": -1.5247668754,
				"y": -5.7768127372,
				"z": -2.2117346032,
				"element": "H" 
			},
			{
				"x": -2.9948009319,
				"y": -3.8984671778,
				"z": -1.4787469437,
				"element": "H" 
			},
			{
				"x": 0.5528911129,
				"y": 1.03363207,
				"z": 1.149288978,
				"element": "H" 
			},
			{
				"x": 0.1135183227,
				"y": 3.3200006388,
				"z": 1.9722118642,
				"element": "H" 
			},
			{
				"x": -2.0426926361,
				"y": 4.4470717116,
				"z": 1.4476906987,
				"element": "H" 
			},
			{
				"x": -3.7407543228,
				"y": 3.262516181,
				"z": 0.0661795712,
				"element": "H" 
			},
			{
				"x": -3.2785232019,
				"y": 0.9973729061,
				"z": -0.797778255,
				"element": "H" 
			}
		],
		 "valence_orbital": [ 
			{
				"type": "occ",
				"energy": -0.29931,
				"method": "rhf"
			},
			{
				"type": "occ",
				"energy": -0.26348,
				"method": "rhf"
			},
			{
				"type": "occ",
				"energy": -0.2444,
				"method": "rhf"
			},
			{
				"type": "occ",
				"energy": -0.20712,
				"method": "rhf"
			},
			{
				"type": "occ",
				"energy": -0.18618,
				"method": "rhf"
			},
			{
				"type": "unocc",
				"energy": -0.02924,
				"method": "rhf"
			},
			{
				"type": "unocc",
				"energy": -0.00341,
				"method": "rhf"
			},
			{
				"type": "unocc",
				"energy": 0.00546,
				"method": "rhf"
			},
			{
				"type": "unocc",
				"energy": 0.02363,
				"method": "rhf"
			},
			{
				"type": "unocc",
				"energy": 0.0929,
				"method": "rhf"
			}
		],
		"cosmo_sigma_profile": { 
			"-0.025": 0.0,
			"-0.024": 0.0,
			"-0.023": 0.0,
			"-0.022": 0.0,
			"-0.021": 0.0,
			"-0.02": 0.0,
			"-0.019": 0.0,
			"-0.018": 0.0,
			"-0.017": 0.0,
			"-0.016": 0.0,
			"-0.015": 0.0,
			"-0.014": 0.0,
			"-0.013": 0.0,
			"-0.012": 0.0,
			"-0.011": 0.0,
			"-0.01": 0.0,
			"-0.009": 1.21925858193,
			"-0.008": 3.83642094388,
			"-0.007": 4.40794220071,
			"-0.006": 12.4792429096,
			"-0.005": 21.2980150456,
			"-0.004": 21.5450777926,
			"-0.003": 18.8365721525,
			"-0.002": 15.0373077376,
			"-0.001": 13.9187146715,
			"0.0": 11.1022061549,
			"0.001": 14.5583986646,
			"0.002": 16.1921316648,
			"0.003": 19.1216891965,
			"0.004": 22.2471752962,
			"0.005": 23.8706711253,
			"0.006": 15.4455604317,
			"0.007": 4.60602146569,
			"0.008": 0.0847840664831,
			"0.009": 0.0,
			"0.01": 0.0,
			"0.011": 0.0,
			"0.012": 0.0,
			"0.013": 0.0,
			"0.014": 0.0,
			"0.015": 0.0,
			"0.016": 0.0,
			"0.017": 0.0,
			"0.018": 0.0,
			"0.019": 0.0,
			"0.02": 0.0,
			"0.021": 0.0,
			"0.022": 0.0,
			"0.023": 0.0,
			"0.024": 0.0,
			"0.025": 0.0
		}
	}
}
