{
	 "smiles": "COC1=C(C=C(Cl)C(N)=C1)C(O)=O", 
	 "Tm": 481.15, 
	 "num_atms": 21, 
	 "gaussian": { 
		 "optdone": 1, 
		 "sigma_profile": "yes", 
		 "theory": "DFT", 
		 "functional": "B3LYP", 
		 "basiset": "6-31G**", 
		 "properties": { 
			 "R2extent": 3531.6508, 
			 "electric_dipole_moment_norm": 8.62387659119, 
			 "electric_quadrupole_moment_norm": 18.2474333888, 
			 "total_energy": -1050.29737317, 
			 "HOMO_LUMO_gap": 0.18574, 
			 "cosmo_polarized_energy": -19.64, 
			 "cosmo_cavitation_energy": 26.82, 
			 "cosmo_dispersion_energy": -20.23, 
			 "cosmo_repulsion_energy": 1.6, 
			 "cosmo_total_nonelectrostatic_energy": 8.19, 
			 "SMD_solvation_energy": 6.19 
		},
		"coords": [
			{
				"x": 2.507967696,
				"y": 1.1556179351,
				"z": -0.2331943516,
				"element": "C" 
			},
			{
				"x": 1.4744092907,
				"y": 1.3254027128,
				"z": 0.732157679,
				"element": "O" 
			},
			{
				"x": 0.2826844677,
				"y": 0.657208317,
				"z": 0.5862976284,
				"element": "C" 
			},
			{
				"x": -0.702457789,
				"y": 0.8846780951,
				"z": 1.5746207556,
				"element": "C" 
			},
			{
				"x": -1.9206374356,
				"y": 0.2074961645,
				"z": 1.4355675825,
				"element": "C" 
			},
			{
				"x": -2.1621278244,
				"y": -0.6500462443,
				"z": 0.3788346838,
				"element": "C" 
			},
			{
				"x": -3.7117278763,
				"y": -1.4822758486,
				"z": 0.2626573215,
				"element": "Cl" 
			},
			{
				"x": -1.1843804503,
				"y": -0.880736544,
				"z": -0.6116627758,
				"element": "C" 
			},
			{
				"x": -1.4269890541,
				"y": -1.6937673288,
				"z": -1.6929832568,
				"element": "N" 
			},
			{
				"x": 0.0454507346,
				"y": -0.2067554713,
				"z": -0.4793699591,
				"element": "C" 
			},
			{
				"x": -0.5808587764,
				"y": 1.782332934,
				"z": 2.772411156,
				"element": "C" 
			},
			{
				"x": 0.5759672302,
				"y": 2.4541581153,
				"z": 2.9430486625,
				"element": "O" 
			},
			{
				"x": -1.4857965813,
				"y": 1.9095328281,
				"z": 3.5704022369,
				"element": "O" 
			},
			{
				"x": 2.1772794181,
				"y": 1.4794786386,
				"z": -1.2262830589,
				"element": "H" 
			},
			{
				"x": 3.3326183879,
				"y": 1.7866911621,
				"z": 0.0989361313,
				"element": "H" 
			},
			{
				"x": 2.8412316646,
				"y": 0.11263449,
				"z": -0.2752289216,
				"element": "H" 
			},
			{
				"x": -2.6743978451,
				"y": 0.3787088749,
				"z": 2.1954038126,
				"element": "H" 
			},
			{
				"x": -0.6301523076,
				"y": -2.0512039295,
				"z": -2.1963867069,
				"element": "H" 
			},
			{
				"x": -2.2117420775,
				"y": -2.3248245826,
				"z": -1.6246265057,
				"element": "H" 
			},
			{
				"x": 0.8017640018,
				"y": -0.3707684284,
				"z": -1.2375612018,
				"element": "H" 
			},
			{
				"x": 1.188795126,
				"y": 2.2389381103,
				"z": 2.2168590881,
				"element": "H" 
			}
		],
		 "valence_orbital": [ 
			{
				"type": "occ",
				"energy": -0.31321,
				"method": "rhf"
			},
			{
				"type": "occ",
				"energy": -0.28868,
				"method": "rhf"
			},
			{
				"type": "occ",
				"energy": -0.25719,
				"method": "rhf"
			},
			{
				"type": "occ",
				"energy": -0.25116,
				"method": "rhf"
			},
			{
				"type": "occ",
				"energy": -0.22121,
				"method": "rhf"
			},
			{
				"type": "unocc",
				"energy": -0.03547,
				"method": "rhf"
			},
			{
				"type": "unocc",
				"energy": -0.01115,
				"method": "rhf"
			},
			{
				"type": "unocc",
				"energy": 0.02459,
				"method": "rhf"
			},
			{
				"type": "unocc",
				"energy": 0.05792,
				"method": "rhf"
			},
			{
				"type": "unocc",
				"energy": 0.06828,
				"method": "rhf"
			}
		],
		"cosmo_sigma_profile": { 
			"-0.025": 0.0,
			"-0.024": 0.0,
			"-0.023": 0.0,
			"-0.022": 0.0,
			"-0.021": 0.0,
			"-0.02": 0.0,
			"-0.019": 0.0,
			"-0.018": 0.0,
			"-0.017": 0.0,
			"-0.016": 0.0,
			"-0.015": 0.182606679473,
			"-0.014": 1.48017911165,
			"-0.013": 1.46824308334,
			"-0.012": 2.64944027525,
			"-0.011": 3.03617292921,
			"-0.01": 2.7866949812,
			"-0.009": 3.0336732539,
			"-0.008": 3.88795359197,
			"-0.007": 8.9200855874,
			"-0.006": 13.3219363873,
			"-0.005": 12.8487496995,
			"-0.004": 13.7264915391,
			"-0.003": 10.457019219,
			"-0.002": 10.3356959269,
			"-0.001": 11.3086113392,
			"0.0": 13.6329732422,
			"0.001": 15.6460774464,
			"0.002": 22.8133218556,
			"0.003": 14.5325946184,
			"0.004": 10.3137313512,
			"0.005": 7.61099188777,
			"0.006": 2.73684615103,
			"0.007": 3.27995713497,
			"0.008": 2.82968362524,
			"0.009": 2.61343911881,
			"0.01": 4.34809026053,
			"0.011": 4.35601382304,
			"0.012": 6.01561351145,
			"0.013": 4.43272002115,
			"0.014": 1.61357004628,
			"0.015": 0.0593195235612,
			"0.016": 0.0,
			"0.017": 0.0,
			"0.018": 0.0,
			"0.019": 0.0,
			"0.02": 0.0,
			"0.021": 0.0,
			"0.022": 0.0,
			"0.023": 0.0,
			"0.024": 0.0,
			"0.025": 0.0
		}
	}
}
