{
	 "smiles": "CC(=O)OC1CCC2C3CCC4=CC(O)CCC4(C)C3CCC12C", 
	 "Tm": 369.15, 
	 "num_atms": 56, 
	 "gaussian": { 
		 "optdone": 1, 
		 "sigma_profile": "yes", 
		 "theory": "DFT", 
		 "functional": "B3LYP", 
		 "basiset": "6-31G**", 
		 "properties": { 
			 "R2extent": 10076.4869, 
			 "electric_dipole_moment_norm": 1.24442782836, 
			 "electric_quadrupole_moment_norm": 27.7002690565, 
			 "total_energy": -1045.20287029, 
			 "HOMO_LUMO_gap": 0.24658, 
			 "cosmo_polarized_energy": -12.35, 
			 "cosmo_cavitation_energy": 49.11, 
			 "cosmo_dispersion_energy": -33.78, 
			 "cosmo_repulsion_energy": 2.53, 
			 "cosmo_total_nonelectrostatic_energy": 17.85, 
			 "SMD_solvation_energy": 7.87 
		},
		"coords": [
			{
				"x": 5.0012884191,
				"y": -0.9449517214,
				"z": 3.5611795417,
				"element": "C" 
			},
			{
				"x": 4.7788726239,
				"y": -0.148655109,
				"z": 2.2962130984,
				"element": "C" 
			},
			{
				"x": 5.6296908459,
				"y": 0.4807723003,
				"z": 1.7055142578,
				"element": "O" 
			},
			{
				"x": 3.4860753426,
				"y": -0.2269986755,
				"z": 1.9017587806,
				"element": "O" 
			},
			{
				"x": 3.1222781403,
				"y": 0.5129467403,
				"z": 0.7132968781,
				"element": "C" 
			},
			{
				"x": 3.4825824441,
				"y": -0.2110577198,
				"z": -0.5959292192,
				"element": "C" 
			},
			{
				"x": 2.3185241034,
				"y": 0.1165355171,
				"z": -1.5672897811,
				"element": "C" 
			},
			{
				"x": 1.4112453217,
				"y": 1.1374989289,
				"z": -0.8150170792,
				"element": "C" 
			},
			{
				"x": -0.077525875,
				"y": 1.2706296089,
				"z": -1.2835307162,
				"element": "C" 
			},
			{
				"x": -0.2176346817,
				"y": 0.9361216378,
				"z": -2.7843645209,
				"element": "C" 
			},
			{
				"x": -1.6693207291,
				"y": 0.9988462072,
				"z": -3.2847175166,
				"element": "C" 
			},
			{
				"x": -2.5219047672,
				"y": 0.0776660084,
				"z": -2.4478943774,
				"element": "C" 
			},
			{
				"x": -3.1873450557,
				"y": -0.9523865461,
				"z": -2.9905943121,
				"element": "C" 
			},
			{
				"x": -3.96371254,
				"y": -1.9868807995,
				"z": -2.2157032268,
				"element": "C" 
			},
			{
				"x": -3.8951736442,
				"y": -3.2679217477,
				"z": -2.8464140133,
				"element": "O" 
			},
			{
				"x": -3.4774029317,
				"y": -2.0303157056,
				"z": -0.764427541,
				"element": "C" 
			},
			{
				"x": -3.4293901907,
				"y": -0.614962164,
				"z": -0.1783565016,
				"element": "C" 
			},
			{
				"x": -2.5316405244,
				"y": 0.3921731897,
				"z": -0.9544729565,
				"element": "C" 
			},
			{
				"x": -3.1758896558,
				"y": 1.7931437852,
				"z": -0.7466791131,
				"element": "C" 
			},
			{
				"x": -1.0643904487,
				"y": 0.4664528908,
				"z": -0.3749306162,
				"element": "C" 
			},
			{
				"x": -0.392930046,
				"y": -0.8481089456,
				"z": 0.0546998416,
				"element": "C" 
			},
			{
				"x": 0.8077646019,
				"y": -0.5644641736,
				"z": 0.9924337213,
				"element": "C" 
			},
			{
				"x": 1.5973802442,
				"y": 0.7502325002,
				"z": 0.6783560588,
				"element": "C" 
			},
			{
				"x": 1.2329237257,
				"y": 1.877379103,
				"z": 1.6592787864,
				"element": "C" 
			},
			{
				"x": 6.0484808108,
				"y": -0.8761709408,
				"z": 3.8538166587,
				"element": "H" 
			},
			{
				"x": 4.3636000856,
				"y": -0.5617529434,
				"z": 4.3633579373,
				"element": "H" 
			},
			{
				"x": 4.7264150008,
				"y": -1.9914366389,
				"z": 3.399470447,
				"element": "H" 
			},
			{
				"x": 3.6407749288,
				"y": 1.4755665869,
				"z": 0.7591927327,
				"element": "H" 
			},
			{
				"x": 3.5558773503,
				"y": -1.2876803813,
				"z": -0.4121969752,
				"element": "H" 
			},
			{
				"x": 4.4573782556,
				"y": 0.1169615411,
				"z": -0.9636113248,
				"element": "H" 
			},
			{
				"x": 1.7714189105,
				"y": -0.7984573508,
				"z": -1.8062607223,
				"element": "H" 
			},
			{
				"x": 2.6744215887,
				"y": 0.5224613679,
				"z": -2.5181798992,
				"element": "H" 
			},
			{
				"x": 1.8781746499,
				"y": 2.1226708375,
				"z": -0.9552970659,
				"element": "H" 
			},
			{
				"x": -0.3421361948,
				"y": 2.3302840526,
				"z": -1.176424768,
				"element": "H" 
			},
			{
				"x": 0.4138310248,
				"y": 1.6193287097,
				"z": -3.3664348402,
				"element": "H" 
			},
			{
				"x": 0.1543069072,
				"y": -0.074641974,
				"z": -2.9826915963,
				"element": "H" 
			},
			{
				"x": -2.0362306544,
				"y": 2.0323746916,
				"z": -3.2265786761,
				"element": "H" 
			},
			{
				"x": -1.7168869576,
				"y": 0.706831822,
				"z": -4.3393714047,
				"element": "H" 
			},
			{
				"x": -3.1741087191,
				"y": -1.0951856231,
				"z": -4.071196501,
				"element": "H" 
			},
			{
				"x": -5.0355800989,
				"y": -1.7428253334,
				"z": -2.2321587737,
				"element": "H" 
			},
			{
				"x": -2.9578211445,
				"y": -3.4944229521,
				"z": -2.922464604,
				"element": "H" 
			},
			{
				"x": -2.4827412467,
				"y": -2.4922765883,
				"z": -0.7554591069,
				"element": "H" 
			},
			{
				"x": -4.1353374043,
				"y": -2.6734952079,
				"z": -0.1699096014,
				"element": "H" 
			},
			{
				"x": -3.1256201918,
				"y": -0.6391141801,
				"z": 0.8751253452,
				"element": "H" 
			},
			{
				"x": -4.4552842528,
				"y": -0.2234571345,
				"z": -0.1789929338,
				"element": "H" 
			},
			{
				"x": -4.1489852342,
				"y": 1.8476886399,
				"z": -1.2455306538,
				"element": "H" 
			},
			{
				"x": -2.5586750832,
				"y": 2.6099074743,
				"z": -1.1283126613,
				"element": "H" 
			},
			{
				"x": -3.3348867968,
				"y": 1.9726482222,
				"z": 0.3228452561,
				"element": "H" 
			},
			{
				"x": -1.1842316183,
				"y": 1.04203211,
				"z": 0.5521396941,
				"element": "H" 
			},
			{
				"x": -1.0909981187,
				"y": -1.4942982817,
				"z": 0.5928215478,
				"element": "H" 
			},
			{
				"x": -0.073831712,
				"y": -1.4172260705,
				"z": -0.8267906199,
				"element": "H" 
			},
			{
				"x": 1.4839918874,
				"y": -1.4246459377,
				"z": 0.9800910973,
				"element": "H" 
			},
			{
				"x": 0.4405117763,
				"y": -0.5015816617,
				"z": 2.0230149951,
				"element": "H" 
			},
			{
				"x": 1.7596101385,
				"y": 2.8039528758,
				"z": 1.401945521,
				"element": "H" 
			},
			{
				"x": 1.5249713172,
				"y": 1.5983125193,
				"z": 2.6777344614,
				"element": "H" 
			},
			{
				"x": 0.1621260733,
				"y": 2.0965526397,
				"z": 1.6728975613,
				"element": "H" 
			}
		],
		 "valence_orbital": [ 
			{
				"type": "occ",
				"energy": -0.27998,
				"method": "rhf"
			},
			{
				"type": "occ",
				"energy": -0.27767,
				"method": "rhf"
			},
			{
				"type": "occ",
				"energy": -0.2667,
				"method": "rhf"
			},
			{
				"type": "occ",
				"energy": -0.26135,
				"method": "rhf"
			},
			{
				"type": "occ",
				"energy": -0.23204,
				"method": "rhf"
			},
			{
				"type": "unocc",
				"energy": 0.01454,
				"method": "rhf"
			},
			{
				"type": "unocc",
				"energy": 0.01633,
				"method": "rhf"
			},
			{
				"type": "unocc",
				"energy": 0.06308,
				"method": "rhf"
			},
			{
				"type": "unocc",
				"energy": 0.07204,
				"method": "rhf"
			},
			{
				"type": "unocc",
				"energy": 0.08861,
				"method": "rhf"
			}
		],
		"cosmo_sigma_profile": { 
			"-0.025": 0.0,
			"-0.024": 0.0,
			"-0.023": 0.0,
			"-0.022": 0.0,
			"-0.021": 0.0,
			"-0.02": 0.0,
			"-0.019": 0.0,
			"-0.018": 0.0,
			"-0.017": 0.0,
			"-0.016": 0.0,
			"-0.015": 0.147515859773,
			"-0.014": 0.644323515624,
			"-0.013": 0.745768125258,
			"-0.012": 1.02699942223,
			"-0.011": 0.634313148731,
			"-0.01": 0.447974356432,
			"-0.009": 1.06765198583,
			"-0.008": 0.743400953774,
			"-0.007": 1.53720883131,
			"-0.006": 5.40299312734,
			"-0.005": 6.78460587172,
			"-0.004": 13.4305204416,
			"-0.003": 38.00161889,
			"-0.002": 69.9778302356,
			"-0.001": 68.8157905971,
			"0.0": 51.1911209663,
			"0.001": 41.6294381756,
			"0.002": 17.3672953826,
			"0.003": 8.99376712226,
			"0.004": 7.27070379889,
			"0.005": 5.8785258332,
			"0.006": 5.03133239338,
			"0.007": 3.97398833481,
			"0.008": 4.03501031839,
			"0.009": 2.85547866406,
			"0.01": 3.0066205062,
			"0.011": 3.76437129325,
			"0.012": 5.13832625073,
			"0.013": 3.55915856948,
			"0.014": 2.33519180162,
			"0.015": 1.81874104654,
			"0.016": 0.00517040234537,
			"0.017": 0.0,
			"0.018": 0.0,
			"0.019": 0.0,
			"0.02": 0.0,
			"0.021": 0.0,
			"0.022": 0.0,
			"0.023": 0.0,
			"0.024": 0.0,
			"0.025": 0.0
		}
	}
}
