{
	 "smiles": "CC(C)C1=NC(=NC(Cl)=N1)N(C)C", 
	 "Tm": 331.15, 
	 "num_atms": 26, 
	 "gaussian": { 
		 "optdone": 1, 
		 "sigma_profile": "yes", 
		 "theory": "DFT", 
		 "functional": "B3LYP", 
		 "basiset": "6-31G**", 
		 "properties": { 
			 "R2extent": 3750.0044, 
			 "electric_dipole_moment_norm": 3.92852383218, 
			 "electric_quadrupole_moment_norm": 9.5497653034, 
			 "total_energy": -991.915525399, 
			 "HOMO_LUMO_gap": 0.20252, 
			 "cosmo_polarized_energy": -7.71, 
			 "cosmo_cavitation_energy": 30.76, 
			 "cosmo_dispersion_energy": -22.24, 
			 "cosmo_repulsion_energy": 1.83, 
			 "cosmo_total_nonelectrostatic_energy": 10.35, 
			 "SMD_solvation_energy": 2.39 
		},
		"coords": [
			{
				"x": 3.2253719003,
				"y": 2.6155747802,
				"z": 0.0824156405,
				"element": "C" 
			},
			{
				"x": 1.7294004825,
				"y": 2.5380647615,
				"z": -0.2739366328,
				"element": "C" 
			},
			{
				"x": 0.8634923925,
				"y": 3.2193016113,
				"z": 0.8017710662,
				"element": "C" 
			},
			{
				"x": 1.3037500932,
				"y": 1.0970676094,
				"z": -0.4612977637,
				"element": "C" 
			},
			{
				"x": 0.8450770064,
				"y": 0.7293041623,
				"z": -1.6533188077,
				"element": "N" 
			},
			{
				"x": 0.478194774,
				"y": -0.5711078737,
				"z": -1.7650570871,
				"element": "C" 
			},
			{
				"x": 0.5596827824,
				"y": -1.4668730214,
				"z": -0.7489629095,
				"element": "N" 
			},
			{
				"x": 1.0319827231,
				"y": -0.9587835562,
				"z": 0.3700063,
				"element": "C" 
			},
			{
				"x": 1.1582180614,
				"y": -2.0794481693,
				"z": 1.7202437896,
				"element": "Cl" 
			},
			{
				"x": 1.4233245071,
				"y": 0.28263875,
				"z": 0.6108191128,
				"element": "N" 
			},
			{
				"x": 0.0021551609,
				"y": -1.0065134284,
				"z": -2.9569797878,
				"element": "N" 
			},
			{
				"x": -0.122565668,
				"y": -0.1207245287,
				"z": -4.1054670718,
				"element": "C" 
			},
			{
				"x": -0.4147945806,
				"y": -2.3862004593,
				"z": -3.1642924893,
				"element": "C" 
			},
			{
				"x": 3.4238546179,
				"y": 2.0855184702,
				"z": 1.0181616637,
				"element": "H" 
			},
			{
				"x": 3.5303032854,
				"y": 3.6601344306,
				"z": 0.2028367968,
				"element": "H" 
			},
			{
				"x": 3.8463977249,
				"y": 2.1699508978,
				"z": -0.70145971,
				"element": "H" 
			},
			{
				"x": 1.562908872,
				"y": 3.0332636515,
				"z": -1.2360276236,
				"element": "H" 
			},
			{
				"x": 1.1661766026,
				"y": 4.2644449253,
				"z": 0.9228031013,
				"element": "H" 
			},
			{
				"x": 0.9774907583,
				"y": 2.7109484537,
				"z": 1.763320046,
				"element": "H" 
			},
			{
				"x": -0.1969961237,
				"y": 3.2033911903,
				"z": 0.5300618642,
				"element": "H" 
			},
			{
				"x": 0.4810627534,
				"y": -0.4991793486,
				"z": -4.9397588076,
				"element": "H" 
			},
			{
				"x": -1.1685098395,
				"y": -0.0747576588,
				"z": -4.4333737628,
				"element": "H" 
			},
			{
				"x": 0.2171708497,
				"y": 0.875626844,
				"z": -3.8338873836,
				"element": "H" 
			},
			{
				"x": -1.4708321531,
				"y": -2.4192816499,
				"z": -3.4595176157,
				"element": "H" 
			},
			{
				"x": 0.1794089379,
				"y": -2.8418541791,
				"z": -3.9660255101,
				"element": "H" 
			},
			{
				"x": -0.277525921,
				"y": -2.9513066648,
				"z": -2.2456764184,
				"element": "H" 
			}
		],
		 "valence_orbital": [ 
			{
				"type": "occ",
				"energy": -0.31206,
				"method": "rhf"
			},
			{
				"type": "occ",
				"energy": -0.29206,
				"method": "rhf"
			},
			{
				"type": "occ",
				"energy": -0.2697,
				"method": "rhf"
			},
			{
				"type": "occ",
				"energy": -0.26502,
				"method": "rhf"
			},
			{
				"type": "occ",
				"energy": -0.23907,
				"method": "rhf"
			},
			{
				"type": "unocc",
				"energy": -0.03655,
				"method": "rhf"
			},
			{
				"type": "unocc",
				"energy": -0.01845,
				"method": "rhf"
			},
			{
				"type": "unocc",
				"energy": 0.04147,
				"method": "rhf"
			},
			{
				"type": "unocc",
				"energy": 0.08723,
				"method": "rhf"
			},
			{
				"type": "unocc",
				"energy": 0.10199,
				"method": "rhf"
			}
		],
		"cosmo_sigma_profile": { 
			"-0.025": 0.0,
			"-0.024": 0.0,
			"-0.023": 0.0,
			"-0.022": 0.0,
			"-0.021": 0.0,
			"-0.02": 0.0,
			"-0.019": 0.0,
			"-0.018": 0.0,
			"-0.017": 0.0,
			"-0.016": 0.0,
			"-0.015": 0.0,
			"-0.014": 0.0,
			"-0.013": 0.0,
			"-0.012": 0.0,
			"-0.011": 0.0,
			"-0.01": 0.0,
			"-0.009": 0.0,
			"-0.008": 0.0,
			"-0.007": 0.0,
			"-0.006": 1.85468150332,
			"-0.005": 13.5784211515,
			"-0.004": 17.8029998128,
			"-0.003": 30.6164744748,
			"-0.002": 36.8137023969,
			"-0.001": 29.6213767085,
			"0.0": 26.9023680044,
			"0.001": 20.7308046181,
			"0.002": 10.6220159798,
			"0.003": 11.0839470455,
			"0.004": 14.2057163003,
			"0.005": 8.58264614983,
			"0.006": 6.23762463807,
			"0.007": 5.42648258692,
			"0.008": 4.73323043432,
			"0.009": 3.3965409256,
			"0.01": 1.01872886791,
			"0.011": 1.01966463881,
			"0.012": 0.336292187435,
			"0.013": 0.404806497019,
			"0.014": 0.0,
			"0.015": 0.0,
			"0.016": 0.0,
			"0.017": 0.0,
			"0.018": 0.0,
			"0.019": 0.0,
			"0.02": 0.0,
			"0.021": 0.0,
			"0.022": 0.0,
			"0.023": 0.0,
			"0.024": 0.0,
			"0.025": 0.0
		}
	}
}
