{
	 "smiles": "COC1=CC(NC(=O)CCCl)=CC(OC)=C1OC", 
	 "Tm": 391.15, 
	 "num_atms": 34, 
	 "gaussian": { 
		 "optdone": 1, 
		 "sigma_profile": "yes", 
		 "theory": "DFT", 
		 "functional": "B3LYP", 
		 "basiset": "6-31G**", 
		 "properties": { 
			 "R2extent": 7395.8612, 
			 "electric_dipole_moment_norm": 4.6286516784, 
			 "electric_quadrupole_moment_norm": 15.2684209711, 
			 "total_energy": -1282.72734348, 
			 "HOMO_LUMO_gap": 0.20494, 
			 "cosmo_polarized_energy": -14.73, 
			 "cosmo_cavitation_energy": 39.64, 
			 "cosmo_dispersion_energy": -27.26, 
			 "cosmo_repulsion_energy": 2.19, 
			 "cosmo_total_nonelectrostatic_energy": 14.57, 
			 "SMD_solvation_energy": 9.24 
		},
		"coords": [
			{
				"x": 2.743526142,
				"y": -1.8297679988,
				"z": 0.8356771487,
				"element": "C" 
			},
			{
				"x": 1.4444579318,
				"y": -2.0786897703,
				"z": 0.2821081715,
				"element": "O" 
			},
			{
				"x": 0.7107828093,
				"y": -0.9606173052,
				"z": -0.0298434416,
				"element": "C" 
			},
			{
				"x": -0.4742572656,
				"y": -0.7324606326,
				"z": 0.6729558677,
				"element": "C" 
			},
			{
				"x": -1.2871165444,
				"y": 0.3563967144,
				"z": 0.3380842887,
				"element": "C" 
			},
			{
				"x": -2.5126665133,
				"y": 0.6172517811,
				"z": 0.9991608552,
				"element": "N" 
			},
			{
				"x": -2.8513572786,
				"y": 0.6207976919,
				"z": 2.3367354495,
				"element": "C" 
			},
			{
				"x": -3.9834619821,
				"y": 0.9441086281,
				"z": 2.6759864979,
				"element": "O" 
			},
			{
				"x": -1.7897173243,
				"y": 0.240242192,
				"z": 3.3630763334,
				"element": "C" 
			},
			{
				"x": -2.1727122317,
				"y": 0.7975697707,
				"z": 4.7290492018,
				"element": "C" 
			},
			{
				"x": -0.9603646805,
				"y": 0.2938306676,
				"z": 5.9856029724,
				"element": "Cl" 
			},
			{
				"x": -0.9090224968,
				"y": 1.2036945238,
				"z": -0.7113590317,
				"element": "C" 
			},
			{
				"x": 0.2594547976,
				"y": 0.9599663,
				"z": -1.4340618169,
				"element": "C" 
			},
			{
				"x": 0.5355041753,
				"y": 1.7688662691,
				"z": -2.5053479637,
				"element": "O" 
			},
			{
				"x": 1.7416080451,
				"y": 2.5390861585,
				"z": -2.4240474705,
				"element": "C" 
			},
			{
				"x": 1.0860033483,
				"y": -0.1264428814,
				"z": -1.095923073,
				"element": "C" 
			},
			{
				"x": 2.2389928713,
				"y": -0.3730657192,
				"z": -1.8089468913,
				"element": "O" 
			},
			{
				"x": 2.0808284563,
				"y": -1.3613369926,
				"z": -2.8379836934,
				"element": "C" 
			},
			{
				"x": 3.3720225822,
				"y": -1.2689270792,
				"z": 0.1384023069,
				"element": "H" 
			},
			{
				"x": 3.1840565737,
				"y": -2.8104562881,
				"z": 1.0248803394,
				"element": "H" 
			},
			{
				"x": 2.6617921837,
				"y": -1.2821337958,
				"z": 1.7828552029,
				"element": "H" 
			},
			{
				"x": -0.7544154462,
				"y": -1.4412429563,
				"z": 1.4415124478,
				"element": "H" 
			},
			{
				"x": -3.2623465767,
				"y": 0.9911800809,
				"z": 0.4292091692,
				"element": "H" 
			},
			{
				"x": -1.7240190283,
				"y": -0.8520322481,
				"z": 3.4250213435,
				"element": "H" 
			},
			{
				"x": -0.8016630912,
				"y": 0.5959915311,
				"z": 3.0579138094,
				"element": "H" 
			},
			{
				"x": -3.1446121792,
				"y": 0.4288007275,
				"z": 5.0497440191,
				"element": "H" 
			},
			{
				"x": -2.1911461437,
				"y": 1.8873128413,
				"z": 4.7322419995,
				"element": "H" 
			},
			{
				"x": -1.5170817959,
				"y": 2.0594972142,
				"z": -0.9856368589,
				"element": "H" 
			},
			{
				"x": 2.6221595911,
				"y": 1.8961001635,
				"z": -2.3508177038,
				"element": "H" 
			},
			{
				"x": 1.7079125488,
				"y": 3.2199229398,
				"z": -1.5641015536,
				"element": "H" 
			},
			{
				"x": 1.7853492146,
				"y": 3.1253847869,
				"z": -3.3438746589,
				"element": "H" 
			},
			{
				"x": 3.055189539,
				"y": -1.4609159234,
				"z": -3.3206322723,
				"element": "H" 
			},
			{
				"x": 1.7824784709,
				"y": -2.3237021052,
				"z": -2.4091230304,
				"element": "H" 
			},
			{
				"x": 1.3385412975,
				"y": -1.0368092864,
				"z": -3.5759179643,
				"element": "H" 
			}
		],
		 "valence_orbital": [ 
			{
				"type": "occ",
				"energy": -0.2787,
				"method": "rhf"
			},
			{
				"type": "occ",
				"energy": -0.2705,
				"method": "rhf"
			},
			{
				"type": "occ",
				"energy": -0.26161,
				"method": "rhf"
			},
			{
				"type": "occ",
				"energy": -0.24212,
				"method": "rhf"
			},
			{
				"type": "occ",
				"energy": -0.22606,
				"method": "rhf"
			},
			{
				"type": "unocc",
				"energy": -0.02112,
				"method": "rhf"
			},
			{
				"type": "unocc",
				"energy": -0.00937,
				"method": "rhf"
			},
			{
				"type": "unocc",
				"energy": 0.01886,
				"method": "rhf"
			},
			{
				"type": "unocc",
				"energy": 0.03632,
				"method": "rhf"
			},
			{
				"type": "unocc",
				"energy": 0.06385,
				"method": "rhf"
			}
		],
		"cosmo_sigma_profile": { 
			"-0.025": 0.0,
			"-0.024": 0.0,
			"-0.023": 0.0,
			"-0.022": 0.0,
			"-0.021": 0.0,
			"-0.02": 0.0,
			"-0.019": 0.0,
			"-0.018": 0.0,
			"-0.017": 0.0,
			"-0.016": 0.0,
			"-0.015": 0.145968127994,
			"-0.014": 0.87085071565,
			"-0.013": 1.25633789011,
			"-0.012": 0.823757090363,
			"-0.011": 0.955646359104,
			"-0.01": 1.59156556786,
			"-0.009": 2.26733488798,
			"-0.008": 4.0837833927,
			"-0.007": 6.88383773507,
			"-0.006": 12.4631055993,
			"-0.005": 21.5883631397,
			"-0.004": 25.4791142155,
			"-0.003": 35.2767029416,
			"-0.002": 29.1894736003,
			"-0.001": 20.5835370502,
			"0.0": 21.1866249759,
			"0.001": 19.2896815348,
			"0.002": 18.8822873655,
			"0.003": 20.8872924099,
			"0.004": 13.2272907589,
			"0.005": 10.9060504077,
			"0.006": 14.3868469782,
			"0.007": 8.77353582262,
			"0.008": 3.15249452316,
			"0.009": 3.77523944394,
			"0.01": 3.57360063966,
			"0.011": 4.56378630352,
			"0.012": 3.71315832008,
			"0.013": 4.84912647638,
			"0.014": 0.680950797201,
			"0.015": 0.0,
			"0.016": 0.0,
			"0.017": 0.0,
			"0.018": 0.0,
			"0.019": 0.0,
			"0.02": 0.0,
			"0.021": 0.0,
			"0.022": 0.0,
			"0.023": 0.0,
			"0.024": 0.0,
			"0.025": 0.0
		}
	}
}
