{
	 "smiles": "OC(=O)C1=CC(Cl)=C(Br)N1", 
	 "Tm": 442.15, 
	 "num_atms": 13, 
	 "gaussian": { 
		 "optdone": 1, 
		 "sigma_profile": "yes", 
		 "theory": "DFT", 
		 "functional": "B3LYP", 
		 "basiset": "6-31G**", 
		 "properties": { 
			 "R2extent": 3174.0638, 
			 "electric_dipole_moment_norm": 1.79940880847, 
			 "electric_quadrupole_moment_norm": 16.925960791, 
			 "total_energy": -3429.12748087, 
			 "HOMO_LUMO_gap": 0.18872, 
			 "cosmo_polarized_energy": -14.56, 
			 "cosmo_cavitation_energy": 22.65, 
			 "cosmo_dispersion_energy": -17.32, 
			 "cosmo_repulsion_energy": 1.42, 
			 "cosmo_total_nonelectrostatic_energy": 6.76, 
			 "SMD_solvation_energy": 3.7 
		},
		"coords": [
			{
				"x": 1.1364975537,
				"y": 1.9891430268,
				"z": 2.7351145021,
				"element": "O" 
			},
			{
				"x": 0.377280325,
				"y": 1.0063408886,
				"z": 2.1955267022,
				"element": "C" 
			},
			{
				"x": -0.6225141722,
				"y": 0.6118161603,
				"z": 2.7586061272,
				"element": "O" 
			},
			{
				"x": 0.8156098866,
				"y": 0.4453608943,
				"z": 0.909540462,
				"element": "C" 
			},
			{
				"x": 1.8787378911,
				"y": 0.6776967721,
				"z": 0.0458555633,
				"element": "C" 
			},
			{
				"x": 1.7272424284,
				"y": -0.2109345789,
				"z": -1.0428278857,
				"element": "C" 
			},
			{
				"x": 2.7747494391,
				"y": -0.3465055733,
				"z": -2.4103174991,
				"element": "Cl" 
			},
			{
				"x": 0.5791018078,
				"y": -0.9603631857,
				"z": -0.8158807453,
				"element": "C" 
			},
			{
				"x": -0.2020226855,
				"y": -2.3064684521,
				"z": -1.8462872466,
				"element": "Br" 
			},
			{
				"x": 0.042420428,
				"y": -0.5523398739,
				"z": 0.3642686043,
				"element": "N" 
			},
			{
				"x": 1.8940421333,
				"y": 2.1882667565,
				"z": 2.1669787473,
				"element": "H" 
			},
			{
				"x": 2.6816695756,
				"y": 1.3928633914,
				"z": 0.1578740743,
				"element": "H" 
			},
			{
				"x": -0.7948146107,
				"y": -0.8982762261,
				"z": 0.8137485939,
				"element": "H" 
			}
		],
		 "valence_orbital": [ 
			{
				"type": "occ",
				"energy": -0.32556,
				"method": "rhf"
			},
			{
				"type": "occ",
				"energy": -0.31909,
				"method": "rhf"
			},
			{
				"type": "occ",
				"energy": -0.29133,
				"method": "rhf"
			},
			{
				"type": "occ",
				"energy": -0.27611,
				"method": "rhf"
			},
			{
				"type": "occ",
				"energy": -0.23977,
				"method": "rhf"
			},
			{
				"type": "unocc",
				"energy": -0.05105,
				"method": "rhf"
			},
			{
				"type": "unocc",
				"energy": -0.01683,
				"method": "rhf"
			},
			{
				"type": "unocc",
				"energy": 0.02306,
				"method": "rhf"
			},
			{
				"type": "unocc",
				"energy": 0.03416,
				"method": "rhf"
			},
			{
				"type": "unocc",
				"energy": 0.04562,
				"method": "rhf"
			}
		],
		"cosmo_sigma_profile": { 
			"-0.025": 0.0,
			"-0.024": 0.0,
			"-0.023": 0.0,
			"-0.022": 0.0,
			"-0.021": 0.0,
			"-0.02": 0.0,
			"-0.019": 0.230776549633,
			"-0.018": 1.88882143416,
			"-0.017": 1.17584158266,
			"-0.016": 1.53694073844,
			"-0.015": 2.094142311,
			"-0.014": 2.00091618748,
			"-0.013": 2.32122900973,
			"-0.012": 1.93408160027,
			"-0.011": 2.43274772488,
			"-0.01": 1.88431586227,
			"-0.009": 2.47148772645,
			"-0.008": 2.41867010382,
			"-0.007": 3.26880976185,
			"-0.006": 4.44484455988,
			"-0.005": 4.19850575689,
			"-0.004": 6.23541021872,
			"-0.003": 7.92462710593,
			"-0.002": 10.3439044635,
			"-0.001": 11.4149371584,
			"0.0": 17.2630775212,
			"0.001": 18.7395098421,
			"0.002": 19.9579952977,
			"0.003": 20.3106222838,
			"0.004": 13.6828424772,
			"0.005": 3.33683645108,
			"0.006": 1.25260560701,
			"0.007": 2.6427504102,
			"0.008": 2.35620263742,
			"0.009": 3.82522274442,
			"0.01": 4.8588796724,
			"0.011": 4.48528355063,
			"0.012": 3.4695633818,
			"0.013": 1.44134003198,
			"0.014": 0.024937081041,
			"0.015": 0.0,
			"0.016": 0.0,
			"0.017": 0.0,
			"0.018": 0.0,
			"0.019": 0.0,
			"0.02": 0.0,
			"0.021": 0.0,
			"0.022": 0.0,
			"0.023": 0.0,
			"0.024": 0.0,
			"0.025": 0.0
		}
	}
}
