{
	 "smiles": "CCOC(=O)C1=C(C(=O)OCC)C(C)=NN1", 
	 "Tm": 371.65, 
	 "num_atms": 30, 
	 "gaussian": { 
		 "optdone": 1, 
		 "sigma_profile": "yes", 
		 "theory": "DFT", 
		 "functional": "B3LYP", 
		 "basiset": "6-31G**", 
		 "properties": { 
			 "R2extent": 4748.3885, 
			 "electric_dipole_moment_norm": 3.62015035323, 
			 "electric_quadrupole_moment_norm": 8.63721184642, 
			 "total_energy": -799.918141609, 
			 "HOMO_LUMO_gap": 0.20163, 
			 "cosmo_polarized_energy": -13.9, 
			 "cosmo_cavitation_energy": 34.61, 
			 "cosmo_dispersion_energy": -24.38, 
			 "cosmo_repulsion_energy": 1.96, 
			 "cosmo_total_nonelectrostatic_energy": 12.2, 
			 "SMD_solvation_energy": 7.14 
		},
		"coords": [
			{
				"x": 0.9325021444,
				"y": -0.0061121614,
				"z": 4.9447123782,
				"element": "C" 
			},
			{
				"x": 1.703032699,
				"y": 0.8555622704,
				"z": 3.9562214593,
				"element": "C" 
			},
			{
				"x": 1.560147582,
				"y": 0.361796512,
				"z": 2.6005868287,
				"element": "O" 
			},
			{
				"x": 0.4588404381,
				"y": 0.7821185836,
				"z": 1.9174207472,
				"element": "C" 
			},
			{
				"x": -0.366941335,
				"y": 1.5451002638,
				"z": 2.3633318759,
				"element": "O" 
			},
			{
				"x": 0.4322907422,
				"y": 0.1333802363,
				"z": 0.5869037495,
				"element": "C" 
			},
			{
				"x": -0.3419449438,
				"y": 0.2875807012,
				"z": -0.569802554,
				"element": "C" 
			},
			{
				"x": -1.3673263128,
				"y": 1.2848127955,
				"z": -0.9311385466,
				"element": "C" 
			},
			{
				"x": -2.1738785418,
				"y": 1.1138579189,
				"z": -1.8296340592,
				"element": "O" 
			},
			{
				"x": -1.2887161738,
				"y": 2.403935044,
				"z": -0.1903354125,
				"element": "O" 
			},
			{
				"x": -2.2876178853,
				"y": 3.4202615133,
				"z": -0.4363652486,
				"element": "C" 
			},
			{
				"x": -1.8621884962,
				"y": 4.3535450519,
				"z": -1.5603347174,
				"element": "C" 
			},
			{
				"x": 0.0921018282,
				"y": -0.7530253153,
				"z": -1.4413756772,
				"element": "C" 
			},
			{
				"x": -0.3836316527,
				"y": -1.0773285277,
				"z": -2.8219428804,
				"element": "C" 
			},
			{
				"x": 1.0580529014,
				"y": -1.4796435986,
				"z": -0.8719236855,
				"element": "N" 
			},
			{
				"x": 1.2402975438,
				"y": -0.9290981978,
				"z": 0.3382179011,
				"element": "N" 
			},
			{
				"x": 1.2485440516,
				"y": -1.0517350684,
				"z": 4.8831710296,
				"element": "H" 
			},
			{
				"x": -0.1412984426,
				"y": 0.0522422089,
				"z": 4.7511806381,
				"element": "H" 
			},
			{
				"x": 1.1163622088,
				"y": 0.3476690149,
				"z": 5.9645369083,
				"element": "H" 
			},
			{
				"x": 2.7787379209,
				"y": 0.821038377,
				"z": 4.1433596963,
				"element": "H" 
			},
			{
				"x": 1.362117263,
				"y": 1.8927101163,
				"z": 3.9853011759,
				"element": "H" 
			},
			{
				"x": -3.2380491803,
				"y": 2.9336525589,
				"z": -0.6681338347,
				"element": "H" 
			},
			{
				"x": -2.3707504533,
				"y": 3.94834613,
				"z": 0.5161856601,
				"element": "H" 
			},
			{
				"x": -2.5947887417,
				"y": 5.1601757513,
				"z": -1.6709810704,
				"element": "H" 
			},
			{
				"x": -0.8876130955,
				"y": 4.8021389422,
				"z": -1.3460372803,
				"element": "H" 
			},
			{
				"x": -1.8028566665,
				"y": 3.8113196533,
				"z": -2.5071234905,
				"element": "H" 
			},
			{
				"x": -0.2894215361,
				"y": -0.2129971544,
				"z": -3.4859447316,
				"element": "H" 
			},
			{
				"x": 0.2042802359,
				"y": -1.9055408876,
				"z": -3.2229780743,
				"element": "H" 
			},
			{
				"x": -1.4422950706,
				"y": -1.3494638681,
				"z": -2.8155916446,
				"element": "H" 
			},
			{
				"x": 1.9192109687,
				"y": -1.3108988646,
				"z": 0.9800128598,
				"element": "H" 
			}
		],
		 "valence_orbital": [ 
			{
				"type": "occ",
				"energy": -0.29237,
				"method": "rhf"
			},
			{
				"type": "occ",
				"energy": -0.28187,
				"method": "rhf"
			},
			{
				"type": "occ",
				"energy": -0.27091,
				"method": "rhf"
			},
			{
				"type": "occ",
				"energy": -0.2618,
				"method": "rhf"
			},
			{
				"type": "occ",
				"energy": -0.25937,
				"method": "rhf"
			},
			{
				"type": "unocc",
				"energy": -0.05774,
				"method": "rhf"
			},
			{
				"type": "unocc",
				"energy": 0.00886,
				"method": "rhf"
			},
			{
				"type": "unocc",
				"energy": 0.05358,
				"method": "rhf"
			},
			{
				"type": "unocc",
				"energy": 0.08152,
				"method": "rhf"
			},
			{
				"type": "unocc",
				"energy": 0.10058,
				"method": "rhf"
			}
		],
		"cosmo_sigma_profile": { 
			"-0.025": 0.0,
			"-0.024": 0.0,
			"-0.023": 0.0,
			"-0.022": 0.0,
			"-0.021": 0.0,
			"-0.02": 0.0,
			"-0.019": 0.0,
			"-0.018": 0.0,
			"-0.017": 0.282138897379,
			"-0.016": 0.826270720639,
			"-0.015": 0.847197106229,
			"-0.014": 1.01611556957,
			"-0.013": 0.442559574571,
			"-0.012": 0.809488392237,
			"-0.011": 0.898225402882,
			"-0.01": 0.613559100886,
			"-0.009": 0.479571610427,
			"-0.008": 0.989199905599,
			"-0.007": 1.51006039057,
			"-0.006": 4.68437388022,
			"-0.005": 13.7652554902,
			"-0.004": 28.0718885264,
			"-0.003": 32.6524827765,
			"-0.002": 31.4191923194,
			"-0.001": 31.3509885373,
			"0.0": 32.4588827301,
			"0.001": 19.222187856,
			"0.002": 9.23246547125,
			"0.003": 7.47406858396,
			"0.004": 6.72632581291,
			"0.005": 6.89344527287,
			"0.006": 5.76663946677,
			"0.007": 4.4834696734,
			"0.008": 3.93609040585,
			"0.009": 5.15477001414,
			"0.01": 6.13889044368,
			"0.011": 7.95203681015,
			"0.012": 4.96226545098,
			"0.013": 0.944490542038,
			"0.014": 1.06133905328,
			"0.015": 0.227895395514,
			"0.016": 0.0,
			"0.017": 0.0,
			"0.018": 0.0,
			"0.019": 0.0,
			"0.02": 0.0,
			"0.021": 0.0,
			"0.022": 0.0,
			"0.023": 0.0,
			"0.024": 0.0,
			"0.025": 0.0
		}
	}
}
