{
	 "smiles": "OC(=O)C(CC1=CC(I)=C(O)C(I)=C1)C1=CC=CC=C1", 
	 "Tm": 437.15, 
	 "num_atms": 32, 
	 "gaussian": { 
		 "optdone": 1, 
		 "sigma_profile": "no", 
		 "theory": "DFT", 
		 "functional": "B3LYP", 
		 "basiset": "6-31G**", 
		 "properties": { 
			 "R2extent": 6381.8418, 
			 "electric_dipole_moment_norm": 2.88282887803, 
			 "electric_quadrupole_moment_norm": 6.49432350288, 
			 "total_energy": -827.286730559, 
			 "HOMO_LUMO_gap": 0.16972, 
			 "cosmo_polarized_energy": -206380.45, 
			 "cosmo_cavitation_energy": 42.17, 
			 "cosmo_dispersion_energy": -30.74, 
			 "cosmo_repulsion_energy": 2.36, 
			 "cosmo_total_nonelectrostatic_energy": 13.79, 
			 "SMD_solvation_energy": 6.43 
		},
		"coords": [
			{
				"x": -2.0342167364,
				"y": 3.5010491165,
				"z": 2.5130271567,
				"element": "O" 
			},
			{
				"x": -2.462720962,
				"y": 2.6123625989,
				"z": 1.5910446966,
				"element": "C" 
			},
			{
				"x": -3.1796162015,
				"y": 2.937534757,
				"z": 0.666862108,
				"element": "O" 
			},
			{
				"x": -2.0063305395,
				"y": 1.1914207297,
				"z": 1.9102490584,
				"element": "C" 
			},
			{
				"x": -2.4375410043,
				"y": 0.1866269103,
				"z": 0.8004691846,
				"element": "C" 
			},
			{
				"x": -1.6461150644,
				"y": 0.2097335894,
				"z": -0.4926712993,
				"element": "C" 
			},
			{
				"x": -1.9800014878,
				"y": 1.0826054548,
				"z": -1.5353422029,
				"element": "C" 
			},
			{
				"x": -1.247298357,
				"y": 1.0732037594,
				"z": -2.7191491733,
				"element": "C" 
			},
			{
				"x": -1.7896642526,
				"y": 2.4152093479,
				"z": -4.2806343713,
				"element": "I" 
			},
			{
				"x": -0.1622395423,
				"y": 0.2019711547,
				"z": -2.9236207625,
				"element": "C" 
			},
			{
				"x": 0.5720786254,
				"y": 0.1557209501,
				"z": -4.0547089968,
				"element": "O" 
			},
			{
				"x": 0.1583672004,
				"y": -0.6697395404,
				"z": -1.8684806362,
				"element": "C" 
			},
			{
				"x": 1.772342838,
				"y": -2.0173024689,
				"z": -2.0947208067,
				"element": "I" 
			},
			{
				"x": -0.5679015667,
				"y": -0.6650330299,
				"z": -0.6811314572,
				"element": "C" 
			},
			{
				"x": -0.5407658151,
				"y": 1.0895012043,
				"z": 2.3058272263,
				"element": "C" 
			},
			{
				"x": 0.467315453,
				"y": 1.7315892673,
				"z": 1.5731653641,
				"element": "C" 
			},
			{
				"x": 1.8079432537,
				"y": 1.5855236589,
				"z": 1.928958097,
				"element": "C" 
			},
			{
				"x": 2.1637267201,
				"y": 0.7888270996,
				"z": 3.0192567409,
				"element": "C" 
			},
			{
				"x": 1.1690381727,
				"y": 0.1427777944,
				"z": 3.7541347319,
				"element": "C" 
			},
			{
				"x": -0.1721056704,
				"y": 0.2955748351,
				"z": 3.3988719221,
				"element": "C" 
			},
			{
				"x": -2.4054297606,
				"y": 4.3612537808,
				"z": 2.252946749,
				"element": "H" 
			},
			{
				"x": -2.594537957,
				"y": 0.9288872735,
				"z": 2.8014204687,
				"element": "H" 
			},
			{
				"x": -2.3644598407,
				"y": -0.8148985384,
				"z": 1.2364151563,
				"element": "H" 
			},
			{
				"x": -3.4947855685,
				"y": 0.3675115159,
				"z": 0.5856718852,
				"element": "H" 
			},
			{
				"x": -2.8042264295,
				"y": 1.7729262116,
				"z": -1.4070687502,
				"element": "H" 
			},
			{
				"x": 0.2269347249,
				"y": 0.8050887922,
				"z": -4.6890673768,
				"element": "H" 
			},
			{
				"x": -0.2908392524,
				"y": -1.3524514255,
				"z": 0.1105220919,
				"element": "H" 
			},
			{
				"x": 0.2052750781,
				"y": 2.3521074169,
				"z": 0.7209993494,
				"element": "H" 
			},
			{
				"x": 2.5752378968,
				"y": 2.0932308118,
				"z": 1.3518057144,
				"element": "H" 
			},
			{
				"x": 3.2081082476,
				"y": 0.6752250302,
				"z": 3.2946451977,
				"element": "H" 
			},
			{
				"x": 1.4341095831,
				"y": -0.4756259014,
				"z": 4.6069231223,
				"element": "H" 
			},
			{
				"x": -0.9424817849,
				"y": -0.2057121568,
				"z": 3.9804798115,
				"element": "H" 
			}
		],
		 "valence_orbital": [ 
			{
				"type": "occ",
				"energy": -0.26014,
				"method": "rhf"
			},
			{
				"type": "occ",
				"energy": -0.255,
				"method": "rhf"
			},
			{
				"type": "occ",
				"energy": -0.24951,
				"method": "rhf"
			},
			{
				"type": "occ",
				"energy": -0.23883,
				"method": "rhf"
			},
			{
				"type": "occ",
				"energy": -0.22667,
				"method": "rhf"
			},
			{
				"type": "unocc",
				"energy": -0.05695,
				"method": "rhf"
			},
			{
				"type": "unocc",
				"energy": -0.02554,
				"method": "rhf"
			},
			{
				"type": "unocc",
				"energy": -0.02299,
				"method": "rhf"
			},
			{
				"type": "unocc",
				"energy": -0.01302,
				"method": "rhf"
			},
			{
				"type": "unocc",
				"energy": -0.00733,
				"method": "rhf"
			}
		],
		"cosmo_sigma_profile": { 
			"0.0": 0.0,
			"0.0": 0.0,
			"0.0": 0.0,
			"0.0": 0.0,
			"0.0": 0.0,
			"0.0": 0.0,
			"0.0": 0.0,
			"0.0": 0.0,
			"0.0": 0.0,
			"0.0": 0.0,
			"0.0": 0.0,
			"0.0": 0.0,
			"0.0": 0.0,
			"0.0": 0.0,
			"0.0": 0.0,
			"0.0": 0.0,
			"0.0": 0.0,
			"0.0": 0.0,
			"0.0": 0.0,
			"0.0": 0.0,
			"0.0": 0.0,
			"0.0": 0.0,
			"0.0": 0.0,
			"0.0": 0.0,
			"0.0": 0.0,
			"0.0": 0.0,
			"0.0": 0.0,
			"0.0": 0.0,
			"0.0": 0.0,
			"0.0": 0.0,
			"0.0": 0.0,
			"0.0": 0.0,
			"0.0": 0.0,
			"0.0": 0.0,
			"0.0": 0.0,
			"0.0": 0.0,
			"0.0": 0.0,
			"0.0": 0.0,
			"0.0": 0.0,
			"0.0": 0.0,
			"0.0": 0.0,
			"0.0": 0.0,
			"0.0": 0.0,
			"0.0": 0.0,
			"0.0": 0.0,
			"0.0": 0.0,
			"0.0": 0.0,
			"0.0": 0.0,
			"0.0": 0.0,
			"0.0": 0.0,
			"0.0": 0.0
		}
	}
}
