{
	 "smiles": "OC(=O)CC1=CC=C(NC(=O)C2=CC=C(Br)O2)C=C1", 
	 "Tm": 473.15, 
	 "num_atms": 29, 
	 "gaussian": { 
		 "optdone": 1, 
		 "sigma_profile": "yes", 
		 "theory": "DFT", 
		 "functional": "B3LYP", 
		 "basiset": "6-31G**", 
		 "properties": { 
			 "R2extent": 9074.7676, 
			 "electric_dipole_moment_norm": 2.2589866954, 
			 "electric_quadrupole_moment_norm": 15.0203927778, 
			 "total_energy": -3428.45501344, 
			 "HOMO_LUMO_gap": 0.1793, 
			 "cosmo_polarized_energy": -17.76, 
			 "cosmo_cavitation_energy": 37.99, 
			 "cosmo_dispersion_energy": -26.27, 
			 "cosmo_repulsion_energy": 2.07, 
			 "cosmo_total_nonelectrostatic_energy": 13.79, 
			 "SMD_solvation_energy": 7.52 
		},
		"coords": [
			{
				"x": -1.0069058516,
				"y": 4.9524425963,
				"z": 0.6728005567,
				"element": "O" 
			},
			{
				"x": -1.4461798747,
				"y": 4.098112079,
				"z": -0.2799938615,
				"element": "C" 
			},
			{
				"x": -2.6223978418,
				"y": 3.9265555898,
				"z": -0.5152794445,
				"element": "O" 
			},
			{
				"x": -0.3033147729,
				"y": 3.3772161473,
				"z": -0.9727824046,
				"element": "C" 
			},
			{
				"x": -0.1123127314,
				"y": 1.9772527362,
				"z": -0.4094360254,
				"element": "C" 
			},
			{
				"x": -1.1398335761,
				"y": 1.0273531561,
				"z": -0.4944293525,
				"element": "C" 
			},
			{
				"x": -0.9745610342,
				"y": -0.2538528538,
				"z": 0.0218811918,
				"element": "C" 
			},
			{
				"x": 0.2426591552,
				"y": -0.6245277924,
				"z": 0.6096097591,
				"element": "C" 
			},
			{
				"x": 0.4439856405,
				"y": -1.9087861697,
				"z": 1.180592774,
				"element": "N" 
			},
			{
				"x": -0.0225215072,
				"y": -3.1535125662,
				"z": 0.8070193563,
				"element": "C" 
			},
			{
				"x": -0.0880305015,
				"y": -4.0694790125,
				"z": 1.6224207828,
				"element": "O" 
			},
			{
				"x": -0.3819206123,
				"y": -3.4177125057,
				"z": -0.5984107924,
				"element": "C" 
			},
			{
				"x": -1.0249863339,
				"y": -4.5073264064,
				"z": -1.1213445261,
				"element": "C" 
			},
			{
				"x": -1.0648505631,
				"y": -4.3271896826,
				"z": -2.534380029,
				"element": "C" 
			},
			{
				"x": -0.4295102537,
				"y": -3.1396311482,
				"z": -2.7639500009,
				"element": "C" 
			},
			{
				"x": -0.0616930714,
				"y": -2.2224090547,
				"z": -4.3484645223,
				"element": "Br" 
			},
			{
				"x": -0.0058379953,
				"y": -2.568548216,
				"z": -1.615564957,
				"element": "O" 
			},
			{
				"x": 1.2707637754,
				"y": 0.3194704913,
				"z": 0.7027826941,
				"element": "C" 
			},
			{
				"x": 1.0873183375,
				"y": 1.6094985017,
				"z": 0.2073124518,
				"element": "C" 
			},
			{
				"x": -1.8023953254,
				"y": 5.3355055498,
				"z": 1.080737137,
				"element": "H" 
			},
			{
				"x": 0.6156456269,
				"y": 3.9572253849,
				"z": -0.8662896794,
				"element": "H" 
			},
			{
				"x": -0.5616710331,
				"y": 3.3239569982,
				"z": -2.0353126121,
				"element": "H" 
			},
			{
				"x": -2.0884126814,
				"y": 1.3087556415,
				"z": -0.9416162672,
				"element": "H" 
			},
			{
				"x": -1.7920309296,
				"y": -0.9657825515,
				"z": -0.0215127141,
				"element": "H" 
			},
			{
				"x": 0.8001240169,
				"y": -1.9295136606,
				"z": 2.1289736435,
				"element": "H" 
			},
			{
				"x": -1.411407464,
				"y": -5.3347498859,
				"z": -0.5454488113,
				"element": "H" 
			},
			{
				"x": -1.4943171975,
				"y": -4.9783545063,
				"z": -3.2798469468,
				"element": "H" 
			},
			{
				"x": 2.2160103457,
				"y": 0.0367983203,
				"z": 1.1571881489,
				"element": "H" 
			},
			{
				"x": 1.8946842541,
				"y": 2.3320328201,
				"z": 0.2907444514,
				"element": "H" 
			}
		],
		 "valence_orbital": [ 
			{
				"type": "occ",
				"energy": -0.27978,
				"method": "rhf"
			},
			{
				"type": "occ",
				"energy": -0.26489,
				"method": "rhf"
			},
			{
				"type": "occ",
				"energy": -0.26002,
				"method": "rhf"
			},
			{
				"type": "occ",
				"energy": -0.23656,
				"method": "rhf"
			},
			{
				"type": "occ",
				"energy": -0.22803,
				"method": "rhf"
			},
			{
				"type": "unocc",
				"energy": -0.04873,
				"method": "rhf"
			},
			{
				"type": "unocc",
				"energy": -0.01538,
				"method": "rhf"
			},
			{
				"type": "unocc",
				"energy": -0.01211,
				"method": "rhf"
			},
			{
				"type": "unocc",
				"energy": 0.0006,
				"method": "rhf"
			},
			{
				"type": "unocc",
				"energy": 0.01162,
				"method": "rhf"
			}
		],
		"cosmo_sigma_profile": { 
			"-0.025": 0.0,
			"-0.024": 0.0,
			"-0.023": 0.0,
			"-0.022": 0.0,
			"-0.021": 0.0,
			"-0.02": 0.0,
			"-0.019": 0.00805913397483,
			"-0.018": 0.72163368089,
			"-0.017": 1.04754767305,
			"-0.016": 0.996091596463,
			"-0.015": 1.20030875179,
			"-0.014": 1.51965697881,
			"-0.013": 1.61444687971,
			"-0.012": 1.39611459223,
			"-0.011": 1.63144147881,
			"-0.01": 2.23662709516,
			"-0.009": 2.91264335651,
			"-0.008": 4.88927600794,
			"-0.007": 9.10787470863,
			"-0.006": 17.8039615448,
			"-0.005": 17.4524940276,
			"-0.004": 18.7290902311,
			"-0.003": 18.0804879583,
			"-0.002": 17.0667121041,
			"-0.001": 20.2703892305,
			"0.0": 24.3661893947,
			"0.001": 24.905696633,
			"0.002": 29.0661964235,
			"0.003": 24.8253308432,
			"0.004": 14.3637585979,
			"0.005": 10.7105111527,
			"0.006": 5.6031067,
			"0.007": 4.14037533873,
			"0.008": 4.17610537715,
			"0.009": 4.08275646225,
			"0.01": 3.40730442596,
			"0.011": 5.74424811901,
			"0.012": 6.9229707431,
			"0.013": 5.61361036338,
			"0.014": 0.932533153002,
			"0.015": 0.0,
			"0.016": 0.0,
			"0.017": 0.0,
			"0.018": 0.0,
			"0.019": 0.0,
			"0.02": 0.0,
			"0.021": 0.0,
			"0.022": 0.0,
			"0.023": 0.0,
			"0.024": 0.0,
			"0.025": 0.0
		}
	}
}
