{
	 "smiles": "S=C1NC(C2=C(N1)C(CCC2)=CC1=CC=CC=C1)C1=CC=CC=C1", 
	 "Tm": 464.15, 
	 "num_atms": 44, 
	 "gaussian": { 
		 "optdone": 1, 
		 "sigma_profile": "yes", 
		 "theory": "DFT", 
		 "functional": "B3LYP", 
		 "basiset": "6-31G**", 
		 "properties": { 
			 "R2extent": 11609.0752, 
			 "electric_dipole_moment_norm": 6.1129830394, 
			 "electric_quadrupole_moment_norm": 44.391887033, 
			 "total_energy": -1319.99364885, 
			 "HOMO_LUMO_gap": 0.14473, 
			 "cosmo_polarized_energy": -18.41, 
			 "cosmo_cavitation_energy": 47.48, 
			 "cosmo_dispersion_energy": -33.46, 
			 "cosmo_repulsion_energy": 2.52, 
			 "cosmo_total_nonelectrostatic_energy": 16.54, 
			 "SMD_solvation_energy": 5.37 
		},
		"coords": [
			{
				"x": 1.0711067654,
				"y": 1.6467992408,
				"z": -4.9728939346,
				"element": "S" 
			},
			{
				"x": 1.2814365511,
				"y": 1.0155924665,
				"z": -3.4278039746,
				"element": "C" 
			},
			{
				"x": 2.4641924653,
				"y": 1.0551215665,
				"z": -2.7735618568,
				"element": "N" 
			},
			{
				"x": 2.7379834074,
				"y": 0.6160346111,
				"z": -1.4004083588,
				"element": "C" 
			},
			{
				"x": 1.5826670156,
				"y": -0.2047531266,
				"z": -0.8663211844,
				"element": "C" 
			},
			{
				"x": 0.405794804,
				"y": -0.2692670164,
				"z": -1.5318718246,
				"element": "C" 
			},
			{
				"x": 0.2551048998,
				"y": 0.4130636501,
				"z": -2.7542614306,
				"element": "N" 
			},
			{
				"x": -0.7527218424,
				"y": -1.0486467208,
				"z": -1.0474807922,
				"element": "C" 
			},
			{
				"x": -0.4263143243,
				"y": -2.0394171176,
				"z": 0.0497391453,
				"element": "C" 
			},
			{
				"x": 0.5208781575,
				"y": -1.4075607156,
				"z": 1.0818787868,
				"element": "C" 
			},
			{
				"x": 1.8222201894,
				"y": -0.9378481948,
				"z": 0.4275533324,
				"element": "C" 
			},
			{
				"x": -1.998527035,
				"y": -0.8221494283,
				"z": -1.5316529428,
				"element": "C" 
			},
			{
				"x": -3.2539088163,
				"y": -1.5267476017,
				"z": -1.2279420592,
				"element": "C" 
			},
			{
				"x": -3.3330369277,
				"y": -2.9157298092,
				"z": -1.0109047784,
				"element": "C" 
			},
			{
				"x": -4.5566399776,
				"y": -3.5301779879,
				"z": -0.7470381708,
				"element": "C" 
			},
			{
				"x": -5.7306765585,
				"y": -2.7763522764,
				"z": -0.7012301614,
				"element": "C" 
			},
			{
				"x": -5.6739184364,
				"y": -1.4007370622,
				"z": -0.9385270944,
				"element": "C" 
			},
			{
				"x": -4.4531204127,
				"y": -0.7876929168,
				"z": -1.2076926233,
				"element": "C" 
			},
			{
				"x": 3.0801525598,
				"y": 1.8067871233,
				"z": -0.4986619185,
				"element": "C" 
			},
			{
				"x": 2.1543470995,
				"y": 2.8411109365,
				"z": -0.303641342,
				"element": "C" 
			},
			{
				"x": 2.4711769054,
				"y": 3.9267351054,
				"z": 0.5104359755,
				"element": "C" 
			},
			{
				"x": 3.7160597916,
				"y": 3.9911874728,
				"z": 1.1441494839,
				"element": "C" 
			},
			{
				"x": 4.6423010282,
				"y": 2.9658445825,
				"z": 0.9562496721,
				"element": "C" 
			},
			{
				"x": 4.3240113348,
				"y": 1.8802565459,
				"z": 0.1357093703,
				"element": "C" 
			},
			{
				"x": 3.1927349746,
				"y": 1.5565175093,
				"z": -3.2617637801,
				"element": "H" 
			},
			{
				"x": 3.6317912619,
				"y": -0.0282035529,
				"z": -1.4291306236,
				"element": "H" 
			},
			{
				"x": -0.5565864794,
				"y": 0.2264617891,
				"z": -3.3227686153,
				"element": "H" 
			},
			{
				"x": -1.3424969182,
				"y": -2.3741537738,
				"z": 0.5398324886,
				"element": "H" 
			},
			{
				"x": 0.0537690551,
				"y": -2.9313359282,
				"z": -0.3795545057,
				"element": "H" 
			},
			{
				"x": 0.0178981305,
				"y": -0.5510436335,
				"z": 1.5466008605,
				"element": "H" 
			},
			{
				"x": 0.7362753755,
				"y": -2.1252210512,
				"z": 1.8807969347,
				"element": "H" 
			},
			{
				"x": 2.3815011578,
				"y": -0.2959029755,
				"z": 1.1190207441,
				"element": "H" 
			},
			{
				"x": 2.4778055161,
				"y": -1.8025346012,
				"z": 0.2301805685,
				"element": "H" 
			},
			{
				"x": -2.1371893101,
				"y": 0.0262435882,
				"z": -2.2002651694,
				"element": "H" 
			},
			{
				"x": -2.4374161187,
				"y": -3.5229486176,
				"z": -1.0854206225,
				"element": "H" 
			},
			{
				"x": -4.5935910422,
				"y": -4.604476963,
				"z": -0.5896495927,
				"element": "H" 
			},
			{
				"x": -6.6825437305,
				"y": -3.2577571307,
				"z": -0.4971041955,
				"element": "H" 
			},
			{
				"x": -6.582819304,
				"y": -0.8061532556,
				"z": -0.9189921681,
				"element": "H" 
			},
			{
				"x": -4.4171800783,
				"y": 0.2823507642,
				"z": -1.3961195526,
				"element": "H" 
			},
			{
				"x": 1.1868813925,
				"y": 2.7957745412,
				"z": -0.7957947328,
				"element": "H" 
			},
			{
				"x": 1.7476267101,
				"y": 4.7245605386,
				"z": 0.6513746907,
				"element": "H" 
			},
			{
				"x": 3.9612654269,
				"y": 4.8384559112,
				"z": 1.7779593679,
				"element": "H" 
			},
			{
				"x": 5.6127927902,
				"y": 3.0102539834,
				"z": 1.4422094902,
				"element": "H" 
			},
			{
				"x": 5.0506125465,
				"y": 1.0847595309,
				"z": -0.0150329063,
				"element": "H" 
			}
		],
		 "valence_orbital": [ 
			{
				"type": "occ",
				"energy": -0.25582,
				"method": "rhf"
			},
			{
				"type": "occ",
				"energy": -0.24236,
				"method": "rhf"
			},
			{
				"type": "occ",
				"energy": -0.21471,
				"method": "rhf"
			},
			{
				"type": "occ",
				"energy": -0.20056,
				"method": "rhf"
			},
			{
				"type": "occ",
				"energy": -0.19804,
				"method": "rhf"
			},
			{
				"type": "unocc",
				"energy": -0.05331,
				"method": "rhf"
			},
			{
				"type": "unocc",
				"energy": -0.01858,
				"method": "rhf"
			},
			{
				"type": "unocc",
				"energy": -0.01264,
				"method": "rhf"
			},
			{
				"type": "unocc",
				"energy": -0.0069,
				"method": "rhf"
			},
			{
				"type": "unocc",
				"energy": 0.00362,
				"method": "rhf"
			}
		],
		"cosmo_sigma_profile": { 
			"-0.025": 0.0,
			"-0.024": 0.0,
			"-0.023": 0.0,
			"-0.022": 0.0,
			"-0.021": 0.0,
			"-0.02": 0.0,
			"-0.019": 0.0,
			"-0.018": 0.0,
			"-0.017": 0.0,
			"-0.016": 0.0,
			"-0.015": 0.114189823637,
			"-0.014": 1.12519089286,
			"-0.013": 1.22665984612,
			"-0.012": 2.04216533062,
			"-0.011": 1.62039469033,
			"-0.01": 1.6301920106,
			"-0.009": 2.12224837075,
			"-0.008": 2.39005111811,
			"-0.007": 4.04568403262,
			"-0.006": 16.0541561455,
			"-0.005": 25.8265755265,
			"-0.004": 31.5369198868,
			"-0.003": 38.5750170509,
			"-0.002": 35.6274853212,
			"-0.001": 33.7999594773,
			"0.0": 26.2360544935,
			"0.001": 23.7417801397,
			"0.002": 22.8573924029,
			"0.003": 22.7072650237,
			"0.004": 21.8439420362,
			"0.005": 21.1719227422,
			"0.006": 12.3484868178,
			"0.007": 3.21108634929,
			"0.008": 3.60565096674,
			"0.009": 3.99047600491,
			"0.01": 5.09984213572,
			"0.011": 6.64517753349,
			"0.012": 7.74429283643,
			"0.013": 1.3599643324,
			"0.014": 0.0,
			"0.015": 0.0,
			"0.016": 0.0,
			"0.017": 0.0,
			"0.018": 0.0,
			"0.019": 0.0,
			"0.02": 0.0,
			"0.021": 0.0,
			"0.022": 0.0,
			"0.023": 0.0,
			"0.024": 0.0,
			"0.025": 0.0
		}
	}
}
