{
	 "smiles": "OC(=O)CCC(=O)C1=CC=C(I)C=C1", 
	 "Tm": 449.15, 
	 "num_atms": 23, 
	 "gaussian": { 
		 "optdone": 1, 
		 "sigma_profile": "yes", 
		 "theory": "DFT", 
		 "functional": "B3LYP", 
		 "basiset": "6-31G**", 
		 "properties": { 
			 "R2extent": 4372.6651, 
			 "electric_dipole_moment_norm": 2.2546654763, 
			 "electric_quadrupole_moment_norm": 8.46964730375, 
			 "total_energy": -623.566564778, 
			 "HOMO_LUMO_gap": 0.18132, 
			 "cosmo_polarized_energy": -14.43, 
			 "cosmo_cavitation_energy": 31.3, 
			 "cosmo_dispersion_energy": -23.88, 
			 "cosmo_repulsion_energy": 1.87, 
			 "cosmo_total_nonelectrostatic_energy": 9.29, 
			 "SMD_solvation_energy": 5.82 
		},
		"coords": [
			{
				"x": 3.2026385949,
				"y": -2.8713184824,
				"z": -1.2217186875,
				"element": "O" 
			},
			{
				"x": 1.9752502221,
				"y": -2.476650699,
				"z": -0.8154426805,
				"element": "C" 
			},
			{
				"x": 1.7115434809,
				"y": -2.2426073977,
				"z": 0.3441205796,
				"element": "O" 
			},
			{
				"x": 0.99545266,
				"y": -2.4175901174,
				"z": -1.9691846015,
				"element": "C" 
			},
			{
				"x": -0.254207994,
				"y": -1.6212859815,
				"z": -1.6083491293,
				"element": "C" 
			},
			{
				"x": 0.0311227361,
				"y": -0.1253875183,
				"z": -1.5053043727,
				"element": "C" 
			},
			{
				"x": 1.1412441643,
				"y": 0.3148365052,
				"z": -1.7651711167,
				"element": "O" 
			},
			{
				"x": -1.0768403433,
				"y": 0.7967747097,
				"z": -1.0965439234,
				"element": "C" 
			},
			{
				"x": -2.3711621917,
				"y": 0.3503384503,
				"z": -0.7942424793,
				"element": "C" 
			},
			{
				"x": -3.3691759596,
				"y": 1.2513806743,
				"z": -0.423700155,
				"element": "C" 
			},
			{
				"x": -3.0662416758,
				"y": 2.6127356014,
				"z": -0.3549292062,
				"element": "C" 
			},
			{
				"x": -4.5754549798,
				"y": 3.9887972864,
				"z": 0.2062082607,
				"element": "I" 
			},
			{
				"x": -1.7818223403,
				"y": 3.080964826,
				"z": -0.6503612281,
				"element": "C" 
			},
			{
				"x": -0.7975682259,
				"y": 2.1697300718,
				"z": -1.0189447227,
				"element": "C" 
			},
			{
				"x": 3.7558402559,
				"y": -2.8990401744,
				"z": -0.4229369287,
				"element": "H" 
			},
			{
				"x": 1.5044301174,
				"y": -1.9912303947,
				"z": -2.836500135,
				"element": "H" 
			},
			{
				"x": 0.7293774013,
				"y": -3.4505744904,
				"z": -2.2248756752,
				"element": "H" 
			},
			{
				"x": -1.038234577,
				"y": -1.7782554558,
				"z": -2.3598998119,
				"element": "H" 
			},
			{
				"x": -0.6553447316,
				"y": -1.9721125113,
				"z": -0.6512440732,
				"element": "H" 
			},
			{
				"x": -2.6167597628,
				"y": -0.7054117686,
				"z": -0.8412929266,
				"element": "H" 
			},
			{
				"x": -4.3662763492,
				"y": 0.8951828193,
				"z": -0.1914646113,
				"element": "H" 
			},
			{
				"x": -1.5540438418,
				"y": 4.1393464937,
				"z": -0.5931463717,
				"element": "H" 
			},
			{
				"x": 0.20763334,
				"y": 2.5037775532,
				"z": -1.2534760039,
				"element": "H" 
			}
		],
		 "valence_orbital": [ 
			{
				"type": "occ",
				"energy": -0.27678,
				"method": "rhf"
			},
			{
				"type": "occ",
				"energy": -0.27569,
				"method": "rhf"
			},
			{
				"type": "occ",
				"energy": -0.27478,
				"method": "rhf"
			},
			{
				"type": "occ",
				"energy": -0.26036,
				"method": "rhf"
			},
			{
				"type": "occ",
				"energy": -0.24935,
				"method": "rhf"
			},
			{
				"type": "unocc",
				"energy": -0.06803,
				"method": "rhf"
			},
			{
				"type": "unocc",
				"energy": -0.04551,
				"method": "rhf"
			},
			{
				"type": "unocc",
				"energy": -0.02425,
				"method": "rhf"
			},
			{
				"type": "unocc",
				"energy": 0.01199,
				"method": "rhf"
			},
			{
				"type": "unocc",
				"energy": 0.02241,
				"method": "rhf"
			}
		],
		"cosmo_sigma_profile": { 
			"-0.025": 0.0,
			"-0.024": 0.0,
			"-0.023": 0.0,
			"-0.022": 0.0,
			"-0.021": 0.0,
			"-0.02": 0.0,
			"-0.019": 0.0,
			"-0.018": 0.552762591209,
			"-0.017": 0.961640062957,
			"-0.016": 1.09455417305,
			"-0.015": 0.714015332969,
			"-0.014": 0.499802406636,
			"-0.013": 0.739498411533,
			"-0.012": 0.53216079751,
			"-0.011": 0.602847318754,
			"-0.01": 1.31485787918,
			"-0.009": 0.613766076507,
			"-0.008": 1.65728965953,
			"-0.007": 13.7212396848,
			"-0.006": 17.9701933523,
			"-0.005": 17.714992281,
			"-0.004": 15.4040869305,
			"-0.003": 16.6464800105,
			"-0.002": 12.2185278943,
			"-0.001": 12.9086536043,
			"0.0": 15.1715795255,
			"0.001": 20.6101670513,
			"0.002": 23.821582515,
			"0.003": 19.9832137755,
			"0.004": 17.7435843796,
			"0.005": 5.64104564107,
			"0.006": 4.39285099052,
			"0.007": 5.04284133779,
			"0.008": 5.02911217833,
			"0.009": 4.67111431701,
			"0.01": 5.10862027776,
			"0.011": 5.76358757288,
			"0.012": 5.37001590899,
			"0.013": 0.269375990228,
			"0.014": 0.0,
			"0.015": 0.0,
			"0.016": 0.0,
			"0.017": 0.0,
			"0.018": 0.0,
			"0.019": 0.0,
			"0.02": 0.0,
			"0.021": 0.0,
			"0.022": 0.0,
			"0.023": 0.0,
			"0.024": 0.0,
			"0.025": 0.0
		}
	}
}
