{
	 "smiles": "OC(=O)CNC(=O)NCC1=CC=C(C=C1)[N+]([O-])=O", 
	 "Tm": 440.15, 
	 "num_atms": 29, 
	 "gaussian": { 
		 "optdone": 1, 
		 "sigma_profile": "yes", 
		 "theory": "DFT", 
		 "functional": "B3LYP", 
		 "basiset": "6-31G**", 
		 "properties": { 
			 "R2extent": 7965.2975, 
			 "electric_dipole_moment_norm": 6.55754678596, 
			 "electric_quadrupole_moment_norm": 27.5157704215, 
			 "total_energy": -928.005877286, 
			 "HOMO_LUMO_gap": 0.17052, 
			 "cosmo_polarized_energy": -24.6, 
			 "cosmo_cavitation_energy": 35.49, 
			 "cosmo_dispersion_energy": -25.22, 
			 "cosmo_repulsion_energy": 1.98, 
			 "cosmo_total_nonelectrostatic_energy": 12.25, 
			 "SMD_solvation_energy": 8.55 
		},
		"coords": [
			{
				"x": 1.2104285583,
				"y": -5.2702823374,
				"z": -1.3971812264,
				"element": "O" 
			},
			{
				"x": 1.2079106625,
				"y": -4.7991818549,
				"z": -2.6662307949,
				"element": "C" 
			},
			{
				"x": 1.1204402465,
				"y": -5.5107878885,
				"z": -3.6393701989,
				"element": "O" 
			},
			{
				"x": 1.3577150873,
				"y": -3.2835706518,
				"z": -2.7385886129,
				"element": "C" 
			},
			{
				"x": 1.417750291,
				"y": -2.5804884179,
				"z": -1.4756465408,
				"element": "N" 
			},
			{
				"x": 0.2324625536,
				"y": -2.1195209802,
				"z": -0.9171570125,
				"element": "C" 
			},
			{
				"x": -0.8316076966,
				"y": -2.1035714861,
				"z": -1.5292053757,
				"element": "O" 
			},
			{
				"x": 0.3661403239,
				"y": -1.6689892831,
				"z": 0.3820989757,
				"element": "N" 
			},
			{
				"x": -0.7569367154,
				"y": -1.0149749333,
				"z": 1.0485557031,
				"element": "C" 
			},
			{
				"x": -0.8050248551,
				"y": 0.4905558202,
				"z": 0.8506567122,
				"element": "C" 
			},
			{
				"x": -0.5441074324,
				"y": 1.3597701041,
				"z": 1.9177372329,
				"element": "C" 
			},
			{
				"x": -0.5728164004,
				"y": 2.7417769995,
				"z": 1.7411781401,
				"element": "C" 
			},
			{
				"x": -0.8667349112,
				"y": 3.2425292901,
				"z": 0.4759906306,
				"element": "C" 
			},
			{
				"x": -1.1348107298,
				"y": 2.4049262881,
				"z": -0.607332117,
				"element": "C" 
			},
			{
				"x": -1.1031780407,
				"y": 1.0282165941,
				"z": -0.413148448,
				"element": "C" 
			},
			{
				"x": -0.8982936111,
				"y": 4.7001128591,
				"z": 0.2776630767,
				"element": "N" 
			},
			{
				"x": -1.1620603166,
				"y": 5.1176601506,
				"z": -0.8494399337,
				"element": "O" 
			},
			{
				"x": -0.657577971,
				"y": 5.4146216052,
				"z": 1.250883258,
				"element": "O" 
			},
			{
				"x": 1.1069998243,
				"y": -6.2344282036,
				"z": -1.4682545359,
				"element": "H" 
			},
			{
				"x": 2.2523789251,
				"y": -3.0790995842,
				"z": -3.3367487949,
				"element": "H" 
			},
			{
				"x": 0.4972927259,
				"y": -2.9028567623,
				"z": -3.2930220122,
				"element": "H" 
			},
			{
				"x": 2.1145567344,
				"y": -2.9146719952,
				"z": -0.8235472307,
				"element": "H" 
			},
			{
				"x": 1.2917859557,
				"y": -1.3981667685,
				"z": 0.6851841687,
				"element": "H" 
			},
			{
				"x": -1.6606691286,
				"y": -1.4752823487,
				"z": 0.6429469192,
				"element": "H" 
			},
			{
				"x": -0.7078148852,
				"y": -1.2489297115,
				"z": 2.1168893755,
				"element": "H" 
			},
			{
				"x": -0.3196276047,
				"y": 0.953461127,
				"z": 2.9005731995,
				"element": "H" 
			},
			{
				"x": -0.3745276356,
				"y": 3.4288256523,
				"z": 2.5541977488,
				"element": "H" 
			},
			{
				"x": -1.3662511744,
				"y": 2.8403146607,
				"z": -1.5714143182,
				"element": "H" 
			},
			{
				"x": -1.3118227799,
				"y": 0.3533320562,
				"z": -1.2374679885,
				"element": "H" 
			}
		],
		 "valence_orbital": [ 
			{
				"type": "occ",
				"energy": -0.289,
				"method": "rhf"
			},
			{
				"type": "occ",
				"energy": -0.27776,
				"method": "rhf"
			},
			{
				"type": "occ",
				"energy": -0.27501,
				"method": "rhf"
			},
			{
				"type": "occ",
				"energy": -0.26672,
				"method": "rhf"
			},
			{
				"type": "occ",
				"energy": -0.25874,
				"method": "rhf"
			},
			{
				"type": "unocc",
				"energy": -0.08822,
				"method": "rhf"
			},
			{
				"type": "unocc",
				"energy": -0.02748,
				"method": "rhf"
			},
			{
				"type": "unocc",
				"energy": -0.00273,
				"method": "rhf"
			},
			{
				"type": "unocc",
				"energy": -0.00103,
				"method": "rhf"
			},
			{
				"type": "unocc",
				"energy": 0.03735,
				"method": "rhf"
			}
		],
		"cosmo_sigma_profile": { 
			"-0.025": 0.0,
			"-0.024": 0.0,
			"-0.023": 0.0,
			"-0.022": 0.0,
			"-0.021": 0.0,
			"-0.02": 0.0,
			"-0.019": 0.349624049048,
			"-0.018": 1.0115099642,
			"-0.017": 0.642469864166,
			"-0.016": 0.678420467715,
			"-0.015": 3.21126131499,
			"-0.014": 3.11408830212,
			"-0.013": 2.27832630849,
			"-0.012": 2.11581852446,
			"-0.011": 3.15379792355,
			"-0.01": 1.94305097487,
			"-0.009": 3.33987616231,
			"-0.008": 5.55931923328,
			"-0.007": 12.9531812082,
			"-0.006": 14.0464689801,
			"-0.005": 15.4514021549,
			"-0.004": 14.5496833584,
			"-0.003": 17.2583263179,
			"-0.002": 15.0481510748,
			"-0.001": 18.0368598589,
			"0.0": 17.9835733701,
			"0.001": 17.6428856828,
			"0.002": 19.7206116047,
			"0.003": 11.2024329797,
			"0.004": 10.0494168674,
			"0.005": 8.60901164386,
			"0.006": 9.48533292441,
			"0.007": 10.6058778525,
			"0.008": 11.9132417057,
			"0.009": 7.25599301734,
			"0.01": 6.64475477542,
			"0.011": 5.95672448619,
			"0.012": 5.47512030155,
			"0.013": 3.35562331733,
			"0.014": 1.5849150235,
			"0.015": 0.0,
			"0.016": 0.0,
			"0.017": 0.0,
			"0.018": 0.0,
			"0.019": 0.0,
			"0.02": 0.0,
			"0.021": 0.0,
			"0.022": 0.0,
			"0.023": 0.0,
			"0.024": 0.0,
			"0.025": 0.0
		}
	}
}
