{
	 "smiles": "FC1=C(C=O)C(=CC=C1)N1CCCC1", 
	 "Tm": 315.15, 
	 "num_atms": 26, 
	 "gaussian": { 
		 "optdone": 1, 
		 "sigma_profile": "yes", 
		 "theory": "DFT", 
		 "functional": "B3LYP", 
		 "basiset": "6-31G**", 
		 "properties": { 
			 "R2extent": 2997.1229, 
			 "electric_dipole_moment_norm": 3.89402746523, 
			 "electric_quadrupole_moment_norm": 8.4558471604, 
			 "total_energy": -656.19860922, 
			 "HOMO_LUMO_gap": 0.15473, 
			 "cosmo_polarized_energy": -8.27, 
			 "cosmo_cavitation_energy": 28.18, 
			 "cosmo_dispersion_energy": -20.93, 
			 "cosmo_repulsion_energy": 1.61, 
			 "cosmo_total_nonelectrostatic_energy": 8.85, 
			 "SMD_solvation_energy": 4.77 
		},
		"coords": [
			{
				"x": 1.524605222,
				"y": 3.6712232506,
				"z": 0.0501201051,
				"element": "F" 
			},
			{
				"x": 1.3045865502,
				"y": 2.4536634754,
				"z": 0.5985477726,
				"element": "C" 
			},
			{
				"x": 0.2076436214,
				"y": 1.7012074648,
				"z": 0.1229967003,
				"element": "C" 
			},
			{
				"x": -0.7741304678,
				"y": 2.4357822637,
				"z": -0.6903951332,
				"element": "C" 
			},
			{
				"x": -1.9386100654,
				"y": 2.1159640572,
				"z": -0.8927199766,
				"element": "O" 
			},
			{
				"x": 0.0308018597,
				"y": 0.3797836484,
				"z": 0.6662259294,
				"element": "C" 
			},
			{
				"x": 0.8435782938,
				"y": 0.0069262711,
				"z": 1.7707515141,
				"element": "C" 
			},
			{
				"x": 1.865542481,
				"y": 0.8250537625,
				"z": 2.2243241621,
				"element": "C" 
			},
			{
				"x": 2.1406031847,
				"y": 2.0578024528,
				"z": 1.6219829293,
				"element": "C" 
			},
			{
				"x": -0.8582874611,
				"y": -0.5230194554,
				"z": 0.1463918307,
				"element": "N" 
			},
			{
				"x": -1.2888129033,
				"y": -0.5609268023,
				"z": -1.2659744744,
				"element": "C" 
			},
			{
				"x": -1.5974943092,
				"y": -2.0415539818,
				"z": -1.5227506818,
				"element": "C" 
			},
			{
				"x": -2.0691164151,
				"y": -2.5320466107,
				"z": -0.1469822862,
				"element": "C" 
			},
			{
				"x": -1.1035564723,
				"y": -1.816465261,
				"z": 0.8016248072,
				"element": "C" 
			},
			{
				"x": -0.3956828147,
				"y": 3.3988115355,
				"z": -1.0778193947,
				"element": "H" 
			},
			{
				"x": 0.6979462003,
				"y": -0.9535333042,
				"z": 2.2462927121,
				"element": "H" 
			},
			{
				"x": 2.4822254317,
				"y": 0.4873620571,
				"z": 3.0524522756,
				"element": "H" 
			},
			{
				"x": 2.9503083189,
				"y": 2.7011768729,
				"z": 1.9438202817,
				"element": "H" 
			},
			{
				"x": -0.492622998,
				"y": -0.1685405295,
				"z": -1.9090016838,
				"element": "H" 
			},
			{
				"x": -2.166031602,
				"y": 0.0726218219,
				"z": -1.41284908,
				"element": "H" 
			},
			{
				"x": -2.343965019,
				"y": -2.1736037815,
				"z": -2.3104185629,
				"element": "H" 
			},
			{
				"x": -0.6913106319,
				"y": -2.5809518798,
				"z": -1.8229810429,
				"element": "H" 
			},
			{
				"x": -3.0973702198,
				"y": -2.2044217738,
				"z": 0.0415767108,
				"element": "H" 
			},
			{
				"x": -2.0317719992,
				"y": -3.6184585643,
				"z": -0.0311196836,
				"element": "H" 
			},
			{
				"x": -0.1703223154,
				"y": -2.3931960272,
				"z": 0.898663674,
				"element": "H" 
			},
			{
				"x": -1.5123554697,
				"y": -1.6714609625,
				"z": 1.8076405951,
				"element": "H" 
			}
		],
		 "valence_orbital": [ 
			{
				"type": "occ",
				"energy": -0.33956,
				"method": "rhf"
			},
			{
				"type": "occ",
				"energy": -0.2878,
				"method": "rhf"
			},
			{
				"type": "occ",
				"energy": -0.25049,
				"method": "rhf"
			},
			{
				"type": "occ",
				"energy": -0.23717,
				"method": "rhf"
			},
			{
				"type": "occ",
				"energy": -0.20289,
				"method": "rhf"
			},
			{
				"type": "unocc",
				"energy": -0.04816,
				"method": "rhf"
			},
			{
				"type": "unocc",
				"energy": 0.00741,
				"method": "rhf"
			},
			{
				"type": "unocc",
				"energy": 0.03952,
				"method": "rhf"
			},
			{
				"type": "unocc",
				"energy": 0.07939,
				"method": "rhf"
			},
			{
				"type": "unocc",
				"energy": 0.09054,
				"method": "rhf"
			}
		],
		"cosmo_sigma_profile": { 
			"-0.025": 0.0,
			"-0.024": 0.0,
			"-0.023": 0.0,
			"-0.022": 0.0,
			"-0.021": 0.0,
			"-0.02": 0.0,
			"-0.019": 0.0,
			"-0.018": 0.0,
			"-0.017": 0.0,
			"-0.016": 0.0,
			"-0.015": 0.0,
			"-0.014": 0.0,
			"-0.013": 0.0,
			"-0.012": 0.0,
			"-0.011": 0.0,
			"-0.01": 0.0,
			"-0.009": 0.0,
			"-0.008": 0.0,
			"-0.007": 2.23533463536,
			"-0.006": 5.9707685625,
			"-0.005": 11.3406370215,
			"-0.004": 21.4630494136,
			"-0.003": 28.6371070665,
			"-0.002": 30.4090437286,
			"-0.001": 22.0677958335,
			"0.0": 19.2491882649,
			"0.001": 12.5196574359,
			"0.002": 14.7172843762,
			"0.003": 14.574173771,
			"0.004": 16.6187234421,
			"0.005": 5.06094075868,
			"0.006": 1.66075634525,
			"0.007": 1.60674661903,
			"0.008": 1.95253474342,
			"0.009": 2.3630759887,
			"0.01": 1.77024419938,
			"0.011": 2.99239710981,
			"0.012": 3.40992155704,
			"0.013": 1.74750062474,
			"0.014": 0.926315879285,
			"0.015": 0.0,
			"0.016": 0.0,
			"0.017": 0.0,
			"0.018": 0.0,
			"0.019": 0.0,
			"0.02": 0.0,
			"0.021": 0.0,
			"0.022": 0.0,
			"0.023": 0.0,
			"0.024": 0.0,
			"0.025": 0.0
		}
	}
}
