{
	 "smiles": "OC(=O)C1=C(Br)C(O)=C(Br)C=C1Br", 
	 "Tm": 420.15, 
	 "num_atms": 16, 
	 "gaussian": { 
		 "optdone": 1, 
		 "sigma_profile": "yes", 
		 "theory": "DFT", 
		 "functional": "B3LYP", 
		 "basiset": "6-31G**", 
		 "properties": { 
			 "R2extent": 5818.7018, 
			 "electric_dipole_moment_norm": 2.939893345, 
			 "electric_quadrupole_moment_norm": 15.201159411, 
			 "total_energy": -8208.42329332, 
			 "HOMO_LUMO_gap": 0.18577, 
			 "cosmo_polarized_energy": -14.17, 
			 "cosmo_cavitation_energy": 27.8, 
			 "cosmo_dispersion_energy": -21.61, 
			 "cosmo_repulsion_energy": 1.71, 
			 "cosmo_total_nonelectrostatic_energy": 7.9, 
			 "SMD_solvation_energy": 3.07 
		},
		"coords": [
			{
				"x": -3.2704866623,
				"y": 1.1523272879,
				"z": 0.8540844606,
				"element": "O" 
			},
			{
				"x": -2.4036471214,
				"y": 0.2450030189,
				"z": 1.3520450267,
				"element": "C" 
			},
			{
				"x": -2.6525605866,
				"y": -0.3657016276,
				"z": 2.3582530952,
				"element": "O" 
			},
			{
				"x": -1.1031202272,
				"y": 0.0754990567,
				"z": 0.5909814939,
				"element": "C" 
			},
			{
				"x": 0.1216868444,
				"y": 0.299524506,
				"z": 1.2369598721,
				"element": "C" 
			},
			{
				"x": 0.1891485171,
				"y": 0.9346642313,
				"z": 3.0401921838,
				"element": "Br" 
			},
			{
				"x": 1.3598910598,
				"y": 0.1060448677,
				"z": 0.6007449999,
				"element": "C" 
			},
			{
				"x": 2.5429367691,
				"y": 0.3340887247,
				"z": 1.1960103818,
				"element": "O" 
			},
			{
				"x": 1.347966254,
				"y": -0.3482699305,
				"z": -0.7290420087,
				"element": "C" 
			},
			{
				"x": 2.9902273603,
				"y": -0.6369375291,
				"z": -1.6309265489,
				"element": "Br" 
			},
			{
				"x": 0.1515251318,
				"y": -0.5855865799,
				"z": -1.3918819733,
				"element": "C" 
			},
			{
				"x": -1.0589405856,
				"y": -0.3681845636,
				"z": -0.7376389012,
				"element": "C" 
			},
			{
				"x": -2.6641131703,
				"y": -0.7262905908,
				"z": -1.7167125585,
				"element": "Br" 
			},
			{
				"x": -2.9483203583,
				"y": 1.5098356083,
				"z": 0.0133047074,
				"element": "H" 
			},
			{
				"x": 2.3801083494,
				"y": 0.6398486173,
				"z": 2.1051030677,
				"element": "H" 
			},
			{
				"x": 0.163198426,
				"y": -0.9400650973,
				"z": -2.4142772985,
				"element": "H" 
			}
		],
		 "valence_orbital": [ 
			{
				"type": "occ",
				"energy": -0.30669,
				"method": "rhf"
			},
			{
				"type": "occ",
				"energy": -0.30264,
				"method": "rhf"
			},
			{
				"type": "occ",
				"energy": -0.29217,
				"method": "rhf"
			},
			{
				"type": "occ",
				"energy": -0.2693,
				"method": "rhf"
			},
			{
				"type": "occ",
				"energy": -0.24981,
				"method": "rhf"
			},
			{
				"type": "unocc",
				"energy": -0.06404,
				"method": "rhf"
			},
			{
				"type": "unocc",
				"energy": -0.05289,
				"method": "rhf"
			},
			{
				"type": "unocc",
				"energy": -0.03939,
				"method": "rhf"
			},
			{
				"type": "unocc",
				"energy": -0.00288,
				"method": "rhf"
			},
			{
				"type": "unocc",
				"energy": 0.00468,
				"method": "rhf"
			}
		],
		"cosmo_sigma_profile": { 
			"-0.025": 0.0,
			"-0.024": 0.0,
			"-0.023": 0.0,
			"-0.022": 0.0,
			"-0.021": 0.0,
			"-0.02": 0.0,
			"-0.019": 0.361075296036,
			"-0.018": 0.856121972931,
			"-0.017": 0.773943838925,
			"-0.016": 0.713366260234,
			"-0.015": 1.58729333134,
			"-0.014": 1.05838282197,
			"-0.013": 1.57720444853,
			"-0.012": 2.18222342398,
			"-0.011": 1.73155399626,
			"-0.01": 1.52996454728,
			"-0.009": 2.75867844108,
			"-0.008": 3.97899791031,
			"-0.007": 4.66075673928,
			"-0.006": 6.52217341819,
			"-0.005": 8.26798163163,
			"-0.004": 10.0544208818,
			"-0.003": 13.1468312227,
			"-0.002": 21.1595614172,
			"-0.001": 23.4896581642,
			"0.0": 19.7742657181,
			"0.001": 17.3813515756,
			"0.002": 20.510285428,
			"0.003": 20.7267968771,
			"0.004": 8.75211002441,
			"0.005": 5.54589862208,
			"0.006": 5.51337189811,
			"0.007": 4.78521868287,
			"0.008": 6.02932230512,
			"0.009": 7.57415831526,
			"0.01": 5.03087536813,
			"0.011": 4.44727470456,
			"0.012": 0.9202831058,
			"0.013": 0.0,
			"0.014": 0.0,
			"0.015": 0.0,
			"0.016": 0.0,
			"0.017": 0.0,
			"0.018": 0.0,
			"0.019": 0.0,
			"0.02": 0.0,
			"0.021": 0.0,
			"0.022": 0.0,
			"0.023": 0.0,
			"0.024": 0.0,
			"0.025": 0.0
		}
	}
}
