{
	 "smiles": "CCCN1C(C)=NN=C1S", 
	 "Tm": 403.15, 
	 "num_atms": 21, 
	 "gaussian": { 
		 "optdone": 1, 
		 "sigma_profile": "yes", 
		 "theory": "DFT", 
		 "functional": "B3LYP", 
		 "basiset": "6-31G**", 
		 "properties": { 
			 "R2extent": 2956.8179, 
			 "electric_dipole_moment_norm": 6.04445597717, 
			 "electric_quadrupole_moment_norm": 25.0844052028, 
			 "total_energy": -797.694671228, 
			 "HOMO_LUMO_gap": 0.23886, 
			 "cosmo_polarized_energy": -17.01, 
			 "cosmo_cavitation_energy": 25.32, 
			 "cosmo_dispersion_energy": -18.48, 
			 "cosmo_repulsion_energy": 1.46, 
			 "cosmo_total_nonelectrostatic_energy": 8.3, 
			 "SMD_solvation_energy": 1.89 
		},
		"coords": [
			{
				"x": -1.128980468,
				"y": 0.3651330763,
				"z": 0.7988049225,
				"element": "C" 
			},
			{
				"x": -0.3120061498,
				"y": -0.7772521584,
				"z": 0.1900039793,
				"element": "C" 
			},
			{
				"x": 1.0239475171,
				"y": -0.3503544803,
				"z": -0.4367014934,
				"element": "C" 
			},
			{
				"x": 1.9707194648,
				"y": 0.2358167356,
				"z": 0.5148500261,
				"element": "N" 
			},
			{
				"x": 2.2574155192,
				"y": 1.5626170619,
				"z": 0.7199660297,
				"element": "C" 
			},
			{
				"x": 1.6644907605,
				"y": 2.703900354,
				"z": -0.0371195955,
				"element": "C" 
			},
			{
				"x": 3.1646835141,
				"y": 1.6914846857,
				"z": 1.6684944024,
				"element": "N" 
			},
			{
				"x": 3.5008476639,
				"y": 0.433435921,
				"z": 2.1060644503,
				"element": "N" 
			},
			{
				"x": 2.7823233803,
				"y": -0.4255112384,
				"z": 1.4194058415,
				"element": "C" 
			},
			{
				"x": 2.9203760456,
				"y": -2.1868674696,
				"z": 1.5328789381,
				"element": "S" 
			},
			{
				"x": -2.0628980342,
				"y": -0.0125629401,
				"z": 1.2256931914,
				"element": "H" 
			},
			{
				"x": -0.5804566551,
				"y": 0.8687073504,
				"z": 1.6011853372,
				"element": "H" 
			},
			{
				"x": -1.3914339527,
				"y": 1.1153538982,
				"z": 0.0442336237,
				"element": "H" 
			},
			{
				"x": -0.1145745191,
				"y": -1.5440477559,
				"z": 0.9473406136,
				"element": "H" 
			},
			{
				"x": -0.8919501697,
				"y": -1.2703080632,
				"z": -0.6001767128,
				"element": "H" 
			},
			{
				"x": 0.8573730451,
				"y": 0.3909359786,
				"z": -1.2235502251,
				"element": "H" 
			},
			{
				"x": 1.5096299206,
				"y": -1.2159228389,
				"z": -0.8947549694,
				"element": "H" 
			},
			{
				"x": 2.1235924945,
				"y": 3.621575508,
				"z": 0.333703348,
				"element": "H" 
			},
			{
				"x": 1.8640526517,
				"y": 2.6286048327,
				"z": -1.1122289449,
				"element": "H" 
			},
			{
				"x": 0.5809134805,
				"y": 2.7764896167,
				"z": 0.099878709,
				"element": "H" 
			},
			{
				"x": 1.9861344901,
				"y": -2.3751280742,
				"z": 2.4903285282,
				"element": "H" 
			}
		],
		 "valence_orbital": [ 
			{
				"type": "occ",
				"energy": -0.3062,
				"method": "rhf"
			},
			{
				"type": "occ",
				"energy": -0.28714,
				"method": "rhf"
			},
			{
				"type": "occ",
				"energy": -0.26725,
				"method": "rhf"
			},
			{
				"type": "occ",
				"energy": -0.25175,
				"method": "rhf"
			},
			{
				"type": "occ",
				"energy": -0.24742,
				"method": "rhf"
			},
			{
				"type": "unocc",
				"energy": -0.00856,
				"method": "rhf"
			},
			{
				"type": "unocc",
				"energy": 0.0318,
				"method": "rhf"
			},
			{
				"type": "unocc",
				"energy": 0.04821,
				"method": "rhf"
			},
			{
				"type": "unocc",
				"energy": 0.06083,
				"method": "rhf"
			},
			{
				"type": "unocc",
				"energy": 0.07006,
				"method": "rhf"
			}
		],
		"cosmo_sigma_profile": { 
			"-0.025": 0.0,
			"-0.024": 0.0,
			"-0.023": 0.0,
			"-0.022": 0.0,
			"-0.021": 0.0,
			"-0.02": 0.0,
			"-0.019": 0.0,
			"-0.018": 0.0,
			"-0.017": 0.0,
			"-0.016": 0.0,
			"-0.015": 0.0,
			"-0.014": 0.0,
			"-0.013": 0.0,
			"-0.012": 0.0500817141796,
			"-0.011": 1.94035491132,
			"-0.01": 2.14729218026,
			"-0.009": 1.59795904868,
			"-0.008": 2.18996892079,
			"-0.007": 4.97440427255,
			"-0.006": 9.72712951877,
			"-0.005": 12.9385801079,
			"-0.004": 23.014469169,
			"-0.003": 22.4363342605,
			"-0.002": 22.6747833093,
			"-0.001": 19.8441046944,
			"0.0": 14.3252254628,
			"0.001": 9.71630284686,
			"0.002": 6.64028019098,
			"0.003": 4.97268933836,
			"0.004": 4.67139215848,
			"0.005": 3.63070624411,
			"0.006": 4.49686776422,
			"0.007": 2.58436429354,
			"0.008": 2.76860631786,
			"0.009": 3.04650000514,
			"0.01": 2.32578628653,
			"0.011": 2.74897211449,
			"0.012": 2.18412182203,
			"0.013": 3.90564816639,
			"0.014": 3.57952445594,
			"0.015": 2.35630854623,
			"0.016": 2.42338909303,
			"0.017": 1.61139979629,
			"0.018": 0.231479416163,
			"0.019": 0.0,
			"0.02": 0.0,
			"0.021": 0.0,
			"0.022": 0.0,
			"0.023": 0.0,
			"0.024": 0.0,
			"0.025": 0.0
		}
	}
}
