{
	 "smiles": "SC1=NC=C(C=C1)S(=O)(=O)N1CCCCC1", 
	 "Tm": 493.15, 
	 "num_atms": 30, 
	 "gaussian": { 
		 "optdone": 1, 
		 "sigma_profile": "yes", 
		 "theory": "DFT", 
		 "functional": "B3LYP", 
		 "basiset": "6-31G**", 
		 "properties": { 
			 "R2extent": 4991.405, 
			 "electric_dipole_moment_norm": 4.76145395231, 
			 "electric_quadrupole_moment_norm": 18.1479406091, 
			 "total_energy": -1445.7562279, 
			 "HOMO_LUMO_gap": 0.18729, 
			 "cosmo_polarized_energy": -14.44, 
			 "cosmo_cavitation_energy": 34.55, 
			 "cosmo_dispersion_energy": -25.52, 
			 "cosmo_repulsion_energy": 1.9, 
			 "cosmo_total_nonelectrostatic_energy": 10.92, 
			 "SMD_solvation_energy": 1.74 
		},
		"coords": [
			{
				"x": 2.760175865,
				"y": 1.3917485801,
				"z": -4.1661155722,
				"element": "S" 
			},
			{
				"x": 1.3779456117,
				"y": 1.1919111815,
				"z": -3.0616297529,
				"element": "C" 
			},
			{
				"x": 0.7848885821,
				"y": -0.0054678068,
				"z": -3.0165546972,
				"element": "N" 
			},
			{
				"x": -0.2480701601,
				"y": -0.1614447676,
				"z": -2.1804794191,
				"element": "C" 
			},
			{
				"x": -0.7162011765,
				"y": 0.8604165031,
				"z": -1.3530997657,
				"element": "C" 
			},
			{
				"x": -0.1069870298,
				"y": 2.1182507911,
				"z": -1.4230013719,
				"element": "C" 
			},
			{
				"x": 0.9603630186,
				"y": 2.2920385615,
				"z": -2.2918962558,
				"element": "C" 
			},
			{
				"x": -2.0818948274,
				"y": 0.5673518703,
				"z": -0.2208916434,
				"element": "S" 
			},
			{
				"x": -2.8535954256,
				"y": -0.5388755326,
				"z": -0.7912990113,
				"element": "O" 
			},
			{
				"x": -2.6672803732,
				"y": 1.8822959062,
				"z": 0.0531422267,
				"element": "O" 
			},
			{
				"x": -1.4660178815,
				"y": 0.0152153481,
				"z": 1.2268001556,
				"element": "N" 
			},
			{
				"x": -1.0603847747,
				"y": -1.3910441479,
				"z": 1.3822160528,
				"element": "C" 
			},
			{
				"x": 0.4654569966,
				"y": -1.5490866067,
				"z": 1.4458062668,
				"element": "C" 
			},
			{
				"x": 1.070948409,
				"y": -0.6220516744,
				"z": 2.5116925929,
				"element": "C" 
			},
			{
				"x": 0.6410611324,
				"y": 0.8354469086,
				"z": 2.281163309,
				"element": "C" 
			},
			{
				"x": -0.8879835243,
				"y": 0.951482845,
				"z": 2.2037000006,
				"element": "C" 
			},
			{
				"x": 2.6992007422,
				"y": 0.1316053595,
				"z": -4.6365837768,
				"element": "H" 
			},
			{
				"x": -0.7350381307,
				"y": -1.1327648327,
				"z": -2.1830867277,
				"element": "H" 
			},
			{
				"x": -0.4857930802,
				"y": 2.9398269072,
				"z": -0.8242940728,
				"element": "H" 
			},
			{
				"x": 1.4546725619,
				"y": 3.25332865,
				"z": -2.3845456231,
				"element": "H" 
			},
			{
				"x": -1.5098081012,
				"y": -1.7521184995,
				"z": 2.3182727994,
				"element": "H" 
			},
			{
				"x": -1.5051657227,
				"y": -1.9710132799,
				"z": 0.5725805016,
				"element": "H" 
			},
			{
				"x": 0.8972855999,
				"y": -1.315962991,
				"z": 0.4644028325,
				"element": "H" 
			},
			{
				"x": 0.7089093128,
				"y": -2.5960936023,
				"z": 1.6617172901,
				"element": "H" 
			},
			{
				"x": 2.1634716061,
				"y": -0.7026148694,
				"z": 2.511805631,
				"element": "H" 
			},
			{
				"x": 0.7323499384,
				"y": -0.9453135554,
				"z": 3.5065816703,
				"element": "H" 
			},
			{
				"x": 1.0823343996,
				"y": 1.2075306348,
				"z": 1.3478141058,
				"element": "H" 
			},
			{
				"x": 1.0095240455,
				"y": 1.4789696666,
				"z": 3.0888890831,
				"element": "H" 
			},
			{
				"x": -1.2167082897,
				"y": 1.9605935369,
				"z": 1.9520184921,
				"element": "H" 
			},
			{
				"x": -1.3277593243,
				"y": 0.7066389156,
				"z": 3.1810746794,
				"element": "H" 
			}
		],
		 "valence_orbital": [ 
			{
				"type": "occ",
				"energy": -0.30692,
				"method": "rhf"
			},
			{
				"type": "occ",
				"energy": -0.30286,
				"method": "rhf"
			},
			{
				"type": "occ",
				"energy": -0.27842,
				"method": "rhf"
			},
			{
				"type": "occ",
				"energy": -0.25989,
				"method": "rhf"
			},
			{
				"type": "occ",
				"energy": -0.2387,
				"method": "rhf"
			},
			{
				"type": "unocc",
				"energy": -0.05141,
				"method": "rhf"
			},
			{
				"type": "unocc",
				"energy": -0.04424,
				"method": "rhf"
			},
			{
				"type": "unocc",
				"energy": 0.00497,
				"method": "rhf"
			},
			{
				"type": "unocc",
				"energy": 0.05524,
				"method": "rhf"
			},
			{
				"type": "unocc",
				"energy": 0.0658,
				"method": "rhf"
			}
		],
		"cosmo_sigma_profile": { 
			"-0.025": 0.0,
			"-0.024": 0.0,
			"-0.023": 0.0,
			"-0.022": 0.0,
			"-0.021": 0.0,
			"-0.02": 0.0,
			"-0.019": 0.0,
			"-0.018": 0.0,
			"-0.017": 0.0,
			"-0.016": 0.0,
			"-0.015": 0.0,
			"-0.014": 0.0,
			"-0.013": 0.0,
			"-0.012": 0.0983624819436,
			"-0.011": 1.17060995574,
			"-0.01": 1.55379675541,
			"-0.009": 2.01934868351,
			"-0.008": 5.3069104752,
			"-0.007": 7.1905827891,
			"-0.006": 7.64236950003,
			"-0.005": 12.616372152,
			"-0.004": 21.5386859991,
			"-0.003": 30.4316042409,
			"-0.002": 34.9105494402,
			"-0.001": 27.7040495104,
			"0.0": 28.439298971,
			"0.001": 15.2625022341,
			"0.002": 9.62518725587,
			"0.003": 10.3610851982,
			"0.004": 7.67509500927,
			"0.005": 9.34245610097,
			"0.006": 7.00572752693,
			"0.007": 7.00907683284,
			"0.008": 4.26706459442,
			"0.009": 4.07162342717,
			"0.01": 7.35522097461,
			"0.011": 8.18340047128,
			"0.012": 4.50802947724,
			"0.013": 0.302347478495,
			"0.014": 0.0,
			"0.015": 0.0,
			"0.016": 0.0,
			"0.017": 0.0,
			"0.018": 0.0,
			"0.019": 0.0,
			"0.02": 0.0,
			"0.021": 0.0,
			"0.022": 0.0,
			"0.023": 0.0,
			"0.024": 0.0,
			"0.025": 0.0
		}
	}
}
