{
	 "smiles": "COC1=CC=C(C=C1NN=C1C(=O)C(=CC2=CC=CC=C12)C(=O)NC1=CC(=CC=C1)[N+]([O-])=O)[N+]([O-])=O", 
	 "Tm": 608.15, 
	 "num_atms": 53, 
	 "gaussian": { 
		 "optdone": 1, 
		 "sigma_profile": "yes", 
		 "theory": "DFT", 
		 "functional": "B3LYP", 
		 "basiset": "6-31G**", 
		 "properties": { 
			 "R2extent": 22781.2538, 
			 "electric_dipole_moment_norm": 10.477474836, 
			 "electric_quadrupole_moment_norm": 42.9284173405, 
			 "total_energy": -1724.86178546, 
			 "HOMO_LUMO_gap": 0.11501, 
			 "cosmo_polarized_energy": -35.48, 
			 "cosmo_cavitation_energy": 60.49, 
			 "cosmo_dispersion_energy": -39.77, 
			 "cosmo_repulsion_energy": 2.99, 
			 "cosmo_total_nonelectrostatic_energy": 23.71, 
			 "SMD_solvation_energy": 15.73 
		},
		"coords": [
			{
				"x": 6.0820019046,
				"y": 3.3947225507,
				"z": 3.8954814789,
				"element": "C" 
			},
			{
				"x": 5.1610460894,
				"y": 2.5906827192,
				"z": 3.1616537533,
				"element": "O" 
			},
			{
				"x": 4.4660163204,
				"y": 3.1559517186,
				"z": 2.139425045,
				"element": "C" 
			},
			{
				"x": 4.5369522065,
				"y": 4.500163319,
				"z": 1.7738246857,
				"element": "C" 
			},
			{
				"x": 3.795285104,
				"y": 4.9727143545,
				"z": 0.6907157335,
				"element": "C" 
			},
			{
				"x": 3.0057629378,
				"y": 4.0759088091,
				"z": -0.0160944405,
				"element": "C" 
			},
			{
				"x": 2.9160819408,
				"y": 2.7239091869,
				"z": 0.3234503513,
				"element": "C" 
			},
			{
				"x": 3.6370805972,
				"y": 2.2515477764,
				"z": 1.4159933857,
				"element": "C" 
			},
			{
				"x": 3.6799051944,
				"y": 0.9122755195,
				"z": 1.8448466539,
				"element": "N" 
			},
			{
				"x": 3.1271955527,
				"y": -0.1876238525,
				"z": 1.290134074,
				"element": "N" 
			},
			{
				"x": 1.8912775465,
				"y": -0.2879121216,
				"z": 0.8893569595,
				"element": "C" 
			},
			{
				"x": 1.6615889903,
				"y": -1.5953056234,
				"z": 0.1558047303,
				"element": "C" 
			},
			{
				"x": 2.3797025749,
				"y": -2.5776586275,
				"z": 0.2950698693,
				"element": "O" 
			},
			{
				"x": 0.5062725039,
				"y": -1.6198847167,
				"z": -0.7686178137,
				"element": "C" 
			},
			{
				"x": -0.4649612237,
				"y": -0.6845399013,
				"z": -0.6757598328,
				"element": "C" 
			},
			{
				"x": -0.4325033024,
				"y": 0.3856803849,
				"z": 0.3075180801,
				"element": "C" 
			},
			{
				"x": -1.5663610454,
				"y": 1.1853702579,
				"z": 0.5079720132,
				"element": "C" 
			},
			{
				"x": -1.5907935426,
				"y": 2.1530714035,
				"z": 1.5088080972,
				"element": "C" 
			},
			{
				"x": -0.4742261433,
				"y": 2.3213250877,
				"z": 2.3292290865,
				"element": "C" 
			},
			{
				"x": 0.6753481247,
				"y": 1.5592346571,
				"z": 2.1209881666,
				"element": "C" 
			},
			{
				"x": 0.729359373,
				"y": 0.5951531745,
				"z": 1.1001361601,
				"element": "C" 
			},
			{
				"x": 0.5092331517,
				"y": -2.6497706783,
				"z": -1.8710226593,
				"element": "C" 
			},
			{
				"x": 1.2573444886,
				"y": -2.5322720586,
				"z": -2.8267271819,
				"element": "O" 
			},
			{
				"x": -0.4322068368,
				"y": -3.6611136663,
				"z": -1.8243167348,
				"element": "N" 
			},
			{
				"x": -1.1751602267,
				"y": -4.1379252807,
				"z": -0.7197942565,
				"element": "C" 
			},
			{
				"x": -2.4966269855,
				"y": -4.5476145807,
				"z": -0.9227172495,
				"element": "C" 
			},
			{
				"x": -3.2154633576,
				"y": -5.0503166924,
				"z": 0.1577400276,
				"element": "C" 
			},
			{
				"x": -2.6772997766,
				"y": -5.1426909196,
				"z": 1.4391047122,
				"element": "C" 
			},
			{
				"x": -1.3583776234,
				"y": -4.7318709992,
				"z": 1.6246571191,
				"element": "C" 
			},
			{
				"x": -0.6003480334,
				"y": -4.2509613616,
				"z": 0.5566132119,
				"element": "C" 
			},
			{
				"x": -4.6057449882,
				"y": -5.4843872052,
				"z": -0.0656792227,
				"element": "N" 
			},
			{
				"x": -5.0542799466,
				"y": -5.3991611461,
				"z": -1.2085685316,
				"element": "O" 
			},
			{
				"x": -5.2342055116,
				"y": -5.9050266008,
				"z": 0.9044720494,
				"element": "O" 
			},
			{
				"x": 2.2306629779,
				"y": 4.5607365869,
				"z": -1.1630659145,
				"element": "N" 
			},
			{
				"x": 2.3223725798,
				"y": 5.7551217218,
				"z": -1.4504494725,
				"element": "O" 
			},
			{
				"x": 1.5340884627,
				"y": 3.7464815537,
				"z": -1.7693748405,
				"element": "O" 
			},
			{
				"x": 5.567013495,
				"y": 4.2115821556,
				"z": 4.4135304036,
				"element": "H" 
			},
			{
				"x": 6.5370761586,
				"y": 2.7299939239,
				"z": 4.6298143946,
				"element": "H" 
			},
			{
				"x": 6.8586168398,
				"y": 3.8060155768,
				"z": 3.240749639,
				"element": "H" 
			},
			{
				"x": 5.1645561621,
				"y": 5.1857825624,
				"z": 2.3291810314,
				"element": "H" 
			},
			{
				"x": 3.8245297135,
				"y": 6.0128320807,
				"z": 0.3939128054,
				"element": "H" 
			},
			{
				"x": 2.304082063,
				"y": 2.0739443273,
				"z": -0.2824648429,
				"element": "H" 
			},
			{
				"x": 4.5824224617,
				"y": 0.6775515782,
				"z": 2.241658893,
				"element": "H" 
			},
			{
				"x": -1.3357292187,
				"y": -0.7365993113,
				"z": -1.3261549112,
				"element": "H" 
			},
			{
				"x": -2.4387246361,
				"y": 1.0283180862,
				"z": -0.1203839543,
				"element": "H" 
			},
			{
				"x": -2.4768391195,
				"y": 2.762850717,
				"z": 1.6552569333,
				"element": "H" 
			},
			{
				"x": -0.4923295039,
				"y": 3.0526926877,
				"z": 3.1315344196,
				"element": "H" 
			},
			{
				"x": 1.5246734855,
				"y": 1.6933103359,
				"z": 2.7782700552,
				"element": "H" 
			},
			{
				"x": -0.4625755709,
				"y": -4.2051372387,
				"z": -2.6791669157,
				"element": "H" 
			},
			{
				"x": -2.9697296128,
				"y": -4.4750412203,
				"z": -1.894296579,
				"element": "H" 
			},
			{
				"x": -3.2806894794,
				"y": -5.5351265208,
				"z": 2.2472742586,
				"element": "H" 
			},
			{
				"x": -0.9042431345,
				"y": -4.8113993965,
				"z": 2.6071933277,
				"element": "H" 
			},
			{
				"x": 0.4428698182,
				"y": -3.9876850937,
				"z": 0.695883748,
				"element": "H" 
			}
		],
		 "valence_orbital": [ 
			{
				"type": "occ",
				"energy": -0.26848,
				"method": "rhf"
			},
			{
				"type": "occ",
				"energy": -0.25395,
				"method": "rhf"
			},
			{
				"type": "occ",
				"energy": -0.24808,
				"method": "rhf"
			},
			{
				"type": "occ",
				"energy": -0.24524,
				"method": "rhf"
			},
			{
				"type": "occ",
				"energy": -0.22096,
				"method": "rhf"
			},
			{
				"type": "unocc",
				"energy": -0.10595,
				"method": "rhf"
			},
			{
				"type": "unocc",
				"energy": -0.09061,
				"method": "rhf"
			},
			{
				"type": "unocc",
				"energy": -0.0881,
				"method": "rhf"
			},
			{
				"type": "unocc",
				"energy": -0.04698,
				"method": "rhf"
			},
			{
				"type": "unocc",
				"energy": -0.03466,
				"method": "rhf"
			}
		],
		"cosmo_sigma_profile": { 
			"-0.025": 0.0,
			"-0.024": 0.0,
			"-0.023": 0.0,
			"-0.022": 0.0,
			"-0.021": 0.0,
			"-0.02": 0.0,
			"-0.019": 0.0,
			"-0.018": 0.0,
			"-0.017": 0.0,
			"-0.016": 0.09030357881,
			"-0.015": 1.19715336248,
			"-0.014": 1.4403765398,
			"-0.013": 1.43227478918,
			"-0.012": 2.61631211093,
			"-0.011": 1.37915080302,
			"-0.01": 2.57180388001,
			"-0.009": 3.7512318981,
			"-0.008": 11.6518285599,
			"-0.007": 22.84277922,
			"-0.006": 33.0100422478,
			"-0.005": 32.4335777102,
			"-0.004": 32.19639352,
			"-0.003": 28.9502386512,
			"-0.002": 31.895572974,
			"-0.001": 38.3015887896,
			"0.0": 41.0273639243,
			"0.001": 37.6766615875,
			"0.002": 29.0968532463,
			"0.003": 19.3493942303,
			"0.004": 10.0466954782,
			"0.005": 8.67782376033,
			"0.006": 11.3095972149,
			"0.007": 17.9291230443,
			"0.008": 18.8046264134,
			"0.009": 13.3432369111,
			"0.01": 9.34978129678,
			"0.011": 7.09662142927,
			"0.012": 8.3344718342,
			"0.013": 4.80056294753,
			"0.014": 1.63386979768,
			"0.015": 0.79624610573,
			"0.016": 1.17952599628,
			"0.017": 0.348847840857,
			"0.018": 0.0,
			"0.019": 0.0,
			"0.02": 0.0,
			"0.021": 0.0,
			"0.022": 0.0,
			"0.023": 0.0,
			"0.024": 0.0,
			"0.025": 0.0
		}
	}
}
