{
	 "smiles": "[O-][N+](=O)C1=CC=CC=C1C(F)(F)F", 
	 "Tm": 305.65, 
	 "num_atms": 17, 
	 "gaussian": { 
		 "optdone": 1, 
		 "sigma_profile": "yes", 
		 "theory": "DFT", 
		 "functional": "B3LYP", 
		 "basiset": "6-31G**", 
		 "properties": { 
			 "R2extent": 3296.1569, 
			 "electric_dipole_moment_norm": 5.39113646924, 
			 "electric_quadrupole_moment_norm": 15.2127255635, 
			 "total_energy": -773.767957634, 
			 "HOMO_LUMO_gap": 0.19018, 
			 "cosmo_polarized_energy": -8.9, 
			 "cosmo_cavitation_energy": 23.26, 
			 "cosmo_dispersion_energy": -16.75, 
			 "cosmo_repulsion_energy": 1.26, 
			 "cosmo_total_nonelectrostatic_energy": 7.77, 
			 "SMD_solvation_energy": 7.27 
		},
		"coords": [
			{
				"x": 2.3030518086,
				"y": 0.2570069145,
				"z": -3.252704636,
				"element": "O" 
			},
			{
				"x": 2.3022186176,
				"y": -0.9034724234,
				"z": -2.857225212,
				"element": "N" 
			},
			{
				"x": 2.8200513026,
				"y": -1.8551748065,
				"z": -3.4389756671,
				"element": "O" 
			},
			{
				"x": 1.6713479474,
				"y": -1.1832772958,
				"z": -1.5504021501,
				"element": "C" 
			},
			{
				"x": 2.2749341713,
				"y": -2.179473056,
				"z": -0.7868032171,
				"element": "C" 
			},
			{
				"x": 1.7863938076,
				"y": -2.4673445535,
				"z": 0.48537114,
				"element": "C" 
			},
			{
				"x": 0.6821441617,
				"y": -1.7713310568,
				"z": 0.9727910557,
				"element": "C" 
			},
			{
				"x": 0.0655847034,
				"y": -0.7975466861,
				"z": 0.1864896836,
				"element": "C" 
			},
			{
				"x": 0.5491271368,
				"y": -0.477467799,
				"z": -1.0853299784,
				"element": "C" 
			},
			{
				"x": -0.2015171183,
				"y": 0.572126103,
				"z": -1.8893988512,
				"element": "C" 
			},
			{
				"x": -0.3923956918,
				"y": 0.1845586358,
				"z": -3.1635231239,
				"element": "F" 
			},
			{
				"x": -1.4302946287,
				"y": 0.7770221789,
				"z": -1.3553427749,
				"element": "F" 
			},
			{
				"x": 0.4213230873,
				"y": 1.7608724903,
				"z": -1.8897742568,
				"element": "F" 
			},
			{
				"x": 3.1224228626,
				"y": -2.7093389948,
				"z": -1.2036780212,
				"element": "H" 
			},
			{
				"x": 2.2662990043,
				"y": -3.2330209155,
				"z": 1.0862249803,
				"element": "H" 
			},
			{
				"x": 0.2880860865,
				"y": -1.9905272107,
				"z": 1.9600140242,
				"element": "H" 
			},
			{
				"x": -0.8130772587,
				"y": -0.2818115245,
				"z": 0.553167005,
				"element": "H" 
			}
		],
		 "valence_orbital": [ 
			{
				"type": "occ",
				"energy": -0.31789,
				"method": "rhf"
			},
			{
				"type": "occ",
				"energy": -0.31551,
				"method": "rhf"
			},
			{
				"type": "occ",
				"energy": -0.31211,
				"method": "rhf"
			},
			{
				"type": "occ",
				"energy": -0.2955,
				"method": "rhf"
			},
			{
				"type": "occ",
				"energy": -0.28631,
				"method": "rhf"
			},
			{
				"type": "unocc",
				"energy": -0.09613,
				"method": "rhf"
			},
			{
				"type": "unocc",
				"energy": -0.04886,
				"method": "rhf"
			},
			{
				"type": "unocc",
				"energy": -0.02408,
				"method": "rhf"
			},
			{
				"type": "unocc",
				"energy": 0.06546,
				"method": "rhf"
			},
			{
				"type": "unocc",
				"energy": 0.1024,
				"method": "rhf"
			}
		],
		"cosmo_sigma_profile": { 
			"-0.025": 0.0,
			"-0.024": 0.0,
			"-0.023": 0.0,
			"-0.022": 0.0,
			"-0.021": 0.0,
			"-0.02": 0.0,
			"-0.019": 0.0,
			"-0.018": 0.0,
			"-0.017": 0.0,
			"-0.016": 0.0,
			"-0.015": 0.0,
			"-0.014": 0.0,
			"-0.013": 0.0,
			"-0.012": 0.0,
			"-0.011": 0.0,
			"-0.01": 0.0,
			"-0.009": 0.565615498491,
			"-0.008": 7.74779358359,
			"-0.007": 10.0521335096,
			"-0.006": 9.69139004916,
			"-0.005": 8.23651681226,
			"-0.004": 9.23039275293,
			"-0.003": 9.5634853242,
			"-0.002": 10.2714795321,
			"-0.001": 15.2861323183,
			"0.0": 16.7571560701,
			"0.001": 18.2971712488,
			"0.002": 21.9848265926,
			"0.003": 14.3594088331,
			"0.004": 5.25255790232,
			"0.005": 4.47269057851,
			"0.006": 6.51546984486,
			"0.007": 10.363985232,
			"0.008": 5.31982300988,
			"0.009": 3.26241708723,
			"0.01": 0.471069844872,
			"0.011": 0.0,
			"0.012": 0.0,
			"0.013": 0.0,
			"0.014": 0.0,
			"0.015": 0.0,
			"0.016": 0.0,
			"0.017": 0.0,
			"0.018": 0.0,
			"0.019": 0.0,
			"0.02": 0.0,
			"0.021": 0.0,
			"0.022": 0.0,
			"0.023": 0.0,
			"0.024": 0.0,
			"0.025": 0.0
		}
	}
}
