{
	 "smiles": "ClC1=CC(=CC=C1)N1C(=O)C=CC1=O", 
	 "Tm": 360.15, 
	 "num_atms": 20, 
	 "gaussian": { 
		 "optdone": 1, 
		 "sigma_profile": "yes", 
		 "theory": "DFT", 
		 "functional": "B3LYP", 
		 "basiset": "6-31G**", 
		 "properties": { 
			 "R2extent": 4469.4384, 
			 "electric_dipole_moment_norm": 3.29404290349, 
			 "electric_quadrupole_moment_norm": 19.5603038824, 
			 "total_energy": -1050.06669738, 
			 "HOMO_LUMO_gap": 0.12962, 
			 "cosmo_polarized_energy": -9.23, 
			 "cosmo_cavitation_energy": 26.83, 
			 "cosmo_dispersion_energy": -20.04, 
			 "cosmo_repulsion_energy": 1.54, 
			 "cosmo_total_nonelectrostatic_energy": 8.33, 
			 "SMD_solvation_energy": 5.85 
		},
		"coords": [
			{
				"x": -4.0067936522,
				"y": -0.1923135673,
				"z": -3.3606241728,
				"element": "Cl" 
			},
			{
				"x": -2.3510583919,
				"y": 0.1947546297,
				"z": -2.9086311601,
				"element": "C" 
			},
			{
				"x": -2.0878250353,
				"y": 0.5343516646,
				"z": -1.5843015207,
				"element": "C" 
			},
			{
				"x": -0.7702455176,
				"y": 0.8458639935,
				"z": -1.2088225366,
				"element": "C" 
			},
			{
				"x": 0.2513271177,
				"y": 0.8086491029,
				"z": -2.1727841737,
				"element": "C" 
			},
			{
				"x": -0.0538268042,
				"y": 0.4638257198,
				"z": -3.487986657,
				"element": "C" 
			},
			{
				"x": -1.3541455653,
				"y": 0.1519223764,
				"z": -3.8790014845,
				"element": "C" 
			},
			{
				"x": -0.4772296704,
				"y": 1.1986975296,
				"z": 0.1514460963,
				"element": "N" 
			},
			{
				"x": -1.4162674462,
				"y": 1.2723054911,
				"z": 1.2156446505,
				"element": "C" 
			},
			{
				"x": -2.60786529,
				"y": 1.0543663034,
				"z": 1.1641961075,
				"element": "O" 
			},
			{
				"x": -0.6590068733,
				"y": 1.6756008412,
				"z": 2.4407375357,
				"element": "C" 
			},
			{
				"x": 0.6254212753,
				"y": 1.8277124618,
				"z": 2.1233467893,
				"element": "C" 
			},
			{
				"x": 0.803323228,
				"y": 1.5351881249,
				"z": 0.6672796793,
				"element": "C" 
			},
			{
				"x": 1.8537468326,
				"y": 1.5830891558,
				"z": 0.0632793487,
				"element": "O" 
			},
			{
				"x": -2.8893693323,
				"y": 0.5556078095,
				"z": -0.8631991439,
				"element": "H" 
			},
			{
				"x": 1.2669897042,
				"y": 1.045493345,
				"z": -1.8978027244,
				"element": "H" 
			},
			{
				"x": 0.7456468022,
				"y": 0.4391702902,
				"z": -4.2224167946,
				"element": "H" 
			},
			{
				"x": -1.5903288529,
				"y": -0.1161332374,
				"z": -4.9022404416,
				"element": "H" 
			},
			{
				"x": -1.1618205568,
				"y": 1.7993730465,
				"z": 3.390499901,
				"element": "H" 
			},
			{
				"x": 1.4671280283,
				"y": 2.1107749188,
				"z": 2.7410807018,
				"element": "H" 
			}
		],
		 "valence_orbital": [ 
			{
				"type": "occ",
				"energy": -0.31107,
				"method": "rhf"
			},
			{
				"type": "occ",
				"energy": -0.30559,
				"method": "rhf"
			},
			{
				"type": "occ",
				"energy": -0.28354,
				"method": "rhf"
			},
			{
				"type": "occ",
				"energy": -0.25287,
				"method": "rhf"
			},
			{
				"type": "occ",
				"energy": -0.23993,
				"method": "rhf"
			},
			{
				"type": "unocc",
				"energy": -0.11031,
				"method": "rhf"
			},
			{
				"type": "unocc",
				"energy": -0.02375,
				"method": "rhf"
			},
			{
				"type": "unocc",
				"energy": -0.01339,
				"method": "rhf"
			},
			{
				"type": "unocc",
				"energy": 0.03079,
				"method": "rhf"
			},
			{
				"type": "unocc",
				"energy": 0.05243,
				"method": "rhf"
			}
		],
		"cosmo_sigma_profile": { 
			"-0.025": 0.0,
			"-0.024": 0.0,
			"-0.023": 0.0,
			"-0.022": 0.0,
			"-0.021": 0.0,
			"-0.02": 0.0,
			"-0.019": 0.0,
			"-0.018": 0.0,
			"-0.017": 0.0,
			"-0.016": 0.0,
			"-0.015": 0.0,
			"-0.014": 0.0,
			"-0.013": 0.0,
			"-0.012": 0.0,
			"-0.011": 0.108352416102,
			"-0.01": 2.97693960889,
			"-0.009": 3.5938028335,
			"-0.008": 3.69329696564,
			"-0.007": 7.03282066152,
			"-0.006": 12.3162300046,
			"-0.005": 12.4954847479,
			"-0.004": 13.0468710365,
			"-0.003": 14.6575607574,
			"-0.002": 14.1380338157,
			"-0.001": 13.0768654951,
			"0.0": 18.2011619879,
			"0.001": 17.5070146974,
			"0.002": 19.0335748524,
			"0.003": 21.6902162235,
			"0.004": 16.0409912057,
			"0.005": 8.58555699467,
			"0.006": 3.04059889417,
			"0.007": 3.06562468642,
			"0.008": 3.9899493544,
			"0.009": 4.86707372547,
			"0.01": 4.79139749828,
			"0.011": 2.05906324905,
			"0.012": 0.0196124587884,
			"0.013": 0.0,
			"0.014": 0.0,
			"0.015": 0.0,
			"0.016": 0.0,
			"0.017": 0.0,
			"0.018": 0.0,
			"0.019": 0.0,
			"0.02": 0.0,
			"0.021": 0.0,
			"0.022": 0.0,
			"0.023": 0.0,
			"0.024": 0.0,
			"0.025": 0.0
		}
	}
}
