{
	 "smiles": "OC(=O)C1(CCOCC1)C1=CC=C(O)C=C1", 
	 "Tm": 444.15, 
	 "num_atms": 30, 
	 "gaussian": { 
		 "optdone": 1, 
		 "sigma_profile": "yes", 
		 "theory": "DFT", 
		 "functional": "B3LYP", 
		 "basiset": "6-31G**", 
		 "properties": { 
			 "R2extent": 3981.5706, 
			 "electric_dipole_moment_norm": 2.70776150168, 
			 "electric_quadrupole_moment_norm": 13.1167285125, 
			 "total_energy": -766.60314398, 
			 "HOMO_LUMO_gap": 0.21283, 
			 "cosmo_polarized_energy": -16.5, 
			 "cosmo_cavitation_energy": 31.54, 
			 "cosmo_dispersion_energy": -22.99, 
			 "cosmo_repulsion_energy": 1.78, 
			 "cosmo_total_nonelectrostatic_energy": 10.33, 
			 "SMD_solvation_energy": 6.38 
		},
		"coords": [
			{
				"x": 2.0823769662,
				"y": -1.4256618795,
				"z": -0.0351107018,
				"element": "O" 
			},
			{
				"x": 1.1068346057,
				"y": -1.3221949056,
				"z": 0.902210847,
				"element": "C" 
			},
			{
				"x": 0.9860824606,
				"y": -2.139673027,
				"z": 1.7888052054,
				"element": "O" 
			},
			{
				"x": 0.1587626217,
				"y": -0.1323946406,
				"z": 0.6763542166,
				"element": "C" 
			},
			{
				"x": -0.3667757251,
				"y": 0.2941291967,
				"z": 2.0629996996,
				"element": "C" 
			},
			{
				"x": 0.8133326332,
				"y": 0.7031415493,
				"z": 2.9784693201,
				"element": "C" 
			},
			{
				"x": 2.0072093746,
				"y": 0.9540880084,
				"z": 2.2421078469,
				"element": "O" 
			},
			{
				"x": 1.7663407903,
				"y": 1.8019075092,
				"z": 1.1285075772,
				"element": "C" 
			},
			{
				"x": 0.8920225522,
				"y": 1.0940506631,
				"z": 0.0626147281,
				"element": "C" 
			},
			{
				"x": -0.9484931446,
				"y": -0.6187580983,
				"z": -0.2782107608,
				"element": "C" 
			},
			{
				"x": -2.3034915466,
				"y": -0.63293818,
				"z": 0.083597019,
				"element": "C" 
			},
			{
				"x": -3.2929589836,
				"y": -1.0517215553,
				"z": -0.8032382316,
				"element": "C" 
			},
			{
				"x": -2.9453816191,
				"y": -1.4762118304,
				"z": -2.0877904544,
				"element": "C" 
			},
			{
				"x": -3.9522795648,
				"y": -1.8769500743,
				"z": -2.919399236,
				"element": "O" 
			},
			{
				"x": -1.5995715942,
				"y": -1.476688027,
				"z": -2.4684185654,
				"element": "C" 
			},
			{
				"x": -0.6207594327,
				"y": -1.0531932889,
				"z": -1.5723189386,
				"element": "C" 
			},
			{
				"x": 2.5808189565,
				"y": -2.2274536037,
				"z": 0.1965219212,
				"element": "H" 
			},
			{
				"x": -0.9218759346,
				"y": -0.5218778303,
				"z": 2.5307182016,
				"element": "H" 
			},
			{
				"x": -1.0568992615,
				"y": 1.1332459596,
				"z": 1.9226824337,
				"element": "H" 
			},
			{
				"x": 0.5453079588,
				"y": 1.5916750166,
				"z": 3.5721740048,
				"element": "H" 
			},
			{
				"x": 1.0648651504,
				"y": -0.1085233426,
				"z": 3.6635546186,
				"element": "H" 
			},
			{
				"x": 1.2880253309,
				"y": 2.7359504496,
				"z": 1.4657858857,
				"element": "H" 
			},
			{
				"x": 2.7488782604,
				"y": 2.0612909042,
				"z": 0.7257831869,
				"element": "H" 
			},
			{
				"x": 1.498805296,
				"y": 0.7772920017,
				"z": -0.7872168443,
				"element": "H" 
			},
			{
				"x": 0.1321337851,
				"y": 1.782920898,
				"z": -0.3212676018,
				"element": "H" 
			},
			{
				"x": -2.6088060233,
				"y": -0.3130331485,
				"z": 1.073045339,
				"element": "H" 
			},
			{
				"x": -4.3383229396,
				"y": -1.0572749426,
				"z": -0.5125952174,
				"element": "H" 
			},
			{
				"x": -3.5742565366,
				"y": -2.1485681134,
				"z": -3.7657812852,
				"element": "H" 
			},
			{
				"x": -1.314677246,
				"y": -1.8102361008,
				"z": -3.4644681232,
				"element": "H" 
			},
			{
				"x": 0.4176528099,
				"y": -1.0751395675,
				"z": -1.8858160907,
				"element": "H" 
			}
		],
		 "valence_orbital": [ 
			{
				"type": "occ",
				"energy": -0.30235,
				"method": "rhf"
			},
			{
				"type": "occ",
				"energy": -0.2674,
				"method": "rhf"
			},
			{
				"type": "occ",
				"energy": -0.25454,
				"method": "rhf"
			},
			{
				"type": "occ",
				"energy": -0.25135,
				"method": "rhf"
			},
			{
				"type": "occ",
				"energy": -0.21901,
				"method": "rhf"
			},
			{
				"type": "unocc",
				"energy": -0.00618,
				"method": "rhf"
			},
			{
				"type": "unocc",
				"energy": -0.00045,
				"method": "rhf"
			},
			{
				"type": "unocc",
				"energy": 0.03082,
				"method": "rhf"
			},
			{
				"type": "unocc",
				"energy": 0.06842,
				"method": "rhf"
			},
			{
				"type": "unocc",
				"energy": 0.07518,
				"method": "rhf"
			}
		],
		"cosmo_sigma_profile": { 
			"-0.025": 0.0,
			"-0.024": 0.0,
			"-0.023": 0.0,
			"-0.022": 0.0,
			"-0.021": 0.0,
			"-0.02": 0.0,
			"-0.019": 0.0,
			"-0.018": 0.791413927417,
			"-0.017": 2.30691296332,
			"-0.016": 1.27073368334,
			"-0.015": 2.29797512373,
			"-0.014": 2.0199291642,
			"-0.013": 1.88653712922,
			"-0.012": 1.07627944702,
			"-0.011": 1.24189561929,
			"-0.01": 2.40914545912,
			"-0.009": 1.94923516897,
			"-0.008": 1.14270279718,
			"-0.007": 2.08097264577,
			"-0.006": 4.72470267601,
			"-0.005": 10.680363134,
			"-0.004": 28.9481459768,
			"-0.003": 26.9624552411,
			"-0.002": 21.7401925684,
			"-0.001": 14.8785559372,
			"0.0": 10.7521389211,
			"0.001": 11.3220557206,
			"0.002": 11.4713759808,
			"0.003": 12.4936787462,
			"0.004": 15.2638534457,
			"0.005": 15.2303353901,
			"0.006": 9.54857232134,
			"0.007": 6.47610540264,
			"0.008": 3.57368263432,
			"0.009": 4.00758703009,
			"0.01": 5.28834375746,
			"0.011": 5.23157785599,
			"0.012": 6.46198346179,
			"0.013": 1.74083135167,
			"0.014": 0.108140186128,
			"0.015": 0.0,
			"0.016": 0.0,
			"0.017": 0.0,
			"0.018": 0.0,
			"0.019": 0.0,
			"0.02": 0.0,
			"0.021": 0.0,
			"0.022": 0.0,
			"0.023": 0.0,
			"0.024": 0.0,
			"0.025": 0.0
		}
	}
}
