{
	 "smiles": "OC[C@@H](CC1=CC=CC=C1)NC(=O)OCC1=CC=CC=C1", 
	 "Tm": 367.15, 
	 "num_atms": 40, 
	 "gaussian": { 
		 "optdone": 1, 
		 "sigma_profile": "yes", 
		 "theory": "DFT", 
		 "functional": "B3LYP", 
		 "basiset": "6-31G**", 
		 "properties": { 
			 "R2extent": 9228.9985, 
			 "electric_dipole_moment_norm": 2.12654655486, 
			 "electric_quadrupole_moment_norm": 16.5843365448, 
			 "total_energy": -939.704210002, 
			 "HOMO_LUMO_gap": 0.22999, 
			 "cosmo_polarized_energy": -15.4, 
			 "cosmo_cavitation_energy": 43.34, 
			 "cosmo_dispersion_energy": -29.89, 
			 "cosmo_repulsion_energy": 2.33, 
			 "cosmo_total_nonelectrostatic_energy": 15.78, 
			 "SMD_solvation_energy": 7.64 
		},
		"coords": [
			{
				"x": 2.9494468328,
				"y": 0.8657050371,
				"z": 1.7199381948,
				"element": "O" 
			},
			{
				"x": 2.1456984059,
				"y": 0.7424683951,
				"z": 0.5530512745,
				"element": "C" 
			},
			{
				"x": 0.8088261772,
				"y": 0.0220236497,
				"z": 0.8178564235,
				"element": "C" 
			},
			{
				"x": -0.0038337804,
				"y": 0.6554964477,
				"z": 1.9739410798,
				"element": "C" 
			},
			{
				"x": -0.50092871,
				"y": 2.0612088144,
				"z": 1.7080648206,
				"element": "C" 
			},
			{
				"x": 0.3131310166,
				"y": 3.1741897531,
				"z": 1.9735727805,
				"element": "C" 
			},
			{
				"x": -0.1373234566,
				"y": 4.4675074971,
				"z": 1.7075643122,
				"element": "C" 
			},
			{
				"x": -1.4105189265,
				"y": 4.6734306844,
				"z": 1.1708022314,
				"element": "C" 
			},
			{
				"x": -2.2319934567,
				"y": 3.5770848381,
				"z": 0.9066111486,
				"element": "C" 
			},
			{
				"x": -1.7802695732,
				"y": 2.2828266212,
				"z": 1.1758479332,
				"element": "C" 
			},
			{
				"x": 0.0121881921,
				"y": -0.0310300257,
				"z": -0.4030108749,
				"element": "N" 
			},
			{
				"x": 0.0785692508,
				"y": -0.9723468475,
				"z": -1.3871737342,
				"element": "C" 
			},
			{
				"x": -0.5615721436,
				"y": -0.9218976869,
				"z": -2.4255243263,
				"element": "O" 
			},
			{
				"x": 0.9434804464,
				"y": -1.9732143111,
				"z": -1.05857458,
				"element": "O" 
			},
			{
				"x": 1.0327767791,
				"y": -3.068528027,
				"z": -2.0066552908,
				"element": "C" 
			},
			{
				"x": 0.0870264198,
				"y": -4.1931018307,
				"z": -1.6616561018,
				"element": "C" 
			},
			{
				"x": 0.5425362583,
				"y": -5.3121363084,
				"z": -0.9545176086,
				"element": "C" 
			},
			{
				"x": -0.3296796719,
				"y": -6.3518914757,
				"z": -0.6278349528,
				"element": "C" 
			},
			{
				"x": -1.6714462459,
				"y": -6.2792529905,
				"z": -1.0052057335,
				"element": "C" 
			},
			{
				"x": -2.1353913975,
				"y": -5.1657083197,
				"z": -1.7103410962,
				"element": "C" 
			},
			{
				"x": -1.2625732875,
				"y": -4.1287393457,
				"z": -2.0389162176,
				"element": "C" 
			},
			{
				"x": 3.2443427167,
				"y": -0.0181695767,
				"z": 1.9752308783,
				"element": "H" 
			},
			{
				"x": 1.9523495954,
				"y": 1.7629651559,
				"z": 0.2101088062,
				"element": "H" 
			},
			{
				"x": 2.6739251528,
				"y": 0.2138216995,
				"z": -0.2528573072,
				"element": "H" 
			},
			{
				"x": 1.0272897371,
				"y": -1.0126319076,
				"z": 1.1010624235,
				"element": "H" 
			},
			{
				"x": -0.8521020543,
				"y": -0.0034132543,
				"z": 2.1873286156,
				"element": "H" 
			},
			{
				"x": 0.6451636478,
				"y": 0.6548698261,
				"z": 2.8543682862,
				"element": "H" 
			},
			{
				"x": 1.3032172056,
				"y": 3.0170865605,
				"z": 2.3934007893,
				"element": "H" 
			},
			{
				"x": 0.5056043143,
				"y": 5.3163987868,
				"z": 1.9231873054,
				"element": "H" 
			},
			{
				"x": -1.7610628614,
				"y": 5.680904656,
				"z": 0.9661154308,
				"element": "H" 
			},
			{
				"x": -3.2273077026,
				"y": 3.7267658916,
				"z": 0.4976932244,
				"element": "H" 
			},
			{
				"x": -2.4336701549,
				"y": 1.4342920191,
				"z": 0.985664222,
				"element": "H" 
			},
			{
				"x": -0.5485338445,
				"y": 0.7751457321,
				"z": -0.64272852,
				"element": "H" 
			},
			{
				"x": 0.8333520866,
				"y": -2.6736857455,
				"z": -3.0044718978,
				"element": "H" 
			},
			{
				"x": 2.0714201548,
				"y": -3.4011189937,
				"z": -1.9428749207,
				"element": "H" 
			},
			{
				"x": 1.5882549121,
				"y": -5.3712333303,
				"z": -0.6614537672,
				"element": "H" 
			},
			{
				"x": 0.0377924708,
				"y": -7.2164404422,
				"z": -0.0821492953,
				"element": "H" 
			},
			{
				"x": -2.3522527607,
				"y": -7.0877879193,
				"z": -0.7540391521,
				"element": "H" 
			},
			{
				"x": -3.1784124091,
				"y": -5.107485724,
				"z": -2.0087517598,
				"element": "H" 
			},
			{
				"x": -1.6164193355,
				"y": -3.2574780032,
				"z": -2.5815730444,
				"element": "H" 
			}
		],
		 "valence_orbital": [ 
			{
				"type": "occ",
				"energy": -0.25225,
				"method": "rhf"
			},
			{
				"type": "occ",
				"energy": -0.25208,
				"method": "rhf"
			},
			{
				"type": "occ",
				"energy": -0.24957,
				"method": "rhf"
			},
			{
				"type": "occ",
				"energy": -0.24646,
				"method": "rhf"
			},
			{
				"type": "occ",
				"energy": -0.23905,
				"method": "rhf"
			},
			{
				"type": "unocc",
				"energy": -0.00906,
				"method": "rhf"
			},
			{
				"type": "unocc",
				"energy": -0.00551,
				"method": "rhf"
			},
			{
				"type": "unocc",
				"energy": -0.00482,
				"method": "rhf"
			},
			{
				"type": "unocc",
				"energy": -0.0005,
				"method": "rhf"
			},
			{
				"type": "unocc",
				"energy": 0.05562,
				"method": "rhf"
			}
		],
		"cosmo_sigma_profile": { 
			"-0.025": 0.0,
			"-0.024": 0.0,
			"-0.023": 0.0,
			"-0.022": 0.0,
			"-0.021": 0.0,
			"-0.02": 0.0,
			"-0.019": 0.0,
			"-0.018": 0.0,
			"-0.017": 0.0,
			"-0.016": 0.402144201546,
			"-0.015": 1.26264610205,
			"-0.014": 0.8316648373,
			"-0.013": 1.12780257462,
			"-0.012": 1.40623090287,
			"-0.011": 1.01634276888,
			"-0.01": 1.35949232831,
			"-0.009": 1.25173179646,
			"-0.008": 1.2876539857,
			"-0.007": 3.62398512972,
			"-0.006": 13.9049325548,
			"-0.005": 25.5964281593,
			"-0.004": 30.6007539582,
			"-0.003": 37.3415892059,
			"-0.002": 28.1618736577,
			"-0.001": 25.8914341915,
			"0.0": 21.7919748403,
			"0.001": 22.5871335681,
			"0.002": 20.1157580951,
			"0.003": 20.7776339268,
			"0.004": 20.7301598712,
			"0.005": 22.4316349135,
			"0.006": 16.445444427,
			"0.007": 2.53295036688,
			"0.008": 2.36666184603,
			"0.009": 2.0106287754,
			"0.01": 3.53266612336,
			"0.011": 2.06564451998,
			"0.012": 2.90613360838,
			"0.013": 5.05774230978,
			"0.014": 2.56319917311,
			"0.015": 0.0420938190732,
			"0.016": 0.0,
			"0.017": 0.0,
			"0.018": 0.0,
			"0.019": 0.0,
			"0.02": 0.0,
			"0.021": 0.0,
			"0.022": 0.0,
			"0.023": 0.0,
			"0.024": 0.0,
			"0.025": 0.0
		}
	}
}
