{
	 "smiles": "ONC(=O)CS(=O)C(C1=CC=CC=C1)C1=CC=CC=C1", 
	 "Tm": 432.15, 
	 "num_atms": 35, 
	 "gaussian": { 
		 "optdone": 1, 
		 "sigma_profile": "yes", 
		 "theory": "DFT", 
		 "functional": "B3LYP", 
		 "basiset": "6-31G**", 
		 "properties": { 
			 "R2extent": 6623.3719, 
			 "electric_dipole_moment_norm": 4.38131765568, 
			 "electric_quadrupole_moment_norm": 14.4642339756, 
			 "total_energy": -1259.15291817, 
			 "HOMO_LUMO_gap": 0.19736, 
			 "cosmo_polarized_energy": -17.17, 
			 "cosmo_cavitation_energy": 39.21, 
			 "cosmo_dispersion_energy": -27.48, 
			 "cosmo_repulsion_energy": 2.08, 
			 "cosmo_total_nonelectrostatic_energy": 13.82, 
			 "SMD_solvation_energy": 7.57 
		},
		"coords": [
			{
				"x": -4.083116403,
				"y": -0.8003992418,
				"z": -2.1438595246,
				"element": "O" 
			},
			{
				"x": -3.9924804067,
				"y": 0.4279152987,
				"z": -2.8065606127,
				"element": "N" 
			},
			{
				"x": -2.8010333375,
				"y": 1.084526282,
				"z": -2.921118742,
				"element": "C" 
			},
			{
				"x": -2.6309410462,
				"y": 2.0078119428,
				"z": -3.7048555515,
				"element": "O" 
			},
			{
				"x": -1.7252338042,
				"y": 0.6255677279,
				"z": -1.9383259743,
				"element": "C" 
			},
			{
				"x": -2.161505692,
				"y": 1.1406847007,
				"z": -0.2111608432,
				"element": "S" 
			},
			{
				"x": -3.3935072405,
				"y": 0.3185008145,
				"z": 0.1825469802,
				"element": "O" 
			},
			{
				"x": -0.7064348396,
				"y": 0.3582957612,
				"z": 0.7838280007,
				"element": "C" 
			},
			{
				"x": 0.382929452,
				"y": 1.388428937,
				"z": 0.9732100574,
				"element": "C" 
			},
			{
				"x": 1.110302356,
				"y": 1.9434207947,
				"z": -0.0920931008,
				"element": "C" 
			},
			{
				"x": 2.0897533979,
				"y": 2.9108042939,
				"z": 0.13689571,
				"element": "C" 
			},
			{
				"x": 2.3604466612,
				"y": 3.3439506492,
				"z": 1.4352029305,
				"element": "C" 
			},
			{
				"x": 1.6425982272,
				"y": 2.8047001989,
				"z": 2.5037451821,
				"element": "C" 
			},
			{
				"x": 0.6614489741,
				"y": 1.8415166278,
				"z": 2.2719403182,
				"element": "C" 
			},
			{
				"x": -0.3376757831,
				"y": -1.0279480523,
				"z": 0.3067816647,
				"element": "C" 
			},
			{
				"x": 0.9027207988,
				"y": -1.3313610113,
				"z": -0.2732848105,
				"element": "C" 
			},
			{
				"x": 1.19044152,
				"y": -2.6304885307,
				"z": -0.6956574225,
				"element": "C" 
			},
			{
				"x": 0.2444987346,
				"y": -3.6454954311,
				"z": -0.551451783,
				"element": "C" 
			},
			{
				"x": -0.9928830553,
				"y": -3.3553145132,
				"z": 0.0274579832,
				"element": "C" 
			},
			{
				"x": -1.2803189508,
				"y": -2.0620208361,
				"z": 0.4603063453,
				"element": "C" 
			},
			{
				"x": -4.0814207888,
				"y": -0.5363152857,
				"z": -1.19125675,
				"element": "H" 
			},
			{
				"x": -4.6754491032,
				"y": 0.5429917693,
				"z": -3.5448325998,
				"element": "H" 
			},
			{
				"x": -0.7993152692,
				"y": 1.1312745916,
				"z": -2.2105678199,
				"element": "H" 
			},
			{
				"x": -1.6091573673,
				"y": -0.4605064998,
				"z": -1.9435235501,
				"element": "H" 
			},
			{
				"x": -1.2536924904,
				"y": 0.2608269787,
				"z": 1.7273335101,
				"element": "H" 
			},
			{
				"x": 0.9239826825,
				"y": 1.6195186554,
				"z": -1.1105783289,
				"element": "H" 
			},
			{
				"x": 2.6379760156,
				"y": 3.3271697822,
				"z": -0.7029911141,
				"element": "H" 
			},
			{
				"x": 3.1221637918,
				"y": 4.0973482898,
				"z": 1.6122015672,
				"element": "H" 
			},
			{
				"x": 1.8423487166,
				"y": 3.1358026981,
				"z": 3.5186040582,
				"element": "H" 
			},
			{
				"x": 0.1045564997,
				"y": 1.4304412939,
				"z": 3.109946291,
				"element": "H" 
			},
			{
				"x": 1.6566222416,
				"y": -0.5592700293,
				"z": -0.3764887493,
				"element": "H" 
			},
			{
				"x": 2.1601616033,
				"y": -2.8473302838,
				"z": -1.1344871908,
				"element": "H" 
			},
			{
				"x": 0.4713764016,
				"y": -4.6554479724,
				"z": -0.8800696476,
				"element": "H" 
			},
			{
				"x": -1.7347401304,
				"y": -4.1389215313,
				"z": 0.1506090927,
				"element": "H" 
			},
			{
				"x": -2.244222366,
				"y": -1.8388788693,
				"z": 0.9057544244,
				"element": "H" 
			}
		],
		 "valence_orbital": [ 
			{
				"type": "occ",
				"energy": -0.2627,
				"method": "rhf"
			},
			{
				"type": "occ",
				"energy": -0.25937,
				"method": "rhf"
			},
			{
				"type": "occ",
				"energy": -0.25816,
				"method": "rhf"
			},
			{
				"type": "occ",
				"energy": -0.23892,
				"method": "rhf"
			},
			{
				"type": "occ",
				"energy": -0.23753,
				"method": "rhf"
			},
			{
				"type": "unocc",
				"energy": -0.04017,
				"method": "rhf"
			},
			{
				"type": "unocc",
				"energy": -0.02281,
				"method": "rhf"
			},
			{
				"type": "unocc",
				"energy": -0.01862,
				"method": "rhf"
			},
			{
				"type": "unocc",
				"energy": -0.0129,
				"method": "rhf"
			},
			{
				"type": "unocc",
				"energy": -0.0038,
				"method": "rhf"
			}
		],
		"cosmo_sigma_profile": { 
			"-0.025": 0.0,
			"-0.024": 0.0,
			"-0.023": 0.0,
			"-0.022": 0.0,
			"-0.021": 0.0,
			"-0.02": 0.0,
			"-0.019": 0.0,
			"-0.018": 0.0,
			"-0.017": 0.0,
			"-0.016": 0.219580163416,
			"-0.015": 1.28829091903,
			"-0.014": 0.937663386739,
			"-0.013": 0.945430152098,
			"-0.012": 1.3336932908,
			"-0.011": 0.598120185818,
			"-0.01": 1.26962446514,
			"-0.009": 3.67564856087,
			"-0.008": 5.87184904087,
			"-0.007": 6.35706105531,
			"-0.006": 17.6643148857,
			"-0.005": 24.6365251999,
			"-0.004": 28.2697061858,
			"-0.003": 21.2846807772,
			"-0.002": 20.6425683832,
			"-0.001": 20.5693799274,
			"0.0": 19.0510573558,
			"0.001": 22.8099500832,
			"0.002": 21.0919453677,
			"0.003": 20.8685055852,
			"0.004": 21.0682694115,
			"0.005": 16.9761516492,
			"0.006": 3.80340887785,
			"0.007": 2.35939001676,
			"0.008": 3.06134698412,
			"0.009": 3.97326298118,
			"0.01": 4.01236071666,
			"0.011": 4.63812364149,
			"0.012": 6.29660385232,
			"0.013": 6.33494679779,
			"0.014": 1.98269400219,
			"0.015": 0.0240897089349,
			"0.016": 0.0,
			"0.017": 0.0,
			"0.018": 0.0,
			"0.019": 0.0,
			"0.02": 0.0,
			"0.021": 0.0,
			"0.022": 0.0,
			"0.023": 0.0,
			"0.024": 0.0,
			"0.025": 0.0
		}
	}
}
