{
	 "smiles": "CC1=CC(C)=C(Br)C=C1C", 
	 "Tm": 345.15, 
	 "num_atms": 21, 
	 "gaussian": { 
		 "optdone": 1, 
		 "sigma_profile": "yes", 
		 "theory": "DFT", 
		 "functional": "B3LYP", 
		 "basiset": "6-31G**", 
		 "properties": { 
			 "R2extent": 2884.313, 
			 "electric_dipole_moment_norm": 2.20656860532, 
			 "electric_quadrupole_moment_norm": 6.02433562727, 
			 "total_energy": -2921.01520594, 
			 "HOMO_LUMO_gap": 0.2207, 
			 "cosmo_polarized_energy": -3.85, 
			 "cosmo_cavitation_energy": 25.78, 
			 "cosmo_dispersion_energy": -19.18, 
			 "cosmo_repulsion_energy": 1.54, 
			 "cosmo_total_nonelectrostatic_energy": 8.14, 
			 "SMD_solvation_energy": 3.41 
		},
		"coords": [
			{
				"x": -0.1263269607,
				"y": 3.1834722195,
				"z": -0.660692314,
				"element": "C" 
			},
			{
				"x": 0.1238237762,
				"y": 1.8379653977,
				"z": -0.0229490636,
				"element": "C" 
			},
			{
				"x": 0.311101533,
				"y": 0.7057642422,
				"z": -0.8202204278,
				"element": "C" 
			},
			{
				"x": 0.5475156849,
				"y": -0.5742604022,
				"z": -0.2997303847,
				"element": "C" 
			},
			{
				"x": 0.7417984218,
				"y": -1.7571191748,
				"z": -1.2126013133,
				"element": "C" 
			},
			{
				"x": 0.5896700046,
				"y": -0.6755692965,
				"z": 1.0945266095,
				"element": "C" 
			},
			{
				"x": 0.9059895974,
				"y": -2.3759484401,
				"z": 1.927732664,
				"element": "Br" 
			},
			{
				"x": 0.4073966025,
				"y": 0.431356648,
				"z": 1.9199719986,
				"element": "C" 
			},
			{
				"x": 0.1729379442,
				"y": 1.6984890241,
				"z": 1.37939641,
				"element": "C" 
			},
			{
				"x": -0.0221170437,
				"y": 2.8857166021,
				"z": 2.2917739941,
				"element": "C" 
			},
			{
				"x": -0.1319707741,
				"y": 3.1085522927,
				"z": -1.7511207569,
				"element": "H" 
			},
			{
				"x": -1.0894878522,
				"y": 3.6062006337,
				"z": -0.3497193103,
				"element": "H" 
			},
			{
				"x": 0.6422149888,
				"y": 3.9139242813,
				"z": -0.3798431457,
				"element": "H" 
			},
			{
				"x": 0.2724518782,
				"y": 0.8176004897,
				"z": -1.9016173659,
				"element": "H" 
			},
			{
				"x": 0.6696725084,
				"y": -1.4533441237,
				"z": -2.260020292,
				"element": "H" 
			},
			{
				"x": -0.0097897626,
				"y": -2.5318272323,
				"z": -1.0262747456,
				"element": "H" 
			},
			{
				"x": 1.7199775867,
				"y": -2.2245649102,
				"z": -1.0562737175,
				"element": "H" 
			},
			{
				"x": 0.4487798541,
				"y": 0.303530183,
				"z": 2.9965554003,
				"element": "H" 
			},
			{
				"x": 0.7305152542,
				"y": 3.6625971389,
				"z": 2.1103099471,
				"element": "H" 
			},
			{
				"x": 0.048134995,
				"y": 2.592375257,
				"z": 3.3422448627,
				"element": "H" 
			},
			{
				"x": -1.0017882367,
				"y": 3.3549891702,
				"z": 2.140250951,
				"element": "H" 
			}
		],
		 "valence_orbital": [ 
			{
				"type": "occ",
				"energy": -0.33541,
				"method": "rhf"
			},
			{
				"type": "occ",
				"energy": -0.29762,
				"method": "rhf"
			},
			{
				"type": "occ",
				"energy": -0.27905,
				"method": "rhf"
			},
			{
				"type": "occ",
				"energy": -0.24314,
				"method": "rhf"
			},
			{
				"type": "occ",
				"energy": -0.22606,
				"method": "rhf"
			},
			{
				"type": "unocc",
				"energy": -0.00536,
				"method": "rhf"
			},
			{
				"type": "unocc",
				"energy": -4e-05,
				"method": "rhf"
			},
			{
				"type": "unocc",
				"energy": 0.01587,
				"method": "rhf"
			},
			{
				"type": "unocc",
				"energy": 0.09124,
				"method": "rhf"
			},
			{
				"type": "unocc",
				"energy": 0.11284,
				"method": "rhf"
			}
		],
		"cosmo_sigma_profile": { 
			"-0.025": 0.0,
			"-0.024": 0.0,
			"-0.023": 0.0,
			"-0.022": 0.0,
			"-0.021": 0.0,
			"-0.02": 0.0,
			"-0.019": 0.0,
			"-0.018": 0.0,
			"-0.017": 0.0,
			"-0.016": 0.0,
			"-0.015": 0.0,
			"-0.014": 0.0,
			"-0.013": 0.0,
			"-0.012": 0.0,
			"-0.011": 0.0,
			"-0.01": 0.0,
			"-0.009": 0.0,
			"-0.008": 0.0,
			"-0.007": 0.0340019148111,
			"-0.006": 1.82445183412,
			"-0.005": 7.87418117112,
			"-0.004": 21.071143728,
			"-0.003": 19.2054577555,
			"-0.002": 22.6980588069,
			"-0.001": 21.3720931365,
			"0.0": 29.8693581357,
			"0.001": 17.9307895979,
			"0.002": 12.3283486342,
			"0.003": 15.7561584978,
			"0.004": 16.8651668654,
			"0.005": 17.890362161,
			"0.006": 1.701118831,
			"0.007": 0.0,
			"0.008": 0.0,
			"0.009": 0.0,
			"0.01": 0.0,
			"0.011": 0.0,
			"0.012": 0.0,
			"0.013": 0.0,
			"0.014": 0.0,
			"0.015": 0.0,
			"0.016": 0.0,
			"0.017": 0.0,
			"0.018": 0.0,
			"0.019": 0.0,
			"0.02": 0.0,
			"0.021": 0.0,
			"0.022": 0.0,
			"0.023": 0.0,
			"0.024": 0.0,
			"0.025": 0.0
		}
	}
}
