{
	 "smiles": "ClC1=CC=C(C=C1)C1=C(Cl)C(Cl)=C(Cl)C(Cl)=C1", 
	 "Tm": 371.15, 
	 "num_atms": 22, 
	 "gaussian": { 
		 "optdone": 1, 
		 "sigma_profile": "yes", 
		 "theory": "DFT", 
		 "functional": "B3LYP", 
		 "basiset": "6-31G**", 
		 "properties": { 
			 "R2extent": 8749.316, 
			 "electric_dipole_moment_norm": 1.10713611629, 
			 "electric_quadrupole_moment_norm": 10.0802208225, 
			 "total_energy": -2761.24112325, 
			 "HOMO_LUMO_gap": 0.20854, 
			 "cosmo_polarized_energy": -6.04, 
			 "cosmo_cavitation_energy": 35.97, 
			 "cosmo_dispersion_energy": -26.08, 
			 "cosmo_repulsion_energy": 2.04, 
			 "cosmo_total_nonelectrostatic_energy": 11.94, 
			 "SMD_solvation_energy": 4.72 
		},
		"coords": [
			{
				"x": -4.4958811716,
				"y": 1.5906203637,
				"z": 2.3453720301,
				"element": "Cl" 
			},
			{
				"x": -3.0633093273,
				"y": 0.8946455659,
				"z": 1.605970565,
				"element": "C" 
			},
			{
				"x": -3.189489058,
				"y": -0.2301570971,
				"z": 0.7914457199,
				"element": "C" 
			},
			{
				"x": -2.0476026215,
				"y": -0.7785932865,
				"z": 0.2088703423,
				"element": "C" 
			},
			{
				"x": -0.785782219,
				"y": -0.2127104884,
				"z": 0.4318073168,
				"element": "C" 
			},
			{
				"x": -0.6842508928,
				"y": 0.9158141188,
				"z": 1.2553643812,
				"element": "C" 
			},
			{
				"x": -1.8177882996,
				"y": 1.4746337789,
				"z": 1.8443548095,
				"element": "C" 
			},
			{
				"x": 0.4388209362,
				"y": -0.8285798637,
				"z": -0.1664692451,
				"element": "C" 
			},
			{
				"x": 0.9354052459,
				"y": -0.4509725734,
				"z": -1.4249266268,
				"element": "C" 
			},
			{
				"x": 0.1024096221,
				"y": 0.7815056072,
				"z": -2.3351093752,
				"element": "Cl" 
			},
			{
				"x": 2.090150848,
				"y": -1.0537620359,
				"z": -1.953424483,
				"element": "C" 
			},
			{
				"x": 2.690925405,
				"y": -0.5753779169,
				"z": -3.5108478036,
				"element": "Cl" 
			},
			{
				"x": 2.7635935594,
				"y": -2.0489542469,
				"z": -1.2193905219,
				"element": "C" 
			},
			{
				"x": 4.1901766809,
				"y": -2.8019595085,
				"z": -1.8586428083,
				"element": "Cl" 
			},
			{
				"x": 2.2644226386,
				"y": -2.4228661913,
				"z": 0.036435313,
				"element": "C" 
			},
			{
				"x": 3.0530349521,
				"y": -3.64853374,
				"z": 0.9936000806,
				"element": "Cl" 
			},
			{
				"x": 1.1197433357,
				"y": -1.8171992834,
				"z": 0.5471463662,
				"element": "C" 
			},
			{
				"x": -4.1653513996,
				"y": -0.6695848284,
				"z": 0.617548967,
				"element": "H" 
			},
			{
				"x": -2.1402609306,
				"y": -1.6540660516,
				"z": -0.4266930439,
				"element": "H" 
			},
			{
				"x": 0.2879729034,
				"y": 1.363812965,
				"z": 1.4371729591,
				"element": "H" 
			},
			{
				"x": -1.737111749,
				"y": 2.3482827944,
				"z": 2.4814431084,
				"element": "H" 
			},
			{
				"x": 0.750671542,
				"y": -2.1208980819,
				"z": 1.5197719487,
				"element": "H" 
			}
		],
		 "valence_orbital": [ 
			{
				"type": "occ",
				"energy": -0.31028,
				"method": "rhf"
			},
			{
				"type": "occ",
				"energy": -0.27652,
				"method": "rhf"
			},
			{
				"type": "occ",
				"energy": -0.26861,
				"method": "rhf"
			},
			{
				"type": "occ",
				"energy": -0.25965,
				"method": "rhf"
			},
			{
				"type": "occ",
				"energy": -0.25711,
				"method": "rhf"
			},
			{
				"type": "unocc",
				"energy": -0.04857,
				"method": "rhf"
			},
			{
				"type": "unocc",
				"energy": -0.04673,
				"method": "rhf"
			},
			{
				"type": "unocc",
				"energy": -0.03556,
				"method": "rhf"
			},
			{
				"type": "unocc",
				"energy": -0.02925,
				"method": "rhf"
			},
			{
				"type": "unocc",
				"energy": -0.02419,
				"method": "rhf"
			}
		],
		"cosmo_sigma_profile": { 
			"-0.025": 0.0,
			"-0.024": 0.0,
			"-0.023": 0.0,
			"-0.022": 0.0,
			"-0.021": 0.0,
			"-0.02": 0.0,
			"-0.019": 0.0,
			"-0.018": 0.0,
			"-0.017": 0.0,
			"-0.016": 0.0,
			"-0.015": 0.0,
			"-0.014": 0.0,
			"-0.013": 0.0,
			"-0.012": 0.0,
			"-0.011": 0.0,
			"-0.01": 0.0,
			"-0.009": 0.706927546718,
			"-0.008": 2.43592257563,
			"-0.007": 8.82305645195,
			"-0.006": 10.3614189221,
			"-0.005": 10.4863538347,
			"-0.004": 12.6236619605,
			"-0.003": 17.0488655242,
			"-0.002": 29.9254583076,
			"-0.001": 34.1220894,
			"0.0": 25.3572219734,
			"0.001": 28.7912513924,
			"0.002": 35.254440687,
			"0.003": 46.8811310254,
			"0.004": 32.1876948921,
			"0.005": 6.28578265437,
			"0.006": 0.0,
			"0.007": 0.0,
			"0.008": 0.0,
			"0.009": 0.0,
			"0.01": 0.0,
			"0.011": 0.0,
			"0.012": 0.0,
			"0.013": 0.0,
			"0.014": 0.0,
			"0.015": 0.0,
			"0.016": 0.0,
			"0.017": 0.0,
			"0.018": 0.0,
			"0.019": 0.0,
			"0.02": 0.0,
			"0.021": 0.0,
			"0.022": 0.0,
			"0.023": 0.0,
			"0.024": 0.0,
			"0.025": 0.0
		}
	}
}
