{
	 "smiles": "NN1C=NC(=C1N)C1=CC=CC=C1", 
	 "Tm": 400.15, 
	 "num_atms": 23, 
	 "gaussian": { 
		 "optdone": 1, 
		 "sigma_profile": "yes", 
		 "theory": "DFT", 
		 "functional": "B3LYP", 
		 "basiset": "6-31G**", 
		 "properties": { 
			 "R2extent": 2817.2858, 
			 "electric_dipole_moment_norm": 4.72160080269, 
			 "electric_quadrupole_moment_norm": 12.6387726837, 
			 "total_energy": -567.952198113, 
			 "HOMO_LUMO_gap": 0.18443, 
			 "cosmo_polarized_energy": -19.49, 
			 "cosmo_cavitation_energy": 26.91, 
			 "cosmo_dispersion_energy": -19.95, 
			 "cosmo_repulsion_energy": 1.57, 
			 "cosmo_total_nonelectrostatic_energy": 8.53, 
			 "SMD_solvation_energy": 3.93 
		},
		"coords": [
			{
				"x": 1.7623086624,
				"y": 3.7061000574,
				"z": -0.4575289685,
				"element": "N" 
			},
			{
				"x": 1.6345816046,
				"y": 2.3787614993,
				"z": -0.0342874066,
				"element": "N" 
			},
			{
				"x": 2.6456070935,
				"y": 1.6279770405,
				"z": 0.5177206212,
				"element": "C" 
			},
			{
				"x": 2.2205706719,
				"y": 0.4449890916,
				"z": 0.8740909765,
				"element": "N" 
			},
			{
				"x": 0.8657285225,
				"y": 0.400820244,
				"z": 0.560868123,
				"element": "C" 
			},
			{
				"x": 0.4893549897,
				"y": 1.6005705841,
				"z": -0.0211505729,
				"element": "C" 
			},
			{
				"x": -0.7150241655,
				"y": 2.1276839713,
				"z": -0.5081924964,
				"element": "N" 
			},
			{
				"x": 0.0548579313,
				"y": -0.7941680843,
				"z": 0.8164174006,
				"element": "C" 
			},
			{
				"x": 0.665662602,
				"y": -2.0618384747,
				"z": 0.8219538713,
				"element": "C" 
			},
			{
				"x": -0.0860597268,
				"y": -3.2136131655,
				"z": 1.0365482865,
				"element": "C" 
			},
			{
				"x": -1.4659290142,
				"y": -3.1318913982,
				"z": 1.24846027,
				"element": "C" 
			},
			{
				"x": -2.0816412501,
				"y": -1.880258857,
				"z": 1.2663089102,
				"element": "C" 
			},
			{
				"x": -1.3285976773,
				"y": -0.7227080634,
				"z": 1.0634004648,
				"element": "C" 
			},
			{
				"x": 1.6569314417,
				"y": 3.7555874705,
				"z": -1.4694118751,
				"element": "H" 
			},
			{
				"x": 1.0142431072,
				"y": 4.2508536457,
				"z": -0.032344622,
				"element": "H" 
			},
			{
				"x": 3.6467101386,
				"y": 2.0237845228,
				"z": 0.611625918,
				"element": "H" 
			},
			{
				"x": -1.447535088,
				"y": 1.4279212272,
				"z": -0.4829956408,
				"element": "H" 
			},
			{
				"x": -0.6307888826,
				"y": 2.4669837238,
				"z": -1.464087976,
				"element": "H" 
			},
			{
				"x": 1.7363574809,
				"y": -2.119486388,
				"z": 0.6567979007,
				"element": "H" 
			},
			{
				"x": 0.4054874233,
				"y": -4.1828608499,
				"z": 1.0345448938,
				"element": "H" 
			},
			{
				"x": -2.0505890257,
				"y": -4.0327782864,
				"z": 1.4108134477,
				"element": "H" 
			},
			{
				"x": -3.1480620253,
				"y": -1.7999266954,
				"z": 1.4594593524,
				"element": "H" 
			},
			{
				"x": -1.8132748142,
				"y": 0.2455971844,
				"z": 1.1601891216,
				"element": "H" 
			}
		],
		 "valence_orbital": [ 
			{
				"type": "occ",
				"energy": -0.27633,
				"method": "rhf"
			},
			{
				"type": "occ",
				"energy": -0.25848,
				"method": "rhf"
			},
			{
				"type": "occ",
				"energy": -0.24101,
				"method": "rhf"
			},
			{
				"type": "occ",
				"energy": -0.23904,
				"method": "rhf"
			},
			{
				"type": "occ",
				"energy": -0.18731,
				"method": "rhf"
			},
			{
				"type": "unocc",
				"energy": -0.00288,
				"method": "rhf"
			},
			{
				"type": "unocc",
				"energy": 0.00705,
				"method": "rhf"
			},
			{
				"type": "unocc",
				"energy": 0.03708,
				"method": "rhf"
			},
			{
				"type": "unocc",
				"energy": 0.04375,
				"method": "rhf"
			},
			{
				"type": "unocc",
				"energy": 0.09149,
				"method": "rhf"
			}
		],
		"cosmo_sigma_profile": { 
			"-0.025": 0.0,
			"-0.024": 0.0,
			"-0.023": 0.0,
			"-0.022": 0.0,
			"-0.021": 0.0,
			"-0.02": 0.0,
			"-0.019": 0.109932515105,
			"-0.018": 0.080315348986,
			"-0.017": 0.237358414556,
			"-0.016": 0.383851965114,
			"-0.015": 0.539306283738,
			"-0.014": 0.982205483022,
			"-0.013": 3.51075856705,
			"-0.012": 4.35417418412,
			"-0.011": 5.80064454478,
			"-0.01": 5.58579860654,
			"-0.009": 4.42488997221,
			"-0.008": 4.06842948163,
			"-0.007": 4.29692639625,
			"-0.006": 7.22755724407,
			"-0.005": 11.2313764029,
			"-0.004": 11.9055373068,
			"-0.003": 13.7399581687,
			"-0.002": 11.1347373371,
			"-0.001": 10.0183720035,
			"0.0": 9.85518289086,
			"0.001": 10.939275567,
			"0.002": 11.1712953574,
			"0.003": 11.8284427013,
			"0.004": 12.8689700276,
			"0.005": 14.8560954472,
			"0.006": 15.6756855219,
			"0.007": 5.98317381682,
			"0.008": 3.29450775742,
			"0.009": 2.74147401797,
			"0.01": 3.22374829123,
			"0.011": 3.16970011893,
			"0.012": 2.13818324204,
			"0.013": 1.97787359831,
			"0.014": 2.07325175646,
			"0.015": 1.33478652458,
			"0.016": 0.946553138625,
			"0.017": 0.570588229483,
			"0.018": 0.149691403569,
			"0.019": 0.0,
			"0.02": 0.0,
			"0.021": 0.0,
			"0.022": 0.0,
			"0.023": 0.0,
			"0.024": 0.0,
			"0.025": 0.0
		}
	}
}
