{
	 "smiles": "O=CC1=CC=C(C=C1)C1=CC=NC=C1", 
	 "Tm": 375.15, 
	 "num_atms": 23, 
	 "gaussian": { 
		 "optdone": 1, 
		 "sigma_profile": "yes", 
		 "theory": "DFT", 
		 "functional": "B3LYP", 
		 "basiset": "6-31G**", 
		 "properties": { 
			 "R2extent": 4074.9849, 
			 "electric_dipole_moment_norm": 1.71802731352, 
			 "electric_quadrupole_moment_norm": 22.5281520172, 
			 "total_energy": -592.668237228, 
			 "HOMO_LUMO_gap": 0.17622, 
			 "cosmo_polarized_energy": -11.58, 
			 "cosmo_cavitation_energy": 27.97, 
			 "cosmo_dispersion_energy": -20.33, 
			 "cosmo_repulsion_energy": 1.56, 
			 "cosmo_total_nonelectrostatic_energy": 9.2, 
			 "SMD_solvation_energy": 4.29 
		},
		"coords": [
			{
				"x": 2.122709692,
				"y": -4.2695450386,
				"z": 0.7911097582,
				"element": "O" 
			},
			{
				"x": 1.2978657438,
				"y": -3.8823541704,
				"z": -0.0146460489,
				"element": "C" 
			},
			{
				"x": 0.4953012718,
				"y": -2.6472953336,
				"z": 0.1332005803,
				"element": "C" 
			},
			{
				"x": 0.657018285,
				"y": -1.8262630912,
				"z": 1.2595205826,
				"element": "C" 
			},
			{
				"x": -0.0974883041,
				"y": -0.6690087524,
				"z": 1.392194126,
				"element": "C" 
			},
			{
				"x": -1.0349592529,
				"y": -0.3012660141,
				"z": 0.4064394201,
				"element": "C" 
			},
			{
				"x": -1.1908870511,
				"y": -1.1306148192,
				"z": -0.7176560214,
				"element": "C" 
			},
			{
				"x": -0.4330913311,
				"y": -2.2898927719,
				"z": -0.8523449957,
				"element": "C" 
			},
			{
				"x": -1.8401834854,
				"y": 0.9361859124,
				"z": 0.5519061451,
				"element": "C" 
			},
			{
				"x": -1.3005560129,
				"y": 2.1027099293,
				"z": 1.1150834596,
				"element": "C" 
			},
			{
				"x": -2.0994154611,
				"y": 3.23948798,
				"z": 1.2272251686,
				"element": "C" 
			},
			{
				"x": -3.3762587029,
				"y": 3.2992457852,
				"z": 0.8283210431,
				"element": "N" 
			},
			{
				"x": -3.890062763,
				"y": 2.1849133907,
				"z": 0.29236884,
				"element": "C" 
			},
			{
				"x": -3.1780512433,
				"y": 0.9972711096,
				"z": 0.1329417806,
				"element": "C" 
			},
			{
				"x": 1.09305835,
				"y": -4.4587312938,
				"z": -0.9445190636,
				"element": "H" 
			},
			{
				"x": 1.374982042,
				"y": -2.122758361,
				"z": 2.0176722546,
				"element": "H" 
			},
			{
				"x": 0.0150270757,
				"y": -0.0510098534,
				"z": 2.2776181684,
				"element": "H" 
			},
			{
				"x": -1.8899553044,
				"y": -0.8486615351,
				"z": -1.4986888892,
				"element": "H" 
			},
			{
				"x": -0.5541651625,
				"y": -2.9206242885,
				"z": -1.7301000586,
				"element": "H" 
			},
			{
				"x": -0.264990452,
				"y": 2.1355201171,
				"z": 1.4381632108,
				"element": "H" 
			},
			{
				"x": -1.6883838994,
				"y": 4.1514941337,
				"z": 1.6568106195,
				"element": "H" 
			},
			{
				"x": -4.9304317312,
				"y": 2.2407299967,
				"z": -0.0235632463,
				"element": "H" 
			},
			{
				"x": -3.6684823028,
				"y": 0.1249669685,
				"z": -0.2871568339,
				"element": "H" 
			}
		],
		 "valence_orbital": [ 
			{
				"type": "occ",
				"energy": -0.27535,
				"method": "rhf"
			},
			{
				"type": "occ",
				"energy": -0.27061,
				"method": "rhf"
			},
			{
				"type": "occ",
				"energy": -0.26117,
				"method": "rhf"
			},
			{
				"type": "occ",
				"energy": -0.26005,
				"method": "rhf"
			},
			{
				"type": "occ",
				"energy": -0.25611,
				"method": "rhf"
			},
			{
				"type": "unocc",
				"energy": -0.07989,
				"method": "rhf"
			},
			{
				"type": "unocc",
				"energy": -0.02691,
				"method": "rhf"
			},
			{
				"type": "unocc",
				"energy": -0.02428,
				"method": "rhf"
			},
			{
				"type": "unocc",
				"energy": -0.01888,
				"method": "rhf"
			},
			{
				"type": "unocc",
				"energy": 0.03965,
				"method": "rhf"
			}
		],
		"cosmo_sigma_profile": { 
			"-0.025": 0.0,
			"-0.024": 0.0,
			"-0.023": 0.0,
			"-0.022": 0.0,
			"-0.021": 0.0,
			"-0.02": 0.0,
			"-0.019": 0.0,
			"-0.018": 0.0,
			"-0.017": 0.0,
			"-0.016": 0.0,
			"-0.015": 0.0,
			"-0.014": 0.0,
			"-0.013": 0.0,
			"-0.012": 0.0,
			"-0.011": 0.0,
			"-0.01": 0.0,
			"-0.009": 0.0,
			"-0.008": 1.51149222463,
			"-0.007": 13.2591350844,
			"-0.006": 20.666736886,
			"-0.005": 18.4141282097,
			"-0.004": 14.8436890477,
			"-0.003": 13.3710147791,
			"-0.002": 11.6179556688,
			"-0.001": 13.8429124379,
			"0.0": 16.587400429,
			"0.001": 20.2240341211,
			"0.002": 27.8969164315,
			"0.003": 15.8831268254,
			"0.004": 4.33371277258,
			"0.005": 4.07725686658,
			"0.006": 2.53318400397,
			"0.007": 2.77360731442,
			"0.008": 2.88836136924,
			"0.009": 3.62165652158,
			"0.01": 3.57591975889,
			"0.011": 5.14037783345,
			"0.012": 3.78092753951,
			"0.013": 1.62100226137,
			"0.014": 0.816612087041,
			"0.015": 1.00025706038,
			"0.016": 0.722868255588,
			"0.017": 0.398707640149,
			"0.018": 0.0,
			"0.019": 0.0,
			"0.02": 0.0,
			"0.021": 0.0,
			"0.022": 0.0,
			"0.023": 0.0,
			"0.024": 0.0,
			"0.025": 0.0
		}
	}
}
