{
	 "smiles": "CCC1=C(C(=NN1)C(O)=O)[N+]([O-])=O", 
	 "Tm": 423.15, 
	 "num_atms": 20, 
	 "gaussian": { 
		 "optdone": 1, 
		 "sigma_profile": "yes", 
		 "theory": "DFT", 
		 "functional": "B3LYP", 
		 "basiset": "6-31G**", 
		 "properties": { 
			 "R2extent": 2793.666, 
			 "electric_dipole_moment_norm": 8.76660319223, 
			 "electric_quadrupole_moment_norm": 14.826133122, 
			 "total_energy": -697.893206669, 
			 "HOMO_LUMO_gap": 0.1854, 
			 "cosmo_polarized_energy": -23.87, 
			 "cosmo_cavitation_energy": 25.38, 
			 "cosmo_dispersion_energy": -18.54, 
			 "cosmo_repulsion_energy": 1.49, 
			 "cosmo_total_nonelectrostatic_energy": 8.33, 
			 "SMD_solvation_energy": 6.93 
		},
		"coords": [
			{
				"x": -2.5877534054,
				"y": 0.4157538467,
				"z": 2.7857900985,
				"element": "C" 
			},
			{
				"x": -1.7390747973,
				"y": -0.6743229523,
				"z": 2.1053739991,
				"element": "C" 
			},
			{
				"x": -0.3945419725,
				"y": -0.1895041396,
				"z": 1.6558995268,
				"element": "C" 
			},
			{
				"x": 0.0298046235,
				"y": 0.6642654118,
				"z": 0.6379751861,
				"element": "C" 
			},
			{
				"x": 1.4460595006,
				"y": 0.7451763122,
				"z": 0.7409006983,
				"element": "C" 
			},
			{
				"x": 1.8652663511,
				"y": -0.00448314,
				"z": 1.7583858222,
				"element": "N" 
			},
			{
				"x": 0.7501948133,
				"y": -0.5392711492,
				"z": 2.2902020357,
				"element": "N" 
			},
			{
				"x": 2.4971408338,
				"y": 1.3899637079,
				"z": -0.1168710993,
				"element": "C" 
			},
			{
				"x": 3.7232332976,
				"y": 1.382641627,
				"z": 0.4502155669,
				"element": "O" 
			},
			{
				"x": 2.2989887543,
				"y": 1.8414717812,
				"z": -1.2145233874,
				"element": "O" 
			},
			{
				"x": -0.8621331063,
				"y": 1.3581191024,
				"z": -0.2572475621,
				"element": "N" 
			},
			{
				"x": -0.4661451483,
				"y": 2.3880815385,
				"z": -0.7859014513,
				"element": "O" 
			},
			{
				"x": -1.9906329893,
				"y": 0.8682182274,
				"z": -0.4036222986,
				"element": "O" 
			},
			{
				"x": -2.0778219276,
				"y": 0.8332872581,
				"z": 3.6592975983,
				"element": "H" 
			},
			{
				"x": -3.539744366,
				"y": -0.0088607554,
				"z": 3.1164052037,
				"element": "H" 
			},
			{
				"x": -2.8041159434,
				"y": 1.2254277966,
				"z": 2.0858111202,
				"element": "H" 
			},
			{
				"x": -2.2719943901,
				"y": -1.0559393925,
				"z": 1.2315176805,
				"element": "H" 
			},
			{
				"x": -1.588243239,
				"y": -1.5153857246,
				"z": 2.7933173216,
				"element": "H" 
			},
			{
				"x": 0.8324910178,
				"y": -1.1589929907,
				"z": 3.083963916,
				"element": "H" 
			},
			{
				"x": 3.6731220931,
				"y": 0.9161536344,
				"z": 1.3028100246,
				"element": "H" 
			}
		],
		 "valence_orbital": [ 
			{
				"type": "occ",
				"energy": -0.31038,
				"method": "rhf"
			},
			{
				"type": "occ",
				"energy": -0.30646,
				"method": "rhf"
			},
			{
				"type": "occ",
				"energy": -0.30097,
				"method": "rhf"
			},
			{
				"type": "occ",
				"energy": -0.28891,
				"method": "rhf"
			},
			{
				"type": "occ",
				"energy": -0.27369,
				"method": "rhf"
			},
			{
				"type": "unocc",
				"energy": -0.08829,
				"method": "rhf"
			},
			{
				"type": "unocc",
				"energy": -0.04892,
				"method": "rhf"
			},
			{
				"type": "unocc",
				"energy": 0.00592,
				"method": "rhf"
			},
			{
				"type": "unocc",
				"energy": 0.03829,
				"method": "rhf"
			},
			{
				"type": "unocc",
				"energy": 0.08246,
				"method": "rhf"
			}
		],
		"cosmo_sigma_profile": { 
			"-0.025": 0.0,
			"-0.024": 0.0,
			"-0.023": 0.0,
			"-0.022": 0.0,
			"-0.021": 0.0,
			"-0.02": 0.0,
			"-0.019": 0.395322518937,
			"-0.018": 1.85493943111,
			"-0.017": 1.75925326505,
			"-0.016": 1.11143553656,
			"-0.015": 1.95846934773,
			"-0.014": 1.62589607138,
			"-0.013": 2.08038697505,
			"-0.012": 1.58768842346,
			"-0.011": 1.6241735041,
			"-0.01": 1.94655047575,
			"-0.009": 1.97749958423,
			"-0.008": 2.33702689347,
			"-0.007": 3.15170112169,
			"-0.006": 6.19218008753,
			"-0.005": 9.44862077073,
			"-0.004": 16.7699950538,
			"-0.003": 22.8836108158,
			"-0.002": 18.4745176452,
			"-0.001": 11.4100888872,
			"0.0": 11.4736567016,
			"0.001": 7.24930279923,
			"0.002": 5.55323653267,
			"0.003": 5.67480875338,
			"0.004": 5.38018209699,
			"0.005": 5.29728695452,
			"0.006": 6.37001853021,
			"0.007": 7.71098918782,
			"0.008": 9.57995127926,
			"0.009": 10.0492381399,
			"0.01": 8.36231322701,
			"0.011": 5.62459484126,
			"0.012": 4.68938502258,
			"0.013": 0.422355706702,
			"0.014": 0.0,
			"0.015": 0.0,
			"0.016": 0.0,
			"0.017": 0.0,
			"0.018": 0.0,
			"0.019": 0.0,
			"0.02": 0.0,
			"0.021": 0.0,
			"0.022": 0.0,
			"0.023": 0.0,
			"0.024": 0.0,
			"0.025": 0.0
		}
	}
}
