{
	 "smiles": "O=C1NC=C(C=C1)C#N", 
	 "Tm": 527.15, 
	 "num_atms": 13, 
	 "gaussian": { 
		 "optdone": 1, 
		 "sigma_profile": "yes", 
		 "theory": "DFT", 
		 "functional": "B3LYP", 
		 "basiset": "6-31G**", 
		 "properties": { 
			 "R2extent": 1325.7895, 
			 "electric_dipole_moment_norm": 1.71217637818, 
			 "electric_quadrupole_moment_norm": 23.6214784529, 
			 "total_energy": -415.759146359, 
			 "HOMO_LUMO_gap": 0.17448, 
			 "cosmo_polarized_energy": -17.65, 
			 "cosmo_cavitation_energy": 19.02, 
			 "cosmo_dispersion_energy": -13.64, 
			 "cosmo_repulsion_energy": 1.13, 
			 "cosmo_total_nonelectrostatic_energy": 6.5, 
			 "SMD_solvation_energy": 5.86 
		},
		"coords": [
			{
				"x": -1.2591859867,
				"y": -1.7826105238,
				"z": -1.1604735331,
				"element": "O" 
			},
			{
				"x": -0.8559577965,
				"y": -0.8314905117,
				"z": -0.5076236185,
				"element": "C" 
			},
			{
				"x": 0.4577206949,
				"y": -0.3340105006,
				"z": -0.7269637029,
				"element": "N" 
			},
			{
				"x": 1.0273982904,
				"y": 0.7068081695,
				"z": -0.0765986078,
				"element": "C" 
			},
			{
				"x": 0.326054667,
				"y": 1.384534431,
				"z": 0.893135151,
				"element": "C" 
			},
			{
				"x": -1.0148699177,
				"y": 0.9507997602,
				"z": 1.1845377669,
				"element": "C" 
			},
			{
				"x": -1.5749808921,
				"y": -0.0977782629,
				"z": 0.5223384528,
				"element": "C" 
			},
			{
				"x": 0.9237019958,
				"y": 2.482198022,
				"z": 1.5806741111,
				"element": "C" 
			},
			{
				"x": 1.4016452327,
				"y": 3.37929398,
				"z": 2.1479326664,
				"element": "N" 
			},
			{
				"x": 0.9747654823,
				"y": -0.8333174794,
				"z": -1.4413762237,
				"element": "H" 
			},
			{
				"x": 2.0413435105,
				"y": 0.9694739175,
				"z": -0.3557301015,
				"element": "H" 
			},
			{
				"x": -1.5746019345,
				"y": 1.4808449032,
				"z": 1.948906666,
				"element": "H" 
			},
			{
				"x": -2.5833333463,
				"y": -0.4335459052,
				"z": 0.7329409733,
				"element": "H" 
			}
		],
		 "valence_orbital": [ 
			{
				"type": "occ",
				"energy": -0.35269,
				"method": "rhf"
			},
			{
				"type": "occ",
				"energy": -0.34123,
				"method": "rhf"
			},
			{
				"type": "occ",
				"energy": -0.32134,
				"method": "rhf"
			},
			{
				"type": "occ",
				"energy": -0.27512,
				"method": "rhf"
			},
			{
				"type": "occ",
				"energy": -0.24353,
				"method": "rhf"
			},
			{
				"type": "unocc",
				"energy": -0.06905,
				"method": "rhf"
			},
			{
				"type": "unocc",
				"energy": -0.04078,
				"method": "rhf"
			},
			{
				"type": "unocc",
				"energy": 0.02079,
				"method": "rhf"
			},
			{
				"type": "unocc",
				"energy": 0.04702,
				"method": "rhf"
			},
			{
				"type": "unocc",
				"energy": 0.07088,
				"method": "rhf"
			}
		],
		"cosmo_sigma_profile": { 
			"-0.025": 0.0,
			"-0.024": 0.0,
			"-0.023": 0.0,
			"-0.022": 0.0,
			"-0.021": 0.0,
			"-0.02": 0.0,
			"-0.019": 0.0,
			"-0.018": 0.140742768803,
			"-0.017": 1.71101786253,
			"-0.016": 1.59556721876,
			"-0.015": 1.39371589427,
			"-0.014": 0.916642289755,
			"-0.013": 1.55561186646,
			"-0.012": 2.62502109978,
			"-0.011": 2.68786064655,
			"-0.01": 2.36161129426,
			"-0.009": 3.89540156144,
			"-0.008": 5.69598022582,
			"-0.007": 6.17225922083,
			"-0.006": 6.27357471386,
			"-0.005": 5.08648568997,
			"-0.004": 7.49136512785,
			"-0.003": 10.0989054431,
			"-0.002": 11.7101330638,
			"-0.001": 11.966675781,
			"0.0": 8.94817300315,
			"0.001": 6.36103834579,
			"0.002": 4.83244230924,
			"0.003": 3.43707930504,
			"0.004": 3.005705622,
			"0.005": 2.9421885954,
			"0.006": 3.4044053468,
			"0.007": 4.07349854204,
			"0.008": 4.86057358078,
			"0.009": 4.38294854607,
			"0.01": 4.22037504857,
			"0.011": 4.91119546081,
			"0.012": 5.09677483244,
			"0.013": 7.67373406881,
			"0.014": 2.57824215864,
			"0.015": 0.129081571528,
			"0.016": 0.0,
			"0.017": 0.0,
			"0.018": 0.0,
			"0.019": 0.0,
			"0.02": 0.0,
			"0.021": 0.0,
			"0.022": 0.0,
			"0.023": 0.0,
			"0.024": 0.0,
			"0.025": 0.0
		}
	}
}
