{
	 "smiles": "CC(CCC(=O)NCC(O)=O)C1CCC2C3C(O)CC4CC(O)CCC4(C)C3CC(O)C12C", 
	 "Tm": 439.15, 
	 "num_atms": 76, 
	 "gaussian": { 
		 "optdone": 1, 
		 "sigma_profile": "yes", 
		 "theory": "DFT", 
		 "functional": "B3LYP", 
		 "basiset": "6-31G**", 
		 "properties": { 
			 "R2extent": 18069.4362, 
			 "electric_dipole_moment_norm": 1.39872184869, 
			 "electric_quadrupole_moment_norm": 25.9334284544, 
			 "total_energy": -1522.81765533, 
			 "HOMO_LUMO_gap": 0.23585, 
			 "cosmo_polarized_energy": -24.26, 
			 "cosmo_cavitation_energy": 63.62, 
			 "cosmo_dispersion_energy": -43.55, 
			 "cosmo_repulsion_energy": 3.19, 
			 "cosmo_total_nonelectrostatic_energy": 23.27, 
			 "SMD_solvation_energy": 9.52 
		},
		"coords": [
			{
				"x": -2.3628925762,
				"y": 1.5590762072,
				"z": -3.9284783642,
				"element": "C" 
			},
			{
				"x": -1.1755538166,
				"y": 1.111555392,
				"z": -3.0509502913,
				"element": "C" 
			},
			{
				"x": -0.6764079994,
				"y": 2.3487789819,
				"z": -2.2592928316,
				"element": "C" 
			},
			{
				"x": 0.2622852055,
				"y": 3.2794736591,
				"z": -3.0709696131,
				"element": "C" 
			},
			{
				"x": 1.6740994066,
				"y": 2.7201753827,
				"z": -3.0910499357,
				"element": "C" 
			},
			{
				"x": 1.967806297,
				"y": 1.6554960454,
				"z": -3.6511742609,
				"element": "O" 
			},
			{
				"x": 2.6048534098,
				"y": 3.4229725743,
				"z": -2.3988125233,
				"element": "N" 
			},
			{
				"x": 3.9176836671,
				"y": 2.8737918391,
				"z": -2.1482809817,
				"element": "C" 
			},
			{
				"x": 4.6872243361,
				"y": 3.8221734363,
				"z": -1.2569022983,
				"element": "C" 
			},
			{
				"x": 5.9455651398,
				"y": 3.3928555994,
				"z": -1.0480520971,
				"element": "O" 
			},
			{
				"x": 4.2372922547,
				"y": 4.8408954855,
				"z": -0.7761080852,
				"element": "O" 
			},
			{
				"x": -1.5233039921,
				"y": -0.0807708044,
				"z": -2.1011105327,
				"element": "C" 
			},
			{
				"x": -2.6752724558,
				"y": -1.0078659428,
				"z": -2.6109687097,
				"element": "C" 
			},
			{
				"x": -2.4213246758,
				"y": -2.4238973455,
				"z": -2.037566254,
				"element": "C" 
			},
			{
				"x": -1.2126546186,
				"y": -2.2834695114,
				"z": -1.0874741565,
				"element": "C" 
			},
			{
				"x": -1.56114003,
				"y": -2.1523262059,
				"z": 0.4361821874,
				"element": "C" 
			},
			{
				"x": -2.696659897,
				"y": -1.197015286,
				"z": 0.8986663632,
				"element": "C" 
			},
			{
				"x": -3.9566611512,
				"y": -1.4393172138,
				"z": 0.266455137,
				"element": "O" 
			},
			{
				"x": -2.8836677934,
				"y": -1.2463846575,
				"z": 2.4236986774,
				"element": "C" 
			},
			{
				"x": -1.5945794429,
				"y": -0.9522096072,
				"z": 3.1964656383,
				"element": "C" 
			},
			{
				"x": -1.80500519,
				"y": -0.8973605105,
				"z": 4.7195934418,
				"element": "C" 
			},
			{
				"x": -0.5168650678,
				"y": -0.5002826024,
				"z": 5.4538092445,
				"element": "C" 
			},
			{
				"x": -0.6643768455,
				"y": -0.5672207716,
				"z": 6.8704090996,
				"element": "O" 
			},
			{
				"x": 0.6435343785,
				"y": -1.4207031403,
				"z": 5.0765117831,
				"element": "C" 
			},
			{
				"x": 0.8325857363,
				"y": -1.4902860064,
				"z": 3.5512005397,
				"element": "C" 
			},
			{
				"x": -0.4488920762,
				"y": -1.9234237223,
				"z": 2.789083864,
				"element": "C" 
			},
			{
				"x": -0.75587795,
				"y": -3.3929751726,
				"z": 3.1708926993,
				"element": "C" 
			},
			{
				"x": -0.253328095,
				"y": -1.8579923657,
				"z": 1.2346643708,
				"element": "C" 
			},
			{
				"x": 0.3710784758,
				"y": -0.5593395842,
				"z": 0.6849924941,
				"element": "C" 
			},
			{
				"x": 0.7682240818,
				"y": -0.7258461124,
				"z": -0.7811211905,
				"element": "C" 
			},
			{
				"x": 1.4919212578,
				"y": 0.44695687,
				"z": -1.1391686941,
				"element": "O" 
			},
			{
				"x": -0.3884626913,
				"y": -1.1182200169,
				"z": -1.7394833614,
				"element": "C" 
			},
			{
				"x": 0.2694048673,
				"y": -1.6447402222,
				"z": -3.0426218836,
				"element": "C" 
			},
			{
				"x": -2.1063284505,
				"y": 2.4674648041,
				"z": -4.4852260498,
				"element": "H" 
			},
			{
				"x": -3.2436536172,
				"y": 1.7900774152,
				"z": -3.3176142469,
				"element": "H" 
			},
			{
				"x": -2.6540334755,
				"y": 0.8074065045,
				"z": -4.6659041158,
				"element": "H" 
			},
			{
				"x": -0.3715024662,
				"y": 0.8022913638,
				"z": -3.7252959341,
				"element": "H" 
			},
			{
				"x": -1.547180296,
				"y": 2.9332521779,
				"z": -1.9340848347,
				"element": "H" 
			},
			{
				"x": -0.1449423651,
				"y": 2.0335010351,
				"z": -1.3592354239,
				"element": "H" 
			},
			{
				"x": 0.2586645313,
				"y": 4.2881181939,
				"z": -2.6427736014,
				"element": "H" 
			},
			{
				"x": -0.0837099458,
				"y": 3.3662038378,
				"z": -4.1065877032,
				"element": "H" 
			},
			{
				"x": 2.3623940301,
				"y": 4.2527107328,
				"z": -1.8733347368,
				"element": "H" 
			},
			{
				"x": 4.4740108661,
				"y": 2.7127000449,
				"z": -3.0787052859,
				"element": "H" 
			},
			{
				"x": 3.8466530286,
				"y": 1.8962147471,
				"z": -1.6521046959,
				"element": "H" 
			},
			{
				"x": 6.3677675114,
				"y": 4.0406344812,
				"z": -0.4588936809,
				"element": "H" 
			},
			{
				"x": -1.8712422822,
				"y": 0.3691613407,
				"z": -1.1645280863,
				"element": "H" 
			},
			{
				"x": -2.6870736448,
				"y": -1.0486384449,
				"z": -3.7033235124,
				"element": "H" 
			},
			{
				"x": -3.6461896785,
				"y": -0.6213918293,
				"z": -2.2943914056,
				"element": "H" 
			},
			{
				"x": -3.3016032156,
				"y": -2.8257171159,
				"z": -1.537347728,
				"element": "H" 
			},
			{
				"x": -2.1670165566,
				"y": -3.1197519673,
				"z": -2.8437224618,
				"element": "H" 
			},
			{
				"x": -0.6005771027,
				"y": -3.1948603866,
				"z": -1.1324618557,
				"element": "H" 
			},
			{
				"x": -1.913440674,
				"y": -3.1574044933,
				"z": 0.7126917442,
				"element": "H" 
			},
			{
				"x": -2.4594018472,
				"y": -0.1661988737,
				"z": 0.6225678189,
				"element": "H" 
			},
			{
				"x": -4.2531838506,
				"y": -2.3181366141,
				"z": 0.5407445051,
				"element": "H" 
			},
			{
				"x": -3.2738892036,
				"y": -2.2366757949,
				"z": 2.7027902956,
				"element": "H" 
			},
			{
				"x": -3.663741877,
				"y": -0.5238266847,
				"z": 2.6914341892,
				"element": "H" 
			},
			{
				"x": -1.2656502586,
				"y": 0.0541701745,
				"z": 2.893391628,
				"element": "H" 
			},
			{
				"x": -2.5991111019,
				"y": -0.1728384265,
				"z": 4.9519259755,
				"element": "H" 
			},
			{
				"x": -2.1446220763,
				"y": -1.8657554164,
				"z": 5.1071304608,
				"element": "H" 
			},
			{
				"x": -0.2524969533,
				"y": 0.5292415976,
				"z": 5.1504631958,
				"element": "H" 
			},
			{
				"x": -1.3945160568,
				"y": 0.0144611322,
				"z": 7.1192897126,
				"element": "H" 
			},
			{
				"x": 0.4487228587,
				"y": -2.4106263093,
				"z": 5.5040267119,
				"element": "H" 
			},
			{
				"x": 1.5597378554,
				"y": -1.0544876412,
				"z": 5.5529101915,
				"element": "H" 
			},
			{
				"x": 1.142201858,
				"y": -0.4967547622,
				"z": 3.2094743824,
				"element": "H" 
			},
			{
				"x": 1.6587037667,
				"y": -2.1709726619,
				"z": 3.3080344,
				"element": "H" 
			},
			{
				"x": 0.0833402258,
				"y": -4.0330087209,
				"z": 2.875627931,
				"element": "H" 
			},
			{
				"x": -1.6494677332,
				"y": -3.7847498704,
				"z": 2.6806272049,
				"element": "H" 
			},
			{
				"x": -0.8996144503,
				"y": -3.5241276198,
				"z": 4.2452341549,
				"element": "H" 
			},
			{
				"x": 0.4541552894,
				"y": -2.6645658526,
				"z": 0.9871881036,
				"element": "H" 
			},
			{
				"x": 1.2871117901,
				"y": -0.2982499347,
				"z": 1.2207467298,
				"element": "H" 
			},
			{
				"x": -0.3024558094,
				"y": 0.2986709149,
				"z": 0.7899530989,
				"element": "H" 
			},
			{
				"x": 1.4618134746,
				"y": -1.5867932193,
				"z": -0.8114860552,
				"element": "H" 
			},
			{
				"x": 1.6853633429,
				"y": 0.4514402941,
				"z": -2.0910442662,
				"element": "H" 
			},
			{
				"x": 0.865115482,
				"y": -2.5404740711,
				"z": -2.833695719,
				"element": "H" 
			},
			{
				"x": 0.9367642274,
				"y": -0.9037729045,
				"z": -3.4932209448,
				"element": "H" 
			},
			{
				"x": -0.4662072988,
				"y": -1.9072958476,
				"z": -3.8066095654,
				"element": "H" 
			}
		],
		 "valence_orbital": [ 
			{
				"type": "occ",
				"energy": -0.2626,
				"method": "rhf"
			},
			{
				"type": "occ",
				"energy": -0.26179,
				"method": "rhf"
			},
			{
				"type": "occ",
				"energy": -0.25108,
				"method": "rhf"
			},
			{
				"type": "occ",
				"energy": -0.24865,
				"method": "rhf"
			},
			{
				"type": "occ",
				"energy": -0.24354,
				"method": "rhf"
			},
			{
				"type": "unocc",
				"energy": -0.00769,
				"method": "rhf"
			},
			{
				"type": "unocc",
				"energy": 0.01848,
				"method": "rhf"
			},
			{
				"type": "unocc",
				"energy": 0.06303,
				"method": "rhf"
			},
			{
				"type": "unocc",
				"energy": 0.06342,
				"method": "rhf"
			},
			{
				"type": "unocc",
				"energy": 0.0765,
				"method": "rhf"
			}
		],
		"cosmo_sigma_profile": { 
			"-0.025": 0.0,
			"-0.024": 0.0,
			"-0.023": 0.0,
			"-0.022": 0.0,
			"-0.021": 0.0,
			"-0.02": 0.0,
			"-0.019": 0.545848693226,
			"-0.018": 0.890043267838,
			"-0.017": 1.26192636381,
			"-0.016": 0.651559021091,
			"-0.015": 1.21830320943,
			"-0.014": 2.19942415224,
			"-0.013": 2.15312824034,
			"-0.012": 2.98479344025,
			"-0.011": 3.95885670953,
			"-0.01": 4.16439451184,
			"-0.009": 2.95480029483,
			"-0.008": 5.50609753096,
			"-0.007": 6.63085123853,
			"-0.006": 9.45102966313,
			"-0.005": 11.2535366366,
			"-0.004": 17.3603489808,
			"-0.003": 31.9952733227,
			"-0.002": 71.2758114692,
			"-0.001": 71.4721071111,
			"0.0": 60.1042300757,
			"0.001": 48.6494211136,
			"0.002": 31.8955835866,
			"0.003": 14.9870251919,
			"0.004": 10.2307124208,
			"0.005": 9.17809564342,
			"0.006": 7.74966234084,
			"0.007": 7.93953961296,
			"0.008": 8.13327808093,
			"0.009": 8.31814515375,
			"0.01": 8.02868781209,
			"0.011": 6.64857304633,
			"0.012": 5.78639719048,
			"0.013": 5.42447063029,
			"0.014": 4.1231829893,
			"0.015": 2.12262988607,
			"0.016": 0.00423112547227,
			"0.017": 0.0,
			"0.018": 0.0,
			"0.019": 0.0,
			"0.02": 0.0,
			"0.021": 0.0,
			"0.022": 0.0,
			"0.023": 0.0,
			"0.024": 0.0,
			"0.025": 0.0
		}
	}
}
