{
	 "smiles": "FCC(F)(F)F", 
	 "Tm": 172.15, 
	 "num_atms": 8, 
	 "gaussian": { 
		 "optdone": 1, 
		 "sigma_profile": "yes", 
		 "theory": "DFT", 
		 "functional": "B3LYP", 
		 "basiset": "6-31G**", 
		 "properties": { 
			 "R2extent": 1289.1422, 
			 "electric_dipole_moment_norm": 1.812786336, 
			 "electric_quadrupole_moment_norm": 4.12176316641, 
			 "total_energy": -476.768677756, 
			 "HOMO_LUMO_gap": 0.42839, 
			 "cosmo_polarized_energy": -3.8, 
			 "cosmo_cavitation_energy": 13.73, 
			 "cosmo_dispersion_energy": -9.64, 
			 "cosmo_repulsion_energy": 0.78, 
			 "cosmo_total_nonelectrostatic_energy": 4.87, 
			 "SMD_solvation_energy": 4.37 
		},
		"coords": [
			{
				"x": -1.9685622498,
				"y": -1.7494907557,
				"z": -0.0566993834,
				"element": "F" 
			},
			{
				"x": -0.6581433705,
				"y": -1.587861164,
				"z": -0.4424126607,
				"element": "C" 
			},
			{
				"x": 0.2570273776,
				"y": -2.1455272769,
				"z": 0.6337195668,
				"element": "C" 
			},
			{
				"x": 0.0425659555,
				"y": -3.4567085336,
				"z": 0.8364256655,
				"element": "F" 
			},
			{
				"x": 1.540310152,
				"y": -1.9820075279,
				"z": 0.2451423044,
				"element": "F" 
			},
			{
				"x": 0.0882052099,
				"y": -1.5105146937,
				"z": 1.8061319942,
				"element": "F" 
			},
			{
				"x": -0.4732129874,
				"y": -2.1273527396,
				"z": -1.3767720579,
				"element": "H" 
			},
			{
				"x": -0.4357900874,
				"y": -0.5246373085,
				"z": -0.5780354289,
				"element": "H" 
			}
		],
		 "valence_orbital": [ 
			{
				"type": "occ",
				"energy": -0.42621,
				"method": "rhf"
			},
			{
				"type": "occ",
				"energy": -0.42504,
				"method": "rhf"
			},
			{
				"type": "occ",
				"energy": -0.40786,
				"method": "rhf"
			},
			{
				"type": "occ",
				"energy": -0.36572,
				"method": "rhf"
			},
			{
				"type": "occ",
				"energy": -0.35685,
				"method": "rhf"
			},
			{
				"type": "unocc",
				"energy": 0.07154,
				"method": "rhf"
			},
			{
				"type": "unocc",
				"energy": 0.10923,
				"method": "rhf"
			},
			{
				"type": "unocc",
				"energy": 0.11504,
				"method": "rhf"
			},
			{
				"type": "unocc",
				"energy": 0.19976,
				"method": "rhf"
			},
			{
				"type": "unocc",
				"energy": 0.20413,
				"method": "rhf"
			}
		],
		"cosmo_sigma_profile": { 
			"-0.025": 0.0,
			"-0.024": 0.0,
			"-0.023": 0.0,
			"-0.022": 0.0,
			"-0.021": 0.0,
			"-0.02": 0.0,
			"-0.019": 0.0,
			"-0.018": 0.0,
			"-0.017": 0.0,
			"-0.016": 0.0,
			"-0.015": 0.0,
			"-0.014": 0.0,
			"-0.013": 0.0,
			"-0.012": 0.0,
			"-0.011": 0.0,
			"-0.01": 0.607016102716,
			"-0.009": 5.47197142221,
			"-0.008": 4.91156102927,
			"-0.007": 4.81897564089,
			"-0.006": 3.95402772863,
			"-0.005": 2.69641834983,
			"-0.004": 2.56168343657,
			"-0.003": 1.61633496613,
			"-0.002": 3.20424034638,
			"-0.001": 4.09165415454,
			"0.0": 4.09377791478,
			"0.001": 9.13733588418,
			"0.002": 28.571765393,
			"0.003": 20.3508177393,
			"0.004": 6.04784671854,
			"0.005": 7.15127197143,
			"0.006": 0.272138515634,
			"0.007": 0.0,
			"0.008": 0.0,
			"0.009": 0.0,
			"0.01": 0.0,
			"0.011": 0.0,
			"0.012": 0.0,
			"0.013": 0.0,
			"0.014": 0.0,
			"0.015": 0.0,
			"0.016": 0.0,
			"0.017": 0.0,
			"0.018": 0.0,
			"0.019": 0.0,
			"0.02": 0.0,
			"0.021": 0.0,
			"0.022": 0.0,
			"0.023": 0.0,
			"0.024": 0.0,
			"0.025": 0.0
		}
	}
}
