{
	 "smiles": "CC(=CC(O)=O)C1=C(OC(F)F)C=CC=C1", 
	 "Tm": 343.15, 
	 "num_atms": 26, 
	 "gaussian": { 
		 "optdone": 1, 
		 "sigma_profile": "yes", 
		 "theory": "DFT", 
		 "functional": "B3LYP", 
		 "basiset": "6-31G**", 
		 "properties": { 
			 "R2extent": 4047.7527, 
			 "electric_dipole_moment_norm": 2.65905144553, 
			 "electric_quadrupole_moment_norm": 10.2325328643, 
			 "total_energy": -850.542253171, 
			 "HOMO_LUMO_gap": 0.19139, 
			 "cosmo_polarized_energy": -13.18, 
			 "cosmo_cavitation_energy": 31.74, 
			 "cosmo_dispersion_energy": -21.68, 
			 "cosmo_repulsion_energy": 1.68, 
			 "cosmo_total_nonelectrostatic_energy": 11.74, 
			 "SMD_solvation_energy": 7.96 
		},
		"coords": [
			{
				"x": 0.1159834898,
				"y": 1.2491058504,
				"z": 2.6069873741,
				"element": "C" 
			},
			{
				"x": 0.4886936545,
				"y": 0.3260982284,
				"z": 1.470362002,
				"element": "C" 
			},
			{
				"x": 1.7870806103,
				"y": 0.0681699023,
				"z": 1.2153316104,
				"element": "C" 
			},
			{
				"x": 2.3191044322,
				"y": -0.749963706,
				"z": 0.1060220646,
				"element": "C" 
			},
			{
				"x": 3.6813834829,
				"y": -0.7470458483,
				"z": 0.1369192098,
				"element": "O" 
			},
			{
				"x": 1.7012132606,
				"y": -1.3548390681,
				"z": -0.7478226961,
				"element": "O" 
			},
			{
				"x": -0.6515541294,
				"y": -0.287000713,
				"z": 0.725648478,
				"element": "C" 
			},
			{
				"x": -1.5548291881,
				"y": 0.4980373361,
				"z": -0.0077591328,
				"element": "C" 
			},
			{
				"x": -1.2684478564,
				"y": 1.8572548874,
				"z": -0.0919205038,
				"element": "O" 
			},
			{
				"x": -2.3232869667,
				"y": 2.7342894433,
				"z": -0.108830182,
				"element": "C" 
			},
			{
				"x": -2.7582446534,
				"y": 2.9433355788,
				"z": -1.3835825804,
				"element": "F" 
			},
			{
				"x": -1.8592074508,
				"y": 3.9108013583,
				"z": 0.3584932758,
				"element": "F" 
			},
			{
				"x": -2.6527309938,
				"y": -0.0631069142,
				"z": -0.6612512931,
				"element": "C" 
			},
			{
				"x": -2.8840351051,
				"y": -1.4345738097,
				"z": -0.5519687645,
				"element": "C" 
			},
			{
				"x": -2.0093378877,
				"y": -2.2355350559,
				"z": 0.1813588051,
				"element": "C" 
			},
			{
				"x": -0.9001210295,
				"y": -1.6634520892,
				"z": 0.8015431373,
				"element": "C" 
			},
			{
				"x": -0.5655877209,
				"y": 0.7457926491,
				"z": 3.3027693668,
				"element": "H" 
			},
			{
				"x": -0.4053181317,
				"y": 2.1316319516,
				"z": 2.2233633266,
				"element": "H" 
			},
			{
				"x": 0.9984082651,
				"y": 1.5817670414,
				"z": 3.158930108,
				"element": "H" 
			},
			{
				"x": 2.5453981875,
				"y": 0.5251519226,
				"z": 1.84383455,
				"element": "H" 
			},
			{
				"x": 3.9599966738,
				"y": -1.287577091,
				"z": -0.6206514518,
				"element": "H" 
			},
			{
				"x": -3.1721819765,
				"y": 2.3937586578,
				"z": 0.4956331646,
				"element": "H" 
			},
			{
				"x": -3.2958631172,
				"y": 0.5616434774,
				"z": -1.2703731876,
				"element": "H" 
			},
			{
				"x": -3.740439705,
				"y": -1.8732428514,
				"z": -1.0550324509,
				"element": "H" 
			},
			{
				"x": -2.1810261638,
				"y": -3.3043368862,
				"z": 0.2607607428,
				"element": "H" 
			},
			{
				"x": -0.2088499809,
				"y": -2.2851642517,
				"z": 1.360635027,
				"element": "H" 
			}
		],
		 "valence_orbital": [ 
			{
				"type": "occ",
				"energy": -0.31212,
				"method": "rhf"
			},
			{
				"type": "occ",
				"energy": -0.28091,
				"method": "rhf"
			},
			{
				"type": "occ",
				"energy": -0.2687,
				"method": "rhf"
			},
			{
				"type": "occ",
				"energy": -0.25024,
				"method": "rhf"
			},
			{
				"type": "occ",
				"energy": -0.24172,
				"method": "rhf"
			},
			{
				"type": "unocc",
				"energy": -0.05033,
				"method": "rhf"
			},
			{
				"type": "unocc",
				"energy": -0.00924,
				"method": "rhf"
			},
			{
				"type": "unocc",
				"energy": -0.00304,
				"method": "rhf"
			},
			{
				"type": "unocc",
				"energy": 0.08589,
				"method": "rhf"
			},
			{
				"type": "unocc",
				"energy": 0.08831,
				"method": "rhf"
			}
		],
		"cosmo_sigma_profile": { 
			"-0.025": 0.0,
			"-0.024": 0.0,
			"-0.023": 0.0,
			"-0.022": 0.0,
			"-0.021": 0.0,
			"-0.02": 0.0,
			"-0.019": 0.0,
			"-0.018": 0.217139339612,
			"-0.017": 0.955452741126,
			"-0.016": 0.76046098493,
			"-0.015": 1.14141151065,
			"-0.014": 0.586546360355,
			"-0.013": 0.537987953811,
			"-0.012": 0.730250817875,
			"-0.011": 0.702598804852,
			"-0.01": 3.34365496355,
			"-0.009": 2.85307170447,
			"-0.008": 2.00323916182,
			"-0.007": 5.19617909451,
			"-0.006": 13.2337789342,
			"-0.005": 14.6958166386,
			"-0.004": 17.0402186091,
			"-0.003": 15.9839146628,
			"-0.002": 19.4896305414,
			"-0.001": 18.7673347051,
			"0.0": 16.1761184347,
			"0.001": 15.9981733718,
			"0.002": 17.0002963901,
			"0.003": 26.8800031623,
			"0.004": 23.9024786913,
			"0.005": 7.06014958705,
			"0.006": 4.57604543827,
			"0.007": 3.78638032865,
			"0.008": 3.57253536074,
			"0.009": 3.73313090226,
			"0.01": 3.07828092569,
			"0.011": 2.58330584081,
			"0.012": 4.93017489216,
			"0.013": 1.49754172622,
			"0.014": 0.0,
			"0.015": 0.0,
			"0.016": 0.0,
			"0.017": 0.0,
			"0.018": 0.0,
			"0.019": 0.0,
			"0.02": 0.0,
			"0.021": 0.0,
			"0.022": 0.0,
			"0.023": 0.0,
			"0.024": 0.0,
			"0.025": 0.0
		}
	}
}
