{
	 "smiles": "COC(=O)C1=CC(NS(=O)(=O)C2=CC=CS2)=CC(NS(=O)(=O)C2=CC=CS2)=C1", 
	 "Tm": 525.15, 
	 "num_atms": 42, 
	 "gaussian": { 
		 "optdone": 1, 
		 "sigma_profile": "yes", 
		 "theory": "DFT", 
		 "functional": "B3LYP", 
		 "basiset": "6-31G**", 
		 "properties": { 
			 "R2extent": 14038.1451, 
			 "electric_dipole_moment_norm": 3.89946072938, 
			 "electric_quadrupole_moment_norm": 32.8994020303, 
			 "total_energy": -2771.56376066, 
			 "HOMO_LUMO_gap": 0.17641, 
			 "cosmo_polarized_energy": -26.8, 
			 "cosmo_cavitation_energy": 52.71, 
			 "cosmo_dispersion_energy": -37.33, 
			 "cosmo_repulsion_energy": 2.64, 
			 "cosmo_total_nonelectrostatic_energy": 18.02, 
			 "SMD_solvation_energy": 9.05 
		},
		"coords": [
			{
				"x": -0.3930243328,
				"y": 3.9432964652,
				"z": 5.8168387282,
				"element": "C" 
			},
			{
				"x": -0.6259916014,
				"y": 3.2076936824,
				"z": 4.6047548886,
				"element": "O" 
			},
			{
				"x": -0.0338730591,
				"y": 1.9947446764,
				"z": 4.5449143746,
				"element": "C" 
			},
			{
				"x": 0.647357843,
				"y": 1.5405121237,
				"z": 5.443047283,
				"element": "O" 
			},
			{
				"x": -0.3134715821,
				"y": 1.2861297584,
				"z": 3.2610778169,
				"element": "C" 
			},
			{
				"x": 0.2545516482,
				"y": 0.0216363799,
				"z": 3.0902045149,
				"element": "C" 
			},
			{
				"x": 0.0133848061,
				"y": -0.6923671779,
				"z": 1.912561811,
				"element": "C" 
			},
			{
				"x": 0.5550522163,
				"y": -1.993107192,
				"z": 1.7721635728,
				"element": "N" 
			},
			{
				"x": 1.3108711912,
				"y": -2.5609416945,
				"z": 0.355641496,
				"element": "S" 
			},
			{
				"x": 0.32910559,
				"y": -2.4693134709,
				"z": -0.7223860392,
				"element": "O" 
			},
			{
				"x": 1.910849406,
				"y": -3.8255636159,
				"z": 0.7761337711,
				"element": "O" 
			},
			{
				"x": 2.6141875431,
				"y": -1.4297695468,
				"z": -0.0187467632,
				"element": "C" 
			},
			{
				"x": 2.5038917795,
				"y": -0.2690548297,
				"z": -0.7458269905,
				"element": "C" 
			},
			{
				"x": 3.7368113906,
				"y": 0.4412045009,
				"z": -0.7955941048,
				"element": "C" 
			},
			{
				"x": 4.7414592401,
				"y": -0.1882737688,
				"z": -0.1077402528,
				"element": "C" 
			},
			{
				"x": 4.2204142055,
				"y": -1.6703371503,
				"z": 0.6155877654,
				"element": "S" 
			},
			{
				"x": -0.8030279031,
				"y": -0.1459557335,
				"z": 0.9146825852,
				"element": "C" 
			},
			{
				"x": -1.31553873,
				"y": 1.1453384487,
				"z": 1.0695551543,
				"element": "C" 
			},
			{
				"x": -2.1400109921,
				"y": 1.7157525432,
				"z": 0.0658351135,
				"element": "N" 
			},
			{
				"x": -1.681227836,
				"y": 1.8331815116,
				"z": -1.5763821254,
				"element": "S" 
			},
			{
				"x": -0.2818617123,
				"y": 1.426687679,
				"z": -1.7109951597,
				"element": "O" 
			},
			{
				"x": -2.1648291105,
				"y": 3.1544236211,
				"z": -1.9799554541,
				"element": "O" 
			},
			{
				"x": -2.664569056,
				"y": 0.6346393347,
				"z": -2.4196585248,
				"element": "C" 
			},
			{
				"x": -3.9158387812,
				"y": 0.8638641983,
				"z": -2.9374702089,
				"element": "C" 
			},
			{
				"x": -4.4495217521,
				"y": -0.2929939946,
				"z": -3.5682829506,
				"element": "C" 
			},
			{
				"x": -3.5921718739,
				"y": -1.3626549553,
				"z": -3.5150274383,
				"element": "C" 
			},
			{
				"x": -2.1116123949,
				"y": -0.9900670072,
				"z": -2.7071293971,
				"element": "S" 
			},
			{
				"x": -1.0796683482,
				"y": 1.8653788473,
				"z": 2.2453793472,
				"element": "C" 
			},
			{
				"x": -0.7694662871,
				"y": 3.3893439595,
				"z": 6.6802759952,
				"element": "H" 
			},
			{
				"x": -0.9323467659,
				"y": 4.8828369311,
				"z": 5.6984403783,
				"element": "H" 
			},
			{
				"x": 0.675225969,
				"y": 4.1273643873,
				"z": 5.9547807326,
				"element": "H" 
			},
			{
				"x": 0.8741399786,
				"y": -0.3837499169,
				"z": 3.883407289,
				"element": "H" 
			},
			{
				"x": 1.0599406534,
				"y": -2.3380282219,
				"z": 2.5823900564,
				"element": "H" 
			},
			{
				"x": 1.5871757894,
				"y": 0.0620449852,
				"z": -1.2191982151,
				"element": "H" 
			},
			{
				"x": 3.8683479503,
				"y": 1.3767975785,
				"z": -1.3261129308,
				"element": "H" 
			},
			{
				"x": 5.7719335238,
				"y": 0.1229701531,
				"z": 0.0004665535,
				"element": "H" 
			},
			{
				"x": -1.0354242299,
				"y": -0.7342903794,
				"z": 0.0381748552,
				"element": "H" 
			},
			{
				"x": -2.5698115496,
				"y": 2.5992805376,
				"z": 0.3215421861,
				"element": "H" 
			},
			{
				"x": -4.4132333446,
				"y": 1.8237578922,
				"z": -2.8739011969,
				"element": "H" 
			},
			{
				"x": -5.4217718268,
				"y": -0.3278448919,
				"z": -4.0453783543,
				"element": "H" 
			},
			{
				"x": -3.7393962996,
				"y": -2.3556565527,
				"z": -3.9183198475,
				"element": "H" 
			},
			{
				"x": -1.4820113551,
				"y": 2.863589905,
				"z": 2.3749496849,
				"element": "H" 
			}
		],
		 "valence_orbital": [ 
			{
				"type": "occ",
				"energy": -0.26937,
				"method": "rhf"
			},
			{
				"type": "occ",
				"energy": -0.2651,
				"method": "rhf"
			},
			{
				"type": "occ",
				"energy": -0.261,
				"method": "rhf"
			},
			{
				"type": "occ",
				"energy": -0.24823,
				"method": "rhf"
			},
			{
				"type": "occ",
				"energy": -0.23418,
				"method": "rhf"
			},
			{
				"type": "unocc",
				"energy": -0.05777,
				"method": "rhf"
			},
			{
				"type": "unocc",
				"energy": -0.05327,
				"method": "rhf"
			},
			{
				"type": "unocc",
				"energy": -0.04831,
				"method": "rhf"
			},
			{
				"type": "unocc",
				"energy": -0.01827,
				"method": "rhf"
			},
			{
				"type": "unocc",
				"energy": 0.01079,
				"method": "rhf"
			}
		],
		"cosmo_sigma_profile": { 
			"-0.025": 0.0,
			"-0.024": 0.0,
			"-0.023": 0.0,
			"-0.022": 0.0,
			"-0.021": 0.0,
			"-0.02": 0.0,
			"-0.019": 0.0,
			"-0.018": 0.0,
			"-0.017": 0.0411481312933,
			"-0.016": 1.27565418524,
			"-0.015": 2.59513791826,
			"-0.014": 1.99790628825,
			"-0.013": 2.47172960808,
			"-0.012": 2.90007240967,
			"-0.011": 2.3308375705,
			"-0.01": 5.04812936996,
			"-0.009": 8.18172940394,
			"-0.008": 10.3059046395,
			"-0.007": 14.5962353602,
			"-0.006": 19.3241933348,
			"-0.005": 19.7970538336,
			"-0.004": 22.3099987198,
			"-0.003": 22.2878579982,
			"-0.002": 21.6207551161,
			"-0.001": 24.4686159752,
			"0.0": 28.5637681835,
			"0.001": 44.6564892591,
			"0.002": 51.7024878216,
			"0.003": 28.0250074386,
			"0.004": 14.8844565262,
			"0.005": 12.2073202496,
			"0.006": 11.3931707418,
			"0.007": 9.62553676401,
			"0.008": 7.52137856296,
			"0.009": 12.524953456,
			"0.01": 14.7177077221,
			"0.011": 8.28568868724,
			"0.012": 2.68335857551,
			"0.013": 0.00907297819521,
			"0.014": 0.0,
			"0.015": 0.0,
			"0.016": 0.0,
			"0.017": 0.0,
			"0.018": 0.0,
			"0.019": 0.0,
			"0.02": 0.0,
			"0.021": 0.0,
			"0.022": 0.0,
			"0.023": 0.0,
			"0.024": 0.0,
			"0.025": 0.0
		}
	}
}
