{
	 "smiles": "CC(C)[C@@H](N)C(=O)NCC(C)(C)SCC(=O)O[C@@H]1C[C@@](C)(C=C)[C@@H](O)[C@H](C)[C@@]23CCC(=O)[C@H]2[C@@]1(C)[C@H](C)CC3", 
	 "Tm": 414.15, 
	 "num_atms": 91, 
	 "gaussian": { 
		 "optdone": 1, 
		 "sigma_profile": "yes", 
		 "theory": "DFT", 
		 "functional": "B3LYP", 
		 "basiset": "6-31G**", 
		 "properties": { 
			 "R2extent": 23218.4605, 
			 "electric_dipole_moment_norm": 8.1835012568, 
			 "electric_quadrupole_moment_norm": 39.2297369762, 
			 "total_energy": -2096.35248908, 
			 "HOMO_LUMO_gap": 0.19688, 
			 "cosmo_polarized_energy": -29.48, 
			 "cosmo_cavitation_energy": 77.96, 
			 "cosmo_dispersion_energy": -46.95, 
			 "cosmo_repulsion_energy": 3.36, 
			 "cosmo_total_nonelectrostatic_energy": 34.37, 
			 "SMD_solvation_energy": 12.29 
		},
		"coords": [
			{
				"x": 0.6853116795,
				"y": -4.1898033789,
				"z": -1.2195521446,
				"element": "C" 
			},
			{
				"x": 1.9414414865,
				"y": -3.758130028,
				"z": -1.9903570029,
				"element": "C" 
			},
			{
				"x": 2.9445975418,
				"y": -3.0675839194,
				"z": -1.0542484402,
				"element": "C" 
			},
			{
				"x": 1.5692522493,
				"y": -2.8605020672,
				"z": -3.1896780957,
				"element": "C" 
			},
			{
				"x": 2.7841662797,
				"y": -2.3162858763,
				"z": -3.8323953243,
				"element": "N" 
			},
			{
				"x": 0.8161628611,
				"y": -3.6707270041,
				"z": -4.2620386142,
				"element": "C" 
			},
			{
				"x": 0.8391651984,
				"y": -4.8941476665,
				"z": -4.3125197527,
				"element": "O" 
			},
			{
				"x": 0.1318805988,
				"y": -2.9659442839,
				"z": -5.2280014644,
				"element": "N" 
			},
			{
				"x": -0.056281913,
				"y": -1.5400185998,
				"z": -5.4088217164,
				"element": "C" 
			},
			{
				"x": -1.5376841212,
				"y": -1.0908589027,
				"z": -5.5312213093,
				"element": "C" 
			},
			{
				"x": -2.2800236905,
				"y": -1.9251292434,
				"z": -6.5905052264,
				"element": "C" 
			},
			{
				"x": -1.5653925218,
				"y": 0.3910533764,
				"z": -5.9212253278,
				"element": "C" 
			},
			{
				"x": -2.4783280397,
				"y": -1.424341167,
				"z": -3.9376464899,
				"element": "S" 
			},
			{
				"x": -2.4198914951,
				"y": 0.1266992694,
				"z": -2.9596357207,
				"element": "C" 
			},
			{
				"x": -1.110079491,
				"y": 0.3755730059,
				"z": -2.233678114,
				"element": "C" 
			},
			{
				"x": -0.0275280267,
				"y": 0.4645719751,
				"z": -2.7872068296,
				"element": "O" 
			},
			{
				"x": -1.3135334732,
				"y": 0.506321681,
				"z": -0.9149557241,
				"element": "O" 
			},
			{
				"x": -0.1593609699,
				"y": 0.6968888172,
				"z": -0.0267842421,
				"element": "C" 
			},
			{
				"x": -0.187907522,
				"y": -0.4519152752,
				"z": 1.0396865479,
				"element": "C" 
			},
			{
				"x": -0.6367826889,
				"y": -0.4458262569,
				"z": 2.6021040194,
				"element": "C" 
			},
			{
				"x": -2.0104503839,
				"y": -1.1711426727,
				"z": 2.6374834574,
				"element": "C" 
			},
			{
				"x": 0.4432945609,
				"y": -1.30140664,
				"z": 3.263196362,
				"element": "C" 
			},
			{
				"x": 0.2748975512,
				"y": -2.4095988835,
				"z": 3.9921641189,
				"element": "C" 
			},
			{
				"x": -0.8703895919,
				"y": 0.8311867235,
				"z": 3.6076415472,
				"element": "C" 
			},
			{
				"x": -1.1552326253,
				"y": 0.2508438425,
				"z": 4.8864338095,
				"element": "O" 
			},
			{
				"x": 0.1491886349,
				"y": 2.0038702555,
				"z": 3.9214673409,
				"element": "C" 
			},
			{
				"x": -0.4874017632,
				"y": 2.8988085566,
				"z": 5.0068961768,
				"element": "C" 
			},
			{
				"x": 0.8438021034,
				"y": 2.9122320722,
				"z": 2.8263347536,
				"element": "C" 
			},
			{
				"x": 2.3099313303,
				"y": 3.1374356536,
				"z": 3.3081408336,
				"element": "C" 
			},
			{
				"x": 3.0470912226,
				"y": 1.8353919395,
				"z": 2.938236261,
				"element": "C" 
			},
			{
				"x": 2.2562921922,
				"y": 1.2150127025,
				"z": 1.7726707411,
				"element": "C" 
			},
			{
				"x": 2.6607681193,
				"y": 0.2829056067,
				"z": 1.1064168539,
				"element": "O" 
			},
			{
				"x": 1.0715826844,
				"y": 2.1573874317,
				"z": 1.532674503,
				"element": "C" 
			},
			{
				"x": -0.2065539073,
				"y": 2.0828282749,
				"z": 0.6148448084,
				"element": "C" 
			},
			{
				"x": -1.6702035664,
				"y": 2.1947858966,
				"z": 1.1628940924,
				"element": "C" 
			},
			{
				"x": -0.0352522387,
				"y": 3.4278336183,
				"z": -0.1876027553,
				"element": "C" 
			},
			{
				"x": 1.0117095868,
				"y": 3.4240769662,
				"z": -1.3116298771,
				"element": "C" 
			},
			{
				"x": 0.2760327238,
				"y": 4.5754522581,
				"z": 0.8733524123,
				"element": "C" 
			},
			{
				"x": 0.1560587618,
				"y": 4.2613237277,
				"z": 2.4060612536,
				"element": "C" 
			},
			{
				"x": 0.9527801587,
				"y": -4.8549570709,
				"z": -0.391433496,
				"element": "H" 
			},
			{
				"x": -0.0138398957,
				"y": -4.7248828023,
				"z": -1.8665111253,
				"element": "H" 
			},
			{
				"x": 0.1667229465,
				"y": -3.323193573,
				"z": -0.7893304778,
				"element": "H" 
			},
			{
				"x": 2.413372539,
				"y": -4.6527327105,
				"z": -2.4102143275,
				"element": "H" 
			},
			{
				"x": 2.5595236863,
				"y": -2.1170949982,
				"z": -0.6624163932,
				"element": "H" 
			},
			{
				"x": 3.1603685399,
				"y": -3.7085471333,
				"z": -0.1926909162,
				"element": "H" 
			},
			{
				"x": 3.8943458221,
				"y": -2.8700648068,
				"z": -1.5594605757,
				"element": "H" 
			},
			{
				"x": 0.897527862,
				"y": -2.0655531396,
				"z": -2.8228239166,
				"element": "H" 
			},
			{
				"x": 3.1716413006,
				"y": -1.5817586692,
				"z": -3.2462940217,
				"element": "H" 
			},
			{
				"x": 2.5529622901,
				"y": -1.8769527958,
				"z": -4.7191581293,
				"element": "H" 
			},
			{
				"x": -0.244196677,
				"y": -3.582439411,
				"z": -5.937104196,
				"element": "H" 
			},
			{
				"x": 0.4048393865,
				"y": -0.9988515171,
				"z": -4.5839192917,
				"element": "H" 
			},
			{
				"x": 0.4470906784,
				"y": -1.2180958069,
				"z": -6.3359169717,
				"element": "H" 
			},
			{
				"x": -1.727429903,
				"y": -1.9020061411,
				"z": -7.5382454678,
				"element": "H" 
			},
			{
				"x": -3.2811127426,
				"y": -1.524077118,
				"z": -6.7670191474,
				"element": "H" 
			},
			{
				"x": -2.3924116439,
				"y": -2.9704762392,
				"z": -6.2869523095,
				"element": "H" 
			},
			{
				"x": -2.5905318387,
				"y": 0.7701879724,
				"z": -5.9713921173,
				"element": "H" 
			},
			{
				"x": -1.1195766083,
				"y": 0.5130913659,
				"z": -6.9152422523,
				"element": "H" 
			},
			{
				"x": -0.9886302427,
				"y": 1.0016586752,
				"z": -5.2213784703,
				"element": "H" 
			},
			{
				"x": -3.2325853051,
				"y": 0.0326806526,
				"z": -2.2375374499,
				"element": "H" 
			},
			{
				"x": -2.6329439075,
				"y": 0.9863779798,
				"z": -3.5999069382,
				"element": "H" 
			},
			{
				"x": 0.7331869012,
				"y": 0.5584686979,
				"z": -0.6368008504,
				"element": "H" 
			},
			{
				"x": -0.8076837906,
				"y": -1.231137738,
				"z": 0.5901778303,
				"element": "H" 
			},
			{
				"x": 0.8230281475,
				"y": -0.8495143521,
				"z": 1.0203880989,
				"element": "H" 
			},
			{
				"x": -1.9245668439,
				"y": -2.173469007,
				"z": 2.2086355134,
				"element": "H" 
			},
			{
				"x": -2.3970046845,
				"y": -1.2526507634,
				"z": 3.6533856207,
				"element": "H" 
			},
			{
				"x": -2.7465133991,
				"y": -0.623978156,
				"z": 2.0394944143,
				"element": "H" 
			},
			{
				"x": 1.4634480079,
				"y": -0.9557194501,
				"z": 3.1053931003,
				"element": "H" 
			},
			{
				"x": 1.1291993859,
				"y": -2.938535741,
				"z": 4.4051005373,
				"element": "H" 
			},
			{
				"x": -0.7010936347,
				"y": -2.8459181443,
				"z": 4.1807864361,
				"element": "H" 
			},
			{
				"x": -1.8221479026,
				"y": 1.273938015,
				"z": 3.3312408282,
				"element": "H" 
			},
			{
				"x": -0.4522340537,
				"y": -0.3903420735,
				"z": 5.0774665712,
				"element": "H" 
			},
			{
				"x": 0.9794511066,
				"y": 1.4790135648,
				"z": 4.412317354,
				"element": "H" 
			},
			{
				"x": 0.1908183145,
				"y": 3.7107681089,
				"z": 5.2896214334,
				"element": "H" 
			},
			{
				"x": -0.7282269828,
				"y": 2.3180410334,
				"z": 5.8958011369,
				"element": "H" 
			},
			{
				"x": -1.4183021735,
				"y": 3.3560595247,
				"z": 4.6528156352,
				"element": "H" 
			},
			{
				"x": 2.3713979771,
				"y": 3.3772753568,
				"z": 4.3738949087,
				"element": "H" 
			},
			{
				"x": 2.748090145,
				"y": 3.9810033594,
				"z": 2.7611780258,
				"element": "H" 
			},
			{
				"x": 3.0519983497,
				"y": 1.1098583658,
				"z": 3.7597698818,
				"element": "H" 
			},
			{
				"x": 4.0913629598,
				"y": 1.9703885349,
				"z": 2.6422080424,
				"element": "H" 
			},
			{
				"x": 1.7280955965,
				"y": 2.8405816524,
				"z": 0.9640830854,
				"element": "H" 
			},
			{
				"x": -2.0884442889,
				"y": 1.2396744424,
				"z": 1.4554894167,
				"element": "H" 
			},
			{
				"x": -2.2879312199,
				"y": 2.5339927567,
				"z": 0.3291399642,
				"element": "H" 
			},
			{
				"x": -1.8162213044,
				"y": 2.901582107,
				"z": 1.9719523526,
				"element": "H" 
			},
			{
				"x": -0.9918354764,
				"y": 3.662594618,
				"z": -0.6648101927,
				"element": "H" 
			},
			{
				"x": 2.0236525184,
				"y": 3.1998360992,
				"z": -0.9522019518,
				"element": "H" 
			},
			{
				"x": 0.769749205,
				"y": 2.6889968516,
				"z": -2.0835104597,
				"element": "H" 
			},
			{
				"x": 1.0541741537,
				"y": 4.4127572662,
				"z": -1.7821456858,
				"element": "H" 
			},
			{
				"x": -0.3620131202,
				"y": 5.4395537186,
				"z": 0.6576807998,
				"element": "H" 
			},
			{
				"x": 1.2987957939,
				"y": 4.9268680527,
				"z": 0.6864330919,
				"element": "H" 
			},
			{
				"x": 0.624377595,
				"y": 5.0936955599,
				"z": 2.9451089401,
				"element": "H" 
			},
			{
				"x": -0.8901730649,
				"y": 4.2888832409,
				"z": 2.7097583909,
				"element": "H" 
			}
		],
		 "valence_orbital": [ 
			{
				"type": "occ",
				"energy": -0.2465,
				"method": "rhf"
			},
			{
				"type": "occ",
				"energy": -0.2394,
				"method": "rhf"
			},
			{
				"type": "occ",
				"energy": -0.23377,
				"method": "rhf"
			},
			{
				"type": "occ",
				"energy": -0.2308,
				"method": "rhf"
			},
			{
				"type": "occ",
				"energy": -0.22035,
				"method": "rhf"
			},
			{
				"type": "unocc",
				"energy": -0.02347,
				"method": "rhf"
			},
			{
				"type": "unocc",
				"energy": -0.0146,
				"method": "rhf"
			},
			{
				"type": "unocc",
				"energy": 0.0049,
				"method": "rhf"
			},
			{
				"type": "unocc",
				"energy": 0.03282,
				"method": "rhf"
			},
			{
				"type": "unocc",
				"energy": 0.03805,
				"method": "rhf"
			}
		],
		"cosmo_sigma_profile": { 
			"-0.025": 0.0,
			"-0.024": 0.0,
			"-0.023": 0.0,
			"-0.022": 0.0,
			"-0.021": 0.0,
			"-0.02": 0.0,
			"-0.019": 0.0,
			"-0.018": 0.0,
			"-0.017": 0.0,
			"-0.016": 0.0,
			"-0.015": 0.0,
			"-0.014": 0.0,
			"-0.013": 0.00366607662025,
			"-0.012": 0.673838134278,
			"-0.011": 0.698427083655,
			"-0.01": 1.49279536223,
			"-0.009": 3.78021506497,
			"-0.008": 5.81355248818,
			"-0.007": 11.4210706875,
			"-0.006": 17.4296655449,
			"-0.005": 31.7054801148,
			"-0.004": 39.2330193589,
			"-0.003": 56.328918108,
			"-0.002": 74.8542520023,
			"-0.001": 73.3640606124,
			"0.0": 70.2216534821,
			"0.001": 58.7073655427,
			"0.002": 38.5259834777,
			"0.003": 18.1812017704,
			"0.004": 16.6822945922,
			"0.005": 14.720644306,
			"0.006": 12.5474468291,
			"0.007": 8.75474901825,
			"0.008": 9.32332142666,
			"0.009": 7.07015129741,
			"0.01": 7.19214664599,
			"0.011": 4.94756889767,
			"0.012": 4.63684596527,
			"0.013": 5.03456101534,
			"0.014": 6.54068084451,
			"0.015": 1.79079593081,
			"0.016": 0.651111964618,
			"0.017": 0.459146045758,
			"0.018": 0.39624391887,
			"0.019": 0.346508972891,
			"0.02": 0.0,
			"0.021": 0.0,
			"0.022": 0.0,
			"0.023": 0.0,
			"0.024": 0.0,
			"0.025": 0.0
		}
	}
}
