{
	 "smiles": "CC1=CSC(=N1)C1=CC(=CC=C1)C(O)=O", 
	 "Tm": 466.15, 
	 "num_atms": 24, 
	 "gaussian": { 
		 "optdone": 1, 
		 "sigma_profile": "yes", 
		 "theory": "DFT", 
		 "functional": "B3LYP", 
		 "basiset": "6-31G**", 
		 "properties": { 
			 "R2extent": 4983.1896, 
			 "electric_dipole_moment_norm": 2.08061208782, 
			 "electric_quadrupole_moment_norm": 13.790045336, 
			 "total_energy": -1028.00576425, 
			 "HOMO_LUMO_gap": 0.16263, 
			 "cosmo_polarized_energy": -12.08, 
			 "cosmo_cavitation_energy": 30.65, 
			 "cosmo_dispersion_energy": -23.04, 
			 "cosmo_repulsion_energy": 1.75, 
			 "cosmo_total_nonelectrostatic_energy": 9.36, 
			 "SMD_solvation_energy": 5.2 
		},
		"coords": [
			{
				"x": -1.4962645715,
				"y": 1.4588929407,
				"z": 3.9355172807,
				"element": "C" 
			},
			{
				"x": -1.5883775768,
				"y": 1.9829930796,
				"z": 2.5327158557,
				"element": "C" 
			},
			{
				"x": -2.3465379072,
				"y": 3.0452155006,
				"z": 2.1178039079,
				"element": "C" 
			},
			{
				"x": -2.1546284735,
				"y": 3.3039117617,
				"z": 0.4157501787,
				"element": "S" 
			},
			{
				"x": -1.0393794247,
				"y": 1.9328090057,
				"z": 0.372121749,
				"element": "C" 
			},
			{
				"x": -0.860723596,
				"y": 1.3706661287,
				"z": 1.5372731274,
				"element": "N" 
			},
			{
				"x": -0.384632527,
				"y": 1.4813742054,
				"z": -0.8645991367,
				"element": "C" 
			},
			{
				"x": 0.4867620651,
				"y": 0.3836787684,
				"z": -0.8103591806,
				"element": "C" 
			},
			{
				"x": 1.1254234915,
				"y": -0.0714712177,
				"z": -1.9662876607,
				"element": "C" 
			},
			{
				"x": 0.9016190654,
				"y": 0.5655763636,
				"z": -3.1956863202,
				"element": "C" 
			},
			{
				"x": 0.0365730873,
				"y": 1.656622609,
				"z": -3.2540546014,
				"element": "C" 
			},
			{
				"x": -0.6012563004,
				"y": 2.1117541753,
				"z": -2.1015401733,
				"element": "C" 
			},
			{
				"x": 2.0377033294,
				"y": -1.2413127301,
				"z": -1.8385190122,
				"element": "C" 
			},
			{
				"x": 2.6045500224,
				"y": -1.6011075521,
				"z": -3.0185191928,
				"element": "O" 
			},
			{
				"x": 2.2712020211,
				"y": -1.8338941265,
				"z": -0.8046468787,
				"element": "O" 
			},
			{
				"x": -2.1234908026,
				"y": 2.0381289116,
				"z": 4.6173704161,
				"element": "H" 
			},
			{
				"x": -1.8125175636,
				"y": 0.4112770194,
				"z": 3.9767916869,
				"element": "H" 
			},
			{
				"x": -0.4624916873,
				"y": 1.4990880861,
				"z": 4.2945683973,
				"element": "H" 
			},
			{
				"x": -2.9949302433,
				"y": 3.6778385174,
				"z": 2.7070897825,
				"element": "H" 
			},
			{
				"x": 0.6668031952,
				"y": -0.1158179407,
				"z": 0.1341766963,
				"element": "H" 
			},
			{
				"x": 1.4011329516,
				"y": 0.2060352222,
				"z": -4.0876821688,
				"element": "H" 
			},
			{
				"x": -0.1430115796,
				"y": 2.1562783995,
				"z": -4.2010454604,
				"element": "H" 
			},
			{
				"x": -1.2720531272,
				"y": 2.9639360081,
				"z": -2.1678630184,
				"element": "H" 
			},
			{
				"x": 3.1706261517,
				"y": -2.3637731357,
				"z": -2.8149762742,
				"element": "H" 
			}
		],
		 "valence_orbital": [ 
			{
				"type": "occ",
				"energy": -0.27707,
				"method": "rhf"
			},
			{
				"type": "occ",
				"energy": -0.27574,
				"method": "rhf"
			},
			{
				"type": "occ",
				"energy": -0.27384,
				"method": "rhf"
			},
			{
				"type": "occ",
				"energy": -0.26458,
				"method": "rhf"
			},
			{
				"type": "occ",
				"energy": -0.22364,
				"method": "rhf"
			},
			{
				"type": "unocc",
				"energy": -0.06101,
				"method": "rhf"
			},
			{
				"type": "unocc",
				"energy": -0.04252,
				"method": "rhf"
			},
			{
				"type": "unocc",
				"energy": 0.01014,
				"method": "rhf"
			},
			{
				"type": "unocc",
				"energy": 0.01866,
				"method": "rhf"
			},
			{
				"type": "unocc",
				"energy": 0.04756,
				"method": "rhf"
			}
		],
		"cosmo_sigma_profile": { 
			"-0.025": 0.0,
			"-0.024": 0.0,
			"-0.023": 0.0,
			"-0.022": 0.0,
			"-0.021": 0.0,
			"-0.02": 0.0,
			"-0.019": 0.0144162579515,
			"-0.018": 0.864814866718,
			"-0.017": 0.729628367568,
			"-0.016": 0.876212781117,
			"-0.015": 0.709076600353,
			"-0.014": 1.00287186016,
			"-0.013": 1.00586137248,
			"-0.012": 0.303229844199,
			"-0.011": 0.803619967295,
			"-0.01": 0.639020715074,
			"-0.009": 1.3484274867,
			"-0.008": 3.20662032617,
			"-0.007": 7.04708139992,
			"-0.006": 10.5190895617,
			"-0.005": 11.752088188,
			"-0.004": 13.0816323497,
			"-0.003": 14.2476315155,
			"-0.002": 16.4212406492,
			"-0.001": 20.3188431357,
			"0.0": 25.180070966,
			"0.001": 27.1854867444,
			"0.002": 28.2111221762,
			"0.003": 22.2454435718,
			"0.004": 7.5605082259,
			"0.005": 6.0663552438,
			"0.006": 4.01615832006,
			"0.007": 3.77472737005,
			"0.008": 3.43124357025,
			"0.009": 2.82572322472,
			"0.01": 3.40858836012,
			"0.011": 5.10280959461,
			"0.012": 4.06207443841,
			"0.013": 0.0392920761371,
			"0.014": 0.0,
			"0.015": 0.0,
			"0.016": 0.0,
			"0.017": 0.0,
			"0.018": 0.0,
			"0.019": 0.0,
			"0.02": 0.0,
			"0.021": 0.0,
			"0.022": 0.0,
			"0.023": 0.0,
			"0.024": 0.0,
			"0.025": 0.0
		}
	}
}
