{
	 "smiles": "O=C(NCC#C)NC1=CC(=CC=C1)C#N", 
	 "Tm": 441.15, 
	 "num_atms": 24, 
	 "gaussian": { 
		 "optdone": 1, 
		 "sigma_profile": "yes", 
		 "theory": "DFT", 
		 "functional": "B3LYP", 
		 "basiset": "6-31G**", 
		 "properties": { 
			 "R2extent": 4360.4945, 
			 "electric_dipole_moment_norm": 4.35120782542, 
			 "electric_quadrupole_moment_norm": 26.8391669038, 
			 "total_energy": -663.993355329, 
			 "HOMO_LUMO_gap": 0.18484, 
			 "cosmo_polarized_energy": -18.24, 
			 "cosmo_cavitation_energy": 31.14, 
			 "cosmo_dispersion_energy": -20.85, 
			 "cosmo_repulsion_energy": 1.64, 
			 "cosmo_total_nonelectrostatic_energy": 11.94, 
			 "SMD_solvation_energy": 8.55 
		},
		"coords": [
			{
				"x": 0.3755707347,
				"y": -3.0419367204,
				"z": -2.1708023021,
				"element": "O" 
			},
			{
				"x": 0.0255051377,
				"y": -2.1519625936,
				"z": -1.4105589804,
				"element": "C" 
			},
			{
				"x": -0.4724999179,
				"y": -0.9387788108,
				"z": -1.863323437,
				"element": "N" 
			},
			{
				"x": -1.6445322442,
				"y": -0.286816375,
				"z": -1.2515221666,
				"element": "C" 
			},
			{
				"x": -1.9309505631,
				"y": 0.9837713452,
				"z": -1.9154447811,
				"element": "C" 
			},
			{
				"x": -2.1795709649,
				"y": 2.0227110346,
				"z": -2.4764069989,
				"element": "C" 
			},
			{
				"x": 0.1012015662,
				"y": -2.3328430343,
				"z": -0.024264833,
				"element": "N" 
			},
			{
				"x": 0.4662112719,
				"y": -1.4262887076,
				"z": 0.9929543077,
				"element": "C" 
			},
			{
				"x": 0.3660726296,
				"y": -1.8690233468,
				"z": 2.319207856,
				"element": "C" 
			},
			{
				"x": 0.7460859628,
				"y": -1.0301612569,
				"z": 3.3748534489,
				"element": "C" 
			},
			{
				"x": 1.2163312351,
				"y": 0.2688003349,
				"z": 3.1209979335,
				"element": "C" 
			},
			{
				"x": 1.3083223724,
				"y": 0.7008943438,
				"z": 1.801243452,
				"element": "C" 
			},
			{
				"x": 0.9495803597,
				"y": -0.1312148083,
				"z": 0.7403844768,
				"element": "C" 
			},
			{
				"x": 0.6407375131,
				"y": -1.5048296029,
				"z": 4.7252377053,
				"element": "C" 
			},
			{
				"x": 0.5557285928,
				"y": -1.887667324,
				"z": 5.8202215425,
				"element": "N" 
			},
			{
				"x": -0.5062144873,
				"y": -0.9513955069,
				"z": -2.8763316214,
				"element": "H" 
			},
			{
				"x": -2.5331682852,
				"y": -0.9340364284,
				"z": -1.301980958,
				"element": "H" 
			},
			{
				"x": -1.4440876021,
				"y": -0.1038743991,
				"z": -0.1921676366,
				"element": "H" 
			},
			{
				"x": -2.3972605496,
				"y": 2.9442120126,
				"z": -2.9655408413,
				"element": "H" 
			},
			{
				"x": 0.3098392587,
				"y": -3.3027376926,
				"z": 0.1769960843,
				"element": "H" 
			},
			{
				"x": -0.010006886,
				"y": -2.8645756616,
				"z": 2.5327105598,
				"element": "H" 
			},
			{
				"x": 1.5016246677,
				"y": 0.9129822811,
				"z": 3.9447434288,
				"element": "H" 
			},
			{
				"x": 1.6785716726,
				"y": 1.6985994275,
				"z": 1.5868321284,
				"element": "H" 
			},
			{
				"x": 1.0491085251,
				"y": 0.2140714895,
				"z": -0.2820383678,
				"element": "H" 
			}
		],
		 "valence_orbital": [ 
			{
				"type": "occ",
				"energy": -0.29247,
				"method": "rhf"
			},
			{
				"type": "occ",
				"energy": -0.28281,
				"method": "rhf"
			},
			{
				"type": "occ",
				"energy": -0.27478,
				"method": "rhf"
			},
			{
				"type": "occ",
				"energy": -0.26617,
				"method": "rhf"
			},
			{
				"type": "occ",
				"energy": -0.24316,
				"method": "rhf"
			},
			{
				"type": "unocc",
				"energy": -0.05832,
				"method": "rhf"
			},
			{
				"type": "unocc",
				"energy": -0.03221,
				"method": "rhf"
			},
			{
				"type": "unocc",
				"energy": 0.01548,
				"method": "rhf"
			},
			{
				"type": "unocc",
				"energy": 0.02602,
				"method": "rhf"
			},
			{
				"type": "unocc",
				"energy": 0.03268,
				"method": "rhf"
			}
		],
		"cosmo_sigma_profile": { 
			"-0.025": 0.0,
			"-0.024": 0.0,
			"-0.023": 0.0,
			"-0.022": 0.0,
			"-0.021": 0.0,
			"-0.02": 0.0,
			"-0.019": 0.0,
			"-0.018": 0.0,
			"-0.017": 0.0,
			"-0.016": 0.0,
			"-0.015": 0.569459897448,
			"-0.014": 1.40412551448,
			"-0.013": 2.06430440158,
			"-0.012": 2.93037395856,
			"-0.011": 3.36607974327,
			"-0.01": 3.08101668254,
			"-0.009": 3.4383546461,
			"-0.008": 7.26149344653,
			"-0.007": 11.6498896269,
			"-0.006": 14.9280887376,
			"-0.005": 15.2803432069,
			"-0.004": 11.9205879373,
			"-0.003": 14.2959612423,
			"-0.002": 14.0337849803,
			"-0.001": 16.5967227662,
			"0.0": 15.710634437,
			"0.001": 18.0833773933,
			"0.002": 15.8227145635,
			"0.003": 12.6740061932,
			"0.004": 8.2158860373,
			"0.005": 9.81491438818,
			"0.006": 11.1396194746,
			"0.007": 5.80111374265,
			"0.008": 3.88493148363,
			"0.009": 4.21624516212,
			"0.01": 4.40431658876,
			"0.011": 4.94665039644,
			"0.012": 5.298107558,
			"0.013": 7.46043456631,
			"0.014": 1.38809202899,
			"0.015": 0.0,
			"0.016": 0.0,
			"0.017": 0.0,
			"0.018": 0.0,
			"0.019": 0.0,
			"0.02": 0.0,
			"0.021": 0.0,
			"0.022": 0.0,
			"0.023": 0.0,
			"0.024": 0.0,
			"0.025": 0.0
		}
	}
}
