{
	 "smiles": "CN(CCCC(O)=O)C(C)=O", 
	 "Tm": 372.15, 
	 "num_atms": 24, 
	 "gaussian": { 
		 "optdone": 1, 
		 "sigma_profile": "yes", 
		 "theory": "DFT", 
		 "functional": "B3LYP", 
		 "basiset": "6-31G**", 
		 "properties": { 
			 "R2extent": 2365.4325, 
			 "electric_dipole_moment_norm": 3.08998561162, 
			 "electric_quadrupole_moment_norm": 24.364241491, 
			 "total_energy": -555.026483831, 
			 "HOMO_LUMO_gap": 0.23583, 
			 "cosmo_polarized_energy": -20.41, 
			 "cosmo_cavitation_energy": 26.44, 
			 "cosmo_dispersion_energy": -18.71, 
			 "cosmo_repulsion_energy": 1.51, 
			 "cosmo_total_nonelectrostatic_energy": 9.24, 
			 "SMD_solvation_energy": 6.5 
		},
		"coords": [
			{
				"x": -0.3749862319,
				"y": -0.7049186948,
				"z": 1.1140097117,
				"element": "C" 
			},
			{
				"x": 0.5680661538,
				"y": -0.3017136636,
				"z": 0.07290069,
				"element": "N" 
			},
			{
				"x": 0.0427086376,
				"y": -0.1314921095,
				"z": -1.2844986888,
				"element": "C" 
			},
			{
				"x": -0.2113135411,
				"y": 1.3267424272,
				"z": -1.7141391674,
				"element": "C" 
			},
			{
				"x": -1.1302847801,
				"y": 2.1208505647,
				"z": -0.7818490141,
				"element": "C" 
			},
			{
				"x": -2.562499728,
				"y": 1.599005352,
				"z": -0.7563025882,
				"element": "C" 
			},
			{
				"x": -3.3566390181,
				"y": 2.1181947712,
				"z": 0.2177056134,
				"element": "O" 
			},
			{
				"x": -3.012184697,
				"y": 0.7928369117,
				"z": -1.5331328238,
				"element": "O" 
			},
			{
				"x": 1.9109642243,
				"y": -0.2666809726,
				"z": 0.3917807724,
				"element": "C" 
			},
			{
				"x": 2.8958468924,
				"y": -0.0149254824,
				"z": -0.7437103475,
				"element": "C" 
			},
			{
				"x": 2.3150638335,
				"y": -0.4494753323,
				"z": 1.5358757022,
				"element": "O" 
			},
			{
				"x": -1.1644039971,
				"y": 0.0410554648,
				"z": 1.2568664383,
				"element": "H" 
			},
			{
				"x": -0.8539936232,
				"y": -1.6567369238,
				"z": 0.8536420176,
				"element": "H" 
			},
			{
				"x": 0.1808978448,
				"y": -0.8206144564,
				"z": 2.043034707,
				"element": "H" 
			},
			{
				"x": 0.720447426,
				"y": -0.5953165925,
				"z": -2.0076498931,
				"element": "H" 
			},
			{
				"x": -0.8996579657,
				"y": -0.6817569165,
				"z": -1.3439397939,
				"element": "H" 
			},
			{
				"x": 0.7403120445,
				"y": 1.8635010874,
				"z": -1.7912697825,
				"element": "H" 
			},
			{
				"x": -0.6519164572,
				"y": 1.3058412273,
				"z": -2.7166242393,
				"element": "H" 
			},
			{
				"x": -1.1719556873,
				"y": 3.1707316134,
				"z": -1.1035524154,
				"element": "H" 
			},
			{
				"x": -0.7226706305,
				"y": 2.1316953711,
				"z": 0.2370348445,
				"element": "H" 
			},
			{
				"x": -2.8578059297,
				"y": 2.7471848729,
				"z": 0.7585104341,
				"element": "H" 
			},
			{
				"x": 2.9299668645,
				"y": -0.8713383503,
				"z": -1.4266613258,
				"element": "H" 
			},
			{
				"x": 2.6547032483,
				"y": 0.8715949016,
				"z": -1.3360001179,
				"element": "H" 
			},
			{
				"x": 3.8805351174,
				"y": 0.1100349295,
				"z": -0.2945307337,
				"element": "H" 
			}
		],
		 "valence_orbital": [ 
			{
				"type": "occ",
				"energy": -0.3478,
				"method": "rhf"
			},
			{
				"type": "occ",
				"energy": -0.32499,
				"method": "rhf"
			},
			{
				"type": "occ",
				"energy": -0.28162,
				"method": "rhf"
			},
			{
				"type": "occ",
				"energy": -0.24348,
				"method": "rhf"
			},
			{
				"type": "occ",
				"energy": -0.23724,
				"method": "rhf"
			},
			{
				"type": "unocc",
				"energy": -0.00141,
				"method": "rhf"
			},
			{
				"type": "unocc",
				"energy": 0.02827,
				"method": "rhf"
			},
			{
				"type": "unocc",
				"energy": 0.04164,
				"method": "rhf"
			},
			{
				"type": "unocc",
				"energy": 0.07603,
				"method": "rhf"
			},
			{
				"type": "unocc",
				"energy": 0.10286,
				"method": "rhf"
			}
		],
		"cosmo_sigma_profile": { 
			"-0.025": 0.0,
			"-0.024": 0.0,
			"-0.023": 0.0,
			"-0.022": 0.0,
			"-0.021": 0.0,
			"-0.02": 0.0,
			"-0.019": 0.595320293079,
			"-0.018": 1.32255043126,
			"-0.017": 1.04003410011,
			"-0.016": 0.792698039485,
			"-0.015": 1.06037872488,
			"-0.014": 0.679293946098,
			"-0.013": 0.893384002531,
			"-0.012": 1.69718362813,
			"-0.011": 2.02794925178,
			"-0.01": 0.810945050381,
			"-0.009": 1.46576931109,
			"-0.008": 2.17111859902,
			"-0.007": 3.65375148904,
			"-0.006": 10.0737859575,
			"-0.005": 14.0161389996,
			"-0.004": 20.9718657618,
			"-0.003": 23.1961891228,
			"-0.002": 21.6291106691,
			"-0.001": 19.4387723992,
			"0.0": 10.3825434232,
			"0.001": 5.68269080218,
			"0.002": 4.6164684978,
			"0.003": 4.36440322575,
			"0.004": 2.92921675885,
			"0.005": 3.92472816204,
			"0.006": 5.18366161916,
			"0.007": 3.13718094888,
			"0.008": 3.61035888408,
			"0.009": 4.75218346649,
			"0.01": 5.78677408562,
			"0.011": 6.75479123342,
			"0.012": 6.0067436032,
			"0.013": 4.37435621723,
			"0.014": 5.1631507309,
			"0.015": 2.14223656199,
			"0.016": 0.272349264185,
			"0.017": 0.0,
			"0.018": 0.0,
			"0.019": 0.0,
			"0.02": 0.0,
			"0.021": 0.0,
			"0.022": 0.0,
			"0.023": 0.0,
			"0.024": 0.0,
			"0.025": 0.0
		}
	}
}
