{
	 "smiles": "NC1=NN(C=C1C#N)C1=C(C=CC=C1)[N+]([O-])=O", 
	 "Tm": 462.15, 
	 "num_atms": 24, 
	 "gaussian": { 
		 "optdone": 1, 
		 "sigma_profile": "yes", 
		 "theory": "DFT", 
		 "functional": "B3LYP", 
		 "basiset": "6-31G**", 
		 "properties": { 
			 "R2extent": 4174.3393, 
			 "electric_dipole_moment_norm": 5.52283164781, 
			 "electric_quadrupole_moment_norm": 23.8259158242, 
			 "total_energy": -809.339191554, 
			 "HOMO_LUMO_gap": 0.13504, 
			 "cosmo_polarized_energy": -20.92, 
			 "cosmo_cavitation_energy": 31.42, 
			 "cosmo_dispersion_energy": -21.59, 
			 "cosmo_repulsion_energy": 1.68, 
			 "cosmo_total_nonelectrostatic_energy": 11.51, 
			 "SMD_solvation_energy": 8.85 
		},
		"coords": [
			{
				"x": -0.753962753,
				"y": 2.1947311908,
				"z": 2.8648935333,
				"element": "N" 
			},
			{
				"x": -0.7386683176,
				"y": 1.2688836806,
				"z": 1.8494844667,
				"element": "C" 
			},
			{
				"x": 0.3598143143,
				"y": 0.9962284095,
				"z": 1.1592398982,
				"element": "N" 
			},
			{
				"x": -0.0061238842,
				"y": -0.0145626271,
				"z": 0.3042192753,
				"element": "N" 
			},
			{
				"x": -1.3030593809,
				"y": -0.3738679314,
				"z": 0.4446835193,
				"element": "C" 
			},
			{
				"x": -1.8335633867,
				"y": 0.4304743596,
				"z": 1.4413319187,
				"element": "C" 
			},
			{
				"x": -3.1536821763,
				"y": 0.4515384259,
				"z": 1.9475937773,
				"element": "C" 
			},
			{
				"x": -4.230256817,
				"y": 0.5067341728,
				"z": 2.3899525814,
				"element": "N" 
			},
			{
				"x": 0.9405079265,
				"y": -0.5600360913,
				"z": -0.5901438478,
				"element": "C" 
			},
			{
				"x": 1.8001189632,
				"y": 0.2458581912,
				"z": -1.3537710092,
				"element": "C" 
			},
			{
				"x": 2.7955372828,
				"y": -0.3183510438,
				"z": -2.1480193239,
				"element": "C" 
			},
			{
				"x": 2.9090061671,
				"y": -1.703761108,
				"z": -2.2379737353,
				"element": "C" 
			},
			{
				"x": 2.0372471905,
				"y": -2.5174821045,
				"z": -1.512682862,
				"element": "C" 
			},
			{
				"x": 1.0767651983,
				"y": -1.9490996438,
				"z": -0.6773872752,
				"element": "C" 
			},
			{
				"x": 1.6396317089,
				"y": 1.7083882255,
				"z": -1.4309867144,
				"element": "N" 
			},
			{
				"x": 0.4956037579,
				"y": 2.1498033456,
				"z": -1.4571901514,
				"element": "O" 
			},
			{
				"x": 2.6668202385,
				"y": 2.376779928,
				"z": -1.5261147414,
				"element": "O" 
			},
			{
				"x": -0.0028223349,
				"y": 2.8698541374,
				"z": 2.8280705384,
				"element": "H" 
			},
			{
				"x": -1.6565667197,
				"y": 2.5957692013,
				"z": 3.0767870133,
				"element": "H" 
			},
			{
				"x": -1.7659365405,
				"y": -1.1300994138,
				"z": -0.1707164705,
				"element": "H" 
			},
			{
				"x": 3.4519984678,
				"y": 0.3435541575,
				"z": -2.7001413455,
				"element": "H" 
			},
			{
				"x": 3.6736368997,
				"y": -2.1423836443,
				"z": -2.8703472997,
				"element": "H" 
			},
			{
				"x": 2.1232839168,
				"y": -3.5979525549,
				"z": -1.5691334146,
				"element": "H" 
			},
			{
				"x": 0.4459702783,
				"y": -2.575501263,
				"z": -0.0554483308,
				"element": "H" 
			}
		],
		 "valence_orbital": [ 
			{
				"type": "occ",
				"energy": -0.30818,
				"method": "rhf"
			},
			{
				"type": "occ",
				"energy": -0.29466,
				"method": "rhf"
			},
			{
				"type": "occ",
				"energy": -0.2841,
				"method": "rhf"
			},
			{
				"type": "occ",
				"energy": -0.26246,
				"method": "rhf"
			},
			{
				"type": "occ",
				"energy": -0.2273,
				"method": "rhf"
			},
			{
				"type": "unocc",
				"energy": -0.09226,
				"method": "rhf"
			},
			{
				"type": "unocc",
				"energy": -0.05186,
				"method": "rhf"
			},
			{
				"type": "unocc",
				"energy": -0.0293,
				"method": "rhf"
			},
			{
				"type": "unocc",
				"energy": -0.01318,
				"method": "rhf"
			},
			{
				"type": "unocc",
				"energy": 0.0241,
				"method": "rhf"
			}
		],
		"cosmo_sigma_profile": { 
			"-0.025": 0.0,
			"-0.024": 0.0,
			"-0.023": 0.0,
			"-0.022": 0.0,
			"-0.021": 0.0,
			"-0.02": 0.0,
			"-0.019": 0.0,
			"-0.018": 0.0,
			"-0.017": 0.0,
			"-0.016": 0.0,
			"-0.015": 0.0,
			"-0.014": 0.894828175328,
			"-0.013": 2.74585804372,
			"-0.012": 2.21333050391,
			"-0.011": 5.10971885261,
			"-0.01": 5.2564266395,
			"-0.009": 6.09856924265,
			"-0.008": 11.0565399573,
			"-0.007": 13.6387150641,
			"-0.006": 14.0469882542,
			"-0.005": 9.25981878984,
			"-0.004": 9.99834498137,
			"-0.003": 9.35347605205,
			"-0.002": 11.0050995766,
			"-0.001": 15.573409653,
			"0.0": 22.0738650824,
			"0.001": 18.9463546275,
			"0.002": 11.8253122119,
			"0.003": 7.07398825586,
			"0.004": 8.06998447827,
			"0.005": 8.76375565302,
			"0.006": 9.4752219932,
			"0.007": 15.1133959002,
			"0.008": 11.4166088306,
			"0.009": 9.0458960103,
			"0.01": 5.6164699531,
			"0.011": 4.41750397921,
			"0.012": 3.50902009872,
			"0.013": 2.30397695298,
			"0.014": 0.129333045688,
			"0.015": 0.0,
			"0.016": 0.0,
			"0.017": 0.0,
			"0.018": 0.0,
			"0.019": 0.0,
			"0.02": 0.0,
			"0.021": 0.0,
			"0.022": 0.0,
			"0.023": 0.0,
			"0.024": 0.0,
			"0.025": 0.0
		}
	}
}
