{
	 "smiles": "NC1=C(Cl)C=CC(CO)=C1", 
	 "Tm": 371.15, 
	 "num_atms": 18, 
	 "gaussian": { 
		 "optdone": 1, 
		 "sigma_profile": "yes", 
		 "theory": "DFT", 
		 "functional": "B3LYP", 
		 "basiset": "6-31G**", 
		 "properties": { 
			 "R2extent": 2882.7577, 
			 "electric_dipole_moment_norm": 2.19811101858, 
			 "electric_quadrupole_moment_norm": 7.67710203397, 
			 "total_energy": -861.729532392, 
			 "HOMO_LUMO_gap": 0.19935, 
			 "cosmo_polarized_energy": -11.03, 
			 "cosmo_cavitation_energy": 23.32, 
			 "cosmo_dispersion_energy": -17.64, 
			 "cosmo_repulsion_energy": 1.45, 
			 "cosmo_total_nonelectrostatic_energy": 7.13, 
			 "SMD_solvation_energy": 3.67 
		},
		"coords": [
			{
				"x": 0.099323127,
				"y": -2.3823517926,
				"z": 1.1102097985,
				"element": "N" 
			},
			{
				"x": 0.8874938352,
				"y": -1.3359750334,
				"z": 0.6559874725,
				"element": "C" 
			},
			{
				"x": 2.2861408431,
				"y": -1.3300998041,
				"z": 0.8199162578,
				"element": "C" 
			},
			{
				"x": 3.0702426525,
				"y": -2.7336045943,
				"z": 1.5507802644,
				"element": "Cl" 
			},
			{
				"x": 3.0642300565,
				"y": -0.2479982481,
				"z": 0.4201115826,
				"element": "C" 
			},
			{
				"x": 2.4656598679,
				"y": 0.8649105046,
				"z": -0.1662698199,
				"element": "C" 
			},
			{
				"x": 1.077129636,
				"y": 0.891045054,
				"z": -0.3477383351,
				"element": "C" 
			},
			{
				"x": 0.4151729754,
				"y": 2.0825542192,
				"z": -1.0149123548,
				"element": "C" 
			},
			{
				"x": 1.092665391,
				"y": 3.3100904561,
				"z": -0.7924001797,
				"element": "O" 
			},
			{
				"x": 0.3095004922,
				"y": -0.1966074152,
				"z": 0.0660874841,
				"element": "C" 
			},
			{
				"x": 0.5760333671,
				"y": -3.2618749445,
				"z": 1.250782225,
				"element": "H" 
			},
			{
				"x": -0.7990380446,
				"y": -2.4784733589,
				"z": 0.6599656712,
				"element": "H" 
			},
			{
				"x": 4.1385046196,
				"y": -0.2877765541,
				"z": 0.5659869073,
				"element": "H" 
			},
			{
				"x": 3.0641923181,
				"y": 1.7123565106,
				"z": -0.48160283,
				"element": "H" 
			},
			{
				"x": 0.41644832,
				"y": 1.9497401202,
				"z": -2.1036689331,
				"element": "H" 
			},
			{
				"x": -0.6403795227,
				"y": 2.1400839927,
				"z": -0.7042906711,
				"element": "H" 
			},
			{
				"x": 1.1533097777,
				"y": 3.4378016208,
				"z": 0.1639194404,
				"element": "H" 
			},
			{
				"x": -0.7719297121,
				"y": -0.1708207333,
				"z": -0.0551639801,
				"element": "H" 
			}
		],
		 "valence_orbital": [ 
			{
				"type": "occ",
				"energy": -0.31531,
				"method": "rhf"
			},
			{
				"type": "occ",
				"energy": -0.3134,
				"method": "rhf"
			},
			{
				"type": "occ",
				"energy": -0.2767,
				"method": "rhf"
			},
			{
				"type": "occ",
				"energy": -0.24272,
				"method": "rhf"
			},
			{
				"type": "occ",
				"energy": -0.2093,
				"method": "rhf"
			},
			{
				"type": "unocc",
				"energy": -0.00995,
				"method": "rhf"
			},
			{
				"type": "unocc",
				"energy": 0.00672,
				"method": "rhf"
			},
			{
				"type": "unocc",
				"energy": 0.03205,
				"method": "rhf"
			},
			{
				"type": "unocc",
				"energy": 0.08237,
				"method": "rhf"
			},
			{
				"type": "unocc",
				"energy": 0.08702,
				"method": "rhf"
			}
		],
		"cosmo_sigma_profile": { 
			"-0.025": 0.0,
			"-0.024": 0.0,
			"-0.023": 0.0,
			"-0.022": 0.0,
			"-0.021": 0.0,
			"-0.02": 0.0,
			"-0.019": 0.0,
			"-0.018": 0.0,
			"-0.017": 0.0,
			"-0.016": 0.18189640463,
			"-0.015": 1.02630909341,
			"-0.014": 0.591955741676,
			"-0.013": 1.83828640225,
			"-0.012": 2.68308666362,
			"-0.011": 3.10528441462,
			"-0.01": 2.64350849134,
			"-0.009": 3.50234780728,
			"-0.008": 3.51017095576,
			"-0.007": 3.9385082624,
			"-0.006": 7.00781168402,
			"-0.005": 9.65820380246,
			"-0.004": 12.9330704744,
			"-0.003": 10.0083923613,
			"-0.002": 10.8393246258,
			"-0.001": 10.0132100884,
			"0.0": 10.5652896125,
			"0.001": 10.4728936273,
			"0.002": 12.8483609485,
			"0.003": 14.1150543277,
			"0.004": 16.4166897217,
			"0.005": 18.0236818379,
			"0.006": 5.4434877006,
			"0.007": 1.47226039572,
			"0.008": 1.86073749587,
			"0.009": 2.24241456778,
			"0.01": 1.80550043988,
			"0.011": 1.76737552096,
			"0.012": 1.91810333738,
			"0.013": 2.17331168657,
			"0.014": 2.03898776648,
			"0.015": 0.0764009978072,
			"0.016": 0.0,
			"0.017": 0.0,
			"0.018": 0.0,
			"0.019": 0.0,
			"0.02": 0.0,
			"0.021": 0.0,
			"0.022": 0.0,
			"0.023": 0.0,
			"0.024": 0.0,
			"0.025": 0.0
		}
	}
}
