{
	 "smiles": "CC(=O)C1=CC=C(S1)C=O", 
	 "Tm": 379.15, 
	 "num_atms": 16, 
	 "gaussian": { 
		 "optdone": 1, 
		 "sigma_profile": "yes", 
		 "theory": "DFT", 
		 "functional": "B3LYP", 
		 "basiset": "6-31G**", 
		 "properties": { 
			 "R2extent": 2411.6831, 
			 "electric_dipole_moment_norm": 1.07936119534, 
			 "electric_quadrupole_moment_norm": 23.6455654479, 
			 "total_energy": -818.974329123, 
			 "HOMO_LUMO_gap": 0.16385, 
			 "cosmo_polarized_energy": -11.03, 
			 "cosmo_cavitation_energy": 22.8, 
			 "cosmo_dispersion_energy": -16.87, 
			 "cosmo_repulsion_energy": 1.32, 
			 "cosmo_total_nonelectrostatic_energy": 7.25, 
			 "SMD_solvation_energy": 5.63 
		},
		"coords": [
			{
				"x": -2.2786456193,
				"y": -1.5240715828,
				"z": 0.6097153003,
				"element": "C" 
			},
			{
				"x": -1.8506391346,
				"y": -0.2262892537,
				"z": 1.2652249898,
				"element": "C" 
			},
			{
				"x": -2.0582991567,
				"y": 0.00300862,
				"z": 2.4464734652,
				"element": "O" 
			},
			{
				"x": -1.158175739,
				"y": 0.7962907649,
				"z": 0.4344172554,
				"element": "C" 
			},
			{
				"x": -0.7174812768,
				"y": 2.0191835934,
				"z": 0.9052824079,
				"element": "C" 
			},
			{
				"x": -0.0934935958,
				"y": 2.7970641315,
				"z": -0.0937119673,
				"element": "C" 
			},
			{
				"x": -0.0603421593,
				"y": 2.1646420252,
				"z": -1.3237243522,
				"element": "C" 
			},
			{
				"x": -0.8036231029,
				"y": 0.5938935404,
				"z": -1.2596210967,
				"element": "S" 
			},
			{
				"x": 0.5060339214,
				"y": 2.6757595595,
				"z": -2.5707026359,
				"element": "C" 
			},
			{
				"x": 0.5056151436,
				"y": 2.0709491957,
				"z": -3.6278479721,
				"element": "O" 
			},
			{
				"x": -1.4137287948,
				"y": -2.0537459527,
				"z": 0.1944746657,
				"element": "H" 
			},
			{
				"x": -2.7675595791,
				"y": -2.1536196,
				"z": 1.3535360514,
				"element": "H" 
			},
			{
				"x": -2.9707116164,
				"y": -1.3320104828,
				"z": -0.2180678553,
				"element": "H" 
			},
			{
				"x": -0.855091257,
				"y": 2.3128964566,
				"z": 1.938559601,
				"element": "H" 
			},
			{
				"x": 0.320977726,
				"y": 3.7863864925,
				"z": 0.0685395919,
				"element": "H" 
			},
			{
				"x": 0.9506642408,
				"y": 3.6899624923,
				"z": -2.4806474492,
				"element": "H" 
			}
		],
		 "valence_orbital": [ 
			{
				"type": "occ",
				"energy": -0.3641,
				"method": "rhf"
			},
			{
				"type": "occ",
				"energy": -0.28081,
				"method": "rhf"
			},
			{
				"type": "occ",
				"energy": -0.27249,
				"method": "rhf"
			},
			{
				"type": "occ",
				"energy": -0.26427,
				"method": "rhf"
			},
			{
				"type": "occ",
				"energy": -0.2631,
				"method": "rhf"
			},
			{
				"type": "unocc",
				"energy": -0.09925,
				"method": "rhf"
			},
			{
				"type": "unocc",
				"energy": -0.03005,
				"method": "rhf"
			},
			{
				"type": "unocc",
				"energy": 0.01145,
				"method": "rhf"
			},
			{
				"type": "unocc",
				"energy": 0.04369,
				"method": "rhf"
			},
			{
				"type": "unocc",
				"energy": 0.06933,
				"method": "rhf"
			}
		],
		"cosmo_sigma_profile": { 
			"-0.025": 0.0,
			"-0.024": 0.0,
			"-0.023": 0.0,
			"-0.022": 0.0,
			"-0.021": 0.0,
			"-0.02": 0.0,
			"-0.019": 0.0,
			"-0.018": 0.0,
			"-0.017": 0.0,
			"-0.016": 0.0,
			"-0.015": 0.0,
			"-0.014": 0.0,
			"-0.013": 0.0,
			"-0.012": 0.0,
			"-0.011": 0.0,
			"-0.01": 0.00793699511459,
			"-0.009": 2.98620597894,
			"-0.008": 5.67898160735,
			"-0.007": 9.56020332291,
			"-0.006": 12.3726038576,
			"-0.005": 11.5462907548,
			"-0.004": 12.8857809636,
			"-0.003": 12.2641502516,
			"-0.002": 13.5892903675,
			"-0.001": 13.56395559,
			"0.0": 17.2612399791,
			"0.001": 18.3428974939,
			"0.002": 10.8518669326,
			"0.003": 3.70181268603,
			"0.004": 3.93612559776,
			"0.005": 3.25795497397,
			"0.006": 3.01174138127,
			"0.007": 3.49765635491,
			"0.008": 2.9214530112,
			"0.009": 4.65774164216,
			"0.01": 5.69871715185,
			"0.011": 8.33159955851,
			"0.012": 4.2705612254,
			"0.013": 0.634695135012,
			"0.014": 0.0,
			"0.015": 0.0,
			"0.016": 0.0,
			"0.017": 0.0,
			"0.018": 0.0,
			"0.019": 0.0,
			"0.02": 0.0,
			"0.021": 0.0,
			"0.022": 0.0,
			"0.023": 0.0,
			"0.024": 0.0,
			"0.025": 0.0
		}
	}
}
