{
	 "smiles": "CC(C)(C)C(N)C1=NC(=NO1)C1=NN=CN1", 
	 "Tm": 443.15, 
	 "num_atms": 30, 
	 "gaussian": { 
		 "optdone": 1, 
		 "sigma_profile": "yes", 
		 "theory": "DFT", 
		 "functional": "B3LYP", 
		 "basiset": "6-31G**", 
		 "properties": { 
			 "R2extent": 5497.3301, 
			 "electric_dipole_moment_norm": 6.47868281443, 
			 "electric_quadrupole_moment_norm": 35.7268747375, 
			 "total_energy": -755.070525274, 
			 "HOMO_LUMO_gap": 0.20535, 
			 "cosmo_polarized_energy": -23.73, 
			 "cosmo_cavitation_energy": 33.42, 
			 "cosmo_dispersion_energy": -23.46, 
			 "cosmo_repulsion_energy": 1.82, 
			 "cosmo_total_nonelectrostatic_energy": 11.78, 
			 "SMD_solvation_energy": 2.05 
		},
		"coords": [
			{
				"x": 0.6698035206,
				"y": -1.0717562695,
				"z": -3.6278325206,
				"element": "C" 
			},
			{
				"x": 0.2532631314,
				"y": -1.1112175648,
				"z": -2.1453315836,
				"element": "C" 
			},
			{
				"x": -0.4951186632,
				"y": 0.1860078144,
				"z": -1.7849761405,
				"element": "C" 
			},
			{
				"x": -0.6661697535,
				"y": -2.3239596474,
				"z": -1.9060726293,
				"element": "C" 
			},
			{
				"x": 1.5635319543,
				"y": -1.2568637185,
				"z": -1.2893511009,
				"element": "C" 
			},
			{
				"x": 2.4307650604,
				"y": -0.0863361418,
				"z": -1.435939418,
				"element": "N" 
			},
			{
				"x": 1.2793733721,
				"y": -1.5687189368,
				"z": 0.1612554702,
				"element": "C" 
			},
			{
				"x": 1.0257315312,
				"y": -0.7378568422,
				"z": 1.1348636437,
				"element": "N" 
			},
			{
				"x": 0.8715626087,
				"y": -1.5857866823,
				"z": 2.2148765007,
				"element": "C" 
			},
			{
				"x": 1.0235970338,
				"y": -2.8616292302,
				"z": 1.9460632664,
				"element": "N" 
			},
			{
				"x": 1.3007026685,
				"y": -2.848648466,
				"z": 0.5669768418,
				"element": "O" 
			},
			{
				"x": 0.566456499,
				"y": -1.0495320937,
				"z": 3.5320295374,
				"element": "C" 
			},
			{
				"x": 0.4002356747,
				"y": -1.6913263266,
				"z": 4.6705330823,
				"element": "N" 
			},
			{
				"x": 0.1274996935,
				"y": -0.7489954541,
				"z": 5.63391014,
				"element": "N" 
			},
			{
				"x": 0.1371214441,
				"y": 0.4296033218,
				"z": 5.0494547767,
				"element": "C" 
			},
			{
				"x": 0.4094855151,
				"y": 0.2992755011,
				"z": 3.7212260568,
				"element": "N" 
			},
			{
				"x": 1.1319191182,
				"y": -2.0178677844,
				"z": -3.9330963643,
				"element": "H" 
			},
			{
				"x": 1.3868573598,
				"y": -0.2678796445,
				"z": -3.8082609561,
				"element": "H" 
			},
			{
				"x": -0.2074079996,
				"y": -0.9102631818,
				"z": -4.2632403849,
				"element": "H" 
			},
			{
				"x": -0.7594371168,
				"y": 0.2222638503,
				"z": -0.7232974102,
				"element": "H" 
			},
			{
				"x": -1.4224672728,
				"y": 0.2531873761,
				"z": -2.3631938805,
				"element": "H" 
			},
			{
				"x": 0.1038318193,
				"y": 1.070285544,
				"z": -2.0240548698,
				"element": "H" 
			},
			{
				"x": -0.1429325435,
				"y": -3.269282385,
				"z": -2.0875765294,
				"element": "H" 
			},
			{
				"x": -1.521938427,
				"y": -2.2815663195,
				"z": -2.5875093625,
				"element": "H" 
			},
			{
				"x": -1.0620253798,
				"y": -2.3515287477,
				"z": -0.8856704123,
				"element": "H" 
			},
			{
				"x": 2.1011356189,
				"y": -2.1248442618,
				"z": -1.6873033723,
				"element": "H" 
			},
			{
				"x": 2.0782494732,
				"y": 0.6742562742,
				"z": -0.8604286363,
				"element": "H" 
			},
			{
				"x": 3.3630460643,
				"y": -0.2985453512,
				"z": -1.0905700712,
				"element": "H" 
			},
			{
				"x": -0.0427784256,
				"y": 1.3772283786,
				"z": 5.5356519098,
				"element": "H" 
			},
			{
				"x": 0.4854064207,
				"y": 1.0068969891,
				"z": 3.0045644168,
				"element": "H" 
			}
		],
		 "valence_orbital": [ 
			{
				"type": "occ",
				"energy": -0.31538,
				"method": "rhf"
			},
			{
				"type": "occ",
				"energy": -0.30811,
				"method": "rhf"
			},
			{
				"type": "occ",
				"energy": -0.26452,
				"method": "rhf"
			},
			{
				"type": "occ",
				"energy": -0.26182,
				"method": "rhf"
			},
			{
				"type": "occ",
				"energy": -0.25908,
				"method": "rhf"
			},
			{
				"type": "unocc",
				"energy": -0.05373,
				"method": "rhf"
			},
			{
				"type": "unocc",
				"energy": -0.01512,
				"method": "rhf"
			},
			{
				"type": "unocc",
				"energy": 0.0248,
				"method": "rhf"
			},
			{
				"type": "unocc",
				"energy": 0.05788,
				"method": "rhf"
			},
			{
				"type": "unocc",
				"energy": 0.07085,
				"method": "rhf"
			}
		],
		"cosmo_sigma_profile": { 
			"-0.025": 0.0,
			"-0.024": 0.0,
			"-0.023": 0.0,
			"-0.022": 0.0,
			"-0.021": 0.0,
			"-0.02": 0.0,
			"-0.019": 0.0,
			"-0.018": 0.613898009747,
			"-0.017": 1.04043614303,
			"-0.016": 1.34623308014,
			"-0.015": 0.84046797731,
			"-0.014": 0.742908961033,
			"-0.013": 0.898098678158,
			"-0.012": 1.51276742814,
			"-0.011": 4.88080040719,
			"-0.01": 4.92859230171,
			"-0.009": 5.31289006371,
			"-0.008": 4.80978077016,
			"-0.007": 6.62588635524,
			"-0.006": 6.95024890361,
			"-0.005": 8.94339365135,
			"-0.004": 13.3559955019,
			"-0.003": 24.6583839308,
			"-0.002": 24.3417248392,
			"-0.001": 21.8774309928,
			"0.0": 22.1310604006,
			"0.001": 26.1553075177,
			"0.002": 12.4795136632,
			"0.003": 6.68214995563,
			"0.004": 5.75991434374,
			"0.005": 7.726080293,
			"0.006": 8.12055745772,
			"0.007": 4.17407612736,
			"0.008": 4.64240056398,
			"0.009": 4.3616558466,
			"0.01": 5.31427933304,
			"0.011": 4.97998419114,
			"0.012": 5.36864024713,
			"0.013": 3.74206518803,
			"0.014": 3.90543382021,
			"0.015": 2.51579499853,
			"0.016": 1.46678038388,
			"0.017": 0.0577933634624,
			"0.018": 0.0,
			"0.019": 0.0,
			"0.02": 0.0,
			"0.021": 0.0,
			"0.022": 0.0,
			"0.023": 0.0,
			"0.024": 0.0,
			"0.025": 0.0
		}
	}
}
