{
	 "smiles": "O=C1C=CC2=CC(=O)C=CC(C2)=C1", 
	 "Tm": 395.15, 
	 "num_atms": 21, 
	 "gaussian": { 
		 "optdone": 1, 
		 "sigma_profile": "yes", 
		 "theory": "DFT", 
		 "functional": "B3LYP", 
		 "basiset": "6-31G**", 
		 "properties": { 
			 "R2extent": 2505.5452, 
			 "electric_dipole_moment_norm": 0.636190867586, 
			 "electric_quadrupole_moment_norm": 27.2224311633, 
			 "total_energy": -574.337704419, 
			 "HOMO_LUMO_gap": 0.13052, 
			 "cosmo_polarized_energy": -12.98, 
			 "cosmo_cavitation_energy": 24.84, 
			 "cosmo_dispersion_energy": -18.23, 
			 "cosmo_repulsion_energy": 1.41, 
			 "cosmo_total_nonelectrostatic_energy": 8.02, 
			 "SMD_solvation_energy": 5.31 
		},
		"coords": [
			{
				"x": 0.2464784892,
				"y": 3.801308508,
				"z": 1.8965996125,
				"element": "O" 
			},
			{
				"x": 0.0207835929,
				"y": 2.623378953,
				"z": 1.6340615159,
				"element": "C" 
			},
			{
				"x": -1.4072095705,
				"y": 2.1993816682,
				"z": 1.4256563764,
				"element": "C" 
			},
			{
				"x": -1.9057267509,
				"y": 0.9893634348,
				"z": 1.0774854974,
				"element": "C" 
			},
			{
				"x": -1.0885644575,
				"y": -0.2306692087,
				"z": 1.0805044635,
				"element": "C" 
			},
			{
				"x": -1.0434498957,
				"y": -1.133706872,
				"z": 0.0792228641,
				"element": "C" 
			},
			{
				"x": 0.0910212401,
				"y": -2.0906612421,
				"z": -0.1366625035,
				"element": "C" 
			},
			{
				"x": -0.1115725686,
				"y": -3.1397268538,
				"z": -0.7414697057,
				"element": "O" 
			},
			{
				"x": 1.5133932773,
				"y": -1.6980051456,
				"z": 0.1550148808,
				"element": "C" 
			},
			{
				"x": 1.995235013,
				"y": -0.5808359362,
				"z": 0.7496995894,
				"element": "C" 
			},
			{
				"x": 1.1300218925,
				"y": 0.3714983454,
				"z": 1.4573246553,
				"element": "C" 
			},
			{
				"x": -0.0393329355,
				"y": -0.2643689322,
				"z": 2.1576414639,
				"element": "C" 
			},
			{
				"x": 1.1632522812,
				"y": 1.7109844827,
				"z": 1.2998914224,
				"element": "C" 
			},
			{
				"x": -2.0731929419,
				"y": 3.0583876438,
				"z": 1.4335622149,
				"element": "H" 
			},
			{
				"x": -2.9399637479,
				"y": 0.9235344655,
				"z": 0.7445145606,
				"element": "H" 
			},
			{
				"x": -1.7949131837,
				"y": -1.1504553527,
				"z": -0.7063070614,
				"element": "H" 
			},
			{
				"x": 2.2112844202,
				"y": -2.3791444887,
				"z": -0.325074978,
				"element": "H" 
			},
			{
				"x": 3.0575515755,
				"y": -0.3583804229,
				"z": 0.6669384842,
				"element": "H" 
			},
			{
				"x": 0.1969402245,
				"y": -1.2810513474,
				"z": 2.473685411,
				"element": "H" 
			},
			{
				"x": -0.3561480067,
				"y": 0.3034283503,
				"z": 3.0331941406,
				"element": "H" 
			},
			{
				"x": 2.0006120524,
				"y": 2.2063399505,
				"z": 0.8146170957,
				"element": "H" 
			}
		],
		 "valence_orbital": [ 
			{
				"type": "occ",
				"energy": -0.3001,
				"method": "rhf"
			},
			{
				"type": "occ",
				"energy": -0.26973,
				"method": "rhf"
			},
			{
				"type": "occ",
				"energy": -0.26331,
				"method": "rhf"
			},
			{
				"type": "occ",
				"energy": -0.25374,
				"method": "rhf"
			},
			{
				"type": "occ",
				"energy": -0.24888,
				"method": "rhf"
			},
			{
				"type": "unocc",
				"energy": -0.11836,
				"method": "rhf"
			},
			{
				"type": "unocc",
				"energy": -0.05094,
				"method": "rhf"
			},
			{
				"type": "unocc",
				"energy": -0.03264,
				"method": "rhf"
			},
			{
				"type": "unocc",
				"energy": 0.01982,
				"method": "rhf"
			},
			{
				"type": "unocc",
				"energy": 0.06452,
				"method": "rhf"
			}
		],
		"cosmo_sigma_profile": { 
			"-0.025": 0.0,
			"-0.024": 0.0,
			"-0.023": 0.0,
			"-0.022": 0.0,
			"-0.021": 0.0,
			"-0.02": 0.0,
			"-0.019": 0.0,
			"-0.018": 0.0,
			"-0.017": 0.0,
			"-0.016": 0.0,
			"-0.015": 0.0,
			"-0.014": 0.0,
			"-0.013": 0.0,
			"-0.012": 0.0,
			"-0.011": 0.0,
			"-0.01": 0.0,
			"-0.009": 0.419101333811,
			"-0.008": 5.47275415138,
			"-0.007": 13.0207356408,
			"-0.006": 15.5302152694,
			"-0.005": 14.7365589915,
			"-0.004": 13.1068120733,
			"-0.003": 16.4812815523,
			"-0.002": 16.5865705945,
			"-0.001": 12.5757809266,
			"0.0": 15.2585781392,
			"0.001": 17.3238543337,
			"0.002": 11.9097325751,
			"0.003": 4.19917612481,
			"0.004": 3.26463941335,
			"0.005": 3.28165005647,
			"0.006": 2.66713147525,
			"0.007": 3.15338624958,
			"0.008": 3.16319894694,
			"0.009": 3.43760932649,
			"0.01": 3.61041277606,
			"0.011": 6.61907042876,
			"0.012": 9.08204490273,
			"0.013": 4.21646993758,
			"0.014": 0.0722221864621,
			"0.015": 0.0,
			"0.016": 0.0,
			"0.017": 0.0,
			"0.018": 0.0,
			"0.019": 0.0,
			"0.02": 0.0,
			"0.021": 0.0,
			"0.022": 0.0,
			"0.023": 0.0,
			"0.024": 0.0,
			"0.025": 0.0
		}
	}
}
