{
	 "smiles": "OCCNC(=O)C1=CC=NN1", 
	 "Tm": 443.15, 
	 "num_atms": 20, 
	 "gaussian": { 
		 "optdone": 1, 
		 "sigma_profile": "yes", 
		 "theory": "DFT", 
		 "functional": "B3LYP", 
		 "basiset": "6-31G**", 
		 "properties": { 
			 "R2extent": 2569.7518, 
			 "electric_dipole_moment_norm": 1.94909050842, 
			 "electric_quadrupole_moment_norm": 6.26244711355, 
			 "total_energy": -548.740182173, 
			 "HOMO_LUMO_gap": 0.21882, 
			 "cosmo_polarized_energy": -20.67, 
			 "cosmo_cavitation_energy": 24.81, 
			 "cosmo_dispersion_energy": -18.06, 
			 "cosmo_repulsion_energy": 1.49, 
			 "cosmo_total_nonelectrostatic_energy": 8.23, 
			 "SMD_solvation_energy": 3.67 
		},
		"coords": [
			{
				"x": 3.1378072221,
				"y": 0.6597107271,
				"z": -2.7406634861,
				"element": "O" 
			},
			{
				"x": 1.8133230968,
				"y": 0.7600831914,
				"z": -2.2423700173,
				"element": "C" 
			},
			{
				"x": 1.7489795292,
				"y": 0.389582154,
				"z": -0.7539940541,
				"element": "C" 
			},
			{
				"x": 0.3950529376,
				"y": 0.4982246358,
				"z": -0.2159959698,
				"element": "N" 
			},
			{
				"x": -0.4802896259,
				"y": -0.5583839226,
				"z": -0.331776043,
				"element": "C" 
			},
			{
				"x": -0.199092794,
				"y": -1.58757742,
				"z": -0.93517527,
				"element": "O" 
			},
			{
				"x": -1.8025649442,
				"y": -0.3603265202,
				"z": 0.3085437725,
				"element": "C" 
			},
			{
				"x": -2.7125725903,
				"y": -1.3025185783,
				"z": 0.7565270018,
				"element": "C" 
			},
			{
				"x": -3.7801620686,
				"y": -0.5484998792,
				"z": 1.2858843675,
				"element": "C" 
			},
			{
				"x": -3.572240567,
				"y": 0.7651839143,
				"z": 1.1689550582,
				"element": "N" 
			},
			{
				"x": -2.3582378426,
				"y": 0.8584277518,
				"z": 0.5937111811,
				"element": "N" 
			},
			{
				"x": 3.3554475082,
				"y": -0.2785299976,
				"z": -2.8134733775,
				"element": "H" 
			},
			{
				"x": 1.5082828787,
				"y": 1.8027821155,
				"z": -2.3784917512,
				"element": "H" 
			},
			{
				"x": 1.1096842867,
				"y": 0.1286597782,
				"z": -2.8015876906,
				"element": "H" 
			},
			{
				"x": 2.4077833815,
				"y": 1.0509342791,
				"z": -0.1850416637,
				"element": "H" 
			},
			{
				"x": 2.0983893518,
				"y": -0.6410550273,
				"z": -0.6228375253,
				"element": "H" 
			},
			{
				"x": 0.2354278194,
				"y": 1.1629419009,
				"z": 0.5267174601,
				"element": "H" 
			},
			{
				"x": -2.5934773482,
				"y": -2.3737570376,
				"z": 0.7094149133,
				"element": "H" 
			},
			{
				"x": -4.6929388195,
				"y": -0.903748164,
				"z": 1.7446548154,
				"element": "H" 
			},
			{
				"x": -2.0413014119,
				"y": 1.7628660988,
				"z": 0.2782982788,
				"element": "H" 
			}
		],
		 "valence_orbital": [ 
			{
				"type": "occ",
				"energy": -0.29032,
				"method": "rhf"
			},
			{
				"type": "occ",
				"energy": -0.27117,
				"method": "rhf"
			},
			{
				"type": "occ",
				"energy": -0.26885,
				"method": "rhf"
			},
			{
				"type": "occ",
				"energy": -0.25895,
				"method": "rhf"
			},
			{
				"type": "occ",
				"energy": -0.25399,
				"method": "rhf"
			},
			{
				"type": "unocc",
				"energy": -0.03517,
				"method": "rhf"
			},
			{
				"type": "unocc",
				"energy": 0.04118,
				"method": "rhf"
			},
			{
				"type": "unocc",
				"energy": 0.04628,
				"method": "rhf"
			},
			{
				"type": "unocc",
				"energy": 0.07161,
				"method": "rhf"
			},
			{
				"type": "unocc",
				"energy": 0.0907,
				"method": "rhf"
			}
		],
		"cosmo_sigma_profile": { 
			"-0.025": 0.0,
			"-0.024": 0.0,
			"-0.023": 0.0,
			"-0.022": 0.0,
			"-0.021": 0.0,
			"-0.02": 0.0,
			"-0.019": 0.0,
			"-0.018": 0.00136948801043,
			"-0.017": 1.31906984623,
			"-0.016": 2.3402230082,
			"-0.015": 3.85117721889,
			"-0.014": 3.32785268672,
			"-0.013": 2.45950261553,
			"-0.012": 3.19414867234,
			"-0.011": 2.70459624215,
			"-0.01": 2.68343322486,
			"-0.009": 2.31828723403,
			"-0.008": 4.32747381735,
			"-0.007": 6.19323026467,
			"-0.006": 6.32803242613,
			"-0.005": 8.04904459327,
			"-0.004": 11.9917958672,
			"-0.003": 11.1787507019,
			"-0.002": 12.5260810787,
			"-0.001": 14.5804125746,
			"0.0": 9.73388763751,
			"0.001": 8.22643211461,
			"0.002": 8.3000803308,
			"0.003": 9.64775470792,
			"0.004": 11.2818620307,
			"0.005": 5.66546383781,
			"0.006": 3.62365492618,
			"0.007": 4.34110519398,
			"0.008": 4.86146826515,
			"0.009": 3.76886736234,
			"0.01": 3.98313753339,
			"0.011": 4.12528294841,
			"0.012": 4.36571619626,
			"0.013": 8.40782108759,
			"0.014": 4.93633395988,
			"0.015": 1.09360711058,
			"0.016": 0.181992268054,
			"0.017": 0.0,
			"0.018": 0.0,
			"0.019": 0.0,
			"0.02": 0.0,
			"0.021": 0.0,
			"0.022": 0.0,
			"0.023": 0.0,
			"0.024": 0.0,
			"0.025": 0.0
		}
	}
}
