{
	 "smiles": "CCOC(=O)C1=C2C=C(Br)C=CC2=NN1", 
	 "Tm": 505.15, 
	 "num_atms": 24, 
	 "gaussian": { 
		 "optdone": 1, 
		 "sigma_profile": "yes", 
		 "theory": "DFT", 
		 "functional": "B3LYP", 
		 "basiset": "6-31G**", 
		 "properties": { 
			 "R2extent": 6101.2726, 
			 "electric_dipole_moment_norm": 1.67966856552, 
			 "electric_quadrupole_moment_norm": 10.6317711916, 
			 "total_energy": -3217.8447411, 
			 "HOMO_LUMO_gap": 0.15575, 
			 "cosmo_polarized_energy": -9.99, 
			 "cosmo_cavitation_energy": 31.31, 
			 "cosmo_dispersion_energy": -23.14, 
			 "cosmo_repulsion_energy": 1.83, 
			 "cosmo_total_nonelectrostatic_energy": 10.0, 
			 "SMD_solvation_energy": 4.0 
		},
		"coords": [
			{
				"x": 2.8676416786,
				"y": -1.0933219716,
				"z": -2.926758823,
				"element": "C" 
			},
			{
				"x": 2.8964745221,
				"y": -0.4085229151,
				"z": -1.5692168175,
				"element": "C" 
			},
			{
				"x": 1.584567467,
				"y": -0.4156869434,
				"z": -0.948798466,
				"element": "O" 
			},
			{
				"x": 0.7532844588,
				"y": 0.5880437158,
				"z": -1.2910321249,
				"element": "C" 
			},
			{
				"x": 1.0246713516,
				"y": 1.4919420752,
				"z": -2.0656442227,
				"element": "O" 
			},
			{
				"x": -0.5385414392,
				"y": 0.4820777002,
				"z": -0.6163626091,
				"element": "C" 
			},
			{
				"x": -1.1340105576,
				"y": -0.4077158605,
				"z": 0.2964217353,
				"element": "C" 
			},
			{
				"x": -0.7295607686,
				"y": -1.5908116327,
				"z": 0.9569249838,
				"element": "C" 
			},
			{
				"x": -1.6466071894,
				"y": -2.1752053279,
				"z": 1.7993796613,
				"element": "C" 
			},
			{
				"x": -1.1726068919,
				"y": -3.7786708132,
				"z": 2.7290546896,
				"element": "Br" 
			},
			{
				"x": -2.9503937353,
				"y": -1.6438235743,
				"z": 2.0213122933,
				"element": "C" 
			},
			{
				"x": -3.3566817192,
				"y": -0.4940727661,
				"z": 1.3853246481,
				"element": "C" 
			},
			{
				"x": -2.442809407,
				"y": 0.1394219851,
				"z": 0.5091057927,
				"element": "C" 
			},
			{
				"x": -2.6351204054,
				"y": 1.2711371794,
				"z": -0.2128768885,
				"element": "N" 
			},
			{
				"x": -1.4848809162,
				"y": 1.4296717187,
				"z": -0.8589605423,
				"element": "N" 
			},
			{
				"x": 3.8818482559,
				"y": -1.1422087404,
				"z": -3.3366675203,
				"element": "H" 
			},
			{
				"x": 2.2422370152,
				"y": -0.5341575268,
				"z": -3.6269146091,
				"element": "H" 
			},
			{
				"x": 2.4819457464,
				"y": -2.1133113381,
				"z": -2.8415274687,
				"element": "H" 
			},
			{
				"x": 3.5303242101,
				"y": -0.9450999561,
				"z": -0.8599544503,
				"element": "H" 
			},
			{
				"x": 3.2376620122,
				"y": 0.6256508357,
				"z": -1.6530663439,
				"element": "H" 
			},
			{
				"x": 0.2556729434,
				"y": -2.0113546809,
				"z": 0.8025538371,
				"element": "H" 
			},
			{
				"x": -3.6166134402,
				"y": -2.1623917246,
				"z": 2.7008195299,
				"element": "H" 
			},
			{
				"x": -4.3454532631,
				"y": -0.077093908,
				"z": 1.5435177426,
				"element": "H" 
			},
			{
				"x": -1.3475499282,
				"y": 2.2145044695,
				"z": -1.4840340273,
				"element": "H" 
			}
		],
		 "valence_orbital": [ 
			{
				"type": "occ",
				"energy": -0.29682,
				"method": "rhf"
			},
			{
				"type": "occ",
				"energy": -0.29193,
				"method": "rhf"
			},
			{
				"type": "occ",
				"energy": -0.28838,
				"method": "rhf"
			},
			{
				"type": "occ",
				"energy": -0.25345,
				"method": "rhf"
			},
			{
				"type": "occ",
				"energy": -0.22522,
				"method": "rhf"
			},
			{
				"type": "unocc",
				"energy": -0.06947,
				"method": "rhf"
			},
			{
				"type": "unocc",
				"energy": -0.0169,
				"method": "rhf"
			},
			{
				"type": "unocc",
				"energy": 0.00571,
				"method": "rhf"
			},
			{
				"type": "unocc",
				"energy": 0.01315,
				"method": "rhf"
			},
			{
				"type": "unocc",
				"energy": 0.0849,
				"method": "rhf"
			}
		],
		"cosmo_sigma_profile": { 
			"-0.025": 0.0,
			"-0.024": 0.0,
			"-0.023": 0.0,
			"-0.022": 0.0,
			"-0.021": 0.0,
			"-0.02": 0.0,
			"-0.019": 0.0,
			"-0.018": 0.12541892755,
			"-0.017": 0.748266400596,
			"-0.016": 0.973200672725,
			"-0.015": 0.799040324062,
			"-0.014": 1.1489371285,
			"-0.013": 0.564985391885,
			"-0.012": 0.41643801651,
			"-0.011": 0.557191774012,
			"-0.01": 0.740446907816,
			"-0.009": 1.24174295603,
			"-0.008": 1.43602473877,
			"-0.007": 4.04718243254,
			"-0.006": 7.75710039953,
			"-0.005": 12.3616661977,
			"-0.004": 18.6962190047,
			"-0.003": 23.1542492461,
			"-0.002": 19.3484822686,
			"-0.001": 20.6751100503,
			"0.0": 23.7105822609,
			"0.001": 23.4699018262,
			"0.002": 29.1529847854,
			"0.003": 17.375190779,
			"0.004": 15.4031099541,
			"0.005": 8.32961162315,
			"0.006": 2.82242270619,
			"0.007": 2.03215945802,
			"0.008": 1.91053187935,
			"0.009": 2.93567946898,
			"0.01": 3.44142278468,
			"0.011": 3.89783600383,
			"0.012": 2.4712589916,
			"0.013": 1.16086619967,
			"0.014": 0.749047174678,
			"0.015": 0.22399040637,
			"0.016": 0.0,
			"0.017": 0.0,
			"0.018": 0.0,
			"0.019": 0.0,
			"0.02": 0.0,
			"0.021": 0.0,
			"0.022": 0.0,
			"0.023": 0.0,
			"0.024": 0.0,
			"0.025": 0.0
		}
	}
}
