{
	 "smiles": "OC(=O)C(NC(=O)C1=CC=CC=C1)=CC1=CN=CC=C1", 
	 "Tm": 463.15, 
	 "num_atms": 32, 
	 "gaussian": { 
		 "optdone": 1, 
		 "sigma_profile": "yes", 
		 "theory": "DFT", 
		 "functional": "B3LYP", 
		 "basiset": "6-31G**", 
		 "properties": { 
			 "R2extent": 6667.7872, 
			 "electric_dipole_moment_norm": 1.23077804254, 
			 "electric_quadrupole_moment_norm": 19.338180696, 
			 "total_energy": -914.007981894, 
			 "HOMO_LUMO_gap": 0.15613, 
			 "cosmo_polarized_energy": -19.68, 
			 "cosmo_cavitation_energy": 37.64, 
			 "cosmo_dispersion_energy": -25.79, 
			 "cosmo_repulsion_energy": 1.98, 
			 "cosmo_total_nonelectrostatic_energy": 13.83, 
			 "SMD_solvation_energy": 7.18 
		},
		"coords": [
			{
				"x": -2.0712727658,
				"y": 2.1586831671,
				"z": -2.4038323805,
				"element": "O" 
			},
			{
				"x": -2.3627639419,
				"y": 1.3166700962,
				"z": -1.3876385486,
				"element": "C" 
			},
			{
				"x": -3.2911814634,
				"y": 1.5007267505,
				"z": -0.6264867298,
				"element": "O" 
			},
			{
				"x": -1.4437223402,
				"y": 0.1340324763,
				"z": -1.3369310239,
				"element": "C" 
			},
			{
				"x": -0.2810201573,
				"y": 0.1212720494,
				"z": -2.1390758346,
				"element": "N" 
			},
			{
				"x": 0.637170276,
				"y": 1.1400273604,
				"z": -2.3877327114,
				"element": "C" 
			},
			{
				"x": 1.3098776541,
				"y": 1.0988281843,
				"z": -3.4089536682,
				"element": "O" 
			},
			{
				"x": 0.8269634003,
				"y": 2.2123973867,
				"z": -1.3601889884,
				"element": "C" 
			},
			{
				"x": 1.3230230971,
				"y": 3.4444454387,
				"z": -1.8110092479,
				"element": "C" 
			},
			{
				"x": 1.5683919901,
				"y": 4.4759876388,
				"z": -0.909395614,
				"element": "C" 
			},
			{
				"x": 1.3420969202,
				"y": 4.2805798249,
				"z": 0.4565058671,
				"element": "C" 
			},
			{
				"x": 0.8737383338,
				"y": 3.0487580012,
				"z": 0.9151031393,
				"element": "C" 
			},
			{
				"x": 0.6143048086,
				"y": 2.0165020426,
				"z": 0.0118911033,
				"element": "C" 
			},
			{
				"x": -1.8672655601,
				"y": -0.9300659768,
				"z": -0.6134557767,
				"element": "C" 
			},
			{
				"x": -1.2363116096,
				"y": -2.2221649442,
				"z": -0.3682475199,
				"element": "C" 
			},
			{
				"x": -2.0097666151,
				"y": -3.2090471085,
				"z": 0.2812913906,
				"element": "C" 
			},
			{
				"x": -1.5813481094,
				"y": -4.4313670694,
				"z": 0.5930346005,
				"element": "N" 
			},
			{
				"x": -0.3169923088,
				"y": -4.7376727362,
				"z": 0.2719775973,
				"element": "C" 
			},
			{
				"x": 0.5516597594,
				"y": -3.8436729244,
				"z": -0.3575737666,
				"element": "C" 
			},
			{
				"x": 0.0905799857,
				"y": -2.5738484186,
				"z": -0.6869368325,
				"element": "C" 
			},
			{
				"x": -2.7071450251,
				"y": 2.8899462294,
				"z": -2.3375450558,
				"element": "H" 
			},
			{
				"x": -0.2383069483,
				"y": -0.5878254826,
				"z": -2.864006942,
				"element": "H" 
			},
			{
				"x": 1.5117955359,
				"y": 3.5681707064,
				"z": -2.8719002746,
				"element": "H" 
			},
			{
				"x": 1.9419179136,
				"y": 5.430673059,
				"z": -1.2681379065,
				"element": "H" 
			},
			{
				"x": 1.5378695043,
				"y": 5.0838869427,
				"z": 1.1610176831,
				"element": "H" 
			},
			{
				"x": 0.713532273,
				"y": 2.8869150523,
				"z": 1.9768893753,
				"element": "H" 
			},
			{
				"x": 0.2668293063,
				"y": 1.0583245056,
				"z": 0.381999249,
				"element": "H" 
			},
			{
				"x": -2.8437247324,
				"y": -0.7965238581,
				"z": -0.1554539738,
				"element": "H" 
			},
			{
				"x": -3.0380907796,
				"y": -2.9773789969,
				"z": 0.5583375872,
				"element": "H" 
			},
			{
				"x": 0.0155234429,
				"y": -5.7407353196,
				"z": 0.5323709302,
				"element": "H" 
			},
			{
				"x": 1.5707225693,
				"y": -4.1398386943,
				"z": -0.5856289596,
				"element": "H" 
			},
			{
				"x": 0.7496155863,
				"y": -1.8597853831,
				"z": -1.1653867674,
				"element": "H" 
			}
		],
		 "valence_orbital": [ 
			{
				"type": "occ",
				"energy": -0.26878,
				"method": "rhf"
			},
			{
				"type": "occ",
				"energy": -0.2652,
				"method": "rhf"
			},
			{
				"type": "occ",
				"energy": -0.2617,
				"method": "rhf"
			},
			{
				"type": "occ",
				"energy": -0.25238,
				"method": "rhf"
			},
			{
				"type": "occ",
				"energy": -0.23798,
				"method": "rhf"
			},
			{
				"type": "unocc",
				"energy": -0.08185,
				"method": "rhf"
			},
			{
				"type": "unocc",
				"energy": -0.04125,
				"method": "rhf"
			},
			{
				"type": "unocc",
				"energy": -0.03372,
				"method": "rhf"
			},
			{
				"type": "unocc",
				"energy": -0.01095,
				"method": "rhf"
			},
			{
				"type": "unocc",
				"energy": 0.0043,
				"method": "rhf"
			}
		],
		"cosmo_sigma_profile": { 
			"-0.025": 0.0,
			"-0.024": 0.0,
			"-0.023": 0.0,
			"-0.022": 0.0,
			"-0.021": 0.0,
			"-0.02": 0.0,
			"-0.019": 0.445399020116,
			"-0.018": 0.697251808367,
			"-0.017": 1.20072866858,
			"-0.016": 0.881300589807,
			"-0.015": 0.876420464615,
			"-0.014": 0.998770789767,
			"-0.013": 1.49883794975,
			"-0.012": 1.58394679164,
			"-0.011": 2.46244055925,
			"-0.01": 1.91744126604,
			"-0.009": 2.02674654019,
			"-0.008": 4.13677372773,
			"-0.007": 10.6889353836,
			"-0.006": 19.8130119775,
			"-0.005": 20.0308779031,
			"-0.004": 19.5274962204,
			"-0.003": 20.4023133738,
			"-0.002": 17.8551052102,
			"-0.001": 18.7710534814,
			"0.0": 20.1298705993,
			"0.001": 25.274156254,
			"0.002": 20.9992237598,
			"0.003": 15.455571789,
			"0.004": 18.7051021221,
			"0.005": 8.39646318005,
			"0.006": 4.58771836253,
			"0.007": 6.47668611008,
			"0.008": 4.31203684053,
			"0.009": 4.4281051766,
			"0.01": 4.30483422801,
			"0.011": 7.01504530874,
			"0.012": 7.80764808963,
			"0.013": 5.49223558347,
			"0.014": 1.20013502537,
			"0.015": 0.764434775078,
			"0.016": 0.77823213993,
			"0.017": 0.0442068989918,
			"0.018": 0.0,
			"0.019": 0.0,
			"0.02": 0.0,
			"0.021": 0.0,
			"0.022": 0.0,
			"0.023": 0.0,
			"0.024": 0.0,
			"0.025": 0.0
		}
	}
}
