{
	 "smiles": "CCCCCCCCCCCCCCCCC(C)CC", 
	 "Tm": 281.15, 
	 "num_atms": 62, 
	 "gaussian": { 
		 "optdone": 1, 
		 "sigma_profile": "yes", 
		 "theory": "DFT", 
		 "functional": "B3LYP", 
		 "basiset": "6-31G**", 
		 "properties": { 
			 "R2extent": 10844.4793, 
			 "electric_dipole_moment_norm": 0.0554799062725, 
			 "electric_quadrupole_moment_norm": 0.506326278204, 
			 "total_energy": -787.505535998, 
			 "HOMO_LUMO_gap": 0.36388, 
			 "cosmo_polarized_energy": -1.34, 
			 "cosmo_cavitation_energy": 58.47, 
			 "cosmo_dispersion_energy": -35.73, 
			 "cosmo_repulsion_energy": 2.87, 
			 "cosmo_total_nonelectrostatic_energy": 25.62, 
			 "SMD_solvation_energy": 7.77 
		},
		"coords": [
			{
				"x": 4.0536144239,
				"y": 2.5823224888,
				"z": -1.9994208974,
				"element": "C" 
			},
			{
				"x": 4.8229680619,
				"y": 2.3927359978,
				"z": -0.6864639194,
				"element": "C" 
			},
			{
				"x": 4.6251885061,
				"y": 1.0182662881,
				"z": -0.0250062441,
				"element": "C" 
			},
			{
				"x": 5.2029436704,
				"y": -0.15939896,
				"z": -0.8244738685,
				"element": "C" 
			},
			{
				"x": 5.1451673163,
				"y": -1.5122022716,
				"z": -0.0917614777,
				"element": "C" 
			},
			{
				"x": 3.7369886215,
				"y": -2.048017816,
				"z": 0.2241871968,
				"element": "C" 
			},
			{
				"x": 2.8890528466,
				"y": -2.369401656,
				"z": -1.0160620966,
				"element": "C" 
			},
			{
				"x": 1.5397553171,
				"y": -3.0404816191,
				"z": -0.7080803813,
				"element": "C" 
			},
			{
				"x": 0.5324806071,
				"y": -2.1485634229,
				"z": 0.0322678981,
				"element": "C" 
			},
			{
				"x": -0.8193493276,
				"y": -2.8383092327,
				"z": 0.2674951424,
				"element": "C" 
			},
			{
				"x": -1.8417928006,
				"y": -2.0010232569,
				"z": 1.0544819112,
				"element": "C" 
			},
			{
				"x": -2.3763622633,
				"y": -0.7729068845,
				"z": 0.301076921,
				"element": "C" 
			},
			{
				"x": -3.4209769214,
				"y": 0.0362487056,
				"z": 1.0944244156,
				"element": "C" 
			},
			{
				"x": -2.8690934828,
				"y": 0.8717679034,
				"z": 2.2745097777,
				"element": "C" 
			},
			{
				"x": -2.586056438,
				"y": 2.3534872838,
				"z": 1.962471395,
				"element": "C" 
			},
			{
				"x": -1.5005945489,
				"y": 2.6099526645,
				"z": 0.9064048963,
				"element": "C" 
			},
			{
				"x": -1.2001628319,
				"y": 4.0999534536,
				"z": 0.634487353,
				"element": "C" 
			},
			{
				"x": -0.5480597397,
				"y": 4.78468077,
				"z": 1.846620116,
				"element": "C" 
			},
			{
				"x": -0.3125019959,
				"y": 4.2893261163,
				"z": -0.6150148727,
				"element": "C" 
			},
			{
				"x": -0.9703696095,
				"y": 3.9179063181,
				"z": -1.949303259,
				"element": "C" 
			},
			{
				"x": 4.3801054377,
				"y": 1.8773274216,
				"z": -2.7708260384,
				"element": "H" 
			},
			{
				"x": 4.1961463959,
				"y": 3.5924101775,
				"z": -2.3976297852,
				"element": "H" 
			},
			{
				"x": 2.9773203835,
				"y": 2.4340366443,
				"z": -1.8500525261,
				"element": "H" 
			},
			{
				"x": 4.5123427387,
				"y": 3.1715650461,
				"z": 0.021876176,
				"element": "H" 
			},
			{
				"x": 5.8949486423,
				"y": 2.5558283627,
				"z": -0.8647066271,
				"element": "H" 
			},
			{
				"x": 5.0967337313,
				"y": 1.0329576965,
				"z": 0.9676398596,
				"element": "H" 
			},
			{
				"x": 3.5523087193,
				"y": 0.8614113519,
				"z": 0.1518183031,
				"element": "H" 
			},
			{
				"x": 4.6922974792,
				"y": -0.2423163718,
				"z": -1.7916410914,
				"element": "H" 
			},
			{
				"x": 6.2538721614,
				"y": 0.0598371788,
				"z": -1.0596984688,
				"element": "H" 
			},
			{
				"x": 5.706628229,
				"y": -1.4251986381,
				"z": 0.8487605502,
				"element": "H" 
			},
			{
				"x": 5.6782691847,
				"y": -2.2608390688,
				"z": -0.6940248706,
				"element": "H" 
			},
			{
				"x": 3.8430375595,
				"y": -2.9641744627,
				"z": 0.8218187098,
				"element": "H" 
			},
			{
				"x": 3.2071266582,
				"y": -1.3336767121,
				"z": 0.8660090629,
				"element": "H" 
			},
			{
				"x": 3.4697197148,
				"y": -3.0303338784,
				"z": -1.6746520102,
				"element": "H" 
			},
			{
				"x": 2.7062178962,
				"y": -1.4529736634,
				"z": -1.5934380641,
				"element": "H" 
			},
			{
				"x": 1.7149633465,
				"y": -3.9542263682,
				"z": -0.1217300932,
				"element": "H" 
			},
			{
				"x": 1.0865609544,
				"y": -3.3710067517,
				"z": -1.6527571909,
				"element": "H" 
			},
			{
				"x": 0.9456764569,
				"y": -1.8412084152,
				"z": 1.0023671249,
				"element": "H" 
			},
			{
				"x": 0.3882112932,
				"y": -1.2247818558,
				"z": -0.5441294528,
				"element": "H" 
			},
			{
				"x": -0.6423938284,
				"y": -3.7779659423,
				"z": 0.8085287941,
				"element": "H" 
			},
			{
				"x": -1.2541052078,
				"y": -3.1258621116,
				"z": -0.7008920307,
				"element": "H" 
			},
			{
				"x": -1.3900892158,
				"y": -1.6903862054,
				"z": 2.0067940927,
				"element": "H" 
			},
			{
				"x": -2.6939556326,
				"y": -2.6414713883,
				"z": 1.3208960231,
				"element": "H" 
			},
			{
				"x": -2.8323863027,
				"y": -1.115977686,
				"z": -0.6381682865,
				"element": "H" 
			},
			{
				"x": -1.5444369672,
				"y": -0.1200630699,
				"z": 0.0132505327,
				"element": "H" 
			},
			{
				"x": -4.1761041655,
				"y": -0.6664562511,
				"z": 1.4712010315,
				"element": "H" 
			},
			{
				"x": -3.958128279,
				"y": 0.7044890548,
				"z": 0.4078118094,
				"element": "H" 
			},
			{
				"x": -1.9556218424,
				"y": 0.4051131189,
				"z": 2.6672407022,
				"element": "H" 
			},
			{
				"x": -3.591135833,
				"y": 0.8424135372,
				"z": 3.0998636514,
				"element": "H" 
			},
			{
				"x": -2.3106777176,
				"y": 2.8492573575,
				"z": 2.9015228635,
				"element": "H" 
			},
			{
				"x": -3.5208007841,
				"y": 2.83001726,
				"z": 1.6322933632,
				"element": "H" 
			},
			{
				"x": -0.5672400787,
				"y": 2.1120437145,
				"z": 1.2107461156,
				"element": "H" 
			},
			{
				"x": -1.8075983243,
				"y": 2.1343079335,
				"z": -0.0315374509,
				"element": "H" 
			},
			{
				"x": -2.1593661583,
				"y": 4.6046306013,
				"z": 0.4364238202,
				"element": "H" 
			},
			{
				"x": 0.419552475,
				"y": 4.3227775365,
				"z": 2.0798605527,
				"element": "H" 
			},
			{
				"x": -0.3677360129,
				"y": 5.8466864861,
				"z": 1.6472198638,
				"element": "H" 
			},
			{
				"x": -1.1704789142,
				"y": 4.7207763298,
				"z": 2.7439467548,
				"element": "H" 
			},
			{
				"x": -0.0015643619,
				"y": 5.3413824903,
				"z": -0.6612331329,
				"element": "H" 
			},
			{
				"x": 0.6129577588,
				"y": 3.7092857171,
				"z": -0.4857209094,
				"element": "H" 
			},
			{
				"x": -0.3007446598,
				"y": 4.1356012024,
				"z": -2.7879855744,
				"element": "H" 
			},
			{
				"x": -1.2260184426,
				"y": 2.8551111001,
				"z": -2.0060800929,
				"element": "H" 
			},
			{
				"x": -1.8930538989,
				"y": 4.4888086507,
				"z": -2.1061260676,
				"element": "H" 
			}
		],
		 "valence_orbital": [ 
			{
				"type": "occ",
				"energy": -0.30231,
				"method": "rhf"
			},
			{
				"type": "occ",
				"energy": -0.29871,
				"method": "rhf"
			},
			{
				"type": "occ",
				"energy": -0.29552,
				"method": "rhf"
			},
			{
				"type": "occ",
				"energy": -0.29393,
				"method": "rhf"
			},
			{
				"type": "occ",
				"energy": -0.29149,
				"method": "rhf"
			},
			{
				"type": "unocc",
				"energy": 0.07239,
				"method": "rhf"
			},
			{
				"type": "unocc",
				"energy": 0.087,
				"method": "rhf"
			},
			{
				"type": "unocc",
				"energy": 0.09219,
				"method": "rhf"
			},
			{
				"type": "unocc",
				"energy": 0.09928,
				"method": "rhf"
			},
			{
				"type": "unocc",
				"energy": 0.10138,
				"method": "rhf"
			}
		],
		"cosmo_sigma_profile": { 
			"-0.025": 0.0,
			"-0.024": 0.0,
			"-0.023": 0.0,
			"-0.022": 0.0,
			"-0.021": 0.0,
			"-0.02": 0.0,
			"-0.019": 0.0,
			"-0.018": 0.0,
			"-0.017": 0.0,
			"-0.016": 0.0,
			"-0.015": 0.0,
			"-0.014": 0.0,
			"-0.013": 0.0,
			"-0.012": 0.0,
			"-0.011": 0.0,
			"-0.01": 0.0,
			"-0.009": 0.0,
			"-0.008": 0.0,
			"-0.007": 0.0,
			"-0.006": 0.0,
			"-0.005": 0.0,
			"-0.004": 0.0,
			"-0.003": 4.50897984808,
			"-0.002": 47.8233886327,
			"-0.001": 108.049482687,
			"0.0": 122.992715361,
			"0.001": 110.014155397,
			"0.002": 50.657408156,
			"0.003": 1.52399670748,
			"0.004": 0.0,
			"0.005": 0.0,
			"0.006": 0.0,
			"0.007": 0.0,
			"0.008": 0.0,
			"0.009": 0.0,
			"0.01": 0.0,
			"0.011": 0.0,
			"0.012": 0.0,
			"0.013": 0.0,
			"0.014": 0.0,
			"0.015": 0.0,
			"0.016": 0.0,
			"0.017": 0.0,
			"0.018": 0.0,
			"0.019": 0.0,
			"0.02": 0.0,
			"0.021": 0.0,
			"0.022": 0.0,
			"0.023": 0.0,
			"0.024": 0.0,
			"0.025": 0.0
		}
	}
}
