{
	 "smiles": "CC1=CC(=CC=C1)S(N)(=O)=O", 
	 "Tm": 378.15, 
	 "num_atms": 20, 
	 "gaussian": { 
		 "optdone": 1, 
		 "sigma_profile": "yes", 
		 "theory": "DFT", 
		 "functional": "B3LYP", 
		 "basiset": "6-31G**", 
		 "properties": { 
			 "R2extent": 3751.7448, 
			 "electric_dipole_moment_norm": 6.25577679989, 
			 "electric_quadrupole_moment_norm": 21.6654734631, 
			 "total_energy": -875.49255475, 
			 "HOMO_LUMO_gap": 0.22234, 
			 "cosmo_polarized_energy": -17.89, 
			 "cosmo_cavitation_energy": 25.24, 
			 "cosmo_dispersion_energy": -19.0, 
			 "cosmo_repulsion_energy": 1.49, 
			 "cosmo_total_nonelectrostatic_energy": 7.73, 
			 "SMD_solvation_energy": 4.09 
		},
		"coords": [
			{
				"x": 1.6664617816,
				"y": 0.9013347801,
				"z": -0.1825840097,
				"element": "C" 
			},
			{
				"x": 0.8600200795,
				"y": 0.175772761,
				"z": 0.8685734551,
				"element": "C" 
			},
			{
				"x": 0.2738901798,
				"y": -1.065208125,
				"z": 0.5940247969,
				"element": "C" 
			},
			{
				"x": -0.4970979398,
				"y": -1.7057695921,
				"z": 1.5662997303,
				"element": "C" 
			},
			{
				"x": -0.7159188766,
				"y": -1.1327651083,
				"z": 2.8197216166,
				"element": "C" 
			},
			{
				"x": -0.1284598942,
				"y": 0.1018968959,
				"z": 3.0972533289,
				"element": "C" 
			},
			{
				"x": 0.653076638,
				"y": 0.7424051326,
				"z": 2.1352631572,
				"element": "C" 
			},
			{
				"x": -1.2062672559,
				"y": -3.3192924251,
				"z": 1.1997956064,
				"element": "S" 
			},
			{
				"x": -0.072105576,
				"y": -4.4666051647,
				"z": 1.6819628027,
				"element": "N" 
			},
			{
				"x": -1.2934205463,
				"y": -3.4427090298,
				"z": -0.2543738463,
				"element": "O" 
			},
			{
				"x": -2.3534283622,
				"y": -3.506580752,
				"z": 2.0863106543,
				"element": "O" 
			},
			{
				"x": 2.5366500683,
				"y": 1.400108198,
				"z": 0.2554687394,
				"element": "H" 
			},
			{
				"x": 2.0205634836,
				"y": 0.2176256955,
				"z": -0.9587640557,
				"element": "H" 
			},
			{
				"x": 1.0636161576,
				"y": 1.6735008516,
				"z": -0.6756723897,
				"element": "H" 
			},
			{
				"x": 0.3932150635,
				"y": -1.5279114559,
				"z": -0.3808690656,
				"element": "H" 
			},
			{
				"x": -1.3470243581,
				"y": -1.6353127241,
				"z": 3.544610372,
				"element": "H" 
			},
			{
				"x": -0.2856569857,
				"y": 0.5684622936,
				"z": 4.0652353361,
				"element": "H" 
			},
			{
				"x": 1.104523397,
				"y": 1.7039969382,
				"z": 2.36653638,
				"element": "H" 
			},
			{
				"x": 0.7868495716,
				"y": -4.4185583629,
				"z": 1.1429694145,
				"element": "H" 
			},
			{
				"x": 0.0887133743,
				"y": -4.4606908067,
				"z": 2.6843379767,
				"element": "H" 
			}
		],
		 "valence_orbital": [ 
			{
				"type": "occ",
				"energy": -0.31489,
				"method": "rhf"
			},
			{
				"type": "occ",
				"energy": -0.30172,
				"method": "rhf"
			},
			{
				"type": "occ",
				"energy": -0.2995,
				"method": "rhf"
			},
			{
				"type": "occ",
				"energy": -0.26911,
				"method": "rhf"
			},
			{
				"type": "occ",
				"energy": -0.26187,
				"method": "rhf"
			},
			{
				"type": "unocc",
				"energy": -0.03953,
				"method": "rhf"
			},
			{
				"type": "unocc",
				"energy": -0.02128,
				"method": "rhf"
			},
			{
				"type": "unocc",
				"energy": 0.0522,
				"method": "rhf"
			},
			{
				"type": "unocc",
				"energy": 0.07738,
				"method": "rhf"
			},
			{
				"type": "unocc",
				"energy": 0.08677,
				"method": "rhf"
			}
		],
		"cosmo_sigma_profile": { 
			"-0.025": 0.0,
			"-0.024": 0.0,
			"-0.023": 0.0,
			"-0.022": 0.0,
			"-0.021": 0.0,
			"-0.02": 0.0,
			"-0.019": 0.0,
			"-0.018": 0.0,
			"-0.017": 0.0,
			"-0.016": 0.201030914614,
			"-0.015": 1.89571155577,
			"-0.014": 2.61162982886,
			"-0.013": 2.78550697797,
			"-0.012": 2.60677625071,
			"-0.011": 2.44446309654,
			"-0.01": 2.07101446233,
			"-0.009": 2.50864773772,
			"-0.008": 2.04382735088,
			"-0.007": 3.52139670318,
			"-0.006": 9.53423189861,
			"-0.005": 14.6420830122,
			"-0.004": 14.7646663679,
			"-0.003": 12.2690958362,
			"-0.002": 14.0098959062,
			"-0.001": 13.7049285879,
			"0.0": 13.2790121416,
			"0.001": 8.46152646945,
			"0.002": 11.2631399246,
			"0.003": 13.6843136735,
			"0.004": 8.2589854895,
			"0.005": 3.32026932885,
			"0.006": 2.91149038548,
			"0.007": 4.17185263878,
			"0.008": 5.15296187959,
			"0.009": 4.52953298199,
			"0.01": 6.31007614424,
			"0.011": 10.9506850077,
			"0.012": 6.3063622656,
			"0.013": 0.257587565569,
			"0.014": 0.0,
			"0.015": 0.0,
			"0.016": 0.0,
			"0.017": 0.0,
			"0.018": 0.0,
			"0.019": 0.0,
			"0.02": 0.0,
			"0.021": 0.0,
			"0.022": 0.0,
			"0.023": 0.0,
			"0.024": 0.0,
			"0.025": 0.0
		}
	}
}
