{
	 "smiles": "CC(=O)OC1=NN(C=C1Br)C1=CC=C(Br)C=C1", 
	 "Tm": 350.15, 
	 "num_atms": 25, 
	 "gaussian": { 
		 "optdone": 1, 
		 "sigma_profile": "yes", 
		 "theory": "DFT", 
		 "functional": "B3LYP", 
		 "basiset": "6-31G**", 
		 "properties": { 
			 "R2extent": 11967.5252, 
			 "electric_dipole_moment_norm": 1.42373853288, 
			 "electric_quadrupole_moment_norm": 13.7687940318, 
			 "total_energy": -5826.72784333, 
			 "HOMO_LUMO_gap": 0.18549, 
			 "cosmo_polarized_energy": -12.41, 
			 "cosmo_cavitation_energy": 35.94, 
			 "cosmo_dispersion_energy": -26.36, 
			 "cosmo_repulsion_energy": 2.06, 
			 "cosmo_total_nonelectrostatic_energy": 11.64, 
			 "SMD_solvation_energy": 4.58 
		},
		"coords": [
			{
				"x": 0.4763421235,
				"y": 0.8917827343,
				"z": -4.7238422235,
				"element": "C" 
			},
			{
				"x": 0.2157276865,
				"y": 0.2965670589,
				"z": -3.3668858327,
				"element": "C" 
			},
			{
				"x": 0.2856971745,
				"y": -0.8607891018,
				"z": -3.0529375846,
				"element": "O" 
			},
			{
				"x": -0.1339771313,
				"y": 1.3034225422,
				"z": -2.4783866507,
				"element": "O" 
			},
			{
				"x": -0.4380516615,
				"y": 0.9306241987,
				"z": -1.1977111668,
				"element": "C" 
			},
			{
				"x": 0.4376938458,
				"y": 1.1040636638,
				"z": -0.2248936902,
				"element": "N" 
			},
			{
				"x": -0.2105663818,
				"y": 0.7025995053,
				"z": 0.8996019144,
				"element": "N" 
			},
			{
				"x": -1.4856908448,
				"y": 0.2864159648,
				"z": 0.6374141055,
				"element": "C" 
			},
			{
				"x": -1.6664900359,
				"y": 0.419272899,
				"z": -0.721294394,
				"element": "C" 
			},
			{
				"x": -3.2066628375,
				"y": 0.0330552034,
				"z": -1.718317922,
				"element": "Br" 
			},
			{
				"x": 0.44569129,
				"y": 0.7736047371,
				"z": 2.1554004403,
				"element": "C" 
			},
			{
				"x": -0.0138940189,
				"y": 0.0184927607,
				"z": 3.2392771502,
				"element": "C" 
			},
			{
				"x": 0.6264841293,
				"y": 0.1117288321,
				"z": 4.473505212,
				"element": "C" 
			},
			{
				"x": 1.7330949538,
				"y": 0.9469477335,
				"z": 4.6126966136,
				"element": "C" 
			},
			{
				"x": 2.6141471074,
				"y": 1.0698059373,
				"z": 6.3013803345,
				"element": "Br" 
			},
			{
				"x": 2.207176125,
				"y": 1.6889762739,
				"z": 3.5310889848,
				"element": "C" 
			},
			{
				"x": 1.5607653765,
				"y": 1.6058191048,
				"z": 2.3010526093,
				"element": "C" 
			},
			{
				"x": -0.4277148432,
				"y": 1.3867233024,
				"z": -5.0905653971,
				"element": "H" 
			},
			{
				"x": 1.2602522034,
				"y": 1.6512819487,
				"z": -4.654406531,
				"element": "H" 
			},
			{
				"x": 0.7762302691,
				"y": 0.1030155839,
				"z": -5.4124951086,
				"element": "H" 
			},
			{
				"x": -2.1676903905,
				"y": -0.0390369803,
				"z": 1.4058729646,
				"element": "H" 
			},
			{
				"x": -0.8525824121,
				"y": -0.6598349283,
				"z": 3.1278812469,
				"element": "H" 
			},
			{
				"x": 0.2732432345,
				"y": -0.4726729214,
				"z": 5.3150429652,
				"element": "H" 
			},
			{
				"x": 3.0711095805,
				"y": 2.3328510415,
				"z": 3.6484778377,
				"element": "H" 
			},
			{
				"x": 1.9105654577,
				"y": 2.1751829055,
				"z": 1.4489441221,
				"element": "H" 
			}
		],
		 "valence_orbital": [ 
			{
				"type": "occ",
				"energy": -0.28992,
				"method": "rhf"
			},
			{
				"type": "occ",
				"energy": -0.27851,
				"method": "rhf"
			},
			{
				"type": "occ",
				"energy": -0.27662,
				"method": "rhf"
			},
			{
				"type": "occ",
				"energy": -0.25834,
				"method": "rhf"
			},
			{
				"type": "occ",
				"energy": -0.22963,
				"method": "rhf"
			},
			{
				"type": "unocc",
				"energy": -0.04414,
				"method": "rhf"
			},
			{
				"type": "unocc",
				"energy": -0.02787,
				"method": "rhf"
			},
			{
				"type": "unocc",
				"energy": -0.00208,
				"method": "rhf"
			},
			{
				"type": "unocc",
				"energy": 0.00037,
				"method": "rhf"
			},
			{
				"type": "unocc",
				"energy": 0.00666,
				"method": "rhf"
			}
		],
		"cosmo_sigma_profile": { 
			"-0.025": 0.0,
			"-0.024": 0.0,
			"-0.023": 0.0,
			"-0.022": 0.0,
			"-0.021": 0.0,
			"-0.02": 0.0,
			"-0.019": 0.0,
			"-0.018": 0.0,
			"-0.017": 0.0,
			"-0.016": 0.0,
			"-0.015": 0.0,
			"-0.014": 0.0,
			"-0.013": 0.0,
			"-0.012": 0.506237216038,
			"-0.011": 2.28932949256,
			"-0.01": 2.64397745177,
			"-0.009": 2.04287333549,
			"-0.008": 4.90462898748,
			"-0.007": 11.6922368068,
			"-0.006": 15.612285613,
			"-0.005": 14.899172168,
			"-0.004": 15.3030777054,
			"-0.003": 19.6752605745,
			"-0.002": 18.9614758056,
			"-0.001": 18.1765867378,
			"0.0": 24.2322426972,
			"0.001": 26.1007885937,
			"0.002": 34.4519216902,
			"0.003": 24.9872019264,
			"0.004": 23.5642949977,
			"0.005": 9.28982644963,
			"0.006": 5.80915933934,
			"0.007": 4.00047607302,
			"0.008": 3.5990937295,
			"0.009": 3.55146821742,
			"0.01": 5.02716769714,
			"0.011": 4.35241322166,
			"0.012": 0.447904848768,
			"0.013": 0.0,
			"0.014": 0.0,
			"0.015": 0.0,
			"0.016": 0.0,
			"0.017": 0.0,
			"0.018": 0.0,
			"0.019": 0.0,
			"0.02": 0.0,
			"0.021": 0.0,
			"0.022": 0.0,
			"0.023": 0.0,
			"0.024": 0.0,
			"0.025": 0.0
		}
	}
}
