{
	 "smiles": "NS(=O)(=O)C1=NC=C(Br)C=C1", 
	 "Tm": 444.15, 
	 "num_atms": 16, 
	 "gaussian": { 
		 "optdone": 1, 
		 "sigma_profile": "yes", 
		 "theory": "DFT", 
		 "functional": "B3LYP", 
		 "basiset": "6-31G**", 
		 "properties": { 
			 "R2extent": 4271.0738, 
			 "electric_dipole_moment_norm": 5.10709401617, 
			 "electric_quadrupole_moment_norm": 14.9006555503, 
			 "total_energy": -3423.00588297, 
			 "HOMO_LUMO_gap": 0.20536, 
			 "cosmo_polarized_energy": -17.36, 
			 "cosmo_cavitation_energy": 24.7, 
			 "cosmo_dispersion_energy": -19.29, 
			 "cosmo_repulsion_energy": 1.51, 
			 "cosmo_total_nonelectrostatic_energy": 6.92, 
			 "SMD_solvation_energy": 1.69 
		},
		"coords": [
			{
				"x": 2.6288781328,
				"y": -1.6128007995,
				"z": -0.8417083294,
				"element": "N" 
			},
			{
				"x": 1.213769276,
				"y": -1.6767569182,
				"z": 0.0470046782,
				"element": "S" 
			},
			{
				"x": 0.4815574107,
				"y": -2.8576967355,
				"z": -0.3985164775,
				"element": "O" 
			},
			{
				"x": 1.5746577866,
				"y": -1.4620817978,
				"z": 1.4485522099,
				"element": "O" 
			},
			{
				"x": 0.2609533825,
				"y": -0.221202234,
				"z": -0.4749408917,
				"element": "C" 
			},
			{
				"x": 0.2760798393,
				"y": 0.0324905501,
				"z": -1.7814073911,
				"element": "N" 
			},
			{
				"x": -0.4509703811,
				"y": 1.0611275313,
				"z": -2.2237479034,
				"element": "C" 
			},
			{
				"x": -1.2112178549,
				"y": 1.8564645004,
				"z": -1.3602137254,
				"element": "C" 
			},
			{
				"x": -2.2213269483,
				"y": 3.3031675641,
				"z": -2.0641493006,
				"element": "Br" 
			},
			{
				"x": -1.2140513691,
				"y": 1.586495557,
				"z": 0.0069363053,
				"element": "C" 
			},
			{
				"x": -0.4517886544,
				"y": 0.5142219674,
				"z": 0.4691693415,
				"element": "C" 
			},
			{
				"x": 3.2279015209,
				"y": -0.8487152015,
				"z": -0.5426730915,
				"element": "H" 
			},
			{
				"x": 2.4359235839,
				"y": -1.5863156233,
				"z": -1.8397497896,
				"element": "H" 
			},
			{
				"x": -0.4302408174,
				"y": 1.2641471746,
				"z": -3.2905637293,
				"element": "H" 
			},
			{
				"x": -1.7923898186,
				"y": 2.198518121,
				"z": 0.6900105716,
				"element": "H" 
			},
			{
				"x": -0.3996350888,
				"y": 0.2574363441,
				"z": 1.5207975232,
				"element": "H" 
			}
		],
		 "valence_orbital": [ 
			{
				"type": "occ",
				"energy": -0.31616,
				"method": "rhf"
			},
			{
				"type": "occ",
				"energy": -0.3143,
				"method": "rhf"
			},
			{
				"type": "occ",
				"energy": -0.30678,
				"method": "rhf"
			},
			{
				"type": "occ",
				"energy": -0.29135,
				"method": "rhf"
			},
			{
				"type": "occ",
				"energy": -0.27515,
				"method": "rhf"
			},
			{
				"type": "unocc",
				"energy": -0.06979,
				"method": "rhf"
			},
			{
				"type": "unocc",
				"energy": -0.05632,
				"method": "rhf"
			},
			{
				"type": "unocc",
				"energy": -0.01846,
				"method": "rhf"
			},
			{
				"type": "unocc",
				"energy": 0.05229,
				"method": "rhf"
			},
			{
				"type": "unocc",
				"energy": 0.07431,
				"method": "rhf"
			}
		],
		"cosmo_sigma_profile": { 
			"-0.025": 0.0,
			"-0.024": 0.0,
			"-0.023": 0.0,
			"-0.022": 0.0,
			"-0.021": 0.0,
			"-0.02": 0.0,
			"-0.019": 0.0,
			"-0.018": 0.0,
			"-0.017": 0.0,
			"-0.016": 0.705847379283,
			"-0.015": 2.01345316283,
			"-0.014": 1.748285229,
			"-0.013": 2.34390561503,
			"-0.012": 2.34464484708,
			"-0.011": 1.95116266864,
			"-0.01": 2.1569734581,
			"-0.009": 6.10248431456,
			"-0.008": 7.31930617741,
			"-0.007": 5.59397086599,
			"-0.006": 7.1535908541,
			"-0.005": 7.94608566048,
			"-0.004": 8.73583227486,
			"-0.003": 10.7989062265,
			"-0.002": 16.8144976957,
			"-0.001": 19.0940206917,
			"0.0": 10.2214456475,
			"0.001": 9.19491109639,
			"0.002": 10.2976928506,
			"0.003": 14.0548785103,
			"0.004": 7.41536792533,
			"0.005": 4.64160644656,
			"0.006": 4.5647483042,
			"0.007": 5.72809368706,
			"0.008": 4.39216449091,
			"0.009": 5.1428692158,
			"0.01": 11.2461273807,
			"0.011": 10.3958963448,
			"0.012": 1.62920170743,
			"0.013": 0.0220617821347,
			"0.014": 0.0,
			"0.015": 0.0,
			"0.016": 0.0,
			"0.017": 0.0,
			"0.018": 0.0,
			"0.019": 0.0,
			"0.02": 0.0,
			"0.021": 0.0,
			"0.022": 0.0,
			"0.023": 0.0,
			"0.024": 0.0,
			"0.025": 0.0
		}
	}
}
