{
	 "smiles": "NC(=O)C1=CC=C(CSC2=C(C=CC=N2)C(O)=O)C=C1", 
	 "Tm": 565.15, 
	 "num_atms": 32, 
	 "gaussian": { 
		 "optdone": 1, 
		 "sigma_profile": "yes", 
		 "theory": "DFT", 
		 "functional": "B3LYP", 
		 "basiset": "6-31G**", 
		 "properties": { 
			 "R2extent": 7627.0413, 
			 "electric_dipole_moment_norm": 7.48975808822, 
			 "electric_quadrupole_moment_norm": 22.762028334, 
			 "total_energy": -1274.11099817, 
			 "HOMO_LUMO_gap": 0.18152, 
			 "cosmo_polarized_energy": -23.11, 
			 "cosmo_cavitation_energy": 38.68, 
			 "cosmo_dispersion_energy": -27.57, 
			 "cosmo_repulsion_energy": 2.08, 
			 "cosmo_total_nonelectrostatic_energy": 13.2, 
			 "SMD_solvation_energy": 7.67 
		},
		"coords": [
			{
				"x": -2.2148704736,
				"y": -3.0390480346,
				"z": -3.1133219846,
				"element": "N" 
			},
			{
				"x": -2.6279392753,
				"y": -1.8069944917,
				"z": -2.66311044,
				"element": "C" 
			},
			{
				"x": -3.8094747754,
				"y": -1.4849984825,
				"z": -2.6577268849,
				"element": "O" 
			},
			{
				"x": -1.5533473099,
				"y": -0.887999205,
				"z": -2.1532672351,
				"element": "C" 
			},
			{
				"x": -0.2703748217,
				"y": -1.3188144206,
				"z": -1.7916063746,
				"element": "C" 
			},
			{
				"x": 0.6762438529,
				"y": -0.4078399515,
				"z": -1.3245994521,
				"element": "C" 
			},
			{
				"x": 0.3603108884,
				"y": 0.9521310699,
				"z": -1.2078389334,
				"element": "C" 
			},
			{
				"x": 1.3871104111,
				"y": 1.9348770821,
				"z": -0.7125413028,
				"element": "C" 
			},
			{
				"x": 1.2332006336,
				"y": 2.3748146173,
				"z": 1.0810216286,
				"element": "S" 
			},
			{
				"x": 2.0202757831,
				"y": 0.9707561538,
				"z": 1.8890303336,
				"element": "C" 
			},
			{
				"x": 1.6704028361,
				"y": 0.5989235761,
				"z": 3.2083090315,
				"element": "C" 
			},
			{
				"x": 2.4384743673,
				"y": -0.4121206369,
				"z": 3.8022467313,
				"element": "C" 
			},
			{
				"x": 3.4556499313,
				"y": -1.0358086588,
				"z": 3.0908612476,
				"element": "C" 
			},
			{
				"x": 3.6787597276,
				"y": -0.62068633,
				"z": 1.7796203801,
				"element": "C" 
			},
			{
				"x": 2.9903135742,
				"y": 0.3667845238,
				"z": 1.1990492393,
				"element": "N" 
			},
			{
				"x": 0.5555093521,
				"y": 1.1460433283,
				"z": 4.0756715451,
				"element": "C" 
			},
			{
				"x": -0.4445520285,
				"y": 1.831621763,
				"z": 3.4974216941,
				"element": "O" 
			},
			{
				"x": 0.5440036055,
				"y": 0.9397097366,
				"z": 5.2690996286,
				"element": "O" 
			},
			{
				"x": -0.9298102395,
				"y": 1.3772337274,
				"z": -1.5601702162,
				"element": "C" 
			},
			{
				"x": -1.8763977087,
				"y": 0.4693650807,
				"z": -2.0202568293,
				"element": "C" 
			},
			{
				"x": -1.2681792442,
				"y": -3.1759145065,
				"z": -3.4310539816,
				"element": "H" 
			},
			{
				"x": -2.9301963174,
				"y": -3.5946976007,
				"z": -3.5601748138,
				"element": "H" 
			},
			{
				"x": -0.0092079517,
				"y": -2.3719279406,
				"z": -1.8412870605,
				"element": "H" 
			},
			{
				"x": 1.6658401444,
				"y": -0.7500394062,
				"z": -1.0383653541,
				"element": "H" 
			},
			{
				"x": 1.2916743955,
				"y": 2.9028382892,
				"z": -1.2114385464,
				"element": "H" 
			},
			{
				"x": 2.4060377809,
				"y": 1.5682646725,
				"z": -0.8400600572,
				"element": "H" 
			},
			{
				"x": 2.1991034383,
				"y": -0.6884653392,
				"z": 4.8233193944,
				"element": "H" 
			},
			{
				"x": 4.0531058317,
				"y": -1.8258731604,
				"z": 3.5325833274,
				"element": "H" 
			},
			{
				"x": 4.4472034058,
				"y": -1.0884662006,
				"z": 1.1673404894,
				"element": "H" 
			},
			{
				"x": -0.3215794303,
				"y": 1.9079585524,
				"z": 2.5299441731,
				"element": "H" 
			},
			{
				"x": -1.1919501797,
				"y": 2.4285774554,
				"z": -1.4704256593,
				"element": "H" 
			},
			{
				"x": -2.8788402042,
				"y": 0.7862947374,
				"z": -2.2869737182,
				"element": "H" 
			}
		],
		 "valence_orbital": [ 
			{
				"type": "occ",
				"energy": -0.27051,
				"method": "rhf"
			},
			{
				"type": "occ",
				"energy": -0.26884,
				"method": "rhf"
			},
			{
				"type": "occ",
				"energy": -0.26495,
				"method": "rhf"
			},
			{
				"type": "occ",
				"energy": -0.25366,
				"method": "rhf"
			},
			{
				"type": "occ",
				"energy": -0.24661,
				"method": "rhf"
			},
			{
				"type": "unocc",
				"energy": -0.06509,
				"method": "rhf"
			},
			{
				"type": "unocc",
				"energy": -0.05641,
				"method": "rhf"
			},
			{
				"type": "unocc",
				"energy": -0.04269,
				"method": "rhf"
			},
			{
				"type": "unocc",
				"energy": -0.01868,
				"method": "rhf"
			},
			{
				"type": "unocc",
				"energy": 0.01604,
				"method": "rhf"
			}
		],
		"cosmo_sigma_profile": { 
			"-0.025": 0.0,
			"-0.024": 0.0,
			"-0.023": 0.0,
			"-0.022": 0.0,
			"-0.021": 0.0,
			"-0.02": 0.0,
			"-0.019": 0.0,
			"-0.018": 0.0,
			"-0.017": 0.0,
			"-0.016": 0.0,
			"-0.015": 0.067917443578,
			"-0.014": 1.71205023917,
			"-0.013": 2.04940529662,
			"-0.012": 2.54822778763,
			"-0.011": 2.55281482721,
			"-0.01": 3.56626600887,
			"-0.009": 3.63853024135,
			"-0.008": 8.81810199089,
			"-0.007": 14.7775129317,
			"-0.006": 16.1203860269,
			"-0.005": 18.3010744196,
			"-0.004": 18.5825136522,
			"-0.003": 15.8413964047,
			"-0.002": 18.8628787479,
			"-0.001": 23.6299935337,
			"0.0": 28.9768430614,
			"0.001": 21.0757969809,
			"0.002": 18.0658330103,
			"0.003": 15.8813712867,
			"0.004": 17.1596758379,
			"0.005": 8.06056952974,
			"0.006": 5.77816868225,
			"0.007": 5.96520297723,
			"0.008": 6.79506140768,
			"0.009": 4.28161608406,
			"0.01": 6.49142210558,
			"0.011": 6.55001892391,
			"0.012": 5.77655454032,
			"0.013": 5.77827583627,
			"0.014": 3.86444994022,
			"0.015": 0.226700111582,
			"0.016": 0.0,
			"0.017": 0.0,
			"0.018": 0.0,
			"0.019": 0.0,
			"0.02": 0.0,
			"0.021": 0.0,
			"0.022": 0.0,
			"0.023": 0.0,
			"0.024": 0.0,
			"0.025": 0.0
		}
	}
}
