{
	 "smiles": "CCCCCCCCCCCCCCC(Br)C(O)=O", 
	 "Tm": 327.15, 
	 "num_atms": 50, 
	 "gaussian": { 
		 "optdone": 1, 
		 "sigma_profile": "yes", 
		 "theory": "DFT", 
		 "functional": "B3LYP", 
		 "basiset": "6-31G**", 
		 "properties": { 
			 "R2extent": 9344.3325, 
			 "electric_dipole_moment_norm": 3.00105001791, 
			 "electric_quadrupole_moment_norm": 17.2462254311, 
			 "total_energy": -3350.28547358, 
			 "HOMO_LUMO_gap": 0.22935, 
			 "cosmo_polarized_energy": -10.33, 
			 "cosmo_cavitation_energy": 51.03, 
			 "cosmo_dispersion_energy": -31.93, 
			 "cosmo_repulsion_energy": 2.5, 
			 "cosmo_total_nonelectrostatic_energy": 21.6, 
			 "SMD_solvation_energy": 6.75 
		},
		"coords": [
			{
				"x": 1.1245183772,
				"y": -4.2858058434,
				"z": -1.7871887639,
				"element": "C" 
			},
			{
				"x": 0.5773703873,
				"y": -2.9311230725,
				"z": -1.3215194787,
				"element": "C" 
			},
			{
				"x": 1.365891292,
				"y": -1.7179276101,
				"z": -1.8449199525,
				"element": "C" 
			},
			{
				"x": 1.3704119374,
				"y": -1.5249602058,
				"z": -3.3728757165,
				"element": "C" 
			},
			{
				"x": 0.0117550541,
				"y": -1.3328318148,
				"z": -4.0760240011,
				"element": "C" 
			},
			{
				"x": -0.7531020162,
				"y": -0.0272740843,
				"z": -3.7673039825,
				"element": "C" 
			},
			{
				"x": -1.6527775417,
				"y": -0.058490649,
				"z": -2.5204127788,
				"element": "C" 
			},
			{
				"x": -2.5565229848,
				"y": 1.1771001923,
				"z": -2.3605009229,
				"element": "C" 
			},
			{
				"x": -1.8333350989,
				"y": 2.525535786,
				"z": -2.1818847421,
				"element": "C" 
			},
			{
				"x": -0.8980476288,
				"y": 2.6338971053,
				"z": -0.9642339703,
				"element": "C" 
			},
			{
				"x": -1.5951310726,
				"y": 2.4386425487,
				"z": 0.3910345304,
				"element": "C" 
			},
			{
				"x": -0.7302046553,
				"y": 2.8127612956,
				"z": 1.6088062524,
				"element": "C" 
			},
			{
				"x": 0.589723201,
				"y": 2.0371406386,
				"z": 1.7740016603,
				"element": "C" 
			},
			{
				"x": 0.464736367,
				"y": 0.5018307218,
				"z": 1.8802802386,
				"element": "C" 
			},
			{
				"x": -0.3261057171,
				"y": 0.0171103108,
				"z": 3.0935502004,
				"element": "C" 
			},
			{
				"x": -0.8933452291,
				"y": -1.8991039212,
				"z": 2.833094028,
				"element": "Br" 
			},
			{
				"x": 0.4148999552,
				"y": 0.1491169683,
				"z": 4.4328823764,
				"element": "C" 
			},
			{
				"x": -0.086677743,
				"y": -0.5291805557,
				"z": 5.4800755657,
				"element": "O" 
			},
			{
				"x": 1.360470297,
				"y": 0.888180678,
				"z": 4.5624917507,
				"element": "O" 
			},
			{
				"x": 0.5656363274,
				"y": -5.112417148,
				"z": -1.3360922869,
				"element": "H" 
			},
			{
				"x": 2.1774021651,
				"y": -4.404546615,
				"z": -1.5052728291,
				"element": "H" 
			},
			{
				"x": 1.0594990045,
				"y": -4.4022541627,
				"z": -2.8741037191,
				"element": "H" 
			},
			{
				"x": 0.5841852326,
				"y": -2.9002543291,
				"z": -0.2244328618,
				"element": "H" 
			},
			{
				"x": -0.4768144495,
				"y": -2.8445481714,
				"z": -1.6134986886,
				"element": "H" 
			},
			{
				"x": 2.4095066348,
				"y": -1.8108906969,
				"z": -1.512700321,
				"element": "H" 
			},
			{
				"x": 0.9843111584,
				"y": -0.8094968964,
				"z": -1.362494486,
				"element": "H" 
			},
			{
				"x": 2.0046197786,
				"y": -0.6586605664,
				"z": -3.6070445774,
				"element": "H" 
			},
			{
				"x": 1.8700919122,
				"y": -2.3863247919,
				"z": -3.8348656595,
				"element": "H" 
			},
			{
				"x": -0.6428259019,
				"y": -2.1925585184,
				"z": -3.8781015166,
				"element": "H" 
			},
			{
				"x": 0.209717627,
				"y": -1.3600650525,
				"z": -5.1551880466,
				"element": "H" 
			},
			{
				"x": -0.0336576923,
				"y": 0.7999525048,
				"z": -3.696384107,
				"element": "H" 
			},
			{
				"x": -1.3921744527,
				"y": 0.2090216453,
				"z": -4.6296169709,
				"element": "H" 
			},
			{
				"x": -1.0478243588,
				"y": -0.1920979589,
				"z": -1.6163963555,
				"element": "H" 
			},
			{
				"x": -2.2972279247,
				"y": -0.9462123271,
				"z": -2.5789716165,
				"element": "H" 
			},
			{
				"x": -3.229663624,
				"y": 1.0109825555,
				"z": -1.5096870738,
				"element": "H" 
			},
			{
				"x": -3.2068233337,
				"y": 1.2533203816,
				"z": -3.2428274074,
				"element": "H" 
			},
			{
				"x": -2.5943350839,
				"y": 3.3147084827,
				"z": -2.109883842,
				"element": "H" 
			},
			{
				"x": -1.2556178936,
				"y": 2.7512990999,
				"z": -3.086943384,
				"element": "H" 
			},
			{
				"x": -0.0743935051,
				"y": 1.9157966391,
				"z": -1.0678367481,
				"element": "H" 
			},
			{
				"x": -0.4289840595,
				"y": 3.6275467806,
				"z": -0.9793572386,
				"element": "H" 
			},
			{
				"x": -1.9445027985,
				"y": 1.4018189916,
				"z": 0.483820136,
				"element": "H" 
			},
			{
				"x": -2.5023671284,
				"y": 3.0579185423,
				"z": 0.4147111853,
				"element": "H" 
			},
			{
				"x": -0.480620292,
				"y": 3.8802839095,
				"z": 1.5473768876,
				"element": "H" 
			},
			{
				"x": -1.3377643892,
				"y": 2.7117467166,
				"z": 2.51879536,
				"element": "H" 
			},
			{
				"x": 1.2391530495,
				"y": 2.2413523759,
				"z": 0.9143701609,
				"element": "H" 
			},
			{
				"x": 1.1191214456,
				"y": 2.4085998788,
				"z": 2.6548191031,
				"element": "H" 
			},
			{
				"x": 1.464666996,
				"y": 0.0593909798,
				"z": 1.9192096187,
				"element": "H" 
			},
			{
				"x": -0.0235167803,
				"y": 0.1111915416,
				"z": 0.9831557111,
				"element": "H" 
			},
			{
				"x": -1.2867954509,
				"y": 0.5299480395,
				"z": 3.1827498969,
				"element": "H" 
			},
			{
				"x": -0.7439293934,
				"y": -1.1751703194,
				"z": 5.1691393831,
				"element": "H" 
			}
		],
		 "valence_orbital": [ 
			{
				"type": "occ",
				"energy": -0.30403,
				"method": "rhf"
			},
			{
				"type": "occ",
				"energy": -0.30281,
				"method": "rhf"
			},
			{
				"type": "occ",
				"energy": -0.29946,
				"method": "rhf"
			},
			{
				"type": "occ",
				"energy": -0.29557,
				"method": "rhf"
			},
			{
				"type": "occ",
				"energy": -0.27803,
				"method": "rhf"
			},
			{
				"type": "unocc",
				"energy": -0.04868,
				"method": "rhf"
			},
			{
				"type": "unocc",
				"energy": 0.01067,
				"method": "rhf"
			},
			{
				"type": "unocc",
				"energy": 0.05237,
				"method": "rhf"
			},
			{
				"type": "unocc",
				"energy": 0.07621,
				"method": "rhf"
			},
			{
				"type": "unocc",
				"energy": 0.08309,
				"method": "rhf"
			}
		],
		"cosmo_sigma_profile": { 
			"-0.025": 0.0,
			"-0.024": 0.0,
			"-0.023": 0.0,
			"-0.022": 0.0,
			"-0.021": 0.0,
			"-0.02": 0.0,
			"-0.019": 0.0,
			"-0.018": 0.0,
			"-0.017": 0.0,
			"-0.016": 0.0106872952081,
			"-0.015": 0.65525770155,
			"-0.014": 1.0261864385,
			"-0.013": 1.21645690942,
			"-0.012": 1.14656120243,
			"-0.011": 1.33557753075,
			"-0.01": 2.16813466559,
			"-0.009": 2.28350948569,
			"-0.008": 2.45918828776,
			"-0.007": 2.88915986401,
			"-0.006": 3.34327895222,
			"-0.005": 4.18088128677,
			"-0.004": 7.21797052025,
			"-0.003": 17.802846486,
			"-0.002": 44.5538845247,
			"-0.001": 75.1907487692,
			"0.0": 80.3982363995,
			"0.001": 70.5033477357,
			"0.002": 33.09931406,
			"0.003": 7.78973654807,
			"0.004": 6.8045084999,
			"0.005": 5.63105919301,
			"0.006": 2.43581172612,
			"0.007": 3.34820002621,
			"0.008": 2.90116757825,
			"0.009": 4.9894785438,
			"0.01": 4.43151072785,
			"0.011": 4.11622674671,
			"0.012": 1.80122428766,
			"0.013": 0.0987247012741,
			"0.014": 0.0,
			"0.015": 0.0,
			"0.016": 0.0,
			"0.017": 0.0,
			"0.018": 0.0,
			"0.019": 0.0,
			"0.02": 0.0,
			"0.021": 0.0,
			"0.022": 0.0,
			"0.023": 0.0,
			"0.024": 0.0,
			"0.025": 0.0
		}
	}
}
