{
	 "smiles": "CC1=CC(=CC(C)=C1)C(O)=O", 
	 "Tm": 444.15, 
	 "num_atms": 21, 
	 "gaussian": { 
		 "optdone": 1, 
		 "sigma_profile": "yes", 
		 "theory": "DFT", 
		 "functional": "B3LYP", 
		 "basiset": "6-31G**", 
		 "properties": { 
			 "R2extent": 2414.7894, 
			 "electric_dipole_moment_norm": 5.17540128879, 
			 "electric_quadrupole_moment_norm": 13.8371214619, 
			 "total_energy": -499.456320303, 
			 "HOMO_LUMO_gap": 0.20537, 
			 "cosmo_polarized_energy": -13.18, 
			 "cosmo_cavitation_energy": 24.91, 
			 "cosmo_dispersion_energy": -18.18, 
			 "cosmo_repulsion_energy": 1.47, 
			 "cosmo_total_nonelectrostatic_energy": 8.2, 
			 "SMD_solvation_energy": 5.58 
		},
		"coords": [
			{
				"x": 2.4528899542,
				"y": -0.8773886476,
				"z": -1.1642249814,
				"element": "C" 
			},
			{
				"x": 1.1468765579,
				"y": -1.2123016955,
				"z": -0.4822119334,
				"element": "C" 
			},
			{
				"x": 0.3076299063,
				"y": -0.2054485208,
				"z": 0.004806963,
				"element": "C" 
			},
			{
				"x": -0.8953653011,
				"y": -0.5238788759,
				"z": 0.6499784668,
				"element": "C" 
			},
			{
				"x": -1.2729034926,
				"y": -1.8633633299,
				"z": 0.7896208764,
				"element": "C" 
			},
			{
				"x": -0.451795021,
				"y": -2.8906201787,
				"z": 0.3170145637,
				"element": "C" 
			},
			{
				"x": -0.8661372788,
				"y": -4.3374748127,
				"z": 0.4489158235,
				"element": "C" 
			},
			{
				"x": 0.7526363315,
				"y": -2.5451461163,
				"z": -0.3096795774,
				"element": "C" 
			},
			{
				"x": -1.8319764984,
				"y": 0.5193589841,
				"z": 1.1824742517,
				"element": "C" 
			},
			{
				"x": -1.2997279084,
				"y": 1.7473873062,
				"z": 1.4323555313,
				"element": "O" 
			},
			{
				"x": -3.0047286969,
				"y": 0.3179492471,
				"z": 1.3949966822,
				"element": "O" 
			},
			{
				"x": 2.489246315,
				"y": 0.172721898,
				"z": -1.4674332641,
				"element": "H" 
			},
			{
				"x": 2.6063713716,
				"y": -1.4914182665,
				"z": -2.0572870165,
				"element": "H" 
			},
			{
				"x": 3.3052242,
				"y": -1.0580093042,
				"z": -0.4978682211,
				"element": "H" 
			},
			{
				"x": 0.5884852526,
				"y": 0.8320809286,
				"z": -0.1656220143,
				"element": "H" 
			},
			{
				"x": -2.2186818871,
				"y": -2.0830643366,
				"z": 1.2745863173,
				"element": "H" 
			},
			{
				"x": -0.0006264455,
				"y": -4.9904999386,
				"z": 0.5967066101,
				"element": "H" 
			},
			{
				"x": -1.3831446733,
				"y": -4.6815815262,
				"z": -0.4553515832,
				"element": "H" 
			},
			{
				"x": -1.5499147313,
				"y": -4.4814213931,
				"z": 1.2898853668,
				"element": "H" 
			},
			{
				"x": 1.3998300789,
				"y": -3.337245907,
				"z": -0.6817299461,
				"element": "H" 
			},
			{
				"x": -0.3354880338,
				"y": 1.7072644855,
				"z": 1.3689670846,
				"element": "H" 
			}
		],
		 "valence_orbital": [ 
			{
				"type": "occ",
				"energy": -0.35088,
				"method": "rhf"
			},
			{
				"type": "occ",
				"energy": -0.311,
				"method": "rhf"
			},
			{
				"type": "occ",
				"energy": -0.27089,
				"method": "rhf"
			},
			{
				"type": "occ",
				"energy": -0.25786,
				"method": "rhf"
			},
			{
				"type": "occ",
				"energy": -0.25177,
				"method": "rhf"
			},
			{
				"type": "unocc",
				"energy": -0.0464,
				"method": "rhf"
			},
			{
				"type": "unocc",
				"energy": -0.01401,
				"method": "rhf"
			},
			{
				"type": "unocc",
				"energy": 0.0485,
				"method": "rhf"
			},
			{
				"type": "unocc",
				"energy": 0.06568,
				"method": "rhf"
			},
			{
				"type": "unocc",
				"energy": 0.09806,
				"method": "rhf"
			}
		],
		"cosmo_sigma_profile": { 
			"-0.025": 0.0,
			"-0.024": 0.0,
			"-0.023": 0.0,
			"-0.022": 0.0,
			"-0.021": 0.0,
			"-0.02": 0.0,
			"-0.019": 0.0481388013248,
			"-0.018": 0.66732895049,
			"-0.017": 0.525116143989,
			"-0.016": 1.22254884338,
			"-0.015": 1.03132722335,
			"-0.014": 0.63691621009,
			"-0.013": 0.446054163103,
			"-0.012": 1.45923760045,
			"-0.011": 1.40088199599,
			"-0.01": 1.30797313574,
			"-0.009": 0.728097732052,
			"-0.008": 1.46009441793,
			"-0.007": 1.40104189335,
			"-0.006": 3.83300504402,
			"-0.005": 10.039289523,
			"-0.004": 19.6451879736,
			"-0.003": 17.550937704,
			"-0.002": 17.8427590616,
			"-0.001": 21.9846019466,
			"0.0": 20.7948016188,
			"0.001": 10.839182538,
			"0.002": 8.37681417363,
			"0.003": 9.99804065683,
			"0.004": 12.795687717,
			"0.005": 2.91093320714,
			"0.006": 2.91860173649,
			"0.007": 2.31994165625,
			"0.008": 2.25742306734,
			"0.009": 3.72838180857,
			"0.01": 3.93938405422,
			"0.011": 5.49882156035,
			"0.012": 5.50773252395,
			"0.013": 2.13242671016,
			"0.014": 0.132516305321,
			"0.015": 0.0,
			"0.016": 0.0,
			"0.017": 0.0,
			"0.018": 0.0,
			"0.019": 0.0,
			"0.02": 0.0,
			"0.021": 0.0,
			"0.022": 0.0,
			"0.023": 0.0,
			"0.024": 0.0,
			"0.025": 0.0
		}
	}
}
