{
	 "smiles": "CCCCCCCCCCC(O)CO", 
	 "Tm": 343.65, 
	 "num_atms": 40, 
	 "gaussian": { 
		 "optdone": 1, 
		 "sigma_profile": "yes", 
		 "theory": "DFT", 
		 "functional": "B3LYP", 
		 "basiset": "6-31G**", 
		 "properties": { 
			 "R2extent": 5965.6642, 
			 "electric_dipole_moment_norm": 2.35301849122, 
			 "electric_quadrupole_moment_norm": 11.9981353664, 
			 "total_energy": -623.407555945, 
			 "HOMO_LUMO_gap": 0.31831, 
			 "cosmo_polarized_energy": -8.79, 
			 "cosmo_cavitation_energy": 39.68, 
			 "cosmo_dispersion_energy": -27.61, 
			 "cosmo_repulsion_energy": 2.3, 
			 "cosmo_total_nonelectrostatic_energy": 14.38, 
			 "SMD_solvation_energy": 5.55 
		},
		"coords": [
			{
				"x": -3.1545429195,
				"y": -3.6267968331,
				"z": 0.4867501125,
				"element": "C" 
			},
			{
				"x": -1.9510763696,
				"y": -4.1686240679,
				"z": -0.2911309641,
				"element": "C" 
			},
			{
				"x": -1.1772907811,
				"y": -3.0803985214,
				"z": -1.0477653262,
				"element": "C" 
			},
			{
				"x": 0.0337125104,
				"y": -3.6278931213,
				"z": -1.8152371375,
				"element": "C" 
			},
			{
				"x": 0.7902807241,
				"y": -2.6238417002,
				"z": -2.7039056136,
				"element": "C" 
			},
			{
				"x": 1.4819108124,
				"y": -1.4524040068,
				"z": -1.9712181544,
				"element": "C" 
			},
			{
				"x": 0.6365675477,
				"y": -0.1773562554,
				"z": -1.8254387123,
				"element": "C" 
			},
			{
				"x": 1.372439306,
				"y": 0.9586964937,
				"z": -1.1032148744,
				"element": "C" 
			},
			{
				"x": 0.5437254903,
				"y": 2.2484821637,
				"z": -1.002714624,
				"element": "C" 
			},
			{
				"x": 1.2452661754,
				"y": 3.4235602263,
				"z": -0.2895844472,
				"element": "C" 
			},
			{
				"x": 0.9648563522,
				"y": 3.5655529305,
				"z": 1.2107702553,
				"element": "C" 
			},
			{
				"x": -0.429699729,
				"y": 3.7885260745,
				"z": 1.3803557556,
				"element": "O" 
			},
			{
				"x": 1.3897287764,
				"y": 2.3790180397,
				"z": 2.0728655167,
				"element": "C" 
			},
			{
				"x": 1.0316270787,
				"y": 2.7260823823,
				"z": 3.4140546616,
				"element": "O" 
			},
			{
				"x": -3.6858027565,
				"y": -4.4268503789,
				"z": 1.0128472441,
				"element": "H" 
			},
			{
				"x": -2.8438969655,
				"y": -2.8871979793,
				"z": 1.2337996578,
				"element": "H" 
			},
			{
				"x": -3.8707626722,
				"y": -3.1364176276,
				"z": -0.1824719918,
				"element": "H" 
			},
			{
				"x": -1.2690707207,
				"y": -4.6825260833,
				"z": 0.4003318472,
				"element": "H" 
			},
			{
				"x": -2.2895055595,
				"y": -4.9326804748,
				"z": -1.0043270447,
				"element": "H" 
			},
			{
				"x": -1.8569949342,
				"y": -2.5739393812,
				"z": -1.7482469169,
				"element": "H" 
			},
			{
				"x": -0.8524909271,
				"y": -2.3145559719,
				"z": -0.3312422364,
				"element": "H" 
			},
			{
				"x": 0.7410837442,
				"y": -4.0690135601,
				"z": -1.0978928988,
				"element": "H" 
			},
			{
				"x": -0.304115759,
				"y": -4.4589333257,
				"z": -2.4502457267,
				"element": "H" 
			},
			{
				"x": 1.5511835511,
				"y": -3.1887942682,
				"z": -3.2568885825,
				"element": "H" 
			},
			{
				"x": 0.1069123756,
				"y": -2.2227157163,
				"z": -3.4658656518,
				"element": "H" 
			},
			{
				"x": 1.8151196261,
				"y": -1.7894330951,
				"z": -0.9786879002,
				"element": "H" 
			},
			{
				"x": 2.3983392121,
				"y": -1.1859517305,
				"z": -2.5145936726,
				"element": "H" 
			},
			{
				"x": -0.297046099,
				"y": -0.3965011927,
				"z": -1.2930930046,
				"element": "H" 
			},
			{
				"x": 0.3374510668,
				"y": 0.1661011346,
				"z": -2.8261386784,
				"element": "H" 
			},
			{
				"x": 1.6682539587,
				"y": 0.6133814818,
				"z": -0.1032505865,
				"element": "H" 
			},
			{
				"x": 2.311827211,
				"y": 1.1763547512,
				"z": -1.6322684751,
				"element": "H" 
			},
			{
				"x": 0.2840873678,
				"y": 2.5617437392,
				"z": -2.02191067,
				"element": "H" 
			},
			{
				"x": -0.4108734459,
				"y": 2.0520736984,
				"z": -0.4998949499,
				"element": "H" 
			},
			{
				"x": 2.3315989407,
				"y": 3.3714479429,
				"z": -0.4430547704,
				"element": "H" 
			},
			{
				"x": 0.9171421262,
				"y": 4.3659374309,
				"z": -0.7418373999,
				"element": "H" 
			},
			{
				"x": 1.5307759324,
				"y": 4.4395435772,
				"z": 1.5783976375,
				"element": "H" 
			},
			{
				"x": -0.5848081884,
				"y": 3.7140153034,
				"z": 2.3339871664,
				"element": "H" 
			},
			{
				"x": 0.8555251952,
				"y": 1.47474625,
				"z": 1.7522662199,
				"element": "H" 
			},
			{
				"x": 2.4716881267,
				"y": 2.1998214303,
				"z": 1.9805317432,
				"element": "H" 
			},
			{
				"x": 1.0563746189,
				"y": 1.9291402411,
				"z": 3.9563631927,
				"element": "H" 
			}
		],
		 "valence_orbital": [ 
			{
				"type": "occ",
				"energy": -0.3075,
				"method": "rhf"
			},
			{
				"type": "occ",
				"energy": -0.29899,
				"method": "rhf"
			},
			{
				"type": "occ",
				"energy": -0.29513,
				"method": "rhf"
			},
			{
				"type": "occ",
				"energy": -0.28148,
				"method": "rhf"
			},
			{
				"type": "occ",
				"energy": -0.25371,
				"method": "rhf"
			},
			{
				"type": "unocc",
				"energy": 0.0646,
				"method": "rhf"
			},
			{
				"type": "unocc",
				"energy": 0.08316,
				"method": "rhf"
			},
			{
				"type": "unocc",
				"energy": 0.09317,
				"method": "rhf"
			},
			{
				"type": "unocc",
				"energy": 0.10367,
				"method": "rhf"
			},
			{
				"type": "unocc",
				"energy": 0.10553,
				"method": "rhf"
			}
		],
		"cosmo_sigma_profile": { 
			"-0.025": 0.0,
			"-0.024": 0.0,
			"-0.023": 0.0,
			"-0.022": 0.0,
			"-0.021": 0.0,
			"-0.02": 0.0,
			"-0.019": 0.0,
			"-0.018": 0.0,
			"-0.017": 0.0,
			"-0.016": 0.674637731826,
			"-0.015": 0.998901739437,
			"-0.014": 1.32197314488,
			"-0.013": 0.835210300582,
			"-0.012": 0.922559239752,
			"-0.011": 0.960792004431,
			"-0.01": 1.3840167179,
			"-0.009": 1.82405830696,
			"-0.008": 0.973017295398,
			"-0.007": 1.11856571117,
			"-0.006": 1.67702714597,
			"-0.005": 2.50990387319,
			"-0.004": 5.00668318392,
			"-0.003": 15.4604103047,
			"-0.002": 37.4427633961,
			"-0.001": 63.0740700237,
			"0.0": 62.9084885369,
			"0.001": 46.8934351609,
			"0.002": 26.1295900628,
			"0.003": 4.25960926436,
			"0.004": 3.11562639202,
			"0.005": 2.28873811737,
			"0.006": 2.28399678325,
			"0.007": 1.7505548722,
			"0.008": 2.9202245427,
			"0.009": 2.43409835894,
			"0.01": 2.47526759271,
			"0.011": 1.75851101771,
			"0.012": 2.37426053449,
			"0.013": 2.28445588981,
			"0.014": 1.87418218507,
			"0.015": 0.96682173965,
			"0.016": 0.0,
			"0.017": 0.0,
			"0.018": 0.0,
			"0.019": 0.0,
			"0.02": 0.0,
			"0.021": 0.0,
			"0.022": 0.0,
			"0.023": 0.0,
			"0.024": 0.0,
			"0.025": 0.0
		}
	}
}
