{
	 "smiles": "COC(=O)C(=O)CC(=O)C1=CC=C(C=C1)C1=CC=CC=C1", 
	 "Tm": 416.15, 
	 "num_atms": 35, 
	 "gaussian": { 
		 "optdone": 1, 
		 "sigma_profile": "yes", 
		 "theory": "DFT", 
		 "functional": "B3LYP", 
		 "basiset": "6-31G**", 
		 "properties": { 
			 "R2extent": 10825.0786, 
			 "electric_dipole_moment_norm": 3.59289140665, 
			 "electric_quadrupole_moment_norm": 18.169628994, 
			 "total_energy": -957.140294109, 
			 "HOMO_LUMO_gap": 0.16668, 
			 "cosmo_polarized_energy": -16.21, 
			 "cosmo_cavitation_energy": 41.08, 
			 "cosmo_dispersion_energy": -28.91, 
			 "cosmo_repulsion_energy": 2.2, 
			 "cosmo_total_nonelectrostatic_energy": 14.38, 
			 "SMD_solvation_energy": 9.37 
		},
		"coords": [
			{
				"x": -2.6014652294,
				"y": -4.9559008227,
				"z": -3.9617359226,
				"element": "C" 
			},
			{
				"x": -2.5672211598,
				"y": -4.8754959133,
				"z": -2.5250979718,
				"element": "O" 
			},
			{
				"x": -2.5742345673,
				"y": -3.6399757162,
				"z": -2.0250695329,
				"element": "C" 
			},
			{
				"x": -2.6330090957,
				"y": -2.6152668506,
				"z": -2.6734320039,
				"element": "O" 
			},
			{
				"x": -2.5426872773,
				"y": -3.6388749684,
				"z": -0.4850725421,
				"element": "C" 
			},
			{
				"x": -2.8641719321,
				"y": -4.6105887311,
				"z": 0.1583341072,
				"element": "O" 
			},
			{
				"x": -2.1400361178,
				"y": -2.3104321131,
				"z": 0.130047959,
				"element": "C" 
			},
			{
				"x": -0.6593197074,
				"y": -2.0308187614,
				"z": -0.1420022543,
				"element": "C" 
			},
			{
				"x": 0.0073686942,
				"y": -2.854554034,
				"z": -0.7540524355,
				"element": "O" 
			},
			{
				"x": -0.0623840642,
				"y": -0.7621450266,
				"z": 0.3607142963,
				"element": "C" 
			},
			{
				"x": -0.797155376,
				"y": 0.2020089022,
				"z": 1.0672881944,
				"element": "C" 
			},
			{
				"x": -0.1861245258,
				"y": 1.3690291091,
				"z": 1.5149097694,
				"element": "C" 
			},
			{
				"x": 1.1768507446,
				"y": 1.6132406896,
				"z": 1.2709683512,
				"element": "C" 
			},
			{
				"x": 1.9069462032,
				"y": 0.6406895205,
				"z": 0.5606193467,
				"element": "C" 
			},
			{
				"x": 1.3000076055,
				"y": -0.5249624741,
				"z": 0.1147650265,
				"element": "C" 
			},
			{
				"x": 1.8264535843,
				"y": 2.8585874186,
				"z": 1.7487253691,
				"element": "C" 
			},
			{
				"x": 1.1374983989,
				"y": 4.0837555947,
				"z": 1.7327840684,
				"element": "C" 
			},
			{
				"x": 1.7487173297,
				"y": 5.2534452018,
				"z": 2.1811559021,
				"element": "C" 
			},
			{
				"x": 3.0610038587,
				"y": 5.222896753,
				"z": 2.6570735845,
				"element": "C" 
			},
			{
				"x": 3.7574929977,
				"y": 4.0129813976,
				"z": 2.6795521014,
				"element": "C" 
			},
			{
				"x": 3.1474380923,
				"y": 2.8434890289,
				"z": 2.22905408,
				"element": "C" 
			},
			{
				"x": -2.5668587108,
				"y": -6.019079103,
				"z": -4.1956945284,
				"element": "H" 
			},
			{
				"x": -3.5192748778,
				"y": -4.504876823,
				"z": -4.3470242296,
				"element": "H" 
			},
			{
				"x": -1.7416341713,
				"y": -4.4363528347,
				"z": -4.3914735049,
				"element": "H" 
			},
			{
				"x": -2.7456318094,
				"y": -1.5063413954,
				"z": -0.3029632787,
				"element": "H" 
			},
			{
				"x": -2.3301988436,
				"y": -2.3556554481,
				"z": 1.2066055445,
				"element": "H" 
			},
			{
				"x": -1.8494873563,
				"y": 0.044445954,
				"z": 1.2813551416,
				"element": "H" 
			},
			{
				"x": -0.7643911823,
				"y": 2.0901350469,
				"z": 2.0839805531,
				"element": "H" 
			},
			{
				"x": 2.9540905147,
				"y": 0.818796419,
				"z": 0.3362685742,
				"element": "H" 
			},
			{
				"x": 1.8591508857,
				"y": -1.2709960133,
				"z": -0.4398626812,
				"element": "H" 
			},
			{
				"x": 0.1260374464,
				"y": 4.1234366767,
				"z": 1.339516442,
				"element": "H" 
			},
			{
				"x": 1.2018618711,
				"y": 6.1915009359,
				"z": 2.1509798858,
				"element": "H" 
			},
			{
				"x": 3.5369199519,
				"y": 6.1342093212,
				"z": 3.0070740957,
				"element": "H" 
			},
			{
				"x": 4.7758358854,
				"y": 3.9775095964,
				"z": 3.0558513972,
				"element": "H" 
			},
			{
				"x": 3.6891119399,
				"y": 1.903459463,
				"z": 2.2750570957,
				"element": "H" 
			}
		],
		 "valence_orbital": [ 
			{
				"type": "occ",
				"energy": -0.26697,
				"method": "rhf"
			},
			{
				"type": "occ",
				"energy": -0.26516,
				"method": "rhf"
			},
			{
				"type": "occ",
				"energy": -0.25985,
				"method": "rhf"
			},
			{
				"type": "occ",
				"energy": -0.24946,
				"method": "rhf"
			},
			{
				"type": "occ",
				"energy": -0.23758,
				"method": "rhf"
			},
			{
				"type": "unocc",
				"energy": -0.0709,
				"method": "rhf"
			},
			{
				"type": "unocc",
				"energy": -0.06645,
				"method": "rhf"
			},
			{
				"type": "unocc",
				"energy": -0.01754,
				"method": "rhf"
			},
			{
				"type": "unocc",
				"energy": -0.01159,
				"method": "rhf"
			},
			{
				"type": "unocc",
				"energy": -0.0103,
				"method": "rhf"
			}
		],
		"cosmo_sigma_profile": { 
			"-0.025": 0.0,
			"-0.024": 0.0,
			"-0.023": 0.0,
			"-0.022": 0.0,
			"-0.021": 0.0,
			"-0.02": 0.0,
			"-0.019": 0.0,
			"-0.018": 0.0,
			"-0.017": 0.0,
			"-0.016": 0.0,
			"-0.015": 0.0,
			"-0.014": 0.0,
			"-0.013": 0.0,
			"-0.012": 0.0,
			"-0.011": 0.0,
			"-0.01": 0.0,
			"-0.009": 0.516553606826,
			"-0.008": 7.62869781756,
			"-0.007": 11.839668004,
			"-0.006": 26.887284566,
			"-0.005": 29.8803048863,
			"-0.004": 30.5138603547,
			"-0.003": 21.3954005621,
			"-0.002": 17.6798477833,
			"-0.001": 14.9977199128,
			"0.0": 17.7983767611,
			"0.001": 19.2287727427,
			"0.002": 24.7271027588,
			"0.003": 26.6251438462,
			"0.004": 17.5272524526,
			"0.005": 15.9722348469,
			"0.006": 7.82868536939,
			"0.007": 5.99541165643,
			"0.008": 6.00401392521,
			"0.009": 8.140403664,
			"0.01": 10.1566005116,
			"0.011": 7.00540014599,
			"0.012": 0.532519732361,
			"0.013": 0.0,
			"0.014": 0.0,
			"0.015": 0.0,
			"0.016": 0.0,
			"0.017": 0.0,
			"0.018": 0.0,
			"0.019": 0.0,
			"0.02": 0.0,
			"0.021": 0.0,
			"0.022": 0.0,
			"0.023": 0.0,
			"0.024": 0.0,
			"0.025": 0.0
		}
	}
}
