{
	 "smiles": "N#CC1=CC=C(OCC2=CC=CC=C2)C=C1", 
	 "Tm": 370.15, 
	 "num_atms": 27, 
	 "gaussian": { 
		 "optdone": 1, 
		 "sigma_profile": "yes", 
		 "theory": "DFT", 
		 "functional": "B3LYP", 
		 "basiset": "6-31G**", 
		 "properties": { 
			 "R2extent": 4927.0517, 
			 "electric_dipole_moment_norm": 5.95009465891, 
			 "electric_quadrupole_moment_norm": 36.2627107462, 
			 "total_energy": -670.071516959, 
			 "HOMO_LUMO_gap": 0.1994, 
			 "cosmo_polarized_energy": -11.95, 
			 "cosmo_cavitation_energy": 32.5, 
			 "cosmo_dispersion_energy": -22.61, 
			 "cosmo_repulsion_energy": 1.77, 
			 "cosmo_total_nonelectrostatic_energy": 11.66, 
			 "SMD_solvation_energy": 7.07 
		},
		"coords": [
			{
				"x": 1.1272730898,
				"y": 6.2678665838,
				"z": -1.2299720486,
				"element": "N" 
			},
			{
				"x": 0.6352996016,
				"y": 5.216798551,
				"z": -1.1400166707,
				"element": "C" 
			},
			{
				"x": 0.0291602135,
				"y": 3.924527335,
				"z": -1.0301511061,
				"element": "C" 
			},
			{
				"x": 0.8245918199,
				"y": 2.7719582626,
				"z": -0.9453001157,
				"element": "C" 
			},
			{
				"x": 0.2438391594,
				"y": 1.511009746,
				"z": -0.8378304425,
				"element": "C" 
			},
			{
				"x": -1.1532078648,
				"y": 1.3912537281,
				"z": -0.8183490529,
				"element": "C" 
			},
			{
				"x": -1.8331226494,
				"y": 0.2151026616,
				"z": -0.7321290006,
				"element": "O" 
			},
			{
				"x": -1.1157887281,
				"y": -1.0222447696,
				"z": -0.7752511408,
				"element": "C" 
			},
			{
				"x": -0.4280839413,
				"y": -1.3864531057,
				"z": 0.5256435062,
				"element": "C" 
			},
			{
				"x": 0.7569558065,
				"y": -2.1310189104,
				"z": 0.5058603511,
				"element": "C" 
			},
			{
				"x": 1.3673832279,
				"y": -2.5243185455,
				"z": 1.6982058873,
				"element": "C" 
			},
			{
				"x": 0.8015196651,
				"y": -2.1674481278,
				"z": 2.9230267913,
				"element": "C" 
			},
			{
				"x": -0.3780367827,
				"y": -1.4197161085,
				"z": 2.9489811023,
				"element": "C" 
			},
			{
				"x": -0.9925888917,
				"y": -1.0347937631,
				"z": 1.7574761656,
				"element": "C" 
			},
			{
				"x": -1.9554802839,
				"y": 2.542211414,
				"z": -0.8974502262,
				"element": "C" 
			},
			{
				"x": -1.3731766016,
				"y": 3.7945266145,
				"z": -1.0021496752,
				"element": "C" 
			},
			{
				"x": 1.9053652609,
				"y": 2.8665536277,
				"z": -0.9574313245,
				"element": "H" 
			},
			{
				"x": 0.8796386169,
				"y": 0.6398409965,
				"z": -0.7461331315,
				"element": "H" 
			},
			{
				"x": -0.3993196008,
				"y": -1.0169065808,
				"z": -1.6066568363,
				"element": "H" 
			},
			{
				"x": -1.8891338216,
				"y": -1.7598138509,
				"z": -1.0140320978,
				"element": "H" 
			},
			{
				"x": 1.2059220566,
				"y": -2.405725257,
				"z": -0.4463341299,
				"element": "H" 
			},
			{
				"x": 2.28749086,
				"y": -3.100843678,
				"z": 1.6692053434,
				"element": "H" 
			},
			{
				"x": 1.2783412238,
				"y": -2.4665898768,
				"z": 3.8518165604,
				"element": "H" 
			},
			{
				"x": -0.8211641078,
				"y": -1.1362755568,
				"z": 3.8993607743,
				"element": "H" 
			},
			{
				"x": -1.9080947317,
				"y": -0.4515881959,
				"z": 1.776314511,
				"element": "H" 
			},
			{
				"x": -3.0335178748,
				"y": 2.4236526353,
				"z": -0.8805597997,
				"element": "H" 
			},
			{
				"x": -1.9950647216,
				"y": 4.6811341707,
				"z": -1.0664441937,
				"element": "H" 
			}
		],
		 "valence_orbital": [ 
			{
				"type": "occ",
				"energy": -0.31629,
				"method": "rhf"
			},
			{
				"type": "occ",
				"energy": -0.27374,
				"method": "rhf"
			},
			{
				"type": "occ",
				"energy": -0.26251,
				"method": "rhf"
			},
			{
				"type": "occ",
				"energy": -0.25706,
				"method": "rhf"
			},
			{
				"type": "occ",
				"energy": -0.23642,
				"method": "rhf"
			},
			{
				"type": "unocc",
				"energy": -0.03702,
				"method": "rhf"
			},
			{
				"type": "unocc",
				"energy": -0.02349,
				"method": "rhf"
			},
			{
				"type": "unocc",
				"energy": -0.01604,
				"method": "rhf"
			},
			{
				"type": "unocc",
				"energy": -0.01334,
				"method": "rhf"
			},
			{
				"type": "unocc",
				"energy": 0.04446,
				"method": "rhf"
			}
		],
		"cosmo_sigma_profile": { 
			"-0.025": 0.0,
			"-0.024": 0.0,
			"-0.023": 0.0,
			"-0.022": 0.0,
			"-0.021": 0.0,
			"-0.02": 0.0,
			"-0.019": 0.0,
			"-0.018": 0.0,
			"-0.017": 0.0,
			"-0.016": 0.0,
			"-0.015": 0.0,
			"-0.014": 0.0,
			"-0.013": 0.0,
			"-0.012": 0.0,
			"-0.011": 0.0,
			"-0.01": 0.0,
			"-0.009": 0.0219548175559,
			"-0.008": 3.29578144239,
			"-0.007": 10.6886505502,
			"-0.006": 19.2167300053,
			"-0.005": 21.4462626605,
			"-0.004": 20.9702879572,
			"-0.003": 18.1148430551,
			"-0.002": 15.7696736774,
			"-0.001": 16.9955621934,
			"0.0": 17.285689193,
			"0.001": 20.207048663,
			"0.002": 22.6213586245,
			"0.003": 20.3823935022,
			"0.004": 11.0329986941,
			"0.005": 12.2877002074,
			"0.006": 8.04495235926,
			"0.007": 3.04831211021,
			"0.008": 4.61618089306,
			"0.009": 3.89970627683,
			"0.01": 3.66956496895,
			"0.011": 2.82126349377,
			"0.012": 2.76126595246,
			"0.013": 2.2141114327,
			"0.014": 0.371192638466,
			"0.015": 0.0,
			"0.016": 0.0,
			"0.017": 0.0,
			"0.018": 0.0,
			"0.019": 0.0,
			"0.02": 0.0,
			"0.021": 0.0,
			"0.022": 0.0,
			"0.023": 0.0,
			"0.024": 0.0,
			"0.025": 0.0
		}
	}
}
