{
	 "smiles": "CC(Cl)C(=O)NC(=O)NC1CC1", 
	 "Tm": 362.15, 
	 "num_atms": 23, 
	 "gaussian": { 
		 "optdone": 1, 
		 "sigma_profile": "no", 
		 "theory": "DFT", 
		 "functional": "B3LYP", 
		 "basiset": "6-31G**", 
		 "properties": { 
			 "R2extent": 4105.269, 
			 "electric_dipole_moment_norm": 6.14723392511, 
			 "electric_quadrupole_moment_norm": 15.8074364471, 
			 "total_energy": -993.521406531, 
			 "HOMO_LUMO_gap": 0.24479, 
			 "cosmo_polarized_energy": -22.26, 
			 "cosmo_cavitation_energy": 28.86, 
			 "cosmo_dispersion_energy": -20.71, 
			 "cosmo_repulsion_energy": 1.7, 
			 "cosmo_total_nonelectrostatic_energy": 9.84, 
			 "SMD_solvation_energy": 5.09 
		},
		"coords": [
			{
				"x": -2.9025076672,
				"y": 0.3824536221,
				"z": 2.8027685377,
				"element": "C" 
			},
			{
				"x": -1.4055297095,
				"y": 0.3308854062,
				"z": 3.1175263636,
				"element": "C" 
			},
			{
				"x": -1.1337164658,
				"y": 0.4768482391,
				"z": 4.9044622158,
				"element": "Cl" 
			},
			{
				"x": -0.6644843765,
				"y": 1.4639484767,
				"z": 2.4015277419,
				"element": "C" 
			},
			{
				"x": -0.4183062808,
				"y": 2.5430570219,
				"z": 2.8991691904,
				"element": "O" 
			},
			{
				"x": -0.2941578087,
				"y": 1.2507356288,
				"z": 1.0650606018,
				"element": "N" 
			},
			{
				"x": -0.4062482764,
				"y": 0.1092415082,
				"z": 0.2510755031,
				"element": "C" 
			},
			{
				"x": -0.9141566674,
				"y": -0.9400342301,
				"z": 0.6164631897,
				"element": "O" 
			},
			{
				"x": 0.1325284504,
				"y": 0.2953762313,
				"z": -1.0003842617,
				"element": "N" 
			},
			{
				"x": -0.0067374769,
				"y": -0.716237064,
				"z": -2.012708651,
				"element": "C" 
			},
			{
				"x": 0.8906103979,
				"y": -1.922453795,
				"z": -1.9553325607,
				"element": "C" 
			},
			{
				"x": 1.1206987775,
				"y": -0.8626549416,
				"z": -3.0028602158,
				"element": "C" 
			},
			{
				"x": -3.3235240896,
				"y": 1.3509251424,
				"z": 3.0847096785,
				"element": "H" 
			},
			{
				"x": -3.4234702934,
				"y": -0.403557745,
				"z": 3.3533517133,
				"element": "H" 
			},
			{
				"x": -3.0545433628,
				"y": 0.2113046268,
				"z": 1.7335067068,
				"element": "H" 
			},
			{
				"x": -0.9955455571,
				"y": -0.6300406757,
				"z": 2.8170555335,
				"element": "H" 
			},
			{
				"x": 0.1856592437,
				"y": 2.0649506398,
				"z": 0.6990460041,
				"element": "H" 
			},
			{
				"x": 0.3188366721,
				"y": 1.2373450383,
				"z": -1.3159244872,
				"element": "H" 
			},
			{
				"x": -1.0216383016,
				"y": -0.8717498921,
				"z": -2.3747581339,
				"element": "H" 
			},
			{
				"x": 1.5892730873,
				"y": -1.9758470928,
				"z": -1.1277731391,
				"element": "H" 
			},
			{
				"x": 0.4673811056,
				"y": -2.8751032972,
				"z": -2.2556041681,
				"element": "H" 
			},
			{
				"x": 1.9833365516,
				"y": -0.2143741459,
				"z": -2.8796784693,
				"element": "H" 
			},
			{
				"x": 0.8612420475,
				"y": -1.075918702,
				"z": -4.0347988933,
				"element": "H" 
			}
		],
		 "valence_orbital": [ 
			{
				"type": "occ",
				"energy": -0.29452,
				"method": "rhf"
			},
			{
				"type": "occ",
				"energy": -0.28788,
				"method": "rhf"
			},
			{
				"type": "occ",
				"energy": -0.28131,
				"method": "rhf"
			},
			{
				"type": "occ",
				"energy": -0.27337,
				"method": "rhf"
			},
			{
				"type": "occ",
				"energy": -0.26733,
				"method": "rhf"
			},
			{
				"type": "unocc",
				"energy": -0.02254,
				"method": "rhf"
			},
			{
				"type": "unocc",
				"energy": 0.02939,
				"method": "rhf"
			},
			{
				"type": "unocc",
				"energy": 0.04316,
				"method": "rhf"
			},
			{
				"type": "unocc",
				"energy": 0.05919,
				"method": "rhf"
			},
			{
				"type": "unocc",
				"energy": 0.09059,
				"method": "rhf"
			}
		],
		"cosmo_sigma_profile": { 
			"0.0": 0.0,
			"0.0": 0.0,
			"0.0": 0.0,
			"0.0": 0.0,
			"0.0": 0.0,
			"0.0": 0.0,
			"0.0": 0.0,
			"0.0": 0.0,
			"0.0": 0.0,
			"0.0": 0.0,
			"0.0": 0.0,
			"0.0": 0.0,
			"0.0": 0.0,
			"0.0": 0.0,
			"0.0": 0.0,
			"0.0": 0.0,
			"0.0": 0.0,
			"0.0": 0.0,
			"0.0": 0.0,
			"0.0": 0.0,
			"0.0": 0.0,
			"0.0": 0.0,
			"0.0": 0.0,
			"0.0": 0.0,
			"0.0": 0.0,
			"0.0": 0.0,
			"0.0": 0.0,
			"0.0": 0.0,
			"0.0": 0.0,
			"0.0": 0.0,
			"0.0": 0.0,
			"0.0": 0.0,
			"0.0": 0.0,
			"0.0": 0.0,
			"0.0": 0.0,
			"0.0": 0.0,
			"0.0": 0.0,
			"0.0": 0.0,
			"0.0": 0.0,
			"0.0": 0.0,
			"0.0": 0.0,
			"0.0": 0.0,
			"0.0": 0.0,
			"0.0": 0.0,
			"0.0": 0.0,
			"0.0": 0.0,
			"0.0": 0.0,
			"0.0": 0.0,
			"0.0": 0.0,
			"0.0": 0.0,
			"0.0": 0.0
		}
	}
}
