{
	 "smiles": "CC1(C)CC2=C(O1)C(CO)=CC=C2", 
	 "Tm": 332.65, 
	 "num_atms": 27, 
	 "gaussian": { 
		 "optdone": 1, 
		 "sigma_profile": "yes", 
		 "theory": "DFT", 
		 "functional": "B3LYP", 
		 "basiset": "6-31G**", 
		 "properties": { 
			 "R2extent": 3612.1232, 
			 "electric_dipole_moment_norm": 2.93853337738, 
			 "electric_quadrupole_moment_norm": 7.08516671363, 
			 "total_energy": -578.05803159, 
			 "HOMO_LUMO_gap": 0.20689, 
			 "cosmo_polarized_energy": -8.85, 
			 "cosmo_cavitation_energy": 29.04, 
			 "cosmo_dispersion_energy": -20.9, 
			 "cosmo_repulsion_energy": 1.68, 
			 "cosmo_total_nonelectrostatic_energy": 9.82, 
			 "SMD_solvation_energy": 4.9 
		},
		"coords": [
			{
				"x": -1.5871619017,
				"y": 1.1792472773,
				"z": -0.7948226612,
				"element": "C" 
			},
			{
				"x": -0.389448363,
				"y": 0.7624383631,
				"z": 0.052121344,
				"element": "C" 
			},
			{
				"x": -0.8110343717,
				"y": 0.0124542639,
				"z": 1.3173033364,
				"element": "C" 
			},
			{
				"x": 0.5826285607,
				"y": 1.9410614785,
				"z": 0.3736107943,
				"element": "C" 
			},
			{
				"x": 1.9285954533,
				"y": 1.3801368913,
				"z": -0.01611586,
				"element": "C" 
			},
			{
				"x": 1.7149675884,
				"y": 0.171070782,
				"z": -0.6789827216,
				"element": "C" 
			},
			{
				"x": 0.3980845032,
				"y": -0.1830979685,
				"z": -0.757395596,
				"element": "O" 
			},
			{
				"x": 2.7539535949,
				"y": -0.5929781697,
				"z": -1.2149422893,
				"element": "C" 
			},
			{
				"x": 2.4813049974,
				"y": -1.9023546154,
				"z": -1.9262528269,
				"element": "C" 
			},
			{
				"x": 3.5331926676,
				"y": -2.3068919406,
				"z": -2.7921402759,
				"element": "O" 
			},
			{
				"x": 4.0502378447,
				"y": -0.0867106438,
				"z": -1.0460432044,
				"element": "C" 
			},
			{
				"x": 4.2877365406,
				"y": 1.1202836901,
				"z": -0.3820928274,
				"element": "C" 
			},
			{
				"x": 3.2223564719,
				"y": 1.8662452885,
				"z": 0.1374724503,
				"element": "C" 
			},
			{
				"x": -2.1949138104,
				"y": 0.3089341069,
				"z": -1.0596433012,
				"element": "H" 
			},
			{
				"x": -2.2177156178,
				"y": 1.8847519724,
				"z": -0.2437293777,
				"element": "H" 
			},
			{
				"x": -1.2541575179,
				"y": 1.66110185,
				"z": -1.718630336,
				"element": "H" 
			},
			{
				"x": -1.4332691844,
				"y": 0.6502950809,
				"z": 1.9541315745,
				"element": "H" 
			},
			{
				"x": 0.0689382621,
				"y": -0.2933327531,
				"z": 1.8915759873,
				"element": "H" 
			},
			{
				"x": -1.3821227013,
				"y": -0.8837560264,
				"z": 1.0584573574,
				"element": "H" 
			},
			{
				"x": 0.3339525789,
				"y": 2.8325510901,
				"z": -0.2166668076,
				"element": "H" 
			},
			{
				"x": 0.5232076586,
				"y": 2.2273939254,
				"z": 1.4293177508,
				"element": "H" 
			},
			{
				"x": 2.3775581495,
				"y": -2.7149485174,
				"z": -1.1968812203,
				"element": "H" 
			},
			{
				"x": 1.5196245723,
				"y": -1.8367369538,
				"z": -2.4566215542,
				"element": "H" 
			},
			{
				"x": 3.6388083898,
				"y": -1.6140563472,
				"z": -3.4578096747,
				"element": "H" 
			},
			{
				"x": 4.8778345031,
				"y": -0.6626999844,
				"z": -1.4486129082,
				"element": "H" 
			},
			{
				"x": 5.3059490736,
				"y": 1.4801454875,
				"z": -0.2687747244,
				"element": "H" 
			},
			{
				"x": 3.4055920574,
				"y": 2.8074523722,
				"z": 0.6490675722,
				"element": "H" 
			}
		],
		 "valence_orbital": [ 
			{
				"type": "occ",
				"energy": -0.3165,
				"method": "rhf"
			},
			{
				"type": "occ",
				"energy": -0.30718,
				"method": "rhf"
			},
			{
				"type": "occ",
				"energy": -0.26945,
				"method": "rhf"
			},
			{
				"type": "occ",
				"energy": -0.23553,
				"method": "rhf"
			},
			{
				"type": "occ",
				"energy": -0.20624,
				"method": "rhf"
			},
			{
				"type": "unocc",
				"energy": 0.00065,
				"method": "rhf"
			},
			{
				"type": "unocc",
				"energy": 0.01861,
				"method": "rhf"
			},
			{
				"type": "unocc",
				"energy": 0.0818,
				"method": "rhf"
			},
			{
				"type": "unocc",
				"energy": 0.0902,
				"method": "rhf"
			},
			{
				"type": "unocc",
				"energy": 0.11003,
				"method": "rhf"
			}
		],
		"cosmo_sigma_profile": { 
			"-0.025": 0.0,
			"-0.024": 0.0,
			"-0.023": 0.0,
			"-0.022": 0.0,
			"-0.021": 0.0,
			"-0.02": 0.0,
			"-0.019": 0.0,
			"-0.018": 0.0,
			"-0.017": 0.0,
			"-0.016": 0.0714968605341,
			"-0.015": 0.929987584836,
			"-0.014": 0.978434549402,
			"-0.013": 0.640469466228,
			"-0.012": 0.856525276022,
			"-0.011": 1.08834256227,
			"-0.01": 0.394006814432,
			"-0.009": 0.560045890665,
			"-0.008": 0.923047268345,
			"-0.007": 1.02515221154,
			"-0.006": 2.01538122039,
			"-0.005": 7.64760554415,
			"-0.004": 23.573091061,
			"-0.003": 30.6164987585,
			"-0.002": 28.1227460532,
			"-0.001": 23.4406811044,
			"0.0": 20.4385350879,
			"0.001": 16.5325548389,
			"0.002": 8.66645618118,
			"0.003": 10.4236282272,
			"0.004": 9.78465437233,
			"0.005": 9.43008335138,
			"0.006": 9.37665098122,
			"0.007": 6.85454203151,
			"0.008": 2.46382142908,
			"0.009": 1.9992150352,
			"0.01": 1.88722886541,
			"0.011": 1.64071951277,
			"0.012": 1.62340663824,
			"0.013": 1.34902200794,
			"0.014": 2.1307373561,
			"0.015": 0.144819260578,
			"0.016": 0.0,
			"0.017": 0.0,
			"0.018": 0.0,
			"0.019": 0.0,
			"0.02": 0.0,
			"0.021": 0.0,
			"0.022": 0.0,
			"0.023": 0.0,
			"0.024": 0.0,
			"0.025": 0.0
		}
	}
}
