{
	 "smiles": "[N-]=[N+]=NCC(=O)NCC1=CC=CC=C1", 
	 "Tm": 313.15, 
	 "num_atms": 24, 
	 "gaussian": { 
		 "optdone": 1, 
		 "sigma_profile": "yes", 
		 "theory": "DFT", 
		 "functional": "B3LYP", 
		 "basiset": "6-31G**", 
		 "properties": { 
			 "R2extent": 3640.2762, 
			 "electric_dipole_moment_norm": 5.97595834992, 
			 "electric_quadrupole_moment_norm": 8.76931842391, 
			 "total_energy": -643.148888754, 
			 "HOMO_LUMO_gap": 0.22278, 
			 "cosmo_polarized_energy": -15.6, 
			 "cosmo_cavitation_energy": 29.66, 
			 "cosmo_dispersion_energy": -20.39, 
			 "cosmo_repulsion_energy": 1.64, 
			 "cosmo_total_nonelectrostatic_energy": 10.91, 
			 "SMD_solvation_energy": 2.0 
		},
		"coords": [
			{
				"x": -2.3658469882,
				"y": 2.0785704065,
				"z": -1.9216350904,
				"element": "N" 
			},
			{
				"x": -2.1747571376,
				"y": 1.7918463557,
				"z": -0.8349970733,
				"element": "N" 
			},
			{
				"x": -2.1543882703,
				"y": 1.5489773987,
				"z": 0.3811203381,
				"element": "N" 
			},
			{
				"x": -1.034467732,
				"y": 0.7523934084,
				"z": 0.8728585272,
				"element": "C" 
			},
			{
				"x": 0.3291190762,
				"y": 1.4196134534,
				"z": 0.6265279939,
				"element": "C" 
			},
			{
				"x": 0.4661004364,
				"y": 2.3101102729,
				"z": -0.1977879276,
				"element": "O" 
			},
			{
				"x": 1.3849699017,
				"y": 0.9389910281,
				"z": 1.3557613248,
				"element": "N" 
			},
			{
				"x": 1.3843576255,
				"y": -0.1250143745,
				"z": 2.3516588633,
				"element": "C" 
			},
			{
				"x": 1.2228492668,
				"y": -1.5398265107,
				"z": 1.8085173861,
				"element": "C" 
			},
			{
				"x": 1.7264352118,
				"y": -1.9034408395,
				"z": 0.5538615308,
				"element": "C" 
			},
			{
				"x": 1.6088408913,
				"y": -3.2170954834,
				"z": 0.0973445637,
				"element": "C" 
			},
			{
				"x": 0.9893981186,
				"y": -4.1846330488,
				"z": 0.8908932401,
				"element": "C" 
			},
			{
				"x": 0.4838333007,
				"y": -3.8299585537,
				"z": 2.1427540513,
				"element": "C" 
			},
			{
				"x": 0.5975018158,
				"y": -2.5146493401,
				"z": 2.5951944852,
				"element": "C" 
			},
			{
				"x": -1.0130523903,
				"y": -0.2508385739,
				"z": 0.4223599725,
				"element": "H" 
			},
			{
				"x": -1.2181312439,
				"y": 0.61382695,
				"z": 1.9404678536,
				"element": "H" 
			},
			{
				"x": 2.2612194725,
				"y": 1.3888532836,
				"z": 1.1275901698,
				"element": "H" 
			},
			{
				"x": 0.6119773039,
				"y": 0.0637657663,
				"z": 3.1073003627,
				"element": "H" 
			},
			{
				"x": 2.3399071764,
				"y": -0.046946181,
				"z": 2.8826629748,
				"element": "H" 
			},
			{
				"x": 2.2024419043,
				"y": -1.1529610853,
				"z": -0.0707002931,
				"element": "H" 
			},
			{
				"x": 2.0007200308,
				"y": -3.4839661031,
				"z": -0.8799632191,
				"element": "H" 
			},
			{
				"x": 0.8963678954,
				"y": -5.2060083018,
				"z": 0.5337868842,
				"element": "H" 
			},
			{
				"x": -0.0072194055,
				"y": -4.5737425357,
				"z": 2.7636458982,
				"element": "H" 
			},
			{
				"x": 0.1944237398,
				"y": -2.242967392,
				"z": 3.5684771831,
				"element": "H" 
			}
		],
		 "valence_orbital": [ 
			{
				"type": "occ",
				"energy": -0.27321,
				"method": "rhf"
			},
			{
				"type": "occ",
				"energy": -0.26525,
				"method": "rhf"
			},
			{
				"type": "occ",
				"energy": -0.26335,
				"method": "rhf"
			},
			{
				"type": "occ",
				"energy": -0.25529,
				"method": "rhf"
			},
			{
				"type": "occ",
				"energy": -0.24304,
				"method": "rhf"
			},
			{
				"type": "unocc",
				"energy": -0.02026,
				"method": "rhf"
			},
			{
				"type": "unocc",
				"energy": -0.01652,
				"method": "rhf"
			},
			{
				"type": "unocc",
				"energy": -0.01532,
				"method": "rhf"
			},
			{
				"type": "unocc",
				"energy": 0.01354,
				"method": "rhf"
			},
			{
				"type": "unocc",
				"energy": 0.02613,
				"method": "rhf"
			}
		],
		"cosmo_sigma_profile": { 
			"-0.025": 0.0,
			"-0.024": 0.0,
			"-0.023": 0.0,
			"-0.022": 0.0,
			"-0.021": 0.0,
			"-0.02": 0.0,
			"-0.019": 0.0,
			"-0.018": 0.0,
			"-0.017": 0.0,
			"-0.016": 0.0,
			"-0.015": 0.0116801634231,
			"-0.014": 0.951060546685,
			"-0.013": 1.28536006376,
			"-0.012": 1.38601960893,
			"-0.011": 1.18177300195,
			"-0.01": 1.22949747922,
			"-0.009": 2.93532091076,
			"-0.008": 6.05844408062,
			"-0.007": 7.5626042994,
			"-0.006": 12.4311033602,
			"-0.005": 18.8124918561,
			"-0.004": 19.1480958371,
			"-0.003": 19.657476407,
			"-0.002": 15.8180235628,
			"-0.001": 12.5213579894,
			"0.0": 12.5391687359,
			"0.001": 11.3920071308,
			"0.002": 11.4079661561,
			"0.003": 11.9971965672,
			"0.004": 12.749198998,
			"0.005": 13.4514683157,
			"0.006": 13.0857917267,
			"0.007": 7.58734389783,
			"0.008": 5.11399784045,
			"0.009": 2.94924297787,
			"0.01": 3.35477046029,
			"0.011": 2.42706699421,
			"0.012": 2.87405099668,
			"0.013": 3.79765693913,
			"0.014": 1.08002203689,
			"0.015": 0.0,
			"0.016": 0.0,
			"0.017": 0.0,
			"0.018": 0.0,
			"0.019": 0.0,
			"0.02": 0.0,
			"0.021": 0.0,
			"0.022": 0.0,
			"0.023": 0.0,
			"0.024": 0.0,
			"0.025": 0.0
		}
	}
}
