{
	 "smiles": "CC(CN1N=C(C)C=C1C)=NO", 
	 "Tm": 388.15, 
	 "num_atms": 25, 
	 "gaussian": { 
		 "optdone": 1, 
		 "sigma_profile": "yes", 
		 "theory": "DFT", 
		 "functional": "B3LYP", 
		 "basiset": "6-31G**", 
		 "properties": { 
			 "R2extent": 2930.259, 
			 "electric_dipole_moment_norm": 1.7409469406, 
			 "electric_quadrupole_moment_norm": 4.78615389431, 
			 "total_energy": -552.101778409, 
			 "HOMO_LUMO_gap": 0.22185, 
			 "cosmo_polarized_energy": -9.85, 
			 "cosmo_cavitation_energy": 28.07, 
			 "cosmo_dispersion_energy": -19.94, 
			 "cosmo_repulsion_energy": 1.62, 
			 "cosmo_total_nonelectrostatic_energy": 9.76, 
			 "SMD_solvation_energy": 4.28 
		},
		"coords": [
			{
				"x": 2.300060412,
				"y": 2.5184472651,
				"z": 1.7801580049,
				"element": "C" 
			},
			{
				"x": 0.8311863483,
				"y": 2.2745976096,
				"z": 1.9833254848,
				"element": "C" 
			},
			{
				"x": 0.3881127088,
				"y": 0.8957358968,
				"z": 2.452174191,
				"element": "C" 
			},
			{
				"x": 0.5876607104,
				"y": -0.1306576412,
				"z": 1.4380071951,
				"element": "N" 
			},
			{
				"x": 1.812371562,
				"y": -0.7124029229,
				"z": 1.3215378336,
				"element": "N" 
			},
			{
				"x": 1.710515441,
				"y": -1.5313269053,
				"z": 0.2741654823,
				"element": "C" 
			},
			{
				"x": 2.8796047253,
				"y": -2.3674404857,
				"z": -0.1509335752,
				"element": "C" 
			},
			{
				"x": 0.4135110847,
				"y": -1.4688082082,
				"z": -0.2914622018,
				"element": "C" 
			},
			{
				"x": -0.287117135,
				"y": -0.5543342947,
				"z": 0.474889996,
				"element": "C" 
			},
			{
				"x": -1.7064906151,
				"y": -0.0877143199,
				"z": 0.3855077366,
				"element": "C" 
			},
			{
				"x": 0.0436874757,
				"y": 3.2579601184,
				"z": 1.7478343848,
				"element": "N" 
			},
			{
				"x": -1.3178196573,
				"y": 2.9373774137,
				"z": 1.9649275516,
				"element": "O" 
			},
			{
				"x": 2.8355724553,
				"y": 2.4313006289,
				"z": 2.7336686238,
				"element": "H" 
			},
			{
				"x": 2.7215092695,
				"y": 1.7600306297,
				"z": 1.1135226112,
				"element": "H" 
			},
			{
				"x": 2.4668095387,
				"y": 3.5153247643,
				"z": 1.3683244448,
				"element": "H" 
			},
			{
				"x": 0.9890764309,
				"y": 0.6012830963,
				"z": 3.3171482516,
				"element": "H" 
			},
			{
				"x": -0.6615683752,
				"y": 0.9143740706,
				"z": 2.7405222647,
				"element": "H" 
			},
			{
				"x": 3.7367644463,
				"y": -2.162896014,
				"z": 0.494693654,
				"element": "H" 
			},
			{
				"x": 2.6512168141,
				"y": -3.437682678,
				"z": -0.090375833,
				"element": "H" 
			},
			{
				"x": 3.1686800362,
				"y": -2.1553820948,
				"z": -1.1865771368,
				"element": "H" 
			},
			{
				"x": 0.0318294465,
				"y": -2.0224710836,
				"z": -1.137650594,
				"element": "H" 
			},
			{
				"x": -2.3241561946,
				"y": -0.5192820866,
				"z": 1.1835767055,
				"element": "H" 
			},
			{
				"x": -2.1361104297,
				"y": -0.4012230988,
				"z": -0.5686616335,
				"element": "H" 
			},
			{
				"x": -1.7885773375,
				"y": 1.0003297777,
				"z": 0.464778328,
				"element": "H" 
			},
			{
				"x": -1.7513291612,
				"y": 3.7732605628,
				"z": 1.7499982299,
				"element": "H" 
			}
		],
		 "valence_orbital": [ 
			{
				"type": "occ",
				"energy": -0.28113,
				"method": "rhf"
			},
			{
				"type": "occ",
				"energy": -0.27469,
				"method": "rhf"
			},
			{
				"type": "occ",
				"energy": -0.25691,
				"method": "rhf"
			},
			{
				"type": "occ",
				"energy": -0.22681,
				"method": "rhf"
			},
			{
				"type": "occ",
				"energy": -0.22541,
				"method": "rhf"
			},
			{
				"type": "unocc",
				"energy": -0.00356,
				"method": "rhf"
			},
			{
				"type": "unocc",
				"energy": 0.03372,
				"method": "rhf"
			},
			{
				"type": "unocc",
				"energy": 0.0685,
				"method": "rhf"
			},
			{
				"type": "unocc",
				"energy": 0.07699,
				"method": "rhf"
			},
			{
				"type": "unocc",
				"energy": 0.11004,
				"method": "rhf"
			}
		],
		"cosmo_sigma_profile": { 
			"-0.025": 0.0,
			"-0.024": 0.0,
			"-0.023": 0.0,
			"-0.022": 0.0,
			"-0.021": 0.0,
			"-0.02": 0.0,
			"-0.019": 0.0,
			"-0.018": 0.0499088279998,
			"-0.017": 0.726067262648,
			"-0.016": 1.29074992369,
			"-0.015": 0.652800785465,
			"-0.014": 0.68026546228,
			"-0.013": 0.963787307312,
			"-0.012": 0.556984447607,
			"-0.011": 0.524670201377,
			"-0.01": 0.730703269859,
			"-0.009": 0.594664479361,
			"-0.008": 0.958638091832,
			"-0.007": 2.25749734189,
			"-0.006": 5.92482525666,
			"-0.005": 12.3240774342,
			"-0.004": 18.2762292784,
			"-0.003": 17.5455004222,
			"-0.002": 20.7091263384,
			"-0.001": 26.7838871836,
			"0.0": 26.4647201673,
			"0.001": 13.5449941904,
			"0.002": 10.5064657303,
			"0.003": 10.0501243631,
			"0.004": 8.71613513206,
			"0.005": 10.1581099847,
			"0.006": 9.78506533414,
			"0.007": 4.89524408694,
			"0.008": 3.14911129882,
			"0.009": 3.33091396599,
			"0.01": 2.10015208856,
			"0.011": 1.59418815763,
			"0.012": 1.77215057041,
			"0.013": 1.6608115126,
			"0.014": 0.696077697343,
			"0.015": 0.563620135087,
			"0.016": 0.505132126913,
			"0.017": 0.0,
			"0.018": 0.0,
			"0.019": 0.0,
			"0.02": 0.0,
			"0.021": 0.0,
			"0.022": 0.0,
			"0.023": 0.0,
			"0.024": 0.0,
			"0.025": 0.0
		}
	}
}
