{
	 "smiles": "CC(=O)NCO", 
	 "Tm": 328.65, 
	 "num_atms": 13, 
	 "gaussian": { 
		 "optdone": 1, 
		 "sigma_profile": "yes", 
		 "theory": "DFT", 
		 "functional": "B3LYP", 
		 "basiset": "6-31G**", 
		 "properties": { 
			 "R2extent": 1089.6673, 
			 "electric_dipole_moment_norm": 2.64930580719, 
			 "electric_quadrupole_moment_norm": 16.5762169306, 
			 "total_energy": -323.74107622, 
			 "HOMO_LUMO_gap": 0.26891, 
			 "cosmo_polarized_energy": -14.34, 
			 "cosmo_cavitation_energy": 16.76, 
			 "cosmo_dispersion_energy": -12.33, 
			 "cosmo_repulsion_energy": 1.09, 
			 "cosmo_total_nonelectrostatic_energy": 5.53, 
			 "SMD_solvation_energy": 3.58 
		},
		"coords": [
			{
				"x": -1.5926560268,
				"y": -1.8320117181,
				"z": 1.8079929918,
				"element": "C" 
			},
			{
				"x": -2.2518324847,
				"y": -0.7511721367,
				"z": 0.9619843056,
				"element": "C" 
			},
			{
				"x": -3.3778307139,
				"y": -0.8832252343,
				"z": 0.5067196273,
				"element": "O" 
			},
			{
				"x": -1.5376520453,
				"y": 0.4111293961,
				"z": 0.7493160084,
				"element": "N" 
			},
			{
				"x": -0.1503793394,
				"y": 0.6765437616,
				"z": 1.0437336977,
				"element": "C" 
			},
			{
				"x": 0.714109087,
				"y": 0.5491322684,
				"z": -0.0689629966,
				"element": "O" 
			},
			{
				"x": -1.4065726913,
				"y": -1.480421997,
				"z": 2.828162076,
				"element": "H" 
			},
			{
				"x": -0.6347700135,
				"y": -2.1598500725,
				"z": 1.3898974097,
				"element": "H" 
			},
			{
				"x": -2.2742298118,
				"y": -2.6811167564,
				"z": 1.8434560751,
				"element": "H" 
			},
			{
				"x": -2.0132971978,
				"y": 1.0594080365,
				"z": 0.1329213748,
				"element": "H" 
			},
			{
				"x": -0.0433130707,
				"y": 1.7161480566,
				"z": 1.3649602309,
				"element": "H" 
			},
			{
				"x": 0.1526717833,
				"y": 0.0314631012,
				"z": 1.8763345964,
				"element": "H" 
			},
			{
				"x": 0.6541525249,
				"y": -0.3596267055,
				"z": -0.3937153972,
				"element": "H" 
			}
		],
		 "valence_orbital": [ 
			{
				"type": "occ",
				"energy": -0.37025,
				"method": "rhf"
			},
			{
				"type": "occ",
				"energy": -0.36082,
				"method": "rhf"
			},
			{
				"type": "occ",
				"energy": -0.30113,
				"method": "rhf"
			},
			{
				"type": "occ",
				"energy": -0.26173,
				"method": "rhf"
			},
			{
				"type": "occ",
				"energy": -0.251,
				"method": "rhf"
			},
			{
				"type": "unocc",
				"energy": 0.01791,
				"method": "rhf"
			},
			{
				"type": "unocc",
				"energy": 0.0583,
				"method": "rhf"
			},
			{
				"type": "unocc",
				"energy": 0.09588,
				"method": "rhf"
			},
			{
				"type": "unocc",
				"energy": 0.10823,
				"method": "rhf"
			},
			{
				"type": "unocc",
				"energy": 0.14109,
				"method": "rhf"
			}
		],
		"cosmo_sigma_profile": { 
			"-0.025": 0.0,
			"-0.024": 0.0,
			"-0.023": 0.0,
			"-0.022": 0.0,
			"-0.021": 0.0,
			"-0.02": 0.0,
			"-0.019": 0.0,
			"-0.018": 0.0,
			"-0.017": 0.0,
			"-0.016": 0.195241402918,
			"-0.015": 0.714869419969,
			"-0.014": 1.03817748251,
			"-0.013": 2.70177120785,
			"-0.012": 2.52018877672,
			"-0.011": 1.52796479654,
			"-0.01": 2.72741862138,
			"-0.009": 2.33086199357,
			"-0.008": 2.36308629475,
			"-0.007": 4.60582482798,
			"-0.006": 10.9789945158,
			"-0.005": 9.15108833035,
			"-0.004": 8.9754118131,
			"-0.003": 8.96050481897,
			"-0.002": 8.61338028331,
			"-0.001": 10.0185975554,
			"0.0": 5.10574004037,
			"0.001": 2.71783760559,
			"0.002": 4.42291910683,
			"0.003": 3.13369881332,
			"0.004": 2.49427202656,
			"0.005": 3.09235343129,
			"0.006": 2.71141236021,
			"0.007": 2.26032069231,
			"0.008": 2.09112749144,
			"0.009": 2.44122789296,
			"0.01": 2.23686643694,
			"0.011": 3.0597818581,
			"0.012": 3.59783392525,
			"0.013": 6.09582550339,
			"0.014": 6.62554619755,
			"0.015": 1.32462713178,
			"0.016": 0.0,
			"0.017": 0.0,
			"0.018": 0.0,
			"0.019": 0.0,
			"0.02": 0.0,
			"0.021": 0.0,
			"0.022": 0.0,
			"0.023": 0.0,
			"0.024": 0.0,
			"0.025": 0.0
		}
	}
}
