{
	 "smiles": "FC1=C(C=CC(=C1)S(Cl)(=O)=O)N1C=CC=N1", 
	 "Tm": 378.15, 
	 "num_atms": 22, 
	 "gaussian": { 
		 "optdone": 1, 
		 "sigma_profile": "yes", 
		 "theory": "DFT", 
		 "functional": "B3LYP", 
		 "basiset": "6-31G**", 
		 "properties": { 
			 "R2extent": 6355.7436, 
			 "electric_dipole_moment_norm": 5.4636508115, 
			 "electric_quadrupole_moment_norm": 14.2426523018, 
			 "total_energy": -1564.6323205, 
			 "HOMO_LUMO_gap": 0.16124, 
			 "cosmo_polarized_energy": -13.58, 
			 "cosmo_cavitation_energy": 31.32, 
			 "cosmo_dispersion_energy": -23.11, 
			 "cosmo_repulsion_energy": 1.72, 
			 "cosmo_total_nonelectrostatic_energy": 9.93, 
			 "SMD_solvation_energy": 4.39 
		},
		"coords": [
			{
				"x": 0.1200521209,
				"y": 1.86875869,
				"z": -1.6329800095,
				"element": "F" 
			},
			{
				"x": -0.5085937341,
				"y": 1.0467177468,
				"z": -0.7904122893,
				"element": "C" 
			},
			{
				"x": 0.2160591625,
				"y": 0.3520676905,
				"z": 0.1951922421,
				"element": "C" 
			},
			{
				"x": -0.4686648533,
				"y": -0.5407214874,
				"z": 1.0304683033,
				"element": "C" 
			},
			{
				"x": -1.837991783,
				"y": -0.7467870127,
				"z": 0.8928199108,
				"element": "C" 
			},
			{
				"x": -2.5212180245,
				"y": -0.0286584379,
				"z": -0.0871088435,
				"element": "C" 
			},
			{
				"x": -1.8771418137,
				"y": 0.8723412969,
				"z": -0.9344488675,
				"element": "C" 
			},
			{
				"x": -4.2783358689,
				"y": -0.2800288918,
				"z": -0.2818281523,
				"element": "S" 
			},
			{
				"x": -5.0627289264,
				"y": 1.207021809,
				"z": 1.027012243,
				"element": "Cl" 
			},
			{
				"x": -4.6736252679,
				"y": 0.1127826206,
				"z": -1.6279767319,
				"element": "O" 
			},
			{
				"x": -4.6426482815,
				"y": -1.5660082709,
				"z": 0.2986369587,
				"element": "O" 
			},
			{
				"x": 1.6060066196,
				"y": 0.5270952488,
				"z": 0.3342912509,
				"element": "N" 
			},
			{
				"x": 2.5354109591,
				"y": -0.436557164,
				"z": 0.6411011386,
				"element": "C" 
			},
			{
				"x": 3.7489469118,
				"y": 0.2017766878,
				"z": 0.7311160871,
				"element": "C" 
			},
			{
				"x": 3.4561569945,
				"y": 1.5644524297,
				"z": 0.4691249678,
				"element": "C" 
			},
			{
				"x": 2.1677967967,
				"y": 1.7650748666,
				"z": 0.2293607918,
				"element": "N" 
			},
			{
				"x": 0.0815751361,
				"y": -1.0601971151,
				"z": 1.8070891159,
				"element": "H" 
			},
			{
				"x": -2.3663779288,
				"y": -1.4402320225,
				"z": 1.5360558161,
				"element": "H" 
			},
			{
				"x": -2.4099216886,
				"y": 1.4080154454,
				"z": -1.7111093375,
				"element": "H" 
			},
			{
				"x": 2.2620107742,
				"y": -1.4769653652,
				"z": 0.7309557223,
				"element": "H" 
			},
			{
				"x": 4.7079485216,
				"y": -0.2465303237,
				"z": 0.9422085574,
				"element": "H" 
			},
			{
				"x": 4.1364841738,
				"y": 2.405381559,
				"z": 0.4488311257,
				"element": "H" 
			}
		],
		 "valence_orbital": [ 
			{
				"type": "occ",
				"energy": -0.3172,
				"method": "rhf"
			},
			{
				"type": "occ",
				"energy": -0.30582,
				"method": "rhf"
			},
			{
				"type": "occ",
				"energy": -0.29137,
				"method": "rhf"
			},
			{
				"type": "occ",
				"energy": -0.26996,
				"method": "rhf"
			},
			{
				"type": "occ",
				"energy": -0.2589,
				"method": "rhf"
			},
			{
				"type": "unocc",
				"energy": -0.09766,
				"method": "rhf"
			},
			{
				"type": "unocc",
				"energy": -0.0595,
				"method": "rhf"
			},
			{
				"type": "unocc",
				"energy": -0.04366,
				"method": "rhf"
			},
			{
				"type": "unocc",
				"energy": 0.00012,
				"method": "rhf"
			},
			{
				"type": "unocc",
				"energy": 0.04188,
				"method": "rhf"
			}
		],
		"cosmo_sigma_profile": { 
			"-0.025": 0.0,
			"-0.024": 0.0,
			"-0.023": 0.0,
			"-0.022": 0.0,
			"-0.021": 0.0,
			"-0.02": 0.0,
			"-0.019": 0.0,
			"-0.018": 0.0,
			"-0.017": 0.0,
			"-0.016": 0.0,
			"-0.015": 0.0,
			"-0.014": 0.0,
			"-0.013": 0.0,
			"-0.012": 0.0,
			"-0.011": 0.00460536330027,
			"-0.01": 2.81455435125,
			"-0.009": 7.99456790444,
			"-0.008": 7.8795394125,
			"-0.007": 10.7963011283,
			"-0.006": 10.6884693152,
			"-0.005": 10.3786625991,
			"-0.004": 12.6618289719,
			"-0.003": 16.2684206682,
			"-0.002": 21.793716494,
			"-0.001": 20.0087263739,
			"0.0": 18.2492571571,
			"0.001": 14.3783063519,
			"0.002": 17.0874827418,
			"0.003": 28.3630265774,
			"0.004": 14.0984200084,
			"0.005": 6.17667056765,
			"0.006": 6.17492684097,
			"0.007": 8.81397275686,
			"0.008": 11.1873328993,
			"0.009": 4.546095498,
			"0.01": 1.35125161367,
			"0.011": 1.31127670998,
			"0.012": 1.19727550121,
			"0.013": 1.25023344448,
			"0.014": 0.551227143601,
			"0.015": 0.0244844156053,
			"0.016": 0.0,
			"0.017": 0.0,
			"0.018": 0.0,
			"0.019": 0.0,
			"0.02": 0.0,
			"0.021": 0.0,
			"0.022": 0.0,
			"0.023": 0.0,
			"0.024": 0.0,
			"0.025": 0.0
		}
	}
}
