{
	 "smiles": "CC(CC1CC(=O)C2=C3[C@H]4OC(=O)C[C@H]4OC3=C3C=CC=CC3=C2O1)O[Si](C)(C)C(C)(C)C", 
	 "Tm": 405.15, 
	 "num_atms": 65, 
	 "gaussian": { 
		 "optdone": 1, 
		 "sigma_profile": "yes", 
		 "theory": "DFT", 
		 "functional": "B3LYP", 
		 "basiset": "6-31G**", 
		 "properties": { 
			 "R2extent": 22457.3408, 
			 "electric_dipole_moment_norm": 6.79115887754, 
			 "electric_quadrupole_moment_norm": 31.0413019456, 
			 "total_energy": -1750.99156719, 
			 "HOMO_LUMO_gap": 0.13761, 
			 "cosmo_polarized_energy": -20.43, 
			 "cosmo_cavitation_energy": 65.95, 
			 "cosmo_dispersion_energy": -41.07, 
			 "cosmo_repulsion_energy": 3.12, 
			 "cosmo_total_nonelectrostatic_energy": 28.0, 
			 "SMD_solvation_energy": 12.37 
		},
		"coords": [
			{
				"x": -0.5956870841,
				"y": 2.9283583909,
				"z": -0.9962285024,
				"element": "C" 
			},
			{
				"x": -0.8925953843,
				"y": 2.200159358,
				"z": 0.3182180185,
				"element": "C" 
			},
			{
				"x": -1.3626895387,
				"y": 0.7376172046,
				"z": 0.137366842,
				"element": "C" 
			},
			{
				"x": -0.2575081952,
				"y": -0.3338921449,
				"z": 0.1304014106,
				"element": "C" 
			},
			{
				"x": 0.812282636,
				"y": -0.2244232101,
				"z": -0.9534683632,
				"element": "C" 
			},
			{
				"x": 0.221389363,
				"y": -0.457079067,
				"z": -2.3324628696,
				"element": "C" 
			},
			{
				"x": 0.5696671557,
				"y": 0.181537026,
				"z": -3.3176171742,
				"element": "O" 
			},
			{
				"x": -0.7842174777,
				"y": -1.5363496142,
				"z": -2.3772772235,
				"element": "C" 
			},
			{
				"x": -1.2698690964,
				"y": -2.06851862,
				"z": -3.6050508954,
				"element": "C" 
			},
			{
				"x": -0.8773167466,
				"y": -1.7817051335,
				"z": -5.0258787463,
				"element": "C" 
			},
			{
				"x": 0.4070585062,
				"y": -2.3838358193,
				"z": -5.3471798282,
				"element": "O" 
			},
			{
				"x": 0.3081514401,
				"y": -3.3005087538,
				"z": -6.3494354774,
				"element": "C" 
			},
			{
				"x": 1.2513286964,
				"y": -3.9310943641,
				"z": -6.7483634582,
				"element": "O" 
			},
			{
				"x": -1.1304348665,
				"y": -3.3476947529,
				"z": -6.8641018382,
				"element": "C" 
			},
			{
				"x": -1.9358360116,
				"y": -2.5905743074,
				"z": -5.8246324824,
				"element": "C" 
			},
			{
				"x": -2.5468674888,
				"y": -3.5052431767,
				"z": -4.8755988953,
				"element": "O" 
			},
			{
				"x": -2.1807509409,
				"y": -3.0890351277,
				"z": -3.6231702926,
				"element": "C" 
			},
			{
				"x": -2.7012153409,
				"y": -3.6762487849,
				"z": -2.4380007578,
				"element": "C" 
			},
			{
				"x": -3.6405893916,
				"y": -4.7332052091,
				"z": -2.4446849894,
				"element": "C" 
			},
			{
				"x": -4.1043593226,
				"y": -5.2562018252,
				"z": -1.2548033462,
				"element": "C" 
			},
			{
				"x": -3.6489742587,
				"y": -4.7384224187,
				"z": -0.0216370142,
				"element": "C" 
			},
			{
				"x": -2.7338999699,
				"y": -3.7056519121,
				"z": 0.0107411767,
				"element": "C" 
			},
			{
				"x": -2.2315098648,
				"y": -3.1501692428,
				"z": -1.1919763187,
				"element": "C" 
			},
			{
				"x": -1.2771827797,
				"y": -2.0744374784,
				"z": -1.1866930435,
				"element": "C" 
			},
			{
				"x": -0.9016564873,
				"y": -1.6348955112,
				"z": 0.0436875542,
				"element": "O" 
			},
			{
				"x": 0.2577387815,
				"y": 2.2253302853,
				"z": 1.1708464467,
				"element": "O" 
			},
			{
				"x": 0.4357080866,
				"y": 3.1886882257,
				"z": 2.5428408429,
				"element": "Si" 
			},
			{
				"x": 0.1785192083,
				"y": 5.0094171615,
				"z": 2.1021552032,
				"element": "C" 
			},
			{
				"x": -0.8565991305,
				"y": 2.6925777689,
				"z": 3.831704851,
				"element": "C" 
			},
			{
				"x": 2.2170650563,
				"y": 2.8480251431,
				"z": 3.1453944218,
				"element": "C" 
			},
			{
				"x": 2.3969121073,
				"y": 1.3434925423,
				"z": 3.4417518163,
				"element": "C" 
			},
			{
				"x": 3.2275883924,
				"y": 3.2677445767,
				"z": 2.0557950333,
				"element": "C" 
			},
			{
				"x": 2.4959664527,
				"y": 3.6536268659,
				"z": 4.4336272447,
				"element": "C" 
			},
			{
				"x": 0.1800903547,
				"y": 2.4345546624,
				"z": -1.5855211147,
				"element": "H" 
			},
			{
				"x": -1.5012573694,
				"y": 2.9788018949,
				"z": -1.610830364,
				"element": "H" 
			},
			{
				"x": -0.2688609821,
				"y": 3.9515799392,
				"z": -0.7904646099,
				"element": "H" 
			},
			{
				"x": -1.7233108333,
				"y": 2.7365385731,
				"z": 0.80226135,
				"element": "H" 
			},
			{
				"x": -2.0303933061,
				"y": 0.4698500764,
				"z": 0.9635322149,
				"element": "H" 
			},
			{
				"x": -1.9575406935,
				"y": 0.6660736137,
				"z": -0.7805700413,
				"element": "H" 
			},
			{
				"x": 0.2219308642,
				"y": -0.3409901879,
				"z": 1.109581533,
				"element": "H" 
			},
			{
				"x": 1.3253908065,
				"y": 0.7360258941,
				"z": -0.9108472441,
				"element": "H" 
			},
			{
				"x": 1.5611847295,
				"y": -1.0097529283,
				"z": -0.7800498761,
				"element": "H" 
			},
			{
				"x": -0.8132030544,
				"y": -0.7245277374,
				"z": -5.2805906888,
				"element": "H" 
			},
			{
				"x": -1.1608076703,
				"y": -2.8533691028,
				"z": -7.8412097102,
				"element": "H" 
			},
			{
				"x": -1.463064721,
				"y": -4.3782325003,
				"z": -6.9975025891,
				"element": "H" 
			},
			{
				"x": -2.730597509,
				"y": -1.9611383485,
				"z": -6.2348685408,
				"element": "H" 
			},
			{
				"x": -3.9832258697,
				"y": -5.1198478171,
				"z": -3.3984892829,
				"element": "H" 
			},
			{
				"x": -4.8247346198,
				"y": -6.0688760178,
				"z": -1.2644188127,
				"element": "H" 
			},
			{
				"x": -4.0237244815,
				"y": -5.1567885061,
				"z": 0.9078149395,
				"element": "H" 
			},
			{
				"x": -2.3828433073,
				"y": -3.3040541066,
				"z": 0.9539775419,
				"element": "H" 
			},
			{
				"x": 0.8955628357,
				"y": 5.3523519136,
				"z": 1.3496069411,
				"element": "H" 
			},
			{
				"x": 0.2888831784,
				"y": 5.6486335511,
				"z": 2.9852779085,
				"element": "H" 
			},
			{
				"x": -0.8277910657,
				"y": 5.1823945499,
				"z": 1.7040284743,
				"element": "H" 
			},
			{
				"x": -0.7813143337,
				"y": 3.3141326729,
				"z": 4.7308492047,
				"element": "H" 
			},
			{
				"x": -1.8723666357,
				"y": 2.8172414421,
				"z": 3.4391372312,
				"element": "H" 
			},
			{
				"x": -0.7471280322,
				"y": 1.6470716423,
				"z": 4.1372979696,
				"element": "H" 
			},
			{
				"x": 1.7148998756,
				"y": 0.993657519,
				"z": 4.2251263827,
				"element": "H" 
			},
			{
				"x": 2.2247435738,
				"y": 0.7342047149,
				"z": 2.5485956135,
				"element": "H" 
			},
			{
				"x": 3.4200513832,
				"y": 1.1423725855,
				"z": 3.7877106044,
				"element": "H" 
			},
			{
				"x": 4.2538980919,
				"y": 3.0550979801,
				"z": 2.3849773287,
				"element": "H" 
			},
			{
				"x": 3.1727302718,
				"y": 4.3401115131,
				"z": 1.8372055867,
				"element": "H" 
			},
			{
				"x": 3.0593847315,
				"y": 2.7261879581,
				"z": 1.1194397503,
				"element": "H" 
			},
			{
				"x": 3.5206408487,
				"y": 3.4686335977,
				"z": 4.7832540467,
				"element": "H" 
			},
			{
				"x": 1.8202518496,
				"y": 3.3736866957,
				"z": 5.2499787084,
				"element": "H" 
			},
			{
				"x": 2.3995045842,
				"y": 4.7336861879,
				"z": 4.2737401994,
				"element": "H" 
			}
		],
		 "valence_orbital": [ 
			{
				"type": "occ",
				"energy": -0.26637,
				"method": "rhf"
			},
			{
				"type": "occ",
				"energy": -0.26292,
				"method": "rhf"
			},
			{
				"type": "occ",
				"energy": -0.25619,
				"method": "rhf"
			},
			{
				"type": "occ",
				"energy": -0.24582,
				"method": "rhf"
			},
			{
				"type": "occ",
				"energy": -0.20156,
				"method": "rhf"
			},
			{
				"type": "unocc",
				"energy": -0.06395,
				"method": "rhf"
			},
			{
				"type": "unocc",
				"energy": -0.04029,
				"method": "rhf"
			},
			{
				"type": "unocc",
				"energy": 0.01063,
				"method": "rhf"
			},
			{
				"type": "unocc",
				"energy": 0.01558,
				"method": "rhf"
			},
			{
				"type": "unocc",
				"energy": 0.04021,
				"method": "rhf"
			}
		],
		"cosmo_sigma_profile": { 
			"-0.025": 0.0,
			"-0.024": 0.0,
			"-0.023": 0.0,
			"-0.022": 0.0,
			"-0.021": 0.0,
			"-0.02": 0.0,
			"-0.019": 0.0,
			"-0.018": 0.0,
			"-0.017": 0.0,
			"-0.016": 0.0,
			"-0.015": 0.0,
			"-0.014": 0.0,
			"-0.013": 0.0,
			"-0.012": 0.0,
			"-0.011": 0.0,
			"-0.01": 0.0,
			"-0.009": 1.88875324135,
			"-0.008": 9.70450892426,
			"-0.007": 12.8618615577,
			"-0.006": 14.273069936,
			"-0.005": 20.6496054241,
			"-0.004": 35.4561671101,
			"-0.003": 44.5121476042,
			"-0.002": 55.0307108132,
			"-0.001": 52.747035911,
			"0.0": 51.930852459,
			"0.001": 62.9856594744,
			"0.002": 46.1297613082,
			"0.003": 26.6090852996,
			"0.004": 16.9046603968,
			"0.005": 8.23917368105,
			"0.006": 7.38489965839,
			"0.007": 7.47663998963,
			"0.008": 6.53120989915,
			"0.009": 6.35963914462,
			"0.01": 6.55223085556,
			"0.011": 7.06269594234,
			"0.012": 7.36939262963,
			"0.013": 2.41074616593,
			"0.014": 0.018748671931,
			"0.015": 0.0,
			"0.016": 0.0,
			"0.017": 0.0,
			"0.018": 0.0,
			"0.019": 0.0,
			"0.02": 0.0,
			"0.021": 0.0,
			"0.022": 0.0,
			"0.023": 0.0,
			"0.024": 0.0,
			"0.025": 0.0
		}
	}
}
