{
	 "smiles": "CN(C)C1=CC=C(C=CC#N)C=C1", 
	 "Tm": 439.15, 
	 "num_atms": 25, 
	 "gaussian": { 
		 "optdone": 1, 
		 "sigma_profile": "yes", 
		 "theory": "DFT", 
		 "functional": "B3LYP", 
		 "basiset": "6-31G**", 
		 "properties": { 
			 "R2extent": 3978.3331, 
			 "electric_dipole_moment_norm": 9.05035429362, 
			 "electric_quadrupole_moment_norm": 14.7362212144, 
			 "total_energy": -535.871614927, 
			 "HOMO_LUMO_gap": 0.14257, 
			 "cosmo_polarized_energy": -13.56, 
			 "cosmo_cavitation_energy": 29.53, 
			 "cosmo_dispersion_energy": -20.94, 
			 "cosmo_repulsion_energy": 1.63, 
			 "cosmo_total_nonelectrostatic_energy": 10.21, 
			 "SMD_solvation_energy": 6.48 
		},
		"coords": [
			{
				"x": -1.2357233825,
				"y": 4.0646014415,
				"z": 1.7909362119,
				"element": "C" 
			},
			{
				"x": -1.8985803229,
				"y": 2.7733640343,
				"z": 1.7096409527,
				"element": "N" 
			},
			{
				"x": -3.1684804386,
				"y": 2.5724518297,
				"z": 2.3877089296,
				"element": "C" 
			},
			{
				"x": -1.3394649061,
				"y": 1.7511980229,
				"z": 0.97418706,
				"element": "C" 
			},
			{
				"x": -1.9684336106,
				"y": 0.4868937201,
				"z": 0.8673496979,
				"element": "C" 
			},
			{
				"x": -1.3912346131,
				"y": -0.5314698058,
				"z": 0.1249650833,
				"element": "C" 
			},
			{
				"x": -0.1683339509,
				"y": -0.3672130555,
				"z": -0.5531558937,
				"element": "C" 
			},
			{
				"x": 0.3778321676,
				"y": -1.4789470083,
				"z": -1.3128387807,
				"element": "C" 
			},
			{
				"x": 1.5314272661,
				"y": -1.5066154089,
				"z": -2.0224430638,
				"element": "C" 
			},
			{
				"x": 1.9594661726,
				"y": -2.6646394377,
				"z": -2.728410161,
				"element": "C" 
			},
			{
				"x": 2.326444965,
				"y": -3.6041754246,
				"z": -3.3131350199,
				"element": "N" 
			},
			{
				"x": 0.4531382197,
				"y": 0.8936273833,
				"z": -0.4446113026,
				"element": "C" 
			},
			{
				"x": -0.1064891385,
				"y": 1.9229417708,
				"z": 0.2914392549,
				"element": "C" 
			},
			{
				"x": -1.1273780423,
				"y": 4.533753902,
				"z": 0.8035905002,
				"element": "H" 
			},
			{
				"x": -0.236416034,
				"y": 3.9832808118,
				"z": 2.2389611059,
				"element": "H" 
			},
			{
				"x": -1.8283580521,
				"y": 4.7330834945,
				"z": 2.4159339734,
				"element": "H" 
			},
			{
				"x": -3.4431940967,
				"y": 3.4868336325,
				"z": 2.9141427442,
				"element": "H" 
			},
			{
				"x": -3.9762738961,
				"y": 2.3325531993,
				"z": 1.6829435132,
				"element": "H" 
			},
			{
				"x": -3.1124470996,
				"y": 1.7620776724,
				"z": 3.126773048,
				"element": "H" 
			},
			{
				"x": -2.9111812875,
				"y": 0.2996886091,
				"z": 1.3658343036,
				"element": "H" 
			},
			{
				"x": -1.9023454657,
				"y": -1.4893467445,
				"z": 0.0652375019,
				"element": "H" 
			},
			{
				"x": -0.2205568867,
				"y": -2.3884083457,
				"z": -1.3009665886,
				"element": "H" 
			},
			{
				"x": 2.1878543408,
				"y": -0.6434895515,
				"z": -2.08726203,
				"element": "H" 
			},
			{
				"x": 1.3979419951,
				"y": 1.0771433819,
				"z": -0.9477506165,
				"element": "H" 
			},
			{
				"x": 0.4150860969,
				"y": 2.8707118765,
				"z": 0.3391295757,
				"element": "H" 
			}
		],
		 "valence_orbital": [ 
			{
				"type": "occ",
				"energy": -0.3148,
				"method": "rhf"
			},
			{
				"type": "occ",
				"energy": -0.31004,
				"method": "rhf"
			},
			{
				"type": "occ",
				"energy": -0.26157,
				"method": "rhf"
			},
			{
				"type": "occ",
				"energy": -0.25962,
				"method": "rhf"
			},
			{
				"type": "occ",
				"energy": -0.19713,
				"method": "rhf"
			},
			{
				"type": "unocc",
				"energy": -0.05456,
				"method": "rhf"
			},
			{
				"type": "unocc",
				"energy": -0.00887,
				"method": "rhf"
			},
			{
				"type": "unocc",
				"energy": 0.04025,
				"method": "rhf"
			},
			{
				"type": "unocc",
				"energy": 0.0494,
				"method": "rhf"
			},
			{
				"type": "unocc",
				"energy": 0.07228,
				"method": "rhf"
			}
		],
		"cosmo_sigma_profile": { 
			"-0.025": 0.0,
			"-0.024": 0.0,
			"-0.023": 0.0,
			"-0.022": 0.0,
			"-0.021": 0.0,
			"-0.02": 0.0,
			"-0.019": 0.0,
			"-0.018": 0.0,
			"-0.017": 0.0,
			"-0.016": 0.0,
			"-0.015": 0.0,
			"-0.014": 0.0,
			"-0.013": 0.0,
			"-0.012": 0.0,
			"-0.011": 0.0,
			"-0.01": 0.0,
			"-0.009": 0.890979728282,
			"-0.008": 3.71414577182,
			"-0.007": 7.9105183509,
			"-0.006": 11.9900512575,
			"-0.005": 19.6297104177,
			"-0.004": 24.5446924141,
			"-0.003": 19.8979101248,
			"-0.002": 23.2418874221,
			"-0.001": 15.6925385923,
			"0.0": 11.1660712634,
			"0.001": 13.2060078419,
			"0.002": 14.1881738312,
			"0.003": 14.9797931033,
			"0.004": 13.3422428153,
			"0.005": 13.3425314553,
			"0.006": 4.5805110745,
			"0.007": 3.33772471746,
			"0.008": 2.20095598279,
			"0.009": 3.51686711114,
			"0.01": 3.52398769002,
			"0.011": 3.63440876294,
			"0.012": 2.90258080995,
			"0.013": 2.58675627135,
			"0.014": 1.85003688676,
			"0.015": 0.162956693258,
			"0.016": 0.0,
			"0.017": 0.0,
			"0.018": 0.0,
			"0.019": 0.0,
			"0.02": 0.0,
			"0.021": 0.0,
			"0.022": 0.0,
			"0.023": 0.0,
			"0.024": 0.0,
			"0.025": 0.0
		}
	}
}
