{
	 "smiles": "CC1=CC(C(O)=O)=C(NC(=O)C2=C(Cl)C=CC=C2F)C=C1", 
	 "Tm": 523.15, 
	 "num_atms": 32, 
	 "gaussian": { 
		 "optdone": 1, 
		 "sigma_profile": "yes", 
		 "theory": "DFT", 
		 "functional": "B3LYP", 
		 "basiset": "6-31G**", 
		 "properties": { 
			 "R2extent": 7979.045, 
			 "electric_dipole_moment_norm": 5.84767115098, 
			 "electric_quadrupole_moment_norm": 24.2126647168, 
			 "total_energy": -1418.71093684, 
			 "HOMO_LUMO_gap": 0.1655, 
			 "cosmo_polarized_energy": -16.5, 
			 "cosmo_cavitation_energy": 39.13, 
			 "cosmo_dispersion_energy": -26.85, 
			 "cosmo_repulsion_energy": 2.05, 
			 "cosmo_total_nonelectrostatic_energy": 14.34, 
			 "SMD_solvation_energy": 8.32 
		},
		"coords": [
			{
				"x": -0.5292726367,
				"y": -4.5109576313,
				"z": 0.1451202946,
				"element": "C" 
			},
			{
				"x": -0.9873316744,
				"y": -3.1121025879,
				"z": 0.4811545336,
				"element": "C" 
			},
			{
				"x": -2.1586184061,
				"y": -2.5797321796,
				"z": -0.047280609,
				"element": "C" 
			},
			{
				"x": -2.5925023647,
				"y": -1.2741978038,
				"z": 0.2467637837,
				"element": "C" 
			},
			{
				"x": -3.8712537992,
				"y": -0.7921395359,
				"z": -0.3190946934,
				"element": "C" 
			},
			{
				"x": -4.4067778106,
				"y": -1.6276230705,
				"z": -1.2390943865,
				"element": "O" 
			},
			{
				"x": -4.4458269234,
				"y": 0.2458338685,
				"z": -0.0145686878,
				"element": "O" 
			},
			{
				"x": -1.8134130178,
				"y": -0.4523509803,
				"z": 1.1051177937,
				"element": "C" 
			},
			{
				"x": -2.2411657449,
				"y": 0.8434864906,
				"z": 1.4082997603,
				"element": "N" 
			},
			{
				"x": -1.5455796297,
				"y": 1.9857754549,
				"z": 1.7481884469,
				"element": "C" 
			},
			{
				"x": -2.14103091,
				"y": 3.0145187619,
				"z": 2.022587728,
				"element": "O" 
			},
			{
				"x": -0.034459544,
				"y": 1.9850207097,
				"z": 1.6993216679,
				"element": "C" 
			},
			{
				"x": 0.7675900083,
				"y": 2.2501249086,
				"z": 2.8182966758,
				"element": "C" 
			},
			{
				"x": 0.0393731545,
				"y": 2.3692288949,
				"z": 4.4083964813,
				"element": "Cl" 
			},
			{
				"x": 2.1525467056,
				"y": 2.3825661249,
				"z": 2.7107808909,
				"element": "C" 
			},
			{
				"x": 2.7570939359,
				"y": 2.2695426992,
				"z": 1.4587823136,
				"element": "C" 
			},
			{
				"x": 1.9919146929,
				"y": 2.0153381208,
				"z": 0.3212680007,
				"element": "C" 
			},
			{
				"x": 0.6185740222,
				"y": 1.8798274916,
				"z": 0.468045286,
				"element": "C" 
			},
			{
				"x": -0.1292907993,
				"y": 1.6348105409,
				"z": -0.6267089964,
				"element": "F" 
			},
			{
				"x": -0.653768972,
				"y": -1.0087022594,
				"z": 1.6731246249,
				"element": "C" 
			},
			{
				"x": -0.2505468492,
				"y": -2.2983377108,
				"z": 1.3566084341,
				"element": "C" 
			},
			{
				"x": -1.2715940239,
				"y": -5.0376869583,
				"z": -0.4603625186,
				"element": "H" 
			},
			{
				"x": -0.3534238663,
				"y": -5.1030819414,
				"z": 1.0502449505,
				"element": "H" 
			},
			{
				"x": 0.410962655,
				"y": -4.4985139399,
				"z": -0.4189071066,
				"element": "H" 
			},
			{
				"x": -2.7717097697,
				"y": -3.1832211759,
				"z": -0.7069160737,
				"element": "H" 
			},
			{
				"x": -5.2419317997,
				"y": -1.2134199809,
				"z": -1.512286093,
				"element": "H" 
			},
			{
				"x": -3.2208747887,
				"y": 1.0261027841,
				"z": 1.1881677858,
				"element": "H" 
			},
			{
				"x": 2.7419576579,
				"y": 2.5756876422,
				"z": 3.5994170693,
				"element": "H" 
			},
			{
				"x": 3.8332753042,
				"y": 2.3800799843,
				"z": 1.3711196205,
				"element": "H" 
			},
			{
				"x": 2.4333905939,
				"y": 1.925533228,
				"z": -0.6646872065,
				"element": "H" 
			},
			{
				"x": -0.0795709657,
				"y": -0.4328712596,
				"z": 2.3864329272,
				"element": "H" 
			},
			{
				"x": 0.6513655659,
				"y": -2.6910386897,
				"z": 1.820267302,
				"element": "H" 
			}
		],
		 "valence_orbital": [ 
			{
				"type": "occ",
				"energy": -0.27754,
				"method": "rhf"
			},
			{
				"type": "occ",
				"energy": -0.26854,
				"method": "rhf"
			},
			{
				"type": "occ",
				"energy": -0.25595,
				"method": "rhf"
			},
			{
				"type": "occ",
				"energy": -0.25345,
				"method": "rhf"
			},
			{
				"type": "occ",
				"energy": -0.22577,
				"method": "rhf"
			},
			{
				"type": "unocc",
				"energy": -0.06027,
				"method": "rhf"
			},
			{
				"type": "unocc",
				"energy": -0.03671,
				"method": "rhf"
			},
			{
				"type": "unocc",
				"energy": -0.02263,
				"method": "rhf"
			},
			{
				"type": "unocc",
				"energy": -0.01397,
				"method": "rhf"
			},
			{
				"type": "unocc",
				"energy": 0.01863,
				"method": "rhf"
			}
		],
		"cosmo_sigma_profile": { 
			"-0.025": 0.0,
			"-0.024": 0.0,
			"-0.023": 0.0,
			"-0.022": 0.0,
			"-0.021": 0.0,
			"-0.02": 0.0,
			"-0.019": 0.305117966504,
			"-0.018": 0.810094340674,
			"-0.017": 0.782793339321,
			"-0.016": 1.00032359037,
			"-0.015": 1.11033753988,
			"-0.014": 0.442949791975,
			"-0.013": 0.103080317583,
			"-0.012": 0.551318691611,
			"-0.011": 1.02132094058,
			"-0.01": 0.488340455182,
			"-0.009": 1.01224915767,
			"-0.008": 5.26640045648,
			"-0.007": 8.30882475577,
			"-0.006": 12.0219576287,
			"-0.005": 16.1796415488,
			"-0.004": 18.5090928306,
			"-0.003": 21.7784473679,
			"-0.002": 24.2940039026,
			"-0.001": 26.353213619,
			"0.0": 33.5488250447,
			"0.001": 30.1435695989,
			"0.002": 30.1143203709,
			"0.003": 29.7295457547,
			"0.004": 13.6090101785,
			"0.005": 5.41578552424,
			"0.006": 5.25479258376,
			"0.007": 4.33731143168,
			"0.008": 3.07748141042,
			"0.009": 4.00458249868,
			"0.01": 3.58478437915,
			"0.011": 5.2481304994,
			"0.012": 5.36962378196,
			"0.013": 2.13151090992,
			"0.014": 0.0,
			"0.015": 0.0,
			"0.016": 0.0,
			"0.017": 0.0,
			"0.018": 0.0,
			"0.019": 0.0,
			"0.02": 0.0,
			"0.021": 0.0,
			"0.022": 0.0,
			"0.023": 0.0,
			"0.024": 0.0,
			"0.025": 0.0
		}
	}
}
