{
	 "smiles": "CCCCCCCCCCCCCCCC(=O)OCCC", 
	 "Tm": 293.55, 
	 "num_atms": 59, 
	 "gaussian": { 
		 "optdone": 1, 
		 "sigma_profile": "yes", 
		 "theory": "DFT", 
		 "functional": "B3LYP", 
		 "basiset": "6-31G**", 
		 "properties": { 
			 "R2extent": 9314.4994, 
			 "electric_dipole_moment_norm": 1.93428607502, 
			 "electric_quadrupole_moment_norm": 7.02915397185, 
			 "total_energy": -897.428485097, 
			 "HOMO_LUMO_gap": 0.28174, 
			 "cosmo_polarized_energy": -6.74, 
			 "cosmo_cavitation_energy": 56.39, 
			 "cosmo_dispersion_energy": -34.54, 
			 "cosmo_repulsion_energy": 2.77, 
			 "cosmo_total_nonelectrostatic_energy": 24.62, 
			 "SMD_solvation_energy": 8.11 
		},
		"coords": [
			{
				"x": 0.8194505597,
				"y": -4.8612264662,
				"z": -1.2876107697,
				"element": "C" 
			},
			{
				"x": -0.1628746753,
				"y": -3.6963149356,
				"z": -1.1185710974,
				"element": "C" 
			},
			{
				"x": 0.4600506245,
				"y": -2.3625577731,
				"z": -0.6682005546,
				"element": "C" 
			},
			{
				"x": 1.463709137,
				"y": -1.7452310432,
				"z": -1.6736636763,
				"element": "C" 
			},
			{
				"x": 2.9589743316,
				"y": -2.0676008373,
				"z": -1.4405425673,
				"element": "C" 
			},
			{
				"x": 3.7566423533,
				"y": -1.1064658464,
				"z": -0.5340161757,
				"element": "C" 
			},
			{
				"x": 3.3564197293,
				"y": -1.0491598012,
				"z": 0.9573138229,
				"element": "C" 
			},
			{
				"x": 2.2664056607,
				"y": -0.0168245501,
				"z": 1.3112191846,
				"element": "C" 
			},
			{
				"x": 2.8019149685,
				"y": 1.4220392672,
				"z": 1.3908874177,
				"element": "C" 
			},
			{
				"x": 1.7460154252,
				"y": 2.5396679736,
				"z": 1.4761051947,
				"element": "C" 
			},
			{
				"x": 0.7781558932,
				"y": 2.4825490565,
				"z": 2.6782205685,
				"element": "C" 
			},
			{
				"x": -0.4944593381,
				"y": 1.6543108653,
				"z": 2.44081389,
				"element": "C" 
			},
			{
				"x": -1.458689067,
				"y": 1.6720651054,
				"z": 3.6349376884,
				"element": "C" 
			},
			{
				"x": -2.6850818172,
				"y": 0.7534644479,
				"z": 3.4969766759,
				"element": "C" 
			},
			{
				"x": -3.5983709303,
				"y": 1.0718275392,
				"z": 2.3012069027,
				"element": "C" 
			},
			{
				"x": -3.0984388468,
				"y": 0.4991708729,
				"z": 0.9868686389,
				"element": "C" 
			},
			{
				"x": -2.5305727204,
				"y": -0.5669470797,
				"z": 0.8619784503,
				"element": "O" 
			},
			{
				"x": -3.4014841973,
				"y": 1.3081251381,
				"z": -0.0516022736,
				"element": "O" 
			},
			{
				"x": -3.0288332932,
				"y": 0.8288598424,
				"z": -1.3652844611,
				"element": "C" 
			},
			{
				"x": -3.4812049772,
				"y": 1.8623454249,
				"z": -2.3859278755,
				"element": "C" 
			},
			{
				"x": -2.7875579091,
				"y": 3.2199053325,
				"z": -2.2354196262,
				"element": "C" 
			},
			{
				"x": 0.2930416904,
				"y": -5.7815442294,
				"z": -1.5635322299,
				"element": "H" 
			},
			{
				"x": 1.3652619128,
				"y": -5.058924256,
				"z": -0.357440204,
				"element": "H" 
			},
			{
				"x": 1.5598212711,
				"y": -4.6619253196,
				"z": -2.0695127901,
				"element": "H" 
			},
			{
				"x": -0.9308157227,
				"y": -3.9809327958,
				"z": -0.3879832802,
				"element": "H" 
			},
			{
				"x": -0.6952001205,
				"y": -3.5349699478,
				"z": -2.066773563,
				"element": "H" 
			},
			{
				"x": -0.3624924707,
				"y": -1.6612269867,
				"z": -0.4852821482,
				"element": "H" 
			},
			{
				"x": 0.9449041376,
				"y": -2.5084400167,
				"z": 0.3050509478,
				"element": "H" 
			},
			{
				"x": 1.34467377,
				"y": -0.654058679,
				"z": -1.6943307827,
				"element": "H" 
			},
			{
				"x": 1.1854401045,
				"y": -2.0820280825,
				"z": -2.6816940756,
				"element": "H" 
			},
			{
				"x": 3.466050222,
				"y": -2.0759624902,
				"z": -2.4145132128,
				"element": "H" 
			},
			{
				"x": 3.0578733831,
				"y": -3.0872410908,
				"z": -1.0468704524,
				"element": "H" 
			},
			{
				"x": 3.716989526,
				"y": -0.0956249373,
				"z": -0.964223866,
				"element": "H" 
			},
			{
				"x": 4.8097202266,
				"y": -1.4094102086,
				"z": -0.5981940184,
				"element": "H" 
			},
			{
				"x": 4.24778481,
				"y": -0.8182262421,
				"z": 1.5566999896,
				"element": "H" 
			},
			{
				"x": 3.0384931189,
				"y": -2.0489838584,
				"z": 1.2789769188,
				"element": "H" 
			},
			{
				"x": 1.8213657127,
				"y": -0.2883695684,
				"z": 2.2761210647,
				"element": "H" 
			},
			{
				"x": 1.4526926594,
				"y": -0.0668099384,
				"z": 0.5792919294,
				"element": "H" 
			},
			{
				"x": 3.4293637582,
				"y": 1.6224575758,
				"z": 0.5117624118,
				"element": "H" 
			},
			{
				"x": 3.4737837563,
				"y": 1.4978936344,
				"z": 2.2582377338,
				"element": "H" 
			},
			{
				"x": 1.1592937486,
				"y": 2.5553325015,
				"z": 0.5462790158,
				"element": "H" 
			},
			{
				"x": 2.2839728471,
				"y": 3.4958968074,
				"z": 1.502838415,
				"element": "H" 
			},
			{
				"x": 1.3099991807,
				"y": 2.0993667451,
				"z": 3.5611758055,
				"element": "H" 
			},
			{
				"x": 0.474118231,
				"y": 3.506128995,
				"z": 2.9365415553,
				"element": "H" 
			},
			{
				"x": -0.2392297937,
				"y": 0.6175914542,
				"z": 2.199969949,
				"element": "H" 
			},
			{
				"x": -1.0013249001,
				"y": 2.054968458,
				"z": 1.5518321743,
				"element": "H" 
			},
			{
				"x": -1.7970027479,
				"y": 2.7035790642,
				"z": 3.8122026727,
				"element": "H" 
			},
			{
				"x": -0.9114627803,
				"y": 1.3755839442,
				"z": 4.5401955909,
				"element": "H" 
			},
			{
				"x": -3.2802057264,
				"y": 0.8263621504,
				"z": 4.4146641568,
				"element": "H" 
			},
			{
				"x": -2.3633428989,
				"y": -0.2905309763,
				"z": 3.4104379528,
				"element": "H" 
			},
			{
				"x": -4.585710185,
				"y": 0.6193084212,
				"z": 2.4650079273,
				"element": "H" 
			},
			{
				"x": -3.764836967,
				"y": 2.1476564079,
				"z": 2.188353953,
				"element": "H" 
			},
			{
				"x": -1.9434384898,
				"y": 0.6811885799,
				"z": -1.3907933643,
				"element": "H" 
			},
			{
				"x": -3.4998101716,
				"y": -0.1449082273,
				"z": -1.5325046781,
				"element": "H" 
			},
			{
				"x": -4.5684981394,
				"y": 1.9832121945,
				"z": -2.3080333462,
				"element": "H" 
			},
			{
				"x": -3.2837216871,
				"y": 1.4467112239,
				"z": -3.3822065339,
				"element": "H" 
			},
			{
				"x": -3.1427881691,
				"y": 3.9287595306,
				"z": -2.989640533,
				"element": "H" 
			},
			{
				"x": -1.7020410318,
				"y": 3.123500348,
				"z": -2.3523297018,
				"element": "H" 
			},
			{
				"x": -2.9811929759,
				"y": 3.6494172822,
				"z": -1.2485707411,
				"element": "H" 
			}
		],
		 "valence_orbital": [ 
			{
				"type": "occ",
				"energy": -0.29738,
				"method": "rhf"
			},
			{
				"type": "occ",
				"energy": -0.29512,
				"method": "rhf"
			},
			{
				"type": "occ",
				"energy": -0.29048,
				"method": "rhf"
			},
			{
				"type": "occ",
				"energy": -0.2863,
				"method": "rhf"
			},
			{
				"type": "occ",
				"energy": -0.26753,
				"method": "rhf"
			},
			{
				"type": "unocc",
				"energy": 0.01421,
				"method": "rhf"
			},
			{
				"type": "unocc",
				"energy": 0.07008,
				"method": "rhf"
			},
			{
				"type": "unocc",
				"energy": 0.0903,
				"method": "rhf"
			},
			{
				"type": "unocc",
				"energy": 0.09126,
				"method": "rhf"
			},
			{
				"type": "unocc",
				"energy": 0.09725,
				"method": "rhf"
			}
		],
		"cosmo_sigma_profile": { 
			"-0.025": 0.0,
			"-0.024": 0.0,
			"-0.023": 0.0,
			"-0.022": 0.0,
			"-0.021": 0.0,
			"-0.02": 0.0,
			"-0.019": 0.0,
			"-0.018": 0.0,
			"-0.017": 0.0,
			"-0.016": 0.0,
			"-0.015": 0.0,
			"-0.014": 0.0,
			"-0.013": 0.0,
			"-0.012": 0.0,
			"-0.011": 0.0,
			"-0.01": 0.0,
			"-0.009": 0.0,
			"-0.008": 0.0,
			"-0.007": 0.176027791589,
			"-0.006": 2.50980526467,
			"-0.005": 4.50923442118,
			"-0.004": 13.0669974327,
			"-0.003": 24.0467632028,
			"-0.002": 53.7521757328,
			"-0.001": 93.1637590267,
			"0.0": 97.832205557,
			"0.001": 71.6104697013,
			"0.002": 34.3065012198,
			"0.003": 7.04907366831,
			"0.004": 5.53685705633,
			"0.005": 5.44197519289,
			"0.006": 5.18089120242,
			"0.007": 2.91798617899,
			"0.008": 2.98483578161,
			"0.009": 2.2223224188,
			"0.01": 1.31550767698,
			"0.011": 2.27547791039,
			"0.012": 1.55787558831,
			"0.013": 0.448329890431,
			"0.014": 0.0,
			"0.015": 0.0,
			"0.016": 0.0,
			"0.017": 0.0,
			"0.018": 0.0,
			"0.019": 0.0,
			"0.02": 0.0,
			"0.021": 0.0,
			"0.022": 0.0,
			"0.023": 0.0,
			"0.024": 0.0,
			"0.025": 0.0
		}
	}
}
