{
	 "smiles": "OCC1=CC(F)=C(O)C=C1", 
	 "Tm": 355.15, 
	 "num_atms": 17, 
	 "gaussian": { 
		 "optdone": 1, 
		 "sigma_profile": "yes", 
		 "theory": "DFT", 
		 "functional": "B3LYP", 
		 "basiset": "6-31G**", 
		 "properties": { 
			 "R2extent": 2144.9934, 
			 "electric_dipole_moment_norm": 0.9982143908, 
			 "electric_quadrupole_moment_norm": 8.96836760788, 
			 "total_energy": -521.229736789, 
			 "HOMO_LUMO_gap": 0.21515, 
			 "cosmo_polarized_energy": -9.48, 
			 "cosmo_cavitation_energy": 21.46, 
			 "cosmo_dispersion_energy": -15.98, 
			 "cosmo_repulsion_energy": 1.29, 
			 "cosmo_total_nonelectrostatic_energy": 6.77, 
			 "SMD_solvation_energy": 4.56 
		},
		"coords": [
			{
				"x": -1.4975393683,
				"y": 1.0335197637,
				"z": -2.3559435092,
				"element": "O" 
			},
			{
				"x": -2.4669125719,
				"y": 0.4073267304,
				"z": -1.5265093379,
				"element": "C" 
			},
			{
				"x": -1.869902957,
				"y": -0.3059593698,
				"z": -0.3292062358,
				"element": "C" 
			},
			{
				"x": -0.6156348813,
				"y": -0.9239632851,
				"z": -0.4392465129,
				"element": "C" 
			},
			{
				"x": -0.1001180709,
				"y": -1.5956628726,
				"z": 0.6523709927,
				"element": "C" 
			},
			{
				"x": 1.1178271321,
				"y": -2.204700659,
				"z": 0.5869450182,
				"element": "F" 
			},
			{
				"x": -0.7784338278,
				"y": -1.6916558398,
				"z": 1.8717994701,
				"element": "C" 
			},
			{
				"x": -0.2393714739,
				"y": -2.3592125096,
				"z": 2.9280303726,
				"element": "O" 
			},
			{
				"x": -2.0245450928,
				"y": -1.0741709829,
				"z": 1.9799157292,
				"element": "C" 
			},
			{
				"x": -2.5560447577,
				"y": -0.3854615338,
				"z": 0.8878659443,
				"element": "C" 
			},
			{
				"x": -1.006953762,
				"y": 1.658980825,
				"z": -1.8056784803,
				"element": "H" 
			},
			{
				"x": -3.2316411963,
				"y": 1.1218676394,
				"z": -1.1832305667,
				"element": "H" 
			},
			{
				"x": -2.9765441832,
				"y": -0.3097889249,
				"z": -2.1814440845,
				"element": "H" 
			},
			{
				"x": -0.0505740295,
				"y": -0.8725233124,
				"z": -1.3635714221,
				"element": "H" 
			},
			{
				"x": 0.6197029207,
				"y": -2.7072273903,
				"z": 2.6473337028,
				"element": "H" 
			},
			{
				"x": -2.554852302,
				"y": -1.1340125914,
				"z": 2.9245613991,
				"element": "H" 
			},
			{
				"x": -3.5236615782,
				"y": 0.0993443131,
				"z": 0.9894075202,
				"element": "H" 
			}
		],
		 "valence_orbital": [ 
			{
				"type": "occ",
				"energy": -0.3391,
				"method": "rhf"
			},
			{
				"type": "occ",
				"energy": -0.32814,
				"method": "rhf"
			},
			{
				"type": "occ",
				"energy": -0.27913,
				"method": "rhf"
			},
			{
				"type": "occ",
				"energy": -0.25442,
				"method": "rhf"
			},
			{
				"type": "occ",
				"energy": -0.22326,
				"method": "rhf"
			},
			{
				"type": "unocc",
				"energy": -0.00811,
				"method": "rhf"
			},
			{
				"type": "unocc",
				"energy": 0.00206,
				"method": "rhf"
			},
			{
				"type": "unocc",
				"energy": 0.06873,
				"method": "rhf"
			},
			{
				"type": "unocc",
				"energy": 0.085,
				"method": "rhf"
			},
			{
				"type": "unocc",
				"energy": 0.1088,
				"method": "rhf"
			}
		],
		"cosmo_sigma_profile": { 
			"-0.025": 0.0,
			"-0.024": 0.0,
			"-0.023": 0.0,
			"-0.022": 0.0,
			"-0.021": 0.0,
			"-0.02": 0.0,
			"-0.019": 0.0,
			"-0.018": 0.0,
			"-0.017": 0.0329103819668,
			"-0.016": 0.612565891856,
			"-0.015": 1.89096387843,
			"-0.014": 1.65939017682,
			"-0.013": 1.60025207745,
			"-0.012": 1.19017617289,
			"-0.011": 1.3740819691,
			"-0.01": 1.84600026182,
			"-0.009": 1.55864088538,
			"-0.008": 1.88293432421,
			"-0.007": 2.57443382176,
			"-0.006": 7.00636772201,
			"-0.005": 11.1027462177,
			"-0.004": 12.0864862317,
			"-0.003": 10.3124944962,
			"-0.002": 11.3778718005,
			"-0.001": 8.42711196774,
			"0.0": 10.8999255074,
			"0.001": 11.6373380352,
			"0.002": 11.8298797098,
			"0.003": 15.7275080345,
			"0.004": 15.3820685481,
			"0.005": 7.64104747689,
			"0.006": 2.35497504247,
			"0.007": 2.63470309399,
			"0.008": 2.2367113624,
			"0.009": 2.62805367051,
			"0.01": 3.12950358981,
			"0.011": 2.75817719049,
			"0.012": 1.33092457401,
			"0.013": 1.71263959633,
			"0.014": 1.91522562714,
			"0.015": 0.0236370934687,
			"0.016": 0.0,
			"0.017": 0.0,
			"0.018": 0.0,
			"0.019": 0.0,
			"0.02": 0.0,
			"0.021": 0.0,
			"0.022": 0.0,
			"0.023": 0.0,
			"0.024": 0.0,
			"0.025": 0.0
		}
	}
}
