{
	 "smiles": "OC(=O)C1=C(OC(=N1)C1=CC=CC=C1)C1=CC=CC=C1", 
	 "Tm": 467.15, 
	 "num_atms": 31, 
	 "gaussian": { 
		 "optdone": 1, 
		 "sigma_profile": "yes", 
		 "theory": "DFT", 
		 "functional": "B3LYP", 
		 "basiset": "6-31G**", 
		 "properties": { 
			 "R2extent": 7077.5654, 
			 "electric_dipole_moment_norm": 5.5628467838, 
			 "electric_quadrupole_moment_norm": 17.6698953395, 
			 "total_energy": -896.777871332, 
			 "HOMO_LUMO_gap": 0.15282, 
			 "cosmo_polarized_energy": -11.6, 
			 "cosmo_cavitation_energy": 36.28, 
			 "cosmo_dispersion_energy": -26.59, 
			 "cosmo_repulsion_energy": 1.99, 
			 "cosmo_total_nonelectrostatic_energy": 11.68, 
			 "SMD_solvation_energy": 6.59 
		},
		"coords": [
			{
				"x": -0.5277299976,
				"y": -3.197743899,
				"z": -1.8096642072,
				"element": "O" 
			},
			{
				"x": -0.9420919347,
				"y": -1.9308091559,
				"z": -2.0003255941,
				"element": "C" 
			},
			{
				"x": -1.9060835495,
				"y": -1.6802732584,
				"z": -2.6941637857,
				"element": "O" 
			},
			{
				"x": -0.1026881587,
				"y": -0.9365401164,
				"z": -1.2835804276,
				"element": "C" 
			},
			{
				"x": -0.1353857645,
				"y": 0.4426022465,
				"z": -1.1805752652,
				"element": "C" 
			},
			{
				"x": 0.9209568625,
				"y": 0.7769086716,
				"z": -0.363340856,
				"element": "O" 
			},
			{
				"x": 1.537088982,
				"y": -0.3866262106,
				"z": -0.0121223466,
				"element": "C" 
			},
			{
				"x": 0.9603337157,
				"y": -1.4274909846,
				"z": -0.5376118858,
				"element": "N" 
			},
			{
				"x": 2.7028409393,
				"y": -0.3307404438,
				"z": 0.8613987543,
				"element": "C" 
			},
			{
				"x": 3.1931896662,
				"y": 0.8946556076,
				"z": 1.3406832446,
				"element": "C" 
			},
			{
				"x": 4.3088741861,
				"y": 0.9193887734,
				"z": 2.1744574197,
				"element": "C" 
			},
			{
				"x": 4.9434024625,
				"y": -0.2708104188,
				"z": 2.536727453,
				"element": "C" 
			},
			{
				"x": 4.4573536095,
				"y": -1.4922593136,
				"z": 2.0609386071,
				"element": "C" 
			},
			{
				"x": 3.3437083008,
				"y": -1.5264636448,
				"z": 1.2278134013,
				"element": "C" 
			},
			{
				"x": -0.9362362772,
				"y": 1.557307843,
				"z": -1.6739293251,
				"element": "C" 
			},
			{
				"x": -2.0462152906,
				"y": 1.3530299049,
				"z": -2.5154763366,
				"element": "C" 
			},
			{
				"x": -2.7868288858,
				"y": 2.4434969856,
				"z": -2.9659354987,
				"element": "C" 
			},
			{
				"x": -2.4418784254,
				"y": 3.7435834205,
				"z": -2.5925425579,
				"element": "C" 
			},
			{
				"x": -1.3412608676,
				"y": 3.9529308704,
				"z": -1.7575976692,
				"element": "C" 
			},
			{
				"x": -0.5931843418,
				"y": 2.8732091896,
				"z": -1.3005658586,
				"element": "C" 
			},
			{
				"x": 0.2540362467,
				"y": -3.1656538878,
				"z": -1.2248759262,
				"element": "H" 
			},
			{
				"x": 2.7000080393,
				"y": 1.8185784708,
				"z": 1.0590991717,
				"element": "H" 
			},
			{
				"x": 4.6834178725,
				"y": 1.8700171113,
				"z": 2.5419648622,
				"element": "H" 
			},
			{
				"x": 5.8128786037,
				"y": -0.2474985375,
				"z": 3.1869017442,
				"element": "H" 
			},
			{
				"x": 4.948149458,
				"y": -2.4196136801,
				"z": 2.3405102983,
				"element": "H" 
			},
			{
				"x": 2.9584374116,
				"y": -2.4685852261,
				"z": 0.8531552134,
				"element": "H" 
			},
			{
				"x": -2.3140124819,
				"y": 0.3439280411,
				"z": -2.805517121,
				"element": "H" 
			},
			{
				"x": -3.6407969874,
				"y": 2.2722236447,
				"z": -3.6146126356,
				"element": "H" 
			},
			{
				"x": -3.0248278837,
				"y": 4.5881495018,
				"z": -2.9483819976,
				"element": "H" 
			},
			{
				"x": -1.0643490678,
				"y": 4.9603967213,
				"z": -1.4612085414,
				"element": "H" 
			},
			{
				"x": 0.2591935579,
				"y": 3.0433017733,
				"z": -0.6532223338,
				"element": "H" 
			}
		],
		 "valence_orbital": [ 
			{
				"type": "occ",
				"energy": -0.27233,
				"method": "rhf"
			},
			{
				"type": "occ",
				"energy": -0.27222,
				"method": "rhf"
			},
			{
				"type": "occ",
				"energy": -0.27005,
				"method": "rhf"
			},
			{
				"type": "occ",
				"energy": -0.25811,
				"method": "rhf"
			},
			{
				"type": "occ",
				"energy": -0.22346,
				"method": "rhf"
			},
			{
				"type": "unocc",
				"energy": -0.07064,
				"method": "rhf"
			},
			{
				"type": "unocc",
				"energy": -0.04903,
				"method": "rhf"
			},
			{
				"type": "unocc",
				"energy": -0.01867,
				"method": "rhf"
			},
			{
				"type": "unocc",
				"energy": -0.007,
				"method": "rhf"
			},
			{
				"type": "unocc",
				"energy": 0.01651,
				"method": "rhf"
			}
		],
		"cosmo_sigma_profile": { 
			"-0.025": 0.0,
			"-0.024": 0.0,
			"-0.023": 0.0,
			"-0.022": 0.0,
			"-0.021": 0.0,
			"-0.02": 0.0,
			"-0.019": 0.0,
			"-0.018": 0.0,
			"-0.017": 0.0,
			"-0.016": 0.0,
			"-0.015": 0.0,
			"-0.014": 0.0,
			"-0.013": 0.223169403198,
			"-0.012": 0.690645187542,
			"-0.011": 0.450654650106,
			"-0.01": 0.972085821238,
			"-0.009": 0.553177117768,
			"-0.008": 0.348727829582,
			"-0.007": 3.80724166204,
			"-0.006": 17.729176864,
			"-0.005": 22.3341145124,
			"-0.004": 24.1155184938,
			"-0.003": 20.3230414466,
			"-0.002": 23.3405021962,
			"-0.001": 23.794968581,
			"0.0": 24.2773885953,
			"0.001": 25.4586694467,
			"0.002": 23.1446029609,
			"0.003": 25.4598037374,
			"0.004": 25.5874544051,
			"0.005": 6.90731038879,
			"0.006": 2.6035960371,
			"0.007": 2.93711139173,
			"0.008": 2.59726548188,
			"0.009": 3.77142851423,
			"0.01": 5.09470343351,
			"0.011": 3.19405855573,
			"0.012": 2.62526917349,
			"0.013": 1.12998016248,
			"0.014": 0.00937516425037,
			"0.015": 0.0,
			"0.016": 0.0,
			"0.017": 0.0,
			"0.018": 0.0,
			"0.019": 0.0,
			"0.02": 0.0,
			"0.021": 0.0,
			"0.022": 0.0,
			"0.023": 0.0,
			"0.024": 0.0,
			"0.025": 0.0
		}
	}
}
