{
	 "smiles": "CC(C)(C)OC(=O)N1CCC2=C(C1)C=C(N)C=N2", 
	 "Tm": 390.15, 
	 "num_atms": 37, 
	 "gaussian": { 
		 "optdone": 1, 
		 "sigma_profile": "yes", 
		 "theory": "DFT", 
		 "functional": "B3LYP", 
		 "basiset": "6-31G**", 
		 "properties": { 
			 "R2extent": 6682.8569, 
			 "electric_dipole_moment_norm": 1.15864767725, 
			 "electric_quadrupole_moment_norm": 23.7239007693, 
			 "total_energy": -821.580461493, 
			 "HOMO_LUMO_gap": 0.18992, 
			 "cosmo_polarized_energy": -15.36, 
			 "cosmo_cavitation_energy": 38.32, 
			 "cosmo_dispersion_energy": -27.19, 
			 "cosmo_repulsion_energy": 2.11, 
			 "cosmo_total_nonelectrostatic_energy": 13.24, 
			 "SMD_solvation_energy": 5.16 
		},
		"coords": [
			{
				"x": 1.2876236504,
				"y": -0.8574605068,
				"z": -3.7530715136,
				"element": "C" 
			},
			{
				"x": 0.2188591448,
				"y": -1.335832675,
				"z": -2.7643219866,
				"element": "C" 
			},
			{
				"x": 0.2335726428,
				"y": -2.8626754301,
				"z": -2.6480498983,
				"element": "C" 
			},
			{
				"x": -1.1814367797,
				"y": -0.8343955887,
				"z": -3.1338298403,
				"element": "C" 
			},
			{
				"x": 0.5643999304,
				"y": -0.9102657599,
				"z": -1.3996563797,
				"element": "O" 
			},
			{
				"x": 0.6654559638,
				"y": 0.405185832,
				"z": -1.0862748635,
				"element": "C" 
			},
			{
				"x": 0.4707652676,
				"y": 1.3340188303,
				"z": -1.8603481607,
				"element": "O" 
			},
			{
				"x": 1.0252815476,
				"y": 0.5749077699,
				"z": 0.2258024617,
				"element": "N" 
			},
			{
				"x": 1.2128111758,
				"y": -0.5000432651,
				"z": 1.1980356706,
				"element": "C" 
			},
			{
				"x": 0.102319508,
				"y": -0.4486368307,
				"z": 2.2523006202,
				"element": "C" 
			},
			{
				"x": -0.0700772432,
				"y": 0.9516393854,
				"z": 2.8010146228,
				"element": "C" 
			},
			{
				"x": 0.3956173495,
				"y": 2.0688612208,
				"z": 2.0896147757,
				"element": "C" 
			},
			{
				"x": 1.1129865326,
				"y": 1.9265765841,
				"z": 0.7590310772,
				"element": "C" 
			},
			{
				"x": 0.2080483373,
				"y": 3.3365649666,
				"z": 2.6417412409,
				"element": "C" 
			},
			{
				"x": -0.4396579955,
				"y": 3.4743631067,
				"z": 3.8738440047,
				"element": "C" 
			},
			{
				"x": -0.6047409953,
				"y": 4.71393866,
				"z": 4.4906651673,
				"element": "N" 
			},
			{
				"x": -0.8707488663,
				"y": 2.2879608918,
				"z": 4.4980577634,
				"element": "C" 
			},
			{
				"x": -0.6928219499,
				"y": 1.0749416828,
				"z": 3.9841690514,
				"element": "N" 
			},
			{
				"x": 1.0847685945,
				"y": -1.2765448074,
				"z": -4.7441060573,
				"element": "H" 
			},
			{
				"x": 1.2946407816,
				"y": 0.2302267988,
				"z": -3.8234346533,
				"element": "H" 
			},
			{
				"x": 2.2779665665,
				"y": -1.2000359732,
				"z": -3.4362441825,
				"element": "H" 
			},
			{
				"x": 1.2224822483,
				"y": -3.217948423,
				"z": -2.3434821717,
				"element": "H" 
			},
			{
				"x": -0.4980094076,
				"y": -3.2009492709,
				"z": -1.9083380249,
				"element": "H" 
			},
			{
				"x": -0.0147954118,
				"y": -3.3155054975,
				"z": -3.6125317643,
				"element": "H" 
			},
			{
				"x": -1.2013232247,
				"y": 0.2535697094,
				"z": -3.1961370261,
				"element": "H" 
			},
			{
				"x": -1.4777750514,
				"y": -1.2521119179,
				"z": -4.1016566103,
				"element": "H" 
			},
			{
				"x": -1.9107770561,
				"y": -1.1611916614,
				"z": -2.3856772097,
				"element": "H" 
			},
			{
				"x": 1.2268001271,
				"y": -1.453627041,
				"z": 0.6754419828,
				"element": "H" 
			},
			{
				"x": 2.1919699089,
				"y": -0.3622360022,
				"z": 1.6786244737,
				"element": "H" 
			},
			{
				"x": 0.318694131,
				"y": -1.1332991905,
				"z": 3.0792255925,
				"element": "H" 
			},
			{
				"x": -0.8390970239,
				"y": -0.7879801884,
				"z": 1.7992285692,
				"element": "H" 
			},
			{
				"x": 2.1705891729,
				"y": 2.2092368494,
				"z": 0.8883105674,
				"element": "H" 
			},
			{
				"x": 0.6921827746,
				"y": 2.6018064521,
				"z": 0.0114300042,
				"element": "H" 
			},
			{
				"x": 0.5641166181,
				"y": 4.2192304405,
				"z": 2.1127559865,
				"element": "H" 
			},
			{
				"x": -0.6224073946,
				"y": 5.5081818667,
				"z": 3.8655941874,
				"element": "H" 
			},
			{
				"x": -1.3509918651,
				"y": 4.7559585437,
				"z": 5.171540413,
				"element": "H" 
			},
			{
				"x": -1.3784917088,
				"y": 2.3403704384,
				"z": 5.4621321102,
				"element": "H" 
			}
		],
		 "valence_orbital": [ 
			{
				"type": "occ",
				"energy": -0.26472,
				"method": "rhf"
			},
			{
				"type": "occ",
				"energy": -0.25603,
				"method": "rhf"
			},
			{
				"type": "occ",
				"energy": -0.24454,
				"method": "rhf"
			},
			{
				"type": "occ",
				"energy": -0.23329,
				"method": "rhf"
			},
			{
				"type": "occ",
				"energy": -0.20739,
				"method": "rhf"
			},
			{
				"type": "unocc",
				"energy": -0.01747,
				"method": "rhf"
			},
			{
				"type": "unocc",
				"energy": 0.01097,
				"method": "rhf"
			},
			{
				"type": "unocc",
				"energy": 0.05951,
				"method": "rhf"
			},
			{
				"type": "unocc",
				"energy": 0.07523,
				"method": "rhf"
			},
			{
				"type": "unocc",
				"energy": 0.08595,
				"method": "rhf"
			}
		],
		"cosmo_sigma_profile": { 
			"-0.025": 0.0,
			"-0.024": 0.0,
			"-0.023": 0.0,
			"-0.022": 0.0,
			"-0.021": 0.0,
			"-0.02": 0.0,
			"-0.019": 0.0,
			"-0.018": 0.0,
			"-0.017": 0.0,
			"-0.016": 0.0,
			"-0.015": 0.0,
			"-0.014": 0.0,
			"-0.013": 0.657228923294,
			"-0.012": 3.08395204369,
			"-0.011": 2.65532970696,
			"-0.01": 3.76434092831,
			"-0.009": 3.23470183652,
			"-0.008": 3.01800454029,
			"-0.007": 3.71954226054,
			"-0.006": 5.95346062476,
			"-0.005": 10.5140540091,
			"-0.004": 26.6891790468,
			"-0.003": 30.1247887666,
			"-0.002": 27.7436309496,
			"-0.001": 29.2313751224,
			"0.0": 32.3327314658,
			"0.001": 30.1131362828,
			"0.002": 13.5972992178,
			"0.003": 14.0671187717,
			"0.004": 15.0100976609,
			"0.005": 8.12584528616,
			"0.006": 5.98393239089,
			"0.007": 4.56661251409,
			"0.008": 3.38848121651,
			"0.009": 3.27528023342,
			"0.01": 3.5105037577,
			"0.011": 3.50520048038,
			"0.012": 3.13257281581,
			"0.013": 4.02153986689,
			"0.014": 2.76956948045,
			"0.015": 1.02154961609,
			"0.016": 0.597668203524,
			"0.017": 0.525699808101,
			"0.018": 0.0232276322646,
			"0.019": 0.0,
			"0.02": 0.0,
			"0.021": 0.0,
			"0.022": 0.0,
			"0.023": 0.0,
			"0.024": 0.0,
			"0.025": 0.0
		}
	}
}
