{
	 "smiles": "CN1CCN(CC1)S(=O)(=O)C1=CC(N)=CC=C1", 
	 "Tm": 414.15, 
	 "num_atms": 34, 
	 "gaussian": { 
		 "optdone": 1, 
		 "sigma_profile": "yes", 
		 "theory": "DFT", 
		 "functional": "B3LYP", 
		 "basiset": "6-31G**", 
		 "properties": { 
			 "R2extent": 4637.3262, 
			 "electric_dipole_moment_norm": 7.05044266695, 
			 "electric_quadrupole_moment_norm": 24.7288089956, 
			 "total_energy": -1142.22776132, 
			 "HOMO_LUMO_gap": 0.18711, 
			 "cosmo_polarized_energy": -19.19, 
			 "cosmo_cavitation_energy": 36.18, 
			 "cosmo_dispersion_energy": -25.72, 
			 "cosmo_repulsion_energy": 1.96, 
			 "cosmo_total_nonelectrostatic_energy": 12.42, 
			 "SMD_solvation_energy": 1.68 
		},
		"coords": [
			{
				"x": 3.1541167334,
				"y": -1.6418258848,
				"z": -0.4559586302,
				"element": "C" 
			},
			{
				"x": 1.796105883,
				"y": -2.1617387937,
				"z": -0.4046013093,
				"element": "N" 
			},
			{
				"x": 1.1176003656,
				"y": -1.7881492006,
				"z": 0.8367016535,
				"element": "C" 
			},
			{
				"x": -0.2598919714,
				"y": -2.4528648765,
				"z": 0.9125466624,
				"element": "C" 
			},
			{
				"x": -1.0646772147,
				"y": -2.1662716828,
				"z": -0.2795630128,
				"element": "N" 
			},
			{
				"x": -0.3674523121,
				"y": -2.4137028984,
				"z": -1.5464973481,
				"element": "C" 
			},
			{
				"x": 1.0121768556,
				"y": -1.7499771494,
				"z": -1.5702915016,
				"element": "C" 
			},
			{
				"x": -2.3795755177,
				"y": -1.1329809719,
				"z": -0.2041482028,
				"element": "S" 
			},
			{
				"x": -3.1077488759,
				"y": -1.3178119222,
				"z": -1.4620059384,
				"element": "O" 
			},
			{
				"x": -2.9982847852,
				"y": -1.3674062538,
				"z": 1.1041435127,
				"element": "O" 
			},
			{
				"x": -1.775458026,
				"y": 0.5665160425,
				"z": -0.1979229472,
				"element": "C" 
			},
			{
				"x": -1.5444178439,
				"y": 1.1877948168,
				"z": 1.0273744603,
				"element": "C" 
			},
			{
				"x": -1.0340349749,
				"y": 2.4976999742,
				"z": 1.0585633484,
				"element": "C" 
			},
			{
				"x": -0.8606572809,
				"y": 3.1600506838,
				"z": 2.2680099969,
				"element": "N" 
			},
			{
				"x": -0.7644161632,
				"y": 3.1438684434,
				"z": -0.1626601573,
				"element": "C" 
			},
			{
				"x": -1.0164596079,
				"y": 2.5068406017,
				"z": -1.3747819434,
				"element": "C" 
			},
			{
				"x": -1.5281821543,
				"y": 1.2084308884,
				"z": -1.4134417111,
				"element": "C" 
			},
			{
				"x": 3.2014286809,
				"y": -0.5356916126,
				"z": -0.4406894937,
				"element": "H" 
			},
			{
				"x": 3.647862956,
				"y": -1.9876368662,
				"z": -1.3699991123,
				"element": "H" 
			},
			{
				"x": 3.7258662997,
				"y": -2.0160275131,
				"z": 0.3996817386,
				"element": "H" 
			},
			{
				"x": 1.0048495552,
				"y": -0.6896156081,
				"z": 0.9286787516,
				"element": "H" 
			},
			{
				"x": 1.7258624041,
				"y": -2.1283683055,
				"z": 1.6833534303,
				"element": "H" 
			},
			{
				"x": -0.8122668739,
				"y": -2.1370248828,
				"z": 1.7984364751,
				"element": "H" 
			},
			{
				"x": -0.1306008057,
				"y": -3.5414778011,
				"z": 0.9681276486,
				"element": "H" 
			},
			{
				"x": -0.2456515264,
				"y": -3.4999275233,
				"z": -1.6471655102,
				"element": "H" 
			},
			{
				"x": -0.9947374901,
				"y": -2.0706099977,
				"z": -2.3701343465,
				"element": "H" 
			},
			{
				"x": 0.8941091854,
				"y": -0.6497189246,
				"z": -1.6177844024,
				"element": "H" 
			},
			{
				"x": 1.5436486819,
				"y": -2.063239981,
				"z": -2.4767375676,
				"element": "H" 
			},
			{
				"x": -1.7953689572,
				"y": 0.6696433308,
				"z": 1.9473054304,
				"element": "H" 
			},
			{
				"x": -0.2120561564,
				"y": 3.9337854157,
				"z": 2.2642268113,
				"element": "H" 
			},
			{
				"x": -0.7739732414,
				"y": 2.5772947408,
				"z": 3.0879090286,
				"element": "H" 
			},
			{
				"x": -0.3743590298,
				"y": 4.1585157391,
				"z": -0.1535751733,
				"element": "H" 
			},
			{
				"x": -0.8179699878,
				"y": 3.0342973598,
				"z": -2.303348819,
				"element": "H" 
			},
			{
				"x": -1.7592868043,
				"y": 0.7170306134,
				"z": -2.3507518215,
				"element": "H" 
			}
		],
		 "valence_orbital": [ 
			{
				"type": "occ",
				"energy": -0.29215,
				"method": "rhf"
			},
			{
				"type": "occ",
				"energy": -0.2713,
				"method": "rhf"
			},
			{
				"type": "occ",
				"energy": -0.24378,
				"method": "rhf"
			},
			{
				"type": "occ",
				"energy": -0.22099,
				"method": "rhf"
			},
			{
				"type": "occ",
				"energy": -0.21586,
				"method": "rhf"
			},
			{
				"type": "unocc",
				"energy": -0.02875,
				"method": "rhf"
			},
			{
				"type": "unocc",
				"energy": -0.00272,
				"method": "rhf"
			},
			{
				"type": "unocc",
				"energy": 0.06074,
				"method": "rhf"
			},
			{
				"type": "unocc",
				"energy": 0.06896,
				"method": "rhf"
			},
			{
				"type": "unocc",
				"energy": 0.08181,
				"method": "rhf"
			}
		],
		"cosmo_sigma_profile": { 
			"-0.025": 0.0,
			"-0.024": 0.0,
			"-0.023": 0.0,
			"-0.022": 0.0,
			"-0.021": 0.0,
			"-0.02": 0.0,
			"-0.019": 0.0,
			"-0.018": 0.0,
			"-0.017": 0.0,
			"-0.016": 0.0,
			"-0.015": 0.0,
			"-0.014": 0.0,
			"-0.013": 1.68446754894,
			"-0.012": 2.93036181581,
			"-0.011": 3.15303856659,
			"-0.01": 3.16753470942,
			"-0.009": 3.79369422094,
			"-0.008": 2.97689560585,
			"-0.007": 3.26129517891,
			"-0.006": 7.65909360393,
			"-0.005": 17.2505364078,
			"-0.004": 31.5734204976,
			"-0.003": 23.7423939973,
			"-0.002": 25.7546505455,
			"-0.001": 30.1149789393,
			"0.0": 20.7176784402,
			"0.001": 12.5297785926,
			"0.002": 10.2848784775,
			"0.003": 11.7819530939,
			"0.004": 15.1108854189,
			"0.005": 10.5408203741,
			"0.006": 6.55711203143,
			"0.007": 4.46116719686,
			"0.008": 4.87081748173,
			"0.009": 5.07696778355,
			"0.01": 7.0437628424,
			"0.011": 8.61368627885,
			"0.012": 7.03248989621,
			"0.013": 1.15588895944,
			"0.014": 0.508049478422,
			"0.015": 0.433965758032,
			"0.016": 0.116148240028,
			"0.017": 0.0,
			"0.018": 0.0,
			"0.019": 0.0,
			"0.02": 0.0,
			"0.021": 0.0,
			"0.022": 0.0,
			"0.023": 0.0,
			"0.024": 0.0,
			"0.025": 0.0
		}
	}
}
