{
	 "smiles": "CCOC(=O)CC(=O)C1=CC=C(C=C1)[N+]([O-])=O", 
	 "Tm": 345.15, 
	 "num_atms": 28, 
	 "gaussian": { 
		 "optdone": 1, 
		 "sigma_profile": "yes", 
		 "theory": "DFT", 
		 "functional": "B3LYP", 
		 "basiset": "6-31G**", 
		 "properties": { 
			 "R2extent": 7264.8691, 
			 "electric_dipole_moment_norm": 4.42461162815, 
			 "electric_quadrupole_moment_norm": 24.5990567201, 
			 "total_energy": -856.582701777, 
			 "HOMO_LUMO_gap": 0.1632, 
			 "cosmo_polarized_energy": -13.36, 
			 "cosmo_cavitation_energy": 33.95, 
			 "cosmo_dispersion_energy": -23.94, 
			 "cosmo_repulsion_energy": 1.88, 
			 "cosmo_total_nonelectrostatic_energy": 11.89, 
			 "SMD_solvation_energy": 9.67 
		},
		"coords": [
			{
				"x": -1.1323633318,
				"y": -3.1478312734,
				"z": -1.9926844855,
				"element": "C" 
			},
			{
				"x": -1.2936309991,
				"y": -1.9885701565,
				"z": -1.0223611319,
				"element": "C" 
			},
			{
				"x": -0.1866497316,
				"y": -1.9329558986,
				"z": -0.0823915786,
				"element": "O" 
			},
			{
				"x": 0.9103257053,
				"y": -1.2670000784,
				"z": -0.4763781064,
				"element": "C" 
			},
			{
				"x": 1.0384918261,
				"y": -0.7197640563,
				"z": -1.552808653,
				"element": "O" 
			},
			{
				"x": 1.9669761466,
				"y": -1.2736884843,
				"z": 0.621806169,
				"element": "C" 
			},
			{
				"x": 1.6519381965,
				"y": -0.2955881644,
				"z": 1.7652604871,
				"element": "C" 
			},
			{
				"x": 1.3131129682,
				"y": -0.7250178307,
				"z": 2.8532243126,
				"element": "O" 
			},
			{
				"x": 1.7991147185,
				"y": 1.1812827151,
				"z": 1.5336289512,
				"element": "C" 
			},
			{
				"x": 1.5962236752,
				"y": 2.0312824042,
				"z": 2.6346199524,
				"element": "C" 
			},
			{
				"x": 1.72861536,
				"y": 3.4069280643,
				"z": 2.5006231035,
				"element": "C" 
			},
			{
				"x": 2.0632845244,
				"y": 3.9222384971,
				"z": 1.2480126902,
				"element": "C" 
			},
			{
				"x": 2.2638358269,
				"y": 3.1083626524,
				"z": 0.1366864011,
				"element": "C" 
			},
			{
				"x": 2.132487499,
				"y": 1.7289184576,
				"z": 0.2840778866,
				"element": "C" 
			},
			{
				"x": 2.2074895576,
				"y": 5.3831057988,
				"z": 1.0951923744,
				"element": "N" 
			},
			{
				"x": 2.5064376773,
				"y": 5.8119857359,
				"z": -0.0177782602,
				"element": "O" 
			},
			{
				"x": 2.0196012949,
				"y": 6.079271315,
				"z": 2.0912996391,
				"element": "O" 
			},
			{
				"x": -0.2565374066,
				"y": -2.999956981,
				"z": -2.6292746624,
				"element": "H" 
			},
			{
				"x": -2.015605708,
				"y": -3.2150898775,
				"z": -2.6362523101,
				"element": "H" 
			},
			{
				"x": -1.0266608121,
				"y": -4.0945647535,
				"z": -1.4552149534,
				"element": "H" 
			},
			{
				"x": -1.3530125027,
				"y": -1.0335871589,
				"z": -1.5492872636,
				"element": "H" 
			},
			{
				"x": -2.1740584186,
				"y": -2.1122813356,
				"z": -0.3883799078,
				"element": "H" 
			},
			{
				"x": 2.0094365769,
				"y": -2.2647702663,
				"z": 1.0756569587,
				"element": "H" 
			},
			{
				"x": 2.926740171,
				"y": -1.0307994029,
				"z": 0.1604059652,
				"element": "H" 
			},
			{
				"x": 1.3366310701,
				"y": 1.5857587866,
				"z": 3.5884337121,
				"element": "H" 
			},
			{
				"x": 1.5810239796,
				"y": 4.0823085124,
				"z": 3.3338325766,
				"element": "H" 
			},
			{
				"x": 2.5150045709,
				"y": 3.5575699315,
				"z": -0.8157385283,
				"element": "H" 
			},
			{
				"x": 2.2631475658,
				"y": 1.0918528472,
				"z": -0.5835113385,
				"element": "H" 
			}
		],
		 "valence_orbital": [ 
			{
				"type": "occ",
				"energy": -0.29817,
				"method": "rhf"
			},
			{
				"type": "occ",
				"energy": -0.29609,
				"method": "rhf"
			},
			{
				"type": "occ",
				"energy": -0.29064,
				"method": "rhf"
			},
			{
				"type": "occ",
				"energy": -0.28599,
				"method": "rhf"
			},
			{
				"type": "occ",
				"energy": -0.27183,
				"method": "rhf"
			},
			{
				"type": "unocc",
				"energy": -0.10863,
				"method": "rhf"
			},
			{
				"type": "unocc",
				"energy": -0.05543,
				"method": "rhf"
			},
			{
				"type": "unocc",
				"energy": -0.03526,
				"method": "rhf"
			},
			{
				"type": "unocc",
				"energy": -0.00856,
				"method": "rhf"
			},
			{
				"type": "unocc",
				"energy": 0.02917,
				"method": "rhf"
			}
		],
		"cosmo_sigma_profile": { 
			"-0.025": 0.0,
			"-0.024": 0.0,
			"-0.023": 0.0,
			"-0.022": 0.0,
			"-0.021": 0.0,
			"-0.02": 0.0,
			"-0.019": 0.0,
			"-0.018": 0.0,
			"-0.017": 0.0,
			"-0.016": 0.0,
			"-0.015": 0.0,
			"-0.014": 0.0,
			"-0.013": 0.0,
			"-0.012": 0.0,
			"-0.011": 0.0,
			"-0.01": 0.0,
			"-0.009": 0.476478272277,
			"-0.008": 6.12008809139,
			"-0.007": 10.8407749379,
			"-0.006": 14.9105578816,
			"-0.005": 18.599217808,
			"-0.004": 26.008033194,
			"-0.003": 22.5761631598,
			"-0.002": 21.91197173,
			"-0.001": 25.2654566313,
			"0.0": 27.8062395137,
			"0.001": 13.9644403337,
			"0.002": 7.56839914025,
			"0.003": 7.37604936406,
			"0.004": 7.27952647576,
			"0.005": 7.3649193876,
			"0.006": 8.30443506597,
			"0.007": 13.0177062227,
			"0.008": 10.5120340673,
			"0.009": 7.25477641933,
			"0.01": 7.09610952059,
			"0.011": 5.64030750783,
			"0.012": 0.921199015946,
			"0.013": 0.0,
			"0.014": 0.0,
			"0.015": 0.0,
			"0.016": 0.0,
			"0.017": 0.0,
			"0.018": 0.0,
			"0.019": 0.0,
			"0.02": 0.0,
			"0.021": 0.0,
			"0.022": 0.0,
			"0.023": 0.0,
			"0.024": 0.0,
			"0.025": 0.0
		}
	}
}
