{
	 "smiles": "FC(F)(F)C1CC(=O)NCCN1", 
	 "Tm": 410.15, 
	 "num_atms": 21, 
	 "gaussian": { 
		 "optdone": 1, 
		 "sigma_profile": "yes", 
		 "theory": "DFT", 
		 "functional": "B3LYP", 
		 "basiset": "6-31G**", 
		 "properties": { 
			 "R2extent": 2310.4404, 
			 "electric_dipole_moment_norm": 3.82551143509, 
			 "electric_quadrupole_moment_norm": 12.9974227088, 
			 "total_energy": -718.316359458, 
			 "HOMO_LUMO_gap": 0.25931, 
			 "cosmo_polarized_energy": -14.05, 
			 "cosmo_cavitation_energy": 24.51, 
			 "cosmo_dispersion_energy": -17.84, 
			 "cosmo_repulsion_energy": 1.37, 
			 "cosmo_total_nonelectrostatic_energy": 8.03, 
			 "SMD_solvation_energy": 3.2 
		},
		"coords": [
			{
				"x": -2.3459938069,
				"y": 1.8377865261,
				"z": 1.0163032104,
				"element": "F" 
			},
			{
				"x": -1.0685991582,
				"y": 1.9090573432,
				"z": 1.442669226,
				"element": "C" 
			},
			{
				"x": -0.752994637,
				"y": 3.2093698714,
				"z": 1.5676835579,
				"element": "F" 
			},
			{
				"x": -1.0238089684,
				"y": 1.3608556665,
				"z": 2.6848804325,
				"element": "F" 
			},
			{
				"x": -0.1232190487,
				"y": 1.1790904388,
				"z": 0.4928278172,
				"element": "C" 
			},
			{
				"x": -0.5829710942,
				"y": -0.2768209665,
				"z": 0.2795376293,
				"element": "C" 
			},
			{
				"x": -0.095356284,
				"y": -0.9521996014,
				"z": -1.0041356646,
				"element": "C" 
			},
			{
				"x": -0.7689967033,
				"y": -1.8297465777,
				"z": -1.5295218918,
				"element": "O" 
			},
			{
				"x": 1.0972682438,
				"y": -0.5651305658,
				"z": -1.5620668624,
				"element": "N" 
			},
			{
				"x": 2.1284243684,
				"y": 0.3629408538,
				"z": -1.0977902499,
				"element": "C" 
			},
			{
				"x": 2.2419309956,
				"y": 0.4578509313,
				"z": 0.4230204989,
				"element": "C" 
			},
			{
				"x": 1.239118435,
				"y": 1.3574934761,
				"z": 0.9974224027,
				"element": "N" 
			},
			{
				"x": -0.2170870621,
				"y": 1.7153510693,
				"z": -0.4604517913,
				"element": "H" 
			},
			{
				"x": -0.289956759,
				"y": -0.8935850697,
				"z": 1.1376602581,
				"element": "H" 
			},
			{
				"x": -1.6717945292,
				"y": -0.3263370101,
				"z": 0.2178069022,
				"element": "H" 
			},
			{
				"x": 1.2880865516,
				"y": -1.072823567,
				"z": -2.4161847963,
				"element": "H" 
			},
			{
				"x": 3.0806989679,
				"y": -0.0074817172,
				"z": -1.4893218922,
				"element": "H" 
			},
			{
				"x": 1.9836736556,
				"y": 1.3714169711,
				"z": -1.5110804009,
				"element": "H" 
			},
			{
				"x": 2.2076914467,
				"y": -0.5675771636,
				"z": 0.8285928087,
				"element": "H" 
			},
			{
				"x": 3.2278827151,
				"y": 0.8667333672,
				"z": 0.6714383332,
				"element": "H" 
			},
			{
				"x": 1.2364026712,
				"y": 1.2482557241,
				"z": 2.0082104723,
				"element": "H" 
			}
		],
		 "valence_orbital": [ 
			{
				"type": "occ",
				"energy": -0.36688,
				"method": "rhf"
			},
			{
				"type": "occ",
				"energy": -0.35048,
				"method": "rhf"
			},
			{
				"type": "occ",
				"energy": -0.25754,
				"method": "rhf"
			},
			{
				"type": "occ",
				"energy": -0.25294,
				"method": "rhf"
			},
			{
				"type": "occ",
				"energy": -0.23809,
				"method": "rhf"
			},
			{
				"type": "unocc",
				"energy": 0.02122,
				"method": "rhf"
			},
			{
				"type": "unocc",
				"energy": 0.06145,
				"method": "rhf"
			},
			{
				"type": "unocc",
				"energy": 0.08523,
				"method": "rhf"
			},
			{
				"type": "unocc",
				"energy": 0.0952,
				"method": "rhf"
			},
			{
				"type": "unocc",
				"energy": 0.10869,
				"method": "rhf"
			}
		],
		"cosmo_sigma_profile": { 
			"-0.025": 0.0,
			"-0.024": 0.0,
			"-0.023": 0.0,
			"-0.022": 0.0,
			"-0.021": 0.0,
			"-0.02": 0.0,
			"-0.019": 0.0,
			"-0.018": 0.0,
			"-0.017": 0.0,
			"-0.016": 0.0,
			"-0.015": 0.0,
			"-0.014": 0.131115076769,
			"-0.013": 1.45748304222,
			"-0.012": 0.630698056182,
			"-0.011": 1.35573875255,
			"-0.01": 2.09740482609,
			"-0.009": 2.38129571754,
			"-0.008": 3.26092295998,
			"-0.007": 7.54389696077,
			"-0.006": 12.3366881341,
			"-0.005": 14.4379338855,
			"-0.004": 16.1558805775,
			"-0.003": 16.9822005042,
			"-0.002": 10.9643397803,
			"-0.001": 9.23562289406,
			"0.0": 7.51739133262,
			"0.001": 8.25109421343,
			"0.002": 20.172805733,
			"0.003": 23.4779787232,
			"0.004": 4.16453175106,
			"0.005": 2.79296202593,
			"0.006": 1.94817249656,
			"0.007": 1.44110405488,
			"0.008": 1.69908830002,
			"0.009": 2.34863415087,
			"0.01": 2.17238226542,
			"0.011": 1.70052548567,
			"0.012": 2.2909858576,
			"0.013": 3.57465075576,
			"0.014": 6.55049753157,
			"0.015": 2.51039309805,
			"0.016": 0.319409089659,
			"0.017": 0.0,
			"0.018": 0.0,
			"0.019": 0.0,
			"0.02": 0.0,
			"0.021": 0.0,
			"0.022": 0.0,
			"0.023": 0.0,
			"0.024": 0.0,
			"0.025": 0.0
		}
	}
}
