{
	 "smiles": "BrC1=C2C(NC(=O)C2=O)=CC=C1", 
	 "Tm": 503.15, 
	 "num_atms": 16, 
	 "gaussian": { 
		 "optdone": 1, 
		 "sigma_profile": "yes", 
		 "theory": "DFT", 
		 "functional": "B3LYP", 
		 "basiset": "6-31G**", 
		 "properties": { 
			 "R2extent": 3424.0457, 
			 "electric_dipole_moment_norm": 6.34887468848, 
			 "electric_quadrupole_moment_norm": 6.16175322128, 
			 "total_energy": -3083.86095637, 
			 "HOMO_LUMO_gap": 0.14328, 
			 "cosmo_polarized_energy": -16.68, 
			 "cosmo_cavitation_energy": 23.7, 
			 "cosmo_dispersion_energy": -17.98, 
			 "cosmo_repulsion_energy": 1.42, 
			 "cosmo_total_nonelectrostatic_energy": 7.15, 
			 "SMD_solvation_energy": 4.28 
		},
		"coords": [
			{
				"x": -3.3872785698,
				"y": 1.6420432908,
				"z": -0.5542456845,
				"element": "Br" 
			},
			{
				"x": -1.6928136175,
				"y": 1.3500854095,
				"z": 0.2447333604,
				"element": "C" 
			},
			{
				"x": -0.9246247527,
				"y": 0.2370701909,
				"z": -0.0912471146,
				"element": "C" 
			},
			{
				"x": 0.334823348,
				"y": 0.0518395938,
				"z": 0.5250076711,
				"element": "C" 
			},
			{
				"x": 0.9389629691,
				"y": -1.118401338,
				"z": 0.0511940849,
				"element": "N" 
			},
			{
				"x": 0.1524926517,
				"y": -1.77516212,
				"z": -0.8826012469,
				"element": "C" 
			},
			{
				"x": 0.410519991,
				"y": -2.8043574658,
				"z": -1.4619804222,
				"element": "O" 
			},
			{
				"x": -1.1355818954,
				"y": -0.8914686895,
				"z": -1.0200885172,
				"element": "C" 
			},
			{
				"x": -2.059410658,
				"y": -1.1545816045,
				"z": -1.7550539016,
				"element": "O" 
			},
			{
				"x": 0.8314299043,
				"y": 0.9501964776,
				"z": 1.4593060881,
				"element": "C" 
			},
			{
				"x": 0.0348397435,
				"y": 2.0580098198,
				"z": 1.7747302226,
				"element": "C" 
			},
			{
				"x": -1.2129325994,
				"y": 2.2681966077,
				"z": 1.1832871976,
				"element": "C" 
			},
			{
				"x": 1.8424563016,
				"y": -1.4606470011,
				"z": 0.3441104814,
				"element": "H" 
			},
			{
				"x": 1.7983360477,
				"y": 0.8030728312,
				"z": 1.9289116103,
				"element": "H" 
			},
			{
				"x": 0.397024173,
				"y": 2.7782240146,
				"z": 2.502503077,
				"element": "H" 
			},
			{
				"x": -1.8092430371,
				"y": 3.1337799831,
				"z": 1.4452330936,
				"element": "H" 
			}
		],
		 "valence_orbital": [ 
			{
				"type": "occ",
				"energy": -0.31706,
				"method": "rhf"
			},
			{
				"type": "occ",
				"energy": -0.29493,
				"method": "rhf"
			},
			{
				"type": "occ",
				"energy": -0.26963,
				"method": "rhf"
			},
			{
				"type": "occ",
				"energy": -0.25095,
				"method": "rhf"
			},
			{
				"type": "occ",
				"energy": -0.24696,
				"method": "rhf"
			},
			{
				"type": "unocc",
				"energy": -0.10368,
				"method": "rhf"
			},
			{
				"type": "unocc",
				"energy": -0.03297,
				"method": "rhf"
			},
			{
				"type": "unocc",
				"energy": -0.00242,
				"method": "rhf"
			},
			{
				"type": "unocc",
				"energy": -0.00223,
				"method": "rhf"
			},
			{
				"type": "unocc",
				"energy": 0.06954,
				"method": "rhf"
			}
		],
		"cosmo_sigma_profile": { 
			"-0.025": 0.0,
			"-0.024": 0.0,
			"-0.023": 0.0,
			"-0.022": 0.0,
			"-0.021": 0.0,
			"-0.02": 0.0,
			"-0.019": 0.0,
			"-0.018": 0.0,
			"-0.017": 0.961090235347,
			"-0.016": 1.30312021329,
			"-0.015": 1.55193322987,
			"-0.014": 1.51656779167,
			"-0.013": 0.843420951681,
			"-0.012": 0.689490361571,
			"-0.011": 1.98738378001,
			"-0.01": 1.17174272909,
			"-0.009": 1.34966101814,
			"-0.008": 6.55905720463,
			"-0.007": 9.25414894376,
			"-0.006": 9.28873043936,
			"-0.005": 8.58342475749,
			"-0.004": 9.09004881851,
			"-0.003": 9.37300942878,
			"-0.002": 11.7957618576,
			"-0.001": 13.6258709768,
			"0.0": 16.9287605469,
			"0.001": 16.2770365391,
			"0.002": 15.2889536481,
			"0.003": 9.58485245202,
			"0.004": 7.8880262705,
			"0.005": 3.59998532025,
			"0.006": 3.61231158427,
			"0.007": 3.05676442672,
			"0.008": 4.11485921927,
			"0.009": 5.82254221814,
			"0.01": 8.86775576651,
			"0.011": 8.21256330594,
			"0.012": 2.54368664016,
			"0.013": 0.0994505644688,
			"0.014": 0.0,
			"0.015": 0.0,
			"0.016": 0.0,
			"0.017": 0.0,
			"0.018": 0.0,
			"0.019": 0.0,
			"0.02": 0.0,
			"0.021": 0.0,
			"0.022": 0.0,
			"0.023": 0.0,
			"0.024": 0.0,
			"0.025": 0.0
		}
	}
}
