{
	 "smiles": "O=NC1=C(N=C2N=CC=CN12)C1=CC=C2C=CC=CC2=C1", 
	 "Tm": 522.15, 
	 "num_atms": 31, 
	 "gaussian": { 
		 "optdone": 1, 
		 "sigma_profile": "yes", 
		 "theory": "DFT", 
		 "functional": "B3LYP", 
		 "basiset": "6-31G**", 
		 "properties": { 
			 "R2extent": 7645.6615, 
			 "electric_dipole_moment_norm": 1.80657351082, 
			 "electric_quadrupole_moment_norm": 32.2632926316, 
			 "total_energy": -909.892511854, 
			 "HOMO_LUMO_gap": 0.11567, 
			 "cosmo_polarized_energy": -15.01, 
			 "cosmo_cavitation_energy": 36.06, 
			 "cosmo_dispersion_energy": -26.94, 
			 "cosmo_repulsion_energy": 1.96, 
			 "cosmo_total_nonelectrostatic_energy": 11.08, 
			 "SMD_solvation_energy": 3.44 
		},
		"coords": [
			{
				"x": -3.4444138587,
				"y": 1.4179011586,
				"z": 1.6009917788,
				"element": "O" 
			},
			{
				"x": -2.2196272158,
				"y": 1.1856419525,
				"z": 1.5034650512,
				"element": "N" 
			},
			{
				"x": -1.8498841309,
				"y": 0.2444915539,
				"z": 0.5923340386,
				"element": "C" 
			},
			{
				"x": -0.5368615384,
				"y": -0.2169030443,
				"z": 0.2722914244,
				"element": "C" 
			},
			{
				"x": -0.5852752483,
				"y": -1.161981382,
				"z": -0.6901876484,
				"element": "N" 
			},
			{
				"x": -1.8734776506,
				"y": -1.3314376903,
				"z": -1.0065658018,
				"element": "C" 
			},
			{
				"x": -2.3686158914,
				"y": -2.1767993342,
				"z": -1.9181485298,
				"element": "N" 
			},
			{
				"x": -3.6842258097,
				"y": -2.1857948618,
				"z": -2.0745279701,
				"element": "C" 
			},
			{
				"x": -4.5736524276,
				"y": -1.3655184076,
				"z": -1.3435145281,
				"element": "C" 
			},
			{
				"x": -4.0573354785,
				"y": -0.4997318452,
				"z": -0.4087936172,
				"element": "C" 
			},
			{
				"x": -2.7040682992,
				"y": -0.4883230594,
				"z": -0.2456410752,
				"element": "N" 
			},
			{
				"x": 0.7483565948,
				"y": 0.2005489779,
				"z": 0.8392943153,
				"element": "C" 
			},
			{
				"x": 0.8488203873,
				"y": 1.1953013095,
				"z": 1.858567277,
				"element": "C" 
			},
			{
				"x": 2.0760970172,
				"y": 1.5531074873,
				"z": 2.3587094559,
				"element": "C" 
			},
			{
				"x": 3.2747677282,
				"y": 0.9523043136,
				"z": 1.8842413482,
				"element": "C" 
			},
			{
				"x": 4.5557673111,
				"y": 1.3032953214,
				"z": 2.3834782214,
				"element": "C" 
			},
			{
				"x": 5.6919418302,
				"y": 0.6955372466,
				"z": 1.8949644054,
				"element": "C" 
			},
			{
				"x": 5.6002776427,
				"y": -0.2927424434,
				"z": 0.8832809258,
				"element": "C" 
			},
			{
				"x": 4.3725819586,
				"y": -0.6554666732,
				"z": 0.3781172104,
				"element": "C" 
			},
			{
				"x": 3.1804020151,
				"y": -0.047238843,
				"z": 0.8608118009,
				"element": "C" 
			},
			{
				"x": 1.9057050568,
				"y": -0.4003356766,
				"z": 0.3601379417,
				"element": "C" 
			},
			{
				"x": -4.0741636312,
				"y": -2.8773319363,
				"z": -2.8187851994,
				"element": "H" 
			},
			{
				"x": -5.6426376226,
				"y": -1.411425263,
				"z": -1.5098537163,
				"element": "H" 
			},
			{
				"x": -4.6172062696,
				"y": 0.1798134613,
				"z": 0.2166411767,
				"element": "H" 
			},
			{
				"x": -0.0558025277,
				"y": 1.661623387,
				"z": 2.2296004437,
				"element": "H" 
			},
			{
				"x": 2.1437610815,
				"y": 2.3112582507,
				"z": 3.1345755404,
				"element": "H" 
			},
			{
				"x": 4.6265799717,
				"y": 2.0611731396,
				"z": 3.1593539073,
				"element": "H" 
			},
			{
				"x": 6.6668159286,
				"y": 0.9730785489,
				"z": 2.2854649732,
				"element": "H" 
			},
			{
				"x": 6.5048334298,
				"y": -0.7626144732,
				"z": 0.5085831211,
				"element": "H" 
			},
			{
				"x": 4.2950850395,
				"y": -1.4125469005,
				"z": -0.3976931709,
				"element": "H" 
			},
			{
				"x": 1.8226546071,
				"y": -1.1555842749,
				"z": -0.4144931006,
				"element": "H" 
			}
		],
		 "valence_orbital": [ 
			{
				"type": "occ",
				"energy": -0.28138,
				"method": "rhf"
			},
			{
				"type": "occ",
				"energy": -0.25431,
				"method": "rhf"
			},
			{
				"type": "occ",
				"energy": -0.23833,
				"method": "rhf"
			},
			{
				"type": "occ",
				"energy": -0.21787,
				"method": "rhf"
			},
			{
				"type": "occ",
				"energy": -0.21567,
				"method": "rhf"
			},
			{
				"type": "unocc",
				"energy": -0.1,
				"method": "rhf"
			},
			{
				"type": "unocc",
				"energy": -0.07725,
				"method": "rhf"
			},
			{
				"type": "unocc",
				"energy": -0.03963,
				"method": "rhf"
			},
			{
				"type": "unocc",
				"energy": -0.01287,
				"method": "rhf"
			},
			{
				"type": "unocc",
				"energy": -0.00515,
				"method": "rhf"
			}
		],
		"cosmo_sigma_profile": { 
			"-0.025": 0.0,
			"-0.024": 0.0,
			"-0.023": 0.0,
			"-0.022": 0.0,
			"-0.021": 0.0,
			"-0.02": 0.0,
			"-0.019": 0.0,
			"-0.018": 0.0,
			"-0.017": 0.0,
			"-0.016": 0.0,
			"-0.015": 0.0,
			"-0.014": 0.0,
			"-0.013": 0.0,
			"-0.012": 0.0,
			"-0.011": 0.0,
			"-0.01": 0.590148737714,
			"-0.009": 5.58115889091,
			"-0.008": 7.11035353496,
			"-0.007": 8.10253254348,
			"-0.006": 20.6467876467,
			"-0.005": 19.838471617,
			"-0.004": 22.4856834874,
			"-0.003": 20.4801571909,
			"-0.002": 20.0792018695,
			"-0.001": 19.8194995567,
			"0.0": 17.0662960049,
			"0.001": 16.877887512,
			"0.002": 21.361252842,
			"0.003": 29.8366400191,
			"0.004": 18.6388982632,
			"0.005": 9.21228246273,
			"0.006": 4.01751775097,
			"0.007": 3.69551804048,
			"0.008": 5.01587501428,
			"0.009": 5.11434375488,
			"0.01": 5.18064799944,
			"0.011": 4.00901103246,
			"0.012": 4.17115473302,
			"0.013": 3.06577737552,
			"0.014": 0.830266491381,
			"0.015": 0.00933447430904,
			"0.016": 0.0,
			"0.017": 0.0,
			"0.018": 0.0,
			"0.019": 0.0,
			"0.02": 0.0,
			"0.021": 0.0,
			"0.022": 0.0,
			"0.023": 0.0,
			"0.024": 0.0,
			"0.025": 0.0
		}
	}
}
