{
	 "smiles": "FC1=C2CCC(=O)C2=CC=C1", 
	 "Tm": 345.15, 
	 "num_atms": 18, 
	 "gaussian": { 
		 "optdone": 1, 
		 "sigma_profile": "yes", 
		 "theory": "DFT", 
		 "functional": "B3LYP", 
		 "basiset": "6-31G**", 
		 "properties": { 
			 "R2extent": 2226.9451, 
			 "electric_dipole_moment_norm": 2.14407054455, 
			 "electric_quadrupole_moment_norm": 16.4158319591, 
			 "total_energy": -522.242296807, 
			 "HOMO_LUMO_gap": 0.18721, 
			 "cosmo_polarized_energy": -7.87, 
			 "cosmo_cavitation_energy": 22.29, 
			 "cosmo_dispersion_energy": -16.49, 
			 "cosmo_repulsion_energy": 1.3, 
			 "cosmo_total_nonelectrostatic_energy": 7.1, 
			 "SMD_solvation_energy": 4.52 
		},
		"coords": [
			{
				"x": -0.0479509434,
				"y": 0.5837001656,
				"z": 1.6963013507,
				"element": "F" 
			},
			{
				"x": -0.7526160382,
				"y": -0.3497705536,
				"z": 1.0199054273,
				"element": "C" 
			},
			{
				"x": -0.246001046,
				"y": -0.8566964052,
				"z": -0.1701734478,
				"element": "C" 
			},
			{
				"x": 1.0453885784,
				"y": -0.5170874349,
				"z": -0.8816417565,
				"element": "C" 
			},
			{
				"x": 1.0274871876,
				"y": -1.4150037623,
				"z": -2.1431131779,
				"element": "C" 
			},
			{
				"x": -0.2800435228,
				"y": -2.2250817504,
				"z": -2.0860790871,
				"element": "C" 
			},
			{
				"x": -0.6508278971,
				"y": -3.0422887245,
				"z": -2.9060601799,
				"element": "O" 
			},
			{
				"x": -0.9966974325,
				"y": -1.8210825949,
				"z": -0.8481525967,
				"element": "C" 
			},
			{
				"x": -2.2256179837,
				"y": -2.2843246139,
				"z": -0.3705503903,
				"element": "C" 
			},
			{
				"x": -2.7071762854,
				"y": -1.756938902,
				"z": 0.8254855481,
				"element": "C" 
			},
			{
				"x": -1.9720630538,
				"y": -0.7875451055,
				"z": 1.5250230854,
				"element": "C" 
			},
			{
				"x": 1.9109450077,
				"y": -0.7176217261,
				"z": -0.24073042,
				"element": "H" 
			},
			{
				"x": 1.0875772605,
				"y": 0.5489394658,
				"z": -1.1305862211,
				"element": "H" 
			},
			{
				"x": 1.8735156168,
				"y": -2.1083841739,
				"z": -2.1841491067,
				"element": "H" 
			},
			{
				"x": 1.0492773598,
				"y": -0.8407291194,
				"z": -3.0747554839,
				"element": "H" 
			},
			{
				"x": -2.7751777685,
				"y": -3.0345641023,
				"z": -0.9298821127,
				"element": "H" 
			},
			{
				"x": -3.6580110952,
				"y": -2.0915232634,
				"z": 1.2289202936,
				"element": "H" 
			},
			{
				"x": -2.3361079443,
				"y": -0.3688973993,
				"z": 2.4575382753,
				"element": "H" 
			}
		],
		 "valence_orbital": [ 
			{
				"type": "occ",
				"energy": -0.35968,
				"method": "rhf"
			},
			{
				"type": "occ",
				"energy": -0.34139,
				"method": "rhf"
			},
			{
				"type": "occ",
				"energy": -0.26503,
				"method": "rhf"
			},
			{
				"type": "occ",
				"energy": -0.25392,
				"method": "rhf"
			},
			{
				"type": "occ",
				"energy": -0.2458,
				"method": "rhf"
			},
			{
				"type": "unocc",
				"energy": -0.05859,
				"method": "rhf"
			},
			{
				"type": "unocc",
				"energy": -0.0143,
				"method": "rhf"
			},
			{
				"type": "unocc",
				"energy": 0.04437,
				"method": "rhf"
			},
			{
				"type": "unocc",
				"energy": 0.08805,
				"method": "rhf"
			},
			{
				"type": "unocc",
				"energy": 0.09585,
				"method": "rhf"
			}
		],
		"cosmo_sigma_profile": { 
			"-0.025": 0.0,
			"-0.024": 0.0,
			"-0.023": 0.0,
			"-0.022": 0.0,
			"-0.021": 0.0,
			"-0.02": 0.0,
			"-0.019": 0.0,
			"-0.018": 0.0,
			"-0.017": 0.0,
			"-0.016": 0.0,
			"-0.015": 0.0,
			"-0.014": 0.0,
			"-0.013": 0.0,
			"-0.012": 0.0,
			"-0.011": 0.0,
			"-0.01": 0.0,
			"-0.009": 0.0,
			"-0.008": 0.953814884618,
			"-0.007": 3.6885697065,
			"-0.006": 10.5003153057,
			"-0.005": 18.4340177046,
			"-0.004": 17.8631364568,
			"-0.003": 12.7938711597,
			"-0.002": 13.2533246291,
			"-0.001": 13.184581696,
			"0.0": 12.9518398946,
			"0.001": 14.143734609,
			"0.002": 12.9892218868,
			"0.003": 13.5436188061,
			"0.004": 11.9475992938,
			"0.005": 2.93603231536,
			"0.006": 2.23007542524,
			"0.007": 1.31063810618,
			"0.008": 1.51077618632,
			"0.009": 1.37807922741,
			"0.01": 1.9114307109,
			"0.011": 3.49198465309,
			"0.012": 4.80979371945,
			"0.013": 2.31609989441,
			"0.014": 0.210751958249,
			"0.015": 0.0,
			"0.016": 0.0,
			"0.017": 0.0,
			"0.018": 0.0,
			"0.019": 0.0,
			"0.02": 0.0,
			"0.021": 0.0,
			"0.022": 0.0,
			"0.023": 0.0,
			"0.024": 0.0,
			"0.025": 0.0
		}
	}
}
