{
	 "smiles": "NC1=CC=C(Br)N=N1", 
	 "Tm": 467.15, 
	 "num_atms": 12, 
	 "gaussian": { 
		 "optdone": 1, 
		 "sigma_profile": "yes", 
		 "theory": "DFT", 
		 "functional": "B3LYP", 
		 "basiset": "6-31G**", 
		 "properties": { 
			 "R2extent": 2615.2702, 
			 "electric_dipole_moment_norm": 5.2645064403, 
			 "electric_quadrupole_moment_norm": 8.72992036333, 
			 "total_energy": -2890.45518763, 
			 "HOMO_LUMO_gap": 0.17801, 
			 "cosmo_polarized_energy": -14.99, 
			 "cosmo_cavitation_energy": 18.99, 
			 "cosmo_dispersion_energy": -14.9, 
			 "cosmo_repulsion_energy": 1.25, 
			 "cosmo_total_nonelectrostatic_energy": 5.33, 
			 "SMD_solvation_energy": 0.47 
		},
		"coords": [
			{
				"x": 1.8071776052,
				"y": 1.2579735093,
				"z": 0.6984027622,
				"element": "N" 
			},
			{
				"x": 0.819582506,
				"y": 0.3015732857,
				"z": 0.7295478231,
				"element": "C" 
			},
			{
				"x": -0.5291727697,
				"y": 0.6287717391,
				"z": 1.0051366023,
				"element": "C" 
			},
			{
				"x": -1.4483196671,
				"y": -0.3926828886,
				"z": 0.9591269269,
				"element": "C" 
			},
			{
				"x": -0.9591093382,
				"y": -1.6692608256,
				"z": 0.6343632368,
				"element": "C" 
			},
			{
				"x": -2.178945915,
				"y": -3.1406368216,
				"z": 0.5465949639,
				"element": "Br" 
			},
			{
				"x": 0.3069022139,
				"y": -1.9325679442,
				"z": 0.3853837955,
				"element": "N" 
			},
			{
				"x": 1.2094949433,
				"y": -0.9502579184,
				"z": 0.4386966237,
				"element": "N" 
			},
			{
				"x": 2.7459675507,
				"y": 0.8838514643,
				"z": 0.6731815088,
				"element": "H" 
			},
			{
				"x": 1.6850632898,
				"y": 2.0842030251,
				"z": 1.2635352857,
				"element": "H" 
			},
			{
				"x": -0.8227982511,
				"y": 1.6484829,
				"z": 1.2363638954,
				"element": "H" 
			},
			{
				"x": -2.5013421678,
				"y": -0.232449525,
				"z": 1.1581665756,
				"element": "H" 
			}
		],
		 "valence_orbital": [ 
			{
				"type": "occ",
				"energy": -0.31755,
				"method": "rhf"
			},
			{
				"type": "occ",
				"energy": -0.29251,
				"method": "rhf"
			},
			{
				"type": "occ",
				"energy": -0.28659,
				"method": "rhf"
			},
			{
				"type": "occ",
				"energy": -0.24099,
				"method": "rhf"
			},
			{
				"type": "occ",
				"energy": -0.23355,
				"method": "rhf"
			},
			{
				"type": "unocc",
				"energy": -0.05554,
				"method": "rhf"
			},
			{
				"type": "unocc",
				"energy": -0.01608,
				"method": "rhf"
			},
			{
				"type": "unocc",
				"energy": 0.00674,
				"method": "rhf"
			},
			{
				"type": "unocc",
				"energy": 0.07172,
				"method": "rhf"
			},
			{
				"type": "unocc",
				"energy": 0.09861,
				"method": "rhf"
			}
		],
		"cosmo_sigma_profile": { 
			"-0.025": 0.0,
			"-0.024": 0.0,
			"-0.023": 0.0,
			"-0.022": 0.0,
			"-0.021": 0.0,
			"-0.02": 0.0,
			"-0.019": 0.0,
			"-0.018": 0.0,
			"-0.017": 0.0,
			"-0.016": 0.0,
			"-0.015": 0.259810424543,
			"-0.014": 1.66714301065,
			"-0.013": 2.98620220905,
			"-0.012": 2.25940026166,
			"-0.011": 2.42245051014,
			"-0.01": 3.81820217897,
			"-0.009": 5.09240593959,
			"-0.008": 5.44875744345,
			"-0.007": 5.30764879738,
			"-0.006": 4.44431019912,
			"-0.005": 4.92545097636,
			"-0.004": 5.79697453633,
			"-0.003": 5.70478167929,
			"-0.002": 9.43369190588,
			"-0.001": 13.3388040682,
			"0.0": 11.9517679635,
			"0.001": 8.18580545276,
			"0.002": 6.81661719473,
			"0.003": 9.25186591057,
			"0.004": 12.7617914341,
			"0.005": 7.45421765204,
			"0.006": 3.48747830624,
			"0.007": 2.83690646023,
			"0.008": 2.54769742057,
			"0.009": 2.91810926659,
			"0.01": 3.11664413941,
			"0.011": 2.1421249773,
			"0.012": 2.23448627598,
			"0.013": 2.94443196416,
			"0.014": 2.46198231322,
			"0.015": 1.51440318355,
			"0.016": 0.153591243454,
			"0.017": 0.0,
			"0.018": 0.0,
			"0.019": 0.0,
			"0.02": 0.0,
			"0.021": 0.0,
			"0.022": 0.0,
			"0.023": 0.0,
			"0.024": 0.0,
			"0.025": 0.0
		}
	}
}
