{
	 "smiles": "CC(=O)OC1=CC(OC(C)=O)=C2C(=O)C(OC(C)=O)=C(OC2=C1)C1=CC=C(OCC2=CC=CC=C2)C=C1", 
	 "Tm": 423.15, 
	 "num_atms": 59, 
	 "gaussian": { 
		 "optdone": 1, 
		 "sigma_profile": "yes", 
		 "theory": "DFT", 
		 "functional": "B3LYP", 
		 "basiset": "6-31G**", 
		 "properties": { 
			 "R2extent": 26814.0399, 
			 "electric_dipole_moment_norm": 5.99750487203, 
			 "electric_quadrupole_moment_norm": 29.1014406092, 
			 "total_energy": -1757.26583276, 
			 "HOMO_LUMO_gap": 0.15407, 
			 "cosmo_polarized_energy": -26.37, 
			 "cosmo_cavitation_energy": 66.26, 
			 "cosmo_dispersion_energy": -44.4, 
			 "cosmo_repulsion_energy": 3.35, 
			 "cosmo_total_nonelectrostatic_energy": 25.21, 
			 "SMD_solvation_energy": 15.37 
		},
		"coords": [
			{
				"x": 3.9173545008,
				"y": -6.7988790371,
				"z": 2.1637893323,
				"element": "C" 
			},
			{
				"x": 3.4094026295,
				"y": -5.5935780927,
				"z": 2.9126424856,
				"element": "C" 
			},
			{
				"x": 3.7328508507,
				"y": -5.2536794271,
				"z": 4.0217399445,
				"element": "O" 
			},
			{
				"x": 2.5052559068,
				"y": -4.9172091893,
				"z": 2.1238945557,
				"element": "O" 
			},
			{
				"x": 1.8485654453,
				"y": -3.776758475,
				"z": 2.5622674755,
				"element": "C" 
			},
			{
				"x": 1.3679363475,
				"y": -3.6191865212,
				"z": 3.8693708411,
				"element": "C" 
			},
			{
				"x": 0.6526946976,
				"y": -2.4757329002,
				"z": 4.1845450459,
				"element": "C" 
			},
			{
				"x": 0.2630989121,
				"y": -2.3155487532,
				"z": 5.4979977827,
				"element": "O" 
			},
			{
				"x": -1.0873864491,
				"y": -2.4333377249,
				"z": 5.7924217262,
				"element": "C" 
			},
			{
				"x": -1.3492227879,
				"y": -1.9195994706,
				"z": 7.1787967402,
				"element": "C" 
			},
			{
				"x": -1.8831053033,
				"y": -2.8992918971,
				"z": 5.0216237518,
				"element": "O" 
			},
			{
				"x": 0.3896347163,
				"y": -1.4643128444,
				"z": 3.2305605593,
				"element": "C" 
			},
			{
				"x": -0.3429085875,
				"y": -0.2165578855,
				"z": 3.5185110873,
				"element": "C" 
			},
			{
				"x": -0.8421202051,
				"y": 0.0767860037,
				"z": 4.6061574314,
				"element": "O" 
			},
			{
				"x": -0.4426319722,
				"y": 0.6953118612,
				"z": 2.374576074,
				"element": "C" 
			},
			{
				"x": -1.0743843956,
				"y": 1.8991388188,
				"z": 2.6267643876,
				"element": "O" 
			},
			{
				"x": -2.4424770434,
				"y": 1.8411035125,
				"z": 2.8573425622,
				"element": "C" 
			},
			{
				"x": -2.904378551,
				"y": 3.1240340074,
				"z": 3.4927642641,
				"element": "C" 
			},
			{
				"x": -3.1169715406,
				"y": 0.8910982381,
				"z": 2.5661456307,
				"element": "O" 
			},
			{
				"x": 0.073466948,
				"y": 0.4202981572,
				"z": 1.1444475094,
				"element": "C" 
			},
			{
				"x": 0.7335611777,
				"y": -0.7598940351,
				"z": 0.9378926532,
				"element": "O" 
			},
			{
				"x": 0.8962827159,
				"y": -1.6749035588,
				"z": 1.9376000922,
				"element": "C" 
			},
			{
				"x": 1.6175366874,
				"y": -2.8175928073,
				"z": 1.5876822278,
				"element": "C" 
			},
			{
				"x": 0.025807599,
				"y": 1.2397139132,
				"z": -0.0743430582,
				"element": "C" 
			},
			{
				"x": 0.1247512939,
				"y": 0.6195272303,
				"z": -1.3310046983,
				"element": "C" 
			},
			{
				"x": 0.087884596,
				"y": 1.3555120003,
				"z": -2.5121503594,
				"element": "C" 
			},
			{
				"x": -0.036217042,
				"y": 2.7498457546,
				"z": -2.4546872327,
				"element": "C" 
			},
			{
				"x": -0.0684455743,
				"y": 3.5784779237,
				"z": -3.536669941,
				"element": "O" 
			},
			{
				"x": 0.1557702776,
				"y": 3.0414674637,
				"z": -4.8420692384,
				"element": "C" 
			},
			{
				"x": -1.040664699,
				"y": 2.3212081623,
				"z": -5.4327896079,
				"element": "C" 
			},
			{
				"x": -2.3451752642,
				"y": 2.7228962982,
				"z": -5.1228845156,
				"element": "C" 
			},
			{
				"x": -3.4370149755,
				"y": 2.0860485361,
				"z": -5.7129607441,
				"element": "C" 
			},
			{
				"x": -3.2375918512,
				"y": 1.0477560296,
				"z": -6.6256165965,
				"element": "C" 
			},
			{
				"x": -1.9391752315,
				"y": 0.6449249558,
				"z": -6.9416256099,
				"element": "C" 
			},
			{
				"x": -0.8470763517,
				"y": 1.276281905,
				"z": -6.3437867884,
				"element": "C" 
			},
			{
				"x": -0.1271781955,
				"y": 3.3845742655,
				"z": -1.2062055741,
				"element": "C" 
			},
			{
				"x": -0.0978144927,
				"y": 2.6436196066,
				"z": -0.0356136983,
				"element": "C" 
			},
			{
				"x": 3.0836325603,
				"y": -7.4631227899,
				"z": 1.9174226458,
				"element": "H" 
			},
			{
				"x": 4.6444743355,
				"y": -7.3252733849,
				"z": 2.7807741387,
				"element": "H" 
			},
			{
				"x": 4.3776107146,
				"y": -6.4897169669,
				"z": 1.2209387029,
				"element": "H" 
			},
			{
				"x": 1.5536187636,
				"y": -4.3571914341,
				"z": 4.6353851762,
				"element": "H" 
			},
			{
				"x": -2.3431955292,
				"y": -2.2286928336,
				"z": 7.501028792,
				"element": "H" 
			},
			{
				"x": -0.588040934,
				"y": -2.2748989575,
				"z": 7.8776616873,
				"element": "H" 
			},
			{
				"x": -1.2937212755,
				"y": -0.8278680709,
				"z": 7.1398904056,
				"element": "H" 
			},
			{
				"x": -3.9933337239,
				"y": 3.1574414762,
				"z": 3.4938358436,
				"element": "H" 
			},
			{
				"x": -2.5333775054,
				"y": 3.1559142787,
				"z": 4.5219165887,
				"element": "H" 
			},
			{
				"x": -2.4955251698,
				"y": 3.9897774538,
				"z": 2.9652668383,
				"element": "H" 
			},
			{
				"x": 1.9889760766,
				"y": -2.9455636197,
				"z": 0.5786511019,
				"element": "H" 
			},
			{
				"x": 0.2182257984,
				"y": -0.458809698,
				"z": -1.386474253,
				"element": "H" 
			},
			{
				"x": 0.1288209842,
				"y": 0.8371107614,
				"z": -3.4617805815,
				"element": "H" 
			},
			{
				"x": 1.0388149265,
				"y": 2.3893587405,
				"z": -4.8387085783,
				"element": "H" 
			},
			{
				"x": 0.4014624396,
				"y": 3.9216280555,
				"z": -5.4458942232,
				"element": "H" 
			},
			{
				"x": -2.4986859388,
				"y": 3.5280321339,
				"z": -4.4111281601,
				"element": "H" 
			},
			{
				"x": -4.4452827923,
				"y": 2.4010385095,
				"z": -5.4597488058,
				"element": "H" 
			},
			{
				"x": -4.0889264331,
				"y": 0.5530757813,
				"z": -7.0839536853,
				"element": "H" 
			},
			{
				"x": -1.7753339778,
				"y": -0.1657184192,
				"z": -7.6458839754,
				"element": "H" 
			},
			{
				"x": 0.1628768144,
				"y": 0.9533190693,
				"z": -6.587682709,
				"element": "H" 
			},
			{
				"x": -0.2073670499,
				"y": 4.4662350881,
				"z": -1.1805695585,
				"element": "H" 
			},
			{
				"x": -0.153737873,
				"y": 3.1521628021,
				"z": 0.9178261111,
				"element": "H" 
			}
		],
		 "valence_orbital": [ 
			{
				"type": "occ",
				"energy": -0.25415,
				"method": "rhf"
			},
			{
				"type": "occ",
				"energy": -0.25267,
				"method": "rhf"
			},
			{
				"type": "occ",
				"energy": -0.24702,
				"method": "rhf"
			},
			{
				"type": "occ",
				"energy": -0.23998,
				"method": "rhf"
			},
			{
				"type": "occ",
				"energy": -0.21919,
				"method": "rhf"
			},
			{
				"type": "unocc",
				"energy": -0.06512,
				"method": "rhf"
			},
			{
				"type": "unocc",
				"energy": -0.03511,
				"method": "rhf"
			},
			{
				"type": "unocc",
				"energy": -0.01684,
				"method": "rhf"
			},
			{
				"type": "unocc",
				"energy": -0.01189,
				"method": "rhf"
			},
			{
				"type": "unocc",
				"energy": -0.0088,
				"method": "rhf"
			}
		],
		"cosmo_sigma_profile": { 
			"-0.025": 0.0,
			"-0.024": 0.0,
			"-0.023": 0.0,
			"-0.022": 0.0,
			"-0.021": 0.0,
			"-0.02": 0.0,
			"-0.019": 0.0,
			"-0.018": 0.0,
			"-0.017": 0.0,
			"-0.016": 0.0,
			"-0.015": 0.0,
			"-0.014": 0.0,
			"-0.013": 0.0,
			"-0.012": 0.0,
			"-0.011": 0.0,
			"-0.01": 0.0,
			"-0.009": 0.656574632373,
			"-0.008": 1.8257339205,
			"-0.007": 15.1253454635,
			"-0.006": 35.9648579953,
			"-0.005": 42.3713161935,
			"-0.004": 47.2562866548,
			"-0.003": 50.1948735011,
			"-0.002": 51.107270657,
			"-0.001": 41.0636641487,
			"0.0": 33.4184129756,
			"0.001": 29.4454097738,
			"0.002": 30.4255005438,
			"0.003": 31.403734646,
			"0.004": 25.4450007563,
			"0.005": 18.4658078252,
			"0.006": 15.4451886374,
			"0.007": 11.4394689135,
			"0.008": 10.8356291484,
			"0.009": 10.3250171594,
			"0.01": 11.9260907197,
			"0.011": 13.3702385265,
			"0.012": 3.35273247528,
			"0.013": 0.0344884102872,
			"0.014": 0.0,
			"0.015": 0.0,
			"0.016": 0.0,
			"0.017": 0.0,
			"0.018": 0.0,
			"0.019": 0.0,
			"0.02": 0.0,
			"0.021": 0.0,
			"0.022": 0.0,
			"0.023": 0.0,
			"0.024": 0.0,
			"0.025": 0.0
		}
	}
}
