{
	 "smiles": "CNC(=O)C1=C(N)C=CC=C1C", 
	 "Tm": 383.15, 
	 "num_atms": 24, 
	 "gaussian": { 
		 "optdone": 1, 
		 "sigma_profile": "yes", 
		 "theory": "DFT", 
		 "functional": "B3LYP", 
		 "basiset": "6-31G**", 
		 "properties": { 
			 "R2extent": 2254.2149, 
			 "electric_dipole_moment_norm": 2.25657379671, 
			 "electric_quadrupole_moment_norm": 13.6473873254, 
			 "total_energy": -534.939329589, 
			 "HOMO_LUMO_gap": 0.18214, 
			 "cosmo_polarized_energy": -12.44, 
			 "cosmo_cavitation_energy": 26.32, 
			 "cosmo_dispersion_energy": -19.24, 
			 "cosmo_repulsion_energy": 1.54, 
			 "cosmo_total_nonelectrostatic_energy": 8.62, 
			 "SMD_solvation_energy": 4.78 
		},
		"coords": [
			{
				"x": -0.2160268155,
				"y": -0.1716371169,
				"z": -2.7044512322,
				"element": "C" 
			},
			{
				"x": -1.1501359364,
				"y": -1.1662534141,
				"z": -2.2034505814,
				"element": "N" 
			},
			{
				"x": -1.2034522114,
				"y": -1.724799619,
				"z": -0.9545883915,
				"element": "C" 
			},
			{
				"x": -1.8014526399,
				"y": -2.7924293291,
				"z": -0.7842365181,
				"element": "O" 
			},
			{
				"x": -0.5089245571,
				"y": -1.0236333537,
				"z": 0.1800659511,
				"element": "C" 
			},
			{
				"x": 0.4094710907,
				"y": -1.7931652403,
				"z": 0.9439018903,
				"element": "C" 
			},
			{
				"x": 0.676312283,
				"y": -3.1139487844,
				"z": 0.604992194,
				"element": "N" 
			},
			{
				"x": 1.0906226191,
				"y": -1.1787289166,
				"z": 2.008156288,
				"element": "C" 
			},
			{
				"x": 0.8213970563,
				"y": 0.1414961011,
				"z": 2.3463170026,
				"element": "C" 
			},
			{
				"x": -0.1353514024,
				"y": 0.873060857,
				"z": 1.6435715174,
				"element": "C" 
			},
			{
				"x": -0.8097076673,
				"y": 0.301834464,
				"z": 0.5572958134,
				"element": "C" 
			},
			{
				"x": -1.8650352733,
				"y": 1.1234761436,
				"z": -0.1544763227,
				"element": "C" 
			},
			{
				"x": 0.4078024964,
				"y": 0.1850737524,
				"z": -1.8851319023,
				"element": "H" 
			},
			{
				"x": -0.7388855622,
				"y": 0.6843686461,
				"z": -3.1463417692,
				"element": "H" 
			},
			{
				"x": 0.4401473226,
				"y": -0.6062305346,
				"z": -3.4678134223,
				"element": "H" 
			},
			{
				"x": -1.6336000255,
				"y": -1.7347973747,
				"z": -2.8882695918,
				"element": "H" 
			},
			{
				"x": 1.1282004232,
				"y": -3.6505489775,
				"z": 1.3318145098,
				"element": "H" 
			},
			{
				"x": -0.1137316525,
				"y": -3.5918877451,
				"z": 0.186179077,
				"element": "H" 
			},
			{
				"x": 1.8146584944,
				"y": -1.7563268664,
				"z": 2.5774273783,
				"element": "H" 
			},
			{
				"x": 1.3447085131,
				"y": 0.5970099675,
				"z": 3.1827105464,
				"element": "H" 
			},
			{
				"x": -0.3718351432,
				"y": 1.8902771577,
				"z": 1.9421376101,
				"element": "H" 
			},
			{
				"x": -2.2923091092,
				"y": 1.8602428225,
				"z": 0.5314073403,
				"element": "H" 
			},
			{
				"x": -2.6803805306,
				"y": 0.5071980199,
				"z": -0.5402479382,
				"element": "H" 
			},
			{
				"x": -1.4479917721,
				"y": 1.6797493405,
				"z": -1.0024694489,
				"element": "H" 
			}
		],
		 "valence_orbital": [ 
			{
				"type": "occ",
				"energy": -0.29895,
				"method": "rhf"
			},
			{
				"type": "occ",
				"energy": -0.25614,
				"method": "rhf"
			},
			{
				"type": "occ",
				"energy": -0.24907,
				"method": "rhf"
			},
			{
				"type": "occ",
				"energy": -0.23322,
				"method": "rhf"
			},
			{
				"type": "occ",
				"energy": -0.19761,
				"method": "rhf"
			},
			{
				"type": "unocc",
				"energy": -0.01547,
				"method": "rhf"
			},
			{
				"type": "unocc",
				"energy": 0.01625,
				"method": "rhf"
			},
			{
				"type": "unocc",
				"energy": 0.04554,
				"method": "rhf"
			},
			{
				"type": "unocc",
				"energy": 0.08762,
				"method": "rhf"
			},
			{
				"type": "unocc",
				"energy": 0.09788,
				"method": "rhf"
			}
		],
		"cosmo_sigma_profile": { 
			"-0.025": 0.0,
			"-0.024": 0.0,
			"-0.023": 0.0,
			"-0.022": 0.0,
			"-0.021": 0.0,
			"-0.02": 0.0,
			"-0.019": 0.0,
			"-0.018": 0.0,
			"-0.017": 0.0,
			"-0.016": 0.0,
			"-0.015": 0.0,
			"-0.014": 0.0975863350789,
			"-0.013": 1.29049732304,
			"-0.012": 1.93380629684,
			"-0.011": 2.36273078428,
			"-0.01": 2.80389425747,
			"-0.009": 2.4926185413,
			"-0.008": 2.89854259021,
			"-0.007": 3.86035144615,
			"-0.006": 4.90724439507,
			"-0.005": 12.1514811933,
			"-0.004": 20.1740276144,
			"-0.003": 21.9367311392,
			"-0.002": 18.5702691518,
			"-0.001": 16.0348286,
			"0.0": 14.4101809098,
			"0.001": 11.3796578933,
			"0.002": 9.45735615296,
			"0.003": 9.75390423791,
			"0.004": 7.04301454793,
			"0.005": 10.1643472154,
			"0.006": 9.90031299536,
			"0.007": 4.35331551662,
			"0.008": 2.20643273189,
			"0.009": 2.44375572286,
			"0.01": 1.8694750679,
			"0.011": 1.46456225499,
			"0.012": 2.85476243061,
			"0.013": 3.62127075887,
			"0.014": 4.50837374868,
			"0.015": 0.473246423729,
			"0.016": 0.0,
			"0.017": 0.0,
			"0.018": 0.0,
			"0.019": 0.0,
			"0.02": 0.0,
			"0.021": 0.0,
			"0.022": 0.0,
			"0.023": 0.0,
			"0.024": 0.0,
			"0.025": 0.0
		}
	}
}
