{
	 "smiles": "ClCC(=O)NC1=CC=C(NC(=O)C2=CC=CS2)C=C1", 
	 "Tm": 517.15, 
	 "num_atms": 30, 
	 "gaussian": { 
		 "optdone": 1, 
		 "sigma_profile": "yes", 
		 "theory": "DFT", 
		 "functional": "B3LYP", 
		 "basiset": "6-31G**", 
		 "properties": { 
			 "R2extent": 9168.2965, 
			 "electric_dipole_moment_norm": 3.397793381, 
			 "electric_quadrupole_moment_norm": 18.7906513344, 
			 "total_energy": -1620.35757737, 
			 "HOMO_LUMO_gap": 0.17472, 
			 "cosmo_polarized_energy": -18.62, 
			 "cosmo_cavitation_energy": 38.5, 
			 "cosmo_dispersion_energy": -27.95, 
			 "cosmo_repulsion_energy": 2.13, 
			 "cosmo_total_nonelectrostatic_energy": 12.69, 
			 "SMD_solvation_energy": 7.4 
		},
		"coords": [
			{
				"x": 3.3730356375,
				"y": 5.6796811595,
				"z": 1.3847166812,
				"element": "Cl" 
			},
			{
				"x": 2.3892089738,
				"y": 5.6858723842,
				"z": -0.1426356868,
				"element": "C" 
			},
			{
				"x": 1.8445122234,
				"y": 4.3388071764,
				"z": -0.6332947124,
				"element": "C" 
			},
			{
				"x": 1.1831594709,
				"y": 4.3599459578,
				"z": -1.6622404205,
				"element": "O" 
			},
			{
				"x": 2.1422803603,
				"y": 3.2403493923,
				"z": 0.1137249327,
				"element": "N" 
			},
			{
				"x": 1.7652037923,
				"y": 1.8985892735,
				"z": -0.1119879985,
				"element": "C" 
			},
			{
				"x": 0.9819306976,
				"y": 1.4914026877,
				"z": -1.2027926503,
				"element": "C" 
			},
			{
				"x": 0.6661162846,
				"y": 0.1441546162,
				"z": -1.3572681585,
				"element": "C" 
			},
			{
				"x": 1.089322844,
				"y": -0.8116458461,
				"z": -0.4250950866,
				"element": "C" 
			},
			{
				"x": 0.80240629,
				"y": -2.1958165801,
				"z": -0.5872646109,
				"element": "N" 
			},
			{
				"x": -0.3766656527,
				"y": -2.8195635909,
				"z": -0.9580657262,
				"element": "C" 
			},
			{
				"x": -0.3414134917,
				"y": -3.9388096341,
				"z": -1.4605508349,
				"element": "O" 
			},
			{
				"x": -1.6830070215,
				"y": -2.1680499963,
				"z": -0.6820893865,
				"element": "C" 
			},
			{
				"x": -2.8619379542,
				"y": -2.6298341304,
				"z": -1.2239411118,
				"element": "C" 
			},
			{
				"x": -4.0117813906,
				"y": -1.9480813066,
				"z": -0.7453830739,
				"element": "C" 
			},
			{
				"x": -3.7007130588,
				"y": -0.9826017417,
				"z": 0.1770696771,
				"element": "C" 
			},
			{
				"x": -1.9989203144,
				"y": -0.8775728248,
				"z": 0.4586042279,
				"element": "S" 
			},
			{
				"x": 1.8689108302,
				"y": -0.3975074544,
				"z": 0.6617345948,
				"element": "C" 
			},
			{
				"x": 2.2110537192,
				"y": 0.9413237972,
				"z": 0.8118172892,
				"element": "C" 
			},
			{
				"x": 1.5435899083,
				"y": 6.3535742944,
				"z": 0.0233776618,
				"element": "H" 
			},
			{
				"x": 3.0193755697,
				"y": 6.1036446377,
				"z": -0.9280280588,
				"element": "H" 
			},
			{
				"x": 2.7048028757,
				"y": 3.4092578538,
				"z": 0.9380784671,
				"element": "H" 
			},
			{
				"x": 0.6463763998,
				"y": 2.2249467337,
				"z": -1.9219832413,
				"element": "H" 
			},
			{
				"x": 0.0816774271,
				"y": -0.1708936228,
				"z": -2.2155568312,
				"element": "H" 
			},
			{
				"x": 1.594486613,
				"y": -2.8123278473,
				"z": -0.728352075,
				"element": "H" 
			},
			{
				"x": -2.8716325657,
				"y": -3.448956601,
				"z": -1.9321941658,
				"element": "H" 
			},
			{
				"x": -5.0240737659,
				"y": -2.1661760794,
				"z": -1.0651932752,
				"element": "H" 
			},
			{
				"x": -4.373245149,
				"y": -0.3179786134,
				"z": 0.7027015919,
				"element": "H" 
			},
			{
				"x": 2.19998074,
				"y": -1.1300998832,
				"z": 1.391360801,
				"element": "H" 
			},
			{
				"x": 2.8193597072,
				"y": 1.2483657883,
				"z": 1.6591311802,
				"element": "H" 
			}
		],
		 "valence_orbital": [ 
			{
				"type": "occ",
				"energy": -0.26967,
				"method": "rhf"
			},
			{
				"type": "occ",
				"energy": -0.25877,
				"method": "rhf"
			},
			{
				"type": "occ",
				"energy": -0.2528,
				"method": "rhf"
			},
			{
				"type": "occ",
				"energy": -0.23859,
				"method": "rhf"
			},
			{
				"type": "occ",
				"energy": -0.2234,
				"method": "rhf"
			},
			{
				"type": "unocc",
				"energy": -0.04868,
				"method": "rhf"
			},
			{
				"type": "unocc",
				"energy": -0.02848,
				"method": "rhf"
			},
			{
				"type": "unocc",
				"energy": -0.01773,
				"method": "rhf"
			},
			{
				"type": "unocc",
				"energy": 0.00237,
				"method": "rhf"
			},
			{
				"type": "unocc",
				"energy": 0.0218,
				"method": "rhf"
			}
		],
		"cosmo_sigma_profile": { 
			"-0.025": 0.0,
			"-0.024": 0.0,
			"-0.023": 0.0,
			"-0.022": 0.0,
			"-0.021": 0.0,
			"-0.02": 0.0,
			"-0.019": 0.0,
			"-0.018": 0.0,
			"-0.017": 0.0,
			"-0.016": 0.0,
			"-0.015": 0.0768871303933,
			"-0.014": 0.842530763296,
			"-0.013": 1.80338140327,
			"-0.012": 2.44257717369,
			"-0.011": 1.69374744536,
			"-0.01": 2.22042994609,
			"-0.009": 8.45770688061,
			"-0.008": 7.8654956848,
			"-0.007": 14.3174634194,
			"-0.006": 17.3895867013,
			"-0.005": 17.4424650376,
			"-0.004": 18.0254926024,
			"-0.003": 15.2568395305,
			"-0.002": 13.6746727634,
			"-0.001": 14.823743821,
			"0.0": 20.8781995117,
			"0.001": 25.0727929442,
			"0.002": 25.9582757369,
			"0.003": 31.7501614473,
			"0.004": 25.8864223703,
			"0.005": 11.8239487385,
			"0.006": 3.9739418261,
			"0.007": 3.65044431155,
			"0.008": 2.62755274499,
			"0.009": 3.18068431749,
			"0.01": 2.94736919434,
			"0.011": 4.26232823692,
			"0.012": 5.59277727678,
			"0.013": 6.72353800541,
			"0.014": 2.11897198766,
			"0.015": 0.0,
			"0.016": 0.0,
			"0.017": 0.0,
			"0.018": 0.0,
			"0.019": 0.0,
			"0.02": 0.0,
			"0.021": 0.0,
			"0.022": 0.0,
			"0.023": 0.0,
			"0.024": 0.0,
			"0.025": 0.0
		}
	}
}
