{
	 "smiles": "CC(=O)OCCOC(C)=O", 
	 "Tm": 242.15, 
	 "num_atms": 20, 
	 "gaussian": { 
		 "optdone": 1, 
		 "sigma_profile": "yes", 
		 "theory": "DFT", 
		 "functional": "B3LYP", 
		 "basiset": "6-31G**", 
		 "properties": { 
			 "R2extent": 1894.8302, 
			 "electric_dipole_moment_norm": 2.90283167614, 
			 "electric_quadrupole_moment_norm": 3.90385322854, 
			 "total_energy": -535.587289035, 
			 "HOMO_LUMO_gap": 0.27535, 
			 "cosmo_polarized_energy": -10.46, 
			 "cosmo_cavitation_energy": 24.08, 
			 "cosmo_dispersion_energy": -17.04, 
			 "cosmo_repulsion_energy": 1.42, 
			 "cosmo_total_nonelectrostatic_energy": 8.46, 
			 "SMD_solvation_energy": 6.55 
		},
		"coords": [
			{
				"x": 2.3610778379,
				"y": -1.5316715672,
				"z": 1.234171705,
				"element": "C" 
			},
			{
				"x": 0.8576303315,
				"y": -1.5605522343,
				"z": 1.1576834904,
				"element": "C" 
			},
			{
				"x": 0.094785566,
				"y": -1.1419037011,
				"z": 1.999784938,
				"element": "O" 
			},
			{
				"x": 0.4451983665,
				"y": -2.1041222382,
				"z": -0.0207180407,
				"element": "O" 
			},
			{
				"x": -0.9633252636,
				"y": -2.0185858477,
				"z": -0.2897854802,
				"element": "C" 
			},
			{
				"x": -1.3447798781,
				"y": -0.644030232,
				"z": -0.8163494945,
				"element": "C" 
			},
			{
				"x": -0.7213398945,
				"y": -0.393421055,
				"z": -2.0919237284,
				"element": "O" 
			},
			{
				"x": 0.4437346298,
				"y": 0.3018587112,
				"z": -2.0894566765,
				"element": "C" 
			},
			{
				"x": 0.9755978632,
				"y": 0.4394740226,
				"z": -3.4956867376,
				"element": "C" 
			},
			{
				"x": 0.9725470777,
				"y": 0.7475298877,
				"z": -1.0945570294,
				"element": "O" 
			},
			{
				"x": 2.7111794169,
				"y": -0.6986437678,
				"z": 0.6154740255,
				"element": "H" 
			},
			{
				"x": 2.7941807414,
				"y": -2.4528167345,
				"z": 0.8377256006,
				"element": "H" 
			},
			{
				"x": 2.672109652,
				"y": -1.3710520144,
				"z": 2.2662633395,
				"element": "H" 
			},
			{
				"x": -1.5333750719,
				"y": -2.2295628469,
				"z": 0.6195274855,
				"element": "H" 
			},
			{
				"x": -1.1590500063,
				"y": -2.7871447028,
				"z": -1.0408306242,
				"element": "H" 
			},
			{
				"x": -2.4224348356,
				"y": -0.6077759139,
				"z": -0.9996994074,
				"element": "H" 
			},
			{
				"x": -1.0629542475,
				"y": 0.1341538584,
				"z": -0.1058545837,
				"element": "H" 
			},
			{
				"x": 1.8548771621,
				"y": 1.0826945401,
				"z": -3.4896020455,
				"element": "H" 
			},
			{
				"x": 0.2074747618,
				"y": 0.8534137135,
				"z": -4.1545286253,
				"element": "H" 
			},
			{
				"x": 1.2433657906,
				"y": -0.5475418779,
				"z": -3.8855381109,
				"element": "H" 
			}
		],
		 "valence_orbital": [ 
			{
				"type": "occ",
				"energy": -0.3469,
				"method": "rhf"
			},
			{
				"type": "occ",
				"energy": -0.3176,
				"method": "rhf"
			},
			{
				"type": "occ",
				"energy": -0.28908,
				"method": "rhf"
			},
			{
				"type": "occ",
				"energy": -0.27488,
				"method": "rhf"
			},
			{
				"type": "occ",
				"energy": -0.268,
				"method": "rhf"
			},
			{
				"type": "unocc",
				"energy": 0.00735,
				"method": "rhf"
			},
			{
				"type": "unocc",
				"energy": 0.01745,
				"method": "rhf"
			},
			{
				"type": "unocc",
				"energy": 0.10019,
				"method": "rhf"
			},
			{
				"type": "unocc",
				"energy": 0.11406,
				"method": "rhf"
			},
			{
				"type": "unocc",
				"energy": 0.11849,
				"method": "rhf"
			}
		],
		"cosmo_sigma_profile": { 
			"-0.025": 0.0,
			"-0.024": 0.0,
			"-0.023": 0.0,
			"-0.022": 0.0,
			"-0.021": 0.0,
			"-0.02": 0.0,
			"-0.019": 0.0,
			"-0.018": 0.0,
			"-0.017": 0.0,
			"-0.016": 0.0,
			"-0.015": 0.0,
			"-0.014": 0.0,
			"-0.013": 0.0,
			"-0.012": 0.0,
			"-0.011": 0.0,
			"-0.01": 0.0,
			"-0.009": 0.0,
			"-0.008": 0.362251384984,
			"-0.007": 6.6100916762,
			"-0.006": 14.6746166915,
			"-0.005": 16.2395158203,
			"-0.004": 19.6550828988,
			"-0.003": 19.3509069147,
			"-0.002": 21.527692969,
			"-0.001": 14.9199225838,
			"0.0": 7.09536807905,
			"0.001": 6.66132082798,
			"0.002": 8.06765065485,
			"0.003": 8.2942620217,
			"0.004": 6.69527504611,
			"0.005": 6.14199340402,
			"0.006": 4.40718108562,
			"0.007": 4.81998273765,
			"0.008": 4.45158976648,
			"0.009": 4.40178660488,
			"0.01": 3.33931855298,
			"0.011": 5.36211048886,
			"0.012": 5.00301858684,
			"0.013": 1.44993456272,
			"0.014": 0.0,
			"0.015": 0.0,
			"0.016": 0.0,
			"0.017": 0.0,
			"0.018": 0.0,
			"0.019": 0.0,
			"0.02": 0.0,
			"0.021": 0.0,
			"0.022": 0.0,
			"0.023": 0.0,
			"0.024": 0.0,
			"0.025": 0.0
		}
	}
}
