{
	 "smiles": "CCOC(=O)C1=C(C)C2=C(O1)C(Br)=CC=C2", 
	 "Tm": 342.15, 
	 "num_atms": 27, 
	 "gaussian": { 
		 "optdone": 1, 
		 "sigma_profile": "yes", 
		 "theory": "DFT", 
		 "functional": "B3LYP", 
		 "basiset": "6-31G**", 
		 "properties": { 
			 "R2extent": 9386.9961, 
			 "electric_dipole_moment_norm": 1.20812378505, 
			 "electric_quadrupole_moment_norm": 19.0380367446, 
			 "total_energy": -3260.99527929, 
			 "HOMO_LUMO_gap": 0.17081, 
			 "cosmo_polarized_energy": -8.87, 
			 "cosmo_cavitation_energy": 33.85, 
			 "cosmo_dispersion_energy": -24.73, 
			 "cosmo_repulsion_energy": 1.96, 
			 "cosmo_total_nonelectrostatic_energy": 11.08, 
			 "SMD_solvation_energy": 6.05 
		},
		"coords": [
			{
				"x": -0.112167407,
				"y": -1.2373227482,
				"z": -2.9380878825,
				"element": "C" 
			},
			{
				"x": 0.8196274701,
				"y": -0.0925918105,
				"z": -2.5698565171,
				"element": "C" 
			},
			{
				"x": 0.2193565851,
				"y": 0.7747420211,
				"z": -1.5769376997,
				"element": "O" 
			},
			{
				"x": 0.3717324043,
				"y": 0.4071413339,
				"z": -0.2918374614,
				"element": "C" 
			},
			{
				"x": 0.9761083703,
				"y": -0.5854693729,
				"z": 0.078409906,
				"element": "O" 
			},
			{
				"x": -0.2762879248,
				"y": 1.3513077516,
				"z": 0.6321587615,
				"element": "C" 
			},
			{
				"x": -0.3497684747,
				"y": 1.3399180706,
				"z": 2.0011576473,
				"element": "C" 
			},
			{
				"x": 0.2210667233,
				"y": 0.3433905483,
				"z": 2.9600934779,
				"element": "C" 
			},
			{
				"x": -1.1106204773,
				"y": 2.5166737882,
				"z": 2.3503078401,
				"element": "C" 
			},
			{
				"x": -1.431848196,
				"y": 3.1403643915,
				"z": 1.1293747839,
				"element": "C" 
			},
			{
				"x": -0.930013694,
				"y": 2.4408219787,
				"z": 0.0838255695,
				"element": "O" 
			},
			{
				"x": -2.1708553008,
				"y": 4.3195843984,
				"z": 1.0684388338,
				"element": "C" 
			},
			{
				"x": -2.5825627204,
				"y": 5.1283503261,
				"z": -0.5994826421,
				"element": "Br" 
			},
			{
				"x": -2.5926971651,
				"y": 4.8778766836,
				"z": 2.2703088235,
				"element": "C" 
			},
			{
				"x": -2.2790009572,
				"y": 4.2654508276,
				"z": 3.4997605415,
				"element": "C" 
			},
			{
				"x": -1.5417422789,
				"y": 3.0891750757,
				"z": 3.5578854173,
				"element": "C" 
			},
			{
				"x": 0.3304386684,
				"y": -1.8290874032,
				"z": -3.7463000153,
				"element": "H" 
			},
			{
				"x": -1.0791469645,
				"y": -0.85703157,
				"z": -3.2797268357,
				"element": "H" 
			},
			{
				"x": -0.2718087906,
				"y": -1.8947551703,
				"z": -2.0800177118,
				"element": "H" 
			},
			{
				"x": 1.7713248995,
				"y": -0.4654604415,
				"z": -2.1840615012,
				"element": "H" 
			},
			{
				"x": 1.0037869116,
				"y": 0.5653966493,
				"z": -3.4219748587,
				"element": "H" 
			},
			{
				"x": 0.7451407157,
				"y": -0.4496209252,
				"z": 2.4283418876,
				"element": "H" 
			},
			{
				"x": -0.5737197566,
				"y": -0.1018338868,
				"z": 3.5700899014,
				"element": "H" 
			},
			{
				"x": 0.9209373642,
				"y": 0.8304840395,
				"z": 3.6494090608,
				"element": "H" 
			},
			{
				"x": -3.1695051463,
				"y": 5.7956838699,
				"z": 2.2527772426,
				"element": "H" 
			},
			{
				"x": -2.6263855794,
				"y": 4.7320764967,
				"z": 4.4162682527,
				"element": "H" 
			},
			{
				"x": -1.305389279,
				"y": 2.6254350779,
				"z": 4.5102751781,
				"element": "H" 
			}
		],
		 "valence_orbital": [ 
			{
				"type": "occ",
				"energy": -0.28921,
				"method": "rhf"
			},
			{
				"type": "occ",
				"energy": -0.2794,
				"method": "rhf"
			},
			{
				"type": "occ",
				"energy": -0.27861,
				"method": "rhf"
			},
			{
				"type": "occ",
				"energy": -0.24773,
				"method": "rhf"
			},
			{
				"type": "occ",
				"energy": -0.23054,
				"method": "rhf"
			},
			{
				"type": "unocc",
				"energy": -0.05973,
				"method": "rhf"
			},
			{
				"type": "unocc",
				"energy": -0.00511,
				"method": "rhf"
			},
			{
				"type": "unocc",
				"energy": 0.00516,
				"method": "rhf"
			},
			{
				"type": "unocc",
				"energy": 0.01088,
				"method": "rhf"
			},
			{
				"type": "unocc",
				"energy": 0.09633,
				"method": "rhf"
			}
		],
		"cosmo_sigma_profile": { 
			"-0.025": 0.0,
			"-0.024": 0.0,
			"-0.023": 0.0,
			"-0.022": 0.0,
			"-0.021": 0.0,
			"-0.02": 0.0,
			"-0.019": 0.0,
			"-0.018": 0.0,
			"-0.017": 0.0,
			"-0.016": 0.0,
			"-0.015": 0.0,
			"-0.014": 0.0,
			"-0.013": 0.0,
			"-0.012": 0.0,
			"-0.011": 0.0,
			"-0.01": 0.0,
			"-0.009": 0.0,
			"-0.008": 0.397070663946,
			"-0.007": 4.49149012947,
			"-0.006": 8.76297534459,
			"-0.005": 18.119092244,
			"-0.004": 24.0652904277,
			"-0.003": 24.332147325,
			"-0.002": 23.9525664052,
			"-0.001": 27.5856052447,
			"0.0": 32.0966656965,
			"0.001": 23.7836163556,
			"0.002": 19.1709399593,
			"0.003": 20.538276369,
			"0.004": 16.551958441,
			"0.005": 6.41175048197,
			"0.006": 4.55460217114,
			"0.007": 3.34853745654,
			"0.008": 3.81797055559,
			"0.009": 3.0585040422,
			"0.01": 3.65924114195,
			"0.011": 3.67795011049,
			"0.012": 1.30058640406,
			"0.013": 0.0,
			"0.014": 0.0,
			"0.015": 0.0,
			"0.016": 0.0,
			"0.017": 0.0,
			"0.018": 0.0,
			"0.019": 0.0,
			"0.02": 0.0,
			"0.021": 0.0,
			"0.022": 0.0,
			"0.023": 0.0,
			"0.024": 0.0,
			"0.025": 0.0
		}
	}
}
