{
	 "smiles": "ONC(=O)C1=C(C=CC=C1)C(F)(F)F", 
	 "Tm": 431.15, 
	 "num_atms": 20, 
	 "gaussian": { 
		 "optdone": 1, 
		 "sigma_profile": "yes", 
		 "theory": "DFT", 
		 "functional": "B3LYP", 
		 "basiset": "6-31G**", 
		 "properties": { 
			 "R2extent": 2939.7993, 
			 "electric_dipole_moment_norm": 5.01048562616, 
			 "electric_quadrupole_moment_norm": 10.5352663569, 
			 "total_energy": -813.133552226, 
			 "HOMO_LUMO_gap": 0.21135, 
			 "cosmo_polarized_energy": -15.14, 
			 "cosmo_cavitation_energy": 26.19, 
			 "cosmo_dispersion_energy": -18.27, 
			 "cosmo_repulsion_energy": 1.4, 
			 "cosmo_total_nonelectrostatic_energy": 9.32, 
			 "SMD_solvation_energy": 7.03 
		},
		"coords": [
			{
				"x": 0.4607740289,
				"y": -0.7356053031,
				"z": 3.8235839372,
				"element": "O" 
			},
			{
				"x": 1.4484197053,
				"y": -0.8157288512,
				"z": 2.8171129193,
				"element": "N" 
			},
			{
				"x": 1.0906451129,
				"y": -0.3815392609,
				"z": 1.5448782615,
				"element": "C" 
			},
			{
				"x": 1.9326854559,
				"y": 0.0730390721,
				"z": 0.7915338255,
				"element": "O" 
			},
			{
				"x": -0.3331193885,
				"y": -0.6500115039,
				"z": 1.1353059638,
				"element": "C" 
			},
			{
				"x": -1.1549130803,
				"y": 0.3536853768,
				"z": 0.5934497365,
				"element": "C" 
			},
			{
				"x": -2.4359927066,
				"y": 0.0318240759,
				"z": 0.14025921,
				"element": "C" 
			},
			{
				"x": -2.9037043156,
				"y": -1.2803224229,
				"z": 0.2068728746,
				"element": "C" 
			},
			{
				"x": -2.0925510495,
				"y": -2.2795656978,
				"z": 0.7421535944,
				"element": "C" 
			},
			{
				"x": -0.8186967374,
				"y": -1.9604725619,
				"z": 1.2106198431,
				"element": "C" 
			},
			{
				"x": -0.6889333931,
				"y": 1.7900447439,
				"z": 0.4959257324,
				"element": "C" 
			},
			{
				"x": 0.12629273,
				"y": 1.9913846053,
				"z": -0.5548411887,
				"element": "F" 
			},
			{
				"x": -1.7380345867,
				"y": 2.6341945276,
				"z": 0.3482213084,
				"element": "F" 
			},
			{
				"x": -0.026914658,
				"y": 2.1770402962,
				"z": 1.6087222754,
				"element": "F" 
			},
			{
				"x": 0.3190344989,
				"y": -1.6561817588,
				"z": 4.0888117204,
				"element": "H" 
			},
			{
				"x": 2.3218515062,
				"y": -0.4040205222,
				"z": 3.1360718969,
				"element": "H" 
			},
			{
				"x": -3.068322508,
				"y": 0.8168469692,
				"z": -0.2574266329,
				"element": "H" 
			},
			{
				"x": -3.899746502,
				"y": -1.5168185404,
				"z": -0.1542810077,
				"element": "H" 
			},
			{
				"x": -2.448006845,
				"y": -3.3042129728,
				"z": 0.7961630378,
				"element": "H" 
			},
			{
				"x": -0.1790672674,
				"y": -2.7377802711,
				"z": 1.6180626918,
				"element": "H" 
			}
		],
		 "valence_orbital": [ 
			{
				"type": "occ",
				"energy": -0.3318,
				"method": "rhf"
			},
			{
				"type": "occ",
				"energy": -0.28306,
				"method": "rhf"
			},
			{
				"type": "occ",
				"energy": -0.27556,
				"method": "rhf"
			},
			{
				"type": "occ",
				"energy": -0.27381,
				"method": "rhf"
			},
			{
				"type": "occ",
				"energy": -0.25764,
				"method": "rhf"
			},
			{
				"type": "unocc",
				"energy": -0.04629,
				"method": "rhf"
			},
			{
				"type": "unocc",
				"energy": -0.02874,
				"method": "rhf"
			},
			{
				"type": "unocc",
				"energy": 0.01278,
				"method": "rhf"
			},
			{
				"type": "unocc",
				"energy": 0.05311,
				"method": "rhf"
			},
			{
				"type": "unocc",
				"energy": 0.08514,
				"method": "rhf"
			}
		],
		"cosmo_sigma_profile": { 
			"-0.025": 0.0,
			"-0.024": 0.0,
			"-0.023": 0.0,
			"-0.022": 0.0,
			"-0.021": 0.0,
			"-0.02": 0.0,
			"-0.019": 0.0,
			"-0.018": 0.218962655092,
			"-0.017": 0.825577948911,
			"-0.016": 1.15480399562,
			"-0.015": 1.4238844426,
			"-0.014": 1.96853109311,
			"-0.013": 1.61871126164,
			"-0.012": 1.76678386824,
			"-0.011": 1.09870576265,
			"-0.01": 2.72839329889,
			"-0.009": 2.31441500305,
			"-0.008": 2.10110387405,
			"-0.007": 9.48391328122,
			"-0.006": 10.8860218874,
			"-0.005": 9.65029763185,
			"-0.004": 9.17490617317,
			"-0.003": 8.37628246284,
			"-0.002": 8.02043461981,
			"-0.001": 10.9263973421,
			"0.0": 11.3138277541,
			"0.001": 15.3371913787,
			"0.002": 29.650042544,
			"0.003": 30.7829050095,
			"0.004": 5.81942175432,
			"0.005": 4.1604982765,
			"0.006": 4.21199671763,
			"0.007": 3.94403174804,
			"0.008": 3.28446669789,
			"0.009": 2.91800217271,
			"0.01": 5.0686899506,
			"0.011": 3.39314857234,
			"0.012": 4.94282200813,
			"0.013": 0.663440197358,
			"0.014": 0.0,
			"0.015": 0.0,
			"0.016": 0.0,
			"0.017": 0.0,
			"0.018": 0.0,
			"0.019": 0.0,
			"0.02": 0.0,
			"0.021": 0.0,
			"0.022": 0.0,
			"0.023": 0.0,
			"0.024": 0.0,
			"0.025": 0.0
		}
	}
}
