{
	 "smiles": "CNCC1CCN(CC1)C1=CC=NC=C1", 
	 "Tm": 339.15, 
	 "num_atms": 34, 
	 "gaussian": { 
		 "optdone": 1, 
		 "sigma_profile": "yes", 
		 "theory": "DFT", 
		 "functional": "B3LYP", 
		 "basiset": "6-31G**", 
		 "properties": { 
			 "R2extent": 4799.7931, 
			 "electric_dipole_moment_norm": 5.80391263632, 
			 "electric_quadrupole_moment_norm": 17.2741399126, 
			 "total_energy": -632.969221453, 
			 "HOMO_LUMO_gap": 0.20634, 
			 "cosmo_polarized_energy": -11.56, 
			 "cosmo_cavitation_energy": 34.11, 
			 "cosmo_dispersion_energy": -24.83, 
			 "cosmo_repulsion_energy": 1.93, 
			 "cosmo_total_nonelectrostatic_energy": 11.22, 
			 "SMD_solvation_energy": 1.82 
		},
		"coords": [
			{
				"x": 1.1563080416,
				"y": 4.2065319809,
				"z": 0.39506915,
				"element": "C" 
			},
			{
				"x": 0.0299924179,
				"y": 3.8254487417,
				"z": -0.4516646787,
				"element": "N" 
			},
			{
				"x": 0.3139830665,
				"y": 2.7225296016,
				"z": -1.3703679926,
				"element": "C" 
			},
			{
				"x": 0.2077122662,
				"y": 1.3443628552,
				"z": -0.6985210416,
				"element": "C" 
			},
			{
				"x": 0.6572213663,
				"y": 0.2134991161,
				"z": -1.6580599787,
				"element": "C" 
			},
			{
				"x": -0.1309237743,
				"y": -1.087650864,
				"z": -1.4105380729,
				"element": "C" 
			},
			{
				"x": -0.3966992231,
				"y": -1.2868757044,
				"z": 0.0120629871,
				"element": "N" 
			},
			{
				"x": -1.2192794927,
				"y": -0.2471347969,
				"z": 0.6416736179,
				"element": "C" 
			},
			{
				"x": -1.2049546073,
				"y": 1.0498785064,
				"z": -0.1793698047,
				"element": "C" 
			},
			{
				"x": -0.1777652155,
				"y": -2.4803294688,
				"z": 0.6693328592,
				"element": "C" 
			},
			{
				"x": 0.6194510174,
				"y": -3.5251855596,
				"z": 0.1430827196,
				"element": "C" 
			},
			{
				"x": 0.8133000812,
				"y": -4.68297661,
				"z": 0.8844595856,
				"element": "C" 
			},
			{
				"x": 0.2971736,
				"y": -4.9188197376,
				"z": 2.1001638405,
				"element": "N" 
			},
			{
				"x": -0.4573415213,
				"y": -3.9299894522,
				"z": 2.5956154092,
				"element": "C" 
			},
			{
				"x": -0.7264273452,
				"y": -2.7275073371,
				"z": 1.9504514461,
				"element": "C" 
			},
			{
				"x": 1.3831409978,
				"y": 3.4062018558,
				"z": 1.1069491357,
				"element": "H" 
			},
			{
				"x": 0.8896555767,
				"y": 5.0926640664,
				"z": 0.9787371014,
				"element": "H" 
			},
			{
				"x": 2.0853074762,
				"y": 4.4258944979,
				"z": -0.1627633406,
				"element": "H" 
			},
			{
				"x": -0.2693570696,
				"y": 4.6345143339,
				"z": -0.9864751298,
				"element": "H" 
			},
			{
				"x": -0.4195440044,
				"y": 2.7661135443,
				"z": -2.1861527686,
				"element": "H" 
			},
			{
				"x": 1.3133306208,
				"y": 2.8130409978,
				"z": -1.8394157257,
				"element": "H" 
			},
			{
				"x": 0.8804073822,
				"y": 1.334578572,
				"z": 0.16991283,
				"element": "H" 
			},
			{
				"x": 0.5009882284,
				"y": 0.5140346695,
				"z": -2.7030648723,
				"element": "H" 
			},
			{
				"x": 1.7307952366,
				"y": 0.0299961572,
				"z": -1.5408497899,
				"element": "H" 
			},
			{
				"x": -1.0846775128,
				"y": -1.0556666483,
				"z": -1.9591774938,
				"element": "H" 
			},
			{
				"x": 0.415303489,
				"y": -1.9400372927,
				"z": -1.8087672675,
				"element": "H" 
			},
			{
				"x": -2.254688814,
				"y": -0.5955398748,
				"z": 0.7873467774,
				"element": "H" 
			},
			{
				"x": -0.8089562377,
				"y": -0.040634295,
				"z": 1.6384559796,
				"element": "H" 
			},
			{
				"x": -1.5551901318,
				"y": 1.8776394754,
				"z": 0.442939729,
				"element": "H" 
			},
			{
				"x": -1.9010045604,
				"y": 0.978843872,
				"z": -1.0259833274,
				"element": "H" 
			},
			{
				"x": 1.1027020698,
				"y": -3.4450885395,
				"z": -0.8229691093,
				"element": "H" 
			},
			{
				"x": 1.4324246667,
				"y": -5.4766027882,
				"z": 0.4671225154,
				"element": "H" 
			},
			{
				"x": -0.8884596563,
				"y": -4.1057244,
				"z": 3.5809499221,
				"element": "H" 
			},
			{
				"x": -1.3642284349,
				"y": -2.003909475,
				"z": 2.4413147882,
				"element": "H" 
			}
		],
		 "valence_orbital": [ 
			{
				"type": "occ",
				"energy": -0.29522,
				"method": "rhf"
			},
			{
				"type": "occ",
				"energy": -0.24394,
				"method": "rhf"
			},
			{
				"type": "occ",
				"energy": -0.23467,
				"method": "rhf"
			},
			{
				"type": "occ",
				"energy": -0.22713,
				"method": "rhf"
			},
			{
				"type": "occ",
				"energy": -0.19898,
				"method": "rhf"
			},
			{
				"type": "unocc",
				"energy": 0.00736,
				"method": "rhf"
			},
			{
				"type": "unocc",
				"energy": 0.01236,
				"method": "rhf"
			},
			{
				"type": "unocc",
				"energy": 0.07011,
				"method": "rhf"
			},
			{
				"type": "unocc",
				"energy": 0.08502,
				"method": "rhf"
			},
			{
				"type": "unocc",
				"energy": 0.09329,
				"method": "rhf"
			}
		],
		"cosmo_sigma_profile": { 
			"-0.025": 0.0,
			"-0.024": 0.0,
			"-0.023": 0.0,
			"-0.022": 0.0,
			"-0.021": 0.0,
			"-0.02": 0.0,
			"-0.019": 0.0,
			"-0.018": 0.0,
			"-0.017": 0.0,
			"-0.016": 0.0,
			"-0.015": 0.0,
			"-0.014": 0.0,
			"-0.013": 0.0,
			"-0.012": 0.0,
			"-0.011": 0.0,
			"-0.01": 0.677445461286,
			"-0.009": 1.47514515572,
			"-0.008": 2.23182523401,
			"-0.007": 2.46220371777,
			"-0.006": 5.25957409274,
			"-0.005": 10.748011406,
			"-0.004": 20.3086378449,
			"-0.003": 35.8116652141,
			"-0.002": 38.1421477745,
			"-0.001": 36.0358082216,
			"0.0": 29.6713053307,
			"0.001": 13.6803973785,
			"0.002": 8.22833806669,
			"0.003": 8.90437814197,
			"0.004": 14.8460756362,
			"0.005": 13.4085071281,
			"0.006": 2.98668779677,
			"0.007": 3.25404289297,
			"0.008": 1.91065784279,
			"0.009": 2.53411174677,
			"0.01": 2.37693122597,
			"0.011": 1.28770411835,
			"0.012": 2.62407700024,
			"0.013": 1.2744946702,
			"0.014": 1.62945379913,
			"0.015": 1.19897200164,
			"0.016": 1.09245481213,
			"0.017": 1.11947864985,
			"0.018": 0.658679779982,
			"0.019": 0.222178744467,
			"0.02": 0.0,
			"0.021": 0.0,
			"0.022": 0.0,
			"0.023": 0.0,
			"0.024": 0.0,
			"0.025": 0.0
		}
	}
}
