{
	 "smiles": "COC(=O)NC=CC1=CC=CC=C1[N+]([O-])=O", 
	 "Tm": 420.15, 
	 "num_atms": 26, 
	 "gaussian": { 
		 "optdone": 1, 
		 "sigma_profile": "yes", 
		 "theory": "DFT", 
		 "functional": "B3LYP", 
		 "basiset": "6-31G**", 
		 "properties": { 
			 "R2extent": 4789.406, 
			 "electric_dipole_moment_norm": 4.37346318036, 
			 "electric_quadrupole_moment_norm": 10.0473442173, 
			 "total_energy": -797.380709979, 
			 "HOMO_LUMO_gap": 0.13847, 
			 "cosmo_polarized_energy": -15.76, 
			 "cosmo_cavitation_energy": 31.93, 
			 "cosmo_dispersion_energy": -22.61, 
			 "cosmo_repulsion_energy": 1.78, 
			 "cosmo_total_nonelectrostatic_energy": 11.1, 
			 "SMD_solvation_energy": 9.83 
		},
		"coords": [
			{
				"x": -0.6089910689,
				"y": -0.1506790074,
				"z": -4.1431679589,
				"element": "C" 
			},
			{
				"x": -0.3174280877,
				"y": 0.0233778656,
				"z": -2.7452367496,
				"element": "O" 
			},
			{
				"x": 0.0643723395,
				"y": 1.2713028013,
				"z": -2.4070654645,
				"element": "C" 
			},
			{
				"x": 0.1831465811,
				"y": 2.1970499402,
				"z": -3.1858082773,
				"element": "O" 
			},
			{
				"x": 0.3196919646,
				"y": 1.4056403432,
				"z": -1.054330677,
				"element": "N" 
			},
			{
				"x": 0.2247435414,
				"y": 0.5198179424,
				"z": 0.0174691332,
				"element": "C" 
			},
			{
				"x": -0.0959964287,
				"y": -0.7870355913,
				"z": 0.0134433273,
				"element": "C" 
			},
			{
				"x": -0.1215788706,
				"y": -1.6377439138,
				"z": 1.2090746272,
				"element": "C" 
			},
			{
				"x": 0.2538713435,
				"y": -2.9885929845,
				"z": 1.0564060366,
				"element": "C" 
			},
			{
				"x": 0.3422349635,
				"y": -3.8654537693,
				"z": 2.1326797666,
				"element": "C" 
			},
			{
				"x": 0.0703926859,
				"y": -3.4194137721,
				"z": 3.4284512676,
				"element": "C" 
			},
			{
				"x": -0.3160310645,
				"y": -2.097342517,
				"z": 3.6216644932,
				"element": "C" 
			},
			{
				"x": -0.440476798,
				"y": -1.2428542914,
				"z": 2.52591269,
				"element": "C" 
			},
			{
				"x": -0.9933309125,
				"y": 0.0902837507,
				"z": 2.8333767555,
				"element": "N" 
			},
			{
				"x": -1.907247472,
				"y": 0.5138263381,
				"z": 2.1308171145,
				"element": "O" 
			},
			{
				"x": -0.5252745376,
				"y": 0.6779216289,
				"z": 3.8109760041,
				"element": "O" 
			},
			{
				"x": -1.4224859217,
				"y": 0.510283995,
				"z": -4.4499796345,
				"element": "H" 
			},
			{
				"x": -0.9023652431,
				"y": -1.1947682012,
				"z": -4.2494690263,
				"element": "H" 
			},
			{
				"x": 0.2738149402,
				"y": 0.0654285826,
				"z": -4.7489278289,
				"element": "H" 
			},
			{
				"x": 0.5926252209,
				"y": 2.3518222532,
				"z": -0.832390611,
				"element": "H" 
			},
			{
				"x": 0.4722407499,
				"y": 1.0202024365,
				"z": 0.9478875867,
				"element": "H" 
			},
			{
				"x": -0.2761872031,
				"y": -1.2909440797,
				"z": -0.9270456012,
				"element": "H" 
			},
			{
				"x": 0.5040792719,
				"y": -3.3373972336,
				"z": 0.0586427671,
				"element": "H" 
			},
			{
				"x": 0.6369411306,
				"y": -4.8965375056,
				"z": 1.9613276825,
				"element": "H" 
			},
			{
				"x": 0.1485037659,
				"y": -4.0922873105,
				"z": 4.2760368966,
				"element": "H" 
			},
			{
				"x": -0.5500648906,
				"y": -1.7152077004,
				"z": 4.6085556805,
				"element": "H" 
			}
		],
		 "valence_orbital": [ 
			{
				"type": "occ",
				"energy": -0.30147,
				"method": "rhf"
			},
			{
				"type": "occ",
				"energy": -0.28955,
				"method": "rhf"
			},
			{
				"type": "occ",
				"energy": -0.28376,
				"method": "rhf"
			},
			{
				"type": "occ",
				"energy": -0.26523,
				"method": "rhf"
			},
			{
				"type": "occ",
				"energy": -0.2181,
				"method": "rhf"
			},
			{
				"type": "unocc",
				"energy": -0.07963,
				"method": "rhf"
			},
			{
				"type": "unocc",
				"energy": -0.03688,
				"method": "rhf"
			},
			{
				"type": "unocc",
				"energy": -0.01461,
				"method": "rhf"
			},
			{
				"type": "unocc",
				"energy": 0.02127,
				"method": "rhf"
			},
			{
				"type": "unocc",
				"energy": 0.06459,
				"method": "rhf"
			}
		],
		"cosmo_sigma_profile": { 
			"-0.025": 0.0,
			"-0.024": 0.0,
			"-0.023": 0.0,
			"-0.022": 0.0,
			"-0.021": 0.0,
			"-0.02": 0.0,
			"-0.019": 0.0,
			"-0.018": 0.0,
			"-0.017": 0.0280108869946,
			"-0.016": 1.21544066019,
			"-0.015": 1.40984982948,
			"-0.014": 0.97543237334,
			"-0.013": 1.06719109462,
			"-0.012": 1.61789408188,
			"-0.011": 0.85427298225,
			"-0.01": 0.972285480869,
			"-0.009": 2.13153507926,
			"-0.008": 2.80923372654,
			"-0.007": 10.6191797411,
			"-0.006": 18.6302777395,
			"-0.005": 18.4589883533,
			"-0.004": 19.1110719331,
			"-0.003": 15.8998913611,
			"-0.002": 13.733663108,
			"-0.001": 14.69365622,
			"0.0": 13.1208643961,
			"0.001": 16.1738577247,
			"0.002": 20.7734262068,
			"0.003": 18.5519882377,
			"0.004": 9.68654558584,
			"0.005": 5.84313732422,
			"0.006": 5.45280559103,
			"0.007": 8.6461986222,
			"0.008": 10.6313351674,
			"0.009": 8.22722304828,
			"0.01": 4.19182012981,
			"0.011": 2.24144730759,
			"0.012": 5.23530381675,
			"0.013": 2.22667261795,
			"0.014": 0.0,
			"0.015": 0.0,
			"0.016": 0.0,
			"0.017": 0.0,
			"0.018": 0.0,
			"0.019": 0.0,
			"0.02": 0.0,
			"0.021": 0.0,
			"0.022": 0.0,
			"0.023": 0.0,
			"0.024": 0.0,
			"0.025": 0.0
		}
	}
}
