{
	 "smiles": "[O-][N+](=O)C1=C(Cl)C=C(Cl)C=C1Cl", 
	 "Tm": 344.65, 
	 "num_atms": 14, 
	 "gaussian": { 
		 "optdone": 1, 
		 "sigma_profile": "yes", 
		 "theory": "DFT", 
		 "functional": "B3LYP", 
		 "basiset": "6-31G**", 
		 "properties": { 
			 "R2extent": 4487.1195, 
			 "electric_dipole_moment_norm": 3.30964029617, 
			 "electric_quadrupole_moment_norm": 11.9385985053, 
			 "total_energy": -1815.49336154, 
			 "HOMO_LUMO_gap": 0.18839, 
			 "cosmo_polarized_energy": -6.72, 
			 "cosmo_cavitation_energy": 25.56, 
			 "cosmo_dispersion_energy": -18.48, 
			 "cosmo_repulsion_energy": 1.48, 
			 "cosmo_total_nonelectrostatic_energy": 8.56, 
			 "SMD_solvation_energy": 6.27 
		},
		"coords": [
			{
				"x": -3.5369269379,
				"y": -0.851809446,
				"z": 1.5740889841,
				"element": "O" 
			},
			{
				"x": -3.2597723631,
				"y": -0.8764491514,
				"z": 0.382207977,
				"element": "N" 
			},
			{
				"x": -3.7192622262,
				"y": -1.6312831681,
				"z": -0.4646070811,
				"element": "O" 
			},
			{
				"x": -2.2643926074,
				"y": 0.110157029,
				"z": -0.0840222584,
				"element": "C" 
			},
			{
				"x": -2.6825903666,
				"y": 1.3661956256,
				"z": -0.5271413584,
				"element": "C" 
			},
			{
				"x": -4.3748360173,
				"y": 1.7767411773,
				"z": -0.5331777261,
				"element": "Cl" 
			},
			{
				"x": -1.7494055871,
				"y": 2.3025928731,
				"z": -0.9685499194,
				"element": "C" 
			},
			{
				"x": -0.3981394229,
				"y": 1.9599651557,
				"z": -0.958042502,
				"element": "C" 
			},
			{
				"x": 0.7792641152,
				"y": 3.127035397,
				"z": -1.509421754,
				"element": "Cl" 
			},
			{
				"x": 0.0386557445,
				"y": 0.710911321,
				"z": -0.5192914597,
				"element": "C" 
			},
			{
				"x": -0.9066865849,
				"y": -0.2146636248,
				"z": -0.0809378484,
				"element": "C" 
			},
			{
				"x": -0.379424034,
				"y": -1.7799474338,
				"z": 0.470598975,
				"element": "Cl" 
			},
			{
				"x": -2.0751053558,
				"y": 3.2762712777,
				"z": -1.3119114874,
				"element": "H" 
			},
			{
				"x": 1.0912216435,
				"y": 0.4576829677,
				"z": -0.5163925413,
				"element": "H" 
			}
		],
		 "valence_orbital": [ 
			{
				"type": "occ",
				"energy": -0.33052,
				"method": "rhf"
			},
			{
				"type": "occ",
				"energy": -0.32428,
				"method": "rhf"
			},
			{
				"type": "occ",
				"energy": -0.32372,
				"method": "rhf"
			},
			{
				"type": "occ",
				"energy": -0.28487,
				"method": "rhf"
			},
			{
				"type": "occ",
				"energy": -0.2778,
				"method": "rhf"
			},
			{
				"type": "unocc",
				"energy": -0.08941,
				"method": "rhf"
			},
			{
				"type": "unocc",
				"energy": -0.0604,
				"method": "rhf"
			},
			{
				"type": "unocc",
				"energy": -0.06019,
				"method": "rhf"
			},
			{
				"type": "unocc",
				"energy": -0.03728,
				"method": "rhf"
			},
			{
				"type": "unocc",
				"energy": 0.02151,
				"method": "rhf"
			}
		],
		"cosmo_sigma_profile": { 
			"-0.025": 0.0,
			"-0.024": 0.0,
			"-0.023": 0.0,
			"-0.022": 0.0,
			"-0.021": 0.0,
			"-0.02": 0.0,
			"-0.019": 0.0,
			"-0.018": 0.0,
			"-0.017": 0.0,
			"-0.016": 0.0,
			"-0.015": 0.0,
			"-0.014": 0.0,
			"-0.013": 0.0,
			"-0.012": 0.0,
			"-0.011": 0.0405124584506,
			"-0.01": 2.36862276673,
			"-0.009": 2.74370562045,
			"-0.008": 3.24014271509,
			"-0.007": 3.16919476616,
			"-0.006": 3.99794942553,
			"-0.005": 4.22479379646,
			"-0.004": 7.75413966132,
			"-0.003": 18.1487603931,
			"-0.002": 30.6549452871,
			"-0.001": 23.2782765999,
			"0.0": 20.1687253638,
			"0.001": 19.6059255474,
			"0.002": 25.8642569592,
			"0.003": 16.3287629907,
			"0.004": 5.10138698096,
			"0.005": 5.75987519861,
			"0.006": 10.8521912821,
			"0.007": 7.01662434022,
			"0.008": 2.89075363465,
			"0.009": 0.168001961952,
			"0.01": 0.0,
			"0.011": 0.0,
			"0.012": 0.0,
			"0.013": 0.0,
			"0.014": 0.0,
			"0.015": 0.0,
			"0.016": 0.0,
			"0.017": 0.0,
			"0.018": 0.0,
			"0.019": 0.0,
			"0.02": 0.0,
			"0.021": 0.0,
			"0.022": 0.0,
			"0.023": 0.0,
			"0.024": 0.0,
			"0.025": 0.0
		}
	}
}
