{
	 "smiles": "OC(=O)C1=CC=CC(=C1)C1=CN=CN=C1", 
	 "Tm": 517.15, 
	 "num_atms": 23, 
	 "gaussian": { 
		 "optdone": 1, 
		 "sigma_profile": "yes", 
		 "theory": "DFT", 
		 "functional": "B3LYP", 
		 "basiset": "6-31G**", 
		 "properties": { 
			 "R2extent": 4139.2971, 
			 "electric_dipole_moment_norm": 2.9734968791, 
			 "electric_quadrupole_moment_norm": 22.6758403615, 
			 "total_energy": -683.943705853, 
			 "HOMO_LUMO_gap": 0.19121, 
			 "cosmo_polarized_energy": -18.65, 
			 "cosmo_cavitation_energy": 28.46, 
			 "cosmo_dispersion_energy": -20.77, 
			 "cosmo_repulsion_energy": 1.59, 
			 "cosmo_total_nonelectrostatic_energy": 9.28, 
			 "SMD_solvation_energy": 3.05 
		},
		"coords": [
			{
				"x": 3.4406622356,
				"y": -1.0237162898,
				"z": 0.9829296338,
				"element": "O" 
			},
			{
				"x": 2.8819525806,
				"y": -0.5972891992,
				"z": 2.1465504687,
				"element": "C" 
			},
			{
				"x": 3.5224194441,
				"y": -0.6200806772,
				"z": 3.1703451561,
				"element": "O" 
			},
			{
				"x": 1.461882336,
				"y": -0.1133676956,
				"z": 2.0797370565,
				"element": "C" 
			},
			{
				"x": 1.0159244066,
				"y": 0.7326482518,
				"z": 3.1035665113,
				"element": "C" 
			},
			{
				"x": -0.2910414002,
				"y": 1.2115897796,
				"z": 3.0865326941,
				"element": "C" 
			},
			{
				"x": -1.1659033202,
				"y": 0.8338367124,
				"z": 2.0675589114,
				"element": "C" 
			},
			{
				"x": -0.7466490802,
				"y": -0.0327124917,
				"z": 1.0447608091,
				"element": "C" 
			},
			{
				"x": 0.5782579099,
				"y": -0.4959147086,
				"z": 1.0641272858,
				"element": "C" 
			},
			{
				"x": -1.679106748,
				"y": -0.4530144669,
				"z": -0.0249259667,
				"element": "C" 
			},
			{
				"x": -1.7080057504,
				"y": -1.7603342531,
				"z": -0.5331805847,
				"element": "C" 
			},
			{
				"x": -2.5392793601,
				"y": -2.1473743427,
				"z": -1.5040376361,
				"element": "N" 
			},
			{
				"x": -3.3716079379,
				"y": -1.2112117106,
				"z": -1.9721359964,
				"element": "C" 
			},
			{
				"x": -3.4513374935,
				"y": 0.0623953107,
				"z": -1.5716102696,
				"element": "N" 
			},
			{
				"x": -2.6023637865,
				"y": 0.4279989301,
				"z": -0.6080697958,
				"element": "C" 
			},
			{
				"x": 2.8798623789,
				"y": -0.7839146271,
				"z": 0.2323262135,
				"element": "H" 
			},
			{
				"x": 1.7080191541,
				"y": 0.9991306402,
				"z": 3.8947162044,
				"element": "H" 
			},
			{
				"x": -0.6371165691,
				"y": 1.8716485635,
				"z": 3.8759859972,
				"element": "H" 
			},
			{
				"x": -2.1922688288,
				"y": 1.188117205,
				"z": 2.0809077491,
				"element": "H" 
			},
			{
				"x": 0.901850465,
				"y": -1.1763512376,
				"z": 0.2803487867,
				"element": "H" 
			},
			{
				"x": -1.0483002966,
				"y": -2.525919507,
				"z": -0.126615404,
				"element": "H" 
			},
			{
				"x": -4.0559726794,
				"y": -1.5178149993,
				"z": -2.7603294298,
				"element": "H" 
			},
			{
				"x": -2.6430776598,
				"y": 1.4705508132,
				"z": -0.2954883943,
				"element": "H" 
			}
		],
		 "valence_orbital": [ 
			{
				"type": "occ",
				"energy": -0.3138,
				"method": "rhf"
			},
			{
				"type": "occ",
				"energy": -0.28764,
				"method": "rhf"
			},
			{
				"type": "occ",
				"energy": -0.28048,
				"method": "rhf"
			},
			{
				"type": "occ",
				"energy": -0.26688,
				"method": "rhf"
			},
			{
				"type": "occ",
				"energy": -0.25826,
				"method": "rhf"
			},
			{
				"type": "unocc",
				"energy": -0.06705,
				"method": "rhf"
			},
			{
				"type": "unocc",
				"energy": -0.05754,
				"method": "rhf"
			},
			{
				"type": "unocc",
				"energy": -0.05452,
				"method": "rhf"
			},
			{
				"type": "unocc",
				"energy": -0.01338,
				"method": "rhf"
			},
			{
				"type": "unocc",
				"energy": 0.03681,
				"method": "rhf"
			}
		],
		"cosmo_sigma_profile": { 
			"-0.025": 0.0,
			"-0.024": 0.0,
			"-0.023": 0.0,
			"-0.022": 0.0,
			"-0.021": 0.0,
			"-0.02": 0.0,
			"-0.019": 0.475000491063,
			"-0.018": 0.680424632434,
			"-0.017": 0.973299195358,
			"-0.016": 1.34992888139,
			"-0.015": 0.948340648863,
			"-0.014": 0.929715217358,
			"-0.013": 1.12892673119,
			"-0.012": 0.965922010978,
			"-0.011": 0.960657049236,
			"-0.01": 1.36164206515,
			"-0.009": 2.01764602049,
			"-0.008": 7.57947945124,
			"-0.007": 13.0309319517,
			"-0.006": 12.1040287367,
			"-0.005": 13.8534741638,
			"-0.004": 10.9973413388,
			"-0.003": 11.498503608,
			"-0.002": 17.7048273809,
			"-0.001": 19.0752891623,
			"0.0": 15.4034338109,
			"0.001": 13.5134612195,
			"0.002": 16.1926259593,
			"0.003": 11.4212858753,
			"0.004": 5.10110733013,
			"0.005": 4.55718462661,
			"0.006": 4.5687668781,
			"0.007": 4.85639462884,
			"0.008": 5.21524425001,
			"0.009": 5.03908256328,
			"0.01": 6.3812094059,
			"0.011": 7.35617045234,
			"0.012": 6.57643047596,
			"0.013": 2.59995429145,
			"0.014": 1.59970222401,
			"0.015": 1.64533242087,
			"0.016": 0.0321046635111,
			"0.017": 0.0,
			"0.018": 0.0,
			"0.019": 0.0,
			"0.02": 0.0,
			"0.021": 0.0,
			"0.022": 0.0,
			"0.023": 0.0,
			"0.024": 0.0,
			"0.025": 0.0
		}
	}
}
