{
	 "smiles": "ClCC(=O)C1=CC2=C(NC(=O)N2)C=C1", 
	 "Tm": 557.15, 
	 "num_atms": 21, 
	 "gaussian": { 
		 "optdone": 1, 
		 "sigma_profile": "yes", 
		 "theory": "DFT", 
		 "functional": "B3LYP", 
		 "basiset": "6-31G**", 
		 "properties": { 
			 "R2extent": 4157.0507, 
			 "electric_dipole_moment_norm": 2.77894660798, 
			 "electric_quadrupole_moment_norm": 18.9000089119, 
			 "total_energy": -1067.35314232, 
			 "HOMO_LUMO_gap": 0.15634, 
			 "cosmo_polarized_energy": -19.09, 
			 "cosmo_cavitation_energy": 27.75, 
			 "cosmo_dispersion_energy": -20.74, 
			 "cosmo_repulsion_energy": 1.64, 
			 "cosmo_total_nonelectrostatic_energy": 8.64, 
			 "SMD_solvation_energy": 5.53 
		},
		"coords": [
			{
				"x": 3.0125791495,
				"y": -0.5377148875,
				"z": -1.5729046275,
				"element": "Cl" 
			},
			{
				"x": 2.8087326067,
				"y": 0.072002045,
				"z": 0.1264992295,
				"element": "C" 
			},
			{
				"x": 1.612273617,
				"y": -0.5768781791,
				"z": 0.831228758,
				"element": "C" 
			},
			{
				"x": 1.8397429035,
				"y": -1.3565483877,
				"z": 1.7449784786,
				"element": "O" 
			},
			{
				"x": 0.2270190661,
				"y": -0.2229417697,
				"z": 0.4278537056,
				"element": "C" 
			},
			{
				"x": -0.8214992048,
				"y": -0.8604518669,
				"z": 1.1258338178,
				"element": "C" 
			},
			{
				"x": -2.119450228,
				"y": -0.5350288588,
				"z": 0.7893060572,
				"element": "C" 
			},
			{
				"x": -2.3988827271,
				"y": 0.4134768933,
				"z": -0.2254013215,
				"element": "C" 
			},
			{
				"x": -3.7749984894,
				"y": 0.5077565225,
				"z": -0.3101259657,
				"element": "N" 
			},
			{
				"x": -4.4058105387,
				"y": -0.3440495691,
				"z": 0.6093341754,
				"element": "C" 
			},
			{
				"x": -5.5983649672,
				"y": -0.4943074395,
				"z": 0.7821279035,
				"element": "O" 
			},
			{
				"x": -3.3496215822,
				"y": -0.9693065422,
				"z": 1.2707811012,
				"element": "N" 
			},
			{
				"x": -1.3732591108,
				"y": 1.0468734902,
				"z": -0.9179816912,
				"element": "C" 
			},
			{
				"x": -0.0589243593,
				"y": 0.7163790362,
				"z": -0.5793811296,
				"element": "C" 
			},
			{
				"x": 2.7180400265,
				"y": 1.1580291909,
				"z": 0.0664177672,
				"element": "H" 
			},
			{
				"x": 3.7072626871,
				"y": -0.2038938651,
				"z": 0.6747644363,
				"element": "H" 
			},
			{
				"x": -0.5769846694,
				"y": -1.5784940668,
				"z": 1.9004562189,
				"element": "H" 
			},
			{
				"x": -4.3082348409,
				"y": 1.0900802646,
				"z": -0.9361599921,
				"element": "H" 
			},
			{
				"x": -3.5101757465,
				"y": -1.6497124392,
				"z": 1.9960973545,
				"element": "H" 
			},
			{
				"x": -1.583227402,
				"y": 1.7707553391,
				"z": -1.6983539673,
				"element": "H" 
			},
			{
				"x": 0.7481838097,
				"y": 1.18967509,
				"z": -1.1259703088,
				"element": "H" 
			}
		],
		 "valence_orbital": [ 
			{
				"type": "occ",
				"energy": -0.30572,
				"method": "rhf"
			},
			{
				"type": "occ",
				"energy": -0.28331,
				"method": "rhf"
			},
			{
				"type": "occ",
				"energy": -0.26164,
				"method": "rhf"
			},
			{
				"type": "occ",
				"energy": -0.25651,
				"method": "rhf"
			},
			{
				"type": "occ",
				"energy": -0.22733,
				"method": "rhf"
			},
			{
				"type": "unocc",
				"energy": -0.07099,
				"method": "rhf"
			},
			{
				"type": "unocc",
				"energy": -0.01929,
				"method": "rhf"
			},
			{
				"type": "unocc",
				"energy": 0.00437,
				"method": "rhf"
			},
			{
				"type": "unocc",
				"energy": 0.05379,
				"method": "rhf"
			},
			{
				"type": "unocc",
				"energy": 0.05582,
				"method": "rhf"
			}
		],
		"cosmo_sigma_profile": { 
			"-0.025": 0.0,
			"-0.024": 0.0,
			"-0.023": 0.0,
			"-0.022": 0.0,
			"-0.021": 0.0,
			"-0.02": 0.0,
			"-0.019": 0.0,
			"-0.018": 0.0,
			"-0.017": 0.675460153957,
			"-0.016": 2.91930960814,
			"-0.015": 3.1700846596,
			"-0.014": 1.71499581434,
			"-0.013": 2.29497067447,
			"-0.012": 1.89286244977,
			"-0.011": 1.77844319527,
			"-0.01": 2.6867410765,
			"-0.009": 4.95212549853,
			"-0.008": 7.9244320184,
			"-0.007": 9.27486020486,
			"-0.006": 9.72426948295,
			"-0.005": 9.88625559283,
			"-0.004": 7.09013378505,
			"-0.003": 6.88149134866,
			"-0.002": 9.5043742296,
			"-0.001": 13.7301390753,
			"0.0": 17.7555886786,
			"0.001": 16.4456104361,
			"0.002": 16.4093052449,
			"0.003": 15.9089546308,
			"0.004": 13.8167719392,
			"0.005": 10.5975104329,
			"0.006": 5.5578680252,
			"0.007": 2.19632561744,
			"0.008": 3.3679340641,
			"0.009": 3.31515318562,
			"0.01": 3.42750489367,
			"0.011": 5.06852565395,
			"0.012": 5.44860924318,
			"0.013": 7.02076383049,
			"0.014": 2.14460611166,
			"0.015": 0.0,
			"0.016": 0.0,
			"0.017": 0.0,
			"0.018": 0.0,
			"0.019": 0.0,
			"0.02": 0.0,
			"0.021": 0.0,
			"0.022": 0.0,
			"0.023": 0.0,
			"0.024": 0.0,
			"0.025": 0.0
		}
	}
}
