{
	 "smiles": "CN1N=C(C)C(C(O)=O)=C1C(F)F", 
	 "Tm": 439.15, 
	 "num_atms": 21, 
	 "gaussian": { 
		 "optdone": 1, 
		 "sigma_profile": "yes", 
		 "theory": "DFT", 
		 "functional": "B3LYP", 
		 "basiset": "6-31G**", 
		 "properties": { 
			 "R2extent": 2400.3621, 
			 "electric_dipole_moment_norm": 3.36440618386, 
			 "electric_quadrupole_moment_norm": 7.58931549219, 
			 "total_energy": -731.190226907, 
			 "HOMO_LUMO_gap": 0.2196, 
			 "cosmo_polarized_energy": -14.58, 
			 "cosmo_cavitation_energy": 26.15, 
			 "cosmo_dispersion_energy": -18.63, 
			 "cosmo_repulsion_energy": 1.45, 
			 "cosmo_total_nonelectrostatic_energy": 8.98, 
			 "SMD_solvation_energy": 5.66 
		},
		"coords": [
			{
				"x": -2.346870351,
				"y": -0.5280121923,
				"z": -1.7601914296,
				"element": "C" 
			},
			{
				"x": -1.0444609137,
				"y": -0.1076580292,
				"z": -1.2618229379,
				"element": "N" 
			},
			{
				"x": -0.5313206868,
				"y": 1.0632061382,
				"z": -1.7158265074,
				"element": "N" 
			},
			{
				"x": 0.6453826388,
				"y": 1.201409132,
				"z": -1.1095795141,
				"element": "C" 
			},
			{
				"x": 1.5016183869,
				"y": 2.3979121684,
				"z": -1.3774058942,
				"element": "C" 
			},
			{
				"x": 0.8981698134,
				"y": 0.0979133133,
				"z": -0.246315637,
				"element": "C" 
			},
			{
				"x": 2.1035540135,
				"y": -0.0647352536,
				"z": 0.5713324772,
				"element": "C" 
			},
			{
				"x": 2.1069453743,
				"y": -1.2002168925,
				"z": 1.3073720483,
				"element": "O" 
			},
			{
				"x": 3.0249060442,
				"y": 0.7318143681,
				"z": 0.601617349,
				"element": "O" 
			},
			{
				"x": -0.2233049139,
				"y": -0.7258107945,
				"z": -0.3765999609,
				"element": "C" 
			},
			{
				"x": -0.5966916888,
				"y": -2.0351562121,
				"z": 0.24936655,
				"element": "C" 
			},
			{
				"x": -0.6568361398,
				"y": -1.9225009321,
				"z": 1.6074624981,
				"element": "F" 
			},
			{
				"x": 0.3232055544,
				"y": -2.9958632046,
				"z": -0.0532640623,
				"element": "F" 
			},
			{
				"x": -3.0726603752,
				"y": -0.6128252641,
				"z": -0.9462791099,
				"element": "H" 
			},
			{
				"x": -2.6742093283,
				"y": 0.2449396672,
				"z": -2.45348671,
				"element": "H" 
			},
			{
				"x": -2.2776191113,
				"y": -1.4820359581,
				"z": -2.2907206539,
				"element": "H" 
			},
			{
				"x": 1.6983256413,
				"y": 2.9528996613,
				"z": -0.4558542343,
				"element": "H" 
			},
			{
				"x": 2.4769982983,
				"y": 2.1008417645,
				"z": -1.7728129727,
				"element": "H" 
			},
			{
				"x": 1.0009317645,
				"y": 3.0504645919,
				"z": -2.0956446279,
				"element": "H" 
			},
			{
				"x": 2.9445076417,
				"y": -1.1948659652,
				"z": 1.7993262159,
				"element": "H" 
			},
			{
				"x": -1.5743716624,
				"y": -2.3887201066,
				"z": -0.0990728863,
				"element": "H" 
			}
		],
		 "valence_orbital": [ 
			{
				"type": "occ",
				"energy": -0.31366,
				"method": "rhf"
			},
			{
				"type": "occ",
				"energy": -0.30223,
				"method": "rhf"
			},
			{
				"type": "occ",
				"energy": -0.27332,
				"method": "rhf"
			},
			{
				"type": "occ",
				"energy": -0.26532,
				"method": "rhf"
			},
			{
				"type": "occ",
				"energy": -0.25864,
				"method": "rhf"
			},
			{
				"type": "unocc",
				"energy": -0.03904,
				"method": "rhf"
			},
			{
				"type": "unocc",
				"energy": 0.01267,
				"method": "rhf"
			},
			{
				"type": "unocc",
				"energy": 0.07588,
				"method": "rhf"
			},
			{
				"type": "unocc",
				"energy": 0.08583,
				"method": "rhf"
			},
			{
				"type": "unocc",
				"energy": 0.09485,
				"method": "rhf"
			}
		],
		"cosmo_sigma_profile": { 
			"-0.025": 0.0,
			"-0.024": 0.0,
			"-0.023": 0.0,
			"-0.022": 0.0,
			"-0.021": 0.0,
			"-0.02": 0.0,
			"-0.019": 0.0,
			"-0.018": 0.502162187584,
			"-0.017": 1.21365593983,
			"-0.016": 0.7453699303,
			"-0.015": 0.789543346113,
			"-0.014": 0.286775685511,
			"-0.013": 0.751785261698,
			"-0.012": 0.92083299773,
			"-0.011": 1.19167231612,
			"-0.01": 5.30089641611,
			"-0.009": 4.64824848095,
			"-0.008": 5.29109454327,
			"-0.007": 7.7218429966,
			"-0.006": 7.40779441662,
			"-0.005": 8.55139121042,
			"-0.004": 14.0863319739,
			"-0.003": 9.85470102242,
			"-0.002": 11.8803677168,
			"-0.001": 15.3574023797,
			"0.0": 15.1560190778,
			"0.001": 14.3488410324,
			"0.002": 8.99008403721,
			"0.003": 9.41836205953,
			"0.004": 18.0456761905,
			"0.005": 10.7947790167,
			"0.006": 5.94138016882,
			"0.007": 5.64848881119,
			"0.008": 5.12969854169,
			"0.009": 4.03559761277,
			"0.01": 3.60055775124,
			"0.011": 3.1622854508,
			"0.012": 4.82733738873,
			"0.013": 1.37941535288,
			"0.014": 0.703108661329,
			"0.015": 0.0123214976763,
			"0.016": 0.0,
			"0.017": 0.0,
			"0.018": 0.0,
			"0.019": 0.0,
			"0.02": 0.0,
			"0.021": 0.0,
			"0.022": 0.0,
			"0.023": 0.0,
			"0.024": 0.0,
			"0.025": 0.0
		}
	}
}
