{
	 "smiles": "NC1=CC(OC2CCCCC2)=NC=C1", 
	 "Tm": 388.15, 
	 "num_atms": 30, 
	 "gaussian": { 
		 "optdone": 1, 
		 "sigma_profile": "yes", 
		 "theory": "DFT", 
		 "functional": "B3LYP", 
		 "basiset": "6-31G**", 
		 "properties": { 
			 "R2extent": 3824.9189, 
			 "electric_dipole_moment_norm": 2.39694714376, 
			 "electric_quadrupole_moment_norm": 14.151784561, 
			 "total_energy": -613.561259195, 
			 "HOMO_LUMO_gap": 0.22066, 
			 "cosmo_polarized_energy": -10.27, 
			 "cosmo_cavitation_energy": 30.95, 
			 "cosmo_dispersion_energy": -23.08, 
			 "cosmo_repulsion_energy": 1.85, 
			 "cosmo_total_nonelectrostatic_energy": 9.72, 
			 "SMD_solvation_energy": 4.34 
		},
		"coords": [
			{
				"x": 1.9378960501,
				"y": -2.4233989601,
				"z": 3.8845513772,
				"element": "N" 
			},
			{
				"x": 1.4413551692,
				"y": -2.2348761387,
				"z": 2.606648187,
				"element": "C" 
			},
			{
				"x": 1.2507128977,
				"y": -0.954874685,
				"z": 2.0819970776,
				"element": "C" 
			},
			{
				"x": 0.6947895741,
				"y": -0.82662434,
				"z": 0.7999488991,
				"element": "C" 
			},
			{
				"x": 0.5458161733,
				"y": 0.4472599158,
				"z": 0.3676846538,
				"element": "O" 
			},
			{
				"x": -0.0098307412,
				"y": 0.7841835299,
				"z": -0.9273446649,
				"element": "C" 
			},
			{
				"x": 0.8532081304,
				"y": 0.3135630454,
				"z": -2.1042785243,
				"element": "C" 
			},
			{
				"x": 0.287479155,
				"y": 0.8647220911,
				"z": -3.4250971787,
				"element": "C" 
			},
			{
				"x": -1.1890558788,
				"y": 0.4796386728,
				"z": -3.609485154,
				"element": "C" 
			},
			{
				"x": -2.037400643,
				"y": 0.9322203454,
				"z": -2.4103238625,
				"element": "C" 
			},
			{
				"x": -1.4808177282,
				"y": 0.3811843511,
				"z": -1.0855533966,
				"element": "C" 
			},
			{
				"x": 0.3345590991,
				"y": -1.8591322232,
				"z": 0.0364936145,
				"element": "N" 
			},
			{
				"x": 0.5257931919,
				"y": -3.0841647441,
				"z": 0.5569874234,
				"element": "C" 
			},
			{
				"x": 1.0623048897,
				"y": -3.3365305153,
				"z": 1.8067470028,
				"element": "C" 
			},
			{
				"x": 2.451453475,
				"y": -1.6529309081,
				"z": 4.2868267691,
				"element": "H" 
			},
			{
				"x": 2.3473702337,
				"y": -3.3251030254,
				"z": 4.0795456884,
				"element": "H" 
			},
			{
				"x": 1.5162440682,
				"y": -0.062760137,
				"z": 2.6392331261,
				"element": "H" 
			},
			{
				"x": 0.0348842498,
				"y": 1.880801032,
				"z": -0.8975970793,
				"element": "H" 
			},
			{
				"x": 0.8630531269,
				"y": -0.7794626,
				"z": -2.1262907857,
				"element": "H" 
			},
			{
				"x": 1.8852806941,
				"y": 0.6517979599,
				"z": -1.9541509341,
				"element": "H" 
			},
			{
				"x": 0.8866921135,
				"y": 0.4976932548,
				"z": -4.266601022,
				"element": "H" 
			},
			{
				"x": 0.3776314811,
				"y": 1.9608121361,
				"z": -3.4352308965,
				"element": "H" 
			},
			{
				"x": -1.5812885076,
				"y": 0.9139922567,
				"z": -4.5370416263,
				"element": "H" 
			},
			{
				"x": -1.2668177768,
				"y": -0.611327088,
				"z": -3.7150565757,
				"element": "H" 
			},
			{
				"x": -2.0524413776,
				"y": 2.0313606897,
				"z": -2.3743894594,
				"element": "H" 
			},
			{
				"x": -3.0786265586,
				"y": 0.6129914394,
				"z": -2.5359326637,
				"element": "H" 
			},
			{
				"x": -2.0549317542,
				"y": 0.7659731713,
				"z": -0.2344941973,
				"element": "H" 
			},
			{
				"x": -1.5571273115,
				"y": -0.7093352086,
				"z": -1.0701229061,
				"element": "H" 
			},
			{
				"x": 0.2274552728,
				"y": -3.9160200343,
				"z": -0.0791253582,
				"element": "H" 
			},
			{
				"x": 1.1826592322,
				"y": -4.3544532837,
				"z": 2.1645524663,
				"element": "H" 
			}
		],
		 "valence_orbital": [ 
			{
				"type": "occ",
				"energy": -0.29147,
				"method": "rhf"
			},
			{
				"type": "occ",
				"energy": -0.28629,
				"method": "rhf"
			},
			{
				"type": "occ",
				"energy": -0.24784,
				"method": "rhf"
			},
			{
				"type": "occ",
				"energy": -0.22103,
				"method": "rhf"
			},
			{
				"type": "occ",
				"energy": -0.21641,
				"method": "rhf"
			},
			{
				"type": "unocc",
				"energy": 0.00425,
				"method": "rhf"
			},
			{
				"type": "unocc",
				"energy": 0.02005,
				"method": "rhf"
			},
			{
				"type": "unocc",
				"energy": 0.07767,
				"method": "rhf"
			},
			{
				"type": "unocc",
				"energy": 0.09095,
				"method": "rhf"
			},
			{
				"type": "unocc",
				"energy": 0.11066,
				"method": "rhf"
			}
		],
		"cosmo_sigma_profile": { 
			"-0.025": 0.0,
			"-0.024": 0.0,
			"-0.023": 0.0,
			"-0.022": 0.0,
			"-0.021": 0.0,
			"-0.02": 0.0,
			"-0.019": 0.0,
			"-0.018": 0.0,
			"-0.017": 0.0,
			"-0.016": 0.0,
			"-0.015": 0.0,
			"-0.014": 0.0128157987339,
			"-0.013": 1.98301938419,
			"-0.012": 2.87150655088,
			"-0.011": 2.7566074983,
			"-0.01": 3.21135623776,
			"-0.009": 3.07683520387,
			"-0.008": 2.42788036184,
			"-0.007": 3.45602463562,
			"-0.006": 4.94316500467,
			"-0.005": 6.69065885363,
			"-0.004": 6.05966828365,
			"-0.003": 15.7107902338,
			"-0.002": 25.4579015746,
			"-0.001": 28.6800340339,
			"0.0": 31.9128276229,
			"0.001": 25.4765829871,
			"0.002": 11.7594420168,
			"0.003": 11.8705782494,
			"0.004": 16.262572384,
			"0.005": 12.6550345057,
			"0.006": 6.46534364586,
			"0.007": 4.90479866494,
			"0.008": 3.38704312466,
			"0.009": 3.8116787315,
			"0.01": 2.78394555925,
			"0.011": 1.37496280574,
			"0.012": 1.31081005023,
			"0.013": 0.162484876481,
			"0.014": 0.0,
			"0.015": 0.0,
			"0.016": 0.0,
			"0.017": 0.0,
			"0.018": 0.0,
			"0.019": 0.0,
			"0.02": 0.0,
			"0.021": 0.0,
			"0.022": 0.0,
			"0.023": 0.0,
			"0.024": 0.0,
			"0.025": 0.0
		}
	}
}
