{
	 "smiles": "NC1=C(C=CC=C1I)C#N", 
	 "Tm": 389.15, 
	 "num_atms": 15, 
	 "gaussian": { 
		 "optdone": 1, 
		 "sigma_profile": "yes", 
		 "theory": "DFT", 
		 "functional": "B3LYP", 
		 "basiset": "6-31G**", 
		 "properties": { 
			 "R2extent": 1581.7055, 
			 "electric_dipole_moment_norm": 2.81754824094, 
			 "electric_quadrupole_moment_norm": 13.3769794543, 
			 "total_energy": -390.636003616, 
			 "HOMO_LUMO_gap": 0.17341, 
			 "cosmo_polarized_energy": -9.86, 
			 "cosmo_cavitation_energy": 23.07, 
			 "cosmo_dispersion_energy": -18.17, 
			 "cosmo_repulsion_energy": 1.43, 
			 "cosmo_total_nonelectrostatic_energy": 6.33, 
			 "SMD_solvation_energy": 4.26 
		},
		"coords": [
			{
				"x": -0.995795701,
				"y": 1.6988293665,
				"z": 1.8603854799,
				"element": "N" 
			},
			{
				"x": -0.4076191367,
				"y": 0.7373939267,
				"z": 1.0905845732,
				"element": "C" 
			},
			{
				"x": -0.6408963751,
				"y": 0.6993497847,
				"z": -0.3165726592,
				"element": "C" 
			},
			{
				"x": -0.0143275222,
				"y": -0.2502293741,
				"z": -1.1359229234,
				"element": "C" 
			},
			{
				"x": 0.8509892202,
				"y": -1.1882759838,
				"z": -0.5897964009,
				"element": "C" 
			},
			{
				"x": 1.0896446818,
				"y": -1.1770055661,
				"z": 0.7882125053,
				"element": "C" 
			},
			{
				"x": 0.4755988612,
				"y": -0.2370714907,
				"z": 1.6095589367,
				"element": "C" 
			},
			{
				"x": 0.8869197264,
				"y": -0.2892181865,
				"z": 3.6919212996,
				"element": "I" 
			},
			{
				"x": -1.5427296358,
				"y": 1.6566593639,
				"z": -0.8740829307,
				"element": "C" 
			},
			{
				"x": -2.2919188178,
				"y": 2.4547834658,
				"z": -1.2731753258,
				"element": "N" 
			},
			{
				"x": -0.9898091966,
				"y": 1.5961320221,
				"z": 2.8630784462,
				"element": "H" 
			},
			{
				"x": -1.7336814211,
				"y": 2.2570452537,
				"z": 1.4579992163,
				"element": "H" 
			},
			{
				"x": -0.2226220879,
				"y": -0.2380220495,
				"z": -2.2004580247,
				"element": "H" 
			},
			{
				"x": 1.3375788855,
				"y": -1.925083895,
				"z": -1.2190442895,
				"element": "H" 
			},
			{
				"x": 1.7605685192,
				"y": -1.9080866378,
				"z": 1.2256120971,
				"element": "H" 
			}
		],
		 "valence_orbital": [ 
			{
				"type": "occ",
				"energy": -0.33704,
				"method": "rhf"
			},
			{
				"type": "occ",
				"energy": -0.30417,
				"method": "rhf"
			},
			{
				"type": "occ",
				"energy": -0.28615,
				"method": "rhf"
			},
			{
				"type": "occ",
				"energy": -0.25777,
				"method": "rhf"
			},
			{
				"type": "occ",
				"energy": -0.22727,
				"method": "rhf"
			},
			{
				"type": "unocc",
				"energy": -0.05386,
				"method": "rhf"
			},
			{
				"type": "unocc",
				"energy": -0.05204,
				"method": "rhf"
			},
			{
				"type": "unocc",
				"energy": -0.014,
				"method": "rhf"
			},
			{
				"type": "unocc",
				"energy": 0.02711,
				"method": "rhf"
			},
			{
				"type": "unocc",
				"energy": 0.02933,
				"method": "rhf"
			}
		],
		"cosmo_sigma_profile": { 
			"-0.025": 0.0,
			"-0.024": 0.0,
			"-0.023": 0.0,
			"-0.022": 0.0,
			"-0.021": 0.0,
			"-0.02": 0.0,
			"-0.019": 0.0,
			"-0.018": 0.0,
			"-0.017": 0.0,
			"-0.016": 0.0,
			"-0.015": 0.0,
			"-0.014": 0.150754860405,
			"-0.013": 0.73577038249,
			"-0.012": 1.95768833849,
			"-0.011": 2.21639003409,
			"-0.01": 1.87706506604,
			"-0.009": 1.53995067822,
			"-0.008": 3.90633764444,
			"-0.007": 8.35055159635,
			"-0.006": 10.9217564442,
			"-0.005": 10.1711534659,
			"-0.004": 9.36410938418,
			"-0.003": 9.03797425082,
			"-0.002": 9.65290742846,
			"-0.001": 12.3010262688,
			"0.0": 13.8457272474,
			"0.001": 19.079993378,
			"0.002": 19.7462453305,
			"0.003": 17.367447661,
			"0.004": 13.2403961768,
			"0.005": 3.49164362519,
			"0.006": 2.85940567088,
			"0.007": 2.96945570483,
			"0.008": 3.16673820965,
			"0.009": 3.55474751934,
			"0.01": 3.08475171219,
			"0.011": 2.48143656008,
			"0.012": 2.58237146771,
			"0.013": 1.70272528548,
			"0.014": 0.0669336082209,
			"0.015": 0.0,
			"0.016": 0.0,
			"0.017": 0.0,
			"0.018": 0.0,
			"0.019": 0.0,
			"0.02": 0.0,
			"0.021": 0.0,
			"0.022": 0.0,
			"0.023": 0.0,
			"0.024": 0.0,
			"0.025": 0.0
		}
	}
}
