{
	 "smiles": "CC1CC2C3CCC(C(C)=O)C3(C)CC(O)C2C2(C)CCC(=O)C=C12", 
	 "Tm": 429.15, 
	 "num_atms": 57, 
	 "gaussian": { 
		 "optdone": 1, 
		 "sigma_profile": "yes", 
		 "theory": "DFT", 
		 "functional": "B3LYP", 
		 "basiset": "6-31G**", 
		 "properties": { 
			 "R2extent": 9935.4531, 
			 "electric_dipole_moment_norm": 6.09138062922, 
			 "electric_quadrupole_moment_norm": 22.7625853446, 
			 "total_energy": -1083.28938697, 
			 "HOMO_LUMO_gap": 0.18452, 
			 "cosmo_polarized_energy": -17.49, 
			 "cosmo_cavitation_energy": 49.43, 
			 "cosmo_dispersion_energy": -33.91, 
			 "cosmo_repulsion_energy": 2.48, 
			 "cosmo_total_nonelectrostatic_energy": 18.01, 
			 "SMD_solvation_energy": 8.56 
		},
		"coords": [
			{
				"x": 2.0877481501,
				"y": -3.1329547563,
				"z": 1.6198514878,
				"element": "C" 
			},
			{
				"x": 1.8225388737,
				"y": -1.6696278401,
				"z": 1.2094215518,
				"element": "C" 
			},
			{
				"x": 0.3235325521,
				"y": -1.3334577928,
				"z": 1.2731684914,
				"element": "C" 
			},
			{
				"x": 0.0436779165,
				"y": -0.0103680287,
				"z": 0.5521795143,
				"element": "C" 
			},
			{
				"x": -1.3513916218,
				"y": 0.5992899782,
				"z": 0.8736186886,
				"element": "C" 
			},
			{
				"x": -2.5326687535,
				"y": -0.375570313,
				"z": 1.1755797831,
				"element": "C" 
			},
			{
				"x": -3.8045142097,
				"y": 0.3057485762,
				"z": 0.6113417761,
				"element": "C" 
			},
			{
				"x": -3.3608487656,
				"y": 1.751672932,
				"z": 0.2744211019,
				"element": "C" 
			},
			{
				"x": -4.3187746204,
				"y": 2.5255637452,
				"z": -0.6230448518,
				"element": "C" 
			},
			{
				"x": -5.7702360335,
				"y": 2.5909698593,
				"z": -0.1709582701,
				"element": "C" 
			},
			{
				"x": -3.9606207778,
				"y": 3.0831834575,
				"z": -1.6466739894,
				"element": "O" 
			},
			{
				"x": -1.8878511404,
				"y": 1.6057018171,
				"z": -0.1935780442,
				"element": "C" 
			},
			{
				"x": -1.1452330754,
				"y": 2.9520374326,
				"z": -0.1190419699,
				"element": "C" 
			},
			{
				"x": -1.7913634699,
				"y": 1.0241206628,
				"z": -1.646359962,
				"element": "C" 
			},
			{
				"x": -0.9055498319,
				"y": -0.2244036486,
				"z": -1.8230958215,
				"element": "C" 
			},
			{
				"x": -1.6040009599,
				"y": -1.4286647661,
				"z": -1.476763094,
				"element": "O" 
			},
			{
				"x": 0.3639520669,
				"y": -0.1082517968,
				"z": -0.971824615,
				"element": "C" 
			},
			{
				"x": 1.5334433141,
				"y": -1.1112333517,
				"z": -1.3512211406,
				"element": "C" 
			},
			{
				"x": 1.0350421525,
				"y": -2.5086064555,
				"z": -1.8180822251,
				"element": "C" 
			},
			{
				"x": 2.3413112328,
				"y": -0.4547294911,
				"z": -2.506147531,
				"element": "C" 
			},
			{
				"x": 3.6988135433,
				"y": -1.1082551685,
				"z": -2.7760133437,
				"element": "C" 
			},
			{
				"x": 4.5407316245,
				"y": -1.1533119891,
				"z": -1.5101653502,
				"element": "C" 
			},
			{
				"x": 5.7645011689,
				"y": -1.123690374,
				"z": -1.5378131039,
				"element": "O" 
			},
			{
				"x": 3.7957635398,
				"y": -1.2958354376,
				"z": -0.2479788512,
				"element": "C" 
			},
			{
				"x": 2.4488358187,
				"y": -1.3338756065,
				"z": -0.1448638909,
				"element": "C" 
			},
			{
				"x": 3.1584888241,
				"y": -3.3505085249,
				"z": 1.6581584391,
				"element": "H" 
			},
			{
				"x": 1.6636032923,
				"y": -3.3295770678,
				"z": 2.6109186452,
				"element": "H" 
			},
			{
				"x": 1.627391538,
				"y": -3.831686526,
				"z": 0.9140205437,
				"element": "H" 
			},
			{
				"x": 2.3331826636,
				"y": -1.0314487056,
				"z": 1.9448887225,
				"element": "H" 
			},
			{
				"x": -0.2712197794,
				"y": -2.1386361437,
				"z": 0.8305874028,
				"element": "H" 
			},
			{
				"x": 0.0214637678,
				"y": -1.2682871245,
				"z": 2.3257425405,
				"element": "H" 
			},
			{
				"x": 0.7766375515,
				"y": 0.7033220141,
				"z": 0.9545065523,
				"element": "H" 
			},
			{
				"x": -1.2109182233,
				"y": 1.1892995517,
				"z": 1.789328511,
				"element": "H" 
			},
			{
				"x": -2.3871654483,
				"y": -1.346516886,
				"z": 0.7068600336,
				"element": "H" 
			},
			{
				"x": -2.621403751,
				"y": -0.5358749426,
				"z": 2.2549403028,
				"element": "H" 
			},
			{
				"x": -4.6474090917,
				"y": 0.2792484795,
				"z": 1.3080308346,
				"element": "H" 
			},
			{
				"x": -4.1311908799,
				"y": -0.2044452263,
				"z": -0.3028345389,
				"element": "H" 
			},
			{
				"x": -3.3458795149,
				"y": 2.3109700116,
				"z": 1.2251533273,
				"element": "H" 
			},
			{
				"x": -5.8461716222,
				"y": 2.8587000043,
				"z": 0.8885315429,
				"element": "H" 
			},
			{
				"x": -6.3086428034,
				"y": 3.3181975203,
				"z": -0.7805069364,
				"element": "H" 
			},
			{
				"x": -6.243170232,
				"y": 1.6085037438,
				"z": -0.2857375704,
				"element": "H" 
			},
			{
				"x": -1.2044814492,
				"y": 3.3779296904,
				"z": 0.8898504269,
				"element": "H" 
			},
			{
				"x": -0.0837619247,
				"y": 2.8417344542,
				"z": -0.3661093207,
				"element": "H" 
			},
			{
				"x": -1.5812634466,
				"y": 3.6680770214,
				"z": -0.8204096509,
				"element": "H" 
			},
			{
				"x": -2.7855377015,
				"y": 0.7858581874,
				"z": -2.0402404592,
				"element": "H" 
			},
			{
				"x": -1.4115774714,
				"y": 1.8073052048,
				"z": -2.3101071244,
				"element": "H" 
			},
			{
				"x": -0.6164288359,
				"y": -0.2777603729,
				"z": -2.8850121886,
				"element": "H" 
			},
			{
				"x": -2.3856100695,
				"y": -1.4845749588,
				"z": -2.0412944602,
				"element": "H" 
			},
			{
				"x": 0.7543258208,
				"y": 0.8783274669,
				"z": -1.2470010248,
				"element": "H" 
			},
			{
				"x": 1.8909197962,
				"y": -3.1542972933,
				"z": -2.0358958099,
				"element": "H" 
			},
			{
				"x": 0.4298096807,
				"y": -2.4252368969,
				"z": -2.7239308978,
				"element": "H" 
			},
			{
				"x": 0.419104703,
				"y": -3.0037910247,
				"z": -1.0682088117,
				"element": "H" 
			},
			{
				"x": 1.731966314,
				"y": -0.4488123559,
				"z": -3.4177993093,
				"element": "H" 
			},
			{
				"x": 2.524256679,
				"y": 0.5956183349,
				"z": -2.247297703,
				"element": "H" 
			},
			{
				"x": 4.2601437376,
				"y": -0.5738376361,
				"z": -3.5479804464,
				"element": "H" 
			},
			{
				"x": 3.579836829,
				"y": -2.1402556801,
				"z": -3.1326823485,
				"element": "H" 
			},
			{
				"x": 4.4197623531,
				"y": -1.4356959638,
				"z": 0.6330744357,
				"element": "H" 
			}
		],
		 "valence_orbital": [ 
			{
				"type": "occ",
				"energy": -0.28145,
				"method": "rhf"
			},
			{
				"type": "occ",
				"energy": -0.26861,
				"method": "rhf"
			},
			{
				"type": "occ",
				"energy": -0.24694,
				"method": "rhf"
			},
			{
				"type": "occ",
				"energy": -0.24303,
				"method": "rhf"
			},
			{
				"type": "occ",
				"energy": -0.22565,
				"method": "rhf"
			},
			{
				"type": "unocc",
				"energy": -0.04113,
				"method": "rhf"
			},
			{
				"type": "unocc",
				"energy": -0.01815,
				"method": "rhf"
			},
			{
				"type": "unocc",
				"energy": 0.04606,
				"method": "rhf"
			},
			{
				"type": "unocc",
				"energy": 0.0653,
				"method": "rhf"
			},
			{
				"type": "unocc",
				"energy": 0.06909,
				"method": "rhf"
			}
		],
		"cosmo_sigma_profile": { 
			"-0.025": 0.0,
			"-0.024": 0.0,
			"-0.023": 0.0,
			"-0.022": 0.0,
			"-0.021": 0.0,
			"-0.02": 0.0,
			"-0.019": 0.0,
			"-0.018": 0.0,
			"-0.017": 0.0,
			"-0.016": 0.0,
			"-0.015": 0.181010069692,
			"-0.014": 1.1888559712,
			"-0.013": 0.589141049394,
			"-0.012": 0.645784653533,
			"-0.011": 0.922181935533,
			"-0.01": 0.95351200733,
			"-0.009": 1.05841390805,
			"-0.008": 0.797226252642,
			"-0.007": 1.29315405936,
			"-0.006": 3.58289747191,
			"-0.005": 13.5785072603,
			"-0.004": 26.4492395865,
			"-0.003": 51.9861849304,
			"-0.002": 60.7680158456,
			"-0.001": 55.5508788354,
			"0.0": 40.7563037792,
			"0.001": 33.8308200382,
			"0.002": 20.5653978503,
			"0.003": 9.16265113321,
			"0.004": 6.29503424924,
			"0.005": 5.30984217952,
			"0.006": 4.27183614958,
			"0.007": 5.07028162844,
			"0.008": 3.65604593728,
			"0.009": 4.76074459891,
			"0.01": 4.6414751132,
			"0.011": 4.28436638308,
			"0.012": 6.03511853479,
			"0.013": 6.80143806008,
			"0.014": 4.04392875574,
			"0.015": 0.750104220476,
			"0.016": 0.0,
			"0.017": 0.0,
			"0.018": 0.0,
			"0.019": 0.0,
			"0.02": 0.0,
			"0.021": 0.0,
			"0.022": 0.0,
			"0.023": 0.0,
			"0.024": 0.0,
			"0.025": 0.0
		}
	}
}
