{
	 "smiles": "NC(=O)N1CCC(=O)CC1", 
	 "Tm": 411.15, 
	 "num_atms": 20, 
	 "gaussian": { 
		 "optdone": 1, 
		 "sigma_profile": "yes", 
		 "theory": "DFT", 
		 "functional": "B3LYP", 
		 "basiset": "6-31G**", 
		 "properties": { 
			 "R2extent": 1688.0133, 
			 "electric_dipole_moment_norm": 2.80907289688, 
			 "electric_quadrupole_moment_norm": 18.4570371696, 
			 "total_energy": -494.633363664, 
			 "HOMO_LUMO_gap": 0.21235, 
			 "cosmo_polarized_energy": -17.9, 
			 "cosmo_cavitation_energy": 22.61, 
			 "cosmo_dispersion_energy": -16.99, 
			 "cosmo_repulsion_energy": 1.4, 
			 "cosmo_total_nonelectrostatic_energy": 7.02, 
			 "SMD_solvation_energy": 4.41 
		},
		"coords": [
			{
				"x": -1.2344825869,
				"y": 2.7200889276,
				"z": -0.868615386,
				"element": "N" 
			},
			{
				"x": -0.1246131395,
				"y": 1.881507016,
				"z": -0.7805551285,
				"element": "C" 
			},
			{
				"x": 0.9538136103,
				"y": 2.1834751978,
				"z": -1.28194882,
				"element": "O" 
			},
			{
				"x": -0.3166387758,
				"y": 0.7220103768,
				"z": -0.0564249033,
				"element": "N" 
			},
			{
				"x": -1.5490593283,
				"y": 0.4497127065,
				"z": 0.6877300348,
				"element": "C" 
			},
			{
				"x": -1.3299938955,
				"y": -0.6259129469,
				"z": 1.7609348597,
				"element": "C" 
			},
			{
				"x": -0.6976240626,
				"y": -1.8950586918,
				"z": 1.2001937977,
				"element": "C" 
			},
			{
				"x": -0.9717423167,
				"y": -3.0019972768,
				"z": 1.6168002794,
				"element": "O" 
			},
			{
				"x": 0.309870434,
				"y": -1.6554477573,
				"z": 0.0813958811,
				"element": "C" 
			},
			{
				"x": 0.8090782631,
				"y": -0.2086398616,
				"z": 0.0515077857,
				"element": "C" 
			},
			{
				"x": -2.1534622528,
				"y": 2.3040093573,
				"z": -0.926089102,
				"element": "H" 
			},
			{
				"x": -1.0781605022,
				"y": 3.4622142457,
				"z": -1.5363075075,
				"element": "H" 
			},
			{
				"x": -2.3506197746,
				"y": 0.1137874125,
				"z": 0.0090187272,
				"element": "H" 
			},
			{
				"x": -1.8974730999,
				"y": 1.3724612585,
				"z": 1.1641769487,
				"element": "H" 
			},
			{
				"x": -0.6507259905,
				"y": -0.2360084961,
				"z": 2.5319054558,
				"element": "H" 
			},
			{
				"x": -2.2693423528,
				"y": -0.882972647,
				"z": 2.2562926673,
				"element": "H" 
			},
			{
				"x": -0.1898025282,
				"y": -1.8972040085,
				"z": -0.8671669157,
				"element": "H" 
			},
			{
				"x": 1.1355349588,
				"y": -2.3650154415,
				"z": 0.1925514984,
				"element": "H" 
			},
			{
				"x": 1.404849188,
				"y": 0.0018911338,
				"z": 0.952176429,
				"element": "H" 
			},
			{
				"x": 1.4615941519,
				"y": -0.0258005049,
				"z": -0.8024766018,
				"element": "H" 
			}
		],
		 "valence_orbital": [ 
			{
				"type": "occ",
				"energy": -0.3455,
				"method": "rhf"
			},
			{
				"type": "occ",
				"energy": -0.27525,
				"method": "rhf"
			},
			{
				"type": "occ",
				"energy": -0.25606,
				"method": "rhf"
			},
			{
				"type": "occ",
				"energy": -0.2481,
				"method": "rhf"
			},
			{
				"type": "occ",
				"energy": -0.23737,
				"method": "rhf"
			},
			{
				"type": "unocc",
				"energy": -0.02502,
				"method": "rhf"
			},
			{
				"type": "unocc",
				"energy": 0.05281,
				"method": "rhf"
			},
			{
				"type": "unocc",
				"energy": 0.06623,
				"method": "rhf"
			},
			{
				"type": "unocc",
				"energy": 0.08009,
				"method": "rhf"
			},
			{
				"type": "unocc",
				"energy": 0.1145,
				"method": "rhf"
			}
		],
		"cosmo_sigma_profile": { 
			"-0.025": 0.0,
			"-0.024": 0.0,
			"-0.023": 0.0,
			"-0.022": 0.0,
			"-0.021": 0.0,
			"-0.02": 0.0,
			"-0.019": 0.0,
			"-0.018": 0.0,
			"-0.017": 0.0,
			"-0.016": 0.0,
			"-0.015": 0.0,
			"-0.014": 0.013065111806,
			"-0.013": 1.59987073655,
			"-0.012": 2.21509611861,
			"-0.011": 2.76001533688,
			"-0.01": 2.6674218104,
			"-0.009": 2.60148464215,
			"-0.008": 2.52852169869,
			"-0.007": 6.86028920795,
			"-0.006": 14.4046384782,
			"-0.005": 19.9141904697,
			"-0.004": 19.5033936323,
			"-0.003": 14.8035868159,
			"-0.002": 9.31644593333,
			"-0.001": 6.04799483118,
			"0.0": 6.52120543452,
			"0.001": 6.27666746323,
			"0.002": 4.10455606628,
			"0.003": 3.92451014635,
			"0.004": 3.36432285536,
			"0.005": 3.51398010484,
			"0.006": 4.46587987439,
			"0.007": 3.69436783709,
			"0.008": 3.25539203832,
			"0.009": 3.37150334368,
			"0.01": 3.39195078456,
			"0.011": 6.16747323098,
			"0.012": 6.11618464547,
			"0.013": 3.74602298699,
			"0.014": 4.48504274043,
			"0.015": 4.71156090825,
			"0.016": 0.314554523649,
			"0.017": 0.0,
			"0.018": 0.0,
			"0.019": 0.0,
			"0.02": 0.0,
			"0.021": 0.0,
			"0.022": 0.0,
			"0.023": 0.0,
			"0.024": 0.0,
			"0.025": 0.0
		}
	}
}
