{
	 "smiles": "CC(SCC1=NC=C(O1)C1=CC=C(Cl)C=C1)C(O)=O", 
	 "Tm": 403.15, 
	 "num_atms": 31, 
	 "gaussian": { 
		 "optdone": 1, 
		 "sigma_profile": "yes", 
		 "theory": "DFT", 
		 "functional": "B3LYP", 
		 "basiset": "6-31G**", 
		 "properties": { 
			 "R2extent": 8168.0899, 
			 "electric_dipole_moment_norm": 2.74585924985, 
			 "electric_quadrupole_moment_norm": 11.4599272855, 
			 "total_energy": -1641.42677339, 
			 "HOMO_LUMO_gap": 0.16926, 
			 "cosmo_polarized_energy": -16.19, 
			 "cosmo_cavitation_energy": 39.06, 
			 "cosmo_dispersion_energy": -27.45, 
			 "cosmo_repulsion_energy": 2.05, 
			 "cosmo_total_nonelectrostatic_energy": 13.65, 
			 "SMD_solvation_energy": 5.17 
		},
		"coords": [
			{
				"x": 1.9201288932,
				"y": -3.1467079589,
				"z": -2.0378741222,
				"element": "C" 
			},
			{
				"x": 0.6838282087,
				"y": -2.5427102323,
				"z": -1.3486207062,
				"element": "C" 
			},
			{
				"x": -0.4595960945,
				"y": -3.9253529693,
				"z": -0.9125406172,
				"element": "S" 
			},
			{
				"x": -1.8618378687,
				"y": -3.0276373047,
				"z": -0.085168628,
				"element": "C" 
			},
			{
				"x": -1.4874354313,
				"y": -2.2619206696,
				"z": 1.128488126,
				"element": "C" 
			},
			{
				"x": -1.6583177942,
				"y": -2.5661282371,
				"z": 2.3797785696,
				"element": "N" 
			},
			{
				"x": -1.120223163,
				"y": -1.4961922979,
				"z": 3.0747212872,
				"element": "C" 
			},
			{
				"x": -0.6311228452,
				"y": -0.5661866488,
				"z": 2.1975116008,
				"element": "C" 
			},
			{
				"x": -0.8715832653,
				"y": -1.0614628448,
				"z": 0.9354788814,
				"element": "O" 
			},
			{
				"x": 0.0432903094,
				"y": 0.7187769767,
				"z": 2.3036719304,
				"element": "C" 
			},
			{
				"x": 0.2191763233,
				"y": 1.3257816631,
				"z": 3.5598243771,
				"element": "C" 
			},
			{
				"x": 0.8703879345,
				"y": 2.5488291136,
				"z": 3.6759944341,
				"element": "C" 
			},
			{
				"x": 1.3506957794,
				"y": 3.1778006791,
				"z": 2.5258232254,
				"element": "C" 
			},
			{
				"x": 2.1720159535,
				"y": 4.7232151163,
				"z": 2.6675838609,
				"element": "Cl" 
			},
			{
				"x": 1.1869273597,
				"y": 2.5968913766,
				"z": 1.2687114298,
				"element": "C" 
			},
			{
				"x": 0.5356658442,
				"y": 1.3707877767,
				"z": 1.1584612902,
				"element": "C" 
			},
			{
				"x": 0.0485600726,
				"y": -1.4774071841,
				"z": -2.2543833183,
				"element": "C" 
			},
			{
				"x": -0.8651453679,
				"y": -1.9130827955,
				"z": -3.1454295243,
				"element": "O" 
			},
			{
				"x": 0.3826451184,
				"y": -0.3175450175,
				"z": -2.2078643676,
				"element": "O" 
			},
			{
				"x": 2.6201662201,
				"y": -2.343726813,
				"z": -2.284397568,
				"element": "H" 
			},
			{
				"x": 1.6518154717,
				"y": -3.6659168274,
				"z": -2.9629377508,
				"element": "H" 
			},
			{
				"x": 2.4223741703,
				"y": -3.855361052,
				"z": -1.3746248209,
				"element": "H" 
			},
			{
				"x": 0.9879729685,
				"y": -2.0302626471,
				"z": -0.4360022839,
				"element": "H" 
			},
			{
				"x": -2.3390821572,
				"y": -2.3742278427,
				"z": -0.8205094673,
				"element": "H" 
			},
			{
				"x": -2.5605831044,
				"y": -3.815515378,
				"z": 0.1993420342,
				"element": "H" 
			},
			{
				"x": -1.1194054702,
				"y": -1.4713375452,
				"z": 4.154371398,
				"element": "H" 
			},
			{
				"x": -0.1597241381,
				"y": 0.8426604951,
				"z": 4.4552433037,
				"element": "H" 
			},
			{
				"x": 1.0029349566,
				"y": 3.0141645522,
				"z": 4.6462704843,
				"element": "H" 
			},
			{
				"x": 1.5656857173,
				"y": 3.0967638312,
				"z": 0.3842612968,
				"element": "H" 
			},
			{
				"x": 0.4157657878,
				"y": 0.9184486987,
				"z": 0.1788902333,
				"element": "H" 
			},
			{
				"x": -1.0188803892,
				"y": -2.8649380135,
				"z": -2.9880745884,
				"element": "H" 
			}
		],
		 "valence_orbital": [ 
			{
				"type": "occ",
				"energy": -0.28813,
				"method": "rhf"
			},
			{
				"type": "occ",
				"energy": -0.28226,
				"method": "rhf"
			},
			{
				"type": "occ",
				"energy": -0.27009,
				"method": "rhf"
			},
			{
				"type": "occ",
				"energy": -0.25922,
				"method": "rhf"
			},
			{
				"type": "occ",
				"energy": -0.22357,
				"method": "rhf"
			},
			{
				"type": "unocc",
				"energy": -0.05431,
				"method": "rhf"
			},
			{
				"type": "unocc",
				"energy": -0.02017,
				"method": "rhf"
			},
			{
				"type": "unocc",
				"energy": -0.01458,
				"method": "rhf"
			},
			{
				"type": "unocc",
				"energy": -0.00862,
				"method": "rhf"
			},
			{
				"type": "unocc",
				"energy": 0.0274,
				"method": "rhf"
			}
		],
		"cosmo_sigma_profile": { 
			"-0.025": 0.0,
			"-0.024": 0.0,
			"-0.023": 0.0,
			"-0.022": 0.0,
			"-0.021": 0.0,
			"-0.02": 0.0,
			"-0.019": 0.0,
			"-0.018": 0.0,
			"-0.017": 0.0,
			"-0.016": 0.0,
			"-0.015": 0.0,
			"-0.014": 0.452323581732,
			"-0.013": 0.695768165756,
			"-0.012": 1.03409793062,
			"-0.011": 1.55232378735,
			"-0.01": 1.57838879831,
			"-0.009": 4.62145333621,
			"-0.008": 9.0481300784,
			"-0.007": 12.5492434344,
			"-0.006": 16.8610923113,
			"-0.005": 19.1048810953,
			"-0.004": 18.8141089561,
			"-0.003": 18.4661380038,
			"-0.002": 21.1713876538,
			"-0.001": 20.4336138628,
			"0.0": 21.4674195963,
			"0.001": 25.1904028216,
			"0.002": 26.5317760714,
			"0.003": 29.5638381784,
			"0.004": 18.4554838416,
			"0.005": 10.6846539562,
			"0.006": 6.65050277977,
			"0.007": 4.00815687149,
			"0.008": 6.19230804048,
			"0.009": 4.35522312619,
			"0.01": 5.48519309076,
			"0.011": 4.35936004159,
			"0.012": 3.52261866172,
			"0.013": 1.45426417144,
			"0.014": 0.96012612551,
			"0.015": 0.950816874084,
			"0.016": 0.149778815492,
			"0.017": 0.0,
			"0.018": 0.0,
			"0.019": 0.0,
			"0.02": 0.0,
			"0.021": 0.0,
			"0.022": 0.0,
			"0.023": 0.0,
			"0.024": 0.0,
			"0.025": 0.0
		}
	}
}
