{
	 "smiles": "CCN1N=NN=C1C1=CC(N)=CC=C1", 
	 "Tm": 392.15, 
	 "num_atms": 25, 
	 "gaussian": { 
		 "optdone": 1, 
		 "sigma_profile": "yes", 
		 "theory": "DFT", 
		 "functional": "B3LYP", 
		 "basiset": "6-31G**", 
		 "properties": { 
			 "R2extent": 3760.7612, 
			 "electric_dipole_moment_norm": 7.87966881538, 
			 "electric_quadrupole_moment_norm": 17.9790538541, 
			 "total_energy": -623.304309503, 
			 "HOMO_LUMO_gap": 0.17789, 
			 "cosmo_polarized_energy": -20.14, 
			 "cosmo_cavitation_energy": 28.99, 
			 "cosmo_dispersion_energy": -20.87, 
			 "cosmo_repulsion_energy": 1.64, 
			 "cosmo_total_nonelectrostatic_energy": 9.77, 
			 "SMD_solvation_energy": 2.94 
		},
		"coords": [
			{
				"x": 2.2068617895,
				"y": -0.8446017069,
				"z": -1.5804768245,
				"element": "C" 
			},
			{
				"x": 2.2755057842,
				"y": 0.11313427,
				"z": -0.391032682,
				"element": "C" 
			},
			{
				"x": 2.3833641921,
				"y": -0.5905413001,
				"z": 0.8869076986,
				"element": "N" 
			},
			{
				"x": 3.578799,
				"y": -1.1184643972,
				"z": 1.2465513342,
				"element": "N" 
			},
			{
				"x": 3.4254243422,
				"y": -1.6079315218,
				"z": 2.4340701226,
				"element": "N" 
			},
			{
				"x": 2.161712665,
				"y": -1.420756929,
				"z": 2.8789048483,
				"element": "N" 
			},
			{
				"x": 1.5096763423,
				"y": -0.7865473532,
				"z": 1.9102008183,
				"element": "C" 
			},
			{
				"x": 0.105290566,
				"y": -0.3606301018,
				"z": 1.9931321966,
				"element": "C" 
			},
			{
				"x": -0.7417929492,
				"y": -0.3619940255,
				"z": 0.8764122984,
				"element": "C" 
			},
			{
				"x": -2.0836150375,
				"y": 0.0382335146,
				"z": 0.9913949829,
				"element": "C" 
			},
			{
				"x": -2.9382783149,
				"y": -0.0273722604,
				"z": -0.107463135,
				"element": "N" 
			},
			{
				"x": -2.5617857735,
				"y": 0.4392969609,
				"z": 2.2508168733,
				"element": "C" 
			},
			{
				"x": -1.7203124594,
				"y": 0.4240372781,
				"z": 3.3603773583,
				"element": "C" 
			},
			{
				"x": -0.3898220783,
				"y": 0.0272086496,
				"z": 3.2480297689,
				"element": "C" 
			},
			{
				"x": 2.1624380095,
				"y": -0.275266757,
				"z": -2.513942912,
				"element": "H" 
			},
			{
				"x": 1.3249276523,
				"y": -1.4904074778,
				"z": -1.5271975765,
				"element": "H" 
			},
			{
				"x": 3.0942415616,
				"y": -1.4818555535,
				"z": -1.6041406473,
				"element": "H" 
			},
			{
				"x": 1.3939535565,
				"y": 0.7545856891,
				"z": -0.3339907957,
				"element": "H" 
			},
			{
				"x": 3.1569460353,
				"y": 0.7547692731,
				"z": -0.468326813,
				"element": "H" 
			},
			{
				"x": -0.3839917972,
				"y": -0.7209383176,
				"z": -0.0838210176,
				"element": "H" 
			},
			{
				"x": -3.7653068387,
				"y": 0.5499956459,
				"z": -0.0514282224,
				"element": "H" 
			},
			{
				"x": -2.4958420967,
				"y": 0.0247097459,
				"z": -1.0140002934,
				"element": "H" 
			},
			{
				"x": -3.5987591484,
				"y": 0.7483418581,
				"z": 2.3553797916,
				"element": "H" 
			},
			{
				"x": -2.1093936393,
				"y": 0.7310770395,
				"z": 4.326793045,
				"element": "H" 
			},
			{
				"x": 0.2691586366,
				"y": 0.0095177773,
				"z": 4.1077497823,
				"element": "H" 
			}
		],
		 "valence_orbital": [ 
			{
				"type": "occ",
				"energy": -0.29396,
				"method": "rhf"
			},
			{
				"type": "occ",
				"energy": -0.28519,
				"method": "rhf"
			},
			{
				"type": "occ",
				"energy": -0.26938,
				"method": "rhf"
			},
			{
				"type": "occ",
				"energy": -0.25143,
				"method": "rhf"
			},
			{
				"type": "occ",
				"energy": -0.21632,
				"method": "rhf"
			},
			{
				"type": "unocc",
				"energy": -0.03843,
				"method": "rhf"
			},
			{
				"type": "unocc",
				"energy": -0.00207,
				"method": "rhf"
			},
			{
				"type": "unocc",
				"energy": 0.0078,
				"method": "rhf"
			},
			{
				"type": "unocc",
				"energy": 0.05257,
				"method": "rhf"
			},
			{
				"type": "unocc",
				"energy": 0.06396,
				"method": "rhf"
			}
		],
		"cosmo_sigma_profile": { 
			"-0.025": 0.0,
			"-0.024": 0.0,
			"-0.023": 0.0,
			"-0.022": 0.0,
			"-0.021": 0.0,
			"-0.02": 0.0,
			"-0.019": 0.0,
			"-0.018": 0.0,
			"-0.017": 0.0,
			"-0.016": 0.0,
			"-0.015": 0.0,
			"-0.014": 0.0,
			"-0.013": 0.948371371991,
			"-0.012": 2.94395429516,
			"-0.011": 3.05033326122,
			"-0.01": 3.69397843454,
			"-0.009": 3.13871641195,
			"-0.008": 3.80510937747,
			"-0.007": 8.05745989403,
			"-0.006": 13.2296211956,
			"-0.005": 19.1412273694,
			"-0.004": 20.956484516,
			"-0.003": 15.0226050942,
			"-0.002": 14.2201444059,
			"-0.001": 16.1445183221,
			"0.0": 12.9012093665,
			"0.001": 7.7082108197,
			"0.002": 9.08413160412,
			"0.003": 8.6803722996,
			"0.004": 12.3467363693,
			"0.005": 14.167773799,
			"0.006": 4.52342804665,
			"0.007": 4.23459529228,
			"0.008": 5.68346392626,
			"0.009": 5.90218479407,
			"0.01": 5.04339841644,
			"0.011": 5.26571781522,
			"0.012": 4.08029153504,
			"0.013": 3.61245173639,
			"0.014": 2.32550979235,
			"0.015": 0.817750731572,
			"0.016": 0.112141786951,
			"0.017": 0.0,
			"0.018": 0.0,
			"0.019": 0.0,
			"0.02": 0.0,
			"0.021": 0.0,
			"0.022": 0.0,
			"0.023": 0.0,
			"0.024": 0.0,
			"0.025": 0.0
		}
	}
}
