{
	 "smiles": "CC(=O)OC1=CC2=C(C=CC(O)=C2)C=C1", 
	 "Tm": 431.15, 
	 "num_atms": 25, 
	 "gaussian": { 
		 "optdone": 1, 
		 "sigma_profile": "yes", 
		 "theory": "DFT", 
		 "functional": "B3LYP", 
		 "basiset": "6-31G**", 
		 "properties": { 
			 "R2extent": 4259.6472, 
			 "electric_dipole_moment_norm": 2.39469744435, 
			 "electric_quadrupole_moment_norm": 13.6325645141, 
			 "total_energy": -688.992410148, 
			 "HOMO_LUMO_gap": 0.17194, 
			 "cosmo_polarized_energy": -13.43, 
			 "cosmo_cavitation_energy": 29.86, 
			 "cosmo_dispersion_energy": -21.94, 
			 "cosmo_repulsion_energy": 1.71, 
			 "cosmo_total_nonelectrostatic_energy": 9.63, 
			 "SMD_solvation_energy": 6.47 
		},
		"coords": [
			{
				"x": -0.5158082054,
				"y": 2.5896817752,
				"z": 3.6672015289,
				"element": "C" 
			},
			{
				"x": -1.0576435275,
				"y": 1.6612935475,
				"z": 2.608131104,
				"element": "C" 
			},
			{
				"x": -2.217322377,
				"y": 1.3757218911,
				"z": 2.4408916021,
				"element": "O" 
			},
			{
				"x": -0.0237473554,
				"y": 1.1832541301,
				"z": 1.845269057,
				"element": "O" 
			},
			{
				"x": -0.267353429,
				"y": 0.2917490394,
				"z": 0.7969804187,
				"element": "C" 
			},
			{
				"x": 0.3509368468,
				"y": 0.5678111311,
				"z": -0.3996184043,
				"element": "C" 
			},
			{
				"x": 0.229343523,
				"y": -0.3310035319,
				"z": -1.4913223629,
				"element": "C" 
			},
			{
				"x": -0.5488272909,
				"y": -1.5216577604,
				"z": -1.3182504518,
				"element": "C" 
			},
			{
				"x": -0.6707054495,
				"y": -2.4192406511,
				"z": -2.4142354411,
				"element": "C" 
			},
			{
				"x": -0.0613994854,
				"y": -2.1634547827,
				"z": -3.6176161155,
				"element": "C" 
			},
			{
				"x": 0.7086871374,
				"y": -0.9821727428,
				"z": -3.7833331179,
				"element": "C" 
			},
			{
				"x": 1.2788237028,
				"y": -0.8065057956,
				"z": -5.0113889202,
				"element": "O" 
			},
			{
				"x": 0.8517973454,
				"y": -0.0860907369,
				"z": -2.7439257426,
				"element": "C" 
			},
			{
				"x": -1.1646573088,
				"y": -1.7637679102,
				"z": -0.0628964135,
				"element": "C" 
			},
			{
				"x": -1.033009082,
				"y": -0.8824651208,
				"z": 0.9859338471,
				"element": "C" 
			},
			{
				"x": 0.0105932695,
				"y": 3.4262989044,
				"z": 3.1984012014,
				"element": "H" 
			},
			{
				"x": -1.3387389795,
				"y": 2.9616910063,
				"z": 4.276392405,
				"element": "H" 
			},
			{
				"x": 0.2074559143,
				"y": 2.0610740914,
				"z": 4.2950484144,
				"element": "H" 
			},
			{
				"x": 0.9375759444,
				"y": 1.4757283864,
				"z": -0.498963405,
				"element": "H" 
			},
			{
				"x": -1.2604034,
				"y": -3.3232754532,
				"z": -2.2870373821,
				"element": "H" 
			},
			{
				"x": -0.1499764082,
				"y": -2.8432040933,
				"z": -4.4584516159,
				"element": "H" 
			},
			{
				"x": 1.7751449558,
				"y": 0.0225353507,
				"z": -5.0141932818,
				"element": "H" 
			},
			{
				"x": 1.4425785643,
				"y": 0.8186189983,
				"z": -2.8748376986,
				"element": "H" 
			},
			{
				"x": -1.7518706187,
				"y": -2.6692728005,
				"z": 0.0651333991,
				"element": "H" 
			},
			{
				"x": -1.5109742864,
				"y": -1.0698468725,
				"z": 1.9385873755,
				"element": "H" 
			}
		],
		 "valence_orbital": [ 
			{
				"type": "occ",
				"energy": -0.29534,
				"method": "rhf"
			},
			{
				"type": "occ",
				"energy": -0.28532,
				"method": "rhf"
			},
			{
				"type": "occ",
				"energy": -0.27509,
				"method": "rhf"
			},
			{
				"type": "occ",
				"energy": -0.22714,
				"method": "rhf"
			},
			{
				"type": "occ",
				"energy": -0.2094,
				"method": "rhf"
			},
			{
				"type": "unocc",
				"energy": -0.03746,
				"method": "rhf"
			},
			{
				"type": "unocc",
				"energy": -0.00771,
				"method": "rhf"
			},
			{
				"type": "unocc",
				"energy": 0.01107,
				"method": "rhf"
			},
			{
				"type": "unocc",
				"energy": 0.03323,
				"method": "rhf"
			},
			{
				"type": "unocc",
				"energy": 0.06802,
				"method": "rhf"
			}
		],
		"cosmo_sigma_profile": { 
			"-0.025": 0.0,
			"-0.024": 0.0,
			"-0.023": 0.0,
			"-0.022": 0.0,
			"-0.021": 0.0,
			"-0.02": 0.0,
			"-0.019": 0.0,
			"-0.018": 0.593714968069,
			"-0.017": 1.19848767765,
			"-0.016": 0.790523462219,
			"-0.015": 1.01538098997,
			"-0.014": 1.04034888887,
			"-0.013": 0.968003409509,
			"-0.012": 0.442279627559,
			"-0.011": 0.841739049248,
			"-0.01": 1.42127662275,
			"-0.009": 1.56441543546,
			"-0.008": 0.536491828535,
			"-0.007": 6.01976415194,
			"-0.006": 19.9345759406,
			"-0.005": 17.0594935133,
			"-0.004": 17.1988942804,
			"-0.003": 14.9966271622,
			"-0.002": 15.7658055298,
			"-0.001": 11.6231866332,
			"0.0": 11.2758630285,
			"0.001": 9.60142727787,
			"0.002": 14.1169389366,
			"0.003": 22.9373681568,
			"0.004": 28.543060571,
			"0.005": 10.8508439143,
			"0.006": 3.17275068697,
			"0.007": 3.92517748429,
			"0.008": 3.62227788711,
			"0.009": 4.17257159123,
			"0.01": 4.46934822456,
			"0.011": 5.91059114231,
			"0.012": 2.88523823402,
			"0.013": 0.143056577081,
			"0.014": 0.0,
			"0.015": 0.0,
			"0.016": 0.0,
			"0.017": 0.0,
			"0.018": 0.0,
			"0.019": 0.0,
			"0.02": 0.0,
			"0.021": 0.0,
			"0.022": 0.0,
			"0.023": 0.0,
			"0.024": 0.0,
			"0.025": 0.0
		}
	}
}
