{
	 "smiles": "ClC(Cl)C1=NN=C(O1)C1=CC=CC=C1", 
	 "Tm": 356.15, 
	 "num_atms": 20, 
	 "gaussian": { 
		 "optdone": 1, 
		 "sigma_profile": "yes", 
		 "theory": "DFT", 
		 "functional": "B3LYP", 
		 "basiset": "6-31G**", 
		 "properties": { 
			 "R2extent": 5031.9496, 
			 "electric_dipole_moment_norm": 5.09150495139, 
			 "electric_quadrupole_moment_norm": 8.6610287501, 
			 "total_energy": -1451.64527196, 
			 "HOMO_LUMO_gap": 0.18396, 
			 "cosmo_polarized_energy": -11.81, 
			 "cosmo_cavitation_energy": 29.31, 
			 "cosmo_dispersion_energy": -21.66, 
			 "cosmo_repulsion_energy": 1.72, 
			 "cosmo_total_nonelectrostatic_energy": 9.37, 
			 "SMD_solvation_energy": 2.63 
		},
		"coords": [
			{
				"x": -3.8175471551,
				"y": 0.5051379318,
				"z": -2.7501261175,
				"element": "Cl" 
			},
			{
				"x": -2.7422654322,
				"y": 1.4124605887,
				"z": -1.6255045046,
				"element": "C" 
			},
			{
				"x": -2.5611649058,
				"y": 3.127331424,
				"z": -2.1457621346,
				"element": "Cl" 
			},
			{
				"x": -1.419051331,
				"y": 0.7449455977,
				"z": -1.4798211163,
				"element": "C" 
			},
			{
				"x": -0.499947288,
				"y": 0.5070213494,
				"z": -2.3580132816,
				"element": "N" 
			},
			{
				"x": 0.5238533716,
				"y": -0.1389009827,
				"z": -1.6827168551,
				"element": "N" 
			},
			{
				"x": 0.1491258138,
				"y": -0.2461858753,
				"z": -0.437195765,
				"element": "C" 
			},
			{
				"x": -1.0883769797,
				"y": 0.299848524,
				"z": -0.2342152238,
				"element": "O" 
			},
			{
				"x": 0.8664805493,
				"y": -0.8468547993,
				"z": 0.6798599175,
				"element": "C" 
			},
			{
				"x": 2.1367564796,
				"y": -1.4021830679,
				"z": 0.4515005777,
				"element": "C" 
			},
			{
				"x": 2.8378508548,
				"y": -1.9803236781,
				"z": 1.5050533812,
				"element": "C" 
			},
			{
				"x": 2.2830012896,
				"y": -2.0102310121,
				"z": 2.7879620573,
				"element": "C" 
			},
			{
				"x": 1.0204612236,
				"y": -1.4585461223,
				"z": 3.0159723083,
				"element": "C" 
			},
			{
				"x": 0.3100923529,
				"y": -0.8772290012,
				"z": 1.967921375,
				"element": "C" 
			},
			{
				"x": -3.2444622526,
				"y": 1.4307818553,
				"z": -0.6609756276,
				"element": "H" 
			},
			{
				"x": 2.5537083711,
				"y": -1.3711929456,
				"z": -0.5493268778,
				"element": "H" 
			},
			{
				"x": 3.8193015688,
				"y": -2.4088204483,
				"z": 1.3261943439,
				"element": "H" 
			},
			{
				"x": 2.8336169362,
				"y": -2.4624567189,
				"z": 3.6074685899,
				"element": "H" 
			},
			{
				"x": 0.5876542861,
				"y": -1.4807004156,
				"z": 4.0114993686,
				"element": "H" 
			},
			{
				"x": -0.670787753,
				"y": -0.4480022036,
				"z": 2.1424255846,
				"element": "H" 
			}
		],
		 "valence_orbital": [ 
			{
				"type": "occ",
				"energy": -0.32099,
				"method": "rhf"
			},
			{
				"type": "occ",
				"energy": -0.31055,
				"method": "rhf"
			},
			{
				"type": "occ",
				"energy": -0.28922,
				"method": "rhf"
			},
			{
				"type": "occ",
				"energy": -0.27237,
				"method": "rhf"
			},
			{
				"type": "occ",
				"energy": -0.25249,
				"method": "rhf"
			},
			{
				"type": "unocc",
				"energy": -0.06853,
				"method": "rhf"
			},
			{
				"type": "unocc",
				"energy": -0.03601,
				"method": "rhf"
			},
			{
				"type": "unocc",
				"energy": -0.02987,
				"method": "rhf"
			},
			{
				"type": "unocc",
				"energy": -0.02051,
				"method": "rhf"
			},
			{
				"type": "unocc",
				"energy": 0.04137,
				"method": "rhf"
			}
		],
		"cosmo_sigma_profile": { 
			"-0.025": 0.0,
			"-0.024": 0.0,
			"-0.023": 0.0,
			"-0.022": 0.0,
			"-0.021": 0.0,
			"-0.02": 0.0,
			"-0.019": 0.0,
			"-0.018": 0.0,
			"-0.017": 0.0,
			"-0.016": 0.0,
			"-0.015": 0.0,
			"-0.014": 0.0,
			"-0.013": 0.614946083716,
			"-0.012": 2.37258203327,
			"-0.011": 1.56681816504,
			"-0.01": 1.50608633401,
			"-0.009": 1.50496277849,
			"-0.008": 1.93535236948,
			"-0.007": 5.69771036854,
			"-0.006": 14.7687657116,
			"-0.005": 15.7683791655,
			"-0.004": 14.2123060097,
			"-0.003": 15.1342812428,
			"-0.002": 14.4773683708,
			"-0.001": 16.3859265438,
			"0.0": 17.9780064251,
			"0.001": 19.9058335249,
			"0.002": 20.5329353844,
			"0.003": 32.8420567493,
			"0.004": 20.0203166319,
			"0.005": 4.17002894363,
			"0.006": 2.27327699452,
			"0.007": 2.30461436237,
			"0.008": 1.92580865546,
			"0.009": 2.68686543218,
			"0.01": 3.00597877221,
			"0.011": 2.79459168226,
			"0.012": 2.4624358146,
			"0.013": 1.98303756069,
			"0.014": 0.336847785861,
			"0.015": 0.0,
			"0.016": 0.0,
			"0.017": 0.0,
			"0.018": 0.0,
			"0.019": 0.0,
			"0.02": 0.0,
			"0.021": 0.0,
			"0.022": 0.0,
			"0.023": 0.0,
			"0.024": 0.0,
			"0.025": 0.0
		}
	}
}
