{
	 "smiles": "CC1=C2C=CC=CC2=C(C)C2=C1C=CC=C2", 
	 "Tm": 456.15, 
	 "num_atms": 30, 
	 "gaussian": { 
		 "optdone": 1, 
		 "sigma_profile": "yes", 
		 "theory": "DFT", 
		 "functional": "B3LYP", 
		 "basiset": "6-31G**", 
		 "properties": { 
			 "R2extent": 3742.5149, 
			 "electric_dipole_moment_norm": 0.082195376999, 
			 "electric_quadrupole_moment_norm": 9.65742727387, 
			 "total_energy": -618.160794605, 
			 "HOMO_LUMO_gap": 0.12545, 
			 "cosmo_polarized_energy": -5.87, 
			 "cosmo_cavitation_energy": 31.04, 
			 "cosmo_dispersion_energy": -23.44, 
			 "cosmo_repulsion_energy": 1.75, 
			 "cosmo_total_nonelectrostatic_energy": 9.35, 
			 "SMD_solvation_energy": 4.71 
		},
		"coords": [
			{
				"x": 0.0658683675,
				"y": -3.0790940516,
				"z": 0.5307746806,
				"element": "C" 
			},
			{
				"x": 0.333643168,
				"y": -1.6698848304,
				"z": 0.0445419286,
				"element": "C" 
			},
			{
				"x": 1.1568911379,
				"y": -0.7987349955,
				"z": 0.7935656431,
				"element": "C" 
			},
			{
				"x": 1.8297246613,
				"y": -1.2331070716,
				"z": 1.9834753533,
				"element": "C" 
			},
			{
				"x": 2.6404660211,
				"y": -0.3985840161,
				"z": 2.7055133322,
				"element": "C" 
			},
			{
				"x": 2.8351201971,
				"y": 0.9435696496,
				"z": 2.2844815194,
				"element": "C" 
			},
			{
				"x": 2.2123707554,
				"y": 1.4054100751,
				"z": 1.1557883712,
				"element": "C" 
			},
			{
				"x": 1.3555304425,
				"y": 0.5712060347,
				"z": 0.3638494133,
				"element": "C" 
			},
			{
				"x": 0.7279104652,
				"y": 1.0500788532,
				"z": -0.8085338631,
				"element": "C" 
			},
			{
				"x": 0.8747834299,
				"y": 2.5005274552,
				"z": -1.2192145243,
				"element": "C" 
			},
			{
				"x": -0.0174302251,
				"y": 0.1523642585,
				"z": -1.6062038811,
				"element": "C" 
			},
			{
				"x": -0.2158945085,
				"y": -1.2176321852,
				"z": -1.176580207,
				"element": "C" 
			},
			{
				"x": -0.9690220712,
				"y": -2.087209378,
				"z": -2.0332333237,
				"element": "C" 
			},
			{
				"x": -1.4918259583,
				"y": -1.6594743274,
				"z": -3.2243537484,
				"element": "C" 
			},
			{
				"x": -1.2975311319,
				"y": -0.3172080816,
				"z": -3.6452088231,
				"element": "C" 
			},
			{
				"x": -0.5869844133,
				"y": 0.5514791406,
				"z": -2.8606240384,
				"element": "C" 
			},
			{
				"x": -0.9131705557,
				"y": -3.4373481213,
				"z": 0.2085661815,
				"element": "H" 
			},
			{
				"x": 0.0697673208,
				"y": -3.1368418237,
				"z": 1.6204220249,
				"element": "H" 
			},
			{
				"x": 0.8139228724,
				"y": -3.7932186367,
				"z": 0.1619907325,
				"element": "H" 
			},
			{
				"x": 1.714621357,
				"y": -2.2593254776,
				"z": 2.310535936,
				"element": "H" 
			},
			{
				"x": 3.1419282845,
				"y": -0.7641886973,
				"z": 3.5970269298,
				"element": "H" 
			},
			{
				"x": 3.4849416796,
				"y": 1.6008807938,
				"z": 2.8550963051,
				"element": "H" 
			},
			{
				"x": 2.3940266265,
				"y": 2.4257781052,
				"z": 0.8408450689,
				"element": "H" 
			},
			{
				"x": 0.9830335527,
				"y": 3.1555095553,
				"z": -0.3532124552,
				"element": "H" 
			},
			{
				"x": 1.7492002584,
				"y": 2.6616096378,
				"z": -1.8634232044,
				"element": "H" 
			},
			{
				"x": -0.0012774137,
				"y": 2.8556740752,
				"z": -1.7642469803,
				"element": "H" 
			},
			{
				"x": -1.1098776001,
				"y": -3.1214566625,
				"z": -1.7437000883,
				"element": "H" 
			},
			{
				"x": -2.0493234092,
				"y": -2.3482591157,
				"z": -3.8526052139,
				"element": "H" 
			},
			{
				"x": -1.7070070569,
				"y": 0.0170146813,
				"z": -4.5941825085,
				"element": "H" 
			},
			{
				"x": -0.4316062539,
				"y": 1.5639651567,
				"z": -3.2128505609,
				"element": "H" 
			}
		],
		 "valence_orbital": [ 
			{
				"type": "occ",
				"energy": -0.29304,
				"method": "rhf"
			},
			{
				"type": "occ",
				"energy": -0.27744,
				"method": "rhf"
			},
			{
				"type": "occ",
				"energy": -0.24992,
				"method": "rhf"
			},
			{
				"type": "occ",
				"energy": -0.2341,
				"method": "rhf"
			},
			{
				"type": "occ",
				"energy": -0.18442,
				"method": "rhf"
			},
			{
				"type": "unocc",
				"energy": -0.05897,
				"method": "rhf"
			},
			{
				"type": "unocc",
				"energy": -0.00835,
				"method": "rhf"
			},
			{
				"type": "unocc",
				"energy": 0.01032,
				"method": "rhf"
			},
			{
				"type": "unocc",
				"energy": 0.0499,
				"method": "rhf"
			},
			{
				"type": "unocc",
				"energy": 0.06499,
				"method": "rhf"
			}
		],
		"cosmo_sigma_profile": { 
			"-0.025": 0.0,
			"-0.024": 0.0,
			"-0.023": 0.0,
			"-0.022": 0.0,
			"-0.021": 0.0,
			"-0.02": 0.0,
			"-0.019": 0.0,
			"-0.018": 0.0,
			"-0.017": 0.0,
			"-0.016": 0.0,
			"-0.015": 0.0,
			"-0.014": 0.0,
			"-0.013": 0.0,
			"-0.012": 0.0,
			"-0.011": 0.0,
			"-0.01": 0.0,
			"-0.009": 0.0,
			"-0.008": 0.0,
			"-0.007": 0.181581121508,
			"-0.006": 8.89755232533,
			"-0.005": 18.1111430959,
			"-0.004": 25.04264727,
			"-0.003": 22.8008786105,
			"-0.002": 25.0099432549,
			"-0.001": 21.3266524351,
			"0.0": 20.3057896213,
			"0.001": 15.3115764442,
			"0.002": 12.8656984344,
			"0.003": 14.6432068251,
			"0.004": 30.2954766769,
			"0.005": 25.1592016656,
			"0.006": 8.36039939018,
			"0.007": 0.0,
			"0.008": 0.0,
			"0.009": 0.0,
			"0.01": 0.0,
			"0.011": 0.0,
			"0.012": 0.0,
			"0.013": 0.0,
			"0.014": 0.0,
			"0.015": 0.0,
			"0.016": 0.0,
			"0.017": 0.0,
			"0.018": 0.0,
			"0.019": 0.0,
			"0.02": 0.0,
			"0.021": 0.0,
			"0.022": 0.0,
			"0.023": 0.0,
			"0.024": 0.0,
			"0.025": 0.0
		}
	}
}
