{
	 "smiles": "C[C@]12CC[C@H]3[C@@H](CCC4=CC(=O)CC[C@]34C)[C@@H]1CC[C@@H]2C(O)=O", 
	 "Tm": 527.0, 
	 "num_atms": 51, 
	 "gaussian": { 
		 "optdone": 1, 
		 "sigma_profile": "yes", 
		 "theory": "DFT", 
		 "functional": "B3LYP", 
		 "basiset": "6-31G**", 
		 "properties": { 
			 "R2extent": 9282.4011, 
			 "electric_dipole_moment_norm": 4.7230550759, 
			 "electric_quadrupole_moment_norm": 28.0067916642, 
			 "total_energy": -1004.7097093, 
			 "HOMO_LUMO_gap": 0.18585, 
			 "cosmo_polarized_energy": -16.28, 
			 "cosmo_cavitation_energy": 45.35, 
			 "cosmo_dispersion_energy": -31.84, 
			 "cosmo_repulsion_energy": 2.34, 
			 "cosmo_total_nonelectrostatic_energy": 15.84, 
			 "SMD_solvation_energy": 7.92 
		},
		"coords": [
			{
				"x": -0.9825427279,
				"y": -2.2735334909,
				"z": 0.2937190179,
				"element": "C" 
			},
			{
				"x": -0.9711607435,
				"y": -1.1829450625,
				"z": -0.8019323075,
				"element": "C" 
			},
			{
				"x": 0.4002593371,
				"y": -1.1210214961,
				"z": -1.4918353249,
				"element": "C" 
			},
			{
				"x": 1.4868286681,
				"y": -0.5923587334,
				"z": -0.533318774,
				"element": "C" 
			},
			{
				"x": 1.1315052937,
				"y": 0.7668589962,
				"z": 0.1174326073,
				"element": "C" 
			},
			{
				"x": -0.2797499785,
				"y": 0.7497922102,
				"z": 0.7729131728,
				"element": "C" 
			},
			{
				"x": -0.6452325821,
				"y": 2.1522219347,
				"z": 1.2778865938,
				"element": "C" 
			},
			{
				"x": 0.4145730169,
				"y": 2.6922836131,
				"z": 2.2482760214,
				"element": "C" 
			},
			{
				"x": 1.8058164625,
				"y": 2.6519589991,
				"z": 1.6645650046,
				"element": "C" 
			},
			{
				"x": 2.5938654715,
				"y": 3.7468125046,
				"z": 1.7160289743,
				"element": "C" 
			},
			{
				"x": 4.0071588272,
				"y": 3.775504683,
				"z": 1.301911513,
				"element": "C" 
			},
			{
				"x": 4.6725705118,
				"y": 4.8019071329,
				"z": 1.3429488828,
				"element": "O" 
			},
			{
				"x": 4.5965317726,
				"y": 2.4383894856,
				"z": 0.8854805226,
				"element": "C" 
			},
			{
				"x": 3.5490382204,
				"y": 1.5427738742,
				"z": 0.2159686149,
				"element": "C" 
			},
			{
				"x": 2.2668539164,
				"y": 1.3195815755,
				"z": 1.0627478604,
				"element": "C" 
			},
			{
				"x": 2.5748552556,
				"y": 0.3425749868,
				"z": 2.2289967024,
				"element": "C" 
			},
			{
				"x": -1.296064363,
				"y": 0.2311075446,
				"z": -0.2526023412,
				"element": "C" 
			},
			{
				"x": -2.7909716625,
				"y": 0.1634561106,
				"z": 0.1171530911,
				"element": "C" 
			},
			{
				"x": -3.4047665985,
				"y": -0.8063488622,
				"z": -0.9374772059,
				"element": "C" 
			},
			{
				"x": -2.1924362408,
				"y": -1.367881364,
				"z": -1.7433712886,
				"element": "C" 
			},
			{
				"x": -2.3751159597,
				"y": -2.7462491063,
				"z": -2.3406800496,
				"element": "C" 
			},
			{
				"x": -3.6600186267,
				"y": -2.9801470975,
				"z": -2.7081857459,
				"element": "O" 
			},
			{
				"x": -1.4980449437,
				"y": -3.5631189386,
				"z": -2.5347636435,
				"element": "O" 
			},
			{
				"x": -0.2371257699,
				"y": -2.0861656433,
				"z": 1.0697784494,
				"element": "H" 
			},
			{
				"x": -0.762486968,
				"y": -3.2465044657,
				"z": -0.1519813852,
				"element": "H" 
			},
			{
				"x": -1.9536861429,
				"y": -2.3467004298,
				"z": 0.7931258294,
				"element": "H" 
			},
			{
				"x": 0.6840911825,
				"y": -2.1055224186,
				"z": -1.876766998,
				"element": "H" 
			},
			{
				"x": 0.330145611,
				"y": -0.4503978659,
				"z": -2.3605337969,
				"element": "H" 
			},
			{
				"x": 2.4240733355,
				"y": -0.5014097666,
				"z": -1.0912042726,
				"element": "H" 
			},
			{
				"x": 1.671305848,
				"y": -1.3407065623,
				"z": 0.2452405659,
				"element": "H" 
			},
			{
				"x": 1.060066922,
				"y": 1.4991717135,
				"z": -0.7036415071,
				"element": "H" 
			},
			{
				"x": -0.2728813217,
				"y": 0.0712058257,
				"z": 1.6381086543,
				"element": "H" 
			},
			{
				"x": -0.7343629562,
				"y": 2.8337590998,
				"z": 0.4201415345,
				"element": "H" 
			},
			{
				"x": -1.6226272916,
				"y": 2.1392443835,
				"z": 1.7732570469,
				"element": "H" 
			},
			{
				"x": 0.1735646946,
				"y": 3.7127142363,
				"z": 2.5631121582,
				"element": "H" 
			},
			{
				"x": 0.3981560573,
				"y": 2.0750589938,
				"z": 3.1591103342,
				"element": "H" 
			},
			{
				"x": 2.2156132636,
				"y": 4.6792825487,
				"z": 2.1298540599,
				"element": "H" 
			},
			{
				"x": 4.9961310564,
				"y": 1.9605128522,
				"z": 1.7909262419,
				"element": "H" 
			},
			{
				"x": 5.450781704,
				"y": 2.6228702492,
				"z": 0.2277207753,
				"element": "H" 
			},
			{
				"x": 4.0008901453,
				"y": 0.5773836227,
				"z": -0.0321885034,
				"element": "H" 
			},
			{
				"x": 3.2581585251,
				"y": 2.0056477081,
				"z": -0.7361976951,
				"element": "H" 
			},
			{
				"x": 3.3166583449,
				"y": 0.7726240089,
				"z": 2.9083801991,
				"element": "H" 
			},
			{
				"x": 2.9771963287,
				"y": -0.602580832,
				"z": 1.8538807938,
				"element": "H" 
			},
			{
				"x": 1.6857297165,
				"y": 0.1140529446,
				"z": 2.822806449,
				"element": "H" 
			},
			{
				"x": -1.2216026876,
				"y": 0.9084429579,
				"z": -1.1202167191,
				"element": "H" 
			},
			{
				"x": -2.9252685385,
				"y": -0.2301760847,
				"z": 1.1311563322,
				"element": "H" 
			},
			{
				"x": -3.2686087166,
				"y": 1.1471188344,
				"z": 0.0949796341,
				"element": "H" 
			},
			{
				"x": -3.9578480823,
				"y": -1.6175309124,
				"z": -0.4570990518,
				"element": "H" 
			},
			{
				"x": -4.1126559533,
				"y": -0.3031068814,
				"z": -1.6004487921,
				"element": "H" 
			},
			{
				"x": -2.0319611941,
				"y": -0.7168197465,
				"z": -2.6166140297,
				"element": "H" 
			},
			{
				"x": -3.6635994396,
				"y": -3.8630878696,
				"z": -3.1158482053,
				"element": "H" 
			}
		],
		 "valence_orbital": [ 
			{
				"type": "occ",
				"energy": -0.29257,
				"method": "rhf"
			},
			{
				"type": "occ",
				"energy": -0.28466,
				"method": "rhf"
			},
			{
				"type": "occ",
				"energy": -0.27191,
				"method": "rhf"
			},
			{
				"type": "occ",
				"energy": -0.25304,
				"method": "rhf"
			},
			{
				"type": "occ",
				"energy": -0.22861,
				"method": "rhf"
			},
			{
				"type": "unocc",
				"energy": -0.04276,
				"method": "rhf"
			},
			{
				"type": "unocc",
				"energy": 0.00387,
				"method": "rhf"
			},
			{
				"type": "unocc",
				"energy": 0.06055,
				"method": "rhf"
			},
			{
				"type": "unocc",
				"energy": 0.07094,
				"method": "rhf"
			},
			{
				"type": "unocc",
				"energy": 0.07345,
				"method": "rhf"
			}
		],
		"cosmo_sigma_profile": { 
			"-0.025": 0.0,
			"-0.024": 0.0,
			"-0.023": 0.0,
			"-0.022": 0.0,
			"-0.021": 0.0,
			"-0.02": 0.0,
			"-0.019": 0.0,
			"-0.018": 0.302059057506,
			"-0.017": 1.04164258467,
			"-0.016": 1.18052329191,
			"-0.015": 0.370871683851,
			"-0.014": 0.858913607788,
			"-0.013": 0.266383935987,
			"-0.012": 0.638155955935,
			"-0.011": 0.971900470998,
			"-0.01": 0.741722094223,
			"-0.009": 0.522748186114,
			"-0.008": 0.537651251832,
			"-0.007": 0.772864922323,
			"-0.006": 2.81151782844,
			"-0.005": 9.50247660659,
			"-0.004": 20.8503450416,
			"-0.003": 45.3915315187,
			"-0.002": 60.8340936151,
			"-0.001": 56.2984947921,
			"0.0": 40.1153407621,
			"0.001": 28.0558041675,
			"0.002": 15.2850775836,
			"0.003": 8.34442497448,
			"0.004": 5.42228792668,
			"0.005": 4.42277150779,
			"0.006": 4.62010925583,
			"0.007": 5.46723414871,
			"0.008": 4.70037587681,
			"0.009": 4.23336654354,
			"0.01": 3.95646358205,
			"0.011": 4.38224777021,
			"0.012": 6.92598355373,
			"0.013": 5.4812757043,
			"0.014": 3.12340108126,
			"0.015": 0.711969407872,
			"0.016": 0.0,
			"0.017": 0.0,
			"0.018": 0.0,
			"0.019": 0.0,
			"0.02": 0.0,
			"0.021": 0.0,
			"0.022": 0.0,
			"0.023": 0.0,
			"0.024": 0.0,
			"0.025": 0.0
		}
	}
}
