{
	 "smiles": "OC(=O)CCC1=CC=C(C=C1)S(=O)(=O)N1CCCC1", 
	 "Tm": 411.15, 
	 "num_atms": 36, 
	 "gaussian": { 
		 "optdone": 1, 
		 "sigma_profile": "yes", 
		 "theory": "DFT", 
		 "functional": "B3LYP", 
		 "basiset": "6-31G**", 
		 "properties": { 
			 "R2extent": 6910.4913, 
			 "electric_dipole_moment_norm": 5.57361735411, 
			 "electric_quadrupole_moment_norm": 36.6927333381, 
			 "total_energy": -1259.41621926, 
			 "HOMO_LUMO_gap": 0.20683, 
			 "cosmo_polarized_energy": -20.94, 
			 "cosmo_cavitation_energy": 39.81, 
			 "cosmo_dispersion_energy": -27.58, 
			 "cosmo_repulsion_energy": 2.13, 
			 "cosmo_total_nonelectrostatic_energy": 14.36, 
			 "SMD_solvation_energy": 5.41 
		},
		"coords": [
			{
				"x": 0.4960476102,
				"y": 3.0284738466,
				"z": -2.3075526791,
				"element": "O" 
			},
			{
				"x": -0.1732913761,
				"y": 3.1000773293,
				"z": -1.1267376403,
				"element": "C" 
			},
			{
				"x": 0.3759894363,
				"y": 3.3936553993,
				"z": -0.089397279,
				"element": "O" 
			},
			{
				"x": -1.6495808219,
				"y": 2.8051936294,
				"z": -1.2928965456,
				"element": "C" 
			},
			{
				"x": -1.9612404102,
				"y": 1.5155501217,
				"z": -2.0871945085,
				"element": "C" 
			},
			{
				"x": -1.4576981468,
				"y": 0.2591569891,
				"z": -1.4081342719,
				"element": "C" 
			},
			{
				"x": -2.2235169408,
				"y": -0.3704598568,
				"z": -0.4162697821,
				"element": "C" 
			},
			{
				"x": -1.7579812216,
				"y": -1.5087332834,
				"z": 0.2390525426,
				"element": "C" 
			},
			{
				"x": -0.5053098431,
				"y": -2.0281483824,
				"z": -0.1004416985,
				"element": "C" 
			},
			{
				"x": 0.2680681029,
				"y": -1.4293900647,
				"z": -1.0985145814,
				"element": "C" 
			},
			{
				"x": -0.2121631866,
				"y": -0.290740932,
				"z": -1.7440586216,
				"element": "C" 
			},
			{
				"x": 0.1360147123,
				"y": -3.455677404,
				"z": 0.7851450322,
				"element": "S" 
			},
			{
				"x": -1.011129012,
				"y": -4.1452299404,
				"z": 1.379823919,
				"element": "O" 
			},
			{
				"x": 1.0859395194,
				"y": -4.1272648233,
				"z": -0.1051099468,
				"element": "O" 
			},
			{
				"x": 1.0308093963,
				"y": -2.8543514395,
				"z": 2.0542935,
				"element": "N" 
			},
			{
				"x": 2.3619035472,
				"y": -2.2642974032,
				"z": 1.819664343,
				"element": "C" 
			},
			{
				"x": 2.7503575218,
				"y": -1.8052875226,
				"z": 3.2285601743,
				"element": "C" 
			},
			{
				"x": 1.419046176,
				"y": -1.2856711402,
				"z": 3.8012158029,
				"element": "C" 
			},
			{
				"x": 0.3523016446,
				"y": -2.2378180068,
				"z": 3.2204351311,
				"element": "C" 
			},
			{
				"x": 1.4203828328,
				"y": 3.2504676022,
				"z": -2.1043859343,
				"element": "H" 
			},
			{
				"x": -2.0801490006,
				"y": 2.7657826848,
				"z": -0.2899888761,
				"element": "H" 
			},
			{
				"x": -2.0954219918,
				"y": 3.6607617907,
				"z": -1.816141489,
				"element": "H" 
			},
			{
				"x": -3.0478686548,
				"y": 1.4547663158,
				"z": -2.2123049515,
				"element": "H" 
			},
			{
				"x": -1.527137245,
				"y": 1.6013059646,
				"z": -3.0872568379,
				"element": "H" 
			},
			{
				"x": -3.2031195152,
				"y": 0.0272723328,
				"z": -0.1624763761,
				"element": "H" 
			},
			{
				"x": -2.3648961383,
				"y": -2.0148641547,
				"z": 0.981752908,
				"element": "H" 
			},
			{
				"x": 1.2161863272,
				"y": -1.8728823109,
				"z": -1.3825066423,
				"element": "H" 
			},
			{
				"x": 0.3827362924,
				"y": 0.1759563929,
				"z": -2.5238082677,
				"element": "H" 
			},
			{
				"x": 3.0321264923,
				"y": -3.0133409955,
				"z": 1.3954134981,
				"element": "H" 
			},
			{
				"x": 2.3136789302,
				"y": -1.4053041519,
				"z": 1.131699981,
				"element": "H" 
			},
			{
				"x": 3.1106392398,
				"y": -2.6614738963,
				"z": 3.8086009486,
				"element": "H" 
			},
			{
				"x": 3.5365884814,
				"y": -1.0456842547,
				"z": 3.21603307,
				"element": "H" 
			},
			{
				"x": 1.4004989913,
				"y": -1.2666297874,
				"z": 4.8939947213,
				"element": "H" 
			},
			{
				"x": 1.2380423771,
				"y": -0.2644877946,
				"z": 3.4488885475,
				"element": "H" 
			},
			{
				"x": -0.5536555868,
				"y": -1.6955169247,
				"z": 2.9267709936,
				"element": "H" 
			},
			{
				"x": 0.0593014602,
				"y": -3.0236659294,
				"z": 3.9224318166,
				"element": "H" 
			}
		],
		 "valence_orbital": [ 
			{
				"type": "occ",
				"energy": -0.29231,
				"method": "rhf"
			},
			{
				"type": "occ",
				"energy": -0.28308,
				"method": "rhf"
			},
			{
				"type": "occ",
				"energy": -0.26907,
				"method": "rhf"
			},
			{
				"type": "occ",
				"energy": -0.26825,
				"method": "rhf"
			},
			{
				"type": "occ",
				"energy": -0.2424,
				"method": "rhf"
			},
			{
				"type": "unocc",
				"energy": -0.03557,
				"method": "rhf"
			},
			{
				"type": "unocc",
				"energy": -0.02323,
				"method": "rhf"
			},
			{
				"type": "unocc",
				"energy": -0.00085,
				"method": "rhf"
			},
			{
				"type": "unocc",
				"energy": 0.05921,
				"method": "rhf"
			},
			{
				"type": "unocc",
				"energy": 0.0692,
				"method": "rhf"
			}
		],
		"cosmo_sigma_profile": { 
			"-0.025": 0.0,
			"-0.024": 0.0,
			"-0.023": 0.0,
			"-0.022": 0.0,
			"-0.021": 0.0,
			"-0.02": 0.0,
			"-0.019": 0.00564618813524,
			"-0.018": 0.653217757525,
			"-0.017": 0.688636078946,
			"-0.016": 1.2402483573,
			"-0.015": 0.576048932536,
			"-0.014": 0.442685052648,
			"-0.013": 0.297433528731,
			"-0.012": 0.841628196672,
			"-0.011": 1.41311754024,
			"-0.01": 0.848694285429,
			"-0.009": 0.302561919768,
			"-0.008": 0.343796957793,
			"-0.007": 4.4987114671,
			"-0.006": 12.5601449075,
			"-0.005": 23.014996292,
			"-0.004": 39.2095251659,
			"-0.003": 40.8484491253,
			"-0.002": 32.1696882594,
			"-0.001": 22.1344224918,
			"0.0": 17.5920868051,
			"0.001": 13.6951671736,
			"0.002": 14.4772384443,
			"0.003": 15.202460928,
			"0.004": 7.50024564411,
			"0.005": 5.30047849864,
			"0.006": 6.96330046713,
			"0.007": 6.28656974513,
			"0.008": 7.02287611195,
			"0.009": 5.26029689072,
			"0.01": 7.77340867167,
			"0.011": 11.6086232951,
			"0.012": 11.3303210384,
			"0.013": 1.27171745738,
			"0.014": 0.0,
			"0.015": 0.0,
			"0.016": 0.0,
			"0.017": 0.0,
			"0.018": 0.0,
			"0.019": 0.0,
			"0.02": 0.0,
			"0.021": 0.0,
			"0.022": 0.0,
			"0.023": 0.0,
			"0.024": 0.0,
			"0.025": 0.0
		}
	}
}
