{
	 "smiles": "CCCC1CCC(=O)NC1=O", 
	 "Tm": 350.15, 
	 "num_atms": 24, 
	 "gaussian": { 
		 "optdone": 1, 
		 "sigma_profile": "yes", 
		 "theory": "DFT", 
		 "functional": "B3LYP", 
		 "basiset": "6-31G**", 
		 "properties": { 
			 "R2extent": 2616.4842, 
			 "electric_dipole_moment_norm": 3.05883858515, 
			 "electric_quadrupole_moment_norm": 11.0879676118, 
			 "total_energy": -517.932960891, 
			 "HOMO_LUMO_gap": 0.23136, 
			 "cosmo_polarized_energy": -12.13, 
			 "cosmo_cavitation_energy": 26.02, 
			 "cosmo_dispersion_energy": -19.01, 
			 "cosmo_repulsion_energy": 1.55, 
			 "cosmo_total_nonelectrostatic_energy": 8.57, 
			 "SMD_solvation_energy": 5.41 
		},
		"coords": [
			{
				"x": -1.5044933814,
				"y": -2.3522066708,
				"z": 0.4317694167,
				"element": "C" 
			},
			{
				"x": 0.0185330477,
				"y": -2.5076044082,
				"z": 0.5167268565,
				"element": "C" 
			},
			{
				"x": 0.7767731035,
				"y": -2.0108122766,
				"z": -0.7272093568,
				"element": "C" 
			},
			{
				"x": 0.7368082498,
				"y": -0.4899043937,
				"z": -0.9776297231,
				"element": "C" 
			},
			{
				"x": 1.0644821439,
				"y": -0.116516395,
				"z": -2.4351927897,
				"element": "C" 
			},
			{
				"x": 0.9947879009,
				"y": 1.3975185166,
				"z": -2.6542816522,
				"element": "C" 
			},
			{
				"x": 1.8371222896,
				"y": 2.1770506657,
				"z": -1.6620992736,
				"element": "C" 
			},
			{
				"x": 2.2865145476,
				"y": 3.2875264562,
				"z": -1.8696254785,
				"element": "O" 
			},
			{
				"x": 2.0672400943,
				"y": 1.53395905,
				"z": -0.4441475823,
				"element": "N" 
			},
			{
				"x": 1.6549533658,
				"y": 0.2672696271,
				"z": -0.0198369097,
				"element": "C" 
			},
			{
				"x": 2.0245528165,
				"y": -0.1507254281,
				"z": 1.0627577186,
				"element": "O" 
			},
			{
				"x": -1.8124015082,
				"y": -1.3028183772,
				"z": 0.3597915936,
				"element": "H" 
			},
			{
				"x": -1.9882738326,
				"y": -2.7658053307,
				"z": 1.3224681401,
				"element": "H" 
			},
			{
				"x": -1.9124135628,
				"y": -2.876829408,
				"z": -0.4405677009,
				"element": "H" 
			},
			{
				"x": 0.2564307087,
				"y": -3.5702805385,
				"z": 0.6511739855,
				"element": "H" 
			},
			{
				"x": 0.4050506029,
				"y": -1.9898292211,
				"z": 1.3988469704,
				"element": "H" 
			},
			{
				"x": 0.3612002394,
				"y": -2.5053260479,
				"z": -1.6157575435,
				"element": "H" 
			},
			{
				"x": 1.8251572284,
				"y": -2.323523212,
				"z": -0.6587223455,
				"element": "H" 
			},
			{
				"x": -0.2779978955,
				"y": -0.1180389779,
				"z": -0.7660577347,
				"element": "H" 
			},
			{
				"x": 2.0660542877,
				"y": -0.4858903142,
				"z": -2.690941084,
				"element": "H" 
			},
			{
				"x": 0.3632381633,
				"y": -0.6225653996,
				"z": -3.1060167818,
				"element": "H" 
			},
			{
				"x": 1.3190710923,
				"y": 1.6933753572,
				"z": -3.6548987984,
				"element": "H" 
			},
			{
				"x": -0.0406381641,
				"y": 1.7484255539,
				"z": -2.5418573978,
				"element": "H" 
			},
			{
				"x": 2.6489484623,
				"y": 2.0415511729,
				"z": 0.2154074712,
				"element": "H" 
			}
		],
		 "valence_orbital": [ 
			{
				"type": "occ",
				"energy": -0.32745,
				"method": "rhf"
			},
			{
				"type": "occ",
				"energy": -0.32399,
				"method": "rhf"
			},
			{
				"type": "occ",
				"energy": -0.286,
				"method": "rhf"
			},
			{
				"type": "occ",
				"energy": -0.28038,
				"method": "rhf"
			},
			{
				"type": "occ",
				"energy": -0.2592,
				"method": "rhf"
			},
			{
				"type": "unocc",
				"energy": -0.02784,
				"method": "rhf"
			},
			{
				"type": "unocc",
				"energy": 0.02609,
				"method": "rhf"
			},
			{
				"type": "unocc",
				"energy": 0.08463,
				"method": "rhf"
			},
			{
				"type": "unocc",
				"energy": 0.09174,
				"method": "rhf"
			},
			{
				"type": "unocc",
				"energy": 0.10273,
				"method": "rhf"
			}
		],
		"cosmo_sigma_profile": { 
			"-0.025": 0.0,
			"-0.024": 0.0,
			"-0.023": 0.0,
			"-0.022": 0.0,
			"-0.021": 0.0,
			"-0.02": 0.0,
			"-0.019": 0.0,
			"-0.018": 0.0,
			"-0.017": 0.0,
			"-0.016": 0.0,
			"-0.015": 0.360590815797,
			"-0.014": 0.741334467121,
			"-0.013": 0.906615584166,
			"-0.012": 1.09001302679,
			"-0.011": 0.481239577452,
			"-0.01": 0.540934617434,
			"-0.009": 1.16148584921,
			"-0.008": 1.4581585729,
			"-0.007": 4.44029355375,
			"-0.006": 9.46009721484,
			"-0.005": 12.8363485532,
			"-0.004": 16.2971762379,
			"-0.003": 20.1573993869,
			"-0.002": 22.8753566351,
			"-0.001": 21.3350107058,
			"0.0": 20.3978270009,
			"0.001": 16.6085700996,
			"0.002": 8.49480348676,
			"0.003": 3.29953404267,
			"0.004": 1.84876596269,
			"0.005": 3.36253512801,
			"0.006": 3.59626663172,
			"0.007": 2.41852577908,
			"0.008": 2.54951489695,
			"0.009": 3.10199239093,
			"0.01": 4.04039815953,
			"0.011": 5.37313132896,
			"0.012": 9.38048850393,
			"0.013": 3.68200347228,
			"0.014": 0.210149882643,
			"0.015": 0.0,
			"0.016": 0.0,
			"0.017": 0.0,
			"0.018": 0.0,
			"0.019": 0.0,
			"0.02": 0.0,
			"0.021": 0.0,
			"0.022": 0.0,
			"0.023": 0.0,
			"0.024": 0.0,
			"0.025": 0.0
		}
	}
}
