{
	 "smiles": "CC1CNC2=C(C1)C=CC=C2S(N)(=O)=O", 
	 "Tm": 436.15, 
	 "num_atms": 29, 
	 "gaussian": { 
		 "optdone": 1, 
		 "sigma_profile": "yes", 
		 "theory": "DFT", 
		 "functional": "B3LYP", 
		 "basiset": "6-31G**", 
		 "properties": { 
			 "R2extent": 3875.4545, 
			 "electric_dipole_moment_norm": 6.37357898202, 
			 "electric_quadrupole_moment_norm": 15.5498542813, 
			 "total_energy": -1047.59374411, 
			 "HOMO_LUMO_gap": 0.1837, 
			 "cosmo_polarized_energy": -16.46, 
			 "cosmo_cavitation_energy": 31.5, 
			 "cosmo_dispersion_energy": -23.82, 
			 "cosmo_repulsion_energy": 1.81, 
			 "cosmo_total_nonelectrostatic_energy": 9.49, 
			 "SMD_solvation_energy": 3.94 
		},
		"coords": [
			{
				"x": 0.1903724462,
				"y": 3.4720912746,
				"z": 1.9671362571,
				"element": "C" 
			},
			{
				"x": -0.1538814411,
				"y": 2.1855171551,
				"z": 1.2123350411,
				"element": "C" 
			},
			{
				"x": 1.1053322099,
				"y": 1.485954097,
				"z": 0.6940196236,
				"element": "C" 
			},
			{
				"x": 0.7576813433,
				"y": 0.2953096235,
				"z": -0.080574738,
				"element": "N" 
			},
			{
				"x": -0.2551787627,
				"y": -0.5456837144,
				"z": 0.3741507832,
				"element": "C" 
			},
			{
				"x": -1.128993441,
				"y": -0.1494795386,
				"z": 1.4136004227,
				"element": "C" 
			},
			{
				"x": -0.9372569325,
				"y": 1.1954220739,
				"z": 2.0882855911,
				"element": "C" 
			},
			{
				"x": -2.1536097831,
				"y": -1.0107220492,
				"z": 1.808179503,
				"element": "C" 
			},
			{
				"x": -2.345102311,
				"y": -2.2611632046,
				"z": 1.2171917531,
				"element": "C" 
			},
			{
				"x": -1.5070654284,
				"y": -2.6523014046,
				"z": 0.1774174373,
				"element": "C" 
			},
			{
				"x": -0.4864036747,
				"y": -1.799718564,
				"z": -0.2448308791,
				"element": "C" 
			},
			{
				"x": 0.4970656273,
				"y": -2.2957778799,
				"z": -1.6548070513,
				"element": "S" 
			},
			{
				"x": 0.0928600262,
				"y": -1.2283701993,
				"z": -2.8955898819,
				"element": "N" 
			},
			{
				"x": 1.9074423007,
				"y": -2.0143906821,
				"z": -1.3456903548,
				"element": "O" 
			},
			{
				"x": 0.0568081287,
				"y": -3.6185356517,
				"z": -2.0914083361,
				"element": "O" 
			},
			{
				"x": 0.7171652005,
				"y": 4.1843081637,
				"z": 1.3232430688,
				"element": "H" 
			},
			{
				"x": -0.7149719537,
				"y": 3.9635582659,
				"z": 2.3379595194,
				"element": "H" 
			},
			{
				"x": 0.8320434773,
				"y": 3.2628547022,
				"z": 2.8313128448,
				"element": "H" 
			},
			{
				"x": -0.7722625686,
				"y": 2.4391197144,
				"z": 0.3400595847,
				"element": "H" 
			},
			{
				"x": 1.6765062155,
				"y": 2.1558057015,
				"z": 0.0420417329,
				"element": "H" 
			},
			{
				"x": 1.7540433956,
				"y": 1.2338835109,
				"z": 1.5497737695,
				"element": "H" 
			},
			{
				"x": 1.559515843,
				"y": -0.2131375632,
				"z": -0.4446106426,
				"element": "H" 
			},
			{
				"x": -1.9140977535,
				"y": 1.6172263375,
				"z": 2.3534677204,
				"element": "H" 
			},
			{
				"x": -0.3969950284,
				"y": 1.0602688678,
				"z": 3.0374611183,
				"element": "H" 
			},
			{
				"x": -2.8162348959,
				"y": -0.689896035,
				"z": 2.6090025878,
				"element": "H" 
			},
			{
				"x": -3.1428651847,
				"y": -2.914424477,
				"z": 1.5545486763,
				"element": "H" 
			},
			{
				"x": -1.6282911606,
				"y": -3.6066849169,
				"z": -0.322965707,
				"element": "H" 
			},
			{
				"x": -0.8633355616,
				"y": -1.3800456682,
				"z": -3.2055909039,
				"element": "H" 
			},
			{
				"x": 0.2471096674,
				"y": -0.2643879393,
				"z": -2.6037185404,
				"element": "H" 
			}
		],
		 "valence_orbital": [ 
			{
				"type": "occ",
				"energy": -0.30652,
				"method": "rhf"
			},
			{
				"type": "occ",
				"energy": -0.30336,
				"method": "rhf"
			},
			{
				"type": "occ",
				"energy": -0.29392,
				"method": "rhf"
			},
			{
				"type": "occ",
				"energy": -0.25696,
				"method": "rhf"
			},
			{
				"type": "occ",
				"energy": -0.21376,
				"method": "rhf"
			},
			{
				"type": "unocc",
				"energy": -0.03006,
				"method": "rhf"
			},
			{
				"type": "unocc",
				"energy": -0.00283,
				"method": "rhf"
			},
			{
				"type": "unocc",
				"energy": 0.06255,
				"method": "rhf"
			},
			{
				"type": "unocc",
				"energy": 0.07376,
				"method": "rhf"
			},
			{
				"type": "unocc",
				"energy": 0.08135,
				"method": "rhf"
			}
		],
		"cosmo_sigma_profile": { 
			"-0.025": 0.0,
			"-0.024": 0.0,
			"-0.023": 0.0,
			"-0.022": 0.0,
			"-0.021": 0.0,
			"-0.02": 0.0,
			"-0.019": 0.0,
			"-0.018": 0.0,
			"-0.017": 0.0,
			"-0.016": 0.0475040208882,
			"-0.015": 1.1329985742,
			"-0.014": 1.26602498435,
			"-0.013": 1.74232987673,
			"-0.012": 2.59395821578,
			"-0.011": 2.66547526255,
			"-0.01": 1.96447017794,
			"-0.009": 2.38982183241,
			"-0.008": 2.43120404025,
			"-0.007": 2.45125179979,
			"-0.006": 6.69655834149,
			"-0.005": 9.30076060974,
			"-0.004": 19.1186094198,
			"-0.003": 31.8593059989,
			"-0.002": 24.6313175021,
			"-0.001": 23.2900599941,
			"0.0": 17.9302616055,
			"0.001": 16.5021815709,
			"0.002": 10.7945071475,
			"0.003": 9.88245858527,
			"0.004": 12.1262452871,
			"0.005": 8.82703190727,
			"0.006": 3.04492261871,
			"0.007": 4.2360301887,
			"0.008": 4.23716631364,
			"0.009": 5.36697206983,
			"0.01": 6.90512797388,
			"0.011": 9.15850500739,
			"0.012": 4.616968822,
			"0.013": 0.525651254449,
			"0.014": 0.0874426439129,
			"0.015": 0.0,
			"0.016": 0.0,
			"0.017": 0.0,
			"0.018": 0.0,
			"0.019": 0.0,
			"0.02": 0.0,
			"0.021": 0.0,
			"0.022": 0.0,
			"0.023": 0.0,
			"0.024": 0.0,
			"0.025": 0.0
		}
	}
}
