{
	 "smiles": "CC(C=CC=C(/C)C=CC1=C(C)C(=O)C(O)CC1(C)C)=CC=CC=C(/C)C=CC=C(/C)C=CC1=C(C)C(=O)C(O)CC1(C)C", 
	 "Tm": 455.15, 
	 "num_atms": 96, 
	 "gaussian": { 
		 "optdone": 1, 
		 "sigma_profile": "yes", 
		 "theory": "DFT", 
		 "functional": "B3LYP", 
		 "basiset": "6-31G**", 
		 "properties": { 
			 "R2extent": 67891.3618, 
			 "electric_dipole_moment_norm": 11.1279141334, 
			 "electric_quadrupole_moment_norm": 31.0988509683, 
			 "total_energy": -1856.39465705, 
			 "HOMO_LUMO_gap": 0.08161, 
			 "cosmo_polarized_energy": -24.96, 
			 "cosmo_cavitation_energy": 94.16, 
			 "cosmo_dispersion_energy": -61.24, 
			 "cosmo_repulsion_energy": 4.54, 
			 "cosmo_total_nonelectrostatic_energy": 37.46, 
			 "SMD_solvation_energy": 16.74 
		},
		"coords": [
			{
				"x": 6.5494529717,
				"y": -5.3109168176,
				"z": 0.3098633063,
				"element": "C" 
			},
			{
				"x": 5.2386606091,
				"y": -4.5560896514,
				"z": 0.2973378129,
				"element": "C" 
			},
			{
				"x": 5.2644651038,
				"y": -3.1347071476,
				"z": 0.5530911951,
				"element": "C" 
			},
			{
				"x": 6.3816031522,
				"y": -2.3526682704,
				"z": 0.6140250441,
				"element": "C" 
			},
			{
				"x": 6.3311326449,
				"y": -0.9532560587,
				"z": 0.9260664966,
				"element": "C" 
			},
			{
				"x": 7.3827701665,
				"y": -0.0844082004,
				"z": 1.0305212897,
				"element": "C" 
			},
			{
				"x": 8.827443245,
				"y": -0.5163035269,
				"z": 0.9044847359,
				"element": "C" 
			},
			{
				"x": 7.1838963464,
				"y": 1.3366167752,
				"z": 1.2963619283,
				"element": "C" 
			},
			{
				"x": 6.0521613861,
				"y": 2.0471757922,
				"z": 1.0409459521,
				"element": "C" 
			},
			{
				"x": 5.7232862574,
				"y": 3.4380351621,
				"z": 1.3352185593,
				"element": "C" 
			},
			{
				"x": 4.4006577636,
				"y": 3.8046564681,
				"z": 1.1926420371,
				"element": "C" 
			},
			{
				"x": 3.313620015,
				"y": 2.8884575579,
				"z": 0.6697840606,
				"element": "C" 
			},
			{
				"x": 3.9332981172,
				"y": 5.1482828814,
				"z": 1.577964216,
				"element": "C" 
			},
			{
				"x": 2.800561399,
				"y": 5.5665169487,
				"z": 1.3333325543,
				"element": "O" 
			},
			{
				"x": 4.8880511034,
				"y": 6.0469238339,
				"z": 2.3450535974,
				"element": "C" 
			},
			{
				"x": 4.4472317456,
				"y": 7.381613703,
				"z": 2.3119795766,
				"element": "O" 
			},
			{
				"x": 6.2698757925,
				"y": 5.8997028807,
				"z": 1.7287168685,
				"element": "C" 
			},
			{
				"x": 6.8097953894,
				"y": 4.4481337057,
				"z": 1.7773568706,
				"element": "C" 
			},
			{
				"x": 8.0212043438,
				"y": 4.429405729,
				"z": 0.8104925242,
				"element": "C" 
			},
			{
				"x": 7.2826321425,
				"y": 4.134637305,
				"z": 3.2214035839,
				"element": "C" 
			},
			{
				"x": 4.0726260564,
				"y": -5.2558234734,
				"z": 0.1059421095,
				"element": "C" 
			},
			{
				"x": 2.720321892,
				"y": -4.7852804157,
				"z": -0.0680592549,
				"element": "C" 
			},
			{
				"x": 2.2932523174,
				"y": -3.6001294064,
				"z": -0.5979824115,
				"element": "C" 
			},
			{
				"x": 0.906143102,
				"y": -3.2617890813,
				"z": -0.7182637288,
				"element": "C" 
			},
			{
				"x": 0.3556651436,
				"y": -2.1263615049,
				"z": -1.2571935289,
				"element": "C" 
			},
			{
				"x": 1.1785063081,
				"y": -1.0027035309,
				"z": -1.8392477597,
				"element": "C" 
			},
			{
				"x": -1.0865647794,
				"y": -2.0067827157,
				"z": -1.2590279187,
				"element": "C" 
			},
			{
				"x": -1.7985492905,
				"y": -0.9699907978,
				"z": -1.7880027213,
				"element": "C" 
			},
			{
				"x": -3.2311499997,
				"y": -0.7955493531,
				"z": -1.833184556,
				"element": "C" 
			},
			{
				"x": -4.2219852778,
				"y": -1.2996440285,
				"z": -1.0316513556,
				"element": "C" 
			},
			{
				"x": -3.9589837376,
				"y": -2.135093585,
				"z": 0.1968261991,
				"element": "C" 
			},
			{
				"x": -5.5920756807,
				"y": -0.9716771917,
				"z": -1.384735977,
				"element": "C" 
			},
			{
				"x": -6.7137021239,
				"y": -1.4598475499,
				"z": -0.7934010681,
				"element": "C" 
			},
			{
				"x": -8.0932294625,
				"y": -1.1702695746,
				"z": -1.1915821271,
				"element": "C" 
			},
			{
				"x": -8.4941430497,
				"y": 0.0711656685,
				"z": -1.6188487116,
				"element": "C" 
			},
			{
				"x": -7.6604609205,
				"y": 1.3293015784,
				"z": -1.564783432,
				"element": "C" 
			},
			{
				"x": -9.8585641664,
				"y": 0.2756625148,
				"z": -2.141402428,
				"element": "C" 
			},
			{
				"x": -10.3272411298,
				"y": 1.3899443653,
				"z": -2.3752742296,
				"element": "O" 
			},
			{
				"x": -10.7145596885,
				"y": -0.9486291763,
				"z": -2.4287745187,
				"element": "C" 
			},
			{
				"x": -12.0611664313,
				"y": -0.5801917293,
				"z": -2.5926170861,
				"element": "O" 
			},
			{
				"x": -10.5358165449,
				"y": -1.9289612169,
				"z": -1.2774810828,
				"element": "C" 
			},
			{
				"x": -9.0666298171,
				"y": -2.3705610688,
				"z": -1.0926539751,
				"element": "C" 
			},
			{
				"x": -8.9750218432,
				"y": -3.0472677226,
				"z": 0.297417466,
				"element": "C" 
			},
			{
				"x": -8.6786530353,
				"y": -3.4140795277,
				"z": -2.1711776217,
				"element": "C" 
			},
			{
				"x": 7.1074014473,
				"y": -5.1333091179,
				"z": 1.2364105597,
				"element": "H" 
			},
			{
				"x": 7.1958467255,
				"y": -4.9929205005,
				"z": -0.5180378509,
				"element": "H" 
			},
			{
				"x": 6.3888651823,
				"y": -6.3865368791,
				"z": 0.205302696,
				"element": "H" 
			},
			{
				"x": 4.3063304631,
				"y": -2.6606584783,
				"z": 0.7526223386,
				"element": "H" 
			},
			{
				"x": 7.3486411386,
				"y": -2.7967602123,
				"z": 0.3968403844,
				"element": "H" 
			},
			{
				"x": 5.3344186964,
				"y": -0.5575837479,
				"z": 1.1149624564,
				"element": "H" 
			},
			{
				"x": 9.2638689579,
				"y": -0.1679834564,
				"z": -0.0403506464,
				"element": "H" 
			},
			{
				"x": 9.4283104637,
				"y": -0.0762586871,
				"z": 1.7090937001,
				"element": "H" 
			},
			{
				"x": 8.9560372899,
				"y": -1.5984378356,
				"z": 0.9535309398,
				"element": "H" 
			},
			{
				"x": 8.0485190601,
				"y": 1.8356513342,
				"z": 1.7209966415,
				"element": "H" 
			},
			{
				"x": 5.2472624011,
				"y": 1.4904855607,
				"z": 0.5733757752,
				"element": "H" 
			},
			{
				"x": 2.3843608341,
				"y": 3.4538490419,
				"z": 0.5926152885,
				"element": "H" 
			},
			{
				"x": 3.1399428991,
				"y": 2.0348372761,
				"z": 1.3351908776,
				"element": "H" 
			},
			{
				"x": 3.5523978101,
				"y": 2.4916180895,
				"z": -0.3228769701,
				"element": "H" 
			},
			{
				"x": 4.9030754873,
				"y": 5.6764500194,
				"z": 3.3866965352,
				"element": "H" 
			},
			{
				"x": 3.516102399,
				"y": 7.3235596572,
				"z": 2.0301932615,
				"element": "H" 
			},
			{
				"x": 6.9755727017,
				"y": 6.5670147047,
				"z": 2.2352518373,
				"element": "H" 
			},
			{
				"x": 6.2064157436,
				"y": 6.237997343,
				"z": 0.686870416,
				"element": "H" 
			},
			{
				"x": 8.6176415165,
				"y": 3.5190860151,
				"z": 0.8677524662,
				"element": "H" 
			},
			{
				"x": 7.6914104002,
				"y": 4.5491026168,
				"z": -0.2262956132,
				"element": "H" 
			},
			{
				"x": 8.6811871962,
				"y": 5.2703457907,
				"z": 1.0497636592,
				"element": "H" 
			},
			{
				"x": 8.0626614198,
				"y": 4.8437972002,
				"z": 3.5186504636,
				"element": "H" 
			},
			{
				"x": 6.4629359969,
				"y": 4.2165044012,
				"z": 3.9410042744,
				"element": "H" 
			},
			{
				"x": 7.6923886736,
				"y": 3.1270278834,
				"z": 3.313335533,
				"element": "H" 
			},
			{
				"x": 4.1671452973,
				"y": -6.3415417242,
				"z": 0.0965428314,
				"element": "H" 
			},
			{
				"x": 1.9476962691,
				"y": -5.5063362679,
				"z": 0.2035412196,
				"element": "H" 
			},
			{
				"x": 3.0326812636,
				"y": -2.9032021911,
				"z": -0.9791809049,
				"element": "H" 
			},
			{
				"x": 0.2105553802,
				"y": -4.0043245145,
				"z": -0.3260243337,
				"element": "H" 
			},
			{
				"x": 2.2505207764,
				"y": -1.1888628896,
				"z": -1.7725611761,
				"element": "H" 
			},
			{
				"x": 0.9693915522,
				"y": -0.0581944871,
				"z": -1.3238057054,
				"element": "H" 
			},
			{
				"x": 0.9351621331,
				"y": -0.8493231113,
				"z": -2.8973007192,
				"element": "H" 
			},
			{
				"x": -1.6222294011,
				"y": -2.847967432,
				"z": -0.8282339705,
				"element": "H" 
			},
			{
				"x": -1.2407639597,
				"y": -0.1854443805,
				"z": -2.2960833699,
				"element": "H" 
			},
			{
				"x": -3.5656831328,
				"y": -0.1272720288,
				"z": -2.6267768348,
				"element": "H" 
			},
			{
				"x": -2.9654242824,
				"y": -1.9353940393,
				"z": 0.6032997738,
				"element": "H" 
			},
			{
				"x": -4.6913258292,
				"y": -1.9164630287,
				"z": 0.9794163851,
				"element": "H" 
			},
			{
				"x": -4.0224315935,
				"y": -3.210480846,
				"z": -0.0152198864,
				"element": "H" 
			},
			{
				"x": -5.7036164559,
				"y": -0.3086127678,
				"z": -2.2389318258,
				"element": "H" 
			},
			{
				"x": -6.5892013808,
				"y": -2.1973971918,
				"z": -0.0072746409,
				"element": "H" 
			},
			{
				"x": -7.1984194414,
				"y": 1.558096346,
				"z": -2.5334747129,
				"element": "H" 
			},
			{
				"x": -8.3126138601,
				"y": 2.1741587056,
				"z": -1.3308790296,
				"element": "H" 
			},
			{
				"x": -6.8648176207,
				"y": 1.2601666259,
				"z": -0.8211649334,
				"element": "H" 
			},
			{
				"x": -10.3267718511,
				"y": -1.3988214839,
				"z": -3.3610012928,
				"element": "H" 
			},
			{
				"x": -12.0349402198,
				"y": 0.3876897552,
				"z": -2.7074543873,
				"element": "H" 
			},
			{
				"x": -10.8957519865,
				"y": -1.4387518256,
				"z": -0.3640074409,
				"element": "H" 
			},
			{
				"x": -11.16962695,
				"y": -2.8083478916,
				"z": -1.4359252368,
				"element": "H" 
			},
			{
				"x": -9.0881396569,
				"y": -2.3172554344,
				"z": 1.1055987935,
				"element": "H" 
			},
			{
				"x": -8.0361274278,
				"y": -3.5873506794,
				"z": 0.4467511294,
				"element": "H" 
			},
			{
				"x": -9.7842241193,
				"y": -3.7791103963,
				"z": 0.3928621762,
				"element": "H" 
			},
			{
				"x": -7.6412169607,
				"y": -3.7380176329,
				"z": -2.0446141147,
				"element": "H" 
			},
			{
				"x": -8.7761308874,
				"y": -3.0121387432,
				"z": -3.1840375187,
				"element": "H" 
			},
			{
				"x": -9.3230080947,
				"y": -4.2965290099,
				"z": -2.0934417884,
				"element": "H" 
			}
		],
		 "valence_orbital": [ 
			{
				"type": "occ",
				"energy": -0.24781,
				"method": "rhf"
			},
			{
				"type": "occ",
				"energy": -0.24352,
				"method": "rhf"
			},
			{
				"type": "occ",
				"energy": -0.23102,
				"method": "rhf"
			},
			{
				"type": "occ",
				"energy": -0.20779,
				"method": "rhf"
			},
			{
				"type": "occ",
				"energy": -0.18326,
				"method": "rhf"
			},
			{
				"type": "unocc",
				"energy": -0.10165,
				"method": "rhf"
			},
			{
				"type": "unocc",
				"energy": -0.08294,
				"method": "rhf"
			},
			{
				"type": "unocc",
				"energy": -0.05944,
				"method": "rhf"
			},
			{
				"type": "unocc",
				"energy": -0.03469,
				"method": "rhf"
			},
			{
				"type": "unocc",
				"energy": -0.0099,
				"method": "rhf"
			}
		],
		"cosmo_sigma_profile": { 
			"-0.025": 0.0,
			"-0.024": 0.0,
			"-0.023": 0.0,
			"-0.022": 0.0,
			"-0.021": 0.0,
			"-0.02": 0.0,
			"-0.019": 0.0,
			"-0.018": 0.0,
			"-0.017": 0.0,
			"-0.016": 0.0,
			"-0.015": 0.0,
			"-0.014": 0.0,
			"-0.013": 0.0,
			"-0.012": 0.0,
			"-0.011": 0.0,
			"-0.01": 0.480131889162,
			"-0.009": 1.10989591193,
			"-0.008": 0.756654536851,
			"-0.007": 2.42569211834,
			"-0.006": 14.4609066559,
			"-0.005": 43.9713377751,
			"-0.004": 69.501368995,
			"-0.003": 87.4422515579,
			"-0.002": 79.1837973955,
			"-0.001": 79.7431195693,
			"0.0": 89.8592891749,
			"0.001": 68.0805030274,
			"0.002": 42.3116120055,
			"0.003": 36.9858665818,
			"0.004": 38.9148617542,
			"0.005": 27.5896646176,
			"0.006": 6.68494081592,
			"0.007": 5.85035712255,
			"0.008": 5.33568575366,
			"0.009": 5.78156063845,
			"0.01": 6.40089250038,
			"0.011": 7.20874041984,
			"0.012": 8.87609510645,
			"0.013": 3.93873392549,
			"0.014": 4.2437846419,
			"0.015": 1.23890886514,
			"0.016": 0.0,
			"0.017": 0.0,
			"0.018": 0.0,
			"0.019": 0.0,
			"0.02": 0.0,
			"0.021": 0.0,
			"0.022": 0.0,
			"0.023": 0.0,
			"0.024": 0.0,
			"0.025": 0.0
		}
	}
}
