{
	 "smiles": "CC1CC=CC1", 
	 "Tm": 112.15, 
	 "num_atms": 16, 
	 "gaussian": { 
		 "optdone": 1, 
		 "sigma_profile": "yes", 
		 "theory": "DFT", 
		 "functional": "B3LYP", 
		 "basiset": "6-31G**", 
		 "properties": { 
			 "R2extent": 720.9265, 
			 "electric_dipole_moment_norm": 0.177600929052, 
			 "electric_quadrupole_moment_norm": 1.25868726457, 
			 "total_energy": -234.65154912, 
			 "HOMO_LUMO_gap": 0.26555, 
			 "cosmo_polarized_energy": -1.18, 
			 "cosmo_cavitation_energy": 17.6, 
			 "cosmo_dispersion_energy": -13.33, 
			 "cosmo_repulsion_energy": 1.16, 
			 "cosmo_total_nonelectrostatic_energy": 5.43, 
			 "SMD_solvation_energy": 2.82 
		},
		"coords": [
			{
				"x": -1.4810524161,
				"y": 1.2244747707,
				"z": 0.4119569504,
				"element": "C" 
			},
			{
				"x": -1.1381851679,
				"y": 0.0778346032,
				"z": -0.5477688715,
				"element": "C" 
			},
			{
				"x": -0.909079922,
				"y": 0.6026618591,
				"z": -1.9982752948,
				"element": "C" 
			},
			{
				"x": 0.5949299404,
				"y": 0.6302372444,
				"z": -2.1365128162,
				"element": "C" 
			},
			{
				"x": 1.200796806,
				"y": -0.0217231837,
				"z": -1.1412006131,
				"element": "C" 
			},
			{
				"x": 0.2104108492,
				"y": -0.6019298745,
				"z": -0.1591417392,
				"element": "C" 
			},
			{
				"x": -1.6062156058,
				"y": 0.8609344003,
				"z": 1.4379457637,
				"element": "H" 
			},
			{
				"x": -0.6819101975,
				"y": 1.9750286902,
				"z": 0.4171807351,
				"element": "H" 
			},
			{
				"x": -2.4098138243,
				"y": 1.7257351521,
				"z": 0.1176470259,
				"element": "H" 
			},
			{
				"x": -1.9560644036,
				"y": -0.6506527006,
				"z": -0.5270762312,
				"element": "H" 
			},
			{
				"x": -1.3548699664,
				"y": -0.0658012099,
				"z": -2.749508845,
				"element": "H" 
			},
			{
				"x": -1.3697623989,
				"y": 1.5869996396,
				"z": -2.1552638011,
				"element": "H" 
			},
			{
				"x": 1.1007073115,
				"y": 1.1056044854,
				"z": -2.9722232688,
				"element": "H" 
			},
			{
				"x": 2.2743045319,
				"y": -0.157287666,
				"z": -1.0442439003,
				"element": "H" 
			},
			{
				"x": 0.1602347481,
				"y": -1.6960833127,
				"z": -0.2603396524,
				"element": "H" 
			},
			{
				"x": 0.4818697154,
				"y": -0.4052328975,
				"z": 0.8865245584,
				"element": "H" 
			}
		],
		 "valence_orbital": [ 
			{
				"type": "occ",
				"energy": -0.34034,
				"method": "rhf"
			},
			{
				"type": "occ",
				"energy": -0.33227,
				"method": "rhf"
			},
			{
				"type": "occ",
				"energy": -0.32082,
				"method": "rhf"
			},
			{
				"type": "occ",
				"energy": -0.31634,
				"method": "rhf"
			},
			{
				"type": "occ",
				"energy": -0.23323,
				"method": "rhf"
			},
			{
				"type": "unocc",
				"energy": 0.03232,
				"method": "rhf"
			},
			{
				"type": "unocc",
				"energy": 0.09594,
				"method": "rhf"
			},
			{
				"type": "unocc",
				"energy": 0.13018,
				"method": "rhf"
			},
			{
				"type": "unocc",
				"energy": 0.14035,
				"method": "rhf"
			},
			{
				"type": "unocc",
				"energy": 0.15798,
				"method": "rhf"
			}
		],
		"cosmo_sigma_profile": { 
			"-0.025": 0.0,
			"-0.024": 0.0,
			"-0.023": 0.0,
			"-0.022": 0.0,
			"-0.021": 0.0,
			"-0.02": 0.0,
			"-0.019": 0.0,
			"-0.018": 0.0,
			"-0.017": 0.0,
			"-0.016": 0.0,
			"-0.015": 0.0,
			"-0.014": 0.0,
			"-0.013": 0.0,
			"-0.012": 0.0,
			"-0.011": 0.0,
			"-0.01": 0.0,
			"-0.009": 0.0,
			"-0.008": 0.0,
			"-0.007": 0.0,
			"-0.006": 0.0,
			"-0.005": 1.60069286904,
			"-0.004": 3.71500473784,
			"-0.003": 8.07291949371,
			"-0.002": 19.9732381275,
			"-0.001": 25.8109180956,
			"0.0": 28.4027725931,
			"0.001": 23.8990186893,
			"0.002": 10.1749108633,
			"0.003": 5.05995482747,
			"0.004": 2.89231542798,
			"0.005": 2.96491030614,
			"0.006": 2.42951541127,
			"0.007": 1.68974581581,
			"0.008": 0.21163005005,
			"0.009": 0.0,
			"0.01": 0.0,
			"0.011": 0.0,
			"0.012": 0.0,
			"0.013": 0.0,
			"0.014": 0.0,
			"0.015": 0.0,
			"0.016": 0.0,
			"0.017": 0.0,
			"0.018": 0.0,
			"0.019": 0.0,
			"0.02": 0.0,
			"0.021": 0.0,
			"0.022": 0.0,
			"0.023": 0.0,
			"0.024": 0.0,
			"0.025": 0.0
		}
	}
}
