{
	 "smiles": "[O-][N+](=O)C1=C2NC(=O)C(=O)C2=CC(F)=C1", 
	 "Tm": 450.15, 
	 "num_atms": 18, 
	 "gaussian": { 
		 "optdone": 1, 
		 "sigma_profile": "yes", 
		 "theory": "DFT", 
		 "functional": "B3LYP", 
		 "basiset": "6-31G**", 
		 "properties": { 
			 "R2extent": 3320.6333, 
			 "electric_dipole_moment_norm": 2.88389472242, 
			 "electric_quadrupole_moment_norm": 18.210943961, 
			 "total_energy": -816.78471634, 
			 "HOMO_LUMO_gap": 0.13653, 
			 "cosmo_polarized_energy": -14.66, 
			 "cosmo_cavitation_energy": 25.29, 
			 "cosmo_dispersion_energy": -18.49, 
			 "cosmo_repulsion_energy": 1.4, 
			 "cosmo_total_nonelectrostatic_energy": 8.19, 
			 "SMD_solvation_energy": 8.27 
		},
		"coords": [
			{
				"x": -0.8117334007,
				"y": -2.4348160305,
				"z": 1.6579133137,
				"element": "O" 
			},
			{
				"x": -0.713605366,
				"y": -2.2978610448,
				"z": 0.4305765429,
				"element": "N" 
			},
			{
				"x": -0.6109845406,
				"y": -3.2251519,
				"z": -0.3661333158,
				"element": "O" 
			},
			{
				"x": -0.7192795328,
				"y": -0.9385802493,
				"z": -0.091185401,
				"element": "C" 
			},
			{
				"x": -0.8318163512,
				"y": 0.1654322523,
				"z": 0.7582790003,
				"element": "C" 
			},
			{
				"x": -0.9510822026,
				"y": 0.2320763858,
				"z": 2.1371627263,
				"element": "N" 
			},
			{
				"x": -1.0377965816,
				"y": 1.5464725006,
				"z": 2.5915510049,
				"element": "C" 
			},
			{
				"x": -1.1483614254,
				"y": 1.9168482724,
				"z": 3.7342034001,
				"element": "O" 
			},
			{
				"x": -0.9608455615,
				"y": 2.4275584403,
				"z": 1.2974813929,
				"element": "C" 
			},
			{
				"x": -1.0027936907,
				"y": 3.635412697,
				"z": 1.2723542839,
				"element": "O" 
			},
			{
				"x": -0.8310506109,
				"y": 1.4600217512,
				"z": 0.187993102,
				"element": "C" 
			},
			{
				"x": -0.722797739,
				"y": 1.6654323757,
				"z": -1.1778683417,
				"element": "C" 
			},
			{
				"x": -0.6119853578,
				"y": 0.5376838629,
				"z": -1.9964173681,
				"element": "C" 
			},
			{
				"x": -0.505463668,
				"y": 0.7035224915,
				"z": -3.3254444843,
				"element": "F" 
			},
			{
				"x": -0.6087431073,
				"y": -0.7471877262,
				"z": -1.477886119,
				"element": "C" 
			},
			{
				"x": -0.9697240577,
				"y": -0.5973505069,
				"z": 2.7157306329,
				"element": "H" 
			},
			{
				"x": -0.723839884,
				"y": 2.6651220549,
				"z": -1.5992687568,
				"element": "H" 
			},
			{
				"x": -0.5219969221,
				"y": -1.6089356269,
				"z": -2.1274416133,
				"element": "H" 
			}
		],
		 "valence_orbital": [ 
			{
				"type": "occ",
				"energy": -0.33466,
				"method": "rhf"
			},
			{
				"type": "occ",
				"energy": -0.32179,
				"method": "rhf"
			},
			{
				"type": "occ",
				"energy": -0.31893,
				"method": "rhf"
			},
			{
				"type": "occ",
				"energy": -0.27174,
				"method": "rhf"
			},
			{
				"type": "occ",
				"energy": -0.26506,
				"method": "rhf"
			},
			{
				"type": "unocc",
				"energy": -0.12853,
				"method": "rhf"
			},
			{
				"type": "unocc",
				"energy": -0.1154,
				"method": "rhf"
			},
			{
				"type": "unocc",
				"energy": -0.02776,
				"method": "rhf"
			},
			{
				"type": "unocc",
				"energy": -0.01728,
				"method": "rhf"
			},
			{
				"type": "unocc",
				"energy": 0.06054,
				"method": "rhf"
			}
		],
		"cosmo_sigma_profile": { 
			"-0.025": 0.0,
			"-0.024": 0.0,
			"-0.023": 0.0,
			"-0.022": 0.0,
			"-0.021": 0.0,
			"-0.02": 0.0,
			"-0.019": 0.0,
			"-0.018": 0.0,
			"-0.017": 0.0,
			"-0.016": 0.0,
			"-0.015": 0.446407710104,
			"-0.014": 0.688697194896,
			"-0.013": 0.287373542246,
			"-0.012": 1.13288775291,
			"-0.011": 1.17820379471,
			"-0.01": 3.02843986735,
			"-0.009": 5.51090488996,
			"-0.008": 7.25524216586,
			"-0.007": 7.49618355818,
			"-0.006": 9.87121738566,
			"-0.005": 12.0006941097,
			"-0.004": 17.3634682563,
			"-0.003": 21.570715669,
			"-0.002": 15.7164401836,
			"-0.001": 6.60474710003,
			"0.0": 6.35247191706,
			"0.001": 6.39997115291,
			"0.002": 6.86492263907,
			"0.003": 13.8517255683,
			"0.004": 7.03754757592,
			"0.005": 4.65933809548,
			"0.006": 8.22021692277,
			"0.007": 9.31706556088,
			"0.008": 9.81357091278,
			"0.009": 11.3377882054,
			"0.01": 8.70259691973,
			"0.011": 2.66888333313,
			"0.012": 0.0715230880481,
			"0.013": 0.0,
			"0.014": 0.0,
			"0.015": 0.0,
			"0.016": 0.0,
			"0.017": 0.0,
			"0.018": 0.0,
			"0.019": 0.0,
			"0.02": 0.0,
			"0.021": 0.0,
			"0.022": 0.0,
			"0.023": 0.0,
			"0.024": 0.0,
			"0.025": 0.0
		}
	}
}
