{
	 "smiles": "OC(=O)CCC1=NC=C(O1)C1=CC=C(F)C=C1", 
	 "Tm": 418.15, 
	 "num_atms": 27, 
	 "gaussian": { 
		 "optdone": 1, 
		 "sigma_profile": "yes", 
		 "theory": "DFT", 
		 "functional": "B3LYP", 
		 "basiset": "6-31G**", 
		 "properties": { 
			 "R2extent": 5262.3009, 
			 "electric_dipole_moment_norm": 1.6581492273, 
			 "electric_quadrupole_moment_norm": 10.0165370413, 
			 "total_energy": -843.574522022, 
			 "HOMO_LUMO_gap": 0.17647, 
			 "cosmo_polarized_energy": -14.31, 
			 "cosmo_cavitation_energy": 33.26, 
			 "cosmo_dispersion_energy": -23.18, 
			 "cosmo_repulsion_energy": 1.78, 
			 "cosmo_total_nonelectrostatic_energy": 11.86, 
			 "SMD_solvation_energy": 5.59 
		},
		"coords": [
			{
				"x": -2.2345077172,
				"y": 2.8650602957,
				"z": 1.9367482714,
				"element": "O" 
			},
			{
				"x": -2.471034177,
				"y": 2.1392388385,
				"z": 0.8194737634,
				"element": "C" 
			},
			{
				"x": -3.0574725037,
				"y": 1.0796181743,
				"z": 0.8376691942,
				"element": "O" 
			},
			{
				"x": -1.9589084164,
				"y": 2.8476034705,
				"z": -0.4198090337,
				"element": "C" 
			},
			{
				"x": -1.7113402588,
				"y": 1.8930927791,
				"z": -1.6010493975,
				"element": "C" 
			},
			{
				"x": -0.4486847817,
				"y": 1.106184638,
				"z": -1.4859885309,
				"element": "C" 
			},
			{
				"x": 0.5754165202,
				"y": 1.0999623268,
				"z": -2.2865559354,
				"element": "N" 
			},
			{
				"x": 1.4635739776,
				"y": 0.2023509464,
				"z": -1.7139785174,
				"element": "C" 
			},
			{
				"x": 0.9332495537,
				"y": -0.3054644577,
				"z": -0.5616674342,
				"element": "C" 
			},
			{
				"x": -0.3055529211,
				"y": 0.2789891235,
				"z": -0.4127318719,
				"element": "O" 
			},
			{
				"x": 1.3592784938,
				"y": -1.259745739,
				"z": 0.4515916511,
				"element": "C" 
			},
			{
				"x": 0.4903651701,
				"y": -1.6395827932,
				"z": 1.4906383051,
				"element": "C" 
			},
			{
				"x": 0.89587246,
				"y": -2.5553047873,
				"z": 2.4582137425,
				"element": "C" 
			},
			{
				"x": 2.1758160462,
				"y": -3.0924466196,
				"z": 2.381975255,
				"element": "C" 
			},
			{
				"x": 2.5729571092,
				"y": -3.9801696155,
				"z": 3.3166058668,
				"element": "F" 
			},
			{
				"x": 3.0607748244,
				"y": -2.7390563952,
				"z": 1.3677460197,
				"element": "C" 
			},
			{
				"x": 2.6482331264,
				"y": -1.8217397479,
				"z": 0.4068716316,
				"element": "C" 
			},
			{
				"x": -2.6278926903,
				"y": 2.3666524299,
				"z": 2.673039531,
				"element": "H" 
			},
			{
				"x": -2.7298743001,
				"y": 3.577915821,
				"z": -0.6976460918,
				"element": "H" 
			},
			{
				"x": -1.06522251,
				"y": 3.4246198153,
				"z": -0.1665191609,
				"element": "H" 
			},
			{
				"x": -1.6402344592,
				"y": 2.4607514837,
				"z": -2.5309191779,
				"element": "H" 
			},
			{
				"x": -2.5652954121,
				"y": 1.2109481304,
				"z": -1.6796553638,
				"element": "H" 
			},
			{
				"x": 2.4161200283,
				"y": -0.0166458103,
				"z": -2.1736561116,
				"element": "H" 
			},
			{
				"x": -0.5066276672,
				"y": -1.2146535113,
				"z": 1.5325743883,
				"element": "H" 
			},
			{
				"x": 0.2349524914,
				"y": -2.857747477,
				"z": 3.2632313196,
				"element": "H" 
			},
			{
				"x": 4.051939175,
				"y": -3.1785547884,
				"z": 1.3439255881,
				"element": "H" 
			},
			{
				"x": 3.3360988384,
				"y": -1.5370765303,
				"z": -0.3832279009,
				"element": "H" 
			}
		],
		 "valence_orbital": [ 
			{
				"type": "occ",
				"energy": -0.28639,
				"method": "rhf"
			},
			{
				"type": "occ",
				"energy": -0.2835,
				"method": "rhf"
			},
			{
				"type": "occ",
				"energy": -0.28212,
				"method": "rhf"
			},
			{
				"type": "occ",
				"energy": -0.26632,
				"method": "rhf"
			},
			{
				"type": "occ",
				"energy": -0.21346,
				"method": "rhf"
			},
			{
				"type": "unocc",
				"energy": -0.03699,
				"method": "rhf"
			},
			{
				"type": "unocc",
				"energy": -0.01579,
				"method": "rhf"
			},
			{
				"type": "unocc",
				"energy": 0.00218,
				"method": "rhf"
			},
			{
				"type": "unocc",
				"energy": 0.02584,
				"method": "rhf"
			},
			{
				"type": "unocc",
				"energy": 0.07252,
				"method": "rhf"
			}
		],
		"cosmo_sigma_profile": { 
			"-0.025": 0.0,
			"-0.024": 0.0,
			"-0.023": 0.0,
			"-0.022": 0.0,
			"-0.021": 0.0,
			"-0.02": 0.0,
			"-0.019": 0.0,
			"-0.018": 0.762828029347,
			"-0.017": 0.898850762376,
			"-0.016": 0.951129140627,
			"-0.015": 0.685739010778,
			"-0.014": 0.827003563567,
			"-0.013": 0.751851325176,
			"-0.012": 0.445763746551,
			"-0.011": 0.84165661025,
			"-0.01": 1.05050421657,
			"-0.009": 0.403132489386,
			"-0.008": 5.49444265367,
			"-0.007": 12.8225854535,
			"-0.006": 14.9731095514,
			"-0.005": 19.6512326715,
			"-0.004": 15.9889194397,
			"-0.003": 14.5520316806,
			"-0.002": 14.2735751525,
			"-0.001": 13.6024237549,
			"0.0": 18.3334912595,
			"0.001": 22.9615344083,
			"0.002": 23.3246490483,
			"0.003": 22.8999804464,
			"0.004": 18.2049874651,
			"0.005": 7.43667307556,
			"0.006": 4.10264473297,
			"0.007": 4.8057708983,
			"0.008": 4.57366004706,
			"0.009": 4.39756223244,
			"0.01": 3.42973513966,
			"0.011": 4.33119378861,
			"0.012": 4.24269167086,
			"0.013": 1.24890593684,
			"0.014": 0.990322372344,
			"0.015": 1.03572099419,
			"0.016": 0.634505134589,
			"0.017": 0.142205358419,
			"0.018": 0.0,
			"0.019": 0.0,
			"0.02": 0.0,
			"0.021": 0.0,
			"0.022": 0.0,
			"0.023": 0.0,
			"0.024": 0.0,
			"0.025": 0.0
		}
	}
}
