{
	 "smiles": "[O-][N+](=O)C1=CC(SC2=CC=CC=C2)=CC=C1", 
	 "Tm": 312.15, 
	 "num_atms": 25, 
	 "gaussian": { 
		 "optdone": 1, 
		 "sigma_profile": "yes", 
		 "theory": "DFT", 
		 "functional": "B3LYP", 
		 "basiset": "6-31G**", 
		 "properties": { 
			 "R2extent": 4991.9295, 
			 "electric_dipole_moment_norm": 3.18959616723, 
			 "electric_quadrupole_moment_norm": 20.5492129324, 
			 "total_energy": -1065.98430356, 
			 "HOMO_LUMO_gap": 0.14304, 
			 "cosmo_polarized_energy": -9.41, 
			 "cosmo_cavitation_energy": 32.05, 
			 "cosmo_dispersion_energy": -22.89, 
			 "cosmo_repulsion_energy": 1.74, 
			 "cosmo_total_nonelectrostatic_energy": 10.9, 
			 "SMD_solvation_energy": 7.27 
		},
		"coords": [
			{
				"x": -1.9377097004,
				"y": -1.3163443528,
				"z": -2.2793481636,
				"element": "O" 
			},
			{
				"x": -1.0778801734,
				"y": -0.8109166734,
				"z": -2.9998678367,
				"element": "N" 
			},
			{
				"x": -0.8309632322,
				"y": -1.1687133225,
				"z": -4.150985577,
				"element": "O" 
			},
			{
				"x": -0.2856770217,
				"y": 0.3032698136,
				"z": -2.4461696829,
				"element": "C" 
			},
			{
				"x": -0.5541498018,
				"y": 0.7199316476,
				"z": -1.1438102005,
				"element": "C" 
			},
			{
				"x": 0.192335971,
				"y": 1.7743534437,
				"z": -0.6131183421,
				"element": "C" 
			},
			{
				"x": -0.0304303151,
				"y": 2.4260906276,
				"z": 1.0391887774,
				"element": "S" 
			},
			{
				"x": -1.3451335287,
				"y": 1.4170661067,
				"z": 1.7259399931,
				"element": "C" 
			},
			{
				"x": -2.6790494593,
				"y": 1.8288390498,
				"z": 1.6052932442,
				"element": "C" 
			},
			{
				"x": -3.6955683578,
				"y": 1.0694167041,
				"z": 2.1862367827,
				"element": "C" 
			},
			{
				"x": -3.3848460608,
				"y": -0.0959114772,
				"z": 2.8900826066,
				"element": "C" 
			},
			{
				"x": -2.0552029011,
				"y": -0.5037255709,
				"z": 3.015751457,
				"element": "C" 
			},
			{
				"x": -1.0335792878,
				"y": 0.2508671558,
				"z": 2.4375898795,
				"element": "C" 
			},
			{
				"x": 1.1858115448,
				"y": 2.3817092214,
				"z": -1.4006915839,
				"element": "C" 
			},
			{
				"x": 1.4290933318,
				"y": 1.9409973571,
				"z": -2.7001532535,
				"element": "C" 
			},
			{
				"x": 0.6923833482,
				"y": 0.8893045478,
				"z": -3.2441631535,
				"element": "C" 
			},
			{
				"x": -1.328886582,
				"y": 0.2210187359,
				"z": -0.5774992332,
				"element": "H" 
			},
			{
				"x": -2.9125537351,
				"y": 2.7379372749,
				"z": 1.0606030692,
				"element": "H" 
			},
			{
				"x": -4.7288228114,
				"y": 1.3892482369,
				"z": 2.0894851019,
				"element": "H" 
			},
			{
				"x": -4.1778411438,
				"y": -0.6846850992,
				"z": 3.341621052,
				"element": "H" 
			},
			{
				"x": -1.8115967635,
				"y": -1.4084213969,
				"z": 3.5647970287,
				"element": "H" 
			},
			{
				"x": 0.0023684047,
				"y": -0.057291575,
				"z": 2.5351868149,
				"element": "H" 
			},
			{
				"x": 1.7689761625,
				"y": 3.2020268792,
				"z": -0.9918265503,
				"element": "H" 
			},
			{
				"x": 2.2003235292,
				"y": 2.421970054,
				"z": -3.293643464,
				"element": "H" 
			},
			{
				"x": 0.8576985838,
				"y": 0.5244626117,
				"z": -4.2492987659,
				"element": "H" 
			}
		],
		 "valence_orbital": [ 
			{
				"type": "occ",
				"energy": -0.28849,
				"method": "rhf"
			},
			{
				"type": "occ",
				"energy": -0.27999,
				"method": "rhf"
			},
			{
				"type": "occ",
				"energy": -0.2682,
				"method": "rhf"
			},
			{
				"type": "occ",
				"energy": -0.26708,
				"method": "rhf"
			},
			{
				"type": "occ",
				"energy": -0.22976,
				"method": "rhf"
			},
			{
				"type": "unocc",
				"energy": -0.08672,
				"method": "rhf"
			},
			{
				"type": "unocc",
				"energy": -0.03452,
				"method": "rhf"
			},
			{
				"type": "unocc",
				"energy": -0.02312,
				"method": "rhf"
			},
			{
				"type": "unocc",
				"energy": -0.01906,
				"method": "rhf"
			},
			{
				"type": "unocc",
				"energy": 0.00348,
				"method": "rhf"
			}
		],
		"cosmo_sigma_profile": { 
			"-0.025": 0.0,
			"-0.024": 0.0,
			"-0.023": 0.0,
			"-0.022": 0.0,
			"-0.021": 0.0,
			"-0.02": 0.0,
			"-0.019": 0.0,
			"-0.018": 0.0,
			"-0.017": 0.0,
			"-0.016": 0.0,
			"-0.015": 0.0,
			"-0.014": 0.0,
			"-0.013": 0.0,
			"-0.012": 0.0,
			"-0.011": 0.0,
			"-0.01": 0.0,
			"-0.009": 0.0,
			"-0.008": 2.41096290523,
			"-0.007": 9.10410656139,
			"-0.006": 18.6699781517,
			"-0.005": 18.4762254009,
			"-0.004": 16.1438921891,
			"-0.003": 13.2111495915,
			"-0.002": 20.1947489209,
			"-0.001": 21.2820640926,
			"0.0": 21.6592663314,
			"0.001": 25.864671995,
			"0.002": 24.9640963574,
			"0.003": 16.4557167706,
			"0.004": 14.2280608731,
			"0.005": 6.7078355138,
			"0.006": 5.93986176858,
			"0.007": 9.83025761888,
			"0.008": 8.02758027329,
			"0.009": 4.20664065753,
			"0.01": 2.59925096628,
			"0.011": 0.111402583778,
			"0.012": 0.0,
			"0.013": 0.0,
			"0.014": 0.0,
			"0.015": 0.0,
			"0.016": 0.0,
			"0.017": 0.0,
			"0.018": 0.0,
			"0.019": 0.0,
			"0.02": 0.0,
			"0.021": 0.0,
			"0.022": 0.0,
			"0.023": 0.0,
			"0.024": 0.0,
			"0.025": 0.0
		}
	}
}
