{
	 "smiles": "OC(=O)COC1=CC(Br)=CC=C1", 
	 "Tm": 382.15, 
	 "num_atms": 19, 
	 "gaussian": { 
		 "optdone": 1, 
		 "sigma_profile": "yes", 
		 "theory": "DFT", 
		 "functional": "B3LYP", 
		 "basiset": "6-31G**", 
		 "properties": { 
			 "R2extent": 4133.0536, 
			 "electric_dipole_moment_norm": 2.03341113403, 
			 "electric_quadrupole_moment_norm": 3.07951397139, 
			 "total_energy": -3106.14120899, 
			 "HOMO_LUMO_gap": 0.21156, 
			 "cosmo_polarized_energy": -11.87, 
			 "cosmo_cavitation_energy": 26.31, 
			 "cosmo_dispersion_energy": -19.36, 
			 "cosmo_repulsion_energy": 1.58, 
			 "cosmo_total_nonelectrostatic_energy": 8.53, 
			 "SMD_solvation_energy": 4.9 
		},
		"coords": [
			{
				"x": -0.9578239001,
				"y": -0.1364572686,
				"z": -1.9362396417,
				"element": "O" 
			},
			{
				"x": 0.3501913298,
				"y": -0.2393297234,
				"z": -1.6415675249,
				"element": "C" 
			},
			{
				"x": 1.2020947124,
				"y": 0.5145065999,
				"z": -2.0544821723,
				"element": "O" 
			},
			{
				"x": 0.6716904181,
				"y": -1.4491952992,
				"z": -0.7672448217,
				"element": "C" 
			},
			{
				"x": -0.4149068594,
				"y": -1.9883884322,
				"z": -0.0465817902,
				"element": "O" 
			},
			{
				"x": -0.8840049106,
				"y": -1.312778029,
				"z": 1.0486338755,
				"element": "C" 
			},
			{
				"x": -0.3812129541,
				"y": -0.0842382916,
				"z": 1.4912552392,
				"element": "C" 
			},
			{
				"x": -0.9438725804,
				"y": 0.4929392665,
				"z": 2.6316672249,
				"element": "C" 
			},
			{
				"x": -0.2567180781,
				"y": 2.1734298225,
				"z": 3.2358753928,
				"element": "Br" 
			},
			{
				"x": -1.9807136118,
				"y": -0.1098713769,
				"z": 3.334121858,
				"element": "C" 
			},
			{
				"x": -2.4676870155,
				"y": -1.3364315638,
				"z": 2.8695671397,
				"element": "C" 
			},
			{
				"x": -1.9303683249,
				"y": -1.9394035763,
				"z": 1.7389068632,
				"element": "C" 
			},
			{
				"x": -1.0501130528,
				"y": 0.6505895244,
				"z": -2.5000869409,
				"element": "H" 
			},
			{
				"x": 1.0085358799,
				"y": -2.2485882164,
				"z": -1.435121833,
				"element": "H" 
			},
			{
				"x": 1.513806076,
				"y": -1.1792299708,
				"z": -0.1204281393,
				"element": "H" 
			},
			{
				"x": 0.4201843464,
				"y": 0.4296003924,
				"z": 0.9767312589,
				"element": "H" 
			},
			{
				"x": -2.3974866604,
				"y": 0.3621464124,
				"z": 4.2154093627,
				"element": "H" 
			},
			{
				"x": -3.2779572052,
				"y": -1.8245250965,
				"z": 3.4029703586,
				"element": "H" 
			},
			{
				"x": -2.2995376092,
				"y": -2.8902751734,
				"z": 1.3708142905,
				"element": "H" 
			}
		],
		 "valence_orbital": [ 
			{
				"type": "occ",
				"energy": -0.30649,
				"method": "rhf"
			},
			{
				"type": "occ",
				"energy": -0.28853,
				"method": "rhf"
			},
			{
				"type": "occ",
				"energy": -0.28678,
				"method": "rhf"
			},
			{
				"type": "occ",
				"energy": -0.25306,
				"method": "rhf"
			},
			{
				"type": "occ",
				"energy": -0.23217,
				"method": "rhf"
			},
			{
				"type": "unocc",
				"energy": -0.02061,
				"method": "rhf"
			},
			{
				"type": "unocc",
				"energy": -0.00461,
				"method": "rhf"
			},
			{
				"type": "unocc",
				"energy": -0.00361,
				"method": "rhf"
			},
			{
				"type": "unocc",
				"energy": 0.00475,
				"method": "rhf"
			},
			{
				"type": "unocc",
				"energy": 0.06369,
				"method": "rhf"
			}
		],
		"cosmo_sigma_profile": { 
			"-0.025": 0.0,
			"-0.024": 0.0,
			"-0.023": 0.0,
			"-0.022": 0.0,
			"-0.021": 0.0,
			"-0.02": 0.0,
			"-0.019": 0.525718170338,
			"-0.018": 1.19398781626,
			"-0.017": 0.74022827071,
			"-0.016": 0.812484202197,
			"-0.015": 0.291126071035,
			"-0.014": 0.720289119987,
			"-0.013": 0.915876869303,
			"-0.012": 0.909446132085,
			"-0.011": 1.16081051604,
			"-0.01": 0.964442763375,
			"-0.009": 4.04786552086,
			"-0.008": 5.228638105,
			"-0.007": 9.44939734797,
			"-0.006": 12.736086333,
			"-0.005": 11.2021718592,
			"-0.004": 10.7886758565,
			"-0.003": 9.97077654595,
			"-0.002": 8.9873756597,
			"-0.001": 9.71551086109,
			"0.0": 11.2229443038,
			"0.001": 11.8612966223,
			"0.002": 19.0979162273,
			"0.003": 23.4889499526,
			"0.004": 21.1752786631,
			"0.005": 9.29850376008,
			"0.006": 4.07322790871,
			"0.007": 3.96237030123,
			"0.008": 4.26794762476,
			"0.009": 4.01881575793,
			"0.01": 3.22199502515,
			"0.011": 5.13792216491,
			"0.012": 2.3467687663,
			"0.013": 0.00404733330041,
			"0.014": 0.0,
			"0.015": 0.0,
			"0.016": 0.0,
			"0.017": 0.0,
			"0.018": 0.0,
			"0.019": 0.0,
			"0.02": 0.0,
			"0.021": 0.0,
			"0.022": 0.0,
			"0.023": 0.0,
			"0.024": 0.0,
			"0.0": 0.0
		}
	}
}
