{
	 "smiles": "ClC1=CC2=C(C=C1)C(=CN2)C(=O)CC#N", 
	 "Tm": 567.15, 
	 "num_atms": 22, 
	 "gaussian": { 
		 "optdone": 1, 
		 "sigma_profile": "yes", 
		 "theory": "DFT", 
		 "functional": "B3LYP", 
		 "basiset": "6-31G**", 
		 "properties": { 
			 "R2extent": 5460.2858, 
			 "electric_dipole_moment_norm": 6.46034949287, 
			 "electric_quadrupole_moment_norm": 33.5065486416, 
			 "total_energy": -1068.29220254, 
			 "HOMO_LUMO_gap": 0.1735, 
			 "cosmo_polarized_energy": -22.58, 
			 "cosmo_cavitation_energy": 29.87, 
			 "cosmo_dispersion_energy": -21.42, 
			 "cosmo_repulsion_energy": 1.66, 
			 "cosmo_total_nonelectrostatic_energy": 10.11, 
			 "SMD_solvation_energy": 6.63 
		},
		"coords": [
			{
				"x": -1.7539252204,
				"y": 0.8941609976,
				"z": -5.04949426,
				"element": "Cl" 
			},
			{
				"x": -0.7284716446,
				"y": 0.5758161249,
				"z": -3.6587609128,
				"element": "C" 
			},
			{
				"x": 0.3439166541,
				"y": -0.2946287743,
				"z": -3.7975444613,
				"element": "C" 
			},
			{
				"x": 1.1237742903,
				"y": -0.5097056035,
				"z": -2.6597592163,
				"element": "C" 
			},
			{
				"x": 0.8694349166,
				"y": 0.1090201991,
				"z": -1.4047035706,
				"element": "C" 
			},
			{
				"x": -0.2301011545,
				"y": 0.9823942838,
				"z": -1.3191792306,
				"element": "C" 
			},
			{
				"x": -1.0201338719,
				"y": 1.2113712422,
				"z": -2.4390082277,
				"element": "C" 
			},
			{
				"x": 1.8960188419,
				"y": -0.3726798341,
				"z": -0.4960757031,
				"element": "C" 
			},
			{
				"x": 2.6957950201,
				"y": -1.2333984813,
				"z": -1.2272254626,
				"element": "C" 
			},
			{
				"x": 2.2408657506,
				"y": -1.3163912769,
				"z": -2.5084921364,
				"element": "N" 
			},
			{
				"x": 2.1800488725,
				"y": -0.1128389895,
				"z": 0.9207029907,
				"element": "C" 
			},
			{
				"x": 3.1168814062,
				"y": -0.6355815872,
				"z": 1.5023766378,
				"element": "O" 
			},
			{
				"x": 1.2375206139,
				"y": 0.859020166,
				"z": 1.6583334941,
				"element": "C" 
			},
			{
				"x": 1.5944828653,
				"y": 1.0577742159,
				"z": 3.0611078703,
				"element": "C" 
			},
			{
				"x": 1.8448943295,
				"y": 1.241981201,
				"z": 4.1781179911,
				"element": "N" 
			},
			{
				"x": 0.5568404404,
				"y": -0.777661016,
				"z": -4.7446434574,
				"element": "H" 
			},
			{
				"x": -0.4811157133,
				"y": 1.4875647259,
				"z": -0.3936124593,
				"element": "H" 
			},
			{
				"x": -1.86904297,
				"y": 1.8828584705,
				"z": -2.381289681,
				"element": "H" 
			},
			{
				"x": 3.5610263169,
				"y": -1.7829767897,
				"z": -0.8872264115,
				"element": "H" 
			},
			{
				"x": 2.6544153313,
				"y": -1.879213419,
				"z": -3.2357173123,
				"element": "H" 
			},
			{
				"x": 0.2094616939,
				"y": 0.4803070944,
				"z": 1.5976721041,
				"element": "H" 
			},
			{
				"x": 1.2437132313,
				"y": 1.8280070502,
				"z": 1.1435214149,
				"element": "H" 
			}
		],
		 "valence_orbital": [ 
			{
				"type": "occ",
				"energy": -0.32265,
				"method": "rhf"
			},
			{
				"type": "occ",
				"energy": -0.30008,
				"method": "rhf"
			},
			{
				"type": "occ",
				"energy": -0.26683,
				"method": "rhf"
			},
			{
				"type": "occ",
				"energy": -0.25667,
				"method": "rhf"
			},
			{
				"type": "occ",
				"energy": -0.23534,
				"method": "rhf"
			},
			{
				"type": "unocc",
				"energy": -0.06184,
				"method": "rhf"
			},
			{
				"type": "unocc",
				"energy": -0.03163,
				"method": "rhf"
			},
			{
				"type": "unocc",
				"energy": -0.00781,
				"method": "rhf"
			},
			{
				"type": "unocc",
				"energy": 0.017,
				"method": "rhf"
			},
			{
				"type": "unocc",
				"energy": 0.03289,
				"method": "rhf"
			}
		],
		"cosmo_sigma_profile": { 
			"-0.025": 0.0,
			"-0.024": 0.0,
			"-0.023": 0.0,
			"-0.022": 0.0,
			"-0.021": 0.0,
			"-0.02": 0.0,
			"-0.019": 0.0,
			"-0.018": 0.0573970058119,
			"-0.017": 1.69887963319,
			"-0.016": 1.79259092869,
			"-0.015": 1.60400491225,
			"-0.014": 1.38824981782,
			"-0.013": 1.12828496171,
			"-0.012": 1.61574556249,
			"-0.011": 1.50425509683,
			"-0.01": 7.67008913239,
			"-0.009": 10.6015458188,
			"-0.008": 9.03516498238,
			"-0.007": 9.32129427252,
			"-0.006": 9.19443249855,
			"-0.005": 8.882595754,
			"-0.004": 7.38827760534,
			"-0.003": 6.90545879863,
			"-0.002": 8.60195629042,
			"-0.001": 11.1460461516,
			"0.0": 12.1297427475,
			"0.001": 19.115150677,
			"0.002": 21.7760028083,
			"0.003": 21.4985548033,
			"0.004": 17.4545703417,
			"0.005": 11.6379724936,
			"0.006": 4.23785620061,
			"0.007": 4.0260543271,
			"0.008": 6.13672461589,
			"0.009": 6.12220533033,
			"0.01": 5.25761922047,
			"0.011": 6.68335780173,
			"0.012": 6.04785337523,
			"0.013": 1.93751014053,
			"0.014": 0.0512845762328,
			"0.015": 0.0,
			"0.016": 0.0,
			"0.017": 0.0,
			"0.018": 0.0,
			"0.019": 0.0,
			"0.02": 0.0,
			"0.021": 0.0,
			"0.022": 0.0,
			"0.023": 0.0,
			"0.024": 0.0,
			"0.025": 0.0
		}
	}
}
