{
	 "smiles": "NC1=C(C=CC=C1[N+]([O-])=O)C(O)=O", 
	 "Tm": 484.15, 
	 "num_atms": 19, 
	 "gaussian": { 
		 "optdone": 1, 
		 "sigma_profile": "yes", 
		 "theory": "DFT", 
		 "functional": "B3LYP", 
		 "basiset": "6-31G**", 
		 "properties": { 
			 "R2extent": 2636.614, 
			 "electric_dipole_moment_norm": 1.2289870992, 
			 "electric_quadrupole_moment_norm": 21.5900732993, 
			 "total_energy": -680.673968269, 
			 "HOMO_LUMO_gap": 0.15284, 
			 "cosmo_polarized_energy": -16.19, 
			 "cosmo_cavitation_energy": 23.8, 
			 "cosmo_dispersion_energy": -18.15, 
			 "cosmo_repulsion_energy": 1.41, 
			 "cosmo_total_nonelectrostatic_energy": 7.06, 
			 "SMD_solvation_energy": 7.35 
		},
		"coords": [
			{
				"x": -0.70689955,
				"y": 2.1371367845,
				"z": -0.6322662323,
				"element": "N" 
			},
			{
				"x": -0.0412397672,
				"y": 1.1006525167,
				"z": 0.0141979517,
				"element": "C" 
			},
			{
				"x": 1.0320852591,
				"y": 1.394953979,
				"z": 0.8990099813,
				"element": "C" 
			},
			{
				"x": 1.6852906173,
				"y": 0.3703920004,
				"z": 1.5842734678,
				"element": "C" 
			},
			{
				"x": 1.3522622765,
				"y": -0.9696558972,
				"z": 1.3836649227,
				"element": "C" 
			},
			{
				"x": 0.3437897312,
				"y": -1.2851100982,
				"z": 0.4883807383,
				"element": "C" 
			},
			{
				"x": -0.3499494596,
				"y": -0.2713057682,
				"z": -0.1849400605,
				"element": "C" 
			},
			{
				"x": -1.4262068202,
				"y": -0.7107744079,
				"z": -1.0741725425,
				"element": "N" 
			},
			{
				"x": -2.0301854817,
				"y": 0.1346062923,
				"z": -1.7568765678,
				"element": "O" 
			},
			{
				"x": -1.6913477099,
				"y": -1.9087515062,
				"z": -1.1139274715,
				"element": "O" 
			},
			{
				"x": 1.5770737642,
				"y": 2.7833712297,
				"z": 1.1287242851,
				"element": "C" 
			},
			{
				"x": 1.3717207793,
				"y": 3.7018366812,
				"z": 0.1567353743,
				"element": "O" 
			},
			{
				"x": 2.2120394646,
				"y": 3.0699578488,
				"z": 2.116964397,
				"element": "O" 
			},
			{
				"x": -0.9541446758,
				"y": 2.9201127094,
				"z": -0.0385412722,
				"element": "H" 
			},
			{
				"x": -1.4653254991,
				"y": 1.8085162293,
				"z": -1.2228383843,
				"element": "H" 
			},
			{
				"x": 2.4787332836,
				"y": 0.6569861937,
				"z": 2.2661534549,
				"element": "H" 
			},
			{
				"x": 1.8818778648,
				"y": -1.7555409488,
				"z": 1.9104036673,
				"element": "H" 
			},
			{
				"x": 0.056184425,
				"y": -2.3101542694,
				"z": 0.2933184846,
				"element": "H" 
			},
			{
				"x": 0.9070414979,
				"y": 3.297870431,
				"z": -0.6007641938,
				"element": "H" 
			}
		],
		 "valence_orbital": [ 
			{
				"type": "occ",
				"energy": -0.32347,
				"method": "rhf"
			},
			{
				"type": "occ",
				"energy": -0.30971,
				"method": "rhf"
			},
			{
				"type": "occ",
				"energy": -0.29762,
				"method": "rhf"
			},
			{
				"type": "occ",
				"energy": -0.2814,
				"method": "rhf"
			},
			{
				"type": "occ",
				"energy": -0.25952,
				"method": "rhf"
			},
			{
				"type": "unocc",
				"energy": -0.10668,
				"method": "rhf"
			},
			{
				"type": "unocc",
				"energy": -0.06236,
				"method": "rhf"
			},
			{
				"type": "unocc",
				"energy": -0.01708,
				"method": "rhf"
			},
			{
				"type": "unocc",
				"energy": 0.03581,
				"method": "rhf"
			},
			{
				"type": "unocc",
				"energy": 0.06347,
				"method": "rhf"
			}
		],
		"cosmo_sigma_profile": { 
			"-0.025": 0.0,
			"-0.024": 0.0,
			"-0.023": 0.0,
			"-0.022": 0.0,
			"-0.021": 0.0,
			"-0.02": 0.0,
			"-0.019": 0.0,
			"-0.018": 0.0,
			"-0.017": 0.0,
			"-0.016": 0.0,
			"-0.015": 0.824510055212,
			"-0.014": 1.8419079242,
			"-0.013": 1.68869142086,
			"-0.012": 2.31901079357,
			"-0.011": 3.03577150007,
			"-0.01": 3.48798221613,
			"-0.009": 2.97101461633,
			"-0.008": 4.03085732258,
			"-0.007": 8.41146854791,
			"-0.006": 11.586315111,
			"-0.005": 11.4018807629,
			"-0.004": 9.18628897401,
			"-0.003": 10.6429399851,
			"-0.002": 11.6470572361,
			"-0.001": 13.3742029836,
			"0.0": 13.1059384862,
			"0.001": 11.8043047809,
			"0.002": 7.92733577769,
			"0.003": 5.85837091689,
			"0.004": 4.59009181749,
			"0.005": 3.9873980889,
			"0.006": 6.60556866154,
			"0.007": 8.69405439634,
			"0.008": 6.98201469719,
			"0.009": 6.90894963302,
			"0.01": 7.63401530776,
			"0.011": 5.46323582846,
			"0.012": 3.96273783464,
			"0.013": 1.2813695454,
			"0.014": 0.0242666139004,
			"0.015": 0.0,
			"0.016": 0.0,
			"0.017": 0.0,
			"0.018": 0.0,
			"0.019": 0.0,
			"0.02": 0.0,
			"0.021": 0.0,
			"0.022": 0.0,
			"0.023": 0.0,
			"0.024": 0.0,
			"0.025": 0.0
		}
	}
}
