{
	 "smiles": "OC1=CC(Cl)=C(Br)C=C1", 
	 "Tm": 339.15, 
	 "num_atms": 13, 
	 "gaussian": { 
		 "optdone": 1, 
		 "sigma_profile": "yes", 
		 "theory": "DFT", 
		 "functional": "B3LYP", 
		 "basiset": "6-31G**", 
		 "properties": { 
			 "R2extent": 2775.0228, 
			 "electric_dipole_moment_norm": 2.48604488093, 
			 "electric_quadrupole_moment_norm": 10.5346776211, 
			 "total_energy": -3337.85977463, 
			 "HOMO_LUMO_gap": 0.20463, 
			 "cosmo_polarized_energy": -8.84, 
			 "cosmo_cavitation_energy": 21.41, 
			 "cosmo_dispersion_energy": -16.63, 
			 "cosmo_repulsion_energy": 1.36, 
			 "cosmo_total_nonelectrostatic_energy": 6.14, 
			 "SMD_solvation_energy": 2.74 
		},
		"coords": [
			{
				"x": 1.3787635537,
				"y": 1.3157769856,
				"z": 2.641433276,
				"element": "O" 
			},
			{
				"x": 0.9643139213,
				"y": 0.4451058167,
				"z": 1.6794638531,
				"element": "C" 
			},
			{
				"x": 1.8282158543,
				"y": -0.0760045495,
				"z": 0.7136678914,
				"element": "C" 
			},
			{
				"x": 1.3467527418,
				"y": -0.9660625071,
				"z": -0.2494328898,
				"element": "C" 
			},
			{
				"x": 2.4779147597,
				"y": -1.582436367,
				"z": -1.430158702,
				"element": "Cl" 
			},
			{
				"x": -0.0003955889,
				"y": -1.3409602573,
				"z": -0.2536410328,
				"element": "C" 
			},
			{
				"x": -0.7110025006,
				"y": -2.5482388919,
				"z": -1.5396092633,
				"element": "Br" 
			},
			{
				"x": -0.8544025264,
				"y": -0.8116519348,
				"z": 0.7190960033,
				"element": "C" 
			},
			{
				"x": -0.3853967813,
				"y": 0.0738108154,
				"z": 1.6806845211,
				"element": "C" 
			},
			{
				"x": 2.322571845,
				"y": 1.4924712507,
				"z": 2.5352496729,
				"element": "H" 
			},
			{
				"x": 2.8779090664,
				"y": 0.201591945,
				"z": 0.6985215075,
				"element": "H" 
			},
			{
				"x": -1.8983899319,
				"y": -1.1035132349,
				"z": 0.7141716103,
				"element": "H" 
			},
			{
				"x": -1.0474544131,
				"y": 0.4842109293,
				"z": 2.4348535524,
				"element": "H" 
			}
		],
		 "valence_orbital": [ 
			{
				"type": "occ",
				"energy": -0.32417,
				"method": "rhf"
			},
			{
				"type": "occ",
				"energy": -0.30131,
				"method": "rhf"
			},
			{
				"type": "occ",
				"energy": -0.28572,
				"method": "rhf"
			},
			{
				"type": "occ",
				"energy": -0.26262,
				"method": "rhf"
			},
			{
				"type": "occ",
				"energy": -0.23054,
				"method": "rhf"
			},
			{
				"type": "unocc",
				"energy": -0.02591,
				"method": "rhf"
			},
			{
				"type": "unocc",
				"energy": -0.01152,
				"method": "rhf"
			},
			{
				"type": "unocc",
				"energy": -0.01097,
				"method": "rhf"
			},
			{
				"type": "unocc",
				"energy": 0.0497,
				"method": "rhf"
			},
			{
				"type": "unocc",
				"energy": 0.05786,
				"method": "rhf"
			}
		],
		"cosmo_sigma_profile": { 
			"-0.025": 0.0,
			"-0.024": 0.0,
			"-0.023": 0.0,
			"-0.022": 0.0,
			"-0.021": 0.0,
			"-0.02": 0.0,
			"-0.019": 0.26056384907,
			"-0.018": 1.13173549043,
			"-0.017": 1.59703139712,
			"-0.016": 0.876591384974,
			"-0.015": 1.18578417867,
			"-0.014": 1.17049057554,
			"-0.013": 0.811239466392,
			"-0.012": 0.835077395661,
			"-0.011": 1.0320266767,
			"-0.01": 1.45398327253,
			"-0.009": 1.38533920534,
			"-0.008": 2.02822257287,
			"-0.007": 4.92973640811,
			"-0.006": 5.0979053292,
			"-0.005": 6.49891750158,
			"-0.004": 6.00707367181,
			"-0.003": 6.8043709004,
			"-0.002": 7.80526769934,
			"-0.001": 8.25649252584,
			"0.0": 11.7339075188,
			"0.001": 20.0498955704,
			"0.002": 28.1345614632,
			"0.003": 19.2333840147,
			"0.004": 20.0303912372,
			"0.005": 9.47460221769,
			"0.006": 2.58024253931,
			"0.007": 1.19443257361,
			"0.008": 1.22320042871,
			"0.009": 1.6522492209,
			"0.01": 1.86768528749,
			"0.011": 0.91265058037,
			"0.012": 0.0,
			"0.013": 0.0,
			"0.014": 0.0,
			"0.015": 0.0,
			"0.016": 0.0,
			"0.017": 0.0,
			"0.018": 0.0,
			"0.019": 0.0,
			"0.02": 0.0,
			"0.021": 0.0,
			"0.022": 0.0,
			"0.023": 0.0,
			"0.024": 0.0,
			"0.025": 0.0
		}
	}
}
