{
	 "smiles": "CN(C(C)=O)C1=CC(=CC=C1)N(C)C(C)=O", 
	 "Tm": 425.15, 
	 "num_atms": 32, 
	 "gaussian": { 
		 "optdone": 1, 
		 "sigma_profile": "yes", 
		 "theory": "DFT", 
		 "functional": "B3LYP", 
		 "basiset": "6-31G**", 
		 "properties": { 
			 "R2extent": 5204.1745, 
			 "electric_dipole_moment_norm": 4.46216329262, 
			 "electric_quadrupole_moment_norm": 26.9053234853, 
			 "total_energy": -726.893099889, 
			 "HOMO_LUMO_gap": 0.20842, 
			 "cosmo_polarized_energy": -16.94, 
			 "cosmo_cavitation_energy": 34.99, 
			 "cosmo_dispersion_energy": -24.1, 
			 "cosmo_repulsion_energy": 1.89, 
			 "cosmo_total_nonelectrostatic_energy": 12.78, 
			 "SMD_solvation_energy": 7.99 
		},
		"coords": [
			{
				"x": -2.57727704,
				"y": 2.3337904779,
				"z": -1.8949797337,
				"element": "C" 
			},
			{
				"x": -1.3019045475,
				"y": 1.8560309605,
				"z": -2.4261744095,
				"element": "N" 
			},
			{
				"x": -1.0215403993,
				"y": 2.0288384837,
				"z": -3.7717300406,
				"element": "C" 
			},
			{
				"x": 0.3269273396,
				"y": 1.5177824025,
				"z": -4.2551337767,
				"element": "C" 
			},
			{
				"x": -1.8178610282,
				"y": 2.5643173759,
				"z": -4.5333679004,
				"element": "O" 
			},
			{
				"x": -0.393089828,
				"y": 1.2486715852,
				"z": -1.4983588362,
				"element": "C" 
			},
			{
				"x": -0.4960894164,
				"y": -0.1208252361,
				"z": -1.2306227048,
				"element": "C" 
			},
			{
				"x": 0.3585679615,
				"y": -0.7382058087,
				"z": -0.3064075513,
				"element": "C" 
			},
			{
				"x": 1.326328101,
				"y": 0.0401699415,
				"z": 0.35003131,
				"element": "C" 
			},
			{
				"x": 1.422755911,
				"y": 1.4023436123,
				"z": 0.077078796,
				"element": "C" 
			},
			{
				"x": 0.5668686229,
				"y": 2.0180213227,
				"z": -0.8376938118,
				"element": "C" 
			},
			{
				"x": 0.2033390711,
				"y": -2.13061544,
				"z": -0.0277630821,
				"element": "N" 
			},
			{
				"x": -1.1479952227,
				"y": -2.6891425371,
				"z": -0.1146796679,
				"element": "C" 
			},
			{
				"x": 1.3154018522,
				"y": -2.9552026384,
				"z": 0.1403222811,
				"element": "C" 
			},
			{
				"x": 1.0480725076,
				"y": -4.4436250955,
				"z": 0.3232113276,
				"element": "C" 
			},
			{
				"x": 2.4586715132,
				"y": -2.5235152821,
				"z": 0.1481111638,
				"element": "O" 
			},
			{
				"x": -2.4157633839,
				"y": 3.0958877459,
				"z": -1.1240280172,
				"element": "H" 
			},
			{
				"x": -3.1462306923,
				"y": 1.5088455972,
				"z": -1.4508460721,
				"element": "H" 
			},
			{
				"x": -3.1395809275,
				"y": 2.7631575465,
				"z": -2.7235825084,
				"element": "H" 
			},
			{
				"x": 0.4602543482,
				"y": 0.4547991266,
				"z": -4.0344867889,
				"element": "H" 
			},
			{
				"x": 1.1508011465,
				"y": 2.0515205522,
				"z": -3.7720158995,
				"element": "H" 
			},
			{
				"x": 0.3734908073,
				"y": 1.6780394136,
				"z": -5.3318718472,
				"element": "H" 
			},
			{
				"x": -1.2420197464,
				"y": -0.6943733833,
				"z": -1.7698567892,
				"element": "H" 
			},
			{
				"x": 1.9988742014,
				"y": -0.4244666304,
				"z": 1.0562415153,
				"element": "H" 
			},
			{
				"x": 2.1731393316,
				"y": 1.9928758708,
				"z": 0.5943100057,
				"element": "H" 
			},
			{
				"x": 0.6362053054,
				"y": 3.0816680895,
				"z": -1.0435748741,
				"element": "H" 
			},
			{
				"x": -1.4060120358,
				"y": -3.0269361532,
				"z": -1.1270757886,
				"element": "H" 
			},
			{
				"x": -1.8671073622,
				"y": -1.9263660685,
				"z": 0.1884258098,
				"element": "H" 
			},
			{
				"x": -1.2542801534,
				"y": -3.5337815205,
				"z": 0.5653086,
				"element": "H" 
			},
			{
				"x": 0.4554162413,
				"y": -4.8679193236,
				"z": -0.493092712,
				"element": "H" 
			},
			{
				"x": 0.5184777322,
				"y": -4.6456737729,
				"z": 1.2607502967,
				"element": "H" 
			},
			{
				"x": 2.0185597896,
				"y": -4.937311214,
				"z": 0.3572517064,
				"element": "H" 
			}
		],
		 "valence_orbital": [ 
			{
				"type": "occ",
				"energy": -0.26724,
				"method": "rhf"
			},
			{
				"type": "occ",
				"energy": -0.25355,
				"method": "rhf"
			},
			{
				"type": "occ",
				"energy": -0.23932,
				"method": "rhf"
			},
			{
				"type": "occ",
				"energy": -0.23843,
				"method": "rhf"
			},
			{
				"type": "occ",
				"energy": -0.22859,
				"method": "rhf"
			},
			{
				"type": "unocc",
				"energy": -0.02017,
				"method": "rhf"
			},
			{
				"type": "unocc",
				"energy": -0.0147,
				"method": "rhf"
			},
			{
				"type": "unocc",
				"energy": 0.02466,
				"method": "rhf"
			},
			{
				"type": "unocc",
				"energy": 0.03513,
				"method": "rhf"
			},
			{
				"type": "unocc",
				"energy": 0.07187,
				"method": "rhf"
			}
		],
		"cosmo_sigma_profile": { 
			"-0.025": 0.0,
			"-0.024": 0.0,
			"-0.023": 0.0,
			"-0.022": 0.0,
			"-0.021": 0.0,
			"-0.02": 0.0,
			"-0.019": 0.0,
			"-0.018": 0.0,
			"-0.017": 0.0,
			"-0.016": 0.0,
			"-0.015": 0.0,
			"-0.014": 0.0,
			"-0.013": 0.0,
			"-0.012": 0.0,
			"-0.011": 0.0,
			"-0.01": 0.0,
			"-0.009": 0.0,
			"-0.008": 0.36136213353,
			"-0.007": 4.34879240701,
			"-0.006": 13.5178841589,
			"-0.005": 26.7431144266,
			"-0.004": 32.9905738749,
			"-0.003": 32.9676056827,
			"-0.002": 29.3447599885,
			"-0.001": 29.1374232353,
			"0.0": 18.4116325465,
			"0.001": 12.0746576051,
			"0.002": 10.0070101496,
			"0.003": 9.96937260562,
			"0.004": 10.0756128196,
			"0.005": 7.25019755736,
			"0.006": 3.09320623524,
			"0.007": 3.36162678052,
			"0.008": 4.21650408208,
			"0.009": 2.32572477906,
			"0.01": 2.22674852599,
			"0.011": 3.46039002858,
			"0.012": 4.735499198,
			"0.013": 7.15811570612,
			"0.014": 6.97214246684,
			"0.015": 1.59723183438,
			"0.016": 0.0197801238555,
			"0.017": 0.0,
			"0.018": 0.0,
			"0.019": 0.0,
			"0.02": 0.0,
			"0.021": 0.0,
			"0.022": 0.0,
			"0.023": 0.0,
			"0.024": 0.0,
			"0.025": 0.0
		}
	}
}
