{
	 "smiles": "CC1=CC(C)=C(CC#N)C(C)=C1", 
	 "Tm": 351.65, 
	 "num_atms": 25, 
	 "gaussian": { 
		 "optdone": 1, 
		 "sigma_profile": "yes", 
		 "theory": "DFT", 
		 "functional": "B3LYP", 
		 "basiset": "6-31G**", 
		 "properties": { 
			 "R2extent": 2360.2515, 
			 "electric_dipole_moment_norm": 3.97220414631, 
			 "electric_quadrupole_moment_norm": 13.9601341315, 
			 "total_energy": -481.761359417, 
			 "HOMO_LUMO_gap": 0.22733, 
			 "cosmo_polarized_energy": -9.95, 
			 "cosmo_cavitation_energy": 28.32, 
			 "cosmo_dispersion_energy": -19.65, 
			 "cosmo_repulsion_energy": 1.57, 
			 "cosmo_total_nonelectrostatic_energy": 10.23, 
			 "SMD_solvation_energy": 6.17 
		},
		"coords": [
			{
				"x": 1.7418111366,
				"y": -3.5876378164,
				"z": 0.133330257,
				"element": "C" 
			},
			{
				"x": 1.3127005516,
				"y": -2.1394710173,
				"z": 0.1227076774,
				"element": "C" 
			},
			{
				"x": 1.7325877785,
				"y": -1.2572049146,
				"z": 1.1217564792,
				"element": "C" 
			},
			{
				"x": 1.3230035578,
				"y": 0.0798795488,
				"z": 1.1484656028,
				"element": "C" 
			},
			{
				"x": 1.798038165,
				"y": 0.9817240871,
				"z": 2.2662775062,
				"element": "C" 
			},
			{
				"x": 0.470607889,
				"y": 0.5516995083,
				"z": 0.1315102109,
				"element": "C" 
			},
			{
				"x": 0.0226876917,
				"y": 2.0101447909,
				"z": 0.1309198092,
				"element": "C" 
			},
			{
				"x": -1.2208900204,
				"y": 2.227473841,
				"z": 0.8852737481,
				"element": "C" 
			},
			{
				"x": -2.203425286,
				"y": 2.3846626604,
				"z": 1.4837114617,
				"element": "N" 
			},
			{
				"x": 0.023774172,
				"y": -0.3200380005,
				"z": -0.8803301871,
				"element": "C" 
			},
			{
				"x": -0.915320362,
				"y": 0.1465078435,
				"z": -1.9707001587,
				"element": "C" 
			},
			{
				"x": 0.4580976526,
				"y": -1.6495024633,
				"z": -0.8684541613,
				"element": "C" 
			},
			{
				"x": 2.7272897601,
				"y": -3.7101977924,
				"z": 0.5926475345,
				"element": "H" 
			},
			{
				"x": 1.7852164603,
				"y": -4.0001103272,
				"z": -0.8791638708,
				"element": "H" 
			},
			{
				"x": 1.0373541909,
				"y": -4.2042176386,
				"z": 0.7056783677,
				"element": "H" 
			},
			{
				"x": 2.3946786886,
				"y": -1.6180171607,
				"z": 1.9057465455,
				"element": "H" 
			},
			{
				"x": 2.3903230343,
				"y": 0.4187495593,
				"z": 2.991677657,
				"element": "H" 
			},
			{
				"x": 0.9604989872,
				"y": 1.4384013867,
				"z": 2.8055458401,
				"element": "H" 
			},
			{
				"x": 2.4293555896,
				"y": 1.799442798,
				"z": 1.8957738568,
				"element": "H" 
			},
			{
				"x": -0.1401073455,
				"y": 2.3685499185,
				"z": -0.8902246607,
				"element": "H" 
			},
			{
				"x": 0.7925934502,
				"y": 2.6555716323,
				"z": 0.5649246619,
				"element": "H" 
			},
			{
				"x": -0.4565007813,
				"y": 0.9114229819,
				"z": -2.6101443971,
				"element": "H" 
			},
			{
				"x": -1.2011476433,
				"y": -0.6867971359,
				"z": -2.6171119654,
				"element": "H" 
			},
			{
				"x": -1.8351694427,
				"y": 0.5775877865,
				"z": -1.5597255516,
				"element": "H" 
			},
			{
				"x": 0.1152421253,
				"y": -2.3196240761,
				"z": -1.6536922633,
				"element": "H" 
			}
		],
		 "valence_orbital": [ 
			{
				"type": "occ",
				"energy": -0.33776,
				"method": "rhf"
			},
			{
				"type": "occ",
				"energy": -0.3184,
				"method": "rhf"
			},
			{
				"type": "occ",
				"energy": -0.31482,
				"method": "rhf"
			},
			{
				"type": "occ",
				"energy": -0.24223,
				"method": "rhf"
			},
			{
				"type": "occ",
				"energy": -0.23902,
				"method": "rhf"
			},
			{
				"type": "unocc",
				"energy": -0.01169,
				"method": "rhf"
			},
			{
				"type": "unocc",
				"energy": -0.00151,
				"method": "rhf"
			},
			{
				"type": "unocc",
				"energy": 0.04002,
				"method": "rhf"
			},
			{
				"type": "unocc",
				"energy": 0.04582,
				"method": "rhf"
			},
			{
				"type": "unocc",
				"energy": 0.08238,
				"method": "rhf"
			}
		],
		"cosmo_sigma_profile": { 
			"-0.025": 0.0,
			"-0.024": 0.0,
			"-0.023": 0.0,
			"-0.022": 0.0,
			"-0.021": 0.0,
			"-0.02": 0.0,
			"-0.019": 0.0,
			"-0.018": 0.0,
			"-0.017": 0.0,
			"-0.016": 0.0,
			"-0.015": 0.0,
			"-0.014": 0.0,
			"-0.013": 0.0,
			"-0.012": 0.0,
			"-0.011": 0.0,
			"-0.01": 0.0,
			"-0.009": 0.0185373130173,
			"-0.008": 3.82511247324,
			"-0.007": 6.42173740366,
			"-0.006": 5.67579845302,
			"-0.005": 12.8128634278,
			"-0.004": 24.3914781433,
			"-0.003": 22.5254035701,
			"-0.002": 21.7807726573,
			"-0.001": 21.2275040279,
			"0.0": 26.5908031212,
			"0.001": 14.3046702353,
			"0.002": 9.18104456033,
			"0.003": 8.56842443568,
			"0.004": 8.29881110945,
			"0.005": 8.33779593669,
			"0.006": 9.06981695639,
			"0.007": 2.78205281966,
			"0.008": 3.00900953273,
			"0.009": 3.45935014691,
			"0.01": 3.45307416972,
			"0.011": 3.14445967073,
			"0.012": 2.53239529434,
			"0.013": 2.27375589599,
			"0.014": 0.542248594517,
			"0.015": 0.0,
			"0.016": 0.0,
			"0.017": 0.0,
			"0.018": 0.0,
			"0.019": 0.0,
			"0.02": 0.0,
			"0.021": 0.0,
			"0.022": 0.0,
			"0.023": 0.0,
			"0.024": 0.0,
			"0.025": 0.0
		}
	}
}
