{
	 "smiles": "CC(C)(C)NC(=O)CC1=CC=C(N)C=C1", 
	 "Tm": 387.15, 
	 "num_atms": 33, 
	 "gaussian": { 
		 "optdone": 1, 
		 "sigma_profile": "yes", 
		 "theory": "DFT", 
		 "functional": "B3LYP", 
		 "basiset": "6-31G**", 
		 "properties": { 
			 "R2extent": 4205.4244, 
			 "electric_dipole_moment_norm": 5.44495383543, 
			 "electric_quadrupole_moment_norm": 5.31957674632, 
			 "total_energy": -652.893142226, 
			 "HOMO_LUMO_gap": 0.19673, 
			 "cosmo_polarized_energy": -15.03, 
			 "cosmo_cavitation_energy": 35.07, 
			 "cosmo_dispersion_energy": -23.82, 
			 "cosmo_repulsion_energy": 1.9, 
			 "cosmo_total_nonelectrostatic_energy": 13.15, 
			 "SMD_solvation_energy": 6.1 
		},
		"coords": [
			{
				"x": 2.9529988822,
				"y": 0.870508309,
				"z": -2.4220782049,
				"element": "C" 
			},
			{
				"x": 2.8573681457,
				"y": 0.2224410735,
				"z": -1.0278170532,
				"element": "C" 
			},
			{
				"x": 3.7972951579,
				"y": -0.9945464542,
				"z": -0.9346358465,
				"element": "C" 
			},
			{
				"x": 3.2187301225,
				"y": 1.2502020069,
				"z": 0.0556755035,
				"element": "C" 
			},
			{
				"x": 1.4634049589,
				"y": -0.1956787601,
				"z": -0.7607665403,
				"element": "N" 
			},
			{
				"x": 0.7539793423,
				"y": -1.0980983625,
				"z": -1.4886350696,
				"element": "C" 
			},
			{
				"x": 1.1874376933,
				"y": -1.6875309791,
				"z": -2.4755728187,
				"element": "O" 
			},
			{
				"x": -0.6901432637,
				"y": -1.3687242408,
				"z": -1.010521259,
				"element": "C" 
			},
			{
				"x": -1.1824300589,
				"y": -0.6456016683,
				"z": 0.2208690417,
				"element": "C" 
			},
			{
				"x": -1.8146104235,
				"y": 0.6040723357,
				"z": 0.1310388957,
				"element": "C" 
			},
			{
				"x": -2.2553227068,
				"y": 1.2840907626,
				"z": 1.2629359778,
				"element": "C" 
			},
			{
				"x": -2.078701953,
				"y": 0.7316867357,
				"z": 2.5435009335,
				"element": "C" 
			},
			{
				"x": -2.573875546,
				"y": 1.3771906543,
				"z": 3.6765805905,
				"element": "N" 
			},
			{
				"x": -1.4443408915,
				"y": -0.5188812091,
				"z": 2.6447924924,
				"element": "C" 
			},
			{
				"x": -1.0088572283,
				"y": -1.1869496773,
				"z": 1.5040329626,
				"element": "C" 
			},
			{
				"x": 2.3007488102,
				"y": 1.7480823637,
				"z": -2.4836411805,
				"element": "H" 
			},
			{
				"x": 2.6521083357,
				"y": 0.1569134711,
				"z": -3.1908139367,
				"element": "H" 
			},
			{
				"x": 3.9809153401,
				"y": 1.192648556,
				"z": -2.620079911,
				"element": "H" 
			},
			{
				"x": 3.5137520906,
				"y": -1.7470141704,
				"z": -1.6722965075,
				"element": "H" 
			},
			{
				"x": 3.7461103159,
				"y": -1.4443273259,
				"z": 0.0625839852,
				"element": "H" 
			},
			{
				"x": 4.8324691628,
				"y": -0.6885864643,
				"z": -1.1201129526,
				"element": "H" 
			},
			{
				"x": 2.5548843803,
				"y": 2.1212433165,
				"z": 0.0116615239,
				"element": "H" 
			},
			{
				"x": 4.2445534119,
				"y": 1.6021999657,
				"z": -0.0851273193,
				"element": "H" 
			},
			{
				"x": 3.1482427643,
				"y": 0.8103787598,
				"z": 1.0571459632,
				"element": "H" 
			},
			{
				"x": 0.9927093983,
				"y": 0.2184607246,
				"z": 0.0313897595,
				"element": "H" 
			},
			{
				"x": -0.7500793977,
				"y": -2.4539389359,
				"z": -0.8736354024,
				"element": "H" 
			},
			{
				"x": -1.3273401239,
				"y": -1.1433765818,
				"z": -1.8728724113,
				"element": "H" 
			},
			{
				"x": -1.9695002319,
				"y": 1.0533798968,
				"z": -0.8472642661,
				"element": "H" 
			},
			{
				"x": -2.7516638012,
				"y": 2.2459524074,
				"z": 1.1582577934,
				"element": "H" 
			},
			{
				"x": -2.1313599818,
				"y": 1.1234006483,
				"z": 4.5488182906,
				"element": "H" 
			},
			{
				"x": -2.6952092797,
				"y": 2.3764722309,
				"z": 3.5886231135,
				"element": "H" 
			},
			{
				"x": -1.3045966736,
				"y": -0.9707805671,
				"z": 3.6239577171,
				"element": "H" 
			},
			{
				"x": -0.5254767514,
				"y": -2.1551888216,
				"z": 1.6125061354,
				"element": "H" 
			}
		],
		 "valence_orbital": [ 
			{
				"type": "occ",
				"energy": -0.31055,
				"method": "rhf"
			},
			{
				"type": "occ",
				"energy": -0.25432,
				"method": "rhf"
			},
			{
				"type": "occ",
				"energy": -0.23923,
				"method": "rhf"
			},
			{
				"type": "occ",
				"energy": -0.23577,
				"method": "rhf"
			},
			{
				"type": "occ",
				"energy": -0.20199,
				"method": "rhf"
			},
			{
				"type": "unocc",
				"energy": -0.00526,
				"method": "rhf"
			},
			{
				"type": "unocc",
				"energy": 0.00807,
				"method": "rhf"
			},
			{
				"type": "unocc",
				"energy": 0.04326,
				"method": "rhf"
			},
			{
				"type": "unocc",
				"energy": 0.07519,
				"method": "rhf"
			},
			{
				"type": "unocc",
				"energy": 0.08415,
				"method": "rhf"
			}
		],
		"cosmo_sigma_profile": { 
			"-0.025": 0.0,
			"-0.024": 0.0,
			"-0.023": 0.0,
			"-0.022": 0.0,
			"-0.021": 0.0,
			"-0.02": 0.0,
			"-0.019": 0.0,
			"-0.018": 0.0,
			"-0.017": 0.0,
			"-0.016": 0.0,
			"-0.015": 0.0,
			"-0.014": 0.0,
			"-0.013": 0.204013139592,
			"-0.012": 2.27729035864,
			"-0.011": 2.68072338402,
			"-0.01": 3.01799778643,
			"-0.009": 3.03147577576,
			"-0.008": 3.53147645657,
			"-0.007": 4.36282741037,
			"-0.006": 6.23195139294,
			"-0.005": 16.305775889,
			"-0.004": 17.9515390031,
			"-0.003": 29.4319833729,
			"-0.002": 24.4622882801,
			"-0.001": 24.1178697892,
			"0.0": 26.9022790279,
			"0.001": 27.8564031079,
			"0.002": 16.0869479995,
			"0.003": 10.5932909706,
			"0.004": 9.45954417507,
			"0.005": 9.89005311612,
			"0.006": 8.6644481479,
			"0.007": 5.71930354188,
			"0.008": 2.79833769916,
			"0.009": 2.04793895244,
			"0.01": 2.3970509802,
			"0.011": 1.61161742861,
			"0.012": 2.66054337005,
			"0.013": 2.45322015595,
			"0.014": 3.52559379967,
			"0.015": 3.05946562192,
			"0.016": 0.756509070473,
			"0.017": 0.0,
			"0.018": 0.0,
			"0.019": 0.0,
			"0.02": 0.0,
			"0.021": 0.0,
			"0.022": 0.0,
			"0.023": 0.0,
			"0.024": 0.0,
			"0.025": 0.0
		}
	}
}
