{
	 "smiles": "OC1=CC(F)=C(F)C=C1C=O", 
	 "Tm": 343.15, 
	 "num_atms": 15, 
	 "gaussian": { 
		 "optdone": 1, 
		 "sigma_profile": "yes", 
		 "theory": "DFT", 
		 "functional": "B3LYP", 
		 "basiset": "6-31G**", 
		 "properties": { 
			 "R2extent": 2815.4005, 
			 "electric_dipole_moment_norm": 4.3859644481, 
			 "electric_quadrupole_moment_norm": 15.6799763294, 
			 "total_energy": -619.247269972, 
			 "HOMO_LUMO_gap": 0.17547, 
			 "cosmo_polarized_energy": -12.09, 
			 "cosmo_cavitation_energy": 21.31, 
			 "cosmo_dispersion_energy": -15.39, 
			 "cosmo_repulsion_energy": 1.18, 
			 "cosmo_total_nonelectrostatic_energy": 7.1, 
			 "SMD_solvation_energy": 6.2 
		},
		"coords": [
			{
				"x": 1.0993696809,
				"y": 3.2576131262,
				"z": -0.0483430997,
				"element": "O" 
			},
			{
				"x": 0.1321499599,
				"y": 2.3472353879,
				"z": 0.2476628079,
				"element": "C" 
			},
			{
				"x": -0.5180723248,
				"y": 1.6098340556,
				"z": -0.7488258181,
				"element": "C" 
			},
			{
				"x": -1.4965745833,
				"y": 0.6954070184,
				"z": -0.3871866986,
				"element": "C" 
			},
			{
				"x": -2.1240130178,
				"y": -0.0144841368,
				"z": -1.3329050853,
				"element": "F" 
			},
			{
				"x": -1.8440234933,
				"y": 0.4979168449,
				"z": 0.9535796568,
				"element": "C" 
			},
			{
				"x": -2.7987633347,
				"y": -0.4000361816,
				"z": 1.2511424496,
				"element": "F" 
			},
			{
				"x": -1.2038692837,
				"y": 1.2239492689,
				"z": 1.935758023,
				"element": "C" 
			},
			{
				"x": -0.2085780396,
				"y": 2.1576672554,
				"z": 1.602414095,
				"element": "C" 
			},
			{
				"x": 0.4533202481,
				"y": 2.9155755907,
				"z": 2.6871301311,
				"element": "C" 
			},
			{
				"x": 0.1787413955,
				"y": 2.7737299187,
				"z": 3.8661047734,
				"element": "O" 
			},
			{
				"x": 1.2365437845,
				"y": 3.290977065,
				"z": -1.0038539945,
				"element": "H" 
			},
			{
				"x": -0.2785433074,
				"y": 1.7326006251,
				"z": -1.8007889902,
				"element": "H" 
			},
			{
				"x": -1.4576078836,
				"y": 1.0866588044,
				"z": 2.9816308348,
				"element": "H" 
			},
			{
				"x": 1.2267201996,
				"y": 3.6358553572,
				"z": 2.3618809147,
				"element": "H" 
			}
		],
		 "valence_orbital": [ 
			{
				"type": "occ",
				"energy": -0.37572,
				"method": "rhf"
			},
			{
				"type": "occ",
				"energy": -0.34103,
				"method": "rhf"
			},
			{
				"type": "occ",
				"energy": -0.27559,
				"method": "rhf"
			},
			{
				"type": "occ",
				"energy": -0.25626,
				"method": "rhf"
			},
			{
				"type": "occ",
				"energy": -0.24367,
				"method": "rhf"
			},
			{
				"type": "unocc",
				"energy": -0.0682,
				"method": "rhf"
			},
			{
				"type": "unocc",
				"energy": -0.01509,
				"method": "rhf"
			},
			{
				"type": "unocc",
				"energy": 0.03616,
				"method": "rhf"
			},
			{
				"type": "unocc",
				"energy": 0.04119,
				"method": "rhf"
			},
			{
				"type": "unocc",
				"energy": 0.06441,
				"method": "rhf"
			}
		],
		"cosmo_sigma_profile": { 
			"-0.025": 0.0,
			"-0.024": 0.0,
			"-0.023": 0.0,
			"-0.022": 0.0,
			"-0.021": 0.0,
			"-0.02": 0.0317858410598,
			"-0.019": 1.02183326969,
			"-0.018": 1.22416898464,
			"-0.017": 1.45875390047,
			"-0.016": 1.0876987198,
			"-0.015": 1.33720858636,
			"-0.014": 0.661748178237,
			"-0.013": 1.03183363229,
			"-0.012": 1.21917997789,
			"-0.011": 0.925951679949,
			"-0.01": 1.60714269162,
			"-0.009": 1.51201163006,
			"-0.008": 2.04352849533,
			"-0.007": 2.96440621767,
			"-0.006": 4.02114031193,
			"-0.005": 5.34935022894,
			"-0.004": 4.97107724004,
			"-0.003": 8.42709316444,
			"-0.002": 11.3312372785,
			"-0.001": 17.2407163711,
			"0.0": 21.758594649,
			"0.001": 13.8764654762,
			"0.002": 10.0789348222,
			"0.003": 20.5411336298,
			"0.004": 12.1003298376,
			"0.005": 2.83452326381,
			"0.006": 2.61319938471,
			"0.007": 3.29558009566,
			"0.008": 2.76042794748,
			"0.009": 2.44884911047,
			"0.01": 2.42115399929,
			"0.011": 4.13515129563,
			"0.012": 2.63278170998,
			"0.013": 0.839193709024,
			"0.014": 0.0,
			"0.015": 0.0,
			"0.016": 0.0,
			"0.017": 0.0,
			"0.018": 0.0,
			"0.019": 0.0,
			"0.02": 0.0,
			"0.021": 0.0,
			"0.022": 0.0,
			"0.023": 0.0,
			"0.024": 0.0,
			"0.025": 0.0
		}
	}
}
