{
	 "smiles": "[O-][N+](=O)C1=CC=C(C=C1)N=C=S", 
	 "Tm": 383.15, 
	 "num_atms": 16, 
	 "gaussian": { 
		 "optdone": 1, 
		 "sigma_profile": "yes", 
		 "theory": "DFT", 
		 "functional": "B3LYP", 
		 "basiset": "6-31G**", 
		 "properties": { 
			 "R2extent": 3905.2566, 
			 "electric_dipole_moment_norm": 1.65876491402, 
			 "electric_quadrupole_moment_norm": 20.389673019, 
			 "total_energy": -927.185299285, 
			 "HOMO_LUMO_gap": 0.14812, 
			 "cosmo_polarized_energy": -9.41, 
			 "cosmo_cavitation_energy": 24.99, 
			 "cosmo_dispersion_energy": -18.63, 
			 "cosmo_repulsion_energy": 1.45, 
			 "cosmo_total_nonelectrostatic_energy": 7.81, 
			 "SMD_solvation_energy": 7.23 
		},
		"coords": [
			{
				"x": -0.8760159307,
				"y": 1.264939734,
				"z": 3.1612105955,
				"element": "O" 
			},
			{
				"x": -1.2039343153,
				"y": 0.4448591224,
				"z": 2.3042376188,
				"element": "N" 
			},
			{
				"x": -2.1611436216,
				"y": -0.3233831742,
				"z": 2.3938239279,
				"element": "O" 
			},
			{
				"x": -0.3895698304,
				"y": 0.375790546,
				"z": 1.0833406403,
				"element": "C" 
			},
			{
				"x": 0.703573212,
				"y": 1.2319108392,
				"z": 0.9505364632,
				"element": "C" 
			},
			{
				"x": 1.4738327547,
				"y": 1.1680822772,
				"z": -0.2025170107,
				"element": "C" 
			},
			{
				"x": 1.1419773375,
				"y": 0.2462628188,
				"z": -1.2137257037,
				"element": "C" 
			},
			{
				"x": 0.0347026254,
				"y": -0.6100326364,
				"z": -1.0617073229,
				"element": "C" 
			},
			{
				"x": -0.7335062166,
				"y": -0.5437363849,
				"z": 0.0925706957,
				"element": "C" 
			},
			{
				"x": 1.8987234356,
				"y": 0.1817781109,
				"z": -2.3493690132,
				"element": "N" 
			},
			{
				"x": 2.5555606078,
				"y": 0.1277722019,
				"z": -3.3393107658,
				"element": "C" 
			},
			{
				"x": 3.4393988366,
				"y": 0.0468720583,
				"z": -4.6569619931,
				"element": "S" 
			},
			{
				"x": 0.9318684287,
				"y": 1.9294304147,
				"z": 1.7465164216,
				"element": "H" 
			},
			{
				"x": 2.3296378277,
				"y": 1.8199038437,
				"z": -0.3361826651,
				"element": "H" 
			},
			{
				"x": -0.2064916126,
				"y": -1.3136339748,
				"z": -1.8503195712,
				"element": "H" 
			},
			{
				"x": -1.5911135388,
				"y": -1.187915797,
				"z": 0.2401576827,
				"element": "H" 
			}
		],
		 "valence_orbital": [ 
			{
				"type": "occ",
				"energy": -0.31688,
				"method": "rhf"
			},
			{
				"type": "occ",
				"energy": -0.30062,
				"method": "rhf"
			},
			{
				"type": "occ",
				"energy": -0.29819,
				"method": "rhf"
			},
			{
				"type": "occ",
				"energy": -0.2705,
				"method": "rhf"
			},
			{
				"type": "occ",
				"energy": -0.2548,
				"method": "rhf"
			},
			{
				"type": "unocc",
				"energy": -0.10668,
				"method": "rhf"
			},
			{
				"type": "unocc",
				"energy": -0.04583,
				"method": "rhf"
			},
			{
				"type": "unocc",
				"energy": -0.04334,
				"method": "rhf"
			},
			{
				"type": "unocc",
				"energy": -0.01469,
				"method": "rhf"
			},
			{
				"type": "unocc",
				"energy": 0.0346,
				"method": "rhf"
			}
		],
		"cosmo_sigma_profile": { 
			"-0.025": 0.0,
			"-0.024": 0.0,
			"-0.023": 0.0,
			"-0.022": 0.0,
			"-0.021": 0.0,
			"-0.02": 0.0,
			"-0.019": 0.0,
			"-0.018": 0.0,
			"-0.017": 0.0,
			"-0.016": 0.0,
			"-0.015": 0.0,
			"-0.014": 0.0,
			"-0.013": 0.0,
			"-0.012": 0.0,
			"-0.011": 0.0,
			"-0.01": 0.0,
			"-0.009": 2.47143009811,
			"-0.008": 7.81828311489,
			"-0.007": 9.2181035867,
			"-0.006": 8.06470804848,
			"-0.005": 8.88028483593,
			"-0.004": 9.45645150256,
			"-0.003": 13.6308080052,
			"-0.002": 22.1788311329,
			"-0.001": 21.6142326834,
			"0.0": 20.5153963654,
			"0.001": 12.0520306531,
			"0.002": 7.92195779944,
			"0.003": 7.60779827561,
			"0.004": 10.8676754689,
			"0.005": 15.7633055542,
			"0.006": 6.54657531858,
			"0.007": 7.91064448996,
			"0.008": 6.99916728839,
			"0.009": 4.32297889155,
			"0.01": 2.25611739673,
			"0.011": 0.0651369181111,
			"0.012": 0.0,
			"0.013": 0.0,
			"0.014": 0.0,
			"0.015": 0.0,
			"0.016": 0.0,
			"0.017": 0.0,
			"0.018": 0.0,
			"0.019": 0.0,
			"0.02": 0.0,
			"0.021": 0.0,
			"0.022": 0.0,
			"0.023": 0.0,
			"0.024": 0.0,
			"0.025": 0.0
		}
	}
}
