{
	 "smiles": "N#CC1=CC=C(CN2C=NC=N2)C=C1", 
	 "Tm": 343.65, 
	 "num_atms": 22, 
	 "gaussian": { 
		 "optdone": 1, 
		 "sigma_profile": "yes", 
		 "theory": "DFT", 
		 "functional": "B3LYP", 
		 "basiset": "6-31G**", 
		 "properties": { 
			 "R2extent": 3807.8009, 
			 "electric_dipole_moment_norm": 4.18450482017, 
			 "electric_quadrupole_moment_norm": 21.388843591, 
			 "total_energy": -604.856332409, 
			 "HOMO_LUMO_gap": 0.20703, 
			 "cosmo_polarized_energy": -16.94, 
			 "cosmo_cavitation_energy": 28.21, 
			 "cosmo_dispersion_energy": -19.65, 
			 "cosmo_repulsion_energy": 1.53, 
			 "cosmo_total_nonelectrostatic_energy": 10.09, 
			 "SMD_solvation_energy": 4.35 
		},
		"coords": [
			{
				"x": 1.240694026,
				"y": 3.1957990651,
				"z": 3.9930457369,
				"element": "N" 
			},
			{
				"x": 1.1239259431,
				"y": 2.3848876235,
				"z": 3.1673070532,
				"element": "C" 
			},
			{
				"x": 0.9810482991,
				"y": 1.3858344277,
				"z": 2.1480811568,
				"element": "C" 
			},
			{
				"x": 1.078467211,
				"y": 1.7432509483,
				"z": 0.794516424,
				"element": "C" 
			},
			{
				"x": 0.9349090382,
				"y": 0.767375605,
				"z": -0.1885207677,
				"element": "C" 
			},
			{
				"x": 0.7006095063,
				"y": -0.5682501116,
				"z": 0.1564125156,
				"element": "C" 
			},
			{
				"x": 0.5845255316,
				"y": -1.6248184584,
				"z": -0.9289030394,
				"element": "C" 
			},
			{
				"x": -0.579275389,
				"y": -2.4911746496,
				"z": -0.7876560657,
				"element": "N" 
			},
			{
				"x": -1.8220552113,
				"y": -2.3621358846,
				"z": -1.3080798746,
				"element": "C" 
			},
			{
				"x": -2.6053984484,
				"y": -3.3398879097,
				"z": -0.8862873183,
				"element": "N" 
			},
			{
				"x": -1.7734951697,
				"y": -4.0554807304,
				"z": -0.0797357878,
				"element": "C" 
			},
			{
				"x": -0.5361359314,
				"y": -3.5872876451,
				"z": 0.0167753061,
				"element": "N" 
			},
			{
				"x": 0.6065739008,
				"y": -0.9203668992,
				"z": 1.5104463184,
				"element": "C" 
			},
			{
				"x": 0.7419170728,
				"y": 0.0457967148,
				"z": 2.5008256698,
				"element": "C" 
			},
			{
				"x": 1.2589227528,
				"y": 2.7777056768,
				"z": 0.5225795309,
				"element": "H" 
			},
			{
				"x": 1.0069264544,
				"y": 1.051499907,
				"z": -1.2350969545,
				"element": "H" 
			},
			{
				"x": 1.4597318079,
				"y": -2.2813059468,
				"z": -0.9219499388,
				"element": "H" 
			},
			{
				"x": 0.5316323181,
				"y": -1.1522282898,
				"z": -1.9133663841,
				"element": "H" 
			},
			{
				"x": -2.0990911358,
				"y": -1.5617991579,
				"z": -1.9807603591,
				"element": "H" 
			},
			{
				"x": -2.0821358478,
				"y": -4.9493017932,
				"z": 0.4447361355,
				"element": "H" 
			},
			{
				"x": 0.4197419484,
				"y": -1.9551075533,
				"z": 1.779854259,
				"element": "H" 
			},
			{
				"x": 0.6669613229,
				"y": -0.2270049385,
				"z": 3.5480763841,
				"element": "H" 
			}
		],
		 "valence_orbital": [ 
			{
				"type": "occ",
				"energy": -0.29959,
				"method": "rhf"
			},
			{
				"type": "occ",
				"energy": -0.28549,
				"method": "rhf"
			},
			{
				"type": "occ",
				"energy": -0.28402,
				"method": "rhf"
			},
			{
				"type": "occ",
				"energy": -0.27693,
				"method": "rhf"
			},
			{
				"type": "occ",
				"energy": -0.26907,
				"method": "rhf"
			},
			{
				"type": "unocc",
				"energy": -0.06204,
				"method": "rhf"
			},
			{
				"type": "unocc",
				"energy": -0.03418,
				"method": "rhf"
			},
			{
				"type": "unocc",
				"energy": -0.00569,
				"method": "rhf"
			},
			{
				"type": "unocc",
				"energy": 0.03162,
				"method": "rhf"
			},
			{
				"type": "unocc",
				"energy": 0.04263,
				"method": "rhf"
			}
		],
		"cosmo_sigma_profile": { 
			"-0.025": 0.0,
			"-0.024": 0.0,
			"-0.023": 0.0,
			"-0.022": 0.0,
			"-0.021": 0.0,
			"-0.02": 0.0,
			"-0.019": 0.0,
			"-0.018": 0.0,
			"-0.017": 0.0,
			"-0.016": 0.0,
			"-0.015": 0.0,
			"-0.014": 0.0,
			"-0.013": 0.0,
			"-0.012": 0.0,
			"-0.011": 0.98208591382,
			"-0.01": 3.61591908706,
			"-0.009": 5.55914552267,
			"-0.008": 11.3388613789,
			"-0.007": 13.2574850442,
			"-0.006": 14.7977525086,
			"-0.005": 12.6085626084,
			"-0.004": 12.3235214002,
			"-0.003": 11.3371950952,
			"-0.002": 11.5021955045,
			"-0.001": 17.0905150657,
			"0.0": 16.1766828206,
			"0.001": 15.571360409,
			"0.002": 19.7427379837,
			"0.003": 8.55170887765,
			"0.004": 5.74679248829,
			"0.005": 5.15417620983,
			"0.006": 4.78719652449,
			"0.007": 5.69206745743,
			"0.008": 5.15872538016,
			"0.009": 5.71601719886,
			"0.01": 4.87316442686,
			"0.011": 5.62374914767,
			"0.012": 3.87670670177,
			"0.013": 3.47051473812,
			"0.014": 1.44023358634,
			"0.015": 1.25485079092,
			"0.016": 1.01234563044,
			"0.017": 0.221676527549,
			"0.018": 0.0,
			"0.019": 0.0,
			"0.02": 0.0,
			"0.021": 0.0,
			"0.022": 0.0,
			"0.023": 0.0,
			"0.024": 0.0,
			"0.025": 0.0
		}
	}
}
