{
	 "smiles": "COC1=C(C=CC=N1)[N+]([O-])=O", 
	 "Tm": 327.15, 
	 "num_atms": 17, 
	 "gaussian": { 
		 "optdone": 1, 
		 "sigma_profile": "yes", 
		 "theory": "DFT", 
		 "functional": "B3LYP", 
		 "basiset": "6-31G**", 
		 "properties": { 
			 "R2extent": 1848.6335, 
			 "electric_dipole_moment_norm": 4.48223092779, 
			 "electric_quadrupole_moment_norm": 9.15009422028, 
			 "total_energy": -567.308874334, 
			 "HOMO_LUMO_gap": 0.17094, 
			 "cosmo_polarized_energy": -10.49, 
			 "cosmo_cavitation_energy": 22.15, 
			 "cosmo_dispersion_energy": -16.49, 
			 "cosmo_repulsion_energy": 1.33, 
			 "cosmo_total_nonelectrostatic_energy": 7.0, 
			 "SMD_solvation_energy": 6.31 
		},
		"coords": [
			{
				"x": 2.1350011911,
				"y": 1.0808629392,
				"z": 1.4527629225,
				"element": "C" 
			},
			{
				"x": 1.0040578655,
				"y": 0.8238631979,
				"z": 0.6058839093,
				"element": "O" 
			},
			{
				"x": -0.0081776263,
				"y": 0.1285990782,
				"z": 1.1248138508,
				"element": "C" 
			},
			{
				"x": -1.1408207158,
				"y": -0.1862149171,
				"z": 0.3270488355,
				"element": "C" 
			},
			{
				"x": -2.1625310534,
				"y": -0.9491798439,
				"z": 0.8825573371,
				"element": "C" 
			},
			{
				"x": -2.063710161,
				"y": -1.3684294657,
				"z": 2.2057961855,
				"element": "C" 
			},
			{
				"x": -0.9216737256,
				"y": -1.0015483532,
				"z": 2.9136357928,
				"element": "C" 
			},
			{
				"x": 0.076549049,
				"y": -0.2828931749,
				"z": 2.3906307232,
				"element": "N" 
			},
			{
				"x": -1.3007158852,
				"y": 0.2524956469,
				"z": -1.0641264475,
				"element": "N" 
			},
			{
				"x": -2.191312878,
				"y": -0.2957460393,
				"z": -1.7204750358,
				"element": "O" 
			},
			{
				"x": -0.563823333,
				"y": 1.1361001894,
				"z": -1.4896008161,
				"element": "O" 
			},
			{
				"x": 2.5959214715,
				"y": 0.1472652236,
				"z": 1.7846291006,
				"element": "H" 
			},
			{
				"x": 2.8240891187,
				"y": 1.6500959684,
				"z": 0.8292747198,
				"element": "H" 
			},
			{
				"x": 1.8408876,
				"y": 1.6607909233,
				"z": 2.3308417995,
				"element": "H" 
			},
			{
				"x": -3.0137707328,
				"y": -1.1941197399,
				"z": 0.2592179628,
				"element": "H" 
			},
			{
				"x": -2.8456860061,
				"y": -1.9570125214,
				"z": 2.6713870762,
				"element": "H" 
			},
			{
				"x": -0.7950841784,
				"y": -1.2980291117,
				"z": 3.9531220837,
				"element": "H" 
			}
		],
		 "valence_orbital": [ 
			{
				"type": "occ",
				"energy": -0.30858,
				"method": "rhf"
			},
			{
				"type": "occ",
				"energy": -0.30322,
				"method": "rhf"
			},
			{
				"type": "occ",
				"energy": -0.28588,
				"method": "rhf"
			},
			{
				"type": "occ",
				"energy": -0.28195,
				"method": "rhf"
			},
			{
				"type": "occ",
				"energy": -0.25883,
				"method": "rhf"
			},
			{
				"type": "unocc",
				"energy": -0.08789,
				"method": "rhf"
			},
			{
				"type": "unocc",
				"energy": -0.03126,
				"method": "rhf"
			},
			{
				"type": "unocc",
				"energy": -0.00725,
				"method": "rhf"
			},
			{
				"type": "unocc",
				"energy": 0.08275,
				"method": "rhf"
			},
			{
				"type": "unocc",
				"energy": 0.10668,
				"method": "rhf"
			}
		],
		"cosmo_sigma_profile": { 
			"-0.025": 0.0,
			"-0.024": 0.0,
			"-0.023": 0.0,
			"-0.022": 0.0,
			"-0.021": 0.0,
			"-0.02": 0.0,
			"-0.019": 0.0,
			"-0.018": 0.0,
			"-0.017": 0.0,
			"-0.016": 0.0,
			"-0.015": 0.0,
			"-0.014": 0.0,
			"-0.013": 0.0,
			"-0.012": 0.0,
			"-0.011": 0.0,
			"-0.01": 0.0,
			"-0.009": 0.341401739335,
			"-0.008": 4.44622268219,
			"-0.007": 8.3726848886,
			"-0.006": 12.0979722803,
			"-0.005": 13.5640296483,
			"-0.004": 14.2756382068,
			"-0.003": 17.716023003,
			"-0.002": 14.8705677131,
			"-0.001": 12.6628559261,
			"0.0": 13.2145583221,
			"0.001": 9.0544780318,
			"0.002": 5.34779191281,
			"0.003": 4.98870969298,
			"0.004": 3.7782997327,
			"0.005": 4.28927288564,
			"0.006": 5.48384445314,
			"0.007": 6.36837847872,
			"0.008": 10.6492353564,
			"0.009": 7.90100071456,
			"0.01": 5.03620964957,
			"0.011": 2.33774572973,
			"0.012": 0.939763922373,
			"0.013": 0.0378165038527,
			"0.014": 0.0,
			"0.015": 0.0,
			"0.016": 0.0,
			"0.017": 0.0,
			"0.018": 0.0,
			"0.019": 0.0,
			"0.02": 0.0,
			"0.021": 0.0,
			"0.022": 0.0,
			"0.023": 0.0,
			"0.024": 0.0,
			"0.025": 0.0
		}
	}
}
