{
	 "smiles": "CCO[P@](=S)(N[C@H](C)CC)OC1=C(C=CC(C)=C1)[N+]([O-])=O", 
	 "Tm": 298.15, 
	 "num_atms": 42, 
	 "gaussian": { 
		 "optdone": 1, 
		 "sigma_profile": "yes", 
		 "theory": "DFT", 
		 "functional": "B3LYP", 
		 "basiset": "6-31G**", 
		 "properties": { 
			 "R2extent": 7752.6758, 
			 "electric_dipole_moment_norm": 2.25610028811, 
			 "electric_quadrupole_moment_norm": 24.8979765561, 
			 "total_energy": -1657.96452116, 
			 "HOMO_LUMO_gap": 0.14036, 
			 "cosmo_polarized_energy": -12.79, 
			 "cosmo_cavitation_energy": 47.9, 
			 "cosmo_dispersion_energy": -30.96, 
			 "cosmo_repulsion_energy": 2.39, 
			 "cosmo_total_nonelectrostatic_energy": 19.34, 
			 "SMD_solvation_energy": 9.73 
		},
		"coords": [
			{
				"x": -2.2026146508,
				"y": -1.9699104884,
				"z": -4.2529123937,
				"element": "C" 
			},
			{
				"x": -1.9429289398,
				"y": -1.8839662829,
				"z": -2.7609815554,
				"element": "C" 
			},
			{
				"x": -1.1165119509,
				"y": -0.7155969906,
				"z": -2.5234731066,
				"element": "O" 
			},
			{
				"x": -0.7694512141,
				"y": -0.2140430393,
				"z": -1.0267818637,
				"element": "P" 
			},
			{
				"x": -2.2959483541,
				"y": 0.0239066663,
				"z": 0.1578328782,
				"element": "S" 
			},
			{
				"x": 0.2512197449,
				"y": 1.0655947834,
				"z": -1.1862732341,
				"element": "N" 
			},
			{
				"x": -0.1501155367,
				"y": 2.4839077589,
				"z": -1.2518211406,
				"element": "C" 
			},
			{
				"x": -0.3987107679,
				"y": 2.930860538,
				"z": -2.6994284832,
				"element": "C" 
			},
			{
				"x": 0.8798407923,
				"y": 3.3534942945,
				"z": -0.5037781736,
				"element": "C" 
			},
			{
				"x": 2.3020207241,
				"y": 3.3413106231,
				"z": -1.0783558284,
				"element": "C" 
			},
			{
				"x": 0.2981167274,
				"y": -1.4369853544,
				"z": -0.6501407106,
				"element": "O" 
			},
			{
				"x": 1.0807799209,
				"y": -1.4572891313,
				"z": 0.4761188633,
				"element": "C" 
			},
			{
				"x": 2.4849243995,
				"y": -1.4278889641,
				"z": 0.3755782051,
				"element": "C" 
			},
			{
				"x": 3.2761987987,
				"y": -1.5890930818,
				"z": 1.5159560495,
				"element": "C" 
			},
			{
				"x": 2.6819179925,
				"y": -1.7397051439,
				"z": 2.760825242,
				"element": "C" 
			},
			{
				"x": 1.2846217479,
				"y": -1.767786047,
				"z": 2.8866099955,
				"element": "C" 
			},
			{
				"x": 0.6274089225,
				"y": -1.9698864339,
				"z": 4.2292922746,
				"element": "C" 
			},
			{
				"x": 0.5031611312,
				"y": -1.6413580375,
				"z": 1.7329966726,
				"element": "C" 
			},
			{
				"x": 3.1876549108,
				"y": -1.2437886289,
				"z": -0.8947522982,
				"element": "N" 
			},
			{
				"x": 4.299368853,
				"y": -1.7579828461,
				"z": -0.9999271767,
				"element": "O" 
			},
			{
				"x": 2.6585489622,
				"y": -0.5707542728,
				"z": -1.7865921679,
				"element": "O" 
			},
			{
				"x": -2.8191599585,
				"y": -2.8478632434,
				"z": -4.4708921043,
				"element": "H" 
			},
			{
				"x": -2.7312878362,
				"y": -1.0797993081,
				"z": -4.6051690565,
				"element": "H" 
			},
			{
				"x": -1.2641870636,
				"y": -2.0591055488,
				"z": -4.8071152454,
				"element": "H" 
			},
			{
				"x": -2.8734243361,
				"y": -1.7775071158,
				"z": -2.1937139993,
				"element": "H" 
			},
			{
				"x": -1.4072817093,
				"y": -2.7671114052,
				"z": -2.3960966699,
				"element": "H" 
			},
			{
				"x": 1.1362286762,
				"y": 0.8143168172,
				"z": -1.622158102,
				"element": "H" 
			},
			{
				"x": -1.093767495,
				"y": 2.5516478654,
				"z": -0.7009958046,
				"element": "H" 
			},
			{
				"x": 0.5013746645,
				"y": 2.8247428979,
				"z": -3.3136987496,
				"element": "H" 
			},
			{
				"x": -1.1856491467,
				"y": 2.3237245102,
				"z": -3.1554137983,
				"element": "H" 
			},
			{
				"x": -0.7097584937,
				"y": 3.9807042702,
				"z": -2.7322716523,
				"element": "H" 
			},
			{
				"x": 0.500974489,
				"y": 4.3833973113,
				"z": -0.494083779,
				"element": "H" 
			},
			{
				"x": 0.9058390483,
				"y": 3.0183724139,
				"z": 0.5393751444,
				"element": "H" 
			},
			{
				"x": 2.3362255887,
				"y": 3.727362698,
				"z": -2.1020911769,
				"element": "H" 
			},
			{
				"x": 2.9632084265,
				"y": 3.9678791561,
				"z": -0.4714904135,
				"element": "H" 
			},
			{
				"x": 2.7314502569,
				"y": 2.3334852835,
				"z": -1.0861662658,
				"element": "H" 
			},
			{
				"x": 4.3531594424,
				"y": -1.5821608678,
				"z": 1.4007270006,
				"element": "H" 
			},
			{
				"x": 3.3066930399,
				"y": -1.8410191892,
				"z": 3.643020316,
				"element": "H" 
			},
			{
				"x": 0.3507578222,
				"y": -3.0218283912,
				"z": 4.3710597759,
				"element": "H" 
			},
			{
				"x": -0.2885325646,
				"y": -1.3786875741,
				"z": 4.3163656625,
				"element": "H" 
			},
			{
				"x": 1.2973077946,
				"y": -1.692498633,
				"z": 5.0474593111,
				"element": "H" 
			},
			{
				"x": -0.5788728592,
				"y": -1.6785918686,
				"z": 1.7904575591,
				"element": "H" 
			}
		],
		 "valence_orbital": [ 
			{
				"type": "occ",
				"energy": -0.27264,
				"method": "rhf"
			},
			{
				"type": "occ",
				"energy": -0.2694,
				"method": "rhf"
			},
			{
				"type": "occ",
				"energy": -0.26389,
				"method": "rhf"
			},
			{
				"type": "occ",
				"energy": -0.23946,
				"method": "rhf"
			},
			{
				"type": "occ",
				"energy": -0.23232,
				"method": "rhf"
			},
			{
				"type": "unocc",
				"energy": -0.09196,
				"method": "rhf"
			},
			{
				"type": "unocc",
				"energy": -0.02604,
				"method": "rhf"
			},
			{
				"type": "unocc",
				"energy": -0.00949,
				"method": "rhf"
			},
			{
				"type": "unocc",
				"energy": 0.04077,
				"method": "rhf"
			},
			{
				"type": "unocc",
				"energy": 0.04798,
				"method": "rhf"
			}
		],
		"cosmo_sigma_profile": { 
			"-0.025": 0.0,
			"-0.024": 0.0,
			"-0.023": 0.0,
			"-0.022": 0.0,
			"-0.021": 0.0,
			"-0.02": 0.0,
			"-0.019": 0.0,
			"-0.018": 0.0,
			"-0.017": 0.0,
			"-0.016": 0.0,
			"-0.015": 0.0,
			"-0.014": 0.0,
			"-0.013": 0.0,
			"-0.012": 0.0,
			"-0.011": 0.0,
			"-0.01": 0.0,
			"-0.009": 0.0466182177541,
			"-0.008": 1.08872006241,
			"-0.007": 5.08160926817,
			"-0.006": 9.48429212217,
			"-0.005": 19.166610601,
			"-0.004": 28.5147450069,
			"-0.003": 44.7210171093,
			"-0.002": 42.1780488754,
			"-0.001": 45.1399927034,
			"0.0": 42.9067464071,
			"0.001": 34.4539665758,
			"0.002": 20.614512695,
			"0.003": 14.4276666459,
			"0.004": 11.70434957,
			"0.005": 10.694567954,
			"0.006": 10.7537991176,
			"0.007": 14.1549688357,
			"0.008": 12.0739279337,
			"0.009": 7.97846118409,
			"0.01": 2.82185262949,
			"0.011": 0.0,
			"0.012": 0.0,
			"0.013": 0.0,
			"0.014": 0.0,
			"0.015": 0.0,
			"0.016": 0.0,
			"0.017": 0.0,
			"0.018": 0.0,
			"0.019": 0.0,
			"0.02": 0.0,
			"0.021": 0.0,
			"0.022": 0.0,
			"0.023": 0.0,
			"0.024": 0.0,
			"0.025": 0.0
		}
	}
}
