{
	 "smiles": "ClC1=CC2=C(CS(=O)(=O)N2)C=C1", 
	 "Tm": 423.15, 
	 "num_atms": 18, 
	 "gaussian": { 
		 "optdone": 1, 
		 "sigma_profile": "yes", 
		 "theory": "DFT", 
		 "functional": "B3LYP", 
		 "basiset": "6-31G**", 
		 "properties": { 
			 "R2extent": 4011.4666, 
			 "electric_dipole_moment_norm": 2.89430133884, 
			 "electric_quadrupole_moment_norm": 14.2854806447, 
			 "total_energy": -1333.86899198, 
			 "HOMO_LUMO_gap": 0.2047, 
			 "cosmo_polarized_energy": -16.16, 
			 "cosmo_cavitation_energy": 25.22, 
			 "cosmo_dispersion_energy": -19.76, 
			 "cosmo_repulsion_energy": 1.52, 
			 "cosmo_total_nonelectrostatic_energy": 6.98, 
			 "SMD_solvation_energy": 2.79 
		},
		"coords": [
			{
				"x": 5.465230115,
				"y": 0.5739391098,
				"z": -0.3256791405,
				"element": "Cl" 
			},
			{
				"x": 3.733659778,
				"y": 0.4359767218,
				"z": -0.0718085107,
				"element": "C" 
			},
			{
				"x": 2.8803364783,
				"y": 1.2190804581,
				"z": -0.8504846904,
				"element": "C" 
			},
			{
				"x": 1.5084766527,
				"y": 1.1002545863,
				"z": -0.6312036448,
				"element": "C" 
			},
			{
				"x": 1.0004931782,
				"y": 0.2142551256,
				"z": 0.3367202582,
				"element": "C" 
			},
			{
				"x": -0.5003334082,
				"y": 0.239581422,
				"z": 0.4205484936,
				"element": "C" 
			},
			{
				"x": -1.0128753059,
				"y": 1.0382776576,
				"z": -1.1476504313,
				"element": "S" 
			},
			{
				"x": -1.1549718394,
				"y": 0.0353548892,
				"z": -2.2061953928,
				"element": "O" 
			},
			{
				"x": -2.0570362265,
				"y": 2.037798971,
				"z": -0.9439022958,
				"element": "O" 
			},
			{
				"x": 0.5172927968,
				"y": 1.8424232249,
				"z": -1.3009444199,
				"element": "N" 
			},
			{
				"x": 1.8763893514,
				"y": -0.5608092226,
				"z": 1.0880454263,
				"element": "C" 
			},
			{
				"x": 3.2558260715,
				"y": -0.4523818767,
				"z": 0.8922074084,
				"element": "C" 
			},
			{
				"x": 3.2782981253,
				"y": 1.8985742809,
				"z": -1.5953230372,
				"element": "H" 
			},
			{
				"x": -0.9764631126,
				"y": -0.7428119694,
				"z": 0.4584833126,
				"element": "H" 
			},
			{
				"x": -0.8864211726,
				"y": 0.8738353499,
				"z": 1.2246069382,
				"element": "H" 
			},
			{
				"x": 0.712527034,
				"y": 2.1358861973,
				"z": -2.2541380218,
				"element": "H" 
			},
			{
				"x": 1.4920441558,
				"y": -1.2552989929,
				"z": 1.8293060035,
				"element": "H" 
			},
			{
				"x": 3.9486273284,
				"y": -1.0489359329,
				"z": 1.4734117447,
				"element": "H" 
			}
		],
		 "valence_orbital": [ 
			{
				"type": "occ",
				"energy": -0.3252,
				"method": "rhf"
			},
			{
				"type": "occ",
				"energy": -0.32112,
				"method": "rhf"
			},
			{
				"type": "occ",
				"energy": -0.30721,
				"method": "rhf"
			},
			{
				"type": "occ",
				"energy": -0.26733,
				"method": "rhf"
			},
			{
				"type": "occ",
				"energy": -0.24239,
				"method": "rhf"
			},
			{
				"type": "unocc",
				"energy": -0.03769,
				"method": "rhf"
			},
			{
				"type": "unocc",
				"energy": -0.02323,
				"method": "rhf"
			},
			{
				"type": "unocc",
				"energy": 0.0141,
				"method": "rhf"
			},
			{
				"type": "unocc",
				"energy": 0.03938,
				"method": "rhf"
			},
			{
				"type": "unocc",
				"energy": 0.04526,
				"method": "rhf"
			}
		],
		"cosmo_sigma_profile": { 
			"-0.025": 0.0,
			"-0.024": 0.0,
			"-0.023": 0.0,
			"-0.022": 0.0,
			"-0.021": 0.0,
			"-0.02": 0.0,
			"-0.019": 0.0,
			"-0.018": 0.0,
			"-0.017": 0.709023957902,
			"-0.016": 1.68103201514,
			"-0.015": 1.43676065841,
			"-0.014": 1.29974102964,
			"-0.013": 1.51322469005,
			"-0.012": 1.46024289957,
			"-0.011": 0.771282074053,
			"-0.01": 3.46599774947,
			"-0.009": 6.83978986974,
			"-0.008": 7.5173571241,
			"-0.007": 11.6756692764,
			"-0.006": 10.3063856361,
			"-0.005": 8.86180613309,
			"-0.004": 6.4539514398,
			"-0.003": 6.41936525156,
			"-0.002": 6.9703771438,
			"-0.001": 9.42055348659,
			"0.0": 10.6649774432,
			"0.001": 14.9912906848,
			"0.002": 19.0792522929,
			"0.003": 16.4857270242,
			"0.004": 13.0202135996,
			"0.005": 6.10116765049,
			"0.006": 2.80007960194,
			"0.007": 3.81485705648,
			"0.008": 3.79183682974,
			"0.009": 5.69625493951,
			"0.01": 13.6476788097,
			"0.011": 7.56465012326,
			"0.012": 0.183478541733,
			"0.013": 0.0,
			"0.014": 0.0,
			"0.015": 0.0,
			"0.016": 0.0,
			"0.017": 0.0,
			"0.018": 0.0,
			"0.019": 0.0,
			"0.02": 0.0,
			"0.021": 0.0,
			"0.022": 0.0,
			"0.023": 0.0,
			"0.024": 0.0,
			"0.025": 0.0
		}
	}
}
