{
	 "smiles": "CC(=C)C(=O)OC1=CC=C(C(=O)C2=CC=CC=C2)C(O)=C1", 
	 "Tm": 351.15, 
	 "num_atms": 35, 
	 "gaussian": { 
		 "optdone": 1, 
		 "sigma_profile": "yes", 
		 "theory": "DFT", 
		 "functional": "B3LYP", 
		 "basiset": "6-31G**", 
		 "properties": { 
			 "R2extent": 9898.7801, 
			 "electric_dipole_moment_norm": 3.79502065607, 
			 "electric_quadrupole_moment_norm": 27.8542699219, 
			 "total_energy": -957.127744758, 
			 "HOMO_LUMO_gap": 0.16534, 
			 "cosmo_polarized_energy": -15.68, 
			 "cosmo_cavitation_energy": 40.56, 
			 "cosmo_dispersion_energy": -28.58, 
			 "cosmo_repulsion_energy": 2.17, 
			 "cosmo_total_nonelectrostatic_energy": 14.15, 
			 "SMD_solvation_energy": 9.47 
		},
		"coords": [
			{
				"x": 2.3628992069,
				"y": 4.6275045492,
				"z": -1.8836901545,
				"element": "C" 
			},
			{
				"x": 1.0061451896,
				"y": 4.334229774,
				"z": -1.2991635415,
				"element": "C" 
			},
			{
				"x": 0.0215292083,
				"y": 5.2380406564,
				"z": -1.2077927754,
				"element": "C" 
			},
			{
				"x": 0.8329894215,
				"y": 2.9322483388,
				"z": -0.8149671474,
				"element": "C" 
			},
			{
				"x": 1.7110181635,
				"y": 2.0964594976,
				"z": -0.8792286537,
				"element": "O" 
			},
			{
				"x": -0.4134264929,
				"y": 2.715781092,
				"z": -0.3020205011,
				"element": "O" 
			},
			{
				"x": -0.876297535,
				"y": 1.5171131868,
				"z": 0.2218180875,
				"element": "C" 
			},
			{
				"x": -2.2281019196,
				"y": 1.5479519981,
				"z": 0.583683754,
				"element": "C" 
			},
			{
				"x": -2.80213581,
				"y": 0.4120579765,
				"z": 1.1329452567,
				"element": "C" 
			},
			{
				"x": -2.0793524392,
				"y": -0.7791228779,
				"z": 1.3067987514,
				"element": "C" 
			},
			{
				"x": -2.8017274367,
				"y": -1.9317796457,
				"z": 1.9466247566,
				"element": "C" 
			},
			{
				"x": -3.5956735682,
				"y": -1.6999275324,
				"z": 2.8526744545,
				"element": "O" 
			},
			{
				"x": -2.6287150285,
				"y": -3.3315303624,
				"z": 1.4448764518,
				"element": "C" 
			},
			{
				"x": -2.1748908535,
				"y": -3.6201716769,
				"z": 0.1501073935,
				"element": "C" 
			},
			{
				"x": -2.114834916,
				"y": -4.9396555076,
				"z": -0.295816924,
				"element": "C" 
			},
			{
				"x": -2.4934590002,
				"y": -5.9827228381,
				"z": 0.5521784659,
				"element": "C" 
			},
			{
				"x": -2.9484315263,
				"y": -5.702864747,
				"z": 1.8442561462,
				"element": "C" 
			},
			{
				"x": -3.0273514381,
				"y": -4.3843280543,
				"z": 2.2829742483,
				"element": "C" 
			},
			{
				"x": -0.7143753351,
				"y": -0.770767407,
				"z": 0.9628268939,
				"element": "C" 
			},
			{
				"x": 0.0246803971,
				"y": -1.8889125115,
				"z": 1.2078053704,
				"element": "O" 
			},
			{
				"x": -0.1088155865,
				"y": 0.3694437108,
				"z": 0.4166201624,
				"element": "C" 
			},
			{
				"x": 3.1528027112,
				"y": 4.444864364,
				"z": -1.1479552991,
				"element": "H" 
			},
			{
				"x": 2.572990956,
				"y": 3.9692751954,
				"z": -2.732954164,
				"element": "H" 
			},
			{
				"x": 2.4249731285,
				"y": 5.6655287893,
				"z": -2.2179019235,
				"element": "H" 
			},
			{
				"x": -0.94244145,
				"y": 4.9913222148,
				"z": -0.7800869111,
				"element": "H" 
			},
			{
				"x": 0.16560329,
				"y": 6.2539888939,
				"z": -1.5634141171,
				"element": "H" 
			},
			{
				"x": -2.7977459966,
				"y": 2.4579412785,
				"z": 0.4341175901,
				"element": "H" 
			},
			{
				"x": -3.8418411406,
				"y": 0.4203251823,
				"z": 1.4421847885,
				"element": "H" 
			},
			{
				"x": -1.8854498612,
				"y": -2.8118250318,
				"z": -0.5128490333,
				"element": "H" 
			},
			{
				"x": -1.773387257,
				"y": -5.1545831345,
				"z": -1.3043296071,
				"element": "H" 
			},
			{
				"x": -2.4383879913,
				"y": -7.0111210888,
				"z": 0.2059657238,
				"element": "H" 
			},
			{
				"x": -3.2466323852,
				"y": -6.5129449765,
				"z": 2.5036041761,
				"element": "H" 
			},
			{
				"x": -3.3980276374,
				"y": -4.1421424856,
				"z": 3.2733496137,
				"element": "H" 
			},
			{
				"x": 0.939815966,
				"y": -1.7285964586,
				"z": 0.9418228729,
				"element": "H" 
			},
			{
				"x": 0.9398549666,
				"y": 0.3632196382,
				"z": 0.1543357943,
				"element": "H" 
			}
		],
		 "valence_orbital": [ 
			{
				"type": "occ",
				"energy": -0.2567,
				"method": "rhf"
			},
			{
				"type": "occ",
				"energy": -0.25097,
				"method": "rhf"
			},
			{
				"type": "occ",
				"energy": -0.25092,
				"method": "rhf"
			},
			{
				"type": "occ",
				"energy": -0.24053,
				"method": "rhf"
			},
			{
				"type": "occ",
				"energy": -0.22926,
				"method": "rhf"
			},
			{
				"type": "unocc",
				"energy": -0.06392,
				"method": "rhf"
			},
			{
				"type": "unocc",
				"energy": -0.04956,
				"method": "rhf"
			},
			{
				"type": "unocc",
				"energy": -0.00739,
				"method": "rhf"
			},
			{
				"type": "unocc",
				"energy": -0.00046,
				"method": "rhf"
			},
			{
				"type": "unocc",
				"energy": 0.00252,
				"method": "rhf"
			}
		],
		"cosmo_sigma_profile": { 
			"-0.025": 0.0,
			"-0.024": 0.0,
			"-0.023": 0.0,
			"-0.022": 0.0,
			"-0.021": 0.0,
			"-0.02": 0.0,
			"-0.019": 0.264770461338,
			"-0.018": 0.991332356745,
			"-0.017": 1.07485502506,
			"-0.016": 1.1487917497,
			"-0.015": 1.17286464567,
			"-0.014": 0.965772841375,
			"-0.013": 0.493469336557,
			"-0.012": 0.653550729336,
			"-0.011": 1.245767311,
			"-0.01": 1.09182089691,
			"-0.009": 0.608002244672,
			"-0.008": 0.905699170626,
			"-0.007": 3.8381316376,
			"-0.006": 15.5082481297,
			"-0.005": 20.0872250055,
			"-0.004": 24.3518000354,
			"-0.003": 23.991816914,
			"-0.002": 27.8331340458,
			"-0.001": 23.9495798432,
			"0.0": 28.7948888231,
			"0.001": 27.6906162625,
			"0.002": 28.915125978,
			"0.003": 23.9522061379,
			"0.004": 18.7544885153,
			"0.005": 9.58872124704,
			"0.006": 5.71223572762,
			"0.007": 5.29088378419,
			"0.008": 5.06971256835,
			"0.009": 6.19407326285,
			"0.01": 4.2997247865,
			"0.011": 4.81604190548,
			"0.012": 4.7283833134,
			"0.013": 0.998601363385,
			"0.014": 0.0,
			"0.015": 0.0,
			"0.016": 0.0,
			"0.017": 0.0,
			"0.018": 0.0,
			"0.019": 0.0,
			"0.02": 0.0,
			"0.021": 0.0,
			"0.022": 0.0,
			"0.023": 0.0,
			"0.024": 0.0,
			"0.025": 0.0
		}
	}
}
