{
	 "smiles": "CC1(C)C2CCC1(C)C(=O)C2C(C1=CC=CC=C1)C1=CC=CC=C1", 
	 "Tm": 410.15, 
	 "num_atms": 50, 
	 "gaussian": { 
		 "optdone": 1, 
		 "sigma_profile": "yes", 
		 "theory": "DFT", 
		 "functional": "B3LYP", 
		 "basiset": "6-31G**", 
		 "properties": { 
			 "R2extent": 8045.2839, 
			 "electric_dipole_moment_norm": 2.50704250064, 
			 "electric_quadrupole_moment_norm": 9.99227972136, 
			 "total_energy": -967.34159236, 
			 "HOMO_LUMO_gap": 0.21642, 
			 "cosmo_polarized_energy": -10.38, 
			 "cosmo_cavitation_energy": 47.14, 
			 "cosmo_dispersion_energy": -31.29, 
			 "cosmo_repulsion_energy": 2.34, 
			 "cosmo_total_nonelectrostatic_energy": 18.19, 
			 "SMD_solvation_energy": 7.86 
		},
		"coords": [
			{
				"x": -3.1613272419,
				"y": -0.3489064468,
				"z": 1.4047082322,
				"element": "C" 
			},
			{
				"x": -2.3159819331,
				"y": -1.514848486,
				"z": 0.8697763979,
				"element": "C" 
			},
			{
				"x": -3.2915988887,
				"y": -2.5070766249,
				"z": 0.2092797331,
				"element": "C" 
			},
			{
				"x": -1.1074001425,
				"y": -1.11534654,
				"z": -0.0573049547,
				"element": "C" 
			},
			{
				"x": -0.4365153463,
				"y": -2.4928400642,
				"z": -0.2924055724,
				"element": "C" 
			},
			{
				"x": -0.5210843641,
				"y": -3.1443979748,
				"z": 1.1250102092,
				"element": "C" 
			},
			{
				"x": -1.3895449334,
				"y": -2.1500980016,
				"z": 1.9690793763,
				"element": "C" 
			},
			{
				"x": -2.0145577364,
				"y": -2.7430600835,
				"z": 3.2200784643,
				"element": "C" 
			},
			{
				"x": -0.4868211513,
				"y": -0.9375898121,
				"z": 2.2427880355,
				"element": "C" 
			},
			{
				"x": -0.1348126666,
				"y": -0.5145583625,
				"z": 3.3243419706,
				"element": "O" 
			},
			{
				"x": -0.10916608,
				"y": -0.3478556089,
				"z": 0.8705344548,
				"element": "C" 
			},
			{
				"x": 0.1425121577,
				"y": 1.1906312135,
				"z": 0.8512579826,
				"element": "C" 
			},
			{
				"x": 1.2230264867,
				"y": 1.5999290692,
				"z": -0.1544532153,
				"element": "C" 
			},
			{
				"x": 1.4567954485,
				"y": 0.9150270813,
				"z": -1.3541481654,
				"element": "C" 
			},
			{
				"x": 2.441855093,
				"y": 1.3451177787,
				"z": -2.248139645,
				"element": "C" 
			},
			{
				"x": 3.2139252162,
				"y": 2.4685178345,
				"z": -1.9569339837,
				"element": "C" 
			},
			{
				"x": 2.9924635501,
				"y": 3.1608387344,
				"z": -0.7636657944,
				"element": "C" 
			},
			{
				"x": 2.0073837687,
				"y": 2.7302356871,
				"z": 0.1228145105,
				"element": "C" 
			},
			{
				"x": -1.0753657063,
				"y": 2.1026447524,
				"z": 0.716427308,
				"element": "C" 
			},
			{
				"x": -1.5703028047,
				"y": 2.7754999669,
				"z": 1.8425476624,
				"element": "C" 
			},
			{
				"x": -2.6735771268,
				"y": 3.6258266313,
				"z": 1.7459010399,
				"element": "C" 
			},
			{
				"x": -3.2992914134,
				"y": 3.8233406311,
				"z": 0.51451766,
				"element": "C" 
			},
			{
				"x": -2.8062736534,
				"y": 3.1718957896,
				"z": -0.6185644101,
				"element": "C" 
			},
			{
				"x": -1.701212822,
				"y": 2.3261048488,
				"z": -0.5187936931,
				"element": "C" 
			},
			{
				"x": -2.5890000143,
				"y": 0.3766278497,
				"z": 1.9824799778,
				"element": "H" 
			},
			{
				"x": -3.9533290541,
				"y": -0.7321896067,
				"z": 2.0573038997,
				"element": "H" 
			},
			{
				"x": -3.6415658198,
				"y": 0.1945641567,
				"z": 0.5853567927,
				"element": "H" 
			},
			{
				"x": -2.8316789374,
				"y": -3.4415474692,
				"z": -0.1163183183,
				"element": "H" 
			},
			{
				"x": -4.0973558031,
				"y": -2.7651687044,
				"z": 0.9042844922,
				"element": "H" 
			},
			{
				"x": -3.7579136696,
				"y": -2.0437410792,
				"z": -0.6682528106,
				"element": "H" 
			},
			{
				"x": -1.3923039396,
				"y": -0.5844219936,
				"z": -0.968730193,
				"element": "H" 
			},
			{
				"x": -0.9706793369,
				"y": -3.0851570129,
				"z": -1.0394610541,
				"element": "H" 
			},
			{
				"x": 0.5938866637,
				"y": -2.3918209465,
				"z": -0.6462730214,
				"element": "H" 
			},
			{
				"x": -1.0108843837,
				"y": -4.1224505834,
				"z": 1.0951495401,
				"element": "H" 
			},
			{
				"x": 0.4632372056,
				"y": -3.3019619834,
				"z": 1.5779701314,
				"element": "H" 
			},
			{
				"x": -2.6046546681,
				"y": -1.9988045813,
				"z": 3.7624355111,
				"element": "H" 
			},
			{
				"x": -2.6646011776,
				"y": -3.5892896497,
				"z": 2.9746135334,
				"element": "H" 
			},
			{
				"x": -1.2379392376,
				"y": -3.0976365563,
				"z": 3.9050859028,
				"element": "H" 
			},
			{
				"x": 0.8934169505,
				"y": -0.7598633598,
				"z": 0.6907436596,
				"element": "H" 
			},
			{
				"x": 0.5600221992,
				"y": 1.3834379974,
				"z": 1.8473820215,
				"element": "H" 
			},
			{
				"x": 0.8722619046,
				"y": 0.0340027908,
				"z": -1.600282055,
				"element": "H" 
			},
			{
				"x": 2.6046132851,
				"y": 0.7961917762,
				"z": -3.1717062582,
				"element": "H" 
			},
			{
				"x": 3.9820716014,
				"y": 2.8007842222,
				"z": -2.6492720466,
				"element": "H" 
			},
			{
				"x": 3.5907804225,
				"y": 4.0348305486,
				"z": -0.5214455376,
				"element": "H" 
			},
			{
				"x": 1.8396389055,
				"y": 3.2771172972,
				"z": 1.0474199384,
				"element": "H" 
			},
			{
				"x": -1.09158716,
				"y": 2.619053814,
				"z": 2.8059681764,
				"element": "H" 
			},
			{
				"x": -3.0403818459,
				"y": 4.1353538599,
				"z": 2.6326548613,
				"element": "H" 
			},
			{
				"x": -4.1560955039,
				"y": 4.4863073409,
				"z": 0.4351583143,
				"element": "H" 
			},
			{
				"x": -3.2764815931,
				"y": 3.331152555,
				"z": -1.585171914,
				"element": "H" 
			},
			{
				"x": -1.3066047037,
				"y": 1.8540973042,
				"z": -1.4137471469,
				"element": "H" 
			}
		],
		 "valence_orbital": [ 
			{
				"type": "occ",
				"energy": -0.25214,
				"method": "rhf"
			},
			{
				"type": "occ",
				"energy": -0.24795,
				"method": "rhf"
			},
			{
				"type": "occ",
				"energy": -0.24685,
				"method": "rhf"
			},
			{
				"type": "occ",
				"energy": -0.23134,
				"method": "rhf"
			},
			{
				"type": "occ",
				"energy": -0.23034,
				"method": "rhf"
			},
			{
				"type": "unocc",
				"energy": -0.01392,
				"method": "rhf"
			},
			{
				"type": "unocc",
				"energy": -0.00606,
				"method": "rhf"
			},
			{
				"type": "unocc",
				"energy": -0.00213,
				"method": "rhf"
			},
			{
				"type": "unocc",
				"energy": 0.00239,
				"method": "rhf"
			},
			{
				"type": "unocc",
				"energy": 0.01159,
				"method": "rhf"
			}
		],
		"cosmo_sigma_profile": { 
			"-0.025": 0.0,
			"-0.024": 0.0,
			"-0.023": 0.0,
			"-0.022": 0.0,
			"-0.021": 0.0,
			"-0.02": 0.0,
			"-0.019": 0.0,
			"-0.018": 0.0,
			"-0.017": 0.0,
			"-0.016": 0.0,
			"-0.015": 0.0,
			"-0.014": 0.0,
			"-0.013": 0.0,
			"-0.012": 0.0,
			"-0.011": 0.0,
			"-0.01": 0.0,
			"-0.009": 0.0,
			"-0.008": 0.0,
			"-0.007": 0.00386342194423,
			"-0.006": 4.92630195429,
			"-0.005": 20.8488588911,
			"-0.004": 35.3824128724,
			"-0.003": 45.4189169794,
			"-0.002": 42.9111343706,
			"-0.001": 43.4850724838,
			"0.0": 36.7695814736,
			"0.001": 35.1755099611,
			"0.002": 20.2716421708,
			"0.003": 18.9579742158,
			"0.004": 16.6257162626,
			"0.005": 18.6601375662,
			"0.006": 13.1933159912,
			"0.007": 3.88800097829,
			"0.008": 0.991840371664,
			"0.009": 1.71835791495,
			"0.01": 2.39237198589,
			"0.011": 2.20379519525,
			"0.012": 4.41503726873,
			"0.013": 1.43737982214,
			"0.014": 0.0100754782502,
			"0.015": 0.0,
			"0.016": 0.0,
			"0.017": 0.0,
			"0.018": 0.0,
			"0.019": 0.0,
			"0.02": 0.0,
			"0.021": 0.0,
			"0.022": 0.0,
			"0.023": 0.0,
			"0.024": 0.0,
			"0.025": 0.0
		}
	}
}
