{
	 "smiles": "OC(=O)CCS", 
	 "Tm": 291.15, 
	 "num_atms": 12, 
	 "gaussian": { 
		 "optdone": 1, 
		 "sigma_profile": "yes", 
		 "theory": "DFT", 
		 "functional": "B3LYP", 
		 "basiset": "6-31G**", 
		 "properties": { 
			 "R2extent": 1190.9243, 
			 "electric_dipole_moment_norm": 3.05251141849, 
			 "electric_quadrupole_moment_norm": 10.5292270675, 
			 "total_energy": -666.581569112, 
			 "HOMO_LUMO_gap": 0.24149, 
			 "cosmo_polarized_energy": -11.56, 
			 "cosmo_cavitation_energy": 17.56, 
			 "cosmo_dispersion_energy": -13.44, 
			 "cosmo_repulsion_energy": 1.15, 
			 "cosmo_total_nonelectrostatic_energy": 5.27, 
			 "SMD_solvation_energy": 3.87 
		},
		"coords": [
			{
				"x": -1.109428698,
				"y": -1.310258722,
				"z": 1.2061566824,
				"element": "O" 
			},
			{
				"x": -0.4267776602,
				"y": -2.199821488,
				"z": 0.4436674827,
				"element": "C" 
			},
			{
				"x": -0.8095704188,
				"y": -3.3318664172,
				"z": 0.2577587855,
				"element": "O" 
			},
			{
				"x": 0.8686988437,
				"y": -1.6127850602,
				"z": -0.0843846392,
				"element": "C" 
			},
			{
				"x": 0.7348143881,
				"y": -0.2181237092,
				"z": -0.7039819418,
				"element": "C" 
			},
			{
				"x": -0.2635998893,
				"y": -0.3144902766,
				"z": -2.2565254185,
				"element": "S" 
			},
			{
				"x": -1.9163989542,
				"y": -1.7677028204,
				"z": 1.4959232173,
				"element": "H" 
			},
			{
				"x": 1.5625783818,
				"y": -1.5440919642,
				"z": 0.7635623439,
				"element": "H" 
			},
			{
				"x": 1.2862698032,
				"y": -2.3313658912,
				"z": -0.7933219343,
				"element": "H" 
			},
			{
				"x": 1.7272653476,
				"y": 0.1734353081,
				"z": -0.9389628746,
				"element": "H" 
			},
			{
				"x": 0.2413475298,
				"y": 0.4547082507,
				"z": -0.0009601307,
				"element": "H" 
			},
			{
				"x": -0.3884986737,
				"y": 1.0147627902,
				"z": -2.4397315726,
				"element": "H" 
			}
		],
		 "valence_orbital": [ 
			{
				"type": "occ",
				"energy": -0.37602,
				"method": "rhf"
			},
			{
				"type": "occ",
				"energy": -0.33321,
				"method": "rhf"
			},
			{
				"type": "occ",
				"energy": -0.32084,
				"method": "rhf"
			},
			{
				"type": "occ",
				"energy": -0.27637,
				"method": "rhf"
			},
			{
				"type": "occ",
				"energy": -0.24198,
				"method": "rhf"
			},
			{
				"type": "unocc",
				"energy": -0.00049,
				"method": "rhf"
			},
			{
				"type": "unocc",
				"energy": 0.02627,
				"method": "rhf"
			},
			{
				"type": "unocc",
				"energy": 0.06498,
				"method": "rhf"
			},
			{
				"type": "unocc",
				"energy": 0.07517,
				"method": "rhf"
			},
			{
				"type": "unocc",
				"energy": 0.11514,
				"method": "rhf"
			}
		],
		"cosmo_sigma_profile": { 
			"-0.025": 0.0,
			"-0.024": 0.0,
			"-0.023": 0.0,
			"-0.022": 0.0,
			"-0.021": 0.0,
			"-0.02": 0.0,
			"-0.019": 0.0583953063153,
			"-0.018": 0.937557136369,
			"-0.017": 0.678206506564,
			"-0.016": 0.991288214866,
			"-0.015": 1.00781840631,
			"-0.014": 0.733575143468,
			"-0.013": 0.069865542107,
			"-0.012": 0.341650960421,
			"-0.011": 0.717222585806,
			"-0.01": 1.50312157258,
			"-0.009": 3.13257251554,
			"-0.008": 3.10678736936,
			"-0.007": 6.46371724291,
			"-0.006": 8.5601032112,
			"-0.005": 11.182163459,
			"-0.004": 11.6196477156,
			"-0.003": 11.0527245688,
			"-0.002": 5.1981744708,
			"-0.001": 5.2366778233,
			"0.0": 4.58220940274,
			"0.001": 6.06708246699,
			"0.002": 4.38469176687,
			"0.003": 4.4951725296,
			"0.004": 5.59425819578,
			"0.005": 8.00905668957,
			"0.006": 5.9317864167,
			"0.007": 4.91591595842,
			"0.008": 5.61685886671,
			"0.009": 4.60014059961,
			"0.01": 3.37611434377,
			"0.011": 4.72326993141,
			"0.012": 4.51102276289,
			"0.013": 0.800571236596,
			"0.014": 0.0,
			"0.015": 0.0,
			"0.016": 0.0,
			"0.017": 0.0,
			"0.018": 0.0,
			"0.019": 0.0,
			"0.02": 0.0,
			"0.021": 0.0,
			"0.022": 0.0,
			"0.023": 0.0,
			"0.024": 0.0,
			"0.025": 0.0
		}
	}
}
