{
	 "smiles": "N#CC1=CC=C(NC2CC2)C=C1", 
	 "Tm": 353.15, 
	 "num_atms": 22, 
	 "gaussian": { 
		 "optdone": 1, 
		 "sigma_profile": "yes", 
		 "theory": "DFT", 
		 "functional": "B3LYP", 
		 "basiset": "6-31G**", 
		 "properties": { 
			 "R2extent": 3796.8757, 
			 "electric_dipole_moment_norm": 7.20345500021, 
			 "electric_quadrupole_moment_norm": 35.2934194453, 
			 "total_energy": -496.550008992, 
			 "HOMO_LUMO_gap": 0.18516, 
			 "cosmo_polarized_energy": -12.72, 
			 "cosmo_cavitation_energy": 26.79, 
			 "cosmo_dispersion_energy": -18.97, 
			 "cosmo_repulsion_energy": 1.52, 
			 "cosmo_total_nonelectrostatic_energy": 9.34, 
			 "SMD_solvation_energy": 5.0 
		},
		"coords": [
			{
				"x": 1.8886141485,
				"y": 1.4750582344,
				"z": 5.7457920156,
				"element": "N" 
			},
			{
				"x": 1.3899669952,
				"y": 1.5260447249,
				"z": 4.6945733643,
				"element": "C" 
			},
			{
				"x": 0.7776253336,
				"y": 1.5897281462,
				"z": 3.4042501275,
				"element": "C" 
			},
			{
				"x": 0.8862885944,
				"y": 0.5147048906,
				"z": 2.5053696638,
				"element": "C" 
			},
			{
				"x": 0.297348541,
				"y": 0.5723696309,
				"z": 1.2497333958,
				"element": "C" 
			},
			{
				"x": -0.4285969875,
				"y": 1.7145773907,
				"z": 0.8530835248,
				"element": "C" 
			},
			{
				"x": -1.0555332537,
				"y": 1.7927424549,
				"z": -0.3780420013,
				"element": "N" 
			},
			{
				"x": -0.7797934547,
				"y": 0.8832464782,
				"z": -1.4503184941,
				"element": "C" 
			},
			{
				"x": -1.5299625934,
				"y": -0.4298988052,
				"z": -1.5006557983,
				"element": "C" 
			},
			{
				"x": -1.8670751856,
				"y": 0.6740628243,
				"z": -2.469968705,
				"element": "C" 
			},
			{
				"x": -0.534522225,
				"y": 2.793139906,
				"z": 1.7585115749,
				"element": "C" 
			},
			{
				"x": 0.0559757104,
				"y": 2.732748401,
				"z": 3.0089576355,
				"element": "C" 
			},
			{
				"x": 1.4422174268,
				"y": -0.3700261605,
				"z": 2.7986448525,
				"element": "H" 
			},
			{
				"x": 0.3923855709,
				"y": -0.2672158635,
				"z": 0.5717526053,
				"element": "H" 
			},
			{
				"x": -1.3298834194,
				"y": 2.7238087546,
				"z": -0.6606659553,
				"element": "H" 
			},
			{
				"x": 0.2497295724,
				"y": 0.8709555405,
				"z": -1.8149470215,
				"element": "H" 
			},
			{
				"x": -2.2325452202,
				"y": -0.6229525003,
				"z": -0.6969885626,
				"element": "H" 
			},
			{
				"x": -1.002903217,
				"y": -1.3039082078,
				"z": -1.8707873207,
				"element": "H" 
			},
			{
				"x": -1.5731157713,
				"y": 0.5658083579,
				"z": -3.5089376925,
				"element": "H" 
			},
			{
				"x": -2.8005868808,
				"y": 1.206717414,
				"z": -2.315731197,
				"element": "H" 
			},
			{
				"x": -1.0909907109,
				"y": 3.6805288963,
				"z": 1.4673747485,
				"element": "H" 
			},
			{
				"x": -0.0340429736,
				"y": 3.5708594918,
				"z": 3.6922992399,
				"element": "H" 
			}
		],
		 "valence_orbital": [ 
			{
				"type": "occ",
				"energy": -0.31528,
				"method": "rhf"
			},
			{
				"type": "occ",
				"energy": -0.31331,
				"method": "rhf"
			},
			{
				"type": "occ",
				"energy": -0.28991,
				"method": "rhf"
			},
			{
				"type": "occ",
				"energy": -0.26657,
				"method": "rhf"
			},
			{
				"type": "occ",
				"energy": -0.21318,
				"method": "rhf"
			},
			{
				"type": "unocc",
				"energy": -0.02802,
				"method": "rhf"
			},
			{
				"type": "unocc",
				"energy": -0.01423,
				"method": "rhf"
			},
			{
				"type": "unocc",
				"energy": 0.05071,
				"method": "rhf"
			},
			{
				"type": "unocc",
				"energy": 0.07317,
				"method": "rhf"
			},
			{
				"type": "unocc",
				"energy": 0.08371,
				"method": "rhf"
			}
		],
		"cosmo_sigma_profile": { 
			"-0.025": 0.0,
			"-0.024": 0.0,
			"-0.023": 0.0,
			"-0.022": 0.0,
			"-0.021": 0.0,
			"-0.02": 0.0,
			"-0.019": 0.0,
			"-0.018": 0.0,
			"-0.017": 0.0,
			"-0.016": 0.0,
			"-0.015": 0.0,
			"-0.014": 0.229107681845,
			"-0.013": 0.995860860556,
			"-0.012": 1.43732472925,
			"-0.011": 1.34748757156,
			"-0.01": 1.23158321798,
			"-0.009": 1.47414534129,
			"-0.008": 1.77966894977,
			"-0.007": 6.25129259301,
			"-0.006": 7.66540909956,
			"-0.005": 16.0922429857,
			"-0.004": 19.1140035352,
			"-0.003": 16.1122037128,
			"-0.002": 15.4526514968,
			"-0.001": 18.1286956032,
			"0.0": 16.2126182125,
			"0.001": 14.6176736499,
			"0.002": 14.9242702122,
			"0.003": 13.1284255397,
			"0.004": 16.9268558941,
			"0.005": 5.23080274105,
			"0.006": 2.76684164985,
			"0.007": 3.3751475068,
			"0.008": 2.60191256631,
			"0.009": 3.53913072767,
			"0.01": 3.51708598677,
			"0.011": 3.39824102427,
			"0.012": 2.92629100554,
			"0.013": 2.45082082674,
			"0.014": 1.36106522942,
			"0.015": 0.0110576806981,
			"0.016": 0.0,
			"0.017": 0.0,
			"0.018": 0.0,
			"0.019": 0.0,
			"0.02": 0.0,
			"0.021": 0.0,
			"0.022": 0.0,
			"0.023": 0.0,
			"0.024": 0.0,
			"0.025": 0.0
		}
	}
}
