{
	 "smiles": "NC(=O)C1=CSC(Br)=C1", 
	 "Tm": 416.15, 
	 "num_atms": 13, 
	 "gaussian": { 
		 "optdone": 1, 
		 "sigma_profile": "yes", 
		 "theory": "DFT", 
		 "functional": "B3LYP", 
		 "basiset": "6-31G**", 
		 "properties": { 
			 "R2extent": 4271.1083, 
			 "electric_dipole_moment_norm": 2.6699509827, 
			 "electric_quadrupole_moment_norm": 12.5638692082, 
			 "total_energy": -3292.50296467, 
			 "HOMO_LUMO_gap": 0.19676, 
			 "cosmo_polarized_energy": -12.34, 
			 "cosmo_cavitation_energy": 21.83, 
			 "cosmo_dispersion_energy": -17.21, 
			 "cosmo_repulsion_energy": 1.37, 
			 "cosmo_total_nonelectrostatic_energy": 5.99, 
			 "SMD_solvation_energy": 3.35 
		},
		"coords": [
			{
				"x": -2.0013282651,
				"y": -1.8536359214,
				"z": -0.759595106,
				"element": "N" 
			},
			{
				"x": -2.0171879946,
				"y": -0.4805329312,
				"z": -0.7272364821,
				"element": "C" 
			},
			{
				"x": -2.340822086,
				"y": 0.1913451483,
				"z": -1.6981189977,
				"element": "O" 
			},
			{
				"x": -1.5873270212,
				"y": 0.1480101446,
				"z": 0.5591311047,
				"element": "C" 
			},
			{
				"x": -1.7685739456,
				"y": 1.4934415901,
				"z": 0.7577096215,
				"element": "C" 
			},
			{
				"x": -1.2107054811,
				"y": 2.0061277595,
				"z": 2.3079065689,
				"element": "S" 
			},
			{
				"x": -0.7140197417,
				"y": 0.3815087922,
				"z": 2.6982178462,
				"element": "C" 
			},
			{
				"x": 0.0968414826,
				"y": -0.0055888162,
				"z": 4.355843986,
				"element": "Br" 
			},
			{
				"x": -0.9708475807,
				"y": -0.4957797577,
				"z": 1.6847464738,
				"element": "C" 
			},
			{
				"x": -2.4051025283,
				"y": -2.274806965,
				"z": -1.5838218635,
				"element": "H" 
			},
			{
				"x": -2.0294315908,
				"y": -2.3929853153,
				"z": 0.0913044708,
				"element": "H" 
			},
			{
				"x": -2.2050448143,
				"y": 2.1886801464,
				"z": 0.0545855708,
				"element": "H" 
			},
			{
				"x": -0.6994504332,
				"y": -1.5427838743,
				"z": 1.7361268066,
				"element": "H" 
			}
		],
		 "valence_orbital": [ 
			{
				"type": "occ",
				"energy": -0.3053,
				"method": "rhf"
			},
			{
				"type": "occ",
				"energy": -0.27755,
				"method": "rhf"
			},
			{
				"type": "occ",
				"energy": -0.27283,
				"method": "rhf"
			},
			{
				"type": "occ",
				"energy": -0.25818,
				"method": "rhf"
			},
			{
				"type": "occ",
				"energy": -0.24016,
				"method": "rhf"
			},
			{
				"type": "unocc",
				"energy": -0.0434,
				"method": "rhf"
			},
			{
				"type": "unocc",
				"energy": -0.01211,
				"method": "rhf"
			},
			{
				"type": "unocc",
				"energy": -0.00489,
				"method": "rhf"
			},
			{
				"type": "unocc",
				"energy": 0.0123,
				"method": "rhf"
			},
			{
				"type": "unocc",
				"energy": 0.06749,
				"method": "rhf"
			}
		],
		"cosmo_sigma_profile": { 
			"-0.025": 0.0,
			"-0.024": 0.0,
			"-0.023": 0.0,
			"-0.022": 0.0,
			"-0.021": 0.0,
			"-0.02": 0.0,
			"-0.019": 0.0,
			"-0.018": 0.0,
			"-0.017": 0.0,
			"-0.016": 0.0,
			"-0.015": 0.335607594293,
			"-0.014": 2.07995455979,
			"-0.013": 3.105559803,
			"-0.012": 2.30784678706,
			"-0.011": 2.62898292123,
			"-0.01": 2.98541150447,
			"-0.009": 4.84810410237,
			"-0.008": 3.96105117302,
			"-0.007": 4.1095914095,
			"-0.006": 4.4284284948,
			"-0.005": 6.09711908464,
			"-0.004": 5.37023692383,
			"-0.003": 6.10453353142,
			"-0.002": 8.83126537321,
			"-0.001": 13.1457060582,
			"0.0": 16.0357964186,
			"0.001": 22.2116758727,
			"0.002": 24.147553249,
			"0.003": 16.9915037643,
			"0.004": 7.49446000628,
			"0.005": 2.88623201554,
			"0.006": 2.24572462743,
			"0.007": 1.39305582161,
			"0.008": 1.84990806083,
			"0.009": 1.62661893017,
			"0.01": 1.49996077907,
			"0.011": 1.43213493885,
			"0.012": 1.84929937153,
			"0.013": 5.14383709375,
			"0.014": 3.36701141773,
			"0.015": 0.215611778719,
			"0.016": 0.0,
			"0.017": 0.0,
			"0.018": 0.0,
			"0.019": 0.0,
			"0.02": 0.0,
			"0.021": 0.0,
			"0.022": 0.0,
			"0.023": 0.0,
			"0.024": 0.0,
			"0.025": 0.0
		}
	}
}
