{
	 "smiles": "OC(=O)C1NCCS1", 
	 "Tm": 455.15, 
	 "num_atms": 15, 
	 "gaussian": { 
		 "optdone": 1, 
		 "sigma_profile": "yes", 
		 "theory": "DFT", 
		 "functional": "B3LYP", 
		 "basiset": "6-31G**", 
		 "properties": { 
			 "R2extent": 1431.7975, 
			 "electric_dipole_moment_norm": 3.18127662582, 
			 "electric_quadrupole_moment_norm": 12.4904852596, 
			 "total_energy": -760.026265493, 
			 "HOMO_LUMO_gap": 0.23754, 
			 "cosmo_polarized_energy": -11.69, 
			 "cosmo_cavitation_energy": 19.22, 
			 "cosmo_dispersion_energy": -15.32, 
			 "cosmo_repulsion_energy": 1.23, 
			 "cosmo_total_nonelectrostatic_energy": 5.13, 
			 "SMD_solvation_energy": 1.31 
		},
		"coords": [
			{
				"x": 0.413201784,
				"y": 2.447034849,
				"z": 2.3428143004,
				"element": "O" 
			},
			{
				"x": 1.3252993945,
				"y": 1.8504668589,
				"z": 1.5629471235,
				"element": "C" 
			},
			{
				"x": 2.2875977304,
				"y": 2.4392254282,
				"z": 1.1260712273,
				"element": "O" 
			},
			{
				"x": 1.1430787255,
				"y": 0.3390569307,
				"z": 1.2520163002,
				"element": "C" 
			},
			{
				"x": 1.4236653826,
				"y": 0.0267989219,
				"z": -0.1412163693,
				"element": "N" 
			},
			{
				"x": 0.2454201438,
				"y": 0.406687924,
				"z": -0.9280719433,
				"element": "C" 
			},
			{
				"x": -0.935269705,
				"y": -0.3170238316,
				"z": -0.2717284099,
				"element": "C" 
			},
			{
				"x": -0.5723411916,
				"y": -0.293733601,
				"z": 1.5462435215,
				"element": "S" 
			},
			{
				"x": -0.3383055575,
				"y": 1.8308759221,
				"z": 2.4546789648,
				"element": "H" 
			},
			{
				"x": 1.8297391988,
				"y": -0.2059180852,
				"z": 1.9092078978,
				"element": "H" 
			},
			{
				"x": 2.2432742442,
				"y": 0.5638631975,
				"z": -0.4225304762,
				"element": "H" 
			},
			{
				"x": 0.3759133663,
				"y": 0.0823447435,
				"z": -1.9652521254,
				"element": "H" 
			},
			{
				"x": 0.0556694852,
				"y": 1.4937834255,
				"z": -0.9320321563,
				"element": "H" 
			},
			{
				"x": -1.8891158017,
				"y": 0.1760537048,
				"z": -0.4652363483,
				"element": "H" 
			},
			{
				"x": -0.9903271996,
				"y": -1.3617163882,
				"z": -0.5826115069,
				"element": "H" 
			}
		],
		 "valence_orbital": [ 
			{
				"type": "occ",
				"energy": -0.34185,
				"method": "rhf"
			},
			{
				"type": "occ",
				"energy": -0.31991,
				"method": "rhf"
			},
			{
				"type": "occ",
				"energy": -0.29343,
				"method": "rhf"
			},
			{
				"type": "occ",
				"energy": -0.25258,
				"method": "rhf"
			},
			{
				"type": "occ",
				"energy": -0.24535,
				"method": "rhf"
			},
			{
				"type": "unocc",
				"energy": -0.00781,
				"method": "rhf"
			},
			{
				"type": "unocc",
				"energy": 0.0065,
				"method": "rhf"
			},
			{
				"type": "unocc",
				"energy": 0.04755,
				"method": "rhf"
			},
			{
				"type": "unocc",
				"energy": 0.07667,
				"method": "rhf"
			},
			{
				"type": "unocc",
				"energy": 0.10206,
				"method": "rhf"
			}
		],
		"cosmo_sigma_profile": { 
			"-0.025": 0.0,
			"-0.024": 0.0,
			"-0.023": 0.0,
			"-0.022": 0.0,
			"-0.021": 0.0,
			"-0.02": 0.0,
			"-0.019": 0.0,
			"-0.018": 0.0,
			"-0.017": 0.0,
			"-0.016": 0.0,
			"-0.015": 0.0,
			"-0.014": 0.0,
			"-0.013": 0.198014104221,
			"-0.012": 0.727746558891,
			"-0.011": 1.2215067589,
			"-0.01": 2.85809456579,
			"-0.009": 3.95158530528,
			"-0.008": 4.47006779892,
			"-0.007": 4.74768003495,
			"-0.006": 10.0262367069,
			"-0.005": 15.4458353547,
			"-0.004": 15.3105484537,
			"-0.003": 13.2839484264,
			"-0.002": 9.7193751186,
			"-0.001": 5.12481346145,
			"0.0": 4.67030228385,
			"0.001": 4.95912623244,
			"0.002": 4.92112403369,
			"0.003": 5.63648358841,
			"0.004": 4.67832387512,
			"0.005": 4.69554838923,
			"0.006": 4.85121282436,
			"0.007": 4.40328525428,
			"0.008": 4.98840748443,
			"0.009": 5.45632330173,
			"0.01": 4.84432329708,
			"0.011": 5.45788924602,
			"0.012": 3.59304807476,
			"0.013": 1.579092572,
			"0.014": 0.728976813426,
			"0.015": 0.294857127066,
			"0.016": 0.444798849132,
			"0.017": 0.0154907941676,
			"0.018": 0.0,
			"0.019": 0.0,
			"0.02": 0.0,
			"0.021": 0.0,
			"0.022": 0.0,
			"0.023": 0.0,
			"0.024": 0.0,
			"0.025": 0.0
		}
	}
}
