{
	 "smiles": "CC(C)CCCCCOC(=O)C1=CC=CC=C1C(=O)OCCCCCC(C)C", 
	 "Tm": 269.15, 
	 "num_atms": 66, 
	 "gaussian": { 
		 "optdone": 1, 
		 "sigma_profile": "yes", 
		 "theory": "DFT", 
		 "functional": "B3LYP", 
		 "basiset": "6-31G**", 
		 "properties": { 
			 "R2extent": 15740.0035, 
			 "electric_dipole_moment_norm": 3.5507061354, 
			 "electric_quadrupole_moment_norm": 22.8401398987, 
			 "total_energy": -1238.41426012, 
			 "HOMO_LUMO_gap": 0.20252, 
			 "cosmo_polarized_energy": -12.51, 
			 "cosmo_cavitation_energy": 66.02, 
			 "cosmo_dispersion_energy": -39.69, 
			 "cosmo_repulsion_energy": 3.14, 
			 "cosmo_total_nonelectrostatic_energy": 29.47, 
			 "SMD_solvation_energy": 11.4 
		},
		"coords": [
			{
				"x": -0.2997644007,
				"y": 4.9909030426,
				"z": -3.6519449682,
				"element": "C" 
			},
			{
				"x": 1.0307751648,
				"y": 4.3902377941,
				"z": -3.1746671583,
				"element": "C" 
			},
			{
				"x": 2.1407663054,
				"y": 4.6569919752,
				"z": -4.2021428146,
				"element": "C" 
			},
			{
				"x": 0.8598374953,
				"y": 2.8923653794,
				"z": -2.8443974456,
				"element": "C" 
			},
			{
				"x": 2.0949154501,
				"y": 2.2021865511,
				"z": -2.216843854,
				"element": "C" 
			},
			{
				"x": 2.9517538873,
				"y": 1.3603780868,
				"z": -3.1831749091,
				"element": "C" 
			},
			{
				"x": 2.2918081323,
				"y": 0.0952603589,
				"z": -3.7630663731,
				"element": "C" 
			},
			{
				"x": 1.999604621,
				"y": -1.0242619275,
				"z": -2.7723708328,
				"element": "C" 
			},
			{
				"x": 0.8489471137,
				"y": -0.6583776429,
				"z": -1.972270442,
				"element": "O" 
			},
			{
				"x": 0.4383459685,
				"y": -1.5829685446,
				"z": -1.075905918,
				"element": "C" 
			},
			{
				"x": 0.9969843935,
				"y": -2.6489052296,
				"z": -0.9128507336,
				"element": "O" 
			},
			{
				"x": -0.8035896283,
				"y": -1.1527042948,
				"z": -0.3604105777,
				"element": "C" 
			},
			{
				"x": -1.7195608841,
				"y": -0.310231048,
				"z": -1.0043722065,
				"element": "C" 
			},
			{
				"x": -2.946816114,
				"y": -0.0097449594,
				"z": -0.4150160083,
				"element": "C" 
			},
			{
				"x": -3.2768603394,
				"y": -0.5609624616,
				"z": 0.8232927769,
				"element": "C" 
			},
			{
				"x": -2.3704052254,
				"y": -1.3966419377,
				"z": 1.4749115645,
				"element": "C" 
			},
			{
				"x": -1.1266027952,
				"y": -1.6835418444,
				"z": 0.9049149246,
				"element": "C" 
			},
			{
				"x": -0.1959608255,
				"y": -2.5366203481,
				"z": 1.7181945714,
				"element": "C" 
			},
			{
				"x": -0.5383443324,
				"y": -3.5542159968,
				"z": 2.2830568526,
				"element": "O" 
			},
			{
				"x": 1.0273213298,
				"y": -1.9860451494,
				"z": 1.8218748684,
				"element": "O" 
			},
			{
				"x": 2.0226844049,
				"y": -2.7852000534,
				"z": 2.5042587063,
				"element": "C" 
			},
			{
				"x": 3.338879059,
				"y": -2.0211816489,
				"z": 2.4652163611,
				"element": "C" 
			},
			{
				"x": 3.3050942182,
				"y": -0.6353545064,
				"z": 3.1303945466,
				"element": "C" 
			},
			{
				"x": 3.0732700202,
				"y": -0.6630188777,
				"z": 4.6501104283,
				"element": "C" 
			},
			{
				"x": 3.0159032244,
				"y": 0.7344059264,
				"z": 5.3102109741,
				"element": "C" 
			},
			{
				"x": 1.6158806088,
				"y": 1.372392829,
				"z": 5.4844399432,
				"element": "C" 
			},
			{
				"x": 0.8536438533,
				"y": 1.560907807,
				"z": 4.1636124035,
				"element": "C" 
			},
			{
				"x": 0.7567296947,
				"y": 0.6119986311,
				"z": 6.5076942754,
				"element": "C" 
			},
			{
				"x": -1.0927740398,
				"y": 4.8484908893,
				"z": -2.9094284637,
				"element": "H" 
			},
			{
				"x": -0.2069100034,
				"y": 6.0659630549,
				"z": -3.8411287906,
				"element": "H" 
			},
			{
				"x": -0.6301404629,
				"y": 4.5185518159,
				"z": -4.5855285905,
				"element": "H" 
			},
			{
				"x": 1.312256322,
				"y": 4.8995318761,
				"z": -2.2401854855,
				"element": "H" 
			},
			{
				"x": 1.9249316182,
				"y": 4.1527607333,
				"z": -5.1525426504,
				"element": "H" 
			},
			{
				"x": 3.1172480588,
				"y": 4.3083207669,
				"z": -3.8519212518,
				"element": "H" 
			},
			{
				"x": 2.2311298207,
				"y": 5.7288573273,
				"z": -4.4106857364,
				"element": "H" 
			},
			{
				"x": 0.0111124936,
				"y": 2.7977400326,
				"z": -2.1556098214,
				"element": "H" 
			},
			{
				"x": 0.5536193482,
				"y": 2.3652766368,
				"z": -3.7592796778,
				"element": "H" 
			},
			{
				"x": 2.7404617784,
				"y": 2.9669793515,
				"z": -1.7644817487,
				"element": "H" 
			},
			{
				"x": 1.7689738119,
				"y": 1.5611833288,
				"z": -1.3930428924,
				"element": "H" 
			},
			{
				"x": 3.2742678317,
				"y": 1.9858238675,
				"z": -4.0243793677,
				"element": "H" 
			},
			{
				"x": 3.8717989985,
				"y": 1.0578706382,
				"z": -2.6637349636,
				"element": "H" 
			},
			{
				"x": 1.3642022023,
				"y": 0.3433279234,
				"z": -4.293065044,
				"element": "H" 
			},
			{
				"x": 2.9666941662,
				"y": -0.3269695116,
				"z": -4.5188998766,
				"element": "H" 
			},
			{
				"x": 1.7737179625,
				"y": -1.9639569351,
				"z": -3.2862560176,
				"element": "H" 
			},
			{
				"x": 2.8465633906,
				"y": -1.2120661952,
				"z": -2.1032226468,
				"element": "H" 
			},
			{
				"x": -1.4671969834,
				"y": 0.0899239352,
				"z": -1.9795413699,
				"element": "H" 
			},
			{
				"x": -3.6474336169,
				"y": 0.6415566502,
				"z": -0.9289096573,
				"element": "H" 
			},
			{
				"x": -4.2363874153,
				"y": -0.341816656,
				"z": 1.2821401574,
				"element": "H" 
			},
			{
				"x": -2.612349427,
				"y": -1.832557472,
				"z": 2.4386139934,
				"element": "H" 
			},
			{
				"x": 2.1032046411,
				"y": -3.747453733,
				"z": 1.9899660435,
				"element": "H" 
			},
			{
				"x": 1.6772667438,
				"y": -2.980715084,
				"z": 3.5237315533,
				"element": "H" 
			},
			{
				"x": 4.0974473995,
				"y": -2.6524024874,
				"z": 2.9480663849,
				"element": "H" 
			},
			{
				"x": 3.6412503176,
				"y": -1.9151260044,
				"z": 1.416583177,
				"element": "H" 
			},
			{
				"x": 4.2616371588,
				"y": -0.1335103044,
				"z": 2.9331076511,
				"element": "H" 
			},
			{
				"x": 2.5368291083,
				"y": -0.0303441621,
				"z": 2.6393639858,
				"element": "H" 
			},
			{
				"x": 2.1549562263,
				"y": -1.2164014794,
				"z": 4.8812106109,
				"element": "H" 
			},
			{
				"x": 3.8865084265,
				"y": -1.2420566334,
				"z": 5.1077767287,
				"element": "H" 
			},
			{
				"x": 3.4709697901,
				"y": 0.6752347428,
				"z": 6.307292825,
				"element": "H" 
			},
			{
				"x": 3.6492038961,
				"y": 1.4243936301,
				"z": 4.7353927527,
				"element": "H" 
			},
			{
				"x": 1.7952026189,
				"y": 2.3748912932,
				"z": 5.9002159369,
				"element": "H" 
			},
			{
				"x": -0.0814055848,
				"y": 2.1069879426,
				"z": 4.3320129518,
				"element": "H" 
			},
			{
				"x": 0.5918405286,
				"y": 0.6013809532,
				"z": 3.7041318543,
				"element": "H" 
			},
			{
				"x": 1.4436281593,
				"y": 2.1295981342,
				"z": 3.4363259244,
				"element": "H" 
			},
			{
				"x": 1.2735910844,
				"y": 0.5148129031,
				"z": 7.4689982412,
				"element": "H" 
			},
			{
				"x": 0.5080355325,
				"y": -0.3972407337,
				"z": 6.1602390138,
				"element": "H" 
			},
			{
				"x": -0.1892923023,
				"y": 1.1343070542,
				"z": 6.6880253116,
				"element": "H" 
			}
		],
		 "valence_orbital": [ 
			{
				"type": "occ",
				"energy": -0.28829,
				"method": "rhf"
			},
			{
				"type": "occ",
				"energy": -0.27851,
				"method": "rhf"
			},
			{
				"type": "occ",
				"energy": -0.2747,
				"method": "rhf"
			},
			{
				"type": "occ",
				"energy": -0.26331,
				"method": "rhf"
			},
			{
				"type": "occ",
				"energy": -0.25497,
				"method": "rhf"
			},
			{
				"type": "unocc",
				"energy": -0.05245,
				"method": "rhf"
			},
			{
				"type": "unocc",
				"energy": -0.0248,
				"method": "rhf"
			},
			{
				"type": "unocc",
				"energy": 0.03396,
				"method": "rhf"
			},
			{
				"type": "unocc",
				"energy": 0.04839,
				"method": "rhf"
			},
			{
				"type": "unocc",
				"energy": 0.07392,
				"method": "rhf"
			}
		],
		"cosmo_sigma_profile": { 
			"-0.025": 0.0,
			"-0.024": 0.0,
			"-0.023": 0.0,
			"-0.022": 0.0,
			"-0.021": 0.0,
			"-0.02": 0.0,
			"-0.019": 0.0,
			"-0.018": 0.0,
			"-0.017": 0.0,
			"-0.016": 0.0,
			"-0.015": 0.0,
			"-0.014": 0.0,
			"-0.013": 0.0,
			"-0.012": 0.0,
			"-0.011": 0.0,
			"-0.01": 0.0,
			"-0.009": 0.0,
			"-0.008": 0.0866437811208,
			"-0.007": 4.25040339705,
			"-0.006": 9.20739849666,
			"-0.005": 15.2642198138,
			"-0.004": 23.2955732185,
			"-0.003": 36.0030532503,
			"-0.002": 65.101386136,
			"-0.001": 86.7572543403,
			"0.0": 86.9299345357,
			"0.001": 67.9591189224,
			"0.002": 53.4945167791,
			"0.003": 18.552044588,
			"0.004": 7.70579172801,
			"0.005": 7.38693448739,
			"0.006": 4.84256607862,
			"0.007": 3.12795215334,
			"0.008": 2.74126531326,
			"0.009": 3.46762852026,
			"0.01": 3.77557229951,
			"0.011": 5.95492250503,
			"0.012": 5.84388999388,
			"0.013": 0.536736711698,
			"0.014": 0.0,
			"0.015": 0.0,
			"0.016": 0.0,
			"0.017": 0.0,
			"0.018": 0.0,
			"0.019": 0.0,
			"0.02": 0.0,
			"0.021": 0.0,
			"0.022": 0.0,
			"0.023": 0.0,
			"0.024": 0.0,
			"0.025": 0.0
		}
	}
}
