{
	 "smiles": "NNC1=C(Cl)C=C(Cl)C(Cl)=N1", 
	 "Tm": 435.15, 
	 "num_atms": 15, 
	 "gaussian": { 
		 "optdone": 1, 
		 "sigma_profile": "yes", 
		 "theory": "DFT", 
		 "functional": "B3LYP", 
		 "basiset": "6-31G**", 
		 "properties": { 
			 "R2extent": 3262.3209, 
			 "electric_dipole_moment_norm": 1.69473515925, 
			 "electric_quadrupole_moment_norm": 3.90815077882, 
			 "total_energy": -1737.73868626, 
			 "HOMO_LUMO_gap": 0.17871, 
			 "cosmo_polarized_energy": -8.14, 
			 "cosmo_cavitation_energy": 25.04, 
			 "cosmo_dispersion_energy": -19.06, 
			 "cosmo_repulsion_energy": 1.56, 
			 "cosmo_total_nonelectrostatic_energy": 7.54, 
			 "SMD_solvation_energy": 2.96 
		},
		"coords": [
			{
				"x": 2.3466328064,
				"y": -0.9920441427,
				"z": 3.4798649566,
				"element": "N" 
			},
			{
				"x": 2.3401706439,
				"y": -1.1528666112,
				"z": 2.0843226564,
				"element": "N" 
			},
			{
				"x": 1.2279643435,
				"y": -0.9253252785,
				"z": 1.3226232545,
				"element": "C" 
			},
			{
				"x": 1.2717444192,
				"y": -0.923766284,
				"z": -0.0942560012,
				"element": "C" 
			},
			{
				"x": 2.7915961971,
				"y": -1.1844623915,
				"z": -0.9301496002,
				"element": "Cl" 
			},
			{
				"x": 0.1075901133,
				"y": -0.7130843984,
				"z": -0.8066232929,
				"element": "C" 
			},
			{
				"x": -1.0952043873,
				"y": -0.5036124248,
				"z": -0.1187963899,
				"element": "C" 
			},
			{
				"x": -2.5636649601,
				"y": -0.2424273584,
				"z": -1.0201528404,
				"element": "Cl" 
			},
			{
				"x": -1.0436185936,
				"y": -0.5148039684,
				"z": 1.2775958579,
				"element": "C" 
			},
			{
				"x": -2.4908015272,
				"y": -0.253923805,
				"z": 2.2275184485,
				"element": "Cl" 
			},
			{
				"x": 0.0707855838,
				"y": -0.7137590419,
				"z": 1.9625862767,
				"element": "N" 
			},
			{
				"x": 1.8301504725,
				"y": -0.1423519521,
				"z": 3.7102604655,
				"element": "H" 
			},
			{
				"x": 1.8095996859,
				"y": -1.7578338476,
				"z": 3.8841941575,
				"element": "H" 
			},
			{
				"x": 3.2468572923,
				"y": -1.1070977281,
				"z": 1.6455783307,
				"element": "H" 
			},
			{
				"x": 0.1210979102,
				"y": -0.7090407675,
				"z": -1.89026628,
				"element": "H" 
			}
		],
		 "valence_orbital": [ 
			{
				"type": "occ",
				"energy": -0.30683,
				"method": "rhf"
			},
			{
				"type": "occ",
				"energy": -0.29661,
				"method": "rhf"
			},
			{
				"type": "occ",
				"energy": -0.28845,
				"method": "rhf"
			},
			{
				"type": "occ",
				"energy": -0.28273,
				"method": "rhf"
			},
			{
				"type": "occ",
				"energy": -0.22776,
				"method": "rhf"
			},
			{
				"type": "unocc",
				"energy": -0.04905,
				"method": "rhf"
			},
			{
				"type": "unocc",
				"energy": -0.02438,
				"method": "rhf"
			},
			{
				"type": "unocc",
				"energy": -0.00603,
				"method": "rhf"
			},
			{
				"type": "unocc",
				"energy": 0.01885,
				"method": "rhf"
			},
			{
				"type": "unocc",
				"energy": 0.0564,
				"method": "rhf"
			}
		],
		"cosmo_sigma_profile": { 
			"-0.025": 0.0,
			"-0.024": 0.0,
			"-0.023": 0.0,
			"-0.022": 0.0,
			"-0.021": 0.0,
			"-0.02": 0.0,
			"-0.019": 0.0,
			"-0.018": 0.0,
			"-0.017": 0.0,
			"-0.016": 0.0,
			"-0.015": 0.0,
			"-0.014": 0.0587820551957,
			"-0.013": 0.671504781014,
			"-0.012": 0.760616369641,
			"-0.011": 2.84294060008,
			"-0.01": 3.88541570253,
			"-0.009": 4.52188472063,
			"-0.008": 4.18346658712,
			"-0.007": 4.72561644971,
			"-0.006": 5.22817260362,
			"-0.005": 4.01598408384,
			"-0.004": 6.32985497551,
			"-0.003": 11.1250615145,
			"-0.002": 15.9270820081,
			"-0.001": 23.2809572096,
			"0.0": 21.6106746768,
			"0.001": 16.9694597063,
			"0.002": 17.5241300514,
			"0.003": 21.9678210883,
			"0.004": 21.9811367834,
			"0.005": 7.42188367963,
			"0.006": 2.55871827291,
			"0.007": 1.07776883491,
			"0.008": 2.70943168082,
			"0.009": 1.6515198262,
			"0.01": 0.6470847389,
			"0.011": 0.591282175727,
			"0.012": 0.595827281689,
			"0.013": 0.697384245852,
			"0.014": 0.665886478796,
			"0.015": 0.746944693639,
			"0.016": 0.360322241432,
			"0.017": 0.0776171591971,
			"0.018": 0.0,
			"0.019": 0.0,
			"0.02": 0.0,
			"0.021": 0.0,
			"0.022": 0.0,
			"0.023": 0.0,
			"0.024": 0.0,
			"0.025": 0.0
		}
	}
}
