{
	 "smiles": "ON=CC1=CC=CS1", 
	 "Tm": 407.15, 
	 "num_atms": 13, 
	 "gaussian": { 
		 "optdone": 1, 
		 "sigma_profile": "yes", 
		 "theory": "DFT", 
		 "functional": "B3LYP", 
		 "basiset": "6-31G**", 
		 "properties": { 
			 "R2extent": 1583.0627, 
			 "electric_dipole_moment_norm": 1.17954249606, 
			 "electric_quadrupole_moment_norm": 8.91866334716, 
			 "total_energy": -721.628145992, 
			 "HOMO_LUMO_gap": 0.17385, 
			 "cosmo_polarized_energy": -7.8, 
			 "cosmo_cavitation_energy": 18.97, 
			 "cosmo_dispersion_energy": -14.9, 
			 "cosmo_repulsion_energy": 1.19, 
			 "cosmo_total_nonelectrostatic_energy": 5.26, 
			 "SMD_solvation_energy": 3.49 
		},
		"coords": [
			{
				"x": 0.0557072454,
				"y": 0.8670691121,
				"z": 3.2331204893,
				"element": "O" 
			},
			{
				"x": -0.2818038543,
				"y": 2.1615197323,
				"z": 2.8188969061,
				"element": "N" 
			},
			{
				"x": -0.1579751765,
				"y": 2.3276888408,
				"z": 1.5474060309,
				"element": "C" 
			},
			{
				"x": 0.2653239079,
				"y": 1.4053048391,
				"z": 0.5102539329,
				"element": "C" 
			},
			{
				"x": 0.6617748997,
				"y": 0.0818442851,
				"z": 0.5589787824,
				"element": "C" 
			},
			{
				"x": 0.9981759647,
				"y": -0.44820318,
				"z": -0.7162254722,
				"element": "C" 
			},
			{
				"x": 0.8597989433,
				"y": 0.4631397689,
				"z": -1.7310037335,
				"element": "C" 
			},
			{
				"x": 0.3134674112,
				"y": 1.9929262199,
				"z": -1.1452828709,
				"element": "S" 
			},
			{
				"x": -0.0900902984,
				"y": 0.9160793723,
				"z": 4.1869468606,
				"element": "H" 
			},
			{
				"x": -0.42291142,
				"y": 3.3371131924,
				"z": 1.2366279582,
				"element": "H" 
			},
			{
				"x": 0.7039818427,
				"y": -0.4734271069,
				"z": 1.4841080982,
				"element": "H" 
			},
			{
				"x": 1.3305576697,
				"y": -1.4677898569,
				"z": -0.8751830118,
				"element": "H" 
			},
			{
				"x": 1.0473928644,
				"y": 0.322734781,
				"z": -2.7865439701,
				"element": "H" 
			}
		],
		 "valence_orbital": [ 
			{
				"type": "occ",
				"energy": -0.34883,
				"method": "rhf"
			},
			{
				"type": "occ",
				"energy": -0.28815,
				"method": "rhf"
			},
			{
				"type": "occ",
				"energy": -0.27574,
				"method": "rhf"
			},
			{
				"type": "occ",
				"energy": -0.25613,
				"method": "rhf"
			},
			{
				"type": "occ",
				"energy": -0.22139,
				"method": "rhf"
			},
			{
				"type": "unocc",
				"energy": -0.04754,
				"method": "rhf"
			},
			{
				"type": "unocc",
				"energy": 0.02,
				"method": "rhf"
			},
			{
				"type": "unocc",
				"energy": 0.03126,
				"method": "rhf"
			},
			{
				"type": "unocc",
				"energy": 0.07375,
				"method": "rhf"
			},
			{
				"type": "unocc",
				"energy": 0.0963,
				"method": "rhf"
			}
		],
		"cosmo_sigma_profile": { 
			"-0.025": 0.0,
			"-0.024": 0.0,
			"-0.023": 0.0,
			"-0.022": 0.0,
			"-0.021": 0.0,
			"-0.02": 0.0,
			"-0.019": 0.0,
			"-0.018": 0.238275127568,
			"-0.017": 0.990398371961,
			"-0.016": 1.07972545842,
			"-0.015": 0.630902295192,
			"-0.014": 0.58611690697,
			"-0.013": 1.08988347274,
			"-0.012": 0.861471667675,
			"-0.011": 0.644859557423,
			"-0.01": 0.207858022911,
			"-0.009": 2.59926410084,
			"-0.008": 4.99362586193,
			"-0.007": 6.17596611802,
			"-0.006": 6.14597460517,
			"-0.005": 7.22515789684,
			"-0.004": 7.10974726988,
			"-0.003": 7.23829381139,
			"-0.002": 7.6391977709,
			"-0.001": 6.46907800693,
			"0.0": 9.79797991318,
			"0.001": 8.92599956307,
			"0.002": 12.8693349032,
			"0.003": 18.3349873935,
			"0.004": 18.1042594502,
			"0.005": 7.81819409362,
			"0.006": 4.09827205361,
			"0.007": 3.53346993425,
			"0.008": 2.60127261812,
			"0.009": 2.37162760545,
			"0.01": 1.09604887812,
			"0.011": 0.697416278042,
			"0.012": 0.98000131687,
			"0.013": 1.02880364659,
			"0.014": 0.196947352422,
			"0.015": 0.0,
			"0.016": 0.0,
			"0.017": 0.0,
			"0.018": 0.0,
			"0.019": 0.0,
			"0.02": 0.0,
			"0.021": 0.0,
			"0.022": 0.0,
			"0.023": 0.0,
			"0.024": 0.0,
			"0.025": 0.0
		}
	}
}
