{
	 "smiles": "COC1=C(OC)C=C2C(Cl)=NC(=NC2=C1)C1=CC=CC=C1", 
	 "Tm": 406.15, 
	 "num_atms": 34, 
	 "gaussian": { 
		 "optdone": 1, 
		 "sigma_profile": "yes", 
		 "theory": "DFT", 
		 "functional": "B3LYP", 
		 "basiset": "6-31G**", 
		 "properties": { 
			 "R2extent": 8885.6567, 
			 "electric_dipole_moment_norm": 3.1829699653, 
			 "electric_quadrupole_moment_norm": 18.6290927195, 
			 "total_energy": -1337.66830205, 
			 "HOMO_LUMO_gap": 0.15414, 
			 "cosmo_polarized_energy": -9.24, 
			 "cosmo_cavitation_energy": 40.13, 
			 "cosmo_dispersion_energy": -29.14, 
			 "cosmo_repulsion_energy": 2.22, 
			 "cosmo_total_nonelectrostatic_energy": 13.21, 
			 "SMD_solvation_energy": 5.65 
		},
		"coords": [
			{
				"x": -1.4166756004,
				"y": -2.8035686797,
				"z": 4.041099658,
				"element": "C" 
			},
			{
				"x": -0.2389219494,
				"y": -2.3680301259,
				"z": 3.3432579293,
				"element": "O" 
			},
			{
				"x": -0.423933597,
				"y": -2.0355306939,
				"z": 2.0273381417,
				"element": "C" 
			},
			{
				"x": -0.7327292792,
				"y": -3.0447467682,
				"z": 1.0569084303,
				"element": "C" 
			},
			{
				"x": -0.8989477843,
				"y": -4.3525809308,
				"z": 1.4388411327,
				"element": "O" 
			},
			{
				"x": 0.3060204209,
				"y": -5.0280038092,
				"z": 1.8306630541,
				"element": "C" 
			},
			{
				"x": -0.9066904333,
				"y": -2.7000485134,
				"z": -0.2652505319,
				"element": "C" 
			},
			{
				"x": -0.762198889,
				"y": -1.3554537557,
				"z": -0.6764273312,
				"element": "C" 
			},
			{
				"x": -0.9084322345,
				"y": -0.8579895476,
				"z": -2.0009441836,
				"element": "C" 
			},
			{
				"x": -1.3302429067,
				"y": -1.9794137896,
				"z": -3.2988803858,
				"element": "Cl" 
			},
			{
				"x": -0.7510312674,
				"y": 0.3847393212,
				"z": -2.3350703586,
				"element": "N" 
			},
			{
				"x": -0.4226703221,
				"y": 1.2741739764,
				"z": -1.3421622562,
				"element": "C" 
			},
			{
				"x": -0.253537801,
				"y": 0.9542787995,
				"z": -0.0717755954,
				"element": "N" 
			},
			{
				"x": -0.4165731896,
				"y": -0.3484317045,
				"z": 0.2795545913,
				"element": "C" 
			},
			{
				"x": -0.2599618926,
				"y": -0.7245047794,
				"z": 1.6371153542,
				"element": "C" 
			},
			{
				"x": -0.2512769247,
				"y": 2.6871456285,
				"z": -1.7537639071,
				"element": "C" 
			},
			{
				"x": 0.0859424874,
				"y": 3.6634549421,
				"z": -0.8016367514,
				"element": "C" 
			},
			{
				"x": 0.2476739147,
				"y": 4.9917880722,
				"z": -1.1850889644,
				"element": "C" 
			},
			{
				"x": 0.0754808343,
				"y": 5.3641291892,
				"z": -2.5215150667,
				"element": "C" 
			},
			{
				"x": -0.2597648852,
				"y": 4.3984394839,
				"z": -3.4729775005,
				"element": "C" 
			},
			{
				"x": -0.4227380942,
				"y": 3.0672054404,
				"z": -3.0943313285,
				"element": "C" 
			},
			{
				"x": -2.1576643,
				"y": -1.9962200251,
				"z": 4.0795885254,
				"element": "H" 
			},
			{
				"x": -1.8567941144,
				"y": -3.6861294227,
				"z": 3.5687977643,
				"element": "H" 
			},
			{
				"x": -1.0932290654,
				"y": -3.0460413324,
				"z": 5.0546703283,
				"element": "H" 
			},
			{
				"x": 0.7846440784,
				"y": -4.5286701907,
				"z": 2.6783416736,
				"element": "H" 
			},
			{
				"x": 0.0077760723,
				"y": -6.038318951,
				"z": 2.1159480474,
				"element": "H" 
			},
			{
				"x": 1.0076995667,
				"y": -5.0798052299,
				"z": 0.9894619762,
				"element": "H" 
			},
			{
				"x": -1.1494646385,
				"y": -3.4742700933,
				"z": -0.9833005369,
				"element": "H" 
			},
			{
				"x": -0.0161469478,
				"y": 0.0352524107,
				"z": 2.3706313777,
				"element": "H" 
			},
			{
				"x": 0.2164929064,
				"y": 3.3606078542,
				"z": 0.2310514757,
				"element": "H" 
			},
			{
				"x": 0.5085942734,
				"y": 5.7394261771,
				"z": -0.4414487834,
				"element": "H" 
			},
			{
				"x": 0.2021564418,
				"y": 6.4013978984,
				"z": -2.8187529159,
				"element": "H" 
			},
			{
				"x": -0.3946656703,
				"y": 4.682414914,
				"z": -4.5127166097,
				"element": "H" 
			},
			{
				"x": -0.6826892093,
				"y": 2.3099042351,
				"z": -3.824926453,
				"element": "H" 
			}
		],
		 "valence_orbital": [ 
			{
				"type": "occ",
				"energy": -0.26664,
				"method": "rhf"
			},
			{
				"type": "occ",
				"energy": -0.25727,
				"method": "rhf"
			},
			{
				"type": "occ",
				"energy": -0.25503,
				"method": "rhf"
			},
			{
				"type": "occ",
				"energy": -0.24787,
				"method": "rhf"
			},
			{
				"type": "occ",
				"energy": -0.22589,
				"method": "rhf"
			},
			{
				"type": "unocc",
				"energy": -0.07175,
				"method": "rhf"
			},
			{
				"type": "unocc",
				"energy": -0.04913,
				"method": "rhf"
			},
			{
				"type": "unocc",
				"energy": -0.00056,
				"method": "rhf"
			},
			{
				"type": "unocc",
				"energy": 0.00688,
				"method": "rhf"
			},
			{
				"type": "unocc",
				"energy": 0.02167,
				"method": "rhf"
			}
		],
		"cosmo_sigma_profile": { 
			"-0.025": 0.0,
			"-0.024": 0.0,
			"-0.023": 0.0,
			"-0.022": 0.0,
			"-0.021": 0.0,
			"-0.02": 0.0,
			"-0.019": 0.0,
			"-0.018": 0.0,
			"-0.017": 0.0,
			"-0.016": 0.0,
			"-0.015": 0.0,
			"-0.014": 0.0,
			"-0.013": 0.0,
			"-0.012": 0.0,
			"-0.011": 0.0,
			"-0.01": 0.0,
			"-0.009": 0.0,
			"-0.008": 0.0885147020498,
			"-0.007": 2.12425735162,
			"-0.006": 11.1287694203,
			"-0.005": 19.5032859495,
			"-0.004": 29.4099114903,
			"-0.003": 36.4997876081,
			"-0.002": 31.51792646,
			"-0.001": 29.4807242281,
			"0.0": 27.5568726862,
			"0.001": 27.2539066853,
			"0.002": 24.1612862005,
			"0.003": 22.8623894561,
			"0.004": 22.3559102333,
			"0.005": 17.663162768,
			"0.006": 5.29087698102,
			"0.007": 5.080224133,
			"0.008": 5.41793525099,
			"0.009": 3.83598728613,
			"0.01": 2.24728112259,
			"0.011": 1.17827493,
			"0.012": 0.0,
			"0.013": 0.0,
			"0.014": 0.0,
			"0.015": 0.0,
			"0.016": 0.0,
			"0.017": 0.0,
			"0.018": 0.0,
			"0.019": 0.0,
			"0.02": 0.0,
			"0.021": 0.0,
			"0.022": 0.0,
			"0.023": 0.0,
			"0.024": 0.0,
			"0.025": 0.0
		}
	}
}
