{
	 "smiles": "ClS(=O)(=O)C1=C(Br)C=CS1", 
	 "Tm": 313.35, 
	 "num_atms": 12, 
	 "gaussian": { 
		 "optdone": 1, 
		 "sigma_profile": "yes", 
		 "theory": "DFT", 
		 "functional": "B3LYP", 
		 "basiset": "6-31G**", 
		 "properties": { 
			 "R2extent": 3415.3844, 
			 "electric_dipole_moment_norm": 5.49085066634, 
			 "electric_quadrupole_moment_norm": 10.4201807883, 
			 "total_energy": -4131.94571519, 
			 "HOMO_LUMO_gap": 0.1745, 
			 "cosmo_polarized_energy": -8.75, 
			 "cosmo_cavitation_energy": 24.07, 
			 "cosmo_dispersion_energy": -18.93, 
			 "cosmo_repulsion_energy": 1.44, 
			 "cosmo_total_nonelectrostatic_energy": 6.57, 
			 "SMD_solvation_energy": 1.83 
		},
		"coords": [
			{
				"x": -0.0332633492,
				"y": -3.5559126214,
				"z": 1.4377919643,
				"element": "Cl" 
			},
			{
				"x": 0.5250820517,
				"y": -1.5172108938,
				"z": 1.6500902543,
				"element": "S" 
			},
			{
				"x": 1.7811843497,
				"y": -1.3641527766,
				"z": 0.934635515,
				"element": "O" 
			},
			{
				"x": 0.3813481089,
				"y": -1.1986175282,
				"z": 3.0651757132,
				"element": "O" 
			},
			{
				"x": -0.7765131902,
				"y": -0.6876906952,
				"z": 0.8020991734,
				"element": "C" 
			},
			{
				"x": -1.008325843,
				"y": -0.5599796055,
				"z": -0.5511850638,
				"element": "C" 
			},
			{
				"x": 0.0500281241,
				"y": -1.2896564016,
				"z": -1.9248420499,
				"element": "Br" 
			},
			{
				"x": -2.1826810824,
				"y": 0.1916383156,
				"z": -0.8330920722,
				"element": "C" 
			},
			{
				"x": -2.8165048785,
				"y": 0.6051665962,
				"z": 0.3079748038,
				"element": "C" 
			},
			{
				"x": -2.0123383902,
				"y": 0.0998328998,
				"z": 1.7467664295,
				"element": "S" 
			},
			{
				"x": -2.5215226244,
				"y": 0.4065066849,
				"z": -1.8381956159,
				"element": "H" 
			},
			{
				"x": -3.7176932765,
				"y": 1.1992760258,
				"z": 0.3820809483,
				"element": "H" 
			}
		],
		 "valence_orbital": [ 
			{
				"type": "occ",
				"energy": -0.33812,
				"method": "rhf"
			},
			{
				"type": "occ",
				"energy": -0.31765,
				"method": "rhf"
			},
			{
				"type": "occ",
				"energy": -0.30991,
				"method": "rhf"
			},
			{
				"type": "occ",
				"energy": -0.28829,
				"method": "rhf"
			},
			{
				"type": "occ",
				"energy": -0.27391,
				"method": "rhf"
			},
			{
				"type": "unocc",
				"energy": -0.09941,
				"method": "rhf"
			},
			{
				"type": "unocc",
				"energy": -0.05963,
				"method": "rhf"
			},
			{
				"type": "unocc",
				"energy": -0.03509,
				"method": "rhf"
			},
			{
				"type": "unocc",
				"energy": 0.00486,
				"method": "rhf"
			},
			{
				"type": "unocc",
				"energy": 0.0121,
				"method": "rhf"
			}
		],
		"cosmo_sigma_profile": { 
			"-0.025": 0.0,
			"-0.024": 0.0,
			"-0.023": 0.0,
			"-0.022": 0.0,
			"-0.021": 0.0,
			"-0.02": 0.0,
			"-0.019": 0.0,
			"-0.018": 0.0,
			"-0.017": 0.0,
			"-0.016": 0.0,
			"-0.015": 0.0,
			"-0.014": 0.0,
			"-0.013": 0.0,
			"-0.012": 0.394498615522,
			"-0.011": 2.73692018023,
			"-0.01": 3.26435757576,
			"-0.009": 3.42357254052,
			"-0.008": 4.50780752248,
			"-0.007": 5.27888987696,
			"-0.006": 5.54869088851,
			"-0.005": 7.48706139051,
			"-0.004": 7.68502556144,
			"-0.003": 9.95091717623,
			"-0.002": 18.9051876927,
			"-0.001": 20.5170564865,
			"0.0": 21.7961412786,
			"0.001": 18.3688307673,
			"0.002": 19.9567570879,
			"0.003": 17.1459736601,
			"0.004": 7.18252039146,
			"0.005": 5.25962890018,
			"0.006": 4.69658001968,
			"0.007": 9.96963681045,
			"0.008": 7.78572309968,
			"0.009": 0.668870308352,
			"0.01": 0.0,
			"0.011": 0.0,
			"0.012": 0.0,
			"0.013": 0.0,
			"0.014": 0.0,
			"0.015": 0.0,
			"0.016": 0.0,
			"0.017": 0.0,
			"0.018": 0.0,
			"0.019": 0.0,
			"0.02": 0.0,
			"0.021": 0.0,
			"0.022": 0.0,
			"0.023": 0.0,
			"0.024": 0.0,
			"0.025": 0.0
		}
	}
}
