{
	 "smiles": "COP(=O)(OC)OC", 
	 "Tm": 227.15, 
	 "num_atms": 17, 
	 "gaussian": { 
		 "optdone": 1, 
		 "sigma_profile": "yes", 
		 "theory": "DFT", 
		 "functional": "B3LYP", 
		 "basiset": "6-31G**", 
		 "properties": { 
			 "R2extent": 1381.8912, 
			 "electric_dipole_moment_norm": 0.729350567286, 
			 "electric_quadrupole_moment_norm": 12.1354527225, 
			 "total_energy": -762.051339245, 
			 "HOMO_LUMO_gap": 0.34234, 
			 "cosmo_polarized_energy": -10.94, 
			 "cosmo_cavitation_energy": 22.42, 
			 "cosmo_dispersion_energy": -16.35, 
			 "cosmo_repulsion_energy": 1.35, 
			 "cosmo_total_nonelectrostatic_energy": 7.41, 
			 "SMD_solvation_energy": 7.98 
		},
		"coords": [
			{
				"x": 1.5645970557,
				"y": -1.1720576988,
				"z": 2.1813385129,
				"element": "C" 
			},
			{
				"x": 0.863635301,
				"y": -1.3787035623,
				"z": 0.9406705731,
				"element": "O" 
			},
			{
				"x": 0.8506943221,
				"y": -0.1920264248,
				"z": -0.1422573123,
				"element": "P" 
			},
			{
				"x": 0.5933240371,
				"y": 1.1707184425,
				"z": 0.3798454006,
				"element": "O" 
			},
			{
				"x": 2.2543513212,
				"y": -0.4140094498,
				"z": -0.8915863093,
				"element": "O" 
			},
			{
				"x": 2.698740457,
				"y": 0.5811108811,
				"z": -1.8326370496,
				"element": "C" 
			},
			{
				"x": -0.1948059475,
				"y": -0.7474965446,
				"z": -1.2282542523,
				"element": "O" 
			},
			{
				"x": -1.6019441312,
				"y": -0.5512812687,
				"z": -0.9941246814,
				"element": "C" 
			},
			{
				"x": 1.2636549994,
				"y": -1.9830828103,
				"z": 2.8458006261,
				"element": "H" 
			},
			{
				"x": 1.2949951823,
				"y": -0.20774947,
				"z": 2.6200525529,
				"element": "H" 
			},
			{
				"x": 2.6453325967,
				"y": -1.2161215554,
				"z": 2.0153033407,
				"element": "H" 
			},
			{
				"x": 3.7463934947,
				"y": 0.3621968203,
				"z": -2.0432235509,
				"element": "H" 
			},
			{
				"x": 2.1169257453,
				"y": 0.512019632,
				"z": -2.756881312,
				"element": "H" 
			},
			{
				"x": 2.6029230911,
				"y": 1.5835376778,
				"z": -1.4071959836,
				"element": "H" 
			},
			{
				"x": -1.8040233138,
				"y": 0.4841871969,
				"z": -0.7077596787,
				"element": "H" 
			},
			{
				"x": -1.9514551205,
				"y": -1.2292648316,
				"z": -0.2094697072,
				"element": "H" 
			},
			{
				"x": -2.1075390907,
				"y": -0.7860770344,
				"z": -1.931721169,
				"element": "H" 
			}
		],
		 "valence_orbital": [ 
			{
				"type": "occ",
				"energy": -0.32213,
				"method": "rhf"
			},
			{
				"type": "occ",
				"energy": -0.3221,
				"method": "rhf"
			},
			{
				"type": "occ",
				"energy": -0.31134,
				"method": "rhf"
			},
			{
				"type": "occ",
				"energy": -0.28386,
				"method": "rhf"
			},
			{
				"type": "occ",
				"energy": -0.28383,
				"method": "rhf"
			},
			{
				"type": "unocc",
				"energy": 0.05851,
				"method": "rhf"
			},
			{
				"type": "unocc",
				"energy": 0.10008,
				"method": "rhf"
			},
			{
				"type": "unocc",
				"energy": 0.10014,
				"method": "rhf"
			},
			{
				"type": "unocc",
				"energy": 0.10189,
				"method": "rhf"
			},
			{
				"type": "unocc",
				"energy": 0.1336,
				"method": "rhf"
			}
		],
		"cosmo_sigma_profile": { 
			"-0.025": 0.0,
			"-0.024": 0.0,
			"-0.023": 0.0,
			"-0.022": 0.0,
			"-0.021": 0.0,
			"-0.02": 0.0,
			"-0.019": 0.0,
			"-0.018": 0.0,
			"-0.017": 0.0,
			"-0.016": 0.0,
			"-0.015": 0.0,
			"-0.014": 0.0,
			"-0.013": 0.0,
			"-0.012": 0.0,
			"-0.011": 0.0,
			"-0.01": 0.0,
			"-0.009": 0.0,
			"-0.008": 0.0,
			"-0.007": 3.5106322936,
			"-0.006": 14.7471961945,
			"-0.005": 20.3842720901,
			"-0.004": 27.7885854315,
			"-0.003": 19.4226992582,
			"-0.002": 9.59332124578,
			"-0.001": 7.81973471843,
			"0.0": 7.94810936236,
			"0.001": 6.29645003829,
			"0.002": 6.0514048871,
			"0.003": 4.96301251415,
			"0.004": 5.13901831316,
			"0.005": 5.94893369274,
			"0.006": 5.77356910824,
			"0.007": 5.1742112521,
			"0.008": 5.13880764015,
			"0.009": 4.52404398561,
			"0.01": 3.14239583796,
			"0.011": 1.10068822346,
			"0.012": 1.51781570781,
			"0.013": 1.92042349406,
			"0.014": 5.59622980039,
			"0.015": 0.697494462315,
			"0.016": 0.0,
			"0.017": 0.0,
			"0.018": 0.0,
			"0.019": 0.0,
			"0.02": 0.0,
			"0.021": 0.0,
			"0.022": 0.0,
			"0.023": 0.0,
			"0.024": 0.0,
			"0.025": 0.0
		}
	}
}
