{
	 "smiles": "O=C(CC1=CC=C(C=C1)N=CC1=CC=CC=C1)C1=CC=C(C=C1)N=CC1=CC=CC=C1", 
	 "Tm": 454.15, 
	 "num_atms": 53, 
	 "gaussian": { 
		 "optdone": 1, 
		 "sigma_profile": "yes", 
		 "theory": "DFT", 
		 "functional": "B3LYP", 
		 "basiset": "6-31G**", 
		 "properties": { 
			 "R2extent": 21368.0746, 
			 "electric_dipole_moment_norm": 5.18769803381, 
			 "electric_quadrupole_moment_norm": 27.2695878185, 
			 "total_energy": -1264.95058113, 
			 "HOMO_LUMO_gap": 0.15019, 
			 "cosmo_polarized_energy": -17.67, 
			 "cosmo_cavitation_energy": 59.09, 
			 "cosmo_dispersion_energy": -40.22, 
			 "cosmo_repulsion_energy": 3.03, 
			 "cosmo_total_nonelectrostatic_energy": 21.9, 
			 "SMD_solvation_energy": 7.59 
		},
		"coords": [
			{
				"x": -0.4959341404,
				"y": -0.1925267438,
				"z": 4.9689839355,
				"element": "O" 
			},
			{
				"x": -1.0345142501,
				"y": -0.6275828154,
				"z": 3.9577548146,
				"element": "C" 
			},
			{
				"x": -2.255841605,
				"y": 0.1059874652,
				"z": 3.3896199142,
				"element": "C" 
			},
			{
				"x": -1.8683534052,
				"y": 1.1155993695,
				"z": 2.3206034493,
				"element": "C" 
			},
			{
				"x": -2.4709543326,
				"y": 1.1051474695,
				"z": 1.0555663963,
				"element": "C" 
			},
			{
				"x": -2.136413594,
				"y": 2.0529652249,
				"z": 0.0925147112,
				"element": "C" 
			},
			{
				"x": -1.1571936015,
				"y": 3.0236647647,
				"z": 0.3555892371,
				"element": "C" 
			},
			{
				"x": -0.5612869863,
				"y": 3.0471689757,
				"z": 1.630432954,
				"element": "C" 
			},
			{
				"x": -0.9148148723,
				"y": 2.1073730026,
				"z": 2.5940851629,
				"element": "C" 
			},
			{
				"x": -0.8679587722,
				"y": 3.9513242035,
				"z": -0.6593397152,
				"element": "N" 
			},
			{
				"x": 0.323972641,
				"y": 4.3983325817,
				"z": -0.8068878795,
				"element": "C" 
			},
			{
				"x": 0.6699431756,
				"y": 5.4119999866,
				"z": -1.8106368275,
				"element": "C" 
			},
			{
				"x": 2.001564224,
				"y": 5.8401004527,
				"z": -1.9274495439,
				"element": "C" 
			},
			{
				"x": 2.3569369723,
				"y": 6.8020864156,
				"z": -2.8722625856,
				"element": "C" 
			},
			{
				"x": 1.3827824639,
				"y": 7.3453665728,
				"z": -3.7115051384,
				"element": "C" 
			},
			{
				"x": 0.0520705194,
				"y": 6.923822875,
				"z": -3.6024955319,
				"element": "C" 
			},
			{
				"x": -0.3046375942,
				"y": 5.9659352446,
				"z": -2.6599239492,
				"element": "C" 
			},
			{
				"x": -0.5031113987,
				"y": -1.8340962126,
				"z": 3.2651113509,
				"element": "C" 
			},
			{
				"x": -1.0219657118,
				"y": -2.329671099,
				"z": 2.0573018584,
				"element": "C" 
			},
			{
				"x": -0.4837421371,
				"y": -3.4619914227,
				"z": 1.4565203975,
				"element": "C" 
			},
			{
				"x": 0.6075053547,
				"y": -4.1266163651,
				"z": 2.0457417532,
				"element": "C" 
			},
			{
				"x": 1.123685971,
				"y": -3.644523805,
				"z": 3.2662899765,
				"element": "C" 
			},
			{
				"x": 0.5779902878,
				"y": -2.5144455838,
				"z": 3.8546808078,
				"element": "C" 
			},
			{
				"x": 1.075303119,
				"y": -5.3233327493,
				"z": 1.5011117901,
				"element": "N" 
			},
			{
				"x": 2.1062230242,
				"y": -5.4891037096,
				"z": 0.7669467812,
				"element": "C" 
			},
			{
				"x": 3.0974595923,
				"y": -4.5423166476,
				"z": 0.210055591,
				"element": "C" 
			},
			{
				"x": 4.1924675437,
				"y": -5.1090939167,
				"z": -0.4672927517,
				"element": "C" 
			},
			{
				"x": 5.1821737577,
				"y": -4.307904333,
				"z": -1.030896848,
				"element": "C" 
			},
			{
				"x": 5.0871364254,
				"y": -2.9185451846,
				"z": -0.933607885,
				"element": "C" 
			},
			{
				"x": 3.9999214519,
				"y": -2.3405224044,
				"z": -0.2723902869,
				"element": "C" 
			},
			{
				"x": 3.0117418496,
				"y": -3.1397691315,
				"z": 0.2973253101,
				"element": "C" 
			},
			{
				"x": -2.9920077318,
				"y": -0.5973447265,
				"z": 2.9900858367,
				"element": "H" 
			},
			{
				"x": -2.7129440543,
				"y": 0.6194878133,
				"z": 4.2414201508,
				"element": "H" 
			},
			{
				"x": -3.2278787386,
				"y": 0.3582693294,
				"z": 0.8273630406,
				"element": "H" 
			},
			{
				"x": -2.6154016549,
				"y": 2.0530817955,
				"z": -0.8814877452,
				"element": "H" 
			},
			{
				"x": 0.1527322472,
				"y": 3.8276514219,
				"z": 1.8762938439,
				"element": "H" 
			},
			{
				"x": -0.4537373383,
				"y": 2.1411674014,
				"z": 3.5772087453,
				"element": "H" 
			},
			{
				"x": 1.1615396311,
				"y": 4.0338900826,
				"z": -0.1927541407,
				"element": "H" 
			},
			{
				"x": 2.7582873219,
				"y": 5.4149703367,
				"z": -1.272180891,
				"element": "H" 
			},
			{
				"x": 3.390119194,
				"y": 7.1269613648,
				"z": -2.9536293235,
				"element": "H" 
			},
			{
				"x": 1.6567427542,
				"y": 8.09503511,
				"z": -4.4483792181,
				"element": "H" 
			},
			{
				"x": -0.7053593456,
				"y": 7.3475327088,
				"z": -4.2558259571,
				"element": "H" 
			},
			{
				"x": -1.3303248602,
				"y": 5.6269522389,
				"z": -2.5595498558,
				"element": "H" 
			},
			{
				"x": -1.8472061234,
				"y": -1.824811562,
				"z": 1.567053814,
				"element": "H" 
			},
			{
				"x": -0.8948319121,
				"y": -3.8441984705,
				"z": 0.52773023,
				"element": "H" 
			},
			{
				"x": 1.9497881066,
				"y": -4.1708021901,
				"z": 3.7340385724,
				"element": "H" 
			},
			{
				"x": 0.9741800043,
				"y": -2.1280575092,
				"z": 4.7880018649,
				"element": "H" 
			},
			{
				"x": 2.3048564258,
				"y": -6.5293730575,
				"z": 0.486036637,
				"element": "H" 
			},
			{
				"x": 4.2630763421,
				"y": -6.1910949201,
				"z": -0.5467144311,
				"element": "H" 
			},
			{
				"x": 6.0219621592,
				"y": -4.7644698725,
				"z": -1.5461857035,
				"element": "H" 
			},
			{
				"x": 5.8542815061,
				"y": -2.2878641569,
				"z": -1.373483574,
				"element": "H" 
			},
			{
				"x": 3.9204190985,
				"y": -1.2599001128,
				"z": -0.2004323021,
				"element": "H" 
			},
			{
				"x": 2.1753509962,
				"y": -2.6744155057,
				"z": 0.8018431578,
				"element": "H" 
			}
		],
		 "valence_orbital": [ 
			{
				"type": "occ",
				"energy": -0.25308,
				"method": "rhf"
			},
			{
				"type": "occ",
				"energy": -0.249,
				"method": "rhf"
			},
			{
				"type": "occ",
				"energy": -0.24212,
				"method": "rhf"
			},
			{
				"type": "occ",
				"energy": -0.22085,
				"method": "rhf"
			},
			{
				"type": "occ",
				"energy": -0.21263,
				"method": "rhf"
			},
			{
				"type": "unocc",
				"energy": -0.06244,
				"method": "rhf"
			},
			{
				"type": "unocc",
				"energy": -0.05979,
				"method": "rhf"
			},
			{
				"type": "unocc",
				"energy": -0.04649,
				"method": "rhf"
			},
			{
				"type": "unocc",
				"energy": -0.01839,
				"method": "rhf"
			},
			{
				"type": "unocc",
				"energy": -0.00585,
				"method": "rhf"
			}
		],
		"cosmo_sigma_profile": { 
			"-0.025": 0.0,
			"-0.024": 0.0,
			"-0.023": 0.0,
			"-0.022": 0.0,
			"-0.021": 0.0,
			"-0.02": 0.0,
			"-0.019": 0.0,
			"-0.018": 0.0,
			"-0.017": 0.0,
			"-0.016": 0.0,
			"-0.015": 0.0,
			"-0.014": 0.0,
			"-0.013": 0.0,
			"-0.012": 0.0,
			"-0.011": 0.0,
			"-0.01": 0.0,
			"-0.009": 0.107016664215,
			"-0.008": 2.62186207087,
			"-0.007": 11.0349448733,
			"-0.006": 33.4545237441,
			"-0.005": 38.7486205814,
			"-0.004": 40.4621977825,
			"-0.003": 33.5009542654,
			"-0.002": 33.4152262133,
			"-0.001": 30.8965129726,
			"0.0": 31.8181531963,
			"0.001": 34.0656086744,
			"0.002": 38.4481286026,
			"0.003": 44.7820408869,
			"0.004": 43.7354172454,
			"0.005": 24.1915019388,
			"0.006": 5.58242249912,
			"0.007": 4.52022211427,
			"0.008": 3.42015110529,
			"0.009": 3.95614394623,
			"0.01": 4.18835267359,
			"0.011": 4.10548137771,
			"0.012": 4.8098704917,
			"0.013": 2.5046950958,
			"0.014": 0.435839988316,
			"0.015": 0.0,
			"0.016": 0.0,
			"0.017": 0.0,
			"0.018": 0.0,
			"0.019": 0.0,
			"0.02": 0.0,
			"0.021": 0.0,
			"0.022": 0.0,
			"0.023": 0.0,
			"0.024": 0.0,
			"0.025": 0.0
		}
	}
}
