{
	 "smiles": "BrCC1=C2C=CC=CC2=CC=C1", 
	 "Tm": 323.15, 
	 "num_atms": 21, 
	 "gaussian": { 
		 "optdone": 1, 
		 "sigma_profile": "yes", 
		 "theory": "DFT", 
		 "functional": "B3LYP", 
		 "basiset": "6-31G**", 
		 "properties": { 
			 "R2extent": 4684.1093, 
			 "electric_dipole_moment_norm": 2.3712649135, 
			 "electric_quadrupole_moment_norm": 11.4760518394, 
			 "total_energy": -2996.01586731, 
			 "HOMO_LUMO_gap": 0.16532, 
			 "cosmo_polarized_energy": -7.16, 
			 "cosmo_cavitation_energy": 26.38, 
			 "cosmo_dispersion_energy": -19.8, 
			 "cosmo_repulsion_energy": 1.56, 
			 "cosmo_total_nonelectrostatic_energy": 8.14, 
			 "SMD_solvation_energy": 2.98 
		},
		"coords": [
			{
				"x": 2.9891063271,
				"y": -1.5302980596,
				"z": -3.1886925723,
				"element": "Br" 
			},
			{
				"x": 2.3636613272,
				"y": 0.3360966785,
				"z": -2.7621210893,
				"element": "C" 
			},
			{
				"x": 2.2205984345,
				"y": 0.5900961849,
				"z": -1.2986088575,
				"element": "C" 
			},
			{
				"x": 1.088626122,
				"y": 0.1085225151,
				"z": -0.5594776991,
				"element": "C" 
			},
			{
				"x": 0.0675727977,
				"y": -0.6914984578,
				"z": -1.1407948057,
				"element": "C" 
			},
			{
				"x": -1.0105069955,
				"y": -1.1183740744,
				"z": -0.3960687441,
				"element": "C" 
			},
			{
				"x": -1.1238245221,
				"y": -0.7723426587,
				"z": 0.9706957667,
				"element": "C" 
			},
			{
				"x": -0.1470797521,
				"y": -0.0092036341,
				"z": 1.568292376,
				"element": "C" 
			},
			{
				"x": 0.9782302149,
				"y": 0.4465064317,
				"z": 0.8302698039,
				"element": "C" 
			},
			{
				"x": 1.9944656684,
				"y": 1.2285093512,
				"z": 1.4428996828,
				"element": "C" 
			},
			{
				"x": 3.0781347023,
				"y": 1.6648558186,
				"z": 0.7179390493,
				"element": "C" 
			},
			{
				"x": 3.1852014383,
				"y": 1.3433772819,
				"z": -0.6537663353,
				"element": "C" 
			},
			{
				"x": 1.4295821749,
				"y": 0.4276729426,
				"z": -3.3131069683,
				"element": "H" 
			},
			{
				"x": 3.1198253871,
				"y": 0.9750119745,
				"z": -3.212562906,
				"element": "H" 
			},
			{
				"x": 0.149186059,
				"y": -0.9932029554,
				"z": -2.1790771083,
				"element": "H" 
			},
			{
				"x": -1.7772267444,
				"y": -1.7318208619,
				"z": -0.8602708751,
				"element": "H" 
			},
			{
				"x": -1.9789947061,
				"y": -1.1153665139,
				"z": 1.5455906947,
				"element": "H" 
			},
			{
				"x": -0.2208143184,
				"y": 0.2564510951,
				"z": 2.6197425384,
				"element": "H" 
			},
			{
				"x": 1.899099973,
				"y": 1.4752588879,
				"z": 2.4971436714,
				"element": "H" 
			},
			{
				"x": 3.8528201401,
				"y": 2.2610076883,
				"z": 1.1906079374,
				"element": "H" 
			},
			{
				"x": 4.0434362719,
				"y": 1.7008403653,
				"z": -1.2168335597,
				"element": "H" 
			}
		],
		 "valence_orbital": [ 
			{
				"type": "occ",
				"energy": -0.28638,
				"method": "rhf"
			},
			{
				"type": "occ",
				"energy": -0.26833,
				"method": "rhf"
			},
			{
				"type": "occ",
				"energy": -0.26545,
				"method": "rhf"
			},
			{
				"type": "occ",
				"energy": -0.24858,
				"method": "rhf"
			},
			{
				"type": "occ",
				"energy": -0.2203,
				"method": "rhf"
			},
			{
				"type": "unocc",
				"energy": -0.05498,
				"method": "rhf"
			},
			{
				"type": "unocc",
				"energy": -0.01455,
				"method": "rhf"
			},
			{
				"type": "unocc",
				"energy": -0.00482,
				"method": "rhf"
			},
			{
				"type": "unocc",
				"energy": 0.04294,
				"method": "rhf"
			},
			{
				"type": "unocc",
				"energy": 0.08375,
				"method": "rhf"
			}
		],
		"cosmo_sigma_profile": { 
			"-0.025": 0.0,
			"-0.024": 0.0,
			"-0.023": 0.0,
			"-0.022": 0.0,
			"-0.021": 0.0,
			"-0.02": 0.0,
			"-0.019": 0.0,
			"-0.018": 0.0,
			"-0.017": 0.0,
			"-0.016": 0.0,
			"-0.015": 0.0,
			"-0.014": 0.0,
			"-0.013": 0.0,
			"-0.012": 0.0,
			"-0.011": 0.0,
			"-0.01": 0.0,
			"-0.009": 0.0,
			"-0.008": 3.09868609562,
			"-0.007": 6.47255614811,
			"-0.006": 15.8999364782,
			"-0.005": 17.1268944525,
			"-0.004": 18.3027744451,
			"-0.003": 13.5634450608,
			"-0.002": 11.6357727854,
			"-0.001": 10.3643163087,
			"0.0": 11.8037308427,
			"0.001": 11.7231433537,
			"0.002": 13.297884479,
			"0.003": 20.5151141319,
			"0.004": 26.3777928651,
			"0.005": 19.1679912287,
			"0.006": 11.0594639356,
			"0.007": 4.18573558293,
			"0.008": 0.0,
			"0.009": 0.0,
			"0.01": 0.0,
			"0.011": 0.0,
			"0.012": 0.0,
			"0.013": 0.0,
			"0.014": 0.0,
			"0.015": 0.0,
			"0.016": 0.0,
			"0.017": 0.0,
			"0.018": 0.0,
			"0.019": 0.0,
			"0.02": 0.0,
			"0.021": 0.0,
			"0.022": 0.0,
			"0.023": 0.0,
			"0.024": 0.0,
			"0.025": 0.0
		}
	}
}
