{
	 "smiles": "NCCC1=CC=C(C=C1)C1=CC=CC=C1", 
	 "Tm": 327.15, 
	 "num_atms": 30, 
	 "gaussian": { 
		 "optdone": 1, 
		 "sigma_profile": "yes", 
		 "theory": "DFT", 
		 "functional": "B3LYP", 
		 "basiset": "6-31G**", 
		 "properties": { 
			 "R2extent": 5045.8754, 
			 "electric_dipole_moment_norm": 1.21066201312, 
			 "electric_quadrupole_moment_norm": 9.21563049227, 
			 "total_energy": -597.292003556, 
			 "HOMO_LUMO_gap": 0.19242, 
			 "cosmo_polarized_energy": -8.32, 
			 "cosmo_cavitation_energy": 32.8, 
			 "cosmo_dispersion_energy": -23.73, 
			 "cosmo_repulsion_energy": 1.87, 
			 "cosmo_total_nonelectrostatic_energy": 10.94, 
			 "SMD_solvation_energy": 3.92 
		},
		"coords": [
			{
				"x": 1.7707068602,
				"y": 1.4725601971,
				"z": 4.3660903955,
				"element": "N" 
			},
			{
				"x": 1.3708361743,
				"y": 2.6506284338,
				"z": 3.5933203456,
				"element": "C" 
			},
			{
				"x": -0.1085853904,
				"y": 2.555503959,
				"z": 3.1727951934,
				"element": "C" 
			},
			{
				"x": -0.3879267687,
				"y": 1.4099548143,
				"z": 2.2237941682,
				"element": "C" 
			},
			{
				"x": -0.2420307551,
				"y": 1.5666068995,
				"z": 0.8379645103,
				"element": "C" 
			},
			{
				"x": -0.4633543218,
				"y": 0.5059512881,
				"z": -0.0370435621,
				"element": "C" 
			},
			{
				"x": -0.8422097505,
				"y": -0.7607152796,
				"z": 0.4395066943,
				"element": "C" 
			},
			{
				"x": -0.9890423119,
				"y": -0.9173159332,
				"z": 1.8275538848,
				"element": "C" 
			},
			{
				"x": -0.7664165693,
				"y": 0.1464882454,
				"z": 2.7004664771,
				"element": "C" 
			},
			{
				"x": -1.0830029122,
				"y": -1.8919770911,
				"z": -0.4920409038,
				"element": "C" 
			},
			{
				"x": -1.6999865805,
				"y": -1.6848320979,
				"z": -1.7379320362,
				"element": "C" 
			},
			{
				"x": -1.9241723173,
				"y": -2.7466744812,
				"z": -2.6131845375,
				"element": "C" 
			},
			{
				"x": -1.5386666405,
				"y": -4.0417732461,
				"z": -2.2618804321,
				"element": "C" 
			},
			{
				"x": -0.9259808509,
				"y": -4.2640148681,
				"z": -1.0271360369,
				"element": "C" 
			},
			{
				"x": -0.6999343189,
				"y": -3.2013467462,
				"z": -0.1534145674,
				"element": "C" 
			},
			{
				"x": 1.7571519077,
				"y": 0.651749525,
				"z": 3.7647462528,
				"element": "H" 
			},
			{
				"x": 2.729849463,
				"y": 1.5776252309,
				"z": 4.6867758798,
				"element": "H" 
			},
			{
				"x": 1.4922034851,
				"y": 3.5315563475,
				"z": 4.2352006645,
				"element": "H" 
			},
			{
				"x": 1.9825267296,
				"y": 2.8280614937,
				"z": 2.6902542865,
				"element": "H" 
			},
			{
				"x": -0.394134409,
				"y": 3.5030496471,
				"z": 2.7003421475,
				"element": "H" 
			},
			{
				"x": -0.7126266205,
				"y": 2.4442667748,
				"z": 4.0796638895,
				"element": "H" 
			},
			{
				"x": 0.0526403484,
				"y": 2.5344435584,
				"z": 0.4383066385,
				"element": "H" 
			},
			{
				"x": -0.3210801533,
				"y": 0.6545361022,
				"z": -1.1036027661,
				"element": "H" 
			},
			{
				"x": -1.3107703753,
				"y": -1.8753167699,
				"z": 2.2257905462,
				"element": "H" 
			},
			{
				"x": -0.8979294312,
				"y": 0.0009163104,
				"z": 3.7694263883,
				"element": "H" 
			},
			{
				"x": -2.0292115912,
				"y": -0.6862358866,
				"z": -2.0099032481,
				"element": "H" 
			},
			{
				"x": -2.4098940119,
				"y": -2.5630549661,
				"z": -3.5675679628,
				"element": "H" 
			},
			{
				"x": -1.7141458944,
				"y": -4.8693272552,
				"z": -2.9431323377,
				"element": "H" 
			},
			{
				"x": -0.6143274992,
				"y": -5.2662801609,
				"z": -0.7463665667,
				"element": "H" 
			},
			{
				"x": -0.1983854943,
				"y": -3.3817340451,
				"z": 0.7929065948,
				"element": "H" 
			}
		],
		 "valence_orbital": [ 
			{
				"type": "occ",
				"energy": -0.26708,
				"method": "rhf"
			},
			{
				"type": "occ",
				"energy": -0.24851,
				"method": "rhf"
			},
			{
				"type": "occ",
				"energy": -0.24788,
				"method": "rhf"
			},
			{
				"type": "occ",
				"energy": -0.23165,
				"method": "rhf"
			},
			{
				"type": "occ",
				"energy": -0.21732,
				"method": "rhf"
			},
			{
				"type": "unocc",
				"energy": -0.0249,
				"method": "rhf"
			},
			{
				"type": "unocc",
				"energy": -0.00262,
				"method": "rhf"
			},
			{
				"type": "unocc",
				"energy": 0.00182,
				"method": "rhf"
			},
			{
				"type": "unocc",
				"energy": 0.03089,
				"method": "rhf"
			},
			{
				"type": "unocc",
				"energy": 0.09168,
				"method": "rhf"
			}
		],
		"cosmo_sigma_profile": { 
			"-0.025": 0.0,
			"-0.024": 0.0,
			"-0.023": 0.0,
			"-0.022": 0.0,
			"-0.021": 0.0,
			"-0.02": 0.0,
			"-0.019": 0.0,
			"-0.018": 0.0,
			"-0.017": 0.0,
			"-0.016": 0.0,
			"-0.015": 0.0,
			"-0.014": 0.0,
			"-0.013": 0.0,
			"-0.012": 0.0,
			"-0.011": 0.0,
			"-0.01": 0.567082641669,
			"-0.009": 1.38673712195,
			"-0.008": 1.92413829513,
			"-0.007": 2.15904144029,
			"-0.006": 6.78304370889,
			"-0.005": 20.0511066671,
			"-0.004": 22.9818717753,
			"-0.003": 28.9293770004,
			"-0.002": 25.313269117,
			"-0.001": 24.4095514738,
			"0.0": 21.3859140332,
			"0.001": 15.0419839192,
			"0.002": 13.8239867726,
			"0.003": 18.1089952196,
			"0.004": 16.9306099869,
			"0.005": 17.5985950868,
			"0.006": 13.3059239158,
			"0.007": 1.84176377155,
			"0.008": 0.613116639357,
			"0.009": 0.440256597517,
			"0.01": 0.365771392959,
			"0.011": 1.14455977411,
			"0.012": 0.927996931908,
			"0.013": 0.345650067835,
			"0.014": 0.0186333400831,
			"0.015": 0.608704242053,
			"0.016": 0.844308753621,
			"0.017": 0.502256313479,
			"0.018": 0.433284999741,
			"0.019": 0.385320941864,
			"0.02": 0.375937959968,
			"0.021": 0.0309155192726,
			"0.022": 0.0,
			"0.023": 0.0,
			"0.024": 0.0,
			"0.025": 0.0
		}
	}
}
