{
	 "smiles": "OC(=O)C1=CC=C(C=C1)C(F)(F)F", 
	 "Tm": 493.15, 
	 "num_atms": 18, 
	 "gaussian": { 
		 "optdone": 1, 
		 "sigma_profile": "yes", 
		 "theory": "DFT", 
		 "functional": "B3LYP", 
		 "basiset": "6-31G**", 
		 "properties": { 
			 "R2extent": 4214.2641, 
			 "electric_dipole_moment_norm": 1.88413288279, 
			 "electric_quadrupole_moment_norm": 4.8494937942, 
			 "total_energy": -757.85880573, 
			 "HOMO_LUMO_gap": 0.20923, 
			 "cosmo_polarized_energy": -8.58, 
			 "cosmo_cavitation_energy": 24.62, 
			 "cosmo_dispersion_energy": -17.65, 
			 "cosmo_repulsion_energy": 1.33, 
			 "cosmo_total_nonelectrostatic_energy": 8.29, 
			 "SMD_solvation_energy": 6.71 
		},
		"coords": [
			{
				"x": -1.3787272378,
				"y": -1.2507526751,
				"z": 1.9556824104,
				"element": "O" 
			},
			{
				"x": -0.8009287138,
				"y": -2.2164738457,
				"z": 1.2010518005,
				"element": "C" 
			},
			{
				"x": -1.028710517,
				"y": -3.3971942187,
				"z": 1.3705555624,
				"element": "O" 
			},
			{
				"x": 0.1226699406,
				"y": -1.6718466661,
				"z": 0.166655983,
				"element": "C" 
			},
			{
				"x": 0.34565288,
				"y": -0.2968739711,
				"z": 0.0147761359,
				"element": "C" 
			},
			{
				"x": 1.2183114527,
				"y": 0.1603277358,
				"z": -0.9690854747,
				"element": "C" 
			},
			{
				"x": 1.8682671669,
				"y": -0.7544738724,
				"z": -1.8024864613,
				"element": "C" 
			},
			{
				"x": 1.6472675479,
				"y": -2.1275251467,
				"z": -1.6554298727,
				"element": "C" 
			},
			{
				"x": 0.7755120427,
				"y": -2.5838727474,
				"z": -0.6725519163,
				"element": "C" 
			},
			{
				"x": 2.855999617,
				"y": -0.2604883088,
				"z": -2.828130445,
				"element": "C" 
			},
			{
				"x": 4.102466735,
				"y": -0.176254039,
				"z": -2.3100359627,
				"element": "F" 
			},
			{
				"x": 2.926603809,
				"y": -1.0853813164,
				"z": -3.8948992859,
				"element": "F" 
			},
			{
				"x": 2.5338828125,
				"y": 0.9697910546,
				"z": -3.2830460737,
				"element": "F" 
			},
			{
				"x": -1.9521813856,
				"y": -1.7138500317,
				"z": 2.5883383466,
				"element": "H" 
			},
			{
				"x": -0.165115279,
				"y": 0.4053778217,
				"z": 0.66309894,
				"element": "H" 
			},
			{
				"x": 1.3898280928,
				"y": 1.2233325092,
				"z": -1.0977231336,
				"element": "H" 
			},
			{
				"x": 2.1493723098,
				"y": -2.8286815519,
				"z": -2.3128154906,
				"element": "H" 
			},
			{
				"x": 0.5840287263,
				"y": -3.6429607302,
				"z": -0.5395550622,
				"element": "H" 
			}
		],
		 "valence_orbital": [ 
			{
				"type": "occ",
				"energy": -0.36799,
				"method": "rhf"
			},
			{
				"type": "occ",
				"energy": -0.33018,
				"method": "rhf"
			},
			{
				"type": "occ",
				"energy": -0.28838,
				"method": "rhf"
			},
			{
				"type": "occ",
				"energy": -0.28088,
				"method": "rhf"
			},
			{
				"type": "occ",
				"energy": -0.27776,
				"method": "rhf"
			},
			{
				"type": "unocc",
				"energy": -0.06853,
				"method": "rhf"
			},
			{
				"type": "unocc",
				"energy": -0.02674,
				"method": "rhf"
			},
			{
				"type": "unocc",
				"energy": 0.0343,
				"method": "rhf"
			},
			{
				"type": "unocc",
				"energy": 0.06838,
				"method": "rhf"
			},
			{
				"type": "unocc",
				"energy": 0.09819,
				"method": "rhf"
			}
		],
		"cosmo_sigma_profile": { 
			"-0.025": 0.0,
			"-0.024": 0.0,
			"-0.023": 0.0,
			"-0.022": 0.0,
			"-0.021": 0.0,
			"-0.02": 0.0,
			"-0.019": 0.300705485514,
			"-0.018": 0.910198375503,
			"-0.017": 1.20144726464,
			"-0.016": 0.6404050343,
			"-0.015": 0.523896067058,
			"-0.014": 0.362463910989,
			"-0.013": 0.406027455845,
			"-0.012": 1.25551421923,
			"-0.011": 0.935734133687,
			"-0.01": 0.250554881035,
			"-0.009": 0.598499298462,
			"-0.008": 2.58420102258,
			"-0.007": 6.42917087461,
			"-0.006": 8.38452536195,
			"-0.005": 7.14946251889,
			"-0.004": 7.91324377003,
			"-0.003": 9.78824362894,
			"-0.002": 10.3005616255,
			"-0.001": 14.1977525895,
			"0.0": 19.6261121076,
			"0.001": 22.7203260433,
			"0.002": 33.3711593303,
			"0.003": 24.3395252572,
			"0.004": 2.97686852761,
			"0.005": 2.89666771568,
			"0.006": 2.83365504431,
			"0.007": 3.098114465,
			"0.008": 1.2367795818,
			"0.009": 1.43715075551,
			"0.01": 2.46288421474,
			"0.011": 4.71465266944,
			"0.012": 2.01521271629,
			"0.013": 0.0,
			"0.014": 0.0,
			"0.015": 0.0,
			"0.016": 0.0,
			"0.017": 0.0,
			"0.018": 0.0,
			"0.019": 0.0,
			"0.02": 0.0,
			"0.021": 0.0,
			"0.022": 0.0,
			"0.023": 0.0,
			"0.024": 0.0,
			"0.025": 0.0
		}
	}
}
