{
	 "smiles": "CC(C)(C)OC(=O)N1CCC(CC1)C(N)=S", 
	 "Tm": 403.15, 
	 "num_atms": 36, 
	 "gaussian": { 
		 "optdone": 1, 
		 "sigma_profile": "yes", 
		 "theory": "DFT", 
		 "functional": "B3LYP", 
		 "basiset": "6-31G**", 
		 "properties": { 
			 "R2extent": 6754.0943, 
			 "electric_dipole_moment_norm": 4.88430796531, 
			 "electric_quadrupole_moment_norm": 27.1917810145, 
			 "total_energy": -1089.41051518, 
			 "HOMO_LUMO_gap": 0.17767, 
			 "cosmo_polarized_energy": -20.06, 
			 "cosmo_cavitation_energy": 38.1, 
			 "cosmo_dispersion_energy": -26.93, 
			 "cosmo_repulsion_energy": 2.09, 
			 "cosmo_total_nonelectrostatic_energy": 13.26, 
			 "SMD_solvation_energy": 5.71 
		},
		"coords": [
			{
				"x": 3.648573784,
				"y": -0.1089816274,
				"z": 0.347995522,
				"element": "C" 
			},
			{
				"x": 2.8089184821,
				"y": -0.3756706906,
				"z": -0.9061995376,
				"element": "C" 
			},
			{
				"x": 2.7208625385,
				"y": -1.8779448135,
				"z": -1.1897872691,
				"element": "C" 
			},
			{
				"x": 3.3406799201,
				"y": 0.3764512757,
				"z": -2.1312130879,
				"element": "C" 
			},
			{
				"x": 1.4049985938,
				"y": -0.0145122956,
				"z": -0.6625706552,
				"element": "O" 
			},
			{
				"x": 1.0566654756,
				"y": 1.2645206093,
				"z": -0.3661233635,
				"element": "C" 
			},
			{
				"x": 1.830160891,
				"y": 2.2095126487,
				"z": -0.2796713841,
				"element": "O" 
			},
			{
				"x": -0.2956286348,
				"y": 1.3528089021,
				"z": -0.1681758427,
				"element": "N" 
			},
			{
				"x": -1.1988575245,
				"y": 0.2067507129,
				"z": -0.321194033,
				"element": "C" 
			},
			{
				"x": -2.5850449028,
				"y": 0.5378992583,
				"z": 0.2525221701,
				"element": "C" 
			},
			{
				"x": -2.4458422966,
				"y": 1.2835354032,
				"z": 1.5967292623,
				"element": "C" 
			},
			{
				"x": -1.7364688804,
				"y": 2.650588704,
				"z": 1.3750753129,
				"element": "C" 
			},
			{
				"x": -0.9023323137,
				"y": 2.6581064332,
				"z": 0.0816836018,
				"element": "C" 
			},
			{
				"x": -3.799875599,
				"y": 1.4276695588,
				"z": 2.2837761715,
				"element": "C" 
			},
			{
				"x": -3.917122469,
				"y": 0.7405820684,
				"z": 3.4359230119,
				"element": "N" 
			},
			{
				"x": -5.0596006554,
				"y": 2.3236583686,
				"z": 1.661262818,
				"element": "S" 
			},
			{
				"x": 4.6653217005,
				"y": -0.4863723074,
				"z": 0.19719764,
				"element": "H" 
			},
			{
				"x": 3.6952413795,
				"y": 0.9581513238,
				"z": 0.5651584177,
				"element": "H" 
			},
			{
				"x": 3.2186023706,
				"y": -0.6293092604,
				"z": 1.2101090947,
				"element": "H" 
			},
			{
				"x": 3.7168602038,
				"y": -2.2809767444,
				"z": -1.3960556565,
				"element": "H" 
			},
			{
				"x": 2.3035949863,
				"y": -2.4103322858,
				"z": -0.3298222482,
				"element": "H" 
			},
			{
				"x": 2.0827362167,
				"y": -2.0703941127,
				"z": -2.057218113,
				"element": "H" 
			},
			{
				"x": 3.3816422362,
				"y": 1.4490418754,
				"z": -1.9416626684,
				"element": "H" 
			},
			{
				"x": 2.6970715775,
				"y": 0.1927928371,
				"z": -2.99752488,
				"element": "H" 
			},
			{
				"x": 4.3467898037,
				"y": 0.0191158388,
				"z": -2.3740951526,
				"element": "H" 
			},
			{
				"x": -1.289106975,
				"y": -0.0856229425,
				"z": -1.376707441,
				"element": "H" 
			},
			{
				"x": -0.7694155065,
				"y": -0.6489726874,
				"z": 0.2085036621,
				"element": "H" 
			},
			{
				"x": -3.168677648,
				"y": 1.1580453342,
				"z": -0.4341791922,
				"element": "H" 
			},
			{
				"x": -3.143366531,
				"y": -0.3950893173,
				"z": 0.3820371322,
				"element": "H" 
			},
			{
				"x": -1.8021160008,
				"y": 0.665690371,
				"z": 2.2400471155,
				"element": "H" 
			},
			{
				"x": -2.4884237774,
				"y": 3.4420589045,
				"z": 1.312865497,
				"element": "H" 
			},
			{
				"x": -1.0969861987,
				"y": 2.8656063959,
				"z": 2.2375169869,
				"element": "H" 
			},
			{
				"x": -0.0941557408,
				"y": 3.3864766734,
				"z": 0.1370130616,
				"element": "H" 
			},
			{
				"x": -1.5373404168,
				"y": 2.9328969835,
				"z": -0.7713342873,
				"element": "H" 
			},
			{
				"x": -3.1482255075,
				"y": 0.2138986033,
				"z": 3.8239326755,
				"element": "H" 
			},
			{
				"x": -4.7901325812,
				"y": 0.7757200008,
				"z": 3.9429856586,
				"element": "H" 
			}
		],
		 "valence_orbital": [ 
			{
				"type": "occ",
				"energy": -0.28442,
				"method": "rhf"
			},
			{
				"type": "occ",
				"energy": -0.25695,
				"method": "rhf"
			},
			{
				"type": "occ",
				"energy": -0.23307,
				"method": "rhf"
			},
			{
				"type": "occ",
				"energy": -0.23153,
				"method": "rhf"
			},
			{
				"type": "occ",
				"energy": -0.21147,
				"method": "rhf"
			},
			{
				"type": "unocc",
				"energy": -0.0338,
				"method": "rhf"
			},
			{
				"type": "unocc",
				"energy": 0.05132,
				"method": "rhf"
			},
			{
				"type": "unocc",
				"energy": 0.05637,
				"method": "rhf"
			},
			{
				"type": "unocc",
				"energy": 0.08108,
				"method": "rhf"
			},
			{
				"type": "unocc",
				"energy": 0.08562,
				"method": "rhf"
			}
		],
		"cosmo_sigma_profile": { 
			"-0.025": 0.0,
			"-0.024": 0.0,
			"-0.023": 0.0,
			"-0.022": 0.0,
			"-0.021": 0.0,
			"-0.02": 0.0,
			"-0.019": 0.0,
			"-0.018": 0.0,
			"-0.017": 0.0,
			"-0.016": 0.473763079871,
			"-0.015": 1.90271579209,
			"-0.014": 3.28090700506,
			"-0.013": 2.59029960917,
			"-0.012": 2.77063298409,
			"-0.011": 1.8710604862,
			"-0.01": 2.41804418685,
			"-0.009": 2.09083041144,
			"-0.008": 1.833895318,
			"-0.007": 1.84983009409,
			"-0.006": 2.80068913632,
			"-0.005": 6.81372896263,
			"-0.004": 28.7289641785,
			"-0.003": 34.9107094565,
			"-0.002": 30.215573965,
			"-0.001": 27.7492105324,
			"0.0": 31.8808898734,
			"0.001": 29.322682056,
			"0.002": 11.2093899655,
			"0.003": 7.94726519018,
			"0.004": 8.73281155342,
			"0.005": 7.96085788889,
			"0.006": 7.10239343433,
			"0.007": 6.89167913091,
			"0.008": 6.72791112756,
			"0.009": 8.6283637612,
			"0.01": 6.36898087599,
			"0.011": 5.1198868772,
			"0.012": 3.49868792588,
			"0.013": 2.89921303701,
			"0.014": 1.9919119843,
			"0.015": 0.0,
			"0.016": 0.0,
			"0.017": 0.0,
			"0.018": 0.0,
			"0.019": 0.0,
			"0.02": 0.0,
			"0.021": 0.0,
			"0.022": 0.0,
			"0.023": 0.0,
			"0.024": 0.0,
			"0.025": 0.0
		}
	}
}
