{
	 "smiles": "NC1=C(Cl)C(N)=C(Cl)C(Cl)=N1", 
	 "Tm": 480.15, 
	 "num_atms": 15, 
	 "gaussian": { 
		 "optdone": 1, 
		 "sigma_profile": "yes", 
		 "theory": "DFT", 
		 "functional": "B3LYP", 
		 "basiset": "6-31G**", 
		 "properties": { 
			 "R2extent": 3253.7679, 
			 "electric_dipole_moment_norm": 3.77875929374, 
			 "electric_quadrupole_moment_norm": 13.4519602159, 
			 "total_energy": -1737.78744605, 
			 "HOMO_LUMO_gap": 0.20182, 
			 "cosmo_polarized_energy": -11.26, 
			 "cosmo_cavitation_energy": 24.23, 
			 "cosmo_dispersion_energy": -19.05, 
			 "cosmo_repulsion_energy": 1.54, 
			 "cosmo_total_nonelectrostatic_energy": 6.72, 
			 "SMD_solvation_energy": 1.93 
		},
		"coords": [
			{
				"x": 0.1345929428,
				"y": 0.8885866047,
				"z": 1.8950056864,
				"element": "N" 
			},
			{
				"x": 0.03227715,
				"y": 0.0210565891,
				"z": 0.8414055605,
				"element": "C" 
			},
			{
				"x": 0.3609014853,
				"y": -1.3392658525,
				"z": 0.9507828218,
				"element": "C" 
			},
			{
				"x": 0.8679248555,
				"y": -2.0016179563,
				"z": 2.5029661088,
				"element": "Cl" 
			},
			{
				"x": 0.2911718427,
				"y": -2.1860235918,
				"z": -0.1685272312,
				"element": "C" 
			},
			{
				"x": 0.6403751396,
				"y": -3.4993213874,
				"z": -0.1016719142,
				"element": "N" 
			},
			{
				"x": -0.132807536,
				"y": -1.5938206582,
				"z": -1.3868672933,
				"element": "C" 
			},
			{
				"x": -0.2514876957,
				"y": -2.599476703,
				"z": -2.8143322667,
				"element": "Cl" 
			},
			{
				"x": -0.4424571492,
				"y": -0.2363766292,
				"z": -1.3877033512,
				"element": "C" 
			},
			{
				"x": -0.9798150872,
				"y": 0.5376120644,
				"z": -2.8681809334,
				"element": "Cl" 
			},
			{
				"x": -0.3696898458,
				"y": 0.5472470163,
				"z": -0.3279275765,
				"element": "N" 
			},
			{
				"x": 0.1492159038,
				"y": 0.516556954,
				"z": 2.8311819514,
				"element": "H" 
			},
			{
				"x": -0.3164649599,
				"y": 1.780563464,
				"z": 1.759172566,
				"element": "H" 
			},
			{
				"x": 0.7544631748,
				"y": -3.9231331823,
				"z": 0.8049248264,
				"element": "H" 
			},
			{
				"x": 0.4010997793,
				"y": -4.0977867315,
				"z": -0.8759289549,
				"element": "H" 
			}
		],
		 "valence_orbital": [ 
			{
				"type": "occ",
				"energy": -0.31022,
				"method": "rhf"
			},
			{
				"type": "occ",
				"energy": -0.29189,
				"method": "rhf"
			},
			{
				"type": "occ",
				"energy": -0.28104,
				"method": "rhf"
			},
			{
				"type": "occ",
				"energy": -0.23889,
				"method": "rhf"
			},
			{
				"type": "occ",
				"energy": -0.22212,
				"method": "rhf"
			},
			{
				"type": "unocc",
				"energy": -0.0203,
				"method": "rhf"
			},
			{
				"type": "unocc",
				"energy": -0.00567,
				"method": "rhf"
			},
			{
				"type": "unocc",
				"energy": -0.00111,
				"method": "rhf"
			},
			{
				"type": "unocc",
				"energy": 0.0258,
				"method": "rhf"
			},
			{
				"type": "unocc",
				"energy": 0.0634,
				"method": "rhf"
			}
		],
		"cosmo_sigma_profile": { 
			"-0.025": 0.0,
			"-0.024": 0.0,
			"-0.023": 0.0,
			"-0.022": 0.0,
			"-0.021": 0.0,
			"-0.02": 0.0,
			"-0.019": 0.0,
			"-0.018": 0.0,
			"-0.017": 0.0,
			"-0.016": 0.0,
			"-0.015": 0.0,
			"-0.014": 1.03913203835,
			"-0.013": 3.65762103258,
			"-0.012": 3.28158607724,
			"-0.011": 4.54304861172,
			"-0.01": 4.07303387993,
			"-0.009": 3.35918876499,
			"-0.008": 3.70500885739,
			"-0.007": 3.6872319329,
			"-0.006": 3.90213423497,
			"-0.005": 3.86806803484,
			"-0.004": 3.88617073078,
			"-0.003": 6.57745141965,
			"-0.002": 9.75476785469,
			"-0.001": 13.7348829581,
			"0.0": 24.4297514104,
			"0.001": 23.2759350901,
			"0.002": 17.5164190853,
			"0.003": 17.5001314273,
			"0.004": 21.2279000003,
			"0.005": 11.541575143,
			"0.006": 4.2378386584,
			"0.007": 2.98404062563,
			"0.008": 2.44577943014,
			"0.009": 2.53358254422,
			"0.01": 1.70294231333,
			"0.011": 0.754604380836,
			"0.012": 1.04499985656,
			"0.013": 0.416127879338,
			"0.014": 0.0,
			"0.015": 0.0,
			"0.016": 0.0,
			"0.017": 0.0,
			"0.018": 0.0,
			"0.019": 0.0,
			"0.02": 0.0,
			"0.021": 0.0,
			"0.022": 0.0,
			"0.023": 0.0,
			"0.024": 0.0,
			"0.025": 0.0
		}
	}
}
