{
	 "smiles": "CN1C=CC(=O)NC1=O", 
	 "Tm": 510.15, 
	 "num_atms": 15, 
	 "gaussian": { 
		 "optdone": 1, 
		 "sigma_profile": "yes", 
		 "theory": "DFT", 
		 "functional": "B3LYP", 
		 "basiset": "6-31G**", 
		 "properties": { 
			 "R2extent": 1450.4986, 
			 "electric_dipole_moment_norm": 4.53509694935, 
			 "electric_quadrupole_moment_norm": 10.8812602156, 
			 "total_energy": -454.129277873, 
			 "HOMO_LUMO_gap": 0.20255, 
			 "cosmo_polarized_energy": -15.02, 
			 "cosmo_cavitation_energy": 19.3, 
			 "cosmo_dispersion_energy": -14.6, 
			 "cosmo_repulsion_energy": 1.19, 
			 "cosmo_total_nonelectrostatic_energy": 5.89, 
			 "SMD_solvation_energy": 5.52 
		},
		"coords": [
			{
				"x": -0.0891383161,
				"y": 1.6783475929,
				"z": 0.0047341266,
				"element": "C" 
			},
			{
				"x": -0.585796443,
				"y": 0.3018470539,
				"z": -0.0312365736,
				"element": "N" 
			},
			{
				"x": -1.5582051703,
				"y": -0.0646895618,
				"z": -0.9358450242,
				"element": "C" 
			},
			{
				"x": -2.0628805704,
				"y": -1.3146485554,
				"z": -1.0255559887,
				"element": "C" 
			},
			{
				"x": -1.5771862369,
				"y": -2.35847771,
				"z": -0.1335517191,
				"element": "C" 
			},
			{
				"x": -1.9415138685,
				"y": -3.5225451626,
				"z": -0.1051625913,
				"element": "O" 
			},
			{
				"x": -0.5853982302,
				"y": -1.8950105373,
				"z": 0.7566598586,
				"element": "N" 
			},
			{
				"x": -0.0476103225,
				"y": -0.6242409115,
				"z": 0.8738572521,
				"element": "C" 
			},
			{
				"x": 0.8133464169,
				"y": -0.3404394167,
				"z": 1.6898648616,
				"element": "O" 
			},
			{
				"x": -0.9038377277,
				"y": 2.3725359539,
				"z": 0.2314649641,
				"element": "H" 
			},
			{
				"x": 0.3607766136,
				"y": 1.9472432419,
				"z": -0.9556350931,
				"element": "H" 
			},
			{
				"x": 0.6646494481,
				"y": 1.7343524619,
				"z": 0.7876749818,
				"element": "H" 
			},
			{
				"x": -1.8961208758,
				"y": 0.7379068775,
				"z": -1.5835599189,
				"element": "H" 
			},
			{
				"x": -2.826188109,
				"y": -1.5677522811,
				"z": -1.7482141257,
				"element": "H" 
			},
			{
				"x": -0.2088966082,
				"y": -2.5783290456,
				"z": 1.4027049898,
				"element": "H" 
			}
		],
		 "valence_orbital": [ 
			{
				"type": "occ",
				"energy": -0.35254,
				"method": "rhf"
			},
			{
				"type": "occ",
				"energy": -0.29359,
				"method": "rhf"
			},
			{
				"type": "occ",
				"energy": -0.28305,
				"method": "rhf"
			},
			{
				"type": "occ",
				"energy": -0.26105,
				"method": "rhf"
			},
			{
				"type": "occ",
				"energy": -0.24426,
				"method": "rhf"
			},
			{
				"type": "unocc",
				"energy": -0.04171,
				"method": "rhf"
			},
			{
				"type": "unocc",
				"energy": 0.01219,
				"method": "rhf"
			},
			{
				"type": "unocc",
				"energy": 0.07714,
				"method": "rhf"
			},
			{
				"type": "unocc",
				"energy": 0.09459,
				"method": "rhf"
			},
			{
				"type": "unocc",
				"energy": 0.11073,
				"method": "rhf"
			}
		],
		"cosmo_sigma_profile": { 
			"-0.025": 0.0,
			"-0.024": 0.0,
			"-0.023": 0.0,
			"-0.022": 0.0,
			"-0.021": 0.0,
			"-0.02": 0.0,
			"-0.019": 0.0,
			"-0.018": 0.0,
			"-0.017": 0.0,
			"-0.016": 0.197797321268,
			"-0.015": 0.991376626111,
			"-0.014": 0.572447469886,
			"-0.013": 1.18702858771,
			"-0.012": 0.58412195301,
			"-0.011": 0.460130139831,
			"-0.01": 2.64185845771,
			"-0.009": 3.73804768194,
			"-0.008": 4.11936092688,
			"-0.007": 8.0516952252,
			"-0.006": 10.27738167,
			"-0.005": 9.31926913677,
			"-0.004": 11.8572410801,
			"-0.003": 15.8036257178,
			"-0.002": 11.6139867085,
			"-0.001": 9.04300467265,
			"0.0": 6.68697649311,
			"0.001": 7.46334102583,
			"0.002": 5.01998253959,
			"0.003": 4.10512111224,
			"0.004": 2.47207055901,
			"0.005": 2.16387468751,
			"0.006": 2.81379177566,
			"0.007": 1.93604364209,
			"0.008": 2.106773271,
			"0.009": 2.73320183409,
			"0.01": 3.72271963305,
			"0.011": 3.36865092659,
			"0.012": 7.75297733344,
			"0.013": 8.94179861291,
			"0.014": 2.17602381985,
			"0.015": 0.0337446696365,
			"0.016": 0.0,
			"0.017": 0.0,
			"0.018": 0.0,
			"0.019": 0.0,
			"0.02": 0.0,
			"0.021": 0.0,
			"0.022": 0.0,
			"0.023": 0.0,
			"0.024": 0.0,
			"0.025": 0.0
		}
	}
}
