{
	 "smiles": "CCN(CC)S(=O)(=O)C1=CC(N)=C(NC)C=C1", 
	 "Tm": 393.15, 
	 "num_atms": 36, 
	 "gaussian": { 
		 "optdone": 1, 
		 "sigma_profile": "yes", 
		 "theory": "DFT", 
		 "functional": "B3LYP", 
		 "basiset": "6-31G**", 
		 "properties": { 
			 "R2extent": 5589.5552, 
			 "electric_dipole_moment_norm": 6.11511960717, 
			 "electric_quadrupole_moment_norm": 25.8282266946, 
			 "total_energy": -1143.45035362, 
			 "HOMO_LUMO_gap": 0.18711, 
			 "cosmo_polarized_energy": -19.12, 
			 "cosmo_cavitation_energy": 39.24, 
			 "cosmo_dispersion_energy": -27.23, 
			 "cosmo_repulsion_energy": 2.09, 
			 "cosmo_total_nonelectrostatic_energy": 14.1, 
			 "SMD_solvation_energy": 5.28 
		},
		"coords": [
			{
				"x": 1.3484094608,
				"y": -1.9358079177,
				"z": -3.226643215,
				"element": "C" 
			},
			{
				"x": 1.5642643088,
				"y": -2.6223511917,
				"z": -1.8802391863,
				"element": "C" 
			},
			{
				"x": 0.8994026374,
				"y": -1.8981123021,
				"z": -0.7655956422,
				"element": "N" 
			},
			{
				"x": -0.0593448134,
				"y": -2.6799880045,
				"z": 0.0385924859,
				"element": "C" 
			},
			{
				"x": -1.3524026619,
				"y": -2.945587134,
				"z": -0.7313577888,
				"element": "C" 
			},
			{
				"x": 1.9392371867,
				"y": -0.9112421266,
				"z": 0.1484029128,
				"element": "S" 
			},
			{
				"x": 2.4218847244,
				"y": -1.6068059585,
				"z": 1.3542534904,
				"element": "O" 
			},
			{
				"x": 2.9133665809,
				"y": -0.3757154361,
				"z": -0.8115680461,
				"element": "O" 
			},
			{
				"x": 0.8349042753,
				"y": 0.3835396083,
				"z": 0.6900304674,
				"element": "C" 
			},
			{
				"x": 0.7439754647,
				"y": 0.6591434276,
				"z": 2.0595598027,
				"element": "C" 
			},
			{
				"x": -0.0525880088,
				"y": 1.7071707458,
				"z": 2.5074534841,
				"element": "C" 
			},
			{
				"x": -0.1578633707,
				"y": 2.0607161805,
				"z": 3.870476959,
				"element": "N" 
			},
			{
				"x": -0.76013187,
				"y": 2.505956762,
				"z": 1.5671648279,
				"element": "C" 
			},
			{
				"x": -1.5302044801,
				"y": 3.5476909932,
				"z": 2.0713661226,
				"element": "N" 
			},
			{
				"x": -2.1279201688,
				"y": 4.529379229,
				"z": 1.1830979442,
				"element": "C" 
			},
			{
				"x": -0.6695474137,
				"y": 2.1954182855,
				"z": 0.2016501115,
				"element": "C" 
			},
			{
				"x": 0.1254961522,
				"y": 1.1394510369,
				"z": -0.2410381136,
				"element": "C" 
			},
			{
				"x": 0.281484933,
				"y": -1.8376174562,
				"z": -3.4506124679,
				"element": "H" 
			},
			{
				"x": 1.8179543468,
				"y": -2.5156874723,
				"z": -4.0292833183,
				"element": "H" 
			},
			{
				"x": 1.7972592137,
				"y": -0.9398724664,
				"z": -3.215727714,
				"element": "H" 
			},
			{
				"x": 1.1465836226,
				"y": -3.6343972448,
				"z": -1.894971613,
				"element": "H" 
			},
			{
				"x": 2.6358760331,
				"y": -2.7280992032,
				"z": -1.6846061153,
				"element": "H" 
			},
			{
				"x": -0.2914694047,
				"y": -2.1026153402,
				"z": 0.9375873997,
				"element": "H" 
			},
			{
				"x": 0.3954878134,
				"y": -3.6220209976,
				"z": 0.3777459063,
				"element": "H" 
			},
			{
				"x": -2.0502398869,
				"y": -3.5128105571,
				"z": -0.1064785728,
				"element": "H" 
			},
			{
				"x": -1.8277347049,
				"y": -2.0033445579,
				"z": -1.0187154266,
				"element": "H" 
			},
			{
				"x": -1.174521522,
				"y": -3.5284823788,
				"z": -1.6405767494,
				"element": "H" 
			},
			{
				"x": 1.2950537522,
				"y": 0.0416841311,
				"z": 2.7619813371,
				"element": "H" 
			},
			{
				"x": -1.1247103036,
				"y": 2.1197733744,
				"z": 4.1796111163,
				"element": "H" 
			},
			{
				"x": 0.3573040025,
				"y": 1.4351038649,
				"z": 4.4784150592,
				"element": "H" 
			},
			{
				"x": -1.1236260139,
				"y": 3.9380668544,
				"z": 2.9146839999,
				"element": "H" 
			},
			{
				"x": -1.3990174001,
				"y": 5.028491056,
				"z": 0.5258034426,
				"element": "H" 
			},
			{
				"x": -2.627692672,
				"y": 5.2900651736,
				"z": 1.7869341714,
				"element": "H" 
			},
			{
				"x": -2.8864274144,
				"y": 4.056379381,
				"z": 0.550878902,
				"element": "H" 
			},
			{
				"x": -1.2074085707,
				"y": 2.7947305519,
				"z": -0.5240985014,
				"element": "H" 
			},
			{
				"x": 0.196806172,
				"y": 0.9121970896,
				"z": -1.2985774726,
				"element": "H" 
			}
		],
		 "valence_orbital": [ 
			{
				"type": "occ",
				"energy": -0.28807,
				"method": "rhf"
			},
			{
				"type": "occ",
				"energy": -0.27986,
				"method": "rhf"
			},
			{
				"type": "occ",
				"energy": -0.23933,
				"method": "rhf"
			},
			{
				"type": "occ",
				"energy": -0.23629,
				"method": "rhf"
			},
			{
				"type": "occ",
				"energy": -0.20011,
				"method": "rhf"
			},
			{
				"type": "unocc",
				"energy": -0.013,
				"method": "rhf"
			},
			{
				"type": "unocc",
				"energy": 0.00087,
				"method": "rhf"
			},
			{
				"type": "unocc",
				"energy": 0.06787,
				"method": "rhf"
			},
			{
				"type": "unocc",
				"energy": 0.07239,
				"method": "rhf"
			},
			{
				"type": "unocc",
				"energy": 0.08601,
				"method": "rhf"
			}
		],
		"cosmo_sigma_profile": { 
			"-0.025": 0.0,
			"-0.024": 0.0,
			"-0.023": 0.0,
			"-0.022": 0.0,
			"-0.021": 0.0,
			"-0.02": 0.0,
			"-0.019": 0.0,
			"-0.018": 0.0,
			"-0.017": 0.0,
			"-0.016": 0.0,
			"-0.015": 0.0,
			"-0.014": 0.0,
			"-0.013": 0.196721457656,
			"-0.012": 1.96521316299,
			"-0.011": 3.7855617726,
			"-0.01": 3.6976266152,
			"-0.009": 4.35371715074,
			"-0.008": 3.25015639827,
			"-0.007": 4.48359960025,
			"-0.006": 5.93276413945,
			"-0.005": 13.6046347233,
			"-0.004": 28.7476875073,
			"-0.003": 34.2855612235,
			"-0.002": 34.9807422481,
			"-0.001": 27.6907888534,
			"0.0": 24.568470646,
			"0.001": 21.0805359849,
			"0.002": 13.728596562,
			"0.003": 12.4421188705,
			"0.004": 15.4454884024,
			"0.005": 10.8737359245,
			"0.006": 5.20874995523,
			"0.007": 3.80568238453,
			"0.008": 3.63799809921,
			"0.009": 4.96058567898,
			"0.01": 5.56204304513,
			"0.011": 8.0193274577,
			"0.012": 8.47504509781,
			"0.013": 2.69356647649,
			"0.014": 0.164472708022,
			"0.015": 0.0,
			"0.016": 0.0,
			"0.017": 0.0,
			"0.018": 0.0,
			"0.019": 0.0,
			"0.02": 0.0,
			"0.021": 0.0,
			"0.022": 0.0,
			"0.023": 0.0,
			"0.024": 0.0,
			"0.025": 0.0
		}
	}
}
