{
	 "smiles": "O=C(NC1CCN(CCC2=CNC3=C2C=CC=C3)CC1)C1=CC=CC=C1", 
	 "Tm": 481.15, 
	 "num_atms": 51, 
	 "gaussian": { 
		 "optdone": 1, 
		 "sigma_profile": "yes", 
		 "theory": "DFT", 
		 "functional": "B3LYP", 
		 "basiset": "6-31G**", 
		 "properties": { 
			 "R2extent": 15254.8448, 
			 "electric_dipole_moment_norm": 5.20714553186, 
			 "electric_quadrupole_moment_norm": 23.3315170049, 
			 "total_energy": -1092.90133389, 
			 "HOMO_LUMO_gap": 0.17165, 
			 "cosmo_polarized_energy": -19.69, 
			 "cosmo_cavitation_energy": 52.78, 
			 "cosmo_dispersion_energy": -36.13, 
			 "cosmo_repulsion_energy": 2.76, 
			 "cosmo_total_nonelectrostatic_energy": 19.42, 
			 "SMD_solvation_energy": 6.04 
		},
		"coords": [
			{
				"x": -5.8730977541,
				"y": -0.7567960591,
				"z": 1.7224335481,
				"element": "O" 
			},
			{
				"x": -4.8539761273,
				"y": -0.2373173457,
				"z": 1.2752064505,
				"element": "C" 
			},
			{
				"x": -3.6899584587,
				"y": -0.2182569565,
				"z": 2.0154220138,
				"element": "N" 
			},
			{
				"x": -2.3088236395,
				"y": -0.2353209345,
				"z": 1.5263059237,
				"element": "C" 
			},
			{
				"x": -1.7266334737,
				"y": -1.6571599553,
				"z": 1.4722836878,
				"element": "C" 
			},
			{
				"x": -0.3226341002,
				"y": -1.6471954997,
				"z": 0.8271129004,
				"element": "C" 
			},
			{
				"x": 0.3343189785,
				"y": -0.3414261312,
				"z": 0.9780664965,
				"element": "N" 
			},
			{
				"x": 1.7542185708,
				"y": -0.3844560708,
				"z": 0.6397810604,
				"element": "C" 
			},
			{
				"x": 2.0152275221,
				"y": -0.6671543996,
				"z": -0.8536558711,
				"element": "C" 
			},
			{
				"x": 3.4609784228,
				"y": -0.5009105593,
				"z": -1.2256646527,
				"element": "C" 
			},
			{
				"x": 4.3777833144,
				"y": -1.5000031571,
				"z": -1.4385264255,
				"element": "C" 
			},
			{
				"x": 5.6173778702,
				"y": -0.957323768,
				"z": -1.7293947599,
				"element": "N" 
			},
			{
				"x": 5.5232873873,
				"y": 0.4190094201,
				"z": -1.7144301283,
				"element": "C" 
			},
			{
				"x": 4.1748050089,
				"y": 0.7434645233,
				"z": -1.3972914955,
				"element": "C" 
			},
			{
				"x": 3.8046223809,
				"y": 2.0984560348,
				"z": -1.3257888906,
				"element": "C" 
			},
			{
				"x": 4.7636339588,
				"y": 3.0755994069,
				"z": -1.5623855598,
				"element": "C" 
			},
			{
				"x": 6.0951187145,
				"y": 2.7289119792,
				"z": -1.8718172249,
				"element": "C" 
			},
			{
				"x": 6.4926137237,
				"y": 1.3991309287,
				"z": -1.9536366313,
				"element": "C" 
			},
			{
				"x": 0.0752304866,
				"y": 0.2245858427,
				"z": 2.3019280396,
				"element": "C" 
			},
			{
				"x": -1.4055067584,
				"y": 0.6480299715,
				"z": 2.4127119806,
				"element": "C" 
			},
			{
				"x": -4.8690211137,
				"y": 0.4471922006,
				"z": -0.0632100773,
				"element": "C" 
			},
			{
				"x": -4.1993772541,
				"y": 1.6537177356,
				"z": -0.3119785369,
				"element": "C" 
			},
			{
				"x": -4.3170040832,
				"y": 2.2810733749,
				"z": -1.5530685661,
				"element": "C" 
			},
			{
				"x": -5.0977408377,
				"y": 1.7055383808,
				"z": -2.5570495108,
				"element": "C" 
			},
			{
				"x": -5.7788434239,
				"y": 0.5103635285,
				"z": -2.310342455,
				"element": "C" 
			},
			{
				"x": -5.6763612565,
				"y": -0.1072797509,
				"z": -1.0658862458,
				"element": "C" 
			},
			{
				"x": -3.8341235728,
				"y": -0.6915949309,
				"z": 2.9020662559,
				"element": "H" 
			},
			{
				"x": -2.3142918599,
				"y": 0.1653526297,
				"z": 0.5124186302,
				"element": "H" 
			},
			{
				"x": -2.392997081,
				"y": -2.3200085187,
				"z": 0.9113952018,
				"element": "H" 
			},
			{
				"x": -1.6759270806,
				"y": -2.0555455521,
				"z": 2.4944194687,
				"element": "H" 
			},
			{
				"x": 0.2890587348,
				"y": -2.4578020421,
				"z": 1.27082723,
				"element": "H" 
			},
			{
				"x": -0.41110996,
				"y": -1.8668657123,
				"z": -0.2422162774,
				"element": "H" 
			},
			{
				"x": 2.1864026551,
				"y": 0.5912262772,
				"z": 0.8870894687,
				"element": "H" 
			},
			{
				"x": 2.301724878,
				"y": -1.1344731382,
				"z": 1.2456028232,
				"element": "H" 
			},
			{
				"x": 1.6930180732,
				"y": -1.683473221,
				"z": -1.1055706049,
				"element": "H" 
			},
			{
				"x": 1.3881023587,
				"y": 0.0151995685,
				"z": -1.4415006239,
				"element": "H" 
			},
			{
				"x": 4.2428031536,
				"y": -2.5725807817,
				"z": -1.4082777615,
				"element": "H" 
			},
			{
				"x": 6.4479634094,
				"y": -1.4842466304,
				"z": -1.9424898657,
				"element": "H" 
			},
			{
				"x": 2.7807054833,
				"y": 2.3783624781,
				"z": -1.0928417692,
				"element": "H" 
			},
			{
				"x": 4.4870830613,
				"y": 4.1246518298,
				"z": -1.5100897652,
				"element": "H" 
			},
			{
				"x": 6.8230849384,
				"y": 3.5146474374,
				"z": -2.0516738376,
				"element": "H" 
			},
			{
				"x": 7.5180243286,
				"y": 1.1328615002,
				"z": -2.1952497333,
				"element": "H" 
			},
			{
				"x": 0.7233330022,
				"y": 1.0950628461,
				"z": 2.4421003306,
				"element": "H" 
			},
			{
				"x": 0.3346402641,
				"y": -0.4862545031,
				"z": 3.1113957561,
				"element": "H" 
			},
			{
				"x": -1.5297304849,
				"y": 1.6969829647,
				"z": 2.1232473114,
				"element": "H" 
			},
			{
				"x": -1.7324656015,
				"y": 0.5686729338,
				"z": 3.4569654575,
				"element": "H" 
			},
			{
				"x": -3.6110369476,
				"y": 2.1168889759,
				"z": 0.4741520874,
				"element": "H" 
			},
			{
				"x": -3.8038122905,
				"y": 3.2213143827,
				"z": -1.7331440757,
				"element": "H" 
			},
			{
				"x": -5.183487873,
				"y": 2.1914142888,
				"z": -3.5248751826,
				"element": "H" 
			},
			{
				"x": -6.3968104128,
				"y": 0.0662670717,
				"z": -3.0854557532,
				"element": "H" 
			},
			{
				"x": -6.2222892345,
				"y": -1.0190328942,
				"z": -0.8469198412,
				"element": "H" 
			}
		],
		 "valence_orbital": [ 
			{
				"type": "occ",
				"energy": -0.24683,
				"method": "rhf"
			},
			{
				"type": "occ",
				"energy": -0.23245,
				"method": "rhf"
			},
			{
				"type": "occ",
				"energy": -0.21856,
				"method": "rhf"
			},
			{
				"type": "occ",
				"energy": -0.21175,
				"method": "rhf"
			},
			{
				"type": "occ",
				"energy": -0.19867,
				"method": "rhf"
			},
			{
				"type": "unocc",
				"energy": -0.02702,
				"method": "rhf"
			},
			{
				"type": "unocc",
				"energy": -0.00707,
				"method": "rhf"
			},
			{
				"type": "unocc",
				"energy": -0.0037,
				"method": "rhf"
			},
			{
				"type": "unocc",
				"energy": 0.0294,
				"method": "rhf"
			},
			{
				"type": "unocc",
				"energy": 0.05517,
				"method": "rhf"
			}
		],
		"cosmo_sigma_profile": { 
			"-0.025": 0.0,
			"-0.024": 0.0,
			"-0.023": 0.0,
			"-0.022": 0.0,
			"-0.021": 0.0,
			"-0.02": 0.0,
			"-0.019": 0.0,
			"-0.018": 0.0,
			"-0.017": 0.0,
			"-0.016": 0.13837375996,
			"-0.015": 1.42352901135,
			"-0.014": 1.44434436926,
			"-0.013": 0.979814262956,
			"-0.012": 2.03842504724,
			"-0.011": 2.34546473155,
			"-0.01": 2.50860698653,
			"-0.009": 2.3653390367,
			"-0.008": 3.17886970771,
			"-0.007": 5.37050576227,
			"-0.006": 11.5175851942,
			"-0.005": 20.7699807644,
			"-0.004": 31.3171228021,
			"-0.003": 41.8876864008,
			"-0.002": 46.892093075,
			"-0.001": 46.0177681837,
			"0.0": 35.5542084665,
			"0.001": 24.1729900282,
			"0.002": 18.6858275969,
			"0.003": 19.8613923375,
			"0.004": 23.3075020577,
			"0.005": 22.6486942305,
			"0.006": 16.1027997901,
			"0.007": 11.2408957047,
			"0.008": 5.2275539555,
			"0.009": 2.07152307067,
			"0.01": 2.02449366721,
			"0.011": 1.72474328851,
			"0.012": 2.52303264358,
			"0.013": 4.13134893348,
			"0.014": 5.38853976369,
			"0.015": 0.935544151431,
			"0.016": 0.0,
			"0.017": 0.0,
			"0.018": 0.0,
			"0.019": 0.0,
			"0.02": 0.0,
			"0.021": 0.0,
			"0.022": 0.0,
			"0.023": 0.0,
			"0.024": 0.0,
			"0.025": 0.0
		}
	}
}
