{
	 "smiles": "NC1=NON=C1C(=O)N1CCOCC1", 
	 "Tm": 410.15, 
	 "num_atms": 24, 
	 "gaussian": { 
		 "optdone": 1, 
		 "sigma_profile": "yes", 
		 "theory": "DFT", 
		 "functional": "B3LYP", 
		 "basiset": "6-31G**", 
		 "properties": { 
			 "R2extent": 3579.415, 
			 "electric_dipole_moment_norm": 2.36435649808, 
			 "electric_quadrupole_moment_norm": 13.110766915, 
			 "total_energy": -717.35552331, 
			 "HOMO_LUMO_gap": 0.18053, 
			 "cosmo_polarized_energy": -13.6, 
			 "cosmo_cavitation_energy": 27.12, 
			 "cosmo_dispersion_energy": -20.82, 
			 "cosmo_repulsion_energy": 1.64, 
			 "cosmo_total_nonelectrostatic_energy": 7.94, 
			 "SMD_solvation_energy": 4.06 
		},
		"coords": [
			{
				"x": -0.1599473035,
				"y": -4.5412395916,
				"z": 0.8783257257,
				"element": "N" 
			},
			{
				"x": -0.0947709453,
				"y": -3.4540882659,
				"z": 1.6925087025,
				"element": "C" 
			},
			{
				"x": 0.0900263948,
				"y": -3.4977737442,
				"z": 2.9942503201,
				"element": "N" 
			},
			{
				"x": 0.1412998213,
				"y": -2.1611525852,
				"z": 3.3927972949,
				"element": "O" 
			},
			{
				"x": -0.0147120937,
				"y": -1.3184670637,
				"z": 2.3462994701,
				"element": "N" 
			},
			{
				"x": -0.1591698417,
				"y": -2.0695694854,
				"z": 1.2808358766,
				"element": "C" 
			},
			{
				"x": -0.4358875547,
				"y": -1.6310631086,
				"z": -0.1152404356,
				"element": "C" 
			},
			{
				"x": -0.7944471944,
				"y": -2.4981075467,
				"z": -0.9271538715,
				"element": "O" 
			},
			{
				"x": -0.3090434197,
				"y": -0.325400472,
				"z": -0.4721851448,
				"element": "N" 
			},
			{
				"x": -0.6905020439,
				"y": 0.0396374651,
				"z": -1.8456993163,
				"element": "C" 
			},
			{
				"x": -1.1793771475,
				"y": 1.4827729007,
				"z": -1.8733373851,
				"element": "C" 
			},
			{
				"x": -0.2008514672,
				"y": 2.4162264619,
				"z": -1.4209626989,
				"element": "O" 
			},
			{
				"x": 0.7454670201,
				"y": 1.8774086212,
				"z": -0.5053787778,
				"element": "C" 
			},
			{
				"x": 0.1697266061,
				"y": 0.7752619029,
				"z": 0.3800220347,
				"element": "C" 
			},
			{
				"x": -0.5664270848,
				"y": -4.3500229203,
				"z": -0.029592473,
				"element": "H" 
			},
			{
				"x": -0.3474075229,
				"y": -5.4311130133,
				"z": 1.3141999296,
				"element": "H" 
			},
			{
				"x": -1.47593241,
				"y": -0.6420542764,
				"z": -2.1776095169,
				"element": "H" 
			},
			{
				"x": 0.1619166897,
				"y": -0.091620041,
				"z": -2.5250636733,
				"element": "H" 
			},
			{
				"x": -2.0911740384,
				"y": 1.5686331187,
				"z": -1.2623110822,
				"element": "H" 
			},
			{
				"x": -1.4397099536,
				"y": 1.7619178902,
				"z": -2.8995937659,
				"element": "H" 
			},
			{
				"x": 1.6221025257,
				"y": 1.4871134288,
				"z": -1.0457074237,
				"element": "H" 
			},
			{
				"x": 1.0853071803,
				"y": 2.7055819896,
				"z": 0.1242396239,
				"element": "H" 
			},
			{
				"x": 0.9404025762,
				"y": 0.4125926313,
				"z": 1.0611877211,
				"element": "H" 
			},
			{
				"x": -0.6460887929,
				"y": 1.1712257041,
				"z": 0.997368866,
				"element": "H" 
			}
		],
		 "valence_orbital": [ 
			{
				"type": "occ",
				"energy": -0.30949,
				"method": "rhf"
			},
			{
				"type": "occ",
				"energy": -0.28169,
				"method": "rhf"
			},
			{
				"type": "occ",
				"energy": -0.26584,
				"method": "rhf"
			},
			{
				"type": "occ",
				"energy": -0.25702,
				"method": "rhf"
			},
			{
				"type": "occ",
				"energy": -0.24246,
				"method": "rhf"
			},
			{
				"type": "unocc",
				"energy": -0.06193,
				"method": "rhf"
			},
			{
				"type": "unocc",
				"energy": 0.00767,
				"method": "rhf"
			},
			{
				"type": "unocc",
				"energy": 0.07238,
				"method": "rhf"
			},
			{
				"type": "unocc",
				"energy": 0.075,
				"method": "rhf"
			},
			{
				"type": "unocc",
				"energy": 0.096,
				"method": "rhf"
			}
		],
		"cosmo_sigma_profile": { 
			"-0.025": 0.0,
			"-0.024": 0.0,
			"-0.023": 0.0,
			"-0.022": 0.0,
			"-0.021": 0.0,
			"-0.02": 0.0,
			"-0.019": 0.0,
			"-0.018": 0.0,
			"-0.017": 0.0,
			"-0.016": 0.0,
			"-0.015": 0.380384330337,
			"-0.014": 1.27010199846,
			"-0.013": 1.01889461395,
			"-0.012": 1.34217981986,
			"-0.011": 1.14036094212,
			"-0.01": 1.91930841393,
			"-0.009": 1.86807914958,
			"-0.008": 1.89597002639,
			"-0.007": 2.14922663584,
			"-0.006": 12.978479428,
			"-0.005": 25.3872588342,
			"-0.004": 23.4139680012,
			"-0.003": 20.8322540032,
			"-0.002": 15.2218413061,
			"-0.001": 10.1844180259,
			"0.0": 8.36401317018,
			"0.001": 6.5196250277,
			"0.002": 6.78866574812,
			"0.003": 7.99036124262,
			"0.004": 7.45781184562,
			"0.005": 8.71366884497,
			"0.006": 11.7750092377,
			"0.007": 8.40184398624,
			"0.008": 5.06341038568,
			"0.009": 5.38567450696,
			"0.01": 5.06576441156,
			"0.011": 3.55431430229,
			"0.012": 5.06296232661,
			"0.013": 3.14093240316,
			"0.014": 0.229422822581,
			"0.015": 0.0,
			"0.016": 0.0,
			"0.017": 0.0,
			"0.018": 0.0,
			"0.019": 0.0,
			"0.02": 0.0,
			"0.021": 0.0,
			"0.022": 0.0,
			"0.023": 0.0,
			"0.024": 0.0,
			"0.025": 0.0
		}
	}
}
