{
	 "smiles": "OC1=C2C=CC=CC2=CC2=CC=CC=C12", 
	 "Tm": 425.15, 
	 "num_atms": 25, 
	 "gaussian": { 
		 "optdone": 1, 
		 "sigma_profile": "yes", 
		 "theory": "DFT", 
		 "functional": "B3LYP", 
		 "basiset": "6-31G**", 
		 "properties": { 
			 "R2extent": 3547.2182, 
			 "electric_dipole_moment_norm": 1.26668996207, 
			 "electric_quadrupole_moment_norm": 10.2697915441, 
			 "total_energy": -614.751648671, 
			 "HOMO_LUMO_gap": 0.12552, 
			 "cosmo_polarized_energy": -9.37, 
			 "cosmo_cavitation_energy": 28.06, 
			 "cosmo_dispersion_energy": -21.36, 
			 "cosmo_repulsion_energy": 1.6, 
			 "cosmo_total_nonelectrostatic_energy": 8.3, 
			 "SMD_solvation_energy": 4.44 
		},
		"coords": [
			{
				"x": -0.2444358548,
				"y": 2.1841953294,
				"z": -0.5059011727,
				"element": "O" 
			},
			{
				"x": 0.3905938251,
				"y": 1.1027715397,
				"z": 0.0337388223,
				"element": "C" 
			},
			{
				"x": 1.7101003602,
				"y": 0.8748712745,
				"z": -0.408432925,
				"element": "C" 
			},
			{
				"x": 2.3409607901,
				"y": 1.7272798153,
				"z": -1.3647756977,
				"element": "C" 
			},
			{
				"x": 3.62526702,
				"y": 1.4828520581,
				"z": -1.7783610614,
				"element": "C" 
			},
			{
				"x": 4.3516243308,
				"y": 0.3730574867,
				"z": -1.258836638,
				"element": "C" 
			},
			{
				"x": 3.7763123202,
				"y": -0.4637908927,
				"z": -0.3388928966,
				"element": "C" 
			},
			{
				"x": 2.4397757062,
				"y": -0.2491540366,
				"z": 0.122120133,
				"element": "C" 
			},
			{
				"x": 1.8331980612,
				"y": -1.0902774802,
				"z": 1.0634582446,
				"element": "C" 
			},
			{
				"x": 0.5239523368,
				"y": -0.8634865565,
				"z": 1.4995662984,
				"element": "C" 
			},
			{
				"x": -0.1066104889,
				"y": -1.716035037,
				"z": 2.460248804,
				"element": "C" 
			},
			{
				"x": -1.3899314624,
				"y": -1.4926784911,
				"z": 2.8818084251,
				"element": "C" 
			},
			{
				"x": -2.1327631303,
				"y": -0.3936129132,
				"z": 2.3633696544,
				"element": "C" 
			},
			{
				"x": -1.5675988662,
				"y": 0.4491296122,
				"z": 1.4420648783,
				"element": "C" 
			},
			{
				"x": -0.2288846801,
				"y": 0.2556751693,
				"z": 0.9773875534,
				"element": "C" 
			},
			{
				"x": -1.1206741307,
				"y": 2.2798193323,
				"z": -0.1150171185,
				"element": "H" 
			},
			{
				"x": 1.7824083676,
				"y": 2.5700158838,
				"z": -1.7555832733,
				"element": "H" 
			},
			{
				"x": 4.0960206959,
				"y": 2.1370620937,
				"z": -2.5063513892,
				"element": "H" 
			},
			{
				"x": 5.3682548273,
				"y": 0.1935674865,
				"z": -1.5971531977,
				"element": "H" 
			},
			{
				"x": 4.3286186147,
				"y": -1.3109460273,
				"z": 0.0594193048,
				"element": "H" 
			},
			{
				"x": 2.3887170404,
				"y": -1.934921277,
				"z": 1.4623953711,
				"element": "H" 
			},
			{
				"x": 0.4635408831,
				"y": -2.5548035332,
				"z": 2.851088964,
				"element": "H" 
			},
			{
				"x": -1.8493285726,
				"y": -2.1526088804,
				"z": 3.6118073253,
				"element": "H" 
			},
			{
				"x": -3.1515020991,
				"y": -0.2264426193,
				"z": 2.6998270812,
				"element": "H" 
			},
			{
				"x": -2.1714158944,
				"y": 1.2728606628,
				"z": 1.0653045104,
				"element": "H" 
			}
		],
		 "valence_orbital": [ 
			{
				"type": "occ",
				"energy": -0.29896,
				"method": "rhf"
			},
			{
				"type": "occ",
				"energy": -0.27252,
				"method": "rhf"
			},
			{
				"type": "occ",
				"energy": -0.25403,
				"method": "rhf"
			},
			{
				"type": "occ",
				"energy": -0.23867,
				"method": "rhf"
			},
			{
				"type": "occ",
				"energy": -0.18222,
				"method": "rhf"
			},
			{
				"type": "unocc",
				"energy": -0.0567,
				"method": "rhf"
			},
			{
				"type": "unocc",
				"energy": -0.01193,
				"method": "rhf"
			},
			{
				"type": "unocc",
				"energy": 0.00713,
				"method": "rhf"
			},
			{
				"type": "unocc",
				"energy": 0.05428,
				"method": "rhf"
			},
			{
				"type": "unocc",
				"energy": 0.05667,
				"method": "rhf"
			}
		],
		"cosmo_sigma_profile": { 
			"-0.025": 0.0,
			"-0.024": 0.0,
			"-0.023": 0.0,
			"-0.022": 0.0,
			"-0.021": 0.0,
			"-0.02": 0.0,
			"-0.019": 0.0140222019338,
			"-0.018": 0.592159467113,
			"-0.017": 0.937567043545,
			"-0.016": 0.78539050582,
			"-0.015": 0.864195717393,
			"-0.014": 0.74311490806,
			"-0.013": 0.741377263134,
			"-0.012": 0.767840293895,
			"-0.011": 1.30419576794,
			"-0.01": 1.24173623849,
			"-0.009": 1.18331254668,
			"-0.008": 0.609450585289,
			"-0.007": 1.28452311549,
			"-0.006": 9.78725225776,
			"-0.005": 20.7336712759,
			"-0.004": 16.4767345002,
			"-0.003": 16.1152487299,
			"-0.002": 11.7454120874,
			"-0.001": 11.5107009037,
			"0.0": 9.35145251503,
			"0.001": 12.0206856881,
			"0.002": 15.4738539861,
			"0.003": 23.1877822914,
			"0.004": 32.5266142049,
			"0.005": 24.9461537269,
			"0.006": 5.03346403808,
			"0.007": 2.17824613906,
			"0.008": 1.88190253774,
			"0.009": 1.46707779132,
			"0.01": 0.155208762652,
			"0.011": 0.0,
			"0.012": 0.0,
			"0.013": 0.0,
			"0.014": 0.0,
			"0.015": 0.0,
			"0.016": 0.0,
			"0.017": 0.0,
			"0.018": 0.0,
			"0.019": 0.0,
			"0.02": 0.0,
			"0.021": 0.0,
			"0.022": 0.0,
			"0.023": 0.0,
			"0.024": 0.0,
			"0.025": 0.0
		}
	}
}
