{
	 "smiles": "CCCCCSC1=NN=CN1", 
	 "Tm": 320.65, 
	 "num_atms": 24, 
	 "gaussian": { 
		 "optdone": 1, 
		 "sigma_profile": "yes", 
		 "theory": "DFT", 
		 "functional": "B3LYP", 
		 "basiset": "6-31G**", 
		 "properties": { 
			 "R2extent": 4043.6198, 
			 "electric_dipole_moment_norm": 3.63914375918, 
			 "electric_quadrupole_moment_norm": 30.1847608026, 
			 "total_energy": -837.006426468, 
			 "HOMO_LUMO_gap": 0.23802, 
			 "cosmo_polarized_energy": -16.79, 
			 "cosmo_cavitation_energy": 28.37, 
			 "cosmo_dispersion_energy": -20.96, 
			 "cosmo_repulsion_energy": 1.67, 
			 "cosmo_total_nonelectrostatic_energy": 9.08, 
			 "SMD_solvation_energy": 2.99 
		},
		"coords": [
			{
				"x": -0.3577041323,
				"y": 2.207727016,
				"z": -2.073580304,
				"element": "C" 
			},
			{
				"x": -0.6724378019,
				"y": 1.7734989398,
				"z": -0.6381084838,
				"element": "C" 
			},
			{
				"x": 0.2906663286,
				"y": 0.6975645045,
				"z": -0.1162442533,
				"element": "C" 
			},
			{
				"x": 0.0655942766,
				"y": 0.2829218261,
				"z": 1.3450671855,
				"element": "C" 
			},
			{
				"x": -1.2633595152,
				"y": -0.4159109536,
				"z": 1.6488049951,
				"element": "C" 
			},
			{
				"x": -1.5086468612,
				"y": -2.039311409,
				"z": 0.800591039,
				"element": "S" 
			},
			{
				"x": -0.4840333912,
				"y": -3.0534181549,
				"z": 1.8126599454,
				"element": "C" 
			},
			{
				"x": 0.1605295836,
				"y": -2.7115341558,
				"z": 2.9061133806,
				"element": "N" 
			},
			{
				"x": 0.8206660364,
				"y": -3.8419459528,
				"z": 3.3691810451,
				"element": "N" 
			},
			{
				"x": 0.5511719415,
				"y": -4.8171495238,
				"z": 2.5433447032,
				"element": "C" 
			},
			{
				"x": -0.2693854844,
				"y": -4.3790006541,
				"z": 1.5330590377,
				"element": "N" 
			},
			{
				"x": -1.0560810658,
				"y": 2.9750956182,
				"z": -2.4232047486,
				"element": "H" 
			},
			{
				"x": 0.6550545319,
				"y": 2.6198529815,
				"z": -2.1488270164,
				"element": "H" 
			},
			{
				"x": -0.4204092586,
				"y": 1.3603687417,
				"z": -2.7658391895,
				"element": "H" 
			},
			{
				"x": -0.6327335445,
				"y": 2.6476910215,
				"z": 0.0265495921,
				"element": "H" 
			},
			{
				"x": -1.7066310313,
				"y": 1.4068484223,
				"z": -0.5955653641,
				"element": "H" 
			},
			{
				"x": 0.2313151403,
				"y": -0.1895096747,
				"z": -0.760668224,
				"element": "H" 
			},
			{
				"x": 1.3191341119,
				"y": 1.0706523658,
				"z": -0.2100060319,
				"element": "H" 
			},
			{
				"x": 0.1029097437,
				"y": 1.1761698929,
				"z": 1.9856056396,
				"element": "H" 
			},
			{
				"x": 0.8775395542,
				"y": -0.3678776928,
				"z": 1.6832572223,
				"element": "H" 
			},
			{
				"x": -2.1255518543,
				"y": 0.1727737519,
				"z": 1.3239051415,
				"element": "H" 
			},
			{
				"x": -1.3617457805,
				"y": -0.6111099239,
				"z": 2.7180589655,
				"element": "H" 
			},
			{
				"x": 0.9090446764,
				"y": -5.8337042735,
				"z": 2.6199959212,
				"element": "H" 
			},
			{
				"x": -0.6363062036,
				"y": -4.9089927133,
				"z": 0.7568498019,
				"element": "H" 
			}
		],
		 "valence_orbital": [ 
			{
				"type": "occ",
				"energy": -0.30578,
				"method": "rhf"
			},
			{
				"type": "occ",
				"energy": -0.30502,
				"method": "rhf"
			},
			{
				"type": "occ",
				"energy": -0.29744,
				"method": "rhf"
			},
			{
				"type": "occ",
				"energy": -0.25614,
				"method": "rhf"
			},
			{
				"type": "occ",
				"energy": -0.22353,
				"method": "rhf"
			},
			{
				"type": "unocc",
				"energy": 0.01449,
				"method": "rhf"
			},
			{
				"type": "unocc",
				"energy": 0.01898,
				"method": "rhf"
			},
			{
				"type": "unocc",
				"energy": 0.0431,
				"method": "rhf"
			},
			{
				"type": "unocc",
				"energy": 0.06666,
				"method": "rhf"
			},
			{
				"type": "unocc",
				"energy": 0.07507,
				"method": "rhf"
			}
		],
		"cosmo_sigma_profile": { 
			"-0.025": 0.0,
			"-0.024": 0.0,
			"-0.023": 0.0,
			"-0.022": 0.0,
			"-0.021": 0.0,
			"-0.02": 0.0,
			"-0.019": 0.0,
			"-0.018": 1.06941059668,
			"-0.017": 1.87575991811,
			"-0.016": 1.18748099427,
			"-0.015": 1.17267041418,
			"-0.014": 1.03622264545,
			"-0.013": 1.96085737572,
			"-0.012": 1.01178812067,
			"-0.011": 1.99079028156,
			"-0.01": 3.65147840471,
			"-0.009": 2.48457486634,
			"-0.008": 1.8944264423,
			"-0.007": 2.69505519836,
			"-0.006": 4.50760580401,
			"-0.005": 5.93370654866,
			"-0.004": 6.92553827043,
			"-0.003": 13.6102745137,
			"-0.002": 24.8111127668,
			"-0.001": 26.2225775281,
			"0.0": 30.7098219949,
			"0.001": 26.8094466249,
			"0.002": 13.1794558068,
			"0.003": 8.05051670858,
			"0.004": 5.75027069367,
			"0.005": 4.99920342426,
			"0.006": 5.00046940734,
			"0.007": 3.88058152868,
			"0.008": 2.48596779193,
			"0.009": 1.58101978035,
			"0.01": 2.17459106162,
			"0.011": 2.31344001218,
			"0.012": 2.69094183547,
			"0.013": 2.72593595466,
			"0.014": 3.12425662947,
			"0.015": 2.67176068157,
			"0.016": 1.65241382468,
			"0.017": 0.696400151879,
			"0.018": 0.0,
			"0.019": 0.0,
			"0.02": 0.0,
			"0.021": 0.0,
			"0.022": 0.0,
			"0.023": 0.0,
			"0.024": 0.0,
			"0.025": 0.0
		}
	}
}
