{
	 "smiles": "OC(=O)C1=C(F)C(F)=CC(=C1)S(Cl)(=O)=O", 
	 "Tm": 385.15, 
	 "num_atms": 18, 
	 "gaussian": { 
		 "optdone": 1, 
		 "sigma_profile": "yes", 
		 "theory": "DFT", 
		 "functional": "B3LYP", 
		 "basiset": "6-31G**", 
		 "properties": { 
			 "R2extent": 4559.1287, 
			 "electric_dipole_moment_norm": 4.20305550047, 
			 "electric_quadrupole_moment_norm": 8.62791881105, 
			 "total_energy": -1627.42628368, 
			 "HOMO_LUMO_gap": 0.19012, 
			 "cosmo_polarized_energy": -13.2, 
			 "cosmo_cavitation_energy": 28.51, 
			 "cosmo_dispersion_energy": -20.92, 
			 "cosmo_repulsion_energy": 1.56, 
			 "cosmo_total_nonelectrostatic_energy": 9.15, 
			 "SMD_solvation_energy": 5.87 
		},
		"coords": [
			{
				"x": 2.6033277802,
				"y": 1.8392392209,
				"z": 1.7168417337,
				"element": "O" 
			},
			{
				"x": 1.6634386246,
				"y": 1.8656125179,
				"z": 0.7547774225,
				"element": "C" 
			},
			{
				"x": 1.6340045919,
				"y": 2.7016749004,
				"z": -0.1233516937,
				"element": "O" 
			},
			{
				"x": 0.6508603579,
				"y": 0.7680445456,
				"z": 0.8631379242,
				"element": "C" 
			},
			{
				"x": 0.6414117942,
				"y": -0.2231051973,
				"z": 1.8521753694,
				"element": "C" 
			},
			{
				"x": 1.5564078551,
				"y": -0.2784370882,
				"z": 2.8149075862,
				"element": "F" 
			},
			{
				"x": -0.3511663062,
				"y": -1.2135490185,
				"z": 1.8596216862,
				"element": "C" 
			},
			{
				"x": -0.3100080395,
				"y": -2.1414061226,
				"z": 2.8211837475,
				"element": "F" 
			},
			{
				"x": -1.3451675689,
				"y": -1.24125964,
				"z": 0.8992081013,
				"element": "C" 
			},
			{
				"x": -1.3251338451,
				"y": -0.2431644413,
				"z": -0.0804388005,
				"element": "C" 
			},
			{
				"x": -0.3549773344,
				"y": 0.7477505754,
				"z": -0.1150374955,
				"element": "C" 
			},
			{
				"x": -2.5909083447,
				"y": -0.267631733,
				"z": -1.3444776925,
				"element": "S" 
			},
			{
				"x": -4.1062175547,
				"y": 0.9121835891,
				"z": -0.4304734867,
				"element": "Cl" 
			},
			{
				"x": -3.1281274358,
				"y": -1.6183426741,
				"z": -1.443412681,
				"element": "O" 
			},
			{
				"x": -2.1253081099,
				"y": 0.4817185962,
				"z": -2.5023463163,
				"element": "O" 
			},
			{
				"x": 3.1918590592,
				"y": 2.5924835613,
				"z": 1.5377852722,
				"element": "H" 
			},
			{
				"x": -2.0988028019,
				"y": -2.0199823003,
				"z": 0.9105594086,
				"element": "H" 
			},
			{
				"x": -0.345092722,
				"y": 1.5095707084,
				"z": -0.8858600855,
				"element": "H" 
			}
		],
		 "valence_orbital": [ 
			{
				"type": "occ",
				"energy": -0.34226,
				"method": "rhf"
			},
			{
				"type": "occ",
				"energy": -0.32405,
				"method": "rhf"
			},
			{
				"type": "occ",
				"energy": -0.31045,
				"method": "rhf"
			},
			{
				"type": "occ",
				"energy": -0.30892,
				"method": "rhf"
			},
			{
				"type": "occ",
				"energy": -0.29309,
				"method": "rhf"
			},
			{
				"type": "unocc",
				"energy": -0.10297,
				"method": "rhf"
			},
			{
				"type": "unocc",
				"energy": -0.08729,
				"method": "rhf"
			},
			{
				"type": "unocc",
				"energy": -0.05491,
				"method": "rhf"
			},
			{
				"type": "unocc",
				"energy": 0.01045,
				"method": "rhf"
			},
			{
				"type": "unocc",
				"energy": 0.0341,
				"method": "rhf"
			}
		],
		"cosmo_sigma_profile": { 
			"-0.025": 0.0,
			"-0.024": 0.0,
			"-0.023": 0.0,
			"-0.022": 0.0,
			"-0.021": 0.0,
			"-0.02": 0.0,
			"-0.019": 0.971793672846,
			"-0.018": 0.836267361802,
			"-0.017": 0.821159148164,
			"-0.016": 1.15655329951,
			"-0.015": 0.720946641178,
			"-0.014": 0.298919784395,
			"-0.013": 0.207950370838,
			"-0.012": 1.34237139655,
			"-0.011": 1.48087943691,
			"-0.01": 2.14708305448,
			"-0.009": 1.84528181764,
			"-0.008": 2.49297030532,
			"-0.007": 5.33534867997,
			"-0.006": 6.43772577087,
			"-0.005": 15.9832015241,
			"-0.004": 16.6439094657,
			"-0.003": 20.0882196067,
			"-0.002": 15.7106420813,
			"-0.001": 11.3769377568,
			"0.0": 11.4061522954,
			"0.001": 15.0124421635,
			"0.002": 26.9782041023,
			"0.003": 22.1350848759,
			"0.004": 6.51920359004,
			"0.005": 5.85055487953,
			"0.006": 7.34595812052,
			"0.007": 11.3288670865,
			"0.008": 10.3012529969,
			"0.009": 3.54093792544,
			"0.01": 3.81184085755,
			"0.011": 2.87762288066,
			"0.012": 0.0359393056778,
			"0.013": 0.0,
			"0.014": 0.0,
			"0.015": 0.0,
			"0.016": 0.0,
			"0.017": 0.0,
			"0.018": 0.0,
			"0.019": 0.0,
			"0.02": 0.0,
			"0.021": 0.0,
			"0.022": 0.0,
			"0.023": 0.0,
			"0.024": 0.0,
			"0.025": 0.0
		}
	}
}
