{
	 "smiles": "CCC1=CC(=O)C2=C(N1)C=CC=C2", 
	 "Tm": 448.15, 
	 "num_atms": 24, 
	 "gaussian": { 
		 "optdone": 1, 
		 "sigma_profile": "yes", 
		 "theory": "DFT", 
		 "functional": "B3LYP", 
		 "basiset": "6-31G**", 
		 "properties": { 
			 "R2extent": 2846.1271, 
			 "electric_dipole_moment_norm": 6.13836398888, 
			 "electric_quadrupole_moment_norm": 21.368814465, 
			 "total_energy": -555.799474598, 
			 "HOMO_LUMO_gap": 0.1719, 
			 "cosmo_polarized_energy": -18.17, 
			 "cosmo_cavitation_energy": 27.41, 
			 "cosmo_dispersion_energy": -20.12, 
			 "cosmo_repulsion_energy": 1.58, 
			 "cosmo_total_nonelectrostatic_energy": 8.87, 
			 "SMD_solvation_energy": 4.93 
		},
		"coords": [
			{
				"x": 0.3553144272,
				"y": 0.0145467466,
				"z": 3.8695080805,
				"element": "C" 
			},
			{
				"x": -0.8447394661,
				"y": -0.685228014,
				"z": 3.2046849846,
				"element": "C" 
			},
			{
				"x": -0.6000437936,
				"y": -1.0489358965,
				"z": 1.7608303598,
				"element": "C" 
			},
			{
				"x": -0.3893697703,
				"y": -2.3233548481,
				"z": 1.3248340254,
				"element": "C" 
			},
			{
				"x": -0.1229616941,
				"y": -2.6401749676,
				"z": -0.0716182228,
				"element": "C" 
			},
			{
				"x": 0.0723406105,
				"y": -3.7878332482,
				"z": -0.4828725015,
				"element": "O" 
			},
			{
				"x": -0.1027484645,
				"y": -1.4634388316,
				"z": -0.9801308379,
				"element": "C" 
			},
			{
				"x": -0.3293398235,
				"y": -0.1641166319,
				"z": -0.4812618855,
				"element": "C" 
			},
			{
				"x": -0.5694400414,
				"y": 0.0018698235,
				"z": 0.8743968386,
				"element": "N" 
			},
			{
				"x": -0.3122409455,
				"y": 0.9431429402,
				"z": -1.3493178502,
				"element": "C" 
			},
			{
				"x": -0.0692876103,
				"y": 0.7493425935,
				"z": -2.7007416004,
				"element": "C" 
			},
			{
				"x": 0.1592336437,
				"y": -0.5405446583,
				"z": -3.2103891156,
				"element": "C" 
			},
			{
				"x": 0.1409422401,
				"y": -1.6297010063,
				"z": -2.3528199174,
				"element": "C" 
			},
			{
				"x": 1.239370281,
				"y": -0.6290005448,
				"z": 3.8468291875,
				"element": "H" 
			},
			{
				"x": 0.6132104988,
				"y": 0.9510419121,
				"z": 3.363540394,
				"element": "H" 
			},
			{
				"x": 0.1301617483,
				"y": 0.2519861983,
				"z": 4.9134962927,
				"element": "H" 
			},
			{
				"x": -1.7308988477,
				"y": -0.0385059617,
				"z": 3.2698433152,
				"element": "H" 
			},
			{
				"x": -1.086954085,
				"y": -1.6004232008,
				"z": 3.7511496761,
				"element": "H" 
			},
			{
				"x": -0.4156653808,
				"y": -3.1466768685,
				"z": 2.0294406952,
				"element": "H" 
			},
			{
				"x": -0.7432935761,
				"y": 0.9349728453,
				"z": 1.2177461251,
				"element": "H" 
			},
			{
				"x": -0.4885295103,
				"y": 1.9417827348,
				"z": -0.9563536386,
				"element": "H" 
			},
			{
				"x": -0.0563886938,
				"y": 1.6064578866,
				"z": -3.3679227798,
				"element": "H" 
			},
			{
				"x": 0.3483299618,
				"y": -0.6785937809,
				"z": -4.2704569105,
				"element": "H" 
			},
			{
				"x": 0.3113982919,
				"y": -2.6425152217,
				"z": -2.7036147146,
				"element": "H" 
			}
		],
		 "valence_orbital": [ 
			{
				"type": "occ",
				"energy": -0.34387,
				"method": "rhf"
			},
			{
				"type": "occ",
				"energy": -0.2592,
				"method": "rhf"
			},
			{
				"type": "occ",
				"energy": -0.25222,
				"method": "rhf"
			},
			{
				"type": "occ",
				"energy": -0.21988,
				"method": "rhf"
			},
			{
				"type": "occ",
				"energy": -0.20941,
				"method": "rhf"
			},
			{
				"type": "unocc",
				"energy": -0.03751,
				"method": "rhf"
			},
			{
				"type": "unocc",
				"energy": -0.00988,
				"method": "rhf"
			},
			{
				"type": "unocc",
				"energy": 0.01861,
				"method": "rhf"
			},
			{
				"type": "unocc",
				"energy": 0.05316,
				"method": "rhf"
			},
			{
				"type": "unocc",
				"energy": 0.09287,
				"method": "rhf"
			}
		],
		"cosmo_sigma_profile": { 
			"-0.025": 0.0,
			"-0.024": 0.0,
			"-0.023": 0.0,
			"-0.022": 0.0,
			"-0.021": 0.0,
			"-0.02": 0.0,
			"-0.019": 0.0,
			"-0.018": 0.0,
			"-0.017": 0.0,
			"-0.016": 0.491074349475,
			"-0.015": 1.17796505805,
			"-0.014": 1.43623864564,
			"-0.013": 1.06959196921,
			"-0.012": 2.24156649025,
			"-0.011": 1.49922621949,
			"-0.01": 1.56180166683,
			"-0.009": 2.03093973787,
			"-0.008": 1.98680976508,
			"-0.007": 2.73221455916,
			"-0.006": 7.42811764227,
			"-0.005": 15.3448809662,
			"-0.004": 17.0528275158,
			"-0.003": 17.7831509901,
			"-0.002": 17.7932316447,
			"-0.001": 16.6895572452,
			"0.0": 18.6786175814,
			"0.001": 17.9188872242,
			"0.002": 11.6911994827,
			"0.003": 14.5743949308,
			"0.004": 15.6260940001,
			"0.005": 7.51657940315,
			"0.006": 1.69341236691,
			"0.007": 1.59585640144,
			"0.008": 1.41540104659,
			"0.009": 1.6043431446,
			"0.01": 1.86178483017,
			"0.011": 1.16796782916,
			"0.012": 1.62162658126,
			"0.013": 2.14358148833,
			"0.014": 3.22198696388,
			"0.015": 5.33986235284,
			"0.016": 1.67202864577,
			"0.017": 0.115252494372,
			"0.018": 0.0,
			"0.019": 0.0,
			"0.02": 0.0,
			"0.021": 0.0,
			"0.022": 0.0,
			"0.023": 0.0,
			"0.024": 0.0,
			"0.025": 0.0
		}
	}
}
