{
	 "smiles": "CCOC(=O)N1CCNC(C1)C1=CC=CC=C1", 
	 "Tm": 336.15, 
	 "num_atms": 35, 
	 "gaussian": { 
		 "optdone": 1, 
		 "sigma_profile": "yes", 
		 "theory": "DFT", 
		 "functional": "B3LYP", 
		 "basiset": "6-31G**", 
		 "properties": { 
			 "R2extent": 4647.2518, 
			 "electric_dipole_moment_norm": 1.81315703402, 
			 "electric_quadrupole_moment_norm": 9.43005790173, 
			 "total_energy": -766.19467203, 
			 "HOMO_LUMO_gap": 0.20907, 
			 "cosmo_polarized_energy": -12.46, 
			 "cosmo_cavitation_energy": 36.5, 
			 "cosmo_dispersion_energy": -25.16, 
			 "cosmo_repulsion_energy": 1.99, 
			 "cosmo_total_nonelectrostatic_energy": 13.33, 
			 "SMD_solvation_energy": 4.28 
		},
		"coords": [
			{
				"x": -1.8619069923,
				"y": -2.8517072236,
				"z": 1.3602795268,
				"element": "C" 
			},
			{
				"x": -0.553585837,
				"y": -2.8661749731,
				"z": 0.5918067062,
				"element": "C" 
			},
			{
				"x": -0.0542503239,
				"y": -1.5140828127,
				"z": 0.5694981192,
				"element": "O" 
			},
			{
				"x": 1.1289461682,
				"y": -1.349683578,
				"z": -0.0813671083,
				"element": "C" 
			},
			{
				"x": 1.7574818163,
				"y": -2.2647219216,
				"z": -0.5919653357,
				"element": "O" 
			},
			{
				"x": 1.5355667269,
				"y": -0.0454556261,
				"z": -0.1010631835,
				"element": "N" 
			},
			{
				"x": 2.8256888571,
				"y": 0.2475748054,
				"z": -0.7370913097,
				"element": "C" 
			},
			{
				"x": 2.9879471243,
				"y": 1.7706944732,
				"z": -0.8695403386,
				"element": "C" 
			},
			{
				"x": 1.790616486,
				"y": 2.445947399,
				"z": -1.3597199733,
				"element": "N" 
			},
			{
				"x": 0.5799993909,
				"y": 2.2107830919,
				"z": -0.5436377502,
				"element": "C" 
			},
			{
				"x": 0.8077582709,
				"y": 1.0683897737,
				"z": 0.4916128986,
				"element": "C" 
			},
			{
				"x": -0.6424209173,
				"y": 1.9602307756,
				"z": -1.4127359065,
				"element": "C" 
			},
			{
				"x": -0.6656341036,
				"y": 0.9386820787,
				"z": -2.3755515044,
				"element": "C" 
			},
			{
				"x": -1.8071913731,
				"y": 0.7086409429,
				"z": -3.1441681809,
				"element": "C" 
			},
			{
				"x": -2.9461516852,
				"y": 1.4966521525,
				"z": -2.9665838164,
				"element": "C" 
			},
			{
				"x": -2.934635472,
				"y": 2.5167348439,
				"z": -2.0145316433,
				"element": "C" 
			},
			{
				"x": -1.7910812849,
				"y": 2.7443443606,
				"z": -1.2471321481,
				"element": "C" 
			},
			{
				"x": -2.5921305101,
				"y": -2.1964250129,
				"z": 0.8765060563,
				"element": "H" 
			},
			{
				"x": -2.2798060662,
				"y": -3.8624843042,
				"z": 1.401532419,
				"element": "H" 
			},
			{
				"x": -1.7099346706,
				"y": -2.5006432212,
				"z": 2.3852474274,
				"element": "H" 
			},
			{
				"x": 0.1912745929,
				"y": -3.5154080278,
				"z": 1.0626499048,
				"element": "H" 
			},
			{
				"x": -0.6886976884,
				"y": -3.2156371392,
				"z": -0.4368154368,
				"element": "H" 
			},
			{
				"x": 2.8458117023,
				"y": -0.2280068909,
				"z": -1.7241364622,
				"element": "H" 
			},
			{
				"x": 3.6521811614,
				"y": -0.1900661835,
				"z": -0.1594313834,
				"element": "H" 
			},
			{
				"x": 3.8180783344,
				"y": 1.9856702649,
				"z": -1.5496102203,
				"element": "H" 
			},
			{
				"x": 3.2654774839,
				"y": 2.2081045743,
				"z": 0.0974427972,
				"element": "H" 
			},
			{
				"x": 1.6119581709,
				"y": 2.1870899252,
				"z": -2.324245869,
				"element": "H" 
			},
			{
				"x": 0.3750160198,
				"y": 3.1149985269,
				"z": 0.0495575151,
				"element": "H" 
			},
			{
				"x": 1.3716286499,
				"y": 1.4674036859,
				"z": 1.3464751882,
				"element": "H" 
			},
			{
				"x": -0.1456420393,
				"y": 0.7071721015,
				"z": 0.8706500615,
				"element": "H" 
			},
			{
				"x": 0.2097734564,
				"y": 0.3129352039,
				"z": -2.5227144616,
				"element": "H" 
			},
			{
				"x": -1.8064197704,
				"y": -0.0886566821,
				"z": -3.8822184199,
				"element": "H" 
			},
			{
				"x": -3.8330365153,
				"y": 1.3192496753,
				"z": -3.5681390785,
				"element": "H" 
			},
			{
				"x": -3.8125649779,
				"y": 3.1408501708,
				"z": -1.8728378988,
				"element": "H" 
			},
			{
				"x": -1.7861141848,
				"y": 3.5461047708,
				"z": -0.512721191,
				"element": "H" 
			}
		],
		 "valence_orbital": [ 
			{
				"type": "occ",
				"energy": -0.26103,
				"method": "rhf"
			},
			{
				"type": "occ",
				"energy": -0.25251,
				"method": "rhf"
			},
			{
				"type": "occ",
				"energy": -0.25131,
				"method": "rhf"
			},
			{
				"type": "occ",
				"energy": -0.23612,
				"method": "rhf"
			},
			{
				"type": "occ",
				"energy": -0.21501,
				"method": "rhf"
			},
			{
				"type": "unocc",
				"energy": -0.00594,
				"method": "rhf"
			},
			{
				"type": "unocc",
				"energy": -0.00339,
				"method": "rhf"
			},
			{
				"type": "unocc",
				"energy": 0.05805,
				"method": "rhf"
			},
			{
				"type": "unocc",
				"energy": 0.07834,
				"method": "rhf"
			},
			{
				"type": "unocc",
				"energy": 0.09335,
				"method": "rhf"
			}
		],
		"cosmo_sigma_profile": { 
			"-0.025": 0.0,
			"-0.024": 0.0,
			"-0.023": 0.0,
			"-0.022": 0.0,
			"-0.021": 0.0,
			"-0.02": 0.0,
			"-0.019": 0.0,
			"-0.018": 0.0,
			"-0.017": 0.0,
			"-0.016": 0.0,
			"-0.015": 0.0,
			"-0.014": 0.0,
			"-0.013": 0.0,
			"-0.012": 0.0,
			"-0.011": 0.0,
			"-0.01": 0.161911538382,
			"-0.009": 0.831197582302,
			"-0.008": 1.46824656324,
			"-0.007": 2.33766748627,
			"-0.006": 4.9849640376,
			"-0.005": 22.8499030767,
			"-0.004": 39.6477015481,
			"-0.003": 40.2247823549,
			"-0.002": 28.2245411516,
			"-0.001": 22.1587285703,
			"0.0": 21.0979388144,
			"0.001": 16.719781253,
			"0.002": 11.0559928117,
			"0.003": 12.0508030015,
			"0.004": 14.0980017579,
			"0.005": 13.1812598628,
			"0.006": 10.8520977783,
			"0.007": 3.07563672717,
			"0.008": 2.1889067699,
			"0.009": 1.63027989663,
			"0.01": 2.40063725268,
			"0.011": 2.05789587101,
			"0.012": 2.16644573102,
			"0.013": 4.07498187439,
			"0.014": 5.08373421745,
			"0.015": 0.449210588016,
			"0.016": 0.700289503318,
			"0.017": 0.501145736551,
			"0.018": 0.11181993094,
			"0.019": 0.0,
			"0.02": 0.0,
			"0.021": 0.0,
			"0.022": 0.0,
			"0.023": 0.0,
			"0.024": 0.0,
			"0.025": 0.0
		}
	}
}
