{
	 "smiles": "CN(C)NC(=O)CCC(O)=O", 
	 "Tm": 433.15, 
	 "num_atms": 23, 
	 "gaussian": { 
		 "optdone": 1, 
		 "sigma_profile": "yes", 
		 "theory": "DFT", 
		 "functional": "B3LYP", 
		 "basiset": "6-31G**", 
		 "properties": { 
			 "R2extent": 2533.8122, 
			 "electric_dipole_moment_norm": 3.06848877951, 
			 "electric_quadrupole_moment_norm": 20.6790553841, 
			 "total_energy": -571.036236931, 
			 "HOMO_LUMO_gap": 0.25027, 
			 "cosmo_polarized_energy": -19.12, 
			 "cosmo_cavitation_energy": 26.46, 
			 "cosmo_dispersion_energy": -18.62, 
			 "cosmo_repulsion_energy": 1.53, 
			 "cosmo_total_nonelectrostatic_energy": 9.36, 
			 "SMD_solvation_energy": 6.51 
		},
		"coords": [
			{
				"x": 1.0099581415,
				"y": -2.1355232774,
				"z": -1.8995537002,
				"element": "C" 
			},
			{
				"x": 0.7836844225,
				"y": -1.652794072,
				"z": -0.5398664313,
				"element": "N" 
			},
			{
				"x": 1.5008036658,
				"y": -2.4311826028,
				"z": 0.4750034007,
				"element": "C" 
			},
			{
				"x": -0.5911065639,
				"y": -1.6095809435,
				"z": -0.2631733712,
				"element": "N" 
			},
			{
				"x": -1.20355707,
				"y": -0.5571867487,
				"z": 0.3706601185,
				"element": "C" 
			},
			{
				"x": -2.3490430719,
				"y": -0.6674300766,
				"z": 0.792027041,
				"element": "O" 
			},
			{
				"x": -0.4277725165,
				"y": 0.7523548721,
				"z": 0.4685763468,
				"element": "C" 
			},
			{
				"x": -0.816819157,
				"y": 1.4940448483,
				"z": 1.7444432998,
				"element": "C" 
			},
			{
				"x": -0.282745529,
				"y": 0.8011091339,
				"z": 2.9913441299,
				"element": "C" 
			},
			{
				"x": -0.6705566429,
				"y": 1.346398852,
				"z": 4.1727504388,
				"element": "O" 
			},
			{
				"x": 0.4506892957,
				"y": -0.1584694536,
				"z": 2.9861778625,
				"element": "O" 
			},
			{
				"x": 0.476653953,
				"y": -1.493939249,
				"z": -2.6043374568,
				"element": "H" 
			},
			{
				"x": 2.0804550169,
				"y": -2.0890869465,
				"z": -2.1189887564,
				"element": "H" 
			},
			{
				"x": 0.6733769398,
				"y": -3.1777155435,
				"z": -2.0484443126,
				"element": "H" 
			},
			{
				"x": 1.3289169418,
				"y": -1.9783728786,
				"z": 1.4532172838,
				"element": "H" 
			},
			{
				"x": 1.1809684538,
				"y": -3.4885630215,
				"z": 0.5003169216,
				"element": "H" 
			},
			{
				"x": 2.5715149004,
				"y": -2.4015575553,
				"z": 0.252297022,
				"element": "H" 
			},
			{
				"x": -1.10269989,
				"y": -2.4909870479,
				"z": -0.1965869118,
				"element": "H" 
			},
			{
				"x": -0.699794243,
				"y": 1.3588779082,
				"z": -0.4040114726,
				"element": "H" 
			},
			{
				"x": 0.6449873201,
				"y": 0.5694901566,
				"z": 0.4196385721,
				"element": "H" 
			},
			{
				"x": -1.9097036091,
				"y": 1.5453942165,
				"z": 1.8146436699,
				"element": "H" 
			},
			{
				"x": -0.4338426561,
				"y": 2.5226663782,
				"z": 1.7314381402,
				"element": "H" 
			},
			{
				"x": -1.2844681018,
				"y": 2.0778530512,
				"z": 4.0148281652,
				"element": "H" 
			}
		],
		 "valence_orbital": [ 
			{
				"type": "occ",
				"energy": -0.31583,
				"method": "rhf"
			},
			{
				"type": "occ",
				"energy": -0.27407,
				"method": "rhf"
			},
			{
				"type": "occ",
				"energy": -0.26078,
				"method": "rhf"
			},
			{
				"type": "occ",
				"energy": -0.24781,
				"method": "rhf"
			},
			{
				"type": "occ",
				"energy": -0.23938,
				"method": "rhf"
			},
			{
				"type": "unocc",
				"energy": 0.01089,
				"method": "rhf"
			},
			{
				"type": "unocc",
				"energy": 0.02642,
				"method": "rhf"
			},
			{
				"type": "unocc",
				"energy": 0.06002,
				"method": "rhf"
			},
			{
				"type": "unocc",
				"energy": 0.07827,
				"method": "rhf"
			},
			{
				"type": "unocc",
				"energy": 0.11278,
				"method": "rhf"
			}
		],
		"cosmo_sigma_profile": { 
			"-0.025": 0.0,
			"-0.024": 0.0,
			"-0.023": 0.0,
			"-0.022": 0.0,
			"-0.021": 0.0,
			"-0.02": 0.0121392484574,
			"-0.019": 0.880920407995,
			"-0.018": 0.778217431311,
			"-0.017": 0.886254297744,
			"-0.016": 1.40416377713,
			"-0.015": 1.19201163651,
			"-0.014": 0.693216813848,
			"-0.013": 1.49303611789,
			"-0.012": 1.81427248107,
			"-0.011": 2.36698171795,
			"-0.01": 3.06006815559,
			"-0.009": 2.15617850985,
			"-0.008": 2.85551181103,
			"-0.007": 4.87909781236,
			"-0.006": 7.18146885806,
			"-0.005": 12.5791231097,
			"-0.004": 15.5770333838,
			"-0.003": 18.4590795288,
			"-0.002": 17.3734168683,
			"-0.001": 21.716781503,
			"0.0": 9.70449552598,
			"0.001": 6.00896553149,
			"0.002": 6.43337623024,
			"0.003": 8.11075808398,
			"0.004": 7.84009241949,
			"0.005": 6.08237949811,
			"0.006": 6.25561903068,
			"0.007": 4.44422175659,
			"0.008": 5.03453254021,
			"0.009": 4.96310342438,
			"0.01": 5.61409180138,
			"0.011": 5.31632353907,
			"0.012": 3.90796720691,
			"0.013": 4.83283890018,
			"0.014": 4.21214246533,
			"0.015": 0.451807601716,
			"0.016": 0.0,
			"0.017": 0.0,
			"0.018": 0.0,
			"0.019": 0.0,
			"0.02": 0.0,
			"0.021": 0.0,
			"0.022": 0.0,
			"0.023": 0.0,
			"0.024": 0.0,
			"0.025": 0.0
		}
	}
}
