{
	 "smiles": "COC1=CC=C(C=C1F)S(N)(=O)=O", 
	 "Tm": 399.15, 
	 "num_atms": 21, 
	 "gaussian": { 
		 "optdone": 1, 
		 "sigma_profile": "yes", 
		 "theory": "DFT", 
		 "functional": "B3LYP", 
		 "basiset": "6-31G**", 
		 "properties": { 
			 "R2extent": 5120.3243, 
			 "electric_dipole_moment_norm": 3.78968436021, 
			 "electric_quadrupole_moment_norm": 30.2270215006, 
			 "total_energy": -1049.92191796, 
			 "HOMO_LUMO_gap": 0.20546, 
			 "cosmo_polarized_energy": -14.91, 
			 "cosmo_cavitation_energy": 27.14, 
			 "cosmo_dispersion_energy": -20.56, 
			 "cosmo_repulsion_energy": 1.57, 
			 "cosmo_total_nonelectrostatic_energy": 8.14, 
			 "SMD_solvation_energy": 5.56 
		},
		"coords": [
			{
				"x": -3.1021321918,
				"y": -0.6518541504,
				"z": 0.5033223786,
				"element": "C" 
			},
			{
				"x": -2.0579822001,
				"y": 0.0622929572,
				"z": 1.1739646504,
				"element": "O" 
			},
			{
				"x": -1.2263264517,
				"y": 0.89732886,
				"z": 0.5083951495,
				"element": "C" 
			},
			{
				"x": -0.3924859819,
				"y": 1.6914615195,
				"z": 1.3153910185,
				"element": "C" 
			},
			{
				"x": 0.5162275807,
				"y": 2.5839051333,
				"z": 0.7646838511,
				"element": "C" 
			},
			{
				"x": 0.6043389346,
				"y": 2.6971220605,
				"z": -0.6253643978,
				"element": "C" 
			},
			{
				"x": -0.2108254263,
				"y": 1.9311878198,
				"z": -1.4553851685,
				"element": "C" 
			},
			{
				"x": -1.1083451991,
				"y": 1.0402720197,
				"z": -0.8853295318,
				"element": "C" 
			},
			{
				"x": -1.8797835597,
				"y": 0.3018300116,
				"z": -1.7204302786,
				"element": "F" 
			},
			{
				"x": 1.763440645,
				"y": 3.8418156685,
				"z": -1.3566518204,
				"element": "S" 
			},
			{
				"x": 3.2248997944,
				"y": 2.9785866771,
				"z": -1.3667392803,
				"element": "N" 
			},
			{
				"x": 1.3544372629,
				"y": 4.0535183553,
				"z": -2.7491852468,
				"element": "O" 
			},
			{
				"x": 1.9570765519,
				"y": 4.9506507146,
				"z": -0.4177935032,
				"element": "O" 
			},
			{
				"x": -3.7632472776,
				"y": 0.0266161169,
				"z": -0.0432114012,
				"element": "H" 
			},
			{
				"x": -3.6613267974,
				"y": -1.1449385936,
				"z": 1.2995982343,
				"element": "H" 
			},
			{
				"x": -2.7013180193,
				"y": -1.4006315338,
				"z": -0.1840198648,
				"element": "H" 
			},
			{
				"x": -0.4931360589,
				"y": 1.5849684162,
				"z": 2.3901667255,
				"element": "H" 
			},
			{
				"x": 1.1373023591,
				"y": 3.2031617446,
				"z": 1.4016403857,
				"element": "H" 
			},
			{
				"x": -0.1662928906,
				"y": 2.0268209212,
				"z": -2.5340553571,
				"element": "H" 
			},
			{
				"x": 3.9411148034,
				"y": 3.5522961182,
				"z": -0.928498181,
				"element": "H" 
			},
			{
				"x": 3.4766641222,
				"y": 2.7448891636,
				"z": -2.3237983622,
				"element": "H" 
			}
		],
		 "valence_orbital": [ 
			{
				"type": "occ",
				"energy": -0.31655,
				"method": "rhf"
			},
			{
				"type": "occ",
				"energy": -0.30505,
				"method": "rhf"
			},
			{
				"type": "occ",
				"energy": -0.29213,
				"method": "rhf"
			},
			{
				"type": "occ",
				"energy": -0.26836,
				"method": "rhf"
			},
			{
				"type": "occ",
				"energy": -0.23866,
				"method": "rhf"
			},
			{
				"type": "unocc",
				"energy": -0.0332,
				"method": "rhf"
			},
			{
				"type": "unocc",
				"energy": -0.01796,
				"method": "rhf"
			},
			{
				"type": "unocc",
				"energy": 0.04876,
				"method": "rhf"
			},
			{
				"type": "unocc",
				"energy": 0.07416,
				"method": "rhf"
			},
			{
				"type": "unocc",
				"energy": 0.08681,
				"method": "rhf"
			}
		],
		"cosmo_sigma_profile": { 
			"-0.025": 0.0,
			"-0.024": 0.0,
			"-0.023": 0.0,
			"-0.022": 0.0,
			"-0.021": 0.0,
			"-0.02": 0.0,
			"-0.019": 0.0,
			"-0.018": 0.0,
			"-0.017": 0.0,
			"-0.016": 0.0,
			"-0.015": 0.719280022018,
			"-0.014": 2.99144878998,
			"-0.013": 1.78109868618,
			"-0.012": 2.62840633493,
			"-0.011": 2.44853052887,
			"-0.01": 2.17487424279,
			"-0.009": 1.72019826063,
			"-0.008": 3.45486174037,
			"-0.007": 5.90702495366,
			"-0.006": 11.579854599,
			"-0.005": 13.7927361736,
			"-0.004": 14.1780937547,
			"-0.003": 15.3240442787,
			"-0.002": 12.4253870193,
			"-0.001": 12.486399148,
			"0.0": 15.9642498105,
			"0.001": 16.3023946901,
			"0.002": 14.027180578,
			"0.003": 12.3250038889,
			"0.004": 8.83997320667,
			"0.005": 4.39019086633,
			"0.006": 4.18238168477,
			"0.007": 5.77632923579,
			"0.008": 5.11854176802,
			"0.009": 5.01742649947,
			"0.01": 7.67023826988,
			"0.011": 9.59976727473,
			"0.012": 3.58492328638,
			"0.013": 0.133326863587,
			"0.014": 0.0,
			"0.015": 0.0,
			"0.016": 0.0,
			"0.017": 0.0,
			"0.018": 0.0,
			"0.019": 0.0,
			"0.02": 0.0,
			"0.021": 0.0,
			"0.022": 0.0,
			"0.023": 0.0,
			"0.024": 0.0,
			"0.025": 0.0
		}
	}
}
