{
	 "smiles": "ClC(Cl)C1=C(Cl)C(Cl)=C(Cl)C(Cl)=C1Cl", 
	 "Tm": 393.15, 
	 "num_atms": 15, 
	 "gaussian": { 
		 "optdone": 1, 
		 "sigma_profile": "yes", 
		 "theory": "DFT", 
		 "functional": "B3LYP", 
		 "basiset": "6-31G**", 
		 "properties": { 
			 "R2extent": 5656.67, 
			 "electric_dipole_moment_norm": 1.22150745393, 
			 "electric_quadrupole_moment_norm": 4.95242668901, 
			 "total_energy": -3488.65566516, 
			 "HOMO_LUMO_gap": 0.19282, 
			 "cosmo_polarized_energy": -4.57, 
			 "cosmo_cavitation_energy": 31.03, 
			 "cosmo_dispersion_energy": -23.39, 
			 "cosmo_repulsion_energy": 1.83, 
			 "cosmo_total_nonelectrostatic_energy": 9.48, 
			 "SMD_solvation_energy": 3.42 
		},
		"coords": [
			{
				"x": 0.1198356044,
				"y": 0.3091103132,
				"z": 3.4846973399,
				"element": "Cl" 
			},
			{
				"x": -0.8355035513,
				"y": 0.9992377514,
				"z": 2.1157184357,
				"element": "C" 
			},
			{
				"x": -2.5957839939,
				"y": 1.1039239139,
				"z": 2.5074443425,
				"element": "Cl" 
			},
			{
				"x": -0.5687507604,
				"y": 0.2962405524,
				"z": 0.8029904655,
				"element": "C" 
			},
			{
				"x": 0.0232035742,
				"y": 1.0243675594,
				"z": -0.2483889879,
				"element": "C" 
			},
			{
				"x": 0.4403508865,
				"y": 2.7089156826,
				"z": -0.0364039985,
				"element": "Cl" 
			},
			{
				"x": 0.2963203675,
				"y": 0.4293846918,
				"z": -1.4905297356,
				"element": "C" 
			},
			{
				"x": 1.0254238981,
				"y": 1.3482671209,
				"z": -2.7673320837,
				"element": "Cl" 
			},
			{
				"x": -0.0248757212,
				"y": -0.9207847893,
				"z": -1.6968745219,
				"element": "C" 
			},
			{
				"x": 0.3068769449,
				"y": -1.666614723,
				"z": -3.2241872769,
				"element": "Cl" 
			},
			{
				"x": -0.6154846665,
				"y": -1.6657371748,
				"z": -0.6630789411,
				"element": "C" 
			},
			{
				"x": -1.01029632,
				"y": -3.3331757326,
				"z": -0.923418927,
				"element": "Cl" 
			},
			{
				"x": -0.8831315196,
				"y": -1.0580629511,
				"z": 0.5745155084,
				"element": "C" 
			},
			{
				"x": -1.6133606925,
				"y": -2.0145534005,
				"z": 1.8248407509,
				"element": "Cl" 
			},
			{
				"x": -0.5108240501,
				"y": 2.0289811858,
				"z": 2.0510076298,
				"element": "H" 
			}
		],
		 "valence_orbital": [ 
			{
				"type": "occ",
				"energy": -0.31747,
				"method": "rhf"
			},
			{
				"type": "occ",
				"energy": -0.31639,
				"method": "rhf"
			},
			{
				"type": "occ",
				"energy": -0.30452,
				"method": "rhf"
			},
			{
				"type": "occ",
				"energy": -0.27863,
				"method": "rhf"
			},
			{
				"type": "occ",
				"energy": -0.27061,
				"method": "rhf"
			},
			{
				"type": "unocc",
				"energy": -0.07779,
				"method": "rhf"
			},
			{
				"type": "unocc",
				"energy": -0.06292,
				"method": "rhf"
			},
			{
				"type": "unocc",
				"energy": -0.0585,
				"method": "rhf"
			},
			{
				"type": "unocc",
				"energy": -0.02742,
				"method": "rhf"
			},
			{
				"type": "unocc",
				"energy": -0.00034,
				"method": "rhf"
			}
		],
		"cosmo_sigma_profile": { 
			"-0.025": 0.0,
			"-0.024": 0.0,
			"-0.023": 0.0,
			"-0.022": 0.0,
			"-0.021": 0.0,
			"-0.02": 0.0,
			"-0.019": 0.0,
			"-0.018": 0.0,
			"-0.017": 0.0,
			"-0.016": 0.0,
			"-0.015": 0.0,
			"-0.014": 0.0,
			"-0.013": 0.0,
			"-0.012": 0.0,
			"-0.011": 0.198795931925,
			"-0.01": 0.796521507995,
			"-0.009": 1.04740833178,
			"-0.008": 1.35346101919,
			"-0.007": 1.52065117254,
			"-0.006": 2.73387206883,
			"-0.005": 6.93290259252,
			"-0.004": 18.0854685044,
			"-0.003": 31.6689773866,
			"-0.002": 23.1703666699,
			"-0.001": 21.2957802138,
			"0.0": 22.9739136317,
			"0.001": 27.0449488765,
			"0.002": 40.7099519342,
			"0.003": 42.35402832,
			"0.004": 21.8486936624,
			"0.005": 1.60012265687,
			"0.006": 0.0,
			"0.007": 0.0,
			"0.008": 0.0,
			"0.009": 0.0,
			"0.01": 0.0,
			"0.011": 0.0,
			"0.012": 0.0,
			"0.013": 0.0,
			"0.014": 0.0,
			"0.015": 0.0,
			"0.016": 0.0,
			"0.017": 0.0,
			"0.018": 0.0,
			"0.019": 0.0,
			"0.02": 0.0,
			"0.021": 0.0,
			"0.022": 0.0,
			"0.023": 0.0,
			"0.024": 0.0,
			"0.025": 0.0
		}
	}
}
