{
	 "smiles": "ICC=C", 
	 "Tm": 173.95, 
	 "num_atms": 9, 
	 "gaussian": { 
		 "optdone": 1, 
		 "sigma_profile": "no", 
		 "theory": "DFT", 
		 "functional": "B3LYP", 
		 "basiset": "6-31G**", 
		 "properties": { 
			 "R2extent": 616.4171, 
			 "electric_dipole_moment_norm": 2.22987751009, 
			 "electric_quadrupole_moment_norm": 2.4754050618, 
			 "total_energy": -128.700234089, 
			 "HOMO_LUMO_gap": 0.19515, 
			 "cosmo_polarized_energy": -102893.97, 
			 "cosmo_cavitation_energy": 15.77, 
			 "cosmo_dispersion_energy": -12.96, 
			 "cosmo_repulsion_energy": 1.13, 
			 "cosmo_total_nonelectrostatic_energy": 3.94, 
			 "SMD_solvation_energy": 2.65 
		},
		"coords": [
			{
				"x": 0.1625316903,
				"y": 1.0807583551,
				"z": -1.2014603792,
				"element": "I" 
			},
			{
				"x": 0.4268736451,
				"y": -0.6548531115,
				"z": 0.158980858,
				"element": "C" 
			},
			{
				"x": 1.7749012404,
				"y": -1.2601696134,
				"z": 0.0299260563,
				"element": "C" 
			},
			{
				"x": 2.6895503209,
				"y": -1.2376839412,
				"z": 1.0031704088,
				"element": "C" 
			},
			{
				"x": -0.3775227713,
				"y": -1.3201137203,
				"z": -0.151970278,
				"element": "H" 
			},
			{
				"x": 0.2288587617,
				"y": -0.2553447858,
				"z": 1.1520768443,
				"element": "H" 
			},
			{
				"x": 1.9947907191,
				"y": -1.7554015815,
				"z": -0.913816415,
				"element": "H" 
			},
			{
				"x": 2.5027561568,
				"y": -0.73946702,
				"z": 1.9513205892,
				"element": "H" 
			},
			{
				"x": 3.6553602371,
				"y": -1.7185245814,
				"z": 0.8846723158,
				"element": "H" 
			}
		],
		 "valence_orbital": [ 
			{
				"type": "occ",
				"energy": -0.37427,
				"method": "rhf"
			},
			{
				"type": "occ",
				"energy": -0.36586,
				"method": "rhf"
			},
			{
				"type": "occ",
				"energy": -0.27379,
				"method": "rhf"
			},
			{
				"type": "occ",
				"energy": -0.2572,
				"method": "rhf"
			},
			{
				"type": "occ",
				"energy": -0.25487,
				"method": "rhf"
			},
			{
				"type": "unocc",
				"energy": -0.05972,
				"method": "rhf"
			},
			{
				"type": "unocc",
				"energy": 0.01402,
				"method": "rhf"
			},
			{
				"type": "unocc",
				"energy": 0.04085,
				"method": "rhf"
			},
			{
				"type": "unocc",
				"energy": 0.04986,
				"method": "rhf"
			},
			{
				"type": "unocc",
				"energy": 0.06359,
				"method": "rhf"
			}
		],
		"cosmo_sigma_profile": { 
			"0.0": 0.0,
			"0.0": 0.0,
			"0.0": 0.0,
			"0.0": 0.0,
			"0.0": 0.0,
			"0.0": 0.0,
			"0.0": 0.0,
			"0.0": 0.0,
			"0.0": 0.0,
			"0.0": 0.0,
			"0.0": 0.0,
			"0.0": 0.0,
			"0.0": 0.0,
			"0.0": 0.0,
			"0.0": 0.0,
			"0.0": 0.0,
			"0.0": 0.0,
			"0.0": 0.0,
			"0.0": 0.0,
			"0.0": 0.0,
			"0.0": 0.0,
			"0.0": 0.0,
			"0.0": 0.0,
			"0.0": 0.0,
			"0.0": 0.0,
			"0.0": 0.0,
			"0.0": 0.0,
			"0.0": 0.0,
			"0.0": 0.0,
			"0.0": 0.0,
			"0.0": 0.0,
			"0.0": 0.0,
			"0.0": 0.0,
			"0.0": 0.0,
			"0.0": 0.0,
			"0.0": 0.0,
			"0.0": 0.0,
			"0.0": 0.0,
			"0.0": 0.0,
			"0.0": 0.0,
			"0.0": 0.0,
			"0.0": 0.0,
			"0.0": 0.0,
			"0.0": 0.0,
			"0.0": 0.0,
			"0.0": 0.0,
			"0.0": 0.0,
			"0.0": 0.0,
			"0.0": 0.0,
			"0.0": 0.0,
			"0.0": 0.0
		}
	}
}
