{
	 "smiles": "CC1=NC(=NC(N)=N1)C1CC1", 
	 "Tm": 388.15, 
	 "num_atms": 21, 
	 "gaussian": { 
		 "optdone": 1, 
		 "sigma_profile": "yes", 
		 "theory": "DFT", 
		 "functional": "B3LYP", 
		 "basiset": "6-31G**", 
		 "properties": { 
			 "R2extent": 1880.1362, 
			 "electric_dipole_moment_norm": 1.44239541389, 
			 "electric_quadrupole_moment_norm": 7.51286404709, 
			 "total_energy": -491.785786275, 
			 "HOMO_LUMO_gap": 0.22308, 
			 "cosmo_polarized_energy": -10.21, 
			 "cosmo_cavitation_energy": 24.77, 
			 "cosmo_dispersion_energy": -18.48, 
			 "cosmo_repulsion_energy": 1.53, 
			 "cosmo_total_nonelectrostatic_energy": 7.82, 
			 "SMD_solvation_energy": 0.22 
		},
		"coords": [
			{
				"x": -0.8065494825,
				"y": 2.1456841579,
				"z": 1.8600273553,
				"element": "C" 
			},
			{
				"x": -0.1442491981,
				"y": 1.1525275567,
				"z": 0.9453029868,
				"element": "C" 
			},
			{
				"x": -0.9357951477,
				"y": 0.4922886867,
				"z": 0.0864400994,
				"element": "N" 
			},
			{
				"x": -0.3048483953,
				"y": -0.3856796862,
				"z": -0.713559114,
				"element": "C" 
			},
			{
				"x": 1.0104704496,
				"y": -0.6296085626,
				"z": -0.7041134311,
				"element": "N" 
			},
			{
				"x": 1.700727679,
				"y": 0.0920507209,
				"z": 0.1991009382,
				"element": "C" 
			},
			{
				"x": 3.037011626,
				"y": -0.1075181448,
				"z": 0.2594010692,
				"element": "N" 
			},
			{
				"x": 1.1775913222,
				"y": 0.9988732128,
				"z": 1.0515735531,
				"element": "N" 
			},
			{
				"x": -1.1193816218,
				"y": -1.1488561513,
				"z": -1.6856199762,
				"element": "C" 
			},
			{
				"x": -2.5358095793,
				"y": -1.56101142,
				"z": -1.3121044565,
				"element": "C" 
			},
			{
				"x": -2.329472816,
				"y": -0.4868074598,
				"z": -2.328415927,
				"element": "C" 
			},
			{
				"x": -1.5696456269,
				"y": 1.6452738903,
				"z": 2.4647171503,
				"element": "H" 
			},
			{
				"x": -0.0705612384,
				"y": 2.6166781514,
				"z": 2.5122670236,
				"element": "H" 
			},
			{
				"x": -1.3204747294,
				"y": 2.9114276494,
				"z": 1.2701007236,
				"element": "H" 
			},
			{
				"x": 3.5834256432,
				"y": 0.4142899754,
				"z": 0.9233159368,
				"element": "H" 
			},
			{
				"x": 3.464046616,
				"y": -0.7758792181,
				"z": -0.3591744573,
				"element": "H" 
			},
			{
				"x": -0.5380477921,
				"y": -1.834381158,
				"z": -2.2921717717,
				"element": "H" 
			},
			{
				"x": -2.8766540113,
				"y": -1.2585050637,
				"z": -0.3277157476,
				"element": "H" 
			},
			{
				"x": -2.8649721989,
				"y": -2.5418890597,
				"z": -1.6410167993,
				"element": "H" 
			},
			{
				"x": -2.5128579273,
				"y": -0.7090536422,
				"z": -3.3751305828,
				"element": "H" 
			},
			{
				"x": -2.5322535712,
				"y": 0.5343955649,
				"z": -2.0239245727,
				"element": "H" 
			}
		],
		 "valence_orbital": [ 
			{
				"type": "occ",
				"energy": -0.29997,
				"method": "rhf"
			},
			{
				"type": "occ",
				"energy": -0.26819,
				"method": "rhf"
			},
			{
				"type": "occ",
				"energy": -0.25239,
				"method": "rhf"
			},
			{
				"type": "occ",
				"energy": -0.2508,
				"method": "rhf"
			},
			{
				"type": "occ",
				"energy": -0.24239,
				"method": "rhf"
			},
			{
				"type": "unocc",
				"energy": -0.01931,
				"method": "rhf"
			},
			{
				"type": "unocc",
				"energy": -0.00511,
				"method": "rhf"
			},
			{
				"type": "unocc",
				"energy": 0.08835,
				"method": "rhf"
			},
			{
				"type": "unocc",
				"energy": 0.10553,
				"method": "rhf"
			},
			{
				"type": "unocc",
				"energy": 0.12681,
				"method": "rhf"
			}
		],
		"cosmo_sigma_profile": { 
			"-0.025": 0.0,
			"-0.024": 0.0,
			"-0.023": 0.0,
			"-0.022": 0.0,
			"-0.021": 0.0,
			"-0.02": 0.0,
			"-0.019": 0.0,
			"-0.018": 0.0,
			"-0.017": 0.0,
			"-0.016": 0.0,
			"-0.015": 0.278702541921,
			"-0.014": 1.86203602393,
			"-0.013": 2.21361038595,
			"-0.012": 2.0290886392,
			"-0.011": 2.03529881012,
			"-0.01": 2.09652826088,
			"-0.009": 1.34887756011,
			"-0.008": 1.16647852187,
			"-0.007": 2.19605422394,
			"-0.006": 2.28533397307,
			"-0.005": 10.6580688265,
			"-0.004": 15.3729466098,
			"-0.003": 14.3457598474,
			"-0.002": 15.4012218685,
			"-0.001": 20.7494031002,
			"0.0": 18.2791992031,
			"0.001": 14.0230692034,
			"0.002": 14.2673832453,
			"0.003": 15.1953313548,
			"0.004": 8.96152058085,
			"0.005": 6.11004297738,
			"0.006": 3.8168006112,
			"0.007": 4.74402247822,
			"0.008": 2.73582688372,
			"0.009": 3.11488716763,
			"0.01": 2.42275466729,
			"0.011": 2.94702153684,
			"0.012": 1.90779512104,
			"0.013": 1.99119315494,
			"0.014": 1.33397945937,
			"0.015": 0.155659456617,
			"0.016": 0.0,
			"0.017": 0.0,
			"0.018": 0.0,
			"0.019": 0.0,
			"0.02": 0.0,
			"0.021": 0.0,
			"0.022": 0.0,
			"0.023": 0.0,
			"0.024": 0.0,
			"0.025": 0.0
		}
	}
}
