{
	 "smiles": "CCCCOC(=O)CCC(=O)OCCCC", 
	 "Tm": 243.95, 
	 "num_atms": 38, 
	 "gaussian": { 
		 "optdone": 1, 
		 "sigma_profile": "yes", 
		 "theory": "DFT", 
		 "functional": "B3LYP", 
		 "basiset": "6-31G**", 
		 "properties": { 
			 "R2extent": 5521.2429, 
			 "electric_dipole_moment_norm": 0.137350136512, 
			 "electric_quadrupole_moment_norm": 15.3776738377, 
			 "total_energy": -771.483883725, 
			 "HOMO_LUMO_gap": 0.27833, 
			 "cosmo_polarized_energy": -11.74, 
			 "cosmo_cavitation_energy": 40.62, 
			 "cosmo_dispersion_energy": -25.88, 
			 "cosmo_repulsion_energy": 2.12, 
			 "cosmo_total_nonelectrostatic_energy": 16.86, 
			 "SMD_solvation_energy": 7.92 
		},
		"coords": [
			{
				"x": -0.2803516728,
				"y": 1.3836879976,
				"z": -3.8241476434,
				"element": "C" 
			},
			{
				"x": 0.4764442628,
				"y": 0.6255057613,
				"z": -2.729426588,
				"element": "C" 
			},
			{
				"x": 1.9150080896,
				"y": 0.2776744873,
				"z": -3.1361177495,
				"element": "C" 
			},
			{
				"x": 2.6947609916,
				"y": -0.4888197597,
				"z": -2.0792196133,
				"element": "C" 
			},
			{
				"x": 2.8725971051,
				"y": 0.3810662881,
				"z": -0.9344564469,
				"element": "O" 
			},
			{
				"x": 3.4512674386,
				"y": -0.1696218232,
				"z": 0.1534616425,
				"element": "C" 
			},
			{
				"x": 3.8288395667,
				"y": -1.3206061493,
				"z": 0.206325648,
				"element": "O" 
			},
			{
				"x": 3.5960300072,
				"y": 0.8348664771,
				"z": 1.2847133527,
				"element": "C" 
			},
			{
				"x": 2.5516787872,
				"y": 1.9575670706,
				"z": 1.2966755035,
				"element": "C" 
			},
			{
				"x": 1.1049060336,
				"y": 1.4934488497,
				"z": 1.3306086189,
				"element": "C" 
			},
			{
				"x": 0.1703219869,
				"y": 2.1304618003,
				"z": 0.8936882185,
				"element": "O" 
			},
			{
				"x": 0.9782136062,
				"y": 0.2919007458,
				"z": 1.9322146764,
				"element": "O" 
			},
			{
				"x": -0.3652909936,
				"y": -0.2415522121,
				"z": 2.0286598011,
				"element": "C" 
			},
			{
				"x": -0.2744933846,
				"y": -1.6438447394,
				"z": 2.6099424467,
				"element": "C" 
			},
			{
				"x": 0.4441599982,
				"y": -2.6554017246,
				"z": 1.7065320015,
				"element": "C" 
			},
			{
				"x": 0.5011377064,
				"y": -4.0583378133,
				"z": 2.3185252552,
				"element": "C" 
			},
			{
				"x": -1.3025146022,
				"y": 1.6171486054,
				"z": -3.5102471009,
				"element": "H" 
			},
			{
				"x": 0.2160148781,
				"y": 2.3307791676,
				"z": -4.0645318563,
				"element": "H" 
			},
			{
				"x": -0.3402126976,
				"y": 0.797862925,
				"z": -4.7489800066,
				"element": "H" 
			},
			{
				"x": 0.488653981,
				"y": 1.2216214035,
				"z": -1.8104495337,
				"element": "H" 
			},
			{
				"x": -0.0600950556,
				"y": -0.3029677534,
				"z": -2.4884867496,
				"element": "H" 
			},
			{
				"x": 2.4650242552,
				"y": 1.1934193385,
				"z": -3.3891023752,
				"element": "H" 
			},
			{
				"x": 1.904228399,
				"y": -0.3382950595,
				"z": -4.0457260963,
				"element": "H" 
			},
			{
				"x": 2.1684756139,
				"y": -1.3921036921,
				"z": -1.7535837506,
				"element": "H" 
			},
			{
				"x": 3.6827437681,
				"y": -0.7930043081,
				"z": -2.4398699574,
				"element": "H" 
			},
			{
				"x": 4.5976465633,
				"y": 1.2753293471,
				"z": 1.1999498389,
				"element": "H" 
			},
			{
				"x": 3.578669705,
				"y": 0.2615581433,
				"z": 2.2130490635,
				"element": "H" 
			},
			{
				"x": 2.7100375511,
				"y": 2.5876392129,
				"z": 2.1811893643,
				"element": "H" 
			},
			{
				"x": 2.6495792015,
				"y": 2.6050660856,
				"z": 0.4237832609,
				"element": "H" 
			},
			{
				"x": -0.8154690916,
				"y": -0.2379984976,
				"z": 1.0305381121,
				"element": "H" 
			},
			{
				"x": -0.9584354089,
				"y": 0.4262800917,
				"z": 2.6618227902,
				"element": "H" 
			},
			{
				"x": -1.3007162063,
				"y": -1.9844259354,
				"z": 2.8043793145,
				"element": "H" 
			},
			{
				"x": 0.2245760217,
				"y": -1.5922944692,
				"z": 3.5863501548,
				"element": "H" 
			},
			{
				"x": -0.0733800656,
				"y": -2.698665381,
				"z": 0.7378888226,
				"element": "H" 
			},
			{
				"x": 1.4603846135,
				"y": -2.3038148196,
				"z": 1.4974767449,
				"element": "H" 
			},
			{
				"x": -0.5037325665,
				"y": -4.4537301226,
				"z": 2.5082340925,
				"element": "H" 
			},
			{
				"x": 1.0392398243,
				"y": -4.0516718828,
				"z": 3.2732731139,
				"element": "H" 
			},
			{
				"x": 1.0158517895,
				"y": -4.7597276554,
				"z": 1.6544636295,
				"element": "H" 
			}
		],
		 "valence_orbital": [ 
			{
				"type": "occ",
				"energy": -0.32506,
				"method": "rhf"
			},
			{
				"type": "occ",
				"energy": -0.29942,
				"method": "rhf"
			},
			{
				"type": "occ",
				"energy": -0.29731,
				"method": "rhf"
			},
			{
				"type": "occ",
				"energy": -0.26972,
				"method": "rhf"
			},
			{
				"type": "occ",
				"energy": -0.26692,
				"method": "rhf"
			},
			{
				"type": "unocc",
				"energy": 0.01141,
				"method": "rhf"
			},
			{
				"type": "unocc",
				"energy": 0.01375,
				"method": "rhf"
			},
			{
				"type": "unocc",
				"energy": 0.077,
				"method": "rhf"
			},
			{
				"type": "unocc",
				"energy": 0.09642,
				"method": "rhf"
			},
			{
				"type": "unocc",
				"energy": 0.09912,
				"method": "rhf"
			}
		],
		"cosmo_sigma_profile": { 
			"-0.025": 0.0,
			"-0.024": 0.0,
			"-0.023": 0.0,
			"-0.022": 0.0,
			"-0.021": 0.0,
			"-0.02": 0.0,
			"-0.019": 0.0,
			"-0.018": 0.0,
			"-0.017": 0.0,
			"-0.016": 0.0,
			"-0.015": 0.0,
			"-0.014": 0.0,
			"-0.013": 0.0,
			"-0.012": 0.0,
			"-0.011": 0.0,
			"-0.01": 0.0,
			"-0.009": 0.0,
			"-0.008": 0.134946787577,
			"-0.007": 5.0550982853,
			"-0.006": 6.59068565352,
			"-0.005": 15.2483260714,
			"-0.004": 25.0208699723,
			"-0.003": 38.9085404473,
			"-0.002": 42.7793927019,
			"-0.001": 34.3486305611,
			"0.0": 36.0172824552,
			"0.001": 34.5912411417,
			"0.002": 17.785491647,
			"0.003": 11.2420846671,
			"0.004": 7.99965443502,
			"0.005": 6.76091512791,
			"0.006": 4.21133295861,
			"0.007": 2.79437472207,
			"0.008": 2.88496149412,
			"0.009": 2.98166265737,
			"0.01": 3.19924747739,
			"0.011": 4.65806245956,
			"0.012": 8.09478067795,
			"0.013": 3.45002031616,
			"0.014": 0.0543243844945,
			"0.015": 0.0,
			"0.016": 0.0,
			"0.017": 0.0,
			"0.018": 0.0,
			"0.019": 0.0,
			"0.02": 0.0,
			"0.021": 0.0,
			"0.022": 0.0,
			"0.023": 0.0,
			"0.024": 0.0,
			"0.025": 0.0
		}
	}
}
