{
	 "smiles": "O=C1NCC2=C1C=CC=C2", 
	 "Tm": 424.15, 
	 "num_atms": 17, 
	 "gaussian": { 
		 "optdone": 1, 
		 "sigma_profile": "yes", 
		 "theory": "DFT", 
		 "functional": "B3LYP", 
		 "basiset": "6-31G**", 
		 "properties": { 
			 "R2extent": 1390.896, 
			 "electric_dipole_moment_norm": 4.08942350216, 
			 "electric_quadrupole_moment_norm": 11.4344214663, 
			 "total_energy": -439.064181208, 
			 "HOMO_LUMO_gap": 0.2126, 
			 "cosmo_polarized_energy": -12.46, 
			 "cosmo_cavitation_energy": 20.81, 
			 "cosmo_dispersion_energy": -15.84, 
			 "cosmo_repulsion_energy": 1.29, 
			 "cosmo_total_nonelectrostatic_energy": 6.26, 
			 "SMD_solvation_energy": 3.27 
		},
		"coords": [
			{
				"x": 1.5690991391,
				"y": -1.3640298069,
				"z": -2.1831192741,
				"element": "O" 
			},
			{
				"x": 1.1273235204,
				"y": -0.6845475629,
				"z": -1.2701763483,
				"element": "C" 
			},
			{
				"x": 1.5926013506,
				"y": 0.5517383286,
				"z": -0.8672323523,
				"element": "N" 
			},
			{
				"x": 0.8747047258,
				"y": 1.1383365216,
				"z": 0.254545501,
				"element": "C" 
			},
			{
				"x": -0.1668615747,
				"y": 0.0785118608,
				"z": 0.5465270293,
				"element": "C" 
			},
			{
				"x": -0.0093009465,
				"y": -0.9799694267,
				"z": -0.3496001746,
				"element": "C" 
			},
			{
				"x": -0.8346586298,
				"y": -2.0998776095,
				"z": -0.3140125505,
				"element": "C" 
			},
			{
				"x": -1.8395789346,
				"y": -2.140925614,
				"z": 0.6537670067,
				"element": "C" 
			},
			{
				"x": -2.0020349474,
				"y": -1.0802710353,
				"z": 1.5563110408,
				"element": "C" 
			},
			{
				"x": -1.1674127344,
				"y": 0.0417511922,
				"z": 1.5130185648,
				"element": "C" 
			},
			{
				"x": 2.3713936771,
				"y": 0.9915461222,
				"z": -1.3320856623,
				"element": "H" 
			},
			{
				"x": 0.4165894528,
				"y": 2.1013285613,
				"z": -0.0115381377,
				"element": "H" 
			},
			{
				"x": 1.5345157714,
				"y": 1.313298332,
				"z": 1.1159761053,
				"element": "H" 
			},
			{
				"x": -0.6876104215,
				"y": -2.9075829045,
				"z": -1.0244025543,
				"element": "H" 
			},
			{
				"x": -2.5026902977,
				"y": -2.9990581017,
				"z": 0.7114768704,
				"element": "H" 
			},
			{
				"x": -2.7898902572,
				"y": -1.1303800285,
				"z": 2.302563521,
				"element": "H" 
			},
			{
				"x": -1.3041888934,
				"y": 0.8570311713,
				"z": 2.2185814149,
				"element": "H" 
			}
		],
		 "valence_orbital": [ 
			{
				"type": "occ",
				"energy": -0.34926,
				"method": "rhf"
			},
			{
				"type": "occ",
				"energy": -0.26073,
				"method": "rhf"
			},
			{
				"type": "occ",
				"energy": -0.25592,
				"method": "rhf"
			},
			{
				"type": "occ",
				"energy": -0.24911,
				"method": "rhf"
			},
			{
				"type": "occ",
				"energy": -0.24458,
				"method": "rhf"
			},
			{
				"type": "unocc",
				"energy": -0.03198,
				"method": "rhf"
			},
			{
				"type": "unocc",
				"energy": -0.01233,
				"method": "rhf"
			},
			{
				"type": "unocc",
				"energy": 0.06801,
				"method": "rhf"
			},
			{
				"type": "unocc",
				"energy": 0.09151,
				"method": "rhf"
			},
			{
				"type": "unocc",
				"energy": 0.0955,
				"method": "rhf"
			}
		],
		"cosmo_sigma_profile": { 
			"-0.025": 0.0,
			"-0.024": 0.0,
			"-0.023": 0.0,
			"-0.022": 0.0,
			"-0.021": 0.0,
			"-0.02": 0.0,
			"-0.019": 0.0,
			"-0.018": 0.0,
			"-0.017": 0.0,
			"-0.016": 0.0,
			"-0.015": 0.224058117071,
			"-0.014": 1.27112704498,
			"-0.013": 1.42352008453,
			"-0.012": 0.611238320946,
			"-0.011": 1.09396732793,
			"-0.01": 0.921320499171,
			"-0.009": 0.872879165702,
			"-0.008": 1.22389028812,
			"-0.007": 2.83362125783,
			"-0.006": 14.2742613053,
			"-0.005": 17.6433401129,
			"-0.004": 15.5808470429,
			"-0.003": 9.29875945539,
			"-0.002": 7.58892311073,
			"-0.001": 8.84283515668,
			"0.0": 9.8719938686,
			"0.001": 10.5746828989,
			"0.002": 11.8741541425,
			"0.003": 11.3796234316,
			"0.004": 11.9189054983,
			"0.005": 5.70541244272,
			"0.006": 1.32353557006,
			"0.007": 1.17262829324,
			"0.008": 1.35800627388,
			"0.009": 1.62693919699,
			"0.01": 1.1239038046,
			"0.011": 1.45928383471,
			"0.012": 1.75791917592,
			"0.013": 3.31567900843,
			"0.014": 6.47968146479,
			"0.015": 1.67166844248,
			"0.016": 0.0,
			"0.017": 0.0,
			"0.018": 0.0,
			"0.019": 0.0,
			"0.02": 0.0,
			"0.021": 0.0,
			"0.022": 0.0,
			"0.023": 0.0,
			"0.024": 0.0,
			"0.025": 0.0
		}
	}
}
