{
	 "smiles": "OC(=O)CCCOC1=CC(Br)=CC=C1", 
	 "Tm": 324.15, 
	 "num_atms": 25, 
	 "gaussian": { 
		 "optdone": 1, 
		 "sigma_profile": "yes", 
		 "theory": "DFT", 
		 "functional": "B3LYP", 
		 "basiset": "6-31G**", 
		 "properties": { 
			 "R2extent": 7540.8388, 
			 "electric_dipole_moment_norm": 2.78478855571, 
			 "electric_quadrupole_moment_norm": 9.97206169054, 
			 "total_energy": -3184.78383333, 
			 "HOMO_LUMO_gap": 0.21351, 
			 "cosmo_polarized_energy": -11.2, 
			 "cosmo_cavitation_energy": 31.86, 
			 "cosmo_dispersion_energy": -23.21, 
			 "cosmo_repulsion_energy": 1.87, 
			 "cosmo_total_nonelectrostatic_energy": 10.52, 
			 "SMD_solvation_energy": 5.42 
		},
		"coords": [
			{
				"x": -1.4329739032,
				"y": 2.4227254606,
				"z": 2.9526750601,
				"element": "O" 
			},
			{
				"x": -1.9493671702,
				"y": 1.5065089509,
				"z": 2.1004775562,
				"element": "C" 
			},
			{
				"x": -2.6464565432,
				"y": 0.587963261,
				"z": 2.4774369028,
				"element": "O" 
			},
			{
				"x": -1.552671943,
				"y": 1.7942848259,
				"z": 0.6683124656,
				"element": "C" 
			},
			{
				"x": -2.0705974106,
				"y": 0.7511327734,
				"z": -0.3259718815,
				"element": "C" 
			},
			{
				"x": -1.3786379681,
				"y": -0.6018525363,
				"z": -0.212039396,
				"element": "C" 
			},
			{
				"x": 0.0074763399,
				"y": -0.4045970443,
				"z": -0.510119437,
				"element": "O" 
			},
			{
				"x": 0.8542658966,
				"y": -1.4697653401,
				"z": -0.4538526852,
				"element": "C" 
			},
			{
				"x": 0.4568311219,
				"y": -2.7716355137,
				"z": -0.1230171037,
				"element": "C" 
			},
			{
				"x": 1.422203967,
				"y": -3.7797783473,
				"z": -0.1027497713,
				"element": "C" 
			},
			{
				"x": 0.873097433,
				"y": -5.5578301069,
				"z": 0.3500076282,
				"element": "Br" 
			},
			{
				"x": 2.758334864,
				"y": -3.5371216491,
				"z": -0.398584271,
				"element": "C" 
			},
			{
				"x": 3.1327679517,
				"y": -2.2291795341,
				"z": -0.7266707018,
				"element": "C" 
			},
			{
				"x": 2.198483059,
				"y": -1.201621169,
				"z": -0.7566239504,
				"element": "C" 
			},
			{
				"x": -1.7363588385,
				"y": 2.1687288819,
				"z": 3.8406456188,
				"element": "H" 
			},
			{
				"x": -0.4609530367,
				"y": 1.8683064406,
				"z": 0.6223855513,
				"element": "H" 
			},
			{
				"x": -1.9318339552,
				"y": 2.7928456554,
				"z": 0.4201093436,
				"element": "H" 
			},
			{
				"x": -3.1430212731,
				"y": 0.594313449,
				"z": -0.1718961556,
				"element": "H" 
			},
			{
				"x": -1.9345657097,
				"y": 1.1306580163,
				"z": -1.3442058761,
				"element": "H" 
			},
			{
				"x": -1.4963151578,
				"y": -1.0094761402,
				"z": 0.7986724494,
				"element": "H" 
			},
			{
				"x": -1.8148766675,
				"y": -1.3130729697,
				"z": -0.9264679409,
				"element": "H" 
			},
			{
				"x": -0.5707481741,
				"y": -3.0084277115,
				"z": 0.1158923877,
				"element": "H" 
			},
			{
				"x": 3.4845144618,
				"y": -4.3403966305,
				"z": -0.374720131,
				"element": "H" 
			},
			{
				"x": 4.1714097931,
				"y": -2.0157838369,
				"z": -0.961802516,
				"element": "H" 
			},
			{
				"x": 2.4800928629,
				"y": -0.1854291855,
				"z": -1.010793146,
				"element": "H" 
			}
		],
		 "valence_orbital": [ 
			{
				"type": "occ",
				"energy": -0.29702,
				"method": "rhf"
			},
			{
				"type": "occ",
				"energy": -0.28318,
				"method": "rhf"
			},
			{
				"type": "occ",
				"energy": -0.28133,
				"method": "rhf"
			},
			{
				"type": "occ",
				"energy": -0.24706,
				"method": "rhf"
			},
			{
				"type": "occ",
				"energy": -0.22481,
				"method": "rhf"
			},
			{
				"type": "unocc",
				"energy": -0.0113,
				"method": "rhf"
			},
			{
				"type": "unocc",
				"energy": 0.00292,
				"method": "rhf"
			},
			{
				"type": "unocc",
				"energy": 0.00371,
				"method": "rhf"
			},
			{
				"type": "unocc",
				"energy": 0.00942,
				"method": "rhf"
			},
			{
				"type": "unocc",
				"energy": 0.07475,
				"method": "rhf"
			}
		],
		"cosmo_sigma_profile": { 
			"-0.025": 0.0,
			"-0.024": 0.0,
			"-0.023": 0.0,
			"-0.022": 0.0,
			"-0.021": 0.0,
			"-0.02": 0.0,
			"-0.019": 0.0192994104826,
			"-0.018": 0.611803316769,
			"-0.017": 0.848927163492,
			"-0.016": 0.916474026106,
			"-0.015": 0.643006728397,
			"-0.014": 0.856826273397,
			"-0.013": 0.61827505737,
			"-0.012": 0.706107742539,
			"-0.011": 0.949952207659,
			"-0.01": 0.828709286314,
			"-0.009": 0.536184303898,
			"-0.008": 0.504976620206,
			"-0.007": 5.11096285955,
			"-0.006": 12.4488085592,
			"-0.005": 17.1297588797,
			"-0.004": 22.3297113064,
			"-0.003": 22.6205775142,
			"-0.002": 19.4777923565,
			"-0.001": 14.1432846627,
			"0.0": 13.2134939695,
			"0.001": 15.059995443,
			"0.002": 17.9699362491,
			"0.003": 24.2200427399,
			"0.004": 25.5274317806,
			"0.005": 14.5933231575,
			"0.006": 4.33736549707,
			"0.007": 3.03819129265,
			"0.008": 3.52301222235,
			"0.009": 3.72543254333,
			"0.01": 2.25164729465,
			"0.011": 3.52717535142,
			"0.012": 3.42051905471,
			"0.013": 0.121425046066,
			"0.014": 0.0,
			"0.015": 0.0,
			"0.016": 0.0,
			"0.017": 0.0,
			"0.018": 0.0,
			"0.019": 0.0,
			"0.02": 0.0,
			"0.021": 0.0,
			"0.022": 0.0,
			"0.023": 0.0,
			"0.024": 0.0,
			"0.025": 0.0
		}
	}
}
