{
	 "smiles": "CC1=C(OC=C1)C1=NN=C(N)S1", 
	 "Tm": 427.15, 
	 "num_atms": 19, 
	 "gaussian": { 
		 "optdone": 1, 
		 "sigma_profile": "yes", 
		 "theory": "DFT", 
		 "functional": "B3LYP", 
		 "basiset": "6-31G**", 
		 "properties": { 
			 "R2extent": 2890.3624, 
			 "electric_dipole_moment_norm": 3.96115463217, 
			 "electric_quadrupole_moment_norm": 25.7802394044, 
			 "total_energy": -908.577347751, 
			 "HOMO_LUMO_gap": 0.1619, 
			 "cosmo_polarized_energy": -17.35, 
			 "cosmo_cavitation_energy": 25.27, 
			 "cosmo_dispersion_energy": -19.39, 
			 "cosmo_repulsion_energy": 1.49, 
			 "cosmo_total_nonelectrostatic_energy": 7.38, 
			 "SMD_solvation_energy": 3.29 
		},
		"coords": [
			{
				"x": -0.2200820364,
				"y": 1.7106542975,
				"z": 0.8267417335,
				"element": "C" 
			},
			{
				"x": 0.7275338096,
				"y": 0.746473427,
				"z": 1.4789858891,
				"element": "C" 
			},
			{
				"x": 1.1780769073,
				"y": -0.4702547608,
				"z": 1.006991647,
				"element": "C" 
			},
			{
				"x": 2.0348354271,
				"y": -1.0390462684,
				"z": 1.9116522291,
				"element": "O" 
			},
			{
				"x": 2.1310829509,
				"y": -0.1859088124,
				"z": 2.9601746186,
				"element": "C" 
			},
			{
				"x": 1.3589772333,
				"y": 0.9169524533,
				"z": 2.7529790457,
				"element": "C" 
			},
			{
				"x": 0.9305614537,
				"y": -1.2277736341,
				"z": -0.1982012208,
				"element": "C" 
			},
			{
				"x": 1.4260098088,
				"y": -2.4088212603,
				"z": -0.4468489163,
				"element": "N" 
			},
			{
				"x": 1.0758324882,
				"y": -2.9136446696,
				"z": -1.664260026,
				"element": "N" 
			},
			{
				"x": 0.2938221718,
				"y": -2.1185221606,
				"z": -2.3429892861,
				"element": "C" 
			},
			{
				"x": -0.2581427256,
				"y": -2.4523052534,
				"z": -3.5582743989,
				"element": "N" 
			},
			{
				"x": -0.0954882191,
				"y": -0.6110045442,
				"z": -1.5177599929,
				"element": "S" 
			},
			{
				"x": -0.4289368475,
				"y": 2.5493760229,
				"z": 1.4958459697,
				"element": "H" 
			},
			{
				"x": 0.1897356501,
				"y": 2.1249929945,
				"z": -0.1019408916,
				"element": "H" 
			},
			{
				"x": -1.1782165637,
				"y": 1.2402652921,
				"z": 0.5782091091,
				"element": "H" 
			},
			{
				"x": 2.7780043686,
				"y": -0.5011123264,
				"z": 3.7642329721,
				"element": "H" 
			},
			{
				"x": 1.2412012767,
				"y": 1.7596077442,
				"z": 3.4197673944,
				"element": "H" 
			},
			{
				"x": -0.373252747,
				"y": -1.7022867233,
				"z": -4.2254771167,
				"element": "H" 
			},
			{
				"x": 0.1648455933,
				"y": -3.2834418178,
				"z": -3.9533287591,
				"element": "H" 
			}
		],
		 "valence_orbital": [ 
			{
				"type": "occ",
				"energy": -0.29207,
				"method": "rhf"
			},
			{
				"type": "occ",
				"energy": -0.27493,
				"method": "rhf"
			},
			{
				"type": "occ",
				"energy": -0.26012,
				"method": "rhf"
			},
			{
				"type": "occ",
				"energy": -0.25292,
				"method": "rhf"
			},
			{
				"type": "occ",
				"energy": -0.20358,
				"method": "rhf"
			},
			{
				"type": "unocc",
				"energy": -0.04168,
				"method": "rhf"
			},
			{
				"type": "unocc",
				"energy": -0.00153,
				"method": "rhf"
			},
			{
				"type": "unocc",
				"energy": 0.02179,
				"method": "rhf"
			},
			{
				"type": "unocc",
				"energy": 0.05337,
				"method": "rhf"
			},
			{
				"type": "unocc",
				"energy": 0.06029,
				"method": "rhf"
			}
		],
		"cosmo_sigma_profile": { 
			"-0.025": 0.0,
			"-0.024": 0.0,
			"-0.023": 0.0,
			"-0.022": 0.0,
			"-0.021": 0.0,
			"-0.02": 0.0,
			"-0.019": 0.0,
			"-0.018": 0.0,
			"-0.017": 0.0,
			"-0.016": 0.0,
			"-0.015": 1.01580526943,
			"-0.014": 2.42347547501,
			"-0.013": 3.53493574844,
			"-0.012": 2.48650364368,
			"-0.011": 2.66039239706,
			"-0.01": 2.19753605129,
			"-0.009": 4.06651983697,
			"-0.008": 4.00321454394,
			"-0.007": 5.34937231872,
			"-0.006": 4.98529220093,
			"-0.005": 9.70272479505,
			"-0.004": 12.4335884392,
			"-0.003": 12.8273280214,
			"-0.002": 12.0919599484,
			"-0.001": 18.7772610575,
			"0.0": 16.2039744348,
			"0.001": 14.5442049116,
			"0.002": 16.5269880125,
			"0.003": 12.0779722698,
			"0.004": 8.37760240536,
			"0.005": 3.94126113662,
			"0.006": 3.7663437452,
			"0.007": 3.27024282224,
			"0.008": 3.71745852509,
			"0.009": 3.57162386752,
			"0.01": 3.13517809652,
			"0.011": 4.06587494485,
			"0.012": 4.11926424905,
			"0.013": 3.09501445984,
			"0.014": 3.13907056351,
			"0.015": 1.8694956745,
			"0.016": 0.389831865949,
			"0.017": 0.0,
			"0.018": 0.0,
			"0.019": 0.0,
			"0.02": 0.0,
			"0.021": 0.0,
			"0.022": 0.0,
			"0.023": 0.0,
			"0.024": 0.0,
			"0.025": 0.0
		}
	}
}
