{
	 "smiles": "FC1=CC(F)=C(C=C1)S(=O)(=O)N1CCNCC1", 
	 "Tm": 367.15, 
	 "num_atms": 29, 
	 "gaussian": { 
		 "optdone": 1, 
		 "sigma_profile": "yes", 
		 "theory": "DFT", 
		 "functional": "B3LYP", 
		 "basiset": "6-31G**", 
		 "properties": { 
			 "R2extent": 6260.3282, 
			 "electric_dipole_moment_norm": 4.55327298984, 
			 "electric_quadrupole_moment_norm": 16.6032361499, 
			 "total_energy": -1246.01770304, 
			 "HOMO_LUMO_gap": 0.19423, 
			 "cosmo_polarized_energy": -13.85, 
			 "cosmo_cavitation_energy": 33.53, 
			 "cosmo_dispersion_energy": -24.08, 
			 "cosmo_repulsion_energy": 1.77, 
			 "cosmo_total_nonelectrostatic_energy": 11.22, 
			 "SMD_solvation_energy": 2.99 
		},
		"coords": [
			{
				"x": -2.8729195672,
				"y": -3.0208332792,
				"z": 3.2112286871,
				"element": "F" 
			},
			{
				"x": -2.0221886946,
				"y": -2.9614736541,
				"z": 2.173676639,
				"element": "C" 
			},
			{
				"x": -2.1070441312,
				"y": -1.8713530419,
				"z": 1.311786893,
				"element": "C" 
			},
			{
				"x": -1.2229867948,
				"y": -1.8236685133,
				"z": 0.2434231973,
				"element": "C" 
			},
			{
				"x": -1.2897386846,
				"y": -0.7778256171,
				"z": -0.594826673,
				"element": "F" 
			},
			{
				"x": -0.2702404703,
				"y": -2.8253800999,
				"z": 0.0342403913,
				"element": "C" 
			},
			{
				"x": -0.2159489136,
				"y": -3.9044183019,
				"z": 0.919857289,
				"element": "C" 
			},
			{
				"x": -1.0922289783,
				"y": -3.9816321372,
				"z": 2.0008685133,
				"element": "C" 
			},
			{
				"x": 0.8345743862,
				"y": -2.7798388734,
				"z": -1.3804718721,
				"element": "S" 
			},
			{
				"x": 0.0265707314,
				"y": -2.6843646356,
				"z": -2.5973229625,
				"element": "O" 
			},
			{
				"x": 1.7812103745,
				"y": -3.8846059258,
				"z": -1.1842928566,
				"element": "O" 
			},
			{
				"x": 1.6185331704,
				"y": -1.3069779008,
				"z": -1.1728380682,
				"element": "N" 
			},
			{
				"x": 1.5820055348,
				"y": -0.3377592817,
				"z": -2.284012429,
				"element": "C" 
			},
			{
				"x": 1.8748700893,
				"y": 1.0485435262,
				"z": -1.7113842825,
				"element": "C" 
			},
			{
				"x": 3.1698132542,
				"y": 1.0249783895,
				"z": -1.0308880794,
				"element": "N" 
			},
			{
				"x": 3.1614133171,
				"y": 0.0905455655,
				"z": 0.092676635,
				"element": "C" 
			},
			{
				"x": 2.8901053524,
				"y": -1.3221048906,
				"z": -0.4280319142,
				"element": "C" 
			},
			{
				"x": -2.838245091,
				"y": -1.0870813049,
				"z": 1.4645690976,
				"element": "H" 
			},
			{
				"x": 0.5243227168,
				"y": -4.6770729189,
				"z": 0.7449615189,
				"element": "H" 
			},
			{
				"x": -1.0653456626,
				"y": -4.8104609299,
				"z": 2.6984749567,
				"element": "H" 
			},
			{
				"x": 2.3334731718,
				"y": -0.5884455677,
				"z": -3.0457946333,
				"element": "H" 
			},
			{
				"x": 0.594027401,
				"y": -0.3683973719,
				"z": -2.7423044773,
				"element": "H" 
			},
			{
				"x": 1.0388061048,
				"y": 1.3299395134,
				"z": -1.045005076,
				"element": "H" 
			},
			{
				"x": 1.9158819177,
				"y": 1.7723788796,
				"z": -2.5322939175,
				"element": "H" 
			},
			{
				"x": 3.4150526248,
				"y": 1.9566163389,
				"z": -0.7094078565,
				"element": "H" 
			},
			{
				"x": 4.1419106507,
				"y": 0.1077509227,
				"z": 0.5806891668,
				"element": "H" 
			},
			{
				"x": 2.3962835227,
				"y": 0.3340725316,
				"z": 0.8534516251,
				"element": "H" 
			},
			{
				"x": 3.7162232095,
				"y": -1.648474564,
				"z": -1.0738642782,
				"element": "H" 
			},
			{
				"x": 2.810109458,
				"y": -2.0230568579,
				"z": 0.4055347661,
				"element": "H" 
			}
		],
		 "valence_orbital": [ 
			{
				"type": "occ",
				"energy": -0.30233,
				"method": "rhf"
			},
			{
				"type": "occ",
				"energy": -0.28129,
				"method": "rhf"
			},
			{
				"type": "occ",
				"energy": -0.27263,
				"method": "rhf"
			},
			{
				"type": "occ",
				"energy": -0.24916,
				"method": "rhf"
			},
			{
				"type": "occ",
				"energy": -0.23329,
				"method": "rhf"
			},
			{
				"type": "unocc",
				"energy": -0.03906,
				"method": "rhf"
			},
			{
				"type": "unocc",
				"energy": -0.02835,
				"method": "rhf"
			},
			{
				"type": "unocc",
				"energy": 0.04631,
				"method": "rhf"
			},
			{
				"type": "unocc",
				"energy": 0.06748,
				"method": "rhf"
			},
			{
				"type": "unocc",
				"energy": 0.08254,
				"method": "rhf"
			}
		],
		"cosmo_sigma_profile": { 
			"-0.025": 0.0,
			"-0.024": 0.0,
			"-0.023": 0.0,
			"-0.022": 0.0,
			"-0.021": 0.0,
			"-0.02": 0.0,
			"-0.019": 0.0,
			"-0.018": 0.0,
			"-0.017": 0.0,
			"-0.016": 0.0,
			"-0.015": 0.0,
			"-0.014": 0.0,
			"-0.013": 0.0,
			"-0.012": 0.0,
			"-0.011": 0.502802567703,
			"-0.01": 2.07419528562,
			"-0.009": 3.53247008001,
			"-0.008": 4.8229559298,
			"-0.007": 6.82655099985,
			"-0.006": 7.60418098541,
			"-0.005": 14.5909207302,
			"-0.004": 24.2120714717,
			"-0.003": 22.9120699416,
			"-0.002": 26.6160301806,
			"-0.001": 31.9500371821,
			"0.0": 21.7411447836,
			"0.001": 15.9338303706,
			"0.002": 12.7431484278,
			"0.003": 18.6862730523,
			"0.004": 8.56872665792,
			"0.005": 4.80636773702,
			"0.006": 4.06580623366,
			"0.007": 4.12771875638,
			"0.008": 3.36422010433,
			"0.009": 5.17128866287,
			"0.01": 8.402375339,
			"0.011": 7.92702459786,
			"0.012": 1.97962051508,
			"0.013": 0.753281768327,
			"0.014": 0.491854898589,
			"0.015": 0.417143417268,
			"0.016": 0.355848021828,
			"0.017": 0.377605433811,
			"0.018": 0.0886112722585,
			"0.019": 0.0,
			"0.02": 0.0,
			"0.021": 0.0,
			"0.022": 0.0,
			"0.023": 0.0,
			"0.024": 0.0,
			"0.025": 0.0
		}
	}
}
