{
	 "smiles": "NCC(=O)NC(CCC(O)=O)C(O)=O", 
	 "Tm": 429.15, 
	 "num_atms": 26, 
	 "gaussian": { 
		 "optdone": 1, 
		 "sigma_profile": "yes", 
		 "theory": "DFT", 
		 "functional": "B3LYP", 
		 "basiset": "6-31G**", 
		 "properties": { 
			 "R2extent": 3418.9898, 
			 "electric_dipole_moment_norm": 5.03682634404, 
			 "electric_quadrupole_moment_norm": 24.6516181363, 
			 "total_energy": -759.622038506, 
			 "HOMO_LUMO_gap": 0.21236, 
			 "cosmo_polarized_energy": -30.34, 
			 "cosmo_cavitation_energy": 29.34, 
			 "cosmo_dispersion_energy": -21.0, 
			 "cosmo_repulsion_energy": 1.69, 
			 "cosmo_total_nonelectrostatic_energy": 10.03, 
			 "SMD_solvation_energy": 6.21 
		},
		"coords": [
			{
				"x": 2.3324621596,
				"y": 0.3062495086,
				"z": 3.3210224856,
				"element": "N" 
			},
			{
				"x": 1.7789771637,
				"y": 0.1498813977,
				"z": 1.9857183457,
				"element": "C" 
			},
			{
				"x": 2.0899823387,
				"y": -1.2613608542,
				"z": 1.4949972601,
				"element": "C" 
			},
			{
				"x": 3.1150157478,
				"y": -1.8340553062,
				"z": 1.8229172349,
				"element": "O" 
			},
			{
				"x": 1.1724819973,
				"y": -1.913558718,
				"z": 0.6708611006,
				"element": "N" 
			},
			{
				"x": 0.085346393,
				"y": -1.3249493931,
				"z": -0.1213718697,
				"element": "C" 
			},
			{
				"x": 0.4820932615,
				"y": -0.1907727441,
				"z": -1.0864857357,
				"element": "C" 
			},
			{
				"x": -0.5310034137,
				"y": 0.0147536421,
				"z": -2.2485842209,
				"element": "C" 
			},
			{
				"x": -0.9563203507,
				"y": 1.4745014326,
				"z": -2.418245359,
				"element": "C" 
			},
			{
				"x": -1.6170962406,
				"y": 2.003237081,
				"z": -1.3699453266,
				"element": "O" 
			},
			{
				"x": -0.7124975415,
				"y": 2.1253992696,
				"z": -3.4059910431,
				"element": "O" 
			},
			{
				"x": -1.1054241825,
				"y": -0.9409508877,
				"z": 0.7829483503,
				"element": "C" 
			},
			{
				"x": -1.2625666799,
				"y": -1.6938306145,
				"z": 1.8728053222,
				"element": "O" 
			},
			{
				"x": -1.891388608,
				"y": -0.0536874211,
				"z": 0.5161684614,
				"element": "O" 
			},
			{
				"x": 3.2669235362,
				"y": -0.0946626729,
				"z": 3.3328419117,
				"element": "H" 
			},
			{
				"x": 2.403815406,
				"y": 1.2894634493,
				"z": 3.562412255,
				"element": "H" 
			},
			{
				"x": 2.1984616755,
				"y": 0.8305998025,
				"z": 1.2195289386,
				"element": "H" 
			},
			{
				"x": 0.70051188,
				"y": 0.3407816836,
				"z": 2.0094190221,
				"element": "H" 
			},
			{
				"x": 1.5831962833,
				"y": -2.760832658,
				"z": 0.2936508368,
				"element": "H" 
			},
			{
				"x": -0.2955466587,
				"y": -2.1589477072,
				"z": -0.7264404059,
				"element": "H" 
			},
			{
				"x": 0.6024391873,
				"y": 0.738157779,
				"z": -0.5221712732,
				"element": "H" 
			},
			{
				"x": 1.4638553194,
				"y": -0.4369003224,
				"z": -1.5001710993,
				"element": "H" 
			},
			{
				"x": -0.1010632683,
				"y": -0.3069351696,
				"z": -3.1979897381,
				"element": "H" 
			},
			{
				"x": -1.4351292238,
				"y": -0.5803952945,
				"z": -2.0747223857,
				"element": "H" 
			},
			{
				"x": -1.7797842175,
				"y": 1.3216274525,
				"z": -0.6851357092,
				"element": "H" 
			},
			{
				"x": -0.4821419643,
				"y": -2.2742127348,
				"z": 1.9528626413,
				"element": "H" 
			}
		],
		 "valence_orbital": [ 
			{
				"type": "occ",
				"energy": -0.30279,
				"method": "rhf"
			},
			{
				"type": "occ",
				"energy": -0.29875,
				"method": "rhf"
			},
			{
				"type": "occ",
				"energy": -0.28872,
				"method": "rhf"
			},
			{
				"type": "occ",
				"energy": -0.2594,
				"method": "rhf"
			},
			{
				"type": "occ",
				"energy": -0.25218,
				"method": "rhf"
			},
			{
				"type": "unocc",
				"energy": -0.03982,
				"method": "rhf"
			},
			{
				"type": "unocc",
				"energy": -0.01868,
				"method": "rhf"
			},
			{
				"type": "unocc",
				"energy": 0.01551,
				"method": "rhf"
			},
			{
				"type": "unocc",
				"energy": 0.04041,
				"method": "rhf"
			},
			{
				"type": "unocc",
				"energy": 0.06311,
				"method": "rhf"
			}
		],
		"cosmo_sigma_profile": { 
			"-0.025": 0.0,
			"-0.024": 0.0,
			"-0.023": 0.0,
			"-0.022": 0.0,
			"-0.021": 0.0,
			"-0.02": 0.0,
			"-0.019": 0.0,
			"-0.018": 0.0,
			"-0.017": 0.00627626356597,
			"-0.016": 0.44215005807,
			"-0.015": 1.72578892143,
			"-0.014": 2.77376317117,
			"-0.013": 3.11382031961,
			"-0.012": 3.65133446281,
			"-0.011": 4.818705561,
			"-0.01": 6.80631886976,
			"-0.009": 4.71391571284,
			"-0.008": 6.79539621122,
			"-0.007": 12.1147516555,
			"-0.006": 19.5680443015,
			"-0.005": 19.3746279607,
			"-0.004": 15.1244403176,
			"-0.003": 13.1180644203,
			"-0.002": 7.34474729428,
			"-0.001": 6.08449555279,
			"0.0": 5.58419549002,
			"0.001": 4.87555596101,
			"0.002": 5.97504723511,
			"0.003": 5.20009959393,
			"0.004": 5.5465286654,
			"0.005": 5.82354602391,
			"0.006": 5.64862742814,
			"0.007": 6.62290244458,
			"0.008": 7.57144717003,
			"0.009": 9.70126501471,
			"0.01": 7.87390368743,
			"0.011": 9.62054070542,
			"0.012": 11.7883083201,
			"0.013": 6.5591424589,
			"0.014": 1.14586982215,
			"0.015": 0.40593863958,
			"0.016": 0.899296525184,
			"0.017": 0.623169533057,
			"0.018": 0.556354292634,
			"0.019": 0.347265432435,
			"0.02": 0.0367368471088,
			"0.021": 0.0,
			"0.022": 0.0,
			"0.023": 0.0,
			"0.024": 0.0,
			"0.025": 0.0
		}
	}
}
