{
	 "smiles": "NS(=O)(=O)C1=CN(CCC(O)=O)N=C1", 
	 "Tm": 400.15, 
	 "num_atms": 23, 
	 "gaussian": { 
		 "optdone": 1, 
		 "sigma_profile": "yes", 
		 "theory": "DFT", 
		 "functional": "B3LYP", 
		 "basiset": "6-31G**", 
		 "properties": { 
			 "R2extent": 4566.0549, 
			 "electric_dipole_moment_norm": 6.07692901555, 
			 "electric_quadrupole_moment_norm": 27.9313056456, 
			 "total_energy": -1097.31693561, 
			 "HOMO_LUMO_gap": 0.24913, 
			 "cosmo_polarized_energy": -28.97, 
			 "cosmo_cavitation_energy": 30.04, 
			 "cosmo_dispersion_energy": -21.52, 
			 "cosmo_repulsion_energy": 1.69, 
			 "cosmo_total_nonelectrostatic_energy": 10.21, 
			 "SMD_solvation_energy": 5.48 
		},
		"coords": [
			{
				"x": 0.3204769895,
				"y": 4.2101045457,
				"z": 0.2241282242,
				"element": "N" 
			},
			{
				"x": -1.0667745073,
				"y": 3.6478266756,
				"z": 0.9875889981,
				"element": "S" 
			},
			{
				"x": -0.862693668,
				"y": 3.9151851542,
				"z": 2.4085434552,
				"element": "O" 
			},
			{
				"x": -2.1880891979,
				"y": 4.1861353306,
				"z": 0.219425178,
				"element": "O" 
			},
			{
				"x": -1.1077829777,
				"y": 1.8954991923,
				"z": 0.7780581542,
				"element": "C" 
			},
			{
				"x": -1.868863712,
				"y": 1.2070456496,
				"z": -0.1523164576,
				"element": "C" 
			},
			{
				"x": -1.6139612734,
				"y": -0.1067433726,
				"z": 0.0507613811,
				"element": "N" 
			},
			{
				"x": -2.1183105453,
				"y": -1.2461466918,
				"z": -0.7061625486,
				"element": "C" 
			},
			{
				"x": -1.1368973481,
				"y": -1.726755325,
				"z": -1.7884850462,
				"element": "C" 
			},
			{
				"x": 0.1576780191,
				"y": -2.2890676849,
				"z": -1.2304775996,
				"element": "C" 
			},
			{
				"x": -0.0761446932,
				"y": -3.342794028,
				"z": -0.4148724729,
				"element": "O" 
			},
			{
				"x": 1.2657305808,
				"y": -1.880558055,
				"z": -1.4887079117,
				"element": "O" 
			},
			{
				"x": -0.726133201,
				"y": -0.3162125584,
				"z": 1.0559170078,
				"element": "N" 
			},
			{
				"x": -0.4194072526,
				"y": 0.8954063948,
				"z": 1.5050969317,
				"element": "C" 
			},
			{
				"x": 0.3177123882,
				"y": 4.0381554019,
				"z": -0.7763094963,
				"element": "H" 
			},
			{
				"x": 1.1722071142,
				"y": 3.8957479809,
				"z": 0.6783615429,
				"element": "H" 
			},
			{
				"x": -2.5660144127,
				"y": 1.5662295519,
				"z": -0.8944293435,
				"element": "H" 
			},
			{
				"x": -3.0610915416,
				"y": -0.9427811088,
				"z": -1.1681473634,
				"element": "H" 
			},
			{
				"x": -2.3210879315,
				"y": -2.047710212,
				"z": 0.0062736027,
				"element": "H" 
			},
			{
				"x": -0.8798597853,
				"y": -0.9138574549,
				"z": -2.4705227024,
				"element": "H" 
			},
			{
				"x": -1.6318669033,
				"y": -2.5185747422,
				"z": -2.3630659377,
				"element": "H" 
			},
			{
				"x": 0.7874676582,
				"y": -3.6188679678,
				"z": -0.0652410799,
				"element": "H" 
			},
			{
				"x": 0.2569062011,
				"y": 1.0180333238,
				"z": 2.3394834839,
				"element": "H" 
			}
		],
		 "valence_orbital": [ 
			{
				"type": "occ",
				"energy": -0.30517,
				"method": "rhf"
			},
			{
				"type": "occ",
				"energy": -0.29681,
				"method": "rhf"
			},
			{
				"type": "occ",
				"energy": -0.28755,
				"method": "rhf"
			},
			{
				"type": "occ",
				"energy": -0.27942,
				"method": "rhf"
			},
			{
				"type": "occ",
				"energy": -0.26689,
				"method": "rhf"
			},
			{
				"type": "unocc",
				"energy": -0.01776,
				"method": "rhf"
			},
			{
				"type": "unocc",
				"energy": -0.00573,
				"method": "rhf"
			},
			{
				"type": "unocc",
				"energy": 0.0143,
				"method": "rhf"
			},
			{
				"type": "unocc",
				"energy": 0.05717,
				"method": "rhf"
			},
			{
				"type": "unocc",
				"energy": 0.06267,
				"method": "rhf"
			}
		],
		"cosmo_sigma_profile": { 
			"-0.025": 0.0,
			"-0.024": 0.0,
			"-0.023": 0.0,
			"-0.022": 0.0,
			"-0.021": 0.0,
			"-0.02": 0.0,
			"-0.019": 0.0440198739737,
			"-0.018": 0.965518365069,
			"-0.017": 0.835231013466,
			"-0.016": 1.56526831324,
			"-0.015": 3.11222090789,
			"-0.014": 2.54835131264,
			"-0.013": 3.33945905108,
			"-0.012": 4.35369195141,
			"-0.011": 4.16630299729,
			"-0.01": 5.04889426405,
			"-0.009": 6.695817474,
			"-0.008": 9.51198829714,
			"-0.007": 13.6642755306,
			"-0.006": 14.0739462785,
			"-0.005": 11.7421977147,
			"-0.004": 10.7616026164,
			"-0.003": 8.78776437203,
			"-0.002": 8.18612608856,
			"-0.001": 8.21454220778,
			"0.0": 8.74987092095,
			"0.001": 9.24719909489,
			"0.002": 8.58293987319,
			"0.003": 7.32892275924,
			"0.004": 5.76719940118,
			"0.005": 8.22850950817,
			"0.006": 7.88954279728,
			"0.007": 7.18266117836,
			"0.008": 10.0542628733,
			"0.009": 7.63883757497,
			"0.01": 11.7034595548,
			"0.011": 16.8467881078,
			"0.012": 9.98909528922,
			"0.013": 1.28635729493,
			"0.014": 0.0570535478391,
			"0.015": 0.0,
			"0.016": 0.0,
			"0.017": 0.0,
			"0.018": 0.0,
			"0.019": 0.0,
			"0.02": 0.0,
			"0.021": 0.0,
			"0.022": 0.0,
			"0.023": 0.0,
			"0.024": 0.0,
			"0.025": 0.0
		}
	}
}
