{
	 "smiles": "OC1=CC=C(C=C[N+]([O-])=O)C=C1", 
	 "Tm": 439.15, 
	 "num_atms": 19, 
	 "gaussian": { 
		 "optdone": 1, 
		 "sigma_profile": "yes", 
		 "theory": "DFT", 
		 "functional": "B3LYP", 
		 "basiset": "6-31G**", 
		 "properties": { 
			 "R2extent": 3735.5439, 
			 "electric_dipole_moment_norm": 6.74128328288, 
			 "electric_quadrupole_moment_norm": 25.6998046763, 
			 "total_energy": -589.373640293, 
			 "HOMO_LUMO_gap": 0.14576, 
			 "cosmo_polarized_energy": -16.14, 
			 "cosmo_cavitation_energy": 24.87, 
			 "cosmo_dispersion_energy": -18.17, 
			 "cosmo_repulsion_energy": 1.44, 
			 "cosmo_total_nonelectrostatic_energy": 8.14, 
			 "SMD_solvation_energy": 7.42 
		},
		"coords": [
			{
				"x": -1.9334695624,
				"y": -1.0374291689,
				"z": -2.2159341956,
				"element": "O" 
			},
			{
				"x": -1.1486032238,
				"y": -0.4351766207,
				"z": -1.2854854361,
				"element": "C" 
			},
			{
				"x": 0.2389777984,
				"y": -0.5365767094,
				"z": -1.4473074343,
				"element": "C" 
			},
			{
				"x": 1.0810921698,
				"y": 0.0623325043,
				"z": -0.5219874148,
				"element": "C" 
			},
			{
				"x": 0.5769831749,
				"y": 0.7755730252,
				"z": 0.5850005571,
				"element": "C" 
			},
			{
				"x": 1.5173984437,
				"y": 1.3783429683,
				"z": 1.51611285,
				"element": "C" 
			},
			{
				"x": 1.2299668895,
				"y": 2.0899610947,
				"z": 2.6182149708,
				"element": "C" 
			},
			{
				"x": 2.2913732125,
				"y": 2.6253065154,
				"z": 3.4443988058,
				"element": "N" 
			},
			{
				"x": 1.928661692,
				"y": 3.2661820897,
				"z": 4.4365289572,
				"element": "O" 
			},
			{
				"x": 3.4672504101,
				"y": 2.4227186237,
				"z": 3.1286854263,
				"element": "O" 
			},
			{
				"x": -0.82227721,
				"y": 0.8642861023,
				"z": 0.7270085897,
				"element": "C" 
			},
			{
				"x": -1.675079517,
				"y": 0.2698196447,
				"z": -0.1913238963,
				"element": "C" 
			},
			{
				"x": -2.864354802,
				"y": -0.8972287022,
				"z": -1.9970743446,
				"element": "H" 
			},
			{
				"x": 0.6300220095,
				"y": -1.0844448812,
				"z": -2.2976627271,
				"element": "H" 
			},
			{
				"x": 2.1567563893,
				"y": -0.0190851697,
				"z": -0.6517410815,
				"element": "H" 
			},
			{
				"x": 2.5755939081,
				"y": 1.2432528452,
				"z": 1.3045742029,
				"element": "H" 
			},
			{
				"x": 0.2540329075,
				"y": 2.3405622042,
				"z": 3.0081504693,
				"element": "H" 
			},
			{
				"x": -1.250920993,
				"y": 1.404287976,
				"z": 1.5653054128,
				"element": "H" 
			},
			{
				"x": -2.7525036973,
				"y": 0.3491156583,
				"z": -0.0647637116,
				"element": "H" 
			}
		],
		 "valence_orbital": [ 
			{
				"type": "occ",
				"energy": -0.29426,
				"method": "rhf"
			},
			{
				"type": "occ",
				"energy": -0.29424,
				"method": "rhf"
			},
			{
				"type": "occ",
				"energy": -0.27946,
				"method": "rhf"
			},
			{
				"type": "occ",
				"energy": -0.27633,
				"method": "rhf"
			},
			{
				"type": "occ",
				"energy": -0.23563,
				"method": "rhf"
			},
			{
				"type": "unocc",
				"energy": -0.08987,
				"method": "rhf"
			},
			{
				"type": "unocc",
				"energy": -0.02769,
				"method": "rhf"
			},
			{
				"type": "unocc",
				"energy": -0.01439,
				"method": "rhf"
			},
			{
				"type": "unocc",
				"energy": 0.04923,
				"method": "rhf"
			},
			{
				"type": "unocc",
				"energy": 0.05365,
				"method": "rhf"
			}
		],
		"cosmo_sigma_profile": { 
			"-0.025": 0.0,
			"-0.024": 0.0,
			"-0.023": 0.0,
			"-0.022": 0.0,
			"-0.021": 0.0,
			"-0.02": 0.0,
			"-0.019": 0.358106088398,
			"-0.018": 1.03534815465,
			"-0.017": 1.12534010447,
			"-0.016": 1.05233345712,
			"-0.015": 1.17230354888,
			"-0.014": 1.38308290232,
			"-0.013": 0.661509505892,
			"-0.012": 0.843721544846,
			"-0.011": 1.13706032463,
			"-0.01": 2.74372431141,
			"-0.009": 3.50464837492,
			"-0.008": 5.97565720191,
			"-0.007": 8.63165114063,
			"-0.006": 9.14209423412,
			"-0.005": 10.0386567227,
			"-0.004": 8.18780385418,
			"-0.003": 7.94058597607,
			"-0.002": 12.1620931366,
			"-0.001": 11.4183682342,
			"0.0": 12.4504144308,
			"0.001": 15.8670811809,
			"0.002": 14.8104630898,
			"0.003": 16.5189836177,
			"0.004": 6.96627327786,
			"0.005": 4.03347997977,
			"0.006": 4.06668173963,
			"0.007": 3.51201381395,
			"0.008": 9.92172059798,
			"0.009": 11.8219583052,
			"0.01": 6.3655907699,
			"0.011": 3.97475571583,
			"0.012": 0.375280074656,
			"0.013": 0.0,
			"0.014": 0.0,
			"0.015": 0.0,
			"0.016": 0.0,
			"0.017": 0.0,
			"0.018": 0.0,
			"0.019": 0.0,
			"0.02": 0.0,
			"0.021": 0.0,
			"0.022": 0.0,
			"0.023": 0.0,
			"0.024": 0.0,
			"0.025": 0.0
		}
	}
}
