{
	 "smiles": "CC(CC(N)=N)NC(=O)OC(C)(C)C", 
	 "Tm": 365.15, 
	 "num_atms": 33, 
	 "gaussian": { 
		 "optdone": 1, 
		 "sigma_profile": "yes", 
		 "theory": "DFT", 
		 "functional": "B3LYP", 
		 "basiset": "6-31G**", 
		 "properties": { 
			 "R2extent": 3364.2714, 
			 "electric_dipole_moment_norm": 0.732144391497, 
			 "electric_quadrupole_moment_norm": 16.8391233195, 
			 "total_energy": -669.148109833, 
			 "HOMO_LUMO_gap": 0.26296, 
			 "cosmo_polarized_energy": -18.36, 
			 "cosmo_cavitation_energy": 34.19, 
			 "cosmo_dispersion_energy": -22.23, 
			 "cosmo_repulsion_energy": 1.74, 
			 "cosmo_total_nonelectrostatic_energy": 13.69, 
			 "SMD_solvation_energy": 5.48 
		},
		"coords": [
			{
				"x": 2.1902973457,
				"y": -2.0442191591,
				"z": -0.0751067608,
				"element": "C" 
			},
			{
				"x": 2.723913285,
				"y": -0.6633000762,
				"z": 0.3229706515,
				"element": "C" 
			},
			{
				"x": 3.5910245154,
				"y": -0.0123075162,
				"z": -0.7897932285,
				"element": "C" 
			},
			{
				"x": 2.8464835295,
				"y": 0.3997518008,
				"z": -2.0458910084,
				"element": "C" 
			},
			{
				"x": 2.3374095078,
				"y": 1.6913736974,
				"z": -2.0092766675,
				"element": "N" 
			},
			{
				"x": 2.7976465819,
				"y": -0.4131270806,
				"z": -3.0369693817,
				"element": "N" 
			},
			{
				"x": 1.7072258039,
				"y": 0.2588472842,
				"z": 0.8633315369,
				"element": "N" 
			},
			{
				"x": 0.3979957194,
				"y": 0.4912297971,
				"z": 0.5228468241,
				"element": "C" 
			},
			{
				"x": -0.2998980864,
				"y": 1.2803677587,
				"z": 1.1447886193,
				"element": "O" 
			},
			{
				"x": 0.0156981782,
				"y": -0.2272501751,
				"z": -0.5538815566,
				"element": "O" 
			},
			{
				"x": -1.3625047192,
				"y": -0.1489173805,
				"z": -1.0659428861,
				"element": "C" 
			},
			{
				"x": -1.3351690975,
				"y": -1.1290025269,
				"z": -2.2418859068,
				"element": "C" 
			},
			{
				"x": -2.3521905037,
				"y": -0.6136523443,
				"z": 0.0075858441,
				"element": "C" 
			},
			{
				"x": -1.6621657966,
				"y": 1.2741823504,
				"z": -1.5495500827,
				"element": "C" 
			},
			{
				"x": 1.5382959586,
				"y": -2.4441357064,
				"z": 0.7066049833,
				"element": "H" 
			},
			{
				"x": 1.6443761434,
				"y": -2.0125995266,
				"z": -1.0162984613,
				"element": "H" 
			},
			{
				"x": 3.038353017,
				"y": -2.7249928,
				"z": -0.1982018824,
				"element": "H" 
			},
			{
				"x": 3.4048693012,
				"y": -0.8181764701,
				"z": 1.1687088341,
				"element": "H" 
			},
			{
				"x": 4.1015970074,
				"y": 0.8624377669,
				"z": -0.3694461758,
				"element": "H" 
			},
			{
				"x": 4.3548398357,
				"y": -0.7344074994,
				"z": -1.0883459234,
				"element": "H" 
			},
			{
				"x": 1.6358553309,
				"y": 1.9200223989,
				"z": -2.7005465345,
				"element": "H" 
			},
			{
				"x": 2.1437298307,
				"y": 2.0777881237,
				"z": -1.0956078589,
				"element": "H" 
			},
			{
				"x": 2.2631531746,
				"y": -0.0118557866,
				"z": -3.8145295685,
				"element": "H" 
			},
			{
				"x": 1.9619705593,
				"y": 0.7834751192,
				"z": 1.6871313535,
				"element": "H" 
			},
			{
				"x": -0.5649184034,
				"y": -0.8439752192,
				"z": -2.9640896014,
				"element": "H" 
			},
			{
				"x": -1.1170589385,
				"y": -2.1431857933,
				"z": -1.8954944303,
				"element": "H" 
			},
			{
				"x": -2.3054830005,
				"y": -1.1368168649,
				"z": -2.7473642223,
				"element": "H" 
			},
			{
				"x": -3.3582405299,
				"y": -0.6688163612,
				"z": -0.4209965826,
				"element": "H" 
			},
			{
				"x": -2.3645309964,
				"y": 0.0744894153,
				"z": 0.8529023451,
				"element": "H" 
			},
			{
				"x": -2.0813163361,
				"y": -1.612104127,
				"z": 0.3650675067,
				"element": "H" 
			},
			{
				"x": -1.6471342799,
				"y": 1.9792258599,
				"z": -0.71827766,
				"element": "H" 
			},
			{
				"x": -0.922980082,
				"y": 1.5851642265,
				"z": -2.2953421249,
				"element": "H" 
			},
			{
				"x": -2.6489438554,
				"y": 1.3026868147,
				"z": -2.0226999933,
				"element": "H" 
			}
		],
		 "valence_orbital": [ 
			{
				"type": "occ",
				"energy": -0.28884,
				"method": "rhf"
			},
			{
				"type": "occ",
				"energy": -0.26294,
				"method": "rhf"
			},
			{
				"type": "occ",
				"energy": -0.25511,
				"method": "rhf"
			},
			{
				"type": "occ",
				"energy": -0.25379,
				"method": "rhf"
			},
			{
				"type": "occ",
				"energy": -0.23273,
				"method": "rhf"
			},
			{
				"type": "unocc",
				"energy": 0.03023,
				"method": "rhf"
			},
			{
				"type": "unocc",
				"energy": 0.05072,
				"method": "rhf"
			},
			{
				"type": "unocc",
				"energy": 0.05445,
				"method": "rhf"
			},
			{
				"type": "unocc",
				"energy": 0.07632,
				"method": "rhf"
			},
			{
				"type": "unocc",
				"energy": 0.09434,
				"method": "rhf"
			}
		],
		"cosmo_sigma_profile": { 
			"-0.025": 0.0,
			"-0.024": 0.0,
			"-0.023": 0.0,
			"-0.022": 0.0,
			"-0.021": 0.0,
			"-0.02": 0.0,
			"-0.019": 0.0,
			"-0.018": 0.0,
			"-0.017": 0.0,
			"-0.016": 0.0,
			"-0.015": 0.0,
			"-0.014": 0.206742672802,
			"-0.013": 1.41871494788,
			"-0.012": 1.92759142409,
			"-0.011": 3.4057424891,
			"-0.01": 3.95204331409,
			"-0.009": 4.16974312981,
			"-0.008": 5.51471030439,
			"-0.007": 5.44283156923,
			"-0.006": 6.79251126271,
			"-0.005": 10.2335129182,
			"-0.004": 20.0993869001,
			"-0.003": 24.4930686144,
			"-0.002": 23.5183363205,
			"-0.001": 24.9324155505,
			"0.0": 32.1216400291,
			"0.001": 25.7606290053,
			"0.002": 11.5891705992,
			"0.003": 6.75391610247,
			"0.004": 5.80442705898,
			"0.005": 4.36994108827,
			"0.006": 6.650982812,
			"0.007": 4.70509880862,
			"0.008": 4.20365913578,
			"0.009": 3.16845627398,
			"0.01": 3.02186699471,
			"0.011": 3.42806322311,
			"0.012": 3.67206306896,
			"0.013": 3.81504268002,
			"0.014": 3.76620928586,
			"0.015": 1.04092460739,
			"0.016": 1.21066978292,
			"0.017": 1.02802381977,
			"0.018": 0.885915880112,
			"0.019": 0.639125373067,
			"0.02": 0.458162602697,
			"0.021": 0.0,
			"0.022": 0.0,
			"0.023": 0.0,
			"0.024": 0.0,
			"0.025": 0.0
		}
	}
}
