{
	 "smiles": "COC(=O)C1=C(C=CC=C1)C1=CC=C(O1)C=O", 
	 "Tm": 343.15, 
	 "num_atms": 27, 
	 "gaussian": { 
		 "optdone": 1, 
		 "sigma_profile": "yes", 
		 "theory": "DFT", 
		 "functional": "B3LYP", 
		 "basiset": "6-31G**", 
		 "properties": { 
			 "R2extent": 4962.5591, 
			 "electric_dipole_moment_norm": 2.80735692957, 
			 "electric_quadrupole_moment_norm": 27.5620244077, 
			 "total_energy": -802.28033533, 
			 "HOMO_LUMO_gap": 0.15251, 
			 "cosmo_polarized_energy": -12.98, 
			 "cosmo_cavitation_energy": 32.92, 
			 "cosmo_dispersion_energy": -22.94, 
			 "cosmo_repulsion_energy": 1.78, 
			 "cosmo_total_nonelectrostatic_energy": 11.77, 
			 "SMD_solvation_energy": 8.51 
		},
		"coords": [
			{
				"x": 2.1188343159,
				"y": 0.6191506587,
				"z": -2.3473485011,
				"element": "C" 
			},
			{
				"x": 1.2135711232,
				"y": -0.1911338675,
				"z": -1.5791528374,
				"element": "O" 
			},
			{
				"x": 1.5908506951,
				"y": -0.4308888867,
				"z": -0.3071812999,
				"element": "C" 
			},
			{
				"x": 2.6359251024,
				"y": -0.0289783129,
				"z": 0.1650083481,
				"element": "O" 
			},
			{
				"x": 0.6339490604,
				"y": -1.3210544076,
				"z": 0.4269700884,
				"element": "C" 
			},
			{
				"x": -0.7744750366,
				"y": -1.3311385044,
				"z": 0.2736728243,
				"element": "C" 
			},
			{
				"x": -1.5111909016,
				"y": -2.3249803666,
				"z": 0.9452550821,
				"element": "C" 
			},
			{
				"x": -0.8873374352,
				"y": -3.2624446626,
				"z": 1.7623058311,
				"element": "C" 
			},
			{
				"x": 0.4945391834,
				"y": -3.2138034526,
				"z": 1.9520104695,
				"element": "C" 
			},
			{
				"x": 1.2410160734,
				"y": -2.2438326828,
				"z": 1.289609133,
				"element": "C" 
			},
			{
				"x": -1.5269715782,
				"y": -0.3154934892,
				"z": -0.4665858308,
				"element": "C" 
			},
			{
				"x": -1.3553263842,
				"y": 1.0372966112,
				"z": -0.6799490811,
				"element": "C" 
			},
			{
				"x": -2.5024688549,
				"y": 1.4934723322,
				"z": -1.3702986168,
				"element": "C" 
			},
			{
				"x": -3.3182745063,
				"y": 0.3995140168,
				"z": -1.5403473231,
				"element": "C" 
			},
			{
				"x": -2.7255399857,
				"y": -0.7055703367,
				"z": -0.9830338946,
				"element": "O" 
			},
			{
				"x": -4.6139501269,
				"y": 0.2204399353,
				"z": -2.1732902938,
				"element": "C" 
			},
			{
				"x": -5.2365806373,
				"y": 1.1263539703,
				"z": -2.7033804731,
				"element": "O" 
			},
			{
				"x": 2.2512882232,
				"y": 1.5992540538,
				"z": -1.8820348696,
				"element": "H" 
			},
			{
				"x": 1.6584368158,
				"y": 0.7194037752,
				"z": -3.3297941452,
				"element": "H" 
			},
			{
				"x": 3.094488335,
				"y": 0.1334845794,
				"z": -2.4257556902,
				"element": "H" 
			},
			{
				"x": -2.5895970668,
				"y": -2.336191861,
				"z": 0.8339236642,
				"element": "H" 
			},
			{
				"x": -1.4841877177,
				"y": -4.0170209439,
				"z": 2.2659425427,
				"element": "H" 
			},
			{
				"x": 0.987472859,
				"y": -3.927960069,
				"z": 2.6042202872,
				"element": "H" 
			},
			{
				"x": 2.3176873935,
				"y": -2.1934623313,
				"z": 1.410189296,
				"element": "H" 
			},
			{
				"x": -0.5117416303,
				"y": 1.6283441612,
				"z": -0.3573257533,
				"element": "H" 
			},
			{
				"x": -2.7253960139,
				"y": 2.4960431955,
				"z": -1.704802868,
				"element": "H" 
			},
			{
				"x": -4.9996213048,
				"y": -0.820203115,
				"z": -2.1359260886,
				"element": "H" 
			}
		],
		 "valence_orbital": [ 
			{
				"type": "occ",
				"energy": -0.28918,
				"method": "rhf"
			},
			{
				"type": "occ",
				"energy": -0.28759,
				"method": "rhf"
			},
			{
				"type": "occ",
				"energy": -0.26677,
				"method": "rhf"
			},
			{
				"type": "occ",
				"energy": -0.25664,
				"method": "rhf"
			},
			{
				"type": "occ",
				"energy": -0.22824,
				"method": "rhf"
			},
			{
				"type": "unocc",
				"energy": -0.07573,
				"method": "rhf"
			},
			{
				"type": "unocc",
				"energy": -0.04544,
				"method": "rhf"
			},
			{
				"type": "unocc",
				"energy": -0.02307,
				"method": "rhf"
			},
			{
				"type": "unocc",
				"energy": 0.02989,
				"method": "rhf"
			},
			{
				"type": "unocc",
				"energy": 0.04628,
				"method": "rhf"
			}
		],
		"cosmo_sigma_profile": { 
			"-0.025": 0.0,
			"-0.024": 0.0,
			"-0.023": 0.0,
			"-0.022": 0.0,
			"-0.021": 0.0,
			"-0.02": 0.0,
			"-0.019": 0.0,
			"-0.018": 0.0,
			"-0.017": 0.0,
			"-0.016": 0.0,
			"-0.015": 0.0,
			"-0.014": 0.0,
			"-0.013": 0.0,
			"-0.012": 0.0,
			"-0.011": 0.0,
			"-0.01": 0.0,
			"-0.009": 0.893533496538,
			"-0.008": 3.56920534896,
			"-0.007": 9.99191625824,
			"-0.006": 20.4110291476,
			"-0.005": 22.174734349,
			"-0.004": 20.7363931391,
			"-0.003": 21.6471640587,
			"-0.002": 15.6062160722,
			"-0.001": 17.0379020795,
			"0.0": 18.9431003991,
			"0.001": 21.4188094351,
			"0.002": 23.9690776404,
			"0.003": 18.454448862,
			"0.004": 6.90586274823,
			"0.005": 6.28191066215,
			"0.006": 4.4763028782,
			"0.007": 3.72026681473,
			"0.008": 4.02377419142,
			"0.009": 3.49300102181,
			"0.01": 3.75807357509,
			"0.011": 7.71313964857,
			"0.012": 7.88720146634,
			"0.013": 1.42869179014,
			"0.014": 0.0794552688237,
			"0.015": 0.0,
			"0.016": 0.0,
			"0.017": 0.0,
			"0.018": 0.0,
			"0.019": 0.0,
			"0.02": 0.0,
			"0.021": 0.0,
			"0.022": 0.0,
			"0.023": 0.0,
			"0.024": 0.0,
			"0.0": 0.0
		}
	}
}
