{
	 "smiles": "NNC(=O)CCC1=CC=C(C=C1)S(=O)(=O)N1CCOCC1", 
	 "Tm": 402.15, 
	 "num_atms": 40, 
	 "gaussian": { 
		 "optdone": 1, 
		 "sigma_profile": "yes", 
		 "theory": "DFT", 
		 "functional": "B3LYP", 
		 "basiset": "6-31G**", 
		 "properties": { 
			 "R2extent": 7315.6844, 
			 "electric_dipole_moment_norm": 6.08730757068, 
			 "electric_quadrupole_moment_norm": 30.1106310684, 
			 "total_energy": -1370.07014787, 
			 "HOMO_LUMO_gap": 0.19266, 
			 "cosmo_polarized_energy": -24.76, 
			 "cosmo_cavitation_energy": 41.06, 
			 "cosmo_dispersion_energy": -28.1, 
			 "cosmo_repulsion_energy": 2.04, 
			 "cosmo_total_nonelectrostatic_energy": 15.0, 
			 "SMD_solvation_energy": 4.96 
		},
		"coords": [
			{
				"x": 1.1207578374,
				"y": -2.6760636171,
				"z": 0.7823011779,
				"element": "N" 
			},
			{
				"x": 0.0565193146,
				"y": -2.4010773134,
				"z": -0.1022153907,
				"element": "N" 
			},
			{
				"x": -1.0095288392,
				"y": -1.6257063394,
				"z": 0.2605235787,
				"element": "C" 
			},
			{
				"x": -1.0379045774,
				"y": -1.0289569741,
				"z": 1.3321870692,
				"element": "O" 
			},
			{
				"x": -2.1452058174,
				"y": -1.5262517572,
				"z": -0.7608238628,
				"element": "C" 
			},
			{
				"x": -1.7664203575,
				"y": -0.8111882189,
				"z": -2.0859217758,
				"element": "C" 
			},
			{
				"x": -0.9229927621,
				"y": 0.4318340764,
				"z": -1.8853637752,
				"element": "C" 
			},
			{
				"x": 0.2875057246,
				"y": 0.5821323489,
				"z": -2.5761519822,
				"element": "C" 
			},
			{
				"x": 1.1582618483,
				"y": 1.6305712716,
				"z": -2.2853347727,
				"element": "C" 
			},
			{
				"x": 0.815573964,
				"y": 2.5374298693,
				"z": -1.2808397157,
				"element": "C" 
			},
			{
				"x": -0.4281159874,
				"y": 2.4669720853,
				"z": -0.6492885285,
				"element": "C" 
			},
			{
				"x": -1.2922821592,
				"y": 1.4197161905,
				"z": -0.9601270148,
				"element": "C" 
			},
			{
				"x": 2.0711308771,
				"y": 3.6440950916,
				"z": -0.6295841815,
				"element": "S" 
			},
			{
				"x": 1.3768701565,
				"y": 4.712926155,
				"z": 0.0912106567,
				"element": "O" 
			},
			{
				"x": 3.0299337679,
				"y": 3.9095248068,
				"z": -1.7050728403,
				"element": "O" 
			},
			{
				"x": 2.9147212137,
				"y": 2.7686606132,
				"z": 0.5336793527,
				"element": "N" 
			},
			{
				"x": 2.2796597419,
				"y": 2.4420006093,
				"z": 1.8210359655,
				"element": "C" 
			},
			{
				"x": 1.807961394,
				"y": 0.9859534182,
				"z": 1.8670920755,
				"element": "C" 
			},
			{
				"x": 2.8680123603,
				"y": 0.0840468701,
				"z": 1.524330573,
				"element": "O" 
			},
			{
				"x": 3.4130400168,
				"y": 0.3561657938,
				"z": 0.2325169714,
				"element": "C" 
			},
			{
				"x": 3.9370322437,
				"y": 1.7910181226,
				"z": 0.1330249635,
				"element": "C" 
			},
			{
				"x": 0.7099650148,
				"y": -2.8929063303,
				"z": 1.6908375287,
				"element": "H" 
			},
			{
				"x": 1.652432226,
				"y": -1.8154326362,
				"z": 0.9279321088,
				"element": "H" 
			},
			{
				"x": -0.0015290629,
				"y": -3.0203333332,
				"z": -0.8974531221,
				"element": "H" 
			},
			{
				"x": -2.944351333,
				"y": -0.9866848864,
				"z": -0.2488197493,
				"element": "H" 
			},
			{
				"x": -2.5307748696,
				"y": -2.5260605257,
				"z": -0.9960161891,
				"element": "H" 
			},
			{
				"x": -1.2217394994,
				"y": -1.5013725915,
				"z": -2.7392030007,
				"element": "H" 
			},
			{
				"x": -2.6976125996,
				"y": -0.5668274798,
				"z": -2.6131273736,
				"element": "H" 
			},
			{
				"x": 0.5686795732,
				"y": -0.1509059132,
				"z": -3.3278675288,
				"element": "H" 
			},
			{
				"x": 2.1049116431,
				"y": 1.7321534183,
				"z": -2.8051990565,
				"element": "H" 
			},
			{
				"x": -0.6962760718,
				"y": 3.2097024065,
				"z": 0.0940535435,
				"element": "H" 
			},
			{
				"x": -2.2393087002,
				"y": 1.3449144529,
				"z": -0.4349314342,
				"element": "H" 
			},
			{
				"x": 3.033383489,
				"y": 2.6084794771,
				"z": 2.6014081868,
				"element": "H" 
			},
			{
				"x": 1.4571424875,
				"y": 3.1361673417,
				"z": 2.003544351,
				"element": "H" 
			},
			{
				"x": 0.9481103332,
				"y": 0.8277444155,
				"z": 1.2041998523,
				"element": "H" 
			},
			{
				"x": 1.5007212342,
				"y": 0.718513043,
				"z": 2.8818580493,
				"element": "H" 
			},
			{
				"x": 4.2309112723,
				"y": -0.3568078827,
				"z": 0.0900114403,
				"element": "H" 
			},
			{
				"x": 2.6533373874,
				"y": 0.1742185303,
				"z": -0.5413281533,
				"element": "H" 
			},
			{
				"x": 4.2833069478,
				"y": 2.0261371112,
				"z": -0.8749953888,
				"element": "H" 
			},
			{
				"x": 4.7869605675,
				"y": 1.9159982798,
				"z": 0.816417392,
				"element": "H" 
			}
		],
		 "valence_orbital": [ 
			{
				"type": "occ",
				"energy": -0.27467,
				"method": "rhf"
			},
			{
				"type": "occ",
				"energy": -0.27203,
				"method": "rhf"
			},
			{
				"type": "occ",
				"energy": -0.26192,
				"method": "rhf"
			},
			{
				"type": "occ",
				"energy": -0.25698,
				"method": "rhf"
			},
			{
				"type": "occ",
				"energy": -0.2352,
				"method": "rhf"
			},
			{
				"type": "unocc",
				"energy": -0.04254,
				"method": "rhf"
			},
			{
				"type": "unocc",
				"energy": -0.02667,
				"method": "rhf"
			},
			{
				"type": "unocc",
				"energy": 0.01324,
				"method": "rhf"
			},
			{
				"type": "unocc",
				"energy": 0.05146,
				"method": "rhf"
			},
			{
				"type": "unocc",
				"energy": 0.06168,
				"method": "rhf"
			}
		],
		"cosmo_sigma_profile": { 
			"-0.025": 0.0,
			"-0.024": 0.0,
			"-0.023": 0.0,
			"-0.022": 0.0,
			"-0.021": 0.0,
			"-0.02": 0.0,
			"-0.019": 0.0,
			"-0.018": 0.0,
			"-0.017": 0.0,
			"-0.016": 0.0,
			"-0.015": 0.0,
			"-0.014": 0.913678839905,
			"-0.013": 0.950231932537,
			"-0.012": 1.46706251148,
			"-0.011": 1.68252982512,
			"-0.01": 2.31533561335,
			"-0.009": 2.49538153489,
			"-0.008": 2.43195173776,
			"-0.007": 7.94305494037,
			"-0.006": 27.8245887415,
			"-0.005": 37.6276388955,
			"-0.004": 28.135453724,
			"-0.003": 25.2656700513,
			"-0.002": 23.8917490463,
			"-0.001": 16.6116809883,
			"0.0": 14.994837997,
			"0.001": 15.0142660635,
			"0.002": 16.48010569,
			"0.003": 16.0120948214,
			"0.004": 9.10926116155,
			"0.005": 8.3547487106,
			"0.006": 7.4230987435,
			"0.007": 8.09381696086,
			"0.008": 5.68462281245,
			"0.009": 6.0726908261,
			"0.01": 9.67130779513,
			"0.011": 11.1777038226,
			"0.012": 6.61770724192,
			"0.013": 3.21800266019,
			"0.014": 2.93279060386,
			"0.015": 1.12307657657,
			"0.016": 0.759383617079,
			"0.017": 0.372322703662,
			"0.018": 0.0100874657409,
			"0.019": 0.0,
			"0.02": 0.0,
			"0.021": 0.0,
			"0.022": 0.0,
			"0.023": 0.0,
			"0.024": 0.0,
			"0.025": 0.0
		}
	}
}
