{
	 "smiles": "CCCCCCCCC(C(O)=O)C(O)=O", 
	 "Tm": 389.15, 
	 "num_atms": 35, 
	 "gaussian": { 
		 "optdone": 1, 
		 "sigma_profile": "yes", 
		 "theory": "DFT", 
		 "functional": "B3LYP", 
		 "basiset": "6-31G**", 
		 "properties": { 
			 "R2extent": 4397.5772, 
			 "electric_dipole_moment_norm": 4.71543439462, 
			 "electric_quadrupole_moment_norm": 13.3630759214, 
			 "total_energy": -732.163025406, 
			 "HOMO_LUMO_gap": 0.24357, 
			 "cosmo_polarized_energy": -17.93, 
			 "cosmo_cavitation_energy": 35.8, 
			 "cosmo_dispersion_energy": -24.29, 
			 "cosmo_repulsion_energy": 1.91, 
			 "cosmo_total_nonelectrostatic_energy": 13.43, 
			 "SMD_solvation_energy": 7.27 
		},
		"coords": [
			{
				"x": -2.0156743928,
				"y": -2.5034761447,
				"z": 3.3645001383,
				"element": "C" 
			},
			{
				"x": -0.8543226527,
				"y": -1.5062716582,
				"z": 3.4194904143,
				"element": "C" 
			},
			{
				"x": -1.1296696658,
				"y": -0.2229702401,
				"z": 2.6239601791,
				"element": "C" 
			},
			{
				"x": 0.0648397276,
				"y": 0.7402647062,
				"z": 2.5976596602,
				"element": "C" 
			},
			{
				"x": -0.1934076791,
				"y": 2.0877067109,
				"z": 1.9010923009,
				"element": "C" 
			},
			{
				"x": -0.5842356322,
				"y": 2.0601675258,
				"z": 0.409092127,
				"element": "C" 
			},
			{
				"x": 0.481607165,
				"y": 1.5021877887,
				"z": -0.5622753921,
				"element": "C" 
			},
			{
				"x": 0.470841372,
				"y": -0.0201952009,
				"z": -0.7956723455,
				"element": "C" 
			},
			{
				"x": -0.812043276,
				"y": -0.5799651894,
				"z": -1.4917108915,
				"element": "C" 
			},
			{
				"x": -0.7879835232,
				"y": -2.1195505182,
				"z": -1.3643062202,
				"element": "C" 
			},
			{
				"x": -0.3056846812,
				"y": -2.8119441863,
				"z": -2.3965492324,
				"element": "O" 
			},
			{
				"x": -1.1399784646,
				"y": -2.6438259922,
				"z": -0.3318070967,
				"element": "O" 
			},
			{
				"x": -0.9029947493,
				"y": -0.066618577,
				"z": -2.9194718488,
				"element": "C" 
			},
			{
				"x": -1.5450361147,
				"y": 1.0987391456,
				"z": -3.1141857851,
				"element": "O" 
			},
			{
				"x": -0.3969992714,
				"y": -0.6330663974,
				"z": -3.8719587964,
				"element": "O" 
			},
			{
				"x": -2.202865,
				"y": -2.818738353,
				"z": 2.3329558535,
				"element": "H" 
			},
			{
				"x": -1.7996407705,
				"y": -3.3994475167,
				"z": 3.9557352398,
				"element": "H" 
			},
			{
				"x": -2.9386509205,
				"y": -2.0611301977,
				"z": 3.7581764059,
				"element": "H" 
			},
			{
				"x": 0.0503613385,
				"y": -1.9860099944,
				"z": 3.0223980728,
				"element": "H" 
			},
			{
				"x": -0.6297828228,
				"y": -1.2460901975,
				"z": 4.4632329113,
				"element": "H" 
			},
			{
				"x": -2.0023223688,
				"y": 0.2919849209,
				"z": 3.0521605437,
				"element": "H" 
			},
			{
				"x": -1.4130929399,
				"y": -0.5112242673,
				"z": 1.6039283196,
				"element": "H" 
			},
			{
				"x": 0.3681910556,
				"y": 0.9532090628,
				"z": 3.6317164612,
				"element": "H" 
			},
			{
				"x": 0.929559602,
				"y": 0.2397153759,
				"z": 2.1411617283,
				"element": "H" 
			},
			{
				"x": -0.9905373776,
				"y": 2.6127101037,
				"z": 2.4446742667,
				"element": "H" 
			},
			{
				"x": 0.7031726853,
				"y": 2.7139833001,
				"z": 2.0046254855,
				"element": "H" 
			},
			{
				"x": -1.5339505723,
				"y": 1.5185771404,
				"z": 0.2940029979,
				"element": "H" 
			},
			{
				"x": -0.8014371297,
				"y": 3.0952035659,
				"z": 0.1167302897,
				"element": "H" 
			},
			{
				"x": 0.391011855,
				"y": 2.0083920957,
				"z": -1.5315687317,
				"element": "H" 
			},
			{
				"x": 1.4769599265,
				"y": 1.7741063905,
				"z": -0.1889220587,
				"element": "H" 
			},
			{
				"x": 1.3343731538,
				"y": -0.3011734591,
				"z": -1.4095734182,
				"element": "H" 
			},
			{
				"x": 0.5641360287,
				"y": -0.5559688964,
				"z": 0.1512768218,
				"element": "H" 
			},
			{
				"x": -1.689903226,
				"y": -0.261119553,
				"z": -0.9218357849,
				"element": "H" 
			},
			{
				"x": -0.1440096844,
				"y": -2.1930606944,
				"z": -3.1492068421,
				"element": "H" 
			},
			{
				"x": -1.8956309944,
				"y": 1.4371994007,
				"z": -2.2773257733,
				"element": "H" 
			}
		],
		 "valence_orbital": [ 
			{
				"type": "occ",
				"energy": -0.31824,
				"method": "rhf"
			},
			{
				"type": "occ",
				"energy": -0.31121,
				"method": "rhf"
			},
			{
				"type": "occ",
				"energy": -0.3107,
				"method": "rhf"
			},
			{
				"type": "occ",
				"energy": -0.30886,
				"method": "rhf"
			},
			{
				"type": "occ",
				"energy": -0.2737,
				"method": "rhf"
			},
			{
				"type": "unocc",
				"energy": -0.03013,
				"method": "rhf"
			},
			{
				"type": "unocc",
				"energy": 0.00586,
				"method": "rhf"
			},
			{
				"type": "unocc",
				"energy": 0.02577,
				"method": "rhf"
			},
			{
				"type": "unocc",
				"energy": 0.07247,
				"method": "rhf"
			},
			{
				"type": "unocc",
				"energy": 0.07926,
				"method": "rhf"
			}
		],
		"cosmo_sigma_profile": { 
			"-0.025": 0.0,
			"-0.024": 0.0,
			"-0.023": 0.0,
			"-0.022": 0.0,
			"-0.021": 0.0,
			"-0.02": 0.0,
			"-0.019": 0.00343818933197,
			"-0.018": 0.924368685868,
			"-0.017": 1.47374936953,
			"-0.016": 1.37336227148,
			"-0.015": 0.584272639987,
			"-0.014": 1.37195852851,
			"-0.013": 1.39337810718,
			"-0.012": 1.93864004231,
			"-0.011": 0.958820593204,
			"-0.01": 1.64058767617,
			"-0.009": 2.90277157496,
			"-0.008": 4.2135248185,
			"-0.007": 4.40522448497,
			"-0.006": 4.48333630477,
			"-0.005": 8.41367580627,
			"-0.004": 11.0855641394,
			"-0.003": 18.3267453096,
			"-0.002": 31.9905951877,
			"-0.001": 33.6041507798,
			"0.0": 37.5517268347,
			"0.001": 28.6331619067,
			"0.002": 17.512984567,
			"0.003": 6.41460965184,
			"0.004": 5.8114104516,
			"0.005": 6.0817366012,
			"0.006": 7.50388112961,
			"0.007": 6.53518918453,
			"0.008": 7.45265460385,
			"0.009": 8.3334067894,
			"0.01": 6.46259080243,
			"0.011": 4.79399270236,
			"0.012": 1.88297029728,
			"0.013": 1.30928103239,
			"0.014": 0.0587665755527,
			"0.015": 0.0,
			"0.016": 0.0,
			"0.017": 0.0,
			"0.018": 0.0,
			"0.019": 0.0,
			"0.02": 0.0,
			"0.021": 0.0,
			"0.022": 0.0,
			"0.023": 0.0,
			"0.024": 0.0,
			"0.025": 0.0
		}
	}
}
