{
	 "smiles": "CC(=O)C=NO", 
	 "Tm": 342.15, 
	 "num_atms": 11, 
	 "gaussian": { 
		 "optdone": 1, 
		 "sigma_profile": "yes", 
		 "theory": "DFT", 
		 "functional": "B3LYP", 
		 "basiset": "6-31G**", 
		 "properties": { 
			 "R2extent": 1011.1535, 
			 "electric_dipole_moment_norm": 3.17909550344, 
			 "electric_quadrupole_moment_norm": 7.27378168493, 
			 "total_energy": -322.461227372, 
			 "HOMO_LUMO_gap": 0.18843, 
			 "cosmo_polarized_energy": -9.39, 
			 "cosmo_cavitation_energy": 15.93, 
			 "cosmo_dispersion_energy": -11.57, 
			 "cosmo_repulsion_energy": 1.04, 
			 "cosmo_total_nonelectrostatic_energy": 5.4, 
			 "SMD_solvation_energy": 4.53 
		},
		"coords": [
			{
				"x": -0.6161779341,
				"y": 2.4455319171,
				"z": -0.3041040803,
				"element": "C" 
			},
			{
				"x": -1.6916684413,
				"y": 1.5011829106,
				"z": -0.7967607869,
				"element": "C" 
			},
			{
				"x": -2.8172884786,
				"y": 1.8729604755,
				"z": -1.0869037202,
				"element": "O" 
			},
			{
				"x": -1.3612351131,
				"y": 0.0540879085,
				"z": -0.9340300667,
				"element": "C" 
			},
			{
				"x": -0.1854458829,
				"y": -0.3575770463,
				"z": -0.6351707454,
				"element": "N" 
			},
			{
				"x": -0.0563550415,
				"y": -1.7237121965,
				"z": -0.8218390338,
				"element": "O" 
			},
			{
				"x": 0.252800496,
				"y": 2.4165499068,
				"z": -0.9690087928,
				"element": "H" 
			},
			{
				"x": -0.264356778,
				"y": 2.1416758341,
				"z": 0.6868307289,
				"element": "H" 
			},
			{
				"x": -1.0232459785,
				"y": 3.4563276867,
				"z": -0.2634453475,
				"element": "H" 
			},
			{
				"x": -2.1487279995,
				"y": -0.6114842335,
				"z": -1.2906202971,
				"element": "H" 
			},
			{
				"x": 0.8606011515,
				"y": -1.8949431631,
				"z": -0.5638478582,
				"element": "H" 
			}
		],
		 "valence_orbital": [ 
			{
				"type": "occ",
				"energy": -0.39086,
				"method": "rhf"
			},
			{
				"type": "occ",
				"energy": -0.36449,
				"method": "rhf"
			},
			{
				"type": "occ",
				"energy": -0.30365,
				"method": "rhf"
			},
			{
				"type": "occ",
				"energy": -0.28092,
				"method": "rhf"
			},
			{
				"type": "occ",
				"energy": -0.25695,
				"method": "rhf"
			},
			{
				"type": "unocc",
				"energy": -0.06852,
				"method": "rhf"
			},
			{
				"type": "unocc",
				"energy": 0.05091,
				"method": "rhf"
			},
			{
				"type": "unocc",
				"energy": 0.05954,
				"method": "rhf"
			},
			{
				"type": "unocc",
				"energy": 0.10854,
				"method": "rhf"
			},
			{
				"type": "unocc",
				"energy": 0.12226,
				"method": "rhf"
			}
		],
		"cosmo_sigma_profile": { 
			"-0.025": 0.0,
			"-0.024": 0.0,
			"-0.023": 0.0,
			"-0.022": 0.0,
			"-0.021": 0.0,
			"-0.02": 0.0,
			"-0.019": 0.285224542699,
			"-0.018": 1.28012992803,
			"-0.017": 0.666073192429,
			"-0.016": 1.17902561809,
			"-0.015": 0.985575704583,
			"-0.014": 0.867194913554,
			"-0.013": 0.195618747614,
			"-0.012": 0.1932323131,
			"-0.011": 1.00686143215,
			"-0.01": 1.34045559393,
			"-0.009": 0.584290020867,
			"-0.008": 1.45826319878,
			"-0.007": 2.05778284091,
			"-0.006": 5.64284556074,
			"-0.005": 8.2097327711,
			"-0.004": 8.98907246491,
			"-0.003": 10.5385590333,
			"-0.002": 11.4766391931,
			"-0.001": 10.8285333921,
			"0.0": 5.3038074412,
			"0.001": 6.12216536631,
			"0.002": 5.16608279825,
			"0.003": 6.02365504473,
			"0.004": 4.63857895484,
			"0.005": 3.44863750306,
			"0.006": 3.54999973849,
			"0.007": 3.94242031979,
			"0.008": 4.110321327,
			"0.009": 4.3792924465,
			"0.01": 3.12827077325,
			"0.011": 3.9728398934,
			"0.012": 3.7144390453,
			"0.013": 0.779375026979,
			"0.014": 0.0,
			"0.015": 0.0,
			"0.016": 0.0,
			"0.017": 0.0,
			"0.018": 0.0,
			"0.019": 0.0,
			"0.02": 0.0,
			"0.021": 0.0,
			"0.022": 0.0,
			"0.023": 0.0,
			"0.024": 0.0,
			"0.025": 0.0
		}
	}
}
