{
	 "smiles": "OC[C@H](O)[C@H](O)[C@H](O)CO", 
	 "Tm": 375.15, 
	 "num_atms": 22, 
	 "gaussian": { 
		 "optdone": 1, 
		 "sigma_profile": "yes", 
		 "theory": "DFT", 
		 "functional": "B3LYP", 
		 "basiset": "6-31G**", 
		 "properties": { 
			 "R2extent": 2148.4552, 
			 "electric_dipole_moment_norm": 2.90848652223, 
			 "electric_quadrupole_moment_norm": 16.8134537582, 
			 "total_energy": -573.837129118, 
			 "HOMO_LUMO_gap": 0.29719, 
			 "cosmo_polarized_energy": -18.6, 
			 "cosmo_cavitation_energy": 23.82, 
			 "cosmo_dispersion_energy": -17.67, 
			 "cosmo_repulsion_energy": 1.46, 
			 "cosmo_total_nonelectrostatic_energy": 7.62, 
			 "SMD_solvation_energy": 4.12 
		},
		"coords": [
			{
				"x": -0.8119646066,
				"y": 0.0778659194,
				"z": 1.2543771029,
				"element": "O" 
			},
			{
				"x": -0.6936907699,
				"y": 1.4281787181,
				"z": 0.8195907098,
				"element": "C" 
			},
			{
				"x": 0.6068157145,
				"y": 1.7200596539,
				"z": 0.0472705292,
				"element": "C" 
			},
			{
				"x": 0.8992740767,
				"y": 3.1123171779,
				"z": 0.1269196167,
				"element": "O" 
			},
			{
				"x": 0.6381713816,
				"y": 1.3366487504,
				"z": -1.4432681223,
				"element": "C" 
			},
			{
				"x": -0.3371741828,
				"y": 2.1616703839,
				"z": -2.080717365,
				"element": "O" 
			},
			{
				"x": 0.482453636,
				"y": -0.1243450444,
				"z": -1.896043974,
				"element": "C" 
			},
			{
				"x": 0.709848187,
				"y": -0.1280479833,
				"z": -3.328551262,
				"element": "O" 
			},
			{
				"x": -0.8909261817,
				"y": -0.7787136521,
				"z": -1.7391940811,
				"element": "C" 
			},
			{
				"x": -0.8894808992,
				"y": -2.0665108166,
				"z": -2.3318802753,
				"element": "O" 
			},
			{
				"x": -0.1393031344,
				"y": -0.0799381616,
				"z": 1.9292320194,
				"element": "H" 
			},
			{
				"x": -1.5632410492,
				"y": 1.6286324734,
				"z": 0.1874364322,
				"element": "H" 
			},
			{
				"x": -0.7225824747,
				"y": 2.1275349134,
				"z": 1.6654633506,
				"element": "H" 
			},
			{
				"x": 1.431502331,
				"y": 1.2002828134,
				"z": 0.5554039613,
				"element": "H" 
			},
			{
				"x": 0.3660165679,
				"y": 3.5291362744,
				"z": -0.5673576798,
				"element": "H" 
			},
			{
				"x": 1.6450501643,
				"y": 1.6438768239,
				"z": -1.7795929164,
				"element": "H" 
			},
			{
				"x": -0.3133225612,
				"y": 1.9268274336,
				"z": -3.0201096629,
				"element": "H" 
			},
			{
				"x": 1.2328378562,
				"y": -0.753491952,
				"z": -1.3969804472,
				"element": "H" 
			},
			{
				"x": 1.6603506448,
				"y": -0.0736815731,
				"z": -3.4905101081,
				"element": "H" 
			},
			{
				"x": -1.6489501194,
				"y": -0.1224790471,
				"z": -2.19310978,
				"element": "H" 
			},
			{
				"x": -1.1245624253,
				"y": -0.9011924292,
				"z": -0.6819198012,
				"element": "H" 
			},
			{
				"x": -0.5370221555,
				"y": -1.9377306763,
				"z": -3.2241582467,
				"element": "H" 
			}
		],
		 "valence_orbital": [ 
			{
				"type": "occ",
				"energy": -0.30422,
				"method": "rhf"
			},
			{
				"type": "occ",
				"energy": -0.29261,
				"method": "rhf"
			},
			{
				"type": "occ",
				"energy": -0.28346,
				"method": "rhf"
			},
			{
				"type": "occ",
				"energy": -0.25887,
				"method": "rhf"
			},
			{
				"type": "occ",
				"energy": -0.25074,
				"method": "rhf"
			},
			{
				"type": "unocc",
				"energy": 0.04645,
				"method": "rhf"
			},
			{
				"type": "unocc",
				"energy": 0.06369,
				"method": "rhf"
			},
			{
				"type": "unocc",
				"energy": 0.08119,
				"method": "rhf"
			},
			{
				"type": "unocc",
				"energy": 0.10224,
				"method": "rhf"
			},
			{
				"type": "unocc",
				"energy": 0.11593,
				"method": "rhf"
			}
		],
		"cosmo_sigma_profile": { 
			"-0.025": 0.0,
			"-0.024": 0.0,
			"-0.023": 0.0,
			"-0.022": 0.0,
			"-0.021": 0.0,
			"-0.02": 0.0,
			"-0.019": 0.0,
			"-0.018": 0.0,
			"-0.017": 0.077928075696,
			"-0.016": 1.56696942495,
			"-0.015": 2.25247134743,
			"-0.014": 1.5006657254,
			"-0.013": 2.96143406547,
			"-0.012": 3.73056886714,
			"-0.011": 2.98771138928,
			"-0.01": 3.60843369736,
			"-0.009": 3.79873061188,
			"-0.008": 5.24455816355,
			"-0.007": 4.488746652,
			"-0.006": 6.38557093587,
			"-0.005": 11.3681123778,
			"-0.004": 8.96474239831,
			"-0.003": 10.6776891858,
			"-0.002": 12.2047820421,
			"-0.001": 11.3329082232,
			"0.0": 8.20470562425,
			"0.001": 9.06042784458,
			"0.002": 9.501902956,
			"0.003": 7.44766118541,
			"0.004": 6.23382526753,
			"0.005": 5.5761476573,
			"0.006": 6.59301981042,
			"0.007": 4.93566018951,
			"0.008": 3.78133717398,
			"0.009": 5.15285499832,
			"0.01": 4.53182697094,
			"0.011": 4.23056624722,
			"0.012": 3.79017038285,
			"0.013": 3.69121696529,
			"0.014": 5.23172856351,
			"0.015": 1.83697989661,
			"0.016": 0.0,
			"0.017": 0.0,
			"0.018": 0.0,
			"0.019": 0.0,
			"0.02": 0.0,
			"0.021": 0.0,
			"0.022": 0.0,
			"0.023": 0.0,
			"0.024": 0.0,
			"0.025": 0.0
		}
	}
}
