{
	 "smiles": "OC(=O)CC1OCCC2=C1SC=C2", 
	 "Tm": 383.15, 
	 "num_atms": 23, 
	 "gaussian": { 
		 "optdone": 1, 
		 "sigma_profile": "yes", 
		 "theory": "DFT", 
		 "functional": "B3LYP", 
		 "basiset": "6-31G**", 
		 "properties": { 
			 "R2extent": 2731.7378, 
			 "electric_dipole_moment_norm": 5.35075857146, 
			 "electric_quadrupole_moment_norm": 11.8820115355, 
			 "total_energy": -972.828166742, 
			 "HOMO_LUMO_gap": 0.21271, 
			 "cosmo_polarized_energy": -14.41, 
			 "cosmo_cavitation_energy": 26.9, 
			 "cosmo_dispersion_energy": -20.32, 
			 "cosmo_repulsion_energy": 1.56, 
			 "cosmo_total_nonelectrostatic_energy": 8.14, 
			 "SMD_solvation_energy": 5.11 
		},
		"coords": [
			{
				"x": -0.7734488475,
				"y": 0.5708531833,
				"z": 1.9882775067,
				"element": "O" 
			},
			{
				"x": -0.9248498578,
				"y": 1.1146665979,
				"z": 0.7597293014,
				"element": "C" 
			},
			{
				"x": -0.7137057197,
				"y": 2.284001664,
				"z": 0.5525184926,
				"element": "O" 
			},
			{
				"x": -1.4311186709,
				"y": 0.1379386466,
				"z": -0.3022787581,
				"element": "C" 
			},
			{
				"x": -0.6199350095,
				"y": -1.1647455348,
				"z": -0.4458314704,
				"element": "C" 
			},
			{
				"x": -0.6486714098,
				"y": -1.8727997551,
				"z": 0.8258462288,
				"element": "O" 
			},
			{
				"x": 0.5849764923,
				"y": -2.3505063036,
				"z": 1.399151884,
				"element": "C" 
			},
			{
				"x": 1.5493520114,
				"y": -2.9252232711,
				"z": 0.361966178,
				"element": "C" 
			},
			{
				"x": 1.7996228169,
				"y": -1.8607531662,
				"z": -0.6689564093,
				"element": "C" 
			},
			{
				"x": 0.7778167505,
				"y": -0.9984893299,
				"z": -0.9739846952,
				"element": "C" 
			},
			{
				"x": 1.2757442241,
				"y": 0.192974456,
				"z": -2.1419793679,
				"element": "S" 
			},
			{
				"x": 2.8713166103,
				"y": -0.4862942281,
				"z": -2.2088371925,
				"element": "C" 
			},
			{
				"x": 3.0063589085,
				"y": -1.55948464,
				"z": -1.3729127379,
				"element": "C" 
			},
			{
				"x": -0.9340855755,
				"y": -0.391497367,
				"z": 1.9064435154,
				"element": "H" 
			},
			{
				"x": -2.4602476412,
				"y": -0.1391247344,
				"z": -0.0424014708,
				"element": "H" 
			},
			{
				"x": -1.4652748997,
				"y": 0.6644564113,
				"z": -1.2586357745,
				"element": "H" 
			},
			{
				"x": -1.1761584865,
				"y": -1.8088077494,
				"z": -1.142355065,
				"element": "H" 
			},
			{
				"x": 0.2736749759,
				"y": -3.1066917883,
				"z": 2.1251613605,
				"element": "H" 
			},
			{
				"x": 1.0806820706,
				"y": -1.5305552116,
				"z": 1.9354593715,
				"element": "H" 
			},
			{
				"x": 2.4769163044,
				"y": -3.225814308,
				"z": 0.8619567417,
				"element": "H" 
			},
			{
				"x": 1.1183728809,
				"y": -3.8293462652,
				"z": -0.0888360572,
				"element": "H" 
			},
			{
				"x": 3.6174755593,
				"y": -0.0354697413,
				"z": -2.8482096523,
				"element": "H" 
			},
			{
				"x": 3.9307865131,
				"y": -2.1140875653,
				"z": -1.2545919293,
				"element": "H" 
			}
		],
		 "valence_orbital": [ 
			{
				"type": "occ",
				"energy": -0.3019,
				"method": "rhf"
			},
			{
				"type": "occ",
				"energy": -0.28617,
				"method": "rhf"
			},
			{
				"type": "occ",
				"energy": -0.2591,
				"method": "rhf"
			},
			{
				"type": "occ",
				"energy": -0.25558,
				"method": "rhf"
			},
			{
				"type": "occ",
				"energy": -0.23671,
				"method": "rhf"
			},
			{
				"type": "unocc",
				"energy": -0.024,
				"method": "rhf"
			},
			{
				"type": "unocc",
				"energy": 0.0121,
				"method": "rhf"
			},
			{
				"type": "unocc",
				"energy": 0.02427,
				"method": "rhf"
			},
			{
				"type": "unocc",
				"energy": 0.05133,
				"method": "rhf"
			},
			{
				"type": "unocc",
				"energy": 0.07487,
				"method": "rhf"
			}
		],
		"cosmo_sigma_profile": { 
			"-0.025": 0.0,
			"-0.024": 0.0,
			"-0.023": 0.0,
			"-0.022": 0.0,
			"-0.021": 0.0,
			"-0.02": 0.0,
			"-0.019": 0.0,
			"-0.018": 0.0,
			"-0.017": 0.0,
			"-0.016": 0.0,
			"-0.015": 0.0,
			"-0.014": 0.0,
			"-0.013": 0.0,
			"-0.012": 0.0,
			"-0.011": 0.0,
			"-0.01": 0.225558755842,
			"-0.009": 2.19842809337,
			"-0.008": 4.67050935017,
			"-0.007": 9.27928141171,
			"-0.006": 15.9606604588,
			"-0.005": 19.6823299902,
			"-0.004": 22.4833123689,
			"-0.003": 18.9121402144,
			"-0.002": 13.3435168026,
			"-0.001": 11.4096491304,
			"0.0": 7.96113594936,
			"0.001": 10.7076393675,
			"0.002": 9.37707508912,
			"0.003": 11.678166552,
			"0.004": 13.7185851575,
			"0.005": 9.15967511667,
			"0.006": 4.15098948731,
			"0.007": 3.18585981062,
			"0.008": 3.15557271437,
			"0.009": 3.50330993945,
			"0.01": 4.50943631613,
			"0.011": 6.75237123881,
			"0.012": 5.7524656285,
			"0.013": 3.06776666784,
			"0.014": 0.253530290432,
			"0.015": 0.0,
			"0.016": 0.0,
			"0.017": 0.0,
			"0.018": 0.0,
			"0.019": 0.0,
			"0.02": 0.0,
			"0.021": 0.0,
			"0.022": 0.0,
			"0.023": 0.0,
			"0.024": 0.0,
			"0.025": 0.0
		}
	}
}
