{
	 "smiles": "CCS(=O)(=O)C1=NC2=C(S1)C=C(N)C=C2", 
	 "Tm": 364.15, 
	 "num_atms": 25, 
	 "gaussian": { 
		 "optdone": 1, 
		 "sigma_profile": "yes", 
		 "theory": "DFT", 
		 "functional": "B3LYP", 
		 "basiset": "6-31G**", 
		 "properties": { 
			 "R2extent": 5524.4693, 
			 "electric_dipole_moment_norm": 6.6208198367, 
			 "electric_quadrupole_moment_norm": 34.8609530689, 
			 "total_energy": -1405.2511222, 
			 "HOMO_LUMO_gap": 0.16087, 
			 "cosmo_polarized_energy": -19.61, 
			 "cosmo_cavitation_energy": 32.09, 
			 "cosmo_dispersion_energy": -24.11, 
			 "cosmo_repulsion_energy": 1.81, 
			 "cosmo_total_nonelectrostatic_energy": 9.78, 
			 "SMD_solvation_energy": 2.64 
		},
		"coords": [
			{
				"x": 0.4324668768,
				"y": 0.8382632845,
				"z": 3.0660858457,
				"element": "C" 
			},
			{
				"x": -0.7419246017,
				"y": -0.110473956,
				"z": 3.2749970454,
				"element": "C" 
			},
			{
				"x": -0.3861050137,
				"y": -1.8223920958,
				"z": 2.7796460227,
				"element": "S" 
			},
			{
				"x": -1.5581016711,
				"y": -2.6388307559,
				"z": 3.1179932937,
				"element": "O" 
			},
			{
				"x": 0.9584482218,
				"y": -2.2074001196,
				"z": 3.2408265834,
				"element": "O" 
			},
			{
				"x": -0.2568417895,
				"y": -1.6959428662,
				"z": 0.9823416539,
				"element": "C" 
			},
			{
				"x": -1.1544844345,
				"y": -1.1202876203,
				"z": 0.2573185944,
				"element": "N" 
			},
			{
				"x": -0.8252830551,
				"y": -1.2133771054,
				"z": -1.0820086083,
				"element": "C" 
			},
			{
				"x": 0.3835210097,
				"y": -1.9021139012,
				"z": -1.3597738896,
				"element": "C" 
			},
			{
				"x": 1.1212579788,
				"y": -2.4233823656,
				"z": 0.1430217889,
				"element": "S" 
			},
			{
				"x": 0.8409441423,
				"y": -2.0872883888,
				"z": -2.6638499152,
				"element": "C" 
			},
			{
				"x": 0.0784503903,
				"y": -1.5700591156,
				"z": -3.7209291346,
				"element": "C" 
			},
			{
				"x": 0.5212121322,
				"y": -1.6812060219,
				"z": -5.0326997079,
				"element": "N" 
			},
			{
				"x": -1.1303048065,
				"y": -0.8777609386,
				"z": -3.4446484827,
				"element": "C" 
			},
			{
				"x": -1.5795966244,
				"y": -0.6997645475,
				"z": -2.1500116134,
				"element": "C" 
			},
			{
				"x": 0.1693642679,
				"y": 1.8304181175,
				"z": 3.44496095,
				"element": "H" 
			},
			{
				"x": 0.6805801752,
				"y": 0.939028126,
				"z": 2.0058359377,
				"element": "H" 
			},
			{
				"x": 1.3180717377,
				"y": 0.4849126182,
				"z": 3.5988617753,
				"element": "H" 
			},
			{
				"x": -1.0182227467,
				"y": -0.2107869834,
				"z": 4.3294007233,
				"element": "H" 
			},
			{
				"x": -1.6313203745,
				"y": 0.1727067456,
				"z": 2.7064009618,
				"element": "H" 
			},
			{
				"x": 1.7683411647,
				"y": -2.6146095593,
				"z": -2.8659289843,
				"element": "H" 
			},
			{
				"x": -0.1869958001,
				"y": -1.6068265027,
				"z": -5.7486543046,
				"element": "H" 
			},
			{
				"x": 1.1898602771,
				"y": -2.4148546924,
				"z": -5.2185098437,
				"element": "H" 
			},
			{
				"x": -1.7063524649,
				"y": -0.479954235,
				"z": -4.2757013077,
				"element": "H" 
			},
			{
				"x": -2.5069849917,
				"y": -0.1758171205,
				"z": -1.9440753846,
				"element": "H" 
			}
		],
		 "valence_orbital": [ 
			{
				"type": "occ",
				"energy": -0.306,
				"method": "rhf"
			},
			{
				"type": "occ",
				"energy": -0.29339,
				"method": "rhf"
			},
			{
				"type": "occ",
				"energy": -0.27865,
				"method": "rhf"
			},
			{
				"type": "occ",
				"energy": -0.24888,
				"method": "rhf"
			},
			{
				"type": "occ",
				"energy": -0.21619,
				"method": "rhf"
			},
			{
				"type": "unocc",
				"energy": -0.05532,
				"method": "rhf"
			},
			{
				"type": "unocc",
				"energy": -0.01786,
				"method": "rhf"
			},
			{
				"type": "unocc",
				"energy": 0.0045,
				"method": "rhf"
			},
			{
				"type": "unocc",
				"energy": 0.02243,
				"method": "rhf"
			},
			{
				"type": "unocc",
				"energy": 0.04524,
				"method": "rhf"
			}
		],
		"cosmo_sigma_profile": { 
			"-0.025": 0.0,
			"-0.024": 0.0,
			"-0.023": 0.0,
			"-0.022": 0.0,
			"-0.021": 0.0,
			"-0.02": 0.0,
			"-0.019": 0.0,
			"-0.018": 0.0,
			"-0.017": 0.0,
			"-0.016": 0.0,
			"-0.015": 0.0,
			"-0.014": 0.148130981735,
			"-0.013": 2.75152585074,
			"-0.012": 3.02754361046,
			"-0.011": 3.21868055752,
			"-0.01": 3.55496291959,
			"-0.009": 4.36724937895,
			"-0.008": 6.83417447396,
			"-0.007": 10.2537117202,
			"-0.006": 11.0899330979,
			"-0.005": 15.1601804635,
			"-0.004": 16.5290234037,
			"-0.003": 15.1910959435,
			"-0.002": 16.4852004844,
			"-0.001": 17.3915712538,
			"0.0": 14.053062924,
			"0.001": 17.2029765583,
			"0.002": 18.0838783111,
			"0.003": 18.6775456172,
			"0.004": 13.1007172023,
			"0.005": 5.49489744416,
			"0.006": 4.34981673564,
			"0.007": 5.92275253375,
			"0.008": 4.54912543658,
			"0.009": 5.56484556472,
			"0.01": 9.11462096546,
			"0.011": 12.2282872789,
			"0.012": 3.11146177456,
			"0.013": 0.362070768364,
			"0.014": 0.0,
			"0.015": 0.0,
			"0.016": 0.0,
			"0.017": 0.0,
			"0.018": 0.0,
			"0.019": 0.0,
			"0.02": 0.0,
			"0.021": 0.0,
			"0.022": 0.0,
			"0.023": 0.0,
			"0.024": 0.0,
			"0.025": 0.0
		}
	}
}
