{
	 "smiles": "CCC1=C(C)C=C(S1)C(=O)NNC(=O)CCl", 
	 "Tm": 434.15, 
	 "num_atms": 29, 
	 "gaussian": { 
		 "optdone": 1, 
		 "sigma_profile": "yes", 
		 "theory": "DFT", 
		 "functional": "B3LYP", 
		 "basiset": "6-31G**", 
		 "properties": { 
			 "R2extent": 6568.7295, 
			 "electric_dipole_moment_norm": 4.64303527232, 
			 "electric_quadrupole_moment_norm": 16.7269408847, 
			 "total_energy": -1507.22349378, 
			 "HOMO_LUMO_gap": 0.18022, 
			 "cosmo_polarized_energy": -19.06, 
			 "cosmo_cavitation_energy": 36.81, 
			 "cosmo_dispersion_energy": -25.47, 
			 "cosmo_repulsion_energy": 2.0, 
			 "cosmo_total_nonelectrostatic_energy": 13.34, 
			 "SMD_solvation_energy": 7.33 
		},
		"coords": [
			{
				"x": -0.4576256716,
				"y": 3.7822381548,
				"z": 2.1228503523,
				"element": "C" 
			},
			{
				"x": -1.230307978,
				"y": 2.8298232329,
				"z": 1.1904744665,
				"element": "C" 
			},
			{
				"x": -0.5907121626,
				"y": 1.4734778889,
				"z": 1.0568342001,
				"element": "C" 
			},
			{
				"x": -0.7468888625,
				"y": 0.3684982646,
				"z": 1.8741727061,
				"element": "C" 
			},
			{
				"x": -1.6354800669,
				"y": 0.3082320013,
				"z": 3.0905009512,
				"element": "C" 
			},
			{
				"x": 0.0537588268,
				"y": -0.7285953933,
				"z": 1.4443111341,
				"element": "C" 
			},
			{
				"x": 0.8116397892,
				"y": -0.4657853943,
				"z": 0.3235567262,
				"element": "C" 
			},
			{
				"x": 0.5461529666,
				"y": 1.1708955155,
				"z": -0.2204525308,
				"element": "S" 
			},
			{
				"x": 1.7954819338,
				"y": -1.2416043945,
				"z": -0.4491311847,
				"element": "C" 
			},
			{
				"x": 2.4917509004,
				"y": -0.7257509305,
				"z": -1.3128299426,
				"element": "O" 
			},
			{
				"x": 2.0185420379,
				"y": -2.596772782,
				"z": -0.1473896516,
				"element": "N" 
			},
			{
				"x": 1.0314905836,
				"y": -3.4116053491,
				"z": 0.3832358247,
				"element": "N" 
			},
			{
				"x": 0.0515740524,
				"y": -3.9325621059,
				"z": -0.416649122,
				"element": "C" 
			},
			{
				"x": -0.0764182721,
				"y": -3.667792024,
				"z": -1.5981656314,
				"element": "O" 
			},
			{
				"x": -0.9439076999,
				"y": -4.8969733816,
				"z": 0.2270479387,
				"element": "C" 
			},
			{
				"x": -0.7117391417,
				"y": -5.2554512513,
				"z": 1.9926385685,
				"element": "Cl" 
			},
			{
				"x": 0.558077328,
				"y": 3.9516618094,
				"z": 1.7530334635,
				"element": "H" 
			},
			{
				"x": -0.9631276123,
				"y": 4.7512064196,
				"z": 2.188808534,
				"element": "H" 
			},
			{
				"x": -0.3808887889,
				"y": 3.3689576551,
				"z": 3.1331851439,
				"element": "H" 
			},
			{
				"x": -2.25217839,
				"y": 2.7022833868,
				"z": 1.5672750675,
				"element": "H" 
			},
			{
				"x": -1.326572303,
				"y": 3.2905382098,
				"z": 0.2008552626,
				"element": "H" 
			},
			{
				"x": -2.4844794611,
				"y": 0.9930592932,
				"z": 3.0096787939,
				"element": "H" 
			},
			{
				"x": -2.0354484083,
				"y": -0.7003308469,
				"z": 3.2336384097,
				"element": "H" 
			},
			{
				"x": -1.0895881758,
				"y": 0.5738461376,
				"z": 4.0042750689,
				"element": "H" 
			},
			{
				"x": 0.0573774102,
				"y": -1.6797012803,
				"z": 1.9607261022,
				"element": "H" 
			},
			{
				"x": 2.5569106312,
				"y": -3.0300883627,
				"z": -0.893281403,
				"element": "H" 
			},
			{
				"x": 1.1839292231,
				"y": -3.7727590425,
				"z": 1.3147149302,
				"element": "H" 
			},
			{
				"x": -1.9435608334,
				"y": -4.4775481921,
				"z": 0.111637707,
				"element": "H" 
			},
			{
				"x": -0.8958618551,
				"y": -5.8474972386,
				"z": -0.3046518858,
				"element": "H" 
			}
		],
		 "valence_orbital": [ 
			{
				"type": "occ",
				"energy": -0.29067,
				"method": "rhf"
			},
			{
				"type": "occ",
				"energy": -0.27404,
				"method": "rhf"
			},
			{
				"type": "occ",
				"energy": -0.25936,
				"method": "rhf"
			},
			{
				"type": "occ",
				"energy": -0.2502,
				"method": "rhf"
			},
			{
				"type": "occ",
				"energy": -0.22985,
				"method": "rhf"
			},
			{
				"type": "unocc",
				"energy": -0.04963,
				"method": "rhf"
			},
			{
				"type": "unocc",
				"energy": -0.00335,
				"method": "rhf"
			},
			{
				"type": "unocc",
				"energy": -0.00069,
				"method": "rhf"
			},
			{
				"type": "unocc",
				"energy": 0.02695,
				"method": "rhf"
			},
			{
				"type": "unocc",
				"energy": 0.03467,
				"method": "rhf"
			}
		],
		"cosmo_sigma_profile": { 
			"-0.025": 0.0,
			"-0.024": 0.0,
			"-0.023": 0.0,
			"-0.022": 0.0,
			"-0.021": 0.0,
			"-0.02": 0.0,
			"-0.019": 0.0,
			"-0.018": 0.0,
			"-0.017": 0.0,
			"-0.016": 0.0,
			"-0.015": 0.0677487513252,
			"-0.014": 1.25964382809,
			"-0.013": 1.66661670171,
			"-0.012": 1.97037229198,
			"-0.011": 2.04379712262,
			"-0.01": 3.08826036563,
			"-0.009": 6.73625382395,
			"-0.008": 5.92618164373,
			"-0.007": 6.17175415238,
			"-0.006": 9.05773051095,
			"-0.005": 15.3434646764,
			"-0.004": 18.6233098454,
			"-0.003": 22.0044224677,
			"-0.002": 25.3971881686,
			"-0.001": 27.958834263,
			"0.0": 23.519728192,
			"0.001": 20.7592637895,
			"0.002": 16.1552571676,
			"0.003": 21.9528836185,
			"0.004": 16.1259090046,
			"0.005": 12.2383810477,
			"0.006": 5.47266026662,
			"0.007": 3.98142416892,
			"0.008": 2.27138720854,
			"0.009": 3.03001246171,
			"0.01": 3.68895176184,
			"0.011": 4.87036122431,
			"0.012": 9.72492718968,
			"0.013": 4.28113819926,
			"0.014": 0.0197859017515,
			"0.015": 0.0,
			"0.016": 0.0,
			"0.017": 0.0,
			"0.018": 0.0,
			"0.019": 0.0,
			"0.02": 0.0,
			"0.021": 0.0,
			"0.022": 0.0,
			"0.023": 0.0,
			"0.024": 0.0,
			"0.025": 0.0
		}
	}
}
