{
	 "smiles": "ClC1=CC=C(C=C1)C1=NOC(=C1)C(=O)CBr", 
	 "Tm": 431.15, 
	 "num_atms": 23, 
	 "gaussian": { 
		 "optdone": 1, 
		 "sigma_profile": "yes", 
		 "theory": "DFT", 
		 "functional": "B3LYP", 
		 "basiset": "6-31G**", 
		 "properties": { 
			 "R2extent": 9628.3587, 
			 "electric_dipole_moment_norm": 1.22731859352, 
			 "electric_quadrupole_moment_norm": 10.3524333738, 
			 "total_energy": -3660.12872885, 
			 "HOMO_LUMO_gap": 0.15228, 
			 "cosmo_polarized_energy": -11.27, 
			 "cosmo_cavitation_energy": 33.35, 
			 "cosmo_dispersion_energy": -24.56, 
			 "cosmo_repulsion_energy": 1.91, 
			 "cosmo_total_nonelectrostatic_energy": 10.7, 
			 "SMD_solvation_energy": 4.66 
		},
		"coords": [
			{
				"x": 2.3162672479,
				"y": 4.2274640436,
				"z": -3.662467704,
				"element": "Cl" 
			},
			{
				"x": 1.5620605363,
				"y": 2.8605690152,
				"z": -2.8622222904,
				"element": "C" 
			},
			{
				"x": 1.8523237008,
				"y": 1.5670880854,
				"z": -3.2934867321,
				"element": "C" 
			},
			{
				"x": 1.2494802692,
				"y": 0.4865519258,
				"z": -2.6529652197,
				"element": "C" 
			},
			{
				"x": 0.3606224478,
				"y": 0.6851505164,
				"z": -1.5871409186,
				"element": "C" 
			},
			{
				"x": 0.0848222665,
				"y": 1.998411568,
				"z": -1.1711024914,
				"element": "C" 
			},
			{
				"x": 0.6803575044,
				"y": 3.0847326241,
				"z": -1.8028316236,
				"element": "C" 
			},
			{
				"x": -0.2750553021,
				"y": -0.4587727757,
				"z": -0.9122536638,
				"element": "C" 
			},
			{
				"x": -1.1266945224,
				"y": -0.2611192117,
				"z": 0.0846482641,
				"element": "N" 
			},
			{
				"x": -1.5396211332,
				"y": -1.5133131595,
				"z": 0.5007640199,
				"element": "O" 
			},
			{
				"x": -0.9287741097,
				"y": -2.4542996946,
				"z": -0.2567573981,
				"element": "C" 
			},
			{
				"x": -0.1173210412,
				"y": -1.8530080755,
				"z": -1.1725490831,
				"element": "C" 
			},
			{
				"x": -1.231958207,
				"y": -3.8824386464,
				"z": -0.0182817214,
				"element": "C" 
			},
			{
				"x": -0.7804856646,
				"y": -4.7369875581,
				"z": -0.7593349481,
				"element": "O" 
			},
			{
				"x": -2.1213823308,
				"y": -4.2333208157,
				"z": 1.1602928785,
				"element": "C" 
			},
			{
				"x": -1.0420016797,
				"y": -4.1617625807,
				"z": 2.8151611057,
				"element": "Br" 
			},
			{
				"x": 2.5390591657,
				"y": 1.4085868411,
				"z": -4.1172274412,
				"element": "H" 
			},
			{
				"x": 1.4799276473,
				"y": -0.5175417634,
				"z": -2.9943040612,
				"element": "H" 
			},
			{
				"x": -0.6008223819,
				"y": 2.1607692607,
				"z": -0.3467514582,
				"element": "H" 
			},
			{
				"x": 0.4660657587,
				"y": 4.0972124368,
				"z": -1.4795704635,
				"element": "H" 
			},
			{
				"x": 0.4925474816,
				"y": -2.3491589359,
				"z": -1.9100745658,
				"element": "H" 
			},
			{
				"x": -2.4748048947,
				"y": -5.2563373303,
				"z": 1.0573492757,
				"element": "H" 
			},
			{
				"x": -2.9379127586,
				"y": -3.5270757697,
				"z": 1.3031062402,
				"element": "H" 
			}
		],
		 "valence_orbital": [ 
			{
				"type": "occ",
				"energy": -0.29237,
				"method": "rhf"
			},
			{
				"type": "occ",
				"energy": -0.28716,
				"method": "rhf"
			},
			{
				"type": "occ",
				"energy": -0.27779,
				"method": "rhf"
			},
			{
				"type": "occ",
				"energy": -0.27684,
				"method": "rhf"
			},
			{
				"type": "occ",
				"energy": -0.2496,
				"method": "rhf"
			},
			{
				"type": "unocc",
				"energy": -0.09732,
				"method": "rhf"
			},
			{
				"type": "unocc",
				"energy": -0.05552,
				"method": "rhf"
			},
			{
				"type": "unocc",
				"energy": -0.02752,
				"method": "rhf"
			},
			{
				"type": "unocc",
				"energy": -0.01659,
				"method": "rhf"
			},
			{
				"type": "unocc",
				"energy": 0.02039,
				"method": "rhf"
			}
		],
		"cosmo_sigma_profile": { 
			"-0.025": 0.0,
			"-0.024": 0.0,
			"-0.023": 0.0,
			"-0.022": 0.0,
			"-0.021": 0.0,
			"-0.02": 0.0,
			"-0.019": 0.0,
			"-0.018": 0.0,
			"-0.017": 0.0,
			"-0.016": 0.0,
			"-0.015": 0.0,
			"-0.014": 0.0,
			"-0.013": 0.0,
			"-0.012": 0.00395329048779,
			"-0.011": 1.13007358751,
			"-0.01": 2.97784180268,
			"-0.009": 6.90432600141,
			"-0.008": 7.86041967387,
			"-0.007": 11.6150851354,
			"-0.006": 12.384832549,
			"-0.005": 10.4607054929,
			"-0.004": 11.2084339705,
			"-0.003": 12.3552707662,
			"-0.002": 18.0953772091,
			"-0.001": 21.3085971668,
			"0.0": 21.4572476536,
			"0.001": 26.1898738381,
			"0.002": 28.1281846331,
			"0.003": 19.9746529341,
			"0.004": 24.3234721978,
			"0.005": 14.1416261853,
			"0.006": 5.33243048515,
			"0.007": 3.0615443218,
			"0.008": 3.27800492757,
			"0.009": 5.04476449234,
			"0.01": 5.08077434595,
			"0.011": 2.04771943278,
			"0.012": 0.197160948581,
			"0.013": 0.0,
			"0.014": 0.0,
			"0.015": 0.0,
			"0.016": 0.0,
			"0.017": 0.0,
			"0.018": 0.0,
			"0.019": 0.0,
			"0.02": 0.0,
			"0.021": 0.0,
			"0.022": 0.0,
			"0.023": 0.0,
			"0.024": 0.0,
			"0.025": 0.0
		}
	}
}
