{
	 "smiles": "CC(Cl)C(=O)NC1=CC=C(C=C1)N1CCCC1=O", 
	 "Tm": 468.15, 
	 "num_atms": 33, 
	 "gaussian": { 
		 "optdone": 1, 
		 "sigma_profile": "yes", 
		 "theory": "DFT", 
		 "functional": "B3LYP", 
		 "basiset": "6-31G**", 
		 "properties": { 
			 "R2extent": 7961.5135, 
			 "electric_dipole_moment_norm": 5.30941064997, 
			 "electric_quadrupole_moment_norm": 25.3972000388, 
			 "total_energy": -1224.60727668, 
			 "HOMO_LUMO_gap": 0.1854, 
			 "cosmo_polarized_energy": -17.92, 
			 "cosmo_cavitation_energy": 37.47, 
			 "cosmo_dispersion_energy": -27.18, 
			 "cosmo_repulsion_energy": 2.11, 
			 "cosmo_total_nonelectrostatic_energy": 12.4, 
			 "SMD_solvation_energy": 6.55 
		},
		"coords": [
			{
				"x": -1.8028489252,
				"y": -4.4595769854,
				"z": -0.6352112869,
				"element": "C" 
			},
			{
				"x": -2.2347828275,
				"y": -3.0286630517,
				"z": -0.3614262486,
				"element": "C" 
			},
			{
				"x": -3.4398892541,
				"y": -2.9997701016,
				"z": 1.0259271913,
				"element": "Cl" 
			},
			{
				"x": -2.9171246198,
				"y": -2.416650059,
				"z": -1.5927747353,
				"element": "C" 
			},
			{
				"x": -3.6409481815,
				"y": -3.0877577672,
				"z": -2.3128515265,
				"element": "O" 
			},
			{
				"x": -2.6490758563,
				"y": -1.1010225896,
				"z": -1.8966978109,
				"element": "N" 
			},
			{
				"x": -1.8396125731,
				"y": -0.1251947935,
				"z": -1.2541327211,
				"element": "C" 
			},
			{
				"x": -0.9428365051,
				"y": 0.6255707003,
				"z": -2.0269495883,
				"element": "C" 
			},
			{
				"x": -0.1619170496,
				"y": 1.6265240962,
				"z": -1.4625447242,
				"element": "C" 
			},
			{
				"x": -0.2447602033,
				"y": 1.8924970237,
				"z": -0.0816652895,
				"element": "C" 
			},
			{
				"x": -1.1438965195,
				"y": 1.1388427573,
				"z": 0.691203649,
				"element": "C" 
			},
			{
				"x": -1.9454542141,
				"y": 0.1573207629,
				"z": 0.1109386558,
				"element": "C" 
			},
			{
				"x": 0.5320126511,
				"y": 2.9015813197,
				"z": 0.5310341209,
				"element": "N" 
			},
			{
				"x": 0.3026077415,
				"y": 3.3042158405,
				"z": 1.9249593044,
				"element": "C" 
			},
			{
				"x": 1.1342437434,
				"y": 4.5895230448,
				"z": 2.082773579,
				"element": "C" 
			},
			{
				"x": 2.2601132633,
				"y": 4.4156842686,
				"z": 1.0592107827,
				"element": "C" 
			},
			{
				"x": 1.6608938465,
				"y": 3.5097322765,
				"z": -0.0128313851,
				"element": "C" 
			},
			{
				"x": 2.1094303782,
				"y": 3.3387530847,
				"z": -1.1335701222,
				"element": "O" 
			},
			{
				"x": -2.6511449406,
				"y": -5.0445829175,
				"z": -0.9928656248,
				"element": "H" 
			},
			{
				"x": -1.0315093503,
				"y": -4.4606496333,
				"z": -1.4136751717,
				"element": "H" 
			},
			{
				"x": -1.3891200124,
				"y": -4.9155155474,
				"z": 0.2667460828,
				"element": "H" 
			},
			{
				"x": -1.4032484386,
				"y": -2.4139246393,
				"z": -0.0176473555,
				"element": "H" 
			},
			{
				"x": -3.0571094682,
				"y": -0.8392820372,
				"z": -2.7868170769,
				"element": "H" 
			},
			{
				"x": -0.8529346735,
				"y": 0.4182164718,
				"z": -3.0898619376,
				"element": "H" 
			},
			{
				"x": 0.5303044343,
				"y": 2.1898604631,
				"z": -2.0708558036,
				"element": "H" 
			},
			{
				"x": -1.2408095085,
				"y": 1.3158062362,
				"z": 1.7555514109,
				"element": "H" 
			},
			{
				"x": -2.6605571946,
				"y": -0.3802693738,
				"z": 0.7235970386,
				"element": "H" 
			},
			{
				"x": 0.6377949579,
				"y": 2.5154528067,
				"z": 2.613275691,
				"element": "H" 
			},
			{
				"x": -0.7634060417,
				"y": 3.4733712761,
				"z": 2.1024441023,
				"element": "H" 
			},
			{
				"x": 1.4863771682,
				"y": 4.7229938217,
				"z": 3.1081208633,
				"element": "H" 
			},
			{
				"x": 0.5208620211,
				"y": 5.4580746155,
				"z": 1.8235298756,
				"element": "H" 
			},
			{
				"x": 3.130036873,
				"y": 3.9001593647,
				"z": 1.4854905363,
				"element": "H" 
			},
			{
				"x": 2.6189092791,
				"y": 5.3434792653,
				"z": 0.6093755247,
				"element": "H" 
			}
		],
		 "valence_orbital": [ 
			{
				"type": "occ",
				"energy": -0.27229,
				"method": "rhf"
			},
			{
				"type": "occ",
				"energy": -0.26475,
				"method": "rhf"
			},
			{
				"type": "occ",
				"energy": -0.26046,
				"method": "rhf"
			},
			{
				"type": "occ",
				"energy": -0.25614,
				"method": "rhf"
			},
			{
				"type": "occ",
				"energy": -0.21739,
				"method": "rhf"
			},
			{
				"type": "unocc",
				"energy": -0.03199,
				"method": "rhf"
			},
			{
				"type": "unocc",
				"energy": -0.01555,
				"method": "rhf"
			},
			{
				"type": "unocc",
				"energy": -0.01206,
				"method": "rhf"
			},
			{
				"type": "unocc",
				"energy": 0.03036,
				"method": "rhf"
			},
			{
				"type": "unocc",
				"energy": 0.06267,
				"method": "rhf"
			}
		],
		"cosmo_sigma_profile": { 
			"-0.025": 0.0,
			"-0.024": 0.0,
			"-0.023": 0.0,
			"-0.022": 0.0,
			"-0.021": 0.0,
			"-0.02": 0.0,
			"-0.019": 0.0,
			"-0.018": 0.0,
			"-0.017": 0.0,
			"-0.016": 0.0,
			"-0.015": 0.169400666659,
			"-0.014": 1.34110495241,
			"-0.013": 0.577656060548,
			"-0.012": 1.03073745195,
			"-0.011": 1.23147225754,
			"-0.01": 1.07999078517,
			"-0.009": 1.25990926306,
			"-0.008": 1.44688038621,
			"-0.007": 5.98773075638,
			"-0.006": 15.0489631847,
			"-0.005": 26.3913007149,
			"-0.004": 33.8022473366,
			"-0.003": 25.8962130412,
			"-0.002": 23.2877726778,
			"-0.001": 24.7969981358,
			"0.0": 16.3502878681,
			"0.001": 15.4973341811,
			"0.002": 16.1565238436,
			"0.003": 16.3788476503,
			"0.004": 17.628838765,
			"0.005": 12.3650218109,
			"0.006": 8.08319297026,
			"0.007": 3.81792014209,
			"0.008": 2.99837873188,
			"0.009": 2.85482913252,
			"0.01": 3.37608652109,
			"0.011": 3.45968709913,
			"0.012": 6.70577540727,
			"0.013": 7.78428575677,
			"0.014": 1.92048333157,
			"0.015": 0.0406928574763,
			"0.016": 0.0,
			"0.017": 0.0,
			"0.018": 0.0,
			"0.019": 0.0,
			"0.02": 0.0,
			"0.021": 0.0,
			"0.022": 0.0,
			"0.023": 0.0,
			"0.024": 0.0,
			"0.025": 0.0
		}
	}
}
