{
	 "smiles": "CCCCCCCCCCCCCCCC=C", 
	 "Tm": 284.35, 
	 "num_atms": 51, 
	 "gaussian": { 
		 "optdone": 1, 
		 "sigma_profile": "yes", 
		 "theory": "DFT", 
		 "functional": "B3LYP", 
		 "basiset": "6-31G**", 
		 "properties": { 
			 "R2extent": 10482.7764, 
			 "electric_dipole_moment_norm": 0.370718356708, 
			 "electric_quadrupole_moment_norm": 2.5021313135, 
			 "total_energy": -668.322885538, 
			 "HOMO_LUMO_gap": 0.27441, 
			 "cosmo_polarized_energy": -2.13, 
			 "cosmo_cavitation_energy": 49.51, 
			 "cosmo_dispersion_energy": -33.17, 
			 "cosmo_repulsion_energy": 2.7, 
			 "cosmo_total_nonelectrostatic_energy": 19.04, 
			 "SMD_solvation_energy": 7.03 
		},
		"coords": [
			{
				"x": 0.2141935195,
				"y": 4.9027025414,
				"z": 3.1673461172,
				"element": "C" 
			},
			{
				"x": -0.2488670952,
				"y": 4.9293064366,
				"z": 1.7056056627,
				"element": "C" 
			},
			{
				"x": 0.2790208733,
				"y": 3.7661212272,
				"z": 0.8489497592,
				"element": "C" 
			},
			{
				"x": 1.8007723223,
				"y": 3.7741160684,
				"z": 0.6369779647,
				"element": "C" 
			},
			{
				"x": 2.3145680259,
				"y": 2.7000777587,
				"z": -0.3367093144,
				"element": "C" 
			},
			{
				"x": 2.1479592806,
				"y": 1.2542321828,
				"z": 0.1522782637,
				"element": "C" 
			},
			{
				"x": 2.7413073545,
				"y": 0.2167748855,
				"z": -0.8103912426,
				"element": "C" 
			},
			{
				"x": 2.5725268866,
				"y": -1.2290228035,
				"z": -0.3229581861,
				"element": "C" 
			},
			{
				"x": 3.2385018407,
				"y": -2.291821952,
				"z": -1.2146590408,
				"element": "C" 
			},
			{
				"x": 2.7002926532,
				"y": -2.3951647066,
				"z": -2.6546349948,
				"element": "C" 
			},
			{
				"x": 1.2072069542,
				"y": -2.7441788737,
				"z": -2.789652989,
				"element": "C" 
			},
			{
				"x": 0.8255726027,
				"y": -4.1223452553,
				"z": -2.2283072405,
				"element": "C" 
			},
			{
				"x": -0.6200539058,
				"y": -4.5585067198,
				"z": -2.5289730361,
				"element": "C" 
			},
			{
				"x": -1.7275268432,
				"y": -3.6866034079,
				"z": -1.9050276418,
				"element": "C" 
			},
			{
				"x": -1.7817101204,
				"y": -3.6862637237,
				"z": -0.3686547266,
				"element": "C" 
			},
			{
				"x": -2.2500806572,
				"y": -4.9546394471,
				"z": 0.3043034429,
				"element": "C" 
			},
			{
				"x": -2.8203788057,
				"y": -6.0158025467,
				"z": -0.268544762,
				"element": "C" 
			},
			{
				"x": 1.3012261436,
				"y": 4.9997918489,
				"z": 3.2539104212,
				"element": "H" 
			},
			{
				"x": -0.2341173617,
				"y": 5.7229410565,
				"z": 3.7378190863,
				"element": "H" 
			},
			{
				"x": -0.0737190115,
				"y": 3.9636542125,
				"z": 3.6547420115,
				"element": "H" 
			},
			{
				"x": 0.0508524213,
				"y": 5.8809455503,
				"z": 1.2450423596,
				"element": "H" 
			},
			{
				"x": -1.3461148396,
				"y": 4.9137352983,
				"z": 1.6805935022,
				"element": "H" 
			},
			{
				"x": -0.030522715,
				"y": 2.8179595511,
				"z": 1.308850222,
				"element": "H" 
			},
			{
				"x": -0.2112268224,
				"y": 3.8013022911,
				"z": -0.1341004235,
				"element": "H" 
			},
			{
				"x": 2.3139927494,
				"y": 3.6552126688,
				"z": 1.6006029622,
				"element": "H" 
			},
			{
				"x": 2.0948440484,
				"y": 4.7625384551,
				"z": 0.2570002624,
				"element": "H" 
			},
			{
				"x": 1.8056681237,
				"y": 2.8159916458,
				"z": -1.304687973,
				"element": "H" 
			},
			{
				"x": 3.3799518009,
				"y": 2.8833681338,
				"z": -0.5325825098,
				"element": "H" 
			},
			{
				"x": 2.6248772881,
				"y": 1.1493207726,
				"z": 1.1377882895,
				"element": "H" 
			},
			{
				"x": 1.0838227527,
				"y": 1.0308623636,
				"z": 0.3056777891,
				"element": "H" 
			},
			{
				"x": 2.2730550488,
				"y": 0.3371359153,
				"z": -1.7964807308,
				"element": "H" 
			},
			{
				"x": 3.8110856427,
				"y": 0.4265756868,
				"z": -0.956144118,
				"element": "H" 
			},
			{
				"x": 2.9967297209,
				"y": -1.3119412199,
				"z": 0.6870744633,
				"element": "H" 
			},
			{
				"x": 1.5018142555,
				"y": -1.4499507739,
				"z": -0.2128170538,
				"element": "H" 
			},
			{
				"x": 3.1489654303,
				"y": -3.2686348678,
				"z": -0.7227886079,
				"element": "H" 
			},
			{
				"x": 4.3159307786,
				"y": -2.0826807335,
				"z": -1.2652291353,
				"element": "H" 
			},
			{
				"x": 3.2884237497,
				"y": -3.1555740479,
				"z": -3.1867009338,
				"element": "H" 
			},
			{
				"x": 2.8895473686,
				"y": -1.4512727765,
				"z": -3.1813539945,
				"element": "H" 
			},
			{
				"x": 0.9410299028,
				"y": -2.7134357581,
				"z": -3.8554915456,
				"element": "H" 
			},
			{
				"x": 0.6032239885,
				"y": -1.9631410809,
				"z": -2.3106329573,
				"element": "H" 
			},
			{
				"x": 1.0015944873,
				"y": -4.1487472644,
				"z": -1.1456187592,
				"element": "H" 
			},
			{
				"x": 1.5043500188,
				"y": -4.8739320444,
				"z": -2.654940509,
				"element": "H" 
			},
			{
				"x": -0.7626248614,
				"y": -4.5670625774,
				"z": -3.6184335194,
				"element": "H" 
			},
			{
				"x": -0.7472301753,
				"y": -5.5947203874,
				"z": -2.1959321004,
				"element": "H" 
			},
			{
				"x": -2.6993261922,
				"y": -4.011322895,
				"z": -2.2978096072,
				"element": "H" 
			},
			{
				"x": -1.6075226131,
				"y": -2.6505326481,
				"z": -2.2437143368,
				"element": "H" 
			},
			{
				"x": -0.7963609016,
				"y": -3.4210838428,
				"z": 0.0396968638,
				"element": "H" 
			},
			{
				"x": -2.4435410843,
				"y": -2.8716031704,
				"z": -0.0368618375,
				"element": "H" 
			},
			{
				"x": -2.1172716454,
				"y": -4.9663524566,
				"z": 1.3872873107,
				"element": "H" 
			},
			{
				"x": -3.1436666217,
				"y": -6.8671586462,
				"z": 0.3231735902,
				"element": "H" 
			},
			{
				"x": -2.9912457612,
				"y": -6.0815699238,
				"z": -1.3390865167,
				"element": "H" 
			}
		],
		 "valence_orbital": [ 
			{
				"type": "occ",
				"energy": -0.30377,
				"method": "rhf"
			},
			{
				"type": "occ",
				"energy": -0.30242,
				"method": "rhf"
			},
			{
				"type": "occ",
				"energy": -0.30024,
				"method": "rhf"
			},
			{
				"type": "occ",
				"energy": -0.29273,
				"method": "rhf"
			},
			{
				"type": "occ",
				"energy": -0.24786,
				"method": "rhf"
			},
			{
				"type": "unocc",
				"energy": 0.02655,
				"method": "rhf"
			},
			{
				"type": "unocc",
				"energy": 0.06897,
				"method": "rhf"
			},
			{
				"type": "unocc",
				"energy": 0.09116,
				"method": "rhf"
			},
			{
				"type": "unocc",
				"energy": 0.09742,
				"method": "rhf"
			},
			{
				"type": "unocc",
				"energy": 0.10234,
				"method": "rhf"
			}
		],
		"cosmo_sigma_profile": { 
			"-0.025": 0.0,
			"-0.024": 0.0,
			"-0.023": 0.0,
			"-0.022": 0.0,
			"-0.021": 0.0,
			"-0.02": 0.0,
			"-0.019": 0.0,
			"-0.018": 0.0,
			"-0.017": 0.0,
			"-0.016": 0.0,
			"-0.015": 0.0,
			"-0.014": 0.0,
			"-0.013": 0.0,
			"-0.012": 0.0,
			"-0.011": 0.0,
			"-0.01": 0.0,
			"-0.009": 0.0,
			"-0.008": 0.0,
			"-0.007": 0.0,
			"-0.006": 0.0,
			"-0.005": 0.669045382678,
			"-0.004": 5.1379763036,
			"-0.003": 10.8159359109,
			"-0.002": 46.2919195694,
			"-0.001": 89.0954418389,
			"0.0": 92.4281589062,
			"0.001": 82.2355564845,
			"0.002": 34.4799681467,
			"0.003": 4.62410814878,
			"0.004": 4.13569779119,
			"0.005": 3.13370847072,
			"0.006": 2.51879237709,
			"0.007": 2.55683146074,
			"0.008": 0.936591329534,
			"0.009": 0.0,
			"0.01": 0.0,
			"0.011": 0.0,
			"0.012": 0.0,
			"0.013": 0.0,
			"0.014": 0.0,
			"0.015": 0.0,
			"0.016": 0.0,
			"0.017": 0.0,
			"0.018": 0.0,
			"0.019": 0.0,
			"0.02": 0.0,
			"0.021": 0.0,
			"0.022": 0.0,
			"0.023": 0.0,
			"0.024": 0.0,
			"0.025": 0.0
		}
	}
}
