{
	 "smiles": "CC(C)(C)C1CCC(CC1)C(O)=O", 
	 "Tm": 445.15, 
	 "num_atms": 33, 
	 "gaussian": { 
		 "optdone": 1, 
		 "sigma_profile": "yes", 
		 "theory": "DFT", 
		 "functional": "B3LYP", 
		 "basiset": "6-31G**", 
		 "properties": { 
			 "R2extent": 3492.3305, 
			 "electric_dipole_moment_norm": 1.35133545058, 
			 "electric_quadrupole_moment_norm": 5.58251216837, 
			 "total_energy": -581.708544273, 
			 "HOMO_LUMO_gap": 0.2795, 
			 "cosmo_polarized_energy": -7.76, 
			 "cosmo_cavitation_energy": 31.6, 
			 "cosmo_dispersion_energy": -22.34, 
			 "cosmo_repulsion_energy": 1.74, 
			 "cosmo_total_nonelectrostatic_energy": 11.0, 
			 "SMD_solvation_energy": 5.9 
		},
		"coords": [
			{
				"x": 0.5942029259,
				"y": 2.2871188007,
				"z": -1.7130045228,
				"element": "C" 
			},
			{
				"x": 1.1204448566,
				"y": 0.8838504095,
				"z": -2.0846828592,
				"element": "C" 
			},
			{
				"x": 2.5172269385,
				"y": 1.0636131883,
				"z": -2.7177376721,
				"element": "C" 
			},
			{
				"x": 0.1740359382,
				"y": 0.2605054109,
				"z": -3.1310936415,
				"element": "C" 
			},
			{
				"x": 1.2445105048,
				"y": 0.0047135752,
				"z": -0.7926803932,
				"element": "C" 
			},
			{
				"x": 1.6901574576,
				"y": -1.4685649786,
				"z": -1.0541980654,
				"element": "C" 
			},
			{
				"x": 0.5408972118,
				"y": -2.4810503526,
				"z": -0.942568447,
				"element": "C" 
			},
			{
				"x": -0.076487022,
				"y": -2.5014392002,
				"z": 0.4726766972,
				"element": "C" 
			},
			{
				"x": 0.0261652567,
				"y": -1.0968962018,
				"z": 1.1466877226,
				"element": "C" 
			},
			{
				"x": -0.0221272937,
				"y": 0.0229389273,
				"z": 0.1006293446,
				"element": "C" 
			},
			{
				"x": -1.535364197,
				"y": -2.9175725123,
				"z": 0.4240395987,
				"element": "C" 
			},
			{
				"x": -1.933591512,
				"y": -3.4892894381,
				"z": 1.5890437039,
				"element": "O" 
			},
			{
				"x": -2.3033476191,
				"y": -2.742986961,
				"z": -0.4992006717,
				"element": "O" 
			},
			{
				"x": -0.4387192019,
				"y": 2.2587916773,
				"z": -1.3536401612,
				"element": "H" 
			},
			{
				"x": 1.2107120418,
				"y": 2.7498552243,
				"z": -0.9329895185,
				"element": "H" 
			},
			{
				"x": 0.61792366,
				"y": 2.9467752297,
				"z": -2.587584703,
				"element": "H" 
			},
			{
				"x": 2.4560713281,
				"y": 1.6981052602,
				"z": -3.6090247264,
				"element": "H" 
			},
			{
				"x": 2.9610986259,
				"y": 0.1120714347,
				"z": -3.0266574768,
				"element": "H" 
			},
			{
				"x": 3.2095187649,
				"y": 1.5424256818,
				"z": -2.0153624976,
				"element": "H" 
			},
			{
				"x": 0.0911999977,
				"y": 0.917453919,
				"z": -4.0043991018,
				"element": "H" 
			},
			{
				"x": 0.5395317664,
				"y": -0.7079703191,
				"z": -3.4871761004,
				"element": "H" 
			},
			{
				"x": -0.8365731755,
				"y": 0.1136538318,
				"z": -2.7366207884,
				"element": "H" 
			},
			{
				"x": 2.0418228282,
				"y": 0.4772501477,
				"z": -0.2003505902,
				"element": "H" 
			},
			{
				"x": 2.4725908847,
				"y": -1.7414669256,
				"z": -0.3345973798,
				"element": "H" 
			},
			{
				"x": 2.1559673547,
				"y": -1.5649063908,
				"z": -2.0393365094,
				"element": "H" 
			},
			{
				"x": 0.8949434212,
				"y": -3.4844549659,
				"z": -1.2050151886,
				"element": "H" 
			},
			{
				"x": -0.2478054511,
				"y": -2.2352920595,
				"z": -1.6591609934,
				"element": "H" 
			},
			{
				"x": 0.4407012213,
				"y": -3.224539756,
				"z": 1.1118053778,
				"element": "H" 
			},
			{
				"x": 0.9729026753,
				"y": -1.0412143329,
				"z": 1.6975884222,
				"element": "H" 
			},
			{
				"x": -0.7669908658,
				"y": -0.9770719324,
				"z": 1.8922438823,
				"element": "H" 
			},
			{
				"x": -0.9303740726,
				"y": -0.0977690483,
				"z": -0.5026119802,
				"element": "H" 
			},
			{
				"x": -0.111217866,
				"y": 0.9906604937,
				"z": 0.6036367762,
				"element": "H" 
			},
			{
				"x": -2.8823273834,
				"y": -3.674797837,
				"z": 1.4854424628,
				"element": "H" 
			}
		],
		 "valence_orbital": [ 
			{
				"type": "occ",
				"energy": -0.31525,
				"method": "rhf"
			},
			{
				"type": "occ",
				"energy": -0.29731,
				"method": "rhf"
			},
			{
				"type": "occ",
				"energy": -0.29154,
				"method": "rhf"
			},
			{
				"type": "occ",
				"energy": -0.28791,
				"method": "rhf"
			},
			{
				"type": "occ",
				"energy": -0.26838,
				"method": "rhf"
			},
			{
				"type": "unocc",
				"energy": 0.01112,
				"method": "rhf"
			},
			{
				"type": "unocc",
				"energy": 0.07019,
				"method": "rhf"
			},
			{
				"type": "unocc",
				"energy": 0.08089,
				"method": "rhf"
			},
			{
				"type": "unocc",
				"energy": 0.09616,
				"method": "rhf"
			},
			{
				"type": "unocc",
				"energy": 0.11274,
				"method": "rhf"
			}
		],
		"cosmo_sigma_profile": { 
			"-0.025": 0.0,
			"-0.024": 0.0,
			"-0.023": 0.0,
			"-0.022": 0.0,
			"-0.021": 0.0,
			"-0.02": 0.0,
			"-0.019": 0.0,
			"-0.018": 0.419103409653,
			"-0.017": 0.757468223554,
			"-0.016": 0.868584878111,
			"-0.015": 1.08896541705,
			"-0.014": 0.627952544076,
			"-0.013": 0.63888708893,
			"-0.012": 0.440337315916,
			"-0.011": 0.857672630094,
			"-0.01": 0.931375826811,
			"-0.009": 0.597098059411,
			"-0.008": 0.211533828895,
			"-0.007": 0.721976257782,
			"-0.006": 1.61692857162,
			"-0.005": 1.23885321916,
			"-0.004": 4.42846142108,
			"-0.003": 19.2750830835,
			"-0.002": 38.8893257216,
			"-0.001": 48.3495497416,
			"0.0": 36.170845312,
			"0.001": 29.2139396539,
			"0.002": 22.1294893134,
			"0.003": 5.77036943685,
			"0.004": 2.15873584356,
			"0.005": 2.83028414854,
			"0.006": 2.72922684111,
			"0.007": 2.82621483309,
			"0.008": 2.6091366379,
			"0.009": 3.20170421742,
			"0.01": 2.28322409034,
			"0.011": 2.79940918088,
			"0.012": 4.86688100142,
			"0.013": 0.73595841177,
			"0.014": 0.0,
			"0.015": 0.0,
			"0.016": 0.0,
			"0.017": 0.0,
			"0.018": 0.0,
			"0.019": 0.0,
			"0.02": 0.0,
			"0.021": 0.0,
			"0.022": 0.0,
			"0.023": 0.0,
			"0.024": 0.0,
			"0.025": 0.0
		}
	}
}
