{
	 "smiles": "O=C(NC(=C(/NC(=O)C1=CC=CC=C1)C1=CC=CC=C1)C1=CC=CC=C1)C1=CC=CC=C1", 
	 "Tm": 373.15, 
	 "num_atms": 54, 
	 "gaussian": { 
		 "optdone": 1, 
		 "sigma_profile": "yes", 
		 "theory": "DFT", 
		 "functional": "B3LYP", 
		 "basiset": "6-31G**", 
		 "properties": { 
			 "R2extent": 11808.2477, 
			 "electric_dipole_moment_norm": 5.61952040124, 
			 "electric_quadrupole_moment_norm": 19.4270392554, 
			 "total_energy": -1340.2046068, 
			 "HOMO_LUMO_gap": 0.14115, 
			 "cosmo_polarized_energy": -21.59, 
			 "cosmo_cavitation_energy": 57.53, 
			 "cosmo_dispersion_energy": -35.28, 
			 "cosmo_repulsion_energy": 2.66, 
			 "cosmo_total_nonelectrostatic_energy": 24.91, 
			 "SMD_solvation_energy": 10.82 
		},
		"coords": [
			{
				"x": 1.1218367143,
				"y": 3.7312977643,
				"z": -0.8629545307,
				"element": "O" 
			},
			{
				"x": 0.2208886422,
				"y": 2.9586088957,
				"z": -0.5608384422,
				"element": "C" 
			},
			{
				"x": 0.5086172388,
				"y": 1.8415805985,
				"z": 0.2154494167,
				"element": "N" 
			},
			{
				"x": -0.1982832912,
				"y": 0.6216904416,
				"z": 0.3577537732,
				"element": "C" 
			},
			{
				"x": -0.7554763211,
				"y": -0.0132455848,
				"z": -0.7223553025,
				"element": "C" 
			},
			{
				"x": -0.4294402476,
				"y": 0.3613752163,
				"z": -2.0496087919,
				"element": "N" 
			},
			{
				"x": 0.7989748939,
				"y": 0.6921788025,
				"z": -2.6104157012,
				"element": "C" 
			},
			{
				"x": 0.8334806902,
				"y": 1.3597677238,
				"z": -3.6366394562,
				"element": "O" 
			},
			{
				"x": 2.0514810873,
				"y": 0.1724364808,
				"z": -1.9730554191,
				"element": "C" 
			},
			{
				"x": 3.1886238554,
				"y": 0.9917110077,
				"z": -2.0216007632,
				"element": "C" 
			},
			{
				"x": 4.4002869681,
				"y": 0.5385053608,
				"z": -1.5032739491,
				"element": "C" 
			},
			{
				"x": 4.4932438285,
				"y": -0.7449178484,
				"z": -0.9583319447,
				"element": "C" 
			},
			{
				"x": 3.3691079064,
				"y": -1.5730760468,
				"z": -0.9286349888,
				"element": "C" 
			},
			{
				"x": 2.1494652047,
				"y": -1.1152323009,
				"z": -1.4279174685,
				"element": "C" 
			},
			{
				"x": -1.811589067,
				"y": -1.0524146755,
				"z": -0.6441383298,
				"element": "C" 
			},
			{
				"x": -2.8296828044,
				"y": -0.9999550097,
				"z": 0.3260953077,
				"element": "C" 
			},
			{
				"x": -3.8341941957,
				"y": -1.9631936349,
				"z": 0.3577877667,
				"element": "C" 
			},
			{
				"x": -3.8548020662,
				"y": -2.99442605,
				"z": -0.5853594103,
				"element": "C" 
			},
			{
				"x": -2.8651004153,
				"y": -3.0464422308,
				"z": -1.5681168121,
				"element": "C" 
			},
			{
				"x": -1.8594971172,
				"y": -2.0813436204,
				"z": -1.6030842639,
				"element": "C" 
			},
			{
				"x": -0.1663535736,
				"y": 0.0782601557,
				"z": 1.7380085377,
				"element": "C" 
			},
			{
				"x": -0.0013432124,
				"y": -1.2970026472,
				"z": 1.9868450971,
				"element": "C" 
			},
			{
				"x": 0.0658227826,
				"y": -1.7823338363,
				"z": 3.2898616834,
				"element": "C" 
			},
			{
				"x": -0.016877612,
				"y": -0.9062257412,
				"z": 4.3756640677,
				"element": "C" 
			},
			{
				"x": -0.1570383042,
				"y": 0.4630819298,
				"z": 4.1445091802,
				"element": "C" 
			},
			{
				"x": -0.2221006887,
				"y": 0.9514595453,
				"z": 2.8402357802,
				"element": "C" 
			},
			{
				"x": -1.1994243969,
				"y": 3.2188387158,
				"z": -0.9608541235,
				"element": "C" 
			},
			{
				"x": -2.2855403099,
				"y": 2.9853684681,
				"z": -0.1060503849,
				"element": "C" 
			},
			{
				"x": -3.5770017733,
				"y": 3.3314108011,
				"z": -0.5045877463,
				"element": "C" 
			},
			{
				"x": -3.7933734177,
				"y": 3.8993491226,
				"z": -1.7619809192,
				"element": "C" 
			},
			{
				"x": -2.7129578841,
				"y": 4.1359640814,
				"z": -2.6160907996,
				"element": "C" 
			},
			{
				"x": -1.4191718413,
				"y": 3.8105247446,
				"z": -2.213199291,
				"element": "C" 
			},
			{
				"x": 1.4736224456,
				"y": 1.8484930852,
				"z": 0.5310146433,
				"element": "H" 
			},
			{
				"x": -1.1990969174,
				"y": 0.6568466371,
				"z": -2.6422001728,
				"element": "H" 
			},
			{
				"x": 3.0989103058,
				"y": 1.9816670157,
				"z": -2.455129195,
				"element": "H" 
			},
			{
				"x": 5.2736053888,
				"y": 1.1835373842,
				"z": -1.5304320262,
				"element": "H" 
			},
			{
				"x": 5.4402328905,
				"y": -1.1007943806,
				"z": -0.5624785325,
				"element": "H" 
			},
			{
				"x": 3.4423079883,
				"y": -2.5765438787,
				"z": -0.5194743106,
				"element": "H" 
			},
			{
				"x": 1.2811818005,
				"y": -1.7658464326,
				"z": -1.4124806973,
				"element": "H" 
			},
			{
				"x": -2.833469161,
				"y": -0.1929806112,
				"z": 1.0501840463,
				"element": "H" 
			},
			{
				"x": -4.6121406804,
				"y": -1.9016469061,
				"z": 1.1134394045,
				"element": "H" 
			},
			{
				"x": -4.6421827283,
				"y": -3.7420971169,
				"z": -0.5611971172,
				"element": "H" 
			},
			{
				"x": -2.8766879442,
				"y": -3.8371517908,
				"z": -2.3128635405,
				"element": "H" 
			},
			{
				"x": -1.1011642651,
				"y": -2.1180941788,
				"z": -2.3789095908,
				"element": "H" 
			},
			{
				"x": 0.0835632526,
				"y": -1.9823170811,
				"z": 1.1510058178,
				"element": "H" 
			},
			{
				"x": 0.1967284509,
				"y": -2.8473320976,
				"z": 3.4590828207,
				"element": "H" 
			},
			{
				"x": 0.0402801736,
				"y": -1.2869598611,
				"z": 5.3912157918,
				"element": "H" 
			},
			{
				"x": -0.2117829657,
				"y": 1.1547378814,
				"z": 4.9803389148,
				"element": "H" 
			},
			{
				"x": -0.3157310482,
				"y": 2.018834094,
				"z": 2.6662320002,
				"element": "H" 
			},
			{
				"x": -2.1208644441,
				"y": 2.5539702142,
				"z": 0.8758877237,
				"element": "H" 
			},
			{
				"x": -4.4131652465,
				"y": 3.1603854727,
				"z": 0.1671953787,
				"element": "H" 
			},
			{
				"x": -4.8006573759,
				"y": 4.1614304292,
				"z": -2.0731556882,
				"element": "H" 
			},
			{
				"x": -2.8779447308,
				"y": 4.5802740692,
				"z": -3.5932578202,
				"element": "H" 
			},
			{
				"x": -0.5675264619,
				"y": 3.9933874233,
				"z": -2.8591396226,
				"element": "H" 
			}
		],
		 "valence_orbital": [ 
			{
				"type": "occ",
				"energy": -0.25613,
				"method": "rhf"
			},
			{
				"type": "occ",
				"energy": -0.25237,
				"method": "rhf"
			},
			{
				"type": "occ",
				"energy": -0.24565,
				"method": "rhf"
			},
			{
				"type": "occ",
				"energy": -0.24214,
				"method": "rhf"
			},
			{
				"type": "occ",
				"energy": -0.20212,
				"method": "rhf"
			},
			{
				"type": "unocc",
				"energy": -0.06097,
				"method": "rhf"
			},
			{
				"type": "unocc",
				"energy": -0.03432,
				"method": "rhf"
			},
			{
				"type": "unocc",
				"energy": -0.02856,
				"method": "rhf"
			},
			{
				"type": "unocc",
				"energy": -0.01547,
				"method": "rhf"
			},
			{
				"type": "unocc",
				"energy": -0.0082,
				"method": "rhf"
			}
		],
		"cosmo_sigma_profile": { 
			"-0.025": 0.0,
			"-0.024": 0.0,
			"-0.023": 0.0,
			"-0.022": 0.0,
			"-0.021": 0.0,
			"-0.02": 0.0,
			"-0.019": 0.0,
			"-0.018": 0.0,
			"-0.017": 0.0,
			"-0.016": 0.0,
			"-0.015": 0.0,
			"-0.014": 0.0,
			"-0.013": 0.363028482214,
			"-0.012": 1.3317423769,
			"-0.011": 1.08456974074,
			"-0.01": 1.15674882419,
			"-0.009": 1.19369974859,
			"-0.008": 2.15471062101,
			"-0.007": 3.51612448546,
			"-0.006": 24.879184496,
			"-0.005": 45.5198010497,
			"-0.004": 50.4931203958,
			"-0.003": 38.2473455034,
			"-0.002": 31.2063764157,
			"-0.001": 29.3783427349,
			"0.0": 26.0427331311,
			"0.001": 28.7856076962,
			"0.002": 32.6801215461,
			"0.003": 34.018306131,
			"0.004": 40.666019512,
			"0.005": 29.1972632408,
			"0.006": 7.0250925188,
			"0.007": 3.58800210441,
			"0.008": 3.49612168418,
			"0.009": 3.1106964994,
			"0.01": 2.70386235235,
			"0.011": 3.34472776967,
			"0.012": 5.51858970389,
			"0.013": 7.71473770369,
			"0.014": 1.64223191173,
			"0.015": 0.0,
			"0.016": 0.0,
			"0.017": 0.0,
			"0.018": 0.0,
			"0.019": 0.0,
			"0.02": 0.0,
			"0.021": 0.0,
			"0.022": 0.0,
			"0.023": 0.0,
			"0.024": 0.0,
			"0.025": 0.0
		}
	}
}
