{
	 "smiles": "CC(=O)OCC(=O)[C@@]12OC(C)(C)O[C@@H]1CC1C3CC(C=O)=C4C=C(CCC4(C)[C@@]3(F)C(O)CC21C)OCCCl", 
	 "Tm": 454.15, 
	 "num_atms": 77, 
	 "gaussian": { 
		 "optdone": 1, 
		 "sigma_profile": "yes", 
		 "theory": "DFT", 
		 "functional": "B3LYP", 
		 "basiset": "6-31G**", 
		 "properties": { 
			 "R2extent": 29654.8173, 
			 "electric_dipole_moment_norm": 2.88999003805, 
			 "electric_quadrupole_moment_norm": 18.564588494, 
			 "total_energy": -2289.77696358, 
			 "HOMO_LUMO_gap": 0.15275, 
			 "cosmo_polarized_energy": -26.93, 
			 "cosmo_cavitation_energy": 70.88, 
			 "cosmo_dispersion_energy": -46.8, 
			 "cosmo_repulsion_energy": 3.4, 
			 "cosmo_total_nonelectrostatic_energy": 27.49, 
			 "SMD_solvation_energy": 13.19 
		},
		"coords": [
			{
				"x": -6.24781275,
				"y": -1.8092838418,
				"z": -2.6785310529,
				"element": "C" 
			},
			{
				"x": -5.416640862,
				"y": -3.0610252465,
				"z": -2.7786816756,
				"element": "C" 
			},
			{
				"x": -5.7867846727,
				"y": -4.1757770335,
				"z": -2.4867097597,
				"element": "O" 
			},
			{
				"x": -4.1697230525,
				"y": -2.7734678523,
				"z": -3.2477900518,
				"element": "O" 
			},
			{
				"x": -3.236893829,
				"y": -3.853753858,
				"z": -3.3155945076,
				"element": "C" 
			},
			{
				"x": -2.0000704587,
				"y": -3.6896006137,
				"z": -2.429113474,
				"element": "C" 
			},
			{
				"x": -0.972058893,
				"y": -4.2313085954,
				"z": -2.7985571441,
				"element": "O" 
			},
			{
				"x": -2.059269897,
				"y": -2.9410810224,
				"z": -1.0886501496,
				"element": "C" 
			},
			{
				"x": -3.3770565103,
				"y": -3.0388004619,
				"z": -0.5480989084,
				"element": "O" 
			},
			{
				"x": -3.375097995,
				"y": -3.9999166012,
				"z": 0.5245534054,
				"element": "C" 
			},
			{
				"x": -3.6871455596,
				"y": -5.4047528511,
				"z": -0.0006523867,
				"element": "C" 
			},
			{
				"x": -4.3662098862,
				"y": -3.5347198278,
				"z": 1.5792482214,
				"element": "C" 
			},
			{
				"x": -2.0637471295,
				"y": -3.9318276561,
				"z": 1.060273465,
				"element": "O" 
			},
			{
				"x": -1.1577696106,
				"y": -3.6319949999,
				"z": -0.0009572971,
				"element": "C" 
			},
			{
				"x": -0.1729627529,
				"y": -2.5740728953,
				"z": 0.4765168858,
				"element": "C" 
			},
			{
				"x": -0.908891732,
				"y": -1.2383901131,
				"z": 0.2583733234,
				"element": "C" 
			},
			{
				"x": -0.0004930358,
				"y": 0.0020865438,
				"z": 0.4698541314,
				"element": "C" 
			},
			{
				"x": -0.5945803534,
				"y": 1.0998203437,
				"z": 1.3577236814,
				"element": "C" 
			},
			{
				"x": 0.477111451,
				"y": 2.1033416992,
				"z": 1.7075540895,
				"element": "C" 
			},
			{
				"x": 0.2729560817,
				"y": 2.8221764739,
				"z": 2.9726093544,
				"element": "C" 
			},
			{
				"x": -0.6923948354,
				"y": 2.6388587953,
				"z": 3.7023890991,
				"element": "O" 
			},
			{
				"x": 1.6077711424,
				"y": 2.2397052594,
				"z": 0.9441062022,
				"element": "C" 
			},
			{
				"x": 2.7928961279,
				"y": 2.9453451013,
				"z": 1.4085925582,
				"element": "C" 
			},
			{
				"x": 4.0197285693,
				"y": 2.7587356033,
				"z": 0.8724645109,
				"element": "C" 
			},
			{
				"x": 4.2901299725,
				"y": 1.8044041918,
				"z": -0.25551364,
				"element": "C" 
			},
			{
				"x": 3.0882935995,
				"y": 0.888603129,
				"z": -0.5448932512,
				"element": "C" 
			},
			{
				"x": 1.7298707833,
				"y": 1.636568154,
				"z": -0.4721037319,
				"element": "C" 
			},
			{
				"x": 1.7389273856,
				"y": 2.821083659,
				"z": -1.4811583758,
				"element": "C" 
			},
			{
				"x": 0.5322043998,
				"y": 0.670949066,
				"z": -0.8062541603,
				"element": "C" 
			},
			{
				"x": -0.5064777126,
				"y": 1.4986724612,
				"z": -1.3353802048,
				"element": "F" 
			},
			{
				"x": 0.7677887371,
				"y": -0.3849066682,
				"z": -1.8924802554,
				"element": "C" 
			},
			{
				"x": 1.3561430032,
				"y": 0.1406014688,
				"z": -3.0793683862,
				"element": "O" 
			},
			{
				"x": -0.5270546322,
				"y": -1.1545263474,
				"z": -2.2690312554,
				"element": "C" 
			},
			{
				"x": -1.5798192566,
				"y": -1.4116311852,
				"z": -1.139171329,
				"element": "C" 
			},
			{
				"x": -2.7905164664,
				"y": -0.4801475415,
				"z": -1.3262541388,
				"element": "C" 
			},
			{
				"x": 5.0364957186,
				"y": 3.5237581221,
				"z": 1.3755135611,
				"element": "O" 
			},
			{
				"x": 6.3954833947,
				"y": 3.1652355542,
				"z": 1.1319378142,
				"element": "C" 
			},
			{
				"x": 7.2249441443,
				"y": 4.2311001626,
				"z": 1.8339536299,
				"element": "C" 
			},
			{
				"x": 8.9842372391,
				"y": 3.8938660004,
				"z": 1.5948334818,
				"element": "Cl" 
			},
			{
				"x": -7.296136828,
				"y": -2.0787158194,
				"z": -2.5527722251,
				"element": "H" 
			},
			{
				"x": -5.913811824,
				"y": -1.2345012699,
				"z": -1.8089462741,
				"element": "H" 
			},
			{
				"x": -6.1153426158,
				"y": -1.1815943282,
				"z": -3.5628040931,
				"element": "H" 
			},
			{
				"x": -3.7417171262,
				"y": -4.7860381803,
				"z": -3.0413533139,
				"element": "H" 
			},
			{
				"x": -2.882927973,
				"y": -3.9345751853,
				"z": -4.3461724392,
				"element": "H" 
			},
			{
				"x": -2.9151372269,
				"y": -5.7422304753,
				"z": -0.6991200765,
				"element": "H" 
			},
			{
				"x": -3.7142636131,
				"y": -6.1140930934,
				"z": 0.8312414891,
				"element": "H" 
			},
			{
				"x": -4.6500733887,
				"y": -5.4133590277,
				"z": -0.516458547,
				"element": "H" 
			},
			{
				"x": -5.3785108188,
				"y": -3.5287590221,
				"z": 1.167055997,
				"element": "H" 
			},
			{
				"x": -4.106338945,
				"y": -2.5275607798,
				"z": 1.9119604891,
				"element": "H" 
			},
			{
				"x": -4.3419795069,
				"y": -4.2095366238,
				"z": 2.4386737167,
				"element": "H" 
			},
			{
				"x": -0.6758975663,
				"y": -4.5392803597,
				"z": -0.3774863911,
				"element": "H" 
			},
			{
				"x": 0.107506994,
				"y": -2.7436006274,
				"z": 1.520301913,
				"element": "H" 
			},
			{
				"x": 0.7409510497,
				"y": -2.6256211854,
				"z": -0.1266719685,
				"element": "H" 
			},
			{
				"x": -1.7133468958,
				"y": -1.1950213138,
				"z": 1.0015723765,
				"element": "H" 
			},
			{
				"x": 0.893220662,
				"y": -0.3616843589,
				"z": 0.9960899029,
				"element": "H" 
			},
			{
				"x": -0.9736245519,
				"y": 0.6796652365,
				"z": 2.2944809364,
				"element": "H" 
			},
			{
				"x": -1.4542965346,
				"y": 1.5700869495,
				"z": 0.8665874924,
				"element": "H" 
			},
			{
				"x": 1.0257353032,
				"y": 3.5862221779,
				"z": 3.2477285504,
				"element": "H" 
			},
			{
				"x": 2.7328717614,
				"y": 3.6144327682,
				"z": 2.2587420554,
				"element": "H" 
			},
			{
				"x": 4.5584185753,
				"y": 2.3796159952,
				"z": -1.1533400551,
				"element": "H" 
			},
			{
				"x": 5.1638978198,
				"y": 1.1816381253,
				"z": -0.0310775308,
				"element": "H" 
			},
			{
				"x": 3.0890538088,
				"y": 0.0676044323,
				"z": 0.1824554635,
				"element": "H" 
			},
			{
				"x": 3.2138074849,
				"y": 0.4536731845,
				"z": -1.5384883197,
				"element": "H" 
			},
			{
				"x": 2.520290444,
				"y": 3.5385584322,
				"z": -1.2275855134,
				"element": "H" 
			},
			{
				"x": 0.7855683112,
				"y": 3.3479598768,
				"z": -1.4632333983,
				"element": "H" 
			},
			{
				"x": 1.9210448921,
				"y": 2.4513805709,
				"z": -2.4919321292,
				"element": "H" 
			},
			{
				"x": 1.5089439625,
				"y": -1.0914093358,
				"z": -1.5073959091,
				"element": "H" 
			},
			{
				"x": 0.7213616259,
				"y": 0.7730375603,
				"z": -3.4446954303,
				"element": "H" 
			},
			{
				"x": -0.1890560667,
				"y": -2.0813339984,
				"z": -2.7330322924,
				"element": "H" 
			},
			{
				"x": -1.0179825586,
				"y": -0.5822418953,
				"z": -3.0640374417,
				"element": "H" 
			},
			{
				"x": -3.2830136916,
				"y": -0.6778514686,
				"z": -2.2817406345,
				"element": "H" 
			},
			{
				"x": -2.4638762449,
				"y": 0.5587782351,
				"z": -1.3161954586,
				"element": "H" 
			},
			{
				"x": -3.522521095,
				"y": -0.6312842691,
				"z": -0.5309274291,
				"element": "H" 
			},
			{
				"x": 6.6248237588,
				"y": 2.175818847,
				"z": 1.5468208695,
				"element": "H" 
			},
			{
				"x": 6.6242947429,
				"y": 3.1567122135,
				"z": 0.0602696037,
				"element": "H" 
			},
			{
				"x": 7.0317351182,
				"y": 4.2352892108,
				"z": 2.9068678603,
				"element": "H" 
			},
			{
				"x": 7.0190188904,
				"y": 5.2200922252,
				"z": 1.4237658763,
				"element": "H" 
			}
		],
		 "valence_orbital": [ 
			{
				"type": "occ",
				"energy": -0.27262,
				"method": "rhf"
			},
			{
				"type": "occ",
				"energy": -0.26591,
				"method": "rhf"
			},
			{
				"type": "occ",
				"energy": -0.24509,
				"method": "rhf"
			},
			{
				"type": "occ",
				"energy": -0.23808,
				"method": "rhf"
			},
			{
				"type": "occ",
				"energy": -0.2126,
				"method": "rhf"
			},
			{
				"type": "unocc",
				"energy": -0.05985,
				"method": "rhf"
			},
			{
				"type": "unocc",
				"energy": -0.04277,
				"method": "rhf"
			},
			{
				"type": "unocc",
				"energy": 0.00398,
				"method": "rhf"
			},
			{
				"type": "unocc",
				"energy": 0.00944,
				"method": "rhf"
			},
			{
				"type": "unocc",
				"energy": 0.01779,
				"method": "rhf"
			}
		],
		"cosmo_sigma_profile": { 
			"-0.025": 0.0,
			"-0.024": 0.0,
			"-0.023": 0.0,
			"-0.022": 0.0,
			"-0.021": 0.0,
			"-0.02": 0.0,
			"-0.019": 0.0,
			"-0.018": 0.0,
			"-0.017": 0.0,
			"-0.016": 0.0,
			"-0.015": 0.0526805514703,
			"-0.014": 0.632547872193,
			"-0.013": 0.271541177367,
			"-0.012": 1.1127896397,
			"-0.011": 0.505743463233,
			"-0.01": 1.45823276245,
			"-0.009": 0.935714450227,
			"-0.008": 3.98190241214,
			"-0.007": 17.0082689706,
			"-0.006": 30.0276993845,
			"-0.005": 35.9237749023,
			"-0.004": 45.2340323214,
			"-0.003": 52.8737572813,
			"-0.002": 53.7536964109,
			"-0.001": 51.5368223303,
			"0.0": 48.5218961898,
			"0.001": 38.8494455882,
			"0.002": 27.4456572302,
			"0.003": 25.1203160795,
			"0.004": 21.7134926435,
			"0.005": 20.9718314852,
			"0.006": 18.7810620842,
			"0.007": 9.40903912234,
			"0.008": 7.28857834798,
			"0.009": 6.75772076228,
			"0.01": 8.10806786001,
			"0.011": 10.1589390417,
			"0.012": 8.26711959742,
			"0.013": 5.94592344691,
			"0.014": 2.04253715078,
			"0.015": 0.0963011540086,
			"0.016": 0.0,
			"0.017": 0.0,
			"0.018": 0.0,
			"0.019": 0.0,
			"0.02": 0.0,
			"0.021": 0.0,
			"0.022": 0.0,
			"0.023": 0.0,
			"0.024": 0.0,
			"0.025": 0.0
		}
	}
}
