{
	 "smiles": "CC1=C(SC(CC2=CC=CC=C2)=N1)C(O)=O", 
	 "Tm": 510.15, 
	 "num_atms": 27, 
	 "gaussian": { 
		 "optdone": 1, 
		 "sigma_profile": "yes", 
		 "theory": "DFT", 
		 "functional": "B3LYP", 
		 "basiset": "6-31G**", 
		 "properties": { 
			 "R2extent": 5697.4579, 
			 "electric_dipole_moment_norm": 4.29639592449, 
			 "electric_quadrupole_moment_norm": 27.8376898343, 
			 "total_energy": -1067.30375668, 
			 "HOMO_LUMO_gap": 0.1823, 
			 "cosmo_polarized_energy": -15.99, 
			 "cosmo_cavitation_energy": 33.23, 
			 "cosmo_dispersion_energy": -24.04, 
			 "cosmo_repulsion_energy": 1.84, 
			 "cosmo_total_nonelectrostatic_energy": 11.03, 
			 "SMD_solvation_energy": 4.86 
		},
		"coords": [
			{
				"x": -1.9501708666,
				"y": 3.0444993615,
				"z": -1.3963688541,
				"element": "C" 
			},
			{
				"x": -1.6237006452,
				"y": 2.2867608232,
				"z": -0.1360021569,
				"element": "C" 
			},
			{
				"x": -1.4339111027,
				"y": 2.8051526732,
				"z": 1.1320825723,
				"element": "C" 
			},
			{
				"x": -1.1253160234,
				"y": 1.5079555629,
				"z": 2.2560030614,
				"element": "S" 
			},
			{
				"x": -1.2504895903,
				"y": 0.3765398066,
				"z": 0.9372885464,
				"element": "C" 
			},
			{
				"x": -1.0265269156,
				"y": -1.1014817589,
				"z": 1.1227241782,
				"element": "C" 
			},
			{
				"x": 0.4377739327,
				"y": -1.5035576176,
				"z": 0.9938666037,
				"element": "C" 
			},
			{
				"x": 1.118274922,
				"y": -1.3174676166,
				"z": -0.2173322043,
				"element": "C" 
			},
			{
				"x": 2.4555717221,
				"y": -1.6914497638,
				"z": -0.3411777488,
				"element": "C" 
			},
			{
				"x": 3.1318415802,
				"y": -2.2550037371,
				"z": 0.7441963924,
				"element": "C" 
			},
			{
				"x": 2.4619537324,
				"y": -2.4415285534,
				"z": 1.9532373527,
				"element": "C" 
			},
			{
				"x": 1.1220093742,
				"y": -2.0662591587,
				"z": 2.0762494664,
				"element": "C" 
			},
			{
				"x": -1.5149117832,
				"y": 0.9199551772,
				"z": -0.225653017,
				"element": "N" 
			},
			{
				"x": -1.4990147966,
				"y": 4.1788195569,
				"z": 1.6758581369,
				"element": "C" 
			},
			{
				"x": -1.5320929472,
				"y": 5.2023740974,
				"z": 0.7809921381,
				"element": "O" 
			},
			{
				"x": -1.5234638532,
				"y": 4.4118855,
				"z": 2.8632528128,
				"element": "O" 
			},
			{
				"x": -2.7209031594,
				"y": 3.8053231956,
				"z": -1.2354113469,
				"element": "H" 
			},
			{
				"x": -1.0620135299,
				"y": 3.5291382388,
				"z": -1.8249402528,
				"element": "H" 
			},
			{
				"x": -2.3188146539,
				"y": 2.3407910231,
				"z": -2.1444117204,
				"element": "H" 
			},
			{
				"x": -1.6233778048,
				"y": -1.6062343821,
				"z": 0.3557110806,
				"element": "H" 
			},
			{
				"x": -1.4097172382,
				"y": -1.4170639392,
				"z": 2.0979488858,
				"element": "H" 
			},
			{
				"x": 0.5942440703,
				"y": -0.872044326,
				"z": -1.0585900525,
				"element": "H" 
			},
			{
				"x": 2.9711336934,
				"y": -1.543873242,
				"z": -1.2859941074,
				"element": "H" 
			},
			{
				"x": 4.1735596141,
				"y": -2.5464988102,
				"z": 0.6465199505,
				"element": "H" 
			},
			{
				"x": 2.979418127,
				"y": -2.8784003345,
				"z": 2.8025608372,
				"element": "H" 
			},
			{
				"x": 0.6044952695,
				"y": -2.2156691165,
				"z": 3.0207712824,
				"element": "H" 
			},
			{
				"x": -1.3762511277,
				"y": 4.8843373401,
				"z": -0.1180818368,
				"element": "H" 
			}
		],
		 "valence_orbital": [ 
			{
				"type": "occ",
				"energy": -0.2909,
				"method": "rhf"
			},
			{
				"type": "occ",
				"energy": -0.26914,
				"method": "rhf"
			},
			{
				"type": "occ",
				"energy": -0.25903,
				"method": "rhf"
			},
			{
				"type": "occ",
				"energy": -0.25565,
				"method": "rhf"
			},
			{
				"type": "occ",
				"energy": -0.24682,
				"method": "rhf"
			},
			{
				"type": "unocc",
				"energy": -0.06452,
				"method": "rhf"
			},
			{
				"type": "unocc",
				"energy": -0.0124,
				"method": "rhf"
			},
			{
				"type": "unocc",
				"energy": -0.00795,
				"method": "rhf"
			},
			{
				"type": "unocc",
				"energy": 0.00769,
				"method": "rhf"
			},
			{
				"type": "unocc",
				"energy": 0.01455,
				"method": "rhf"
			}
		],
		"cosmo_sigma_profile": { 
			"-0.025": 0.0,
			"-0.024": 0.0,
			"-0.023": 0.0,
			"-0.022": 0.0,
			"-0.021": 0.0,
			"-0.02": 0.0,
			"-0.019": 0.0,
			"-0.018": 0.0,
			"-0.017": 0.0326183834055,
			"-0.016": 1.16110979123,
			"-0.015": 1.02028418725,
			"-0.014": 1.28118809982,
			"-0.013": 0.807886870067,
			"-0.012": 1.18387549528,
			"-0.011": 1.37455411757,
			"-0.01": 0.885609743836,
			"-0.009": 1.04522665723,
			"-0.008": 2.88739856476,
			"-0.007": 8.0507143262,
			"-0.006": 12.9832169641,
			"-0.005": 18.2264173935,
			"-0.004": 20.0863953274,
			"-0.003": 23.529181293,
			"-0.002": 20.0299577877,
			"-0.001": 18.9911276813,
			"0.0": 18.2255313231,
			"0.001": 18.4121357138,
			"0.002": 19.413929726,
			"0.003": 13.3892633645,
			"0.004": 12.1524624173,
			"0.005": 12.6409940167,
			"0.006": 9.97370016791,
			"0.007": 3.54901623405,
			"0.008": 3.32775636455,
			"0.009": 4.98639485373,
			"0.01": 5.6070752248,
			"0.011": 5.57366439213,
			"0.012": 4.98928927976,
			"0.013": 1.57521413266,
			"0.014": 0.234525215398,
			"0.015": 0.0,
			"0.016": 0.0,
			"0.017": 0.0,
			"0.018": 0.0,
			"0.019": 0.0,
			"0.02": 0.0,
			"0.021": 0.0,
			"0.022": 0.0,
			"0.023": 0.0,
			"0.024": 0.0,
			"0.025": 0.0
		}
	}
}
