{
	 "smiles": "O=C(C1=CC=CS1)C1=NOC(=C1S(=O)(=O)C1=CC=CC=C1)C1=CC2=C(C=CC=C2)C=C1", 
	 "Tm": 401.15, 
	 "num_atms": 46, 
	 "gaussian": { 
		 "optdone": 1, 
		 "sigma_profile": "yes", 
		 "theory": "DFT", 
		 "functional": "B3LYP", 
		 "basiset": "6-31G**", 
		 "properties": { 
			 "R2extent": 16586.8722, 
			 "electric_dipole_moment_norm": 3.69460949763, 
			 "electric_quadrupole_moment_norm": 26.2474230198, 
			 "total_energy": -2075.48463818, 
			 "HOMO_LUMO_gap": 0.14929, 
			 "cosmo_polarized_energy": -18.99, 
			 "cosmo_cavitation_energy": 54.23, 
			 "cosmo_dispersion_energy": -37.99, 
			 "cosmo_repulsion_energy": 2.73, 
			 "cosmo_total_nonelectrostatic_energy": 18.97, 
			 "SMD_solvation_energy": 8.31 
		},
		"coords": [
			{
				"x": 4.1507048173,
				"y": 1.0413547495,
				"z": -0.197399126,
				"element": "O" 
			},
			{
				"x": 3.4833973486,
				"y": 1.6123645794,
				"z": 0.6555352775,
				"element": "C" 
			},
			{
				"x": 4.0675161516,
				"y": 2.4660955372,
				"z": 1.6799466184,
				"element": "C" 
			},
			{
				"x": 3.455263652,
				"y": 3.1928781783,
				"z": 2.6844368144,
				"element": "C" 
			},
			{
				"x": 4.3795282516,
				"y": 3.9004686234,
				"z": 3.4923764704,
				"element": "C" 
			},
			{
				"x": 5.6802229595,
				"y": 3.7006971621,
				"z": 3.0937802066,
				"element": "C" 
			},
			{
				"x": 5.8046731991,
				"y": 2.6525810301,
				"z": 1.731340478,
				"element": "S" 
			},
			{
				"x": 1.9742709282,
				"y": 1.482013597,
				"z": 0.6286084179,
				"element": "C" 
			},
			{
				"x": 1.2659115225,
				"y": 2.5646454439,
				"z": 0.4127896996,
				"element": "N" 
			},
			{
				"x": -0.0540571137,
				"y": 2.131441609,
				"z": 0.295881619,
				"element": "O" 
			},
			{
				"x": -0.1327050514,
				"y": 0.7889254164,
				"z": 0.4481098878,
				"element": "C" 
			},
			{
				"x": 1.1461596032,
				"y": 0.3127044902,
				"z": 0.677706281,
				"element": "C" 
			},
			{
				"x": 1.7534972663,
				"y": -1.340287628,
				"z": 0.9919460266,
				"element": "S" 
			},
			{
				"x": 0.7301420874,
				"y": -2.0786530851,
				"z": 1.7497394563,
				"element": "O" 
			},
			{
				"x": 3.0987041949,
				"y": -1.1630144718,
				"z": 1.5491635211,
				"element": "O" 
			},
			{
				"x": 1.8751857918,
				"y": -2.0975494366,
				"z": -0.6325881514,
				"element": "C" 
			},
			{
				"x": 2.9074038246,
				"y": -1.7098317383,
				"z": -1.4920449083,
				"element": "C" 
			},
			{
				"x": 2.9973099502,
				"y": -2.3239430416,
				"z": -2.7408677235,
				"element": "C" 
			},
			{
				"x": 2.075520998,
				"y": -3.3068206366,
				"z": -3.1124339741,
				"element": "C" 
			},
			{
				"x": 1.0534277392,
				"y": -3.6833595795,
				"z": -2.238622644,
				"element": "C" 
			},
			{
				"x": 0.9453630143,
				"y": -3.0770147049,
				"z": -0.9864268679,
				"element": "C" 
			},
			{
				"x": -1.4845603051,
				"y": 0.2415276055,
				"z": 0.2807882685,
				"element": "C" 
			},
			{
				"x": -2.3420613263,
				"y": 0.8813585297,
				"z": -0.6051258811,
				"element": "C" 
			},
			{
				"x": -3.6653321081,
				"y": 0.4223129196,
				"z": -0.8072492963,
				"element": "C" 
			},
			{
				"x": -4.1253752125,
				"y": -0.7184721376,
				"z": -0.072069981,
				"element": "C" 
			},
			{
				"x": -5.4542980589,
				"y": -1.1755933555,
				"z": -0.2761732714,
				"element": "C" 
			},
			{
				"x": -6.2883600308,
				"y": -0.5362043931,
				"z": -1.165986008,
				"element": "C" 
			},
			{
				"x": -5.8332718084,
				"y": 0.5916804718,
				"z": -1.8945319954,
				"element": "C" 
			},
			{
				"x": -4.5514371339,
				"y": 1.0598546709,
				"z": -1.7194557469,
				"element": "C" 
			},
			{
				"x": -3.2318478473,
				"y": -1.3450469777,
				"z": 0.8373367014,
				"element": "C" 
			},
			{
				"x": -1.9481376454,
				"y": -0.888156326,
				"z": 1.0162762467,
				"element": "C" 
			},
			{
				"x": 2.3812976984,
				"y": 3.2187480694,
				"z": 2.8183150864,
				"element": "H" 
			},
			{
				"x": 4.0985101195,
				"y": 4.5275728481,
				"z": 4.3301314215,
				"element": "H" 
			},
			{
				"x": 6.5759417124,
				"y": 4.1164016376,
				"z": 3.5360882989,
				"element": "H" 
			},
			{
				"x": 3.6096467204,
				"y": -0.9390286467,
				"z": -1.1910043591,
				"element": "H" 
			},
			{
				"x": 3.7913333703,
				"y": -2.0356884354,
				"z": -3.4229762444,
				"element": "H" 
			},
			{
				"x": 2.1554906583,
				"y": -3.7816985262,
				"z": -4.0860618377,
				"element": "H" 
			},
			{
				"x": 0.3414928217,
				"y": -4.4502580226,
				"z": -2.5283261644,
				"element": "H" 
			},
			{
				"x": 0.167326581,
				"y": -3.3585599826,
				"z": -0.2861198657,
				"element": "H" 
			},
			{
				"x": -1.9962902692,
				"y": 1.745462638,
				"z": -1.1632536448,
				"element": "H" 
			},
			{
				"x": -5.8026881922,
				"y": -2.0398832003,
				"z": 0.2830715301,
				"element": "H" 
			},
			{
				"x": -7.3028037604,
				"y": -0.8949426357,
				"z": -1.3138283212,
				"element": "H" 
			},
			{
				"x": -6.5030431327,
				"y": 1.085232947,
				"z": -2.5924350833,
				"element": "H" 
			},
			{
				"x": -4.1981324728,
				"y": 1.9246019462,
				"z": -2.2748697181,
				"element": "H" 
			},
			{
				"x": -3.5816421472,
				"y": -2.2011253539,
				"z": 1.408180163,
				"element": "H" 
			},
			{
				"x": -1.2832993659,
				"y": -1.3735923843,
				"z": 1.7180023229,
				"element": "H" 
			}
		],
		 "valence_orbital": [ 
			{
				"type": "occ",
				"energy": -0.26603,
				"method": "rhf"
			},
			{
				"type": "occ",
				"energy": -0.26518,
				"method": "rhf"
			},
			{
				"type": "occ",
				"energy": -0.252,
				"method": "rhf"
			},
			{
				"type": "occ",
				"energy": -0.24906,
				"method": "rhf"
			},
			{
				"type": "occ",
				"energy": -0.22717,
				"method": "rhf"
			},
			{
				"type": "unocc",
				"energy": -0.07788,
				"method": "rhf"
			},
			{
				"type": "unocc",
				"energy": -0.07103,
				"method": "rhf"
			},
			{
				"type": "unocc",
				"energy": -0.04106,
				"method": "rhf"
			},
			{
				"type": "unocc",
				"energy": -0.03575,
				"method": "rhf"
			},
			{
				"type": "unocc",
				"energy": -0.01604,
				"method": "rhf"
			}
		],
		"cosmo_sigma_profile": { 
			"-0.025": 0.0,
			"-0.024": 0.0,
			"-0.023": 0.0,
			"-0.022": 0.0,
			"-0.021": 0.0,
			"-0.02": 0.0,
			"-0.019": 0.0,
			"-0.018": 0.0,
			"-0.017": 0.0,
			"-0.016": 0.0,
			"-0.015": 0.0,
			"-0.014": 0.0,
			"-0.013": 0.0,
			"-0.012": 0.0,
			"-0.011": 0.0,
			"-0.01": 1.45374443415,
			"-0.009": 2.25471888968,
			"-0.008": 4.95967442146,
			"-0.007": 16.8745520669,
			"-0.006": 29.6018791186,
			"-0.005": 28.9773827724,
			"-0.004": 29.0382147171,
			"-0.003": 27.0897628643,
			"-0.002": 27.9564126024,
			"-0.001": 27.0618434806,
			"0.0": 30.5307095632,
			"0.001": 42.0879960967,
			"0.002": 54.7212439473,
			"0.003": 45.2448783258,
			"0.004": 19.484970296,
			"0.005": 9.92871477805,
			"0.006": 6.37863954484,
			"0.007": 6.214838953,
			"0.008": 8.29224009021,
			"0.009": 7.20911546548,
			"0.01": 7.64408804979,
			"0.011": 7.53695950076,
			"0.012": 0.91479893237,
			"0.013": 0.0,
			"0.014": 0.0,
			"0.015": 0.0,
			"0.016": 0.0,
			"0.017": 0.0,
			"0.018": 0.0,
			"0.019": 0.0,
			"0.02": 0.0,
			"0.021": 0.0,
			"0.022": 0.0,
			"0.023": 0.0,
			"0.024": 0.0,
			"0.025": 0.0
		}
	}
}
