{
	 "smiles": "NS(=O)(=O)C1=CC2=C(S1)C(=O)CCS2(=O)=O", 
	 "Tm": 539.15, 
	 "num_atms": 23, 
	 "gaussian": { 
		 "optdone": 1, 
		 "sigma_profile": "yes", 
		 "theory": "DFT", 
		 "functional": "B3LYP", 
		 "basiset": "6-31G**", 
		 "properties": { 
			 "R2extent": 6094.3378, 
			 "electric_dipole_moment_norm": 2.44602113441, 
			 "electric_quadrupole_moment_norm": 32.9355048533, 
			 "total_energy": -1896.2348184, 
			 "HOMO_LUMO_gap": 0.17223, 
			 "cosmo_polarized_energy": -25.73, 
			 "cosmo_cavitation_energy": 31.97, 
			 "cosmo_dispersion_energy": -24.76, 
			 "cosmo_repulsion_energy": 1.8, 
			 "cosmo_total_nonelectrostatic_energy": 9.01, 
			 "SMD_solvation_energy": 4.3 
		},
		"coords": [
			{
				"x": 0.3934059985,
				"y": -4.3927996683,
				"z": -1.7793287936,
				"element": "N" 
			},
			{
				"x": 1.3236596795,
				"y": -4.1010171229,
				"z": -0.4084791461,
				"element": "S" 
			},
			{
				"x": 0.664310674,
				"y": -4.7934648816,
				"z": 0.6967715534,
				"element": "O" 
			},
			{
				"x": 2.7348065377,
				"y": -4.2826278279,
				"z": -0.7431345559,
				"element": "O" 
			},
			{
				"x": 1.1026146522,
				"y": -2.3499376292,
				"z": -0.1489615743,
				"element": "C" 
			},
			{
				"x": 2.0299161028,
				"y": -1.3927409964,
				"z": -0.4814256854,
				"element": "C" 
			},
			{
				"x": 1.5576892129,
				"y": -0.1025648005,
				"z": -0.1365054367,
				"element": "C" 
			},
			{
				"x": 0.3056751263,
				"y": -0.0999306522,
				"z": 0.4496639413,
				"element": "C" 
			},
			{
				"x": -0.3247699565,
				"y": -1.7117023198,
				"z": 0.6030161312,
				"element": "S" 
			},
			{
				"x": -0.4610935241,
				"y": 1.0604490139,
				"z": 0.9472709037,
				"element": "C" 
			},
			{
				"x": -1.557454248,
				"y": 0.9236629475,
				"z": 1.4628417564,
				"element": "O" 
			},
			{
				"x": 0.1765784909,
				"y": 2.4349522271,
				"z": 0.7506282172,
				"element": "C" 
			},
			{
				"x": 1.7066898965,
				"y": 2.4562702976,
				"z": 0.8478507984,
				"element": "C" 
			},
			{
				"x": 2.4590500941,
				"y": 1.4172533291,
				"z": -0.4360507689,
				"element": "S" 
			},
			{
				"x": 3.8728614273,
				"y": 1.1784417219,
				"z": -0.1241583264,
				"element": "O" 
			},
			{
				"x": 2.0607750838,
				"y": 1.9528716863,
				"z": -1.7459252986,
				"element": "O" 
			},
			{
				"x": -0.2477369265,
				"y": -5.1614496238,
				"z": -1.6027776279,
				"element": "H" 
			},
			{
				"x": 0.981939065,
				"y": -4.5570296977,
				"z": -2.5914244151,
				"element": "H" 
			},
			{
				"x": 2.9951268612,
				"y": -1.6089324787,
				"z": -0.9213921909,
				"element": "H" 
			},
			{
				"x": -0.2624032155,
				"y": 3.1076893074,
				"z": 1.4920673054,
				"element": "H" 
			},
			{
				"x": -0.1259932899,
				"y": 2.79862973,
				"z": -0.2399070736,
				"element": "H" 
			},
			{
				"x": 2.1086852206,
				"y": 3.4580880483,
				"z": 0.6733898765,
				"element": "H" 
			},
			{
				"x": 2.0777670372,
				"y": 2.0881893897,
				"z": 1.8080704098,
				"element": "H" 
			}
		],
		 "valence_orbital": [ 
			{
				"type": "occ",
				"energy": -0.3188,
				"method": "rhf"
			},
			{
				"type": "occ",
				"energy": -0.30876,
				"method": "rhf"
			},
			{
				"type": "occ",
				"energy": -0.29618,
				"method": "rhf"
			},
			{
				"type": "occ",
				"energy": -0.28794,
				"method": "rhf"
			},
			{
				"type": "occ",
				"energy": -0.284,
				"method": "rhf"
			},
			{
				"type": "unocc",
				"energy": -0.11177,
				"method": "rhf"
			},
			{
				"type": "unocc",
				"energy": -0.03129,
				"method": "rhf"
			},
			{
				"type": "unocc",
				"energy": -0.01353,
				"method": "rhf"
			},
			{
				"type": "unocc",
				"energy": 0.01472,
				"method": "rhf"
			},
			{
				"type": "unocc",
				"energy": 0.02553,
				"method": "rhf"
			}
		],
		"cosmo_sigma_profile": { 
			"-0.025": 0.0,
			"-0.024": 0.0,
			"-0.023": 0.0,
			"-0.022": 0.0,
			"-0.021": 0.0,
			"-0.02": 0.0,
			"-0.019": 0.0,
			"-0.018": 0.0,
			"-0.017": 0.0,
			"-0.016": 0.763352433111,
			"-0.015": 2.87062295756,
			"-0.014": 1.7234447477,
			"-0.013": 3.08985006832,
			"-0.012": 3.06836562742,
			"-0.011": 2.65837624988,
			"-0.01": 7.52483622111,
			"-0.009": 8.92645643704,
			"-0.008": 11.6372387508,
			"-0.007": 12.5327684548,
			"-0.006": 13.782427352,
			"-0.005": 10.9200699401,
			"-0.004": 11.5769147492,
			"-0.003": 12.1900030018,
			"-0.002": 14.3002753916,
			"-0.001": 16.0184225323,
			"0.0": 13.6399173625,
			"0.001": 8.44616789652,
			"0.002": 6.61043254829,
			"0.003": 7.13956167777,
			"0.004": 6.69985099609,
			"0.005": 6.59851855799,
			"0.006": 6.19664360411,
			"0.007": 7.60887873616,
			"0.008": 8.95884810488,
			"0.009": 15.3118670883,
			"0.01": 23.975622609,
			"0.011": 12.2435575369,
			"0.012": 0.685239089793,
			"0.013": 0.0,
			"0.014": 0.0,
			"0.015": 0.0,
			"0.016": 0.0,
			"0.017": 0.0,
			"0.018": 0.0,
			"0.019": 0.0,
			"0.02": 0.0,
			"0.021": 0.0,
			"0.022": 0.0,
			"0.023": 0.0,
			"0.024": 0.0,
			"0.025": 0.0
		}
	}
}
