{
	 "smiles": "CN1CCN(CC1)C(=O)CO", 
	 "Tm": 330.15, 
	 "num_atms": 25, 
	 "gaussian": { 
		 "optdone": 1, 
		 "sigma_profile": "yes", 
		 "theory": "DFT", 
		 "functional": "B3LYP", 
		 "basiset": "6-31G**", 
		 "properties": { 
			 "R2extent": 2132.6216, 
			 "electric_dipole_moment_norm": 2.2248754482, 
			 "electric_quadrupole_moment_norm": 10.6215395108, 
			 "total_energy": -535.116521993, 
			 "HOMO_LUMO_gap": 0.21544, 
			 "cosmo_polarized_energy": -13.13, 
			 "cosmo_cavitation_energy": 26.04, 
			 "cosmo_dispersion_energy": -19.06, 
			 "cosmo_repulsion_energy": 1.53, 
			 "cosmo_total_nonelectrostatic_energy": 8.51, 
			 "SMD_solvation_energy": 1.99 
		},
		"coords": [
			{
				"x": -2.9901168376,
				"y": -0.9568797039,
				"z": 0.2658355304,
				"element": "C" 
			},
			{
				"x": -1.8658698018,
				"y": -1.0734013325,
				"z": 1.1880584692,
				"element": "N" 
			},
			{
				"x": -0.6335555736,
				"y": -1.5649781844,
				"z": 0.5719953412,
				"element": "C" 
			},
			{
				"x": 0.1219023206,
				"y": -0.511143174,
				"z": -0.2618803564,
				"element": "C" 
			},
			{
				"x": 0.3402962218,
				"y": 0.6904999542,
				"z": 0.5477520987,
				"element": "N" 
			},
			{
				"x": -0.8714291669,
				"y": 1.23959105,
				"z": 1.1627449571,
				"element": "C" 
			},
			{
				"x": -1.5950647526,
				"y": 0.1419154491,
				"z": 1.9605815096,
				"element": "C" 
			},
			{
				"x": 1.5255165738,
				"y": 1.3622155267,
				"z": 0.6895733317,
				"element": "C" 
			},
			{
				"x": 1.6209942842,
				"y": 2.4149136143,
				"z": 1.3190749347,
				"element": "O" 
			},
			{
				"x": 2.7813654252,
				"y": 0.7592796098,
				"z": 0.0376273676,
				"element": "C" 
			},
			{
				"x": 3.0704622664,
				"y": -0.5804334752,
				"z": 0.42498882,
				"element": "O" 
			},
			{
				"x": -2.8657429112,
				"y": -0.2205602152,
				"z": -0.5480129972,
				"element": "H" 
			},
			{
				"x": -3.1769867627,
				"y": -1.9316453014,
				"z": -0.1971128971,
				"element": "H" 
			},
			{
				"x": -3.8873566156,
				"y": -0.6774355334,
				"z": 0.8281057957,
				"element": "H" 
			},
			{
				"x": -0.867326341,
				"y": -2.4332455226,
				"z": -0.0540900423,
				"element": "H" 
			},
			{
				"x": 0.0375608411,
				"y": -1.9037610269,
				"z": 1.3724314385,
				"element": "H" 
			},
			{
				"x": 1.0771328912,
				"y": -0.9242882575,
				"z": -0.5798831482,
				"element": "H" 
			},
			{
				"x": -0.4609848029,
				"y": -0.2431521585,
				"z": -1.1558635111,
				"element": "H" 
			},
			{
				"x": -0.5690991276,
				"y": 2.0699496848,
				"z": 1.801823865,
				"element": "H" 
			},
			{
				"x": -1.5268097213,
				"y": 1.6402059515,
				"z": 0.375440218,
				"element": "H" 
			},
			{
				"x": -2.5397509466,
				"y": 0.5303197861,
				"z": 2.3570855664,
				"element": "H" 
			},
			{
				"x": -0.966630327,
				"y": -0.1353275995,
				"z": 2.8174547836,
				"element": "H" 
			},
			{
				"x": 2.6713087017,
				"y": 0.7404679746,
				"z": -1.0523752351,
				"element": "H" 
			},
			{
				"x": 3.5977966595,
				"y": 1.4462958266,
				"z": 0.2855022285,
				"element": "H" 
			},
			{
				"x": 3.2339875027,
				"y": -0.5814029427,
				"z": 1.3771419314,
				"element": "H" 
			}
		],
		 "valence_orbital": [ 
			{
				"type": "occ",
				"energy": -0.34602,
				"method": "rhf"
			},
			{
				"type": "occ",
				"energy": -0.29253,
				"method": "rhf"
			},
			{
				"type": "occ",
				"energy": -0.25071,
				"method": "rhf"
			},
			{
				"type": "occ",
				"energy": -0.23853,
				"method": "rhf"
			},
			{
				"type": "occ",
				"energy": -0.2028,
				"method": "rhf"
			},
			{
				"type": "unocc",
				"energy": 0.01264,
				"method": "rhf"
			},
			{
				"type": "unocc",
				"energy": 0.06981,
				"method": "rhf"
			},
			{
				"type": "unocc",
				"energy": 0.09328,
				"method": "rhf"
			},
			{
				"type": "unocc",
				"energy": 0.10801,
				"method": "rhf"
			},
			{
				"type": "unocc",
				"energy": 0.1271,
				"method": "rhf"
			}
		],
		"cosmo_sigma_profile": { 
			"-0.025": 0.0,
			"-0.024": 0.0,
			"-0.023": 0.0,
			"-0.022": 0.0,
			"-0.021": 0.0,
			"-0.02": 0.0,
			"-0.019": 0.0,
			"-0.018": 0.0,
			"-0.017": 0.197912949822,
			"-0.016": 0.946622262877,
			"-0.015": 1.07005497229,
			"-0.014": 1.190196164,
			"-0.013": 0.478963214231,
			"-0.012": 0.897509555714,
			"-0.011": 0.889840409077,
			"-0.01": 1.04347720498,
			"-0.009": 0.724644334264,
			"-0.008": 1.01751447142,
			"-0.007": 1.19691273226,
			"-0.006": 3.92081536385,
			"-0.005": 7.26842654431,
			"-0.004": 26.5349541139,
			"-0.003": 33.3273125838,
			"-0.002": 25.3184326836,
			"-0.001": 19.7902606651,
			"0.0": 16.1612732292,
			"0.001": 7.47864437846,
			"0.002": 5.8090863419,
			"0.003": 3.61524881426,
			"0.004": 3.63365082512,
			"0.005": 3.97939873169,
			"0.006": 2.85632324432,
			"0.007": 3.00700342502,
			"0.008": 4.0763444806,
			"0.009": 2.98462064007,
			"0.01": 2.69658417846,
			"0.011": 3.06411689442,
			"0.012": 3.34633505519,
			"0.013": 4.60429051012,
			"0.014": 6.00227166706,
			"0.015": 2.12440854698,
			"0.016": 0.584744262632,
			"0.017": 0.0,
			"0.018": 0.0,
			"0.019": 0.0,
			"0.02": 0.0,
			"0.021": 0.0,
			"0.022": 0.0,
			"0.023": 0.0,
			"0.024": 0.0,
			"0.025": 0.0
		}
	}
}
