{
	 "smiles": "OC(=O)C1=CC=NN1", 
	 "Tm": 487.15, 
	 "num_atms": 12, 
	 "gaussian": { 
		 "optdone": 1, 
		 "sigma_profile": "yes", 
		 "theory": "DFT", 
		 "functional": "B3LYP", 
		 "basiset": "6-31G**", 
		 "properties": { 
			 "R2extent": 1600.7291, 
			 "electric_dipole_moment_norm": 2.80045822322, 
			 "electric_quadrupole_moment_norm": 14.8581238129, 
			 "total_energy": -414.76072139, 
			 "HOMO_LUMO_gap": 0.21761, 
			 "cosmo_polarized_energy": -18.08, 
			 "cosmo_cavitation_energy": 17.17, 
			 "cosmo_dispersion_energy": -12.83, 
			 "cosmo_repulsion_energy": 1.07, 
			 "cosmo_total_nonelectrostatic_energy": 5.41, 
			 "SMD_solvation_energy": 3.63 
		},
		"coords": [
			{
				"x": 1.9555784324,
				"y": 2.6956377918,
				"z": 0.3409259655,
				"element": "O" 
			},
			{
				"x": 2.1530203084,
				"y": 1.365728197,
				"z": 0.0913875463,
				"element": "C" 
			},
			{
				"x": 2.8221169392,
				"y": 1.0063128891,
				"z": -0.8444877226,
				"element": "O" 
			},
			{
				"x": 1.4810664292,
				"y": 0.4351420591,
				"z": 1.0224642238,
				"element": "C" 
			},
			{
				"x": 1.7891049183,
				"y": -0.8769163242,
				"z": 1.3392897227,
				"element": "C" 
			},
			{
				"x": 0.8163693742,
				"y": -1.2551995138,
				"z": 2.286881303,
				"element": "C" 
			},
			{
				"x": -0.0488920941,
				"y": -0.2692216377,
				"z": 2.5364719939,
				"element": "N" 
			},
			{
				"x": 0.3836894424,
				"y": 0.7558673729,
				"z": 1.7811544989,
				"element": "N" 
			},
			{
				"x": 1.6705325251,
				"y": 2.8269146475,
				"z": 1.2568343662,
				"element": "H" 
			},
			{
				"x": 2.6132606509,
				"y": -1.4509074002,
				"z": 0.9449759332,
				"element": "H" 
			},
			{
				"x": 0.7054506275,
				"y": -2.2025850553,
				"z": 2.7964324861,
				"element": "H" 
			},
			{
				"x": -0.2116975535,
				"y": 1.5660269737,
				"z": 1.6867696831,
				"element": "H" 
			}
		],
		 "valence_orbital": [ 
			{
				"type": "occ",
				"energy": -0.33328,
				"method": "rhf"
			},
			{
				"type": "occ",
				"energy": -0.31733,
				"method": "rhf"
			},
			{
				"type": "occ",
				"energy": -0.28856,
				"method": "rhf"
			},
			{
				"type": "occ",
				"energy": -0.28365,
				"method": "rhf"
			},
			{
				"type": "occ",
				"energy": -0.27004,
				"method": "rhf"
			},
			{
				"type": "unocc",
				"energy": -0.05243,
				"method": "rhf"
			},
			{
				"type": "unocc",
				"energy": 0.02774,
				"method": "rhf"
			},
			{
				"type": "unocc",
				"energy": 0.03011,
				"method": "rhf"
			},
			{
				"type": "unocc",
				"energy": 0.08636,
				"method": "rhf"
			},
			{
				"type": "unocc",
				"energy": 0.09305,
				"method": "rhf"
			}
		],
		"cosmo_sigma_profile": { 
			"-0.025": 0.0,
			"-0.024": 0.0,
			"-0.023": 0.0,
			"-0.022": 0.0,
			"-0.021": 0.102425348048,
			"-0.02": 1.10343666786,
			"-0.019": 1.55052837969,
			"-0.018": 2.53861554478,
			"-0.017": 2.24387482934,
			"-0.016": 1.354222254,
			"-0.015": 2.78514360458,
			"-0.014": 1.65301039539,
			"-0.013": 0.489807825403,
			"-0.012": 1.79434725613,
			"-0.011": 1.82268720875,
			"-0.01": 1.12311444849,
			"-0.009": 1.00422795763,
			"-0.008": 3.89657789223,
			"-0.007": 5.50996860251,
			"-0.006": 3.82906366094,
			"-0.005": 5.48329188535,
			"-0.004": 4.63018229527,
			"-0.003": 5.40036822302,
			"-0.002": 5.91113449724,
			"-0.001": 6.2555490011,
			"0.0": 5.77308499796,
			"0.001": 6.34214757963,
			"0.002": 8.34929612963,
			"0.003": 8.70170821204,
			"0.004": 5.63267590395,
			"0.005": 3.73674330792,
			"0.006": 4.40250723484,
			"0.007": 4.02245596716,
			"0.008": 4.04459292842,
			"0.009": 4.76777247591,
			"0.01": 7.20472713649,
			"0.011": 7.29091879818,
			"0.012": 4.20899935337,
			"0.013": 1.17406682493,
			"0.014": 1.21535374149,
			"0.015": 0.386888989332,
			"0.016": 0.0,
			"0.017": 0.0,
			"0.018": 0.0,
			"0.019": 0.0,
			"0.02": 0.0,
			"0.021": 0.0,
			"0.022": 0.0,
			"0.023": 0.0,
			"0.024": 0.0,
			"0.025": 0.0
		}
	}
}
