{
	 "smiles": "CCOC1=C(OCC2=CN=CC=C2)C=CC(C=CC(O)=O)=C1", 
	 "Tm": 475.15, 
	 "num_atms": 39, 
	 "gaussian": { 
		 "optdone": 1, 
		 "sigma_profile": "yes", 
		 "theory": "DFT", 
		 "functional": "B3LYP", 
		 "basiset": "6-31G**", 
		 "properties": { 
			 "R2extent": 9438.5843, 
			 "electric_dipole_moment_norm": 1.89090498175, 
			 "electric_quadrupole_moment_norm": 14.8289685504, 
			 "total_energy": -1013.67321195, 
			 "HOMO_LUMO_gap": 0.15409, 
			 "cosmo_polarized_energy": -17.89, 
			 "cosmo_cavitation_energy": 44.06, 
			 "cosmo_dispersion_energy": -30.28, 
			 "cosmo_repulsion_energy": 2.35, 
			 "cosmo_total_nonelectrostatic_energy": 16.12, 
			 "SMD_solvation_energy": 7.67 
		},
		"coords": [
			{
				"x": -3.1066933545,
				"y": 2.7182912685,
				"z": 2.4713231986,
				"element": "C" 
			},
			{
				"x": -1.9202189134,
				"y": 2.1639133497,
				"z": 1.7037918218,
				"element": "C" 
			},
			{
				"x": -2.0133162364,
				"y": 0.7313294108,
				"z": 1.7365038344,
				"element": "O" 
			},
			{
				"x": -0.984287417,
				"y": 0.0476023867,
				"z": 1.137060959,
				"element": "C" 
			},
			{
				"x": -0.9223150234,
				"y": -0.0616148527,
				"z": -0.2730376984,
				"element": "C" 
			},
			{
				"x": -1.8969180649,
				"y": 0.5979220319,
				"z": -0.9650758777,
				"element": "O" 
			},
			{
				"x": -2.0554003001,
				"y": 0.3459963438,
				"z": -2.3612425918,
				"element": "C" 
			},
			{
				"x": -1.0823994264,
				"y": 1.1028962951,
				"z": -3.2412139493,
				"element": "C" 
			},
			{
				"x": -0.6585618003,
				"y": 0.5619830191,
				"z": -4.4606198648,
				"element": "C" 
			},
			{
				"x": 0.1534055209,
				"y": 1.1862764333,
				"z": -5.3211025723,
				"element": "N" 
			},
			{
				"x": 0.5880930229,
				"y": 2.4044876851,
				"z": -4.9778691972,
				"element": "C" 
			},
			{
				"x": 0.237816597,
				"y": 3.0371007913,
				"z": -3.7830573267,
				"element": "C" 
			},
			{
				"x": -0.6142982318,
				"y": 2.3758490725,
				"z": -2.9023842366,
				"element": "C" 
			},
			{
				"x": 0.0951422549,
				"y": -0.8258971771,
				"z": -0.8534614347,
				"element": "C" 
			},
			{
				"x": 1.024379295,
				"y": -1.4719935276,
				"z": -0.0435733828,
				"element": "C" 
			},
			{
				"x": 0.9803344587,
				"y": -1.3785910124,
				"z": 1.3610096984,
				"element": "C" 
			},
			{
				"x": 2.0129402885,
				"y": -2.1051807961,
				"z": 2.0940637496,
				"element": "C" 
			},
			{
				"x": 2.3539724455,
				"y": -2.273117939,
				"z": 3.3967467069,
				"element": "C" 
			},
			{
				"x": 1.7575174483,
				"y": -1.7289618663,
				"z": 4.6240043937,
				"element": "C" 
			},
			{
				"x": 2.4448633476,
				"y": -2.1771246424,
				"z": 5.7122816464,
				"element": "O" 
			},
			{
				"x": 0.8005440436,
				"y": -0.9832683453,
				"z": 4.7583581929,
				"element": "O" 
			},
			{
				"x": -0.0478823438,
				"y": -0.5961704585,
				"z": 1.9316360575,
				"element": "C" 
			},
			{
				"x": -3.0945494949,
				"y": 2.3639130494,
				"z": 3.505832756,
				"element": "H" 
			},
			{
				"x": -3.0761086221,
				"y": 3.8125660344,
				"z": 2.4768932169,
				"element": "H" 
			},
			{
				"x": -4.0450781208,
				"y": 2.3988423919,
				"z": 2.0089997605,
				"element": "H" 
			},
			{
				"x": -0.9723640694,
				"y": 2.4769780226,
				"z": 2.1640333358,
				"element": "H" 
			},
			{
				"x": -1.9289409022,
				"y": 2.5146385748,
				"z": 0.6640307124,
				"element": "H" 
			},
			{
				"x": -3.0800659645,
				"y": 0.6701232896,
				"z": -2.5726317124,
				"element": "H" 
			},
			{
				"x": -2.0027394064,
				"y": -0.7311503587,
				"z": -2.564082479,
				"element": "H" 
			},
			{
				"x": -0.992990325,
				"y": -0.4325891234,
				"z": -4.7582863561,
				"element": "H" 
			},
			{
				"x": 1.2502313061,
				"y": 2.8959618513,
				"z": -5.6884085625,
				"element": "H" 
			},
			{
				"x": 0.6253261831,
				"y": 4.0244188953,
				"z": -3.5517791318,
				"element": "H" 
			},
			{
				"x": -0.9089768062,
				"y": 2.8296420117,
				"z": -1.9610613048,
				"element": "H" 
			},
			{
				"x": 0.1780449334,
				"y": -0.9080885348,
				"z": -1.9301233358,
				"element": "H" 
			},
			{
				"x": 1.8062779269,
				"y": -2.0613552492,
				"z": -0.5148048627,
				"element": "H" 
			},
			{
				"x": 2.6735225811,
				"y": -2.6469876046,
				"z": 1.4166653644,
				"element": "H" 
			},
			{
				"x": 3.2121655944,
				"y": -2.9080385912,
				"z": 3.5929309012,
				"element": "H" 
			},
			{
				"x": 2.0002000941,
				"y": -1.7822493606,
				"z": 6.4800202589,
				"element": "H" 
			},
			{
				"x": -0.1279725183,
				"y": -0.5016527687,
				"z": 3.0067293121,
				"element": "H" 
			}
		],
		 "valence_orbital": [ 
			{
				"type": "occ",
				"energy": -0.2676,
				"method": "rhf"
			},
			{
				"type": "occ",
				"energy": -0.26396,
				"method": "rhf"
			},
			{
				"type": "occ",
				"energy": -0.261,
				"method": "rhf"
			},
			{
				"type": "occ",
				"energy": -0.24396,
				"method": "rhf"
			},
			{
				"type": "occ",
				"energy": -0.21586,
				"method": "rhf"
			},
			{
				"type": "unocc",
				"energy": -0.06177,
				"method": "rhf"
			},
			{
				"type": "unocc",
				"energy": -0.03463,
				"method": "rhf"
			},
			{
				"type": "unocc",
				"energy": -0.02326,
				"method": "rhf"
			},
			{
				"type": "unocc",
				"energy": -0.00055,
				"method": "rhf"
			},
			{
				"type": "unocc",
				"energy": 0.02464,
				"method": "rhf"
			}
		],
		"cosmo_sigma_profile": { 
			"-0.025": 0.0,
			"-0.024": 0.0,
			"-0.023": 0.0,
			"-0.022": 0.0,
			"-0.021": 0.0,
			"-0.02": 0.0,
			"-0.019": 0.0,
			"-0.018": 0.3404169713,
			"-0.017": 0.868551979082,
			"-0.016": 0.807990391035,
			"-0.015": 0.650664690216,
			"-0.014": 0.689950088125,
			"-0.013": 0.704917950134,
			"-0.012": 0.544933774956,
			"-0.011": 0.781451442813,
			"-0.01": 0.844229621228,
			"-0.009": 0.645571960488,
			"-0.008": 3.63660273383,
			"-0.007": 13.6880589978,
			"-0.006": 22.714783569,
			"-0.005": 21.0021855849,
			"-0.004": 22.8537084033,
			"-0.003": 25.3452887553,
			"-0.002": 26.273955239,
			"-0.001": 26.0916168552,
			"0.0": 25.9779678076,
			"0.001": 25.9436763511,
			"0.002": 30.9015937264,
			"0.003": 29.780166252,
			"0.004": 18.0832448798,
			"0.005": 8.0088747372,
			"0.006": 6.1897274298,
			"0.007": 5.50377963851,
			"0.008": 5.83439435072,
			"0.009": 7.09516154602,
			"0.01": 5.61867595584,
			"0.011": 5.4955721555,
			"0.012": 4.41874796205,
			"0.013": 0.935423609439,
			"0.014": 0.911469163997,
			"0.015": 1.05962496005,
			"0.016": 0.656782828035,
			"0.017": 0.244478063253,
			"0.018": 0.0,
			"0.019": 0.0,
			"0.02": 0.0,
			"0.021": 0.0,
			"0.022": 0.0,
			"0.023": 0.0,
			"0.024": 0.0,
			"0.025": 0.0
		}
	}
}
