{
	 "smiles": "BrC1=CC=C2NC(=O)CC2=C1", 
	 "Tm": 493.15, 
	 "num_atms": 17, 
	 "gaussian": { 
		 "optdone": 1, 
		 "sigma_profile": "yes", 
		 "theory": "DFT", 
		 "functional": "B3LYP", 
		 "basiset": "6-31G**", 
		 "properties": { 
			 "R2extent": 3571.2506, 
			 "electric_dipole_moment_norm": 1.57479353885, 
			 "electric_quadrupole_moment_norm": 19.8243648978, 
			 "total_energy": -3009.86720571, 
			 "HOMO_LUMO_gap": 0.19438, 
			 "cosmo_polarized_energy": -11.87, 
			 "cosmo_cavitation_energy": 23.64, 
			 "cosmo_dispersion_energy": -18.24, 
			 "cosmo_repulsion_energy": 1.47, 
			 "cosmo_total_nonelectrostatic_energy": 6.87, 
			 "SMD_solvation_energy": 3.28 
		},
		"coords": [
			{
				"x": 3.9092771599,
				"y": -0.1491292836,
				"z": 0.8745926241,
				"element": "Br" 
			},
			{
				"x": 2.0738963214,
				"y": -0.5915072005,
				"z": 0.563958969,
				"element": "C" 
			},
			{
				"x": 1.5409551579,
				"y": -1.7384307238,
				"z": 1.1489554785,
				"element": "C" 
			},
			{
				"x": 0.200437519,
				"y": -2.0805311141,
				"z": 0.9346124355,
				"element": "C" 
			},
			{
				"x": -0.5668226053,
				"y": -1.2465790847,
				"z": 0.1292205272,
				"element": "C" 
			},
			{
				"x": -1.9120719152,
				"y": -1.3641650622,
				"z": -0.2355682467,
				"element": "N" 
			},
			{
				"x": -2.3361767609,
				"y": -0.3298851627,
				"z": -1.0608606862,
				"element": "C" 
			},
			{
				"x": -3.4538169646,
				"y": -0.1997862629,
				"z": -1.5147806379,
				"element": "O" 
			},
			{
				"x": -1.1130388455,
				"y": 0.5841733119,
				"z": -1.264255478,
				"element": "C" 
			},
			{
				"x": -0.0281507374,
				"y": -0.0884410155,
				"z": -0.4612903828,
				"element": "C" 
			},
			{
				"x": 1.2995102122,
				"y": 0.2475362143,
				"z": -0.2471186844,
				"element": "C" 
			},
			{
				"x": 2.1671590023,
				"y": -2.3668459249,
				"z": 1.7716409333,
				"element": "H" 
			},
			{
				"x": -0.2169696466,
				"y": -2.9734820008,
				"z": 1.389237633,
				"element": "H" 
			},
			{
				"x": -2.5358801708,
				"y": -2.1045179712,
				"z": 0.0500157471,
				"element": "H" 
			},
			{
				"x": -1.3556167305,
				"y": 1.5951134937,
				"z": -0.91858548,
				"element": "H" 
			},
			{
				"x": -0.8896506124,
				"y": 0.6564720449,
				"z": -2.334397376,
				"element": "H" 
			},
			{
				"x": 1.7364596165,
				"y": 1.135005742,
				"z": -0.6916773758,
				"element": "H" 
			}
		],
		 "valence_orbital": [ 
			{
				"type": "occ",
				"energy": -0.28932,
				"method": "rhf"
			},
			{
				"type": "occ",
				"energy": -0.28861,
				"method": "rhf"
			},
			{
				"type": "occ",
				"energy": -0.2689,
				"method": "rhf"
			},
			{
				"type": "occ",
				"energy": -0.26441,
				"method": "rhf"
			},
			{
				"type": "occ",
				"energy": -0.22181,
				"method": "rhf"
			},
			{
				"type": "unocc",
				"energy": -0.02743,
				"method": "rhf"
			},
			{
				"type": "unocc",
				"energy": -0.0177,
				"method": "rhf"
			},
			{
				"type": "unocc",
				"energy": 0.00424,
				"method": "rhf"
			},
			{
				"type": "unocc",
				"energy": 0.02445,
				"method": "rhf"
			},
			{
				"type": "unocc",
				"energy": 0.08097,
				"method": "rhf"
			}
		],
		"cosmo_sigma_profile": { 
			"-0.025": 0.0,
			"-0.024": 0.0,
			"-0.023": 0.0,
			"-0.022": 0.0,
			"-0.021": 0.0,
			"-0.02": 0.0,
			"-0.019": 0.0,
			"-0.018": 0.0,
			"-0.017": 0.0,
			"-0.016": 0.585257347413,
			"-0.015": 1.6081399602,
			"-0.014": 1.17088488753,
			"-0.013": 1.30935427816,
			"-0.012": 1.02949639697,
			"-0.011": 1.0975060655,
			"-0.01": 0.985626409921,
			"-0.009": 1.41380863081,
			"-0.008": 2.98751535186,
			"-0.007": 9.64903406807,
			"-0.006": 10.2721219107,
			"-0.005": 12.7148070129,
			"-0.004": 12.5353544161,
			"-0.003": 10.6516647034,
			"-0.002": 8.85276401464,
			"-0.001": 10.6326264231,
			"0.0": 11.0511181095,
			"0.001": 12.4042474936,
			"0.002": 15.9477138953,
			"0.003": 19.0512012348,
			"0.004": 16.6274538874,
			"0.005": 10.2036136688,
			"0.006": 1.61158859315,
			"0.007": 1.56127924872,
			"0.008": 0.867184945949,
			"0.009": 1.02430843359,
			"0.01": 1.86299646416,
			"0.011": 1.80273559602,
			"0.012": 4.60956249628,
			"0.013": 5.16088859914,
			"0.014": 1.52537878835,
			"0.015": 0.0,
			"0.016": 0.0,
			"0.017": 0.0,
			"0.018": 0.0,
			"0.019": 0.0,
			"0.02": 0.0,
			"0.021": 0.0,
			"0.022": 0.0,
			"0.023": 0.0,
			"0.024": 0.0,
			"0.025": 0.0
		}
	}
}
