{
	 "smiles": "ClC1=CC=C(C=C1)S(=O)(=O)N1C=CC=C1", 
	 "Tm": 390.15, 
	 "num_atms": 23, 
	 "gaussian": { 
		 "optdone": 1, 
		 "sigma_profile": "yes", 
		 "theory": "DFT", 
		 "functional": "B3LYP", 
		 "basiset": "6-31G**", 
		 "properties": { 
			 "R2extent": 5274.8518, 
			 "electric_dipole_moment_norm": 3.27738789435, 
			 "electric_quadrupole_moment_norm": 18.8791366519, 
			 "total_energy": -1449.36937558, 
			 "HOMO_LUMO_gap": 0.1684, 
			 "cosmo_polarized_energy": -10.89, 
			 "cosmo_cavitation_energy": 31.05, 
			 "cosmo_dispersion_energy": -22.63, 
			 "cosmo_repulsion_energy": 1.72, 
			 "cosmo_total_nonelectrostatic_energy": 10.14, 
			 "SMD_solvation_energy": 4.99 
		},
		"coords": [
			{
				"x": 1.639664719,
				"y": -3.7659635479,
				"z": 3.3690271897,
				"element": "Cl" 
			},
			{
				"x": 1.3727853847,
				"y": -2.1287830758,
				"z": 2.8088068301,
				"element": "C" 
			},
			{
				"x": 0.2468561143,
				"y": -1.4312054667,
				"z": 3.2516068543,
				"element": "C" 
			},
			{
				"x": 0.0349152946,
				"y": -0.1287146059,
				"z": 2.8052609563,
				"element": "C" 
			},
			{
				"x": 0.9507514015,
				"y": 0.4491533751,
				"z": 1.9239320838,
				"element": "C" 
			},
			{
				"x": 2.0821942826,
				"y": -0.2448294969,
				"z": 1.4906958506,
				"element": "C" 
			},
			{
				"x": 2.2953123389,
				"y": -1.5473737851,
				"z": 1.9362834769,
				"element": "C" 
			},
			{
				"x": 0.6744758308,
				"y": 2.121588435,
				"z": 1.3454247311,
				"element": "S" 
			},
			{
				"x": -0.2054343043,
				"y": 2.793922482,
				"z": 2.2963949984,
				"element": "O" 
			},
			{
				"x": 1.9547076873,
				"y": 2.6706839307,
				"z": 0.9093856632,
				"element": "O" 
			},
			{
				"x": -0.251569444,
				"y": 1.926123424,
				"z": -0.079246143,
				"element": "N" 
			},
			{
				"x": 0.2760212546,
				"y": 1.6702478935,
				"z": -1.3427086466,
				"element": "C" 
			},
			{
				"x": -0.775900874,
				"y": 1.3942384871,
				"z": -2.1750469151,
				"element": "C" 
			},
			{
				"x": -1.9800729098,
				"y": 1.4646269373,
				"z": -1.4019383977,
				"element": "C" 
			},
			{
				"x": -1.6365329333,
				"y": 1.7818981901,
				"z": -0.1147592773,
				"element": "C" 
			},
			{
				"x": -0.4477487065,
				"y": -1.8998755317,
				"z": 3.9392654062,
				"element": "H" 
			},
			{
				"x": -0.8208866724,
				"y": 0.4403650289,
				"z": 3.1506533689,
				"element": "H" 
			},
			{
				"x": 2.7944613644,
				"y": 0.2353873979,
				"z": 0.8291758039,
				"element": "H" 
			},
			{
				"x": 3.168470637,
				"y": -2.1049086655,
				"z": 1.6172884482,
				"element": "H" 
			},
			{
				"x": 1.336908883,
				"y": 1.7506965988,
				"z": -1.5177048016,
				"element": "H" 
			},
			{
				"x": -0.6996255505,
				"y": 1.1826842394,
				"z": -3.2325357654,
				"element": "H" 
			},
			{
				"x": -2.9882384525,
				"y": 1.3164356377,
				"z": -1.7631821685,
				"element": "H" 
			},
			{
				"x": -2.2265153456,
				"y": 1.9588021181,
				"z": 0.7702204536,
				"element": "H" 
			}
		],
		 "valence_orbital": [ 
			{
				"type": "occ",
				"energy": -0.32495,
				"method": "rhf"
			},
			{
				"type": "occ",
				"energy": -0.29205,
				"method": "rhf"
			},
			{
				"type": "occ",
				"energy": -0.28227,
				"method": "rhf"
			},
			{
				"type": "occ",
				"energy": -0.25917,
				"method": "rhf"
			},
			{
				"type": "occ",
				"energy": -0.22968,
				"method": "rhf"
			},
			{
				"type": "unocc",
				"energy": -0.06128,
				"method": "rhf"
			},
			{
				"type": "unocc",
				"energy": -0.04168,
				"method": "rhf"
			},
			{
				"type": "unocc",
				"energy": 0.00618,
				"method": "rhf"
			},
			{
				"type": "unocc",
				"energy": 0.00961,
				"method": "rhf"
			},
			{
				"type": "unocc",
				"energy": 0.04565,
				"method": "rhf"
			}
		],
		"cosmo_sigma_profile": { 
			"-0.025": 0.0,
			"-0.024": 0.0,
			"-0.023": 0.0,
			"-0.022": 0.0,
			"-0.021": 0.0,
			"-0.02": 0.0,
			"-0.019": 0.0,
			"-0.018": 0.0,
			"-0.017": 0.0,
			"-0.016": 0.0,
			"-0.015": 0.0,
			"-0.014": 0.0,
			"-0.013": 0.0,
			"-0.012": 0.0,
			"-0.011": 0.0,
			"-0.01": 0.0,
			"-0.009": 1.98872913323,
			"-0.008": 9.25450289919,
			"-0.007": 11.4802349768,
			"-0.006": 15.2927771867,
			"-0.005": 11.1928202842,
			"-0.004": 14.3130604428,
			"-0.003": 12.52900892,
			"-0.002": 15.617062962,
			"-0.001": 20.3147350547,
			"0.0": 28.7903533373,
			"0.001": 24.0399502255,
			"0.002": 15.0584891248,
			"0.003": 15.8155662114,
			"0.004": 16.8094262071,
			"0.005": 8.79935323749,
			"0.006": 8.88508993192,
			"0.007": 3.67661771177,
			"0.008": 4.15597862218,
			"0.009": 7.46008774873,
			"0.01": 6.7959955217,
			"0.011": 0.612695760466,
			"0.012": 0.0,
			"0.013": 0.0,
			"0.014": 0.0,
			"0.015": 0.0,
			"0.016": 0.0,
			"0.017": 0.0,
			"0.018": 0.0,
			"0.019": 0.0,
			"0.02": 0.0,
			"0.021": 0.0,
			"0.022": 0.0,
			"0.023": 0.0,
			"0.024": 0.0,
			"0.025": 0.0
		}
	}
}
