{
	 "smiles": "COC(=O)CCC(N)C(O)=O", 
	 "Tm": 455.15, 
	 "num_atms": 22, 
	 "gaussian": { 
		 "optdone": 1, 
		 "sigma_profile": "yes", 
		 "theory": "DFT", 
		 "functional": "B3LYP", 
		 "basiset": "6-31G**", 
		 "properties": { 
			 "R2extent": 3162.741, 
			 "electric_dipole_moment_norm": 6.04371033886, 
			 "electric_quadrupole_moment_norm": 17.5168642513, 
			 "total_energy": -590.94057261, 
			 "HOMO_LUMO_gap": 0.23936, 
			 "cosmo_polarized_energy": -15.07, 
			 "cosmo_cavitation_energy": 25.43, 
			 "cosmo_dispersion_energy": -18.78, 
			 "cosmo_repulsion_energy": 1.54, 
			 "cosmo_total_nonelectrostatic_energy": 8.2, 
			 "SMD_solvation_energy": 6.38 
		},
		"coords": [
			{
				"x": 2.7858616435,
				"y": -1.5667204058,
				"z": -0.5890186311,
				"element": "C" 
			},
			{
				"x": 2.176731223,
				"y": -1.0748443011,
				"z": 0.6187758923,
				"element": "O" 
			},
			{
				"x": 1.1497856269,
				"y": -0.2208042658,
				"z": 0.4500488848,
				"element": "C" 
			},
			{
				"x": 0.7693021564,
				"y": 0.1373787287,
				"z": -0.650022693,
				"element": "O" 
			},
			{
				"x": 0.5426255644,
				"y": 0.1656376073,
				"z": 1.7848547296,
				"element": "C" 
			},
			{
				"x": -0.069246112,
				"y": 1.5721308331,
				"z": 1.885534948,
				"element": "C" 
			},
			{
				"x": -1.3128775713,
				"y": 1.8419774168,
				"z": 1.0164662417,
				"element": "C" 
			},
			{
				"x": -1.0979423731,
				"y": 2.3730424786,
				"z": -0.3396271685,
				"element": "N" 
			},
			{
				"x": -2.3120622338,
				"y": 2.7790609157,
				"z": 1.7408739022,
				"element": "C" 
			},
			{
				"x": -3.0587779527,
				"y": 3.4976460605,
				"z": 0.8927363961,
				"element": "O" 
			},
			{
				"x": -2.4390539311,
				"y": 2.8278308708,
				"z": 2.9433850123,
				"element": "O" 
			},
			{
				"x": 3.1984361036,
				"y": -0.7412338586,
				"z": -1.1738129941,
				"element": "H" 
			},
			{
				"x": 2.0530228457,
				"y": -2.1005667387,
				"z": -1.1988081631,
				"element": "H" 
			},
			{
				"x": 3.5782520647,
				"y": -2.2399470723,
				"z": -0.263538592,
				"element": "H" 
			},
			{
				"x": 1.3080960916,
				"y": 0.0317231242,
				"z": 2.5542779143,
				"element": "H" 
			},
			{
				"x": -0.231138716,
				"y": -0.5855493263,
				"z": 1.9992934575,
				"element": "H" 
			},
			{
				"x": -0.3684483643,
				"y": 1.7205128602,
				"z": 2.9272844622,
				"element": "H" 
			},
			{
				"x": 0.6936907255,
				"y": 2.3306214285,
				"z": 1.6670102693,
				"element": "H" 
			},
			{
				"x": -1.8660784206,
				"y": 0.8995769942,
				"z": 0.8947084378,
				"element": "H" 
			},
			{
				"x": -0.402917156,
				"y": 3.1178673368,
				"z": -0.3035344563,
				"element": "H" 
			},
			{
				"x": -0.688231531,
				"y": 1.6402858043,
				"z": -0.9152290951,
				"element": "H" 
			},
			{
				"x": -2.6913296833,
				"y": 3.2810735088,
				"z": -0.0000587546,
				"element": "H" 
			}
		],
		 "valence_orbital": [ 
			{
				"type": "occ",
				"energy": -0.32052,
				"method": "rhf"
			},
			{
				"type": "occ",
				"energy": -0.30089,
				"method": "rhf"
			},
			{
				"type": "occ",
				"energy": -0.29749,
				"method": "rhf"
			},
			{
				"type": "occ",
				"energy": -0.2758,
				"method": "rhf"
			},
			{
				"type": "occ",
				"energy": -0.24819,
				"method": "rhf"
			},
			{
				"type": "unocc",
				"energy": -0.00883,
				"method": "rhf"
			},
			{
				"type": "unocc",
				"energy": 0.0198,
				"method": "rhf"
			},
			{
				"type": "unocc",
				"energy": 0.08334,
				"method": "rhf"
			},
			{
				"type": "unocc",
				"energy": 0.09282,
				"method": "rhf"
			},
			{
				"type": "unocc",
				"energy": 0.1048,
				"method": "rhf"
			}
		],
		"cosmo_sigma_profile": { 
			"-0.025": 0.0,
			"-0.024": 0.0,
			"-0.023": 0.0,
			"-0.022": 0.0,
			"-0.021": 0.0,
			"-0.02": 0.0,
			"-0.019": 0.0,
			"-0.018": 0.0,
			"-0.017": 0.0,
			"-0.016": 0.0,
			"-0.015": 0.0,
			"-0.014": 0.0,
			"-0.013": 0.0,
			"-0.012": 0.0,
			"-0.011": 1.74216348132,
			"-0.01": 2.09919596514,
			"-0.009": 2.46920124569,
			"-0.008": 2.70989169378,
			"-0.007": 9.82541598866,
			"-0.006": 13.4774450447,
			"-0.005": 18.6383293744,
			"-0.004": 21.1868638508,
			"-0.003": 20.7846614695,
			"-0.002": 14.2703048179,
			"-0.001": 8.99502015377,
			"0.0": 8.04245299651,
			"0.001": 6.47482023436,
			"0.002": 6.85463764256,
			"0.003": 6.12579845665,
			"0.004": 5.12770511605,
			"0.005": 5.62676556461,
			"0.006": 4.62471076755,
			"0.007": 5.92310755455,
			"0.008": 6.54426275645,
			"0.009": 5.26060369386,
			"0.01": 6.36193152212,
			"0.011": 6.11739849437,
			"0.012": 6.27387912796,
			"0.013": 3.02145943211,
			"0.014": 0.621017920544,
			"0.015": 0.0,
			"0.016": 0.0,
			"0.017": 0.0,
			"0.018": 0.0,
			"0.019": 0.0,
			"0.02": 0.0,
			"0.021": 0.0,
			"0.022": 0.0,
			"0.023": 0.0,
			"0.024": 0.0,
			"0.025": 0.0
		}
	}
}
