{
	 "smiles": "OC1=CC=CC(=C1)C#N", 
	 "Tm": 353.95, 
	 "num_atms": 14, 
	 "gaussian": { 
		 "optdone": 1, 
		 "sigma_profile": "yes", 
		 "theory": "DFT", 
		 "functional": "B3LYP", 
		 "basiset": "6-31G**", 
		 "properties": { 
			 "R2extent": 2036.6272, 
			 "electric_dipole_moment_norm": 3.56831174227, 
			 "electric_quadrupole_moment_norm": 23.675205507, 
			 "total_energy": -399.711529488, 
			 "HOMO_LUMO_gap": 0.1933, 
			 "cosmo_polarized_energy": -12.4, 
			 "cosmo_cavitation_energy": 19.61, 
			 "cosmo_dispersion_energy": -14.07, 
			 "cosmo_repulsion_energy": 1.16, 
			 "cosmo_total_nonelectrostatic_energy": 6.7, 
			 "SMD_solvation_energy": 5.25 
		},
		"coords": [
			{
				"x": 0.1830773506,
				"y": 0.8799914887,
				"z": 0.8902538751,
				"element": "O" 
			},
			{
				"x": -0.8683204224,
				"y": 0.5273091741,
				"z": 0.0994030025,
				"element": "C" 
			},
			{
				"x": -2.1491723684,
				"y": 0.8960333831,
				"z": 0.5329960115,
				"element": "C" 
			},
			{
				"x": -3.2632181035,
				"y": 0.5635250779,
				"z": -0.2328133886,
				"element": "C" 
			},
			{
				"x": -3.1264916052,
				"y": -0.1349968852,
				"z": -1.4324779385,
				"element": "C" 
			},
			{
				"x": -1.8422522753,
				"y": -0.5017188577,
				"z": -1.8620448421,
				"element": "C" 
			},
			{
				"x": -0.7102677584,
				"y": -0.1721170881,
				"z": -1.0983239072,
				"element": "C" 
			},
			{
				"x": -1.674850436,
				"y": -1.2206200955,
				"z": -3.092458945,
				"element": "C" 
			},
			{
				"x": -1.537096443,
				"y": -1.8034675667,
				"z": -4.0897163482,
				"element": "N" 
			},
			{
				"x": 1.0078629302,
				"y": 0.573811108,
				"z": 0.4908173018,
				"element": "H" 
			},
			{
				"x": -2.2462050749,
				"y": 1.4389925938,
				"z": 1.4670582191,
				"element": "H" 
			},
			{
				"x": -4.2517450253,
				"y": 0.8528542025,
				"z": 0.1101935689,
				"element": "H" 
			},
			{
				"x": -3.9914901914,
				"y": -0.395554421,
				"z": -2.0312996917,
				"element": "H" 
			},
			{
				"x": 0.277269423,
				"y": -0.4634421139,
				"z": -1.4449869176,
				"element": "H" 
			}
		],
		 "valence_orbital": [ 
			{
				"type": "occ",
				"energy": -0.35619,
				"method": "rhf"
			},
			{
				"type": "occ",
				"energy": -0.33404,
				"method": "rhf"
			},
			{
				"type": "occ",
				"energy": -0.3317,
				"method": "rhf"
			},
			{
				"type": "occ",
				"energy": -0.27123,
				"method": "rhf"
			},
			{
				"type": "occ",
				"energy": -0.24553,
				"method": "rhf"
			},
			{
				"type": "unocc",
				"energy": -0.05223,
				"method": "rhf"
			},
			{
				"type": "unocc",
				"energy": -0.01391,
				"method": "rhf"
			},
			{
				"type": "unocc",
				"energy": 0.03609,
				"method": "rhf"
			},
			{
				"type": "unocc",
				"energy": 0.05413,
				"method": "rhf"
			},
			{
				"type": "unocc",
				"energy": 0.07798,
				"method": "rhf"
			}
		],
		"cosmo_sigma_profile": { 
			"-0.025": 0.0,
			"-0.024": 0.0,
			"-0.023": 0.0,
			"-0.022": 0.0,
			"-0.021": 0.0,
			"-0.02": 0.0,
			"-0.019": 0.212757566044,
			"-0.018": 1.39741594021,
			"-0.017": 0.96820731464,
			"-0.016": 1.38846303375,
			"-0.015": 1.00594625122,
			"-0.014": 1.0052426518,
			"-0.013": 0.74377073906,
			"-0.012": 1.14815103917,
			"-0.011": 1.13067231944,
			"-0.01": 1.21130773469,
			"-0.009": 1.63449549532,
			"-0.008": 2.53646778844,
			"-0.007": 7.27535228367,
			"-0.006": 8.73309545944,
			"-0.005": 9.16700459377,
			"-0.004": 6.40927958404,
			"-0.003": 6.50474779561,
			"-0.002": 6.34618396977,
			"-0.001": 10.9144556966,
			"0.0": 9.69315822988,
			"0.001": 11.8135371759,
			"0.002": 16.934793588,
			"0.003": 11.4988013377,
			"0.004": 4.90951074326,
			"0.005": 2.83113347865,
			"0.006": 4.40923957761,
			"0.007": 4.02391254519,
			"0.008": 4.73263270863,
			"0.009": 4.78647018982,
			"0.01": 5.0827513935,
			"0.011": 3.93175016603,
			"0.012": 2.46453415129,
			"0.013": 1.54142811489,
			"0.014": 0.0716996219481,
			"0.015": 0.0,
			"0.016": 0.0,
			"0.017": 0.0,
			"0.018": 0.0,
			"0.019": 0.0,
			"0.02": 0.0,
			"0.021": 0.0,
			"0.022": 0.0,
			"0.023": 0.0,
			"0.024": 0.0,
			"0.025": 0.0
		}
	}
}
