{
	 "smiles": "BrC1=NN=C(Br)S1", 
	 "Tm": 378.15, 
	 "num_atms": 7, 
	 "gaussian": { 
		 "optdone": 1, 
		 "sigma_profile": "yes", 
		 "theory": "DFT", 
		 "functional": "B3LYP", 
		 "basiset": "6-31G**", 
		 "properties": { 
			 "R2extent": 4897.226, 
			 "electric_dipole_moment_norm": 2.79854485224, 
			 "electric_quadrupole_moment_norm": 7.69921088749, 
			 "total_energy": -5726.64962112, 
			 "HOMO_LUMO_gap": 0.20925, 
			 "cosmo_polarized_energy": -6.4, 
			 "cosmo_cavitation_energy": 18.57, 
			 "cosmo_dispersion_energy": -15.47, 
			 "cosmo_repulsion_energy": 1.26, 
			 "cosmo_total_nonelectrostatic_energy": 4.35, 
			 "SMD_solvation_energy": -1.2 
		},
		"coords": [
			{
				"x": 0.7938851535,
				"y": -1.7654311196,
				"z": -4.668544122,
				"element": "Br" 
			},
			{
				"x": 0.5423222959,
				"y": -1.4252991816,
				"z": -2.8393620996,
				"element": "C" 
			},
			{
				"x": 1.1418852028,
				"y": -0.465633062,
				"z": -2.2077981275,
				"element": "N" 
			},
			{
				"x": 0.7965486454,
				"y": -0.4176003433,
				"z": -0.8787963105,
				"element": "N" 
			},
			{
				"x": -0.0511855139,
				"y": -1.3427660294,
				"z": -0.5551753637,
				"element": "C" 
			},
			{
				"x": -0.7269727681,
				"y": -1.5536392192,
				"z": 1.1837322947,
				"element": "Br" 
			},
			{
				"x": -0.5367830156,
				"y": -2.4019310449,
				"z": -1.8637562714,
				"element": "S" 
			}
		],
		 "valence_orbital": [ 
			{
				"type": "occ",
				"energy": -0.32392,
				"method": "rhf"
			},
			{
				"type": "occ",
				"energy": -0.32107,
				"method": "rhf"
			},
			{
				"type": "occ",
				"energy": -0.31622,
				"method": "rhf"
			},
			{
				"type": "occ",
				"energy": -0.29318,
				"method": "rhf"
			},
			{
				"type": "occ",
				"energy": -0.27638,
				"method": "rhf"
			},
			{
				"type": "unocc",
				"energy": -0.06713,
				"method": "rhf"
			},
			{
				"type": "unocc",
				"energy": -0.03964,
				"method": "rhf"
			},
			{
				"type": "unocc",
				"energy": -0.0386,
				"method": "rhf"
			},
			{
				"type": "unocc",
				"energy": -0.00401,
				"method": "rhf"
			},
			{
				"type": "unocc",
				"energy": -0.00253,
				"method": "rhf"
			}
		],
		"cosmo_sigma_profile": { 
			"-0.025": 0.0,
			"-0.024": 0.0,
			"-0.023": 0.0,
			"-0.022": 0.0,
			"-0.021": 0.0,
			"-0.02": 0.0,
			"-0.019": 0.0,
			"-0.018": 0.0,
			"-0.017": 0.0,
			"-0.016": 0.0,
			"-0.015": 0.0,
			"-0.014": 0.0,
			"-0.013": 0.0,
			"-0.012": 0.0,
			"-0.011": 0.0,
			"-0.01": 0.0,
			"-0.009": 0.0,
			"-0.008": 1.07700951168,
			"-0.007": 3.0669338609,
			"-0.006": 4.13472289723,
			"-0.005": 13.6648628634,
			"-0.004": 15.6253894899,
			"-0.003": 13.1182611639,
			"-0.002": 15.3119978892,
			"-0.001": 13.4952218768,
			"0.0": 13.3901716105,
			"0.001": 19.1557553167,
			"0.002": 18.6309454356,
			"0.003": 5.23230687181,
			"0.004": 3.12935212436,
			"0.005": 2.12585085557,
			"0.006": 2.62806006057,
			"0.007": 2.76713752974,
			"0.008": 2.44194598303,
			"0.009": 3.61855179062,
			"0.01": 2.59979849319,
			"0.011": 2.49522110456,
			"0.012": 1.94338600204,
			"0.013": 0.441685895569,
			"0.014": 0.0,
			"0.015": 0.0,
			"0.016": 0.0,
			"0.017": 0.0,
			"0.018": 0.0,
			"0.019": 0.0,
			"0.02": 0.0,
			"0.021": 0.0,
			"0.022": 0.0,
			"0.023": 0.0,
			"0.024": 0.0,
			"0.025": 0.0
		}
	}
}
