{
	 "smiles": "CC(=O)NCC1=CC=C(Br)C=C1", 
	 "Tm": 388.15, 
	 "num_atms": 22, 
	 "gaussian": { 
		 "optdone": 1, 
		 "sigma_profile": "yes", 
		 "theory": "DFT", 
		 "functional": "B3LYP", 
		 "basiset": "6-31G**", 
		 "properties": { 
			 "R2extent": 5298.0037, 
			 "electric_dipole_moment_norm": 3.13478867549, 
			 "electric_quadrupole_moment_norm": 23.3989285881, 
			 "total_energy": -3050.38092635, 
			 "HOMO_LUMO_gap": 0.21734, 
			 "cosmo_polarized_energy": -13.23, 
			 "cosmo_cavitation_energy": 28.64, 
			 "cosmo_dispersion_energy": -20.95, 
			 "cosmo_repulsion_energy": 1.69, 
			 "cosmo_total_nonelectrostatic_energy": 9.38, 
			 "SMD_solvation_energy": 4.5 
		},
		"coords": [
			{
				"x": 2.2881818248,
				"y": 3.2598043376,
				"z": 1.3772508146,
				"element": "C" 
			},
			{
				"x": 2.9996960733,
				"y": 2.2807631828,
				"z": 0.4546539603,
				"element": "C" 
			},
			{
				"x": 4.1946774213,
				"y": 2.0412772424,
				"z": 0.5604406579,
				"element": "O" 
			},
			{
				"x": 2.2431078986,
				"y": 1.651041233,
				"z": -0.5076236684,
				"element": "N" 
			},
			{
				"x": 0.8625574214,
				"y": 1.8963463171,
				"z": -0.8869460832,
				"element": "C" 
			},
			{
				"x": 0.0636806661,
				"y": 0.6185326188,
				"z": -1.08724396,
				"element": "C" 
			},
			{
				"x": -0.8943804228,
				"y": 0.5413989751,
				"z": -2.1038739526,
				"element": "C" 
			},
			{
				"x": -1.6704316125,
				"y": -0.6049138797,
				"z": -2.2790137572,
				"element": "C" 
			},
			{
				"x": -1.476126853,
				"y": -1.6898307986,
				"z": -1.4268829864,
				"element": "C" 
			},
			{
				"x": -2.525751002,
				"y": -3.2700301702,
				"z": -1.6604070808,
				"element": "Br" 
			},
			{
				"x": -0.5224403384,
				"y": -1.6426109665,
				"z": -0.4108537891,
				"element": "C" 
			},
			{
				"x": 0.2413786487,
				"y": -0.4875075027,
				"z": -0.2473249619,
				"element": "C" 
			},
			{
				"x": 1.4506705426,
				"y": 2.7901951221,
				"z": 1.9039579027,
				"element": "H" 
			},
			{
				"x": 1.8962098022,
				"y": 4.1207519659,
				"z": 0.8251845686,
				"element": "H" 
			},
			{
				"x": 3.0172684885,
				"y": 3.6099902994,
				"z": 2.1071571256,
				"element": "H" 
			},
			{
				"x": 2.7928827084,
				"y": 1.0524248542,
				"z": -1.1118695329,
				"element": "H" 
			},
			{
				"x": 0.8060521543,
				"y": 2.5002260409,
				"z": -1.8045536627,
				"element": "H" 
			},
			{
				"x": 0.3967068243,
				"y": 2.4955324746,
				"z": -0.0988745606,
				"element": "H" 
			},
			{
				"x": -1.0395105936,
				"y": 1.3855551194,
				"z": -2.7737185535,
				"element": "H" 
			},
			{
				"x": -2.4089093834,
				"y": -0.657199682,
				"z": -3.0708866037,
				"element": "H" 
			},
			{
				"x": -0.37839041,
				"y": -2.4962398615,
				"z": 0.2417471603,
				"element": "H" 
			},
			{
				"x": 0.9923701411,
				"y": -0.4489069219,
				"z": 0.5360809632,
				"element": "H" 
			}
		],
		 "valence_orbital": [ 
			{
				"type": "occ",
				"energy": -0.29111,
				"method": "rhf"
			},
			{
				"type": "occ",
				"energy": -0.27123,
				"method": "rhf"
			},
			{
				"type": "occ",
				"energy": -0.25799,
				"method": "rhf"
			},
			{
				"type": "occ",
				"energy": -0.24924,
				"method": "rhf"
			},
			{
				"type": "occ",
				"energy": -0.24114,
				"method": "rhf"
			},
			{
				"type": "unocc",
				"energy": -0.0238,
				"method": "rhf"
			},
			{
				"type": "unocc",
				"energy": -0.02249,
				"method": "rhf"
			},
			{
				"type": "unocc",
				"energy": 0.00271,
				"method": "rhf"
			},
			{
				"type": "unocc",
				"energy": 0.02611,
				"method": "rhf"
			},
			{
				"type": "unocc",
				"energy": 0.08322,
				"method": "rhf"
			}
		],
		"cosmo_sigma_profile": { 
			"-0.025": 0.0,
			"-0.024": 0.0,
			"-0.023": 0.0,
			"-0.022": 0.0,
			"-0.021": 0.0,
			"-0.02": 0.0,
			"-0.019": 0.0,
			"-0.018": 0.0,
			"-0.017": 0.0,
			"-0.016": 0.0,
			"-0.015": 0.0,
			"-0.014": 0.0,
			"-0.013": 0.542686927281,
			"-0.012": 1.05703984596,
			"-0.011": 0.834795004739,
			"-0.01": 0.845110002372,
			"-0.009": 0.861599912561,
			"-0.008": 1.09002938173,
			"-0.007": 6.64569110111,
			"-0.006": 18.1344149096,
			"-0.005": 19.2467088394,
			"-0.004": 19.0589008392,
			"-0.003": 18.386669091,
			"-0.002": 14.4578729649,
			"-0.001": 17.2398129987,
			"0.0": 13.7677024423,
			"0.001": 11.8397593548,
			"0.002": 17.6448557925,
			"0.003": 18.2567666022,
			"0.004": 20.0689162107,
			"0.005": 9.73675820506,
			"0.006": 1.39951318682,
			"0.007": 0.679007449427,
			"0.008": 2.05824914403,
			"0.009": 1.41608462664,
			"0.01": 0.619156076232,
			"0.011": 1.63725923939,
			"0.012": 1.48287502963,
			"0.013": 2.83388653031,
			"0.014": 6.24059481222,
			"0.015": 2.55075056236,
			"0.016": 0.133715192862,
			"0.017": 0.0,
			"0.018": 0.0,
			"0.019": 0.0,
			"0.02": 0.0,
			"0.021": 0.0,
			"0.022": 0.0,
			"0.023": 0.0,
			"0.024": 0.0,
			"0.025": 0.0
		}
	}
}
