{
	 "smiles": "CC1(C)NC(=O)N(CCBr)C1=O", 
	 "Tm": 371.15, 
	 "num_atms": 23, 
	 "gaussian": { 
		 "optdone": 1, 
		 "sigma_profile": "yes", 
		 "theory": "DFT", 
		 "functional": "B3LYP", 
		 "basiset": "6-31G**", 
		 "properties": { 
			 "R2extent": 4912.3859, 
			 "electric_dipole_moment_norm": 4.60101235056, 
			 "electric_quadrupole_moment_norm": 14.9523879534, 
			 "total_energy": -3104.7876692, 
			 "HOMO_LUMO_gap": 0.25176, 
			 "cosmo_polarized_energy": -15.13, 
			 "cosmo_cavitation_energy": 28.95, 
			 "cosmo_dispersion_energy": -20.47, 
			 "cosmo_repulsion_energy": 1.67, 
			 "cosmo_total_nonelectrostatic_energy": 10.14, 
			 "SMD_solvation_energy": 4.88 
		},
		"coords": [
			{
				"x": 0.6526511006,
				"y": 2.5810420848,
				"z": -0.081897178,
				"element": "C" 
			},
			{
				"x": 1.3636053646,
				"y": 1.2849244617,
				"z": 0.33967606,
				"element": "C" 
			},
			{
				"x": 2.734962213,
				"y": 1.1495261411,
				"z": -0.3412820047,
				"element": "C" 
			},
			{
				"x": 1.4470809827,
				"y": 1.1429308955,
				"z": 1.7925239468,
				"element": "N" 
			},
			{
				"x": 0.7553822884,
				"y": 0.0749953873,
				"z": 2.2897536297,
				"element": "C" 
			},
			{
				"x": 0.6251972382,
				"y": -0.2840631026,
				"z": 3.4440321522,
				"element": "O" 
			},
			{
				"x": 0.1842218528,
				"y": -0.5762877906,
				"z": 1.1672109329,
				"element": "N" 
			},
			{
				"x": -0.6114386107,
				"y": -1.7910895072,
				"z": 1.2792873534,
				"element": "C" 
			},
			{
				"x": -2.034343072,
				"y": -1.4661377803,
				"z": 1.7281052716,
				"element": "C" 
			},
			{
				"x": -3.0962737746,
				"y": -3.123594323,
				"z": 1.8604719195,
				"element": "Br" 
			},
			{
				"x": 0.4837375381,
				"y": 0.0679062068,
				"z": -0.01675867,
				"element": "C" 
			},
			{
				"x": 0.1280694409,
				"y": -0.2602259088,
				"z": -1.1313870845,
				"element": "O" 
			},
			{
				"x": 0.4791268428,
				"y": 2.5725524577,
				"z": -1.1609778775,
				"element": "H" 
			},
			{
				"x": -0.3106093974,
				"y": 2.6818532066,
				"z": 0.4260337228,
				"element": "H" 
			},
			{
				"x": 1.2680838882,
				"y": 3.4520340386,
				"z": 0.1659762961,
				"element": "H" 
			},
			{
				"x": 3.2449860364,
				"y": 0.2398675908,
				"z": -0.0127338012,
				"element": "H" 
			},
			{
				"x": 2.6056795258,
				"y": 1.1056986794,
				"z": -1.4257294105,
				"element": "H" 
			},
			{
				"x": 3.3680243751,
				"y": 2.0091647331,
				"z": -0.0985168007,
				"element": "H" 
			},
			{
				"x": 1.9145011015,
				"y": 1.7861221292,
				"z": 2.4118840532,
				"element": "H" 
			},
			{
				"x": -0.614167734,
				"y": -2.2663237352,
				"z": 0.296659405,
				"element": "H" 
			},
			{
				"x": -0.1325205083,
				"y": -2.4534097103,
				"z": 2.0035203116,
				"element": "H" 
			},
			{
				"x": -2.0442600397,
				"y": -1.0155358796,
				"z": 2.7191918787,
				"element": "H" 
			},
			{
				"x": -2.5505966524,
				"y": -0.829250275,
				"z": 1.0105558936,
				"element": "H" 
			}
		],
		 "valence_orbital": [ 
			{
				"type": "occ",
				"energy": -0.28834,
				"method": "rhf"
			},
			{
				"type": "occ",
				"energy": -0.27648,
				"method": "rhf"
			},
			{
				"type": "occ",
				"energy": -0.27408,
				"method": "rhf"
			},
			{
				"type": "occ",
				"energy": -0.27059,
				"method": "rhf"
			},
			{
				"type": "occ",
				"energy": -0.26856,
				"method": "rhf"
			},
			{
				"type": "unocc",
				"energy": -0.0168,
				"method": "rhf"
			},
			{
				"type": "unocc",
				"energy": 0.00111,
				"method": "rhf"
			},
			{
				"type": "unocc",
				"energy": 0.05434,
				"method": "rhf"
			},
			{
				"type": "unocc",
				"energy": 0.06778,
				"method": "rhf"
			},
			{
				"type": "unocc",
				"energy": 0.09277,
				"method": "rhf"
			}
		],
		"cosmo_sigma_profile": { 
			"-0.025": 0.0,
			"-0.024": 0.0,
			"-0.023": 0.0,
			"-0.022": 0.0,
			"-0.021": 0.0,
			"-0.02": 0.0,
			"-0.019": 0.0,
			"-0.018": 0.0,
			"-0.017": 0.0,
			"-0.016": 0.12578548285,
			"-0.015": 1.13445252191,
			"-0.014": 1.11159674483,
			"-0.013": 1.50772721703,
			"-0.012": 0.797124359713,
			"-0.011": 1.05251584393,
			"-0.01": 0.750606637232,
			"-0.009": 1.18188153418,
			"-0.008": 2.08508934755,
			"-0.007": 4.87089865516,
			"-0.006": 11.1412039538,
			"-0.005": 20.3160119985,
			"-0.004": 21.5463546547,
			"-0.003": 22.0522690574,
			"-0.002": 17.949619172,
			"-0.001": 21.5712793877,
			"0.0": 16.4405026544,
			"0.001": 9.35767869722,
			"0.002": 7.29405524484,
			"0.003": 8.83048203967,
			"0.004": 7.5717717965,
			"0.005": 12.0847868959,
			"0.006": 10.4465325398,
			"0.007": 2.62046119936,
			"0.008": 2.79469440965,
			"0.009": 2.37432129194,
			"0.01": 2.39399563087,
			"0.011": 5.04868694588,
			"0.012": 8.3459144065,
			"0.013": 5.20209299241,
			"0.014": 0.605943330651,
			"0.015": 0.0,
			"0.016": 0.0,
			"0.017": 0.0,
			"0.018": 0.0,
			"0.019": 0.0,
			"0.02": 0.0,
			"0.021": 0.0,
			"0.022": 0.0,
			"0.023": 0.0,
			"0.024": 0.0,
			"0.025": 0.0
		}
	}
}
