{
	 "smiles": "CCN1CCN(CC1)C1=C(F)C=C(C=C1)C(C)=O", 
	 "Tm": 342.15, 
	 "num_atms": 37, 
	 "gaussian": { 
		 "optdone": 1, 
		 "sigma_profile": "yes", 
		 "theory": "DFT", 
		 "functional": "B3LYP", 
		 "basiset": "6-31G**", 
		 "properties": { 
			 "R2extent": 7685.9624, 
			 "electric_dipole_moment_norm": 4.77377547545, 
			 "electric_quadrupole_moment_norm": 21.0853253077, 
			 "total_energy": -829.493739304, 
			 "HOMO_LUMO_gap": 0.15254, 
			 "cosmo_polarized_energy": -11.7, 
			 "cosmo_cavitation_energy": 38.08, 
			 "cosmo_dispersion_energy": -27.41, 
			 "cosmo_repulsion_energy": 2.08, 
			 "cosmo_total_nonelectrostatic_energy": 12.75, 
			 "SMD_solvation_energy": 3.76 
		},
		"coords": [
			{
				"x": -4.3112373882,
				"y": -1.7506908957,
				"z": 0.2225017685,
				"element": "C" 
			},
			{
				"x": -3.0483259404,
				"y": -1.1127483918,
				"z": 0.8060746924,
				"element": "C" 
			},
			{
				"x": -2.7453089225,
				"y": 0.1855326292,
				"z": 0.1918479171,
				"element": "N" 
			},
			{
				"x": -2.1992640731,
				"y": 0.1184533247,
				"z": -1.1663648883,
				"element": "C" 
			},
			{
				"x": -0.7139484135,
				"y": -0.2660525236,
				"z": -1.2215779234,
				"element": "C" 
			},
			{
				"x": 0.0821960801,
				"y": 0.6491396439,
				"z": -0.3804766237,
				"element": "N" 
			},
			{
				"x": -0.4086895088,
				"y": 0.7017146053,
				"z": 0.997457613,
				"element": "C" 
			},
			{
				"x": -1.9041816898,
				"y": 1.06523211,
				"z": 1.0001620594,
				"element": "C" 
			},
			{
				"x": 1.4633843288,
				"y": 0.7041259007,
				"z": -0.5884381407,
				"element": "C" 
			},
			{
				"x": 1.9972401158,
				"y": 0.9665756528,
				"z": -1.8737485169,
				"element": "C" 
			},
			{
				"x": 1.1414876386,
				"y": 1.1578765919,
				"z": -2.9098516054,
				"element": "F" 
			},
			{
				"x": 3.3473556107,
				"y": 1.0605023208,
				"z": -2.1224246538,
				"element": "C" 
			},
			{
				"x": 4.2715124593,
				"y": 0.9211886163,
				"z": -1.0719180056,
				"element": "C" 
			},
			{
				"x": 3.7759556897,
				"y": 0.6834019272,
				"z": 0.2158846984,
				"element": "C" 
			},
			{
				"x": 2.4072764638,
				"y": 0.5714819193,
				"z": 0.4499481897,
				"element": "C" 
			},
			{
				"x": 5.723502592,
				"y": 1.0420355183,
				"z": -1.3907934014,
				"element": "C" 
			},
			{
				"x": 6.7344446358,
				"y": 0.9109840061,
				"z": -0.2619554599,
				"element": "C" 
			},
			{
				"x": 6.0984708721,
				"y": 1.2431125407,
				"z": -2.5380830468,
				"element": "O" 
			},
			{
				"x": -5.158475669,
				"y": -1.0644534289,
				"z": 0.3087640912,
				"element": "H" 
			},
			{
				"x": -4.1927164374,
				"y": -2.0098734676,
				"z": -0.8344166824,
				"element": "H" 
			},
			{
				"x": -4.5508435569,
				"y": -2.674969212,
				"z": 0.7586689602,
				"element": "H" 
			},
			{
				"x": -3.2111834841,
				"y": -0.9294841648,
				"z": 1.8745453931,
				"element": "H" 
			},
			{
				"x": -2.2136252459,
				"y": -1.8344920862,
				"z": 0.7445125723,
				"element": "H" 
			},
			{
				"x": -2.7802066482,
				"y": -0.5909461892,
				"z": -1.7628017549,
				"element": "H" 
			},
			{
				"x": -2.3173534992,
				"y": 1.1066906945,
				"z": -1.6288549287,
				"element": "H" 
			},
			{
				"x": -0.57366435,
				"y": -1.3049633918,
				"z": -0.8763150009,
				"element": "H" 
			},
			{
				"x": -0.360950631,
				"y": -0.2099038483,
				"z": -2.2495493546,
				"element": "H" 
			},
			{
				"x": -0.2478585243,
				"y": -0.2564097502,
				"z": 1.5243925418,
				"element": "H" 
			},
			{
				"x": 0.1451138346,
				"y": 1.4734010179,
				"z": 1.540762138,
				"element": "H" 
			},
			{
				"x": -2.003862943,
				"y": 2.0847286336,
				"z": 0.6048962177,
				"element": "H" 
			},
			{
				"x": -2.2745055941,
				"y": 1.0723500624,
				"z": 2.0310673932,
				"element": "H" 
			},
			{
				"x": 3.7025565502,
				"y": 1.267847652,
				"z": -3.1255643377,
				"element": "H" 
			},
			{
				"x": 4.45642109,
				"y": 0.5663850384,
				"z": 1.0529256398,
				"element": "H" 
			},
			{
				"x": 2.0636047223,
				"y": 0.3600136568,
				"z": 1.4552664881,
				"element": "H" 
			},
			{
				"x": 6.5723676081,
				"y": 1.6777885493,
				"z": 0.5035512965,
				"element": "H" 
			},
			{
				"x": 6.6518683104,
				"y": -0.0645358045,
				"z": 0.2299938383,
				"element": "H" 
			},
			{
				"x": 7.7361439169,
				"y": 1.0218605423,
				"z": -0.6779891834,
				"element": "H" 
			}
		],
		 "valence_orbital": [ 
			{
				"type": "occ",
				"energy": -0.28783,
				"method": "rhf"
			},
			{
				"type": "occ",
				"energy": -0.25347,
				"method": "rhf"
			},
			{
				"type": "occ",
				"energy": -0.24233,
				"method": "rhf"
			},
			{
				"type": "occ",
				"energy": -0.22093,
				"method": "rhf"
			},
			{
				"type": "occ",
				"energy": -0.20098,
				"method": "rhf"
			},
			{
				"type": "unocc",
				"energy": -0.04844,
				"method": "rhf"
			},
			{
				"type": "unocc",
				"energy": -0.00426,
				"method": "rhf"
			},
			{
				"type": "unocc",
				"energy": 0.04615,
				"method": "rhf"
			},
			{
				"type": "unocc",
				"energy": 0.07384,
				"method": "rhf"
			},
			{
				"type": "unocc",
				"energy": 0.0857,
				"method": "rhf"
			}
		],
		"cosmo_sigma_profile": { 
			"-0.025": 0.0,
			"-0.024": 0.0,
			"-0.023": 0.0,
			"-0.022": 0.0,
			"-0.021": 0.0,
			"-0.02": 0.0,
			"-0.019": 0.0,
			"-0.018": 0.0,
			"-0.017": 0.0,
			"-0.016": 0.0,
			"-0.015": 0.0,
			"-0.014": 0.0,
			"-0.013": 0.0,
			"-0.012": 0.0,
			"-0.011": 0.0,
			"-0.01": 0.0,
			"-0.009": 0.0,
			"-0.008": 0.0,
			"-0.007": 0.852819653833,
			"-0.006": 9.7669564275,
			"-0.005": 17.0486841683,
			"-0.004": 25.3109706908,
			"-0.003": 42.0188718341,
			"-0.002": 37.1446048601,
			"-0.001": 33.3294074469,
			"0.0": 24.5781111796,
			"0.001": 22.4120169785,
			"0.002": 18.5146112866,
			"0.003": 17.7772757931,
			"0.004": 15.0206645188,
			"0.005": 7.54750666531,
			"0.006": 3.93543685151,
			"0.007": 3.09626911401,
			"0.008": 2.40017889268,
			"0.009": 2.95859937076,
			"0.01": 2.39286411504,
			"0.011": 3.79995271285,
			"0.012": 4.29466880173,
			"0.013": 2.77226390979,
			"0.014": 1.14108520008,
			"0.015": 0.573290802035,
			"0.016": 0.206191933036,
			"0.017": 0.0,
			"0.018": 0.0,
			"0.019": 0.0,
			"0.02": 0.0,
			"0.021": 0.0,
			"0.022": 0.0,
			"0.023": 0.0,
			"0.024": 0.0,
			"0.025": 0.0
		}
	}
}
