{
	 "smiles": "CC1=C2N=C(N)SC2=CC=C1F", 
	 "Tm": 448.15, 
	 "num_atms": 19, 
	 "gaussian": { 
		 "optdone": 1, 
		 "sigma_profile": "yes", 
		 "theory": "DFT", 
		 "functional": "B3LYP", 
		 "basiset": "6-31G**", 
		 "properties": { 
			 "R2extent": 2723.8632, 
			 "electric_dipole_moment_norm": 3.13289570525, 
			 "electric_quadrupole_moment_norm": 10.9406102298, 
			 "total_energy": -916.615432347, 
			 "HOMO_LUMO_gap": 0.19702, 
			 "cosmo_polarized_energy": -10.23, 
			 "cosmo_cavitation_energy": 24.96, 
			 "cosmo_dispersion_energy": -19.14, 
			 "cosmo_repulsion_energy": 1.46, 
			 "cosmo_total_nonelectrostatic_energy": 7.27, 
			 "SMD_solvation_energy": 2.98 
		},
		"coords": [
			{
				"x": -2.2885654343,
				"y": -1.7017799472,
				"z": 0.7226589472,
				"element": "C" 
			},
			{
				"x": -1.6490389284,
				"y": -0.3878506582,
				"z": 0.3609878864,
				"element": "C" 
			},
			{
				"x": -0.8408643747,
				"y": -0.2256686785,
				"z": -0.7797001246,
				"element": "C" 
			},
			{
				"x": -0.5394297008,
				"y": -1.2435282218,
				"z": -1.6732719305,
				"element": "N" 
			},
			{
				"x": 0.2224268242,
				"y": -0.8115960602,
				"z": -2.627592221,
				"element": "C" 
			},
			{
				"x": 0.6302509413,
				"y": -1.5760373519,
				"z": -3.6888859507,
				"element": "N" 
			},
			{
				"x": 0.6769121414,
				"y": 0.9154387642,
				"z": -2.5589608524,
				"element": "S" 
			},
			{
				"x": -0.2650187716,
				"y": 1.0368629783,
				"z": -1.0723285835,
				"element": "C" 
			},
			{
				"x": -0.4674879064,
				"y": 2.1470584693,
				"z": -0.2580816393,
				"element": "C" 
			},
			{
				"x": -1.2674539018,
				"y": 1.9930788138,
				"z": 0.8742558224,
				"element": "C" 
			},
			{
				"x": -1.8289381899,
				"y": 0.7469086476,
				"z": 1.1487462981,
				"element": "C" 
			},
			{
				"x": -2.6019806506,
				"y": 0.6268975795,
				"z": 2.2556349272,
				"element": "F" 
			},
			{
				"x": -2.0274229893,
				"y": -2.462451759,
				"z": -0.0136380998,
				"element": "H" 
			},
			{
				"x": -3.379375023,
				"y": -1.6104783184,
				"z": 0.7633234284,
				"element": "H" 
			},
			{
				"x": -1.9606847515,
				"y": -2.0403689435,
				"z": 1.7114771231,
				"element": "H" 
			},
			{
				"x": 0.4875029631,
				"y": -2.5683070665,
				"z": -3.5565789415,
				"element": "H" 
			},
			{
				"x": 1.4962449314,
				"y": -1.3270941521,
				"z": -4.1433155832,
				"element": "H" 
			},
			{
				"x": -0.0222333504,
				"y": 3.10880328,
				"z": -0.4894811573,
				"element": "H" 
			},
			{
				"x": -1.4636438286,
				"y": 2.8209126247,
				"z": 1.5462506509,
				"element": "H" 
			}
		],
		 "valence_orbital": [ 
			{
				"type": "occ",
				"energy": -0.29701,
				"method": "rhf"
			},
			{
				"type": "occ",
				"energy": -0.29082,
				"method": "rhf"
			},
			{
				"type": "occ",
				"energy": -0.27744,
				"method": "rhf"
			},
			{
				"type": "occ",
				"energy": -0.22253,
				"method": "rhf"
			},
			{
				"type": "occ",
				"energy": -0.21338,
				"method": "rhf"
			},
			{
				"type": "unocc",
				"energy": -0.01636,
				"method": "rhf"
			},
			{
				"type": "unocc",
				"energy": -4e-05,
				"method": "rhf"
			},
			{
				"type": "unocc",
				"energy": 0.00338,
				"method": "rhf"
			},
			{
				"type": "unocc",
				"energy": 0.0471,
				"method": "rhf"
			},
			{
				"type": "unocc",
				"energy": 0.06584,
				"method": "rhf"
			}
		],
		"cosmo_sigma_profile": { 
			"-0.025": 0.0,
			"-0.024": 0.0,
			"-0.023": 0.0,
			"-0.022": 0.0,
			"-0.021": 0.0,
			"-0.02": 0.0,
			"-0.019": 0.0,
			"-0.018": 0.0,
			"-0.017": 0.0,
			"-0.016": 0.0163551208155,
			"-0.015": 1.12016861915,
			"-0.014": 2.57003617658,
			"-0.013": 2.49309903424,
			"-0.012": 2.28014885952,
			"-0.011": 3.12449784056,
			"-0.01": 2.23765870001,
			"-0.009": 1.49834103064,
			"-0.008": 2.2434083815,
			"-0.007": 5.24995964394,
			"-0.006": 5.49586583696,
			"-0.005": 6.68157063963,
			"-0.004": 8.91970956921,
			"-0.003": 8.35593446602,
			"-0.002": 11.6746453623,
			"-0.001": 11.0310893675,
			"0.0": 17.9502493763,
			"0.001": 18.1607209344,
			"0.002": 19.2342916373,
			"0.003": 21.92026985,
			"0.004": 21.7419134878,
			"0.005": 14.4502992974,
			"0.006": 2.33270548178,
			"0.007": 2.70609554684,
			"0.008": 1.77191166037,
			"0.009": 1.99503568301,
			"0.01": 2.01865462604,
			"0.011": 1.50768232948,
			"0.012": 0.990026088838,
			"0.013": 0.0709047927624,
			"0.014": 0.0,
			"0.015": 0.0,
			"0.016": 0.0,
			"0.017": 0.0,
			"0.018": 0.0,
			"0.019": 0.0,
			"0.02": 0.0,
			"0.021": 0.0,
			"0.022": 0.0,
			"0.023": 0.0,
			"0.024": 0.0,
			"0.025": 0.0
		}
	}
}
