{
	 "smiles": "CCOC(=O)C1=CC2=C(N(CC3=CC=CC=C3)C1=O)C1=CC=CC=C1OC2=O", 
	 "Tm": 485.15, 
	 "num_atms": 45, 
	 "gaussian": { 
		 "optdone": 1, 
		 "sigma_profile": "yes", 
		 "theory": "DFT", 
		 "functional": "B3LYP", 
		 "basiset": "6-31G**", 
		 "properties": { 
			 "R2extent": 11505.2839, 
			 "electric_dipole_moment_norm": 6.27954309246, 
			 "electric_quadrupole_moment_norm": 32.7769694304, 
			 "total_energy": -1279.48773942, 
			 "HOMO_LUMO_gap": 0.13954, 
			 "cosmo_polarized_energy": -22.08, 
			 "cosmo_cavitation_energy": 49.53, 
			 "cosmo_dispersion_energy": -33.95, 
			 "cosmo_repulsion_energy": 2.56, 
			 "cosmo_total_nonelectrostatic_energy": 18.14, 
			 "SMD_solvation_energy": 10.38 
		},
		"coords": [
			{
				"x": 1.6511978497,
				"y": 4.7385675228,
				"z": 3.8507103198,
				"element": "C" 
			},
			{
				"x": 0.5586318716,
				"y": 3.7379412235,
				"z": 4.1754411866,
				"element": "C" 
			},
			{
				"x": 0.7090179273,
				"y": 2.627795242,
				"z": 3.2613754306,
				"element": "O" 
			},
			{
				"x": -0.1869696198,
				"y": 1.6406255347,
				"z": 3.3973435611,
				"element": "C" 
			},
			{
				"x": -1.0709496511,
				"y": 1.6433303961,
				"z": 4.2361927079,
				"element": "O" 
			},
			{
				"x": 0.004396275,
				"y": 0.5075762159,
				"z": 2.4394119837,
				"element": "C" 
			},
			{
				"x": -0.7657042012,
				"y": -0.6040049578,
				"z": 2.6457977202,
				"element": "C" 
			},
			{
				"x": -0.6212250056,
				"y": -1.7718981491,
				"z": 1.8589549289,
				"element": "C" 
			},
			{
				"x": 0.3048799594,
				"y": -1.7941650961,
				"z": 0.8143733039,
				"element": "C" 
			},
			{
				"x": 0.9169883861,
				"y": -0.6197909607,
				"z": 0.4592838077,
				"element": "N" 
			},
			{
				"x": 1.4525302159,
				"y": -0.3552065708,
				"z": -0.909659296,
				"element": "C" 
			},
			{
				"x": 0.5355487746,
				"y": 0.5477313957,
				"z": -1.7158608273,
				"element": "C" 
			},
			{
				"x": 0.8664101042,
				"y": 1.8851532935,
				"z": -1.9619265798,
				"element": "C" 
			},
			{
				"x": 0.0295287827,
				"y": 2.6866786967,
				"z": -2.740102506,
				"element": "C" 
			},
			{
				"x": -1.1493755104,
				"y": 2.1628337988,
				"z": -3.2726368926,
				"element": "C" 
			},
			{
				"x": -1.4886851533,
				"y": 0.8300145198,
				"z": -3.0287726683,
				"element": "C" 
			},
			{
				"x": -0.6479771153,
				"y": 0.0277935135,
				"z": -2.2580626847,
				"element": "C" 
			},
			{
				"x": 0.911606844,
				"y": 0.5615299366,
				"z": 1.2955952034,
				"element": "C" 
			},
			{
				"x": 1.6137371277,
				"y": 1.500711008,
				"z": 0.9552227063,
				"element": "O" 
			},
			{
				"x": 0.6125773947,
				"y": -3.0946586811,
				"z": 0.2118229493,
				"element": "C" 
			},
			{
				"x": 1.7955541883,
				"y": -3.4254888171,
				"z": -0.4883744593,
				"element": "C" 
			},
			{
				"x": 1.998162117,
				"y": -4.6972668415,
				"z": -1.0043298147,
				"element": "C" 
			},
			{
				"x": 1.0262466136,
				"y": -5.6907154281,
				"z": -0.8260039865,
				"element": "C" 
			},
			{
				"x": -0.1090630601,
				"y": -5.4215741577,
				"z": -0.0745424504,
				"element": "C" 
			},
			{
				"x": -0.2914558131,
				"y": -4.1477204046,
				"z": 0.4710214135,
				"element": "C" 
			},
			{
				"x": -1.3701357664,
				"y": -4.004786791,
				"z": 1.2921780262,
				"element": "O" 
			},
			{
				"x": -1.5025600862,
				"y": -2.9065990731,
				"z": 2.1345881853,
				"element": "C" 
			},
			{
				"x": -2.3677702264,
				"y": -2.9429110279,
				"z": 2.9758130151,
				"element": "O" 
			},
			{
				"x": 1.5734606107,
				"y": 5.6023362709,
				"z": 4.5185716082,
				"element": "H" 
			},
			{
				"x": 1.5638477186,
				"y": 5.0881741689,
				"z": 2.8183716339,
				"element": "H" 
			},
			{
				"x": 2.6407938635,
				"y": 4.2907239285,
				"z": 3.9775478218,
				"element": "H" 
			},
			{
				"x": 0.6308095463,
				"y": 3.3637195004,
				"z": 5.2017870192,
				"element": "H" 
			},
			{
				"x": -0.4424088385,
				"y": 4.1634150966,
				"z": 4.0523793502,
				"element": "H" 
			},
			{
				"x": -1.4840227817,
				"y": -0.6074555901,
				"z": 3.4586640563,
				"element": "H" 
			},
			{
				"x": 2.4421853886,
				"y": 0.0886516604,
				"z": -0.8026178594,
				"element": "H" 
			},
			{
				"x": 1.5381831457,
				"y": -1.3046677179,
				"z": -1.425309883,
				"element": "H" 
			},
			{
				"x": 1.7699358916,
				"y": 2.2968115814,
				"z": -1.5256205967,
				"element": "H" 
			},
			{
				"x": 0.2968103391,
				"y": 3.7231973232,
				"z": -2.9244506134,
				"element": "H" 
			},
			{
				"x": -1.8012466516,
				"y": 2.7888142365,
				"z": -3.8752218967,
				"element": "H" 
			},
			{
				"x": -2.4026510266,
				"y": 0.4144632503,
				"z": -3.443184072,
				"element": "H" 
			},
			{
				"x": -0.9122874706,
				"y": -1.0122830089,
				"z": -2.0806113234,
				"element": "H" 
			},
			{
				"x": 2.584990521,
				"y": -2.691776318,
				"z": -0.5882302948,
				"element": "H" 
			},
			{
				"x": 2.9182786223,
				"y": -4.920828038,
				"z": -1.5340690233,
				"element": "H" 
			},
			{
				"x": 1.1752194205,
				"y": -6.6827189627,
				"z": -1.2408501529,
				"element": "H" 
			},
			{
				"x": -0.8527415218,
				"y": -6.1817727229,
				"z": 0.1372899421,
				"element": "H" 
			}
		],
		 "valence_orbital": [ 
			{
				"type": "occ",
				"energy": -0.26725,
				"method": "rhf"
			},
			{
				"type": "occ",
				"energy": -0.26094,
				"method": "rhf"
			},
			{
				"type": "occ",
				"energy": -0.25457,
				"method": "rhf"
			},
			{
				"type": "occ",
				"energy": -0.25037,
				"method": "rhf"
			},
			{
				"type": "occ",
				"energy": -0.23185,
				"method": "rhf"
			},
			{
				"type": "unocc",
				"energy": -0.09231,
				"method": "rhf"
			},
			{
				"type": "unocc",
				"energy": -0.04672,
				"method": "rhf"
			},
			{
				"type": "unocc",
				"energy": -0.02621,
				"method": "rhf"
			},
			{
				"type": "unocc",
				"energy": -0.0181,
				"method": "rhf"
			},
			{
				"type": "unocc",
				"energy": -0.00804,
				"method": "rhf"
			}
		],
		"cosmo_sigma_profile": { 
			"-0.025": 0.0,
			"-0.024": 0.0,
			"-0.023": 0.0,
			"-0.022": 0.0,
			"-0.021": 0.0,
			"-0.02": 0.0,
			"-0.019": 0.0,
			"-0.018": 0.0,
			"-0.017": 0.0,
			"-0.016": 0.0,
			"-0.015": 0.0,
			"-0.014": 0.0,
			"-0.013": 0.0,
			"-0.012": 0.0,
			"-0.011": 0.0,
			"-0.01": 0.0,
			"-0.009": 0.554540846959,
			"-0.008": 4.61343876503,
			"-0.007": 11.3424366144,
			"-0.006": 21.580063981,
			"-0.005": 33.4092827127,
			"-0.004": 38.0551594867,
			"-0.003": 38.4695744103,
			"-0.002": 38.5727017283,
			"-0.001": 32.4163532756,
			"0.0": 27.5021075093,
			"0.001": 24.8012150791,
			"0.002": 22.9894477269,
			"0.003": 16.6626161333,
			"0.004": 13.0648791852,
			"0.005": 15.4819150898,
			"0.006": 9.81949332658,
			"0.007": 6.24129042582,
			"0.008": 5.6787674572,
			"0.009": 4.85917422517,
			"0.01": 6.90304602416,
			"0.011": 10.4697587316,
			"0.012": 8.5149300409,
			"0.013": 3.01177674202,
			"0.014": 1.78870061648,
			"0.015": 0.382100966505,
			"0.016": 0.0,
			"0.017": 0.0,
			"0.018": 0.0,
			"0.019": 0.0,
			"0.02": 0.0,
			"0.021": 0.0,
			"0.022": 0.0,
			"0.023": 0.0,
			"0.024": 0.0,
			"0.025": 0.0
		}
	}
}
