{
	 "smiles": "CC(=O)C1=CC=C2C=CC=CC2=C1O", 
	 "Tm": 373.15, 
	 "num_atms": 24, 
	 "gaussian": { 
		 "optdone": 1, 
		 "sigma_profile": "yes", 
		 "theory": "DFT", 
		 "functional": "B3LYP", 
		 "basiset": "6-31G**", 
		 "properties": { 
			 "R2extent": 2915.1212, 
			 "electric_dipole_moment_norm": 4.83203436039, 
			 "electric_quadrupole_moment_norm": 10.3562684646, 
			 "total_energy": -613.759609374, 
			 "HOMO_LUMO_gap": 0.15707, 
			 "cosmo_polarized_energy": -12.63, 
			 "cosmo_cavitation_energy": 27.36, 
			 "cosmo_dispersion_energy": -20.57, 
			 "cosmo_repulsion_energy": 1.57, 
			 "cosmo_total_nonelectrostatic_energy": 8.36, 
			 "SMD_solvation_energy": 5.35 
		},
		"coords": [
			{
				"x": -0.9819782142,
				"y": 1.7509819638,
				"z": -2.9998742449,
				"element": "C" 
			},
			{
				"x": 0.3757923163,
				"y": 1.3994419698,
				"z": -2.425328143,
				"element": "C" 
			},
			{
				"x": 1.3875799381,
				"y": 1.6643301077,
				"z": -3.0627920727,
				"element": "O" 
			},
			{
				"x": 0.5121067604,
				"y": 0.7280558769,
				"z": -1.0864994059,
				"element": "C" 
			},
			{
				"x": 1.8451756533,
				"y": 0.4517743912,
				"z": -0.664735638,
				"element": "C" 
			},
			{
				"x": 2.1242555857,
				"y": -0.1404235324,
				"z": 0.5362954606,
				"element": "C" 
			},
			{
				"x": 1.0686644068,
				"y": -0.5225750893,
				"z": 1.4087325011,
				"element": "C" 
			},
			{
				"x": 1.3171046335,
				"y": -1.1465808529,
				"z": 2.6590436274,
				"element": "C" 
			},
			{
				"x": 0.2833412516,
				"y": -1.5258918188,
				"z": 3.4859435759,
				"element": "C" 
			},
			{
				"x": -1.0556920957,
				"y": -1.3039148044,
				"z": 3.0916707956,
				"element": "C" 
			},
			{
				"x": -1.3299303674,
				"y": -0.6974599569,
				"z": 1.8850889307,
				"element": "C" 
			},
			{
				"x": -0.2864705668,
				"y": -0.2786034161,
				"z": 1.0156942165,
				"element": "C" 
			},
			{
				"x": -0.5365853078,
				"y": 0.3710416091,
				"z": -0.2408813203,
				"element": "C" 
			},
			{
				"x": -1.8170453286,
				"y": 0.6403808454,
				"z": -0.6223092451,
				"element": "O" 
			},
			{
				"x": -1.5244761643,
				"y": 2.4315502215,
				"z": -2.3373597076,
				"element": "H" 
			},
			{
				"x": -0.8237519887,
				"y": 2.2178069255,
				"z": -3.9729895112,
				"element": "H" 
			},
			{
				"x": -1.6088156747,
				"y": 0.8606425439,
				"z": -3.1045559686,
				"element": "H" 
			},
			{
				"x": 2.6340389723,
				"y": 0.7465493197,
				"z": -1.3474817231,
				"element": "H" 
			},
			{
				"x": 3.1506461042,
				"y": -0.3302743353,
				"z": 0.8365702122,
				"element": "H" 
			},
			{
				"x": 2.3485607247,
				"y": -1.3233232478,
				"z": 2.9517479513,
				"element": "H" 
			},
			{
				"x": 0.4924097302,
				"y": -2.002741134,
				"z": 4.4389255047,
				"element": "H" 
			},
			{
				"x": -1.8697468827,
				"y": -1.6181955286,
				"z": 3.7375628224,
				"element": "H" 
			},
			{
				"x": -2.3749935321,
				"y": -0.5713549897,
				"z": 1.6085003924,
				"element": "H" 
			},
			{
				"x": -2.4176899542,
				"y": 0.4739829314,
				"z": 0.1140309896,
				"element": "H" 
			}
		],
		 "valence_orbital": [ 
			{
				"type": "occ",
				"energy": -0.31955,
				"method": "rhf"
			},
			{
				"type": "occ",
				"energy": -0.27987,
				"method": "rhf"
			},
			{
				"type": "occ",
				"energy": -0.25264,
				"method": "rhf"
			},
			{
				"type": "occ",
				"energy": -0.23959,
				"method": "rhf"
			},
			{
				"type": "occ",
				"energy": -0.21515,
				"method": "rhf"
			},
			{
				"type": "unocc",
				"energy": -0.05808,
				"method": "rhf"
			},
			{
				"type": "unocc",
				"energy": -0.03326,
				"method": "rhf"
			},
			{
				"type": "unocc",
				"energy": 0.0155,
				"method": "rhf"
			},
			{
				"type": "unocc",
				"energy": 0.03646,
				"method": "rhf"
			},
			{
				"type": "unocc",
				"energy": 0.04837,
				"method": "rhf"
			}
		],
		"cosmo_sigma_profile": { 
			"-0.025": 0.0,
			"-0.024": 0.0,
			"-0.023": 0.0,
			"-0.022": 0.0,
			"-0.021": 0.0,
			"-0.02": 0.0,
			"-0.019": 0.18386962591,
			"-0.018": 0.800321814481,
			"-0.017": 0.886996538528,
			"-0.016": 0.754383969919,
			"-0.015": 0.78933579941,
			"-0.014": 1.12313020509,
			"-0.013": 0.846201772539,
			"-0.012": 0.818824379,
			"-0.011": 1.24975763515,
			"-0.01": 0.917821837219,
			"-0.009": 1.13035759627,
			"-0.008": 1.01784906613,
			"-0.007": 2.42661453388,
			"-0.006": 11.6667187395,
			"-0.005": 12.3932771941,
			"-0.004": 16.2954477238,
			"-0.003": 14.2821544901,
			"-0.002": 13.9292504479,
			"-0.001": 16.4654088685,
			"0.0": 15.5316634781,
			"0.001": 16.451221295,
			"0.002": 18.0905952799,
			"0.003": 22.8595869468,
			"0.004": 20.5871505389,
			"0.005": 8.16671540609,
			"0.006": 2.73567891168,
			"0.007": 2.0362903391,
			"0.008": 2.03910031331,
			"0.009": 1.27078879002,
			"0.01": 1.9393174239,
			"0.011": 2.2902945778,
			"0.012": 3.92648841134,
			"0.013": 2.38700524033,
			"0.014": 0.740673934182,
			"0.015": 0.0,
			"0.016": 0.0,
			"0.017": 0.0,
			"0.018": 0.0,
			"0.019": 0.0,
			"0.02": 0.0,
			"0.021": 0.0,
			"0.022": 0.0,
			"0.023": 0.0,
			"0.024": 0.0,
			"0.025": 0.0
		}
	}
}
