{
	 "smiles": "CCC1=CC=C(C=C1)C(N)=O", 
	 "Tm": 436.15, 
	 "num_atms": 22, 
	 "gaussian": { 
		 "optdone": 1, 
		 "sigma_profile": "yes", 
		 "theory": "DFT", 
		 "functional": "B3LYP", 
		 "basiset": "6-31G**", 
		 "properties": { 
			 "R2extent": 3035.626, 
			 "electric_dipole_moment_norm": 3.73355519177, 
			 "electric_quadrupole_moment_norm": 18.734716901, 
			 "total_energy": -479.593394746, 
			 "HOMO_LUMO_gap": 0.2086, 
			 "cosmo_polarized_energy": -12.68, 
			 "cosmo_cavitation_energy": 25.66, 
			 "cosmo_dispersion_energy": -18.66, 
			 "cosmo_repulsion_energy": 1.52, 
			 "cosmo_total_nonelectrostatic_energy": 8.51, 
			 "SMD_solvation_energy": 5.14 
		},
		"coords": [
			{
				"x": -2.2868480273,
				"y": -1.4560528959,
				"z": -1.6759390569,
				"element": "C" 
			},
			{
				"x": -1.2137270412,
				"y": -0.3720791743,
				"z": -1.4648371392,
				"element": "C" 
			},
			{
				"x": -0.4701737177,
				"y": -0.5318433444,
				"z": -0.1564759769,
				"element": "C" 
			},
			{
				"x": 0.697175564,
				"y": -1.3038702172,
				"z": -0.0806055716,
				"element": "C" 
			},
			{
				"x": 1.3612582882,
				"y": -1.486852489,
				"z": 1.1310537757,
				"element": "C" 
			},
			{
				"x": 0.8713524836,
				"y": -0.897517997,
				"z": 2.3047257683,
				"element": "C" 
			},
			{
				"x": -0.2835662744,
				"y": -0.1079923279,
				"z": 2.2320959621,
				"element": "C" 
			},
			{
				"x": -0.9453423366,
				"y": 0.0654430861,
				"z": 1.0207701776,
				"element": "C" 
			},
			{
				"x": 1.5312915837,
				"y": -1.0404088604,
				"z": 3.6451412183,
				"element": "C" 
			},
			{
				"x": 2.4416455365,
				"y": -2.0657135231,
				"z": 3.7715908393,
				"element": "N" 
			},
			{
				"x": 1.292603046,
				"y": -0.2769135606,
				"z": 4.5733313341,
				"element": "O" 
			},
			{
				"x": -3.03267119,
				"y": -1.4310085141,
				"z": -0.8749372642,
				"element": "H" 
			},
			{
				"x": -1.8395362992,
				"y": -2.4553316125,
				"z": -1.681162114,
				"element": "H" 
			},
			{
				"x": -2.806361791,
				"y": -1.3111152407,
				"z": -2.6288114601,
				"element": "H" 
			},
			{
				"x": -1.6882008961,
				"y": 0.6158395032,
				"z": -1.4964090895,
				"element": "H" 
			},
			{
				"x": -0.5005852847,
				"y": -0.4031226385,
				"z": -2.2970913728,
				"element": "H" 
			},
			{
				"x": 1.0977938464,
				"y": -1.7566429938,
				"z": -0.9844609071,
				"element": "H" 
			},
			{
				"x": 2.2850908865,
				"y": -2.0582731735,
				"z": 1.146706398,
				"element": "H" 
			},
			{
				"x": -0.6392515186,
				"y": 0.3643402268,
				"z": 3.1416521213,
				"element": "H" 
			},
			{
				"x": -1.841846331,
				"y": 0.6797728783,
				"z": 0.982245765,
				"element": "H" 
			},
			{
				"x": 2.7768855354,
				"y": -2.2248911815,
				"z": 4.7109167832,
				"element": "H" 
			},
			{
				"x": 2.3852139375,
				"y": -2.8711659499,
				"z": 3.1680998094,
				"element": "H" 
			}
		],
		 "valence_orbital": [ 
			{
				"type": "occ",
				"energy": -0.33609,
				"method": "rhf"
			},
			{
				"type": "occ",
				"energy": -0.2694,
				"method": "rhf"
			},
			{
				"type": "occ",
				"energy": -0.25557,
				"method": "rhf"
			},
			{
				"type": "occ",
				"energy": -0.25003,
				"method": "rhf"
			},
			{
				"type": "occ",
				"energy": -0.24205,
				"method": "rhf"
			},
			{
				"type": "unocc",
				"energy": -0.03345,
				"method": "rhf"
			},
			{
				"type": "unocc",
				"energy": -0.00655,
				"method": "rhf"
			},
			{
				"type": "unocc",
				"energy": 0.05896,
				"method": "rhf"
			},
			{
				"type": "unocc",
				"energy": 0.08163,
				"method": "rhf"
			},
			{
				"type": "unocc",
				"energy": 0.096,
				"method": "rhf"
			}
		],
		"cosmo_sigma_profile": { 
			"-0.025": 0.0,
			"-0.024": 0.0,
			"-0.023": 0.0,
			"-0.022": 0.0,
			"-0.021": 0.0,
			"-0.02": 0.0,
			"-0.019": 0.0,
			"-0.018": 0.0,
			"-0.017": 0.0,
			"-0.016": 0.0,
			"-0.015": 0.0572483388313,
			"-0.014": 0.86628501666,
			"-0.013": 2.31717167618,
			"-0.012": 2.62608848063,
			"-0.011": 2.47477085183,
			"-0.01": 2.24932492678,
			"-0.009": 2.57816471756,
			"-0.008": 2.1096817718,
			"-0.007": 2.45823412348,
			"-0.006": 5.13395468467,
			"-0.005": 8.05646532973,
			"-0.004": 13.1266866455,
			"-0.003": 17.423214198,
			"-0.002": 19.3102820959,
			"-0.001": 18.1755183639,
			"0.0": 19.3841569711,
			"0.001": 17.5944919903,
			"0.002": 11.8067400745,
			"0.003": 9.64163061847,
			"0.004": 12.517116954,
			"0.005": 10.2149756804,
			"0.006": 2.52112017487,
			"0.007": 1.80573561138,
			"0.008": 2.15549684186,
			"0.009": 1.61491622331,
			"0.01": 1.61978604996,
			"0.011": 1.50771664961,
			"0.012": 2.03261052196,
			"0.013": 3.90438620472,
			"0.014": 4.76980722317,
			"0.015": 0.462185337963,
			"0.016": 0.0,
			"0.017": 0.0,
			"0.018": 0.0,
			"0.019": 0.0,
			"0.02": 0.0,
			"0.021": 0.0,
			"0.022": 0.0,
			"0.023": 0.0,
			"0.024": 0.0,
			"0.025": 0.0
		}
	}
}
