{
	 "smiles": "CC1=NN=C2SC(SCC(O)=O)=NN2C1=O", 
	 "Tm": 474.15, 
	 "num_atms": 22, 
	 "gaussian": { 
		 "optdone": 1, 
		 "sigma_profile": "yes", 
		 "theory": "DFT", 
		 "functional": "B3LYP", 
		 "basiset": "6-31G**", 
		 "properties": { 
			 "R2extent": 5214.9575, 
			 "electric_dipole_moment_norm": 3.86782610002, 
			 "electric_quadrupole_moment_norm": 21.8666236809, 
			 "total_energy": -1511.34050241, 
			 "HOMO_LUMO_gap": 0.16019, 
			 "cosmo_polarized_energy": -23.01, 
			 "cosmo_cavitation_energy": 31.6, 
			 "cosmo_dispersion_energy": -23.4, 
			 "cosmo_repulsion_energy": 1.74, 
			 "cosmo_total_nonelectrostatic_energy": 9.95, 
			 "SMD_solvation_energy": 4.26 
		},
		"coords": [
			{
				"x": 2.7155871404,
				"y": 3.486291339,
				"z": 0.9041633176,
				"element": "C" 
			},
			{
				"x": 1.6319722349,
				"y": 2.4636159457,
				"z": 0.7435979529,
				"element": "C" 
			},
			{
				"x": 0.3951662819,
				"y": 2.8707159165,
				"z": 0.6384563451,
				"element": "N" 
			},
			{
				"x": -0.6439223856,
				"y": 1.9773037207,
				"z": 0.4890315344,
				"element": "N" 
			},
			{
				"x": -0.3389538405,
				"y": 0.7220851812,
				"z": 0.4528482782,
				"element": "C" 
			},
			{
				"x": -1.4821472034,
				"y": -0.6140885002,
				"z": 0.2811037241,
				"element": "S" 
			},
			{
				"x": -0.0928412061,
				"y": -1.7153372426,
				"z": 0.3352179137,
				"element": "C" 
			},
			{
				"x": -0.2693050575,
				"y": -3.477493351,
				"z": 0.2671189769,
				"element": "S" 
			},
			{
				"x": -0.4984419229,
				"y": -3.7275274097,
				"z": -1.5442985472,
				"element": "C" 
			},
			{
				"x": 0.7242916472,
				"y": -3.533401404,
				"z": -2.4572083492,
				"element": "C" 
			},
			{
				"x": 1.9332812227,
				"y": -3.417626459,
				"z": -1.8916625144,
				"element": "O" 
			},
			{
				"x": 0.5679720421,
				"y": -3.5206858966,
				"z": -3.6520306307,
				"element": "O" 
			},
			{
				"x": 1.0676854848,
				"y": -1.1651936536,
				"z": 0.4799749189,
				"element": "N" 
			},
			{
				"x": 0.938887477,
				"y": 0.1933159063,
				"z": 0.5532704805,
				"element": "N" 
			},
			{
				"x": 2.0641126396,
				"y": 1.0502550812,
				"z": 0.7174029858,
				"element": "C" 
			},
			{
				"x": 3.19812726,
				"y": 0.6334171717,
				"z": 0.8171205955,
				"element": "O" 
			},
			{
				"x": 3.2673406685,
				"y": 3.3175812546,
				"z": 1.8350660734,
				"element": "H" 
			},
			{
				"x": 2.2774098549,
				"y": 4.4845211122,
				"z": 0.9092242301,
				"element": "H" 
			},
			{
				"x": 3.4437293956,
				"y": 3.4040424725,
				"z": 0.0902023976,
				"element": "H" 
			},
			{
				"x": -1.3091083831,
				"y": -3.1017438956,
				"z": -1.9212655371,
				"element": "H" 
			},
			{
				"x": -0.8239285579,
				"y": -4.7687521984,
				"z": -1.6358093412,
				"element": "H" 
			},
			{
				"x": 1.8679852074,
				"y": -3.408495091,
				"z": -0.9206248048,
				"element": "H" 
			}
		],
		 "valence_orbital": [ 
			{
				"type": "occ",
				"energy": -0.31568,
				"method": "rhf"
			},
			{
				"type": "occ",
				"energy": -0.30238,
				"method": "rhf"
			},
			{
				"type": "occ",
				"energy": -0.28195,
				"method": "rhf"
			},
			{
				"type": "occ",
				"energy": -0.26374,
				"method": "rhf"
			},
			{
				"type": "occ",
				"energy": -0.25953,
				"method": "rhf"
			},
			{
				"type": "unocc",
				"energy": -0.09934,
				"method": "rhf"
			},
			{
				"type": "unocc",
				"energy": -0.05908,
				"method": "rhf"
			},
			{
				"type": "unocc",
				"energy": -0.04705,
				"method": "rhf"
			},
			{
				"type": "unocc",
				"energy": -0.03572,
				"method": "rhf"
			},
			{
				"type": "unocc",
				"energy": -0.01588,
				"method": "rhf"
			}
		],
		"cosmo_sigma_profile": { 
			"-0.025": 0.0,
			"-0.024": 0.0,
			"-0.023": 0.0,
			"-0.022": 0.0,
			"-0.021": 0.0,
			"-0.02": 0.0,
			"-0.019": 0.0,
			"-0.018": 0.0,
			"-0.017": 0.0,
			"-0.016": 0.0,
			"-0.015": 0.15153870555,
			"-0.014": 0.234489840797,
			"-0.013": 0.451825572017,
			"-0.012": 1.28150873355,
			"-0.011": 4.21574919896,
			"-0.01": 5.57079154146,
			"-0.009": 10.8324062971,
			"-0.008": 9.76657999497,
			"-0.007": 8.91808151799,
			"-0.006": 14.2566006763,
			"-0.005": 16.2520941745,
			"-0.004": 17.4967137721,
			"-0.003": 17.7010755386,
			"-0.002": 19.1599405937,
			"-0.001": 17.718918557,
			"0.0": 13.2346310059,
			"0.001": 10.3002191366,
			"0.002": 9.38980192212,
			"0.003": 7.25554941814,
			"0.004": 5.10138124566,
			"0.005": 6.94289857117,
			"0.006": 5.63504783259,
			"0.007": 5.69627014398,
			"0.008": 6.09517393329,
			"0.009": 9.55241260368,
			"0.01": 9.8798461719,
			"0.011": 13.4622167327,
			"0.012": 8.47272545422,
			"0.013": 2.4642659082,
			"0.014": 0.992643775968,
			"0.015": 0.0617977631828,
			"0.016": 0.0,
			"0.017": 0.0,
			"0.018": 0.0,
			"0.019": 0.0,
			"0.02": 0.0,
			"0.021": 0.0,
			"0.022": 0.0,
			"0.023": 0.0,
			"0.024": 0.0,
			"0.025": 0.0
		}
	}
}
