{
	 "smiles": "OC(=O)C1=C2C=CC=CC2=CC=C1", 
	 "Tm": 435.15, 
	 "num_atms": 21, 
	 "gaussian": { 
		 "optdone": 1, 
		 "sigma_profile": "yes", 
		 "theory": "DFT", 
		 "functional": "B3LYP", 
		 "basiset": "6-31G**", 
		 "properties": { 
			 "R2extent": 2680.7968, 
			 "electric_dipole_moment_norm": 4.46602336089, 
			 "electric_quadrupole_moment_norm": 16.9913700372, 
			 "total_energy": -574.456768779, 
			 "HOMO_LUMO_gap": 0.16525, 
			 "cosmo_polarized_energy": -13.48, 
			 "cosmo_cavitation_energy": 24.95, 
			 "cosmo_dispersion_energy": -18.74, 
			 "cosmo_repulsion_energy": 1.45, 
			 "cosmo_total_nonelectrostatic_energy": 7.66, 
			 "SMD_solvation_energy": 5.06 
		},
		"coords": [
			{
				"x": -4.442290417,
				"y": 0.503183369,
				"z": -0.2672391775,
				"element": "O" 
			},
			{
				"x": -3.2389775869,
				"y": 1.0329557188,
				"z": -0.6260183991,
				"element": "C" 
			},
			{
				"x": -3.2025112759,
				"y": 1.9189951716,
				"z": -1.448147059,
				"element": "O" 
			},
			{
				"x": -2.0443051709,
				"y": 0.4580381996,
				"z": 0.0798869148,
				"element": "C" 
			},
			{
				"x": -0.7746170692,
				"y": 0.3341653924,
				"z": -0.5810930316,
				"element": "C" 
			},
			{
				"x": -0.5547083534,
				"y": 0.6971886446,
				"z": -1.9391980501,
				"element": "C" 
			},
			{
				"x": 0.6825978808,
				"y": 0.527443906,
				"z": -2.5207933319,
				"element": "C" 
			},
			{
				"x": 1.7646511527,
				"y": -0.0105363581,
				"z": -1.7853620021,
				"element": "C" 
			},
			{
				"x": 1.5867357066,
				"y": -0.3709525455,
				"z": -0.4701863895,
				"element": "C" 
			},
			{
				"x": 0.3254096393,
				"y": -0.2110575699,
				"z": 0.1644179885,
				"element": "C" 
			},
			{
				"x": 0.1420277763,
				"y": -0.5789936312,
				"z": 1.5240760859,
				"element": "C" 
			},
			{
				"x": -1.07809445,
				"y": -0.4285379171,
				"z": 2.1395544915,
				"element": "C" 
			},
			{
				"x": -2.1715556839,
				"y": 0.0846473905,
				"z": 1.4093598977,
				"element": "C" 
			},
			{
				"x": -4.3001649739,
				"y": -0.2882338152,
				"z": 0.2709368724,
				"element": "H" 
			},
			{
				"x": -1.370395238,
				"y": 1.1280589631,
				"z": -2.5043844189,
				"element": "H" 
			},
			{
				"x": 0.8298895581,
				"y": 0.8137528652,
				"z": -3.5580975266,
				"element": "H" 
			},
			{
				"x": 2.7326407865,
				"y": -0.1364763166,
				"z": -2.2614221975,
				"element": "H" 
			},
			{
				"x": 2.4095101315,
				"y": -0.7854356817,
				"z": 0.1063622619,
				"element": "H" 
			},
			{
				"x": 0.9902741149,
				"y": -0.9783962021,
				"z": 2.0739019108,
				"element": "H" 
			},
			{
				"x": -1.208156802,
				"y": -0.6975246283,
				"z": 3.1831313495,
				"element": "H" 
			},
			{
				"x": -3.1196597255,
				"y": 0.2270150448,
				"z": 1.9215138108,
				"element": "H" 
			}
		],
		 "valence_orbital": [ 
			{
				"type": "occ",
				"energy": -0.31608,
				"method": "rhf"
			},
			{
				"type": "occ",
				"energy": -0.29582,
				"method": "rhf"
			},
			{
				"type": "occ",
				"energy": -0.26894,
				"method": "rhf"
			},
			{
				"type": "occ",
				"energy": -0.257,
				"method": "rhf"
			},
			{
				"type": "occ",
				"energy": -0.22951,
				"method": "rhf"
			},
			{
				"type": "unocc",
				"energy": -0.06426,
				"method": "rhf"
			},
			{
				"type": "unocc",
				"energy": -0.02407,
				"method": "rhf"
			},
			{
				"type": "unocc",
				"energy": -0.00491,
				"method": "rhf"
			},
			{
				"type": "unocc",
				"energy": 0.04832,
				"method": "rhf"
			},
			{
				"type": "unocc",
				"energy": 0.07038,
				"method": "rhf"
			}
		],
		"cosmo_sigma_profile": { 
			"-0.025": 0.0,
			"-0.024": 0.0,
			"-0.023": 0.0,
			"-0.022": 0.0,
			"-0.021": 0.0,
			"-0.02": 0.0,
			"-0.019": 0.0,
			"-0.018": 0.478397573166,
			"-0.017": 0.929665686949,
			"-0.016": 0.653991484304,
			"-0.015": 1.35743002822,
			"-0.014": 1.02069062264,
			"-0.013": 0.393824078673,
			"-0.012": 1.3537667811,
			"-0.011": 1.2344510183,
			"-0.01": 0.993189936493,
			"-0.009": 1.10054087872,
			"-0.008": 2.15732908773,
			"-0.007": 6.24534708499,
			"-0.006": 13.792585554,
			"-0.005": 13.5044050539,
			"-0.004": 14.0738783834,
			"-0.003": 11.8547557509,
			"-0.002": 11.191339348,
			"-0.001": 9.61785718585,
			"0.0": 10.7099509006,
			"0.001": 11.7068490721,
			"0.002": 17.4125375223,
			"0.003": 21.2235559001,
			"0.004": 14.2360481586,
			"0.005": 6.76810614893,
			"0.006": 2.88856077049,
			"0.007": 2.76294734131,
			"0.008": 2.3148870768,
			"0.009": 3.74093245275,
			"0.01": 5.07129903396,
			"0.011": 4.85826528251,
			"0.012": 3.86458332643,
			"0.013": 1.21409429325,
			"0.014": 0.0161045765207,
			"0.015": 0.0,
			"0.016": 0.0,
			"0.017": 0.0,
			"0.018": 0.0,
			"0.019": 0.0,
			"0.02": 0.0,
			"0.021": 0.0,
			"0.022": 0.0,
			"0.023": 0.0,
			"0.024": 0.0,
			"0.025": 0.0
		}
	}
}
