{
	 "smiles": "N#CN=C1CCCN1", 
	 "Tm": 400.15, 
	 "num_atms": 15, 
	 "gaussian": { 
		 "optdone": 1, 
		 "sigma_profile": "yes", 
		 "theory": "DFT", 
		 "functional": "B3LYP", 
		 "basiset": "6-31G**", 
		 "properties": { 
			 "R2extent": 1394.3868, 
			 "electric_dipole_moment_norm": 7.89019737332, 
			 "electric_quadrupole_moment_norm": 27.6839299183, 
			 "total_energy": -358.988958887, 
			 "HOMO_LUMO_gap": 0.21922, 
			 "cosmo_polarized_energy": -18.42, 
			 "cosmo_cavitation_energy": 19.23, 
			 "cosmo_dispersion_energy": -14.09, 
			 "cosmo_repulsion_energy": 1.2, 
			 "cosmo_total_nonelectrostatic_energy": 6.34, 
			 "SMD_solvation_energy": 3.48 
		},
		"coords": [
			{
				"x": -0.0344072601,
				"y": 4.3154016954,
				"z": -1.3631918551,
				"element": "N" 
			},
			{
				"x": -0.298417446,
				"y": 3.4331953453,
				"z": -0.6406133189,
				"element": "C" 
			},
			{
				"x": -0.671959156,
				"y": 2.4910708568,
				"z": 0.2250529678,
				"element": "N" 
			},
			{
				"x": -0.0627426734,
				"y": 1.3428030163,
				"z": 0.2008025533,
				"element": "C" 
			},
			{
				"x": 1.0944860122,
				"y": 0.8714715794,
				"z": -0.6599545874,
				"element": "C" 
			},
			{
				"x": 1.1298065322,
				"y": -0.6521739165,
				"z": -0.4238545946,
				"element": "C" 
			},
			{
				"x": 0.4672764648,
				"y": -0.8315647403,
				"z": 0.9602032999,
				"element": "C" 
			},
			{
				"x": -0.4024503614,
				"y": 0.338025949,
				"z": 1.0376767686,
				"element": "N" 
			},
			{
				"x": 0.9567582831,
				"y": 1.1626243498,
				"z": -1.703772298,
				"element": "H" 
			},
			{
				"x": 2.0071696903,
				"y": 1.367887559,
				"z": -0.3074050873,
				"element": "H" 
			},
			{
				"x": 0.5307816824,
				"y": -1.1606422264,
				"z": -1.185039167,
				"element": "H" 
			},
			{
				"x": 2.138058874,
				"y": -1.0698253517,
				"z": -0.455286438,
				"element": "H" 
			},
			{
				"x": 1.2094460205,
				"y": -0.8270391965,
				"z": 1.7710700672,
				"element": "H" 
			},
			{
				"x": -0.1110912689,
				"y": -1.7569702689,
				"z": 1.0368130814,
				"element": "H" 
			},
			{
				"x": -1.0780153937,
				"y": 0.4927353493,
				"z": 1.772498608,
				"element": "H" 
			}
		],
		 "valence_orbital": [ 
			{
				"type": "occ",
				"energy": -0.34764,
				"method": "rhf"
			},
			{
				"type": "occ",
				"energy": -0.32606,
				"method": "rhf"
			},
			{
				"type": "occ",
				"energy": -0.32024,
				"method": "rhf"
			},
			{
				"type": "occ",
				"energy": -0.25555,
				"method": "rhf"
			},
			{
				"type": "occ",
				"energy": -0.23712,
				"method": "rhf"
			},
			{
				"type": "unocc",
				"energy": -0.0179,
				"method": "rhf"
			},
			{
				"type": "unocc",
				"energy": 0.05868,
				"method": "rhf"
			},
			{
				"type": "unocc",
				"energy": 0.08255,
				"method": "rhf"
			},
			{
				"type": "unocc",
				"energy": 0.09215,
				"method": "rhf"
			},
			{
				"type": "unocc",
				"energy": 0.09662,
				"method": "rhf"
			}
		],
		"cosmo_sigma_profile": { 
			"-0.025": 0.0,
			"-0.024": 0.0,
			"-0.023": 0.0,
			"-0.022": 0.0,
			"-0.021": 0.0,
			"-0.02": 0.0,
			"-0.019": 0.0,
			"-0.018": 0.0,
			"-0.017": 0.0,
			"-0.016": 0.175714435679,
			"-0.015": 1.35344353325,
			"-0.014": 1.199709025,
			"-0.013": 1.30816943609,
			"-0.012": 0.88866179995,
			"-0.011": 1.06680526289,
			"-0.01": 0.693214724442,
			"-0.009": 1.06534685428,
			"-0.008": 0.78608029735,
			"-0.007": 3.78623923314,
			"-0.006": 10.5677609581,
			"-0.005": 19.6555575559,
			"-0.004": 20.9428442043,
			"-0.003": 14.6332607357,
			"-0.002": 9.67343574894,
			"-0.001": 7.02559804752,
			"0.0": 3.07975606753,
			"0.001": 3.09371053366,
			"0.002": 3.79084525589,
			"0.003": 4.68024425086,
			"0.004": 3.68499292884,
			"0.005": 3.91493349108,
			"0.006": 3.06742113031,
			"0.007": 3.49183868371,
			"0.008": 3.11619533047,
			"0.009": 3.19583253183,
			"0.01": 3.16993109552,
			"0.011": 4.10557093168,
			"0.012": 4.79774105925,
			"0.013": 4.10591961773,
			"0.014": 3.2635235469,
			"0.015": 2.74551549672,
			"0.016": 0.754069983486,
			"0.017": 0.0,
			"0.018": 0.0,
			"0.019": 0.0,
			"0.02": 0.0,
			"0.021": 0.0,
			"0.022": 0.0,
			"0.023": 0.0,
			"0.024": 0.0,
			"0.025": 0.0
		}
	}
}
