{
	 "smiles": "CCC[C@H]1O[C@@H]2C[C@H]3[C@@H]4CCC5=CC(=O)C=C[C@]5(C)[C@H]4[C@@H](O)C[C@]3(C)[C@@]2(O1)C(=O)CO", 
	 "Tm": 499.65, 
	 "num_atms": 65, 
	 "gaussian": { 
		 "optdone": 1, 
		 "sigma_profile": "yes", 
		 "theory": "DFT", 
		 "functional": "B3LYP", 
		 "basiset": "6-31G**", 
		 "properties": { 
			 "R2extent": 15523.5217, 
			 "electric_dipole_moment_norm": 2.95629420221, 
			 "electric_quadrupole_moment_norm": 50.8620830667, 
			 "total_energy": -1424.44850854, 
			 "HOMO_LUMO_gap": 0.1757, 
			 "cosmo_polarized_energy": -23.56, 
			 "cosmo_cavitation_energy": 58.4, 
			 "cosmo_dispersion_energy": -39.09, 
			 "cosmo_repulsion_energy": 2.9, 
			 "cosmo_total_nonelectrostatic_energy": 22.21, 
			 "SMD_solvation_energy": 9.75 
		},
		"coords": [
			{
				"x": -1.2506221693,
				"y": -5.5680559852,
				"z": -2.8357247641,
				"element": "C" 
			},
			{
				"x": -0.7971247095,
				"y": -4.3368653425,
				"z": -2.0454362115,
				"element": "C" 
			},
			{
				"x": -1.0258907577,
				"y": -3.0270718471,
				"z": -2.8093863183,
				"element": "C" 
			},
			{
				"x": -0.5652680689,
				"y": -1.7984292077,
				"z": -2.0460856977,
				"element": "C" 
			},
			{
				"x": -0.7859533991,
				"y": -0.6364680303,
				"z": -2.8122875549,
				"element": "O" 
			},
			{
				"x": -1.0303249344,
				"y": 0.4404402613,
				"z": -1.9114835079,
				"element": "C" 
			},
			{
				"x": 0.2495699531,
				"y": 1.1222897363,
				"z": -1.3571312885,
				"element": "C" 
			},
			{
				"x": 0.4069555091,
				"y": 0.5417928287,
				"z": 0.0601108408,
				"element": "C" 
			},
			{
				"x": 1.3254930044,
				"y": 1.2062840061,
				"z": 1.0960333331,
				"element": "C" 
			},
			{
				"x": 2.7742013866,
				"y": 1.4854373029,
				"z": 0.5877419204,
				"element": "C" 
			},
			{
				"x": 3.8466443414,
				"y": 0.5727088974,
				"z": 1.2054368419,
				"element": "C" 
			},
			{
				"x": 3.7627100454,
				"y": 0.3875962659,
				"z": 2.7120903497,
				"element": "C" 
			},
			{
				"x": 4.780899606,
				"y": -0.1656393776,
				"z": 3.3980945124,
				"element": "C" 
			},
			{
				"x": 4.6577019558,
				"y": -0.615889562,
				"z": 4.7962733225,
				"element": "C" 
			},
			{
				"x": 5.6040133094,
				"y": -1.0940718139,
				"z": 5.4185611268,
				"element": "O" 
			},
			{
				"x": 3.306231183,
				"y": -0.5076879258,
				"z": 5.3893930048,
				"element": "C" 
			},
			{
				"x": 2.2934462215,
				"y": 0.072226488,
				"z": 4.7302919886,
				"element": "C" 
			},
			{
				"x": 2.4376648264,
				"y": 0.731170476,
				"z": 3.3784048269,
				"element": "C" 
			},
			{
				"x": 2.3973546424,
				"y": 2.2664040378,
				"z": 3.6938336236,
				"element": "C" 
			},
			{
				"x": 1.3298594019,
				"y": 0.2905220335,
				"z": 2.3535937739,
				"element": "C" 
			},
			{
				"x": -0.079493731,
				"y": 0.0468124949,
				"z": 2.9264923401,
				"element": "C" 
			},
			{
				"x": -0.5185376456,
				"y": 1.2413414762,
				"z": 3.5823022127,
				"element": "O" 
			},
			{
				"x": -1.0700201284,
				"y": -0.4469141242,
				"z": 1.84325556,
				"element": "C" 
			},
			{
				"x": -1.0624670306,
				"y": 0.4113428089,
				"z": 0.5665540216,
				"element": "C" 
			},
			{
				"x": -1.7342451643,
				"y": 1.7806783261,
				"z": 0.8224406553,
				"element": "C" 
			},
			{
				"x": -1.716126545,
				"y": -0.2610237866,
				"z": -0.6961979681,
				"element": "C" 
			},
			{
				"x": -1.3074366584,
				"y": -1.6296516219,
				"z": -0.8263338857,
				"element": "O" 
			},
			{
				"x": -3.2398827796,
				"y": -0.2092328542,
				"z": -0.7413022365,
				"element": "C" 
			},
			{
				"x": -3.8419779233,
				"y": 0.7953257748,
				"z": -1.0892536012,
				"element": "O" 
			},
			{
				"x": -4.0372816045,
				"y": -1.4397830549,
				"z": -0.3317615582,
				"element": "C" 
			},
			{
				"x": -5.4072582022,
				"y": -1.1580376137,
				"z": -0.2827520939,
				"element": "O" 
			},
			{
				"x": -0.709290736,
				"y": -5.6530471778,
				"z": -3.7847553628,
				"element": "H" 
			},
			{
				"x": -2.3200334176,
				"y": -5.5175838483,
				"z": -3.0688936068,
				"element": "H" 
			},
			{
				"x": -1.076926041,
				"y": -6.4884982555,
				"z": -2.2695872081,
				"element": "H" 
			},
			{
				"x": -1.3305117597,
				"y": -4.2913378157,
				"z": -1.0888270254,
				"element": "H" 
			},
			{
				"x": 0.2691259144,
				"y": -4.4322563059,
				"z": -1.7987118214,
				"element": "H" 
			},
			{
				"x": -0.4816626496,
				"y": -3.043477056,
				"z": -3.7620324699,
				"element": "H" 
			},
			{
				"x": -2.0876877376,
				"y": -2.896223967,
				"z": -3.0501989325,
				"element": "H" 
			},
			{
				"x": 0.5019948933,
				"y": -1.8868177882,
				"z": -1.7770875049,
				"element": "H" 
			},
			{
				"x": -1.6950560488,
				"y": 1.1377058687,
				"z": -2.4222643625,
				"element": "H" 
			},
			{
				"x": 0.1192895023,
				"y": 2.2094057959,
				"z": -1.3331998827,
				"element": "H" 
			},
			{
				"x": 1.0944106293,
				"y": 0.9098554509,
				"z": -2.0175492244,
				"element": "H" 
			},
			{
				"x": 0.7750664534,
				"y": -0.486967641,
				"z": -0.0609567473,
				"element": "H" 
			},
			{
				"x": 0.8861400726,
				"y": 2.1682365288,
				"z": 1.3761333738,
				"element": "H" 
			},
			{
				"x": 2.8191197965,
				"y": 1.3818298149,
				"z": -0.5010867388,
				"element": "H" 
			},
			{
				"x": 3.0338466249,
				"y": 2.52914404,
				"z": 0.7909636149,
				"element": "H" 
			},
			{
				"x": 4.8463021469,
				"y": 0.9240271201,
				"z": 0.926618527,
				"element": "H" 
			},
			{
				"x": 3.7571316625,
				"y": -0.4282094604,
				"z": 0.758560783,
				"element": "H" 
			},
			{
				"x": 5.7313880893,
				"y": -0.3861125817,
				"z": 2.9167690504,
				"element": "H" 
			},
			{
				"x": 3.1897033814,
				"y": -0.9029027748,
				"z": 6.3946133454,
				"element": "H" 
			},
			{
				"x": 1.3277686468,
				"y": 0.1991598485,
				"z": 5.2139373898,
				"element": "H" 
			},
			{
				"x": 2.5414342119,
				"y": 2.8789425893,
				"z": 2.8026705168,
				"element": "H" 
			},
			{
				"x": 1.4351589176,
				"y": 2.5273180276,
				"z": 4.1371357211,
				"element": "H" 
			},
			{
				"x": 3.1966581578,
				"y": 2.5073531447,
				"z": 4.3990000508,
				"element": "H" 
			},
			{
				"x": 1.6382721624,
				"y": -0.7090108037,
				"z": 2.0133819366,
				"element": "H" 
			},
			{
				"x": 0.0008474567,
				"y": -0.759136886,
				"z": 3.6719383435,
				"element": "H" 
			},
			{
				"x": -1.412850312,
				"y": 1.0911071204,
				"z": 3.9158114045,
				"element": "H" 
			},
			{
				"x": -2.074791107,
				"y": -0.4924725337,
				"z": 2.2878814676,
				"element": "H" 
			},
			{
				"x": -0.7993961371,
				"y": -1.4753800609,
				"z": 1.5799943431,
				"element": "H" 
			},
			{
				"x": -2.7596363692,
				"y": 1.6403611346,
				"z": 1.1765252523,
				"element": "H" 
			},
			{
				"x": -1.2009981156,
				"y": 2.334678287,
				"z": 1.5939370587,
				"element": "H" 
			},
			{
				"x": -1.7994621936,
				"y": 2.3951019437,
				"z": -0.0781008396,
				"element": "H" 
			},
			{
				"x": -3.6698810158,
				"y": -1.7973032892,
				"z": 0.6427032778,
				"element": "H" 
			},
			{
				"x": -3.8058682735,
				"y": -2.2424058429,
				"z": -1.0495573188,
				"element": "H" 
			},
			{
				"x": -5.4975407406,
				"y": -0.2599336936,
				"z": -0.6477339801,
				"element": "H" 
			}
		],
		 "valence_orbital": [ 
			{
				"type": "occ",
				"energy": -0.27077,
				"method": "rhf"
			},
			{
				"type": "occ",
				"energy": -0.26423,
				"method": "rhf"
			},
			{
				"type": "occ",
				"energy": -0.25577,
				"method": "rhf"
			},
			{
				"type": "occ",
				"energy": -0.25168,
				"method": "rhf"
			},
			{
				"type": "occ",
				"energy": -0.2304,
				"method": "rhf"
			},
			{
				"type": "unocc",
				"energy": -0.0547,
				"method": "rhf"
			},
			{
				"type": "unocc",
				"energy": -0.04093,
				"method": "rhf"
			},
			{
				"type": "unocc",
				"energy": 0.00153,
				"method": "rhf"
			},
			{
				"type": "unocc",
				"energy": 0.04292,
				"method": "rhf"
			},
			{
				"type": "unocc",
				"energy": 0.06299,
				"method": "rhf"
			}
		],
		"cosmo_sigma_profile": { 
			"-0.025": 0.0,
			"-0.024": 0.0,
			"-0.023": 0.0,
			"-0.022": 0.0,
			"-0.021": 0.0,
			"-0.02": 0.0,
			"-0.019": 0.0,
			"-0.018": 0.0,
			"-0.017": 0.0,
			"-0.016": 0.0856751683849,
			"-0.015": 0.699538875243,
			"-0.014": 1.19196616388,
			"-0.013": 0.654030372652,
			"-0.012": 1.27310253202,
			"-0.011": 1.02230943579,
			"-0.01": 1.46876888051,
			"-0.009": 1.88887700865,
			"-0.008": 1.2666784194,
			"-0.007": 2.09602585707,
			"-0.006": 6.43329080071,
			"-0.005": 25.068076119,
			"-0.004": 50.7171426516,
			"-0.003": 54.1345756223,
			"-0.002": 53.4815997602,
			"-0.001": 50.2827943453,
			"0.0": 45.6057710929,
			"0.001": 37.7533932125,
			"0.002": 21.4413684157,
			"0.003": 16.064259565,
			"0.004": 10.1173588294,
			"0.005": 10.8295411694,
			"0.006": 6.8978105733,
			"0.007": 7.50804433323,
			"0.008": 7.70493756798,
			"0.009": 5.40261208113,
			"0.01": 5.82660188391,
			"0.011": 5.36521433862,
			"0.012": 5.11445289342,
			"0.013": 6.17783738455,
			"0.014": 6.59726012304,
			"0.015": 2.02183704014,
			"0.016": 0.0021347171115,
			"0.017": 0.0,
			"0.018": 0.0,
			"0.019": 0.0,
			"0.02": 0.0,
			"0.021": 0.0,
			"0.022": 0.0,
			"0.023": 0.0,
			"0.024": 0.0,
			"0.025": 0.0
		}
	}
}
