{
	 "smiles": "CC(C)N1C=CC=C1C(O)=O", 
	 "Tm": 380.15, 
	 "num_atms": 22, 
	 "gaussian": { 
		 "optdone": 1, 
		 "sigma_profile": "yes", 
		 "theory": "DFT", 
		 "functional": "B3LYP", 
		 "basiset": "6-31G**", 
		 "properties": { 
			 "R2extent": 1859.1923, 
			 "electric_dipole_moment_norm": 3.42696780697, 
			 "electric_quadrupole_moment_norm": 9.13709224425, 
			 "total_energy": -516.692571046, 
			 "HOMO_LUMO_gap": 0.19681, 
			 "cosmo_polarized_energy": -10.3, 
			 "cosmo_cavitation_energy": 24.68, 
			 "cosmo_dispersion_energy": -17.89, 
			 "cosmo_repulsion_energy": 1.43, 
			 "cosmo_total_nonelectrostatic_energy": 8.22, 
			 "SMD_solvation_energy": 6.16 
		},
		"coords": [
			{
				"x": 0.1116234026,
				"y": -1.5326809413,
				"z": -2.5166054467,
				"element": "C" 
			},
			{
				"x": 0.8440650751,
				"y": -0.9784038508,
				"z": -1.2884725425,
				"element": "C" 
			},
			{
				"x": 1.5585485321,
				"y": 0.356021688,
				"z": -1.5351594221,
				"element": "C" 
			},
			{
				"x": -0.0186876036,
				"y": -0.9440863207,
				"z": -0.0825745265,
				"element": "N" 
			},
			{
				"x": 0.2721722533,
				"y": -1.7289445809,
				"z": 0.9995180546,
				"element": "C" 
			},
			{
				"x": -0.6644995066,
				"y": -1.5308158358,
				"z": 1.9992641561,
				"element": "C" 
			},
			{
				"x": -1.5735756714,
				"y": -0.57980311,
				"z": 1.5090089938,
				"element": "C" 
			},
			{
				"x": -1.1752697551,
				"y": -0.2169439258,
				"z": 0.2231633975,
				"element": "C" 
			},
			{
				"x": -1.9258960094,
				"y": 0.7626473475,
				"z": -0.5561682025,
				"element": "C" 
			},
			{
				"x": -1.4438569324,
				"y": 1.0414319765,
				"z": -1.8035225741,
				"element": "O" 
			},
			{
				"x": -2.9300916954,
				"y": 1.3185511074,
				"z": -0.1460418572,
				"element": "O" 
			},
			{
				"x": -0.3362243031,
				"y": -2.5044355248,
				"z": -2.2879584147,
				"element": "H" 
			},
			{
				"x": 0.828059521,
				"y": -1.6714536172,
				"z": -3.3329651869,
				"element": "H" 
			},
			{
				"x": -0.6708638787,
				"y": -0.8545523958,
				"z": -2.8567512268,
				"element": "H" 
			},
			{
				"x": 1.6148239277,
				"y": -1.7084997099,
				"z": -1.0197310352,
				"element": "H" 
			},
			{
				"x": 2.0971192269,
				"y": 0.6727047941,
				"z": -0.6369341158,
				"element": "H" 
			},
			{
				"x": 0.8571098848,
				"y": 1.1397050458,
				"z": -1.8209299894,
				"element": "H" 
			},
			{
				"x": 2.2870473198,
				"y": 0.2323497483,
				"z": -2.3432338587,
				"element": "H" 
			},
			{
				"x": 1.1354328913,
				"y": -2.3791237621,
				"z": 0.9778541859,
				"element": "H" 
			},
			{
				"x": -0.6785294725,
				"y": -2.0202792981,
				"z": 2.9624416403,
				"element": "H" 
			},
			{
				"x": -2.4431776903,
				"y": -0.1691112509,
				"z": 2.0005105229,
				"element": "H" 
			},
			{
				"x": -2.0616295159,
				"y": 1.7005224165,
				"z": -2.161812552,
				"element": "H" 
			}
		],
		 "valence_orbital": [ 
			{
				"type": "occ",
				"energy": -0.34101,
				"method": "rhf"
			},
			{
				"type": "occ",
				"energy": -0.31115,
				"method": "rhf"
			},
			{
				"type": "occ",
				"energy": -0.2691,
				"method": "rhf"
			},
			{
				"type": "occ",
				"energy": -0.24367,
				"method": "rhf"
			},
			{
				"type": "occ",
				"energy": -0.22095,
				"method": "rhf"
			},
			{
				"type": "unocc",
				"energy": -0.02414,
				"method": "rhf"
			},
			{
				"type": "unocc",
				"energy": 0.06305,
				"method": "rhf"
			},
			{
				"type": "unocc",
				"energy": 0.07344,
				"method": "rhf"
			},
			{
				"type": "unocc",
				"energy": 0.08931,
				"method": "rhf"
			},
			{
				"type": "unocc",
				"energy": 0.11379,
				"method": "rhf"
			}
		],
		"cosmo_sigma_profile": { 
			"-0.025": 0.0,
			"-0.024": 0.0,
			"-0.023": 0.0,
			"-0.022": 0.0,
			"-0.021": 0.0,
			"-0.02": 0.0,
			"-0.019": 0.0,
			"-0.018": 0.27643090371,
			"-0.017": 0.806672810804,
			"-0.016": 0.965548838245,
			"-0.015": 0.761559327133,
			"-0.014": 0.632913733068,
			"-0.013": 0.739112504914,
			"-0.012": 0.551881678131,
			"-0.011": 0.512339966763,
			"-0.01": 0.70379482394,
			"-0.009": 1.17666974157,
			"-0.008": 3.31704866095,
			"-0.007": 3.64434503348,
			"-0.006": 6.17907790401,
			"-0.005": 7.3671550663,
			"-0.004": 11.6421689636,
			"-0.003": 17.155200752,
			"-0.002": 14.8144891118,
			"-0.001": 17.6761919868,
			"0.0": 23.7446576347,
			"0.001": 21.8999879427,
			"0.002": 11.7075870316,
			"0.003": 7.79702391949,
			"0.004": 9.0257376309,
			"0.005": 7.60753036591,
			"0.006": 6.94023417124,
			"0.007": 2.55143885618,
			"0.008": 1.24754047025,
			"0.009": 1.82695760046,
			"0.01": 1.74451035309,
			"0.011": 2.08471177158,
			"0.012": 4.79057584158,
			"0.013": 3.04095078811,
			"0.014": 0.0,
			"0.015": 0.0,
			"0.016": 0.0,
			"0.017": 0.0,
			"0.018": 0.0,
			"0.019": 0.0,
			"0.02": 0.0,
			"0.021": 0.0,
			"0.022": 0.0,
			"0.023": 0.0,
			"0.024": 0.0,
			"0.025": 0.0
		}
	}
}
