{
	 "smiles": "OC(=O)C1=NN2C(NC(=CC2=O)C2=CC=CC=C2)=N1", 
	 "Tm": 556.15, 
	 "num_atms": 27, 
	 "gaussian": { 
		 "optdone": 1, 
		 "sigma_profile": "yes", 
		 "theory": "DFT", 
		 "functional": "B3LYP", 
		 "basiset": "6-31G**", 
		 "properties": { 
			 "R2extent": 9135.022, 
			 "electric_dipole_moment_norm": 12.3494829531, 
			 "electric_quadrupole_moment_norm": 48.2259556759, 
			 "total_energy": -906.780326814, 
			 "HOMO_LUMO_gap": 0.17314, 
			 "cosmo_polarized_energy": -29.4, 
			 "cosmo_cavitation_energy": 33.44, 
			 "cosmo_dispersion_energy": -24.74, 
			 "cosmo_repulsion_energy": 1.87, 
			 "cosmo_total_nonelectrostatic_energy": 10.57, 
			 "SMD_solvation_energy": 5.32 
		},
		"coords": [
			{
				"x": 5.584250465,
				"y": -1.8843152945,
				"z": -3.9066577061,
				"element": "O" 
			},
			{
				"x": 4.4992822192,
				"y": -2.4769125128,
				"z": -4.4509140515,
				"element": "C" 
			},
			{
				"x": 4.5626710531,
				"y": -3.2157427996,
				"z": -5.399094004,
				"element": "O" 
			},
			{
				"x": 3.2287696309,
				"y": -2.1112234396,
				"z": -3.7452032008,
				"element": "C" 
			},
			{
				"x": 2.0385695795,
				"y": -2.5665485182,
				"z": -4.0942344255,
				"element": "N" 
			},
			{
				"x": 1.2274906738,
				"y": -1.966967632,
				"z": -3.1803843972,
				"element": "N" 
			},
			{
				"x": 1.9835783674,
				"y": -1.1895610881,
				"z": -2.3452615882,
				"element": "C" 
			},
			{
				"x": 1.3805445889,
				"y": -0.4887063679,
				"z": -1.34178909,
				"element": "N" 
			},
			{
				"x": 0.0123795471,
				"y": -0.5722201404,
				"z": -1.1500676069,
				"element": "C" 
			},
			{
				"x": -0.7441292172,
				"y": -1.3446452805,
				"z": -1.9864361082,
				"element": "C" 
			},
			{
				"x": -0.2024011686,
				"y": -2.1322503085,
				"z": -3.0842771376,
				"element": "C" 
			},
			{
				"x": -0.8132287796,
				"y": -2.8409811824,
				"z": -3.8518226784,
				"element": "O" 
			},
			{
				"x": -0.5415448232,
				"y": 0.2225786948,
				"z": -0.0328239003,
				"element": "C" 
			},
			{
				"x": -0.0139307429,
				"y": 1.4870910478,
				"z": 0.2799823561,
				"element": "C" 
			},
			{
				"x": -0.5429059716,
				"y": 2.2313148922,
				"z": 1.3332825343,
				"element": "C" 
			},
			{
				"x": -1.6021415711,
				"y": 1.7235999177,
				"z": 2.0874693662,
				"element": "C" 
			},
			{
				"x": -2.1327727968,
				"y": 0.4679432012,
				"z": 1.7826390738,
				"element": "C" 
			},
			{
				"x": -1.6069930816,
				"y": -0.2798606393,
				"z": 0.7316313335,
				"element": "C" 
			},
			{
				"x": 3.2582494005,
				"y": -1.2543551096,
				"z": -2.6674227087,
				"element": "N" 
			},
			{
				"x": 5.2891587594,
				"y": -1.3362409802,
				"z": -3.1573343565,
				"element": "H" 
			},
			{
				"x": 1.9685417361,
				"y": -0.0161441964,
				"z": -0.670397934,
				"element": "H" 
			},
			{
				"x": -1.8190772277,
				"y": -1.3721857426,
				"z": -1.8732275328,
				"element": "H" 
			},
			{
				"x": 0.7830835264,
				"y": 1.9108692789,
				"z": -0.3250639236,
				"element": "H" 
			},
			{
				"x": -0.1339189554,
				"y": 3.2117914357,
				"z": 1.5570150787,
				"element": "H" 
			},
			{
				"x": -2.0125681312,
				"y": 2.3034515786,
				"z": 2.9084906067,
				"element": "H" 
			},
			{
				"x": -2.9514799287,
				"y": 0.06495741,
				"z": 2.3708056395,
				"element": "H" 
			},
			{
				"x": -2.0030771517,
				"y": -1.2666362244,
				"z": 0.5147963617,
				"element": "H" 
			}
		],
		 "valence_orbital": [ 
			{
				"type": "occ",
				"energy": -0.29006,
				"method": "rhf"
			},
			{
				"type": "occ",
				"energy": -0.28293,
				"method": "rhf"
			},
			{
				"type": "occ",
				"energy": -0.27601,
				"method": "rhf"
			},
			{
				"type": "occ",
				"energy": -0.2724,
				"method": "rhf"
			},
			{
				"type": "occ",
				"energy": -0.25612,
				"method": "rhf"
			},
			{
				"type": "unocc",
				"energy": -0.08298,
				"method": "rhf"
			},
			{
				"type": "unocc",
				"energy": -0.05046,
				"method": "rhf"
			},
			{
				"type": "unocc",
				"energy": -0.04205,
				"method": "rhf"
			},
			{
				"type": "unocc",
				"energy": -0.01318,
				"method": "rhf"
			},
			{
				"type": "unocc",
				"energy": -0.00812,
				"method": "rhf"
			}
		],
		"cosmo_sigma_profile": { 
			"-0.025": 0.0,
			"-0.024": 0.0,
			"-0.023": 0.0,
			"-0.022": 0.0,
			"-0.021": 0.0,
			"-0.02": 0.0,
			"-0.019": 0.0234078018031,
			"-0.018": 0.70969321203,
			"-0.017": 1.30847842585,
			"-0.016": 0.704316462074,
			"-0.015": 1.52446392435,
			"-0.014": 1.84903550433,
			"-0.013": 1.78082089802,
			"-0.012": 1.6094292772,
			"-0.011": 2.07661906136,
			"-0.01": 2.07531095175,
			"-0.009": 2.06795511947,
			"-0.008": 6.08089117854,
			"-0.007": 12.9700694617,
			"-0.006": 19.6849838408,
			"-0.005": 21.5367941448,
			"-0.004": 18.5837234747,
			"-0.003": 16.926390262,
			"-0.002": 13.3475969275,
			"-0.001": 13.5349494259,
			"0.0": 16.2270695026,
			"0.001": 13.4583842513,
			"0.002": 12.4742273584,
			"0.003": 13.9580295702,
			"0.004": 12.0904751965,
			"0.005": 5.67550846664,
			"0.006": 4.94520632479,
			"0.007": 5.63079619181,
			"0.008": 5.99360062257,
			"0.009": 7.2160706502,
			"0.01": 8.33407155407,
			"0.011": 11.711487697,
			"0.012": 9.83372260178,
			"0.013": 3.34052678774,
			"0.014": 0.978985723279,
			"0.015": 0.0,
			"0.016": 0.0,
			"0.017": 0.0,
			"0.018": 0.0,
			"0.019": 0.0,
			"0.02": 0.0,
			"0.021": 0.0,
			"0.022": 0.0,
			"0.023": 0.0,
			"0.024": 0.0,
			"0.025": 0.0
		}
	}
}
