{
	 "smiles": "CCOC(=O)C(=NO)C#N", 
	 "Tm": 402.65, 
	 "num_atms": 16, 
	 "gaussian": { 
		 "optdone": 1, 
		 "sigma_profile": "yes", 
		 "theory": "DFT", 
		 "functional": "B3LYP", 
		 "basiset": "6-31G**", 
		 "properties": { 
			 "R2extent": 2203.0103, 
			 "electric_dipole_moment_norm": 6.27746737546, 
			 "electric_quadrupole_moment_norm": 25.0965774414, 
			 "total_energy": -529.230254737, 
			 "HOMO_LUMO_gap": 0.1974, 
			 "cosmo_polarized_energy": -14.99, 
			 "cosmo_cavitation_energy": 22.75, 
			 "cosmo_dispersion_energy": -15.76, 
			 "cosmo_repulsion_energy": 1.34, 
			 "cosmo_total_nonelectrostatic_energy": 8.33, 
			 "SMD_solvation_energy": 7.01 
		},
		"coords": [
			{
				"x": -0.324318552,
				"y": -2.3347443824,
				"z": -1.8345629728,
				"element": "C" 
			},
			{
				"x": 0.1798591241,
				"y": -2.4943715067,
				"z": -0.4144117368,
				"element": "C" 
			},
			{
				"x": 0.1150187508,
				"y": -1.1861663687,
				"z": 0.216734217,
				"element": "O" 
			},
			{
				"x": 0.5281123995,
				"y": -1.1421007838,
				"z": 1.4842583897,
				"element": "C" 
			},
			{
				"x": 0.9392634656,
				"y": -2.0874821045,
				"z": 2.1225806402,
				"element": "O" 
			},
			{
				"x": 0.4464903223,
				"y": 0.233671606,
				"z": 2.1076099234,
				"element": "C" 
			},
			{
				"x": 0.054876774,
				"y": 1.3727471476,
				"z": 1.635285731,
				"element": "N" 
			},
			{
				"x": -0.3673858869,
				"y": 1.3589025749,
				"z": 0.3397360422,
				"element": "O" 
			},
			{
				"x": 0.8847172171,
				"y": 0.2938464379,
				"z": 3.479696456,
				"element": "C" 
			},
			{
				"x": 1.2347749234,
				"y": 0.3559453315,
				"z": 4.5853424364,
				"element": "N" 
			},
			{
				"x": -0.2914682315,
				"y": -3.3016488849,
				"z": -2.3458558401,
				"element": "H" 
			},
			{
				"x": 0.2956535668,
				"y": -1.6280630363,
				"z": -2.3930107467,
				"element": "H" 
			},
			{
				"x": -1.3564234878,
				"y": -1.9738073796,
				"z": -1.8453750741,
				"element": "H" 
			},
			{
				"x": 1.2150914601,
				"y": -2.8460377333,
				"z": -0.375688723,
				"element": "H" 
			},
			{
				"x": -0.4296685628,
				"y": -3.1904646881,
				"z": 0.1694136181,
				"element": "H" 
			},
			{
				"x": -0.6085932828,
				"y": 2.2857737703,
				"z": 0.1904476394,
				"element": "H" 
			}
		],
		 "valence_orbital": [ 
			{
				"type": "occ",
				"energy": -0.34199,
				"method": "rhf"
			},
			{
				"type": "occ",
				"energy": -0.32752,
				"method": "rhf"
			},
			{
				"type": "occ",
				"energy": -0.32092,
				"method": "rhf"
			},
			{
				"type": "occ",
				"energy": -0.29242,
				"method": "rhf"
			},
			{
				"type": "occ",
				"energy": -0.29118,
				"method": "rhf"
			},
			{
				"type": "unocc",
				"energy": -0.09378,
				"method": "rhf"
			},
			{
				"type": "unocc",
				"energy": 0.01191,
				"method": "rhf"
			},
			{
				"type": "unocc",
				"energy": 0.0145,
				"method": "rhf"
			},
			{
				"type": "unocc",
				"energy": 0.04982,
				"method": "rhf"
			},
			{
				"type": "unocc",
				"energy": 0.08969,
				"method": "rhf"
			}
		],
		"cosmo_sigma_profile": { 
			"-0.025": 0.0,
			"-0.024": 0.0,
			"-0.023": 0.0,
			"-0.022": 0.0,
			"-0.021": 0.0944424821838,
			"-0.02": 0.990835291581,
			"-0.019": 1.19328440053,
			"-0.018": 1.0409875069,
			"-0.017": 1.21100247826,
			"-0.016": 0.637137160126,
			"-0.015": 0.499501393973,
			"-0.014": 0.901041785451,
			"-0.013": 0.589432013505,
			"-0.012": 1.1315470797,
			"-0.011": 0.358155953048,
			"-0.01": 0.601140405077,
			"-0.009": 1.06604588744,
			"-0.008": 1.29875751814,
			"-0.007": 2.95131530354,
			"-0.006": 8.5607277128,
			"-0.005": 13.8680872616,
			"-0.004": 17.0870668955,
			"-0.003": 13.9509160826,
			"-0.002": 13.911806142,
			"-0.001": 12.8129952363,
			"0.0": 10.6046712731,
			"0.001": 7.22224059949,
			"0.002": 7.98621658014,
			"0.003": 4.62389671204,
			"0.004": 7.37228038912,
			"0.005": 6.86476322496,
			"0.006": 7.69840817901,
			"0.007": 6.81746685478,
			"0.008": 7.4356308245,
			"0.009": 7.26876059152,
			"0.01": 7.7282115194,
			"0.011": 4.48652188356,
			"0.012": 1.05212616115,
			"0.013": 0.0,
			"0.014": 0.0,
			"0.015": 0.0,
			"0.016": 0.0,
			"0.017": 0.0,
			"0.018": 0.0,
			"0.019": 0.0,
			"0.02": 0.0,
			"0.021": 0.0,
			"0.022": 0.0,
			"0.023": 0.0,
			"0.024": 0.0,
			"0.025": 0.0
		}
	}
}
