{
	 "smiles": "OC(=O)CCC1=NN=C(O1)C1=CN=CC=C1", 
	 "Tm": 471.15, 
	 "num_atms": 25, 
	 "gaussian": { 
		 "optdone": 1, 
		 "sigma_profile": "yes", 
		 "theory": "DFT", 
		 "functional": "B3LYP", 
		 "basiset": "6-31G**", 
		 "properties": { 
			 "R2extent": 4830.2581, 
			 "electric_dipole_moment_norm": 5.00465733592, 
			 "electric_quadrupole_moment_norm": 16.8244523207, 
			 "total_energy": -776.399499733, 
			 "HOMO_LUMO_gap": 0.18995, 
			 "cosmo_polarized_energy": -18.98, 
			 "cosmo_cavitation_energy": 31.11, 
			 "cosmo_dispersion_energy": -21.88, 
			 "cosmo_repulsion_energy": 1.7, 
			 "cosmo_total_nonelectrostatic_energy": 10.93, 
			 "SMD_solvation_energy": 3.15 
		},
		"coords": [
			{
				"x": -2.0827808168,
				"y": 1.6693848995,
				"z": 3.4063219578,
				"element": "O" 
			},
			{
				"x": -2.3276191175,
				"y": 1.0678809026,
				"z": 2.2157818016,
				"element": "C" 
			},
			{
				"x": -2.3455326918,
				"y": -0.1346711124,
				"z": 2.0826133571,
				"element": "O" 
			},
			{
				"x": -2.5928358981,
				"y": 2.0874567443,
				"z": 1.1240662313,
				"element": "C" 
			},
			{
				"x": -1.4787620866,
				"y": 3.1463872363,
				"z": 0.9687579027,
				"element": "C" 
			},
			{
				"x": -0.2090457376,
				"y": 2.5966212418,
				"z": 0.4155374289,
				"element": "C" 
			},
			{
				"x": 0.5412860391,
				"y": 3.0677981494,
				"z": -0.5300761413,
				"element": "N" 
			},
			{
				"x": 1.612567595,
				"y": 2.1843215267,
				"z": -0.6649031124,
				"element": "N" 
			},
			{
				"x": 1.4256739816,
				"y": 1.238582963,
				"z": 0.2070935013,
				"element": "C" 
			},
			{
				"x": 0.2861368165,
				"y": 1.4371002065,
				"z": 0.9383630604,
				"element": "O" 
			},
			{
				"x": 2.2301818316,
				"y": 0.0531255229,
				"z": 0.4681757862,
				"element": "C" 
			},
			{
				"x": 3.4945109544,
				"y": -0.0835111901,
				"z": -0.131286191,
				"element": "C" 
			},
			{
				"x": 4.284963989,
				"y": -1.1414801756,
				"z": 0.054247606,
				"element": "N" 
			},
			{
				"x": 3.8358975318,
				"y": -2.1171740857,
				"z": 0.856777832,
				"element": "C" 
			},
			{
				"x": 2.5963233144,
				"y": -2.0818876124,
				"z": 1.4981719977,
				"element": "C" 
			},
			{
				"x": 1.7737959123,
				"y": -0.9770318918,
				"z": 1.3016364484,
				"element": "C" 
			},
			{
				"x": -1.9297221902,
				"y": 0.9548840673,
				"z": 4.0471002487,
				"element": "H" 
			},
			{
				"x": -2.7555256667,
				"y": 1.5401909058,
				"z": 0.1938116683,
				"element": "H" 
			},
			{
				"x": -3.5232607826,
				"y": 2.6065845182,
				"z": 1.3810548681,
				"element": "H" 
			},
			{
				"x": -1.8029572891,
				"y": 3.9377662842,
				"z": 0.2890873046,
				"element": "H" 
			},
			{
				"x": -1.2868181745,
				"y": 3.6091706102,
				"z": 1.9435222361,
				"element": "H" 
			},
			{
				"x": 3.8653777416,
				"y": 0.7041852469,
				"z": -0.7825541891,
				"element": "H" 
			},
			{
				"x": 4.5000196206,
				"y": -2.9689411878,
				"z": 0.9909689067,
				"element": "H" 
			},
			{
				"x": 2.2825804145,
				"y": -2.9048299385,
				"z": 2.1321563808,
				"element": "H" 
			},
			{
				"x": 0.7950447091,
				"y": -0.9129138313,
				"z": 1.766773109,
				"element": "H" 
			}
		],
		 "valence_orbital": [ 
			{
				"type": "occ",
				"energy": -0.29093,
				"method": "rhf"
			},
			{
				"type": "occ",
				"energy": -0.28842,
				"method": "rhf"
			},
			{
				"type": "occ",
				"energy": -0.28278,
				"method": "rhf"
			},
			{
				"type": "occ",
				"energy": -0.26313,
				"method": "rhf"
			},
			{
				"type": "occ",
				"energy": -0.25018,
				"method": "rhf"
			},
			{
				"type": "unocc",
				"energy": -0.06023,
				"method": "rhf"
			},
			{
				"type": "unocc",
				"energy": -0.03138,
				"method": "rhf"
			},
			{
				"type": "unocc",
				"energy": -0.01067,
				"method": "rhf"
			},
			{
				"type": "unocc",
				"energy": 0.00739,
				"method": "rhf"
			},
			{
				"type": "unocc",
				"energy": 0.04777,
				"method": "rhf"
			}
		],
		"cosmo_sigma_profile": { 
			"-0.025": 0.0,
			"-0.024": 0.0,
			"-0.023": 0.0,
			"-0.022": 0.0,
			"-0.021": 0.0,
			"-0.02": 0.0,
			"-0.019": 0.0228899549439,
			"-0.018": 0.834157219317,
			"-0.017": 0.86292480927,
			"-0.016": 1.00163277102,
			"-0.015": 1.13637723072,
			"-0.014": 0.414882396514,
			"-0.013": 0.183910609356,
			"-0.012": 0.853826930387,
			"-0.011": 0.794814491864,
			"-0.01": 0.922551695771,
			"-0.009": 0.867723832849,
			"-0.008": 3.21997172456,
			"-0.007": 14.769592573,
			"-0.006": 20.3027844432,
			"-0.005": 18.7132529206,
			"-0.004": 17.9966742139,
			"-0.003": 15.9109064248,
			"-0.002": 15.849417284,
			"-0.001": 15.7181692973,
			"0.0": 20.7644853357,
			"0.001": 18.4285306199,
			"0.002": 9.55493744356,
			"0.003": 7.13932600721,
			"0.004": 6.66317026393,
			"0.005": 5.96737173584,
			"0.006": 6.23014968277,
			"0.007": 5.077272392,
			"0.008": 5.02584761615,
			"0.009": 5.19605606854,
			"0.01": 5.39177470738,
			"0.011": 7.8643418358,
			"0.012": 7.35508108894,
			"0.013": 3.60490501437,
			"0.014": 2.59773926641,
			"0.015": 1.66303886788,
			"0.016": 0.357394618358,
			"0.017": 0.0,
			"0.018": 0.0,
			"0.019": 0.0,
			"0.02": 0.0,
			"0.021": 0.0,
			"0.022": 0.0,
			"0.023": 0.0,
			"0.024": 0.0,
			"0.025": 0.0
		}
	}
}
