{
	 "smiles": "OC(=O)C1=CC=C(C=C1)C(F)F", 
	 "Tm": 479.15, 
	 "num_atms": 18, 
	 "gaussian": { 
		 "optdone": 1, 
		 "sigma_profile": "yes", 
		 "theory": "DFT", 
		 "functional": "B3LYP", 
		 "basiset": "6-31G**", 
		 "properties": { 
			 "R2extent": 3428.3247, 
			 "electric_dipole_moment_norm": 3.2110483366, 
			 "electric_quadrupole_moment_norm": 24.9291783711, 
			 "total_energy": -658.597806474, 
			 "HOMO_LUMO_gap": 0.20947, 
			 "cosmo_polarized_energy": -14.51, 
			 "cosmo_cavitation_energy": 23.65, 
			 "cosmo_dispersion_energy": -17.28, 
			 "cosmo_repulsion_energy": 1.33, 
			 "cosmo_total_nonelectrostatic_energy": 7.7, 
			 "SMD_solvation_energy": 6.06 
		},
		"coords": [
			{
				"x": -3.3287903444,
				"y": -0.5425333632,
				"z": 4.0069449465,
				"element": "O" 
			},
			{
				"x": -3.2094385427,
				"y": -0.6973734172,
				"z": 2.6613229641,
				"element": "C" 
			},
			{
				"x": -4.090528213,
				"y": -1.234106706,
				"z": 2.0330507903,
				"element": "O" 
			},
			{
				"x": -1.9518368973,
				"y": -0.1756123857,
				"z": 2.0294550203,
				"element": "C" 
			},
			{
				"x": -1.9766354314,
				"y": 0.0839292571,
				"z": 0.6525298832,
				"element": "C" 
			},
			{
				"x": -0.8421661802,
				"y": 0.5642261321,
				"z": 0.0072503605,
				"element": "C" 
			},
			{
				"x": 0.3390037289,
				"y": 0.7732928558,
				"z": 0.7282673229,
				"element": "C" 
			},
			{
				"x": 0.3777955816,
				"y": 0.496381035,
				"z": 2.0971361642,
				"element": "C" 
			},
			{
				"x": -0.7632423437,
				"y": 0.0263304998,
				"z": 2.7443066503,
				"element": "C" 
			},
			{
				"x": 1.5845939296,
				"y": 1.2400247716,
				"z": 0.0158883416,
				"element": "C" 
			},
			{
				"x": 2.3948172185,
				"y": 1.9317471322,
				"z": 0.8749286999,
				"element": "F" 
			},
			{
				"x": 1.256106907,
				"y": 2.0695185769,
				"z": -1.0213231705,
				"element": "F" 
			},
			{
				"x": -2.6368174693,
				"y": 0.0451121021,
				"z": 4.3404442618,
				"element": "H" 
			},
			{
				"x": -2.8983725451,
				"y": -0.0937156681,
				"z": 0.1094139564,
				"element": "H" 
			},
			{
				"x": -0.8692571722,
				"y": 0.7856420978,
				"z": -1.0542811034,
				"element": "H" 
			},
			{
				"x": 1.2965498048,
				"y": 0.652122316,
				"z": 2.6516836867,
				"element": "H" 
			},
			{
				"x": -0.7015272973,
				"y": -0.2139773507,
				"z": 3.8028984924,
				"element": "H" 
			},
			{
				"x": 2.1756452661,
				"y": 0.4133921147,
				"z": -0.399317267,
				"element": "H" 
			}
		],
		 "valence_orbital": [ 
			{
				"type": "occ",
				"energy": -0.34662,
				"method": "rhf"
			},
			{
				"type": "occ",
				"energy": -0.32308,
				"method": "rhf"
			},
			{
				"type": "occ",
				"energy": -0.28616,
				"method": "rhf"
			},
			{
				"type": "occ",
				"energy": -0.28255,
				"method": "rhf"
			},
			{
				"type": "occ",
				"energy": -0.27371,
				"method": "rhf"
			},
			{
				"type": "unocc",
				"energy": -0.06424,
				"method": "rhf"
			},
			{
				"type": "unocc",
				"energy": -0.03286,
				"method": "rhf"
			},
			{
				"type": "unocc",
				"energy": 0.03263,
				"method": "rhf"
			},
			{
				"type": "unocc",
				"energy": 0.05507,
				"method": "rhf"
			},
			{
				"type": "unocc",
				"energy": 0.09868,
				"method": "rhf"
			}
		],
		"cosmo_sigma_profile": { 
			"-0.025": 0.0,
			"-0.024": 0.0,
			"-0.023": 0.0,
			"-0.022": 0.0,
			"-0.021": 0.0,
			"-0.02": 0.0,
			"-0.019": 0.368418405587,
			"-0.018": 0.733874547328,
			"-0.017": 1.25949005201,
			"-0.016": 1.05511457843,
			"-0.015": 0.773709700434,
			"-0.014": 0.956911775701,
			"-0.013": 1.14346373796,
			"-0.012": 0.838794901214,
			"-0.011": 1.75019816505,
			"-0.01": 1.21290291257,
			"-0.009": 4.46300538529,
			"-0.008": 4.28809933644,
			"-0.007": 6.96609210667,
			"-0.006": 9.20156287089,
			"-0.005": 11.559790377,
			"-0.004": 8.23054529909,
			"-0.003": 10.028562491,
			"-0.002": 7.09257092108,
			"-0.001": 9.01386776745,
			"0.0": 11.2138852556,
			"0.001": 13.9037502925,
			"0.002": 18.8080290508,
			"0.003": 11.782367842,
			"0.004": 18.7480987635,
			"0.005": 7.56987385957,
			"0.006": 2.23635538863,
			"0.007": 2.39114996415,
			"0.008": 2.95483681248,
			"0.009": 3.60137543978,
			"0.01": 4.90071486138,
			"0.011": 5.36345578119,
			"0.012": 4.28638669676,
			"0.013": 1.0493900294,
			"0.014": 0.0,
			"0.015": 0.0,
			"0.016": 0.0,
			"0.017": 0.0,
			"0.018": 0.0,
			"0.019": 0.0,
			"0.02": 0.0,
			"0.021": 0.0,
			"0.022": 0.0,
			"0.023": 0.0,
			"0.024": 0.0,
			"0.025": 0.0
		}
	}
}
