{
	 "smiles": "[O-][N+](=O)C1=C(CBr)C(F)=CC=C1", 
	 "Tm": 325.15, 
	 "num_atms": 17, 
	 "gaussian": { 
		 "optdone": 1, 
		 "sigma_profile": "yes", 
		 "theory": "DFT", 
		 "functional": "B3LYP", 
		 "basiset": "6-31G**", 
		 "properties": { 
			 "R2extent": 3767.3551, 
			 "electric_dipole_moment_norm": 4.59324251483, 
			 "electric_quadrupole_moment_norm": 8.41581358396, 
			 "total_energy": -3146.09091187, 
			 "HOMO_LUMO_gap": 0.16759, 
			 "cosmo_polarized_energy": -9.89, 
			 "cosmo_cavitation_energy": 24.45, 
			 "cosmo_dispersion_energy": -18.12, 
			 "cosmo_repulsion_energy": 1.42, 
			 "cosmo_total_nonelectrostatic_energy": 7.75, 
			 "SMD_solvation_energy": 5.52 
		},
		"coords": [
			{
				"x": 2.2745234225,
				"y": 0.2231315334,
				"z": -0.0443567038,
				"element": "O" 
			},
			{
				"x": 1.3071691534,
				"y": 0.5322089281,
				"z": 0.6490252112,
				"element": "N" 
			},
			{
				"x": 1.2974170761,
				"y": 1.4688644118,
				"z": 1.4459736739,
				"element": "O" 
			},
			{
				"x": 0.0776214062,
				"y": -0.2760469536,
				"z": 0.4953482638,
				"element": "C" 
			},
			{
				"x": -0.9854311512,
				"y": -0.1945654679,
				"z": 1.4191907327,
				"element": "C" 
			},
			{
				"x": -1.0568651925,
				"y": 0.65368623,
				"z": 2.6503881386,
				"element": "C" 
			},
			{
				"x": -1.8963506411,
				"y": 2.4177656241,
				"z": 2.2539549734,
				"element": "Br" 
			},
			{
				"x": -2.0804815918,
				"y": -1.0246549623,
				"z": 1.1368946369,
				"element": "C" 
			},
			{
				"x": -3.12407032,
				"y": -1.0021613116,
				"z": 1.9875414598,
				"element": "F" 
			},
			{
				"x": -2.1526338461,
				"y": -1.8725991276,
				"z": 0.0406671832,
				"element": "C" 
			},
			{
				"x": -1.0768286936,
				"y": -1.9157019374,
				"z": -0.8436668519,
				"element": "C" 
			},
			{
				"x": 0.0432730144,
				"y": -1.1232463075,
				"z": -0.6130612982,
				"element": "C" 
			},
			{
				"x": -0.0854982105,
				"y": 0.8920871202,
				"z": 3.0637988474,
				"element": "H" 
			},
			{
				"x": -1.7128266596,
				"y": 0.2006743468,
				"z": 3.3880484619,
				"element": "H" 
			},
			{
				"x": -3.0411668559,
				"y": -2.4778823626,
				"z": -0.1000134819,
				"element": "H" 
			},
			{
				"x": -1.1099605116,
				"y": -2.5677820552,
				"z": -1.709869155,
				"element": "H" 
			},
			{
				"x": 0.8982096011,
				"y": -1.1423777088,
				"z": -1.2753640919,
				"element": "H" 
			}
		],
		 "valence_orbital": [ 
			{
				"type": "occ",
				"energy": -0.30526,
				"method": "rhf"
			},
			{
				"type": "occ",
				"energy": -0.29301,
				"method": "rhf"
			},
			{
				"type": "occ",
				"energy": -0.2832,
				"method": "rhf"
			},
			{
				"type": "occ",
				"energy": -0.27345,
				"method": "rhf"
			},
			{
				"type": "occ",
				"energy": -0.27068,
				"method": "rhf"
			},
			{
				"type": "unocc",
				"energy": -0.10309,
				"method": "rhf"
			},
			{
				"type": "unocc",
				"energy": -0.05262,
				"method": "rhf"
			},
			{
				"type": "unocc",
				"energy": -0.01432,
				"method": "rhf"
			},
			{
				"type": "unocc",
				"energy": 0.01088,
				"method": "rhf"
			},
			{
				"type": "unocc",
				"energy": 0.06109,
				"method": "rhf"
			}
		],
		"cosmo_sigma_profile": { 
			"-0.025": 0.0,
			"-0.024": 0.0,
			"-0.023": 0.0,
			"-0.022": 0.0,
			"-0.021": 0.0,
			"-0.02": 0.0,
			"-0.019": 0.0,
			"-0.018": 0.0,
			"-0.017": 0.0,
			"-0.016": 0.0,
			"-0.015": 0.0,
			"-0.014": 0.0,
			"-0.013": 0.0,
			"-0.012": 0.0,
			"-0.011": 0.0,
			"-0.01": 0.000529268907726,
			"-0.009": 2.05107979236,
			"-0.008": 8.07180977797,
			"-0.007": 11.452779112,
			"-0.006": 11.4792642198,
			"-0.005": 9.82873467949,
			"-0.004": 10.4645668848,
			"-0.003": 9.75694957545,
			"-0.002": 14.2792099233,
			"-0.001": 16.7053074431,
			"0.0": 15.9483892687,
			"0.001": 14.3311562976,
			"0.002": 8.41357764562,
			"0.003": 15.3419700728,
			"0.004": 8.93681712453,
			"0.005": 11.9867689818,
			"0.006": 10.5035903087,
			"0.007": 9.16053324638,
			"0.008": 6.42785317997,
			"0.009": 3.6936132549,
			"0.01": 1.28456949172,
			"0.011": 0.0,
			"0.012": 0.0,
			"0.013": 0.0,
			"0.014": 0.0,
			"0.015": 0.0,
			"0.016": 0.0,
			"0.017": 0.0,
			"0.018": 0.0,
			"0.019": 0.0,
			"0.02": 0.0,
			"0.021": 0.0,
			"0.022": 0.0,
			"0.023": 0.0,
			"0.024": 0.0,
			"0.025": 0.0
		}
	}
}
