{
	 "smiles": "C1CC2=CC=C(CCC3=CC=C1C=C3)C=C2", 
	 "Tm": 559.15, 
	 "num_atms": 32, 
	 "gaussian": { 
		 "optdone": 1, 
		 "sigma_profile": "yes", 
		 "theory": "DFT", 
		 "functional": "B3LYP", 
		 "basiset": "6-31G**", 
		 "properties": { 
			 "R2extent": 3183.1216, 
			 "electric_dipole_moment_norm": 0.0001, 
			 "electric_quadrupole_moment_norm": 13.1380638341, 
			 "total_energy": -619.311124608, 
			 "HOMO_LUMO_gap": 0.19554, 
			 "cosmo_polarized_energy": -4.75, 
			 "cosmo_cavitation_energy": 30.33, 
			 "cosmo_dispersion_energy": -22.22, 
			 "cosmo_repulsion_energy": 1.64, 
			 "cosmo_total_nonelectrostatic_energy": 9.75, 
			 "SMD_solvation_energy": 3.84 
		},
		"coords": [
			{
				"x": 2.2401686696,
				"y": -1.8852910711,
				"z": -0.0495113701,
				"element": "C" 
			},
			{
				"x": 2.2849675293,
				"y": -0.2994188158,
				"z": 0.2459726422,
				"element": "C" 
			},
			{
				"x": 0.9144579748,
				"y": 0.3354516657,
				"z": 0.3552425568,
				"element": "C" 
			},
			{
				"x": 0.2104489711,
				"y": 0.7320965741,
				"z": -0.790724419,
				"element": "C" 
			},
			{
				"x": -1.1836608123,
				"y": 0.7720425445,
				"z": -0.7914921041,
				"element": "C" 
			},
			{
				"x": -1.9106001423,
				"y": 0.4165209662,
				"z": 0.3536862405,
				"element": "C" 
			},
			{
				"x": -3.3147627272,
				"y": -0.1393492457,
				"z": 0.2423914914,
				"element": "C" 
			},
			{
				"x": -3.3595740139,
				"y": -1.7256071539,
				"z": -0.0510368031,
				"element": "C" 
			},
			{
				"x": -1.9890609978,
				"y": -2.3603539723,
				"z": -0.1609721166,
				"element": "C" 
			},
			{
				"x": -1.2846532725,
				"y": -2.7570816452,
				"z": 0.9847286286,
				"element": "C" 
			},
			{
				"x": 0.1094591468,
				"y": -2.7970182669,
				"z": 0.9850810007,
				"element": "C" 
			},
			{
				"x": 0.8360031025,
				"y": -2.4412657453,
				"z": -0.1602629208,
				"element": "C" 
			},
			{
				"x": 0.1224989859,
				"y": -2.3604870726,
				"z": -1.3646902293,
				"element": "C" 
			},
			{
				"x": -1.2715244888,
				"y": -2.3205505727,
				"z": -1.3650261613,
				"element": "C" 
			},
			{
				"x": -1.1974939373,
				"y": 0.3359008812,
				"z": 1.5583469221,
				"element": "C" 
			},
			{
				"x": 0.1965262268,
				"y": 0.295819723,
				"z": 1.5590741329,
				"element": "C" 
			},
			{
				"x": 2.7860856281,
				"y": -2.3922733434,
				"z": 0.7530719093,
				"element": "H" 
			},
			{
				"x": 2.794763204,
				"y": -2.070555677,
				"z": -0.9754041247,
				"element": "H" 
			},
			{
				"x": 2.8596925483,
				"y": 0.1757720124,
				"z": -0.5559433319,
				"element": "H" 
			},
			{
				"x": 2.8480931298,
				"y": -0.1458939199,
				"z": 1.1725235845,
				"element": "H" 
			},
			{
				"x": 0.745420333,
				"y": 0.8691255207,
				"z": -1.7279654297,
				"element": "H" 
			},
			{
				"x": -1.7088514111,
				"y": 0.9394846845,
				"z": -1.7293310498,
				"element": "H" 
			},
			{
				"x": -3.8597024331,
				"y": 0.3667300692,
				"z": -0.5614181198,
				"element": "H" 
			},
			{
				"x": -3.870322719,
				"y": 0.0472002456,
				"z": 1.1674527955,
				"element": "H" 
			},
			{
				"x": -3.9237806427,
				"y": -1.8803411084,
				"z": -0.9767333893,
				"element": "H" 
			},
			{
				"x": -3.9332303084,
				"y": -2.1999727034,
				"z": 0.7521256711,
				"element": "H" 
			},
			{
				"x": -1.8193389016,
				"y": -2.8942313798,
				"z": 1.9221154253,
				"element": "H" 
			},
			{
				"x": 0.6349278362,
				"y": -2.9645858421,
				"z": 1.9227413673,
				"element": "H" 
			},
			{
				"x": 0.65834358,
				"y": -2.1811521868,
				"z": -2.2942697526,
				"element": "H" 
			},
			{
				"x": -1.7957676171,
				"y": -2.111009045,
				"z": -2.2949016991,
				"element": "H" 
			},
			{
				"x": -1.7336153301,
				"y": 0.1567467722,
				"z": 2.4878012787,
				"element": "H" 
			},
			{
				"x": 0.7204828888,
				"y": 0.0863471079,
				"z": 2.4891273746,
				"element": "H" 
			}
		],
		 "valence_orbital": [ 
			{
				"type": "occ",
				"energy": -0.29495,
				"method": "rhf"
			},
			{
				"type": "occ",
				"energy": -0.2602,
				"method": "rhf"
			},
			{
				"type": "occ",
				"energy": -0.22361,
				"method": "rhf"
			},
			{
				"type": "occ",
				"energy": -0.21452,
				"method": "rhf"
			},
			{
				"type": "occ",
				"energy": -0.21162,
				"method": "rhf"
			},
			{
				"type": "unocc",
				"energy": -0.01608,
				"method": "rhf"
			},
			{
				"type": "unocc",
				"energy": -0.00555,
				"method": "rhf"
			},
			{
				"type": "unocc",
				"energy": 0.00229,
				"method": "rhf"
			},
			{
				"type": "unocc",
				"energy": 0.03143,
				"method": "rhf"
			},
			{
				"type": "unocc",
				"energy": 0.08426,
				"method": "rhf"
			}
		],
		"cosmo_sigma_profile": { 
			"-0.025": 0.0,
			"-0.024": 0.0,
			"-0.023": 0.0,
			"-0.022": 0.0,
			"-0.021": 0.0,
			"-0.02": 0.0,
			"-0.019": 0.0,
			"-0.018": 0.0,
			"-0.017": 0.0,
			"-0.016": 0.0,
			"-0.015": 0.0,
			"-0.014": 0.0,
			"-0.013": 0.0,
			"-0.012": 0.0,
			"-0.011": 0.0,
			"-0.01": 0.0,
			"-0.009": 0.0,
			"-0.008": 0.0,
			"-0.007": 0.0,
			"-0.006": 0.0,
			"-0.005": 2.26698638942,
			"-0.004": 17.6133379928,
			"-0.003": 42.488587536,
			"-0.002": 38.094034248,
			"-0.001": 27.456755916,
			"0.0": 26.5799336783,
			"0.001": 17.9636627607,
			"0.002": 11.2274126801,
			"0.003": 11.0755591283,
			"0.004": 10.1732049526,
			"0.005": 9.83132140534,
			"0.006": 9.89602914884,
			"0.007": 10.8663479561,
			"0.008": 1.93295497563,
			"0.009": 0.0,
			"0.01": 0.0,
			"0.011": 0.0,
			"0.012": 0.0,
			"0.013": 0.0,
			"0.014": 0.0,
			"0.015": 0.0,
			"0.016": 0.0,
			"0.017": 0.0,
			"0.018": 0.0,
			"0.019": 0.0,
			"0.02": 0.0,
			"0.021": 0.0,
			"0.022": 0.0,
			"0.023": 0.0,
			"0.024": 0.0,
			"0.025": 0.0
		}
	}
}
