{
	 "smiles": "CCC1=CC(Cl)=CC=C1", 
	 "Tm": 218.15, 
	 "num_atms": 18, 
	 "gaussian": { 
		 "optdone": 1, 
		 "sigma_profile": "yes", 
		 "theory": "DFT", 
		 "functional": "B3LYP", 
		 "basiset": "6-31G**", 
		 "properties": { 
			 "R2extent": 2637.8511, 
			 "electric_dipole_moment_norm": 2.17482005692, 
			 "electric_quadrupole_moment_norm": 8.90574257656, 
			 "total_energy": -770.480260256, 
			 "HOMO_LUMO_gap": 0.23116, 
			 "cosmo_polarized_energy": -3.69, 
			 "cosmo_cavitation_energy": 23.11, 
			 "cosmo_dispersion_energy": -16.96, 
			 "cosmo_repulsion_energy": 1.41, 
			 "cosmo_total_nonelectrostatic_energy": 7.56, 
			 "SMD_solvation_energy": 3.66 
		},
		"coords": [
			{
				"x": -1.6682345879,
				"y": 0.7722820926,
				"z": 1.3711326423,
				"element": "C" 
			},
			{
				"x": -2.3517757924,
				"y": -0.0240301082,
				"z": 0.2447405742,
				"element": "C" 
			},
			{
				"x": -1.3833645624,
				"y": -0.4662239728,
				"z": -0.8328140152,
				"element": "C" 
			},
			{
				"x": -1.1169697025,
				"y": 0.3645330121,
				"z": -1.9291892116,
				"element": "C" 
			},
			{
				"x": -0.1948503844,
				"y": -0.0318903793,
				"z": -2.8957549066,
				"element": "C" 
			},
			{
				"x": 0.1187151606,
				"y": 1.0272902259,
				"z": -4.2677370959,
				"element": "Cl" 
			},
			{
				"x": 0.4798761549,
				"y": -1.2482340436,
				"z": -2.8049336951,
				"element": "C" 
			},
			{
				"x": 0.2127312229,
				"y": -2.075280563,
				"z": -1.7131715843,
				"element": "C" 
			},
			{
				"x": -0.7076863701,
				"y": -1.6903263554,
				"z": -0.7384476172,
				"element": "C" 
			},
			{
				"x": -1.1914304222,
				"y": 1.6762974709,
				"z": 0.9788941777,
				"element": "H" 
			},
			{
				"x": -2.3951715308,
				"y": 1.0739789642,
				"z": 2.1322593649,
				"element": "H" 
			},
			{
				"x": -0.89249571,
				"y": 0.1739227349,
				"z": 1.8596984255,
				"element": "H" 
			},
			{
				"x": -3.1420773984,
				"y": 0.5894299454,
				"z": -0.2034261584,
				"element": "H" 
			},
			{
				"x": -2.8451274354,
				"y": -0.9047078365,
				"z": 0.672496344,
				"element": "H" 
			},
			{
				"x": -1.6288300741,
				"y": 1.3162105852,
				"z": -2.0331225269,
				"element": "H" 
			},
			{
				"x": 1.1903692947,
				"y": -1.5381101779,
				"z": -3.5707961758,
				"element": "H" 
			},
			{
				"x": 0.726116466,
				"y": -3.0288327545,
				"z": -1.6289574889,
				"element": "H" 
			},
			{
				"x": -0.9087943285,
				"y": -2.34750884,
				"z": 0.1036289473,
				"element": "H" 
			}
		],
		 "valence_orbital": [ 
			{
				"type": "occ",
				"energy": -0.34133,
				"method": "rhf"
			},
			{
				"type": "occ",
				"energy": -0.32426,
				"method": "rhf"
			},
			{
				"type": "occ",
				"energy": -0.30796,
				"method": "rhf"
			},
			{
				"type": "occ",
				"energy": -0.25387,
				"method": "rhf"
			},
			{
				"type": "occ",
				"energy": -0.24162,
				"method": "rhf"
			},
			{
				"type": "unocc",
				"energy": -0.01046,
				"method": "rhf"
			},
			{
				"type": "unocc",
				"energy": -0.00949,
				"method": "rhf"
			},
			{
				"type": "unocc",
				"energy": 0.03303,
				"method": "rhf"
			},
			{
				"type": "unocc",
				"energy": 0.09471,
				"method": "rhf"
			},
			{
				"type": "unocc",
				"energy": 0.11589,
				"method": "rhf"
			}
		],
		"cosmo_sigma_profile": { 
			"-0.025": 0.0,
			"-0.024": 0.0,
			"-0.023": 0.0,
			"-0.022": 0.0,
			"-0.021": 0.0,
			"-0.02": 0.0,
			"-0.019": 0.0,
			"-0.018": 0.0,
			"-0.017": 0.0,
			"-0.016": 0.0,
			"-0.015": 0.0,
			"-0.014": 0.0,
			"-0.013": 0.0,
			"-0.012": 0.0,
			"-0.011": 0.0,
			"-0.01": 0.0,
			"-0.009": 0.0,
			"-0.008": 0.0,
			"-0.007": 1.49442678952,
			"-0.006": 6.73274177853,
			"-0.005": 8.69172566717,
			"-0.004": 12.9594332589,
			"-0.003": 15.8610551515,
			"-0.002": 18.7479651023,
			"-0.001": 18.472229406,
			"0.0": 19.3347737567,
			"0.001": 18.2040476602,
			"0.002": 15.2680498869,
			"0.003": 15.7807552814,
			"0.004": 17.4812522217,
			"0.005": 15.575302857,
			"0.006": 0.80721398305,
			"0.007": 0.0,
			"0.008": 0.0,
			"0.009": 0.0,
			"0.01": 0.0,
			"0.011": 0.0,
			"0.012": 0.0,
			"0.013": 0.0,
			"0.014": 0.0,
			"0.015": 0.0,
			"0.016": 0.0,
			"0.017": 0.0,
			"0.018": 0.0,
			"0.019": 0.0,
			"0.02": 0.0,
			"0.021": 0.0,
			"0.022": 0.0,
			"0.023": 0.0,
			"0.024": 0.0,
			"0.025": 0.0
		}
	}
}
