{
	 "smiles": "CCOC(=O)C1=CC=C(C=C1)S(Cl)(=O)=O", 
	 "Tm": 323.15, 
	 "num_atms": 24, 
	 "gaussian": { 
		 "optdone": 1, 
		 "sigma_profile": "yes", 
		 "theory": "DFT", 
		 "functional": "B3LYP", 
		 "basiset": "6-31G**", 
		 "properties": { 
			 "R2extent": 9065.7526, 
			 "electric_dipole_moment_norm": 5.5950562696, 
			 "electric_quadrupole_moment_norm": 26.8030012336, 
			 "total_energy": -1507.60641222, 
			 "HOMO_LUMO_gap": 0.19262, 
			 "cosmo_polarized_energy": -11.14, 
			 "cosmo_cavitation_energy": 32.62, 
			 "cosmo_dispersion_energy": -24.04, 
			 "cosmo_repulsion_energy": 1.86, 
			 "cosmo_total_nonelectrostatic_energy": 10.45, 
			 "SMD_solvation_energy": 5.44 
		},
		"coords": [
			{
				"x": 2.7327098732,
				"y": -2.1779105445,
				"z": 0.6545596052,
				"element": "C" 
			},
			{
				"x": 2.3193302721,
				"y": -0.730116697,
				"z": 0.8314971818,
				"element": "C" 
			},
			{
				"x": 0.8941676911,
				"y": -0.6494622159,
				"z": 0.5780791193,
				"element": "O" 
			},
			{
				"x": 0.3462035836,
				"y": 0.5746691494,
				"z": 0.6887390736,
				"element": "C" 
			},
			{
				"x": 0.9713700796,
				"y": 1.5747080538,
				"z": 0.9803183874,
				"element": "O" 
			},
			{
				"x": -1.1260289421,
				"y": 0.566821563,
				"z": 0.4118326028,
				"element": "C" 
			},
			{
				"x": -1.8158455494,
				"y": -0.6059229495,
				"z": 0.0756507204,
				"element": "C" 
			},
			{
				"x": -3.1857573913,
				"y": -0.5629094919,
				"z": -0.171981058,
				"element": "C" 
			},
			{
				"x": -3.8392271359,
				"y": 0.6662541669,
				"z": -0.0773996535,
				"element": "C" 
			},
			{
				"x": -3.1745901086,
				"y": 1.8487768468,
				"z": 0.2519302768,
				"element": "C" 
			},
			{
				"x": -1.8061423539,
				"y": 1.7889861359,
				"z": 0.4965231433,
				"element": "C" 
			},
			{
				"x": -5.5960911429,
				"y": 0.7321675783,
				"z": -0.4157776123,
				"element": "S" 
			},
			{
				"x": -6.4011077809,
				"y": 0.3958127911,
				"z": 1.5308150315,
				"element": "Cl" 
			},
			{
				"x": -5.9759880591,
				"y": -0.4230669304,
				"z": -1.2187687809,
				"element": "O" 
			},
			{
				"x": -5.9664183618,
				"y": 2.0933718342,
				"z": -0.7806001447,
				"element": "O" 
			},
			{
				"x": 3.8066039881,
				"y": -2.2791285783,
				"z": 0.8385583107,
				"element": "H" 
			},
			{
				"x": 2.2017328821,
				"y": -2.8264120634,
				"z": 1.3572202523,
				"element": "H" 
			},
			{
				"x": 2.5247899982,
				"y": -2.524059166,
				"z": -0.3618935782,
				"element": "H" 
			},
			{
				"x": 2.513819978,
				"y": -0.3637800928,
				"z": 1.8440676332,
				"element": "H" 
			},
			{
				"x": 2.8349690867,
				"y": -0.0630577289,
				"z": 0.1340364579,
				"element": "H" 
			},
			{
				"x": -1.2778660417,
				"y": -1.5437106846,
				"z": 0.006990244,
				"element": "H" 
			},
			{
				"x": -3.7372845477,
				"y": -1.456244132,
				"z": -0.4418877876,
				"element": "H" 
			},
			{
				"x": -3.7168473295,
				"y": 2.7859825517,
				"z": 0.3038358881,
				"element": "H" 
			},
			{
				"x": -1.2441026881,
				"y": 2.6802306041,
				"z": 0.7525546871,
				"element": "H" 
			}
		],
		 "valence_orbital": [ 
			{
				"type": "occ",
				"energy": -0.31904,
				"method": "rhf"
			},
			{
				"type": "occ",
				"energy": -0.31638,
				"method": "rhf"
			},
			{
				"type": "occ",
				"energy": -0.29475,
				"method": "rhf"
			},
			{
				"type": "occ",
				"energy": -0.29377,
				"method": "rhf"
			},
			{
				"type": "occ",
				"energy": -0.29289,
				"method": "rhf"
			},
			{
				"type": "unocc",
				"energy": -0.10027,
				"method": "rhf"
			},
			{
				"type": "unocc",
				"energy": -0.06625,
				"method": "rhf"
			},
			{
				"type": "unocc",
				"energy": -0.04211,
				"method": "rhf"
			},
			{
				"type": "unocc",
				"energy": 0.01434,
				"method": "rhf"
			},
			{
				"type": "unocc",
				"energy": 0.05695,
				"method": "rhf"
			}
		],
		"cosmo_sigma_profile": { 
			"-0.025": 0.0,
			"-0.024": 0.0,
			"-0.023": 0.0,
			"-0.022": 0.0,
			"-0.021": 0.0,
			"-0.02": 0.0,
			"-0.019": 0.0,
			"-0.018": 0.0,
			"-0.017": 0.0,
			"-0.016": 0.0,
			"-0.015": 0.0,
			"-0.014": 0.0,
			"-0.013": 0.0,
			"-0.012": 0.0,
			"-0.011": 0.0,
			"-0.01": 0.0213227285041,
			"-0.009": 1.94732392447,
			"-0.008": 5.0648631433,
			"-0.007": 7.69290716142,
			"-0.006": 8.37564036098,
			"-0.005": 13.6657211721,
			"-0.004": 22.1461766002,
			"-0.003": 22.9324278377,
			"-0.002": 23.1248797614,
			"-0.001": 29.219595837,
			"0.0": 31.1392317475,
			"0.001": 14.4582636309,
			"0.002": 13.3747025414,
			"0.003": 18.4765652465,
			"0.004": 10.4024157805,
			"0.005": 5.48706526132,
			"0.006": 4.04780340482,
			"0.007": 8.2696880198,
			"0.008": 11.2087781156,
			"0.009": 4.65524628162,
			"0.01": 2.11221755816,
			"0.011": 4.13622992273,
			"0.012": 1.52226667612,
			"0.013": 0.0,
			"0.014": 0.0,
			"0.015": 0.0,
			"0.016": 0.0,
			"0.017": 0.0,
			"0.018": 0.0,
			"0.019": 0.0,
			"0.02": 0.0,
			"0.021": 0.0,
			"0.022": 0.0,
			"0.023": 0.0,
			"0.024": 0.0,
			"0.025": 0.0
		}
	}
}
