{
	 "smiles": "ClC1=C(CBr)C2=C(C=CC=N2)C=C1", 
	 "Tm": 393.15, 
	 "num_atms": 20, 
	 "gaussian": { 
		 "optdone": 1, 
		 "sigma_profile": "yes", 
		 "theory": "DFT", 
		 "functional": "B3LYP", 
		 "basiset": "6-31G**", 
		 "properties": { 
			 "R2extent": 6392.2386, 
			 "electric_dipole_moment_norm": 4.70515766048, 
			 "electric_quadrupole_moment_norm": 15.8070393407, 
			 "total_energy": -3471.642107, 
			 "HOMO_LUMO_gap": 0.16842, 
			 "cosmo_polarized_energy": -9.01, 
			 "cosmo_cavitation_energy": 27.87, 
			 "cosmo_dispersion_energy": -20.83, 
			 "cosmo_repulsion_energy": 1.63, 
			 "cosmo_total_nonelectrostatic_energy": 8.68, 
			 "SMD_solvation_energy": 2.18 
		},
		"coords": [
			{
				"x": -1.5038388719,
				"y": 1.9019845201,
				"z": -4.4755266515,
				"element": "Cl" 
			},
			{
				"x": -1.3477699608,
				"y": 0.9744051961,
				"z": -2.9926922047,
				"element": "C" 
			},
			{
				"x": -0.1007750094,
				"y": 0.7316330885,
				"z": -2.4397709655,
				"element": "C" 
			},
			{
				"x": 1.1698021267,
				"y": 1.2289713938,
				"z": -3.0387360241,
				"element": "C" 
			},
			{
				"x": 1.8779624675,
				"y": -0.0413858376,
				"z": -4.4173596493,
				"element": "Br" 
			},
			{
				"x": -0.0480967799,
				"y": -0.0352019678,
				"z": -1.2253170243,
				"element": "C" 
			},
			{
				"x": -1.2540869328,
				"y": -0.529989761,
				"z": -0.6373803627,
				"element": "C" 
			},
			{
				"x": -1.1432019334,
				"y": -1.2873671854,
				"z": 0.555609299,
				"element": "C" 
			},
			{
				"x": 0.0987595561,
				"y": -1.5140902472,
				"z": 1.0996124623,
				"element": "C" 
			},
			{
				"x": 1.2303870483,
				"y": -0.9697351637,
				"z": 0.4450900552,
				"element": "C" 
			},
			{
				"x": 1.1725877978,
				"y": -0.260716283,
				"z": -0.6647011775,
				"element": "N" 
			},
			{
				"x": -2.4972314266,
				"y": -0.2483396156,
				"z": -1.258984122,
				"element": "C" 
			},
			{
				"x": -2.5462594304,
				"y": 0.4943620457,
				"z": -2.4129863247,
				"element": "C" 
			},
			{
				"x": 1.0463776942,
				"y": 2.1669047956,
				"z": -3.572777587,
				"element": "H" 
			},
			{
				"x": 1.9574827735,
				"y": 1.2799834781,
				"z": -2.2942757191,
				"element": "H" 
			},
			{
				"x": -2.0432178064,
				"y": -1.6779925429,
				"z": 1.0235100495,
				"element": "H" 
			},
			{
				"x": 0.2235793993,
				"y": -2.0902618659,
				"z": 2.0105425354,
				"element": "H" 
			},
			{
				"x": 2.2232335578,
				"y": -1.128865551,
				"z": 0.8639262031,
				"element": "H" 
			},
			{
				"x": -3.4132041283,
				"y": -0.6248300524,
				"z": -0.8119934685,
				"element": "H" 
			},
			{
				"x": -3.4906901413,
				"y": 0.7186315555,
				"z": -2.8953893238,
				"element": "H" 
			}
		],
		 "valence_orbital": [ 
			{
				"type": "occ",
				"energy": -0.27233,
				"method": "rhf"
			},
			{
				"type": "occ",
				"energy": -0.26258,
				"method": "rhf"
			},
			{
				"type": "occ",
				"energy": -0.26048,
				"method": "rhf"
			},
			{
				"type": "occ",
				"energy": -0.25981,
				"method": "rhf"
			},
			{
				"type": "occ",
				"energy": -0.2414,
				"method": "rhf"
			},
			{
				"type": "unocc",
				"energy": -0.07298,
				"method": "rhf"
			},
			{
				"type": "unocc",
				"energy": -0.03249,
				"method": "rhf"
			},
			{
				"type": "unocc",
				"energy": -0.01989,
				"method": "rhf"
			},
			{
				"type": "unocc",
				"energy": 0.0236,
				"method": "rhf"
			},
			{
				"type": "unocc",
				"energy": 0.03351,
				"method": "rhf"
			}
		],
		"cosmo_sigma_profile": { 
			"-0.025": 0.0,
			"-0.024": 0.0,
			"-0.023": 0.0,
			"-0.022": 0.0,
			"-0.021": 0.0,
			"-0.02": 0.0,
			"-0.019": 0.0,
			"-0.018": 0.0,
			"-0.017": 0.0,
			"-0.016": 0.0,
			"-0.015": 0.0,
			"-0.014": 0.0,
			"-0.013": 0.0,
			"-0.012": 0.0,
			"-0.011": 0.0,
			"-0.01": 0.0,
			"-0.009": 0.131548243035,
			"-0.008": 4.9838874892,
			"-0.007": 11.7111320322,
			"-0.006": 13.8076647853,
			"-0.005": 12.8327957718,
			"-0.004": 11.3355355089,
			"-0.003": 11.3770227871,
			"-0.002": 12.7844388219,
			"-0.001": 13.451628643,
			"0.0": 22.8843342305,
			"0.001": 29.0831826049,
			"0.002": 22.8032651071,
			"0.003": 13.9164171728,
			"0.004": 14.7599157432,
			"0.005": 9.90358599371,
			"0.006": 13.7242602368,
			"0.007": 5.92371803367,
			"0.008": 1.59063130822,
			"0.009": 1.10008557507,
			"0.01": 1.2852349038,
			"0.011": 0.446047730972,
			"0.012": 0.0,
			"0.013": 0.0,
			"0.014": 0.0,
			"0.015": 0.0,
			"0.016": 0.0,
			"0.017": 0.0,
			"0.018": 0.0,
			"0.019": 0.0,
			"0.02": 0.0,
			"0.021": 0.0,
			"0.022": 0.0,
			"0.023": 0.0,
			"0.024": 0.0,
			"0.025": 0.0
		}
	}
}
