{
	 "smiles": "CC1=NC2=C(C=C(C=C2)[N+]([O-])=O)C(OC2=CC=CC=C2)=C1", 
	 "Tm": 441.15, 
	 "num_atms": 33, 
	 "gaussian": { 
		 "optdone": 1, 
		 "sigma_profile": "yes", 
		 "theory": "DFT", 
		 "functional": "B3LYP", 
		 "basiset": "6-31G**", 
		 "properties": { 
			 "R2extent": 8361.055, 
			 "electric_dipole_moment_norm": 6.87046078877, 
			 "electric_quadrupole_moment_norm": 17.679797067, 
			 "total_energy": -952.020363314, 
			 "HOMO_LUMO_gap": 0.15381, 
			 "cosmo_polarized_energy": -11.97, 
			 "cosmo_cavitation_energy": 38.76, 
			 "cosmo_dispersion_energy": -27.5, 
			 "cosmo_repulsion_energy": 2.1, 
			 "cosmo_total_nonelectrostatic_energy": 13.36, 
			 "SMD_solvation_energy": 7.49 
		},
		"coords": [
			{
				"x": -1.5703088105,
				"y": 3.967246569,
				"z": -2.1253068264,
				"element": "C" 
			},
			{
				"x": -1.6446757623,
				"y": 2.9805149947,
				"z": -0.9876367952,
				"element": "C" 
			},
			{
				"x": -2.3502566628,
				"y": 3.3319441358,
				"z": 0.0743295844,
				"element": "N" 
			},
			{
				"x": -2.4266667902,
				"y": 2.4499370266,
				"z": 1.1112433281,
				"element": "C" 
			},
			{
				"x": -1.7839077441,
				"y": 1.1725493022,
				"z": 1.1028361095,
				"element": "C" 
			},
			{
				"x": -1.9057068804,
				"y": 0.3094450931,
				"z": 2.2117710498,
				"element": "C" 
			},
			{
				"x": -2.651954205,
				"y": 0.7218489708,
				"z": 3.2943190268,
				"element": "C" 
			},
			{
				"x": -3.2993161149,
				"y": 1.9763450925,
				"z": 3.334797843,
				"element": "C" 
			},
			{
				"x": -3.1834106022,
				"y": 2.8207738085,
				"z": 2.256374362,
				"element": "C" 
			},
			{
				"x": -2.7789613569,
				"y": -0.1768929844,
				"z": 4.4496230844,
				"element": "N" 
			},
			{
				"x": -2.2084080509,
				"y": -1.2667525534,
				"z": 4.398013048,
				"element": "O" 
			},
			{
				"x": -3.4513017053,
				"y": 0.2157748354,
				"z": 5.4040551271,
				"element": "O" 
			},
			{
				"x": -1.0323178418,
				"y": 0.8356316104,
				"z": -0.0662143639,
				"element": "C" 
			},
			{
				"x": -0.4313133819,
				"y": -0.3858268336,
				"z": -0.0467176124,
				"element": "O" 
			},
			{
				"x": 0.3222363404,
				"y": -0.8057124869,
				"z": -1.1443846079,
				"element": "C" 
			},
			{
				"x": -0.2988760131,
				"y": -1.5364759588,
				"z": -2.1554056779,
				"element": "C" 
			},
			{
				"x": 0.4744720732,
				"y": -2.0201376574,
				"z": -3.2122524313,
				"element": "C" 
			},
			{
				"x": 1.8486807363,
				"y": -1.7730137256,
				"z": -3.2503842982,
				"element": "C" 
			},
			{
				"x": 2.4547776546,
				"y": -1.0416138221,
				"z": -2.2263581087,
				"element": "C" 
			},
			{
				"x": 1.6923890181,
				"y": -0.5524344415,
				"z": -1.1640843529,
				"element": "C" 
			},
			{
				"x": -0.9640753657,
				"y": 1.7357170933,
				"z": -1.1045882488,
				"element": "C" 
			},
			{
				"x": -0.5318599776,
				"y": 4.2523725394,
				"z": -2.3300134362,
				"element": "H" 
			},
			{
				"x": -2.1416949109,
				"y": 4.8615862421,
				"z": -1.8745339978,
				"element": "H" 
			},
			{
				"x": -1.9727685214,
				"y": 3.533169445,
				"z": -3.0479102543,
				"element": "H" 
			},
			{
				"x": -1.4250342095,
				"y": -0.6598026622,
				"z": 2.2195146442,
				"element": "H" 
			},
			{
				"x": -3.8714692103,
				"y": 2.2432698346,
				"z": 4.2141460077,
				"element": "H" 
			},
			{
				"x": -3.6636467104,
				"y": 3.7930563555,
				"z": 2.2446251455,
				"element": "H" 
			},
			{
				"x": -1.3658389311,
				"y": -1.7260117071,
				"z": -2.1005769228,
				"element": "H" 
			},
			{
				"x": 0.0013452357,
				"y": -2.5943480588,
				"z": -4.0031214409,
				"element": "H" 
			},
			{
				"x": 2.4463390383,
				"y": -2.1539472019,
				"z": -4.0727814942,
				"element": "H" 
			},
			{
				"x": 3.5239748073,
				"y": -0.8536725642,
				"z": -2.2494011546,
				"element": "H" 
			},
			{
				"x": 2.1444586044,
				"y": 0.0088251504,
				"z": -0.3529354749,
				"element": "H" 
			},
			{
				"x": -0.4022037489,
				"y": 1.5081345589,
				"z": -2.0024408613,
				"element": "H" 
			}
		],
		 "valence_orbital": [ 
			{
				"type": "occ",
				"energy": -0.2738,
				"method": "rhf"
			},
			{
				"type": "occ",
				"energy": -0.26519,
				"method": "rhf"
			},
			{
				"type": "occ",
				"energy": -0.26489,
				"method": "rhf"
			},
			{
				"type": "occ",
				"energy": -0.2646,
				"method": "rhf"
			},
			{
				"type": "occ",
				"energy": -0.24078,
				"method": "rhf"
			},
			{
				"type": "unocc",
				"energy": -0.08697,
				"method": "rhf"
			},
			{
				"type": "unocc",
				"energy": -0.05175,
				"method": "rhf"
			},
			{
				"type": "unocc",
				"energy": -0.02583,
				"method": "rhf"
			},
			{
				"type": "unocc",
				"energy": -0.02019,
				"method": "rhf"
			},
			{
				"type": "unocc",
				"energy": -0.01174,
				"method": "rhf"
			}
		],
		"cosmo_sigma_profile": { 
			"-0.025": 0.0,
			"-0.024": 0.0,
			"-0.023": 0.0,
			"-0.022": 0.0,
			"-0.021": 0.0,
			"-0.02": 0.0,
			"-0.019": 0.0,
			"-0.018": 0.0,
			"-0.017": 0.0,
			"-0.016": 0.0,
			"-0.015": 0.0,
			"-0.014": 0.0,
			"-0.013": 0.0,
			"-0.012": 0.0,
			"-0.011": 0.0,
			"-0.01": 0.0,
			"-0.009": 0.0,
			"-0.008": 0.399197100425,
			"-0.007": 7.48170046316,
			"-0.006": 16.9747793349,
			"-0.005": 22.9238914751,
			"-0.004": 25.1288866533,
			"-0.003": 21.5648663845,
			"-0.002": 26.0119950641,
			"-0.001": 33.0483887543,
			"0.0": 36.4189775965,
			"0.001": 24.3550721524,
			"0.002": 21.1664742109,
			"0.003": 15.6152794932,
			"0.004": 16.177487417,
			"0.005": 8.12012956021,
			"0.006": 5.08243168563,
			"0.007": 8.54873665087,
			"0.008": 9.20074970246,
			"0.009": 5.68897934293,
			"0.01": 4.08516117514,
			"0.011": 0.796956548377,
			"0.012": 0.803815838105,
			"0.013": 1.02129256445,
			"0.014": 0.692909136476,
			"0.015": 0.434449946416,
			"0.016": 0.00914543216878,
			"0.017": 0.0,
			"0.018": 0.0,
			"0.019": 0.0,
			"0.02": 0.0,
			"0.021": 0.0,
			"0.022": 0.0,
			"0.023": 0.0,
			"0.024": 0.0,
			"0.025": 0.0
		}
	}
}
