{
	 "smiles": "CC1=CC(C(=O)NO)=C(O)C=C1", 
	 "Tm": 453.15, 
	 "num_atms": 21, 
	 "gaussian": { 
		 "optdone": 1, 
		 "sigma_profile": "yes", 
		 "theory": "DFT", 
		 "functional": "B3LYP", 
		 "basiset": "6-31G**", 
		 "properties": { 
			 "R2extent": 2189.4032, 
			 "electric_dipole_moment_norm": 3.43691745755, 
			 "electric_quadrupole_moment_norm": 10.7174208903, 
			 "total_energy": -590.658545473, 
			 "HOMO_LUMO_gap": 0.16781, 
			 "cosmo_polarized_energy": -13.24, 
			 "cosmo_cavitation_energy": 24.85, 
			 "cosmo_dispersion_energy": -18.64, 
			 "cosmo_repulsion_energy": 1.49, 
			 "cosmo_total_nonelectrostatic_energy": 7.71, 
			 "SMD_solvation_energy": 6.18 
		},
		"coords": [
			{
				"x": 3.4062513698,
				"y": -0.8969813307,
				"z": 0.1822954272,
				"element": "C" 
			},
			{
				"x": 1.8977678154,
				"y": -0.8193927006,
				"z": 0.1395383441,
				"element": "C" 
			},
			{
				"x": 1.2346113359,
				"y": 0.4008859333,
				"z": 0.1232523692,
				"element": "C" 
			},
			{
				"x": -0.1766781897,
				"y": 0.4918408428,
				"z": 0.0945978245,
				"element": "C" 
			},
			{
				"x": -0.9296448951,
				"y": 1.7602630932,
				"z": 0.0733362187,
				"element": "C" 
			},
			{
				"x": -2.1633996474,
				"y": 1.8053953788,
				"z": 0.2598870125,
				"element": "O" 
			},
			{
				"x": -0.3238829191,
				"y": 2.9783632511,
				"z": -0.1286149073,
				"element": "N" 
			},
			{
				"x": 0.9385578266,
				"y": 3.1718953569,
				"z": -0.6879242228,
				"element": "O" 
			},
			{
				"x": -0.9380287454,
				"y": -0.7108074315,
				"z": 0.1207653082,
				"element": "C" 
			},
			{
				"x": -2.2774892904,
				"y": -0.7325176985,
				"z": 0.1526367205,
				"element": "O" 
			},
			{
				"x": -0.2653130163,
				"y": -1.9453922843,
				"z": 0.1110316278,
				"element": "C" 
			},
			{
				"x": 1.1174036973,
				"y": -1.9929882289,
				"z": 0.1192351167,
				"element": "C" 
			},
			{
				"x": 3.7569427794,
				"y": -1.4179806499,
				"z": 1.0810685912,
				"element": "H" 
			},
			{
				"x": 3.8553638563,
				"y": 0.1000572879,
				"z": 0.1822565365,
				"element": "H" 
			},
			{
				"x": 3.8065997833,
				"y": -1.4427014491,
				"z": -0.6804879147,
				"element": "H" 
			},
			{
				"x": 1.8130492679,
				"y": 1.3155823123,
				"z": 0.1441136644,
				"element": "H" 
			},
			{
				"x": -0.96162993,
				"y": 3.7560768196,
				"z": -0.2591631167,
				"element": "H" 
			},
			{
				"x": 0.8753595011,
				"y": 2.8833040008,
				"z": -1.6149116288,
				"element": "H" 
			},
			{
				"x": -2.5668773856,
				"y": 0.2141762358,
				"z": 0.2351563284,
				"element": "H" 
			},
			{
				"x": -0.865422279,
				"y": -2.8491642885,
				"z": 0.1157145534,
				"element": "H" 
			},
			{
				"x": 1.6127590649,
				"y": -2.9615144506,
				"z": 0.122316147,
				"element": "H" 
			}
		],
		 "valence_orbital": [ 
			{
				"type": "occ",
				"energy": -0.32335,
				"method": "rhf"
			},
			{
				"type": "occ",
				"energy": -0.2786,
				"method": "rhf"
			},
			{
				"type": "occ",
				"energy": -0.26806,
				"method": "rhf"
			},
			{
				"type": "occ",
				"energy": -0.25913,
				"method": "rhf"
			},
			{
				"type": "occ",
				"energy": -0.21602,
				"method": "rhf"
			},
			{
				"type": "unocc",
				"energy": -0.04821,
				"method": "rhf"
			},
			{
				"type": "unocc",
				"energy": 0.00857,
				"method": "rhf"
			},
			{
				"type": "unocc",
				"energy": 0.03425,
				"method": "rhf"
			},
			{
				"type": "unocc",
				"energy": 0.06193,
				"method": "rhf"
			},
			{
				"type": "unocc",
				"energy": 0.0899,
				"method": "rhf"
			}
		],
		"cosmo_sigma_profile": { 
			"-0.025": 0.0,
			"-0.024": 0.0,
			"-0.023": 0.0,
			"-0.022": 0.0,
			"-0.021": 0.0,
			"-0.02": 0.0,
			"-0.019": 0.0406601945164,
			"-0.018": 1.10552827745,
			"-0.017": 0.846143406856,
			"-0.016": 1.36989199927,
			"-0.015": 1.62663188196,
			"-0.014": 1.96084984072,
			"-0.013": 1.79390246535,
			"-0.012": 2.49846155569,
			"-0.011": 1.99768853355,
			"-0.01": 1.96563677696,
			"-0.009": 1.38149203105,
			"-0.008": 2.04306871973,
			"-0.007": 1.93450788713,
			"-0.006": 4.31719318827,
			"-0.005": 7.8845824624,
			"-0.004": 11.3498519761,
			"-0.003": 14.2139352712,
			"-0.002": 14.3324094317,
			"-0.001": 14.8690572209,
			"0.0": 17.8457306183,
			"0.001": 14.3376220376,
			"0.002": 13.0968288222,
			"0.003": 13.3245185103,
			"0.004": 13.5917154472,
			"0.005": 8.41518873987,
			"0.006": 4.01225921664,
			"0.007": 4.61557931392,
			"0.008": 4.18272166,
			"0.009": 3.16787378766,
			"0.01": 5.16526689722,
			"0.011": 4.05869486118,
			"0.012": 3.25298559484,
			"0.013": 0.605375440251,
			"0.014": 0.0,
			"0.015": 0.0,
			"0.016": 0.0,
			"0.017": 0.0,
			"0.018": 0.0,
			"0.019": 0.0,
			"0.02": 0.0,
			"0.021": 0.0,
			"0.022": 0.0,
			"0.023": 0.0,
			"0.024": 0.0,
			"0.025": 0.0
		}
	}
}
