{
	 "smiles": "CN1N=C(CCl)C=C1C1=CC=CO1", 
	 "Tm": 345.65, 
	 "num_atms": 22, 
	 "gaussian": { 
		 "optdone": 1, 
		 "sigma_profile": "yes", 
		 "theory": "DFT", 
		 "functional": "B3LYP", 
		 "basiset": "6-31G**", 
		 "properties": { 
			 "R2extent": 3936.8165, 
			 "electric_dipole_moment_norm": 4.65560653514, 
			 "electric_quadrupole_moment_norm": 10.5183025746, 
			 "total_energy": -993.261943795, 
			 "HOMO_LUMO_gap": 0.18201, 
			 "cosmo_polarized_energy": -10.76, 
			 "cosmo_cavitation_energy": 28.31, 
			 "cosmo_dispersion_energy": -20.75, 
			 "cosmo_repulsion_energy": 1.65, 
			 "cosmo_total_nonelectrostatic_energy": 9.2, 
			 "SMD_solvation_energy": 4.41 
		},
		"coords": [
			{
				"x": 1.8876704226,
				"y": -1.9125263884,
				"z": 0.6924536287,
				"element": "C" 
			},
			{
				"x": 1.7720991967,
				"y": -0.6462639914,
				"z": -0.0056129309,
				"element": "N" 
			},
			{
				"x": 2.8898732941,
				"y": 0.0722119963,
				"z": -0.2368032007,
				"element": "N" 
			},
			{
				"x": 2.4792671868,
				"y": 1.1629774708,
				"z": -0.8921943206,
				"element": "C" 
			},
			{
				"x": 3.4782723178,
				"y": 2.1786342704,
				"z": -1.3163187716,
				"element": "C" 
			},
			{
				"x": 3.4296290845,
				"y": 3.6990646127,
				"z": -0.2847667546,
				"element": "Cl" 
			},
			{
				"x": 1.0837284262,
				"y": 1.1517798992,
				"z": -1.0860854084,
				"element": "C" 
			},
			{
				"x": 0.6487807162,
				"y": -0.0308561556,
				"z": -0.4999998496,
				"element": "C" 
			},
			{
				"x": -0.6952865414,
				"y": -0.5564365233,
				"z": -0.4074804968,
				"element": "C" 
			},
			{
				"x": -1.290254825,
				"y": -1.6571482962,
				"z": 0.1604599556,
				"element": "C" 
			},
			{
				"x": -2.6883462046,
				"y": -1.5599928538,
				"z": -0.12576245,
				"element": "C" 
			},
			{
				"x": -2.8507001211,
				"y": -0.4151292006,
				"z": -0.8431291122,
				"element": "C" 
			},
			{
				"x": -1.6531328849,
				"y": 0.2066741815,
				"z": -1.0243318099,
				"element": "O" 
			},
			{
				"x": 1.5000755015,
				"y": -2.7323610365,
				"z": 0.0798082351,
				"element": "H" 
			},
			{
				"x": 1.3478296159,
				"y": -1.886017579,
				"z": 1.644403447,
				"element": "H" 
			},
			{
				"x": 2.9479550446,
				"y": -2.0711002546,
				"z": 0.8835844514,
				"element": "H" 
			},
			{
				"x": 3.3078280436,
				"y": 2.5246834735,
				"z": -2.3357395825,
				"element": "H" 
			},
			{
				"x": 4.4869930811,
				"y": 1.7800688173,
				"z": -1.2195505654,
				"element": "H" 
			},
			{
				"x": 0.4666072954,
				"y": 1.8938848552,
				"z": -1.568163685,
				"element": "H" 
			},
			{
				"x": -0.8058220073,
				"y": -2.4417151709,
				"z": 0.7195138552,
				"element": "H" 
			},
			{
				"x": -3.46301619,
				"y": -2.2532590695,
				"z": 0.1678883329,
				"element": "H" 
			},
			{
				"x": -3.7055504525,
				"y": 0.0776269431,
				"z": -1.2790729677,
				"element": "H" 
			}
		],
		 "valence_orbital": [ 
			{
				"type": "occ",
				"energy": -0.28839,
				"method": "rhf"
			},
			{
				"type": "occ",
				"energy": -0.2852,
				"method": "rhf"
			},
			{
				"type": "occ",
				"energy": -0.28328,
				"method": "rhf"
			},
			{
				"type": "occ",
				"energy": -0.2493,
				"method": "rhf"
			},
			{
				"type": "occ",
				"energy": -0.2122,
				"method": "rhf"
			},
			{
				"type": "unocc",
				"energy": -0.03019,
				"method": "rhf"
			},
			{
				"type": "unocc",
				"energy": 0.00161,
				"method": "rhf"
			},
			{
				"type": "unocc",
				"energy": 0.0432,
				"method": "rhf"
			},
			{
				"type": "unocc",
				"energy": 0.07661,
				"method": "rhf"
			},
			{
				"type": "unocc",
				"energy": 0.08835,
				"method": "rhf"
			}
		],
		"cosmo_sigma_profile": { 
			"-0.025": 0.0,
			"-0.024": 0.0,
			"-0.023": 0.0,
			"-0.022": 0.0,
			"-0.021": 0.0,
			"-0.02": 0.0,
			"-0.019": 0.0,
			"-0.018": 0.0,
			"-0.017": 0.0,
			"-0.016": 0.0,
			"-0.015": 0.0,
			"-0.014": 0.0,
			"-0.013": 0.0,
			"-0.012": 0.0,
			"-0.011": 0.0,
			"-0.01": 0.172118477527,
			"-0.009": 1.80485935186,
			"-0.008": 4.31279161863,
			"-0.007": 14.6798856947,
			"-0.006": 16.1284086622,
			"-0.005": 16.9619021066,
			"-0.004": 15.7798646708,
			"-0.003": 15.3814085007,
			"-0.002": 10.856955693,
			"-0.001": 8.59463163796,
			"0.0": 10.3063531013,
			"0.001": 13.907234287,
			"0.002": 19.3226337281,
			"0.003": 19.2718500869,
			"0.004": 16.3347380468,
			"0.005": 15.6140381953,
			"0.006": 12.8016258942,
			"0.007": 9.42582491623,
			"0.008": 1.44127353797,
			"0.009": 1.37806835611,
			"0.01": 0.901699950772,
			"0.011": 0.980037957161,
			"0.012": 0.831945432107,
			"0.013": 0.95778149466,
			"0.014": 0.609598568996,
			"0.015": 0.202372213486,
			"0.016": 0.0,
			"0.017": 0.0,
			"0.018": 0.0,
			"0.019": 0.0,
			"0.02": 0.0,
			"0.021": 0.0,
			"0.022": 0.0,
			"0.023": 0.0,
			"0.024": 0.0,
			"0.025": 0.0
		}
	}
}
