{
	 "smiles": "NC1=NC=NC2=C1N=CN2CC1=C(F)C=CC=C1Cl", 
	 "Tm": 518.15, 
	 "num_atms": 28, 
	 "gaussian": { 
		 "optdone": 1, 
		 "sigma_profile": "yes", 
		 "theory": "DFT", 
		 "functional": "B3LYP", 
		 "basiset": "6-31G**", 
		 "properties": { 
			 "R2extent": 5860.4365, 
			 "electric_dipole_moment_norm": 2.4670634629, 
			 "electric_quadrupole_moment_norm": 16.2905811584, 
			 "total_energy": -1296.50534246, 
			 "HOMO_LUMO_gap": 0.18066, 
			 "cosmo_polarized_energy": -16.09, 
			 "cosmo_cavitation_energy": 34.64, 
			 "cosmo_dispersion_energy": -24.81, 
			 "cosmo_repulsion_energy": 1.87, 
			 "cosmo_total_nonelectrostatic_energy": 11.7, 
			 "SMD_solvation_energy": 1.93 
		},
		"coords": [
			{
				"x": 1.0789353327,
				"y": -2.9734661815,
				"z": 2.2681711117,
				"element": "N" 
			},
			{
				"x": 0.3588604436,
				"y": -1.8647175516,
				"z": 1.9615442692,
				"element": "C" 
			},
			{
				"x": -0.2832537072,
				"y": -1.2140603038,
				"z": 2.9483508751,
				"element": "N" 
			},
			{
				"x": -1.0193252659,
				"y": -0.1368550319,
				"z": 2.6275601947,
				"element": "C" 
			},
			{
				"x": -1.2156232891,
				"y": 0.4169035886,
				"z": 1.4268944334,
				"element": "N" 
			},
			{
				"x": -0.5562206697,
				"y": -0.2494011106,
				"z": 0.4703627046,
				"element": "C" 
			},
			{
				"x": 0.242368426,
				"y": -1.3854348967,
				"z": 0.6400277704,
				"element": "C" 
			},
			{
				"x": 0.769446116,
				"y": -1.8164741724,
				"z": -0.5649847502,
				"element": "N" 
			},
			{
				"x": 0.2979610255,
				"y": -0.9577301158,
				"z": -1.4356679314,
				"element": "C" 
			},
			{
				"x": -0.5121477712,
				"y": 0.0195981901,
				"z": -0.8844774526,
				"element": "N" 
			},
			{
				"x": -1.2177328393,
				"y": 1.0910203116,
				"z": -1.5874255496,
				"element": "C" 
			},
			{
				"x": -0.731650625,
				"y": 2.4802934002,
				"z": -1.2307877401,
				"element": "C" 
			},
			{
				"x": -1.5075749603,
				"y": 3.3024145158,
				"z": -0.4046644717,
				"element": "C" 
			},
			{
				"x": -2.6953125024,
				"y": 2.840622247,
				"z": 0.0254827455,
				"element": "F" 
			},
			{
				"x": -1.1234377339,
				"y": 4.5815147732,
				"z": -0.0225586079,
				"element": "C" 
			},
			{
				"x": 0.0913524154,
				"y": 5.0793485681,
				"z": -0.4880944523,
				"element": "C" 
			},
			{
				"x": 0.8968035719,
				"y": 4.3100213306,
				"z": -1.3277048148,
				"element": "C" 
			},
			{
				"x": 0.4753109364,
				"y": 3.0306355789,
				"z": -1.6867597132,
				"element": "C" 
			},
			{
				"x": 1.5046500849,
				"y": 2.0991126685,
				"z": -2.7695090153,
				"element": "Cl" 
			},
			{
				"x": 1.6878407088,
				"y": -3.3693982793,
				"z": 1.570415171,
				"element": "H" 
			},
			{
				"x": 1.242860024,
				"y": -3.1743451562,
				"z": 3.2417896639,
				"element": "H" 
			},
			{
				"x": -1.5201195879,
				"y": 0.3488248167,
				"z": 3.4628977711,
				"element": "H" 
			},
			{
				"x": 0.5003044796,
				"y": -0.9710080164,
				"z": -2.4984063135,
				"element": "H" 
			},
			{
				"x": -1.0909914888,
				"y": 0.9072318442,
				"z": -2.6568947305,
				"element": "H" 
			},
			{
				"x": -2.2799838868,
				"y": 1.0177899853,
				"z": -1.3490550371,
				"element": "H" 
			},
			{
				"x": -1.7743685598,
				"y": 5.1581882337,
				"z": 0.6244003801,
				"element": "H" 
			},
			{
				"x": 0.4126274489,
				"y": 6.0757329647,
				"z": -0.2015990332,
				"element": "H" 
			},
			{
				"x": 1.8385218733,
				"y": 4.6917377991,
				"z": -1.7040074772,
				"element": "H" 
			}
		],
		 "valence_orbital": [ 
			{
				"type": "occ",
				"energy": -0.26574,
				"method": "rhf"
			},
			{
				"type": "occ",
				"energy": -0.25649,
				"method": "rhf"
			},
			{
				"type": "occ",
				"energy": -0.25527,
				"method": "rhf"
			},
			{
				"type": "occ",
				"energy": -0.24207,
				"method": "rhf"
			},
			{
				"type": "occ",
				"energy": -0.21339,
				"method": "rhf"
			},
			{
				"type": "unocc",
				"energy": -0.03273,
				"method": "rhf"
			},
			{
				"type": "unocc",
				"energy": -0.01802,
				"method": "rhf"
			},
			{
				"type": "unocc",
				"energy": -0.01118,
				"method": "rhf"
			},
			{
				"type": "unocc",
				"energy": 0.00913,
				"method": "rhf"
			},
			{
				"type": "unocc",
				"energy": 0.01758,
				"method": "rhf"
			}
		],
		"cosmo_sigma_profile": { 
			"-0.025": 0.0,
			"-0.024": 0.0,
			"-0.023": 0.0,
			"-0.022": 0.0,
			"-0.021": 0.0,
			"-0.02": 0.0,
			"-0.019": 0.0,
			"-0.018": 0.0,
			"-0.017": 0.0,
			"-0.016": 0.0,
			"-0.015": 0.0,
			"-0.014": 1.09835094441,
			"-0.013": 2.21988311061,
			"-0.012": 2.05965512607,
			"-0.011": 1.79386912259,
			"-0.01": 2.48890936154,
			"-0.009": 4.61054845443,
			"-0.008": 7.4101204409,
			"-0.007": 11.8868552502,
			"-0.006": 15.3993451477,
			"-0.005": 15.3625702119,
			"-0.004": 12.0673431319,
			"-0.003": 12.1614298976,
			"-0.002": 13.3118901995,
			"-0.001": 18.1859502278,
			"0.0": 24.0588292003,
			"0.001": 27.2367233711,
			"0.002": 26.044226828,
			"0.003": 21.4776346279,
			"0.004": 17.8446914397,
			"0.005": 8.53477425167,
			"0.006": 5.22404221008,
			"0.007": 4.98862744945,
			"0.008": 5.06631964422,
			"0.009": 5.28153973724,
			"0.01": 2.98899147168,
			"0.011": 2.79581977523,
			"0.012": 2.6943794331,
			"0.013": 1.96403951937,
			"0.014": 2.32369309694,
			"0.015": 1.67609076335,
			"0.016": 0.436634370628,
			"0.017": 0.0,
			"0.018": 0.0,
			"0.019": 0.0,
			"0.02": 0.0,
			"0.021": 0.0,
			"0.022": 0.0,
			"0.023": 0.0,
			"0.024": 0.0,
			"0.025": 0.0
		}
	}
}
