{
	 "smiles": "COC1=C(C)C=C(C=C1)C1=CSC(N)=N1", 
	 "Tm": 453.15, 
	 "num_atms": 27, 
	 "gaussian": { 
		 "optdone": 1, 
		 "sigma_profile": "yes", 
		 "theory": "DFT", 
		 "functional": "B3LYP", 
		 "basiset": "6-31G**", 
		 "properties": { 
			 "R2extent": 5052.949, 
			 "electric_dipole_moment_norm": 1.12064918239, 
			 "electric_quadrupole_moment_norm": 20.1678144765, 
			 "total_energy": -1009.31440651, 
			 "HOMO_LUMO_gap": 0.16793, 
			 "cosmo_polarized_energy": -13.39, 
			 "cosmo_cavitation_energy": 32.39, 
			 "cosmo_dispersion_energy": -24.44, 
			 "cosmo_repulsion_energy": 1.87, 
			 "cosmo_total_nonelectrostatic_energy": 9.82, 
			 "SMD_solvation_energy": 4.9 
		},
		"coords": [
			{
				"x": 3.6120486628,
				"y": 2.8698872752,
				"z": 1.7836900183,
				"element": "C" 
			},
			{
				"x": 2.768696924,
				"y": 1.8003117627,
				"z": 2.1757052843,
				"element": "O" 
			},
			{
				"x": 1.9478467204,
				"y": 1.2399573209,
				"z": 1.2352624472,
				"element": "C" 
			},
			{
				"x": 1.1345942441,
				"y": 0.1828112201,
				"z": 1.6942357342,
				"element": "C" 
			},
			{
				"x": 1.2107567366,
				"y": -0.2528717724,
				"z": 3.1355485018,
				"element": "C" 
			},
			{
				"x": 0.2763746185,
				"y": -0.4310807697,
				"z": 0.7869366076,
				"element": "C" 
			},
			{
				"x": 0.1942766152,
				"y": -0.0357829103,
				"z": -0.5611436189,
				"element": "C" 
			},
			{
				"x": 1.012250325,
				"y": 1.0185473701,
				"z": -0.9838420048,
				"element": "C" 
			},
			{
				"x": 1.8831727668,
				"y": 1.6534451397,
				"z": -0.0992839836,
				"element": "C" 
			},
			{
				"x": -0.7330294608,
				"y": -0.7287417606,
				"z": -1.4747546594,
				"element": "C" 
			},
			{
				"x": -0.879317121,
				"y": -0.4986307151,
				"z": -2.8166399122,
				"element": "C" 
			},
			{
				"x": -2.0985644326,
				"y": -1.5486201366,
				"z": -3.4939980641,
				"element": "S" 
			},
			{
				"x": -2.3052106426,
				"y": -2.2482569996,
				"z": -1.8821344812,
				"element": "C" 
			},
			{
				"x": -3.2631577989,
				"y": -3.2104476234,
				"z": -1.6433763757,
				"element": "N" 
			},
			{
				"x": -1.5482940075,
				"y": -1.7324780233,
				"z": -0.9627620552,
				"element": "N" 
			},
			{
				"x": 3.0344668388,
				"y": 3.7321495137,
				"z": 1.4257212003,
				"element": "H" 
			},
			{
				"x": 4.3183674182,
				"y": 2.5640997487,
				"z": 1.0008157561,
				"element": "H" 
			},
			{
				"x": 4.1698257021,
				"y": 3.1583038615,
				"z": 2.6763040046,
				"element": "H" 
			},
			{
				"x": 0.5205972337,
				"y": -1.0781781206,
				"z": 3.3281367131,
				"element": "H" 
			},
			{
				"x": 2.2228911582,
				"y": -0.5787103392,
				"z": 3.4002057815,
				"element": "H" 
			},
			{
				"x": 0.9630435095,
				"y": 0.5710172933,
				"z": 3.8140883887,
				"element": "H" 
			},
			{
				"x": -0.3576063204,
				"y": -1.2452250548,
				"z": 1.1214271484,
				"element": "H" 
			},
			{
				"x": 0.9766770886,
				"y": 1.3632401068,
				"z": -2.0128895673,
				"element": "H" 
			},
			{
				"x": 2.5018339537,
				"y": 2.4672060282,
				"z": -0.4588003896,
				"element": "H" 
			},
			{
				"x": -0.3545821178,
				"y": 0.1980562918,
				"z": -3.4521741215,
				"element": "H" 
			},
			{
				"x": -3.4471136907,
				"y": -3.8612505391,
				"z": -2.393839509,
				"element": "H" 
			},
			{
				"x": -3.1508449237,
				"y": -3.6537581682,
				"z": -0.7406388438,
				"element": "H" 
			}
		],
		 "valence_orbital": [ 
			{
				"type": "occ",
				"energy": -0.27193,
				"method": "rhf"
			},
			{
				"type": "occ",
				"energy": -0.26743,
				"method": "rhf"
			},
			{
				"type": "occ",
				"energy": -0.23613,
				"method": "rhf"
			},
			{
				"type": "occ",
				"energy": -0.22652,
				"method": "rhf"
			},
			{
				"type": "occ",
				"energy": -0.18622,
				"method": "rhf"
			},
			{
				"type": "unocc",
				"energy": -0.01829,
				"method": "rhf"
			},
			{
				"type": "unocc",
				"energy": 0.01093,
				"method": "rhf"
			},
			{
				"type": "unocc",
				"energy": 0.01486,
				"method": "rhf"
			},
			{
				"type": "unocc",
				"energy": 0.02521,
				"method": "rhf"
			},
			{
				"type": "unocc",
				"energy": 0.07379,
				"method": "rhf"
			}
		],
		"cosmo_sigma_profile": { 
			"-0.025": 0.0,
			"-0.024": 0.0,
			"-0.023": 0.0,
			"-0.022": 0.0,
			"-0.021": 0.0,
			"-0.02": 0.0,
			"-0.019": 0.0,
			"-0.018": 0.0,
			"-0.017": 0.0,
			"-0.016": 0.0,
			"-0.015": 0.157756767801,
			"-0.014": 1.75714796585,
			"-0.013": 2.77472053779,
			"-0.012": 2.24844280125,
			"-0.011": 2.83550606662,
			"-0.01": 2.99154991437,
			"-0.009": 2.10733208383,
			"-0.008": 4.08362210413,
			"-0.007": 4.91382303551,
			"-0.006": 8.81300638134,
			"-0.005": 14.8283400949,
			"-0.004": 17.5030731695,
			"-0.003": 21.3326624259,
			"-0.002": 15.2533483503,
			"-0.001": 13.1888279011,
			"0.0": 17.3851779562,
			"0.001": 16.4611767969,
			"0.002": 17.1467332543,
			"0.003": 18.7624248333,
			"0.004": 23.2579044008,
			"0.005": 22.4255047233,
			"0.006": 11.9983706292,
			"0.007": 4.35626852079,
			"0.008": 4.08650946426,
			"0.009": 4.00557831225,
			"0.01": 2.42954172878,
			"0.011": 1.7359610706,
			"0.012": 0.928936192031,
			"0.013": 0.0231363950563,
			"0.014": 0.0,
			"0.015": 0.0,
			"0.016": 0.0,
			"0.017": 0.0,
			"0.018": 0.0,
			"0.019": 0.0,
			"0.02": 0.0,
			"0.021": 0.0,
			"0.022": 0.0,
			"0.023": 0.0,
			"0.024": 0.0,
			"0.025": 0.0
		}
	}
}
