{
	 "smiles": "COC1=CC=CC(OC)=C1CO", 
	 "Tm": 327.15, 
	 "num_atms": 24, 
	 "gaussian": { 
		 "optdone": 1, 
		 "sigma_profile": "yes", 
		 "theory": "DFT", 
		 "functional": "B3LYP", 
		 "basiset": "6-31G**", 
		 "properties": { 
			 "R2extent": 2506.6945, 
			 "electric_dipole_moment_norm": 3.10673887541, 
			 "electric_quadrupole_moment_norm": 7.37902046209, 
			 "total_energy": -575.822793223, 
			 "HOMO_LUMO_gap": 0.21729, 
			 "cosmo_polarized_energy": -9.49, 
			 "cosmo_cavitation_energy": 26.75, 
			 "cosmo_dispersion_energy": -19.45, 
			 "cosmo_repulsion_energy": 1.56, 
			 "cosmo_total_nonelectrostatic_energy": 8.86, 
			 "SMD_solvation_energy": 6.0 
		},
		"coords": [
			{
				"x": 3.1282208942,
				"y": -1.9481457307,
				"z": 1.9935802923,
				"element": "C" 
			},
			{
				"x": 2.2347661406,
				"y": -0.9070040098,
				"z": 2.4047455261,
				"element": "O" 
			},
			{
				"x": 1.7963090064,
				"y": -0.1090653157,
				"z": 1.3674343007,
				"element": "C" 
			},
			{
				"x": 2.4242288959,
				"y": 1.1245951654,
				"z": 1.1587572551,
				"element": "C" 
			},
			{
				"x": 1.9838209522,
				"y": 1.9468948245,
				"z": 0.1275587277,
				"element": "C" 
			},
			{
				"x": 0.9377995393,
				"y": 1.548773799,
				"z": -0.7110880958,
				"element": "C" 
			},
			{
				"x": 0.3230474966,
				"y": 0.3142256437,
				"z": -0.4880305885,
				"element": "C" 
			},
			{
				"x": -0.6913823254,
				"y": -0.1919750741,
				"z": -1.2644092253,
				"element": "O" 
			},
			{
				"x": -1.20572474,
				"y": 0.6134754793,
				"z": -2.3146441013,
				"element": "C" 
			},
			{
				"x": 0.7215252659,
				"y": -0.5243957608,
				"z": 0.5719007249,
				"element": "C" 
			},
			{
				"x": 0.0000324014,
				"y": -1.83203494,
				"z": 0.8078827488,
				"element": "C" 
			},
			{
				"x": 0.3394934344,
				"y": -2.8401266106,
				"z": -0.1468362623,
				"element": "O" 
			},
			{
				"x": 4.0597236245,
				"y": -1.5280208806,
				"z": 1.5914129119,
				"element": "H" 
			},
			{
				"x": 2.6687166606,
				"y": -2.5916513457,
				"z": 1.2341897588,
				"element": "H" 
			},
			{
				"x": 3.3532596427,
				"y": -2.5341759604,
				"z": 2.8871995317,
				"element": "H" 
			},
			{
				"x": 3.2398765971,
				"y": 1.416182507,
				"z": 1.8116976011,
				"element": "H" 
			},
			{
				"x": 2.4613275362,
				"y": 2.9080084887,
				"z": -0.0397636284,
				"element": "H" 
			},
			{
				"x": 0.6212389931,
				"y": 2.1950544546,
				"z": -1.5205725024,
				"element": "H" 
			},
			{
				"x": -0.4406623229,
				"y": 0.8273318119,
				"z": -3.071697237,
				"element": "H" 
			},
			{
				"x": -2.0116401614,
				"y": 0.0367068753,
				"z": -2.7711788174,
				"element": "H" 
			},
			{
				"x": -1.6089487339,
				"y": 1.5600153499,
				"z": -1.9341559963,
				"element": "H" 
			},
			{
				"x": -1.0834466496,
				"y": -1.6505182517,
				"z": 0.8089803292,
				"element": "H" 
			},
			{
				"x": 0.2773702847,
				"y": -2.2281965848,
				"z": 1.7854336285,
				"element": "H" 
			},
			{
				"x": 0.0645475675,
				"y": -2.4948539347,
				"z": -1.0073968824,
				"element": "H" 
			}
		],
		 "valence_orbital": [ 
			{
				"type": "occ",
				"energy": -0.31462,
				"method": "rhf"
			},
			{
				"type": "occ",
				"energy": -0.26667,
				"method": "rhf"
			},
			{
				"type": "occ",
				"energy": -0.25967,
				"method": "rhf"
			},
			{
				"type": "occ",
				"energy": -0.23627,
				"method": "rhf"
			},
			{
				"type": "occ",
				"energy": -0.22255,
				"method": "rhf"
			},
			{
				"type": "unocc",
				"energy": -0.00526,
				"method": "rhf"
			},
			{
				"type": "unocc",
				"energy": 0.01231,
				"method": "rhf"
			},
			{
				"type": "unocc",
				"energy": 0.08212,
				"method": "rhf"
			},
			{
				"type": "unocc",
				"energy": 0.0912,
				"method": "rhf"
			},
			{
				"type": "unocc",
				"energy": 0.11416,
				"method": "rhf"
			}
		],
		"cosmo_sigma_profile": { 
			"-0.025": 0.0,
			"-0.024": 0.0,
			"-0.023": 0.0,
			"-0.022": 0.0,
			"-0.021": 0.0,
			"-0.02": 0.0,
			"-0.019": 0.0,
			"-0.018": 0.0,
			"-0.017": 0.0,
			"-0.016": 0.0,
			"-0.015": 0.0,
			"-0.014": 0.0,
			"-0.013": 0.0,
			"-0.012": 0.410224395843,
			"-0.011": 0.578680802556,
			"-0.01": 0.795571993792,
			"-0.009": 0.411519851945,
			"-0.008": 0.372214234809,
			"-0.007": 1.48869533232,
			"-0.006": 10.5198248177,
			"-0.005": 17.2415278303,
			"-0.004": 21.083649836,
			"-0.003": 25.5603581,
			"-0.002": 20.6612320336,
			"-0.001": 15.4580565108,
			"0.0": 13.3762667011,
			"0.001": 12.4100272425,
			"0.002": 9.72455885334,
			"0.003": 11.0889990998,
			"0.004": 13.3782478542,
			"0.005": 12.3613111703,
			"0.006": 6.15018377668,
			"0.007": 2.48256315394,
			"0.008": 1.97052804235,
			"0.009": 2.3156208381,
			"0.01": 2.72746469627,
			"0.011": 2.64026954214,
			"0.012": 2.55648080232,
			"0.013": 0.89760477136,
			"0.014": 1.85352196451,
			"0.015": 0.552598017322,
			"0.016": 0.0,
			"0.017": 0.0,
			"0.018": 0.0,
			"0.019": 0.0,
			"0.02": 0.0,
			"0.021": 0.0,
			"0.022": 0.0,
			"0.023": 0.0,
			"0.024": 0.0,
			"0.025": 0.0
		}
	}
}
