{
	 "smiles": "CN(C)C1=CC=C(C=C1)N=C(C#N)C1=CC(=CC=C1)C(=NC1=CC=C(C=C1)N(C)C)C#N", 
	 "Tm": 423.15, 
	 "num_atms": 56, 
	 "gaussian": { 
		 "optdone": 1, 
		 "sigma_profile": "yes", 
		 "theory": "DFT", 
		 "functional": "B3LYP", 
		 "basiset": "6-31G**", 
		 "properties": { 
			 "R2extent": 18058.8095, 
			 "electric_dipole_moment_norm": 12.4182955425, 
			 "electric_quadrupole_moment_norm": 47.7094477583, 
			 "total_energy": -1333.64726389, 
			 "HOMO_LUMO_gap": 0.11012, 
			 "cosmo_polarized_energy": -24.93, 
			 "cosmo_cavitation_energy": 61.73, 
			 "cosmo_dispersion_energy": -39.23, 
			 "cosmo_repulsion_energy": 2.98, 
			 "cosmo_total_nonelectrostatic_energy": 25.48, 
			 "SMD_solvation_energy": 9.73 
		},
		"coords": [
			{
				"x": 4.1637218299,
				"y": -0.9930772855,
				"z": 4.5545712629,
				"element": "C" 
			},
			{
				"x": 3.209487248,
				"y": -0.3886405893,
				"z": 3.6396361079,
				"element": "N" 
			},
			{
				"x": 1.9457119302,
				"y": 0.1090010474,
				"z": 4.1553528496,
				"element": "C" 
			},
			{
				"x": 3.5751395911,
				"y": -0.1284234408,
				"z": 2.3345103321,
				"element": "C" 
			},
			{
				"x": 4.8379177819,
				"y": -0.523509853,
				"z": 1.8279955035,
				"element": "C" 
			},
			{
				"x": 5.192706683,
				"y": -0.2604644949,
				"z": 0.5147920733,
				"element": "C" 
			},
			{
				"x": 4.2998812659,
				"y": 0.3532296192,
				"z": -0.3834874814,
				"element": "C" 
			},
			{
				"x": 3.0555953235,
				"y": 0.7780059977,
				"z": 0.1242253241,
				"element": "C" 
			},
			{
				"x": 2.7081045378,
				"y": 0.5607470346,
				"z": 1.4483473444,
				"element": "C" 
			},
			{
				"x": 4.7732184482,
				"y": 0.6005345253,
				"z": -1.6724720479,
				"element": "N" 
			},
			{
				"x": 4.0694878,
				"y": 0.6219295595,
				"z": -2.7522490872,
				"element": "C" 
			},
			{
				"x": 4.7803210448,
				"y": 1.068724113,
				"z": -3.9371958636,
				"element": "C" 
			},
			{
				"x": 5.3080372713,
				"y": 1.4483090313,
				"z": -4.9020439441,
				"element": "N" 
			},
			{
				"x": 2.6525789001,
				"y": 0.2063729237,
				"z": -3.0008963672,
				"element": "C" 
			},
			{
				"x": 2.1292590533,
				"y": -0.9459726682,
				"z": -2.3934251509,
				"element": "C" 
			},
			{
				"x": 0.8192284848,
				"y": -1.3606172363,
				"z": -2.6532616873,
				"element": "C" 
			},
			{
				"x": 0.0315112528,
				"y": -0.629620929,
				"z": -3.5606851876,
				"element": "C" 
			},
			{
				"x": 0.5553146597,
				"y": 0.4960697335,
				"z": -4.1873142284,
				"element": "C" 
			},
			{
				"x": 1.8591044287,
				"y": 0.9148395668,
				"z": -3.9138420502,
				"element": "C" 
			},
			{
				"x": 0.2948557562,
				"y": -2.617947102,
				"z": -2.0309215808,
				"element": "C" 
			},
			{
				"x": -0.8700275397,
				"y": -2.8901513336,
				"z": -1.5510550316,
				"element": "N" 
			},
			{
				"x": -1.902033347,
				"y": -1.9788620248,
				"z": -1.3202354843,
				"element": "C" 
			},
			{
				"x": -1.7381722535,
				"y": -0.6464871417,
				"z": -0.8910656188,
				"element": "C" 
			},
			{
				"x": -2.8320252275,
				"y": 0.1533644916,
				"z": -0.598212769,
				"element": "C" 
			},
			{
				"x": -4.1582939434,
				"y": -0.3240714716,
				"z": -0.752285363,
				"element": "C" 
			},
			{
				"x": -4.3170858528,
				"y": -1.673401538,
				"z": -1.1532710091,
				"element": "C" 
			},
			{
				"x": -3.2156956054,
				"y": -2.4770944605,
				"z": -1.4015477176,
				"element": "C" 
			},
			{
				"x": -5.249004924,
				"y": 0.4894830955,
				"z": -0.5093460347,
				"element": "N" 
			},
			{
				"x": -5.0524649992,
				"y": 1.8204332625,
				"z": 0.0404858897,
				"element": "C" 
			},
			{
				"x": -6.5882072429,
				"y": -0.0765023651,
				"z": -0.5155676241,
				"element": "C" 
			},
			{
				"x": 1.2346788131,
				"y": -3.7246148587,
				"z": -2.0200270541,
				"element": "C" 
			},
			{
				"x": 2.0183354301,
				"y": -4.5843077831,
				"z": -2.0056531005,
				"element": "N" 
			},
			{
				"x": 5.0515216481,
				"y": -0.3632160472,
				"z": 4.7104721197,
				"element": "H" 
			},
			{
				"x": 3.6843207904,
				"y": -1.1475640282,
				"z": 5.5217523578,
				"element": "H" 
			},
			{
				"x": 4.5018724275,
				"y": -1.9709677825,
				"z": 4.1903421957,
				"element": "H" 
			},
			{
				"x": 1.0989528741,
				"y": -0.2685185948,
				"z": 3.5689769281,
				"element": "H" 
			},
			{
				"x": 1.895155912,
				"y": 1.2079795397,
				"z": 4.1567264825,
				"element": "H" 
			},
			{
				"x": 1.8168705726,
				"y": -0.2358387198,
				"z": 5.1818433084,
				"element": "H" 
			},
			{
				"x": 5.5541961783,
				"y": -1.0212861789,
				"z": 2.4693042179,
				"element": "H" 
			},
			{
				"x": 6.1729988548,
				"y": -0.5464624514,
				"z": 0.1471478525,
				"element": "H" 
			},
			{
				"x": 2.369980117,
				"y": 1.3216406089,
				"z": -0.5166554822,
				"element": "H" 
			},
			{
				"x": 1.7558750703,
				"y": 0.9375480864,
				"z": 1.8007659273,
				"element": "H" 
			},
			{
				"x": 2.7506517833,
				"y": -1.5259533716,
				"z": -1.7197601195,
				"element": "H" 
			},
			{
				"x": -0.9788137749,
				"y": -0.9563183723,
				"z": -3.7806317585,
				"element": "H" 
			},
			{
				"x": -0.0485161468,
				"y": 1.0464570971,
				"z": -4.9022917837,
				"element": "H" 
			},
			{
				"x": 2.2672707423,
				"y": 1.7852191925,
				"z": -4.4185653828,
				"element": "H" 
			},
			{
				"x": -0.7409987134,
				"y": -0.2457902273,
				"z": -0.7466069775,
				"element": "H" 
			},
			{
				"x": -2.6527936241,
				"y": 1.1594899402,
				"z": -0.2398826114,
				"element": "H" 
			},
			{
				"x": -5.3057143208,
				"y": -2.1042730931,
				"z": -1.2492541717,
				"element": "H" 
			},
			{
				"x": -3.3516074061,
				"y": -3.517163819,
				"z": -1.6807168215,
				"element": "H" 
			},
			{
				"x": -6.0181083911,
				"y": 2.3212830507,
				"z": 0.119230924,
				"element": "H" 
			},
			{
				"x": -4.4166138966,
				"y": 2.4289718299,
				"z": -0.613138115,
				"element": "H" 
			},
			{
				"x": -4.5936893763,
				"y": 1.8032077333,
				"z": 1.0406816554,
				"element": "H" 
			},
			{
				"x": -6.727141187,
				"y": -0.8441709252,
				"z": 0.2601689259,
				"element": "H" 
			},
			{
				"x": -7.3136339536,
				"y": 0.7188348785,
				"z": -0.3404446753,
				"element": "H" 
			},
			{
				"x": -6.821922779,
				"y": -0.5298857716,
				"z": -1.4860202004,
				"element": "H" 
			}
		],
		 "valence_orbital": [ 
			{
				"type": "occ",
				"energy": -0.26177,
				"method": "rhf"
			},
			{
				"type": "occ",
				"energy": -0.2572,
				"method": "rhf"
			},
			{
				"type": "occ",
				"energy": -0.2548,
				"method": "rhf"
			},
			{
				"type": "occ",
				"energy": -0.19608,
				"method": "rhf"
			},
			{
				"type": "occ",
				"energy": -0.19144,
				"method": "rhf"
			},
			{
				"type": "unocc",
				"energy": -0.08132,
				"method": "rhf"
			},
			{
				"type": "unocc",
				"energy": -0.07446,
				"method": "rhf"
			},
			{
				"type": "unocc",
				"energy": -0.02175,
				"method": "rhf"
			},
			{
				"type": "unocc",
				"energy": -0.01635,
				"method": "rhf"
			},
			{
				"type": "unocc",
				"energy": -0.00604,
				"method": "rhf"
			}
		],
		"cosmo_sigma_profile": { 
			"-0.025": 0.0,
			"-0.024": 0.0,
			"-0.023": 0.0,
			"-0.022": 0.0,
			"-0.021": 0.0,
			"-0.02": 0.0,
			"-0.019": 0.0,
			"-0.018": 0.0,
			"-0.017": 0.0,
			"-0.016": 0.0,
			"-0.015": 0.0,
			"-0.014": 0.0,
			"-0.013": 0.0,
			"-0.012": 0.0,
			"-0.011": 0.0,
			"-0.01": 0.0,
			"-0.009": 0.0,
			"-0.008": 0.410356510069,
			"-0.007": 8.51405029618,
			"-0.006": 25.0324306069,
			"-0.005": 41.6390008363,
			"-0.004": 52.9416644809,
			"-0.003": 50.883546923,
			"-0.002": 52.2176855784,
			"-0.001": 37.9684618182,
			"0.0": 28.6607657112,
			"0.001": 28.6050640572,
			"0.002": 27.6149980314,
			"0.003": 26.8381332885,
			"0.004": 29.1164268254,
			"0.005": 27.2396525844,
			"0.006": 10.3574529324,
			"0.007": 7.43266892078,
			"0.008": 9.45187854095,
			"0.009": 7.77662368,
			"0.01": 7.58712608386,
			"0.011": 6.76183070269,
			"0.012": 5.66984178248,
			"0.013": 1.95461985794,
			"0.014": 0.0,
			"0.015": 0.0,
			"0.016": 0.0,
			"0.017": 0.0,
			"0.018": 0.0,
			"0.019": 0.0,
			"0.02": 0.0,
			"0.021": 0.0,
			"0.022": 0.0,
			"0.023": 0.0,
			"0.024": 0.0,
			"0.025": 0.0
		}
	}
}
