{
	 "smiles": "C(NC1=NCCS1)C1=CN=CC=C1", 
	 "Tm": 364.15, 
	 "num_atms": 24, 
	 "gaussian": { 
		 "optdone": 1, 
		 "sigma_profile": "yes", 
		 "theory": "DFT", 
		 "functional": "B3LYP", 
		 "basiset": "6-31G**", 
		 "properties": { 
			 "R2extent": 3800.0785, 
			 "electric_dipole_moment_norm": 2.07424426238, 
			 "electric_quadrupole_moment_norm": 7.4579246329, 
			 "total_energy": -912.019757724, 
			 "HOMO_LUMO_gap": 0.19642, 
			 "cosmo_polarized_energy": -11.73, 
			 "cosmo_cavitation_energy": 28.9, 
			 "cosmo_dispersion_energy": -21.62, 
			 "cosmo_repulsion_energy": 1.68, 
			 "cosmo_total_nonelectrostatic_energy": 8.96, 
			 "SMD_solvation_energy": 0.19 
		},
		"coords": [
			{
				"x": 0.3872930689,
				"y": -1.1922189226,
				"z": 1.3295245353,
				"element": "C" 
			},
			{
				"x": -0.4590847353,
				"y": -0.4078274502,
				"z": 2.2321136463,
				"element": "N" 
			},
			{
				"x": -0.4306303501,
				"y": 0.9570890525,
				"z": 2.2313799987,
				"element": "C" 
			},
			{
				"x": 0.4452898809,
				"y": 1.6767348274,
				"z": 1.6384124521,
				"element": "N" 
			},
			{
				"x": 0.1911607758,
				"y": 3.0997678855,
				"z": 1.8061436072,
				"element": "C" 
			},
			{
				"x": -0.7163363568,
				"y": 3.3419089025,
				"z": 3.0394578805,
				"element": "C" 
			},
			{
				"x": -1.7176279743,
				"y": 1.8090190854,
				"z": 3.1877787801,
				"element": "S" 
			},
			{
				"x": -0.2014991817,
				"y": -1.4109649017,
				"z": -0.0500679503,
				"element": "C" 
			},
			{
				"x": -0.7883015524,
				"y": -2.6338801569,
				"z": -0.3945087176,
				"element": "C" 
			},
			{
				"x": -1.3464109967,
				"y": -2.900282062,
				"z": -1.5814603975,
				"element": "N" 
			},
			{
				"x": -1.3338943109,
				"y": -1.9208914391,
				"z": -2.4930790839,
				"element": "C" 
			},
			{
				"x": -0.7716167723,
				"y": -0.6626685573,
				"z": -2.2643995131,
				"element": "C" 
			},
			{
				"x": -0.1948747806,
				"y": -0.4034824549,
				"z": -1.0238142761,
				"element": "C" 
			},
			{
				"x": 1.3407544089,
				"y": -0.6641020189,
				"z": 1.2602810399,
				"element": "H" 
			},
			{
				"x": 0.5730289432,
				"y": -2.1585014141,
				"z": 1.8099940925,
				"element": "H" 
			},
			{
				"x": -1.2996498049,
				"y": -0.8476660403,
				"z": 2.5753411174,
				"element": "H" 
			},
			{
				"x": 1.1354894893,
				"y": 3.6430842458,
				"z": 1.9238097394,
				"element": "H" 
			},
			{
				"x": -0.2940836833,
				"y": 3.4909223701,
				"z": 0.8995333498,
				"element": "H" 
			},
			{
				"x": -0.1325105506,
				"y": 3.4682055796,
				"z": 3.9549322466,
				"element": "H" 
			},
			{
				"x": -1.3769238373,
				"y": 4.2017256439,
				"z": 2.9143829071,
				"element": "H" 
			},
			{
				"x": -0.8027296381,
				"y": -3.4485342331,
				"z": 0.3310692384,
				"element": "H" 
			},
			{
				"x": -1.7917849514,
				"y": -2.1532644971,
				"z": -3.4532479963,
				"element": "H" 
			},
			{
				"x": -0.7837244192,
				"y": 0.0918216898,
				"z": -3.0451747011,
				"element": "H" 
			},
			{
				"x": 0.254167329,
				"y": 0.5586048656,
				"z": -0.7954019955,
				"element": "H" 
			}
		],
		 "valence_orbital": [ 
			{
				"type": "occ",
				"energy": -0.26663,
				"method": "rhf"
			},
			{
				"type": "occ",
				"energy": -0.2588,
				"method": "rhf"
			},
			{
				"type": "occ",
				"energy": -0.25259,
				"method": "rhf"
			},
			{
				"type": "occ",
				"energy": -0.24094,
				"method": "rhf"
			},
			{
				"type": "occ",
				"energy": -0.22088,
				"method": "rhf"
			},
			{
				"type": "unocc",
				"energy": -0.02446,
				"method": "rhf"
			},
			{
				"type": "unocc",
				"energy": -0.01157,
				"method": "rhf"
			},
			{
				"type": "unocc",
				"energy": 0.00395,
				"method": "rhf"
			},
			{
				"type": "unocc",
				"energy": 0.03124,
				"method": "rhf"
			},
			{
				"type": "unocc",
				"energy": 0.08206,
				"method": "rhf"
			}
		],
		"cosmo_sigma_profile": { 
			"-0.025": 0.0,
			"-0.024": 0.0,
			"-0.023": 0.0,
			"-0.022": 0.0,
			"-0.021": 0.0,
			"-0.02": 0.0,
			"-0.019": 0.0,
			"-0.018": 0.0,
			"-0.017": 0.0,
			"-0.016": 0.0,
			"-0.015": 0.110467722618,
			"-0.014": 1.11666284934,
			"-0.013": 1.07858658982,
			"-0.012": 1.18545315125,
			"-0.011": 1.14985849082,
			"-0.01": 1.18717289205,
			"-0.009": 1.66917094778,
			"-0.008": 1.60132381024,
			"-0.007": 3.98220791392,
			"-0.006": 13.1131643149,
			"-0.005": 17.3683887916,
			"-0.004": 21.7714428634,
			"-0.003": 20.8990753403,
			"-0.002": 18.128526469,
			"-0.001": 13.3250513959,
			"0.0": 11.5969157258,
			"0.001": 12.800704848,
			"0.002": 20.015469199,
			"0.003": 19.5695777471,
			"0.004": 9.29742581012,
			"0.005": 8.11751963345,
			"0.006": 6.71624433126,
			"0.007": 5.61110182662,
			"0.008": 6.15168340577,
			"0.009": 3.64787250553,
			"0.01": 1.49846125064,
			"0.011": 1.56837504051,
			"0.012": 1.81438495312,
			"0.013": 1.91756165561,
			"0.014": 1.56361010427,
			"0.015": 1.09265874963,
			"0.016": 0.727996230609,
			"0.017": 0.488452702992,
			"0.018": 0.0,
			"0.019": 0.0,
			"0.02": 0.0,
			"0.021": 0.0,
			"0.022": 0.0,
			"0.023": 0.0,
			"0.024": 0.0,
			"0.025": 0.0
		}
	}
}
