{
	 "smiles": "FC1=NC=CC(=C1)C#N", 
	 "Tm": 305.15, 
	 "num_atms": 12, 
	 "gaussian": { 
		 "optdone": 1, 
		 "sigma_profile": "yes", 
		 "theory": "DFT", 
		 "functional": "B3LYP", 
		 "basiset": "6-31G**", 
		 "properties": { 
			 "R2extent": 1433.948, 
			 "electric_dipole_moment_norm": 1.64965332722, 
			 "electric_quadrupole_moment_norm": 18.8376538518, 
			 "total_energy": -439.75921971, 
			 "HOMO_LUMO_gap": 0.20305, 
			 "cosmo_polarized_energy": -9.08, 
			 "cosmo_cavitation_energy": 18.54, 
			 "cosmo_dispersion_energy": -13.07, 
			 "cosmo_repulsion_energy": 1.05, 
			 "cosmo_total_nonelectrostatic_energy": 6.51, 
			 "SMD_solvation_energy": 3.81 
		},
		"coords": [
			{
				"x": 1.1086466602,
				"y": -1.8485021015,
				"z": 0.6262819602,
				"element": "F" 
			},
			{
				"x": 0.7746011782,
				"y": -0.7246261577,
				"z": -0.0167790154,
				"element": "C" 
			},
			{
				"x": 1.1094947085,
				"y": 0.4053170695,
				"z": 0.5690327694,
				"element": "N" 
			},
			{
				"x": 0.7805643928,
				"y": 1.5404262391,
				"z": -0.0651705959,
				"element": "C" 
			},
			{
				"x": 0.1160376096,
				"y": 1.5753148631,
				"z": -1.2871385483,
				"element": "C" 
			},
			{
				"x": -0.2260061373,
				"y": 0.3495501832,
				"z": -1.8836197015,
				"element": "C" 
			},
			{
				"x": 0.1093734566,
				"y": -0.8442629816,
				"z": -1.236181473,
				"element": "C" 
			},
			{
				"x": -0.91243947,
				"y": 0.3186073276,
				"z": -3.1440102287,
				"element": "C" 
			},
			{
				"x": -1.4682632373,
				"y": 0.299229991,
				"z": -4.1646715066,
				"element": "N" 
			},
			{
				"x": 1.0640945371,
				"y": 2.4649240301,
				"z": 0.431644749,
				"element": "H" 
			},
			{
				"x": -0.1307828176,
				"y": 2.5155519464,
				"z": -1.7652382499,
				"element": "H" 
			},
			{
				"x": -0.1303208808,
				"y": -1.8150304093,
				"z": -1.6513501594,
				"element": "H" 
			}
		],
		 "valence_orbital": [ 
			{
				"type": "occ",
				"energy": -0.37924,
				"method": "rhf"
			},
			{
				"type": "occ",
				"energy": -0.35313,
				"method": "rhf"
			},
			{
				"type": "occ",
				"energy": -0.3095,
				"method": "rhf"
			},
			{
				"type": "occ",
				"energy": -0.30305,
				"method": "rhf"
			},
			{
				"type": "occ",
				"energy": -0.2877,
				"method": "rhf"
			},
			{
				"type": "unocc",
				"energy": -0.08465,
				"method": "rhf"
			},
			{
				"type": "unocc",
				"energy": -0.03975,
				"method": "rhf"
			},
			{
				"type": "unocc",
				"energy": 0.01529,
				"method": "rhf"
			},
			{
				"type": "unocc",
				"energy": 0.05855,
				"method": "rhf"
			},
			{
				"type": "unocc",
				"energy": 0.07571,
				"method": "rhf"
			}
		],
		"cosmo_sigma_profile": { 
			"-0.025": 0.0,
			"-0.024": 0.0,
			"-0.023": 0.0,
			"-0.022": 0.0,
			"-0.021": 0.0,
			"-0.02": 0.0,
			"-0.019": 0.0,
			"-0.018": 0.0,
			"-0.017": 0.0,
			"-0.016": 0.0,
			"-0.015": 0.0,
			"-0.014": 0.0,
			"-0.013": 0.0,
			"-0.012": 0.0,
			"-0.011": 0.0836712932123,
			"-0.01": 2.29261973143,
			"-0.009": 4.60330476062,
			"-0.008": 7.60017016063,
			"-0.007": 6.18462467418,
			"-0.006": 5.6695523888,
			"-0.005": 5.12315382886,
			"-0.004": 8.8049178261,
			"-0.003": 15.8401572438,
			"-0.002": 15.0663918343,
			"-0.001": 10.8776990168,
			"0.0": 6.94624880849,
			"0.001": 4.0005776011,
			"0.002": 7.98152657036,
			"0.003": 10.6312855429,
			"0.004": 7.09749117159,
			"0.005": 4.88661749441,
			"0.006": 4.09767215761,
			"0.007": 4.6673816064,
			"0.008": 4.82868452943,
			"0.009": 4.21255860851,
			"0.01": 3.18841404283,
			"0.011": 3.33055697124,
			"0.012": 2.31587536071,
			"0.013": 1.02846496658,
			"0.014": 0.158988530108,
			"0.015": 0.0,
			"0.016": 0.0,
			"0.017": 0.0,
			"0.018": 0.0,
			"0.019": 0.0,
			"0.02": 0.0,
			"0.021": 0.0,
			"0.022": 0.0,
			"0.023": 0.0,
			"0.024": 0.0,
			"0.025": 0.0
		}
	}
}
