{
	 "smiles": "CNC1=CN=C(Br)C=C1", 
	 "Tm": 331.15, 
	 "num_atms": 16, 
	 "gaussian": { 
		 "optdone": 1, 
		 "sigma_profile": "yes", 
		 "theory": "DFT", 
		 "functional": "B3LYP", 
		 "basiset": "6-31G**", 
		 "properties": { 
			 "R2extent": 3080.3484, 
			 "electric_dipole_moment_norm": 5.38680443491, 
			 "electric_quadrupole_moment_norm": 11.4796711373, 
			 "total_energy": -2913.7558892, 
			 "HOMO_LUMO_gap": 0.18115, 
			 "cosmo_polarized_energy": -10.76, 
			 "cosmo_cavitation_energy": 22.19, 
			 "cosmo_dispersion_energy": -17.11, 
			 "cosmo_repulsion_energy": 1.4, 
			 "cosmo_total_nonelectrostatic_energy": 6.48, 
			 "SMD_solvation_energy": 0.67 
		},
		"coords": [
			{
				"x": -2.6857536046,
				"y": -2.1166235658,
				"z": -1.9081695402,
				"element": "C" 
			},
			{
				"x": -2.2537626099,
				"y": -2.1905595609,
				"z": -0.5259838906,
				"element": "N" 
			},
			{
				"x": -1.6695065305,
				"y": -1.1167036512,
				"z": 0.1195961813,
				"element": "C" 
			},
			{
				"x": -1.020570634,
				"y": -1.3010260974,
				"z": 1.3587627702,
				"element": "C" 
			},
			{
				"x": -0.4628009278,
				"y": -0.3159143569,
				"z": 2.0603338734,
				"element": "N" 
			},
			{
				"x": -0.5219115082,
				"y": 0.9079067093,
				"z": 1.5675582383,
				"element": "C" 
			},
			{
				"x": 0.2901552286,
				"y": 2.3145542542,
				"z": 2.6014909196,
				"element": "Br" 
			},
			{
				"x": -1.1289925689,
				"y": 1.2277827145,
				"z": 0.354261528,
				"element": "C" 
			},
			{
				"x": -1.7071788226,
				"y": 0.1979096106,
				"z": -0.381769721,
				"element": "C" 
			},
			{
				"x": -3.0530022167,
				"y": -3.0982080574,
				"z": -2.2144123191,
				"element": "H" 
			},
			{
				"x": -1.8838770896,
				"y": -1.8142549837,
				"z": -2.5997319524,
				"element": "H" 
			},
			{
				"x": -3.5140623041,
				"y": -1.4074787303,
				"z": -2.0178311434,
				"element": "H" 
			},
			{
				"x": -1.9332961944,
				"y": -3.0963602176,
				"z": -0.2171534974,
				"element": "H" 
			},
			{
				"x": -0.9578594575,
				"y": -2.2989063079,
				"z": 1.7932042618,
				"element": "H" 
			},
			{
				"x": -1.1439885742,
				"y": 2.2494383939,
				"z": -0.0060390236,
				"element": "H" 
			},
			{
				"x": -2.1812921856,
				"y": 0.4182438467,
				"z": -1.3318166851,
				"element": "H" 
			}
		],
		 "valence_orbital": [ 
			{
				"type": "occ",
				"energy": -0.29001,
				"method": "rhf"
			},
			{
				"type": "occ",
				"energy": -0.27509,
				"method": "rhf"
			},
			{
				"type": "occ",
				"energy": -0.2737,
				"method": "rhf"
			},
			{
				"type": "occ",
				"energy": -0.26266,
				"method": "rhf"
			},
			{
				"type": "occ",
				"energy": -0.20816,
				"method": "rhf"
			},
			{
				"type": "unocc",
				"energy": -0.02701,
				"method": "rhf"
			},
			{
				"type": "unocc",
				"energy": -0.00234,
				"method": "rhf"
			},
			{
				"type": "unocc",
				"energy": 0.02119,
				"method": "rhf"
			},
			{
				"type": "unocc",
				"energy": 0.07085,
				"method": "rhf"
			},
			{
				"type": "unocc",
				"energy": 0.09197,
				"method": "rhf"
			}
		],
		"cosmo_sigma_profile": { 
			"-0.025": 0.0,
			"-0.024": 0.0,
			"-0.023": 0.0,
			"-0.022": 0.0,
			"-0.021": 0.0,
			"-0.02": 0.0,
			"-0.019": 0.0,
			"-0.018": 0.0,
			"-0.017": 0.0,
			"-0.016": 0.0,
			"-0.015": 0.0,
			"-0.014": 0.276198788825,
			"-0.013": 1.58597744379,
			"-0.012": 1.35810553465,
			"-0.011": 1.84464263882,
			"-0.01": 1.18254493569,
			"-0.009": 1.57104397457,
			"-0.008": 1.9013367986,
			"-0.007": 6.75337940624,
			"-0.006": 8.45696236299,
			"-0.005": 9.91223695392,
			"-0.004": 11.6500488266,
			"-0.003": 12.4544642906,
			"-0.002": 13.7946522538,
			"-0.001": 11.085545239,
			"0.0": 8.60872422592,
			"0.001": 12.2912929158,
			"0.002": 18.1128418923,
			"0.003": 13.6338007503,
			"0.004": 10.8361671841,
			"0.005": 12.9927587185,
			"0.006": 5.62694259905,
			"0.007": 3.95879434475,
			"0.008": 2.52181202843,
			"0.009": 1.67415234882,
			"0.01": 1.68637530816,
			"0.011": 0.772443481585,
			"0.012": 1.47970321095,
			"0.013": 0.886031909091,
			"0.014": 0.758957856453,
			"0.015": 0.597342706841,
			"0.016": 0.0292613209026,
			"0.017": 0.0,
			"0.018": 0.0,
			"0.019": 0.0,
			"0.02": 0.0,
			"0.021": 0.0,
			"0.022": 0.0,
			"0.023": 0.0,
			"0.024": 0.0,
			"0.025": 0.0
		}
	}
}
