{
	 "smiles": "CCOC(=O)C1=CN=C2N(C)N=C(C)C2=C1Cl", 
	 "Tm": 361.65, 
	 "num_atms": 29, 
	 "gaussian": { 
		 "optdone": 1, 
		 "sigma_profile": "yes", 
		 "theory": "DFT", 
		 "functional": "B3LYP", 
		 "basiset": "6-31G**", 
		 "properties": { 
			 "R2extent": 5587.9757, 
			 "electric_dipole_moment_norm": 1.26764689484, 
			 "electric_quadrupole_moment_norm": 14.4239527089, 
			 "total_energy": -1201.30563665, 
			 "HOMO_LUMO_gap": 0.174, 
			 "cosmo_polarized_energy": -9.31, 
			 "cosmo_cavitation_energy": 34.74, 
			 "cosmo_dispersion_energy": -25.19, 
			 "cosmo_repulsion_energy": 1.95, 
			 "cosmo_total_nonelectrostatic_energy": 11.5, 
			 "SMD_solvation_energy": 4.61 
		},
		"coords": [
			{
				"x": 2.1189535232,
				"y": 5.6500870071,
				"z": 0.2470109309,
				"element": "C" 
			},
			{
				"x": 0.710156924,
				"y": 5.2688142508,
				"z": -0.1814283548,
				"element": "C" 
			},
			{
				"x": 0.572332712,
				"y": 3.832531319,
				"z": -0.320512571,
				"element": "O" 
			},
			{
				"x": 0.2830476978,
				"y": 3.1459888191,
				"z": 0.7972131836,
				"element": "C" 
			},
			{
				"x": 0.1608669659,
				"y": 3.6649479078,
				"z": 1.8929413436,
				"element": "O" 
			},
			{
				"x": 0.1518492835,
				"y": 1.6708588056,
				"z": 0.5908561251,
				"element": "C" 
			},
			{
				"x": 0.1726286676,
				"y": 0.9141939363,
				"z": 1.8015664186,
				"element": "C" 
			},
			{
				"x": 0.0825744696,
				"y": -0.4018408402,
				"z": 1.90175991,
				"element": "N" 
			},
			{
				"x": -0.0462588969,
				"y": -1.0266133094,
				"z": 0.7234423292,
				"element": "C" 
			},
			{
				"x": -0.1630502769,
				"y": -2.3650774966,
				"z": 0.5318791085,
				"element": "N" 
			},
			{
				"x": -0.1733746237,
				"y": -3.4068545898,
				"z": 1.5387483269,
				"element": "C" 
			},
			{
				"x": -0.2863827486,
				"y": -2.6687286785,
				"z": -0.7920195984,
				"element": "N" 
			},
			{
				"x": -0.2517813751,
				"y": -1.5313777599,
				"z": -1.4696376093,
				"element": "C" 
			},
			{
				"x": -0.3646164861,
				"y": -1.5461568035,
				"z": -2.9620719148,
				"element": "C" 
			},
			{
				"x": -0.0968487956,
				"y": -0.4264334888,
				"z": -0.5633435204,
				"element": "C" 
			},
			{
				"x": 0.007012578,
				"y": 0.9709236783,
				"z": -0.6168456338,
				"element": "C" 
			},
			{
				"x": -0.0899456027,
				"y": 1.7341276744,
				"z": -2.185061,
				"element": "Cl" 
			},
			{
				"x": 2.3315207931,
				"y": 5.2712476743,
				"z": 1.2494012397,
				"element": "H" 
			},
			{
				"x": 2.8600909073,
				"y": 5.248882519,
				"z": -0.4503776338,
				"element": "H" 
			},
			{
				"x": 2.2174551304,
				"y": 6.7406628947,
				"z": 0.2635750002,
				"element": "H" 
			},
			{
				"x": -0.032047846,
				"y": 5.6261838099,
				"z": 0.5357900151,
				"element": "H" 
			},
			{
				"x": 0.4742793363,
				"y": 5.6555893835,
				"z": -1.1754166896,
				"element": "H" 
			},
			{
				"x": 0.2717253876,
				"y": 1.4771856726,
				"z": 2.7246693331,
				"element": "H" 
			},
			{
				"x": 0.6474537141,
				"y": -4.1075014657,
				"z": 1.3641778208,
				"element": "H" 
			},
			{
				"x": -0.0517352034,
				"y": -2.9283696096,
				"z": 2.5109747367,
				"element": "H" 
			},
			{
				"x": -1.1211079337,
				"y": -3.9513219545,
				"z": 1.5098277891,
				"element": "H" 
			},
			{
				"x": -0.4646444296,
				"y": -2.579543583,
				"z": -3.3004979047,
				"element": "H" 
			},
			{
				"x": -1.2344595721,
				"y": -0.9766059406,
				"z": -3.3039806417,
				"element": "H" 
			},
			{
				"x": 0.5173056998,
				"y": -1.1031998325,
				"z": -3.4353405386,
				"element": "H" 
			}
		],
		 "valence_orbital": [ 
			{
				"type": "occ",
				"energy": -0.29401,
				"method": "rhf"
			},
			{
				"type": "occ",
				"energy": -0.28369,
				"method": "rhf"
			},
			{
				"type": "occ",
				"energy": -0.27382,
				"method": "rhf"
			},
			{
				"type": "occ",
				"energy": -0.25959,
				"method": "rhf"
			},
			{
				"type": "occ",
				"energy": -0.23603,
				"method": "rhf"
			},
			{
				"type": "unocc",
				"energy": -0.06203,
				"method": "rhf"
			},
			{
				"type": "unocc",
				"energy": -0.03418,
				"method": "rhf"
			},
			{
				"type": "unocc",
				"energy": 0.0218,
				"method": "rhf"
			},
			{
				"type": "unocc",
				"energy": 0.03455,
				"method": "rhf"
			},
			{
				"type": "unocc",
				"energy": 0.05852,
				"method": "rhf"
			}
		],
		"cosmo_sigma_profile": { 
			"-0.025": 0.0,
			"-0.024": 0.0,
			"-0.023": 0.0,
			"-0.022": 0.0,
			"-0.021": 0.0,
			"-0.02": 0.0,
			"-0.019": 0.0,
			"-0.018": 0.0,
			"-0.017": 0.0,
			"-0.016": 0.0,
			"-0.015": 0.0,
			"-0.014": 0.0,
			"-0.013": 0.0,
			"-0.012": 0.0,
			"-0.011": 0.0,
			"-0.01": 0.0,
			"-0.009": 0.0,
			"-0.008": 0.0,
			"-0.007": 1.19864831361,
			"-0.006": 8.38068364363,
			"-0.005": 15.0802769895,
			"-0.004": 24.0222351675,
			"-0.003": 33.413869097,
			"-0.002": 34.240823533,
			"-0.001": 41.5492646811,
			"0.0": 31.6938691355,
			"0.001": 16.0286523566,
			"0.002": 13.0134556369,
			"0.003": 11.7409107088,
			"0.004": 8.00189815387,
			"0.005": 6.73923857167,
			"0.006": 8.19760007501,
			"0.007": 4.3226357554,
			"0.008": 2.87451229204,
			"0.009": 4.29335568257,
			"0.01": 3.34379625685,
			"0.011": 4.39015335114,
			"0.012": 4.30883776694,
			"0.013": 1.1718957594,
			"0.014": 0.675458681652,
			"0.015": 0.0724842382308,
			"0.016": 0.0,
			"0.017": 0.0,
			"0.018": 0.0,
			"0.019": 0.0,
			"0.02": 0.0,
			"0.021": 0.0,
			"0.022": 0.0,
			"0.023": 0.0,
			"0.024": 0.0,
			"0.025": 0.0
		}
	}
}
