{
	 "smiles": "CN(C)C(=N)N(C)C", 
	 "Tm": 243.15, 
	 "num_atms": 21, 
	 "gaussian": { 
		 "optdone": 1, 
		 "sigma_profile": "yes", 
		 "theory": "DFT", 
		 "functional": "B3LYP", 
		 "basiset": "6-31G**", 
		 "properties": { 
			 "R2extent": 1305.851, 
			 "electric_dipole_moment_norm": 2.51910834622, 
			 "electric_quadrupole_moment_norm": 9.58410403324, 
			 "total_energy": -362.603010161, 
			 "HOMO_LUMO_gap": 0.26097, 
			 "cosmo_polarized_energy": -7.93, 
			 "cosmo_cavitation_energy": 22.47, 
			 "cosmo_dispersion_energy": -16.29, 
			 "cosmo_repulsion_energy": 1.36, 
			 "cosmo_total_nonelectrostatic_energy": 7.54, 
			 "SMD_solvation_energy": 3.17 
		},
		"coords": [
			{
				"x": -1.0614866777,
				"y": 0.7318811152,
				"z": 0.50604041,
				"element": "C" 
			},
			{
				"x": -0.947655339,
				"y": -0.6312704964,
				"z": -0.0121053925,
				"element": "N" 
			},
			{
				"x": -2.1504559025,
				"y": -1.4226125553,
				"z": 0.1783475552,
				"element": "C" 
			},
			{
				"x": -0.2367391303,
				"y": -0.8339899726,
				"z": -1.2146967359,
				"element": "C" 
			},
			{
				"x": -0.6462937696,
				"y": -1.4806298369,
				"z": -2.2483522314,
				"element": "N" 
			},
			{
				"x": 1.0398953706,
				"y": -0.2599118602,
				"z": -1.2157642126,
				"element": "N" 
			},
			{
				"x": 1.9186343951,
				"y": -0.495871366,
				"z": -0.0719632239,
				"element": "C" 
			},
			{
				"x": 1.7445457781,
				"y": -0.2676576223,
				"z": -2.4909710914,
				"element": "C" 
			},
			{
				"x": -1.1674585622,
				"y": 0.7135843873,
				"z": 1.5967442453,
				"element": "H" 
			},
			{
				"x": -1.9375100189,
				"y": 1.2543467506,
				"z": 0.0874988921,
				"element": "H" 
			},
			{
				"x": -0.1707933888,
				"y": 1.3019730665,
				"z": 0.2457845701,
				"element": "H" 
			},
			{
				"x": -3.0092476908,
				"y": -1.062919727,
				"z": -0.4152698651,
				"element": "H" 
			},
			{
				"x": -2.4382529293,
				"y": -1.3831977251,
				"z": 1.2337285935,
				"element": "H" 
			},
			{
				"x": -1.9569823437,
				"y": -2.4646415686,
				"z": -0.087119928,
				"element": "H" 
			},
			{
				"x": -1.6424123844,
				"y": -1.6845767694,
				"z": -2.1836335676,
				"element": "H" 
			},
			{
				"x": 2.6294651758,
				"y": 0.3317669583,
				"z": 0.0300315849,
				"element": "H" 
			},
			{
				"x": 1.3345163144,
				"y": -0.5748459943,
				"z": 0.8438424798,
				"element": "H" 
			},
			{
				"x": 2.4962724949,
				"y": -1.4270383738,
				"z": -0.1916712741,
				"element": "H" 
			},
			{
				"x": 2.147054459,
				"y": -1.2602922987,
				"z": -2.7421044457,
				"element": "H" 
			},
			{
				"x": 1.0624520935,
				"y": 0.0240895127,
				"z": -3.2890413814,
				"element": "H" 
			},
			{
				"x": 2.5743520558,
				"y": 0.445314376,
				"z": -2.4364249815,
				"element": "H" 
			}
		],
		 "valence_orbital": [ 
			{
				"type": "occ",
				"energy": -0.36297,
				"method": "rhf"
			},
			{
				"type": "occ",
				"energy": -0.32751,
				"method": "rhf"
			},
			{
				"type": "occ",
				"energy": -0.25201,
				"method": "rhf"
			},
			{
				"type": "occ",
				"energy": -0.21855,
				"method": "rhf"
			},
			{
				"type": "occ",
				"energy": -0.21319,
				"method": "rhf"
			},
			{
				"type": "unocc",
				"energy": 0.04778,
				"method": "rhf"
			},
			{
				"type": "unocc",
				"energy": 0.08186,
				"method": "rhf"
			},
			{
				"type": "unocc",
				"energy": 0.11201,
				"method": "rhf"
			},
			{
				"type": "unocc",
				"energy": 0.13111,
				"method": "rhf"
			},
			{
				"type": "unocc",
				"energy": 0.1389,
				"method": "rhf"
			}
		],
		"cosmo_sigma_profile": { 
			"-0.025": 0.0,
			"-0.024": 0.0,
			"-0.023": 0.0,
			"-0.022": 0.0,
			"-0.021": 0.0,
			"-0.02": 0.0,
			"-0.019": 0.0,
			"-0.018": 0.0,
			"-0.017": 0.0,
			"-0.016": 0.0,
			"-0.015": 0.0,
			"-0.014": 0.0,
			"-0.013": 0.0,
			"-0.012": 0.0,
			"-0.011": 0.0,
			"-0.01": 0.0,
			"-0.009": 0.0104899816642,
			"-0.008": 0.820867926572,
			"-0.007": 1.32751076009,
			"-0.006": 1.25373627379,
			"-0.005": 4.04056892315,
			"-0.004": 16.7670634593,
			"-0.003": 24.8780210537,
			"-0.002": 30.7136877927,
			"-0.001": 35.5567186018,
			"0.0": 14.9304363546,
			"0.001": 6.55710069925,
			"0.002": 5.53231580984,
			"0.003": 4.95376298801,
			"0.004": 4.44387508156,
			"0.005": 3.01987109661,
			"0.006": 2.80843754028,
			"0.007": 2.49515328616,
			"0.008": 1.82436295303,
			"0.009": 1.19383435912,
			"0.01": 1.77314158548,
			"0.011": 0.979222437237,
			"0.012": 1.26659540287,
			"0.013": 1.32811875712,
			"0.014": 1.28435736761,
			"0.015": 1.35818082125,
			"0.016": 0.663827951905,
			"0.017": 0.99627691241,
			"0.018": 1.12785066604,
			"0.019": 0.550069379827,
			"0.02": 0.000633799950914,
			"0.021": 0.0,
			"0.022": 0.0,
			"0.023": 0.0,
			"0.024": 0.0,
			"0.025": 0.0
		}
	}
}
