{
	 "smiles": "CS(=O)(=O)NC1=C(Cl)C=CC(=C1)C(O)=O", 
	 "Tm": 549.15, 
	 "num_atms": 23, 
	 "gaussian": { 
		 "optdone": 1, 
		 "sigma_profile": "yes", 
		 "theory": "DFT", 
		 "functional": "B3LYP", 
		 "basiset": "6-31G**", 
		 "properties": { 
			 "R2extent": 5325.0083, 
			 "electric_dipole_moment_norm": 3.39142186406, 
			 "electric_quadrupole_moment_norm": 21.676708213, 
			 "total_energy": -1523.65224627, 
			 "HOMO_LUMO_gap": 0.18441, 
			 "cosmo_polarized_energy": -19.09, 
			 "cosmo_cavitation_energy": 31.44, 
			 "cosmo_dispersion_energy": -22.68, 
			 "cosmo_repulsion_energy": 1.73, 
			 "cosmo_total_nonelectrostatic_energy": 10.5, 
			 "SMD_solvation_energy": 5.93 
		},
		"coords": [
			{
				"x": 1.1085386451,
				"y": 2.5285510967,
				"z": 1.580474934,
				"element": "C" 
			},
			{
				"x": 0.3991671848,
				"y": 1.1061058427,
				"z": 2.435592963,
				"element": "S" 
			},
			{
				"x": 0.5260238327,
				"y": 1.311012936,
				"z": 3.8757849283,
				"element": "O" 
			},
			{
				"x": -0.8837460497,
				"y": 0.8104771964,
				"z": 1.8025174931,
				"element": "O" 
			},
			{
				"x": 1.4644268575,
				"y": -0.1735873509,
				"z": 2.1096653181,
				"element": "N" 
			},
			{
				"x": 1.7954629222,
				"y": -0.6465845057,
				"z": 0.8244577956,
				"element": "C" 
			},
			{
				"x": 3.1245576162,
				"y": -1.0000382778,
				"z": 0.5171351659,
				"element": "C" 
			},
			{
				"x": 4.3806292752,
				"y": -0.8034964454,
				"z": 1.7327020505,
				"element": "Cl" 
			},
			{
				"x": 3.4743945626,
				"y": -1.5148154064,
				"z": -0.7301417526,
				"element": "C" 
			},
			{
				"x": 2.5012228495,
				"y": -1.6644452403,
				"z": -1.7104449189,
				"element": "C" 
			},
			{
				"x": 1.175642457,
				"y": -1.3134953303,
				"z": -1.4283720631,
				"element": "C" 
			},
			{
				"x": 0.8206812731,
				"y": -0.8237594827,
				"z": -0.1683992454,
				"element": "C" 
			},
			{
				"x": 0.1645477091,
				"y": -1.5025730422,
				"z": -2.5065664023,
				"element": "C" 
			},
			{
				"x": -1.0836512636,
				"y": -1.1401450718,
				"z": -2.1314353033,
				"element": "O" 
			},
			{
				"x": 0.4150148657,
				"y": -1.9336509096,
				"z": -3.6143546252,
				"element": "O" 
			},
			{
				"x": 2.0805921324,
				"y": 2.7561270922,
				"z": 2.0192906209,
				"element": "H" 
			},
			{
				"x": 0.4174070031,
				"y": 3.3604566661,
				"z": 1.7266266678,
				"element": "H" 
			},
			{
				"x": 1.1976928716,
				"y": 2.2954172958,
				"z": 0.5184221323,
				"element": "H" 
			},
			{
				"x": 2.2064969566,
				"y": -0.2067643497,
				"z": 2.801179842,
				"element": "H" 
			},
			{
				"x": 4.5068872752,
				"y": -1.7835988224,
				"z": -0.9226837396,
				"element": "H" 
			},
			{
				"x": 2.7475030592,
				"y": -2.0535540197,
				"z": -2.6916089442,
				"element": "H" 
			},
			{
				"x": -0.2104786151,
				"y": -0.5834958334,
				"z": 0.0565888628,
				"element": "H" 
			},
			{
				"x": -1.6559134203,
				"y": -1.3076440377,
				"z": -2.8981317798,
				"element": "H" 
			}
		],
		 "valence_orbital": [ 
			{
				"type": "occ",
				"energy": -0.31953,
				"method": "rhf"
			},
			{
				"type": "occ",
				"energy": -0.31489,
				"method": "rhf"
			},
			{
				"type": "occ",
				"energy": -0.28797,
				"method": "rhf"
			},
			{
				"type": "occ",
				"energy": -0.27537,
				"method": "rhf"
			},
			{
				"type": "occ",
				"energy": -0.25032,
				"method": "rhf"
			},
			{
				"type": "unocc",
				"energy": -0.06591,
				"method": "rhf"
			},
			{
				"type": "unocc",
				"energy": -0.03251,
				"method": "rhf"
			},
			{
				"type": "unocc",
				"energy": 0.00498,
				"method": "rhf"
			},
			{
				"type": "unocc",
				"energy": 0.03301,
				"method": "rhf"
			},
			{
				"type": "unocc",
				"energy": 0.0569,
				"method": "rhf"
			}
		],
		"cosmo_sigma_profile": { 
			"-0.025": 0.0,
			"-0.024": 0.0,
			"-0.023": 0.0,
			"-0.022": 0.0,
			"-0.021": 0.0,
			"-0.02": 0.0,
			"-0.019": 0.142915397244,
			"-0.018": 1.0237918014,
			"-0.017": 1.05014791186,
			"-0.016": 0.413176533645,
			"-0.015": 1.24787394023,
			"-0.014": 0.876578247727,
			"-0.013": 0.532154360018,
			"-0.012": 1.3258327573,
			"-0.011": 2.42449489333,
			"-0.01": 3.23129010933,
			"-0.009": 5.31592453945,
			"-0.008": 7.50801938211,
			"-0.007": 10.0358949048,
			"-0.006": 12.4477981626,
			"-0.005": 17.1277915434,
			"-0.004": 11.8834915026,
			"-0.003": 12.1875309719,
			"-0.002": 12.1836174082,
			"-0.001": 16.2094897097,
			"0.0": 19.787431345,
			"0.001": 23.1786052781,
			"0.002": 17.3849174503,
			"0.003": 13.2707066742,
			"0.004": 7.93161097749,
			"0.005": 6.63682028918,
			"0.006": 6.53607765003,
			"0.007": 5.12747742999,
			"0.008": 4.8276597719,
			"0.009": 6.38378068598,
			"0.01": 11.2064328392,
			"0.011": 11.8929874059,
			"0.012": 2.79507790677,
			"0.013": 0.0,
			"0.014": 0.0,
			"0.015": 0.0,
			"0.016": 0.0,
			"0.017": 0.0,
			"0.018": 0.0,
			"0.019": 0.0,
			"0.02": 0.0,
			"0.021": 0.0,
			"0.022": 0.0,
			"0.023": 0.0,
			"0.024": 0.0,
			"0.025": 0.0
		}
	}
}
