{
	 "smiles": "[O-][N+](=O)C1=CC(=C(Cl)C=C1)S(=O)(=O)NC1=NC2=C(S1)C=C(Cl)C=C2", 
	 "Tm": 602.15, 
	 "num_atms": 31, 
	 "gaussian": { 
		 "optdone": 1, 
		 "sigma_profile": "yes", 
		 "theory": "DFT", 
		 "functional": "B3LYP", 
		 "basiset": "6-31G**", 
		 "properties": { 
			 "R2extent": 15526.6581, 
			 "electric_dipole_moment_norm": 3.91102280612, 
			 "electric_quadrupole_moment_norm": 28.6463334851, 
			 "total_energy": -2681.32405048, 
			 "HOMO_LUMO_gap": 0.12836, 
			 "cosmo_polarized_energy": -21.18, 
			 "cosmo_cavitation_energy": 44.16, 
			 "cosmo_dispersion_energy": -32.45, 
			 "cosmo_repulsion_energy": 2.34, 
			 "cosmo_total_nonelectrostatic_energy": 14.05, 
			 "SMD_solvation_energy": 6.99 
		},
		"coords": [
			{
				"x": -4.4373698814,
				"y": -1.6504998832,
				"z": 5.7502487851,
				"element": "O" 
			},
			{
				"x": -4.4139904665,
				"y": -1.7964699647,
				"z": 4.5295968244,
				"element": "N" 
			},
			{
				"x": -5.1399104803,
				"y": -2.5543324493,
				"z": 3.8910982609,
				"element": "O" 
			},
			{
				"x": -3.4330290428,
				"y": -0.9982457612,
				"z": 3.7748307257,
				"element": "C" 
			},
			{
				"x": -3.3827562289,
				"y": -1.1301732065,
				"z": 2.3924272992,
				"element": "C" 
			},
			{
				"x": -2.4514091775,
				"y": -0.3797809645,
				"z": 1.6747238862,
				"element": "C" 
			},
			{
				"x": -1.5853731418,
				"y": 0.4991281481,
				"z": 2.3513070084,
				"element": "C" 
			},
			{
				"x": -0.4036909491,
				"y": 1.4489481645,
				"z": 1.5167519586,
				"element": "Cl" 
			},
			{
				"x": -1.6586725566,
				"y": 0.6093595081,
				"z": 3.7448830461,
				"element": "C" 
			},
			{
				"x": -2.5839459383,
				"y": -0.137081663,
				"z": 4.4645475897,
				"element": "C" 
			},
			{
				"x": -2.5102359775,
				"y": -0.5762369137,
				"z": -0.124181971,
				"element": "S" 
			},
			{
				"x": -3.4963267342,
				"y": -1.6288030598,
				"z": -0.3749163342,
				"element": "O" 
			},
			{
				"x": -2.58057915,
				"y": 0.7230261879,
				"z": -0.7706237376,
				"element": "O" 
			},
			{
				"x": -0.9763368399,
				"y": -1.3018864523,
				"z": -0.4702837643,
				"element": "N" 
			},
			{
				"x": -0.1406948279,
				"y": -0.8262526407,
				"z": -1.4884219203,
				"element": "C" 
			},
			{
				"x": 0.3868419157,
				"y": 0.3472643685,
				"z": -1.5279499561,
				"element": "N" 
			},
			{
				"x": 1.1655067134,
				"y": 0.4999105905,
				"z": -2.6620394591,
				"element": "C" 
			},
			{
				"x": 1.2538834556,
				"y": -0.6349967365,
				"z": -3.5062466725,
				"element": "C" 
			},
			{
				"x": 0.2538435397,
				"y": -1.9187169967,
				"z": -2.8536942765,
				"element": "S" 
			},
			{
				"x": 2.0401832489,
				"y": -0.6391148073,
				"z": -4.6582713647,
				"element": "C" 
			},
			{
				"x": 2.7294775334,
				"y": 0.5322790146,
				"z": -4.9604097345,
				"element": "C" 
			},
			{
				"x": 3.7241215809,
				"y": 0.5803085449,
				"z": -6.4072690453,
				"element": "Cl" 
			},
			{
				"x": 2.6541633797,
				"y": 1.6753586841,
				"z": -4.149267027,
				"element": "C" 
			},
			{
				"x": 1.8747006896,
				"y": 1.6604410479,
				"z": -2.9996254145,
				"element": "C" 
			},
			{
				"x": -4.0579016692,
				"y": -1.8043356482,
				"z": 1.8809842149,
				"element": "H" 
			},
			{
				"x": -0.9832709846,
				"y": 1.2871301988,
				"z": 4.2540507922,
				"element": "H" 
			},
			{
				"x": -2.6563017183,
				"y": -0.0632447842,
				"z": 5.5424554112,
				"element": "H" 
			},
			{
				"x": -1.1142597583,
				"y": -2.308701881,
				"z": -0.4829056807,
				"element": "H" 
			},
			{
				"x": 2.114032589,
				"y": -1.5065363661,
				"z": -5.3033266435,
				"element": "H" 
			},
			{
				"x": 3.208663975,
				"y": 2.5639720019,
				"z": -4.4279840423,
				"element": "H" 
			},
			{
				"x": 1.8050369021,
				"y": 2.5320837189,
				"z": -2.3580887586,
				"element": "H" 
			}
		],
		 "valence_orbital": [ 
			{
				"type": "occ",
				"energy": -0.30431,
				"method": "rhf"
			},
			{
				"type": "occ",
				"energy": -0.29549,
				"method": "rhf"
			},
			{
				"type": "occ",
				"energy": -0.29185,
				"method": "rhf"
			},
			{
				"type": "occ",
				"energy": -0.25657,
				"method": "rhf"
			},
			{
				"type": "occ",
				"energy": -0.24039,
				"method": "rhf"
			},
			{
				"type": "unocc",
				"energy": -0.11203,
				"method": "rhf"
			},
			{
				"type": "unocc",
				"energy": -0.07398,
				"method": "rhf"
			},
			{
				"type": "unocc",
				"energy": -0.05637,
				"method": "rhf"
			},
			{
				"type": "unocc",
				"energy": -0.03429,
				"method": "rhf"
			},
			{
				"type": "unocc",
				"energy": -0.02713,
				"method": "rhf"
			}
		],
		"cosmo_sigma_profile": { 
			"-0.025": 0.0,
			"-0.024": 0.0,
			"-0.023": 0.0,
			"-0.022": 0.0,
			"-0.021": 0.0,
			"-0.02": 0.0,
			"-0.019": 0.0,
			"-0.018": 0.255416879139,
			"-0.017": 1.26677648311,
			"-0.016": 0.782987029209,
			"-0.015": 1.24139295562,
			"-0.014": 1.45203536996,
			"-0.013": 1.03746981651,
			"-0.012": 1.62024422942,
			"-0.011": 1.08844962089,
			"-0.01": 2.41051298067,
			"-0.009": 7.00731501425,
			"-0.008": 9.19922501524,
			"-0.007": 10.7946288641,
			"-0.006": 15.062338262,
			"-0.005": 14.7712613754,
			"-0.004": 19.4484477122,
			"-0.003": 26.7483328681,
			"-0.002": 28.1790505898,
			"-0.001": 23.2899183309,
			"0.0": 24.3804521753,
			"0.001": 29.8371666819,
			"0.002": 33.419499505,
			"0.003": 21.8666778381,
			"0.004": 17.913222463,
			"0.005": 12.5490497575,
			"0.006": 12.7689118278,
			"0.007": 13.1107413095,
			"0.008": 11.0695849467,
			"0.009": 13.5931745184,
			"0.01": 5.14518425645,
			"0.011": 1.02270664503,
			"0.012": 0.885803392065,
			"0.013": 0.554462664325,
			"0.014": 0.0951175721503,
			"0.015": 0.000408666397922,
			"0.016": 0.0,
			"0.017": 0.0,
			"0.018": 0.0,
			"0.019": 0.0,
			"0.02": 0.0,
			"0.021": 0.0,
			"0.022": 0.0,
			"0.023": 0.0,
			"0.024": 0.0,
			"0.025": 0.0
		}
	}
}
