{
	 "smiles": "CN1CCN(CCCN2C3=CC=CC=C3SC3=CC=C(Cl)C=C23)CC1", 
	 "Tm": 501.15, 
	 "num_atms": 49, 
	 "gaussian": { 
		 "optdone": 1, 
		 "sigma_profile": "yes", 
		 "theory": "DFT", 
		 "functional": "B3LYP", 
		 "basiset": "6-31G**", 
		 "properties": { 
			 "R2extent": 15467.4295, 
			 "electric_dipole_moment_norm": 3.07939510456, 
			 "electric_quadrupole_moment_norm": 7.50843555676, 
			 "total_energy": -1799.20426159, 
			 "HOMO_LUMO_gap": 0.17366, 
			 "cosmo_polarized_energy": -11.74, 
			 "cosmo_cavitation_energy": 51.44, 
			 "cosmo_dispersion_energy": -36.07, 
			 "cosmo_repulsion_energy": 2.68, 
			 "cosmo_total_nonelectrostatic_energy": 18.05, 
			 "SMD_solvation_energy": 1.85 
		},
		"coords": [
			{
				"x": 1.0063712851,
				"y": 2.3274217174,
				"z": 4.7415863395,
				"element": "C" 
			},
			{
				"x": 1.9259407719,
				"y": 1.7204946145,
				"z": 3.7935560299,
				"element": "N" 
			},
			{
				"x": 2.4521958103,
				"y": 2.6955826775,
				"z": 2.8379973876,
				"element": "C" 
			},
			{
				"x": 3.4682879613,
				"y": 2.0211926698,
				"z": 1.9038293757,
				"element": "C" 
			},
			{
				"x": 2.937075115,
				"y": 0.8555745935,
				"z": 1.1904546087,
				"element": "N" 
			},
			{
				"x": 2.0873168909,
				"y": 1.1929916195,
				"z": 0.0425068064,
				"element": "C" 
			},
			{
				"x": 1.9205220553,
				"y": 0.0334022606,
				"z": -0.9678934245,
				"element": "C" 
			},
			{
				"x": 0.5661891229,
				"y": -0.6910288498,
				"z": -0.8754323852,
				"element": "C" 
			},
			{
				"x": 0.3676640351,
				"y": -1.6552230139,
				"z": -1.9615144688,
				"element": "N" 
			},
			{
				"x": -0.9051942956,
				"y": -1.7491762971,
				"z": -2.5820903592,
				"element": "C" 
			},
			{
				"x": -2.0872801595,
				"y": -1.3517681964,
				"z": -1.9385776219,
				"element": "C" 
			},
			{
				"x": -3.3157006938,
				"y": -1.4208129224,
				"z": -2.5980771592,
				"element": "C" 
			},
			{
				"x": -3.3961781152,
				"y": -1.927157041,
				"z": -3.8940265943,
				"element": "C" 
			},
			{
				"x": -2.2348809399,
				"y": -2.3712279928,
				"z": -4.5282635938,
				"element": "C" 
			},
			{
				"x": -0.9996973604,
				"y": -2.2691784705,
				"z": -3.8879043158,
				"element": "C" 
			},
			{
				"x": 0.4974142528,
				"y": -2.7359164128,
				"z": -4.7366417216,
				"element": "S" 
			},
			{
				"x": 1.3764637825,
				"y": -3.3975543759,
				"z": -3.3364373978,
				"element": "C" 
			},
			{
				"x": 2.2231286831,
				"y": -4.4955974599,
				"z": -3.4823039869,
				"element": "C" 
			},
			{
				"x": 2.9898824579,
				"y": -4.9570571411,
				"z": -2.4114439276,
				"element": "C" 
			},
			{
				"x": 2.8571764244,
				"y": -4.3174458235,
				"z": -1.182686531,
				"element": "C" 
			},
			{
				"x": 3.792943562,
				"y": -4.8874540902,
				"z": 0.1943238779,
				"element": "Cl" 
			},
			{
				"x": 1.988023074,
				"y": -3.2427363821,
				"z": -1.0023213814,
				"element": "C" 
			},
			{
				"x": 1.2460572698,
				"y": -2.7548446125,
				"z": -2.0885346389,
				"element": "C" 
			},
			{
				"x": 2.356556348,
				"y": -0.0716159675,
				"z": 2.1666022348,
				"element": "C" 
			},
			{
				"x": 1.3264358022,
				"y": 0.5790938155,
				"z": 3.1026503871,
				"element": "C" 
			},
			{
				"x": 0.6834545163,
				"y": 1.580987187,
				"z": 5.4750945662,
				"element": "H" 
			},
			{
				"x": 0.0999676438,
				"y": 2.749773205,
				"z": 4.2644240292,
				"element": "H" 
			},
			{
				"x": 1.5103807529,
				"y": 3.1366860157,
				"z": 5.2804878093,
				"element": "H" 
			},
			{
				"x": 1.6408196712,
				"y": 3.1654087288,
				"z": 2.2441939359,
				"element": "H" 
			},
			{
				"x": 2.9450418812,
				"y": 3.5013099752,
				"z": 3.3958848523,
				"element": "H" 
			},
			{
				"x": 4.3170929935,
				"y": 1.6818853603,
				"z": 2.5115687063,
				"element": "H" 
			},
			{
				"x": 3.8492434621,
				"y": 2.7452470155,
				"z": 1.1754460772,
				"element": "H" 
			},
			{
				"x": 2.5889958551,
				"y": 2.0202297018,
				"z": -0.4702422656,
				"element": "H" 
			},
			{
				"x": 1.0903231068,
				"y": 1.5798392348,
				"z": 0.3253623802,
				"element": "H" 
			},
			{
				"x": 2.7594073324,
				"y": -0.6561610542,
				"z": -0.8416985455,
				"element": "H" 
			},
			{
				"x": 1.9938614575,
				"y": 0.4298051239,
				"z": -1.9864943384,
				"element": "H" 
			},
			{
				"x": -0.2184237655,
				"y": 0.0604105662,
				"z": -0.9805340027,
				"element": "H" 
			},
			{
				"x": 0.4200004864,
				"y": -1.1537686389,
				"z": 0.1125736016,
				"element": "H" 
			},
			{
				"x": -2.0546109688,
				"y": -0.9935576045,
				"z": -0.9158144089,
				"element": "H" 
			},
			{
				"x": -4.2133084947,
				"y": -1.0924831742,
				"z": -2.0824613399,
				"element": "H" 
			},
			{
				"x": -4.351869508,
				"y": -1.9894354642,
				"z": -4.4048192618,
				"element": "H" 
			},
			{
				"x": -2.2785600949,
				"y": -2.7883281131,
				"z": -5.5298775572,
				"element": "H" 
			},
			{
				"x": 2.296003728,
				"y": -4.9850297502,
				"z": -4.4485849111,
				"element": "H" 
			},
			{
				"x": 3.6680615416,
				"y": -5.793882735,
				"z": -2.5288758429,
				"element": "H" 
			},
			{
				"x": 1.8969100595,
				"y": -2.7950150544,
				"z": -0.0215226041,
				"element": "H" 
			},
			{
				"x": 3.1762608169,
				"y": -0.4648792115,
				"z": 2.7808806219,
				"element": "H" 
			},
			{
				"x": 1.9079795752,
				"y": -0.9226604379,
				"z": 1.646320546,
				"element": "H" 
			},
			{
				"x": 0.4223447416,
				"y": 0.8771186265,
				"z": 2.5315112138,
				"element": "H" 
			},
			{
				"x": 1.00021007,
				"y": -0.1526584218,
				"z": 3.8519191986,
				"element": "H" 
			}
		],
		 "valence_orbital": [ 
			{
				"type": "occ",
				"energy": -0.25036,
				"method": "rhf"
			},
			{
				"type": "occ",
				"energy": -0.22829,
				"method": "rhf"
			},
			{
				"type": "occ",
				"energy": -0.22231,
				"method": "rhf"
			},
			{
				"type": "occ",
				"energy": -0.20043,
				"method": "rhf"
			},
			{
				"type": "occ",
				"energy": -0.19291,
				"method": "rhf"
			},
			{
				"type": "unocc",
				"energy": -0.01925,
				"method": "rhf"
			},
			{
				"type": "unocc",
				"energy": -0.01553,
				"method": "rhf"
			},
			{
				"type": "unocc",
				"energy": -0.0083,
				"method": "rhf"
			},
			{
				"type": "unocc",
				"energy": 0.00387,
				"method": "rhf"
			},
			{
				"type": "unocc",
				"energy": 0.02525,
				"method": "rhf"
			}
		],
		"cosmo_sigma_profile": { 
			"-0.025": 0.0,
			"-0.024": 0.0,
			"-0.023": 0.0,
			"-0.022": 0.0,
			"-0.021": 0.0,
			"-0.02": 0.0,
			"-0.019": 0.0,
			"-0.018": 0.0,
			"-0.017": 0.0,
			"-0.016": 0.0,
			"-0.015": 0.0,
			"-0.014": 0.0,
			"-0.013": 0.0,
			"-0.012": 0.0,
			"-0.011": 0.0271668340461,
			"-0.01": 0.317254020713,
			"-0.009": 0.575739257807,
			"-0.008": 1.45164180934,
			"-0.007": 6.54984457041,
			"-0.006": 13.5606608407,
			"-0.005": 18.3771497323,
			"-0.004": 28.6926202705,
			"-0.003": 41.0821604182,
			"-0.002": 44.8703273914,
			"-0.001": 47.6666889761,
			"0.0": 40.9080727014,
			"0.001": 30.7049734849,
			"0.002": 28.1222940359,
			"0.003": 32.9943729219,
			"0.004": 29.2215743123,
			"0.005": 21.6294245145,
			"0.006": 6.37248329915,
			"0.007": 4.53901578036,
			"0.008": 3.01251915031,
			"0.009": 2.05814657242,
			"0.01": 1.2211785098,
			"0.011": 1.44697016388,
			"0.012": 0.943887497591,
			"0.013": 0.220315896117,
			"0.014": 0.924031720429,
			"0.015": 1.38284551898,
			"0.016": 0.500734345883,
			"0.017": 0.12524128579,
			"0.018": 0.0,
			"0.019": 0.0,
			"0.02": 0.0,
			"0.021": 0.0,
			"0.022": 0.0,
			"0.023": 0.0,
			"0.024": 0.0,
			"0.025": 0.0
		}
	}
}
