{
	 "smiles": "OC(=O)CC(Br)C(=O)C1=CC=C(Br)C=C1", 
	 "Tm": 383.15, 
	 "num_atms": 23, 
	 "gaussian": { 
		 "optdone": 1, 
		 "sigma_profile": "yes", 
		 "theory": "DFT", 
		 "functional": "B3LYP", 
		 "basiset": "6-31G**", 
		 "properties": { 
			 "R2extent": 9665.8736, 
			 "electric_dipole_moment_norm": 6.77999766224, 
			 "electric_quadrupole_moment_norm": 24.2343262607, 
			 "total_energy": -5754.37747264, 
			 "HOMO_LUMO_gap": 0.15054, 
			 "cosmo_polarized_energy": -17.47, 
			 "cosmo_cavitation_energy": 32.04, 
			 "cosmo_dispersion_energy": -23.84, 
			 "cosmo_repulsion_energy": 1.86, 
			 "cosmo_total_nonelectrostatic_energy": 10.05, 
			 "SMD_solvation_energy": 4.52 
		},
		"coords": [
			{
				"x": 0.8268806292,
				"y": 2.017213965,
				"z": 3.8284578687,
				"element": "O" 
			},
			{
				"x": -0.1745088916,
				"y": 2.4935996456,
				"z": 3.0798394112,
				"element": "C" 
			},
			{
				"x": -0.6614935949,
				"y": 3.581692573,
				"z": 3.2745862331,
				"element": "O" 
			},
			{
				"x": -0.7331998999,
				"y": 1.5617983936,
				"z": 1.987155074,
				"element": "C" 
			},
			{
				"x": 0.214652035,
				"y": 1.0448699905,
				"z": 0.9006698648,
				"element": "C" 
			},
			{
				"x": 1.3648311806,
				"y": 2.5089447062,
				"z": 0.1780781324,
				"element": "Br" 
			},
			{
				"x": 1.1519816026,
				"y": -0.0895956859,
				"z": 1.3161092069,
				"element": "C" 
			},
			{
				"x": 1.420014839,
				"y": -0.2561158381,
				"z": 2.5055710398,
				"element": "O" 
			},
			{
				"x": 1.6881706596,
				"y": -1.021048655,
				"z": 0.2902284394,
				"element": "C" 
			},
			{
				"x": 2.4140295428,
				"y": -2.1381203522,
				"z": 0.7410932533,
				"element": "C" 
			},
			{
				"x": 2.9263911944,
				"y": -3.0655478069,
				"z": -0.157167872,
				"element": "C" 
			},
			{
				"x": 2.7175953593,
				"y": -2.8723379671,
				"z": -1.5250515913,
				"element": "C" 
			},
			{
				"x": 3.4133038586,
				"y": -4.1365846489,
				"z": -2.7642517802,
				"element": "Br" 
			},
			{
				"x": 2.010165559,
				"y": -1.7666769046,
				"z": -1.9998068754,
				"element": "C" 
			},
			{
				"x": 1.4970853301,
				"y": -0.8459580589,
				"z": -1.0911416101,
				"element": "C" 
			},
			{
				"x": 1.0869469544,
				"y": 1.1237129505,
				"z": 3.5116709341,
				"element": "H" 
			},
			{
				"x": -1.1830213473,
				"y": 0.6855300503,
				"z": 2.4741660203,
				"element": "H" 
			},
			{
				"x": -1.5337001251,
				"y": 2.1249333912,
				"z": 1.506758504,
				"element": "H" 
			},
			{
				"x": -0.374397713,
				"y": 0.73437835,
				"z": 0.0385621079,
				"element": "H" 
			},
			{
				"x": 2.5634229826,
				"y": -2.2648372296,
				"z": 1.807613535,
				"element": "H" 
			},
			{
				"x": 3.4810562719,
				"y": -3.9282349203,
				"z": 0.1930535973,
				"element": "H" 
			},
			{
				"x": 1.8678786238,
				"y": -1.6272572524,
				"z": -3.0649467781,
				"element": "H" 
			},
			{
				"x": 0.9760149488,
				"y": 0.0236413038,
				"z": -1.4751467152,
				"element": "H" 
			}
		],
		 "valence_orbital": [ 
			{
				"type": "occ",
				"energy": -0.29896,
				"method": "rhf"
			},
			{
				"type": "occ",
				"energy": -0.2933,
				"method": "rhf"
			},
			{
				"type": "occ",
				"energy": -0.28976,
				"method": "rhf"
			},
			{
				"type": "occ",
				"energy": -0.273,
				"method": "rhf"
			},
			{
				"type": "occ",
				"energy": -0.25861,
				"method": "rhf"
			},
			{
				"type": "unocc",
				"energy": -0.10807,
				"method": "rhf"
			},
			{
				"type": "unocc",
				"energy": -0.04355,
				"method": "rhf"
			},
			{
				"type": "unocc",
				"energy": -0.03832,
				"method": "rhf"
			},
			{
				"type": "unocc",
				"energy": -0.01592,
				"method": "rhf"
			},
			{
				"type": "unocc",
				"energy": 0.01032,
				"method": "rhf"
			}
		],
		"cosmo_sigma_profile": { 
			"-0.025": 0.0,
			"-0.024": 0.0,
			"-0.023": 0.0,
			"-0.022": 0.0,
			"-0.021": 0.0,
			"-0.02": 0.0,
			"-0.019": 0.0,
			"-0.018": 0.0,
			"-0.017": 0.0,
			"-0.016": 0.0,
			"-0.015": 0.0,
			"-0.014": 0.0,
			"-0.013": 0.0,
			"-0.012": 0.108087793559,
			"-0.011": 1.78975115315,
			"-0.01": 4.79044739341,
			"-0.009": 5.71828187187,
			"-0.008": 9.53120155193,
			"-0.007": 12.6312500048,
			"-0.006": 12.4301816418,
			"-0.005": 11.6485209016,
			"-0.004": 12.9222267895,
			"-0.003": 12.452286907,
			"-0.002": 15.169620504,
			"-0.001": 16.0453900408,
			"0.0": 22.4753091695,
			"0.001": 29.3305131373,
			"0.002": 19.7883541253,
			"0.003": 20.6332275495,
			"0.004": 17.7563795222,
			"0.005": 4.9213443202,
			"0.006": 3.28238658985,
			"0.007": 3.44475790567,
			"0.008": 3.90178929198,
			"0.009": 2.9950956675,
			"0.01": 3.82672851691,
			"0.011": 5.82439281728,
			"0.012": 6.20315056118,
			"0.013": 3.17710859955,
			"0.014": 0.279019996734,
			"0.015": 0.0,
			"0.016": 0.0,
			"0.017": 0.0,
			"0.018": 0.0,
			"0.019": 0.0,
			"0.02": 0.0,
			"0.021": 0.0,
			"0.022": 0.0,
			"0.023": 0.0,
			"0.024": 0.0,
			"0.025": 0.0
		}
	}
}
