{
	 "smiles": "CC(C)C(NC(=O)C1=C(F)C=CC=C1)C(O)=O", 
	 "Tm": 390.15, 
	 "num_atms": 31, 
	 "gaussian": { 
		 "optdone": 1, 
		 "sigma_profile": "yes", 
		 "theory": "DFT", 
		 "functional": "B3LYP", 
		 "basiset": "6-31G**", 
		 "properties": { 
			 "R2extent": 4529.5462, 
			 "electric_dipole_moment_norm": 0.810132149714, 
			 "electric_quadrupole_moment_norm": 25.6543220511, 
			 "total_energy": -845.990873607, 
			 "HOMO_LUMO_gap": 0.21509, 
			 "cosmo_polarized_energy": -17.07, 
			 "cosmo_cavitation_energy": 33.42, 
			 "cosmo_dispersion_energy": -22.86, 
			 "cosmo_repulsion_energy": 1.74, 
			 "cosmo_total_nonelectrostatic_energy": 12.3, 
			 "SMD_solvation_energy": 7.16 
		},
		"coords": [
			{
				"x": -3.0745822424,
				"y": -0.2907714195,
				"z": 0.650449157,
				"element": "C" 
			},
			{
				"x": -1.7799960058,
				"y": 0.4198355923,
				"z": 1.073894378,
				"element": "C" 
			},
			{
				"x": -1.885297244,
				"y": 1.9328124456,
				"z": 0.8517541625,
				"element": "C" 
			},
			{
				"x": -0.5489913787,
				"y": -0.2400281095,
				"z": 0.4053984514,
				"element": "C" 
			},
			{
				"x": -0.5144491365,
				"y": -0.2116835448,
				"z": -1.0730888756,
				"element": "N" 
			},
			{
				"x": -0.4151875332,
				"y": 0.8908736278,
				"z": -1.9256428163,
				"element": "C" 
			},
			{
				"x": -1.1268584791,
				"y": 0.9665443553,
				"z": -2.9150901812,
				"element": "O" 
			},
			{
				"x": 0.6721738038,
				"y": 1.9097829474,
				"z": -1.695589844,
				"element": "C" 
			},
			{
				"x": 2.0139404827,
				"y": 1.5696431265,
				"z": -1.8697918154,
				"element": "C" 
			},
			{
				"x": 2.3275567936,
				"y": 0.2740975245,
				"z": -2.1413907903,
				"element": "F" 
			},
			{
				"x": 3.0435774697,
				"y": 2.4968511978,
				"z": -1.8070906073,
				"element": "C" 
			},
			{
				"x": 2.7210953986,
				"y": 3.8336038597,
				"z": -1.575213443,
				"element": "C" 
			},
			{
				"x": 1.3859639483,
				"y": 4.218863042,
				"z": -1.4305536277,
				"element": "C" 
			},
			{
				"x": 0.3719192293,
				"y": 3.2663934528,
				"z": -1.5089319045,
				"element": "C" 
			},
			{
				"x": 0.7821593046,
				"y": 0.1538249073,
				"z": 1.0713873875,
				"element": "C" 
			},
			{
				"x": 1.8892796407,
				"y": -0.3173263192,
				"z": 0.4669776509,
				"element": "O" 
			},
			{
				"x": 0.8445307962,
				"y": 0.7371391966,
				"z": 2.1261371839,
				"element": "O" 
			},
			{
				"x": -3.2879791247,
				"y": -0.1398306877,
				"z": -0.4142468005,
				"element": "H" 
			},
			{
				"x": -3.9275170395,
				"y": 0.1061831319,
				"z": 1.2093560246,
				"element": "H" 
			},
			{
				"x": -3.0293312419,
				"y": -1.3697891433,
				"z": 0.840284935,
				"element": "H" 
			},
			{
				"x": -1.6269990633,
				"y": 0.2528046648,
				"z": 2.1461874283,
				"element": "H" 
			},
			{
				"x": -2.6964984703,
				"y": 2.3406127502,
				"z": 1.4635184322,
				"element": "H" 
			},
			{
				"x": -2.1228910003,
				"y": 2.1685010119,
				"z": -0.1912632726,
				"element": "H" 
			},
			{
				"x": -0.9626795714,
				"y": 2.4438864,
				"z": 1.1348694419,
				"element": "H" 
			},
			{
				"x": -0.6177436351,
				"y": -1.3138282091,
				"z": 0.6355510483,
				"element": "H" 
			},
			{
				"x": -1.2122048064,
				"y": -0.8343261184,
				"z": -1.4698542279,
				"element": "H" 
			},
			{
				"x": 4.0663883185,
				"y": 2.1648551552,
				"z": -1.9455633143,
				"element": "H" 
			},
			{
				"x": 3.5134220551,
				"y": 4.5733765504,
				"z": -1.5176663644,
				"element": "H" 
			},
			{
				"x": 1.1342249682,
				"y": 5.2615842597,
				"z": -1.2665582724,
				"element": "H" 
			},
			{
				"x": -0.6664079866,
				"y": 3.5670408608,
				"z": -1.4242990487,
				"element": "H" 
			},
			{
				"x": 1.6705817496,
				"y": -0.6476265092,
				"z": -0.4213304754,
				"element": "H" 
			}
		],
		 "valence_orbital": [ 
			{
				"type": "occ",
				"energy": -0.2915,
				"method": "rhf"
			},
			{
				"type": "occ",
				"energy": -0.28185,
				"method": "rhf"
			},
			{
				"type": "occ",
				"energy": -0.26908,
				"method": "rhf"
			},
			{
				"type": "occ",
				"energy": -0.26253,
				"method": "rhf"
			},
			{
				"type": "occ",
				"energy": -0.25545,
				"method": "rhf"
			},
			{
				"type": "unocc",
				"energy": -0.04036,
				"method": "rhf"
			},
			{
				"type": "unocc",
				"energy": -0.01506,
				"method": "rhf"
			},
			{
				"type": "unocc",
				"energy": -0.00602,
				"method": "rhf"
			},
			{
				"type": "unocc",
				"energy": 0.01053,
				"method": "rhf"
			},
			{
				"type": "unocc",
				"energy": 0.06422,
				"method": "rhf"
			}
		],
		"cosmo_sigma_profile": { 
			"-0.025": 0.0,
			"-0.024": 0.0,
			"-0.023": 0.0,
			"-0.022": 0.0,
			"-0.021": 0.0,
			"-0.02": 0.0,
			"-0.019": 0.0,
			"-0.018": 0.0,
			"-0.017": 0.0,
			"-0.016": 0.0,
			"-0.015": 0.0,
			"-0.014": 0.205128681558,
			"-0.013": 1.26087074692,
			"-0.012": 1.3831225508,
			"-0.011": 2.20745572489,
			"-0.01": 2.66262210357,
			"-0.009": 5.36751564932,
			"-0.008": 5.96727642988,
			"-0.007": 10.2016819669,
			"-0.006": 11.5332632249,
			"-0.005": 13.4668538967,
			"-0.004": 12.9784991336,
			"-0.003": 20.2627839988,
			"-0.002": 21.0756057514,
			"-0.001": 22.8698051379,
			"0.0": 24.3696354258,
			"0.001": 20.7999384505,
			"0.002": 16.9428552732,
			"0.003": 16.4105418536,
			"0.004": 7.26244110496,
			"0.005": 4.21295842743,
			"0.006": 4.19389668378,
			"0.007": 3.51195035463,
			"0.008": 4.88984778004,
			"0.009": 5.16331966363,
			"0.01": 6.08348645987,
			"0.011": 7.55441551953,
			"0.012": 8.27039543659,
			"0.013": 2.58287143448,
			"0.014": 0.00916106981862,
			"0.015": 0.0,
			"0.016": 0.0,
			"0.017": 0.0,
			"0.018": 0.0,
			"0.019": 0.0,
			"0.02": 0.0,
			"0.021": 0.0,
			"0.022": 0.0,
			"0.023": 0.0,
			"0.024": 0.0,
			"0.0": 0.0
		}
	}
}
