{
	 "smiles": "COC(=O)C1=C(Cl)C(Cl)=CC(Cl)=C1O", 
	 "Tm": 387.15, 
	 "num_atms": 19, 
	 "gaussian": { 
		 "optdone": 1, 
		 "sigma_profile": "yes", 
		 "theory": "DFT", 
		 "functional": "B3LYP", 
		 "basiset": "6-31G**", 
		 "properties": { 
			 "R2extent": 4270.1684, 
			 "electric_dipole_moment_norm": 2.81879857741, 
			 "electric_quadrupole_moment_norm": 11.6472387809, 
			 "total_energy": -1914.11156236, 
			 "HOMO_LUMO_gap": 0.15978, 
			 "cosmo_polarized_energy": -7.44, 
			 "cosmo_cavitation_energy": 28.75, 
			 "cosmo_dispersion_energy": -21.89, 
			 "cosmo_repulsion_energy": 1.71, 
			 "cosmo_total_nonelectrostatic_energy": 8.57, 
			 "SMD_solvation_energy": 6.03 
		},
		"coords": [
			{
				"x": -2.4831531929,
				"y": 0.5320145545,
				"z": 2.8208249825,
				"element": "C" 
			},
			{
				"x": -1.2622747554,
				"y": 0.4736025708,
				"z": 2.0558693432,
				"element": "O" 
			},
			{
				"x": -1.3243497038,
				"y": -0.1886724322,
				"z": 0.90665382,
				"element": "C" 
			},
			{
				"x": -2.3811955495,
				"y": -0.7159156881,
				"z": 0.5373332336,
				"element": "O" 
			},
			{
				"x": -0.0747461098,
				"y": -0.2590295394,
				"z": 0.1044731288,
				"element": "C" 
			},
			{
				"x": 1.1797362371,
				"y": 0.3189455373,
				"z": 0.4561923637,
				"element": "C" 
			},
			{
				"x": 1.4247435535,
				"y": 1.2191869414,
				"z": 1.927380088,
				"element": "Cl" 
			},
			{
				"x": 2.2769996775,
				"y": 0.1738737136,
				"z": -0.3960792467,
				"element": "C" 
			},
			{
				"x": 3.8422968908,
				"y": 0.8573065654,
				"z": -0.0245076133,
				"element": "Cl" 
			},
			{
				"x": 2.1587573676,
				"y": -0.5348902908,
				"z": -1.5961268078,
				"element": "C" 
			},
			{
				"x": 0.9542736975,
				"y": -1.102332042,
				"z": -1.956424922,
				"element": "C" 
			},
			{
				"x": 0.8220186835,
				"y": -1.9822738134,
				"z": -3.4545027676,
				"element": "Cl" 
			},
			{
				"x": -0.1813630726,
				"y": -0.9816776013,
				"z": -1.1266466872,
				"element": "C" 
			},
			{
				"x": -1.3043881806,
				"y": -1.5554423934,
				"z": -1.5424766308,
				"element": "O" 
			},
			{
				"x": -2.8127539777,
				"y": -0.4738802675,
				"z": 3.0888148379,
				"element": "H" 
			},
			{
				"x": -2.2317584822,
				"y": 1.1080781581,
				"z": 3.7100794314,
				"element": "H" 
			},
			{
				"x": -3.2691439305,
				"y": 1.0260638144,
				"z": 2.2460421698,
				"element": "H" 
			},
			{
				"x": 3.0208364728,
				"y": -0.6366104086,
				"z": -2.2440069865,
				"element": "H" 
			},
			{
				"x": -1.9942356252,
				"y": -1.3733473788,
				"z": -0.8449917369,
				"element": "H" 
			}
		],
		 "valence_orbital": [ 
			{
				"type": "occ",
				"energy": -0.31394,
				"method": "rhf"
			},
			{
				"type": "occ",
				"energy": -0.31349,
				"method": "rhf"
			},
			{
				"type": "occ",
				"energy": -0.30238,
				"method": "rhf"
			},
			{
				"type": "occ",
				"energy": -0.27264,
				"method": "rhf"
			},
			{
				"type": "occ",
				"energy": -0.23631,
				"method": "rhf"
			},
			{
				"type": "unocc",
				"energy": -0.07653,
				"method": "rhf"
			},
			{
				"type": "unocc",
				"energy": -0.02436,
				"method": "rhf"
			},
			{
				"type": "unocc",
				"energy": -0.01322,
				"method": "rhf"
			},
			{
				"type": "unocc",
				"energy": 0.02271,
				"method": "rhf"
			},
			{
				"type": "unocc",
				"energy": 0.02893,
				"method": "rhf"
			}
		],
		"cosmo_sigma_profile": { 
			"-0.025": 0.0,
			"-0.024": 0.0,
			"-0.023": 0.0,
			"-0.022": 0.0,
			"-0.021": 0.0,
			"-0.02": 0.0,
			"-0.019": 0.0,
			"-0.018": 0.0,
			"-0.017": 0.0,
			"-0.016": 0.0,
			"-0.015": 0.0,
			"-0.014": 0.0,
			"-0.013": 0.0,
			"-0.012": 0.0,
			"-0.011": 0.0,
			"-0.01": 0.281268497201,
			"-0.009": 1.75426713587,
			"-0.008": 1.34484791371,
			"-0.007": 5.79050625602,
			"-0.006": 9.59855305077,
			"-0.005": 14.8325016489,
			"-0.004": 17.089082922,
			"-0.003": 16.1120030665,
			"-0.002": 19.9036852017,
			"-0.001": 27.6996174126,
			"0.0": 19.5264573104,
			"0.001": 16.4035840115,
			"0.002": 16.6362981172,
			"0.003": 21.5985648936,
			"0.004": 22.6800784696,
			"0.005": 9.43678264198,
			"0.006": 3.9393522156,
			"0.007": 3.87016058844,
			"0.008": 3.08195342714,
			"0.009": 3.21287082403,
			"0.01": 2.7546735784,
			"0.011": 0.2851615519,
			"0.012": 0.0,
			"0.013": 0.0,
			"0.014": 0.0,
			"0.015": 0.0,
			"0.016": 0.0,
			"0.017": 0.0,
			"0.018": 0.0,
			"0.019": 0.0,
			"0.02": 0.0,
			"0.021": 0.0,
			"0.022": 0.0,
			"0.023": 0.0,
			"0.024": 0.0,
			"0.025": 0.0
		}
	}
}
