{
	 "smiles": "CN1C(=O)CC(=O)N(C)C1=O", 
	 "Tm": 395.15, 
	 "num_atms": 19, 
	 "gaussian": { 
		 "optdone": 1, 
		 "sigma_profile": "yes", 
		 "theory": "DFT", 
		 "functional": "B3LYP", 
		 "basiset": "6-31G**", 
		 "properties": { 
			 "R2extent": 1679.1828, 
			 "electric_dipole_moment_norm": 0.704349813658, 
			 "electric_quadrupole_moment_norm": 6.06157783007, 
			 "total_energy": -568.683613917, 
			 "HOMO_LUMO_gap": 0.21889, 
			 "cosmo_polarized_energy": -12.99, 
			 "cosmo_cavitation_energy": 22.79, 
			 "cosmo_dispersion_energy": -17.03, 
			 "cosmo_repulsion_energy": 1.35, 
			 "cosmo_total_nonelectrostatic_energy": 7.11, 
			 "SMD_solvation_energy": 6.24 
		},
		"coords": [
			{
				"x": 1.8035284261,
				"y": 1.3837011058,
				"z": -1.0804169784,
				"element": "C" 
			},
			{
				"x": 0.7859143305,
				"y": 0.4451191592,
				"z": -0.5872283652,
				"element": "N" 
			},
			{
				"x": -0.2066873753,
				"y": 0.0030372097,
				"z": -1.4581595645,
				"element": "C" 
			},
			{
				"x": -0.2636884697,
				"y": 0.3662345659,
				"z": -2.6183779181,
				"element": "O" 
			},
			{
				"x": -1.221607449,
				"y": -0.9608941499,
				"z": -0.8853680799,
				"element": "C" 
			},
			{
				"x": -1.1001675634,
				"y": -1.3773149571,
				"z": 0.5634719188,
				"element": "C" 
			},
			{
				"x": -1.8928929653,
				"y": -2.1508050696,
				"z": 1.0680148984,
				"element": "O" 
			},
			{
				"x": -0.0381920914,
				"y": -0.8280540785,
				"z": 1.2774543165,
				"element": "N" 
			},
			{
				"x": 0.1369911303,
				"y": -1.1911883202,
				"z": 2.6906622634,
				"element": "C" 
			},
			{
				"x": 0.9061110679,
				"y": 0.0653080435,
				"z": 0.7556599151,
				"element": "C" 
			},
			{
				"x": 1.8064788445,
				"y": 0.4999099628,
				"z": 1.4503076779,
				"element": "O" 
			},
			{
				"x": 2.7969162724,
				"y": 0.9434138352,
				"z": -0.9776793695,
				"element": "H" 
			},
			{
				"x": 1.578599116,
				"y": 1.5812042089,
				"z": -2.1257768274,
				"element": "H" 
			},
			{
				"x": 1.7710226034,
				"y": 2.3069942398,
				"z": -0.499305204,
				"element": "H" 
			},
			{
				"x": -1.2096879556,
				"y": -1.8676766236,
				"z": -1.4992327382,
				"element": "H" 
			},
			{
				"x": -2.2170650892,
				"y": -0.527876863,
				"z": -1.0296480232,
				"element": "H" 
			},
			{
				"x": 1.1116534753,
				"y": -1.6602775588,
				"z": 2.8363147682,
				"element": "H" 
			},
			{
				"x": -0.6625433999,
				"y": -1.8824384727,
				"z": 2.9461908366,
				"element": "H" 
			},
			{
				"x": 0.0854170922,
				"y": -0.2966962374,
				"z": 3.3139164736,
				"element": "H" 
			}
		],
		 "valence_orbital": [ 
			{
				"type": "occ",
				"energy": -0.31001,
				"method": "rhf"
			},
			{
				"type": "occ",
				"energy": -0.30259,
				"method": "rhf"
			},
			{
				"type": "occ",
				"energy": -0.29336,
				"method": "rhf"
			},
			{
				"type": "occ",
				"energy": -0.28261,
				"method": "rhf"
			},
			{
				"type": "occ",
				"energy": -0.26413,
				"method": "rhf"
			},
			{
				"type": "unocc",
				"energy": -0.04524,
				"method": "rhf"
			},
			{
				"type": "unocc",
				"energy": -0.00342,
				"method": "rhf"
			},
			{
				"type": "unocc",
				"energy": 0.04667,
				"method": "rhf"
			},
			{
				"type": "unocc",
				"energy": 0.0942,
				"method": "rhf"
			},
			{
				"type": "unocc",
				"energy": 0.10959,
				"method": "rhf"
			}
		],
		"cosmo_sigma_profile": { 
			"-0.025": 0.0,
			"-0.024": 0.0,
			"-0.023": 0.0,
			"-0.022": 0.0,
			"-0.021": 0.0,
			"-0.02": 0.0,
			"-0.019": 0.0,
			"-0.018": 0.0,
			"-0.017": 0.0,
			"-0.016": 0.0,
			"-0.015": 0.0,
			"-0.014": 0.0,
			"-0.013": 0.0,
			"-0.012": 0.0,
			"-0.011": 0.301296389736,
			"-0.01": 2.75157346749,
			"-0.009": 7.76725471229,
			"-0.008": 4.79598622588,
			"-0.007": 4.73979842747,
			"-0.006": 10.7949262806,
			"-0.005": 15.8468616264,
			"-0.004": 20.1711225988,
			"-0.003": 20.2583087604,
			"-0.002": 13.8077738719,
			"-0.001": 8.17217461429,
			"0.0": 5.24068290198,
			"0.001": 5.29898371467,
			"0.002": 4.01341842744,
			"0.003": 4.06098041815,
			"0.004": 4.68499796549,
			"0.005": 3.90002333955,
			"0.006": 4.2877321125,
			"0.007": 3.94422344767,
			"0.008": 4.10558160761,
			"0.009": 4.53787199947,
			"0.01": 6.54387622826,
			"0.011": 12.1636415474,
			"0.012": 7.79688582763,
			"0.013": 0.874186840896,
			"0.014": 0.0,
			"0.015": 0.0,
			"0.016": 0.0,
			"0.017": 0.0,
			"0.018": 0.0,
			"0.019": 0.0,
			"0.02": 0.0,
			"0.021": 0.0,
			"0.022": 0.0,
			"0.023": 0.0,
			"0.024": 0.0,
			"0.025": 0.0
		}
	}
}
