{
	 "smiles": "FC(F)(F)C1(F)C(F)(F)C(F)(F)C(F)(F)C(F)(F)C1(F)F", 
	 "Tm": 236.15, 
	 "num_atms": 21, 
	 "gaussian": { 
		 "optdone": 1, 
		 "sigma_profile": "yes", 
		 "theory": "DFT", 
		 "functional": "B3LYP", 
		 "basiset": "6-31G**", 
		 "properties": { 
			 "R2extent": 4457.4952, 
			 "electric_dipole_moment_norm": 0.118737946757, 
			 "electric_quadrupole_moment_norm": 0.436744089828, 
			 "total_energy": -1664.43900478, 
			 "HOMO_LUMO_gap": 0.33318, 
			 "cosmo_polarized_energy": -1.14, 
			 "cosmo_cavitation_energy": 28.9, 
			 "cosmo_dispersion_energy": -19.64, 
			 "cosmo_repulsion_energy": 1.21, 
			 "cosmo_total_nonelectrostatic_energy": 10.46, 
			 "SMD_solvation_energy": 9.42 
		},
		"coords": [
			{
				"x": -2.1319725199,
				"y": -2.3974523556,
				"z": -0.0172155097,
				"element": "F" 
			},
			{
				"x": -1.1225291082,
				"y": -1.8677003075,
				"z": -0.7156505914,
				"element": "C" 
			},
			{
				"x": -1.6320567274,
				"y": -1.264985365,
				"z": -1.7997891671,
				"element": "F" 
			},
			{
				"x": -0.3055246744,
				"y": -2.851185567,
				"z": -1.1103616849,
				"element": "F" 
			},
			{
				"x": -0.3701956042,
				"y": -0.8316175114,
				"z": 0.1619324782,
				"element": "C" 
			},
			{
				"x": -1.3300637444,
				"y": -0.0397465975,
				"z": 0.7471435107,
				"element": "F" 
			},
			{
				"x": 0.4276122916,
				"y": -1.4798912062,
				"z": 1.3138954053,
				"element": "C" 
			},
			{
				"x": -0.3541038207,
				"y": -2.3315268737,
				"z": 2.0077457679,
				"element": "F" 
			},
			{
				"x": 1.4687473711,
				"y": -2.1690403157,
				"z": 0.7890376535,
				"element": "F" 
			},
			{
				"x": 0.990802761,
				"y": -0.4068644385,
				"z": 2.3089631501,
				"element": "C" 
			},
			{
				"x": 2.0949366258,
				"y": -0.9220355713,
				"z": 2.8869612007,
				"element": "F" 
			},
			{
				"x": 0.0660271175,
				"y": -0.1671122805,
				"z": 3.2588513477,
				"element": "F" 
			},
			{
				"x": 1.3667395305,
				"y": 0.950156744,
				"z": 1.6227580881,
				"element": "C" 
			},
			{
				"x": 0.3190458376,
				"y": 1.8003321422,
				"z": 1.7143867822,
				"element": "F" 
			},
			{
				"x": 2.4263981608,
				"y": 1.4884408533,
				"z": 2.2566437687,
				"element": "F" 
			},
			{
				"x": 1.7087879105,
				"y": 0.776049806,
				"z": 0.1291643179,
				"element": "C" 
			},
			{
				"x": 1.9778957283,
				"y": 1.9807866608,
				"z": -0.4079108532,
				"element": "F" 
			},
			{
				"x": 2.815368897,
				"y": 0.0002478379,
				"z": 0.0505921836,
				"element": "F" 
			},
			{
				"x": 0.5545007918,
				"y": 0.098187643,
				"z": -0.6907524564,
				"element": "C" 
			},
			{
				"x": 1.1218486843,
				"y": -0.6206918288,
				"z": -1.6863514303,
				"element": "F" 
			},
			{
				"x": -0.2102655086,
				"y": 1.0683485314,
				"z": -1.2266439616,
				"element": "F" 
			}
		],
		 "valence_orbital": [ 
			{
				"type": "occ",
				"energy": -0.43052,
				"method": "rhf"
			},
			{
				"type": "occ",
				"energy": -0.41109,
				"method": "rhf"
			},
			{
				"type": "occ",
				"energy": -0.38589,
				"method": "rhf"
			},
			{
				"type": "occ",
				"energy": -0.36651,
				"method": "rhf"
			},
			{
				"type": "occ",
				"energy": -0.358,
				"method": "rhf"
			},
			{
				"type": "unocc",
				"energy": -0.02482,
				"method": "rhf"
			},
			{
				"type": "unocc",
				"energy": 0.02657,
				"method": "rhf"
			},
			{
				"type": "unocc",
				"energy": 0.04617,
				"method": "rhf"
			},
			{
				"type": "unocc",
				"energy": 0.04755,
				"method": "rhf"
			},
			{
				"type": "unocc",
				"energy": 0.07172,
				"method": "rhf"
			}
		],
		"cosmo_sigma_profile": { 
			"-0.025": 0.0,
			"-0.024": 0.0,
			"-0.023": 0.0,
			"-0.022": 0.0,
			"-0.021": 0.0,
			"-0.02": 0.0,
			"-0.019": 0.0,
			"-0.018": 0.0,
			"-0.017": 0.0,
			"-0.016": 0.0,
			"-0.015": 0.0,
			"-0.014": 0.0,
			"-0.013": 0.0,
			"-0.012": 0.0,
			"-0.011": 0.0,
			"-0.01": 0.0,
			"-0.009": 0.0,
			"-0.008": 0.0,
			"-0.007": 0.0226609906027,
			"-0.006": 0.783233512526,
			"-0.005": 2.61795829382,
			"-0.004": 3.97228838841,
			"-0.003": 7.32528283734,
			"-0.002": 14.0083078673,
			"-0.001": 26.2855104913,
			"0.0": 71.4035340501,
			"0.001": 102.004529656,
			"0.002": 4.33059396027,
			"0.003": 0.0,
			"0.004": 0.0,
			"0.005": 0.0,
			"0.006": 0.0,
			"0.007": 0.0,
			"0.008": 0.0,
			"0.009": 0.0,
			"0.01": 0.0,
			"0.011": 0.0,
			"0.012": 0.0,
			"0.013": 0.0,
			"0.014": 0.0,
			"0.015": 0.0,
			"0.016": 0.0,
			"0.017": 0.0,
			"0.018": 0.0,
			"0.019": 0.0,
			"0.02": 0.0,
			"0.021": 0.0,
			"0.022": 0.0,
			"0.023": 0.0,
			"0.024": 0.0,
			"0.025": 0.0
		}
	}
}
