{
	 "smiles": "CCCCCCCCCCCCCC(=O)CCCCCCCCCCCCC", 
	 "Tm": 350.95, 
	 "num_atms": 82, 
	 "gaussian": { 
		 "optdone": 1, 
		 "sigma_profile": "yes", 
		 "theory": "DFT", 
		 "functional": "B3LYP", 
		 "basiset": "6-31G**", 
		 "properties": { 
			 "R2extent": 23244.8617, 
			 "electric_dipole_moment_norm": 2.21400809845, 
			 "electric_quadrupole_moment_norm": 13.1574385786, 
			 "total_energy": -1136.7240802, 
			 "HOMO_LUMO_gap": 0.22627, 
			 "cosmo_polarized_energy": -7.45, 
			 "cosmo_cavitation_energy": 79.31, 
			 "cosmo_dispersion_energy": -48.45, 
			 "cosmo_repulsion_energy": 3.89, 
			 "cosmo_total_nonelectrostatic_energy": 34.75, 
			 "SMD_solvation_energy": 10.18 
		},
		"coords": [
			{
				"x": 2.6515230542,
				"y": 3.940004021,
				"z": 4.0018133091,
				"element": "C" 
			},
			{
				"x": 4.18184673,
				"y": 3.9333453091,
				"z": 3.901263949,
				"element": "C" 
			},
			{
				"x": 4.7925695066,
				"y": 2.5769545221,
				"z": 3.509739655,
				"element": "C" 
			},
			{
				"x": 4.6233246929,
				"y": 1.4758993058,
				"z": 4.5700468028,
				"element": "C" 
			},
			{
				"x": 5.343010872,
				"y": 0.1455522479,
				"z": 4.2541079969,
				"element": "C" 
			},
			{
				"x": 4.5606504836,
				"y": -0.931866304,
				"z": 3.476493984,
				"element": "C" 
			},
			{
				"x": 4.1324783051,
				"y": -0.6017842974,
				"z": 2.0287182103,
				"element": "C" 
			},
			{
				"x": 2.7148432111,
				"y": -0.0263007093,
				"z": 1.8883738722,
				"element": "C" 
			},
			{
				"x": 2.3341599647,
				"y": 0.3038309399,
				"z": 0.439304329,
				"element": "C" 
			},
			{
				"x": 0.9038423023,
				"y": 0.8435719789,
				"z": 0.2976283063,
				"element": "C" 
			},
			{
				"x": 0.4549084955,
				"y": 1.108599019,
				"z": -1.1487709913,
				"element": "C" 
			},
			{
				"x": 1.2201815042,
				"y": 2.2375492577,
				"z": -1.8553700228,
				"element": "C" 
			},
			{
				"x": 0.6917959061,
				"y": 2.5430069869,
				"z": -3.2598783363,
				"element": "C" 
			},
			{
				"x": 1.0255588815,
				"y": 1.4850333922,
				"z": -4.3080311519,
				"element": "C" 
			},
			{
				"x": 1.8329136044,
				"y": 0.5971486146,
				"z": -4.0935640864,
				"element": "O" 
			},
			{
				"x": 0.2943295785,
				"y": 1.5875102979,
				"z": -5.6410302632,
				"element": "C" 
			},
			{
				"x": -1.01254374,
				"y": 0.7567442921,
				"z": -5.6495006819,
				"element": "C" 
			},
			{
				"x": -0.7829965742,
				"y": -0.7604171234,
				"z": -5.6087975622,
				"element": "C" 
			},
			{
				"x": -2.075879678,
				"y": -1.5927241392,
				"z": -5.6772634864,
				"element": "C" 
			},
			{
				"x": -3.0477503191,
				"y": -1.4347594521,
				"z": -4.493727842,
				"element": "C" 
			},
			{
				"x": -2.4825882008,
				"y": -1.8748799112,
				"z": -3.1361039051,
				"element": "C" 
			},
			{
				"x": -3.5078478427,
				"y": -1.7919021354,
				"z": -1.9975191881,
				"element": "C" 
			},
			{
				"x": -2.946258864,
				"y": -2.2152234154,
				"z": -0.634252627,
				"element": "C" 
			},
			{
				"x": -3.9693007965,
				"y": -2.1300509411,
				"z": 0.5055418333,
				"element": "C" 
			},
			{
				"x": -3.4041459837,
				"y": -2.5462327768,
				"z": 1.8695667913,
				"element": "C" 
			},
			{
				"x": -4.4250690755,
				"y": -2.4582811266,
				"z": 3.0108728708,
				"element": "C" 
			},
			{
				"x": -3.8595239358,
				"y": -2.8732678305,
				"z": 4.3751502971,
				"element": "C" 
			},
			{
				"x": -4.8853893392,
				"y": -2.781487441,
				"z": 5.5093272474,
				"element": "C" 
			},
			{
				"x": 2.2763344913,
				"y": 4.9406153168,
				"z": 4.2415431815,
				"element": "H" 
			},
			{
				"x": 2.2894416109,
				"y": 3.2600653516,
				"z": 4.7797744569,
				"element": "H" 
			},
			{
				"x": 2.1927419872,
				"y": 3.6329044085,
				"z": 3.0544057901,
				"element": "H" 
			},
			{
				"x": 4.4916585828,
				"y": 4.6838644007,
				"z": 3.1625764518,
				"element": "H" 
			},
			{
				"x": 4.6111059891,
				"y": 4.2574607342,
				"z": 4.8596366687,
				"element": "H" 
			},
			{
				"x": 5.8674278592,
				"y": 2.7159027121,
				"z": 3.3297956153,
				"element": "H" 
			},
			{
				"x": 4.3668673277,
				"y": 2.2559219101,
				"z": 2.5507635212,
				"element": "H" 
			},
			{
				"x": 5.0201082342,
				"y": 1.8689240102,
				"z": 5.5164566229,
				"element": "H" 
			},
			{
				"x": 3.5593789931,
				"y": 1.2789007241,
				"z": 4.7546895606,
				"element": "H" 
			},
			{
				"x": 5.6481100695,
				"y": -0.3117596325,
				"z": 5.2042049955,
				"element": "H" 
			},
			{
				"x": 6.2787252291,
				"y": 0.3636071454,
				"z": 3.7194208393,
				"element": "H" 
			},
			{
				"x": 3.6716368535,
				"y": -1.217258006,
				"z": 4.0570773251,
				"element": "H" 
			},
			{
				"x": 5.1956041661,
				"y": -1.8267685647,
				"z": 3.4554092865,
				"element": "H" 
			},
			{
				"x": 4.1801166798,
				"y": -1.5190199916,
				"z": 1.4268504356,
				"element": "H" 
			},
			{
				"x": 4.8602862276,
				"y": 0.0848049787,
				"z": 1.5748237106,
				"element": "H" 
			},
			{
				"x": 2.607441128,
				"y": 0.8751819855,
				"z": 2.5047073352,
				"element": "H" 
			},
			{
				"x": 1.9975679495,
				"y": -0.7536890615,
				"z": 2.2952131553,
				"element": "H" 
			},
			{
				"x": 2.4428236733,
				"y": -0.5971178666,
				"z": -0.181172786,
				"element": "H" 
			},
			{
				"x": 3.0510063212,
				"y": 1.0327127233,
				"z": 0.038575882,
				"element": "H" 
			},
			{
				"x": 0.2098290048,
				"y": 0.1232539385,
				"z": 0.7525836199,
				"element": "H" 
			},
			{
				"x": 0.8040118223,
				"y": 1.7686745401,
				"z": 0.8845946177,
				"element": "H" 
			},
			{
				"x": -0.6156878424,
				"y": 1.3585192837,
				"z": -1.1433592723,
				"element": "H" 
			},
			{
				"x": 0.5587570025,
				"y": 0.186929934,
				"z": -1.734659278,
				"element": "H" 
			},
			{
				"x": 2.2796974292,
				"y": 1.9752063874,
				"z": -1.9377336807,
				"element": "H" 
			},
			{
				"x": 1.1603839157,
				"y": 3.1503223936,
				"z": -1.2481753414,
				"element": "H" 
			},
			{
				"x": -0.3955492015,
				"y": 2.705741331,
				"z": -3.2535807383,
				"element": "H" 
			},
			{
				"x": 1.1165300536,
				"y": 3.48633581,
				"z": -3.6365158776,
				"element": "H" 
			},
			{
				"x": 0.9669007947,
				"y": 1.2206445106,
				"z": -6.4234813368,
				"element": "H" 
			},
			{
				"x": 0.0556527207,
				"y": 2.6364836492,
				"z": -5.8533479103,
				"element": "H" 
			},
			{
				"x": -1.5724565528,
				"y": 1.0137749674,
				"z": -6.5581149621,
				"element": "H" 
			},
			{
				"x": -1.6439173293,
				"y": 1.0705909469,
				"z": -4.8080985529,
				"element": "H" 
			},
			{
				"x": -0.2072504947,
				"y": -1.0243376798,
				"z": -4.7151357521,
				"element": "H" 
			},
			{
				"x": -0.1458849373,
				"y": -1.0375025968,
				"z": -6.4590580238,
				"element": "H" 
			},
			{
				"x": -1.8001851283,
				"y": -2.6523770356,
				"z": -5.7639301436,
				"element": "H" 
			},
			{
				"x": -2.6091118459,
				"y": -1.3433897184,
				"z": -6.6052839563,
				"element": "H" 
			},
			{
				"x": -3.3891693006,
				"y": -0.3928306946,
				"z": -4.423166007,
				"element": "H" 
			},
			{
				"x": -3.9487389264,
				"y": -2.0252615993,
				"z": -4.709029902,
				"element": "H" 
			},
			{
				"x": -2.1109860609,
				"y": -2.9066997225,
				"z": -3.2164176457,
				"element": "H" 
			},
			{
				"x": -1.6108304738,
				"y": -1.2602929341,
				"z": -2.8748147877,
				"element": "H" 
			},
			{
				"x": -3.8900398268,
				"y": -0.7630944003,
				"z": -1.9278296431,
				"element": "H" 
			},
			{
				"x": -4.3763318033,
				"y": -2.4195542493,
				"z": -2.2439646836,
				"element": "H" 
			},
			{
				"x": -2.0780227728,
				"y": -1.5863806732,
				"z": -0.3896075387,
				"element": "H" 
			},
			{
				"x": -2.5636533449,
				"y": -3.2436301943,
				"z": -0.7027579316,
				"element": "H" 
			},
			{
				"x": -4.8359143848,
				"y": -2.7620057607,
				"z": 0.2636174581,
				"element": "H" 
			},
			{
				"x": -4.3544932972,
				"y": -1.1022639695,
				"z": 0.5711165086,
				"element": "H" 
			},
			{
				"x": -2.5364103387,
				"y": -1.9150877888,
				"z": 2.1099205619,
				"element": "H" 
			},
			{
				"x": -3.0202276412,
				"y": -3.5744712055,
				"z": 1.8046939638,
				"element": "H" 
			},
			{
				"x": -4.8094373914,
				"y": -1.4300722791,
				"z": 3.0763979663,
				"element": "H" 
			},
			{
				"x": -5.2930238308,
				"y": -3.0897740498,
				"z": 2.7719287229,
				"element": "H" 
			},
			{
				"x": -3.4765287941,
				"y": -3.9009127018,
				"z": 4.3101004085,
				"element": "H" 
			},
			{
				"x": -2.9923940583,
				"y": -2.242321472,
				"z": 4.6138164467,
				"element": "H" 
			},
			{
				"x": -4.4517901308,
				"y": -3.0837410635,
				"z": 6.4683554308,
				"element": "H" 
			},
			{
				"x": -5.2607710902,
				"y": -1.7578536621,
				"z": 5.6222822171,
				"element": "H" 
			},
			{
				"x": -5.7486820607,
				"y": -3.4287481013,
				"z": 5.3162636851,
				"element": "H" 
			}
		],
		 "valence_orbital": [ 
			{
				"type": "occ",
				"energy": -0.30578,
				"method": "rhf"
			},
			{
				"type": "occ",
				"energy": -0.29621,
				"method": "rhf"
			},
			{
				"type": "occ",
				"energy": -0.2896,
				"method": "rhf"
			},
			{
				"type": "occ",
				"energy": -0.28883,
				"method": "rhf"
			},
			{
				"type": "occ",
				"energy": -0.23802,
				"method": "rhf"
			},
			{
				"type": "unocc",
				"energy": -0.01175,
				"method": "rhf"
			},
			{
				"type": "unocc",
				"energy": 0.06354,
				"method": "rhf"
			},
			{
				"type": "unocc",
				"energy": 0.07368,
				"method": "rhf"
			},
			{
				"type": "unocc",
				"energy": 0.08331,
				"method": "rhf"
			},
			{
				"type": "unocc",
				"energy": 0.09322,
				"method": "rhf"
			}
		],
		"cosmo_sigma_profile": { 
			"-0.025": 0.0,
			"-0.024": 0.0,
			"-0.023": 0.0,
			"-0.022": 0.0,
			"-0.021": 0.0,
			"-0.02": 0.0,
			"-0.019": 0.0,
			"-0.018": 0.0,
			"-0.017": 0.0,
			"-0.016": 0.0,
			"-0.015": 0.0,
			"-0.014": 0.0,
			"-0.013": 0.0,
			"-0.012": 0.0,
			"-0.011": 0.0,
			"-0.01": 0.0,
			"-0.009": 0.0,
			"-0.008": 0.0,
			"-0.007": 0.0,
			"-0.006": 0.982021444275,
			"-0.005": 4.75934707355,
			"-0.004": 7.93382127069,
			"-0.003": 23.6462671188,
			"-0.002": 73.5920882599,
			"-0.001": 151.953193572,
			"0.0": 152.708956684,
			"0.001": 109.52978216,
			"0.002": 52.7130499921,
			"0.003": 4.8084452765,
			"0.004": 2.56080495976,
			"0.005": 1.30900062964,
			"0.006": 2.28543310888,
			"0.007": 1.62893607962,
			"0.008": 1.90301134891,
			"0.009": 1.78919775821,
			"0.01": 2.05132740455,
			"0.011": 2.37945783638,
			"0.012": 2.65119651571,
			"0.013": 3.18704723718,
			"0.014": 0.339695725794,
			"0.015": 0.0,
			"0.016": 0.0,
			"0.017": 0.0,
			"0.018": 0.0,
			"0.019": 0.0,
			"0.02": 0.0,
			"0.021": 0.0,
			"0.022": 0.0,
			"0.023": 0.0,
			"0.024": 0.0,
			"0.025": 0.0
		}
	}
}
