{
	 "smiles": "CC1=CC(S)=C(S)C=C1", 
	 "Tm": 303.15, 
	 "num_atms": 17, 
	 "gaussian": { 
		 "optdone": 1, 
		 "sigma_profile": "yes", 
		 "theory": "DFT", 
		 "functional": "B3LYP", 
		 "basiset": "6-31G**", 
		 "properties": { 
			 "R2extent": 2299.8276, 
			 "electric_dipole_moment_norm": 1.6415413915, 
			 "electric_quadrupole_moment_norm": 5.4684375209, 
			 "total_energy": -1067.94125324, 
			 "HOMO_LUMO_gap": 0.20071, 
			 "cosmo_polarized_energy": -5.63, 
			 "cosmo_cavitation_energy": 23.53, 
			 "cosmo_dispersion_energy": -18.4, 
			 "cosmo_repulsion_energy": 1.41, 
			 "cosmo_total_nonelectrostatic_energy": 6.54, 
			 "SMD_solvation_energy": 3.15 
		},
		"coords": [
			{
				"x": 2.1249223878,
				"y": 1.1492163067,
				"z": -1.9454547356,
				"element": "C" 
			},
			{
				"x": 0.9504544121,
				"y": 0.8367427453,
				"z": -1.0490112365,
				"element": "C" 
			},
			{
				"x": -0.0959048,
				"y": 1.7488403754,
				"z": -0.8976943376,
				"element": "C" 
			},
			{
				"x": -1.1889999465,
				"y": 1.49361095,
				"z": -0.0560192373,
				"element": "C" 
			},
			{
				"x": -2.4367607473,
				"y": 2.7632251627,
				"z": 0.0443693402,
				"element": "S" 
			},
			{
				"x": -1.2261319269,
				"y": 0.2858405474,
				"z": 0.6714173714,
				"element": "C" 
			},
			{
				"x": -2.5981398319,
				"y": -0.1829815979,
				"z": 1.7347983272,
				"element": "S" 
			},
			{
				"x": -0.1836802106,
				"y": -0.6361174941,
				"z": 0.5066385086,
				"element": "C" 
			},
			{
				"x": 0.8869707207,
				"y": -0.3707928835,
				"z": -0.3405795961,
				"element": "C" 
			},
			{
				"x": 2.9915963385,
				"y": 1.4768615899,
				"z": -1.3581941,
				"element": "H" 
			},
			{
				"x": 2.4358522616,
				"y": 0.2682967415,
				"z": -2.5159322474,
				"element": "H" 
			},
			{
				"x": 1.8880680928,
				"y": 1.9469327161,
				"z": -2.6547634498,
				"element": "H" 
			},
			{
				"x": -0.075037464,
				"y": 2.6784672894,
				"z": -1.4603340807,
				"element": "H" 
			},
			{
				"x": -3.3962863196,
				"y": 1.9708366581,
				"z": 0.5687289939,
				"element": "H" 
			},
			{
				"x": -2.4308803757,
				"y": 0.7657240807,
				"z": 2.6831255427,
				"element": "H" 
			},
			{
				"x": -0.2201683457,
				"y": -1.5678478837,
				"z": 1.06189564,
				"element": "H" 
			},
			{
				"x": 1.6814257546,
				"y": -1.1044553039,
				"z": -0.447390703,
				"element": "H" 
			}
		],
		 "valence_orbital": [ 
			{
				"type": "occ",
				"energy": -0.33783,
				"method": "rhf"
			},
			{
				"type": "occ",
				"energy": -0.2955,
				"method": "rhf"
			},
			{
				"type": "occ",
				"energy": -0.26895,
				"method": "rhf"
			},
			{
				"type": "occ",
				"energy": -0.24327,
				"method": "rhf"
			},
			{
				"type": "occ",
				"energy": -0.22053,
				"method": "rhf"
			},
			{
				"type": "unocc",
				"energy": -0.01982,
				"method": "rhf"
			},
			{
				"type": "unocc",
				"energy": -0.01028,
				"method": "rhf"
			},
			{
				"type": "unocc",
				"energy": 0.01569,
				"method": "rhf"
			},
			{
				"type": "unocc",
				"energy": 0.03486,
				"method": "rhf"
			},
			{
				"type": "unocc",
				"energy": 0.06721,
				"method": "rhf"
			}
		],
		"cosmo_sigma_profile": { 
			"-0.025": 0.0,
			"-0.024": 0.0,
			"-0.023": 0.0,
			"-0.022": 0.0,
			"-0.021": 0.0,
			"-0.02": 0.0,
			"-0.019": 0.0,
			"-0.018": 0.0,
			"-0.017": 0.0,
			"-0.016": 0.0,
			"-0.015": 0.0,
			"-0.014": 0.0,
			"-0.013": 0.0,
			"-0.012": 0.0,
			"-0.011": 0.0,
			"-0.01": 1.16043367279,
			"-0.009": 2.49132752426,
			"-0.008": 2.34042992183,
			"-0.007": 2.91874641591,
			"-0.006": 7.75170620332,
			"-0.005": 11.9825633064,
			"-0.004": 15.6487695787,
			"-0.003": 12.9682904309,
			"-0.002": 14.372872494,
			"-0.001": 16.7763734864,
			"0.0": 17.045512919,
			"0.001": 13.8745251824,
			"0.002": 11.9715106412,
			"0.003": 14.4838922281,
			"0.004": 19.0562359067,
			"0.005": 12.4672898861,
			"0.006": 5.51006761811,
			"0.007": 4.47467075861,
			"0.008": 3.53474607509,
			"0.009": 1.2479029042,
			"0.01": 0.0,
			"0.011": 0.0,
			"0.012": 0.0,
			"0.013": 0.0,
			"0.014": 0.0,
			"0.015": 0.0,
			"0.016": 0.0,
			"0.017": 0.0,
			"0.018": 0.0,
			"0.019": 0.0,
			"0.02": 0.0,
			"0.021": 0.0,
			"0.022": 0.0,
			"0.023": 0.0,
			"0.024": 0.0,
			"0.025": 0.0
		}
	}
}
