{
	 "smiles": "CN1N=C(C=C1C)C(O)=O", 
	 "Tm": 449.15, 
	 "num_atms": 18, 
	 "gaussian": { 
		 "optdone": 1, 
		 "sigma_profile": "yes", 
		 "theory": "DFT", 
		 "functional": "B3LYP", 
		 "basiset": "6-31G**", 
		 "properties": { 
			 "R2extent": 1982.7985, 
			 "electric_dipole_moment_norm": 7.40947611238, 
			 "electric_quadrupole_moment_norm": 16.0584887605, 
			 "total_energy": -493.41240094, 
			 "HOMO_LUMO_gap": 0.23106, 
			 "cosmo_polarized_energy": -14.58, 
			 "cosmo_cavitation_energy": 22.44, 
			 "cosmo_dispersion_energy": -16.51, 
			 "cosmo_repulsion_energy": 1.35, 
			 "cosmo_total_nonelectrostatic_energy": 7.29, 
			 "SMD_solvation_energy": 4.66 
		},
		"coords": [
			{
				"x": -0.911549607,
				"y": -0.043482989,
				"z": -1.8808625415,
				"element": "C" 
			},
			{
				"x": -0.1517327996,
				"y": -0.3553444243,
				"z": -0.6829674759,
				"element": "N" 
			},
			{
				"x": -0.359705262,
				"y": -1.5183859965,
				"z": -0.0405155743,
				"element": "N" 
			},
			{
				"x": 0.4818342574,
				"y": -1.4940313066,
				"z": 0.9988123549,
				"element": "C" 
			},
			{
				"x": 1.2377768131,
				"y": -0.3048934127,
				"z": 1.0252740761,
				"element": "C" 
			},
			{
				"x": 0.807669468,
				"y": 0.4145511331,
				"z": -0.0748340557,
				"element": "C" 
			},
			{
				"x": 1.216300499,
				"y": 1.7527460993,
				"z": -0.601031996,
				"element": "C" 
			},
			{
				"x": 0.5235895144,
				"y": -2.6393754499,
				"z": 1.9413392778,
				"element": "C" 
			},
			{
				"x": -0.3352784726,
				"y": -3.6407457798,
				"z": 1.6400918388,
				"element": "O" 
			},
			{
				"x": 1.2566523508,
				"y": -2.6889313128,
				"z": 2.9021839855,
				"element": "O" 
			},
			{
				"x": -0.2470350735,
				"y": 0.0907161392,
				"z": -2.7399606478,
				"element": "H" 
			},
			{
				"x": -1.5025872888,
				"y": 0.8669457651,
				"z": -1.7414590501,
				"element": "H" 
			},
			{
				"x": -1.5798816361,
				"y": -0.8823747967,
				"z": -2.0690942779,
				"element": "H" 
			},
			{
				"x": 1.9870377761,
				"y": -0.0235601067,
				"z": 1.7488580674,
				"element": "H" 
			},
			{
				"x": 0.3761667308,
				"y": 2.4567787989,
				"z": -0.6267697134,
				"element": "H" 
			},
			{
				"x": 1.6220264436,
				"y": 1.6867944868,
				"z": -1.6174900897,
				"element": "H" 
			},
			{
				"x": 1.989900785,
				"y": 2.1799927889,
				"z": 0.0397380652,
				"element": "H" 
			},
			{
				"x": -0.8191844987,
				"y": -3.386699636,
				"z": 0.8339877566,
				"element": "H" 
			}
		],
		 "valence_orbital": [ 
			{
				"type": "occ",
				"energy": -0.31687,
				"method": "rhf"
			},
			{
				"type": "occ",
				"energy": -0.30063,
				"method": "rhf"
			},
			{
				"type": "occ",
				"energy": -0.26266,
				"method": "rhf"
			},
			{
				"type": "occ",
				"energy": -0.261,
				"method": "rhf"
			},
			{
				"type": "occ",
				"energy": -0.25727,
				"method": "rhf"
			},
			{
				"type": "unocc",
				"energy": -0.02621,
				"method": "rhf"
			},
			{
				"type": "unocc",
				"energy": 0.01995,
				"method": "rhf"
			},
			{
				"type": "unocc",
				"energy": 0.06831,
				"method": "rhf"
			},
			{
				"type": "unocc",
				"energy": 0.09696,
				"method": "rhf"
			},
			{
				"type": "unocc",
				"energy": 0.11148,
				"method": "rhf"
			}
		],
		"cosmo_sigma_profile": { 
			"-0.025": 0.0,
			"-0.024": 0.0,
			"-0.023": 0.0,
			"-0.022": 0.0,
			"-0.021": 0.0,
			"-0.02": 0.0,
			"-0.019": 0.0,
			"-0.018": 0.0,
			"-0.017": 0.0,
			"-0.016": 0.0,
			"-0.015": 0.00464526777018,
			"-0.014": 0.331075614654,
			"-0.013": 0.81229261066,
			"-0.012": 0.338254033518,
			"-0.011": 0.623078243416,
			"-0.01": 0.942212451897,
			"-0.009": 0.390348417293,
			"-0.008": 0.771888369648,
			"-0.007": 7.33901630394,
			"-0.006": 14.8991472035,
			"-0.005": 17.8639059406,
			"-0.004": 15.8352998967,
			"-0.003": 15.421175679,
			"-0.002": 13.2227982438,
			"-0.001": 11.548392514,
			"0.0": 6.8715394523,
			"0.001": 9.2085619273,
			"0.002": 8.87217655527,
			"0.003": 9.16941017053,
			"0.004": 6.67149859259,
			"0.005": 2.98416069669,
			"0.006": 5.27859145236,
			"0.007": 3.33351873219,
			"0.008": 3.82815952177,
			"0.009": 2.85283827818,
			"0.01": 4.97524952541,
			"0.011": 4.92614063907,
			"0.012": 5.91494909429,
			"0.013": 2.72121073892,
			"0.014": 0.291067820702,
			"0.015": 0.0,
			"0.016": 0.0,
			"0.017": 0.0,
			"0.018": 0.0,
			"0.019": 0.0,
			"0.02": 0.0,
			"0.021": 0.0,
			"0.022": 0.0,
			"0.023": 0.0,
			"0.024": 0.0,
			"0.025": 0.0
		}
	}
}
