{
	 "smiles": "BrC1=C(OC2=CC=NC=C2)C=CC=C1", 
	 "Tm": 342.15, 
	 "num_atms": 22, 
	 "gaussian": { 
		 "optdone": 1, 
		 "sigma_profile": "yes", 
		 "theory": "DFT", 
		 "functional": "B3LYP", 
		 "basiset": "6-31G**", 
		 "properties": { 
			 "R2extent": 5874.5268, 
			 "electric_dipole_moment_norm": 3.53448716082, 
			 "electric_quadrupole_moment_norm": 7.7750565805, 
			 "total_energy": -3125.35209893, 
			 "HOMO_LUMO_gap": 0.221, 
			 "cosmo_polarized_energy": -8.86, 
			 "cosmo_cavitation_energy": 29.13, 
			 "cosmo_dispersion_energy": -21.1, 
			 "cosmo_repulsion_energy": 1.66, 
			 "cosmo_total_nonelectrostatic_energy": 9.7, 
			 "SMD_solvation_energy": 2.76 
		},
		"coords": [
			{
				"x": -4.1576270388,
				"y": -1.1332002739,
				"z": -1.2086935358,
				"element": "Br" 
			},
			{
				"x": -3.3515110867,
				"y": 0.0403665417,
				"z": 0.0531087815,
				"element": "C" 
			},
			{
				"x": -2.2388216467,
				"y": -0.3785344493,
				"z": 0.7911997816,
				"element": "C" 
			},
			{
				"x": -1.7682085467,
				"y": -1.6720114616,
				"z": 0.6737546542,
				"element": "O" 
			},
			{
				"x": -0.6646221838,
				"y": -1.9330890291,
				"z": -0.0994470626,
				"element": "C" 
			},
			{
				"x": -0.1963585298,
				"y": -3.2495483439,
				"z": -0.0881390387,
				"element": "C" 
			},
			{
				"x": 0.9191532478,
				"y": -3.5530592768,
				"z": -0.8619105398,
				"element": "C" 
			},
			{
				"x": 1.5780310239,
				"y": -2.663913367,
				"z": -1.6203117085,
				"element": "N" 
			},
			{
				"x": 1.1062846355,
				"y": -1.4126441544,
				"z": -1.614388931,
				"element": "C" 
			},
			{
				"x": -0.0023109957,
				"y": -0.9852091944,
				"z": -0.8809348536,
				"element": "C" 
			},
			{
				"x": -1.6563507927,
				"y": 0.4875630473,
				"z": 1.7188318536,
				"element": "C" 
			},
			{
				"x": -2.1774168303,
				"y": 1.7666368643,
				"z": 1.9061867436,
				"element": "C" 
			},
			{
				"x": -3.288019909,
				"y": 2.1813364526,
				"z": 1.1684867483,
				"element": "C" 
			},
			{
				"x": -3.8769596718,
				"y": 1.3189347169,
				"z": 0.2439963115,
				"element": "C" 
			},
			{
				"x": -0.699825656,
				"y": -4.0008174983,
				"z": 0.5099942009,
				"element": "H" 
			},
			{
				"x": 1.3057534436,
				"y": -4.5706210085,
				"z": -0.8712245181,
				"element": "H" 
			},
			{
				"x": 1.6416195226,
				"y": -0.6951988868,
				"z": -2.234352989,
				"element": "H" 
			},
			{
				"x": -0.331563458,
				"y": 0.0459278767,
				"z": -0.9250933104,
				"element": "H" 
			},
			{
				"x": -0.8015947831,
				"y": 0.1371859759,
				"z": 2.2883247551,
				"element": "H" 
			},
			{
				"x": -1.7201489279,
				"y": 2.4335622549,
				"z": 2.6302467783,
				"element": "H" 
			},
			{
				"x": -3.7022472714,
				"y": 3.174367452,
				"z": 1.3120521639,
				"element": "H" 
			},
			{
				"x": -4.7415545451,
				"y": 1.6292657614,
				"z": -0.3316862848,
				"element": "H" 
			}
		],
		 "valence_orbital": [ 
			{
				"type": "occ",
				"energy": -0.2705,
				"method": "rhf"
			},
			{
				"type": "occ",
				"energy": -0.26282,
				"method": "rhf"
			},
			{
				"type": "occ",
				"energy": -0.25481,
				"method": "rhf"
			},
			{
				"type": "occ",
				"energy": -0.25321,
				"method": "rhf"
			},
			{
				"type": "occ",
				"energy": -0.24981,
				"method": "rhf"
			},
			{
				"type": "unocc",
				"energy": -0.02881,
				"method": "rhf"
			},
			{
				"type": "unocc",
				"energy": -0.02354,
				"method": "rhf"
			},
			{
				"type": "unocc",
				"energy": -0.00973,
				"method": "rhf"
			},
			{
				"type": "unocc",
				"energy": -0.00931,
				"method": "rhf"
			},
			{
				"type": "unocc",
				"energy": -0.00089,
				"method": "rhf"
			}
		],
		"cosmo_sigma_profile": { 
			"-0.025": 0.0,
			"-0.024": 0.0,
			"-0.023": 0.0,
			"-0.022": 0.0,
			"-0.021": 0.0,
			"-0.02": 0.0,
			"-0.019": 0.0,
			"-0.018": 0.0,
			"-0.017": 0.0,
			"-0.016": 0.0,
			"-0.015": 0.0,
			"-0.014": 0.0,
			"-0.013": 0.0,
			"-0.012": 0.0,
			"-0.011": 0.0,
			"-0.01": 0.0,
			"-0.009": 0.0,
			"-0.008": 1.62918198744,
			"-0.007": 10.6415115473,
			"-0.006": 17.2735039439,
			"-0.005": 18.0763765344,
			"-0.004": 14.0112668312,
			"-0.003": 13.7518509389,
			"-0.002": 13.6303690875,
			"-0.001": 14.1155875621,
			"0.0": 15.8139779251,
			"0.001": 24.4627948096,
			"0.002": 32.0427158045,
			"0.003": 24.1330908622,
			"0.004": 15.3683342238,
			"0.005": 5.67734084643,
			"0.006": 3.53010315931,
			"0.007": 3.00907741409,
			"0.008": 2.58113178654,
			"0.009": 1.31084103955,
			"0.01": 0.953085553663,
			"0.011": 0.74848456158,
			"0.012": 0.905096721004,
			"0.013": 1.06973243792,
			"0.014": 0.977787281732,
			"0.015": 0.93424696089,
			"0.016": 0.865207155139,
			"0.017": 0.531754964476,
			"0.018": 0.0399381889119,
			"0.019": 0.0,
			"0.02": 0.0,
			"0.021": 0.0,
			"0.022": 0.0,
			"0.023": 0.0,
			"0.024": 0.0,
			"0.025": 0.0
		}
	}
}
