{
	 "smiles": "CC1=CC=C(C=C1Cl)C(O)=O", 
	 "Tm": 481.15, 
	 "num_atms": 18, 
	 "gaussian": { 
		 "optdone": 1, 
		 "sigma_profile": "yes", 
		 "theory": "DFT", 
		 "functional": "B3LYP", 
		 "basiset": "6-31G**", 
		 "properties": { 
			 "R2extent": 2986.3716, 
			 "electric_dipole_moment_norm": 0.984532747043, 
			 "electric_quadrupole_moment_norm": 12.8130307582, 
			 "total_energy": -919.738297873, 
			 "HOMO_LUMO_gap": 0.19789, 
			 "cosmo_polarized_energy": -8.66, 
			 "cosmo_cavitation_energy": 24.25, 
			 "cosmo_dispersion_energy": -17.99, 
			 "cosmo_repulsion_energy": 1.44, 
			 "cosmo_total_nonelectrostatic_energy": 7.71, 
			 "SMD_solvation_energy": 5.22 
		},
		"coords": [
			{
				"x": -1.6063084953,
				"y": 1.5916286026,
				"z": 0.5751240484,
				"element": "C" 
			},
			{
				"x": -0.3167310012,
				"y": 0.8349189784,
				"z": 0.7485774104,
				"element": "C" 
			},
			{
				"x": -0.1694813307,
				"y": -0.1187289099,
				"z": 1.7678459264,
				"element": "C" 
			},
			{
				"x": 1.0130011445,
				"y": -0.8280399226,
				"z": 1.9446721634,
				"element": "C" 
			},
			{
				"x": 2.0980204752,
				"y": -0.5979362586,
				"z": 1.0915895714,
				"element": "C" 
			},
			{
				"x": 1.9845985527,
				"y": 0.3467064695,
				"z": 0.0643798492,
				"element": "C" 
			},
			{
				"x": 0.7906983027,
				"y": 1.0429521942,
				"z": -0.0911045041,
				"element": "C" 
			},
			{
				"x": 0.6842413688,
				"y": 2.2241377155,
				"z": -1.3944798514,
				"element": "Cl" 
			},
			{
				"x": 3.3456439894,
				"y": -1.3755330909,
				"z": 1.311666245,
				"element": "C" 
			},
			{
				"x": 4.3260861094,
				"y": -1.0680351675,
				"z": 0.4265437324,
				"element": "O" 
			},
			{
				"x": 3.4989236315,
				"y": -2.2056373216,
				"z": 2.1855610695,
				"element": "O" 
			},
			{
				"x": -2.0350992234,
				"y": 1.4209509019,
				"z": -0.4181893609,
				"element": "H" 
			},
			{
				"x": -2.3395275456,
				"y": 1.2853475072,
				"z": 1.3247081127,
				"element": "H" 
			},
			{
				"x": -1.4474537095,
				"y": 2.6713925066,
				"z": 0.6675923687,
				"element": "H" 
			},
			{
				"x": -1.0092257703,
				"y": -0.3007986332,
				"z": 2.4326137716,
				"element": "H" 
			},
			{
				"x": 1.1166695574,
				"y": -1.5628566138,
				"z": 2.7353899519,
				"element": "H" 
			},
			{
				"x": 2.8165000303,
				"y": 0.534422809,
				"z": -0.6027267567,
				"element": "H" 
			},
			{
				"x": 5.0824439141,
				"y": -1.629291767,
				"z": 0.6637362522,
				"element": "H" 
			}
		],
		 "valence_orbital": [ 
			{
				"type": "occ",
				"energy": -0.32154,
				"method": "rhf"
			},
			{
				"type": "occ",
				"energy": -0.31846,
				"method": "rhf"
			},
			{
				"type": "occ",
				"energy": -0.28147,
				"method": "rhf"
			},
			{
				"type": "occ",
				"energy": -0.26682,
				"method": "rhf"
			},
			{
				"type": "occ",
				"energy": -0.25273,
				"method": "rhf"
			},
			{
				"type": "unocc",
				"energy": -0.05484,
				"method": "rhf"
			},
			{
				"type": "unocc",
				"energy": -0.02003,
				"method": "rhf"
			},
			{
				"type": "unocc",
				"energy": 0.02654,
				"method": "rhf"
			},
			{
				"type": "unocc",
				"energy": 0.04885,
				"method": "rhf"
			},
			{
				"type": "unocc",
				"energy": 0.07586,
				"method": "rhf"
			}
		],
		"cosmo_sigma_profile": { 
			"-0.025": 0.0,
			"-0.024": 0.0,
			"-0.023": 0.0,
			"-0.022": 0.0,
			"-0.021": 0.0,
			"-0.02": 0.0,
			"-0.019": 0.0820050873669,
			"-0.018": 0.686699624017,
			"-0.017": 0.944355015113,
			"-0.016": 0.954374428875,
			"-0.015": 0.746382105099,
			"-0.014": 1.01905218235,
			"-0.013": 0.67453329667,
			"-0.012": 0.121330930593,
			"-0.011": 1.00175578631,
			"-0.01": 0.757910673604,
			"-0.009": 0.508656664876,
			"-0.008": 0.612466118401,
			"-0.007": 3.55905181987,
			"-0.006": 7.29269817433,
			"-0.005": 8.90164925437,
			"-0.004": 10.1218721944,
			"-0.003": 13.1262130472,
			"-0.002": 15.3856034721,
			"-0.001": 19.5024767302,
			"0.0": 19.4639605083,
			"0.001": 18.4816109973,
			"0.002": 21.6072150604,
			"0.003": 14.5839354194,
			"0.004": 10.907380303,
			"0.005": 5.93168881816,
			"0.006": 3.07458273217,
			"0.007": 2.95947277665,
			"0.008": 1.60153787251,
			"0.009": 1.39420468567,
			"0.01": 2.09790429796,
			"0.011": 4.0903226975,
			"0.012": 3.4449387504,
			"0.013": 0.0554787308601,
			"0.014": 0.0,
			"0.015": 0.0,
			"0.016": 0.0,
			"0.017": 0.0,
			"0.018": 0.0,
			"0.019": 0.0,
			"0.02": 0.0,
			"0.021": 0.0,
			"0.022": 0.0,
			"0.023": 0.0,
			"0.024": 0.0,
			"0.025": 0.0
		}
	}
}
