{
	 "smiles": "CC(C)(C)OC(=O)N1CCC2=C1C=CC(N)=C2", 
	 "Tm": 358.15, 
	 "num_atms": 35, 
	 "gaussian": { 
		 "optdone": 1, 
		 "sigma_profile": "yes", 
		 "theory": "DFT", 
		 "functional": "B3LYP", 
		 "basiset": "6-31G**", 
		 "properties": { 
			 "R2extent": 5185.8963, 
			 "electric_dipole_moment_norm": 2.81849976406, 
			 "electric_quadrupole_moment_norm": 15.8731957412, 
			 "total_energy": -766.22639166, 
			 "HOMO_LUMO_gap": 0.17992, 
			 "cosmo_polarized_energy": -12.86, 
			 "cosmo_cavitation_energy": 36.47, 
			 "cosmo_dispersion_energy": -25.89, 
			 "cosmo_repulsion_energy": 2.01, 
			 "cosmo_total_nonelectrostatic_energy": 12.59, 
			 "SMD_solvation_energy": 6.36 
		},
		"coords": [
			{
				"x": -3.5332446794,
				"y": -1.5655749824,
				"z": 1.6090271767,
				"element": "C" 
			},
			{
				"x": -2.8830608807,
				"y": -0.1833362945,
				"z": 1.7160818699,
				"element": "C" 
			},
			{
				"x": -3.736592515,
				"y": 0.8716281514,
				"z": 1.0038451146,
				"element": "C" 
			},
			{
				"x": -2.6146918623,
				"y": 0.1766654682,
				"z": 3.1813761877,
				"element": "C" 
			},
			{
				"x": -1.6103514997,
				"y": -0.3706654436,
				"z": 0.9994595841,
				"element": "O" 
			},
			{
				"x": -0.7368365718,
				"y": 0.6553640169,
				"z": 0.8701141464,
				"element": "C" 
			},
			{
				"x": -0.8849407441,
				"y": 1.7848634217,
				"z": 1.3189862727,
				"element": "O" 
			},
			{
				"x": 0.3732923626,
				"y": 0.2967007574,
				"z": 0.1520626103,
				"element": "N" 
			},
			{
				"x": 1.4270809185,
				"y": 1.3119556851,
				"z": -0.0558038618,
				"element": "C" 
			},
			{
				"x": 2.3665928526,
				"y": 0.6872612272,
				"z": -1.1125797699,
				"element": "C" 
			},
			{
				"x": 1.9646764171,
				"y": -0.770890681,
				"z": -1.1250424047,
				"element": "C" 
			},
			{
				"x": 0.7767469679,
				"y": -0.9469566086,
				"z": -0.4007592744,
				"element": "C" 
			},
			{
				"x": 0.1982824397,
				"y": -2.2126907612,
				"z": -0.3073211313,
				"element": "C" 
			},
			{
				"x": 0.825847319,
				"y": -3.2862541112,
				"z": -0.9441508631,
				"element": "C" 
			},
			{
				"x": 2.01693634,
				"y": -3.1252616728,
				"z": -1.6694245536,
				"element": "C" 
			},
			{
				"x": 2.5976397092,
				"y": -4.2073742929,
				"z": -2.3479422254,
				"element": "N" 
			},
			{
				"x": 2.5839548329,
				"y": -1.8398150686,
				"z": -1.7546574073,
				"element": "C" 
			},
			{
				"x": -2.9105693582,
				"y": -2.3255493266,
				"z": 2.0907383204,
				"element": "H" 
			},
			{
				"x": -3.6754810891,
				"y": -1.8458722442,
				"z": 0.5612202331,
				"element": "H" 
			},
			{
				"x": -4.5103676658,
				"y": -1.5593133129,
				"z": 2.1011943354,
				"element": "H" 
			},
			{
				"x": -3.8734332609,
				"y": 0.6015342229,
				"z": -0.0481094268,
				"element": "H" 
			},
			{
				"x": -3.2683688116,
				"y": 1.8543322505,
				"z": 1.0596335213,
				"element": "H" 
			},
			{
				"x": -4.7246633308,
				"y": 0.9216551629,
				"z": 1.4730951773,
				"element": "H" 
			},
			{
				"x": -3.5602512521,
				"y": 0.195633804,
				"z": 3.7332836063,
				"element": "H" 
			},
			{
				"x": -2.1377392337,
				"y": 1.1533618485,
				"z": 3.2621681073,
				"element": "H" 
			},
			{
				"x": -1.9668589749,
				"y": -0.5749053326,
				"z": 3.6438412821,
				"element": "H" 
			},
			{
				"x": 0.9739327982,
				"y": 2.2527323376,
				"z": -0.3710927003,
				"element": "H" 
			},
			{
				"x": 1.9466731995,
				"y": 1.4981272172,
				"z": 0.8915282816,
				"element": "H" 
			},
			{
				"x": 3.4201066048,
				"y": 0.8375775361,
				"z": -0.8571483351,
				"element": "H" 
			},
			{
				"x": 2.2084417055,
				"y": 1.1393722292,
				"z": -2.0999733934,
				"element": "H" 
			},
			{
				"x": -0.714885047,
				"y": -2.3658615325,
				"z": 0.2494006214,
				"element": "H" 
			},
			{
				"x": 0.3771400588,
				"y": -4.274365962,
				"z": -0.8752216154,
				"element": "H" 
			},
			{
				"x": 3.5935793027,
				"y": -4.1181064789,
				"z": -2.5003512573,
				"element": "H" 
			},
			{
				"x": 2.3717620106,
				"y": -5.1127497104,
				"z": -1.9576285054,
				"element": "H" 
			},
			{
				"x": 3.5025509375,
				"y": -1.68882152,
				"z": -2.3176497236,
				"element": "H" 
			}
		],
		 "valence_orbital": [ 
			{
				"type": "occ",
				"energy": -0.28321,
				"method": "rhf"
			},
			{
				"type": "occ",
				"energy": -0.2581,
				"method": "rhf"
			},
			{
				"type": "occ",
				"energy": -0.25458,
				"method": "rhf"
			},
			{
				"type": "occ",
				"energy": -0.23897,
				"method": "rhf"
			},
			{
				"type": "occ",
				"energy": -0.17844,
				"method": "rhf"
			},
			{
				"type": "unocc",
				"energy": 0.00148,
				"method": "rhf"
			},
			{
				"type": "unocc",
				"energy": 0.01802,
				"method": "rhf"
			},
			{
				"type": "unocc",
				"energy": 0.07245,
				"method": "rhf"
			},
			{
				"type": "unocc",
				"energy": 0.08458,
				"method": "rhf"
			},
			{
				"type": "unocc",
				"energy": 0.08625,
				"method": "rhf"
			}
		],
		"cosmo_sigma_profile": { 
			"-0.025": 0.0,
			"-0.024": 0.0,
			"-0.023": 0.0,
			"-0.022": 0.0,
			"-0.021": 0.0,
			"-0.02": 0.0,
			"-0.019": 0.0,
			"-0.018": 0.0,
			"-0.017": 0.0,
			"-0.016": 0.0,
			"-0.015": 0.0,
			"-0.014": 0.0,
			"-0.013": 0.0213003581554,
			"-0.012": 1.60768908125,
			"-0.011": 2.7489491262,
			"-0.01": 2.44742004062,
			"-0.009": 3.63629047183,
			"-0.008": 3.08269370358,
			"-0.007": 3.25383645669,
			"-0.006": 4.3461493093,
			"-0.005": 9.39639952901,
			"-0.004": 26.6930594093,
			"-0.003": 30.8538819533,
			"-0.002": 28.9476666908,
			"-0.001": 28.1011918602,
			"0.0": 32.7350787984,
			"0.001": 24.6948963067,
			"0.002": 12.4267646371,
			"0.003": 10.7129185478,
			"0.004": 11.5110966538,
			"0.005": 10.7027216554,
			"0.006": 12.3893407899,
			"0.007": 6.78022737653,
			"0.008": 3.28441159122,
			"0.009": 2.58174239766,
			"0.01": 1.62895319861,
			"0.011": 2.60275721574,
			"0.012": 2.63365045967,
			"0.013": 3.10180950453,
			"0.014": 2.38289029353,
			"0.015": 0.476989679676,
			"0.016": 0.0950453344964,
			"0.017": 0.0,
			"0.018": 0.0,
			"0.019": 0.0,
			"0.02": 0.0,
			"0.021": 0.0,
			"0.022": 0.0,
			"0.023": 0.0,
			"0.024": 0.0,
			"0.025": 0.0
		}
	}
}
