{
	 "smiles": "CCC1=C(C=C)C=CC=C1", 
	 "Tm": 197.65, 
	 "num_atms": 22, 
	 "gaussian": { 
		 "optdone": 1, 
		 "sigma_profile": "yes", 
		 "theory": "DFT", 
		 "functional": "B3LYP", 
		 "basiset": "6-31G**", 
		 "properties": { 
			 "R2extent": 1753.9445, 
			 "electric_dipole_moment_norm": 0.307092347674, 
			 "electric_quadrupole_moment_norm": 6.06606044068, 
			 "total_energy": -388.286293502, 
			 "HOMO_LUMO_gap": 0.19524, 
			 "cosmo_polarized_energy": -3.75, 
			 "cosmo_cavitation_energy": 24.63, 
			 "cosmo_dispersion_energy": -17.64, 
			 "cosmo_repulsion_energy": 1.43, 
			 "cosmo_total_nonelectrostatic_energy": 8.42, 
			 "SMD_solvation_energy": 4.79 
		},
		"coords": [
			{
				"x": 0.1070452682,
				"y": -0.9866927401,
				"z": -2.876022038,
				"element": "C" 
			},
			{
				"x": -0.6442985353,
				"y": 0.2016969944,
				"z": -2.2486390999,
				"element": "C" 
			},
			{
				"x": -1.2307165891,
				"y": -0.1087521282,
				"z": -0.884565669,
				"element": "C" 
			},
			{
				"x": -0.4322534069,
				"y": -0.1808585317,
				"z": 0.2842172692,
				"element": "C" 
			},
			{
				"x": 1.0180715444,
				"y": 0.0915218875,
				"z": 0.2357758917,
				"element": "C" 
			},
			{
				"x": 1.9426870297,
				"y": -0.4135403882,
				"z": 1.062489808,
				"element": "C" 
			},
			{
				"x": -1.0483502516,
				"y": -0.5030355446,
				"z": 1.5069184031,
				"element": "C" 
			},
			{
				"x": -2.4105236341,
				"y": -0.7757731969,
				"z": 1.5875169207,
				"element": "C" 
			},
			{
				"x": -3.194317607,
				"y": -0.716259204,
				"z": 0.4345500436,
				"element": "C" 
			},
			{
				"x": -2.6008817692,
				"y": -0.3814468374,
				"z": -0.7816233566,
				"element": "C" 
			},
			{
				"x": -0.5588096892,
				"y": -1.8474437727,
				"z": -2.9949317518,
				"element": "H" 
			},
			{
				"x": 0.5008279985,
				"y": -0.7220444846,
				"z": -3.8631360199,
				"element": "H" 
			},
			{
				"x": 0.946045143,
				"y": -1.3002864916,
				"z": -2.2476440478,
				"element": "H" 
			},
			{
				"x": 0.0309101451,
				"y": 1.0642156823,
				"z": -2.1895231345,
				"element": "H" 
			},
			{
				"x": -1.4578570628,
				"y": 0.5044577349,
				"z": -2.9174566905,
				"element": "H" 
			},
			{
				"x": 1.3553265641,
				"y": 0.7619204141,
				"z": -0.5524968756,
				"element": "H" 
			},
			{
				"x": 2.9886373247,
				"y": -0.1393571212,
				"z": 0.968129124,
				"element": "H" 
			},
			{
				"x": 1.695021278,
				"y": -1.1225313893,
				"z": 1.847461925,
				"element": "H" 
			},
			{
				"x": -0.4457325364,
				"y": -0.5125780999,
				"z": 2.4102123212,
				"element": "H" 
			},
			{
				"x": -2.8597561203,
				"y": -1.0177171422,
				"z": 2.5465119003,
				"element": "H" 
			},
			{
				"x": -4.2608091061,
				"y": -0.9171249568,
				"z": 0.4827652265,
				"element": "H" 
			},
			{
				"x": -3.2128659877,
				"y": -0.3289706837,
				"z": -1.6791101497,
				"element": "H" 
			}
		],
		 "valence_orbital": [ 
			{
				"type": "occ",
				"energy": -0.33023,
				"method": "rhf"
			},
			{
				"type": "occ",
				"energy": -0.3203,
				"method": "rhf"
			},
			{
				"type": "occ",
				"energy": -0.28825,
				"method": "rhf"
			},
			{
				"type": "occ",
				"energy": -0.24063,
				"method": "rhf"
			},
			{
				"type": "occ",
				"energy": -0.22109,
				"method": "rhf"
			},
			{
				"type": "unocc",
				"energy": -0.02585,
				"method": "rhf"
			},
			{
				"type": "unocc",
				"energy": 0.00398,
				"method": "rhf"
			},
			{
				"type": "unocc",
				"energy": 0.05282,
				"method": "rhf"
			},
			{
				"type": "unocc",
				"energy": 0.09789,
				"method": "rhf"
			},
			{
				"type": "unocc",
				"energy": 0.10343,
				"method": "rhf"
			}
		],
		"cosmo_sigma_profile": { 
			"-0.025": 0.0,
			"-0.024": 0.0,
			"-0.023": 0.0,
			"-0.022": 0.0,
			"-0.021": 0.0,
			"-0.02": 0.0,
			"-0.019": 0.0,
			"-0.018": 0.0,
			"-0.017": 0.0,
			"-0.016": 0.0,
			"-0.015": 0.0,
			"-0.014": 0.0,
			"-0.013": 0.0,
			"-0.012": 0.0,
			"-0.011": 0.0,
			"-0.01": 0.0,
			"-0.009": 0.0,
			"-0.008": 0.0,
			"-0.007": 0.0,
			"-0.006": 2.31044321105,
			"-0.005": 13.4247120643,
			"-0.004": 15.5959462683,
			"-0.003": 21.3490456511,
			"-0.002": 18.4547581891,
			"-0.001": 22.0482539335,
			"0.0": 22.0864728838,
			"0.001": 18.2111253873,
			"0.002": 12.9919787931,
			"0.003": 11.6868509921,
			"0.004": 12.588562203,
			"0.005": 11.695245493,
			"0.006": 10.8185603565,
			"0.007": 1.67813125788,
			"0.008": 0.0,
			"0.009": 0.0,
			"0.01": 0.0,
			"0.011": 0.0,
			"0.012": 0.0,
			"0.013": 0.0,
			"0.014": 0.0,
			"0.015": 0.0,
			"0.016": 0.0,
			"0.017": 0.0,
			"0.018": 0.0,
			"0.019": 0.0,
			"0.02": 0.0,
			"0.021": 0.0,
			"0.022": 0.0,
			"0.023": 0.0,
			"0.024": 0.0,
			"0.025": 0.0
		}
	}
}
