{
	 "smiles": "O=C1NC(CN2CCOCC2)=NC2=C1C1=C(CCCC1)S2", 
	 "Tm": 436.15, 
	 "num_atms": 40, 
	 "gaussian": { 
		 "optdone": 1, 
		 "sigma_profile": "yes", 
		 "theory": "DFT", 
		 "functional": "B3LYP", 
		 "basiset": "6-31G**", 
		 "properties": { 
			 "R2extent": 8464.3528, 
			 "electric_dipole_moment_norm": 1.09122434449, 
			 "electric_quadrupole_moment_norm": 18.5584154116, 
			 "total_energy": -1295.94110525, 
			 "HOMO_LUMO_gap": 0.16421, 
			 "cosmo_polarized_energy": -16.03, 
			 "cosmo_cavitation_energy": 41.77, 
			 "cosmo_dispersion_energy": -30.53, 
			 "cosmo_repulsion_energy": 2.3, 
			 "cosmo_total_nonelectrostatic_energy": 13.54, 
			 "SMD_solvation_energy": 2.54 
		},
		"coords": [
			{
				"x": 1.3738207537,
				"y": -1.6752835175,
				"z": 2.3154731334,
				"element": "O" 
			},
			{
				"x": 1.0401549741,
				"y": -0.8047990842,
				"z": 1.5202075224,
				"element": "C" 
			},
			{
				"x": 1.8931142012,
				"y": 0.3039824755,
				"z": 1.2838877784,
				"element": "N" 
			},
			{
				"x": 1.6391580464,
				"y": 1.3500889901,
				"z": 0.4344941903,
				"element": "C" 
			},
			{
				"x": 2.7145172037,
				"y": 2.4134703046,
				"z": 0.2663980664,
				"element": "C" 
			},
			{
				"x": 3.663662577,
				"y": 2.1822541471,
				"z": -0.8136537084,
				"element": "N" 
			},
			{
				"x": 4.6010167375,
				"y": 1.0797414209,
				"z": -0.6102398071,
				"element": "C" 
			},
			{
				"x": 5.4948167004,
				"y": 0.9523799344,
				"z": -1.8399993341,
				"element": "C" 
			},
			{
				"x": 4.7621776791,
				"y": 0.6338805292,
				"z": -3.0220756022,
				"element": "O" 
			},
			{
				"x": 3.3800725367,
				"y": 0.9787725286,
				"z": -2.9716411907,
				"element": "C" 
			},
			{
				"x": 3.1244312319,
				"y": 2.2645321677,
				"z": -2.18775208,
				"element": "C" 
			},
			{
				"x": 0.5380758787,
				"y": 1.4278883488,
				"z": -0.2671346219,
				"element": "N" 
			},
			{
				"x": -0.3326285803,
				"y": 0.3924777597,
				"z": -0.1001843994,
				"element": "C" 
			},
			{
				"x": -0.1711284382,
				"y": -0.7153753307,
				"z": 0.7305132375,
				"element": "C" 
			},
			{
				"x": -1.2805912079,
				"y": -1.6281192384,
				"z": 0.6891941753,
				"element": "C" 
			},
			{
				"x": -2.2580251601,
				"y": -1.2044672619,
				"z": -0.1711786814,
				"element": "C" 
			},
			{
				"x": -3.5505484915,
				"y": -1.9250702151,
				"z": -0.4411534154,
				"element": "C" 
			},
			{
				"x": -3.4664830118,
				"y": -3.3761342246,
				"z": 0.069906884,
				"element": "C" 
			},
			{
				"x": -2.8426344689,
				"y": -3.4392295664,
				"z": 1.4719583171,
				"element": "C" 
			},
			{
				"x": -1.3973304765,
				"y": -2.9143416277,
				"z": 1.4718534927,
				"element": "C" 
			},
			{
				"x": -1.8584590304,
				"y": 0.3226047678,
				"z": -0.9481351134,
				"element": "S" 
			},
			{
				"x": 2.7490653786,
				"y": 0.2911439606,
				"z": 1.8260510674,
				"element": "H" 
			},
			{
				"x": 2.2003300877,
				"y": 3.3612544984,
				"z": 0.0850326211,
				"element": "H" 
			},
			{
				"x": 3.2792570743,
				"y": 2.5151402686,
				"z": 1.2029656796,
				"element": "H" 
			},
			{
				"x": 4.1121500627,
				"y": 0.1054663304,
				"z": -0.4268824845,
				"element": "H" 
			},
			{
				"x": 5.2241478231,
				"y": 1.2968415022,
				"z": 0.2686668813,
				"element": "H" 
			},
			{
				"x": 6.0405848656,
				"y": 1.8976441962,
				"z": -1.9818811558,
				"element": "H" 
			},
			{
				"x": 6.2311343365,
				"y": 0.1551939099,
				"z": -1.6886212853,
				"element": "H" 
			},
			{
				"x": 3.0516749824,
				"y": 1.098162841,
				"z": -4.0091945302,
				"element": "H" 
			},
			{
				"x": 2.7953592317,
				"y": 0.1551288603,
				"z": -2.533009638,
				"element": "H" 
			},
			{
				"x": 2.045971218,
				"y": 2.4469173723,
				"z": -2.1589328356,
				"element": "H" 
			},
			{
				"x": 3.5946338501,
				"y": 3.1070491351,
				"z": -2.7147570492,
				"element": "H" 
			},
			{
				"x": -4.3787693157,
				"y": -1.4017878934,
				"z": 0.0585650303,
				"element": "H" 
			},
			{
				"x": -3.7854737903,
				"y": -1.9126006912,
				"z": -1.5125004241,
				"element": "H" 
			},
			{
				"x": -4.4678574176,
				"y": -3.8205313287,
				"z": 0.0717620696,
				"element": "H" 
			},
			{
				"x": -2.8567902961,
				"y": -3.9684242633,
				"z": -0.6246747234,
				"element": "H" 
			},
			{
				"x": -2.8623642517,
				"y": -4.4669742467,
				"z": 1.85063103,
				"element": "H" 
			},
			{
				"x": -3.4492543641,
				"y": -2.8376337134,
				"z": 2.1621488576,
				"element": "H" 
			},
			{
				"x": -1.0301832267,
				"y": -2.761786496,
				"z": 2.4908531858,
				"element": "H" 
			},
			{
				"x": -0.7246059034,
				"y": -3.6636575501,
				"z": 1.0317388597,
				"element": "H" 
			}
		],
		 "valence_orbital": [ 
			{
				"type": "occ",
				"energy": -0.26196,
				"method": "rhf"
			},
			{
				"type": "occ",
				"energy": -0.25186,
				"method": "rhf"
			},
			{
				"type": "occ",
				"energy": -0.24822,
				"method": "rhf"
			},
			{
				"type": "occ",
				"energy": -0.21954,
				"method": "rhf"
			},
			{
				"type": "occ",
				"energy": -0.20874,
				"method": "rhf"
			},
			{
				"type": "unocc",
				"energy": -0.04453,
				"method": "rhf"
			},
			{
				"type": "unocc",
				"energy": -0.00767,
				"method": "rhf"
			},
			{
				"type": "unocc",
				"energy": 0.02037,
				"method": "rhf"
			},
			{
				"type": "unocc",
				"energy": 0.02823,
				"method": "rhf"
			},
			{
				"type": "unocc",
				"energy": 0.06344,
				"method": "rhf"
			}
		],
		"cosmo_sigma_profile": { 
			"-0.025": 0.0,
			"-0.024": 0.0,
			"-0.023": 0.0,
			"-0.022": 0.0,
			"-0.021": 0.0,
			"-0.02": 0.0,
			"-0.019": 0.0,
			"-0.018": 0.0,
			"-0.017": 0.0,
			"-0.016": 0.15105450852,
			"-0.015": 0.941288395961,
			"-0.014": 1.24904323575,
			"-0.013": 1.53666118667,
			"-0.012": 1.36362681399,
			"-0.011": 1.22473877156,
			"-0.01": 1.04731231975,
			"-0.009": 1.55440201319,
			"-0.008": 1.64510113307,
			"-0.007": 2.32268743087,
			"-0.006": 3.6963843504,
			"-0.005": 12.1265292168,
			"-0.004": 25.6225113346,
			"-0.003": 46.2542922122,
			"-0.002": 47.9883950527,
			"-0.001": 36.8504388269,
			"0.0": 27.8636745408,
			"0.001": 21.0549489796,
			"0.002": 20.7655940861,
			"0.003": 16.0972741766,
			"0.004": 11.4456437155,
			"0.005": 7.25301204401,
			"0.006": 4.39016903074,
			"0.007": 4.14491260471,
			"0.008": 4.12921613093,
			"0.009": 3.84484413605,
			"0.01": 3.71927234976,
			"0.011": 3.5779624971,
			"0.012": 5.43603794798,
			"0.013": 7.14929057119,
			"0.014": 3.08899147209,
			"0.015": 0.0,
			"0.016": 0.0,
			"0.017": 0.0,
			"0.018": 0.0,
			"0.019": 0.0,
			"0.02": 0.0,
			"0.021": 0.0,
			"0.022": 0.0,
			"0.023": 0.0,
			"0.024": 0.0,
			"0.025": 0.0
		}
	}
}
