{
	 "smiles": "ClC1=NN=C(N1C1CC1)C1=CC=CC=C1", 
	 "Tm": 433.15, 
	 "num_atms": 25, 
	 "gaussian": { 
		 "optdone": 1, 
		 "sigma_profile": "yes", 
		 "theory": "DFT", 
		 "functional": "B3LYP", 
		 "basiset": "6-31G**", 
		 "properties": { 
			 "R2extent": 5023.8063, 
			 "electric_dipole_moment_norm": 6.01209117113, 
			 "electric_quadrupole_moment_norm": 21.2556765865, 
			 "total_energy": -1049.58424207, 
			 "HOMO_LUMO_gap": 0.19591, 
			 "cosmo_polarized_energy": -14.67, 
			 "cosmo_cavitation_energy": 30.32, 
			 "cosmo_dispersion_energy": -21.84, 
			 "cosmo_repulsion_energy": 1.7, 
			 "cosmo_total_nonelectrostatic_energy": 10.18, 
			 "SMD_solvation_energy": 2.34 
		},
		"coords": [
			{
				"x": -0.5350792895,
				"y": -4.7237044351,
				"z": 1.3261030738,
				"element": "Cl" 
			},
			{
				"x": -1.353301963,
				"y": -3.2145951372,
				"z": 1.4588880183,
				"element": "C" 
			},
			{
				"x": -2.4655707592,
				"y": -3.0261046387,
				"z": 2.1116443381,
				"element": "N" 
			},
			{
				"x": -2.7545684994,
				"y": -1.6838969432,
				"z": 2.0044732008,
				"element": "N" 
			},
			{
				"x": -1.8055421473,
				"y": -1.1049276974,
				"z": 1.2937276638,
				"element": "C" 
			},
			{
				"x": -0.8731039059,
				"y": -2.0532883573,
				"z": 0.8958600971,
				"element": "N" 
			},
			{
				"x": 0.2880702627,
				"y": -1.9179714617,
				"z": 0.0503958674,
				"element": "C" 
			},
			{
				"x": 0.1508281094,
				"y": -1.2370770308,
				"z": -1.2884741026,
				"element": "C" 
			},
			{
				"x": 0.3648943619,
				"y": -2.7230073186,
				"z": -1.2248050554,
				"element": "C" 
			},
			{
				"x": -1.782426535,
				"y": 0.3361043187,
				"z": 1.0034649249,
				"element": "C" 
			},
			{
				"x": -0.5936796474,
				"y": 1.0773599079,
				"z": 0.9100373873,
				"element": "C" 
			},
			{
				"x": -0.6370926963,
				"y": 2.4518774009,
				"z": 0.678055124,
				"element": "C" 
			},
			{
				"x": -1.8634494505,
				"y": 3.1048140017,
				"z": 0.5448990564,
				"element": "C" 
			},
			{
				"x": -3.0508742142,
				"y": 2.3762715412,
				"z": 0.652581019,
				"element": "C" 
			},
			{
				"x": -3.0136604865,
				"y": 1.0032038929,
				"z": 0.8801953081,
				"element": "C" 
			},
			{
				"x": 1.212591975,
				"y": -1.7697419052,
				"z": 0.6025830706,
				"element": "H" 
			},
			{
				"x": 0.9669565866,
				"y": -0.5949934723,
				"z": -1.6031182204,
				"element": "H" 
			},
			{
				"x": -0.8343305634,
				"y": -0.8794270041,
				"z": -1.5662489271,
				"element": "H" 
			},
			{
				"x": 1.3331669738,
				"y": -3.1334819866,
				"z": -1.4914802407,
				"element": "H" 
			},
			{
				"x": -0.4773595643,
				"y": -3.3639549918,
				"z": -1.4614328696,
				"element": "H" 
			},
			{
				"x": 0.3652670722,
				"y": 0.5879171134,
				"z": 1.0392170256,
				"element": "H" 
			},
			{
				"x": 0.289791112,
				"y": 3.0141993122,
				"z": 0.6120435429,
				"element": "H" 
			},
			{
				"x": -1.8940604377,
				"y": 4.1752854422,
				"z": 0.3640709969,
				"element": "H" 
			},
			{
				"x": -4.0089178844,
				"y": 2.8786449789,
				"z": 0.5564066033,
				"element": "H" 
			},
			{
				"x": -3.9287484097,
				"y": 0.42859447,
				"z": 0.9726130974,
				"element": "H" 
			}
		],
		 "valence_orbital": [ 
			{
				"type": "occ",
				"energy": -0.29241,
				"method": "rhf"
			},
			{
				"type": "occ",
				"energy": -0.28342,
				"method": "rhf"
			},
			{
				"type": "occ",
				"energy": -0.26143,
				"method": "rhf"
			},
			{
				"type": "occ",
				"energy": -0.25598,
				"method": "rhf"
			},
			{
				"type": "occ",
				"energy": -0.23319,
				"method": "rhf"
			},
			{
				"type": "unocc",
				"energy": -0.03728,
				"method": "rhf"
			},
			{
				"type": "unocc",
				"energy": -0.01144,
				"method": "rhf"
			},
			{
				"type": "unocc",
				"energy": 0.0212,
				"method": "rhf"
			},
			{
				"type": "unocc",
				"energy": 0.0279,
				"method": "rhf"
			},
			{
				"type": "unocc",
				"energy": 0.05326,
				"method": "rhf"
			}
		],
		"cosmo_sigma_profile": { 
			"-0.025": 0.0,
			"-0.024": 0.0,
			"-0.023": 0.0,
			"-0.022": 0.0,
			"-0.021": 0.0,
			"-0.02": 0.0,
			"-0.019": 0.0,
			"-0.018": 0.0,
			"-0.017": 0.0,
			"-0.016": 0.0,
			"-0.015": 0.0,
			"-0.014": 0.0,
			"-0.013": 0.0,
			"-0.012": 0.0,
			"-0.011": 0.0,
			"-0.01": 0.0,
			"-0.009": 0.0,
			"-0.008": 2.04749999507,
			"-0.007": 7.20176086504,
			"-0.006": 20.5305920622,
			"-0.005": 22.2412221365,
			"-0.004": 20.7291053123,
			"-0.003": 17.7090338784,
			"-0.002": 18.7116952927,
			"-0.001": 16.1100100789,
			"0.0": 16.3858565393,
			"0.001": 16.5660065113,
			"0.002": 20.6911248278,
			"0.003": 17.9304764208,
			"0.004": 14.4288722331,
			"0.005": 7.71470696594,
			"0.006": 2.5213858193,
			"0.007": 1.84691305194,
			"0.008": 2.25974302974,
			"0.009": 2.21649182122,
			"0.01": 2.48684524343,
			"0.011": 2.8031659985,
			"0.012": 2.92752812993,
			"0.013": 3.22785542892,
			"0.014": 2.66678061929,
			"0.015": 2.20568272107,
			"0.016": 0.880413074367,
			"0.017": 0.0,
			"0.018": 0.0,
			"0.019": 0.0,
			"0.02": 0.0,
			"0.021": 0.0,
			"0.022": 0.0,
			"0.023": 0.0,
			"0.024": 0.0,
			"0.025": 0.0
		}
	}
}
