{
	 "smiles": "ClC1=CC=CC2=C1C(=O)C1=C(C=CC=C1Cl)C2=O", 
	 "Tm": 475.15, 
	 "num_atms": 24, 
	 "gaussian": { 
		 "optdone": 1, 
		 "sigma_profile": "yes", 
		 "theory": "DFT", 
		 "functional": "B3LYP", 
		 "basiset": "6-31G**", 
		 "properties": { 
			 "R2extent": 6662.9213, 
			 "electric_dipole_moment_norm": 2.74202892034, 
			 "electric_quadrupole_moment_norm": 24.6600596891, 
			 "total_energy": -1607.93458544, 
			 "HOMO_LUMO_gap": 0.14383, 
			 "cosmo_polarized_energy": -11.86, 
			 "cosmo_cavitation_energy": 32.09, 
			 "cosmo_dispersion_energy": -24.02, 
			 "cosmo_repulsion_energy": 1.79, 
			 "cosmo_total_nonelectrostatic_energy": 9.86, 
			 "SMD_solvation_energy": 5.42 
		},
		"coords": [
			{
				"x": 1.0569170018,
				"y": 3.3301324222,
				"z": -2.0031361542,
				"element": "Cl" 
			},
			{
				"x": 0.6558318116,
				"y": 2.3098976869,
				"z": -0.6397941013,
				"element": "C" 
			},
			{
				"x": -0.0984371362,
				"y": 2.9113586241,
				"z": 0.3716755909,
				"element": "C" 
			},
			{
				"x": -0.491944253,
				"y": 2.1811147287,
				"z": 1.4912692261,
				"element": "C" 
			},
			{
				"x": -0.1547999656,
				"y": 0.8364108292,
				"z": 1.5932956944,
				"element": "C" 
			},
			{
				"x": 0.5802392239,
				"y": 0.2254295563,
				"z": 0.5743978524,
				"element": "C" 
			},
			{
				"x": 1.0191975831,
				"y": 0.950109254,
				"z": -0.5569943737,
				"element": "C" 
			},
			{
				"x": 1.9033999752,
				"y": 0.2756315215,
				"z": -1.5671667753,
				"element": "C" 
			},
			{
				"x": 2.6238779827,
				"y": 0.9221852153,
				"z": -2.3075657617,
				"element": "O" 
			},
			{
				"x": 1.908632906,
				"y": -1.2265437497,
				"z": -1.5922414467,
				"element": "C" 
			},
			{
				"x": 1.4653724619,
				"y": -1.940874937,
				"z": -0.4559615378,
				"element": "C" 
			},
			{
				"x": 1.549179549,
				"y": -3.3338519749,
				"z": -0.390168916,
				"element": "C" 
			},
			{
				"x": 2.0532587783,
				"y": -4.0476646801,
				"z": -1.4712237739,
				"element": "C" 
			},
			{
				"x": 2.4685453069,
				"y": -3.3704735439,
				"z": -2.6160131324,
				"element": "C" 
			},
			{
				"x": 2.4070220153,
				"y": -1.9754389621,
				"z": -2.6779209439,
				"element": "C" 
			},
			{
				"x": 2.9302803662,
				"y": -1.2536960567,
				"z": -4.183149605,
				"element": "Cl" 
			},
			{
				"x": 0.868514997,
				"y": -1.2310119051,
				"z": 0.7114952623,
				"element": "C" 
			},
			{
				"x": 0.5743073858,
				"y": -1.8380436202,
				"z": 1.7350104373,
				"element": "O" 
			},
			{
				"x": -0.3702304688,
				"y": 3.9560343466,
				"z": 0.269194928,
				"element": "H" 
			},
			{
				"x": -1.0678991933,
				"y": 2.6655346983,
				"z": 2.2736794434,
				"element": "H" 
			},
			{
				"x": -0.4519106295,
				"y": 0.2330884415,
				"z": 2.4434849646,
				"element": "H" 
			},
			{
				"x": 1.2065415364,
				"y": -3.8258427255,
				"z": 0.5129567406,
				"element": "H" 
			},
			{
				"x": 2.1178088686,
				"y": -5.1307273969,
				"z": -1.4343333639,
				"element": "H" 
			},
			{
				"x": 2.8461938967,
				"y": -3.9149577722,
				"z": -3.4742902543,
				"element": "H" 
			}
		],
		 "valence_orbital": [ 
			{
				"type": "occ",
				"energy": -0.2819,
				"method": "rhf"
			},
			{
				"type": "occ",
				"energy": -0.27593,
				"method": "rhf"
			},
			{
				"type": "occ",
				"energy": -0.26262,
				"method": "rhf"
			},
			{
				"type": "occ",
				"energy": -0.2624,
				"method": "rhf"
			},
			{
				"type": "occ",
				"energy": -0.25405,
				"method": "rhf"
			},
			{
				"type": "unocc",
				"energy": -0.11022,
				"method": "rhf"
			},
			{
				"type": "unocc",
				"energy": -0.07006,
				"method": "rhf"
			},
			{
				"type": "unocc",
				"energy": -0.03636,
				"method": "rhf"
			},
			{
				"type": "unocc",
				"energy": -0.02673,
				"method": "rhf"
			},
			{
				"type": "unocc",
				"energy": 0.02055,
				"method": "rhf"
			}
		],
		"cosmo_sigma_profile": { 
			"-0.025": 0.0,
			"-0.024": 0.0,
			"-0.023": 0.0,
			"-0.022": 0.0,
			"-0.021": 0.0,
			"-0.02": 0.0,
			"-0.019": 0.0,
			"-0.018": 0.0,
			"-0.017": 0.0,
			"-0.016": 0.0,
			"-0.015": 0.0,
			"-0.014": 0.0,
			"-0.013": 0.0,
			"-0.012": 0.0,
			"-0.011": 0.0,
			"-0.01": 0.0,
			"-0.009": 0.749792543358,
			"-0.008": 8.310099243,
			"-0.007": 12.2451715261,
			"-0.006": 13.1423200758,
			"-0.005": 13.3661686871,
			"-0.004": 12.4545252638,
			"-0.003": 15.0637280321,
			"-0.002": 17.5436897297,
			"-0.001": 26.3466346819,
			"0.0": 37.7437689858,
			"0.001": 27.8065421987,
			"0.002": 13.2825841039,
			"0.003": 14.3206846947,
			"0.004": 15.2771148748,
			"0.005": 6.40976009545,
			"0.006": 3.84201312255,
			"0.007": 4.24538897224,
			"0.008": 3.42045207128,
			"0.009": 5.106725273,
			"0.01": 6.53199287091,
			"0.011": 6.71315822726,
			"0.012": 0.69741371146,
			"0.013": 0.0,
			"0.014": 0.0,
			"0.015": 0.0,
			"0.016": 0.0,
			"0.017": 0.0,
			"0.018": 0.0,
			"0.019": 0.0,
			"0.02": 0.0,
			"0.021": 0.0,
			"0.022": 0.0,
			"0.023": 0.0,
			"0.024": 0.0,
			"0.025": 0.0
		}
	}
}
