{
	 "smiles": "CN(C)S(F)(F)F", 
	 "Tm": 194.45, 
	 "num_atms": 13, 
	 "gaussian": { 
		 "optdone": 1, 
		 "sigma_profile": "yes", 
		 "theory": "DFT", 
		 "functional": "B3LYP", 
		 "basiset": "6-31G**", 
		 "properties": { 
			 "R2extent": 1324.3564, 
			 "electric_dipole_moment_norm": 3.16147152763, 
			 "electric_quadrupole_moment_norm": 4.92548946197, 
			 "total_energy": -832.201621698, 
			 "HOMO_LUMO_gap": 0.24608, 
			 "cosmo_polarized_energy": -5.82, 
			 "cosmo_cavitation_energy": 17.93, 
			 "cosmo_dispersion_energy": -13.95, 
			 "cosmo_repulsion_energy": 1.05, 
			 "cosmo_total_nonelectrostatic_energy": 5.03, 
			 "SMD_solvation_energy": 3.53 
		},
		"coords": [
			{
				"x": 1.1269844267,
				"y": 0.0216180218,
				"z": -0.8048467201,
				"element": "C" 
			},
			{
				"x": -0.285302631,
				"y": -0.195130642,
				"z": -0.4338458134,
				"element": "N" 
			},
			{
				"x": -0.5801454378,
				"y": -1.5864088585,
				"z": -0.038365473,
				"element": "C" 
			},
			{
				"x": -1.4834364298,
				"y": 0.7534327481,
				"z": -1.1139155557,
				"element": "S" 
			},
			{
				"x": -2.6804919408,
				"y": -0.397370075,
				"z": -0.6760574811,
				"element": "F" 
			},
			{
				"x": -1.6675578445,
				"y": 0.2223690021,
				"z": -2.6560656087,
				"element": "F" 
			},
			{
				"x": -0.3076298012,
				"y": 1.8423446494,
				"z": -1.7305028798,
				"element": "F" 
			},
			{
				"x": 1.3849580429,
				"y": 1.0743476803,
				"z": -0.7548018404,
				"element": "H" 
			},
			{
				"x": 1.7289505096,
				"y": -0.530971814,
				"z": -0.0814768022,
				"element": "H" 
			},
			{
				"x": 1.3469463438,
				"y": -0.3533800065,
				"z": -1.8111045932,
				"element": "H" 
			},
			{
				"x": -1.5004467343,
				"y": -1.641252124,
				"z": 0.53369786,
				"element": "H" 
			},
			{
				"x": -0.6588422271,
				"y": -2.2499795015,
				"z": -0.9073323559,
				"element": "H" 
			},
			{
				"x": 0.2516137235,
				"y": -1.9173190801,
				"z": 0.5859172636,
				"element": "H" 
			}
		],
		 "valence_orbital": [ 
			{
				"type": "occ",
				"energy": -0.37348,
				"method": "rhf"
			},
			{
				"type": "occ",
				"energy": -0.37035,
				"method": "rhf"
			},
			{
				"type": "occ",
				"energy": -0.35708,
				"method": "rhf"
			},
			{
				"type": "occ",
				"energy": -0.30645,
				"method": "rhf"
			},
			{
				"type": "occ",
				"energy": -0.27059,
				"method": "rhf"
			},
			{
				"type": "unocc",
				"energy": -0.02451,
				"method": "rhf"
			},
			{
				"type": "unocc",
				"energy": 0.04044,
				"method": "rhf"
			},
			{
				"type": "unocc",
				"energy": 0.04825,
				"method": "rhf"
			},
			{
				"type": "unocc",
				"energy": 0.08638,
				"method": "rhf"
			},
			{
				"type": "unocc",
				"energy": 0.12246,
				"method": "rhf"
			}
		],
		"cosmo_sigma_profile": { 
			"-0.025": 0.0,
			"-0.024": 0.0,
			"-0.023": 0.0,
			"-0.022": 0.0,
			"-0.021": 0.0,
			"-0.02": 0.0,
			"-0.019": 0.0,
			"-0.018": 0.0,
			"-0.017": 0.0,
			"-0.016": 0.0,
			"-0.015": 0.0,
			"-0.014": 0.0,
			"-0.013": 0.0,
			"-0.012": 0.0,
			"-0.011": 0.0,
			"-0.01": 0.0,
			"-0.009": 0.0537114677928,
			"-0.008": 1.22968241036,
			"-0.007": 2.58528216907,
			"-0.006": 4.26305045198,
			"-0.005": 11.1211612146,
			"-0.004": 15.4925196217,
			"-0.003": 19.7565828991,
			"-0.002": 15.9309416219,
			"-0.001": 7.96757915431,
			"0.0": 5.45700709723,
			"0.001": 5.46574320226,
			"0.002": 5.94302244914,
			"0.003": 6.55253036593,
			"0.004": 10.7770683653,
			"0.005": 7.19621374872,
			"0.006": 8.15837179576,
			"0.007": 12.7901902902,
			"0.008": 1.96983197358,
			"0.009": 0.0,
			"0.01": 0.0,
			"0.011": 0.0,
			"0.012": 0.0,
			"0.013": 0.0,
			"0.014": 0.0,
			"0.015": 0.0,
			"0.016": 0.0,
			"0.017": 0.0,
			"0.018": 0.0,
			"0.019": 0.0,
			"0.02": 0.0,
			"0.021": 0.0,
			"0.022": 0.0,
			"0.023": 0.0,
			"0.024": 0.0,
			"0.025": 0.0
		}
	}
}
