{
	 "smiles": "C1CCC2=C(C1)NC1=CC=CC=C21", 
	 "Tm": 392.15, 
	 "num_atms": 26, 
	 "gaussian": { 
		 "optdone": 1, 
		 "sigma_profile": "yes", 
		 "theory": "DFT", 
		 "functional": "B3LYP", 
		 "basiset": "6-31G**", 
		 "properties": { 
			 "R2extent": 3668.8612, 
			 "electric_dipole_moment_norm": 2.39819653281, 
			 "electric_quadrupole_moment_norm": 10.5575964116, 
			 "total_energy": -519.888408816, 
			 "HOMO_LUMO_gap": 0.18913, 
			 "cosmo_polarized_energy": -7.74, 
			 "cosmo_cavitation_energy": 27.44, 
			 "cosmo_dispersion_energy": -20.82, 
			 "cosmo_repulsion_energy": 1.64, 
			 "cosmo_total_nonelectrostatic_energy": 8.26, 
			 "SMD_solvation_energy": 3.33 
		},
		"coords": [
			{
				"x": 0.9924162322,
				"y": -0.3932119382,
				"z": 1.8758173596,
				"element": "C" 
			},
			{
				"x": 0.702873636,
				"y": -1.0894218526,
				"z": 0.5348077305,
				"element": "C" 
			},
			{
				"x": 0.3532841165,
				"y": -0.0773284026,
				"z": -0.5748433328,
				"element": "C" 
			},
			{
				"x": -0.6203345831,
				"y": 0.9471996639,
				"z": -0.0634833959,
				"element": "C" 
			},
			{
				"x": -0.8661891063,
				"y": 1.1349737172,
				"z": 1.2743569798,
				"element": "C" 
			},
			{
				"x": -0.2401352574,
				"y": 0.372101563,
				"z": 2.3999045511,
				"element": "C" 
			},
			{
				"x": -1.8059461316,
				"y": 2.1417162466,
				"z": 1.4366452962,
				"element": "N" 
			},
			{
				"x": -2.1776145938,
				"y": 2.6227948087,
				"z": 0.1949823473,
				"element": "C" 
			},
			{
				"x": -3.0836924568,
				"y": 3.6274101999,
				"z": -0.1548810405,
				"element": "C" 
			},
			{
				"x": -3.2546914817,
				"y": 3.8984440792,
				"z": -1.5095100111,
				"element": "C" 
			},
			{
				"x": -2.539464591,
				"y": 3.1846821167,
				"z": -2.4915042293,
				"element": "C" 
			},
			{
				"x": -1.638026434,
				"y": 2.1862224677,
				"z": -2.138973455,
				"element": "C" 
			},
			{
				"x": -1.4427272832,
				"y": 1.888238868,
				"z": -0.7798619416,
				"element": "C" 
			},
			{
				"x": 1.3165384034,
				"y": -1.1253191606,
				"z": 2.6237620046,
				"element": "H" 
			},
			{
				"x": 1.8221817074,
				"y": 0.3130444971,
				"z": 1.7425353483,
				"element": "H" 
			},
			{
				"x": 1.5658367638,
				"y": -1.6935661881,
				"z": 0.232600253,
				"element": "H" 
			},
			{
				"x": -0.1377191033,
				"y": -1.7837012558,
				"z": 0.6675878106,
				"element": "H" 
			},
			{
				"x": 1.2729530155,
				"y": 0.4114788828,
				"z": -0.9308979578,
				"element": "H" 
			},
			{
				"x": -0.0594235883,
				"y": -0.6058760048,
				"z": -1.4440004547,
				"element": "H" 
			},
			{
				"x": -0.9647748598,
				"y": -0.3364660585,
				"z": 2.8295843201,
				"element": "H" 
			},
			{
				"x": 0.0499203555,
				"y": 1.0452313761,
				"z": 3.218266797,
				"element": "H" 
			},
			{
				"x": -2.1586424194,
				"y": 2.4712982757,
				"z": 2.3203290886,
				"element": "H" 
			},
			{
				"x": -3.6362095171,
				"y": 4.1784309899,
				"z": 0.6016144259,
				"element": "H" 
			},
			{
				"x": -3.9522136871,
				"y": 4.6733913201,
				"z": -1.8140004687,
				"element": "H" 
			},
			{
				"x": -2.6970304813,
				"y": 3.4215317612,
				"z": -3.5398820738,
				"element": "H" 
			},
			{
				"x": -1.0911686551,
				"y": 1.6432000273,
				"z": -2.9052559511,
				"element": "H" 
			}
		],
		 "valence_orbital": [ 
			{
				"type": "occ",
				"energy": -0.31518,
				"method": "rhf"
			},
			{
				"type": "occ",
				"energy": -0.31072,
				"method": "rhf"
			},
			{
				"type": "occ",
				"energy": -0.25858,
				"method": "rhf"
			},
			{
				"type": "occ",
				"energy": -0.20821,
				"method": "rhf"
			},
			{
				"type": "occ",
				"energy": -0.18745,
				"method": "rhf"
			},
			{
				"type": "unocc",
				"energy": 0.00168,
				"method": "rhf"
			},
			{
				"type": "unocc",
				"energy": 0.03623,
				"method": "rhf"
			},
			{
				"type": "unocc",
				"energy": 0.07456,
				"method": "rhf"
			},
			{
				"type": "unocc",
				"energy": 0.08751,
				"method": "rhf"
			},
			{
				"type": "unocc",
				"energy": 0.09532,
				"method": "rhf"
			}
		],
		"cosmo_sigma_profile": { 
			"-0.025": 0.0,
			"-0.024": 0.0,
			"-0.023": 0.0,
			"-0.022": 0.0,
			"-0.021": 0.0,
			"-0.02": 0.0,
			"-0.019": 0.0,
			"-0.018": 0.0,
			"-0.017": 0.0,
			"-0.016": 0.0,
			"-0.015": 0.630782078247,
			"-0.014": 1.4003625434,
			"-0.013": 1.09686996647,
			"-0.012": 1.42928964388,
			"-0.011": 0.671188613159,
			"-0.01": 1.18444657198,
			"-0.009": 1.71393557093,
			"-0.008": 1.21050629344,
			"-0.007": 1.23495564147,
			"-0.006": 3.03012940824,
			"-0.005": 5.3994931822,
			"-0.004": 11.7781906164,
			"-0.003": 17.5376618301,
			"-0.002": 29.0466364561,
			"-0.001": 30.4650783856,
			"0.0": 26.6279180926,
			"0.001": 16.3721942896,
			"0.002": 8.39748331984,
			"0.003": 7.53306074518,
			"0.004": 8.62170415805,
			"0.005": 11.3021017675,
			"0.006": 12.4586551762,
			"0.007": 11.3376974077,
			"0.008": 5.37076061745,
			"0.009": 0.261868207283,
			"0.01": 0.0,
			"0.011": 0.0,
			"0.012": 0.0,
			"0.013": 0.0,
			"0.014": 0.0,
			"0.015": 0.0,
			"0.016": 0.0,
			"0.017": 0.0,
			"0.018": 0.0,
			"0.019": 0.0,
			"0.02": 0.0,
			"0.021": 0.0,
			"0.022": 0.0,
			"0.023": 0.0,
			"0.024": 0.0,
			"0.025": 0.0
		}
	}
}
