{
	 "smiles": "NC1=CC=CC2=NSN=C12", 
	 "Tm": 341.15, 
	 "num_atms": 15, 
	 "gaussian": { 
		 "optdone": 1, 
		 "sigma_profile": "yes", 
		 "theory": "DFT", 
		 "functional": "B3LYP", 
		 "basiset": "6-31G**", 
		 "properties": { 
			 "R2extent": 2501.0132, 
			 "electric_dipole_moment_norm": 2.85889906607, 
			 "electric_quadrupole_moment_norm": 6.66680498665, 
			 "total_energy": -794.075032847, 
			 "HOMO_LUMO_gap": 0.12634, 
			 "cosmo_polarized_energy": -8.58, 
			 "cosmo_cavitation_energy": 20.73, 
			 "cosmo_dispersion_energy": -16.64, 
			 "cosmo_repulsion_energy": 1.28, 
			 "cosmo_total_nonelectrostatic_energy": 5.37, 
			 "SMD_solvation_energy": 0.39 
		},
		"coords": [
			{
				"x": -0.5461389921,
				"y": -2.3807199626,
				"z": 1.4710307989,
				"element": "N" 
			},
			{
				"x": -0.4798291801,
				"y": -1.074672374,
				"z": 1.0381007003,
				"element": "C" 
			},
			{
				"x": -0.2567961648,
				"y": -0.68368713,
				"z": -0.2691198261,
				"element": "C" 
			},
			{
				"x": -0.2611072901,
				"y": 0.6901399817,
				"z": -0.6532420196,
				"element": "C" 
			},
			{
				"x": -0.4787094892,
				"y": 1.7197542572,
				"z": 0.2292539563,
				"element": "C" 
			},
			{
				"x": -0.7030828078,
				"y": 1.3696316471,
				"z": 1.590863894,
				"element": "C" 
			},
			{
				"x": -0.9199504426,
				"y": 2.207857025,
				"z": 2.6141223664,
				"element": "N" 
			},
			{
				"x": -1.0988261894,
				"y": 1.2789206841,
				"z": 3.9597662163,
				"element": "S" 
			},
			{
				"x": -0.9098902501,
				"y": -0.2187332267,
				"z": 3.2993019148,
				"element": "N" 
			},
			{
				"x": -0.7024358106,
				"y": -0.0231110347,
				"z": 1.9954871464,
				"element": "C" 
			},
			{
				"x": -0.0959594531,
				"y": -3.0828690624,
				"z": 0.9039157488,
				"element": "H" 
			},
			{
				"x": -0.4671248948,
				"y": -2.5167021587,
				"z": 2.4687049705,
				"element": "H" 
			},
			{
				"x": -0.0813310187,
				"y": -1.4408475434,
				"z": -1.0283890755,
				"element": "H" 
			},
			{
				"x": -0.0810605842,
				"y": 0.9190341821,
				"z": -1.7000303323,
				"element": "H" 
			},
			{
				"x": -0.4795574323,
				"y": 2.7595047152,
				"z": -0.0742664593,
				"element": "H" 
			}
		],
		 "valence_orbital": [ 
			{
				"type": "occ",
				"energy": -0.32107,
				"method": "rhf"
			},
			{
				"type": "occ",
				"energy": -0.29686,
				"method": "rhf"
			},
			{
				"type": "occ",
				"energy": -0.29224,
				"method": "rhf"
			},
			{
				"type": "occ",
				"energy": -0.25851,
				"method": "rhf"
			},
			{
				"type": "occ",
				"energy": -0.20199,
				"method": "rhf"
			},
			{
				"type": "unocc",
				"energy": -0.07565,
				"method": "rhf"
			},
			{
				"type": "unocc",
				"energy": 0.01398,
				"method": "rhf"
			},
			{
				"type": "unocc",
				"energy": 0.01649,
				"method": "rhf"
			},
			{
				"type": "unocc",
				"energy": 0.0282,
				"method": "rhf"
			},
			{
				"type": "unocc",
				"energy": 0.06853,
				"method": "rhf"
			}
		],
		"cosmo_sigma_profile": { 
			"-0.025": 0.0,
			"-0.024": 0.0,
			"-0.023": 0.0,
			"-0.022": 0.0,
			"-0.021": 0.0,
			"-0.02": 0.0,
			"-0.019": 0.0,
			"-0.018": 0.0,
			"-0.017": 0.0,
			"-0.016": 0.0,
			"-0.015": 0.0,
			"-0.014": 0.318258624735,
			"-0.013": 1.5216513999,
			"-0.012": 1.81457820825,
			"-0.011": 2.65219168178,
			"-0.01": 2.36110934052,
			"-0.009": 2.16510103088,
			"-0.008": 2.21948873682,
			"-0.007": 3.0029152946,
			"-0.006": 6.78939709431,
			"-0.005": 7.18730131698,
			"-0.004": 8.91829285143,
			"-0.003": 11.2601155244,
			"-0.002": 12.0521327188,
			"-0.001": 15.965077927,
			"0.0": 16.1250971216,
			"0.001": 11.3385790605,
			"0.002": 9.94867569698,
			"0.003": 11.2065045357,
			"0.004": 13.2544758512,
			"0.005": 9.33691131284,
			"0.006": 2.57215199834,
			"0.007": 3.76005653156,
			"0.008": 3.37293171634,
			"0.009": 2.25974449974,
			"0.01": 3.38117010763,
			"0.011": 1.54573079175,
			"0.012": 1.25849268317,
			"0.013": 1.21808602536,
			"0.014": 0.38630283686,
			"0.015": 0.0,
			"0.016": 0.0,
			"0.017": 0.0,
			"0.018": 0.0,
			"0.019": 0.0,
			"0.02": 0.0,
			"0.021": 0.0,
			"0.022": 0.0,
			"0.023": 0.0,
			"0.024": 0.0,
			"0.025": 0.0
		}
	}
}
