{
	 "smiles": "CN(C)C1=CC=C(C=C2/C(=O)NN=C2C2=C(O)C3=CC=CC=C3N(C)C2=O)C=C1", 
	 "Tm": 535.15, 
	 "num_atms": 49, 
	 "gaussian": { 
		 "optdone": 1, 
		 "sigma_profile": "yes", 
		 "theory": "DFT", 
		 "functional": "B3LYP", 
		 "basiset": "6-31G**", 
		 "properties": { 
			 "R2extent": 17575.1773, 
			 "electric_dipole_moment_norm": 5.38599563776, 
			 "electric_quadrupole_moment_norm": 32.6015250795, 
			 "total_energy": -1295.08161428, 
			 "HOMO_LUMO_gap": 0.11737, 
			 "cosmo_polarized_energy": -21.69, 
			 "cosmo_cavitation_energy": 51.12, 
			 "cosmo_dispersion_energy": -37.5, 
			 "cosmo_repulsion_energy": 2.71, 
			 "cosmo_total_nonelectrostatic_energy": 16.34, 
			 "SMD_solvation_energy": 8.88 
		},
		"coords": [
			{
				"x": 3.0394603381,
				"y": -4.4039536388,
				"z": 3.3577341948,
				"element": "C" 
			},
			{
				"x": 1.8191132871,
				"y": -3.8441073075,
				"z": 3.9182789416,
				"element": "N" 
			},
			{
				"x": 1.3551845371,
				"y": -4.3001833512,
				"z": 5.220503523,
				"element": "C" 
			},
			{
				"x": 1.0882128068,
				"y": -2.9248669708,
				"z": 3.2056498107,
				"element": "C" 
			},
			{
				"x": 1.510067047,
				"y": -2.4806785639,
				"z": 1.924598334,
				"element": "C" 
			},
			{
				"x": 0.764275528,
				"y": -1.5539504581,
				"z": 1.2244439345,
				"element": "C" 
			},
			{
				"x": -0.4400901232,
				"y": -1.0022488431,
				"z": 1.7323781587,
				"element": "C" 
			},
			{
				"x": -1.104458549,
				"y": -0.042107085,
				"z": 0.8934856837,
				"element": "C" 
			},
			{
				"x": -2.2471970131,
				"y": 0.7145763218,
				"z": 1.0138425302,
				"element": "C" 
			},
			{
				"x": -3.2187794448,
				"y": 0.777367573,
				"z": 2.1392879679,
				"element": "C" 
			},
			{
				"x": -3.3427320997,
				"y": 0.1303579968,
				"z": 3.179847816,
				"element": "O" 
			},
			{
				"x": -4.0604694222,
				"y": 1.8087731182,
				"z": 1.7774678838,
				"element": "N" 
			},
			{
				"x": -3.7811895669,
				"y": 2.3499342111,
				"z": 0.5514054827,
				"element": "N" 
			},
			{
				"x": -2.7206330287,
				"y": 1.7325190317,
				"z": 0.0609756186,
				"element": "C" 
			},
			{
				"x": -2.1744532931,
				"y": 2.2737831385,
				"z": -1.2029211099,
				"element": "C" 
			},
			{
				"x": -2.4529705846,
				"y": 3.5931358949,
				"z": -1.5531892318,
				"element": "C" 
			},
			{
				"x": -3.2571015532,
				"y": 4.3887930602,
				"z": -0.8510137489,
				"element": "O" 
			},
			{
				"x": -1.8538473757,
				"y": 4.1997532852,
				"z": -2.7209818832,
				"element": "C" 
			},
			{
				"x": -2.0618254872,
				"y": 5.5576471423,
				"z": -3.0257179829,
				"element": "C" 
			},
			{
				"x": -1.4724737718,
				"y": 6.1327872517,
				"z": -4.1399169795,
				"element": "C" 
			},
			{
				"x": -0.6677952077,
				"y": 5.3441635591,
				"z": -4.9738716334,
				"element": "C" 
			},
			{
				"x": -0.455462313,
				"y": 3.9995010404,
				"z": -4.6993827702,
				"element": "C" 
			},
			{
				"x": -1.0461526837,
				"y": 3.4040113613,
				"z": -3.5660759965,
				"element": "C" 
			},
			{
				"x": -0.8696757019,
				"y": 2.0604667912,
				"z": -3.2699232379,
				"element": "N" 
			},
			{
				"x": -0.1056995008,
				"y": 1.2133520222,
				"z": -4.1848596312,
				"element": "C" 
			},
			{
				"x": -1.4226167075,
				"y": 1.4345578802,
				"z": -2.1321108649,
				"element": "C" 
			},
			{
				"x": -1.2562071522,
				"y": 0.2192969714,
				"z": -1.9781731353,
				"element": "O" 
			},
			{
				"x": -0.8587073085,
				"y": -1.4560541684,
				"z": 3.0089301644,
				"element": "C" 
			},
			{
				"x": -0.1201151824,
				"y": -2.3830535876,
				"z": 3.7190516299,
				"element": "C" 
			},
			{
				"x": 2.8489656725,
				"y": -4.9469777739,
				"z": 2.4224529751,
				"element": "H" 
			},
			{
				"x": 3.4736456865,
				"y": -5.1044765866,
				"z": 4.0713359832,
				"element": "H" 
			},
			{
				"x": 3.7856221379,
				"y": -3.6255446571,
				"z": 3.1526318122,
				"element": "H" 
			},
			{
				"x": 2.0726881958,
				"y": -5.0135794022,
				"z": 5.6264823519,
				"element": "H" 
			},
			{
				"x": 0.3793783166,
				"y": -4.7991222809,
				"z": 5.1555218564,
				"element": "H" 
			},
			{
				"x": 1.2652293813,
				"y": -3.4694361089,
				"z": 5.9316170728,
				"element": "H" 
			},
			{
				"x": 2.4197806323,
				"y": -2.8658170236,
				"z": 1.4813020105,
				"element": "H" 
			},
			{
				"x": 1.1104415771,
				"y": -1.2370167597,
				"z": 0.2440884081,
				"element": "H" 
			},
			{
				"x": -0.596313051,
				"y": 0.1045440914,
				"z": -0.0523644429,
				"element": "H" 
			},
			{
				"x": -4.9025278965,
				"y": 2.0699952281,
				"z": 2.2652420652,
				"element": "H" 
			},
			{
				"x": -3.68964437,
				"y": 3.8159031959,
				"z": -0.1482669656,
				"element": "H" 
			},
			{
				"x": -2.6930048137,
				"y": 6.138248189,
				"z": -2.3633574859,
				"element": "H" 
			},
			{
				"x": -1.6346706145,
				"y": 7.1817684383,
				"z": -4.3658969835,
				"element": "H" 
			},
			{
				"x": -0.2017528564,
				"y": 5.7830332638,
				"z": -5.851493804,
				"element": "H" 
			},
			{
				"x": 0.1677703215,
				"y": 3.4141272487,
				"z": -5.3627618881,
				"element": "H" 
			},
			{
				"x": -0.5526379487,
				"y": 1.2248257179,
				"z": -5.1838414626,
				"element": "H" 
			},
			{
				"x": 0.931861602,
				"y": 1.5563285352,
				"z": -4.253490946,
				"element": "H" 
			},
			{
				"x": -0.1318522687,
				"y": 0.202938483,
				"z": -3.7848628801,
				"element": "H" 
			},
			{
				"x": -1.7815662183,
				"y": -1.0673745931,
				"z": 3.4232132197,
				"element": "H" 
			},
			{
				"x": -0.4869739591,
				"y": -2.6982408816,
				"z": 4.6881056348,
				"element": "H" 
			}
		],
		 "valence_orbital": [ 
			{
				"type": "occ",
				"energy": -0.24281,
				"method": "rhf"
			},
			{
				"type": "occ",
				"energy": -0.23615,
				"method": "rhf"
			},
			{
				"type": "occ",
				"energy": -0.21955,
				"method": "rhf"
			},
			{
				"type": "occ",
				"energy": -0.20237,
				"method": "rhf"
			},
			{
				"type": "occ",
				"energy": -0.19023,
				"method": "rhf"
			},
			{
				"type": "unocc",
				"energy": -0.07286,
				"method": "rhf"
			},
			{
				"type": "unocc",
				"energy": -0.04385,
				"method": "rhf"
			},
			{
				"type": "unocc",
				"energy": -0.00385,
				"method": "rhf"
			},
			{
				"type": "unocc",
				"energy": 0.0033,
				"method": "rhf"
			},
			{
				"type": "unocc",
				"energy": 0.02802,
				"method": "rhf"
			}
		],
		"cosmo_sigma_profile": { 
			"-0.025": 0.0,
			"-0.024": 0.0,
			"-0.023": 0.0,
			"-0.022": 0.0,
			"-0.021": 0.0,
			"-0.02": 0.0,
			"-0.019": 0.0,
			"-0.018": 0.0,
			"-0.017": 0.00309196800184,
			"-0.016": 0.852294117605,
			"-0.015": 1.35926851385,
			"-0.014": 1.02804583083,
			"-0.013": 0.838994351554,
			"-0.012": 0.56582054054,
			"-0.011": 0.986080746908,
			"-0.01": 1.09481047303,
			"-0.009": 0.688491080542,
			"-0.008": 1.11707926211,
			"-0.007": 6.09906380246,
			"-0.006": 21.9924427825,
			"-0.005": 34.4643445068,
			"-0.004": 33.4076797106,
			"-0.003": 33.7237694131,
			"-0.002": 35.5715787247,
			"-0.001": 26.4648840966,
			"0.0": 29.9156392719,
			"0.001": 28.477520692,
			"0.002": 31.9588928354,
			"0.003": 32.4242962803,
			"0.004": 30.8063288902,
			"0.005": 15.0203585634,
			"0.006": 6.76885003987,
			"0.007": 5.05342416183,
			"0.008": 6.45513253875,
			"0.009": 3.34613129667,
			"0.01": 2.98787042441,
			"0.011": 3.57696406451,
			"0.012": 4.02011786731,
			"0.013": 5.08898939116,
			"0.014": 3.11661685444,
			"0.015": 0.337440958191,
			"0.016": 0.0,
			"0.017": 0.0,
			"0.018": 0.0,
			"0.019": 0.0,
			"0.02": 0.0,
			"0.021": 0.0,
			"0.022": 0.0,
			"0.023": 0.0,
			"0.024": 0.0,
			"0.025": 0.0
		}
	}
}
