{
	 "smiles": "CC(=C)C=C", 
	 "Tm": 127.15, 
	 "num_atms": 13, 
	 "gaussian": { 
		 "optdone": 1, 
		 "sigma_profile": "yes", 
		 "theory": "DFT", 
		 "functional": "B3LYP", 
		 "basiset": "6-31G**", 
		 "properties": { 
			 "R2extent": 497.1305, 
			 "electric_dipole_moment_norm": 0.39989129773, 
			 "electric_quadrupole_moment_norm": 2.3152987777, 
			 "total_energy": -195.313390824, 
			 "HOMO_LUMO_gap": 0.21147, 
			 "cosmo_polarized_energy": -2.24, 
			 "cosmo_cavitation_energy": 16.44, 
			 "cosmo_dispersion_energy": -11.59, 
			 "cosmo_repulsion_energy": 1.01, 
			 "cosmo_total_nonelectrostatic_energy": 5.86, 
			 "SMD_solvation_energy": 4.39 
		},
		"coords": [
			{
				"x": 0.7749657892,
				"y": -0.6187828196,
				"z": 1.5407439134,
				"element": "C" 
			},
			{
				"x": -0.0434651145,
				"y": -0.6525981728,
				"z": 0.2703361668,
				"element": "C" 
			},
			{
				"x": -0.6447022533,
				"y": -1.7732846107,
				"z": -0.1564033942,
				"element": "C" 
			},
			{
				"x": -0.1176179957,
				"y": 0.6192082954,
				"z": -0.4803003685,
				"element": "C" 
			},
			{
				"x": -1.1680645466,
				"y": 1.0546045635,
				"z": -1.185167635,
				"element": "C" 
			},
			{
				"x": 0.3675298003,
				"y": 0.1070427457,
				"z": 2.2552383007,
				"element": "H" 
			},
			{
				"x": 1.8068908777,
				"y": -0.3082656343,
				"z": 1.3321416199,
				"element": "H" 
			},
			{
				"x": 0.8068813066,
				"y": -1.597347239,
				"z": 2.0264746928,
				"element": "H" 
			},
			{
				"x": -0.5981264224,
				"y": -2.6946762205,
				"z": 0.4168580031,
				"element": "H" 
			},
			{
				"x": -1.1885156877,
				"y": -1.8053639273,
				"z": -1.0953514255,
				"element": "H" 
			},
			{
				"x": 0.7653718756,
				"y": 1.2569478199,
				"z": -0.4140745026,
				"element": "H" 
			},
			{
				"x": -1.1372758058,
				"y": 1.997785113,
				"z": -1.7220513022,
				"element": "H" 
			},
			{
				"x": -2.0931718235,
				"y": 0.4875300866,
				"z": -1.2405440688,
				"element": "H" 
			}
		],
		 "valence_orbital": [ 
			{
				"type": "occ",
				"energy": -0.38032,
				"method": "rhf"
			},
			{
				"type": "occ",
				"energy": -0.35713,
				"method": "rhf"
			},
			{
				"type": "occ",
				"energy": -0.33686,
				"method": "rhf"
			},
			{
				"type": "occ",
				"energy": -0.29108,
				"method": "rhf"
			},
			{
				"type": "occ",
				"energy": -0.22755,
				"method": "rhf"
			},
			{
				"type": "unocc",
				"energy": -0.01608,
				"method": "rhf"
			},
			{
				"type": "unocc",
				"energy": 0.06835,
				"method": "rhf"
			},
			{
				"type": "unocc",
				"energy": 0.10851,
				"method": "rhf"
			},
			{
				"type": "unocc",
				"energy": 0.13429,
				"method": "rhf"
			},
			{
				"type": "unocc",
				"energy": 0.13898,
				"method": "rhf"
			}
		],
		"cosmo_sigma_profile": { 
			"-0.025": 0.0,
			"-0.024": 0.0,
			"-0.023": 0.0,
			"-0.022": 0.0,
			"-0.021": 0.0,
			"-0.02": 0.0,
			"-0.019": 0.0,
			"-0.018": 0.0,
			"-0.017": 0.0,
			"-0.016": 0.0,
			"-0.015": 0.0,
			"-0.014": 0.0,
			"-0.013": 0.0,
			"-0.012": 0.0,
			"-0.011": 0.0,
			"-0.01": 0.0,
			"-0.009": 0.0,
			"-0.008": 0.0,
			"-0.007": 0.0,
			"-0.006": 0.171087924809,
			"-0.005": 4.45029644989,
			"-0.004": 14.3871867788,
			"-0.003": 16.0442217799,
			"-0.002": 13.8118339075,
			"-0.001": 15.3798699221,
			"0.0": 15.4444286945,
			"0.001": 11.0125051013,
			"0.002": 8.5392921065,
			"0.003": 7.12900346556,
			"0.004": 7.10709768785,
			"0.005": 7.02400330195,
			"0.006": 6.39206032798,
			"0.007": 2.785147856,
			"0.008": 0.0101600202223,
			"0.009": 0.0,
			"0.01": 0.0,
			"0.011": 0.0,
			"0.012": 0.0,
			"0.013": 0.0,
			"0.014": 0.0,
			"0.015": 0.0,
			"0.016": 0.0,
			"0.017": 0.0,
			"0.018": 0.0,
			"0.019": 0.0,
			"0.02": 0.0,
			"0.021": 0.0,
			"0.022": 0.0,
			"0.023": 0.0,
			"0.024": 0.0,
			"0.025": 0.0
		}
	}
}
