{
	 "smiles": "CC(C)CC1CCCCC1", 
	 "Tm": 178.15, 
	 "num_atms": 30, 
	 "gaussian": { 
		 "optdone": 1, 
		 "sigma_profile": "yes", 
		 "theory": "DFT", 
		 "functional": "B3LYP", 
		 "basiset": "6-31G**", 
		 "properties": { 
			 "R2extent": 2544.6058, 
			 "electric_dipole_moment_norm": 0.0493158189631, 
			 "electric_quadrupole_moment_norm": 0.564007304917, 
			 "total_energy": -393.140974574, 
			 "HOMO_LUMO_gap": 0.35243, 
			 "cosmo_polarized_energy": -0.67, 
			 "cosmo_cavitation_energy": 28.29, 
			 "cosmo_dispersion_energy": -20.48, 
			 "cosmo_repulsion_energy": 1.66, 
			 "cosmo_total_nonelectrostatic_energy": 9.48, 
			 "SMD_solvation_energy": 3.84 
		},
		"coords": [
			{
				"x": 1.9293826393,
				"y": 2.0702378987,
				"z": -2.9101805088,
				"element": "C" 
			},
			{
				"x": 1.7106532651,
				"y": 2.9400273017,
				"z": -1.6611701096,
				"element": "C" 
			},
			{
				"x": 2.872417532,
				"y": 2.7790744184,
				"z": -0.6684280993,
				"element": "C" 
			},
			{
				"x": 0.3245779027,
				"y": 2.7711822943,
				"z": -0.9880035275,
				"element": "C" 
			},
			{
				"x": 0.0323513072,
				"y": 1.5031108261,
				"z": -0.1585638062,
				"element": "C" 
			},
			{
				"x": -0.0466358179,
				"y": 0.1974459074,
				"z": -0.9993335256,
				"element": "C" 
			},
			{
				"x": -0.9566517606,
				"y": -0.8832523013,
				"z": -0.3680636868,
				"element": "C" 
			},
			{
				"x": -0.9120137421,
				"y": -0.81815718,
				"z": 1.1628332823,
				"element": "C" 
			},
			{
				"x": -1.4771707195,
				"y": 0.530961012,
				"z": 1.6680666748,
				"element": "C" 
			},
			{
				"x": -1.2724039494,
				"y": 1.6722498918,
				"z": 0.6452558337,
				"element": "C" 
			},
			{
				"x": 2.8475587386,
				"y": 2.3699485731,
				"z": -3.4282776005,
				"element": "H" 
			},
			{
				"x": 1.1003548512,
				"y": 2.1730258117,
				"z": -3.6191676143,
				"element": "H" 
			},
			{
				"x": 2.0273796941,
				"y": 1.009173966,
				"z": -2.6629509811,
				"element": "H" 
			},
			{
				"x": 1.7298304488,
				"y": 3.9841154525,
				"z": -2.007477295,
				"element": "H" 
			},
			{
				"x": 2.7370391817,
				"y": 3.4135563613,
				"z": 0.2148566707,
				"element": "H" 
			},
			{
				"x": 3.8243776468,
				"y": 3.0555966367,
				"z": -1.1348693207,
				"element": "H" 
			},
			{
				"x": 2.9683650002,
				"y": 1.7434767912,
				"z": -0.3230043231,
				"element": "H" 
			},
			{
				"x": 0.1930893504,
				"y": 3.6322124334,
				"z": -0.3175536695,
				"element": "H" 
			},
			{
				"x": -0.4536818221,
				"y": 2.8729222095,
				"z": -1.7587736141,
				"element": "H" 
			},
			{
				"x": 0.8420744209,
				"y": 1.3879826587,
				"z": 0.5761664969,
				"element": "H" 
			},
			{
				"x": 0.9618573761,
				"y": -0.2128184052,
				"z": -1.1264855203,
				"element": "H" 
			},
			{
				"x": -0.4112506159,
				"y": 0.4304371763,
				"z": -2.007449402,
				"element": "H" 
			},
			{
				"x": -0.6592504602,
				"y": -1.8757709463,
				"z": -0.7255624473,
				"element": "H" 
			},
			{
				"x": -1.9937171394,
				"y": -0.7398767671,
				"z": -0.6991322405,
				"element": "H" 
			},
			{
				"x": 0.1290748284,
				"y": -0.9352094506,
				"z": 1.4917721919,
				"element": "H" 
			},
			{
				"x": -1.4667467633,
				"y": -1.6528658564,
				"z": 1.6060758897,
				"element": "H" 
			},
			{
				"x": -2.5477202733,
				"y": 0.4295674227,
				"z": 1.8837394516,
				"element": "H" 
			},
			{
				"x": -0.998003348,
				"y": 0.7944119353,
				"z": 2.6187604177,
				"element": "H" 
			},
			{
				"x": -1.277509618,
				"y": 2.6392147559,
				"z": 1.1621729682,
				"element": "H" 
			},
			{
				"x": -2.1162281535,
				"y": 1.702319172,
				"z": -0.0580525853,
				"element": "H" 
			}
		],
		 "valence_orbital": [ 
			{
				"type": "occ",
				"energy": -0.31571,
				"method": "rhf"
			},
			{
				"type": "occ",
				"energy": -0.31343,
				"method": "rhf"
			},
			{
				"type": "occ",
				"energy": -0.28984,
				"method": "rhf"
			},
			{
				"type": "occ",
				"energy": -0.28812,
				"method": "rhf"
			},
			{
				"type": "occ",
				"energy": -0.27906,
				"method": "rhf"
			},
			{
				"type": "unocc",
				"energy": 0.07337,
				"method": "rhf"
			},
			{
				"type": "unocc",
				"energy": 0.09415,
				"method": "rhf"
			},
			{
				"type": "unocc",
				"energy": 0.10121,
				"method": "rhf"
			},
			{
				"type": "unocc",
				"energy": 0.11985,
				"method": "rhf"
			},
			{
				"type": "unocc",
				"energy": 0.13724,
				"method": "rhf"
			}
		],
		"cosmo_sigma_profile": { 
			"-0.025": 0.0,
			"-0.024": 0.0,
			"-0.023": 0.0,
			"-0.022": 0.0,
			"-0.021": 0.0,
			"-0.02": 0.0,
			"-0.019": 0.0,
			"-0.018": 0.0,
			"-0.017": 0.0,
			"-0.016": 0.0,
			"-0.015": 0.0,
			"-0.014": 0.0,
			"-0.013": 0.0,
			"-0.012": 0.0,
			"-0.011": 0.0,
			"-0.01": 0.0,
			"-0.009": 0.0,
			"-0.008": 0.0,
			"-0.007": 0.0,
			"-0.006": 0.0,
			"-0.005": 0.0,
			"-0.004": 0.0,
			"-0.003": 1.37516445941,
			"-0.002": 24.4158714919,
			"-0.001": 54.1107857213,
			"0.0": 60.5611553254,
			"0.001": 43.3709843043,
			"0.002": 29.6637026301,
			"0.003": 1.98865781161,
			"0.004": 0.0,
			"0.005": 0.0,
			"0.006": 0.0,
			"0.007": 0.0,
			"0.008": 0.0,
			"0.009": 0.0,
			"0.01": 0.0,
			"0.011": 0.0,
			"0.012": 0.0,
			"0.013": 0.0,
			"0.014": 0.0,
			"0.015": 0.0,
			"0.016": 0.0,
			"0.017": 0.0,
			"0.018": 0.0,
			"0.019": 0.0,
			"0.02": 0.0,
			"0.021": 0.0,
			"0.022": 0.0,
			"0.023": 0.0,
			"0.024": 0.0,
			"0.025": 0.0
		}
	}
}
