{
	 "smiles": "CC(=O)C1(O)CCC2C3CCC4=CC(=O)CCC4(C)C3CCC12C", 
	 "Tm": 495.15, 
	 "num_atms": 54, 
	 "gaussian": { 
		 "optdone": 1, 
		 "sigma_profile": "yes", 
		 "theory": "DFT", 
		 "functional": "B3LYP", 
		 "basiset": "6-31G**", 
		 "properties": { 
			 "R2extent": 9046.3589, 
			 "electric_dipole_moment_norm": 3.07817588029, 
			 "electric_quadrupole_moment_norm": 34.9735848583, 
			 "total_energy": -1043.97334823, 
			 "HOMO_LUMO_gap": 0.18705, 
			 "cosmo_polarized_energy": -18.61, 
			 "cosmo_cavitation_energy": 47.17, 
			 "cosmo_dispersion_energy": -32.52, 
			 "cosmo_repulsion_energy": 2.37, 
			 "cosmo_total_nonelectrostatic_energy": 17.01, 
			 "SMD_solvation_energy": 7.7 
		},
		"coords": [
			{
				"x": -0.250560764,
				"y": 0.370414347,
				"z": 5.2340501604,
				"element": "C" 
			},
			{
				"x": -1.2950531232,
				"y": -0.0210928317,
				"z": 4.2040112645,
				"element": "C" 
			},
			{
				"x": -2.2744424795,
				"y": -0.6739938765,
				"z": 4.5156716655,
				"element": "O" 
			},
			{
				"x": -1.0879407189,
				"y": 0.4531219208,
				"z": 2.7480424086,
				"element": "C" 
			},
			{
				"x": -0.2926770245,
				"y": 1.6450402118,
				"z": 2.7406699364,
				"element": "O" 
			},
			{
				"x": -2.4157566682,
				"y": 0.8633409844,
				"z": 2.0999470079,
				"element": "C" 
			},
			{
				"x": -2.1176421933,
				"y": 0.8111149951,
				"z": 0.6030941998,
				"element": "C" 
			},
			{
				"x": -1.3639689979,
				"y": -0.5286849053,
				"z": 0.4527021114,
				"element": "C" 
			},
			{
				"x": -0.6241971275,
				"y": -0.792072549,
				"z": -0.8959883735,
				"element": "C" 
			},
			{
				"x": -1.5237535061,
				"y": -0.3317617149,
				"z": -2.0678472029,
				"element": "C" 
			},
			{
				"x": -0.871111195,
				"y": -0.4615616051,
				"z": -3.4654317367,
				"element": "C" 
			},
			{
				"x": 0.6375266854,
				"y": -0.4195931335,
				"z": -3.406154559,
				"element": "C" 
			},
			{
				"x": 1.3758249653,
				"y": -1.2131600873,
				"z": -4.2111296711,
				"element": "C" 
			},
			{
				"x": 2.8352187389,
				"y": -1.3820683774,
				"z": -4.1065903647,
				"element": "C" 
			},
			{
				"x": 3.4691104783,
				"y": -2.059721546,
				"z": -4.9045447793,
				"element": "O" 
			},
			{
				"x": 3.4844372452,
				"y": -0.7343982756,
				"z": -2.8932363529,
				"element": "C" 
			},
			{
				"x": 2.7785296633,
				"y": 0.5691279751,
				"z": -2.512133488,
				"element": "C" 
			},
			{
				"x": 1.2424284889,
				"y": 0.4547169118,
				"z": -2.3136024576,
				"element": "C" 
			},
			{
				"x": 0.6972946255,
				"y": 1.9041129886,
				"z": -2.3731781929,
				"element": "C" 
			},
			{
				"x": 0.8720074341,
				"y": -0.2791802887,
				"z": -0.9724549849,
				"element": "C" 
			},
			{
				"x": 1.2981612028,
				"y": 0.4406689106,
				"z": 0.3164777308,
				"element": "C" 
			},
			{
				"x": 1.0035079725,
				"y": -0.485191818,
				"z": 1.5048620558,
				"element": "C" 
			},
			{
				"x": -0.5088762076,
				"y": -0.6901272204,
				"z": 1.7743470238,
				"element": "C" 
			},
			{
				"x": -0.7193026171,
				"y": -2.1053644981,
				"z": 2.3476541108,
				"element": "C" 
			},
			{
				"x": -0.5048572601,
				"y": -0.0836704045,
				"z": 6.1923358861,
				"element": "H" 
			},
			{
				"x": -0.2105090562,
				"y": 1.4594064036,
				"z": 5.3331671866,
				"element": "H" 
			},
			{
				"x": 0.7499661336,
				"y": 0.0377585686,
				"z": 4.9293662701,
				"element": "H" 
			},
			{
				"x": 0.6285141689,
				"y": 1.4154758475,
				"z": 2.9127390848,
				"element": "H" 
			},
			{
				"x": -3.1821864127,
				"y": 0.1335518929,
				"z": 2.3763688043,
				"element": "H" 
			},
			{
				"x": -2.7322962675,
				"y": 1.846491355,
				"z": 2.4593516083,
				"element": "H" 
			},
			{
				"x": -1.4958063838,
				"y": 1.6663834168,
				"z": 0.317373938,
				"element": "H" 
			},
			{
				"x": -3.0292943079,
				"y": 0.8475083082,
				"z": -0.0002042259,
				"element": "H" 
			},
			{
				"x": -2.143694491,
				"y": -1.3008227544,
				"z": 0.5043458935,
				"element": "H" 
			},
			{
				"x": -0.5547650629,
				"y": -1.8839536755,
				"z": -0.9859872685,
				"element": "H" 
			},
			{
				"x": -2.4516441735,
				"y": -0.9154359383,
				"z": -2.0467084051,
				"element": "H" 
			},
			{
				"x": -1.8298043599,
				"y": 0.7035791736,
				"z": -1.9096452683,
				"element": "H" 
			},
			{
				"x": -1.2387586581,
				"y": 0.3540829272,
				"z": -4.103570682,
				"element": "H" 
			},
			{
				"x": -1.1774992548,
				"y": -1.391010738,
				"z": -3.9558473077,
				"element": "H" 
			},
			{
				"x": 0.8936567703,
				"y": -1.8344758498,
				"z": -4.9633795268,
				"element": "H" 
			},
			{
				"x": 4.5444876945,
				"y": -0.5719005878,
				"z": -3.1083963346,
				"element": "H" 
			},
			{
				"x": 3.439628191,
				"y": -1.4638674844,
				"z": -2.072226224,
				"element": "H" 
			},
			{
				"x": 3.2383484047,
				"y": 1.0054306507,
				"z": -1.6194024512,
				"element": "H" 
			},
			{
				"x": 2.9490690445,
				"y": 1.2928473696,
				"z": -3.319343754,
				"element": "H" 
			},
			{
				"x": -0.3588102552,
				"y": 1.9901334714,
				"z": -2.1176920914,
				"element": "H" 
			},
			{
				"x": 0.837224758,
				"y": 2.3216498825,
				"z": -3.3757355483,
				"element": "H" 
			},
			{
				"x": 1.2540296776,
				"y": 2.5377598553,
				"z": -1.6753960354,
				"element": "H" 
			},
			{
				"x": 1.4807864305,
				"y": -1.1923107843,
				"z": -0.9944095117,
				"element": "H" 
			},
			{
				"x": 0.78201721,
				"y": 1.3959900413,
				"z": 0.4462284248,
				"element": "H" 
			},
			{
				"x": 2.3713690371,
				"y": 0.6585616108,
				"z": 0.2846108843,
				"element": "H" 
			},
			{
				"x": 1.520294259,
				"y": -0.1448905907,
				"z": 2.4141717075,
				"element": "H" 
			},
			{
				"x": 1.4544917528,
				"y": -1.4631423957,
				"z": 1.2926392351,
				"element": "H" 
			},
			{
				"x": -0.0746168151,
				"y": -2.2983468527,
				"z": 3.2132607944,
				"element": "H" 
			},
			{
				"x": -1.7519343264,
				"y": -2.2698513804,
				"z": 2.6627022283,
				"element": "H" 
			},
			{
				"x": -0.4692713249,
				"y": -2.8489178561,
				"z": 1.5827451765,
				"element": "H" 
			}
		],
		 "valence_orbital": [ 
			{
				"type": "occ",
				"energy": -0.29561,
				"method": "rhf"
			},
			{
				"type": "occ",
				"energy": -0.28798,
				"method": "rhf"
			},
			{
				"type": "occ",
				"energy": -0.25145,
				"method": "rhf"
			},
			{
				"type": "occ",
				"energy": -0.23808,
				"method": "rhf"
			},
			{
				"type": "occ",
				"energy": -0.22971,
				"method": "rhf"
			},
			{
				"type": "unocc",
				"energy": -0.04266,
				"method": "rhf"
			},
			{
				"type": "unocc",
				"energy": -0.02204,
				"method": "rhf"
			},
			{
				"type": "unocc",
				"energy": 0.04197,
				"method": "rhf"
			},
			{
				"type": "unocc",
				"energy": 0.05102,
				"method": "rhf"
			},
			{
				"type": "unocc",
				"energy": 0.07225,
				"method": "rhf"
			}
		],
		"cosmo_sigma_profile": { 
			"-0.025": 0.0,
			"-0.024": 0.0,
			"-0.023": 0.0,
			"-0.022": 0.0,
			"-0.021": 0.0,
			"-0.02": 0.0,
			"-0.019": 0.0,
			"-0.018": 0.0,
			"-0.017": 0.0,
			"-0.016": 0.0,
			"-0.015": 0.0156000687234,
			"-0.014": 0.554535483927,
			"-0.013": 0.570474326497,
			"-0.012": 1.29365741318,
			"-0.011": 1.11667329405,
			"-0.01": 1.21156374859,
			"-0.009": 1.82527536716,
			"-0.008": 0.951712643714,
			"-0.007": 2.14768140727,
			"-0.006": 3.63504049373,
			"-0.005": 9.04522994445,
			"-0.004": 23.8948674422,
			"-0.003": 48.7412362585,
			"-0.002": 70.0129436051,
			"-0.001": 58.7613596273,
			"0.0": 38.1730564132,
			"0.001": 23.5680739011,
			"0.002": 11.4746814527,
			"0.003": 8.95006308174,
			"0.004": 5.94789287952,
			"0.005": 5.31360417183,
			"0.006": 4.80152267269,
			"0.007": 4.44196109628,
			"0.008": 3.76975141495,
			"0.009": 3.61482616003,
			"0.01": 4.92576258253,
			"0.011": 5.42436015705,
			"0.012": 6.93753775204,
			"0.013": 7.62282736814,
			"0.014": 3.95208705642,
			"0.015": 0.733475386427,
			"0.016": 0.0,
			"0.017": 0.0,
			"0.018": 0.0,
			"0.019": 0.0,
			"0.02": 0.0,
			"0.021": 0.0,
			"0.022": 0.0,
			"0.023": 0.0,
			"0.024": 0.0,
			"0.025": 0.0
		}
	}
}
