{
	 "smiles": "CSC1=CC=CC(CC(O)=O)=C1", 
	 "Tm": 352.15, 
	 "num_atms": 22, 
	 "gaussian": { 
		 "optdone": 1, 
		 "sigma_profile": "yes", 
		 "theory": "DFT", 
		 "functional": "B3LYP", 
		 "basiset": "6-31G**", 
		 "properties": { 
			 "R2extent": 3600.6424, 
			 "electric_dipole_moment_norm": 1.27691903424, 
			 "electric_quadrupole_moment_norm": 13.4725011549, 
			 "total_energy": -897.636339045, 
			 "HOMO_LUMO_gap": 0.20012, 
			 "cosmo_polarized_energy": -11.3, 
			 "cosmo_cavitation_energy": 28.2, 
			 "cosmo_dispersion_energy": -20.44, 
			 "cosmo_repulsion_energy": 1.62, 
			 "cosmo_total_nonelectrostatic_energy": 9.38, 
			 "SMD_solvation_energy": 5.97 
		},
		"coords": [
			{
				"x": 2.2478011395,
				"y": -3.8240787261,
				"z": 0.1037145879,
				"element": "C" 
			},
			{
				"x": 2.9840748488,
				"y": -2.3330996422,
				"z": 0.8780994211,
				"element": "S" 
			},
			{
				"x": 1.5369273745,
				"y": -1.2776548821,
				"z": 1.0210591874,
				"element": "C" 
			},
			{
				"x": 0.5573828233,
				"y": -1.5283283167,
				"z": 1.9897642283,
				"element": "C" 
			},
			{
				"x": -0.5435888335,
				"y": -0.6779946583,
				"z": 2.0995770128,
				"element": "C" 
			},
			{
				"x": -0.6667790594,
				"y": 0.4305338765,
				"z": 1.2621652111,
				"element": "C" 
			},
			{
				"x": 0.3130440633,
				"y": 0.6983879259,
				"z": 0.2974285012,
				"element": "C" 
			},
			{
				"x": 0.1809519727,
				"y": 1.9024758742,
				"z": -0.6247142466,
				"element": "C" 
			},
			{
				"x": 0.1412851496,
				"y": 3.1997365822,
				"z": 0.1634770685,
				"element": "C" 
			},
			{
				"x": 1.3380656957,
				"y": 3.8294410601,
				"z": 0.1677413135,
				"element": "O" 
			},
			{
				"x": -0.8289277598,
				"y": 3.6292813493,
				"z": 0.7489405488,
				"element": "O" 
			},
			{
				"x": 1.4102810883,
				"y": -0.1619157598,
				"z": 0.1836188334,
				"element": "C" 
			},
			{
				"x": 1.4753891784,
				"y": -4.2591205406,
				"z": 0.7413670865,
				"element": "H" 
			},
			{
				"x": 3.0607483787,
				"y": -4.5448355145,
				"z": -0.012410454,
				"element": "H" 
			},
			{
				"x": 1.831868662,
				"y": -3.5897374048,
				"z": -0.8783909554,
				"element": "H" 
			},
			{
				"x": 0.6640247873,
				"y": -2.3787120657,
				"z": 2.6562452543,
				"element": "H" 
			},
			{
				"x": -1.3038917957,
				"y": -0.8737397132,
				"z": 2.8503719928,
				"element": "H" 
			},
			{
				"x": -1.5131507096,
				"y": 1.103227336,
				"z": 1.362520677,
				"element": "H" 
			},
			{
				"x": 1.0093624778,
				"y": 1.9284194157,
				"z": -1.335298676,
				"element": "H" 
			},
			{
				"x": -0.7583900806,
				"y": 1.8450588192,
				"z": -1.1841965426,
				"element": "H" 
			},
			{
				"x": 1.2261852738,
				"y": 4.6219308512,
				"z": 0.72033488,
				"element": "H" 
			},
			{
				"x": 2.176435325,
				"y": 0.0294241337,
				"z": -0.5619149301,
				"element": "H" 
			}
		],
		 "valence_orbital": [ 
			{
				"type": "occ",
				"energy": -0.31714,
				"method": "rhf"
			},
			{
				"type": "occ",
				"energy": -0.28127,
				"method": "rhf"
			},
			{
				"type": "occ",
				"energy": -0.2572,
				"method": "rhf"
			},
			{
				"type": "occ",
				"energy": -0.25189,
				"method": "rhf"
			},
			{
				"type": "occ",
				"energy": -0.22337,
				"method": "rhf"
			},
			{
				"type": "unocc",
				"energy": -0.02325,
				"method": "rhf"
			},
			{
				"type": "unocc",
				"energy": -0.01369,
				"method": "rhf"
			},
			{
				"type": "unocc",
				"energy": 0.01158,
				"method": "rhf"
			},
			{
				"type": "unocc",
				"energy": 0.05079,
				"method": "rhf"
			},
			{
				"type": "unocc",
				"energy": 0.0729,
				"method": "rhf"
			}
		],
		"cosmo_sigma_profile": { 
			"-0.025": 0.0,
			"-0.024": 0.0,
			"-0.023": 0.0,
			"-0.022": 0.0,
			"-0.021": 0.0,
			"-0.02": 0.0,
			"-0.019": 0.061112208209,
			"-0.018": 0.704485148955,
			"-0.017": 0.95496215895,
			"-0.016": 1.01218741469,
			"-0.015": 0.843112403383,
			"-0.014": 0.749149649772,
			"-0.013": 0.151697272044,
			"-0.012": 0.427613504489,
			"-0.011": 1.10304138181,
			"-0.01": 1.13216149001,
			"-0.009": 0.401354321272,
			"-0.008": 0.590455380355,
			"-0.007": 3.95487107697,
			"-0.006": 13.2839571896,
			"-0.005": 17.7108039011,
			"-0.004": 19.3121443799,
			"-0.003": 16.436862814,
			"-0.002": 17.1056800048,
			"-0.001": 15.880061354,
			"0.0": 12.7823963961,
			"0.001": 15.4750360968,
			"0.002": 13.5987543959,
			"0.003": 14.532848384,
			"0.004": 15.4634210528,
			"0.005": 10.419612071,
			"0.006": 4.69318787474,
			"0.007": 4.89272392794,
			"0.008": 5.74732988033,
			"0.009": 5.07481362472,
			"0.01": 3.68679156567,
			"0.011": 3.65645026504,
			"0.012": 3.7539653789,
			"0.013": 0.0897125797477,
			"0.014": 0.0,
			"0.015": 0.0,
			"0.016": 0.0,
			"0.017": 0.0,
			"0.018": 0.0,
			"0.019": 0.0,
			"0.02": 0.0,
			"0.021": 0.0,
			"0.022": 0.0,
			"0.023": 0.0,
			"0.024": 0.0,
			"0.025": 0.0
		}
	}
}
