{
	 "smiles": "FC(F)(F)C1=CC(Cl)=C(CC#N)N=C1", 
	 "Tm": 308.15, 
	 "num_atms": 18, 
	 "gaussian": { 
		 "optdone": 1, 
		 "sigma_profile": "yes", 
		 "theory": "DFT", 
		 "functional": "B3LYP", 
		 "basiset": "6-31G**", 
		 "properties": { 
			 "R2extent": 4541.2191, 
			 "electric_dipole_moment_norm": 3.37689176166, 
			 "electric_quadrupole_moment_norm": 11.7234325925, 
			 "total_energy": -1176.45662059, 
			 "HOMO_LUMO_gap": 0.21616, 
			 "cosmo_polarized_energy": -11.01, 
			 "cosmo_cavitation_energy": 27.38, 
			 "cosmo_dispersion_energy": -18.8, 
			 "cosmo_repulsion_energy": 1.43, 
			 "cosmo_total_nonelectrostatic_energy": 10.01, 
			 "SMD_solvation_energy": 5.66 
		},
		"coords": [
			{
				"x": 0.8086459062,
				"y": -3.2003953975,
				"z": 3.7477277712,
				"element": "F" 
			},
			{
				"x": 1.7863859366,
				"y": -2.4507313165,
				"z": 3.1945846473,
				"element": "C" 
			},
			{
				"x": 2.6568117424,
				"y": -3.2990689483,
				"z": 2.6089611854,
				"element": "F" 
			},
			{
				"x": 2.4281674671,
				"y": -1.8237336782,
				"z": 4.2004395712,
				"element": "F" 
			},
			{
				"x": 1.2241168572,
				"y": -1.4669037805,
				"z": 2.2019139627,
				"element": "C" 
			},
			{
				"x": 1.0559731022,
				"y": -1.8280615874,
				"z": 0.8666825146,
				"element": "C" 
			},
			{
				"x": 0.4861499872,
				"y": -0.900510941,
				"z": 0.000696667,
				"element": "C" 
			},
			{
				"x": 0.2607729463,
				"y": -1.324643542,
				"z": -1.6798816322,
				"element": "Cl" 
			},
			{
				"x": 0.097995104,
				"y": 0.3586248828,
				"z": 0.4878142344,
				"element": "C" 
			},
			{
				"x": -0.5373146654,
				"y": 1.4210225625,
				"z": -0.3953825291,
				"element": "C" 
			},
			{
				"x": 0.4352669856,
				"y": 2.0878321259,
				"z": -1.2697093733,
				"element": "C" 
			},
			{
				"x": 1.2067814809,
				"y": 2.6197062665,
				"z": -1.9537021175,
				"element": "N" 
			},
			{
				"x": 0.2655354221,
				"y": 0.6889507939,
				"z": 1.7729521686,
				"element": "N" 
			},
			{
				"x": 0.8142160532,
				"y": -0.1958362104,
				"z": 2.6081466193,
				"element": "C" 
			},
			{
				"x": 1.3667564126,
				"y": -2.8016754643,
				"z": 0.505922288,
				"element": "H" 
			},
			{
				"x": -0.9875742394,
				"y": 2.1683365194,
				"z": 0.2635351446,
				"element": "H" 
			},
			{
				"x": -1.3259949275,
				"y": 0.9886066255,
				"z": -1.0207808777,
				"element": "H" 
			},
			{
				"x": 0.9379084287,
				"y": 0.1215810897,
				"z": 3.6395797553,
				"element": "H" 
			}
		],
		 "valence_orbital": [ 
			{
				"type": "occ",
				"energy": -0.33665,
				"method": "rhf"
			},
			{
				"type": "occ",
				"energy": -0.33162,
				"method": "rhf"
			},
			{
				"type": "occ",
				"energy": -0.32241,
				"method": "rhf"
			},
			{
				"type": "occ",
				"energy": -0.29497,
				"method": "rhf"
			},
			{
				"type": "occ",
				"energy": -0.28727,
				"method": "rhf"
			},
			{
				"type": "unocc",
				"energy": -0.07111,
				"method": "rhf"
			},
			{
				"type": "unocc",
				"energy": -0.06045,
				"method": "rhf"
			},
			{
				"type": "unocc",
				"energy": 3e-05,
				"method": "rhf"
			},
			{
				"type": "unocc",
				"energy": 0.03185,
				"method": "rhf"
			},
			{
				"type": "unocc",
				"energy": 0.033,
				"method": "rhf"
			}
		],
		"cosmo_sigma_profile": { 
			"-0.025": 0.0,
			"-0.024": 0.0,
			"-0.023": 0.0,
			"-0.022": 0.0,
			"-0.021": 0.0,
			"-0.02": 0.0,
			"-0.019": 0.0,
			"-0.018": 0.0,
			"-0.017": 0.0,
			"-0.016": 0.0,
			"-0.015": 0.0,
			"-0.014": 0.0,
			"-0.013": 0.0,
			"-0.012": 0.0,
			"-0.011": 0.0,
			"-0.01": 1.59981374529,
			"-0.009": 6.43346212641,
			"-0.008": 7.56330587796,
			"-0.007": 7.75391457778,
			"-0.006": 9.61452707661,
			"-0.005": 7.52518795273,
			"-0.004": 9.6978794764,
			"-0.003": 16.9127310524,
			"-0.002": 22.209726064,
			"-0.001": 14.6115548799,
			"0.0": 13.583988873,
			"0.001": 16.8682072803,
			"0.002": 34.6408216416,
			"0.003": 19.7793577718,
			"0.004": 4.08930555136,
			"0.005": 3.57833741147,
			"0.006": 3.65889049514,
			"0.007": 3.26689427518,
			"0.008": 4.95055893153,
			"0.009": 3.91479435733,
			"0.01": 4.18234908697,
			"0.011": 3.10876918913,
			"0.012": 2.81398044662,
			"0.013": 1.55294850002,
			"0.014": 0.0,
			"0.015": 0.0,
			"0.016": 0.0,
			"0.017": 0.0,
			"0.018": 0.0,
			"0.019": 0.0,
			"0.02": 0.0,
			"0.021": 0.0,
			"0.022": 0.0,
			"0.023": 0.0,
			"0.024": 0.0,
			"0.025": 0.0
		}
	}
}
