{
	 "smiles": "NC1C2CC(C=C2)C1C(N)=O", 
	 "Tm": 517.15, 
	 "num_atms": 23, 
	 "gaussian": { 
		 "optdone": 1, 
		 "sigma_profile": "yes", 
		 "theory": "DFT", 
		 "functional": "B3LYP", 
		 "basiset": "6-31G**", 
		 "properties": { 
			 "R2extent": 1513.0025, 
			 "electric_dipole_moment_norm": 3.99162755527, 
			 "electric_quadrupole_moment_norm": 6.99916714903, 
			 "total_energy": -496.788409144, 
			 "HOMO_LUMO_gap": 0.24351, 
			 "cosmo_polarized_energy": -12.43, 
			 "cosmo_cavitation_energy": 23.77, 
			 "cosmo_dispersion_energy": -18.04, 
			 "cosmo_repulsion_energy": 1.46, 
			 "cosmo_total_nonelectrostatic_energy": 7.19, 
			 "SMD_solvation_energy": 3.64 
		},
		"coords": [
			{
				"x": 1.5664096938,
				"y": -1.8617719534,
				"z": 0.4651302096,
				"element": "N" 
			},
			{
				"x": 0.1535017248,
				"y": -1.4680897993,
				"z": 0.4204498085,
				"element": "C" 
			},
			{
				"x": -0.4580634018,
				"y": -0.8860132942,
				"z": 1.7527375138,
				"element": "C" 
			},
			{
				"x": -1.7266786838,
				"y": -0.1986389102,
				"z": 1.2022148467,
				"element": "C" 
			},
			{
				"x": -0.9319145666,
				"y": 0.7329091436,
				"z": 0.2565558244,
				"element": "C" 
			},
			{
				"x": 0.1002774971,
				"y": 1.2927830095,
				"z": 1.2255862008,
				"element": "C" 
			},
			{
				"x": 0.3769482951,
				"y": 0.3334958232,
				"z": 2.1220446732,
				"element": "C" 
			},
			{
				"x": -0.1872898949,
				"y": -0.3267879799,
				"z": -0.6211006551,
				"element": "C" 
			},
			{
				"x": 0.9197391682,
				"y": 0.3070777307,
				"z": -1.4749001715,
				"element": "C" 
			},
			{
				"x": 1.8247612201,
				"y": -0.5666505199,
				"z": -2.00887038,
				"element": "N" 
			},
			{
				"x": 0.9104797775,
				"y": 1.5055207657,
				"z": -1.7351045347,
				"element": "O" 
			},
			{
				"x": 1.6744898248,
				"y": -2.6761826253,
				"z": 1.065295326,
				"element": "H" 
			},
			{
				"x": 2.1138962967,
				"y": -1.1117176854,
				"z": 0.8851696848,
				"element": "H" 
			},
			{
				"x": -0.4035588566,
				"y": -2.3702316094,
				"z": 0.1453243228,
				"element": "H" 
			},
			{
				"x": -0.5885405334,
				"y": -1.6405449076,
				"z": 2.5334307086,
				"element": "H" 
			},
			{
				"x": -2.4057316785,
				"y": -0.8819096006,
				"z": 0.6779769726,
				"element": "H" 
			},
			{
				"x": -2.2800899804,
				"y": 0.3471839071,
				"z": 1.9711879939,
				"element": "H" 
			},
			{
				"x": -1.4856481985,
				"y": 1.4665521238,
				"z": -0.3277293696,
				"element": "H" 
			},
			{
				"x": 0.5769071932,
				"y": 2.25940198,
				"z": 1.1178661215,
				"element": "H" 
			},
			{
				"x": 1.1220088163,
				"y": 0.3664518142,
				"z": 2.910204565,
				"element": "H" 
			},
			{
				"x": -0.8951173681,
				"y": -0.7427779707,
				"z": -1.3499561104,
				"element": "H" 
			},
			{
				"x": 2.0050168482,
				"y": -1.4150511301,
				"z": -1.4742303878,
				"element": "H" 
			},
			{
				"x": 2.5924968069,
				"y": -0.1385083116,
				"z": -2.5083831633,
				"element": "H" 
			}
		],
		 "valence_orbital": [ 
			{
				"type": "occ",
				"energy": -0.30879,
				"method": "rhf"
			},
			{
				"type": "occ",
				"energy": -0.26294,
				"method": "rhf"
			},
			{
				"type": "occ",
				"energy": -0.25276,
				"method": "rhf"
			},
			{
				"type": "occ",
				"energy": -0.23479,
				"method": "rhf"
			},
			{
				"type": "occ",
				"energy": -0.23068,
				"method": "rhf"
			},
			{
				"type": "unocc",
				"energy": 0.01283,
				"method": "rhf"
			},
			{
				"type": "unocc",
				"energy": 0.03597,
				"method": "rhf"
			},
			{
				"type": "unocc",
				"energy": 0.07588,
				"method": "rhf"
			},
			{
				"type": "unocc",
				"energy": 0.10033,
				"method": "rhf"
			},
			{
				"type": "unocc",
				"energy": 0.11926,
				"method": "rhf"
			}
		],
		"cosmo_sigma_profile": { 
			"-0.025": 0.0,
			"-0.024": 0.0,
			"-0.023": 0.0,
			"-0.022": 0.0,
			"-0.021": 0.0,
			"-0.02": 0.0,
			"-0.019": 0.0,
			"-0.018": 0.0,
			"-0.017": 0.0,
			"-0.016": 0.0,
			"-0.015": 0.0,
			"-0.014": 0.0,
			"-0.013": 0.364104162162,
			"-0.012": 1.05451281831,
			"-0.011": 1.49902198175,
			"-0.01": 2.13605774811,
			"-0.009": 2.78550820114,
			"-0.008": 3.96124346892,
			"-0.007": 4.29186082401,
			"-0.006": 4.98648606058,
			"-0.005": 8.2937846547,
			"-0.004": 18.3563239501,
			"-0.003": 19.5466559013,
			"-0.002": 17.0734715452,
			"-0.001": 15.7833170001,
			"0.0": 15.6668309905,
			"0.001": 15.3931501932,
			"0.002": 7.64722625509,
			"0.003": 6.74970195137,
			"0.004": 5.35816430236,
			"0.005": 4.39632112843,
			"0.006": 5.01494823619,
			"0.007": 3.39567918872,
			"0.008": 2.86135212379,
			"0.009": 3.04779964102,
			"0.01": 2.04428688743,
			"0.011": 1.24414420265,
			"0.012": 1.99479422651,
			"0.013": 2.09133583021,
			"0.014": 4.54393865476,
			"0.015": 3.15826536806,
			"0.016": 0.131736686293,
			"0.017": 0.0,
			"0.018": 0.0,
			"0.019": 0.0,
			"0.02": 0.0,
			"0.021": 0.0,
			"0.022": 0.0,
			"0.023": 0.0,
			"0.024": 0.0,
			"0.025": 0.0
		}
	}
}
