{
	 "smiles": "COC1=CC=C2C(CC3(CCC(=O)C(C3)C(O)=O)C2=O)=C1", 
	 "Tm": 393.15, 
	 "num_atms": 37, 
	 "gaussian": { 
		 "optdone": 1, 
		 "sigma_profile": "yes", 
		 "theory": "DFT", 
		 "functional": "B3LYP", 
		 "basiset": "6-31G**", 
		 "properties": { 
			 "R2extent": 8816.797, 
			 "electric_dipole_moment_norm": 7.1162107733, 
			 "electric_quadrupole_moment_norm": 19.9968564495, 
			 "total_energy": -995.480307562, 
			 "HOMO_LUMO_gap": 0.18376, 
			 "cosmo_polarized_energy": -23.39, 
			 "cosmo_cavitation_energy": 40.06, 
			 "cosmo_dispersion_energy": -28.15, 
			 "cosmo_repulsion_energy": 2.13, 
			 "cosmo_total_nonelectrostatic_energy": 14.04, 
			 "SMD_solvation_energy": 9.02 
		},
		"coords": [
			{
				"x": -1.4957580704,
				"y": 5.5672218349,
				"z": -0.0908054092,
				"element": "C" 
			},
			{
				"x": -1.041980744,
				"y": 4.3696821964,
				"z": -0.7095389418,
				"element": "O" 
			},
			{
				"x": -1.3618964002,
				"y": 3.1761668904,
				"z": -0.1465466048,
				"element": "C" 
			},
			{
				"x": -2.1299164326,
				"y": 3.0411002982,
				"z": 1.0296947769,
				"element": "C" 
			},
			{
				"x": -2.4054619293,
				"y": 1.7735954846,
				"z": 1.5308088903,
				"element": "C" 
			},
			{
				"x": -1.9136745056,
				"y": 0.6528168096,
				"z": 0.8578418187,
				"element": "C" 
			},
			{
				"x": -1.1515749632,
				"y": 0.7865634951,
				"z": -0.3108216992,
				"element": "C" 
			},
			{
				"x": -0.7378034193,
				"y": -0.5655900382,
				"z": -0.8574184006,
				"element": "C" 
			},
			{
				"x": -1.3168445154,
				"y": -1.6147105582,
				"z": 0.1406060274,
				"element": "C" 
			},
			{
				"x": -2.3240874112,
				"y": -2.5897782105,
				"z": -0.5088064872,
				"element": "C" 
			},
			{
				"x": -1.6506674277,
				"y": -3.6221923571,
				"z": -1.4342771408,
				"element": "C" 
			},
			{
				"x": -0.5267578366,
				"y": -4.3613697519,
				"z": -0.7301911482,
				"element": "C" 
			},
			{
				"x": -0.4381355406,
				"y": -5.5714575766,
				"z": -0.707257042,
				"element": "O" 
			},
			{
				"x": 0.4937094518,
				"y": -3.440732006,
				"z": -0.0362300533,
				"element": "C" 
			},
			{
				"x": -0.2226131867,
				"y": -2.4209644602,
				"z": 0.8756362693,
				"element": "C" 
			},
			{
				"x": 1.5058713191,
				"y": -4.269795309,
				"z": 0.734161038,
				"element": "C" 
			},
			{
				"x": 2.4910009202,
				"y": -4.7213829197,
				"z": -0.0728193613,
				"element": "O" 
			},
			{
				"x": 1.4589776038,
				"y": -4.507147317,
				"z": 1.9194788821,
				"element": "O" 
			},
			{
				"x": -2.0765417458,
				"y": -0.7659859429,
				"z": 1.2005618609,
				"element": "C" 
			},
			{
				"x": -2.6925314477,
				"y": -1.2385801165,
				"z": 2.140685632,
				"element": "O" 
			},
			{
				"x": -0.8701770992,
				"y": 2.0448460349,
				"z": -0.8215073418,
				"element": "C" 
			},
			{
				"x": -1.0960278998,
				"y": 5.6722674354,
				"z": 0.9251010658,
				"element": "H" 
			},
			{
				"x": -2.5910343263,
				"y": 5.6127635691,
				"z": -0.0558843669,
				"element": "H" 
			},
			{
				"x": -1.1214907154,
				"y": 6.3827729115,
				"z": -0.7107115917,
				"element": "H" 
			},
			{
				"x": -2.5055772147,
				"y": 3.9165213851,
				"z": 1.5451129308,
				"element": "H" 
			},
			{
				"x": -2.9938000041,
				"y": 1.6452487248,
				"z": 2.4345095754,
				"element": "H" 
			},
			{
				"x": -1.1302095255,
				"y": -0.7059383685,
				"z": -1.8722163768,
				"element": "H" 
			},
			{
				"x": 0.3539810637,
				"y": -0.6307252229,
				"z": -0.9394947603,
				"element": "H" 
			},
			{
				"x": -3.0798961491,
				"y": -2.030177471,
				"z": -1.0725721697,
				"element": "H" 
			},
			{
				"x": -2.8531826743,
				"y": -3.1086300991,
				"z": 0.298262498,
				"element": "H" 
			},
			{
				"x": -2.3679993639,
				"y": -4.3603885073,
				"z": -1.8022224591,
				"element": "H" 
			},
			{
				"x": -1.2189029836,
				"y": -3.11317072,
				"z": -2.3082854004,
				"element": "H" 
			},
			{
				"x": 1.0279785865,
				"y": -2.9163362818,
				"z": -0.8403898873,
				"element": "H" 
			},
			{
				"x": 0.5200443822,
				"y": -1.7408763336,
				"z": 1.308234647,
				"element": "H" 
			},
			{
				"x": -0.6790710826,
				"y": -2.9552706214,
				"z": 1.7142622852,
				"element": "H" 
			},
			{
				"x": 3.0568988901,
				"y": -5.2878052497,
				"z": 0.4786697242,
				"element": "H" 
			},
			{
				"x": -0.2838476028,
				"y": 2.1929383687,
				"z": -1.7231312796,
				"element": "H" 
			}
		],
		 "valence_orbital": [ 
			{
				"type": "occ",
				"energy": -0.27591,
				"method": "rhf"
			},
			{
				"type": "occ",
				"energy": -0.26402,
				"method": "rhf"
			},
			{
				"type": "occ",
				"energy": -0.24911,
				"method": "rhf"
			},
			{
				"type": "occ",
				"energy": -0.24239,
				"method": "rhf"
			},
			{
				"type": "occ",
				"energy": -0.23757,
				"method": "rhf"
			},
			{
				"type": "unocc",
				"energy": -0.05381,
				"method": "rhf"
			},
			{
				"type": "unocc",
				"energy": -0.02439,
				"method": "rhf"
			},
			{
				"type": "unocc",
				"energy": -0.01801,
				"method": "rhf"
			},
			{
				"type": "unocc",
				"energy": 0.00783,
				"method": "rhf"
			},
			{
				"type": "unocc",
				"energy": 0.04764,
				"method": "rhf"
			}
		],
		"cosmo_sigma_profile": { 
			"-0.025": 0.0,
			"-0.024": 0.0,
			"-0.023": 0.0,
			"-0.022": 0.0,
			"-0.021": 0.0,
			"-0.02": 0.0,
			"-0.019": 0.0920765233564,
			"-0.018": 0.848116010082,
			"-0.017": 1.17023191279,
			"-0.016": 0.783596363036,
			"-0.015": 0.88354418387,
			"-0.014": 0.348206483971,
			"-0.013": 0.13000717183,
			"-0.012": 1.08073724619,
			"-0.011": 1.29972706618,
			"-0.01": 0.521291210323,
			"-0.009": 1.51490386733,
			"-0.008": 3.84043208825,
			"-0.007": 9.93986133955,
			"-0.006": 25.9590710138,
			"-0.005": 30.5333730182,
			"-0.004": 29.5418039091,
			"-0.003": 26.5741427144,
			"-0.002": 21.0499619714,
			"-0.001": 15.2892390491,
			"0.0": 11.860380617,
			"0.001": 13.43115499,
			"0.002": 17.2538537529,
			"0.003": 19.5059299636,
			"0.004": 12.0828063643,
			"0.005": 7.55622541456,
			"0.006": 8.06529420498,
			"0.007": 6.68483840779,
			"0.008": 8.72019810338,
			"0.009": 8.53349166724,
			"0.01": 8.63886090813,
			"0.011": 10.5427674684,
			"0.012": 8.35825694076,
			"0.013": 3.15555411581,
			"0.014": 0.0459278454354,
			"0.015": 0.0,
			"0.016": 0.0,
			"0.017": 0.0,
			"0.018": 0.0,
			"0.019": 0.0,
			"0.02": 0.0,
			"0.021": 0.0,
			"0.022": 0.0,
			"0.023": 0.0,
			"0.024": 0.0,
			"0.025": 0.0
		}
	}
}
