{
	 "smiles": "CCC=C(C1=CC=CC=C1)C1=CC=CC=C1", 
	 "Tm": 272.15, 
	 "num_atms": 32, 
	 "gaussian": { 
		 "optdone": 1, 
		 "sigma_profile": "yes", 
		 "theory": "DFT", 
		 "functional": "B3LYP", 
		 "basiset": "6-31G**", 
		 "properties": { 
			 "R2extent": 4151.8198, 
			 "electric_dipole_moment_norm": 0.350254821523, 
			 "electric_quadrupole_moment_norm": 4.36217730039, 
			 "total_energy": -619.343449808, 
			 "HOMO_LUMO_gap": 0.18692, 
			 "cosmo_polarized_energy": -5.18, 
			 "cosmo_cavitation_energy": 34.86, 
			 "cosmo_dispersion_energy": -24.19, 
			 "cosmo_repulsion_energy": 1.93, 
			 "cosmo_total_nonelectrostatic_energy": 12.6, 
			 "SMD_solvation_energy": 5.78 
		},
		"coords": [
			{
				"x": -0.2503251841,
				"y": -0.5965698444,
				"z": -4.2450033652,
				"element": "C" 
			},
			{
				"x": 0.6307984862,
				"y": -0.3710766335,
				"z": -3.0033095294,
				"element": "C" 
			},
			{
				"x": -0.0079670218,
				"y": 0.5814284967,
				"z": -2.0296385715,
				"element": "C" 
			},
			{
				"x": -0.2317332465,
				"y": 0.4107004871,
				"z": -0.7086511526,
				"element": "C" 
			},
			{
				"x": -0.9939023669,
				"y": 1.4382227714,
				"z": 0.0605904855,
				"element": "C" 
			},
			{
				"x": -0.6239973762,
				"y": 1.772566614,
				"z": 1.375679337,
				"element": "C" 
			},
			{
				"x": -1.3084707486,
				"y": 2.7581399952,
				"z": 2.0852616913,
				"element": "C" 
			},
			{
				"x": -2.3872101451,
				"y": 3.4259365961,
				"z": 1.5018225158,
				"element": "C" 
			},
			{
				"x": -2.7774509001,
				"y": 3.0942790849,
				"z": 0.2030309218,
				"element": "C" 
			},
			{
				"x": -2.0920441977,
				"y": 2.108838187,
				"z": -0.5064417852,
				"element": "C" 
			},
			{
				"x": 0.2613410521,
				"y": -0.7780677105,
				"z": 0.0501180497,
				"element": "C" 
			},
			{
				"x": 1.6120698317,
				"y": -1.1609633384,
				"z": 0.0138349745,
				"element": "C" 
			},
			{
				"x": 2.0615595726,
				"y": -2.2755136751,
				"z": 0.7243841657,
				"element": "C" 
			},
			{
				"x": 1.1680757359,
				"y": -3.0276044308,
				"z": 1.4878344182,
				"element": "C" 
			},
			{
				"x": -0.1767972016,
				"y": -2.6524185174,
				"z": 1.5425477214,
				"element": "C" 
			},
			{
				"x": -0.6230111329,
				"y": -1.5357845476,
				"z": 0.8379382718,
				"element": "C" 
			},
			{
				"x": -0.4636225511,
				"y": 0.3480214671,
				"z": -4.757934494,
				"element": "H" 
			},
			{
				"x": -1.2082428681,
				"y": -1.0492249905,
				"z": -3.9692582497,
				"element": "H" 
			},
			{
				"x": 0.2448938368,
				"y": -1.2607179878,
				"z": -4.9607382433,
				"element": "H" 
			},
			{
				"x": 0.8468094575,
				"y": -1.3291525752,
				"z": -2.522371578,
				"element": "H" 
			},
			{
				"x": 1.5982322448,
				"y": 0.036627579,
				"z": -3.3331979348,
				"element": "H" 
			},
			{
				"x": -0.3580044705,
				"y": 1.5134714892,
				"z": -2.4741279777,
				"element": "H" 
			},
			{
				"x": 0.2145827468,
				"y": 1.2606852892,
				"z": 1.8375271079,
				"element": "H" 
			},
			{
				"x": -0.9971336277,
				"y": 3.0061656764,
				"z": 3.0962966121,
				"element": "H" 
			},
			{
				"x": -2.9241010173,
				"y": 4.189757454,
				"z": 2.0570591457,
				"element": "H" 
			},
			{
				"x": -3.6266694764,
				"y": 3.5939841935,
				"z": -0.255057001,
				"element": "H" 
			},
			{
				"x": -2.4213169642,
				"y": 1.8361259958,
				"z": -1.504597889,
				"element": "H" 
			},
			{
				"x": 2.3147360174,
				"y": -0.568008714,
				"z": -0.563951092,
				"element": "H" 
			},
			{
				"x": 3.1118809344,
				"y": -2.5509434072,
				"z": 0.6856130757,
				"element": "H" 
			},
			{
				"x": 1.5166874412,
				"y": -3.8948886,
				"z": 2.0412806455,
				"element": "H" 
			},
			{
				"x": -0.8792226906,
				"y": -3.2302018028,
				"z": 2.1369114442,
				"element": "H" 
			},
			{
				"x": -1.6681441702,
				"y": -1.2449146013,
				"z": 0.8896482798,
				"element": "H" 
			}
		],
		 "valence_orbital": [ 
			{
				"type": "occ",
				"energy": -0.27837,
				"method": "rhf"
			},
			{
				"type": "occ",
				"energy": -0.25112,
				"method": "rhf"
			},
			{
				"type": "occ",
				"energy": -0.24648,
				"method": "rhf"
			},
			{
				"type": "occ",
				"energy": -0.24392,
				"method": "rhf"
			},
			{
				"type": "occ",
				"energy": -0.21119,
				"method": "rhf"
			},
			{
				"type": "unocc",
				"energy": -0.02427,
				"method": "rhf"
			},
			{
				"type": "unocc",
				"energy": -0.00378,
				"method": "rhf"
			},
			{
				"type": "unocc",
				"energy": -0.00231,
				"method": "rhf"
			},
			{
				"type": "unocc",
				"energy": 0.0089,
				"method": "rhf"
			},
			{
				"type": "unocc",
				"energy": 0.06034,
				"method": "rhf"
			}
		],
		"cosmo_sigma_profile": { 
			"-0.025": 0.0,
			"-0.024": 0.0,
			"-0.023": 0.0,
			"-0.022": 0.0,
			"-0.021": 0.0,
			"-0.02": 0.0,
			"-0.019": 0.0,
			"-0.018": 0.0,
			"-0.017": 0.0,
			"-0.016": 0.0,
			"-0.015": 0.0,
			"-0.014": 0.0,
			"-0.013": 0.0,
			"-0.012": 0.0,
			"-0.011": 0.0,
			"-0.01": 0.0,
			"-0.009": 0.0,
			"-0.008": 0.0,
			"-0.007": 0.0,
			"-0.006": 4.22425285309,
			"-0.005": 17.2254887396,
			"-0.004": 23.3028284234,
			"-0.003": 31.0681697715,
			"-0.002": 27.089364426,
			"-0.001": 27.8093551519,
			"0.0": 28.7668396578,
			"0.001": 26.7008792577,
			"0.002": 19.6509947918,
			"0.003": 19.9603327615,
			"0.004": 18.56072391,
			"0.005": 17.9654634293,
			"0.006": 13.4848924746,
			"0.007": 1.21889217795,
			"0.008": 0.0,
			"0.009": 0.0,
			"0.01": 0.0,
			"0.011": 0.0,
			"0.012": 0.0,
			"0.013": 0.0,
			"0.014": 0.0,
			"0.015": 0.0,
			"0.016": 0.0,
			"0.017": 0.0,
			"0.018": 0.0,
			"0.019": 0.0,
			"0.02": 0.0,
			"0.021": 0.0,
			"0.022": 0.0,
			"0.023": 0.0,
			"0.024": 0.0,
			"0.025": 0.0
		}
	}
}
