{
	 "smiles": "CC(O)CC1=NC2=C(C=CC=C2)C=C1", 
	 "Tm": 338.15, 
	 "num_atms": 27, 
	 "gaussian": { 
		 "optdone": 1, 
		 "sigma_profile": "yes", 
		 "theory": "DFT", 
		 "functional": "B3LYP", 
		 "basiset": "6-31G**", 
		 "properties": { 
			 "R2extent": 3561.4063, 
			 "electric_dipole_moment_norm": 1.88669971644, 
			 "electric_quadrupole_moment_norm": 8.28309793495, 
			 "total_energy": -595.100235531, 
			 "HOMO_LUMO_gap": 0.17786, 
			 "cosmo_polarized_energy": -9.96, 
			 "cosmo_cavitation_energy": 29.73, 
			 "cosmo_dispersion_energy": -21.49, 
			 "cosmo_repulsion_energy": 1.68, 
			 "cosmo_total_nonelectrostatic_energy": 9.92, 
			 "SMD_solvation_energy": 3.34 
		},
		"coords": [
			{
				"x": 0.5756794419,
				"y": 2.1335830348,
				"z": 1.5523865645,
				"element": "C" 
			},
			{
				"x": -0.3026129834,
				"y": 1.457556266,
				"z": 2.6051971456,
				"element": "C" 
			},
			{
				"x": -1.6731204683,
				"y": 1.8323323094,
				"z": 2.4608506786,
				"element": "O" 
			},
			{
				"x": -0.1395407861,
				"y": -0.0847270629,
				"z": 2.6453152434,
				"element": "C" 
			},
			{
				"x": -0.6146000347,
				"y": -0.7812296106,
				"z": 1.3913619387,
				"element": "C" 
			},
			{
				"x": 0.2976497624,
				"y": -1.1191461783,
				"z": 0.4940204277,
				"element": "N" 
			},
			{
				"x": -0.1085187803,
				"y": -1.7292794792,
				"z": -0.6581860206,
				"element": "C" 
			},
			{
				"x": -1.4829080184,
				"y": -2.0132085881,
				"z": -0.9392812574,
				"element": "C" 
			},
			{
				"x": -1.8265590996,
				"y": -2.6514079591,
				"z": -2.1596893011,
				"element": "C" 
			},
			{
				"x": -0.8485489828,
				"y": -2.9939774298,
				"z": -3.066613633,
				"element": "C" 
			},
			{
				"x": 0.5130150744,
				"y": -2.7129446148,
				"z": -2.7898271018,
				"element": "C" 
			},
			{
				"x": 0.8765645486,
				"y": -2.0956147738,
				"z": -1.613725997,
				"element": "C" 
			},
			{
				"x": -2.4337980251,
				"y": -1.6328961908,
				"z": 0.0417116131,
				"element": "C" 
			},
			{
				"x": -2.0082344262,
				"y": -1.0238546018,
				"z": 1.1971503978,
				"element": "C" 
			},
			{
				"x": 0.4191338712,
				"y": 3.2158588006,
				"z": 1.5779796475,
				"element": "H" 
			},
			{
				"x": 1.6360301088,
				"y": 1.9284511261,
				"z": 1.7304864256,
				"element": "H" 
			},
			{
				"x": 0.339177163,
				"y": 1.7702287793,
				"z": 0.5461433235,
				"element": "H" 
			},
			{
				"x": -0.0208173839,
				"y": 1.8344976712,
				"z": 3.5953815041,
				"element": "H" 
			},
			{
				"x": -1.9312371791,
				"y": 1.6415167644,
				"z": 1.5484583106,
				"element": "H" 
			},
			{
				"x": 0.9154461547,
				"y": -0.3297368739,
				"z": 2.7993149228,
				"element": "H" 
			},
			{
				"x": -0.7078479683,
				"y": -0.4528525414,
				"z": 3.5068763587,
				"element": "H" 
			},
			{
				"x": -2.8725872709,
				"y": -2.8648247841,
				"z": -2.3655703668,
				"element": "H" 
			},
			{
				"x": -1.1170158606,
				"y": -3.4818389452,
				"z": -3.9990368205,
				"element": "H" 
			},
			{
				"x": 1.2730456663,
				"y": -2.9894134622,
				"z": -3.5149956929,
				"element": "H" 
			},
			{
				"x": 1.9122697917,
				"y": -1.8714302041,
				"z": -1.3798981605,
				"element": "H" 
			},
			{
				"x": -3.4890276812,
				"y": -1.8328552944,
				"z": -0.1291646342,
				"element": "H" 
			},
			{
				"x": -2.7101366341,
				"y": -0.7265861572,
				"z": 1.9694544837,
				"element": "H" 
			}
		],
		 "valence_orbital": [ 
			{
				"type": "occ",
				"energy": -0.30608,
				"method": "rhf"
			},
			{
				"type": "occ",
				"energy": -0.26703,
				"method": "rhf"
			},
			{
				"type": "occ",
				"energy": -0.25137,
				"method": "rhf"
			},
			{
				"type": "occ",
				"energy": -0.24709,
				"method": "rhf"
			},
			{
				"type": "occ",
				"energy": -0.23137,
				"method": "rhf"
			},
			{
				"type": "unocc",
				"energy": -0.05351,
				"method": "rhf"
			},
			{
				"type": "unocc",
				"energy": -0.01723,
				"method": "rhf"
			},
			{
				"type": "unocc",
				"energy": 0.01938,
				"method": "rhf"
			},
			{
				"type": "unocc",
				"energy": 0.08022,
				"method": "rhf"
			},
			{
				"type": "unocc",
				"energy": 0.09097,
				"method": "rhf"
			}
		],
		"cosmo_sigma_profile": { 
			"-0.025": 0.0,
			"-0.024": 0.0,
			"-0.023": 0.0,
			"-0.022": 0.0,
			"-0.021": 0.0,
			"-0.02": 0.0,
			"-0.019": 0.0,
			"-0.018": 0.0,
			"-0.017": 0.0,
			"-0.016": 0.0,
			"-0.015": 0.0,
			"-0.014": 0.0468677301817,
			"-0.013": 0.551278047344,
			"-0.012": 0.528685202326,
			"-0.011": 0.747171109173,
			"-0.01": 1.49683444825,
			"-0.009": 0.892669693704,
			"-0.008": 0.548488686439,
			"-0.007": 4.644737082,
			"-0.006": 11.4164085211,
			"-0.005": 13.1767832033,
			"-0.004": 22.0755562862,
			"-0.003": 23.642356384,
			"-0.002": 18.9349508489,
			"-0.001": 19.6835966673,
			"0.0": 17.4957736296,
			"0.001": 18.9164000144,
			"0.002": 17.512967605,
			"0.003": 17.9628755316,
			"0.004": 14.5368853118,
			"0.005": 8.48314207425,
			"0.006": 2.07943118008,
			"0.007": 2.48991411298,
			"0.008": 3.80310458592,
			"0.009": 1.83380882751,
			"0.01": 1.1332443627,
			"0.011": 1.9683629299,
			"0.012": 2.31807680496,
			"0.013": 2.27451333854,
			"0.014": 2.71746309954,
			"0.015": 1.1839878947,
			"0.016": 0.182287913294,
			"0.017": 0.0,
			"0.018": 0.0,
			"0.019": 0.0,
			"0.02": 0.0,
			"0.021": 0.0,
			"0.022": 0.0,
			"0.023": 0.0,
			"0.024": 0.0,
			"0.025": 0.0
		}
	}
}
