{
	 "smiles": "O=C1NC=NC2=C1C=C1C=CC=CC1=C2", 
	 "Tm": 556.15, 
	 "num_atms": 23, 
	 "gaussian": { 
		 "optdone": 1, 
		 "sigma_profile": "yes", 
		 "theory": "DFT", 
		 "functional": "B3LYP", 
		 "basiset": "6-31G**", 
		 "properties": { 
			 "R2extent": 3453.2928, 
			 "electric_dipole_moment_norm": 1.21293100381, 
			 "electric_quadrupole_moment_norm": 21.2002136421, 
			 "total_energy": -646.861347999, 
			 "HOMO_LUMO_gap": 0.14987, 
			 "cosmo_polarized_energy": -13.96, 
			 "cosmo_cavitation_energy": 27.34, 
			 "cosmo_dispersion_energy": -20.67, 
			 "cosmo_repulsion_energy": 1.56, 
			 "cosmo_total_nonelectrostatic_energy": 8.23, 
			 "SMD_solvation_energy": 3.75 
		},
		"coords": [
			{
				"x": -3.4531800724,
				"y": 0.9325346214,
				"z": 2.2318589001,
				"element": "O" 
			},
			{
				"x": -3.1809607805,
				"y": 0.8290528079,
				"z": 1.0446394152,
				"element": "C" 
			},
			{
				"x": -4.1460877861,
				"y": 1.0758384535,
				"z": 0.0602125135,
				"element": "N" 
			},
			{
				"x": -3.9055296965,
				"y": 0.9769264976,
				"z": -1.2933188732,
				"element": "C" 
			},
			{
				"x": -2.7798921221,
				"y": 0.6496243472,
				"z": -1.8235565998,
				"element": "N" 
			},
			{
				"x": -1.7254504792,
				"y": 0.3748425747,
				"z": -0.9509050793,
				"element": "C" 
			},
			{
				"x": -1.8769890216,
				"y": 0.4505189998,
				"z": 0.4744141765,
				"element": "C" 
			},
			{
				"x": -0.8124515803,
				"y": 0.1719771759,
				"z": 1.3127090673,
				"element": "C" 
			},
			{
				"x": 0.4459018288,
				"y": -0.1925227621,
				"z": 0.7886967992,
				"element": "C" 
			},
			{
				"x": 1.5594558212,
				"y": -0.4847628609,
				"z": 1.6266923457,
				"element": "C" 
			},
			{
				"x": 2.7725607885,
				"y": -0.8369614418,
				"z": 1.0859492516,
				"element": "C" 
			},
			{
				"x": 2.9323607005,
				"y": -0.9145134348,
				"z": -0.3235165219,
				"element": "C" 
			},
			{
				"x": 1.8797128465,
				"y": -0.6393626,
				"z": -1.1631386622,
				"element": "C" 
			},
			{
				"x": 0.6066795716,
				"y": -0.2707936792,
				"z": -0.6400558907,
				"element": "C" 
			},
			{
				"x": -0.4925992829,
				"y": 0.0174378218,
				"z": -1.4777132598,
				"element": "C" 
			},
			{
				"x": -5.0624656632,
				"y": 1.3401334023,
				"z": 0.4000312358,
				"element": "H" 
			},
			{
				"x": -4.7590103225,
				"y": 1.2007855699,
				"z": -1.9307113332,
				"element": "H" 
			},
			{
				"x": -0.9644279252,
				"y": 0.2395568865,
				"z": 2.3859223065,
				"element": "H" 
			},
			{
				"x": 1.4299039163,
				"y": -0.4234083673,
				"z": 2.7039265391,
				"element": "H" 
			},
			{
				"x": 3.6157038363,
				"y": -1.0579236375,
				"z": 1.7336304371,
				"element": "H" 
			},
			{
				"x": 3.8971986994,
				"y": -1.194249735,
				"z": -0.7366347649,
				"element": "H" 
			},
			{
				"x": 2.0027364327,
				"y": -0.6989155757,
				"z": -2.2411608558,
				"element": "H" 
			},
			{
				"x": -0.3890697093,
				"y": -0.0367150642,
				"z": -2.5570711466,
				"element": "H" 
			}
		],
		 "valence_orbital": [ 
			{
				"type": "occ",
				"energy": -0.27931,
				"method": "rhf"
			},
			{
				"type": "occ",
				"energy": -0.27811,
				"method": "rhf"
			},
			{
				"type": "occ",
				"energy": -0.26611,
				"method": "rhf"
			},
			{
				"type": "occ",
				"energy": -0.2433,
				"method": "rhf"
			},
			{
				"type": "occ",
				"energy": -0.21462,
				"method": "rhf"
			},
			{
				"type": "unocc",
				"energy": -0.06475,
				"method": "rhf"
			},
			{
				"type": "unocc",
				"energy": -0.03801,
				"method": "rhf"
			},
			{
				"type": "unocc",
				"energy": 0.0022,
				"method": "rhf"
			},
			{
				"type": "unocc",
				"energy": 0.03315,
				"method": "rhf"
			},
			{
				"type": "unocc",
				"energy": 0.04667,
				"method": "rhf"
			}
		],
		"cosmo_sigma_profile": { 
			"-0.025": 0.0,
			"-0.024": 0.0,
			"-0.023": 0.0,
			"-0.022": 0.0,
			"-0.021": 0.0,
			"-0.02": 0.0,
			"-0.019": 0.0,
			"-0.018": 0.0,
			"-0.017": 0.411268158484,
			"-0.016": 1.5395391318,
			"-0.015": 1.57865794541,
			"-0.014": 1.19759224139,
			"-0.013": 1.05985882563,
			"-0.012": 1.41887004417,
			"-0.011": 1.09143343623,
			"-0.01": 2.60016795686,
			"-0.009": 2.961713913,
			"-0.008": 2.19248429733,
			"-0.007": 5.20254287924,
			"-0.006": 13.8357105516,
			"-0.005": 11.5422874518,
			"-0.004": 16.1179050087,
			"-0.003": 12.1484085768,
			"-0.002": 13.4871874027,
			"-0.001": 13.8507452567,
			"0.0": 10.9842374676,
			"0.001": 15.1702803825,
			"0.002": 21.9430802836,
			"0.003": 22.6174478279,
			"0.004": 13.8720884757,
			"0.005": 5.0126830601,
			"0.006": 3.15525321476,
			"0.007": 2.92467109223,
			"0.008": 2.5588079517,
			"0.009": 2.50476209393,
			"0.01": 2.27951582963,
			"0.011": 2.44401986298,
			"0.012": 5.94690832605,
			"0.013": 4.71638489929,
			"0.014": 1.09722237073,
			"0.015": 0.79757857692,
			"0.016": 0.199694165554,
			"0.017": 0.0,
			"0.018": 0.0,
			"0.019": 0.0,
			"0.02": 0.0,
			"0.021": 0.0,
			"0.022": 0.0,
			"0.023": 0.0,
			"0.024": 0.0,
			"0.025": 0.0
		}
	}
}
