{
	 "smiles": "CCOC(=O)NC1=C(C(C)=O)C(C)=NS1", 
	 "Tm": 354.15, 
	 "num_atms": 27, 
	 "gaussian": { 
		 "optdone": 1, 
		 "sigma_profile": "yes", 
		 "theory": "DFT", 
		 "functional": "B3LYP", 
		 "basiset": "6-31G**", 
		 "properties": { 
			 "R2extent": 4442.0544, 
			 "electric_dipole_moment_norm": 6.04645699315, 
			 "electric_quadrupole_moment_norm": 9.03294317485, 
			 "total_energy": -1083.57110114, 
			 "HOMO_LUMO_gap": 0.18696, 
			 "cosmo_polarized_energy": -16.15, 
			 "cosmo_cavitation_energy": 32.36, 
			 "cosmo_dispersion_energy": -24.08, 
			 "cosmo_repulsion_energy": 1.85, 
			 "cosmo_total_nonelectrostatic_energy": 10.14, 
			 "SMD_solvation_energy": 5.88 
		},
		"coords": [
			{
				"x": 1.7572295187,
				"y": 0.0248405495,
				"z": -4.6221464001,
				"element": "C" 
			},
			{
				"x": 2.6198822084,
				"y": 0.0277604875,
				"z": -3.3709352578,
				"element": "C" 
			},
			{
				"x": 1.8977340771,
				"y": -0.5064170402,
				"z": -2.2290392817,
				"element": "O" 
			},
			{
				"x": 1.1167474132,
				"y": 0.3665767796,
				"z": -1.5654806506,
				"element": "C" 
			},
			{
				"x": 0.9770307154,
				"y": 1.5476164705,
				"z": -1.8180427228,
				"element": "O" 
			},
			{
				"x": 0.4836739479,
				"y": -0.2859809488,
				"z": -0.5253233474,
				"element": "N" 
			},
			{
				"x": -0.3888777329,
				"y": 0.3259810832,
				"z": 0.3546327954,
				"element": "C" 
			},
			{
				"x": -1.0756058563,
				"y": -0.2444726762,
				"z": 1.4287303192,
				"element": "C" 
			},
			{
				"x": -1.0439639064,
				"y": -1.6470717075,
				"z": 1.8986206518,
				"element": "C" 
			},
			{
				"x": -0.1782950698,
				"y": -2.6860464627,
				"z": 1.1904533156,
				"element": "C" 
			},
			{
				"x": -1.7089245986,
				"y": -2.0054055052,
				"z": 2.863250721,
				"element": "O" 
			},
			{
				"x": -1.8834262038,
				"y": 0.7772300096,
				"z": 2.0762342968,
				"element": "C" 
			},
			{
				"x": -2.7710522386,
				"y": 0.5716367729,
				"z": 3.2707970459,
				"element": "C" 
			},
			{
				"x": -1.8211125017,
				"y": 1.981584514,
				"z": 1.5595527891,
				"element": "N" 
			},
			{
				"x": -0.7816600656,
				"y": 2.0161273236,
				"z": 0.2363347411,
				"element": "S" 
			},
			{
				"x": 0.9081960941,
				"y": 0.7030241331,
				"z": -4.5070628245,
				"element": "H" 
			},
			{
				"x": 1.384940041,
				"y": -0.9806638579,
				"z": -4.838639669,
				"element": "H" 
			},
			{
				"x": 2.3509282786,
				"y": 0.3626445719,
				"z": -5.477821893,
				"element": "H" 
			},
			{
				"x": 2.9630073524,
				"y": 1.0350352687,
				"z": -3.1247268174,
				"element": "H" 
			},
			{
				"x": 3.4815981152,
				"y": -0.635446481,
				"z": -3.4709193573,
				"element": "H" 
			},
			{
				"x": 0.6868492051,
				"y": -1.2682451624,
				"z": -0.4195626192,
				"element": "H" 
			},
			{
				"x": 0.8854721255,
				"y": -2.4194159316,
				"z": 1.2268049221,
				"element": "H" 
			},
			{
				"x": -0.3100758972,
				"y": -3.6377165172,
				"z": 1.7062098908,
				"element": "H" 
			},
			{
				"x": -0.4793956063,
				"y": -2.8179999307,
				"z": 0.1435606955,
				"element": "H" 
			},
			{
				"x": -3.2416767231,
				"y": 1.5239289551,
				"z": 3.5224684054,
				"element": "H" 
			},
			{
				"x": -2.2009608899,
				"y": 0.2007089197,
				"z": 4.1264974614,
				"element": "H" 
			},
			{
				"x": -3.5383618025,
				"y": -0.1798136174,
				"z": 3.0670527897,
				"element": "H" 
			}
		],
		 "valence_orbital": [ 
			{
				"type": "occ",
				"energy": -0.3054,
				"method": "rhf"
			},
			{
				"type": "occ",
				"energy": -0.28176,
				"method": "rhf"
			},
			{
				"type": "occ",
				"energy": -0.25448,
				"method": "rhf"
			},
			{
				"type": "occ",
				"energy": -0.2514,
				"method": "rhf"
			},
			{
				"type": "occ",
				"energy": -0.24084,
				"method": "rhf"
			},
			{
				"type": "unocc",
				"energy": -0.05388,
				"method": "rhf"
			},
			{
				"type": "unocc",
				"energy": -0.00629,
				"method": "rhf"
			},
			{
				"type": "unocc",
				"energy": 0.02491,
				"method": "rhf"
			},
			{
				"type": "unocc",
				"energy": 0.03391,
				"method": "rhf"
			},
			{
				"type": "unocc",
				"energy": 0.06166,
				"method": "rhf"
			}
		],
		"cosmo_sigma_profile": { 
			"-0.025": 0.0,
			"-0.024": 0.0,
			"-0.023": 0.0,
			"-0.022": 0.0,
			"-0.021": 0.0,
			"-0.02": 0.0,
			"-0.019": 0.0,
			"-0.018": 0.0,
			"-0.017": 0.0,
			"-0.016": 0.0,
			"-0.015": 0.0,
			"-0.014": 0.421132073208,
			"-0.013": 1.23531971721,
			"-0.012": 1.65233206841,
			"-0.011": 1.55911960659,
			"-0.01": 2.06682414812,
			"-0.009": 3.24262716724,
			"-0.008": 3.00244761247,
			"-0.007": 3.57863676243,
			"-0.006": 7.64334593167,
			"-0.005": 11.9773853694,
			"-0.004": 23.8401868658,
			"-0.003": 26.2842785926,
			"-0.002": 25.3490016832,
			"-0.001": 26.794757244,
			"0.0": 28.0979800433,
			"0.001": 13.2522554806,
			"0.002": 9.95687828242,
			"0.003": 12.4783390832,
			"0.004": 9.42686055928,
			"0.005": 7.1497753796,
			"0.006": 6.54007795307,
			"0.007": 4.78316859031,
			"0.008": 4.93622498936,
			"0.009": 4.99856756171,
			"0.01": 4.96877448532,
			"0.011": 4.97206919525,
			"0.012": 4.10141011297,
			"0.013": 2.6302055198,
			"0.014": 1.08455084389,
			"0.015": 0.604329580827,
			"0.016": 0.0142814828418,
			"0.017": 0.0,
			"0.018": 0.0,
			"0.019": 0.0,
			"0.02": 0.0,
			"0.021": 0.0,
			"0.022": 0.0,
			"0.023": 0.0,
			"0.024": 0.0,
			"0.025": 0.0
		}
	}
}
