{
	 "smiles": "CC(=O)NC1=CC(NC(=O)CCl)=CC=C1", 
	 "Tm": 447.15, 
	 "num_atms": 26, 
	 "gaussian": { 
		 "optdone": 1, 
		 "sigma_profile": "yes", 
		 "theory": "DFT", 
		 "functional": "B3LYP", 
		 "basiset": "6-31G**", 
		 "properties": { 
			 "R2extent": 5390.2365, 
			 "electric_dipole_moment_norm": 2.01739822048, 
			 "electric_quadrupole_moment_norm": 19.3492969278, 
			 "total_energy": -1107.87299156, 
			 "HOMO_LUMO_gap": 0.1961, 
			 "cosmo_polarized_energy": -17.84, 
			 "cosmo_cavitation_energy": 32.26, 
			 "cosmo_dispersion_energy": -23.34, 
			 "cosmo_repulsion_energy": 1.85, 
			 "cosmo_total_nonelectrostatic_energy": 10.77, 
			 "SMD_solvation_energy": 6.6 
		},
		"coords": [
			{
				"x": -0.6961354935,
				"y": 2.9498250492,
				"z": -2.1575803234,
				"element": "C" 
			},
			{
				"x": -0.771297336,
				"y": 1.7897354716,
				"z": -3.1322444161,
				"element": "C" 
			},
			{
				"x": -0.6408076418,
				"y": 1.9486387406,
				"z": -4.3368752376,
				"element": "O" 
			},
			{
				"x": -1.0123431126,
				"y": 0.5154285873,
				"z": -2.6399443713,
				"element": "N" 
			},
			{
				"x": -1.2367419253,
				"y": 0.0321265775,
				"z": -1.3323224604,
				"element": "C" 
			},
			{
				"x": -0.4791849766,
				"y": 0.4627428865,
				"z": -0.2389425073,
				"element": "C" 
			},
			{
				"x": -0.7217658504,
				"y": -0.0534275352,
				"z": 1.0430014417,
				"element": "C" 
			},
			{
				"x": 0.0824350377,
				"y": 0.4502383745,
				"z": 2.089495187,
				"element": "N" 
			},
			{
				"x": 0.0643066739,
				"y": 0.1113384512,
				"z": 3.4083869117,
				"element": "C" 
			},
			{
				"x": -0.6725803414,
				"y": -0.7077096684,
				"z": 3.9391153709,
				"element": "O" 
			},
			{
				"x": 1.0662841097,
				"y": 0.8244594611,
				"z": 4.3251612463,
				"element": "C" 
			},
			{
				"x": 2.1625649465,
				"y": 2.0564018388,
				"z": 3.5628831706,
				"element": "Cl" 
			},
			{
				"x": -1.7033250926,
				"y": -1.0347302489,
				"z": 1.2363313659,
				"element": "C" 
			},
			{
				"x": -2.4292621807,
				"y": -1.4783354494,
				"z": 0.1305320705,
				"element": "C" 
			},
			{
				"x": -2.2154341276,
				"y": -0.9557945584,
				"z": -1.141069762,
				"element": "C" 
			},
			{
				"x": -0.9607431862,
				"y": 3.8517538445,
				"z": -2.7104983796,
				"element": "H" 
			},
			{
				"x": -1.3551058705,
				"y": 2.8292240312,
				"z": -1.2951342678,
				"element": "H" 
			},
			{
				"x": 0.3291855821,
				"y": 3.072066971,
				"z": -1.7919719301,
				"element": "H" 
			},
			{
				"x": -1.1663770466,
				"y": -0.1429998963,
				"z": -3.3942029825,
				"element": "H" 
			},
			{
				"x": 0.321600263,
				"y": 1.1795511976,
				"z": -0.3848049518,
				"element": "H" 
			},
			{
				"x": 0.7625821377,
				"y": 1.1526639408,
				"z": 1.8280038767,
				"element": "H" 
			},
			{
				"x": 1.7039312978,
				"y": 0.0685244195,
				"z": 4.783983314,
				"element": "H" 
			},
			{
				"x": 0.505354924,
				"y": 1.3350695894,
				"z": 5.1080847087,
				"element": "H" 
			},
			{
				"x": -1.8775831578,
				"y": -1.4342788934,
				"z": 2.2245609083,
				"element": "H" 
			},
			{
				"x": -3.1884644745,
				"y": -2.2418962946,
				"z": 0.2716058984,
				"element": "H" 
			},
			{
				"x": -2.8067931582,
				"y": -1.295416888,
				"z": -1.9862538808,
				"element": "H" 
			}
		],
		 "valence_orbital": [ 
			{
				"type": "occ",
				"energy": -0.29533,
				"method": "rhf"
			},
			{
				"type": "occ",
				"energy": -0.27369,
				"method": "rhf"
			},
			{
				"type": "occ",
				"energy": -0.25627,
				"method": "rhf"
			},
			{
				"type": "occ",
				"energy": -0.24573,
				"method": "rhf"
			},
			{
				"type": "occ",
				"energy": -0.22818,
				"method": "rhf"
			},
			{
				"type": "unocc",
				"energy": -0.03208,
				"method": "rhf"
			},
			{
				"type": "unocc",
				"energy": -0.0197,
				"method": "rhf"
			},
			{
				"type": "unocc",
				"energy": 0.00165,
				"method": "rhf"
			},
			{
				"type": "unocc",
				"energy": 0.01726,
				"method": "rhf"
			},
			{
				"type": "unocc",
				"energy": 0.03789,
				"method": "rhf"
			}
		],
		"cosmo_sigma_profile": { 
			"-0.025": 0.0,
			"-0.024": 0.0,
			"-0.023": 0.0,
			"-0.022": 0.0,
			"-0.021": 0.0,
			"-0.02": 0.0,
			"-0.019": 0.0,
			"-0.018": 0.0,
			"-0.017": 0.0,
			"-0.016": 0.0,
			"-0.015": 0.0,
			"-0.014": 0.648773991648,
			"-0.013": 1.83890530191,
			"-0.012": 2.4131311041,
			"-0.011": 2.46725988062,
			"-0.01": 1.96971129822,
			"-0.009": 7.29038825408,
			"-0.008": 8.40330778178,
			"-0.007": 9.63128993504,
			"-0.006": 12.2047080948,
			"-0.005": 16.3906526136,
			"-0.004": 15.6816796806,
			"-0.003": 15.7934723526,
			"-0.002": 16.3414118658,
			"-0.001": 17.0846402257,
			"0.0": 14.8037125496,
			"0.001": 15.2708386253,
			"0.002": 15.9346367744,
			"0.003": 18.7357002699,
			"0.004": 16.1501759315,
			"0.005": 14.5842338997,
			"0.006": 3.88822624083,
			"0.007": 2.23176426412,
			"0.008": 3.10150921852,
			"0.009": 3.02567645819,
			"0.01": 2.65714671332,
			"0.011": 4.25379226052,
			"0.012": 5.28048926642,
			"0.013": 6.71498794107,
			"0.014": 3.94850204401,
			"0.015": 0.51979015417,
			"0.016": 0.0,
			"0.017": 0.0,
			"0.018": 0.0,
			"0.019": 0.0,
			"0.02": 0.0,
			"0.021": 0.0,
			"0.022": 0.0,
			"0.023": 0.0,
			"0.024": 0.0,
			"0.025": 0.0
		}
	}
}
