{
	 "smiles": "ON=C(C1=CC=C(F)C=C1)C1=CC=C(F)C=C1", 
	 "Tm": 413.15, 
	 "num_atms": 26, 
	 "gaussian": { 
		 "optdone": 1, 
		 "sigma_profile": "yes", 
		 "theory": "DFT", 
		 "functional": "B3LYP", 
		 "basiset": "6-31G**", 
		 "properties": { 
			 "R2extent": 5540.2047, 
			 "electric_dipole_moment_norm": 0.955826187128, 
			 "electric_quadrupole_moment_norm": 13.2663848546, 
			 "total_energy": -830.393800117, 
			 "HOMO_LUMO_gap": 0.17789, 
			 "cosmo_polarized_energy": -9.11, 
			 "cosmo_cavitation_energy": 32.01, 
			 "cosmo_dispersion_energy": -22.62, 
			 "cosmo_repulsion_energy": 1.72, 
			 "cosmo_total_nonelectrostatic_energy": 11.11, 
			 "SMD_solvation_energy": 6.52 
		},
		"coords": [
			{
				"x": -0.7752653929,
				"y": -3.7737093676,
				"z": -1.2024893479,
				"element": "O" 
			},
			{
				"x": -0.4692898887,
				"y": -3.331751215,
				"z": 0.0909704764,
				"element": "N" 
			},
			{
				"x": -0.5513472834,
				"y": -2.0497856387,
				"z": 0.2299040631,
				"element": "C" 
			},
			{
				"x": -0.292692324,
				"y": -1.5513652793,
				"z": 1.6092819988,
				"element": "C" 
			},
			{
				"x": 0.2315263719,
				"y": -0.266669961,
				"z": 1.828939082,
				"element": "C" 
			},
			{
				"x": 0.5078522778,
				"y": 0.1869993449,
				"z": 3.1180157339,
				"element": "C" 
			},
			{
				"x": 0.254060979,
				"y": -0.6568062639,
				"z": 4.1921419075,
				"element": "C" 
			},
			{
				"x": 0.5124214139,
				"y": -0.2231656085,
				"z": 5.4427428956,
				"element": "F" 
			},
			{
				"x": -0.265596163,
				"y": -1.9358264184,
				"z": 4.0143940434,
				"element": "C" 
			},
			{
				"x": -0.537106873,
				"y": -2.3754832788,
				"z": 2.7230116353,
				"element": "C" 
			},
			{
				"x": -0.8821843132,
				"y": -1.0830599917,
				"z": -0.8561091499,
				"element": "C" 
			},
			{
				"x": -0.2483632143,
				"y": -1.1402269372,
				"z": -2.1087123347,
				"element": "C" 
			},
			{
				"x": -0.5604773315,
				"y": -0.2245722405,
				"z": -3.1102867583,
				"element": "C" 
			},
			{
				"x": -1.525622954,
				"y": 0.7443296084,
				"z": -2.8564020941,
				"element": "C" 
			},
			{
				"x": -1.8350923791,
				"y": 1.6288014131,
				"z": -3.8256890937,
				"element": "F" 
			},
			{
				"x": -2.1786760592,
				"y": 0.8289755665,
				"z": -1.6322999339,
				"element": "C" 
			},
			{
				"x": -1.8451252858,
				"y": -0.0846612185,
				"z": -0.6342041101,
				"element": "C" 
			},
			{
				"x": -0.6705598987,
				"y": -4.7303881783,
				"z": -1.1133721077,
				"element": "H" 
			},
			{
				"x": 0.4358690995,
				"y": 0.3824386162,
				"z": 0.9844096634,
				"element": "H" 
			},
			{
				"x": 0.9178114966,
				"y": 1.1751242396,
				"z": 3.296364181,
				"element": "H" 
			},
			{
				"x": -0.4577476863,
				"y": -2.5607285662,
				"z": 4.8799310438,
				"element": "H" 
			},
			{
				"x": -0.944619569,
				"y": -3.3666250376,
				"z": 2.5602288303,
				"element": "H" 
			},
			{
				"x": 0.4894745147,
				"y": -1.9102373233,
				"z": -2.2983221334,
				"element": "H" 
			},
			{
				"x": -0.0726928475,
				"y": -0.2537641636,
				"z": -4.0785414985,
				"element": "H" 
			},
			{
				"x": -2.9274597275,
				"y": 1.5974011995,
				"z": -1.4741133325,
				"element": "H" 
			},
			{
				"x": -2.3429969622,
				"y": -0.0261433,
				"z": 0.3284063401,
				"element": "H" 
			}
		],
		 "valence_orbital": [ 
			{
				"type": "occ",
				"energy": -0.27749,
				"method": "rhf"
			},
			{
				"type": "occ",
				"energy": -0.26546,
				"method": "rhf"
			},
			{
				"type": "occ",
				"energy": -0.26213,
				"method": "rhf"
			},
			{
				"type": "occ",
				"energy": -0.2509,
				"method": "rhf"
			},
			{
				"type": "occ",
				"energy": -0.22207,
				"method": "rhf"
			},
			{
				"type": "unocc",
				"energy": -0.04418,
				"method": "rhf"
			},
			{
				"type": "unocc",
				"energy": -0.0199,
				"method": "rhf"
			},
			{
				"type": "unocc",
				"energy": -0.00936,
				"method": "rhf"
			},
			{
				"type": "unocc",
				"energy": -0.0072,
				"method": "rhf"
			},
			{
				"type": "unocc",
				"energy": 0.05411,
				"method": "rhf"
			}
		],
		"cosmo_sigma_profile": { 
			"-0.025": 0.0,
			"-0.024": 0.0,
			"-0.023": 0.0,
			"-0.022": 0.0,
			"-0.021": 0.0,
			"-0.02": 0.0,
			"-0.019": 0.0,
			"-0.018": 0.134229785952,
			"-0.017": 0.988238998592,
			"-0.016": 0.997515355456,
			"-0.015": 0.525240905419,
			"-0.014": 0.847384517026,
			"-0.013": 1.03165608679,
			"-0.012": 0.937607016146,
			"-0.011": 0.601652581374,
			"-0.01": 0.188145096023,
			"-0.009": 0.753791840939,
			"-0.008": 2.13492995281,
			"-0.007": 8.93978254448,
			"-0.006": 12.1178599401,
			"-0.005": 14.8975005926,
			"-0.004": 14.0260227647,
			"-0.003": 12.1910889642,
			"-0.002": 14.1894179795,
			"-0.001": 14.8005541611,
			"0.0": 22.4843955961,
			"0.001": 25.4279075592,
			"0.002": 24.2818042988,
			"0.003": 28.963871217,
			"0.004": 30.6706138351,
			"0.005": 9.68953288609,
			"0.006": 3.74253715111,
			"0.007": 2.59768791708,
			"0.008": 3.1945145175,
			"0.009": 2.69911693025,
			"0.01": 1.85513216875,
			"0.011": 1.07818573444,
			"0.012": 0.369895486322,
			"0.013": 0.0,
			"0.014": 0.0,
			"0.015": 0.0,
			"0.016": 0.0,
			"0.017": 0.0,
			"0.018": 0.0,
			"0.019": 0.0,
			"0.02": 0.0,
			"0.021": 0.0,
			"0.022": 0.0,
			"0.023": 0.0,
			"0.024": 0.0,
			"0.025": 0.0
		}
	}
}
