{
	 "smiles": "O=C(NN=C1CCCCC1)C(=O)NN=C1CCCCC1", 
	 "Tm": 483.15, 
	 "num_atms": 42, 
	 "gaussian": { 
		 "optdone": 1, 
		 "sigma_profile": "yes", 
		 "theory": "DFT", 
		 "functional": "B3LYP", 
		 "basiset": "6-31G**", 
		 "properties": { 
			 "R2extent": 8761.5632, 
			 "electric_dipole_moment_norm": 6.36005793448, 
			 "electric_quadrupole_moment_norm": 40.3450733414, 
			 "total_energy": -916.176229536, 
			 "HOMO_LUMO_gap": 0.21819, 
			 "cosmo_polarized_energy": -23.24, 
			 "cosmo_cavitation_energy": 43.8, 
			 "cosmo_dispersion_energy": -30.31, 
			 "cosmo_repulsion_energy": 2.47, 
			 "cosmo_total_nonelectrostatic_energy": 15.97, 
			 "SMD_solvation_energy": 6.26 
		},
		"coords": [
			{
				"x": 1.3322342976,
				"y": -0.9646039313,
				"z": 3.8310905081,
				"element": "O" 
			},
			{
				"x": 0.3805364226,
				"y": -0.57033739,
				"z": 3.1801586362,
				"element": "C" 
			},
			{
				"x": -0.288835945,
				"y": -1.3736361133,
				"z": 2.2936844532,
				"element": "N" 
			},
			{
				"x": -1.32089766,
				"y": -0.8787527156,
				"z": 1.5513845084,
				"element": "N" 
			},
			{
				"x": -1.9289639552,
				"y": -1.6274902982,
				"z": 0.7031144724,
				"element": "C" 
			},
			{
				"x": -3.0746092529,
				"y": -1.0044654384,
				"z": -0.0600985004,
				"element": "C" 
			},
			{
				"x": -2.9197217077,
				"y": -1.204289292,
				"z": -1.580992313,
				"element": "C" 
			},
			{
				"x": -2.7060906157,
				"y": -2.6847916924,
				"z": -1.9265089709,
				"element": "C" 
			},
			{
				"x": -1.5025450538,
				"y": -3.264044981,
				"z": -1.1698940114,
				"element": "C" 
			},
			{
				"x": -1.6373673471,
				"y": -3.0743303967,
				"z": 0.3582356882,
				"element": "C" 
			},
			{
				"x": -0.2256555049,
				"y": 0.8250547784,
				"z": 3.4093217786,
				"element": "C" 
			},
			{
				"x": -1.0631007968,
				"y": 1.0208840162,
				"z": 4.2723207691,
				"element": "O" 
			},
			{
				"x": 0.3236586655,
				"y": 1.842158659,
				"z": 2.6719013485,
				"element": "N" 
			},
			{
				"x": 1.2165687383,
				"y": 1.5730170516,
				"z": 1.6757223434,
				"element": "N" 
			},
			{
				"x": 1.738551843,
				"y": 2.5298413563,
				"z": 0.9958741998,
				"element": "C" 
			},
			{
				"x": 2.7076168004,
				"y": 2.1418508364,
				"z": -0.0966598124,
				"element": "C" 
			},
			{
				"x": 4.0429289654,
				"y": 2.901822776,
				"z": 0.033803072,
				"element": "C" 
			},
			{
				"x": 3.8123899434,
				"y": 4.4171213207,
				"z": 0.1190749746,
				"element": "C" 
			},
			{
				"x": 2.8632374016,
				"y": 4.7705754087,
				"z": 1.2724800806,
				"element": "C" 
			},
			{
				"x": 1.5162218121,
				"y": 4.0199572733,
				"z": 1.1607551876,
				"element": "C" 
			},
			{
				"x": 0.0589658095,
				"y": -2.3243542138,
				"z": 2.2028231339,
				"element": "H" 
			},
			{
				"x": -4.012199567,
				"y": -1.4833936055,
				"z": 0.2620719294,
				"element": "H" 
			},
			{
				"x": -3.1420058244,
				"y": 0.0537411721,
				"z": 0.2045264279,
				"element": "H" 
			},
			{
				"x": -2.0600117597,
				"y": -0.6196254153,
				"z": -1.9346832486,
				"element": "H" 
			},
			{
				"x": -3.8031142367,
				"y": -0.8123579997,
				"z": -2.0978881362,
				"element": "H" 
			},
			{
				"x": -2.5626080862,
				"y": -2.8078610198,
				"z": -3.0063036484,
				"element": "H" 
			},
			{
				"x": -3.6092255161,
				"y": -3.2542586515,
				"z": -1.6642318063,
				"element": "H" 
			},
			{
				"x": -0.5856831534,
				"y": -2.7648095323,
				"z": -1.5097020235,
				"element": "H" 
			},
			{
				"x": -1.3828283806,
				"y": -4.3301154837,
				"z": -1.3938451386,
				"element": "H" 
			},
			{
				"x": -2.4766696499,
				"y": -3.6856498323,
				"z": 0.7209674056,
				"element": "H" 
			},
			{
				"x": -0.7411557429,
				"y": -3.4592462363,
				"z": 0.8546395931,
				"element": "H" 
			},
			{
				"x": -0.0237565917,
				"y": 2.7759833694,
				"z": 2.8725423149,
				"element": "H" 
			},
			{
				"x": 2.2578347073,
				"y": 2.389330835,
				"z": -1.0709218803,
				"element": "H" 
			},
			{
				"x": 2.855996199,
				"y": 1.0594057415,
				"z": -0.0692751035,
				"element": "H" 
			},
			{
				"x": 4.5628322315,
				"y": 2.5598514812,
				"z": 0.9382718875,
				"element": "H" 
			},
			{
				"x": 4.6916439027,
				"y": 2.6584421969,
				"z": -0.8153837987,
				"element": "H" 
			},
			{
				"x": 3.38392595,
				"y": 4.7752768625,
				"z": -0.8281315592,
				"element": "H" 
			},
			{
				"x": 4.7665744889,
				"y": 4.9411593796,
				"z": 0.2474277163,
				"element": "H" 
			},
			{
				"x": 3.3373077637,
				"y": 4.5068093033,
				"z": 2.2267054288,
				"element": "H" 
			},
			{
				"x": 2.6751572757,
				"y": 5.849835532,
				"z": 1.3008867995,
				"element": "H" 
			},
			{
				"x": 0.8913212021,
				"y": 4.2639286534,
				"z": 2.0253867771,
				"element": "H" 
			},
			{
				"x": 0.9767419276,
				"y": 4.3857662351,
				"z": 0.274748517,
				"element": "H" 
			}
		],
		 "valence_orbital": [ 
			{
				"type": "occ",
				"energy": -0.27669,
				"method": "rhf"
			},
			{
				"type": "occ",
				"energy": -0.27382,
				"method": "rhf"
			},
			{
				"type": "occ",
				"energy": -0.23317,
				"method": "rhf"
			},
			{
				"type": "occ",
				"energy": -0.22965,
				"method": "rhf"
			},
			{
				"type": "occ",
				"energy": -0.22945,
				"method": "rhf"
			},
			{
				"type": "unocc",
				"energy": -0.01126,
				"method": "rhf"
			},
			{
				"type": "unocc",
				"energy": -0.00846,
				"method": "rhf"
			},
			{
				"type": "unocc",
				"energy": 0.03933,
				"method": "rhf"
			},
			{
				"type": "unocc",
				"energy": 0.04096,
				"method": "rhf"
			},
			{
				"type": "unocc",
				"energy": 0.06782,
				"method": "rhf"
			}
		],
		"cosmo_sigma_profile": { 
			"-0.025": 0.0,
			"-0.024": 0.0,
			"-0.023": 0.0,
			"-0.022": 0.0,
			"-0.021": 0.0,
			"-0.02": 0.0,
			"-0.019": 0.0,
			"-0.018": 0.0,
			"-0.017": 0.0,
			"-0.016": 0.0,
			"-0.015": 0.855971903945,
			"-0.014": 2.42303441199,
			"-0.013": 1.98648752426,
			"-0.012": 2.19859859689,
			"-0.011": 2.4155250477,
			"-0.01": 2.27765100422,
			"-0.009": 1.76500550056,
			"-0.008": 2.60071520152,
			"-0.007": 3.27903342998,
			"-0.006": 2.60105512428,
			"-0.005": 9.45617898096,
			"-0.004": 22.3757444384,
			"-0.003": 48.3611924172,
			"-0.002": 54.3342221542,
			"-0.001": 48.1091532594,
			"0.0": 37.5890532396,
			"0.001": 17.3530934973,
			"0.002": 5.71813781792,
			"0.003": 5.55752792782,
			"0.004": 5.78749038206,
			"0.005": 5.09687964044,
			"0.006": 7.71455669075,
			"0.007": 5.79665601689,
			"0.008": 6.46378585477,
			"0.009": 7.63581828533,
			"0.01": 7.23920262224,
			"0.011": 6.01516730703,
			"0.012": 11.4232081693,
			"0.013": 6.63699161849,
			"0.014": 0.254856559685,
			"0.015": 0.0,
			"0.016": 0.0,
			"0.017": 0.0,
			"0.018": 0.0,
			"0.019": 0.0,
			"0.02": 0.0,
			"0.021": 0.0,
			"0.022": 0.0,
			"0.023": 0.0,
			"0.024": 0.0,
			"0.025": 0.0
		}
	}
}
