{
	 "smiles": "CCOC(=O)C1=CC=C(OCC2=CC=CC=C2)C=C1", 
	 "Tm": 316.15, 
	 "num_atms": 35, 
	 "gaussian": { 
		 "optdone": 1, 
		 "sigma_profile": "yes", 
		 "theory": "DFT", 
		 "functional": "B3LYP", 
		 "basiset": "6-31G**", 
		 "properties": { 
			 "R2extent": 8613.3498, 
			 "electric_dipole_moment_norm": 3.44721133237, 
			 "electric_quadrupole_moment_norm": 11.2905430157, 
			 "total_energy": -845.031602836, 
			 "HOMO_LUMO_gap": 0.19527, 
			 "cosmo_polarized_energy": -10.72, 
			 "cosmo_cavitation_energy": 39.25, 
			 "cosmo_dispersion_energy": -27.85, 
			 "cosmo_repulsion_energy": 2.17, 
			 "cosmo_total_nonelectrostatic_energy": 13.57, 
			 "SMD_solvation_energy": 7.85 
		},
		"coords": [
			{
				"x": 0.3868552393,
				"y": 1.2320407968,
				"z": 5.5823854833,
				"element": "C" 
			},
			{
				"x": -0.6440421738,
				"y": 2.2103870574,
				"z": 5.0384172983,
				"element": "C" 
			},
			{
				"x": -0.9704717702,
				"y": 1.9212647947,
				"z": 3.6605688513,
				"element": "O" 
			},
			{
				"x": -1.9306311188,
				"y": 0.9860674374,
				"z": 3.4517000445,
				"element": "C" 
			},
			{
				"x": -2.5107213401,
				"y": 0.4104213428,
				"z": 4.3549771805,
				"element": "O" 
			},
			{
				"x": -2.1910341371,
				"y": 0.7547421641,
				"z": 2.0088350282,
				"element": "C" 
			},
			{
				"x": -1.5003610553,
				"y": 1.429330017,
				"z": 0.9952387092,
				"element": "C" 
			},
			{
				"x": -1.7763947675,
				"y": 1.1804815586,
				"z": -0.3481115655,
				"element": "C" 
			},
			{
				"x": -2.7633036522,
				"y": 0.2445176967,
				"z": -0.6878844402,
				"element": "C" 
			},
			{
				"x": -3.1313656744,
				"y": -0.0719972265,
				"z": -1.9631697076,
				"element": "O" 
			},
			{
				"x": -2.585073522,
				"y": 0.6647605925,
				"z": -3.0579777958,
				"element": "C" 
			},
			{
				"x": -1.17541639,
				"y": 0.2572733299,
				"z": -3.4409425701,
				"element": "C" 
			},
			{
				"x": -0.3100736497,
				"y": 1.1928282509,
				"z": -4.0198190872,
				"element": "C" 
			},
			{
				"x": 0.9685963575,
				"y": 0.815604615,
				"z": -4.4338897967,
				"element": "C" 
			},
			{
				"x": 1.3974117219,
				"y": -0.5016927924,
				"z": -4.2638545646,
				"element": "C" 
			},
			{
				"x": 0.5403925829,
				"y": -1.4382886216,
				"z": -3.6814647628,
				"element": "C" 
			},
			{
				"x": -0.7404575889,
				"y": -1.0628628249,
				"z": -3.2760476594,
				"element": "C" 
			},
			{
				"x": -3.4572076387,
				"y": -0.4411560478,
				"z": 0.3232955547,
				"element": "C" 
			},
			{
				"x": -3.171701195,
				"y": -0.1870152516,
				"z": 1.6546160332,
				"element": "C" 
			},
			{
				"x": 1.2871759638,
				"y": 1.228432326,
				"z": 4.9607132498,
				"element": "H" 
			},
			{
				"x": 0.6724557626,
				"y": 1.5195351679,
				"z": 6.5999423878,
				"element": "H" 
			},
			{
				"x": -0.0258328923,
				"y": 0.220915145,
				"z": 5.614484565,
				"element": "H" 
			},
			{
				"x": -1.5612100234,
				"y": 2.1836277255,
				"z": 5.6315556432,
				"element": "H" 
			},
			{
				"x": -0.2541931573,
				"y": 3.2312584127,
				"z": 5.0174143166,
				"element": "H" 
			},
			{
				"x": -0.735669901,
				"y": 2.1501865347,
				"z": 1.2608793194,
				"element": "H" 
			},
			{
				"x": -1.2091301503,
				"y": 1.6947803341,
				"z": -1.1136384256,
				"element": "H" 
			},
			{
				"x": -3.2737130502,
				"y": 0.4536071073,
				"z": -3.8832971014,
				"element": "H" 
			},
			{
				"x": -2.6362579594,
				"y": 1.7425295657,
				"z": -2.856369245,
				"element": "H" 
			},
			{
				"x": -0.6366130569,
				"y": 2.2227764047,
				"z": -4.1475705126,
				"element": "H" 
			},
			{
				"x": 1.6307872415,
				"y": 1.5519239374,
				"z": -4.8804070746,
				"element": "H" 
			},
			{
				"x": 2.39422226,
				"y": -0.7959499875,
				"z": -4.5792279172,
				"element": "H" 
			},
			{
				"x": 0.8697929157,
				"y": -2.4641602821,
				"z": -3.5429396155,
				"element": "H" 
			},
			{
				"x": -1.406919701,
				"y": -1.7886118036,
				"z": -2.8204853833,
				"element": "H" 
			},
			{
				"x": -4.2163619167,
				"y": -1.1602252223,
				"z": 0.0338536873,
				"element": "H" 
			},
			{
				"x": -3.7015325631,
				"y": -0.7059322546,
				"z": 2.4462198728,
				"element": "H" 
			}
		],
		 "valence_orbital": [ 
			{
				"type": "occ",
				"energy": -0.26407,
				"method": "rhf"
			},
			{
				"type": "occ",
				"energy": -0.25737,
				"method": "rhf"
			},
			{
				"type": "occ",
				"energy": -0.25631,
				"method": "rhf"
			},
			{
				"type": "occ",
				"energy": -0.24952,
				"method": "rhf"
			},
			{
				"type": "occ",
				"energy": -0.22689,
				"method": "rhf"
			},
			{
				"type": "unocc",
				"energy": -0.03162,
				"method": "rhf"
			},
			{
				"type": "unocc",
				"energy": -0.01239,
				"method": "rhf"
			},
			{
				"type": "unocc",
				"energy": -0.00916,
				"method": "rhf"
			},
			{
				"type": "unocc",
				"energy": -0.0015,
				"method": "rhf"
			},
			{
				"type": "unocc",
				"energy": 0.0709,
				"method": "rhf"
			}
		],
		"cosmo_sigma_profile": { 
			"-0.025": 0.0,
			"-0.024": 0.0,
			"-0.023": 0.0,
			"-0.022": 0.0,
			"-0.021": 0.0,
			"-0.02": 0.0,
			"-0.019": 0.0,
			"-0.018": 0.0,
			"-0.017": 0.0,
			"-0.016": 0.0,
			"-0.015": 0.0,
			"-0.014": 0.0,
			"-0.013": 0.0,
			"-0.012": 0.0,
			"-0.011": 0.0,
			"-0.01": 0.0,
			"-0.009": 0.0,
			"-0.008": 0.000102037932921,
			"-0.007": 3.88477081595,
			"-0.006": 15.5500406448,
			"-0.005": 26.132224255,
			"-0.004": 28.9271713838,
			"-0.003": 29.0541293961,
			"-0.002": 24.0688389493,
			"-0.001": 24.9177666381,
			"0.0": 25.4616445636,
			"0.001": 23.0125242684,
			"0.002": 24.1882787387,
			"0.003": 24.8326941641,
			"0.004": 22.507893311,
			"0.005": 13.8009932369,
			"0.006": 9.21789550324,
			"0.007": 3.04005085456,
			"0.008": 2.16622885098,
			"0.009": 2.36466048027,
			"0.01": 2.20155826817,
			"0.011": 2.28035423117,
			"0.012": 3.88154473454,
			"0.013": 1.07977854839,
			"0.014": 0.0,
			"0.015": 0.0,
			"0.016": 0.0,
			"0.017": 0.0,
			"0.018": 0.0,
			"0.019": 0.0,
			"0.02": 0.0,
			"0.021": 0.0,
			"0.022": 0.0,
			"0.023": 0.0,
			"0.024": 0.0,
			"0.025": 0.0
		}
	}
}
