{
	 "smiles": "COC(C)C(N)C(O)=O", 
	 "Tm": 495.15, 
	 "num_atms": 20, 
	 "gaussian": { 
		 "optdone": 1, 
		 "sigma_profile": "yes", 
		 "theory": "DFT", 
		 "functional": "B3LYP", 
		 "basiset": "6-31G**", 
		 "properties": { 
			 "R2extent": 1355.871, 
			 "electric_dipole_moment_norm": 0.403937037173, 
			 "electric_quadrupole_moment_norm": 7.70420968367, 
			 "total_energy": -477.583086528, 
			 "HOMO_LUMO_gap": 0.25584, 
			 "cosmo_polarized_energy": -12.4, 
			 "cosmo_cavitation_energy": 23.27, 
			 "cosmo_dispersion_energy": -16.4, 
			 "cosmo_repulsion_energy": 1.39, 
			 "cosmo_total_nonelectrostatic_energy": 8.26, 
			 "SMD_solvation_energy": 5.07 
		},
		"coords": [
			{
				"x": 1.436998802,
				"y": 1.7565181604,
				"z": -1.5648678861,
				"element": "C" 
			},
			{
				"x": 1.0175210732,
				"y": 1.0941353748,
				"z": -0.3885837115,
				"element": "O" 
			},
			{
				"x": 0.3153856528,
				"y": -0.1259462373,
				"z": -0.6095153361,
				"element": "C" 
			},
			{
				"x": 1.2445821637,
				"y": -1.2806698395,
				"z": -0.9756479209,
				"element": "C" 
			},
			{
				"x": -0.4627122446,
				"y": -0.3992875206,
				"z": 0.6950436552,
				"element": "C" 
			},
			{
				"x": -1.3542228532,
				"y": -1.5439912844,
				"z": 0.5037644687,
				"element": "N" 
			},
			{
				"x": -1.2373233306,
				"y": 0.8654156154,
				"z": 1.0682958412,
				"element": "C" 
			},
			{
				"x": -0.7596457927,
				"y": 1.4845275858,
				"z": 2.1667028473,
				"element": "O" 
			},
			{
				"x": -2.2150794013,
				"y": 1.2552750984,
				"z": 0.4625230441,
				"element": "O" 
			},
			{
				"x": 1.8783622344,
				"y": 2.7068296958,
				"z": -1.2545014281,
				"element": "H" 
			},
			{
				"x": 0.5902201016,
				"y": 1.9614075107,
				"z": -2.2377020901,
				"element": "H" 
			},
			{
				"x": 2.1941040762,
				"y": 1.1867855009,
				"z": -2.1221858582,
				"element": "H" 
			},
			{
				"x": -0.4310681662,
				"y": 0.0237674385,
				"z": -1.4082488416,
				"element": "H" 
			},
			{
				"x": 2.0339061113,
				"y": -1.3784239751,
				"z": -0.2228827764,
				"element": "H" 
			},
			{
				"x": 1.7166581615,
				"y": -1.1202286665,
				"z": -1.9494915601,
				"element": "H" 
			},
			{
				"x": 0.6762606431,
				"y": -2.2126304741,
				"z": -1.0148279718,
				"element": "H" 
			},
			{
				"x": 0.2540511043,
				"y": -0.6263261393,
				"z": 1.4895493904,
				"element": "H" 
			},
			{
				"x": -2.1638400876,
				"y": -1.2315219485,
				"z": -0.0305296016,
				"element": "H" 
			},
			{
				"x": -1.708064371,
				"y": -1.8639299661,
				"z": 1.4015785004,
				"element": "H" 
			},
			{
				"x": -1.3179938769,
				"y": 2.2696940708,
				"z": 2.3022272351,
				"element": "H" 
			}
		],
		 "valence_orbital": [ 
			{
				"type": "occ",
				"energy": -0.31711,
				"method": "rhf"
			},
			{
				"type": "occ",
				"energy": -0.30922,
				"method": "rhf"
			},
			{
				"type": "occ",
				"energy": -0.28024,
				"method": "rhf"
			},
			{
				"type": "occ",
				"energy": -0.25638,
				"method": "rhf"
			},
			{
				"type": "occ",
				"energy": -0.24568,
				"method": "rhf"
			},
			{
				"type": "unocc",
				"energy": 0.01016,
				"method": "rhf"
			},
			{
				"type": "unocc",
				"energy": 0.07939,
				"method": "rhf"
			},
			{
				"type": "unocc",
				"energy": 0.09135,
				"method": "rhf"
			},
			{
				"type": "unocc",
				"energy": 0.09409,
				"method": "rhf"
			},
			{
				"type": "unocc",
				"energy": 0.1217,
				"method": "rhf"
			}
		],
		"cosmo_sigma_profile": { 
			"-0.025": 0.0,
			"-0.024": 0.0,
			"-0.023": 0.0,
			"-0.022": 0.0,
			"-0.021": 0.0,
			"-0.02": 0.0,
			"-0.019": 0.0197850463171,
			"-0.018": 0.643480520105,
			"-0.017": 1.16581467898,
			"-0.016": 0.591469964683,
			"-0.015": 0.659540016232,
			"-0.014": 1.00904945728,
			"-0.013": 0.988582744474,
			"-0.012": 0.0920277045125,
			"-0.011": 1.80390793333,
			"-0.01": 3.05969762796,
			"-0.009": 2.66421309386,
			"-0.008": 4.28197524592,
			"-0.007": 3.2892416162,
			"-0.006": 4.23284319318,
			"-0.005": 6.99477489158,
			"-0.004": 16.5044337128,
			"-0.003": 18.6875871151,
			"-0.002": 18.867331787,
			"-0.001": 12.5214774842,
			"0.0": 12.3373773091,
			"0.001": 9.91931338336,
			"0.002": 7.12964252204,
			"0.003": 4.85751209341,
			"0.004": 5.12564807819,
			"0.005": 4.8223538806,
			"0.006": 4.91706997469,
			"0.007": 4.77645489075,
			"0.008": 3.68576865939,
			"0.009": 5.44786717614,
			"0.01": 4.90488454622,
			"0.011": 5.8449518223,
			"0.012": 6.10937544395,
			"0.013": 1.47478444695,
			"0.014": 0.520447260674,
			"0.015": 0.434398213052,
			"0.016": 0.00020925846682,
			"0.017": 0.0,
			"0.018": 0.0,
			"0.019": 0.0,
			"0.02": 0.0,
			"0.021": 0.0,
			"0.022": 0.0,
			"0.023": 0.0,
			"0.024": 0.0,
			"0.025": 0.0
		}
	}
}
