{
	 "smiles": "FC(F)(F)C1CCC(=O)NC1", 
	 "Tm": 415.15, 
	 "num_atms": 19, 
	 "gaussian": { 
		 "optdone": 1, 
		 "sigma_profile": "yes", 
		 "theory": "DFT", 
		 "functional": "B3LYP", 
		 "basiset": "6-31G**", 
		 "properties": { 
			 "R2extent": 1676.3664, 
			 "electric_dipole_moment_norm": 3.91220038597, 
			 "electric_quadrupole_moment_norm": 15.3290505505, 
			 "total_energy": -662.985839608, 
			 "HOMO_LUMO_gap": 0.2683, 
			 "cosmo_polarized_energy": -12.74, 
			 "cosmo_cavitation_energy": 22.39, 
			 "cosmo_dispersion_energy": -16.47, 
			 "cosmo_repulsion_energy": 1.28, 
			 "cosmo_total_nonelectrostatic_energy": 7.2, 
			 "SMD_solvation_energy": 4.75 
		},
		"coords": [
			{
				"x": 2.1146295963,
				"y": -1.0331015977,
				"z": -0.5979333304,
				"element": "F" 
			},
			{
				"x": 1.5303187774,
				"y": -0.0743001128,
				"z": 0.1556221213,
				"element": "C" 
			},
			{
				"x": 2.4454792201,
				"y": 0.9073602651,
				"z": 0.3348666144,
				"element": "F" 
			},
			{
				"x": 1.2865022875,
				"y": -0.6120236265,
				"z": 1.3705082805,
				"element": "F" 
			},
			{
				"x": 0.2838394712,
				"y": 0.4691424945,
				"z": -0.5311079429,
				"element": "C" 
			},
			{
				"x": -0.7417532718,
				"y": -0.6225464565,
				"z": -0.8810525481,
				"element": "C" 
			},
			{
				"x": -1.4425182439,
				"y": -1.1896970064,
				"z": 0.3619422957,
				"element": "C" 
			},
			{
				"x": -1.8780481144,
				"y": -0.1488930831,
				"z": 1.38723558,
				"element": "C" 
			},
			{
				"x": -2.7072311749,
				"y": -0.3988856561,
				"z": 2.2511908465,
				"element": "O" 
			},
			{
				"x": -1.2444721807,
				"y": 1.0675351333,
				"z": 1.3362226906,
				"element": "N" 
			},
			{
				"x": -0.3891405678,
				"y": 1.5881042658,
				"z": 0.2770246143,
				"element": "C" 
			},
			{
				"x": 0.6619729902,
				"y": 0.9144708726,
				"z": -1.4580436285,
				"element": "H" 
			},
			{
				"x": -0.2602407936,
				"y": -1.4231917011,
				"z": -1.4497568726,
				"element": "H" 
			},
			{
				"x": -1.4845109685,
				"y": -0.1670874617,
				"z": -1.5465762891,
				"element": "H" 
			},
			{
				"x": -0.7823318766,
				"y": -1.8828129727,
				"z": 0.8938999497,
				"element": "H" 
			},
			{
				"x": -2.3338706423,
				"y": -1.7591770837,
				"z": 0.087086688,
				"element": "H" 
			},
			{
				"x": -1.5738303351,
				"y": 1.718600837,
				"z": 2.0374380071,
				"element": "H" 
			},
			{
				"x": -0.9719082226,
				"y": 2.203641189,
				"z": -0.4243062455,
				"element": "H" 
			},
			{
				"x": 0.3707140493,
				"y": 2.2403617009,
				"z": 0.7192391688,
				"element": "H" 
			}
		],
		 "valence_orbital": [ 
			{
				"type": "occ",
				"energy": -0.36126,
				"method": "rhf"
			},
			{
				"type": "occ",
				"energy": -0.35813,
				"method": "rhf"
			},
			{
				"type": "occ",
				"energy": -0.34432,
				"method": "rhf"
			},
			{
				"type": "occ",
				"energy": -0.25203,
				"method": "rhf"
			},
			{
				"type": "occ",
				"energy": -0.24271,
				"method": "rhf"
			},
			{
				"type": "unocc",
				"energy": 0.02559,
				"method": "rhf"
			},
			{
				"type": "unocc",
				"energy": 0.06302,
				"method": "rhf"
			},
			{
				"type": "unocc",
				"energy": 0.09331,
				"method": "rhf"
			},
			{
				"type": "unocc",
				"energy": 0.10981,
				"method": "rhf"
			},
			{
				"type": "unocc",
				"energy": 0.12357,
				"method": "rhf"
			}
		],
		"cosmo_sigma_profile": { 
			"-0.025": 0.0,
			"-0.024": 0.0,
			"-0.023": 0.0,
			"-0.022": 0.0,
			"-0.021": 0.0,
			"-0.02": 0.0,
			"-0.019": 0.0,
			"-0.018": 0.0,
			"-0.017": 0.0,
			"-0.016": 0.0,
			"-0.015": 0.0,
			"-0.014": 0.379632850322,
			"-0.013": 1.25501072773,
			"-0.012": 1.03110792399,
			"-0.011": 0.702596832844,
			"-0.01": 1.3209832027,
			"-0.009": 0.94835345648,
			"-0.008": 1.89989240267,
			"-0.007": 5.52479596932,
			"-0.006": 9.72023964671,
			"-0.005": 16.0371997956,
			"-0.004": 17.8053905199,
			"-0.003": 14.4589985118,
			"-0.002": 11.6335233403,
			"-0.001": 8.74627886948,
			"0.0": 7.05563737159,
			"0.001": 6.97257840024,
			"0.002": 14.8006851331,
			"0.003": 26.8559566675,
			"0.004": 5.58666251369,
			"0.005": 1.88499751187,
			"0.006": 1.25086523495,
			"0.007": 0.868785619077,
			"0.008": 1.61753896436,
			"0.009": 1.12840273403,
			"0.01": 1.03299689155,
			"0.011": 1.7388573501,
			"0.012": 1.35375084056,
			"0.013": 2.53173443989,
			"0.014": 6.35862208366,
			"0.015": 3.01976188805,
			"0.016": 0.20746140397,
			"0.017": 0.0,
			"0.018": 0.0,
			"0.019": 0.0,
			"0.02": 0.0,
			"0.021": 0.0,
			"0.022": 0.0,
			"0.023": 0.0,
			"0.024": 0.0,
			"0.025": 0.0
		}
	}
}
