{
	 "smiles": "CC(C)(C)CC(=O)OCC(=O)C12OC(C)(C)OC1CC1C3CCC4=CC(=O)C=CC4(C)C3(F)C(O)CC21C", 
	 "Tm": 568.15, 
	 "num_atms": 79, 
	 "gaussian": { 
		 "optdone": 1, 
		 "sigma_profile": "yes", 
		 "theory": "DFT", 
		 "functional": "B3LYP", 
		 "basiset": "6-31G**", 
		 "properties": { 
			 "R2extent": 27322.8326, 
			 "electric_dipole_moment_norm": 6.92823795276, 
			 "electric_quadrupole_moment_norm": 46.9189884211, 
			 "total_energy": -1794.29400863, 
			 "HOMO_LUMO_gap": 0.17597, 
			 "cosmo_polarized_energy": -25.72, 
			 "cosmo_cavitation_energy": 69.64, 
			 "cosmo_dispersion_energy": -45.61, 
			 "cosmo_repulsion_energy": 3.27, 
			 "cosmo_total_nonelectrostatic_energy": 27.3, 
			 "SMD_solvation_energy": 12.8 
		},
		"coords": [
			{
				"x": 5.9358247316,
				"y": -4.310329338,
				"z": 0.8092631306,
				"element": "C" 
			},
			{
				"x": 5.2419822411,
				"y": -4.7923769006,
				"z": -0.4792574249,
				"element": "C" 
			},
			{
				"x": 4.2784411635,
				"y": -5.9491697257,
				"z": -0.1550214162,
				"element": "C" 
			},
			{
				"x": 6.3072581121,
				"y": -5.2805200389,
				"z": -1.4797634707,
				"element": "C" 
			},
			{
				"x": 4.4773644726,
				"y": -3.6114616736,
				"z": -1.1537563505,
				"element": "C" 
			},
			{
				"x": 3.4703600669,
				"y": -2.9294932352,
				"z": -0.2570336186,
				"element": "C" 
			},
			{
				"x": 2.4063035768,
				"y": -3.3943994273,
				"z": 0.0989637186,
				"element": "O" 
			},
			{
				"x": 3.9119479112,
				"y": -1.7083189292,
				"z": 0.1486822693,
				"element": "O" 
			},
			{
				"x": 2.9988474188,
				"y": -0.9784465713,
				"z": 0.9617576245,
				"element": "C" 
			},
			{
				"x": 1.852275158,
				"y": -0.4084992476,
				"z": 0.1275502622,
				"element": "C" 
			},
			{
				"x": 1.8353876163,
				"y": -0.5053801638,
				"z": -1.0842030459,
				"element": "O" 
			},
			{
				"x": 0.7156983563,
				"y": 0.2992283974,
				"z": 0.871659824,
				"element": "C" 
			},
			{
				"x": 0.7525619511,
				"y": -0.0022296641,
				"z": 2.2624500031,
				"element": "O" 
			},
			{
				"x": -0.4287094096,
				"y": -0.7769518006,
				"z": 2.5975425677,
				"element": "C" 
			},
			{
				"x": -0.0994708871,
				"y": -2.2728938703,
				"z": 2.5856186746,
				"element": "C" 
			},
			{
				"x": -0.9564517533,
				"y": -0.3092210721,
				"z": 3.9442035484,
				"element": "C" 
			},
			{
				"x": -1.3766278333,
				"y": -0.4438316879,
				"z": 1.5916943839,
				"element": "O" 
			},
			{
				"x": -0.657089718,
				"y": -0.2495734494,
				"z": 0.3743378562,
				"element": "C" 
			},
			{
				"x": -1.3038696878,
				"y": 0.8352419297,
				"z": -0.4949211535,
				"element": "C" 
			},
			{
				"x": -0.2314049991,
				"y": 1.9395126945,
				"z": -0.6877651606,
				"element": "C" 
			},
			{
				"x": -0.6833929044,
				"y": 3.3877521847,
				"z": -1.0227629056,
				"element": "C" 
			},
			{
				"x": -1.5864742133,
				"y": 3.4603353465,
				"z": -2.2700155379,
				"element": "C" 
			},
			{
				"x": -3.0811889788,
				"y": 3.3209341082,
				"z": -1.9337016467,
				"element": "C" 
			},
			{
				"x": -3.4672138449,
				"y": 4.4220873111,
				"z": -0.984714866,
				"element": "C" 
			},
			{
				"x": -4.3513897939,
				"y": 5.3669459502,
				"z": -1.3554111388,
				"element": "C" 
			},
			{
				"x": -4.6846262052,
				"y": 6.5437106947,
				"z": -0.5354411522,
				"element": "C" 
			},
			{
				"x": -5.5104051299,
				"y": 7.3804371293,
				"z": -0.8947858741,
				"element": "O" 
			},
			{
				"x": -3.9534822952,
				"y": 6.6502676413,
				"z": 0.7394746858,
				"element": "C" 
			},
			{
				"x": -3.0673594773,
				"y": 5.7244610828,
				"z": 1.1278981148,
				"element": "C" 
			},
			{
				"x": -2.764683823,
				"y": 4.4398543761,
				"z": 0.3724908527,
				"element": "C" 
			},
			{
				"x": -3.3742927853,
				"y": 3.325030597,
				"z": 1.2755893482,
				"element": "C" 
			},
			{
				"x": -1.1950734634,
				"y": 4.3060958386,
				"z": 0.1431660389,
				"element": "C" 
			},
			{
				"x": -0.8489535863,
				"y": 5.6177237403,
				"z": -0.3062692499,
				"element": "F" 
			},
			{
				"x": -0.2756572211,
				"y": 4.0752245613,
				"z": 1.3756820875,
				"element": "C" 
			},
			{
				"x": -0.6966374732,
				"y": 4.715219175,
				"z": 2.5789293838,
				"element": "O" 
			},
			{
				"x": -0.0112481583,
				"y": 2.6063264766,
				"z": 1.7218401365,
				"element": "C" 
			},
			{
				"x": 0.6847886287,
				"y": 1.8532889103,
				"z": 0.5668407915,
				"element": "C" 
			},
			{
				"x": 2.0991003848,
				"y": 2.4186206976,
				"z": 0.324762448,
				"element": "C" 
			},
			{
				"x": 6.6014592934,
				"y": -3.4628525306,
				"z": 0.6120213497,
				"element": "H" 
			},
			{
				"x": 6.5369325209,
				"y": -5.1161381819,
				"z": 1.2440356219,
				"element": "H" 
			},
			{
				"x": 5.2091725838,
				"y": -3.997058181,
				"z": 1.5665853243,
				"element": "H" 
			},
			{
				"x": 3.4801785513,
				"y": -5.631168555,
				"z": 0.5198148118,
				"element": "H" 
			},
			{
				"x": 4.8225824613,
				"y": -6.775353428,
				"z": 0.3161077416,
				"element": "H" 
			},
			{
				"x": 3.807524773,
				"y": -6.3349410287,
				"z": -1.0661665516,
				"element": "H" 
			},
			{
				"x": 7.0288950625,
				"y": -4.489591902,
				"z": -1.7132993053,
				"element": "H" 
			},
			{
				"x": 6.862718604,
				"y": -6.1296210645,
				"z": -1.0668241696,
				"element": "H" 
			},
			{
				"x": 5.849022317,
				"y": -5.6074621182,
				"z": -2.4198932733,
				"element": "H" 
			},
			{
				"x": 5.1943106775,
				"y": -2.8644868136,
				"z": -1.5048840566,
				"element": "H" 
			},
			{
				"x": 3.9272391272,
				"y": -3.9929004766,
				"z": -2.0206544545,
				"element": "H" 
			},
			{
				"x": 2.6035910997,
				"y": -1.5942916209,
				"z": 1.7701159371,
				"element": "H" 
			},
			{
				"x": 3.5676335884,
				"y": -0.1544155851,
				"z": 1.4035631454,
				"element": "H" 
			},
			{
				"x": 0.6259871021,
				"y": -2.5045970994,
				"z": 3.3711873052,
				"element": "H" 
			},
			{
				"x": 0.3242350124,
				"y": -2.5942861938,
				"z": 1.6306935917,
				"element": "H" 
			},
			{
				"x": -1.0084411214,
				"y": -2.8510176275,
				"z": 2.7744991296,
				"element": "H" 
			},
			{
				"x": -1.1818492847,
				"y": 0.7579720588,
				"z": 3.9135010396,
				"element": "H" 
			},
			{
				"x": -0.2109284155,
				"y": -0.4921113302,
				"z": 4.7222115988,
				"element": "H" 
			},
			{
				"x": -1.8671864623,
				"y": -0.8578062294,
				"z": 4.198298989,
				"element": "H" 
			},
			{
				"x": -0.5424160145,
				"y": -1.1980005401,
				"z": -0.1612130464,
				"element": "H" 
			},
			{
				"x": -2.1836596038,
				"y": 1.1865463985,
				"z": 0.0399419395,
				"element": "H" 
			},
			{
				"x": -1.6421419231,
				"y": 0.4360549955,
				"z": -1.454365975,
				"element": "H" 
			},
			{
				"x": 0.3714201406,
				"y": 1.6252559401,
				"z": -1.5483493736,
				"element": "H" 
			},
			{
				"x": 0.2475588173,
				"y": 3.8995515831,
				"z": -1.2950576488,
				"element": "H" 
			},
			{
				"x": -1.4406538033,
				"y": 4.4302430306,
				"z": -2.7570527532,
				"element": "H" 
			},
			{
				"x": -1.2796916905,
				"y": 2.6926565932,
				"z": -2.9896486074,
				"element": "H" 
			},
			{
				"x": -3.6805081083,
				"y": 3.3917111449,
				"z": -2.8464724263,
				"element": "H" 
			},
			{
				"x": -3.2828198513,
				"y": 2.3364780534,
				"z": -1.4969581021,
				"element": "H" 
			},
			{
				"x": -4.850798255,
				"y": 5.3116844086,
				"z": -2.3197957716,
				"element": "H" 
			},
			{
				"x": -4.1803605519,
				"y": 7.5146051311,
				"z": 1.3573832569,
				"element": "H" 
			},
			{
				"x": -2.5910936676,
				"y": 5.8110457909,
				"z": 2.0959984747,
				"element": "H" 
			},
			{
				"x": -4.4419067794,
				"y": 3.5229929966,
				"z": 1.3998087957,
				"element": "H" 
			},
			{
				"x": -2.9061949527,
				"y": 3.3369237162,
				"z": 2.2618014779,
				"element": "H" 
			},
			{
				"x": -3.2745269305,
				"y": 2.3258577429,
				"z": 0.8533152568,
				"element": "H" 
			},
			{
				"x": 0.6706737452,
				"y": 4.5307968608,
				"z": 1.0583120938,
				"element": "H" 
			},
			{
				"x": -0.5428656006,
				"y": 5.6627730512,
				"z": 2.4696985474,
				"element": "H" 
			},
			{
				"x": -0.9485236126,
				"y": 2.1107562912,
				"z": 1.9839752059,
				"element": "H" 
			},
			{
				"x": 0.6107426556,
				"y": 2.5888692952,
				"z": 2.6202252932,
				"element": "H" 
			},
			{
				"x": 2.0814021964,
				"y": 3.4778002684,
				"z": 0.0584071987,
				"element": "H" 
			},
			{
				"x": 2.7121227387,
				"y": 2.3267285491,
				"z": 1.2287601969,
				"element": "H" 
			},
			{
				"x": 2.6051254128,
				"y": 1.899094559,
				"z": -0.4926015467,
				"element": "H" 
			}
		],
		 "valence_orbital": [ 
			{
				"type": "occ",
				"energy": -0.27328,
				"method": "rhf"
			},
			{
				"type": "occ",
				"energy": -0.26264,
				"method": "rhf"
			},
			{
				"type": "occ",
				"energy": -0.25459,
				"method": "rhf"
			},
			{
				"type": "occ",
				"energy": -0.25086,
				"method": "rhf"
			},
			{
				"type": "occ",
				"energy": -0.22842,
				"method": "rhf"
			},
			{
				"type": "unocc",
				"energy": -0.05245,
				"method": "rhf"
			},
			{
				"type": "unocc",
				"energy": -0.03801,
				"method": "rhf"
			},
			{
				"type": "unocc",
				"energy": 0.00022,
				"method": "rhf"
			},
			{
				"type": "unocc",
				"energy": 0.00585,
				"method": "rhf"
			},
			{
				"type": "unocc",
				"energy": 0.05015,
				"method": "rhf"
			}
		],
		"cosmo_sigma_profile": { 
			"-0.025": 0.0,
			"-0.024": 0.0,
			"-0.023": 0.0,
			"-0.022": 0.0,
			"-0.021": 0.0,
			"-0.02": 0.0,
			"-0.019": 0.0,
			"-0.018": 0.0,
			"-0.017": 0.0,
			"-0.016": 0.358797779386,
			"-0.015": 0.696148812535,
			"-0.014": 0.820961293964,
			"-0.013": 0.845160980766,
			"-0.012": 1.43634943131,
			"-0.011": 0.874470267364,
			"-0.01": 0.979870251527,
			"-0.009": 0.913986636603,
			"-0.008": 3.49303732515,
			"-0.007": 6.2796787515,
			"-0.006": 11.6896476522,
			"-0.005": 25.9841748972,
			"-0.004": 53.4566740994,
			"-0.003": 65.2231264264,
			"-0.002": 64.1073907806,
			"-0.001": 59.6414879575,
			"0.0": 52.372878634,
			"0.001": 43.6883516701,
			"0.002": 28.0619658098,
			"0.003": 17.4143920301,
			"0.004": 11.7902314319,
			"0.005": 14.3722633201,
			"0.006": 16.6025280312,
			"0.007": 10.5077524175,
			"0.008": 8.40225198347,
			"0.009": 8.19968241271,
			"0.01": 8.76698929915,
			"0.011": 6.74941028877,
			"0.012": 5.75031871215,
			"0.013": 5.98170470811,
			"0.014": 3.55442299384,
			"0.015": 1.01801280962,
			"0.016": 0.0,
			"0.017": 0.0,
			"0.018": 0.0,
			"0.019": 0.0,
			"0.02": 0.0,
			"0.021": 0.0,
			"0.022": 0.0,
			"0.023": 0.0,
			"0.024": 0.0,
			"0.025": 0.0
		}
	}
}
