{
	 "smiles": "CC(C)C(Br)C(=O)NC1=C(C=CC=C1)C(F)(F)F", 
	 "Tm": 397.15, 
	 "num_atms": 31, 
	 "gaussian": { 
		 "optdone": 1, 
		 "sigma_profile": "yes", 
		 "theory": "DFT", 
		 "functional": "B3LYP", 
		 "basiset": "6-31G**", 
		 "properties": { 
			 "R2extent": 7444.5208, 
			 "electric_dipole_moment_norm": 4.97881080279, 
			 "electric_quadrupole_moment_norm": 13.1484250007, 
			 "total_energy": -3466.04284704, 
			 "HOMO_LUMO_gap": 0.20078, 
			 "cosmo_polarized_energy": -11.99, 
			 "cosmo_cavitation_energy": 36.98, 
			 "cosmo_dispersion_energy": -24.99, 
			 "cosmo_repulsion_energy": 1.87, 
			 "cosmo_total_nonelectrostatic_energy": 13.87, 
			 "SMD_solvation_energy": 6.78 
		},
		"coords": [
			{
				"x": 2.4313088123,
				"y": -0.6239069225,
				"z": 0.829136594,
				"element": "C" 
			},
			{
				"x": 1.2679717385,
				"y": -1.5132373143,
				"z": 0.3445213671,
				"element": "C" 
			},
			{
				"x": 1.5350585386,
				"y": -2.010121544,
				"z": -1.0815105246,
				"element": "C" 
			},
			{
				"x": -0.041840796,
				"y": -0.72661484,
				"z": 0.4586593578,
				"element": "C" 
			},
			{
				"x": -1.6259581466,
				"y": -1.7930479062,
				"z": -0.1598842177,
				"element": "Br" 
			},
			{
				"x": -0.3853207458,
				"y": -0.3487175125,
				"z": 1.9021853711,
				"element": "C" 
			},
			{
				"x": -0.0309473814,
				"y": -1.0411246974,
				"z": 2.8424732456,
				"element": "O" 
			},
			{
				"x": -1.1449759672,
				"y": 0.7864042405,
				"z": 2.1292305188,
				"element": "N" 
			},
			{
				"x": -1.6915898962,
				"y": 1.7233771425,
				"z": 1.2197934944,
				"element": "C" 
			},
			{
				"x": -3.0741106756,
				"y": 2.0021341425,
				"z": 1.2295849186,
				"element": "C" 
			},
			{
				"x": -3.5994678923,
				"y": 2.9612906654,
				"z": 0.3625693396,
				"element": "C" 
			},
			{
				"x": -2.7710561276,
				"y": 3.6446104658,
				"z": -0.5266361857,
				"element": "C" 
			},
			{
				"x": -1.4017921672,
				"y": 3.3828548719,
				"z": -0.5297883487,
				"element": "C" 
			},
			{
				"x": -0.8641696561,
				"y": 2.4450403202,
				"z": 0.3509340551,
				"element": "C" 
			},
			{
				"x": -3.9915337271,
				"y": 1.2555031603,
				"z": 2.1645565322,
				"element": "C" 
			},
			{
				"x": -3.5981491555,
				"y": 1.4039368124,
				"z": 3.4630015176,
				"element": "F" 
			},
			{
				"x": -5.2614989835,
				"y": 1.6990513344,
				"z": 2.0908321961,
				"element": "F" 
			},
			{
				"x": -4.0075170748,
				"y": -0.0670021456,
				"z": 1.9161592404,
				"element": "F" 
			},
			{
				"x": 2.3007165609,
				"y": -0.3171374274,
				"z": 1.8691976038,
				"element": "H" 
			},
			{
				"x": 2.5336429304,
				"y": 0.2729701014,
				"z": 0.2049906029,
				"element": "H" 
			},
			{
				"x": 3.3730385965,
				"y": -1.1771850583,
				"z": 0.7599214789,
				"element": "H" 
			},
			{
				"x": 1.1879320212,
				"y": -2.3683866802,
				"z": 1.02325262,
				"element": "H" 
			},
			{
				"x": 2.4841365948,
				"y": -2.5541732625,
				"z": -1.1152909288,
				"element": "H" 
			},
			{
				"x": 1.6082517716,
				"y": -1.1723344745,
				"z": -1.786075067,
				"element": "H" 
			},
			{
				"x": 0.7463371387,
				"y": -2.6786098861,
				"z": -1.432583776,
				"element": "H" 
			},
			{
				"x": -0.0505239404,
				"y": 0.127326641,
				"z": -0.2153462177,
				"element": "H" 
			},
			{
				"x": -1.5084455375,
				"y": 0.8080710681,
				"z": 3.0751957217,
				"element": "H" 
			},
			{
				"x": -4.6639468639,
				"y": 3.1629167589,
				"z": 0.3847178937,
				"element": "H" 
			},
			{
				"x": -3.19211532,
				"y": 4.3826966006,
				"z": -1.2014225042,
				"element": "H" 
			},
			{
				"x": -0.7422783367,
				"y": 3.9266636046,
				"z": -1.1993421919,
				"element": "H" 
			},
			{
				"x": 0.2082436878,
				"y": 2.2867517411,
				"z": 0.3935662929,
				"element": "H" 
			}
		],
		 "valence_orbital": [ 
			{
				"type": "occ",
				"energy": -0.28437,
				"method": "rhf"
			},
			{
				"type": "occ",
				"energy": -0.28354,
				"method": "rhf"
			},
			{
				"type": "occ",
				"energy": -0.27445,
				"method": "rhf"
			},
			{
				"type": "occ",
				"energy": -0.26218,
				"method": "rhf"
			},
			{
				"type": "occ",
				"energy": -0.24928,
				"method": "rhf"
			},
			{
				"type": "unocc",
				"energy": -0.0485,
				"method": "rhf"
			},
			{
				"type": "unocc",
				"energy": -0.03649,
				"method": "rhf"
			},
			{
				"type": "unocc",
				"energy": -0.02652,
				"method": "rhf"
			},
			{
				"type": "unocc",
				"energy": 0.04628,
				"method": "rhf"
			},
			{
				"type": "unocc",
				"energy": 0.06997,
				"method": "rhf"
			}
		],
		"cosmo_sigma_profile": { 
			"-0.025": 0.0,
			"-0.024": 0.0,
			"-0.023": 0.0,
			"-0.022": 0.0,
			"-0.021": 0.0,
			"-0.02": 0.0,
			"-0.019": 0.0,
			"-0.018": 0.0,
			"-0.017": 0.0,
			"-0.016": 0.0,
			"-0.015": 0.0,
			"-0.014": 0.0,
			"-0.013": 0.0,
			"-0.012": 0.301499114748,
			"-0.011": 0.400101633253,
			"-0.01": 0.905902253961,
			"-0.009": 1.36679060581,
			"-0.008": 3.28143655442,
			"-0.007": 10.6684760786,
			"-0.006": 12.5796864995,
			"-0.005": 12.4469051968,
			"-0.004": 14.2422946542,
			"-0.003": 24.4318298143,
			"-0.002": 23.7232653494,
			"-0.001": 24.8270232355,
			"0.0": 27.5475464757,
			"0.001": 33.2541785625,
			"0.002": 36.481167334,
			"0.003": 29.739156861,
			"0.004": 12.1440517831,
			"0.005": 8.94324954588,
			"0.006": 3.89291289241,
			"0.007": 1.6256441952,
			"0.008": 1.52867638945,
			"0.009": 1.25026447724,
			"0.01": 2.0285698569,
			"0.011": 1.87425922164,
			"0.012": 4.26063875734,
			"0.013": 2.3861654161,
			"0.014": 0.0,
			"0.015": 0.0,
			"0.016": 0.0,
			"0.017": 0.0,
			"0.018": 0.0,
			"0.019": 0.0,
			"0.02": 0.0,
			"0.021": 0.0,
			"0.022": 0.0,
			"0.023": 0.0,
			"0.024": 0.0,
			"0.025": 0.0
		}
	}
}
