{
	 "smiles": "ClC1=CC(Cl)=C(OS(=O)(=O)C2=CC=CC=C2)C=C1", 
	 "Tm": 318.65, 
	 "num_atms": 26, 
	 "gaussian": { 
		 "optdone": 1, 
		 "sigma_profile": "yes", 
		 "theory": "DFT", 
		 "functional": "B3LYP", 
		 "basiset": "6-31G**", 
		 "properties": { 
			 "R2extent": 7092.7957, 
			 "electric_dipole_moment_norm": 5.90128169807, 
			 "electric_quadrupole_moment_norm": 18.650549137, 
			 "total_energy": -2006.26030487, 
			 "HOMO_LUMO_gap": 0.1938, 
			 "cosmo_polarized_energy": -13.4, 
			 "cosmo_cavitation_energy": 36.18, 
			 "cosmo_dispersion_energy": -25.81, 
			 "cosmo_repulsion_energy": 1.95, 
			 "cosmo_total_nonelectrostatic_energy": 12.32, 
			 "SMD_solvation_energy": 4.71 
		},
		"coords": [
			{
				"x": 4.2226852533,
				"y": -1.5840673052,
				"z": 1.6455058446,
				"element": "Cl" 
			},
			{
				"x": 2.9567365345,
				"y": -0.4591962478,
				"z": 1.189822066,
				"element": "C" 
			},
			{
				"x": 2.8609852705,
				"y": 0.7594608775,
				"z": 1.8597302481,
				"element": "C" 
			},
			{
				"x": 1.8544056213,
				"y": 1.6563457237,
				"z": 1.5011150639,
				"element": "C" 
			},
			{
				"x": 1.752756211,
				"y": 3.1915500825,
				"z": 2.3145769001,
				"element": "Cl" 
			},
			{
				"x": 0.9511639895,
				"y": 1.3292170254,
				"z": 0.4786303841,
				"element": "C" 
			},
			{
				"x": -0.0033813837,
				"y": 2.2407770715,
				"z": 0.0605498285,
				"element": "O" 
			},
			{
				"x": -1.528524193,
				"y": 2.2271842416,
				"z": 0.7912583513,
				"element": "S" 
			},
			{
				"x": -2.0248933653,
				"y": 3.5712481914,
				"z": 0.5485732831,
				"element": "O" 
			},
			{
				"x": -1.3923933679,
				"y": 1.6546094899,
				"z": 2.1246601477,
				"element": "O" 
			},
			{
				"x": -2.4181299988,
				"y": 1.0764781239,
				"z": -0.2468104094,
				"element": "C" 
			},
			{
				"x": -2.9108023493,
				"y": 1.5180303289,
				"z": -1.4777608333,
				"element": "C" 
			},
			{
				"x": -3.5997267055,
				"y": 0.6142637812,
				"z": -2.284794853,
				"element": "C" 
			},
			{
				"x": -3.7906379396,
				"y": -0.7036840072,
				"z": -1.8589274587,
				"element": "C" 
			},
			{
				"x": -3.2982281566,
				"y": -1.1259731498,
				"z": -0.622192746,
				"element": "C" 
			},
			{
				"x": -2.6043877058,
				"y": -0.2342732105,
				"z": 0.1972491741,
				"element": "C" 
			},
			{
				"x": 1.0750477246,
				"y": 0.1088387006,
				"z": -0.187263158,
				"element": "C" 
			},
			{
				"x": 2.0748979406,
				"y": -0.7950947588,
				"z": 0.1630690159,
				"element": "C" 
			},
			{
				"x": 3.557739084,
				"y": 1.014519276,
				"z": 2.6485449129,
				"element": "H" 
			},
			{
				"x": -2.7663810838,
				"y": 2.5487089156,
				"z": -1.7824809921,
				"element": "H" 
			},
			{
				"x": -3.9929622217,
				"y": 0.9402479142,
				"z": -3.2426573576,
				"element": "H" 
			},
			{
				"x": -4.3313412395,
				"y": -1.4015383978,
				"z": -2.4913190112,
				"element": "H" 
			},
			{
				"x": -3.458271631,
				"y": -2.1472045745,
				"z": -0.290573401,
				"element": "H" 
			},
			{
				"x": -2.2258799223,
				"y": -0.5348568134,
				"z": 1.167683555,
				"element": "H" 
			},
			{
				"x": 0.3829495508,
				"y": -0.117275667,
				"z": -0.9908158046,
				"element": "H" 
			},
			{
				"x": 2.1726740839,
				"y": -1.7420156115,
				"z": -0.3547727506,
				"element": "H" 
			}
		],
		 "valence_orbital": [ 
			{
				"type": "occ",
				"energy": -0.31631,
				"method": "rhf"
			},
			{
				"type": "occ",
				"energy": -0.2863,
				"method": "rhf"
			},
			{
				"type": "occ",
				"energy": -0.28426,
				"method": "rhf"
			},
			{
				"type": "occ",
				"energy": -0.27054,
				"method": "rhf"
			},
			{
				"type": "occ",
				"energy": -0.25326,
				"method": "rhf"
			},
			{
				"type": "unocc",
				"energy": -0.05946,
				"method": "rhf"
			},
			{
				"type": "unocc",
				"energy": -0.03792,
				"method": "rhf"
			},
			{
				"type": "unocc",
				"energy": -0.03417,
				"method": "rhf"
			},
			{
				"type": "unocc",
				"energy": -0.03025,
				"method": "rhf"
			},
			{
				"type": "unocc",
				"energy": 0.001,
				"method": "rhf"
			}
		],
		"cosmo_sigma_profile": { 
			"-0.025": 0.0,
			"-0.024": 0.0,
			"-0.023": 0.0,
			"-0.022": 0.0,
			"-0.021": 0.0,
			"-0.02": 0.0,
			"-0.019": 0.0,
			"-0.018": 0.0,
			"-0.017": 0.0,
			"-0.016": 0.0,
			"-0.015": 0.0,
			"-0.014": 0.0,
			"-0.013": 0.0,
			"-0.012": 0.0,
			"-0.011": 0.0,
			"-0.01": 0.0203554999432,
			"-0.009": 1.3620595919,
			"-0.008": 7.44200477504,
			"-0.007": 14.8924627866,
			"-0.006": 17.037410006,
			"-0.005": 14.58514922,
			"-0.004": 13.8750215114,
			"-0.003": 16.2809277114,
			"-0.002": 17.2980856548,
			"-0.001": 24.2797778528,
			"0.0": 32.1750057777,
			"0.001": 32.1616730426,
			"0.002": 26.1114678456,
			"0.003": 22.5220897972,
			"0.004": 16.2192556666,
			"0.005": 8.18154277627,
			"0.006": 5.71047620264,
			"0.007": 4.82251049155,
			"0.008": 7.36582259392,
			"0.009": 9.52857877322,
			"0.01": 4.35610131588,
			"0.011": 0.0473518499837,
			"0.012": 0.0,
			"0.013": 0.0,
			"0.014": 0.0,
			"0.015": 0.0,
			"0.016": 0.0,
			"0.017": 0.0,
			"0.018": 0.0,
			"0.019": 0.0,
			"0.02": 0.0,
			"0.021": 0.0,
			"0.022": 0.0,
			"0.023": 0.0,
			"0.024": 0.0,
			"0.025": 0.0
		}
	}
}
