{
	 "smiles": "[O-][N+](=O)C1=CC=C(C=C1)S(Cl)(=O)=O", 
	 "Tm": 351.15, 
	 "num_atms": 17, 
	 "gaussian": { 
		 "optdone": 1, 
		 "sigma_profile": "yes", 
		 "theory": "DFT", 
		 "functional": "B3LYP", 
		 "basiset": "6-31G**", 
		 "properties": { 
			 "R2extent": 4092.7303, 
			 "electric_dipole_moment_norm": 0.814187011687, 
			 "electric_quadrupole_moment_norm": 19.1078408943, 
			 "total_energy": -1444.89861816, 
			 "HOMO_LUMO_gap": 0.18715, 
			 "cosmo_polarized_energy": -11.71, 
			 "cosmo_cavitation_energy": 26.3, 
			 "cosmo_dispersion_energy": -19.76, 
			 "cosmo_repulsion_energy": 1.51, 
			 "cosmo_total_nonelectrostatic_energy": 8.05, 
			 "SMD_solvation_energy": 5.56 
		},
		"coords": [
			{
				"x": -2.987293617,
				"y": 2.2751333382,
				"z": -3.9152642299,
				"element": "O" 
			},
			{
				"x": -1.8010139126,
				"y": 1.9580746898,
				"z": -3.9332066528,
				"element": "N" 
			},
			{
				"x": -1.0690489509,
				"y": 1.9993540825,
				"z": -4.9184095214,
				"element": "O" 
			},
			{
				"x": -1.2049927699,
				"y": 1.4861414971,
				"z": -2.6637163911,
				"element": "C" 
			},
			{
				"x": -2.0118429382,
				"y": 1.4306482086,
				"z": -1.5292951337,
				"element": "C" 
			},
			{
				"x": -1.4526507393,
				"y": 0.985832175,
				"z": -0.3339506636,
				"element": "C" 
			},
			{
				"x": -0.1073794258,
				"y": 0.6144411957,
				"z": -0.3249447938,
				"element": "C" 
			},
			{
				"x": 0.7014926024,
				"y": 0.675347545,
				"z": -1.4606431449,
				"element": "C" 
			},
			{
				"x": 0.1393602623,
				"y": 1.1205915402,
				"z": -2.6544528232,
				"element": "C" 
			},
			{
				"x": 0.6213619847,
				"y": 0.0634850705,
				"z": 1.2203497066,
				"element": "S" 
			},
			{
				"x": 0.2611456129,
				"y": -2.0275133883,
				"z": 1.1061718085,
				"element": "Cl" 
			},
			{
				"x": 2.0653228591,
				"y": 0.2405147843,
				"z": 1.1527335665,
				"element": "O" 
			},
			{
				"x": -0.1817546662,
				"y": 0.5635513207,
				"z": 2.3275399963,
				"element": "O" 
			},
			{
				"x": -3.0489605727,
				"y": 1.7340823432,
				"z": -1.5947676555,
				"element": "H" 
			},
			{
				"x": -2.0414964951,
				"y": 0.9359974148,
				"z": 0.5746683592,
				"element": "H" 
			},
			{
				"x": 1.7457761642,
				"y": 0.390162746,
				"z": -1.4062458702,
				"element": "H" 
			},
			{
				"x": 0.7194746023,
				"y": 1.1909554367,
				"z": -3.5657665571,
				"element": "H" 
			}
		],
		 "valence_orbital": [ 
			{
				"type": "occ",
				"energy": -0.33241,
				"method": "rhf"
			},
			{
				"type": "occ",
				"energy": -0.32945,
				"method": "rhf"
			},
			{
				"type": "occ",
				"energy": -0.31815,
				"method": "rhf"
			},
			{
				"type": "occ",
				"energy": -0.31717,
				"method": "rhf"
			},
			{
				"type": "occ",
				"energy": -0.31397,
				"method": "rhf"
			},
			{
				"type": "unocc",
				"energy": -0.12682,
				"method": "rhf"
			},
			{
				"type": "unocc",
				"energy": -0.09299,
				"method": "rhf"
			},
			{
				"type": "unocc",
				"energy": -0.06359,
				"method": "rhf"
			},
			{
				"type": "unocc",
				"energy": -0.04199,
				"method": "rhf"
			},
			{
				"type": "unocc",
				"energy": 0.03573,
				"method": "rhf"
			}
		],
		"cosmo_sigma_profile": { 
			"-0.025": 0.0,
			"-0.024": 0.0,
			"-0.023": 0.0,
			"-0.022": 0.0,
			"-0.021": 0.0,
			"-0.02": 0.0,
			"-0.019": 0.0,
			"-0.018": 0.0,
			"-0.017": 0.0,
			"-0.016": 0.0,
			"-0.015": 0.0,
			"-0.014": 0.0,
			"-0.013": 0.0,
			"-0.012": 0.0,
			"-0.011": 0.0,
			"-0.01": 1.57991219949,
			"-0.009": 7.08264171378,
			"-0.008": 8.37385268307,
			"-0.007": 9.21349564293,
			"-0.006": 8.33789856668,
			"-0.005": 9.25705393878,
			"-0.004": 11.9697231584,
			"-0.003": 16.2688656937,
			"-0.002": 21.1672921421,
			"-0.001": 17.3628704704,
			"0.0": 8.57033119259,
			"0.001": 10.3366340567,
			"0.002": 13.270978776,
			"0.003": 15.0543884412,
			"0.004": 6.22309469418,
			"0.005": 7.50072046318,
			"0.006": 9.67649045519,
			"0.007": 16.2086620901,
			"0.008": 12.9488364866,
			"0.009": 4.37831365469,
			"0.01": 0.263450494046,
			"0.011": 0.0,
			"0.012": 0.0,
			"0.013": 0.0,
			"0.014": 0.0,
			"0.015": 0.0,
			"0.016": 0.0,
			"0.017": 0.0,
			"0.018": 0.0,
			"0.019": 0.0,
			"0.02": 0.0,
			"0.021": 0.0,
			"0.022": 0.0,
			"0.023": 0.0,
			"0.024": 0.0,
			"0.025": 0.0
		}
	}
}
