{
	 "smiles": "CCOC1=C(CO)C=C(C=C1)[N+]([O-])=O", 
	 "Tm": 376.15, 
	 "num_atms": 25, 
	 "gaussian": { 
		 "optdone": 1, 
		 "sigma_profile": "yes", 
		 "theory": "DFT", 
		 "functional": "B3LYP", 
		 "basiset": "6-31G**", 
		 "properties": { 
			 "R2extent": 3909.4443, 
			 "electric_dipole_moment_norm": 6.88708006778, 
			 "electric_quadrupole_moment_norm": 16.7505911821, 
			 "total_energy": -705.123963857, 
			 "HOMO_LUMO_gap": 0.17005, 
			 "cosmo_polarized_energy": -14.03, 
			 "cosmo_cavitation_energy": 29.34, 
			 "cosmo_dispersion_energy": -21.17, 
			 "cosmo_repulsion_energy": 1.68, 
			 "cosmo_total_nonelectrostatic_energy": 9.85, 
			 "SMD_solvation_energy": 7.54 
		},
		"coords": [
			{
				"x": 3.3261272451,
				"y": 1.3314078564,
				"z": 0.8245838349,
				"element": "C" 
			},
			{
				"x": 1.9706229487,
				"y": 0.7047985224,
				"z": 1.0947591314,
				"element": "C" 
			},
			{
				"x": 1.1936336927,
				"y": 0.8139178555,
				"z": -0.1076987571,
				"element": "O" 
			},
			{
				"x": -0.086999434,
				"y": 0.3460656898,
				"z": -0.1253664217,
				"element": "C" 
			},
			{
				"x": -0.7803897544,
				"y": 0.5392650525,
				"z": -1.3438831011,
				"element": "C" 
			},
			{
				"x": -0.0922384171,
				"y": 1.2373205956,
				"z": -2.501949265,
				"element": "C" 
			},
			{
				"x": 1.0808684762,
				"y": 0.574536021,
				"z": -2.9470807626,
				"element": "O" 
			},
			{
				"x": -2.0889213141,
				"y": 0.0861190563,
				"z": -1.4379606177,
				"element": "C" 
			},
			{
				"x": -2.6974912079,
				"y": -0.5365633668,
				"z": -0.344417295,
				"element": "C" 
			},
			{
				"x": -2.0185752396,
				"y": -0.7266695167,
				"z": 0.8536714819,
				"element": "C" 
			},
			{
				"x": -0.7030101529,
				"y": -0.2826935992,
				"z": 0.9643875556,
				"element": "C" 
			},
			{
				"x": -4.0802628421,
				"y": -1.0015336429,
				"z": -0.4636592198,
				"element": "N" 
			},
			{
				"x": -4.5876426757,
				"y": -1.5503823994,
				"z": 0.5162976914,
				"element": "O" 
			},
			{
				"x": -4.6569201767,
				"y": -0.8157664759,
				"z": -1.5364262524,
				"element": "O" 
			},
			{
				"x": 3.9452693234,
				"y": 1.2781609406,
				"z": 1.7249126302,
				"element": "H" 
			},
			{
				"x": 3.2180291065,
				"y": 2.3817048158,
				"z": 0.5406432343,
				"element": "H" 
			},
			{
				"x": 3.8466127451,
				"y": 0.8043634237,
				"z": 0.0197354014,
				"element": "H" 
			},
			{
				"x": 2.0712672114,
				"y": -0.3530121784,
				"z": 1.3700262725,
				"element": "H" 
			},
			{
				"x": 1.4507162027,
				"y": 1.2239215692,
				"z": 1.9100017153,
				"element": "H" 
			},
			{
				"x": 0.1254541348,
				"y": 2.278772257,
				"z": -2.215438425,
				"element": "H" 
			},
			{
				"x": -0.7728180412,
				"y": 1.2705481692,
				"z": -3.3571396411,
				"element": "H" 
			},
			{
				"x": 1.6999354348,
				"y": 0.5973664504,
				"z": -2.2047628148,
				"element": "H" 
			},
			{
				"x": -2.6542968251,
				"y": 0.2093512312,
				"z": -2.354180875,
				"element": "H" 
			},
			{
				"x": -2.5198090157,
				"y": -1.216252593,
				"z": 1.6790637049,
				"element": "H" 
			},
			{
				"x": -0.1715614251,
				"y": -0.4313457343,
				"z": 1.8957807943,
				"element": "H" 
			}
		],
		 "valence_orbital": [ 
			{
				"type": "occ",
				"energy": -0.30178,
				"method": "rhf"
			},
			{
				"type": "occ",
				"energy": -0.2839,
				"method": "rhf"
			},
			{
				"type": "occ",
				"energy": -0.27594,
				"method": "rhf"
			},
			{
				"type": "occ",
				"energy": -0.27049,
				"method": "rhf"
			},
			{
				"type": "occ",
				"energy": -0.25134,
				"method": "rhf"
			},
			{
				"type": "unocc",
				"energy": -0.08129,
				"method": "rhf"
			},
			{
				"type": "unocc",
				"energy": -0.02805,
				"method": "rhf"
			},
			{
				"type": "unocc",
				"energy": 0.00843,
				"method": "rhf"
			},
			{
				"type": "unocc",
				"energy": 0.06844,
				"method": "rhf"
			},
			{
				"type": "unocc",
				"energy": 0.07559,
				"method": "rhf"
			}
		],
		"cosmo_sigma_profile": { 
			"-0.025": 0.0,
			"-0.024": 0.0,
			"-0.023": 0.0,
			"-0.022": 0.0,
			"-0.021": 0.0,
			"-0.02": 0.0,
			"-0.019": 0.0,
			"-0.018": 0.0,
			"-0.017": 0.0,
			"-0.016": 0.0,
			"-0.015": 0.0,
			"-0.014": 0.0,
			"-0.013": 0.0,
			"-0.012": 0.0,
			"-0.011": 0.0,
			"-0.01": 0.333934011951,
			"-0.009": 0.837472088665,
			"-0.008": 3.60330959023,
			"-0.007": 7.56923500765,
			"-0.006": 13.5795950599,
			"-0.005": 17.8288198461,
			"-0.004": 23.6723192907,
			"-0.003": 20.3447491043,
			"-0.002": 18.7461223272,
			"-0.001": 20.3454677424,
			"0.0": 20.6300776794,
			"0.001": 17.0188620305,
			"0.002": 11.2141916414,
			"0.003": 5.54590029374,
			"0.004": 5.4723859298,
			"0.005": 3.39796573506,
			"0.006": 4.60266444118,
			"0.007": 6.55717257476,
			"0.008": 11.342947348,
			"0.009": 5.73927436929,
			"0.01": 5.20102919813,
			"0.011": 2.14316581093,
			"0.012": 2.09744251758,
			"0.013": 1.53212501676,
			"0.014": 2.43024712048,
			"0.015": 0.564339522904,
			"0.016": 0.0,
			"0.017": 0.0,
			"0.018": 0.0,
			"0.019": 0.0,
			"0.02": 0.0,
			"0.021": 0.0,
			"0.022": 0.0,
			"0.023": 0.0,
			"0.024": 0.0,
			"0.025": 0.0
		}
	}
}
