{
	 "smiles": "NNC(=O)C(F)(F)F", 
	 "Tm": 386.15, 
	 "num_atms": 11, 
	 "gaussian": { 
		 "optdone": 1, 
		 "sigma_profile": "yes", 
		 "theory": "DFT", 
		 "functional": "B3LYP", 
		 "basiset": "6-31G**", 
		 "properties": { 
			 "R2extent": 1017.3594, 
			 "electric_dipole_moment_norm": 2.35862273372, 
			 "electric_quadrupole_moment_norm": 4.46607117386, 
			 "total_energy": -562.240286756, 
			 "HOMO_LUMO_gap": 0.26696, 
			 "cosmo_polarized_energy": -10.38, 
			 "cosmo_cavitation_energy": 17.26, 
			 "cosmo_dispersion_energy": -12.31, 
			 "cosmo_repulsion_energy": 1.01, 
			 "cosmo_total_nonelectrostatic_energy": 5.95, 
			 "SMD_solvation_energy": 5.61 
		},
		"coords": [
			{
				"x": -2.0866820825,
				"y": 0.0024885489,
				"z": -2.4185204643,
				"element": "N" 
			},
			{
				"x": -0.980835156,
				"y": -0.129720479,
				"z": -1.560801628,
				"element": "N" 
			},
			{
				"x": -1.1256217007,
				"y": -0.449865097,
				"z": -0.2518180166,
				"element": "C" 
			},
			{
				"x": -2.1892647222,
				"y": -0.6509043681,
				"z": 0.3066021082,
				"element": "O" 
			},
			{
				"x": 0.2033743039,
				"y": -0.5504081577,
				"z": 0.5297647457,
				"element": "C" 
			},
			{
				"x": 0.3513957353,
				"y": -1.7822986008,
				"z": 1.0343816129,
				"element": "F" 
			},
			{
				"x": 0.2137091077,
				"y": 0.3284883748,
				"z": 1.5403358482,
				"element": "F" 
			},
			{
				"x": 1.2792667822,
				"y": -0.2914446529,
				"z": -0.25812709,
				"element": "F" 
			},
			{
				"x": -2.6056316293,
				"y": -0.8750420336,
				"z": -2.3895330592,
				"element": "H" 
			},
			{
				"x": -2.7075277035,
				"y": 0.7038506056,
				"z": -2.014961162,
				"element": "H" 
			},
			{
				"x": -0.0721829349,
				"y": 0.0256558598,
				"z": -1.9702228948,
				"element": "H" 
			}
		],
		 "valence_orbital": [ 
			{
				"type": "occ",
				"energy": -0.41311,
				"method": "rhf"
			},
			{
				"type": "occ",
				"energy": -0.40547,
				"method": "rhf"
			},
			{
				"type": "occ",
				"energy": -0.30063,
				"method": "rhf"
			},
			{
				"type": "occ",
				"energy": -0.28922,
				"method": "rhf"
			},
			{
				"type": "occ",
				"energy": -0.28261,
				"method": "rhf"
			},
			{
				"type": "unocc",
				"energy": -0.01565,
				"method": "rhf"
			},
			{
				"type": "unocc",
				"energy": 0.06851,
				"method": "rhf"
			},
			{
				"type": "unocc",
				"energy": 0.0892,
				"method": "rhf"
			},
			{
				"type": "unocc",
				"energy": 0.1263,
				"method": "rhf"
			},
			{
				"type": "unocc",
				"energy": 0.14161,
				"method": "rhf"
			}
		],
		"cosmo_sigma_profile": { 
			"-0.025": 0.0,
			"-0.024": 0.0,
			"-0.023": 0.0,
			"-0.022": 0.0,
			"-0.021": 0.0,
			"-0.02": 0.0,
			"-0.019": 0.0,
			"-0.018": 0.0,
			"-0.017": 0.0,
			"-0.016": 0.0624833097654,
			"-0.015": 0.547918592454,
			"-0.014": 1.04399493935,
			"-0.013": 1.08232729275,
			"-0.012": 3.08490469806,
			"-0.011": 3.69274650611,
			"-0.01": 3.94754680808,
			"-0.009": 2.79479159526,
			"-0.008": 3.33293003536,
			"-0.007": 4.37358973533,
			"-0.006": 4.23098683411,
			"-0.005": 4.79118633609,
			"-0.004": 5.068239541,
			"-0.003": 4.83426112756,
			"-0.002": 5.50894848614,
			"-0.001": 5.35565316752,
			"0.0": 7.21423881919,
			"0.001": 16.315654566,
			"0.002": 27.3484960031,
			"0.003": 5.36585666681,
			"0.004": 2.56170690586,
			"0.005": 2.29297556061,
			"0.006": 1.7286637458,
			"0.007": 2.28419629271,
			"0.008": 2.24142952259,
			"0.009": 2.04927810992,
			"0.01": 2.39480650037,
			"0.011": 3.91646499579,
			"0.012": 5.24307196204,
			"0.013": 1.09408693147,
			"0.014": 0.612196140513,
			"0.015": 0.480629765055,
			"0.016": 0.193074577217,
			"0.017": 0.0,
			"0.018": 0.0,
			"0.019": 0.0,
			"0.02": 0.0,
			"0.021": 0.0,
			"0.022": 0.0,
			"0.023": 0.0,
			"0.024": 0.0,
			"0.025": 0.0
		}
	}
}
