{
	 "smiles": "FC1=CC=C(C=C1)C(=O)CC#N", 
	 "Tm": 359.15, 
	 "num_atms": 18, 
	 "gaussian": { 
		 "optdone": 1, 
		 "sigma_profile": "yes", 
		 "theory": "DFT", 
		 "functional": "B3LYP", 
		 "basiset": "6-31G**", 
		 "properties": { 
			 "R2extent": 2862.5986, 
			 "electric_dipole_moment_norm": 3.14329659593, 
			 "electric_quadrupole_moment_norm": 16.2255624984, 
			 "total_energy": -576.359833203, 
			 "HOMO_LUMO_gap": 0.19146, 
			 "cosmo_polarized_energy": -12.3, 
			 "cosmo_cavitation_energy": 24.42, 
			 "cosmo_dispersion_energy": -16.92, 
			 "cosmo_repulsion_energy": 1.32, 
			 "cosmo_total_nonelectrostatic_energy": 8.83, 
			 "SMD_solvation_energy": 6.63 
		},
		"coords": [
			{
				"x": 4.1566540609,
				"y": -1.7253275777,
				"z": 1.3282862712,
				"element": "F" 
			},
			{
				"x": 3.0822429889,
				"y": -1.041547357,
				"z": 0.9019146058,
				"element": "C" 
			},
			{
				"x": 2.5112411477,
				"y": -0.0937091064,
				"z": 1.7456149425,
				"element": "C" 
			},
			{
				"x": 1.397589581,
				"y": 0.612077302,
				"z": 1.2988138327,
				"element": "C" 
			},
			{
				"x": 0.8625663925,
				"y": 0.370523833,
				"z": 0.0221879945,
				"element": "C" 
			},
			{
				"x": 1.4670723669,
				"y": -0.5955742352,
				"z": -0.8031609359,
				"element": "C" 
			},
			{
				"x": 2.5783253926,
				"y": -1.3060352189,
				"z": -0.3706144624,
				"element": "C" 
			},
			{
				"x": -0.333374643,
				"y": 1.0762723146,
				"z": -0.5088071503,
				"element": "C" 
			},
			{
				"x": -0.8060769109,
				"y": 0.8231454011,
				"z": -1.6020637134,
				"element": "O" 
			},
			{
				"x": -1.0445475693,
				"y": 2.1421554412,
				"z": 0.3660648496,
				"element": "C" 
			},
			{
				"x": -0.2186767891,
				"y": 3.3076052412,
				"z": 0.6785748127,
				"element": "C" 
			},
			{
				"x": 0.4457639872,
				"y": 4.2279268023,
				"z": 0.9219827606,
				"element": "N" 
			},
			{
				"x": 2.9413823303,
				"y": 0.0805976439,
				"z": 2.7253736792,
				"element": "H" 
			},
			{
				"x": 0.9619206105,
				"y": 1.3596177981,
				"z": 1.9523960752,
				"element": "H" 
			},
			{
				"x": 1.0419064715,
				"y": -0.7713043586,
				"z": -1.7852269328,
				"element": "H" 
			},
			{
				"x": 3.058830587,
				"y": -2.053667595,
				"z": -0.9919870529,
				"element": "H" 
			},
			{
				"x": -1.9270721859,
				"y": 2.4601418549,
				"z": -0.1946488002,
				"element": "H" 
			},
			{
				"x": -1.3834478187,
				"y": 1.6853018164,
				"z": 1.3040992238,
				"element": "H" 
			}
		],
		 "valence_orbital": [ 
			{
				"type": "occ",
				"energy": -0.34532,
				"method": "rhf"
			},
			{
				"type": "occ",
				"energy": -0.33542,
				"method": "rhf"
			},
			{
				"type": "occ",
				"energy": -0.28401,
				"method": "rhf"
			},
			{
				"type": "occ",
				"energy": -0.27507,
				"method": "rhf"
			},
			{
				"type": "occ",
				"energy": -0.26891,
				"method": "rhf"
			},
			{
				"type": "unocc",
				"energy": -0.07745,
				"method": "rhf"
			},
			{
				"type": "unocc",
				"energy": -0.03267,
				"method": "rhf"
			},
			{
				"type": "unocc",
				"energy": 0.01354,
				"method": "rhf"
			},
			{
				"type": "unocc",
				"energy": 0.02502,
				"method": "rhf"
			},
			{
				"type": "unocc",
				"energy": 0.03693,
				"method": "rhf"
			}
		],
		"cosmo_sigma_profile": { 
			"-0.025": 0.0,
			"-0.024": 0.0,
			"-0.023": 0.0,
			"-0.022": 0.0,
			"-0.021": 0.0,
			"-0.02": 0.0,
			"-0.019": 0.0,
			"-0.018": 0.0,
			"-0.017": 0.0,
			"-0.016": 0.0,
			"-0.015": 0.0,
			"-0.014": 0.0,
			"-0.013": 0.0,
			"-0.012": 0.0813895816375,
			"-0.011": 1.92728694251,
			"-0.01": 4.21111070277,
			"-0.009": 5.16048697413,
			"-0.008": 7.43006310035,
			"-0.007": 10.5032994856,
			"-0.006": 11.3237837681,
			"-0.005": 9.82626227803,
			"-0.004": 8.35276635183,
			"-0.003": 8.11370703203,
			"-0.002": 7.77912352793,
			"-0.001": 15.3509449241,
			"0.0": 15.3349033991,
			"0.001": 19.1132856155,
			"0.002": 15.2145923845,
			"0.003": 11.7340903957,
			"0.004": 8.6579547932,
			"0.005": 3.79246375172,
			"0.006": 3.80310306481,
			"0.007": 3.69373147521,
			"0.008": 5.13761388428,
			"0.009": 5.14453576369,
			"0.01": 6.60261088972,
			"0.011": 5.49042226497,
			"0.012": 2.71383340156,
			"0.013": 1.07209273111,
			"0.014": 0.00434733676486,
			"0.015": 0.0,
			"0.016": 0.0,
			"0.017": 0.0,
			"0.018": 0.0,
			"0.019": 0.0,
			"0.02": 0.0,
			"0.021": 0.0,
			"0.022": 0.0,
			"0.023": 0.0,
			"0.024": 0.0,
			"0.025": 0.0
		}
	}
}
