{
	 "smiles": "FC1=CC=C(CCNC(=O)C2CC3=C(CN2)C=CC=C3)C=C1", 
	 "Tm": 376.15, 
	 "num_atms": 41, 
	 "gaussian": { 
		 "optdone": 1, 
		 "sigma_profile": "yes", 
		 "theory": "DFT", 
		 "functional": "B3LYP", 
		 "basiset": "6-31G**", 
		 "properties": { 
			 "R2extent": 10630.8621, 
			 "electric_dipole_moment_norm": 1.38973167554, 
			 "electric_quadrupole_moment_norm": 22.939045294, 
			 "total_energy": -981.94808538, 
			 "HOMO_LUMO_gap": 0.21257, 
			 "cosmo_polarized_energy": -15.83, 
			 "cosmo_cavitation_energy": 44.38, 
			 "cosmo_dispersion_energy": -30.48, 
			 "cosmo_repulsion_energy": 2.3, 
			 "cosmo_total_nonelectrostatic_energy": 16.2, 
			 "SMD_solvation_energy": 5.96 
		},
		"coords": [
			{
				"x": -7.235586072,
				"y": -1.1337118599,
				"z": -0.7310321761,
				"element": "F" 
			},
			{
				"x": -5.9609379191,
				"y": -1.5775663893,
				"z": -0.7028026371,
				"element": "C" 
			},
			{
				"x": -4.9978716228,
				"y": -0.8249760459,
				"z": -0.0406674363,
				"element": "C" 
			},
			{
				"x": -3.6847955156,
				"y": -1.2944364024,
				"z": -0.0145152673,
				"element": "C" 
			},
			{
				"x": -3.3273016588,
				"y": -2.4993856584,
				"z": -0.6364595051,
				"element": "C" 
			},
			{
				"x": -1.8910354168,
				"y": -2.9748150149,
				"z": -0.6398042677,
				"element": "C" 
			},
			{
				"x": -1.092345569,
				"y": -2.4134189303,
				"z": -1.8389176893,
				"element": "C" 
			},
			{
				"x": 0.2867214968,
				"y": -2.8784800678,
				"z": -1.8857542949,
				"element": "N" 
			},
			{
				"x": 1.4168695456,
				"y": -2.2582986937,
				"z": -1.4335837004,
				"element": "C" 
			},
			{
				"x": 2.5205890806,
				"y": -2.7790892048,
				"z": -1.5649598204,
				"element": "O" 
			},
			{
				"x": 1.2523106166,
				"y": -0.8755241034,
				"z": -0.7719156305,
				"element": "C" 
			},
			{
				"x": 2.5183638301,
				"y": -0.4895910864,
				"z": 0.0033693748,
				"element": "C" 
			},
			{
				"x": 2.5244287683,
				"y": 0.9718393028,
				"z": 0.4104025536,
				"element": "C" 
			},
			{
				"x": 1.6487058554,
				"y": 1.894300795,
				"z": -0.1853532334,
				"element": "C" 
			},
			{
				"x": 0.6319598157,
				"y": 1.4291288958,
				"z": -1.217126195,
				"element": "C" 
			},
			{
				"x": 0.8932993701,
				"y": 0.1122791104,
				"z": -1.8035536545,
				"element": "N" 
			},
			{
				"x": 1.693288706,
				"y": 3.2402409567,
				"z": 0.2002236976,
				"element": "C" 
			},
			{
				"x": 2.5962936724,
				"y": 3.681095128,
				"z": 1.1645346553,
				"element": "C" 
			},
			{
				"x": 3.4697912183,
				"y": 2.7663317776,
				"z": 1.7588021226,
				"element": "C" 
			},
			{
				"x": 3.4286248846,
				"y": 1.4264074418,
				"z": 1.3811903962,
				"element": "C" 
			},
			{
				"x": -4.3293153248,
				"y": -3.2282690455,
				"z": -1.2925763969,
				"element": "C" 
			},
			{
				"x": -5.648826064,
				"y": -2.7771325134,
				"z": -1.3314438684,
				"element": "C" 
			},
			{
				"x": -5.2820253449,
				"y": 0.1029249142,
				"z": 0.443909081,
				"element": "H" 
			},
			{
				"x": -2.9264368805,
				"y": -0.7152398811,
				"z": 0.506581482,
				"element": "H" 
			},
			{
				"x": -1.3907401243,
				"y": -2.676305957,
				"z": 0.2888512832,
				"element": "H" 
			},
			{
				"x": -1.8566612961,
				"y": -4.0703396838,
				"z": -0.6738371293,
				"element": "H" 
			},
			{
				"x": -1.0884350556,
				"y": -1.3216866535,
				"z": -1.8332139775,
				"element": "H" 
			},
			{
				"x": -1.5850158053,
				"y": -2.7140504194,
				"z": -2.7707942091,
				"element": "H" 
			},
			{
				"x": 0.4758413525,
				"y": -3.7808183685,
				"z": -2.3035939928,
				"element": "H" 
			},
			{
				"x": 0.4026375099,
				"y": -0.9163357002,
				"z": -0.0760296575,
				"element": "H" 
			},
			{
				"x": 3.3847348915,
				"y": -0.7194011804,
				"z": -0.6286193049,
				"element": "H" 
			},
			{
				"x": 2.6269002988,
				"y": -1.1276809442,
				"z": 0.8885663247,
				"element": "H" 
			},
			{
				"x": -0.3653424037,
				"y": 1.3968588826,
				"z": -0.7522455901,
				"element": "H" 
			},
			{
				"x": 0.5589660302,
				"y": 2.1570105056,
				"z": -2.0330382989,
				"element": "H" 
			},
			{
				"x": 1.6703117062,
				"y": 0.1837871788,
				"z": -2.4589163981,
				"element": "H" 
			},
			{
				"x": 1.0116941617,
				"y": 3.9493956019,
				"z": -0.2657534369,
				"element": "H" 
			},
			{
				"x": 2.6223032864,
				"y": 4.7292093877,
				"z": 1.4489658318,
				"element": "H" 
			},
			{
				"x": 4.1784919918,
				"y": 3.0966231995,
				"z": 2.5129730777,
				"element": "H" 
			},
			{
				"x": 4.1073905525,
				"y": 0.7133911373,
				"z": 1.843941934,
				"element": "H" 
			},
			{
				"x": -4.077711814,
				"y": -4.1691123361,
				"z": -1.7758640868,
				"element": "H" 
			},
			{
				"x": -6.4296347546,
				"y": -3.3393580756,
				"z": -1.832239959,
				"element": "H" 
			}
		],
		 "valence_orbital": [ 
			{
				"type": "occ",
				"energy": -0.25161,
				"method": "rhf"
			},
			{
				"type": "occ",
				"energy": -0.24237,
				"method": "rhf"
			},
			{
				"type": "occ",
				"energy": -0.23865,
				"method": "rhf"
			},
			{
				"type": "occ",
				"energy": -0.23719,
				"method": "rhf"
			},
			{
				"type": "occ",
				"energy": -0.22838,
				"method": "rhf"
			},
			{
				"type": "unocc",
				"energy": -0.01581,
				"method": "rhf"
			},
			{
				"type": "unocc",
				"energy": -0.00456,
				"method": "rhf"
			},
			{
				"type": "unocc",
				"energy": -0.0024,
				"method": "rhf"
			},
			{
				"type": "unocc",
				"energy": 0.00196,
				"method": "rhf"
			},
			{
				"type": "unocc",
				"energy": 0.02259,
				"method": "rhf"
			}
		],
		"cosmo_sigma_profile": { 
			"-0.025": 0.0,
			"-0.024": 0.0,
			"-0.023": 0.0,
			"-0.022": 0.0,
			"-0.021": 0.0,
			"-0.02": 0.0,
			"-0.019": 0.0,
			"-0.018": 0.0,
			"-0.017": 0.0,
			"-0.016": 0.0,
			"-0.015": 0.0,
			"-0.014": 0.0653843015948,
			"-0.013": 0.836490927634,
			"-0.012": 1.18163831063,
			"-0.011": 1.24063811315,
			"-0.01": 2.56937255497,
			"-0.009": 2.17201342633,
			"-0.008": 2.21763174176,
			"-0.007": 5.43128384713,
			"-0.006": 11.3692741652,
			"-0.005": 31.9520260756,
			"-0.004": 38.076142704,
			"-0.003": 30.86793836,
			"-0.002": 27.0680849346,
			"-0.001": 24.1201443297,
			"0.0": 20.6207413817,
			"0.001": 23.0725630221,
			"0.002": 20.9344829218,
			"0.003": 21.198781099,
			"0.004": 27.0147991473,
			"0.005": 21.7701694825,
			"0.006": 10.1996524724,
			"0.007": 6.3676548733,
			"0.008": 2.61168928521,
			"0.009": 1.99184513494,
			"0.01": 1.87757145532,
			"0.011": 1.77253615608,
			"0.012": 2.73172379664,
			"0.013": 3.14317061522,
			"0.014": 5.54489531455,
			"0.015": 0.746872411532,
			"0.016": 0.0,
			"0.017": 0.0,
			"0.018": 0.0,
			"0.019": 0.0,
			"0.02": 0.0,
			"0.021": 0.0,
			"0.022": 0.0,
			"0.023": 0.0,
			"0.024": 0.0,
			"0.025": 0.0
		}
	}
}
