{
	 "smiles": "BrC1=C(C=C2C=CC=CC2=N1)C#N", 
	 "Tm": 453.15, 
	 "num_atms": 18, 
	 "gaussian": { 
		 "optdone": 1, 
		 "sigma_profile": "yes", 
		 "theory": "DFT", 
		 "functional": "B3LYP", 
		 "basiset": "6-31G**", 
		 "properties": { 
			 "R2extent": 4546.2237, 
			 "electric_dipole_moment_norm": 5.91355248983, 
			 "electric_quadrupole_moment_norm": 10.7261575529, 
			 "total_energy": -3064.96965494, 
			 "HOMO_LUMO_gap": 0.16811, 
			 "cosmo_polarized_energy": -11.47, 
			 "cosmo_cavitation_energy": 26.19, 
			 "cosmo_dispersion_energy": -19.29, 
			 "cosmo_repulsion_energy": 1.51, 
			 "cosmo_total_nonelectrostatic_energy": 8.41, 
			 "SMD_solvation_energy": 3.0 
		},
		"coords": [
			{
				"x": -1.7425403111,
				"y": 2.2175584778,
				"z": 3.3366028882,
				"element": "Br" 
			},
			{
				"x": -1.0849702303,
				"y": 1.2245892764,
				"z": 1.8388003496,
				"element": "C" 
			},
			{
				"x": -1.4711369507,
				"y": 1.6440829911,
				"z": 0.521727005,
				"element": "C" 
			},
			{
				"x": -0.982370103,
				"y": 0.9093108622,
				"z": -0.5449315208,
				"element": "C" 
			},
			{
				"x": -0.1402465951,
				"y": -0.2026246974,
				"z": -0.3168669655,
				"element": "C" 
			},
			{
				"x": 0.3966268232,
				"y": -1.000119298,
				"z": -1.3612399484,
				"element": "C" 
			},
			{
				"x": 1.2111651103,
				"y": -2.069740414,
				"z": -1.0641165257,
				"element": "C" 
			},
			{
				"x": 1.5201729061,
				"y": -2.3835119173,
				"z": 0.2831927583,
				"element": "C" 
			},
			{
				"x": 1.0137725757,
				"y": -1.6276219309,
				"z": 1.3186032154,
				"element": "C" 
			},
			{
				"x": 0.1733007977,
				"y": -0.5216594508,
				"z": 1.0418612526,
				"element": "C" 
			},
			{
				"x": -0.3158197948,
				"y": 0.2119353647,
				"z": 2.0869677967,
				"element": "N" 
			},
			{
				"x": -2.3228167324,
				"y": 2.7684806244,
				"z": 0.2894660393,
				"element": "C" 
			},
			{
				"x": -3.0117574911,
				"y": 3.6740901376,
				"z": 0.0485947894,
				"element": "N" 
			},
			{
				"x": -1.2495195623,
				"y": 1.1918362745,
				"z": -1.5588867804,
				"element": "H" 
			},
			{
				"x": 0.1552539256,
				"y": -0.7533797462,
				"z": -2.3914951851,
				"element": "H" 
			},
			{
				"x": 1.6215366503,
				"y": -2.6793311962,
				"z": -1.8631427523,
				"element": "H" 
			},
			{
				"x": 2.1643769744,
				"y": -3.2309989978,
				"z": 0.4974539042,
				"element": "H" 
			},
			{
				"x": 1.2368720074,
				"y": -1.8492963602,
				"z": 2.3566096797,
				"element": "H" 
			}
		],
		 "valence_orbital": [ 
			{
				"type": "occ",
				"energy": -0.31156,
				"method": "rhf"
			},
			{
				"type": "occ",
				"energy": -0.29887,
				"method": "rhf"
			},
			{
				"type": "occ",
				"energy": -0.2846,
				"method": "rhf"
			},
			{
				"type": "occ",
				"energy": -0.26628,
				"method": "rhf"
			},
			{
				"type": "occ",
				"energy": -0.25751,
				"method": "rhf"
			},
			{
				"type": "unocc",
				"energy": -0.0894,
				"method": "rhf"
			},
			{
				"type": "unocc",
				"energy": -0.05772,
				"method": "rhf"
			},
			{
				"type": "unocc",
				"energy": -0.00801,
				"method": "rhf"
			},
			{
				"type": "unocc",
				"energy": -0.00664,
				"method": "rhf"
			},
			{
				"type": "unocc",
				"energy": 0.02766,
				"method": "rhf"
			}
		],
		"cosmo_sigma_profile": { 
			"-0.025": 0.0,
			"-0.024": 0.0,
			"-0.023": 0.0,
			"-0.022": 0.0,
			"-0.021": 0.0,
			"-0.02": 0.0,
			"-0.019": 0.0,
			"-0.018": 0.0,
			"-0.017": 0.0,
			"-0.016": 0.0,
			"-0.015": 0.0,
			"-0.014": 0.0,
			"-0.013": 0.0,
			"-0.012": 0.0,
			"-0.011": 0.0469601555364,
			"-0.01": 2.8246135124,
			"-0.009": 2.98090209267,
			"-0.008": 4.01518377289,
			"-0.007": 9.72317741526,
			"-0.006": 9.81805557761,
			"-0.005": 11.7966161956,
			"-0.004": 13.5874625134,
			"-0.003": 17.5712837987,
			"-0.002": 14.9315933835,
			"-0.001": 15.8013660771,
			"0.0": 15.2258232019,
			"0.001": 18.396801064,
			"0.002": 18.3895256973,
			"0.003": 17.754812054,
			"0.004": 9.26547505841,
			"0.005": 5.83366018331,
			"0.006": 4.0398339539,
			"0.007": 5.16727731046,
			"0.008": 4.51540213045,
			"0.009": 4.05793585767,
			"0.01": 4.43191357854,
			"0.011": 2.86123874835,
			"0.012": 2.82683464715,
			"0.013": 0.536030828019,
			"0.014": 0.0,
			"0.015": 0.0,
			"0.016": 0.0,
			"0.017": 0.0,
			"0.018": 0.0,
			"0.019": 0.0,
			"0.02": 0.0,
			"0.021": 0.0,
			"0.022": 0.0,
			"0.023": 0.0,
			"0.024": 0.0,
			"0.025": 0.0
		}
	}
}
