{
	 "smiles": "FC1=CC=C(C=C1)S(=O)(=O)NC1CC1", 
	 "Tm": 328.15, 
	 "num_atms": 24, 
	 "gaussian": { 
		 "optdone": 1, 
		 "sigma_profile": "yes", 
		 "theory": "DFT", 
		 "functional": "B3LYP", 
		 "basiset": "6-31G**", 
		 "properties": { 
			 "R2extent": 3544.9397, 
			 "electric_dipole_moment_norm": 3.76753643247, 
			 "electric_quadrupole_moment_norm": 12.3300401666, 
			 "total_energy": -1052.10177622, 
			 "HOMO_LUMO_gap": 0.22188, 
			 "cosmo_polarized_energy": -12.76, 
			 "cosmo_cavitation_energy": 29.82, 
			 "cosmo_dispersion_energy": -21.28, 
			 "cosmo_repulsion_energy": 1.62, 
			 "cosmo_total_nonelectrostatic_energy": 10.15, 
			 "SMD_solvation_energy": 4.06 
		},
		"coords": [
			{
				"x": 3.2281074561,
				"y": 3.6767959895,
				"z": 0.7585494801,
				"element": "F" 
			},
			{
				"x": 2.6126514499,
				"y": 2.4810064917,
				"z": 0.7664318785,
				"element": "C" 
			},
			{
				"x": 3.2368331314,
				"y": 1.4035074856,
				"z": 0.14068738,
				"element": "C" 
			},
			{
				"x": 2.5999541611,
				"y": 0.1661806077,
				"z": 0.1487716138,
				"element": "C" 
			},
			{
				"x": 1.3572044673,
				"y": 0.0381095038,
				"z": 0.7767001532,
				"element": "C" 
			},
			{
				"x": 0.7464831846,
				"y": 1.1226770468,
				"z": 1.4082407718,
				"element": "C" 
			},
			{
				"x": 1.3811711737,
				"y": 2.3643597277,
				"z": 1.4025929449,
				"element": "C" 
			},
			{
				"x": 0.551557072,
				"y": -1.5608928808,
				"z": 0.8006517669,
				"element": "S" 
			},
			{
				"x": 1.5761814601,
				"y": -2.6031169458,
				"z": 0.9240528685,
				"element": "O" 
			},
			{
				"x": -0.5667220347,
				"y": -1.4708329464,
				"z": 1.7470009044,
				"element": "O" 
			},
			{
				"x": -0.0227875252,
				"y": -1.7286105963,
				"z": -0.7914077472,
				"element": "N" 
			},
			{
				"x": -1.345964503,
				"y": -1.2215843208,
				"z": -1.0821589292,
				"element": "C" 
			},
			{
				"x": -1.4602566424,
				"y": 0.1992357495,
				"z": -1.5775303406,
				"element": "C" 
			},
			{
				"x": -1.6503547159,
				"y": -0.9501591424,
				"z": -2.5331764752,
				"element": "C" 
			},
			{
				"x": 4.2024900533,
				"y": 1.5446020878,
				"z": -0.3318575965,
				"element": "H" 
			},
			{
				"x": 3.0645977583,
				"y": -0.6969146819,
				"z": -0.315013882,
				"element": "H" 
			},
			{
				"x": -0.2071027471,
				"y": 0.9843778404,
				"z": 1.904886805,
				"element": "H" 
			},
			{
				"x": 0.9418438503,
				"y": 3.2306857197,
				"z": 1.8844147819,
				"element": "H" 
			},
			{
				"x": 0.1109564505,
				"y": -2.708041838,
				"z": -1.0386170311,
				"element": "H" 
			},
			{
				"x": -2.1534841731,
				"y": -1.5965476892,
				"z": -0.4566248985,
				"element": "H" 
			},
			{
				"x": -0.5423133383,
				"y": 0.7703315249,
				"z": -1.6612235756,
				"element": "H" 
			},
			{
				"x": -2.3293725018,
				"y": 0.7699563809,
				"z": -1.2667638663,
				"element": "H" 
			},
			{
				"x": -0.8576121418,
				"y": -1.1406665985,
				"z": -3.2493716269,
				"element": "H" 
			},
			{
				"x": -2.6502613452,
				"y": -1.1806585157,
				"z": -2.8866353799,
				"element": "H" 
			}
		],
		 "valence_orbital": [ 
			{
				"type": "occ",
				"energy": -0.30632,
				"method": "rhf"
			},
			{
				"type": "occ",
				"energy": -0.29361,
				"method": "rhf"
			},
			{
				"type": "occ",
				"energy": -0.28235,
				"method": "rhf"
			},
			{
				"type": "occ",
				"energy": -0.27875,
				"method": "rhf"
			},
			{
				"type": "occ",
				"energy": -0.25983,
				"method": "rhf"
			},
			{
				"type": "unocc",
				"energy": -0.03795,
				"method": "rhf"
			},
			{
				"type": "unocc",
				"energy": -0.03045,
				"method": "rhf"
			},
			{
				"type": "unocc",
				"energy": 0.05539,
				"method": "rhf"
			},
			{
				"type": "unocc",
				"energy": 0.08193,
				"method": "rhf"
			},
			{
				"type": "unocc",
				"energy": 0.08353,
				"method": "rhf"
			}
		],
		"cosmo_sigma_profile": { 
			"-0.025": 0.0,
			"-0.024": 0.0,
			"-0.023": 0.0,
			"-0.022": 0.0,
			"-0.021": 0.0,
			"-0.02": 0.0,
			"-0.019": 0.0,
			"-0.018": 0.0,
			"-0.017": 0.0,
			"-0.016": 0.0,
			"-0.015": 0.131605383888,
			"-0.014": 0.933368231955,
			"-0.013": 0.625725993702,
			"-0.012": 1.05366011788,
			"-0.011": 1.35018101779,
			"-0.01": 0.76290717042,
			"-0.009": 1.12744439461,
			"-0.008": 6.24485099801,
			"-0.007": 7.85744608809,
			"-0.006": 9.09375356,
			"-0.005": 16.2812213075,
			"-0.004": 15.1648278126,
			"-0.003": 14.9263922173,
			"-0.002": 14.8287441675,
			"-0.001": 21.5909409964,
			"0.0": 26.0261290998,
			"0.001": 22.3894179308,
			"0.002": 16.7999237977,
			"0.003": 12.1690007184,
			"0.004": 11.3830913018,
			"0.005": 4.0753165209,
			"0.006": 2.4995382496,
			"0.007": 4.18929230214,
			"0.008": 3.87851308811,
			"0.009": 3.66618535176,
			"0.01": 6.45495898187,
			"0.011": 9.27512625246,
			"0.012": 2.91762352802,
			"0.013": 0.0,
			"0.014": 0.0,
			"0.015": 0.0,
			"0.016": 0.0,
			"0.017": 0.0,
			"0.018": 0.0,
			"0.019": 0.0,
			"0.02": 0.0,
			"0.021": 0.0,
			"0.022": 0.0,
			"0.023": 0.0,
			"0.024": 0.0,
			"0.025": 0.0
		}
	}
}
