{
	 "smiles": "OC(=O)CNC(=O)C=CC1=CC=CO1", 
	 "Tm": 493.15, 
	 "num_atms": 23, 
	 "gaussian": { 
		 "optdone": 1, 
		 "sigma_profile": "yes", 
		 "theory": "DFT", 
		 "functional": "B3LYP", 
		 "basiset": "6-31G**", 
		 "properties": { 
			 "R2extent": 4834.797, 
			 "electric_dipole_moment_norm": 0.553835219176, 
			 "electric_quadrupole_moment_norm": 16.9826237784, 
			 "total_energy": -704.006668737, 
			 "HOMO_LUMO_gap": 0.15514, 
			 "cosmo_polarized_energy": -17.44, 
			 "cosmo_cavitation_energy": 28.71, 
			 "cosmo_dispersion_energy": -20.72, 
			 "cosmo_repulsion_energy": 1.65, 
			 "cosmo_total_nonelectrostatic_energy": 9.63, 
			 "SMD_solvation_energy": 7.35 
		},
		"coords": [
			{
				"x": 4.347278036,
				"y": -0.9841657641,
				"z": -1.8610031466,
				"element": "O" 
			},
			{
				"x": 3.657963761,
				"y": -1.3077784621,
				"z": -2.9738060732,
				"element": "C" 
			},
			{
				"x": 3.57611483,
				"y": -2.4338694025,
				"z": -3.4096064319,
				"element": "O" 
			},
			{
				"x": 3.0281582414,
				"y": -0.0895228801,
				"z": -3.6526684403,
				"element": "C" 
			},
			{
				"x": 2.7210125187,
				"y": 1.0410798988,
				"z": -2.8096134917,
				"element": "N" 
			},
			{
				"x": 1.7489657615,
				"y": 1.1302279951,
				"z": -1.8253694721,
				"element": "C" 
			},
			{
				"x": 1.7522009722,
				"y": 2.1104698922,
				"z": -1.0793527823,
				"element": "O" 
			},
			{
				"x": 0.7621168232,
				"y": 0.0378648912,
				"z": -1.7688675028,
				"element": "C" 
			},
			{
				"x": -0.2885695653,
				"y": -0.0750642151,
				"z": -0.9162761255,
				"element": "C" 
			},
			{
				"x": -0.7917264215,
				"y": 0.7497462766,
				"z": 0.1450141777,
				"element": "C" 
			},
			{
				"x": -0.4832648822,
				"y": 1.9468337428,
				"z": 0.7577660338,
				"element": "C" 
			},
			{
				"x": -1.4549155128,
				"y": 2.1523941666,
				"z": 1.7750816868,
				"element": "C" 
			},
			{
				"x": -2.2958713906,
				"y": 1.0753234564,
				"z": 1.7255618601,
				"element": "C" 
			},
			{
				"x": -1.9192265868,
				"y": 0.2169371815,
				"z": 0.7540114667,
				"element": "O" 
			},
			{
				"x": 4.7155343708,
				"y": -1.8152318256,
				"z": -1.5160494946,
				"element": "H" 
			},
			{
				"x": 3.7371170471,
				"y": 0.2402545634,
				"z": -4.4206790108,
				"element": "H" 
			},
			{
				"x": 2.1481914841,
				"y": -0.4482785971,
				"z": -4.1923255084,
				"element": "H" 
			},
			{
				"x": 3.428769486,
				"y": 1.7550180813,
				"z": -2.7037326668,
				"element": "H" 
			},
			{
				"x": 0.8776804084,
				"y": -0.7773620408,
				"z": -2.4749864148,
				"element": "H" 
			},
			{
				"x": -0.8960018828,
				"y": -0.9700784765,
				"z": -1.0405240103,
				"element": "H" 
			},
			{
				"x": 0.3491614565,
				"y": 2.5712883555,
				"z": 0.4800922697,
				"element": "H" 
			},
			{
				"x": -1.5222321865,
				"y": 2.9892841554,
				"z": 2.4552218236,
				"element": "H" 
			},
			{
				"x": -3.1694567683,
				"y": 0.7928290072,
				"z": 2.2938112538,
				"element": "H" 
			}
		],
		 "valence_orbital": [ 
			{
				"type": "occ",
				"energy": -0.29595,
				"method": "rhf"
			},
			{
				"type": "occ",
				"energy": -0.27821,
				"method": "rhf"
			},
			{
				"type": "occ",
				"energy": -0.25174,
				"method": "rhf"
			},
			{
				"type": "occ",
				"energy": -0.24819,
				"method": "rhf"
			},
			{
				"type": "occ",
				"energy": -0.21426,
				"method": "rhf"
			},
			{
				"type": "unocc",
				"energy": -0.05912,
				"method": "rhf"
			},
			{
				"type": "unocc",
				"energy": -0.00348,
				"method": "rhf"
			},
			{
				"type": "unocc",
				"energy": 0.03114,
				"method": "rhf"
			},
			{
				"type": "unocc",
				"energy": 0.06496,
				"method": "rhf"
			},
			{
				"type": "unocc",
				"energy": 0.06916,
				"method": "rhf"
			}
		],
		"cosmo_sigma_profile": { 
			"-0.025": 0.0,
			"-0.024": 0.0,
			"-0.023": 0.0,
			"-0.022": 0.0,
			"-0.021": 0.0,
			"-0.02": 0.0,
			"-0.019": 0.226802924487,
			"-0.018": 0.894689505715,
			"-0.017": 1.112533694,
			"-0.016": 1.05585140263,
			"-0.015": 0.306295766164,
			"-0.014": 1.05489304162,
			"-0.013": 2.10617797837,
			"-0.012": 1.68068840569,
			"-0.011": 2.47582423367,
			"-0.01": 3.0941787467,
			"-0.009": 6.51479401624,
			"-0.008": 6.79176297763,
			"-0.007": 12.0744641902,
			"-0.006": 10.8394236202,
			"-0.005": 10.784881568,
			"-0.004": 11.3139569385,
			"-0.003": 10.7947900302,
			"-0.002": 8.78108192641,
			"-0.001": 9.41535891603,
			"0.0": 10.9088038097,
			"0.001": 14.9245154954,
			"0.002": 16.5121767897,
			"0.003": 18.3406683055,
			"0.004": 17.3626579095,
			"0.005": 9.11241754193,
			"0.006": 6.10740597409,
			"0.007": 5.94898371038,
			"0.008": 5.98911696914,
			"0.009": 3.73762360681,
			"0.01": 4.0022120474,
			"0.011": 5.84116353955,
			"0.012": 5.41995058029,
			"0.013": 2.21014343805,
			"0.014": 1.52208205023,
			"0.015": 0.0854798578878,
			"0.016": 0.0,
			"0.017": 0.0,
			"0.018": 0.0,
			"0.019": 0.0,
			"0.02": 0.0,
			"0.021": 0.0,
			"0.022": 0.0,
			"0.023": 0.0,
			"0.024": 0.0,
			"0.025": 0.0
		}
	}
}
