{
	 "smiles": "COC1=C(O)C=CC(=C1)C(C[N+]([O-])=O)C1=CNC2=C1C=CC=C2", 
	 "Tm": 389.15, 
	 "num_atms": 39, 
	 "gaussian": { 
		 "optdone": 1, 
		 "sigma_profile": "yes", 
		 "theory": "DFT", 
		 "functional": "B3LYP", 
		 "basiset": "6-31G**", 
		 "properties": { 
			 "R2extent": 8082.7932, 
			 "electric_dipole_moment_norm": 4.85017182067, 
			 "electric_quadrupole_moment_norm": 22.1818763016, 
			 "total_energy": -1067.74278332, 
			 "HOMO_LUMO_gap": 0.14737, 
			 "cosmo_polarized_energy": -19.25, 
			 "cosmo_cavitation_energy": 42.99, 
			 "cosmo_dispersion_energy": -28.74, 
			 "cosmo_repulsion_energy": 2.2, 
			 "cosmo_total_nonelectrostatic_energy": 16.45, 
			 "SMD_solvation_energy": 10.09 
		},
		"coords": [
			{
				"x": -2.5166518825,
				"y": -0.0948278158,
				"z": -1.7659388232,
				"element": "C" 
			},
			{
				"x": -3.0584397279,
				"y": 0.5765690412,
				"z": -0.6368417905,
				"element": "O" 
			},
			{
				"x": -2.1864494221,
				"y": 1.0899337055,
				"z": 0.2936230687,
				"element": "C" 
			},
			{
				"x": -2.8237372123,
				"y": 1.7438719911,
				"z": 1.3654867361,
				"element": "C" 
			},
			{
				"x": -4.1817531632,
				"y": 1.8236099636,
				"z": 1.4138585739,
				"element": "O" 
			},
			{
				"x": -2.0469984645,
				"y": 2.3134713849,
				"z": 2.3688731786,
				"element": "C" 
			},
			{
				"x": -0.6546002783,
				"y": 2.2245578092,
				"z": 2.3104466768,
				"element": "C" 
			},
			{
				"x": -0.0109531373,
				"y": 1.5653509896,
				"z": 1.2567351639,
				"element": "C" 
			},
			{
				"x": -0.7979754145,
				"y": 1.0056625893,
				"z": 0.2380191537,
				"element": "C" 
			},
			{
				"x": 1.522342537,
				"y": 1.505764393,
				"z": 1.2328550149,
				"element": "C" 
			},
			{
				"x": 2.02867588,
				"y": 0.6961063529,
				"z": 2.4475541076,
				"element": "C" 
			},
			{
				"x": 3.5138254911,
				"y": 0.8849525044,
				"z": 2.6510497321,
				"element": "N" 
			},
			{
				"x": 4.1912411461,
				"y": -0.1198174381,
				"z": 2.8346032685,
				"element": "O" 
			},
			{
				"x": 3.9384855717,
				"y": 2.0385269371,
				"z": 2.6420119358,
				"element": "O" 
			},
			{
				"x": 2.1576815593,
				"y": 1.0061680617,
				"z": -0.0419323223,
				"element": "C" 
			},
			{
				"x": 2.9767286201,
				"y": 1.7648370689,
				"z": -0.8421314658,
				"element": "C" 
			},
			{
				"x": 3.4499620478,
				"y": 1.0106802225,
				"z": -1.8944323,
				"element": "N" 
			},
			{
				"x": 2.9578890467,
				"y": -0.2739153072,
				"z": -1.7894254538,
				"element": "C" 
			},
			{
				"x": 2.1337511972,
				"y": -0.3186383135,
				"z": -0.6290706908,
				"element": "C" 
			},
			{
				"x": 1.504434647,
				"y": -1.5372795327,
				"z": -0.3048850087,
				"element": "C" 
			},
			{
				"x": 1.7102886578,
				"y": -2.6466709704,
				"z": -1.1155690998,
				"element": "C" 
			},
			{
				"x": 2.5336655655,
				"y": -2.573726181,
				"z": -2.2575581416,
				"element": "C" 
			},
			{
				"x": 3.1653940425,
				"y": -1.3874736226,
				"z": -2.6102324076,
				"element": "C" 
			},
			{
				"x": -1.9125002992,
				"y": -0.9595295262,
				"z": -1.4660076478,
				"element": "H" 
			},
			{
				"x": -3.3693512547,
				"y": -0.4338476037,
				"z": -2.3560135715,
				"element": "H" 
			},
			{
				"x": -1.8993582114,
				"y": 0.5795598076,
				"z": -2.3721342241,
				"element": "H" 
			},
			{
				"x": -4.5186077455,
				"y": 1.3731957884,
				"z": 0.6239425658,
				"element": "H" 
			},
			{
				"x": -2.5454381039,
				"y": 2.8281423924,
				"z": 3.1837464611,
				"element": "H" 
			},
			{
				"x": -0.0679950418,
				"y": 2.6933770627,
				"z": 3.0967351857,
				"element": "H" 
			},
			{
				"x": -0.3182500992,
				"y": 0.5142642661,
				"z": -0.5973967151,
				"element": "H" 
			},
			{
				"x": 1.887952221,
				"y": 2.5258950939,
				"z": 1.3947864953,
				"element": "H" 
			},
			{
				"x": 1.5687938166,
				"y": 1.0460537894,
				"z": 3.374340463,
				"element": "H" 
			},
			{
				"x": 1.8775712653,
				"y": -0.3765118781,
				"z": 2.3439120552,
				"element": "H" 
			},
			{
				"x": 3.2696870997,
				"y": 2.7991689997,
				"z": -0.7281977003,
				"element": "H" 
			},
			{
				"x": 4.0940944676,
				"y": 1.3340341081,
				"z": -2.5974435521,
				"element": "H" 
			},
			{
				"x": 0.8558863192,
				"y": -1.6115599713,
				"z": 0.5628200374,
				"element": "H" 
			},
			{
				"x": 1.2309964039,
				"y": -3.5885841966,
				"z": -0.8655038958,
				"element": "H" 
			},
			{
				"x": 2.6766834729,
				"y": -3.4581468327,
				"z": -2.8711784384,
				"element": "H" 
			},
			{
				"x": 3.7996283823,
				"y": -1.3277251332,
				"z": -3.4903066249,
				"element": "H" 
			}
		],
		 "valence_orbital": [ 
			{
				"type": "occ",
				"energy": -0.27816,
				"method": "rhf"
			},
			{
				"type": "occ",
				"energy": -0.24062,
				"method": "rhf"
			},
			{
				"type": "occ",
				"energy": -0.22852,
				"method": "rhf"
			},
			{
				"type": "occ",
				"energy": -0.20992,
				"method": "rhf"
			},
			{
				"type": "occ",
				"energy": -0.20593,
				"method": "rhf"
			},
			{
				"type": "unocc",
				"energy": -0.05856,
				"method": "rhf"
			},
			{
				"type": "unocc",
				"energy": -0.01781,
				"method": "rhf"
			},
			{
				"type": "unocc",
				"energy": 0.00448,
				"method": "rhf"
			},
			{
				"type": "unocc",
				"energy": 0.00976,
				"method": "rhf"
			},
			{
				"type": "unocc",
				"energy": 0.02011,
				"method": "rhf"
			}
		],
		"cosmo_sigma_profile": { 
			"-0.025": 0.0,
			"-0.024": 0.0,
			"-0.023": 0.0,
			"-0.022": 0.0,
			"-0.021": 0.0,
			"-0.02": 0.0,
			"-0.019": 0.0,
			"-0.018": 0.0,
			"-0.017": 0.00113956974068,
			"-0.016": 0.539370488215,
			"-0.015": 1.93789049025,
			"-0.014": 1.50291878203,
			"-0.013": 2.18118828806,
			"-0.012": 2.48119260044,
			"-0.011": 2.30482788055,
			"-0.01": 2.60201693382,
			"-0.009": 5.05177890301,
			"-0.008": 5.42496191482,
			"-0.007": 8.21938669001,
			"-0.006": 14.9654240177,
			"-0.005": 23.2355792881,
			"-0.004": 25.7661666321,
			"-0.003": 28.5474689477,
			"-0.002": 19.0747793886,
			"-0.001": 17.1889789415,
			"0.0": 16.1665439891,
			"0.001": 16.7677307798,
			"0.002": 22.6364707261,
			"0.003": 21.4773484403,
			"0.004": 27.7812032786,
			"0.005": 22.0607259953,
			"0.006": 15.9615309467,
			"0.007": 12.2773944639,
			"0.008": 11.7541679466,
			"0.009": 7.02263515893,
			"0.01": 4.11068276904,
			"0.011": 2.08468458757,
			"0.012": 1.14508794534,
			"0.013": 0.0,
			"0.014": 0.0,
			"0.015": 0.0,
			"0.016": 0.0,
			"0.017": 0.0,
			"0.018": 0.0,
			"0.019": 0.0,
			"0.02": 0.0,
			"0.021": 0.0,
			"0.022": 0.0,
			"0.023": 0.0,
			"0.024": 0.0,
			"0.025": 0.0
		}
	}
}
