{
	 "smiles": "FC(F)(F)C(F)(F)C(F)(F)C(F)(F)C(F)(F)C(F)(F)C(F)(F)C(F)(F)C(=O)NN1C=NN=C1", 
	 "Tm": 424.15, 
	 "num_atms": 36, 
	 "gaussian": { 
		 "optdone": 1, 
		 "sigma_profile": "yes", 
		 "theory": "DFT", 
		 "functional": "B3LYP", 
		 "basiset": "6-31G**", 
		 "properties": { 
			 "R2extent": 15811.144, 
			 "electric_dipole_moment_norm": 3.41178547098, 
			 "electric_quadrupole_moment_norm": 30.2892234621, 
			 "total_energy": -2412.3411575, 
			 "HOMO_LUMO_gap": 0.2105, 
			 "cosmo_polarized_energy": -20.47, 
			 "cosmo_cavitation_energy": 46.17, 
			 "cosmo_dispersion_energy": -30.25, 
			 "cosmo_repulsion_energy": 1.95, 
			 "cosmo_total_nonelectrostatic_energy": 17.87, 
			 "SMD_solvation_energy": 12.46 
		},
		"coords": [
			{
				"x": 5.9905036256,
				"y": -0.610938158,
				"z": 0.3338389711,
				"element": "F" 
			},
			{
				"x": 5.4567243255,
				"y": -1.7154788771,
				"z": -0.2037856523,
				"element": "C" 
			},
			{
				"x": 6.4231687777,
				"y": -2.6273146116,
				"z": -0.3571919569,
				"element": "F" 
			},
			{
				"x": 4.9445270392,
				"y": -1.4179770996,
				"z": -1.4039106382,
				"element": "F" 
			},
			{
				"x": 4.3647105106,
				"y": -2.2947261456,
				"z": 0.7278366459,
				"element": "C" 
			},
			{
				"x": 4.0358202948,
				"y": -3.5176851645,
				"z": 0.249712592,
				"element": "F" 
			},
			{
				"x": 4.8963908615,
				"y": -2.4336479047,
				"z": 1.9608625435,
				"element": "F" 
			},
			{
				"x": 3.0237960303,
				"y": -1.5061833529,
				"z": 0.8389162531,
				"element": "C" 
			},
			{
				"x": 2.4029364989,
				"y": -1.5642586097,
				"z": -0.35842205,
				"element": "F" 
			},
			{
				"x": 2.2810112988,
				"y": -2.166202094,
				"z": 1.7607319304,
				"element": "F" 
			},
			{
				"x": 3.1280300673,
				"y": -0.0207045483,
				"z": 1.2660456991,
				"element": "C" 
			},
			{
				"x": 3.6258059249,
				"y": 0.6921424267,
				"z": 0.2312191197,
				"element": "F" 
			},
			{
				"x": 3.995385753,
				"y": 0.0669677341,
				"z": 2.3039439083,
				"element": "F" 
			},
			{
				"x": 1.8151328167,
				"y": 0.6666846374,
				"z": 1.7692274389,
				"element": "C" 
			},
			{
				"x": 1.5353674768,
				"y": 0.1402856356,
				"z": 2.982850778,
				"element": "F" 
			},
			{
				"x": 2.119348605,
				"y": 1.9775576234,
				"z": 1.9181354091,
				"element": "F" 
			},
			{
				"x": 0.47912519,
				"y": 0.587848039,
				"z": 0.9622458845,
				"element": "C" 
			},
			{
				"x": -0.4403189802,
				"y": 1.2032603505,
				"z": 1.7443330316,
				"element": "F" 
			},
			{
				"x": 0.1218086254,
				"y": -0.7111975464,
				"z": 0.8328786906,
				"element": "F" 
			},
			{
				"x": 0.4376137058,
				"y": 1.2919917457,
				"z": -0.4236385054,
				"element": "C" 
			},
			{
				"x": 1.4868634476,
				"y": 0.9170642845,
				"z": -1.184821443,
				"element": "F" 
			},
			{
				"x": 0.525033618,
				"y": 2.6234530189,
				"z": -0.1967575834,
				"element": "F" 
			},
			{
				"x": -0.8727550071,
				"y": 1.0671530318,
				"z": -1.2412125939,
				"element": "C" 
			},
			{
				"x": -1.9321611556,
				"y": 1.3305766492,
				"z": -0.4324353792,
				"element": "F" 
			},
			{
				"x": -0.8573255369,
				"y": 1.990077859,
				"z": -2.2429320927,
				"element": "F" 
			},
			{
				"x": -1.0309921272,
				"y": -0.3297090028,
				"z": -1.8953190176,
				"element": "C" 
			},
			{
				"x": -0.1623235992,
				"y": -1.1731092528,
				"z": -1.8790861651,
				"element": "O" 
			},
			{
				"x": -2.2373914231,
				"y": -0.56175678,
				"z": -2.5248715383,
				"element": "N" 
			},
			{
				"x": -3.2458807746,
				"y": 0.3540719534,
				"z": -2.7236594888,
				"element": "N" 
			},
			{
				"x": -3.3763901458,
				"y": 1.2602214783,
				"z": -3.7556843296,
				"element": "C" 
			},
			{
				"x": -4.4958479644,
				"y": 1.914515783,
				"z": -3.6331840441,
				"element": "N" 
			},
			{
				"x": -5.1418171685,
				"y": 1.4388088801,
				"z": -2.4929877399,
				"element": "N" 
			},
			{
				"x": -4.3877671399,
				"y": 0.51516059,
				"z": -1.9686878019,
				"element": "C" 
			},
			{
				"x": -2.314774395,
				"y": -1.454697726,
				"z": -3.0002434375,
				"element": "H" 
			},
			{
				"x": -2.6295334754,
				"y": 1.3839289523,
				"z": -4.5261173486,
				"element": "H" 
			},
			{
				"x": -4.5831256005,
				"y": -0.0571837991,
				"z": -1.0737300893,
				"element": "H" 
			}
		],
		 "valence_orbital": [ 
			{
				"type": "occ",
				"energy": -0.33484,
				"method": "rhf"
			},
			{
				"type": "occ",
				"energy": -0.32978,
				"method": "rhf"
			},
			{
				"type": "occ",
				"energy": -0.30927,
				"method": "rhf"
			},
			{
				"type": "occ",
				"energy": -0.29004,
				"method": "rhf"
			},
			{
				"type": "occ",
				"energy": -0.27029,
				"method": "rhf"
			},
			{
				"type": "unocc",
				"energy": -0.05979,
				"method": "rhf"
			},
			{
				"type": "unocc",
				"energy": -0.01671,
				"method": "rhf"
			},
			{
				"type": "unocc",
				"energy": 0.00807,
				"method": "rhf"
			},
			{
				"type": "unocc",
				"energy": 0.01115,
				"method": "rhf"
			},
			{
				"type": "unocc",
				"energy": 0.02258,
				"method": "rhf"
			}
		],
		"cosmo_sigma_profile": { 
			"-0.025": 0.0,
			"-0.024": 0.0,
			"-0.023": 0.0,
			"-0.022": 0.0,
			"-0.021": 0.0,
			"-0.02": 0.0,
			"-0.019": 0.0,
			"-0.018": 0.979822082434,
			"-0.017": 1.92225146439,
			"-0.016": 0.801021101872,
			"-0.015": 0.996287036132,
			"-0.014": 1.45464355772,
			"-0.013": 1.08746982857,
			"-0.012": 3.11544863067,
			"-0.011": 4.79147681913,
			"-0.01": 4.98722696286,
			"-0.009": 5.33060984795,
			"-0.008": 5.66349566883,
			"-0.007": 5.7904650474,
			"-0.006": 5.08633651471,
			"-0.005": 5.57488380426,
			"-0.004": 7.10381670455,
			"-0.003": 10.9546706443,
			"-0.002": 17.9907082737,
			"-0.001": 33.0986607853,
			"0.0": 75.0186463404,
			"0.001": 115.069895601,
			"0.002": 14.4841066645,
			"0.003": 4.77098424514,
			"0.004": 4.19175068872,
			"0.005": 3.18440413899,
			"0.006": 4.88942114915,
			"0.007": 5.29598304508,
			"0.008": 4.49094085758,
			"0.009": 3.88541133732,
			"0.01": 3.79131383638,
			"0.011": 2.88119833005,
			"0.012": 4.2452267725,
			"0.013": 2.49472380496,
			"0.014": 3.03926302191,
			"0.015": 2.42488395454,
			"0.016": 1.04523031898,
			"0.017": 0.0,
			"0.018": 0.0,
			"0.019": 0.0,
			"0.02": 0.0,
			"0.021": 0.0,
			"0.022": 0.0,
			"0.023": 0.0,
			"0.024": 0.0,
			"0.025": 0.0
		}
	}
}
