{
	 "smiles": "OC(=O)COC1=CC(Cl)=C(F)C=C1", 
	 "Tm": 380.15, 
	 "num_atms": 19, 
	 "gaussian": { 
		 "optdone": 1, 
		 "sigma_profile": "yes", 
		 "theory": "DFT", 
		 "functional": "B3LYP", 
		 "basiset": "6-31G**", 
		 "properties": { 
			 "R2extent": 4752.809, 
			 "electric_dipole_moment_norm": 2.67948574357, 
			 "electric_quadrupole_moment_norm": 11.1257396514, 
			 "total_energy": -1094.15595679, 
			 "HOMO_LUMO_gap": 0.20248, 
			 "cosmo_polarized_energy": -12.07, 
			 "cosmo_cavitation_energy": 26.57, 
			 "cosmo_dispersion_energy": -19.14, 
			 "cosmo_repulsion_energy": 1.53, 
			 "cosmo_total_nonelectrostatic_energy": 8.96, 
			 "SMD_solvation_energy": 6.32 
		},
		"coords": [
			{
				"x": -1.5655929783,
				"y": 0.7487556633,
				"z": 1.4328017348,
				"element": "O" 
			},
			{
				"x": -2.0615340258,
				"y": -0.5004022612,
				"z": 1.3888531503,
				"element": "C" 
			},
			{
				"x": -3.1613620716,
				"y": -0.8106891452,
				"z": 1.786905088,
				"element": "O" 
			},
			{
				"x": -1.0678806276,
				"y": -1.5166846867,
				"z": 0.8298688486,
				"element": "C" 
			},
			{
				"x": -0.0318617553,
				"y": -0.9833536207,
				"z": 0.034845228,
				"element": "O" 
			},
			{
				"x": -0.327709822,
				"y": -0.5512377052,
				"z": -1.2318761706,
				"element": "C" 
			},
			{
				"x": -1.6081717887,
				"y": -0.5665554041,
				"z": -1.793263743,
				"element": "C" 
			},
			{
				"x": -1.7867848854,
				"y": -0.1085414227,
				"z": -3.1024201255,
				"element": "C" 
			},
			{
				"x": -3.3783688993,
				"y": -0.1179928197,
				"z": -3.8204582361,
				"element": "Cl" 
			},
			{
				"x": -0.7015833666,
				"y": 0.3586682078,
				"z": -3.8379729636,
				"element": "C" 
			},
			{
				"x": -0.8763231952,
				"y": 0.7987713786,
				"z": -5.0953616822,
				"element": "F" 
			},
			{
				"x": 0.5719260652,
				"y": 0.3748431511,
				"z": -3.275048223,
				"element": "C" 
			},
			{
				"x": 0.7617736348,
				"y": -0.078415697,
				"z": -1.9759611063,
				"element": "C" 
			},
			{
				"x": -2.2645160275,
				"y": 1.3079408907,
				"z": 1.8133183053,
				"element": "H" 
			},
			{
				"x": -1.6408386154,
				"y": -2.2928618271,
				"z": 0.3101997346,
				"element": "H" 
			},
			{
				"x": -0.5714401521,
				"y": -1.9863595189,
				"z": 1.6851277913,
				"element": "H" 
			},
			{
				"x": -2.4754980476,
				"y": -0.9168531972,
				"z": -1.2481633947,
				"element": "H" 
			},
			{
				"x": 1.4001187343,
				"y": 0.7444711572,
				"z": -3.8698991973,
				"element": "H" 
			},
			{
				"x": 1.744547824,
				"y": -0.0754031429,
				"z": -1.5182950385,
				"element": "H" 
			}
		],
		 "valence_orbital": [ 
			{
				"type": "occ",
				"energy": -0.3241,
				"method": "rhf"
			},
			{
				"type": "occ",
				"energy": -0.31934,
				"method": "rhf"
			},
			{
				"type": "occ",
				"energy": -0.29044,
				"method": "rhf"
			},
			{
				"type": "occ",
				"energy": -0.26403,
				"method": "rhf"
			},
			{
				"type": "occ",
				"energy": -0.23143,
				"method": "rhf"
			},
			{
				"type": "unocc",
				"energy": -0.02895,
				"method": "rhf"
			},
			{
				"type": "unocc",
				"energy": -0.00866,
				"method": "rhf"
			},
			{
				"type": "unocc",
				"energy": -0.0012,
				"method": "rhf"
			},
			{
				"type": "unocc",
				"energy": 0.01899,
				"method": "rhf"
			},
			{
				"type": "unocc",
				"energy": 0.06108,
				"method": "rhf"
			}
		],
		"cosmo_sigma_profile": { 
			"-0.025": 0.0,
			"-0.024": 0.0,
			"-0.023": 0.0,
			"-0.022": 0.0,
			"-0.021": 0.0,
			"-0.02": 0.0,
			"-0.019": 0.337055495843,
			"-0.018": 1.17310662284,
			"-0.017": 0.994996195333,
			"-0.016": 0.694239822624,
			"-0.015": 0.90731180665,
			"-0.014": 0.315144155846,
			"-0.013": 1.09902613266,
			"-0.012": 0.749526127701,
			"-0.011": 0.797866582085,
			"-0.01": 1.35807477919,
			"-0.009": 4.68135632907,
			"-0.008": 8.56047904063,
			"-0.007": 8.77338721733,
			"-0.006": 10.2037471914,
			"-0.005": 8.79163061037,
			"-0.004": 7.10712101502,
			"-0.003": 8.08594446535,
			"-0.002": 8.15539263819,
			"-0.001": 11.5681326257,
			"0.0": 15.8286228519,
			"0.001": 21.4411865944,
			"0.002": 19.3013801233,
			"0.003": 18.5732005485,
			"0.004": 21.2866943764,
			"0.005": 7.69235921802,
			"0.006": 4.28381632096,
			"0.007": 3.46345390783,
			"0.008": 4.43520814647,
			"0.009": 3.99465984278,
			"0.01": 2.90861970999,
			"0.011": 5.48524402995,
			"0.012": 1.96024039541,
			"0.013": 0.0204261661819,
			"0.014": 0.0,
			"0.015": 0.0,
			"0.016": 0.0,
			"0.017": 0.0,
			"0.018": 0.0,
			"0.019": 0.0,
			"0.02": 0.0,
			"0.021": 0.0,
			"0.022": 0.0,
			"0.023": 0.0,
			"0.024": 0.0,
			"0.025": 0.0
		}
	}
}
