{
	 "smiles": "CN(CC(O)=O)S(=O)(=O)C1=CC=C(Br)C=C1", 
	 "Tm": 453.15, 
	 "num_atms": 26, 
	 "gaussian": { 
		 "optdone": 1, 
		 "sigma_profile": "yes", 
		 "theory": "DFT", 
		 "functional": "B3LYP", 
		 "basiset": "6-31G**", 
		 "properties": { 
			 "R2extent": 8144.5978, 
			 "electric_dipole_moment_norm": 4.87750372834, 
			 "electric_quadrupole_moment_norm": 19.5068557876, 
			 "total_energy": -3674.15587965, 
			 "HOMO_LUMO_gap": 0.20473, 
			 "cosmo_polarized_energy": -19.12, 
			 "cosmo_cavitation_energy": 34.09, 
			 "cosmo_dispersion_energy": -24.87, 
			 "cosmo_repulsion_energy": 1.91, 
			 "cosmo_total_nonelectrostatic_energy": 11.12, 
			 "SMD_solvation_energy": 4.5 
		},
		"coords": [
			{
				"x": -0.6615888469,
				"y": -1.8532184125,
				"z": 0.169856497,
				"element": "C" 
			},
			{
				"x": -1.5423208147,
				"y": -1.0418368756,
				"z": -0.6787782908,
				"element": "N" 
			},
			{
				"x": -2.3192596741,
				"y": -0.0093959087,
				"z": -0.0108907378,
				"element": "C" 
			},
			{
				"x": -3.4128046658,
				"y": -0.5898700447,
				"z": 0.876056692,
				"element": "C" 
			},
			{
				"x": -4.1431119891,
				"y": 0.4173166765,
				"z": 1.4073830149,
				"element": "O" 
			},
			{
				"x": -3.6211747488,
				"y": -1.7567786638,
				"z": 1.1076089059,
				"element": "O" 
			},
			{
				"x": -0.9748203029,
				"y": -0.6679774767,
				"z": -2.2275230455,
				"element": "S" 
			},
			{
				"x": -0.4083006723,
				"y": -1.9046874257,
				"z": -2.7632864946,
				"element": "O" 
			},
			{
				"x": -2.0572669614,
				"y": 0.0586393839,
				"z": -2.8947208972,
				"element": "O" 
			},
			{
				"x": 0.3869091617,
				"y": 0.4882437883,
				"z": -2.0110879525,
				"element": "C" 
			},
			{
				"x": 0.1288407569,
				"y": 1.8617076254,
				"z": -1.9970504226,
				"element": "C" 
			},
			{
				"x": 1.1775290184,
				"y": 2.7570667148,
				"z": -1.7923033807,
				"element": "C" 
			},
			{
				"x": 2.4693271379,
				"y": 2.2628595958,
				"z": -1.6058388261,
				"element": "C" 
			},
			{
				"x": 3.9039700889,
				"y": 3.4860551782,
				"z": -1.3233375902,
				"element": "Br" 
			},
			{
				"x": 2.7347620614,
				"y": 0.8931240631,
				"z": -1.6321415047,
				"element": "C" 
			},
			{
				"x": 1.6845903291,
				"y": -0.0005889088,
				"z": -1.8377148403,
				"element": "C" 
			},
			{
				"x": -0.2129710664,
				"y": -2.6386851682,
				"z": -0.4372160672,
				"element": "H" 
			},
			{
				"x": -1.2794834442,
				"y": -2.3203942347,
				"z": 0.9372005608,
				"element": "H" 
			},
			{
				"x": 0.129172963,
				"y": -1.2532439986,
				"z": 0.6456667819,
				"element": "H" 
			},
			{
				"x": -2.8101156545,
				"y": 0.6107032447,
				"z": -0.7643015929,
				"element": "H" 
			},
			{
				"x": -1.6997351267,
				"y": 0.6554893526,
				"z": 0.613635593,
				"element": "H" 
			},
			{
				"x": -4.8216168996,
				"y": 0.0012218624,
				"z": 1.9653295641,
				"element": "H" 
			},
			{
				"x": -0.8774591505,
				"y": 2.2251949099,
				"z": -2.1738715271,
				"element": "H" 
			},
			{
				"x": 0.9960902467,
				"y": 3.8255896438,
				"z": -1.7865380845,
				"element": "H" 
			},
			{
				"x": 3.7481124518,
				"y": 0.5312175571,
				"z": -1.5024302206,
				"element": "H" 
			},
			{
				"x": 1.8722258022,
				"y": -1.0672524787,
				"z": -1.8908061344,
				"element": "H" 
			}
		],
		 "valence_orbital": [ 
			{
				"type": "occ",
				"energy": -0.30359,
				"method": "rhf"
			},
			{
				"type": "occ",
				"energy": -0.29681,
				"method": "rhf"
			},
			{
				"type": "occ",
				"energy": -0.28817,
				"method": "rhf"
			},
			{
				"type": "occ",
				"energy": -0.27613,
				"method": "rhf"
			},
			{
				"type": "occ",
				"energy": -0.25842,
				"method": "rhf"
			},
			{
				"type": "unocc",
				"energy": -0.05369,
				"method": "rhf"
			},
			{
				"type": "unocc",
				"energy": -0.03919,
				"method": "rhf"
			},
			{
				"type": "unocc",
				"energy": -0.01021,
				"method": "rhf"
			},
			{
				"type": "unocc",
				"energy": -0.006,
				"method": "rhf"
			},
			{
				"type": "unocc",
				"energy": 0.05045,
				"method": "rhf"
			}
		],
		"cosmo_sigma_profile": { 
			"-0.025": 0.0,
			"-0.024": 0.0,
			"-0.023": 0.0,
			"-0.022": 0.0,
			"-0.021": 0.0,
			"-0.02": 0.0,
			"-0.019": 0.408789535204,
			"-0.018": 1.04566980251,
			"-0.017": 0.944609573604,
			"-0.016": 0.796788179841,
			"-0.015": 0.577691008492,
			"-0.014": 0.42580979649,
			"-0.013": 0.815792259936,
			"-0.012": 0.840323310161,
			"-0.011": 0.878639307015,
			"-0.01": 0.35637868405,
			"-0.009": 0.892959621289,
			"-0.008": 8.07216232517,
			"-0.007": 15.676702834,
			"-0.006": 13.7942357028,
			"-0.005": 16.3112163735,
			"-0.004": 20.8010298901,
			"-0.003": 18.4808991839,
			"-0.002": 15.8025184218,
			"-0.001": 15.1178020743,
			"0.0": 18.5746068358,
			"0.001": 24.8607326955,
			"0.002": 14.739961975,
			"0.003": 14.1191329677,
			"0.004": 15.2938071409,
			"0.005": 5.37749325834,
			"0.006": 6.32580590942,
			"0.007": 7.0293874483,
			"0.008": 5.91442120631,
			"0.009": 7.35865789124,
			"0.01": 10.5156761534,
			"0.011": 11.7603502444,
			"0.012": 1.25228136953,
			"0.013": 0.0,
			"0.014": 0.0,
			"0.015": 0.0,
			"0.016": 0.0,
			"0.017": 0.0,
			"0.018": 0.0,
			"0.019": 0.0,
			"0.02": 0.0,
			"0.021": 0.0,
			"0.022": 0.0,
			"0.023": 0.0,
			"0.024": 0.0,
			"0.025": 0.0
		}
	}
}
