{
	 "smiles": "IC1=CC=C(C=C1)C1=CC=CC=C1", 
	 "Tm": 386.15, 
	 "num_atms": 22, 
	 "gaussian": { 
		 "optdone": 1, 
		 "sigma_profile": "no", 
		 "theory": "DFT", 
		 "functional": "B3LYP", 
		 "basiset": "6-31G**", 
		 "properties": { 
			 "R2extent": 4372.7443, 
			 "electric_dipole_moment_norm": 2.12356393593, 
			 "electric_quadrupole_moment_norm": 7.74409874808, 
			 "total_energy": -474.094839811, 
			 "HOMO_LUMO_gap": 0.18734, 
			 "cosmo_polarized_energy": -105708.74, 
			 "cosmo_cavitation_energy": 29.13, 
			 "cosmo_dispersion_energy": -22.88, 
			 "cosmo_repulsion_energy": 1.76, 
			 "cosmo_total_nonelectrostatic_energy": 8.01, 
			 "SMD_solvation_energy": 3.82 
		},
		"coords": [
			{
				"x": -2.0440430424,
				"y": 1.4084911638,
				"z": -4.2878369939,
				"element": "I" 
			},
			{
				"x": -1.8932087655,
				"y": 0.3699303368,
				"z": -2.4438684021,
				"element": "C" 
			},
			{
				"x": -0.6404004534,
				"y": 0.1762345469,
				"z": -1.8602085352,
				"element": "C" 
			},
			{
				"x": -0.5504414177,
				"y": -0.5081980898,
				"z": -0.6488428029,
				"element": "C" 
			},
			{
				"x": -1.6934920161,
				"y": -1.0056540767,
				"z": -0.0014954237,
				"element": "C" 
			},
			{
				"x": -2.9395681791,
				"y": -0.7935195967,
				"z": -0.6141675912,
				"element": "C" 
			},
			{
				"x": -3.0477769847,
				"y": -0.1130010462,
				"z": -1.8262443102,
				"element": "C" 
			},
			{
				"x": -1.5879627926,
				"y": -1.7323789595,
				"z": 1.2892861799,
				"element": "C" 
			},
			{
				"x": -0.6649686883,
				"y": -1.3304231683,
				"z": 2.2698889539,
				"element": "C" 
			},
			{
				"x": -0.5655677138,
				"y": -2.0129094964,
				"z": 3.481427902,
				"element": "C" 
			},
			{
				"x": -1.3877936773,
				"y": -3.1114076853,
				"z": 3.7392293487,
				"element": "C" 
			},
			{
				"x": -2.3098716795,
				"y": -3.5218277957,
				"z": 2.7745887734,
				"element": "C" 
			},
			{
				"x": -2.408494734,
				"y": -2.8401306905,
				"z": 1.5625399848,
				"element": "C" 
			},
			{
				"x": 0.2574946133,
				"y": 0.5431357862,
				"z": -2.3447349803,
				"element": "H" 
			},
			{
				"x": 0.4294346538,
				"y": -0.6796701473,
				"z": -0.213506125,
				"element": "H" 
			},
			{
				"x": -3.8438451598,
				"y": -1.1427829744,
				"z": -0.1249052388,
				"element": "H" 
			},
			{
				"x": -4.0219800432,
				"y": 0.0457323283,
				"z": -2.2749412587,
				"element": "H" 
			},
			{
				"x": -0.0402958157,
				"y": -0.4602605517,
				"z": 2.0907030298,
				"element": "H" 
			},
			{
				"x": 0.1490493292,
				"y": -1.6802770088,
				"z": 4.22896672,
				"element": "H" 
			},
			{
				"x": -1.3106890023,
				"y": -3.6427855298,
				"z": 4.6832949734,
				"element": "H" 
			},
			{
				"x": -2.9481100263,
				"y": -4.3807056917,
				"z": 2.9619843315,
				"element": "H" 
			},
			{
				"x": -3.1094684045,
				"y": -3.1846916533,
				"z": 0.8079414646,
				"element": "H" 
			}
		],
		 "valence_orbital": [ 
			{
				"type": "occ",
				"energy": -0.26752,
				"method": "rhf"
			},
			{
				"type": "occ",
				"energy": -0.26434,
				"method": "rhf"
			},
			{
				"type": "occ",
				"energy": -0.2608,
				"method": "rhf"
			},
			{
				"type": "occ",
				"energy": -0.25577,
				"method": "rhf"
			},
			{
				"type": "occ",
				"energy": -0.22549,
				"method": "rhf"
			},
			{
				"type": "unocc",
				"energy": -0.03815,
				"method": "rhf"
			},
			{
				"type": "unocc",
				"energy": -0.03756,
				"method": "rhf"
			},
			{
				"type": "unocc",
				"energy": -0.01603,
				"method": "rhf"
			},
			{
				"type": "unocc",
				"energy": -0.00651,
				"method": "rhf"
			},
			{
				"type": "unocc",
				"energy": 0.01737,
				"method": "rhf"
			}
		],
		"cosmo_sigma_profile": { 
			"0.0": 0.0,
			"0.0": 0.0,
			"0.0": 0.0,
			"0.0": 0.0,
			"0.0": 0.0,
			"0.0": 0.0,
			"0.0": 0.0,
			"0.0": 0.0,
			"0.0": 0.0,
			"0.0": 0.0,
			"0.0": 0.0,
			"0.0": 0.0,
			"0.0": 0.0,
			"0.0": 0.0,
			"0.0": 0.0,
			"0.0": 0.0,
			"0.0": 0.0,
			"0.0": 0.0,
			"0.0": 0.0,
			"0.0": 0.0,
			"0.0": 0.0,
			"0.0": 0.0,
			"0.0": 0.0,
			"0.0": 0.0,
			"0.0": 0.0,
			"0.0": 0.0,
			"0.0": 0.0,
			"0.0": 0.0,
			"0.0": 0.0,
			"0.0": 0.0,
			"0.0": 0.0,
			"0.0": 0.0,
			"0.0": 0.0,
			"0.0": 0.0,
			"0.0": 0.0,
			"0.0": 0.0,
			"0.0": 0.0,
			"0.0": 0.0,
			"0.0": 0.0,
			"0.0": 0.0,
			"0.0": 0.0,
			"0.0": 0.0,
			"0.0": 0.0,
			"0.0": 0.0,
			"0.0": 0.0,
			"0.0": 0.0,
			"0.0": 0.0,
			"0.0": 0.0,
			"0.0": 0.0,
			"0.0": 0.0,
			"0.0": 0.0
		}
	}
}
