{
	 "smiles": "CCCC(NC(=O)C1=CC=CC=C1)C#N", 
	 "Tm": 363.15, 
	 "num_atms": 29, 
	 "gaussian": { 
		 "optdone": 1, 
		 "sigma_profile": "yes", 
		 "theory": "DFT", 
		 "functional": "B3LYP", 
		 "basiset": "6-31G**", 
		 "properties": { 
			 "R2extent": 3697.3243, 
			 "electric_dipole_moment_norm": 3.40074652687, 
			 "electric_quadrupole_moment_norm": 22.4244133359, 
			 "total_energy": -650.434938389, 
			 "HOMO_LUMO_gap": 0.2096, 
			 "cosmo_polarized_energy": -15.65, 
			 "cosmo_cavitation_energy": 32.79, 
			 "cosmo_dispersion_energy": -21.8, 
			 "cosmo_repulsion_energy": 1.74, 
			 "cosmo_total_nonelectrostatic_energy": 12.73, 
			 "SMD_solvation_energy": 6.79 
		},
		"coords": [
			{
				"x": -0.0340614301,
				"y": 3.0688484553,
				"z": 0.9314898235,
				"element": "C" 
			},
			{
				"x": 0.6598430311,
				"y": 1.7857458166,
				"z": 0.4625882767,
				"element": "C" 
			},
			{
				"x": 0.0624703091,
				"y": 1.249331034,
				"z": -0.8441170245,
				"element": "C" 
			},
			{
				"x": 0.7734470305,
				"y": -0.0264993329,
				"z": -1.3569906522,
				"element": "C" 
			},
			{
				"x": 0.765158118,
				"y": -1.1818011649,
				"z": -0.4500121339,
				"element": "N" 
			},
			{
				"x": -0.1879143469,
				"y": -1.6047064167,
				"z": 0.4712554219,
				"element": "C" 
			},
			{
				"x": 0.1880862273,
				"y": -2.1915212119,
				"z": 1.4794348663,
				"element": "O" 
			},
			{
				"x": -1.6462025208,
				"y": -1.3835009452,
				"z": 0.2094394942,
				"element": "C" 
			},
			{
				"x": -2.2294718097,
				"y": -1.5195292982,
				"z": -1.0578818168,
				"element": "C" 
			},
			{
				"x": -3.6092839655,
				"y": -1.3721921094,
				"z": -1.2111372231,
				"element": "C" 
			},
			{
				"x": -4.4120075643,
				"y": -1.0839356072,
				"z": -0.1065185972,
				"element": "C" 
			},
			{
				"x": -3.8363553503,
				"y": -0.963396184,
				"z": 1.1618305164,
				"element": "C" 
			},
			{
				"x": -2.4630741005,
				"y": -1.1275821512,
				"z": 1.3216805165,
				"element": "C" 
			},
			{
				"x": 0.3130761227,
				"y": -0.3789602625,
				"z": -2.7208595,
				"element": "C" 
			},
			{
				"x": -0.0277006199,
				"y": -0.6359488316,
				"z": -3.8003578034,
				"element": "N" 
			},
			{
				"x": 0.0512409514,
				"y": 3.8650950017,
				"z": 0.1837169343,
				"element": "H" 
			},
			{
				"x": 0.4075510223,
				"y": 3.436853344,
				"z": 1.8625429163,
				"element": "H" 
			},
			{
				"x": -1.100422413,
				"y": 2.8966104951,
				"z": 1.1136480112,
				"element": "H" 
			},
			{
				"x": 0.586300071,
				"y": 1.0231174289,
				"z": 1.2461882413,
				"element": "H" 
			},
			{
				"x": 1.7323115159,
				"y": 1.9778900632,
				"z": 0.3201153258,
				"element": "H" 
			},
			{
				"x": -1.0058516088,
				"y": 1.050216039,
				"z": -0.7237295677,
				"element": "H" 
			},
			{
				"x": 0.1523017076,
				"y": 2.0065327352,
				"z": -1.632521251,
				"element": "H" 
			},
			{
				"x": 1.8341052387,
				"y": 0.2280825865,
				"z": -1.476097048,
				"element": "H" 
			},
			{
				"x": 1.6827262511,
				"y": -1.4655910573,
				"z": -0.1299144127,
				"element": "H" 
			},
			{
				"x": -1.620091213,
				"y": -1.7649823841,
				"z": -1.9197794232,
				"element": "H" 
			},
			{
				"x": -4.0543645805,
				"y": -1.4888449094,
				"z": -2.1946988794,
				"element": "H" 
			},
			{
				"x": -5.4843939518,
				"y": -0.9633020054,
				"z": -0.2306103549,
				"element": "H" 
			},
			{
				"x": -4.4599924592,
				"y": -0.7519257034,
				"z": 2.02549904,
				"element": "H" 
			},
			{
				"x": -2.0037296624,
				"y": -1.0678034241,
				"z": 2.3027963038,
				"element": "H" 
			}
		],
		 "valence_orbital": [ 
			{
				"type": "occ",
				"energy": -0.32888,
				"method": "rhf"
			},
			{
				"type": "occ",
				"energy": -0.27699,
				"method": "rhf"
			},
			{
				"type": "occ",
				"energy": -0.26857,
				"method": "rhf"
			},
			{
				"type": "occ",
				"energy": -0.26194,
				"method": "rhf"
			},
			{
				"type": "occ",
				"energy": -0.25135,
				"method": "rhf"
			},
			{
				"type": "unocc",
				"energy": -0.04175,
				"method": "rhf"
			},
			{
				"type": "unocc",
				"energy": -0.01382,
				"method": "rhf"
			},
			{
				"type": "unocc",
				"energy": 0.016,
				"method": "rhf"
			},
			{
				"type": "unocc",
				"energy": 0.02586,
				"method": "rhf"
			},
			{
				"type": "unocc",
				"energy": 0.04104,
				"method": "rhf"
			}
		],
		"cosmo_sigma_profile": { 
			"-0.025": 0.0,
			"-0.024": 0.0,
			"-0.023": 0.0,
			"-0.022": 0.0,
			"-0.021": 0.0,
			"-0.02": 0.0,
			"-0.019": 0.0,
			"-0.018": 0.0,
			"-0.017": 0.0,
			"-0.016": 0.0,
			"-0.015": 0.663213507663,
			"-0.014": 1.83275826003,
			"-0.013": 0.698413720346,
			"-0.012": 1.41147048408,
			"-0.011": 1.60411566982,
			"-0.01": 3.77736584125,
			"-0.009": 2.90838885899,
			"-0.008": 2.13648562536,
			"-0.007": 3.73377520601,
			"-0.006": 10.8554171823,
			"-0.005": 13.1531880576,
			"-0.004": 17.372742571,
			"-0.003": 23.6265963118,
			"-0.002": 28.3642998667,
			"-0.001": 23.9565816467,
			"0.0": 21.9249428035,
			"0.001": 20.5401855955,
			"0.002": 12.6030483555,
			"0.003": 12.6045310883,
			"0.004": 12.966675691,
			"0.005": 6.24071772365,
			"0.006": 2.83477558208,
			"0.007": 4.07920331192,
			"0.008": 4.55481297682,
			"0.009": 4.75034135838,
			"0.01": 3.94425652736,
			"0.011": 3.76282409171,
			"0.012": 5.8328271589,
			"0.013": 6.12697179059,
			"0.014": 1.10106373022,
			"0.015": 0.0,
			"0.016": 0.0,
			"0.017": 0.0,
			"0.018": 0.0,
			"0.019": 0.0,
			"0.02": 0.0,
			"0.021": 0.0,
			"0.022": 0.0,
			"0.023": 0.0,
			"0.024": 0.0,
			"0.025": 0.0
		}
	}
}
