{
	 "smiles": "CCN1N=C(C)C(C(O)=O)=C1C(F)(F)Cl", 
	 "Tm": 385.15, 
	 "num_atms": 24, 
	 "gaussian": { 
		 "optdone": 1, 
		 "sigma_profile": "yes", 
		 "theory": "DFT", 
		 "functional": "B3LYP", 
		 "basiset": "6-31G**", 
		 "properties": { 
			 "R2extent": 5686.9099, 
			 "electric_dipole_moment_norm": 5.22974636957, 
			 "electric_quadrupole_moment_norm": 22.6893780928, 
			 "total_energy": -1230.08861436, 
			 "HOMO_LUMO_gap": 0.21424, 
			 "cosmo_polarized_energy": -15.29, 
			 "cosmo_cavitation_energy": 30.34, 
			 "cosmo_dispersion_energy": -21.34, 
			 "cosmo_repulsion_energy": 1.66, 
			 "cosmo_total_nonelectrostatic_energy": 10.65, 
			 "SMD_solvation_energy": 5.48 
		},
		"coords": [
			{
				"x": 1.4036659989,
				"y": 0.8108477424,
				"z": 1.1479197341,
				"element": "C" 
			},
			{
				"x": -0.0515294597,
				"y": 1.1748783469,
				"z": 1.4392564391,
				"element": "C" 
			},
			{
				"x": -0.952081388,
				"y": 0.8089237317,
				"z": 0.3372331977,
				"element": "N" 
			},
			{
				"x": -1.4006618811,
				"y": -0.4636767102,
				"z": 0.2979919358,
				"element": "N" 
			},
			{
				"x": -2.1617212797,
				"y": -0.5570403827,
				"z": -0.7905558547,
				"element": "C" 
			},
			{
				"x": -2.8401369944,
				"y": -1.856581197,
				"z": -1.1124520627,
				"element": "C" 
			},
			{
				"x": -2.2178627364,
				"y": 0.6897948877,
				"z": -1.4748586952,
				"element": "C" 
			},
			{
				"x": -3.0619014702,
				"y": 1.0676776946,
				"z": -2.6360814816,
				"element": "C" 
			},
			{
				"x": -3.3315083138,
				"y": 0.0638447679,
				"z": -3.5182726273,
				"element": "O" 
			},
			{
				"x": -3.5336415637,
				"y": 2.1647471062,
				"z": -2.8084962693,
				"element": "O" 
			},
			{
				"x": -1.4128915124,
				"y": 1.5388647652,
				"z": -0.7118525507,
				"element": "C" 
			},
			{
				"x": -1.0640080344,
				"y": 2.9806494659,
				"z": -0.9273995678,
				"element": "C" 
			},
			{
				"x": -1.0914301319,
				"y": 3.2970343172,
				"z": -2.2267249334,
				"element": "F" 
			},
			{
				"x": 0.1960268441,
				"y": 3.2397589899,
				"z": -0.480229082,
				"element": "F" 
			},
			{
				"x": -2.1773108388,
				"y": 4.0930961775,
				"z": -0.0364355756,
				"element": "Cl" 
			},
			{
				"x": 1.4958834518,
				"y": -0.2587386389,
				"z": 0.942007468,
				"element": "H" 
			},
			{
				"x": 1.7804545422,
				"y": 1.3721917028,
				"z": 0.2897466168,
				"element": "H" 
			},
			{
				"x": 2.0241150138,
				"y": 1.0511108158,
				"z": 2.0166328316,
				"element": "H" 
			},
			{
				"x": -0.1650446771,
				"y": 2.2415127383,
				"z": 1.6320153938,
				"element": "H" 
			},
			{
				"x": -0.4237263252,
				"y": 0.626510189,
				"z": 2.3067901643,
				"element": "H" 
			},
			{
				"x": -3.885258747,
				"y": -1.7079843332,
				"z": -1.3982972835,
				"element": "H" 
			},
			{
				"x": -2.3395183774,
				"y": -2.3920552405,
				"z": -1.9306402268,
				"element": "H" 
			},
			{
				"x": -2.8041661683,
				"y": -2.5071180268,
				"z": -0.2366052072,
				"element": "H" 
			},
			{
				"x": -2.7836459513,
				"y": -0.7095489096,
				"z": -3.3268923634,
				"element": "H" 
			}
		],
		 "valence_orbital": [ 
			{
				"type": "occ",
				"energy": -0.31991,
				"method": "rhf"
			},
			{
				"type": "occ",
				"energy": -0.31695,
				"method": "rhf"
			},
			{
				"type": "occ",
				"energy": -0.28075,
				"method": "rhf"
			},
			{
				"type": "occ",
				"energy": -0.27362,
				"method": "rhf"
			},
			{
				"type": "occ",
				"energy": -0.26626,
				"method": "rhf"
			},
			{
				"type": "unocc",
				"energy": -0.05202,
				"method": "rhf"
			},
			{
				"type": "unocc",
				"energy": -0.00603,
				"method": "rhf"
			},
			{
				"type": "unocc",
				"energy": 0.01773,
				"method": "rhf"
			},
			{
				"type": "unocc",
				"energy": 0.04862,
				"method": "rhf"
			},
			{
				"type": "unocc",
				"energy": 0.07821,
				"method": "rhf"
			}
		],
		"cosmo_sigma_profile": { 
			"-0.025": 0.0,
			"-0.024": 0.0,
			"-0.023": 0.0,
			"-0.022": 0.0,
			"-0.021": 0.0,
			"-0.02": 0.0,
			"-0.019": 0.0,
			"-0.018": 0.206849767922,
			"-0.017": 0.797860048643,
			"-0.016": 1.33600463183,
			"-0.015": 1.03102078677,
			"-0.014": 0.877929581855,
			"-0.013": 0.519305653436,
			"-0.012": 1.30514673958,
			"-0.011": 1.01739159103,
			"-0.01": 0.924676021285,
			"-0.009": 0.478249404475,
			"-0.008": 1.26846132093,
			"-0.007": 2.89229903256,
			"-0.006": 8.60959249296,
			"-0.005": 14.6984391177,
			"-0.004": 22.44428633,
			"-0.003": 19.279650555,
			"-0.002": 22.2557945674,
			"-0.001": 23.424683211,
			"0.0": 20.958567726,
			"0.001": 17.9512514736,
			"0.002": 20.7944466245,
			"0.003": 13.1914042989,
			"0.004": 6.07122149721,
			"0.005": 5.29352814438,
			"0.006": 3.44705456635,
			"0.007": 4.93551603186,
			"0.008": 5.14261330225,
			"0.009": 4.61610329389,
			"0.01": 6.07386678274,
			"0.011": 5.7704486718,
			"0.012": 3.76123502522,
			"0.013": 1.70948279549,
			"0.014": 0.287889802449,
			"0.015": 0.0,
			"0.016": 0.0,
			"0.017": 0.0,
			"0.018": 0.0,
			"0.019": 0.0,
			"0.02": 0.0,
			"0.021": 0.0,
			"0.022": 0.0,
			"0.023": 0.0,
			"0.024": 0.0,
			"0.025": 0.0
		}
	}
}
