{
	 "smiles": "NC1=NC=C(Br)N=C1Br", 
	 "Tm": 388.65, 
	 "num_atms": 12, 
	 "gaussian": { 
		 "optdone": 1, 
		 "sigma_profile": "yes", 
		 "theory": "DFT", 
		 "functional": "B3LYP", 
		 "basiset": "6-31G**", 
		 "properties": { 
			 "R2extent": 4218.75, 
			 "electric_dipole_moment_norm": 3.34651009262, 
			 "electric_quadrupole_moment_norm": 4.61378981858, 
			 "total_energy": -5461.290342, 
			 "HOMO_LUMO_gap": 0.16958, 
			 "cosmo_polarized_energy": -8.79, 
			 "cosmo_cavitation_energy": 21.43, 
			 "cosmo_dispersion_energy": -17.2, 
			 "cosmo_repulsion_energy": 1.42, 
			 "cosmo_total_nonelectrostatic_energy": 5.66, 
			 "SMD_solvation_energy": -1.32 
		},
		"coords": [
			{
				"x": -1.4057400419,
				"y": -1.5828142072,
				"z": -2.2766743828,
				"element": "N" 
			},
			{
				"x": -1.8581498988,
				"y": -0.8403391878,
				"z": -1.2306232319,
				"element": "C" 
			},
			{
				"x": -3.174708593,
				"y": -0.8483781558,
				"z": -0.9719320165,
				"element": "N" 
			},
			{
				"x": -3.6332325371,
				"y": -0.090826245,
				"z": 0.0248743128,
				"element": "C" 
			},
			{
				"x": -2.7687886618,
				"y": 0.6899072619,
				"z": 0.7905762887,
				"element": "C" 
			},
			{
				"x": -3.4503699781,
				"y": 1.7662643433,
				"z": 2.2138069575,
				"element": "Br" 
			},
			{
				"x": -1.4619000966,
				"y": 0.702676945,
				"z": 0.5588971189,
				"element": "N" 
			},
			{
				"x": -1.0095810768,
				"y": -0.0374406545,
				"z": -0.4208992846,
				"element": "C" 
			},
			{
				"x": 0.8838963452,
				"y": -0.0322469787,
				"z": -0.7550834771,
				"element": "Br" 
			},
			{
				"x": -0.417524896,
				"y": -1.7573274137,
				"z": -2.365700869,
				"element": "H" 
			},
			{
				"x": -2.0541971404,
				"y": -2.2411925623,
				"z": -2.6795758096,
				"element": "H" 
			},
			{
				"x": -4.7012034248,
				"y": -0.1077831452,
				"z": 0.2199343937,
				"element": "H" 
			}
		],
		 "valence_orbital": [ 
			{
				"type": "occ",
				"energy": -0.30322,
				"method": "rhf"
			},
			{
				"type": "occ",
				"energy": -0.29471,
				"method": "rhf"
			},
			{
				"type": "occ",
				"energy": -0.29258,
				"method": "rhf"
			},
			{
				"type": "occ",
				"energy": -0.27611,
				"method": "rhf"
			},
			{
				"type": "occ",
				"energy": -0.23075,
				"method": "rhf"
			},
			{
				"type": "unocc",
				"energy": -0.06117,
				"method": "rhf"
			},
			{
				"type": "unocc",
				"energy": -0.02481,
				"method": "rhf"
			},
			{
				"type": "unocc",
				"energy": -0.01072,
				"method": "rhf"
			},
			{
				"type": "unocc",
				"energy": 0.01303,
				"method": "rhf"
			},
			{
				"type": "unocc",
				"energy": 0.07716,
				"method": "rhf"
			}
		],
		"cosmo_sigma_profile": { 
			"-0.025": 0.0,
			"-0.024": 0.0,
			"-0.023": 0.0,
			"-0.022": 0.0,
			"-0.021": 0.0,
			"-0.02": 0.0,
			"-0.019": 0.0,
			"-0.018": 0.0,
			"-0.017": 0.0,
			"-0.016": 0.0,
			"-0.015": 0.237969318162,
			"-0.014": 1.48268771919,
			"-0.013": 1.73827622216,
			"-0.012": 2.11381148587,
			"-0.011": 1.95047371756,
			"-0.01": 2.09231577374,
			"-0.009": 2.60176349159,
			"-0.008": 3.59500170205,
			"-0.007": 2.61439426826,
			"-0.006": 3.77206560556,
			"-0.005": 6.2748442392,
			"-0.004": 8.96231763438,
			"-0.003": 10.7688579864,
			"-0.002": 13.4824965579,
			"-0.001": 14.9725831369,
			"0.0": 14.3722607943,
			"0.001": 12.5349008291,
			"0.002": 14.182422249,
			"0.003": 18.74474949,
			"0.004": 18.7549290265,
			"0.005": 8.04203486307,
			"0.006": 4.0085048313,
			"0.007": 3.24404897539,
			"0.008": 2.16768334726,
			"0.009": 2.15522797629,
			"0.01": 1.74283069735,
			"0.011": 1.2652281619,
			"0.012": 1.21224807942,
			"0.013": 0.258250967624,
			"0.014": 0.0118430564722,
			"0.015": 0.0,
			"0.016": 0.0,
			"0.017": 0.0,
			"0.018": 0.0,
			"0.019": 0.0,
			"0.02": 0.0,
			"0.021": 0.0,
			"0.022": 0.0,
			"0.023": 0.0,
			"0.024": 0.0,
			"0.025": 0.0
		}
	}
}
