{
	 "smiles": "CCCCCCCCCCCC(=O)N1CC(=O)NC(=O)C1", 
	 "Tm": 388.15, 
	 "num_atms": 49, 
	 "gaussian": { 
		 "optdone": 1, 
		 "sigma_profile": "yes", 
		 "theory": "DFT", 
		 "functional": "B3LYP", 
		 "basiset": "6-31G**", 
		 "properties": { 
			 "R2extent": 16760.9802, 
			 "electric_dipole_moment_norm": 3.31056545321, 
			 "electric_quadrupole_moment_norm": 29.6494144566, 
			 "total_energy": -961.814386001, 
			 "HOMO_LUMO_gap": 0.21286, 
			 "cosmo_polarized_energy": -18.74, 
			 "cosmo_cavitation_energy": 49.96, 
			 "cosmo_dispersion_energy": -34.03, 
			 "cosmo_repulsion_energy": 2.69, 
			 "cosmo_total_nonelectrostatic_energy": 18.62, 
			 "SMD_solvation_energy": 8.55 
		},
		"coords": [
			{
				"x": 5.4724345537,
				"y": 2.9422242999,
				"z": 0.6958719141,
				"element": "C" 
			},
			{
				"x": 4.615270989,
				"y": 4.0716274551,
				"z": 1.2788134468,
				"element": "C" 
			},
			{
				"x": 3.3400632526,
				"y": 4.4262679095,
				"z": 0.4923168052,
				"element": "C" 
			},
			{
				"x": 2.2627430265,
				"y": 3.3218564618,
				"z": 0.4057692895,
				"element": "C" 
			},
			{
				"x": 2.3740133425,
				"y": 2.3958699947,
				"z": -0.8176093316,
				"element": "C" 
			},
			{
				"x": 1.2351959787,
				"y": 1.3693996264,
				"z": -0.9422863972,
				"element": "C" 
			},
			{
				"x": 1.230534427,
				"y": 0.2912020601,
				"z": 0.1531423302,
				"element": "C" 
			},
			{
				"x": 0.1939297955,
				"y": -0.8270602051,
				"z": -0.0538901423,
				"element": "C" 
			},
			{
				"x": -1.2674108863,
				"y": -0.3668986526,
				"z": 0.0598823272,
				"element": "C" 
			},
			{
				"x": -2.3069389571,
				"y": -1.4800221576,
				"z": -0.1513948025,
				"element": "C" 
			},
			{
				"x": -2.309509664,
				"y": -2.5532246911,
				"z": 0.9597326754,
				"element": "C" 
			},
			{
				"x": -3.4718791583,
				"y": -3.5260908704,
				"z": 0.8092239999,
				"element": "C" 
			},
			{
				"x": -4.5363872133,
				"y": -3.3275042083,
				"z": 1.3812180646,
				"element": "O" 
			},
			{
				"x": -3.3047223312,
				"y": -4.6338687741,
				"z": -0.0113836636,
				"element": "N" 
			},
			{
				"x": -2.1363756613,
				"y": -4.9395477577,
				"z": -0.8155979243,
				"element": "C" 
			},
			{
				"x": -2.4671607966,
				"y": -5.0200281718,
				"z": -2.3048013335,
				"element": "C" 
			},
			{
				"x": -1.6459208519,
				"y": -4.8258911093,
				"z": -3.1780504685,
				"element": "O" 
			},
			{
				"x": -3.7807675894,
				"y": -5.3729754783,
				"z": -2.5925489527,
				"element": "N" 
			},
			{
				"x": -4.7895423968,
				"y": -5.7084834814,
				"z": -1.68430184,
				"element": "C" 
			},
			{
				"x": -5.8582240515,
				"y": -6.1385933786,
				"z": -2.063678529,
				"element": "O" 
			},
			{
				"x": -4.4354040425,
				"y": -5.5257434753,
				"z": -0.2148541942,
				"element": "C" 
			},
			{
				"x": 4.9512764622,
				"y": 1.9800981688,
				"z": 0.7185298317,
				"element": "H" 
			},
			{
				"x": 5.7476731145,
				"y": 3.147285587,
				"z": -0.3452287252,
				"element": "H" 
			},
			{
				"x": 6.3999435221,
				"y": 2.8230796547,
				"z": 1.2662923469,
				"element": "H" 
			},
			{
				"x": 5.231074814,
				"y": 4.9775299848,
				"z": 1.3537957698,
				"element": "H" 
			},
			{
				"x": 4.3341265741,
				"y": 3.814704867,
				"z": 2.309617186,
				"element": "H" 
			},
			{
				"x": 3.6147500623,
				"y": 4.7468642085,
				"z": -0.5229134231,
				"element": "H" 
			},
			{
				"x": 2.896912519,
				"y": 5.3080702281,
				"z": 0.9720511125,
				"element": "H" 
			},
			{
				"x": 2.2785702225,
				"y": 2.7325211891,
				"z": 1.3324402888,
				"element": "H" 
			},
			{
				"x": 1.2724239548,
				"y": 3.7964179198,
				"z": 0.3728379124,
				"element": "H" 
			},
			{
				"x": 2.3819676571,
				"y": 3.0206029328,
				"z": -1.7210767165,
				"element": "H" 
			},
			{
				"x": 3.334705599,
				"y": 1.8662925481,
				"z": -0.8105900389,
				"element": "H" 
			},
			{
				"x": 1.3141019477,
				"y": 0.8730115862,
				"z": -1.9195051611,
				"element": "H" 
			},
			{
				"x": 0.2753174961,
				"y": 1.9032018094,
				"z": -0.949344298,
				"element": "H" 
			},
			{
				"x": 2.2295913074,
				"y": -0.1637969334,
				"z": 0.1983685869,
				"element": "H" 
			},
			{
				"x": 1.063539693,
				"y": 0.7530753714,
				"z": 1.1352460492,
				"element": "H" 
			},
			{
				"x": 0.3508454492,
				"y": -1.2873363701,
				"z": -1.0405440021,
				"element": "H" 
			},
			{
				"x": 0.3878450282,
				"y": -1.6150603266,
				"z": 0.6855175418,
				"element": "H" 
			},
			{
				"x": -1.4286565993,
				"y": 0.095237224,
				"z": 1.0442028361,
				"element": "H" 
			},
			{
				"x": -1.4607674062,
				"y": 0.4184841023,
				"z": -0.6801477517,
				"element": "H" 
			},
			{
				"x": -3.3084313145,
				"y": -1.0361227501,
				"z": -0.1887381119,
				"element": "H" 
			},
			{
				"x": -2.1403547824,
				"y": -1.9486865602,
				"z": -1.131017401,
				"element": "H" 
			},
			{
				"x": -1.347002661,
				"y": -3.0713214461,
				"z": 1.0113891078,
				"element": "H" 
			},
			{
				"x": -2.4684491771,
				"y": -2.0671348437,
				"z": 1.925972385,
				"element": "H" 
			},
			{
				"x": -1.7023765391,
				"y": -5.9086057794,
				"z": -0.520780015,
				"element": "H" 
			},
			{
				"x": -1.3586016877,
				"y": -4.1889675373,
				"z": -0.7036952826,
				"element": "H" 
			},
			{
				"x": -4.0140248624,
				"y": -5.4758120457,
				"z": -3.5756374719,
				"element": "H" 
			},
			{
				"x": -5.2987166603,
				"y": -5.1079531481,
				"z": 0.3032135759,
				"element": "H" 
			},
			{
				"x": -4.2359254985,
				"y": -6.5226950372,
				"z": 0.2069705946,
				"element": "H" 
			}
		],
		 "valence_orbital": [ 
			{
				"type": "occ",
				"energy": -0.30274,
				"method": "rhf"
			},
			{
				"type": "occ",
				"energy": -0.30133,
				"method": "rhf"
			},
			{
				"type": "occ",
				"energy": -0.27627,
				"method": "rhf"
			},
			{
				"type": "occ",
				"energy": -0.26009,
				"method": "rhf"
			},
			{
				"type": "occ",
				"energy": -0.25365,
				"method": "rhf"
			},
			{
				"type": "unocc",
				"energy": -0.04079,
				"method": "rhf"
			},
			{
				"type": "unocc",
				"energy": 0.00773,
				"method": "rhf"
			},
			{
				"type": "unocc",
				"energy": 0.01983,
				"method": "rhf"
			},
			{
				"type": "unocc",
				"energy": 0.06316,
				"method": "rhf"
			},
			{
				"type": "unocc",
				"energy": 0.08205,
				"method": "rhf"
			}
		],
		"cosmo_sigma_profile": { 
			"-0.025": 0.0,
			"-0.024": 0.0,
			"-0.023": 0.0,
			"-0.022": 0.0,
			"-0.021": 0.0,
			"-0.02": 0.0,
			"-0.019": 0.0,
			"-0.018": 0.0,
			"-0.017": 0.0,
			"-0.016": 0.635480856574,
			"-0.015": 0.812687230535,
			"-0.014": 0.734131609688,
			"-0.013": 1.26433195332,
			"-0.012": 0.730973590863,
			"-0.011": 1.1051332999,
			"-0.01": 2.50350873493,
			"-0.009": 4.45121295235,
			"-0.008": 7.98916965449,
			"-0.007": 7.60683187346,
			"-0.006": 10.047091704,
			"-0.005": 13.5691658857,
			"-0.004": 14.0546492378,
			"-0.003": 19.0436196694,
			"-0.002": 46.4263419484,
			"-0.001": 64.1384527172,
			"0.0": 61.9412652133,
			"0.001": 48.5757485464,
			"0.002": 20.6059831616,
			"0.003": 3.25620449807,
			"0.004": 4.13848236822,
			"0.005": 4.51915190311,
			"0.006": 3.04555840627,
			"0.007": 3.39943813789,
			"0.008": 3.73394833187,
			"0.009": 4.68669078115,
			"0.01": 5.94646733168,
			"0.011": 11.3044917014,
			"0.012": 9.30688254844,
			"0.013": 4.55730327197,
			"0.014": 2.45556972084,
			"0.015": 0.352465265202,
			"0.016": 0.0,
			"0.017": 0.0,
			"0.018": 0.0,
			"0.019": 0.0,
			"0.02": 0.0,
			"0.021": 0.0,
			"0.022": 0.0,
			"0.023": 0.0,
			"0.024": 0.0,
			"0.025": 0.0
		}
	}
}
