{
	 "smiles": "CC(F)(F)F", 
	 "Tm": 162.15, 
	 "num_atms": 8, 
	 "gaussian": { 
		 "optdone": 1, 
		 "sigma_profile": "yes", 
		 "theory": "DFT", 
		 "functional": "B3LYP", 
		 "basiset": "6-31G**", 
		 "properties": { 
			 "R2extent": 549.691, 
			 "electric_dipole_moment_norm": 2.0562010748, 
			 "electric_quadrupole_moment_norm": 4.10265857341, 
			 "total_energy": -377.555305171, 
			 "HOMO_LUMO_gap": 0.48052, 
			 "cosmo_polarized_energy": -2.82, 
			 "cosmo_cavitation_energy": 12.83, 
			 "cosmo_dispersion_energy": -9.18, 
			 "cosmo_repulsion_energy": 0.78, 
			 "cosmo_total_nonelectrostatic_energy": 4.42, 
			 "SMD_solvation_energy": 3.87 
		},
		"coords": [
			{
				"x": -1.1623995669,
				"y": -1.8171409963,
				"z": 0.3372675328,
				"element": "C" 
			},
			{
				"x": -0.5379469206,
				"y": -0.5702424267,
				"z": 0.903625817,
				"element": "C" 
			},
			{
				"x": -1.3825494687,
				"y": 0.4830511245,
				"z": 0.8362493864,
				"element": "F" 
			},
			{
				"x": -0.1980682444,
				"y": -0.7305788709,
				"z": 2.2021321816,
				"element": "F" 
			},
			{
				"x": 0.5851185774,
				"y": -0.2285233006,
				"z": 0.2333294029,
				"element": "F" 
			},
			{
				"x": -2.0640014863,
				"y": -2.0619507514,
				"z": 0.9012886431,
				"element": "H" 
			},
			{
				"x": -1.4229518522,
				"y": -1.6514124187,
				"z": -0.7094308439,
				"element": "H" 
			},
			{
				"x": -0.4541010382,
				"y": -2.6443023599,
				"z": 0.40833788,
				"element": "H" 
			}
		],
		 "valence_orbital": [ 
			{
				"type": "occ",
				"energy": -0.43706,
				"method": "rhf"
			},
			{
				"type": "occ",
				"energy": -0.39849,
				"method": "rhf"
			},
			{
				"type": "occ",
				"energy": -0.39849,
				"method": "rhf"
			},
			{
				"type": "occ",
				"energy": -0.39235,
				"method": "rhf"
			},
			{
				"type": "occ",
				"energy": -0.37372,
				"method": "rhf"
			},
			{
				"type": "unocc",
				"energy": 0.1068,
				"method": "rhf"
			},
			{
				"type": "unocc",
				"energy": 0.12431,
				"method": "rhf"
			},
			{
				"type": "unocc",
				"energy": 0.12431,
				"method": "rhf"
			},
			{
				"type": "unocc",
				"energy": 0.20647,
				"method": "rhf"
			},
			{
				"type": "unocc",
				"energy": 0.20647,
				"method": "rhf"
			}
		],
		"cosmo_sigma_profile": { 
			"-0.025": 0.0,
			"-0.024": 0.0,
			"-0.023": 0.0,
			"-0.022": 0.0,
			"-0.021": 0.0,
			"-0.02": 0.0,
			"-0.019": 0.0,
			"-0.018": 0.0,
			"-0.017": 0.0,
			"-0.016": 0.0,
			"-0.015": 0.0,
			"-0.014": 0.0,
			"-0.013": 0.0,
			"-0.012": 0.0,
			"-0.011": 0.0,
			"-0.01": 0.0,
			"-0.009": 0.0,
			"-0.008": 0.0942922537171,
			"-0.007": 4.67815191335,
			"-0.006": 6.43375605541,
			"-0.005": 5.87586768342,
			"-0.004": 5.91963120604,
			"-0.003": 8.21049752944,
			"-0.002": 6.71214172233,
			"-0.001": 3.42412347523,
			"0.0": 4.16502917326,
			"0.001": 5.00213813531,
			"0.002": 7.29488218223,
			"0.003": 30.0618217416,
			"0.004": 13.8624861237,
			"0.005": 0.0,
			"0.006": 0.0,
			"0.007": 0.0,
			"0.008": 0.0,
			"0.009": 0.0,
			"0.01": 0.0,
			"0.011": 0.0,
			"0.012": 0.0,
			"0.013": 0.0,
			"0.014": 0.0,
			"0.015": 0.0,
			"0.016": 0.0,
			"0.017": 0.0,
			"0.018": 0.0,
			"0.019": 0.0,
			"0.02": 0.0,
			"0.021": 0.0,
			"0.022": 0.0,
			"0.023": 0.0,
			"0.024": 0.0,
			"0.025": 0.0
		}
	}
}
