{
	 "smiles": "NC(CCN(CC1=CC=CO1)S(=O)(=O)C1=CC=C(Cl)C=C1)=NO", 
	 "Tm": 389.15, 
	 "num_atms": 39, 
	 "gaussian": { 
		 "optdone": 1, 
		 "sigma_profile": "yes", 
		 "theory": "DFT", 
		 "functional": "B3LYP", 
		 "basiset": "6-31G**", 
		 "properties": { 
			 "R2extent": 12118.3232, 
			 "electric_dipole_moment_norm": 4.77057712337, 
			 "electric_quadrupole_moment_norm": 23.9006032051, 
			 "total_energy": -1866.50260161, 
			 "HOMO_LUMO_gap": 0.17123, 
			 "cosmo_polarized_energy": -23.94, 
			 "cosmo_cavitation_energy": 46.33, 
			 "cosmo_dispersion_energy": -31.26, 
			 "cosmo_repulsion_energy": 2.37, 
			 "cosmo_total_nonelectrostatic_energy": 17.44, 
			 "SMD_solvation_energy": 6.68 
		},
		"coords": [
			{
				"x": 2.8638737481,
				"y": 2.8811760356,
				"z": -0.8799293987,
				"element": "N" 
			},
			{
				"x": 1.8132504413,
				"y": 2.3967532139,
				"z": -0.1057736398,
				"element": "C" 
			},
			{
				"x": 1.7836541327,
				"y": 0.9084857343,
				"z": 0.1266360721,
				"element": "C" 
			},
			{
				"x": 1.2893774,
				"y": 0.1610290646,
				"z": -1.1375237784,
				"element": "C" 
			},
			{
				"x": 0.9248859313,
				"y": -1.2425547136,
				"z": -0.9173985914,
				"element": "N" 
			},
			{
				"x": -0.3100180489,
				"y": -1.5289925096,
				"z": -0.1524624138,
				"element": "C" 
			},
			{
				"x": -1.5362872594,
				"y": -1.0165729413,
				"z": -0.8303678544,
				"element": "C" 
			},
			{
				"x": -2.2386948258,
				"y": 0.1510492773,
				"z": -0.7314354398,
				"element": "C" 
			},
			{
				"x": -3.3236642429,
				"y": 0.0517612407,
				"z": -1.6628210298,
				"element": "C" 
			},
			{
				"x": -3.1993956965,
				"y": -1.1680639653,
				"z": -2.2555605987,
				"element": "C" 
			},
			{
				"x": -2.1181108292,
				"y": -1.8318182215,
				"z": -1.7628389891,
				"element": "O" 
			},
			{
				"x": 2.066971792,
				"y": -2.4493003176,
				"z": -1.1134112632,
				"element": "S" 
			},
			{
				"x": 2.9631907287,
				"y": -2.0065056434,
				"z": -2.1842898877,
				"element": "O" 
			},
			{
				"x": 1.3322765721,
				"y": -3.7145451633,
				"z": -1.1742303667,
				"element": "O" 
			},
			{
				"x": 3.0666690265,
				"y": -2.5193666922,
				"z": 0.3867045142,
				"element": "C" 
			},
			{
				"x": 4.3165550555,
				"y": -1.8966949968,
				"z": 0.409753726,
				"element": "C" 
			},
			{
				"x": 5.0858887409,
				"y": -1.933634621,
				"z": 1.5721207301,
				"element": "C" 
			},
			{
				"x": 4.5902244736,
				"y": -2.5971899955,
				"z": 2.6956283822,
				"element": "C" 
			},
			{
				"x": 5.5527843508,
				"y": -2.6420189651,
				"z": 4.1602697863,
				"element": "Cl" 
			},
			{
				"x": 3.3494767193,
				"y": -3.2372206851,
				"z": 2.6734248203,
				"element": "C" 
			},
			{
				"x": 2.5861984619,
				"y": -3.2008145788,
				"z": 1.5079838968,
				"element": "C" 
			},
			{
				"x": 0.9095981843,
				"y": 3.2395174619,
				"z": 0.2574221149,
				"element": "N" 
			},
			{
				"x": -0.1867918529,
				"y": 2.5846045728,
				"z": 0.8931650321,
				"element": "O" 
			},
			{
				"x": 2.8831960256,
				"y": 3.8928091746,
				"z": -0.9376784682,
				"element": "H" 
			},
			{
				"x": 3.7702375279,
				"y": 2.4867290047,
				"z": -0.6620817612,
				"element": "H" 
			},
			{
				"x": 2.7861667615,
				"y": 0.5589508082,
				"z": 0.3983761555,
				"element": "H" 
			},
			{
				"x": 1.120679401,
				"y": 0.7100878845,
				"z": 0.9699223123,
				"element": "H" 
			},
			{
				"x": 0.3918245454,
				"y": 0.6562680839,
				"z": -1.518128197,
				"element": "H" 
			},
			{
				"x": 2.0392645035,
				"y": 0.1992312922,
				"z": -1.927572794,
				"element": "H" 
			},
			{
				"x": -0.2512649842,
				"y": -1.0856735375,
				"z": 0.8495784468,
				"element": "H" 
			},
			{
				"x": -0.3859462622,
				"y": -2.6123598943,
				"z": -0.0504593863,
				"element": "H" 
			},
			{
				"x": -1.9838790209,
				"y": 0.985989683,
				"z": -0.0929163213,
				"element": "H" 
			},
			{
				"x": -4.0893180676,
				"y": 0.7881076277,
				"z": -1.860247742,
				"element": "H" 
			},
			{
				"x": -3.7706157442,
				"y": -1.6929149124,
				"z": -3.0056341358,
				"element": "H" 
			},
			{
				"x": 4.6881407089,
				"y": -1.4113651529,
				"z": -0.4861283082,
				"element": "H" 
			},
			{
				"x": 6.0624908904,
				"y": -1.4637438448,
				"z": 1.6056382343,
				"element": "H" 
			},
			{
				"x": 2.9939242292,
				"y": -3.7640726115,
				"z": 3.5517404489,
				"element": "H" 
			},
			{
				"x": 1.6360498405,
				"y": -3.7216430215,
				"z": 1.4623374532,
				"element": "H" 
			},
			{
				"x": -0.7228633579,
				"y": 3.3394168253,
				"z": 1.1660882392,
				"element": "H" 
			}
		],
		 "valence_orbital": [ 
			{
				"type": "occ",
				"energy": -0.27658,
				"method": "rhf"
			},
			{
				"type": "occ",
				"energy": -0.27312,
				"method": "rhf"
			},
			{
				"type": "occ",
				"energy": -0.25065,
				"method": "rhf"
			},
			{
				"type": "occ",
				"energy": -0.22632,
				"method": "rhf"
			},
			{
				"type": "occ",
				"energy": -0.22006,
				"method": "rhf"
			},
			{
				"type": "unocc",
				"energy": -0.04883,
				"method": "rhf"
			},
			{
				"type": "unocc",
				"energy": -0.03647,
				"method": "rhf"
			},
			{
				"type": "unocc",
				"energy": 0.00514,
				"method": "rhf"
			},
			{
				"type": "unocc",
				"energy": 0.01481,
				"method": "rhf"
			},
			{
				"type": "unocc",
				"energy": 0.01725,
				"method": "rhf"
			}
		],
		"cosmo_sigma_profile": { 
			"-0.025": 0.0,
			"-0.024": 0.0,
			"-0.023": 0.0,
			"-0.022": 0.0,
			"-0.021": 0.0,
			"-0.02": 0.0,
			"-0.019": 0.0,
			"-0.018": 0.0,
			"-0.017": 0.0686228321989,
			"-0.016": 0.746867003192,
			"-0.015": 1.37062223064,
			"-0.014": 0.351829745696,
			"-0.013": 1.82515281921,
			"-0.012": 3.1773700558,
			"-0.011": 3.90385740733,
			"-0.01": 3.13649673166,
			"-0.009": 5.3283246787,
			"-0.008": 11.007974919,
			"-0.007": 16.0065842235,
			"-0.006": 17.4432124785,
			"-0.005": 18.4086578387,
			"-0.004": 18.3460172423,
			"-0.003": 21.0792787504,
			"-0.002": 23.4722145051,
			"-0.001": 22.4966327582,
			"0.0": 27.2631368793,
			"0.001": 32.4357813457,
			"0.002": 23.7286725078,
			"0.003": 22.478960413,
			"0.004": 25.715938713,
			"0.005": 14.7955021755,
			"0.006": 9.37772476424,
			"0.007": 8.66382372175,
			"0.008": 8.35028415173,
			"0.009": 6.23764062722,
			"0.01": 9.66001789323,
			"0.011": 9.38526152061,
			"0.012": 3.03125254234,
			"0.013": 0.820587488812,
			"0.014": 1.03753493767,
			"0.015": 0.184877845977,
			"0.016": 0.0,
			"0.017": 0.0,
			"0.018": 0.0,
			"0.019": 0.0,
			"0.02": 0.0,
			"0.021": 0.0,
			"0.022": 0.0,
			"0.023": 0.0,
			"0.024": 0.0,
			"0.025": 0.0
		}
	}
}
