{
	 "smiles": "CC1OC(O)C(O)C(O)C1O", 
	 "Tm": 417.15, 
	 "num_atms": 23, 
	 "gaussian": { 
		 "optdone": 1, 
		 "sigma_profile": "yes", 
		 "theory": "DFT", 
		 "functional": "B3LYP", 
		 "basiset": "6-31G**", 
		 "properties": { 
			 "R2extent": 1985.3789, 
			 "electric_dipole_moment_norm": 5.02512822722, 
			 "electric_quadrupole_moment_norm": 8.17599927165, 
			 "total_energy": -611.952247281, 
			 "HOMO_LUMO_gap": 0.29898, 
			 "cosmo_polarized_energy": -17.9, 
			 "cosmo_cavitation_energy": 24.43, 
			 "cosmo_dispersion_energy": -18.36, 
			 "cosmo_repulsion_energy": 1.5, 
			 "cosmo_total_nonelectrostatic_energy": 7.57, 
			 "SMD_solvation_energy": 3.99 
		},
		"coords": [
			{
				"x": -1.8425980489,
				"y": -1.2491848335,
				"z": 3.0464081159,
				"element": "C" 
			},
			{
				"x": -0.9467021562,
				"y": -0.3539666635,
				"z": 2.1989429936,
				"element": "C" 
			},
			{
				"x": -1.8125237937,
				"y": 0.3688153404,
				"z": 1.3161206334,
				"element": "O" 
			},
			{
				"x": -1.1356589538,
				"y": 0.8988631841,
				"z": 0.1857910053,
				"element": "C" 
			},
			{
				"x": -2.0241316637,
				"y": 1.7562449481,
				"z": -0.4761352705,
				"element": "O" 
			},
			{
				"x": -0.7407159184,
				"y": -0.2270310801,
				"z": -0.7925565919,
				"element": "C" 
			},
			{
				"x": -1.828222694,
				"y": -0.5849789786,
				"z": -1.6205977345,
				"element": "O" 
			},
			{
				"x": -0.3139368755,
				"y": -1.4907847604,
				"z": -0.000697339,
				"element": "C" 
			},
			{
				"x": 0.6862920981,
				"y": -2.2428065756,
				"z": -0.6600756031,
				"element": "O" 
			},
			{
				"x": 0.1359396782,
				"y": -1.1458936301,
				"z": 1.4233219182,
				"element": "C" 
			},
			{
				"x": 1.3495837769,
				"y": -0.3947035211,
				"z": 1.2563181664,
				"element": "O" 
			},
			{
				"x": -1.2656821916,
				"y": -1.7387665339,
				"z": 3.8372942906,
				"element": "H" 
			},
			{
				"x": -2.3156682084,
				"y": -2.019776511,
				"z": 2.4302203939,
				"element": "H" 
			},
			{
				"x": -2.6331837807,
				"y": -0.6541700122,
				"z": 3.5107268716,
				"element": "H" 
			},
			{
				"x": -0.4196100005,
				"y": 0.3656580198,
				"z": 2.8501054592,
				"element": "H" 
			},
			{
				"x": -0.2346069506,
				"y": 1.4363693196,
				"z": 0.5223709757,
				"element": "H" 
			},
			{
				"x": -2.5120512143,
				"y": 2.2409470717,
				"z": 0.2035655817,
				"element": "H" 
			},
			{
				"x": 0.1157112822,
				"y": 0.1189978322,
				"z": -1.393077905,
				"element": "H" 
			},
			{
				"x": -2.3470604372,
				"y": 0.2252766426,
				"z": -1.7415233009,
				"element": "H" 
			},
			{
				"x": -1.2040395085,
				"y": -2.1244240346,
				"z": 0.0506117317,
				"element": "H" 
			},
			{
				"x": 1.5137877001,
				"y": -1.7617276964,
				"z": -0.5105795054,
				"element": "H" 
			},
			{
				"x": 0.3540138487,
				"y": -2.0821866069,
				"z": 1.9548899541,
				"element": "H" 
			},
			{
				"x": 1.8000640118,
				"y": -0.3372709206,
				"z": 2.1079551588,
				"element": "H" 
			}
		],
		 "valence_orbital": [ 
			{
				"type": "occ",
				"energy": -0.31065,
				"method": "rhf"
			},
			{
				"type": "occ",
				"energy": -0.28494,
				"method": "rhf"
			},
			{
				"type": "occ",
				"energy": -0.27182,
				"method": "rhf"
			},
			{
				"type": "occ",
				"energy": -0.25661,
				"method": "rhf"
			},
			{
				"type": "occ",
				"energy": -0.2463,
				"method": "rhf"
			},
			{
				"type": "unocc",
				"energy": 0.05268,
				"method": "rhf"
			},
			{
				"type": "unocc",
				"energy": 0.07317,
				"method": "rhf"
			},
			{
				"type": "unocc",
				"energy": 0.08783,
				"method": "rhf"
			},
			{
				"type": "unocc",
				"energy": 0.10971,
				"method": "rhf"
			},
			{
				"type": "unocc",
				"energy": 0.11542,
				"method": "rhf"
			}
		],
		"cosmo_sigma_profile": { 
			"-0.025": 0.0,
			"-0.024": 0.0,
			"-0.023": 0.0,
			"-0.022": 0.0,
			"-0.021": 0.0,
			"-0.02": 0.0,
			"-0.019": 0.0,
			"-0.018": 0.0,
			"-0.017": 0.425547893,
			"-0.016": 1.73077620958,
			"-0.015": 2.33194948081,
			"-0.014": 1.71172456317,
			"-0.013": 1.66675059824,
			"-0.012": 2.02373043319,
			"-0.011": 2.03398828881,
			"-0.01": 2.44967376079,
			"-0.009": 2.57644316784,
			"-0.008": 4.03301633479,
			"-0.007": 3.73248992341,
			"-0.006": 4.59153839641,
			"-0.005": 11.4674697208,
			"-0.004": 17.8817675538,
			"-0.003": 16.0297124333,
			"-0.002": 13.4170069152,
			"-0.001": 12.6537882666,
			"0.0": 13.4379888822,
			"0.001": 7.58336528979,
			"0.002": 6.11416529,
			"0.003": 6.08063101398,
			"0.004": 5.62202199724,
			"0.005": 5.19678732194,
			"0.006": 4.86550321074,
			"0.007": 4.6453731803,
			"0.008": 5.91981532567,
			"0.009": 5.33655462857,
			"0.01": 5.85129744503,
			"0.011": 4.05331984848,
			"0.012": 4.42114025213,
			"0.013": 3.78499770496,
			"0.014": 3.78163740184,
			"0.015": 0.564338833305,
			"0.016": 0.0,
			"0.017": 0.0,
			"0.018": 0.0,
			"0.019": 0.0,
			"0.02": 0.0,
			"0.021": 0.0,
			"0.022": 0.0,
			"0.023": 0.0,
			"0.024": 0.0,
			"0.025": 0.0
		}
	}
}
