{
	 "smiles": "CC1=CC=C2OCC(=O)N(CCC#N)C2=C1", 
	 "Tm": 403.15, 
	 "num_atms": 28, 
	 "gaussian": { 
		 "optdone": 1, 
		 "sigma_profile": "yes", 
		 "theory": "DFT", 
		 "functional": "B3LYP", 
		 "basiset": "6-31G**", 
		 "properties": { 
			 "R2extent": 5122.5015, 
			 "electric_dipole_moment_norm": 4.77827613371, 
			 "electric_quadrupole_moment_norm": 12.2039457287, 
			 "total_energy": -724.452718001, 
			 "HOMO_LUMO_gap": 0.19554, 
			 "cosmo_polarized_energy": -15.64, 
			 "cosmo_cavitation_energy": 32.36, 
			 "cosmo_dispersion_energy": -22.68, 
			 "cosmo_repulsion_energy": 1.77, 
			 "cosmo_total_nonelectrostatic_energy": 11.45, 
			 "SMD_solvation_energy": 7.49 
		},
		"coords": [
			{
				"x": 2.3784063664,
				"y": -0.0061460365,
				"z": 1.6495254479,
				"element": "C" 
			},
			{
				"x": 1.7919247792,
				"y": -1.0422224335,
				"z": 0.7188997694,
				"element": "C" 
			},
			{
				"x": 2.4302166116,
				"y": -2.2679477284,
				"z": 0.5041094016,
				"element": "C" 
			},
			{
				"x": 1.8887679762,
				"y": -3.214312774,
				"z": -0.3666431955,
				"element": "C" 
			},
			{
				"x": 0.7084520767,
				"y": -2.9393120718,
				"z": -1.0463483254,
				"element": "C" 
			},
			{
				"x": 0.2103599086,
				"y": -3.8626616772,
				"z": -1.9308066018,
				"element": "O" 
			},
			{
				"x": -1.2108832739,
				"y": -3.8720834254,
				"z": -2.0126319025,
				"element": "C" 
			},
			{
				"x": -1.8169812452,
				"y": -2.4895722986,
				"z": -2.2080865802,
				"element": "C" 
			},
			{
				"x": -2.8698332765,
				"y": -2.3221370757,
				"z": -2.8074942531,
				"element": "O" 
			},
			{
				"x": -1.1168084422,
				"y": -1.454486557,
				"z": -1.6238181368,
				"element": "N" 
			},
			{
				"x": -1.6637445453,
				"y": -0.1089564559,
				"z": -1.780093705,
				"element": "C" 
			},
			{
				"x": -2.7688618911,
				"y": 0.1889621006,
				"z": -0.7389186614,
				"element": "C" 
			},
			{
				"x": -3.2487582809,
				"y": 1.5681250834,
				"z": -0.8373612289,
				"element": "C" 
			},
			{
				"x": -3.6048215508,
				"y": 2.6690516279,
				"z": -0.9282649716,
				"element": "N" 
			},
			{
				"x": 0.0552229295,
				"y": -1.7072141316,
				"z": -0.8624726792,
				"element": "C" 
			},
			{
				"x": 0.5985054878,
				"y": -0.7793702743,
				"z": 0.0311722834,
				"element": "C" 
			},
			{
				"x": 1.5998033576,
				"y": 0.5121498515,
				"z": 2.218306364,
				"element": "H" 
			},
			{
				"x": 3.0699233972,
				"y": -0.4609696965,
				"z": 2.3641797937,
				"element": "H" 
			},
			{
				"x": 2.9367134866,
				"y": 0.7580177732,
				"z": 1.0945526964,
				"element": "H" 
			},
			{
				"x": 3.3531825558,
				"y": -2.4937487335,
				"z": 1.0303969564,
				"element": "H" 
			},
			{
				"x": 2.3704668439,
				"y": -4.1717553321,
				"z": -0.53530652,
				"element": "H" 
			},
			{
				"x": -1.6474323777,
				"y": -4.3234347452,
				"z": -1.1072479006,
				"element": "H" 
			},
			{
				"x": -1.4829599298,
				"y": -4.4848815946,
				"z": -2.8720120446,
				"element": "H" 
			},
			{
				"x": -0.8489828493,
				"y": 0.6124040435,
				"z": -1.7041434086,
				"element": "H" 
			},
			{
				"x": -2.0945380985,
				"y": -0.0432032251,
				"z": -2.7803239365,
				"element": "H" 
			},
			{
				"x": -3.605130443,
				"y": -0.4965552601,
				"z": -0.9091985687,
				"element": "H" 
			},
			{
				"x": -2.3972845697,
				"y": 0.0164347798,
				"z": 0.2772084631,
				"element": "H" 
			},
			{
				"x": 0.097774997,
				"y": 0.1685262673,
				"z": 0.1996214443,
				"element": "H" 
			}
		],
		 "valence_orbital": [ 
			{
				"type": "occ",
				"energy": -0.32742,
				"method": "rhf"
			},
			{
				"type": "occ",
				"energy": -0.30972,
				"method": "rhf"
			},
			{
				"type": "occ",
				"energy": -0.27362,
				"method": "rhf"
			},
			{
				"type": "occ",
				"energy": -0.24946,
				"method": "rhf"
			},
			{
				"type": "occ",
				"energy": -0.22316,
				"method": "rhf"
			},
			{
				"type": "unocc",
				"energy": -0.02762,
				"method": "rhf"
			},
			{
				"type": "unocc",
				"energy": -0.01394,
				"method": "rhf"
			},
			{
				"type": "unocc",
				"energy": 0.01324,
				"method": "rhf"
			},
			{
				"type": "unocc",
				"energy": 0.0265,
				"method": "rhf"
			},
			{
				"type": "unocc",
				"energy": 0.03451,
				"method": "rhf"
			}
		],
		"cosmo_sigma_profile": { 
			"-0.025": 0.0,
			"-0.024": 0.0,
			"-0.023": 0.0,
			"-0.022": 0.0,
			"-0.021": 0.0,
			"-0.02": 0.0,
			"-0.019": 0.0,
			"-0.018": 0.0,
			"-0.017": 0.0,
			"-0.016": 0.0,
			"-0.015": 0.0,
			"-0.014": 0.0,
			"-0.013": 0.0,
			"-0.012": 0.0,
			"-0.011": 1.54243198931e-05,
			"-0.01": 0.626540251383,
			"-0.009": 2.30303957726,
			"-0.008": 10.0382945601,
			"-0.007": 13.0694456772,
			"-0.006": 16.2044744774,
			"-0.005": 21.9350610809,
			"-0.004": 21.6293845213,
			"-0.003": 18.2253582759,
			"-0.002": 17.5510140024,
			"-0.001": 15.6567949454,
			"0.0": 16.8841447623,
			"0.001": 12.4514512981,
			"0.002": 11.0989009994,
			"0.003": 12.112617912,
			"0.004": 13.0974064911,
			"0.005": 11.4691079871,
			"0.006": 6.00033369361,
			"0.007": 4.36223405118,
			"0.008": 5.84446153994,
			"0.009": 6.33373472093,
			"0.01": 5.51618538653,
			"0.011": 5.23245950036,
			"0.012": 6.1629544478,
			"0.013": 4.05488152356,
			"0.014": 0.283376688646,
			"0.015": 0.0,
			"0.016": 0.0,
			"0.017": 0.0,
			"0.018": 0.0,
			"0.019": 0.0,
			"0.02": 0.0,
			"0.021": 0.0,
			"0.022": 0.0,
			"0.023": 0.0,
			"0.024": 0.0,
			"0.025": 0.0
		}
	}
}
