{
	 "smiles": "CC1=C(Br)C=C(C=C1Br)C(O)=O", 
	 "Tm": 515.15, 
	 "num_atms": 18, 
	 "gaussian": { 
		 "optdone": 1, 
		 "sigma_profile": "yes", 
		 "theory": "DFT", 
		 "functional": "B3LYP", 
		 "basiset": "6-31G**", 
		 "properties": { 
			 "R2extent": 5046.1232, 
			 "electric_dipole_moment_norm": 3.85959752565, 
			 "electric_quadrupole_moment_norm": 16.3100827291, 
			 "total_energy": -5601.73457439, 
			 "HOMO_LUMO_gap": 0.1947, 
			 "cosmo_polarized_energy": -12.76, 
			 "cosmo_cavitation_energy": 26.94, 
			 "cosmo_dispersion_energy": -20.58, 
			 "cosmo_repulsion_energy": 1.63, 
			 "cosmo_total_nonelectrostatic_energy": 7.99, 
			 "SMD_solvation_energy": 3.74 
		},
		"coords": [
			{
				"x": -1.9300633765,
				"y": 0.9771159327,
				"z": 1.1208906418,
				"element": "C" 
			},
			{
				"x": -1.2386677394,
				"y": 0.1053326121,
				"z": 0.1091047935,
				"element": "C" 
			},
			{
				"x": -0.8168952677,
				"y": 0.5615013356,
				"z": -1.1518546706,
				"element": "C" 
			},
			{
				"x": -1.0783321009,
				"y": 2.3848502393,
				"z": -1.6832489546,
				"element": "Br" 
			},
			{
				"x": -0.1849631835,
				"y": -0.2657086612,
				"z": -2.0789013032,
				"element": "C" 
			},
			{
				"x": 0.0529960006,
				"y": -1.6065238211,
				"z": -1.7680914827,
				"element": "C" 
			},
			{
				"x": -0.3285317549,
				"y": -2.094930727,
				"z": -0.5151613685,
				"element": "C" 
			},
			{
				"x": -0.9647412734,
				"y": -1.2505810941,
				"z": 0.3837975826,
				"element": "C" 
			},
			{
				"x": -1.478224925,
				"y": -1.9925302947,
				"z": 2.0704398507,
				"element": "Br" 
			},
			{
				"x": 0.7422078288,
				"y": -2.5575454018,
				"z": -2.7042263739,
				"element": "C" 
			},
			{
				"x": 0.745177907,
				"y": -2.2266107661,
				"z": -4.0210681047,
				"element": "O" 
			},
			{
				"x": 1.2763174048,
				"y": -3.5736589231,
				"z": -2.3301078086,
				"element": "O" 
			},
			{
				"x": -2.0827723788,
				"y": 1.9857835737,
				"z": 0.7417324982,
				"element": "H" 
			},
			{
				"x": -2.9010905427,
				"y": 0.5507105373,
				"z": 1.3919423246,
				"element": "H" 
			},
			{
				"x": -1.3414729891,
				"y": 1.0334202384,
				"z": 2.0424515821,
				"element": "H" 
			},
			{
				"x": 0.1462304397,
				"y": 0.1665120228,
				"z": -3.0169628674,
				"element": "H" 
			},
			{
				"x": -0.1211068812,
				"y": -3.1280235905,
				"z": -0.2656829873,
				"element": "H" 
			},
			{
				"x": 0.1394328325,
				"y": -1.4917132121,
				"z": -4.189653352,
				"element": "H" 
			}
		],
		 "valence_orbital": [ 
			{
				"type": "occ",
				"energy": -0.31064,
				"method": "rhf"
			},
			{
				"type": "occ",
				"energy": -0.29949,
				"method": "rhf"
			},
			{
				"type": "occ",
				"energy": -0.28591,
				"method": "rhf"
			},
			{
				"type": "occ",
				"energy": -0.26969,
				"method": "rhf"
			},
			{
				"type": "occ",
				"energy": -0.26242,
				"method": "rhf"
			},
			{
				"type": "unocc",
				"energy": -0.06772,
				"method": "rhf"
			},
			{
				"type": "unocc",
				"energy": -0.04342,
				"method": "rhf"
			},
			{
				"type": "unocc",
				"energy": -0.03014,
				"method": "rhf"
			},
			{
				"type": "unocc",
				"energy": 0.01042,
				"method": "rhf"
			},
			{
				"type": "unocc",
				"energy": 0.03012,
				"method": "rhf"
			}
		],
		"cosmo_sigma_profile": { 
			"-0.025": 0.0,
			"-0.024": 0.0,
			"-0.023": 0.0,
			"-0.022": 0.0,
			"-0.021": 0.0,
			"-0.02": 0.0686736269035,
			"-0.019": 0.876859661667,
			"-0.018": 1.25694298595,
			"-0.017": 0.678867660519,
			"-0.016": 0.820131372743,
			"-0.015": 1.32579140136,
			"-0.014": 1.21104966155,
			"-0.013": 1.22225610229,
			"-0.012": 1.03183128195,
			"-0.011": 1.05364302484,
			"-0.01": 1.00802881562,
			"-0.009": 1.29946727762,
			"-0.008": 1.65387972886,
			"-0.007": 2.75278069167,
			"-0.006": 3.3179851745,
			"-0.005": 9.13754090359,
			"-0.004": 13.1361931986,
			"-0.003": 15.0887184719,
			"-0.002": 18.1608201257,
			"-0.001": 24.4909642284,
			"0.0": 28.2082168479,
			"0.001": 19.1645863458,
			"0.002": 14.9021899273,
			"0.003": 17.143416631,
			"0.004": 15.1945618482,
			"0.005": 2.30959211414,
			"0.006": 2.50866372351,
			"0.007": 2.58368965756,
			"0.008": 2.6522412375,
			"0.009": 4.02256825015,
			"0.01": 5.13964964213,
			"0.011": 5.33994097537,
			"0.012": 3.08239326476,
			"0.013": 0.523271854345,
			"0.014": 0.0,
			"0.015": 0.0,
			"0.016": 0.0,
			"0.017": 0.0,
			"0.018": 0.0,
			"0.019": 0.0,
			"0.02": 0.0,
			"0.021": 0.0,
			"0.022": 0.0,
			"0.023": 0.0,
			"0.024": 0.0,
			"0.025": 0.0
		}
	}
}
