{
	 "smiles": "C1CCC(NC1)C1=NN=C2CCCCN12", 
	 "Tm": 381.15, 
	 "num_atms": 33, 
	 "gaussian": { 
		 "optdone": 1, 
		 "sigma_profile": "yes", 
		 "theory": "DFT", 
		 "functional": "B3LYP", 
		 "basiset": "6-31G**", 
		 "properties": { 
			 "R2extent": 3947.1217, 
			 "electric_dipole_moment_norm": 5.61588366065, 
			 "electric_quadrupole_moment_norm": 18.6636902586, 
			 "total_energy": -649.021632105, 
			 "HOMO_LUMO_gap": 0.23738, 
			 "cosmo_polarized_energy": -18.31, 
			 "cosmo_cavitation_energy": 32.15, 
			 "cosmo_dispersion_energy": -24.0, 
			 "cosmo_repulsion_energy": 1.89, 
			 "cosmo_total_nonelectrostatic_energy": 10.04, 
			 "SMD_solvation_energy": -0.22 
		},
		"coords": [
			{
				"x": -3.5342871487,
				"y": 1.1166897684,
				"z": 1.7336096417,
				"element": "C" 
			},
			{
				"x": -3.5952711747,
				"y": 1.4802304347,
				"z": 0.2427937504,
				"element": "C" 
			},
			{
				"x": -2.9473734486,
				"y": 0.3782222692,
				"z": -0.6099070329,
				"element": "C" 
			},
			{
				"x": -1.5306333659,
				"y": -0.0000200729,
				"z": -0.1274970387,
				"element": "C" 
			},
			{
				"x": -1.5865523488,
				"y": -0.311900564,
				"z": 1.3154927331,
				"element": "N" 
			},
			{
				"x": -2.0953922922,
				"y": 0.793223539,
				"z": 2.1442202938,
				"element": "C" 
			},
			{
				"x": -0.4799220218,
				"y": 1.0288584823,
				"z": -0.4912028232,
				"element": "C" 
			},
			{
				"x": -0.5969424988,
				"y": 2.3395649009,
				"z": -0.4388012738,
				"element": "N" 
			},
			{
				"x": 0.6152973102,
				"y": 2.8974378669,
				"z": -0.7984293063,
				"element": "N" 
			},
			{
				"x": 1.4389701454,
				"y": 1.9091772975,
				"z": -1.0541429595,
				"element": "C" 
			},
			{
				"x": 2.8780365808,
				"y": 2.001707733,
				"z": -1.4613282396,
				"element": "C" 
			},
			{
				"x": 3.347873789,
				"y": 0.6900133073,
				"z": -2.1136817702,
				"element": "C" 
			},
			{
				"x": 2.9135008519,
				"y": -0.5125030258,
				"z": -1.2633389849,
				"element": "C" 
			},
			{
				"x": 1.3854487192,
				"y": -0.6101972624,
				"z": -1.1750742705,
				"element": "C" 
			},
			{
				"x": 0.8092815119,
				"y": 0.7007820115,
				"z": -0.866271602,
				"element": "N" 
			},
			{
				"x": -4.1636833003,
				"y": 0.2393620059,
				"z": 1.9325184629,
				"element": "H" 
			},
			{
				"x": -3.9158059382,
				"y": 1.9416552085,
				"z": 2.3465155784,
				"element": "H" 
			},
			{
				"x": -3.0641123743,
				"y": 2.4217022716,
				"z": 0.072499892,
				"element": "H" 
			},
			{
				"x": -4.6351401566,
				"y": 1.6236294899,
				"z": -0.0746429713,
				"element": "H" 
			},
			{
				"x": -2.904999003,
				"y": 0.677901383,
				"z": -1.6623485872,
				"element": "H" 
			},
			{
				"x": -3.5558824785,
				"y": -0.5325159169,
				"z": -0.5490782428,
				"element": "H" 
			},
			{
				"x": -1.2528008165,
				"y": -0.934140574,
				"z": -0.6324359059,
				"element": "H" 
			},
			{
				"x": -0.6614333532,
				"y": -0.581047132,
				"z": 1.6415565699,
				"element": "H" 
			},
			{
				"x": -1.4823606089,
				"y": 1.7060259611,
				"z": 2.060073086,
				"element": "H" 
			},
			{
				"x": -2.0592475063,
				"y": 0.4631204096,
				"z": 3.1886453044,
				"element": "H" 
			},
			{
				"x": 3.491112902,
				"y": 2.2072978764,
				"z": -0.5730170722,
				"element": "H" 
			},
			{
				"x": 3.0048931718,
				"y": 2.857424869,
				"z": -2.1304375659,
				"element": "H" 
			},
			{
				"x": 2.9204890918,
				"y": 0.5993139925,
				"z": -3.1208505933,
				"element": "H" 
			},
			{
				"x": 4.4361123641,
				"y": 0.6989202827,
				"z": -2.2302191867,
				"element": "H" 
			},
			{
				"x": 3.2957254331,
				"y": -1.4493956814,
				"z": -1.6816391131,
				"element": "H" 
			},
			{
				"x": 3.3329108928,
				"y": -0.4166655957,
				"z": -0.2537360951,
				"element": "H" 
			},
			{
				"x": 0.9757616052,
				"y": -0.9648047494,
				"z": -2.1296961271,
				"element": "H" 
			},
			{
				"x": 1.088025466,
				"y": -1.3269707863,
				"z": -0.4037485504,
				"element": "H" 
			}
		],
		 "valence_orbital": [ 
			{
				"type": "occ",
				"energy": -0.29004,
				"method": "rhf"
			},
			{
				"type": "occ",
				"energy": -0.27705,
				"method": "rhf"
			},
			{
				"type": "occ",
				"energy": -0.24108,
				"method": "rhf"
			},
			{
				"type": "occ",
				"energy": -0.23765,
				"method": "rhf"
			},
			{
				"type": "occ",
				"energy": -0.21647,
				"method": "rhf"
			},
			{
				"type": "unocc",
				"energy": 0.02091,
				"method": "rhf"
			},
			{
				"type": "unocc",
				"energy": 0.04271,
				"method": "rhf"
			},
			{
				"type": "unocc",
				"energy": 0.06272,
				"method": "rhf"
			},
			{
				"type": "unocc",
				"energy": 0.08768,
				"method": "rhf"
			},
			{
				"type": "unocc",
				"energy": 0.10606,
				"method": "rhf"
			}
		],
		"cosmo_sigma_profile": { 
			"-0.025": 0.0,
			"-0.024": 0.0,
			"-0.023": 0.0,
			"-0.022": 0.0,
			"-0.021": 0.0,
			"-0.02": 0.0,
			"-0.019": 0.0,
			"-0.018": 0.0,
			"-0.017": 0.0,
			"-0.016": 0.0,
			"-0.015": 0.0,
			"-0.014": 0.0,
			"-0.013": 0.0,
			"-0.012": 0.0,
			"-0.011": 0.0233186578726,
			"-0.01": 1.23220448738,
			"-0.009": 2.80741865825,
			"-0.008": 2.31909201395,
			"-0.007": 3.33151646281,
			"-0.006": 7.8732686359,
			"-0.005": 16.5823155977,
			"-0.004": 26.8733765907,
			"-0.003": 29.7839234304,
			"-0.002": 30.7556178699,
			"-0.001": 27.9969976496,
			"0.0": 27.7869627024,
			"0.001": 17.7824498124,
			"0.002": 7.0479847307,
			"0.003": 3.44823969985,
			"0.004": 4.38391468288,
			"0.005": 3.05625464606,
			"0.006": 3.06384077369,
			"0.007": 4.15764363464,
			"0.008": 2.30465195643,
			"0.009": 2.80713113024,
			"0.01": 3.04444144312,
			"0.011": 2.25028494306,
			"0.012": 2.8088788327,
			"0.013": 3.35758658176,
			"0.014": 2.81130729631,
			"0.015": 4.53712265699,
			"0.016": 2.34904245856,
			"0.017": 1.74646963804,
			"0.018": 1.14320247526,
			"0.019": 0.0556723035746,
			"0.02": 0.0,
			"0.021": 0.0,
			"0.022": 0.0,
			"0.023": 0.0,
			"0.024": 0.0,
			"0.025": 0.0
		}
	}
}
