{
	 "smiles": "O=C1NN=C2C=NC=CN12", 
	 "Tm": 503.15, 
	 "num_atms": 14, 
	 "gaussian": { 
		 "optdone": 1, 
		 "sigma_profile": "yes", 
		 "theory": "DFT", 
		 "functional": "B3LYP", 
		 "basiset": "6-31G**", 
		 "properties": { 
			 "R2extent": 1545.3182, 
			 "electric_dipole_moment_norm": 0.54766293466, 
			 "electric_quadrupole_moment_norm": 10.676580173, 
			 "total_energy": -487.141807177, 
			 "HOMO_LUMO_gap": 0.14563, 
			 "cosmo_polarized_energy": -13.08, 
			 "cosmo_cavitation_energy": 18.99, 
			 "cosmo_dispersion_energy": -14.58, 
			 "cosmo_repulsion_energy": 1.16, 
			 "cosmo_total_nonelectrostatic_energy": 5.57, 
			 "SMD_solvation_energy": 2.42 
		},
		"coords": [
			{
				"x": 1.4870639225,
				"y": -2.1641679657,
				"z": -0.5584480175,
				"element": "O" 
			},
			{
				"x": 1.4603295628,
				"y": -0.954163157,
				"z": -0.4271030515,
				"element": "C" 
			},
			{
				"x": 1.8526663825,
				"y": 0.0643555142,
				"z": -1.2713948951,
				"element": "N" 
			},
			{
				"x": 1.6767094207,
				"y": 1.3434663587,
				"z": -0.7926697549,
				"element": "N" 
			},
			{
				"x": 1.1557376765,
				"y": 1.1485370506,
				"z": 0.3952804003,
				"element": "C" 
			},
			{
				"x": 0.7368036968,
				"y": 2.0701178929,
				"z": 1.4127612587,
				"element": "C" 
			},
			{
				"x": 0.2347189571,
				"y": 1.6689114428,
				"z": 2.5455162049,
				"element": "N" 
			},
			{
				"x": 0.1014222061,
				"y": 0.3072525764,
				"z": 2.7739346869,
				"element": "C" 
			},
			{
				"x": 0.4690236756,
				"y": -0.6406917379,
				"z": 1.8730080759,
				"element": "C" 
			},
			{
				"x": 0.9980358462,
				"y": -0.2061257287,
				"z": 0.6802401069,
				"element": "N" 
			},
			{
				"x": 2.2473834375,
				"y": -0.0773733788,
				"z": -2.1881426379,
				"element": "H" 
			},
			{
				"x": 0.8431946144,
				"y": 3.1372680531,
				"z": 1.229327626,
				"element": "H" 
			},
			{
				"x": -0.3213417054,
				"y": 0.02372323,
				"z": 3.730797863,
				"element": "H" 
			},
			{
				"x": 0.3861523067,
				"y": -1.7128101507,
				"z": 2.0018921342,
				"element": "H" 
			}
		],
		 "valence_orbital": [ 
			{
				"type": "occ",
				"energy": -0.34278,
				"method": "rhf"
			},
			{
				"type": "occ",
				"energy": -0.29536,
				"method": "rhf"
			},
			{
				"type": "occ",
				"energy": -0.28941,
				"method": "rhf"
			},
			{
				"type": "occ",
				"energy": -0.2768,
				"method": "rhf"
			},
			{
				"type": "occ",
				"energy": -0.21974,
				"method": "rhf"
			},
			{
				"type": "unocc",
				"energy": -0.07411,
				"method": "rhf"
			},
			{
				"type": "unocc",
				"energy": -0.01371,
				"method": "rhf"
			},
			{
				"type": "unocc",
				"energy": 0.04666,
				"method": "rhf"
			},
			{
				"type": "unocc",
				"energy": 0.07598,
				"method": "rhf"
			},
			{
				"type": "unocc",
				"energy": 0.10255,
				"method": "rhf"
			}
		],
		"cosmo_sigma_profile": { 
			"-0.025": 0.0,
			"-0.024": 0.0,
			"-0.023": 0.0,
			"-0.022": 0.0,
			"-0.021": 0.0,
			"-0.02": 0.0,
			"-0.019": 0.0,
			"-0.018": 0.451619734335,
			"-0.017": 1.58494579445,
			"-0.016": 1.19253250434,
			"-0.015": 1.14669631876,
			"-0.014": 0.543823052518,
			"-0.013": 0.606326532615,
			"-0.012": 1.3081031116,
			"-0.011": 1.21366865574,
			"-0.01": 1.72704849781,
			"-0.009": 3.55656975196,
			"-0.008": 5.61610128478,
			"-0.007": 6.61307839343,
			"-0.006": 5.45819363041,
			"-0.005": 9.13625588012,
			"-0.004": 10.72397463,
			"-0.003": 11.6331062724,
			"-0.002": 10.8540034912,
			"-0.001": 9.26896507222,
			"0.0": 9.31465622031,
			"0.001": 8.20154955601,
			"0.002": 5.51257630478,
			"0.003": 4.26088449493,
			"0.004": 3.84689817232,
			"0.005": 3.57552955207,
			"0.006": 4.01487565419,
			"0.007": 2.6580162713,
			"0.008": 3.30789656538,
			"0.009": 3.2292160973,
			"0.01": 3.84062809689,
			"0.011": 3.67485351407,
			"0.012": 6.31561249386,
			"0.013": 7.12497058883,
			"0.014": 1.90967601308,
			"0.015": 0.266725941983,
			"0.016": 0.0,
			"0.017": 0.0,
			"0.018": 0.0,
			"0.019": 0.0,
			"0.02": 0.0,
			"0.021": 0.0,
			"0.022": 0.0,
			"0.023": 0.0,
			"0.024": 0.0,
			"0.025": 0.0
		}
	}
}
