{
	 "smiles": "OC1=CC(I)=C(Cl)C=C1", 
	 "Tm": 349.15, 
	 "num_atms": 13, 
	 "gaussian": { 
		 "optdone": 1, 
		 "sigma_profile": "no", 
		 "theory": "DFT", 
		 "functional": "B3LYP", 
		 "basiset": "6-31G**", 
		 "properties": { 
			 "R2extent": 2194.0425, 
			 "electric_dipole_moment_norm": 3.55185341336, 
			 "electric_quadrupole_moment_norm": 9.46842839493, 
			 "total_energy": -777.840019161, 
			 "HOMO_LUMO_gap": 0.1859, 
			 "cosmo_polarized_energy": -89725.52, 
			 "cosmo_cavitation_energy": 22.18, 
			 "cosmo_dispersion_energy": -18.13, 
			 "cosmo_repulsion_energy": 1.44, 
			 "cosmo_total_nonelectrostatic_energy": 5.5, 
			 "SMD_solvation_energy": 3.1 
		},
		"coords": [
			{
				"x": 0.4645648326,
				"y": 1.3415935329,
				"z": 1.5049378312,
				"element": "O" 
			},
			{
				"x": 0.1922882662,
				"y": 0.1040264224,
				"z": 1.0036796936,
				"element": "C" 
			},
			{
				"x": -0.8853975268,
				"y": 0.0008279032,
				"z": 0.1183560938,
				"element": "C" 
			},
			{
				"x": -1.2233619514,
				"y": -1.234356379,
				"z": -0.4349081299,
				"element": "C" 
			},
			{
				"x": -2.8659643408,
				"y": -1.2986541339,
				"z": -1.7630113834,
				"element": "I" 
			},
			{
				"x": -0.4825254421,
				"y": -2.37873663,
				"z": -0.1047914895,
				"element": "C" 
			},
			{
				"x": -0.8490196409,
				"y": -3.9596634277,
				"z": -0.7601857244,
				"element": "Cl" 
			},
			{
				"x": 0.5918717858,
				"y": -2.2646065904,
				"z": 0.7804380981,
				"element": "C" 
			},
			{
				"x": 0.9328291671,
				"y": -1.0349059444,
				"z": 1.3348249458,
				"element": "C" 
			},
			{
				"x": 1.2238459965,
				"y": 1.2883407572,
				"z": 2.0997351171,
				"element": "H" 
			},
			{
				"x": -1.4468273268,
				"y": 0.8942556599,
				"z": -0.1258215278,
				"element": "H" 
			},
			{
				"x": 1.1617678845,
				"y": -3.1520022188,
				"z": 1.0327815075,
				"element": "H" 
			},
			{
				"x": 1.7725282961,
				"y": -0.9661189515,
				"z": 2.0219649679,
				"element": "H" 
			}
		],
		 "valence_orbital": [ 
			{
				"type": "occ",
				"energy": -0.32116,
				"method": "rhf"
			},
			{
				"type": "occ",
				"energy": -0.30087,
				"method": "rhf"
			},
			{
				"type": "occ",
				"energy": -0.26573,
				"method": "rhf"
			},
			{
				"type": "occ",
				"energy": -0.2507,
				"method": "rhf"
			},
			{
				"type": "occ",
				"energy": -0.2325,
				"method": "rhf"
			},
			{
				"type": "unocc",
				"energy": -0.0466,
				"method": "rhf"
			},
			{
				"type": "unocc",
				"energy": -0.02892,
				"method": "rhf"
			},
			{
				"type": "unocc",
				"energy": -0.01136,
				"method": "rhf"
			},
			{
				"type": "unocc",
				"energy": 0.03021,
				"method": "rhf"
			},
			{
				"type": "unocc",
				"energy": 0.05093,
				"method": "rhf"
			}
		],
		"cosmo_sigma_profile": { 
			"0.0": 0.0,
			"0.0": 0.0,
			"0.0": 0.0,
			"0.0": 0.0,
			"0.0": 0.0,
			"0.0": 0.0,
			"0.0": 0.0,
			"0.0": 0.0,
			"0.0": 0.0,
			"0.0": 0.0,
			"0.0": 0.0,
			"0.0": 0.0,
			"0.0": 0.0,
			"0.0": 0.0,
			"0.0": 0.0,
			"0.0": 0.0,
			"0.0": 0.0,
			"0.0": 0.0,
			"0.0": 0.0,
			"0.0": 0.0,
			"0.0": 0.0,
			"0.0": 0.0,
			"0.0": 0.0,
			"0.0": 0.0,
			"0.0": 0.0,
			"0.0": 0.0,
			"0.0": 0.0,
			"0.0": 0.0,
			"0.0": 0.0,
			"0.0": 0.0,
			"0.0": 0.0,
			"0.0": 0.0,
			"0.0": 0.0,
			"0.0": 0.0,
			"0.0": 0.0,
			"0.0": 0.0,
			"0.0": 0.0,
			"0.0": 0.0,
			"0.0": 0.0,
			"0.0": 0.0,
			"0.0": 0.0,
			"0.0": 0.0,
			"0.0": 0.0,
			"0.0": 0.0,
			"0.0": 0.0,
			"0.0": 0.0,
			"0.0": 0.0,
			"0.0": 0.0,
			"0.0": 0.0,
			"0.0": 0.0,
			"0.0": 0.0
		}
	}
}
