{
	 "smiles": "CCCCCCCC(=O)OC1=C(I)C=C(C=C1I)C#N", 
	 "Tm": 332.65, 
	 "num_atms": 37, 
	 "gaussian": { 
		 "optdone": 1, 
		 "sigma_profile": "no", 
		 "theory": "DFT", 
		 "functional": "B3LYP", 
		 "basiset": "6-31G**", 
		 "properties": { 
			 "R2extent": 10328.3292, 
			 "electric_dipole_moment_norm": 4.70801570303, 
			 "electric_quadrupole_moment_norm": 27.9039807864, 
			 "total_energy": -809.813303597, 
			 "HOMO_LUMO_gap": 0.18763, 
			 "cosmo_polarized_energy": -167207.47, 
			 "cosmo_cavitation_energy": 48.3, 
			 "cosmo_dispersion_energy": -33.57, 
			 "cosmo_repulsion_energy": 2.59, 
			 "cosmo_total_nonelectrostatic_energy": 17.32, 
			 "SMD_solvation_energy": 7.74 
		},
		"coords": [
			{
				"x": -0.2509923614,
				"y": -5.2850457435,
				"z": -2.4231441596,
				"element": "C" 
			},
			{
				"x": -1.0878238197,
				"y": -4.4699810442,
				"z": -1.4296399824,
				"element": "C" 
			},
			{
				"x": -1.1380909181,
				"y": -2.9619062583,
				"z": -1.7248765986,
				"element": "C" 
			},
			{
				"x": 0.2073508989,
				"y": -2.2357729458,
				"z": -1.5816853309,
				"element": "C" 
			},
			{
				"x": 0.0870318038,
				"y": -0.7218260364,
				"z": -1.8058997102,
				"element": "C" 
			},
			{
				"x": 1.4222977888,
				"y": 0.0389560844,
				"z": -1.8218449112,
				"element": "C" 
			},
			{
				"x": 2.2602840568,
				"y": -0.0566027326,
				"z": -0.5224044453,
				"element": "C" 
			},
			{
				"x": 1.5281669579,
				"y": 0.4801822067,
				"z": 0.6799249435,
				"element": "C" 
			},
			{
				"x": 0.7812842484,
				"y": -0.1178641687,
				"z": 1.4077332435,
				"element": "O" 
			},
			{
				"x": 1.80662937,
				"y": 1.8392191005,
				"z": 0.8520860364,
				"element": "O" 
			},
			{
				"x": 1.2524271365,
				"y": 2.4783006372,
				"z": 1.9359167831,
				"element": "C" 
			},
			{
				"x": 1.9185078214,
				"y": 2.4841973762,
				"z": 3.1721077786,
				"element": "C" 
			},
			{
				"x": 3.7482755041,
				"y": 1.4598615404,
				"z": 3.4050853034,
				"element": "I" 
			},
			{
				"x": 1.3975629878,
				"y": 3.1813279405,
				"z": 4.2581470385,
				"element": "C" 
			},
			{
				"x": 0.1967880402,
				"y": 3.8918123351,
				"z": 4.1127656167,
				"element": "C" 
			},
			{
				"x": -0.4714003345,
				"y": 3.9075432699,
				"z": 2.8797577247,
				"element": "C" 
			},
			{
				"x": 0.0593773377,
				"y": 3.2046012627,
				"z": 1.8017007849,
				"element": "C" 
			},
			{
				"x": -0.9501249755,
				"y": 3.271484316,
				"z": -0.0488827765,
				"element": "I" 
			},
			{
				"x": -0.3443155435,
				"y": 4.6144066029,
				"z": 5.2270116571,
				"element": "C" 
			},
			{
				"x": -0.782459206,
				"y": 5.2014090588,
				"z": 6.1301854749,
				"element": "N" 
			},
			{
				"x": 0.8040985824,
				"y": -4.9926900143,
				"z": -2.4070333175,
				"element": "H" 
			},
			{
				"x": -0.6156135387,
				"y": -5.1514786713,
				"z": -3.4485694294,
				"element": "H" 
			},
			{
				"x": -0.2967638179,
				"y": -6.3544306034,
				"z": -2.1921988398,
				"element": "H" 
			},
			{
				"x": -2.1138108118,
				"y": -4.8595205633,
				"z": -1.4263884501,
				"element": "H" 
			},
			{
				"x": -0.7025698608,
				"y": -4.6249450874,
				"z": -0.4125785468,
				"element": "H" 
			},
			{
				"x": -1.8621032381,
				"y": -2.493282513,
				"z": -1.0448526103,
				"element": "H" 
			},
			{
				"x": -1.5289892956,
				"y": -2.8050431128,
				"z": -2.7408772207,
				"element": "H" 
			},
			{
				"x": 0.9350426855,
				"y": -2.649662789,
				"z": -2.2932144008,
				"element": "H" 
			},
			{
				"x": 0.6049554991,
				"y": -2.4282080776,
				"z": -0.5767875766,
				"element": "H" 
			},
			{
				"x": -0.4097584117,
				"y": -0.5403860933,
				"z": -2.7685872776,
				"element": "H" 
			},
			{
				"x": -0.572463452,
				"y": -0.2966517862,
				"z": -1.0390853886,
				"element": "H" 
			},
			{
				"x": 1.2378029881,
				"y": 1.0966985424,
				"z": -2.041643645,
				"element": "H" 
			},
			{
				"x": 2.051705647,
				"y": -0.342640973,
				"z": -2.6353271877,
				"element": "H" 
			},
			{
				"x": 2.5019633594,
				"y": -1.0996039326,
				"z": -0.3037355135,
				"element": "H" 
			},
			{
				"x": 3.1932693632,
				"y": 0.4985197387,
				"z": -0.6489909972,
				"element": "H" 
			},
			{
				"x": 1.9125114524,
				"y": 3.1823160611,
				"z": 5.2107781413,
				"element": "H" 
			},
			{
				"x": -1.3933539441,
				"y": 4.4656070733,
				"z": 2.77324779,
				"element": "H" 
			}
		],
		 "valence_orbital": [ 
			{
				"type": "occ",
				"energy": -0.29638,
				"method": "rhf"
			},
			{
				"type": "occ",
				"energy": -0.28995,
				"method": "rhf"
			},
			{
				"type": "occ",
				"energy": -0.28449,
				"method": "rhf"
			},
			{
				"type": "occ",
				"energy": -0.26706,
				"method": "rhf"
			},
			{
				"type": "occ",
				"energy": -0.2628,
				"method": "rhf"
			},
			{
				"type": "unocc",
				"energy": -0.07517,
				"method": "rhf"
			},
			{
				"type": "unocc",
				"energy": -0.07112,
				"method": "rhf"
			},
			{
				"type": "unocc",
				"energy": -0.0543,
				"method": "rhf"
			},
			{
				"type": "unocc",
				"energy": -0.04562,
				"method": "rhf"
			},
			{
				"type": "unocc",
				"energy": -0.01749,
				"method": "rhf"
			}
		],
		"cosmo_sigma_profile": { 
			"0.0": 0.0,
			"0.0": 0.0,
			"0.0": 0.0,
			"0.0": 0.0,
			"0.0": 0.0,
			"0.0": 0.0,
			"0.0": 0.0,
			"0.0": 0.0,
			"0.0": 0.0,
			"0.0": 0.0,
			"0.0": 0.0,
			"0.0": 0.0,
			"0.0": 0.0,
			"0.0": 0.0,
			"0.0": 0.0,
			"0.0": 0.0,
			"0.0": 0.0,
			"0.0": 0.0,
			"0.0": 0.0,
			"0.0": 0.0,
			"0.0": 0.0,
			"0.0": 0.0,
			"0.0": 0.0,
			"0.0": 0.0,
			"0.0": 0.0,
			"0.0": 0.0,
			"0.0": 0.0,
			"0.0": 0.0,
			"0.0": 0.0,
			"0.0": 0.0,
			"0.0": 0.0,
			"0.0": 0.0,
			"0.0": 0.0,
			"0.0": 0.0,
			"0.0": 0.0,
			"0.0": 0.0,
			"0.0": 0.0,
			"0.0": 0.0,
			"0.0": 0.0,
			"0.0": 0.0,
			"0.0": 0.0,
			"0.0": 0.0,
			"0.0": 0.0,
			"0.0": 0.0,
			"0.0": 0.0,
			"0.0": 0.0,
			"0.0": 0.0,
			"0.0": 0.0,
			"0.0": 0.0,
			"0.0": 0.0,
			"0.0": 0.0
		}
	}
}
