{
	 "smiles": "CNS(=O)(=O)C1=CC(C(O)=O)=C(Cl)C=C1", 
	 "Tm": 445.15, 
	 "num_atms": 23, 
	 "gaussian": { 
		 "optdone": 1, 
		 "sigma_profile": "yes", 
		 "theory": "DFT", 
		 "functional": "B3LYP", 
		 "basiset": "6-31G**", 
		 "properties": { 
			 "R2extent": 4703.2296, 
			 "electric_dipole_moment_norm": 3.62374894964, 
			 "electric_quadrupole_moment_norm": 19.1450276205, 
			 "total_energy": -1523.63471463, 
			 "HOMO_LUMO_gap": 0.19279, 
			 "cosmo_polarized_energy": -18.75, 
			 "cosmo_cavitation_energy": 31.16, 
			 "cosmo_dispersion_energy": -22.97, 
			 "cosmo_repulsion_energy": 1.77, 
			 "cosmo_total_nonelectrostatic_energy": 9.97, 
			 "SMD_solvation_energy": 5.34 
		},
		"coords": [
			{
				"x": -2.9677106437,
				"y": 1.2911367091,
				"z": -0.6254765891,
				"element": "C" 
			},
			{
				"x": -2.4124958509,
				"y": 1.1299875959,
				"z": 0.7245629825,
				"element": "N" 
			},
			{
				"x": -0.9476455015,
				"y": 1.9014721997,
				"z": 1.0606061726,
				"element": "S" 
			},
			{
				"x": -0.9075083091,
				"y": 2.007993952,
				"z": 2.5212576177,
				"element": "O" 
			},
			{
				"x": -0.7600532233,
				"y": 3.0753222408,
				"z": 0.1992629291,
				"element": "O" 
			},
			{
				"x": 0.2516832138,
				"y": 0.6754736713,
				"z": 0.5300131317,
				"element": "C" 
			},
			{
				"x": 0.3849744353,
				"y": -0.5059694601,
				"z": 1.2514317366,
				"element": "C" 
			},
			{
				"x": 1.3316721272,
				"y": -1.4720560526,
				"z": 0.8782686672,
				"element": "C" 
			},
			{
				"x": 1.4478452907,
				"y": -2.7179358162,
				"z": 1.6987222842,
				"element": "C" 
			},
			{
				"x": 0.4617638391,
				"y": -2.7979312165,
				"z": 2.6293892723,
				"element": "O" 
			},
			{
				"x": 2.2967277495,
				"y": -3.5744497966,
				"z": 1.5918876771,
				"element": "O" 
			},
			{
				"x": 2.1412911393,
				"y": -1.2068824009,
				"z": -0.2491671315,
				"element": "C" 
			},
			{
				"x": 3.3429428432,
				"y": -2.3229495638,
				"z": -0.8408093019,
				"element": "Cl" 
			},
			{
				"x": 2.0013933761,
				"y": -0.012784307,
				"z": -0.9619536389,
				"element": "C" 
			},
			{
				"x": 1.0599067859,
				"y": 0.9363427607,
				"z": -0.5753158306,
				"element": "C" 
			},
			{
				"x": -3.1344684489,
				"y": 2.3363699433,
				"z": -0.9069445073,
				"element": "H" 
			},
			{
				"x": -3.9126912457,
				"y": 0.7444307529,
				"z": -0.663143399,
				"element": "H" 
			},
			{
				"x": -2.2886808725,
				"y": 0.8350676844,
				"z": -1.3506324844,
				"element": "H" 
			},
			{
				"x": -3.0536246579,
				"y": 1.3802753126,
				"z": 1.4740726417,
				"element": "H" 
			},
			{
				"x": -0.2394333239,
				"y": -0.6871015434,
				"z": 2.1167640829,
				"element": "H" 
			},
			{
				"x": 0.6330391446,
				"y": -3.6176008989,
				"z": 3.1212264347,
				"element": "H" 
			},
			{
				"x": 2.6393643327,
				"y": 0.1647411292,
				"z": -1.8200137479,
				"element": "H" 
			},
			{
				"x": 0.9534077999,
				"y": 1.871847104,
				"z": -1.1132089996,
				"element": "H" 
			}
		],
		 "valence_orbital": [ 
			{
				"type": "occ",
				"energy": -0.30951,
				"method": "rhf"
			},
			{
				"type": "occ",
				"energy": -0.29258,
				"method": "rhf"
			},
			{
				"type": "occ",
				"energy": -0.28853,
				"method": "rhf"
			},
			{
				"type": "occ",
				"energy": -0.28102,
				"method": "rhf"
			},
			{
				"type": "occ",
				"energy": -0.26671,
				"method": "rhf"
			},
			{
				"type": "unocc",
				"energy": -0.07392,
				"method": "rhf"
			},
			{
				"type": "unocc",
				"energy": -0.05306,
				"method": "rhf"
			},
			{
				"type": "unocc",
				"energy": 0.01741,
				"method": "rhf"
			},
			{
				"type": "unocc",
				"energy": 0.02529,
				"method": "rhf"
			},
			{
				"type": "unocc",
				"energy": 0.05587,
				"method": "rhf"
			}
		],
		"cosmo_sigma_profile": { 
			"-0.025": 0.0,
			"-0.024": 0.0,
			"-0.023": 0.0,
			"-0.022": 0.0,
			"-0.021": 0.0,
			"-0.02": 0.0,
			"-0.019": 0.223457797177,
			"-0.018": 1.10623129539,
			"-0.017": 0.817789961017,
			"-0.016": 0.673461390659,
			"-0.015": 1.33316140703,
			"-0.014": 2.29278895341,
			"-0.013": 1.51840830469,
			"-0.012": 1.41126763024,
			"-0.011": 2.47221243985,
			"-0.01": 1.90472539181,
			"-0.009": 2.4947575862,
			"-0.008": 5.59667163741,
			"-0.007": 6.8679547333,
			"-0.006": 9.06769394542,
			"-0.005": 12.0883249907,
			"-0.004": 15.1223164029,
			"-0.003": 20.2235085726,
			"-0.002": 22.2446829902,
			"-0.001": 23.8041891981,
			"0.0": 18.5153377147,
			"0.001": 11.8448312772,
			"0.002": 11.0841279145,
			"0.003": 11.7362443012,
			"0.004": 9.93265848247,
			"0.005": 6.7960681078,
			"0.006": 5.87420757836,
			"0.007": 5.27467941981,
			"0.008": 5.54512627235,
			"0.009": 6.82224108715,
			"0.01": 10.8870688927,
			"0.011": 12.8062214486,
			"0.012": 2.73955419703,
			"0.013": 0.0,
			"0.014": 0.0,
			"0.015": 0.0,
			"0.016": 0.0,
			"0.017": 0.0,
			"0.018": 0.0,
			"0.019": 0.0,
			"0.02": 0.0,
			"0.021": 0.0,
			"0.022": 0.0,
			"0.023": 0.0,
			"0.024": 0.0,
			"0.025": 0.0
		}
	}
}
