{
	 "smiles": "[O-][N+](=O)C1=CC2=C(C=C1)N=CN2", 
	 "Tm": 481.15, 
	 "num_atms": 17, 
	 "gaussian": { 
		 "optdone": 1, 
		 "sigma_profile": "yes", 
		 "theory": "DFT", 
		 "functional": "B3LYP", 
		 "basiset": "6-31G**", 
		 "properties": { 
			 "R2extent": 2642.1268, 
			 "electric_dipole_moment_norm": 5.42551384571, 
			 "electric_quadrupole_moment_norm": 9.61057367955, 
			 "total_energy": -584.367500246, 
			 "HOMO_LUMO_gap": 0.16797, 
			 "cosmo_polarized_energy": -16.75, 
			 "cosmo_cavitation_energy": 22.34, 
			 "cosmo_dispersion_energy": -16.94, 
			 "cosmo_repulsion_energy": 1.33, 
			 "cosmo_total_nonelectrostatic_energy": 6.73, 
			 "SMD_solvation_energy": 4.38 
		},
		"coords": [
			{
				"x": 1.2712721124,
				"y": 1.4987006453,
				"z": -2.7214868349,
				"element": "O" 
			},
			{
				"x": 0.5306440764,
				"y": 1.0006566807,
				"z": -1.8736296028,
				"element": "N" 
			},
			{
				"x": -0.695940556,
				"y": 1.1240965032,
				"z": -1.8605768629,
				"element": "O" 
			},
			{
				"x": 1.1481761343,
				"y": 0.2053414091,
				"z": -0.8050465161,
				"element": "C" 
			},
			{
				"x": 0.3100450251,
				"y": -0.3579591446,
				"z": 0.1539439193,
				"element": "C" 
			},
			{
				"x": 0.9494106163,
				"y": -1.0996366403,
				"z": 1.1403584042,
				"element": "C" 
			},
			{
				"x": 2.3581377666,
				"y": -1.2787617484,
				"z": 1.1797296989,
				"element": "C" 
			},
			{
				"x": 3.1633994197,
				"y": -0.6922571739,
				"z": 0.1919010289,
				"element": "C" 
			},
			{
				"x": 2.5478494177,
				"y": 0.0525805596,
				"z": -0.8028758092,
				"element": "C" 
			},
			{
				"x": 2.7161681806,
				"y": -2.0581283252,
				"z": 2.2661035879,
				"element": "N" 
			},
			{
				"x": 1.5827248918,
				"y": -2.3399761609,
				"z": 2.8592436561,
				"element": "C" 
			},
			{
				"x": 0.4820017687,
				"y": -1.7984357615,
				"z": 2.2394712978,
				"element": "N" 
			},
			{
				"x": -0.760507492,
				"y": -0.2063131959,
				"z": 0.1012290957,
				"element": "H" 
			},
			{
				"x": 4.2395337035,
				"y": -0.8240090538,
				"z": 0.2145528411,
				"element": "H" 
			},
			{
				"x": 3.1183050936,
				"y": 0.5277829556,
				"z": -1.5902857512,
				"element": "H" 
			},
			{
				"x": 1.4834812908,
				"y": -2.9399175582,
				"z": 3.754983523,
				"element": "H" 
			},
			{
				"x": -0.4783014495,
				"y": -1.8940639908,
				"z": 2.532084324,
				"element": "H" 
			}
		],
		 "valence_orbital": [ 
			{
				"type": "occ",
				"energy": -0.30383,
				"method": "rhf"
			},
			{
				"type": "occ",
				"energy": -0.29453,
				"method": "rhf"
			},
			{
				"type": "occ",
				"energy": -0.28538,
				"method": "rhf"
			},
			{
				"type": "occ",
				"energy": -0.25849,
				"method": "rhf"
			},
			{
				"type": "occ",
				"energy": -0.25361,
				"method": "rhf"
			},
			{
				"type": "unocc",
				"energy": -0.08564,
				"method": "rhf"
			},
			{
				"type": "unocc",
				"energy": -0.0296,
				"method": "rhf"
			},
			{
				"type": "unocc",
				"energy": 0.00825,
				"method": "rhf"
			},
			{
				"type": "unocc",
				"energy": 0.03761,
				"method": "rhf"
			},
			{
				"type": "unocc",
				"energy": 0.05639,
				"method": "rhf"
			}
		],
		"cosmo_sigma_profile": { 
			"-0.025": 0.0,
			"-0.024": 0.0,
			"-0.023": 0.0,
			"-0.022": 0.0,
			"-0.021": 0.0,
			"-0.02": 0.0,
			"-0.019": 0.0,
			"-0.018": 0.498819593824,
			"-0.017": 2.08981794467,
			"-0.016": 1.33039393481,
			"-0.015": 1.66341345576,
			"-0.014": 1.18663477541,
			"-0.013": 1.62861838847,
			"-0.012": 1.3804538201,
			"-0.011": 1.89239376173,
			"-0.01": 4.4901135708,
			"-0.009": 3.83295364837,
			"-0.008": 3.11821374403,
			"-0.007": 4.91808793339,
			"-0.006": 6.21023556432,
			"-0.005": 8.26429546513,
			"-0.004": 7.17572344693,
			"-0.003": 7.30761988113,
			"-0.002": 7.63148724858,
			"-0.001": 14.9044995095,
			"0.0": 15.5989938305,
			"0.001": 16.1947743352,
			"0.002": 12.0027181385,
			"0.003": 7.35031479687,
			"0.004": 5.11350034793,
			"0.005": 4.34844267376,
			"0.006": 5.03423487056,
			"0.007": 7.41430800118,
			"0.008": 9.9368894001,
			"0.009": 5.95140450214,
			"0.01": 4.40090414709,
			"0.011": 2.29574814513,
			"0.012": 0.965632500789,
			"0.013": 0.903517322051,
			"0.014": 1.14503598734,
			"0.015": 0.995013854169,
			"0.016": 0.904775340441,
			"0.017": 0.331181528225,
			"0.018": 0.0,
			"0.019": 0.0,
			"0.02": 0.0,
			"0.021": 0.0,
			"0.022": 0.0,
			"0.023": 0.0,
			"0.024": 0.0,
			"0.025": 0.0
		}
	}
}
