{
	 "smiles": "CCCCN1C(=O)C2=C(C=CC=C2)N2C(=O)CCC12C(O)=O", 
	 "Tm": 290.15, 
	 "num_atms": 40, 
	 "gaussian": { 
		 "optdone": 1, 
		 "sigma_profile": "yes", 
		 "theory": "DFT", 
		 "functional": "B3LYP", 
		 "basiset": "6-31G**", 
		 "properties": { 
			 "R2extent": 6337.9135, 
			 "electric_dipole_moment_norm": 2.03708772025, 
			 "electric_quadrupole_moment_norm": 20.0270333172, 
			 "total_energy": -1031.00036803, 
			 "HOMO_LUMO_gap": 0.17854, 
			 "cosmo_polarized_energy": -17.62, 
			 "cosmo_cavitation_energy": 40.63, 
			 "cosmo_dispersion_energy": -28.19, 
			 "cosmo_repulsion_energy": 2.13, 
			 "cosmo_total_nonelectrostatic_energy": 14.57, 
			 "SMD_solvation_energy": 8.28 
		},
		"coords": [
			{
				"x": -1.8200660992,
				"y": 4.2640833857,
				"z": -1.5668783028,
				"element": "C" 
			},
			{
				"x": -0.9856645341,
				"y": 2.9998065468,
				"z": -1.7994444397,
				"element": "C" 
			},
			{
				"x": -1.8070600125,
				"y": 1.856649541,
				"z": -2.4057298055,
				"element": "C" 
			},
			{
				"x": -1.036091098,
				"y": 0.5582134974,
				"z": -2.6850794718,
				"element": "C" 
			},
			{
				"x": -0.4874906084,
				"y": -0.0897683371,
				"z": -1.4699998366,
				"element": "N" 
			},
			{
				"x": -1.3963967697,
				"y": -0.7659379707,
				"z": -0.6710245641,
				"element": "C" 
			},
			{
				"x": -2.6034283675,
				"y": -0.7130436804,
				"z": -0.8851422655,
				"element": "O" 
			},
			{
				"x": -0.839380257,
				"y": -1.5138303344,
				"z": 0.4930366583,
				"element": "C" 
			},
			{
				"x": 0.5321379345,
				"y": -1.4685973223,
				"z": 0.8130216276,
				"element": "C" 
			},
			{
				"x": 1.008529503,
				"y": -2.1283318672,
				"z": 1.9572195631,
				"element": "C" 
			},
			{
				"x": 0.1090505694,
				"y": -2.8313390506,
				"z": 2.7581982822,
				"element": "C" 
			},
			{
				"x": -1.250951197,
				"y": -2.8918396637,
				"z": 2.4404824136,
				"element": "C" 
			},
			{
				"x": -1.7193543411,
				"y": -2.2304221147,
				"z": 1.3099087653,
				"element": "C" 
			},
			{
				"x": 1.3709842991,
				"y": -0.7537165068,
				"z": -0.070025358,
				"element": "N" 
			},
			{
				"x": 2.6699029488,
				"y": -0.3037325458,
				"z": 0.1930471217,
				"element": "C" 
			},
			{
				"x": 3.2837752514,
				"y": -0.4801611628,
				"z": 1.2266148863,
				"element": "O" 
			},
			{
				"x": 3.1598191148,
				"y": 0.4079566434,
				"z": -1.0581445241,
				"element": "C" 
			},
			{
				"x": 1.8892890222,
				"y": 0.6708197207,
				"z": -1.8717589823,
				"element": "C" 
			},
			{
				"x": 0.9344509271,
				"y": -0.4654221065,
				"z": -1.4422613817,
				"element": "C" 
			},
			{
				"x": 1.1285331281,
				"y": -1.6942162728,
				"z": -2.4009087194,
				"element": "C" 
			},
			{
				"x": 1.0517472911,
				"y": -2.9301091022,
				"z": -1.8717169621,
				"element": "O" 
			},
			{
				"x": 1.2879391932,
				"y": -1.5375063695,
				"z": -3.5875629517,
				"element": "O" 
			},
			{
				"x": -1.2175252236,
				"y": 5.0660850584,
				"z": -1.1283892292,
				"element": "H" 
			},
			{
				"x": -2.2412836005,
				"y": 4.639334884,
				"z": -2.5063920695,
				"element": "H" 
			},
			{
				"x": -2.6557630376,
				"y": 4.0644596664,
				"z": -0.8871575114,
				"element": "H" 
			},
			{
				"x": -0.1403411807,
				"y": 3.2394543227,
				"z": -2.4600805432,
				"element": "H" 
			},
			{
				"x": -0.5540976927,
				"y": 2.671640854,
				"z": -0.844968366,
				"element": "H" 
			},
			{
				"x": -2.2285028736,
				"y": 2.1836208674,
				"z": -3.3662317958,
				"element": "H" 
			},
			{
				"x": -2.6569616828,
				"y": 1.6220092672,
				"z": -1.7582887665,
				"element": "H" 
			},
			{
				"x": -0.2046665507,
				"y": 0.7390787086,
				"z": -3.3675474316,
				"element": "H" 
			},
			{
				"x": -1.7077950989,
				"y": -0.1552261456,
				"z": -3.1725730705,
				"element": "H" 
			},
			{
				"x": 2.0574191832,
				"y": -2.0693468448,
				"z": 2.2100320172,
				"element": "H" 
			},
			{
				"x": 0.4829811546,
				"y": -3.3413474231,
				"z": 3.6411089846,
				"element": "H" 
			},
			{
				"x": -1.9372273546,
				"y": -3.445979256,
				"z": 3.0727583548,
				"element": "H" 
			},
			{
				"x": -2.7681803255,
				"y": -2.2362040298,
				"z": 1.0341217422,
				"element": "H" 
			},
			{
				"x": 3.712204403,
				"y": 1.3086901868,
				"z": -0.784408304,
				"element": "H" 
			},
			{
				"x": 3.8571902799,
				"y": -0.2578261948,
				"z": -1.581428289,
				"element": "H" 
			},
			{
				"x": 1.4408815017,
				"y": 1.621975032,
				"z": -1.5791924383,
				"element": "H" 
			},
			{
				"x": 2.0498881988,
				"y": 0.6611004887,
				"z": -2.9484822669,
				"element": "H" 
			},
			{
				"x": 0.9267040014,
				"y": -2.9035743699,
				"z": -0.9098327699,
				"element": "H" 
			}
		],
		 "valence_orbital": [ 
			{
				"type": "occ",
				"energy": -0.27741,
				"method": "rhf"
			},
			{
				"type": "occ",
				"energy": -0.27231,
				"method": "rhf"
			},
			{
				"type": "occ",
				"energy": -0.26815,
				"method": "rhf"
			},
			{
				"type": "occ",
				"energy": -0.26193,
				"method": "rhf"
			},
			{
				"type": "occ",
				"energy": -0.24086,
				"method": "rhf"
			},
			{
				"type": "unocc",
				"energy": -0.06232,
				"method": "rhf"
			},
			{
				"type": "unocc",
				"energy": -0.035,
				"method": "rhf"
			},
			{
				"type": "unocc",
				"energy": -0.01234,
				"method": "rhf"
			},
			{
				"type": "unocc",
				"energy": 0.01429,
				"method": "rhf"
			},
			{
				"type": "unocc",
				"energy": 0.0432,
				"method": "rhf"
			}
		],
		"cosmo_sigma_profile": { 
			"-0.025": 0.0,
			"-0.024": 0.0,
			"-0.023": 0.0,
			"-0.022": 0.0,
			"-0.021": 0.0,
			"-0.02": 0.0,
			"-0.019": 0.0,
			"-0.018": 0.0,
			"-0.017": 0.0,
			"-0.016": 0.0,
			"-0.015": 0.0,
			"-0.014": 0.0,
			"-0.013": 0.990435861675,
			"-0.012": 1.77931251109,
			"-0.011": 1.36395097183,
			"-0.01": 1.77677144241,
			"-0.009": 2.37723943998,
			"-0.008": 3.48186832044,
			"-0.007": 8.45650983853,
			"-0.006": 17.3780542961,
			"-0.005": 21.6040744756,
			"-0.004": 22.1873684966,
			"-0.003": 30.8082503944,
			"-0.002": 29.2201977499,
			"-0.001": 28.651071564,
			"0.0": 26.9778784508,
			"0.001": 24.7781286011,
			"0.002": 20.8794526811,
			"0.003": 14.0206613584,
			"0.004": 6.33210392332,
			"0.005": 6.12281773622,
			"0.006": 6.07108332279,
			"0.007": 5.0165719744,
			"0.008": 6.73003691066,
			"0.009": 7.45008244981,
			"0.01": 7.4940663736,
			"0.011": 8.97298739409,
			"0.012": 6.80946588008,
			"0.013": 3.24507135903,
			"0.014": 0.0,
			"0.015": 0.0,
			"0.016": 0.0,
			"0.017": 0.0,
			"0.018": 0.0,
			"0.019": 0.0,
			"0.02": 0.0,
			"0.021": 0.0,
			"0.022": 0.0,
			"0.023": 0.0,
			"0.024": 0.0,
			"0.025": 0.0
		}
	}
}
