{
	 "smiles": "C1CCN(CC1)C1CCNCC1", 
	 "Tm": 341.15, 
	 "num_atms": 32, 
	 "gaussian": { 
		 "optdone": 1, 
		 "sigma_profile": "yes", 
		 "theory": "DFT", 
		 "functional": "B3LYP", 
		 "basiset": "6-31G**", 
		 "properties": { 
			 "R2extent": 2918.4309, 
			 "electric_dipole_moment_norm": 1.55466846948, 
			 "electric_quadrupole_moment_norm": 6.49567290356, 
			 "total_energy": -502.597356495, 
			 "HOMO_LUMO_gap": 0.25891, 
			 "cosmo_polarized_energy": -5.39, 
			 "cosmo_cavitation_energy": 29.47, 
			 "cosmo_dispersion_energy": -22.06, 
			 "cosmo_repulsion_energy": 1.75, 
			 "cosmo_total_nonelectrostatic_energy": 9.16, 
			 "SMD_solvation_energy": -0.53 
		},
		"coords": [
			{
				"x": 0.058766016,
				"y": -2.5981529009,
				"z": -0.7942661918,
				"element": "C" 
			},
			{
				"x": -1.0641825828,
				"y": -2.437428207,
				"z": 0.2551551917,
				"element": "C" 
			},
			{
				"x": -0.5798150512,
				"y": -1.5961596937,
				"z": 1.4445813257,
				"element": "C" 
			},
			{
				"x": -0.1407395084,
				"y": -0.2387997683,
				"z": 1.0647974617,
				"element": "N" 
			},
			{
				"x": 0.263670227,
				"y": -0.1063984554,
				"z": -0.336772449,
				"element": "C" 
			},
			{
				"x": 0.9991569718,
				"y": -1.3697073798,
				"z": -0.7940312582,
				"element": "C" 
			},
			{
				"x": -0.9561265015,
				"y": 0.8527036716,
				"z": 1.6135604585,
				"element": "C" 
			},
			{
				"x": -0.2101241947,
				"y": 2.2195886897,
				"z": 1.5776987407,
				"element": "C" 
			},
			{
				"x": -0.7748145263,
				"y": 3.1835084008,
				"z": 0.5319304176,
				"element": "C" 
			},
			{
				"x": -2.1722265575,
				"y": 3.5126430519,
				"z": 0.856668515,
				"element": "N" 
			},
			{
				"x": -2.9615349168,
				"y": 2.3765580349,
				"z": 1.3718695265,
				"element": "C" 
			},
			{
				"x": -2.3753788299,
				"y": 1.008316605,
				"z": 0.9970243705,
				"element": "C" 
			},
			{
				"x": 0.6410126662,
				"y": -3.5038237544,
				"z": -0.5885132059,
				"element": "H" 
			},
			{
				"x": -0.3847302786,
				"y": -2.7358529212,
				"z": -1.7872878462,
				"element": "H" 
			},
			{
				"x": -1.4096926154,
				"y": -3.4167610376,
				"z": 0.6062737172,
				"element": "H" 
			},
			{
				"x": -1.9331638568,
				"y": -1.9443750841,
				"z": -0.1968907031,
				"element": "H" 
			},
			{
				"x": 0.2493467236,
				"y": -2.1286068151,
				"z": 1.9377665543,
				"element": "H" 
			},
			{
				"x": -1.376292593,
				"y": -1.5161097002,
				"z": 2.1920721376,
				"element": "H" 
			},
			{
				"x": -0.5857086125,
				"y": 0.0736161819,
				"z": -1.0247188312,
				"element": "H" 
			},
			{
				"x": 0.9243396578,
				"y": 0.7629608461,
				"z": -0.4353682802,
				"element": "H" 
			},
			{
				"x": 1.4263838905,
				"y": -1.2089866361,
				"z": -1.7896630936,
				"element": "H" 
			},
			{
				"x": 1.8411546854,
				"y": -1.5372999952,
				"z": -0.1121176269,
				"element": "H" 
			},
			{
				"x": -1.096731204,
				"y": 0.5997291239,
				"z": 2.6717150173,
				"element": "H" 
			},
			{
				"x": -0.2991997712,
				"y": 2.7006431985,
				"z": 2.5583481481,
				"element": "H" 
			},
			{
				"x": 0.8572658651,
				"y": 2.0491571549,
				"z": 1.4108197396,
				"element": "H" 
			},
			{
				"x": -0.6611301045,
				"y": 2.7349218683,
				"z": -0.4707902444,
				"element": "H" 
			},
			{
				"x": -0.1892752877,
				"y": 4.1116625622,
				"z": 0.5246136726,
				"element": "H" 
			},
			{
				"x": -2.6250894744,
				"y": 3.896147087,
				"z": 0.0340717321,
				"element": "H" 
			},
			{
				"x": -3.0201060336,
				"y": 2.4441532655,
				"z": 2.4693577198,
				"element": "H" 
			},
			{
				"x": -3.99091455,
				"y": 2.472033894,
				"z": 1.0093410554,
				"element": "H" 
			},
			{
				"x": -2.3307488355,
				"y": 0.9235281608,
				"z": -0.0954175134,
				"element": "H" 
			},
			{
				"x": -3.0301708171,
				"y": 0.2025905521,
				"z": 1.350171742,
				"element": "H" 
			}
		],
		 "valence_orbital": [ 
			{
				"type": "occ",
				"energy": -0.30807,
				"method": "rhf"
			},
			{
				"type": "occ",
				"energy": -0.30405,
				"method": "rhf"
			},
			{
				"type": "occ",
				"energy": -0.29857,
				"method": "rhf"
			},
			{
				"type": "occ",
				"energy": -0.20359,
				"method": "rhf"
			},
			{
				"type": "occ",
				"energy": -0.18744,
				"method": "rhf"
			},
			{
				"type": "unocc",
				"energy": 0.07147,
				"method": "rhf"
			},
			{
				"type": "unocc",
				"energy": 0.09167,
				"method": "rhf"
			},
			{
				"type": "unocc",
				"energy": 0.09254,
				"method": "rhf"
			},
			{
				"type": "unocc",
				"energy": 0.10676,
				"method": "rhf"
			},
			{
				"type": "unocc",
				"energy": 0.12014,
				"method": "rhf"
			}
		],
		"cosmo_sigma_profile": { 
			"-0.025": 0.0,
			"-0.024": 0.0,
			"-0.023": 0.0,
			"-0.022": 0.0,
			"-0.021": 0.0,
			"-0.02": 0.0,
			"-0.019": 0.0,
			"-0.018": 0.0,
			"-0.017": 0.0,
			"-0.016": 0.0,
			"-0.015": 0.0,
			"-0.014": 0.0,
			"-0.013": 0.0,
			"-0.012": 0.0,
			"-0.011": 0.0,
			"-0.01": 0.105200771364,
			"-0.009": 1.47738083707,
			"-0.008": 0.950857346929,
			"-0.007": 1.39370506711,
			"-0.006": 1.48531607697,
			"-0.005": 1.47659900283,
			"-0.004": 2.8492852222,
			"-0.003": 14.8474492956,
			"-0.002": 39.9679647179,
			"-0.001": 55.8208241138,
			"0.0": 47.1199798191,
			"0.001": 26.3476303202,
			"0.002": 8.24953507956,
			"0.003": 3.06987704098,
			"0.004": 2.30146072151,
			"0.005": 2.47298682794,
			"0.006": 1.67894832143,
			"0.007": 1.70950961953,
			"0.008": 2.06467498594,
			"0.009": 1.07670387511,
			"0.01": 0.882084041676,
			"0.011": 1.54512040938,
			"0.012": 1.06804424125,
			"0.013": 1.34473906843,
			"0.014": 0.704473245528,
			"0.015": 0.865543173529,
			"0.016": 0.564441225869,
			"0.017": 0.512117291287,
			"0.018": 0.62986564451,
			"0.019": 0.448542594781,
			"0.02": 0.0656067126651,
			"0.021": 0.0,
			"0.022": 0.0,
			"0.023": 0.0,
			"0.024": 0.0,
			"0.025": 0.0
		}
	}
}
