{
	 "smiles": "CC1=CC(=C(C)C(Br)=C1)S(Cl)(=O)=O", 
	 "Tm": 437.15, 
	 "num_atms": 21, 
	 "gaussian": { 
		 "optdone": 1, 
		 "sigma_profile": "yes", 
		 "theory": "DFT", 
		 "functional": "B3LYP", 
		 "basiset": "6-31G**", 
		 "properties": { 
			 "R2extent": 4866.8756, 
			 "electric_dipole_moment_norm": 4.55801233324, 
			 "electric_quadrupole_moment_norm": 11.1323867486, 
			 "total_energy": -3889.84555588, 
			 "HOMO_LUMO_gap": 0.17116, 
			 "cosmo_polarized_energy": -7.7, 
			 "cosmo_cavitation_energy": 29.75, 
			 "cosmo_dispersion_energy": -22.61, 
			 "cosmo_repulsion_energy": 1.74, 
			 "cosmo_total_nonelectrostatic_energy": 8.89, 
			 "SMD_solvation_energy": 2.92 
		},
		"coords": [
			{
				"x": 0.2717746488,
				"y": 2.0865638966,
				"z": -2.7382449115,
				"element": "C" 
			},
			{
				"x": -0.0082625939,
				"y": 0.9114621445,
				"z": -1.833441968,
				"element": "C" 
			},
			{
				"x": 0.8860510451,
				"y": 0.5477119491,
				"z": -0.82385972,
				"element": "C" 
			},
			{
				"x": 0.6177986146,
				"y": -0.5604252158,
				"z": -0.0205419168,
				"element": "C" 
			},
			{
				"x": -0.5352502238,
				"y": -1.3656337917,
				"z": -0.1407795317,
				"element": "C" 
			},
			{
				"x": -0.8179305098,
				"y": -2.5492244481,
				"z": 0.7498172117,
				"element": "C" 
			},
			{
				"x": -1.4031787245,
				"y": -0.9686861268,
				"z": -1.1722777404,
				"element": "C" 
			},
			{
				"x": -3.0136298611,
				"y": -1.9441363824,
				"z": -1.5297313782,
				"element": "Br" 
			},
			{
				"x": -1.1563242493,
				"y": 0.1329247875,
				"z": -1.9923034653,
				"element": "C" 
			},
			{
				"x": 1.9019925014,
				"y": -0.9333334544,
				"z": 1.1862384132,
				"element": "S" 
			},
			{
				"x": 0.9898741775,
				"y": -0.2782611364,
				"z": 3.0090400479,
				"element": "Cl" 
			},
			{
				"x": 2.0858900702,
				"y": -2.3734906443,
				"z": 1.3135308522,
				"element": "O" 
			},
			{
				"x": 3.0333262711,
				"y": -0.0401882076,
				"z": 0.9687903529,
				"element": "O" 
			},
			{
				"x": 0.8344316817,
				"y": 2.8647495296,
				"z": -2.2153795225,
				"element": "H" 
			},
			{
				"x": 0.8666001189,
				"y": 1.7786520417,
				"z": -3.6065157615,
				"element": "H" 
			},
			{
				"x": -0.654827162,
				"y": 2.5283967808,
				"z": -3.1146508294,
				"element": "H" 
			},
			{
				"x": 1.7939648855,
				"y": 1.1158377089,
				"z": -0.6581084946,
				"element": "H" 
			},
			{
				"x": -1.8727296771,
				"y": -2.815617306,
				"z": 0.702367923,
				"element": "H" 
			},
			{
				"x": -0.2282245886,
				"y": -3.4162837939,
				"z": 0.4362813812,
				"element": "H" 
			},
			{
				"x": -0.5566782578,
				"y": -2.3437774228,
				"z": 1.7887744891,
				"element": "H" 
			},
			{
				"x": -1.876268167,
				"y": 0.3829590916,
				"z": -2.7641054314,
				"element": "H" 
			}
		],
		 "valence_orbital": [ 
			{
				"type": "occ",
				"energy": -0.32607,
				"method": "rhf"
			},
			{
				"type": "occ",
				"energy": -0.3159,
				"method": "rhf"
			},
			{
				"type": "occ",
				"energy": -0.30294,
				"method": "rhf"
			},
			{
				"type": "occ",
				"energy": -0.28192,
				"method": "rhf"
			},
			{
				"type": "occ",
				"energy": -0.26365,
				"method": "rhf"
			},
			{
				"type": "unocc",
				"energy": -0.09249,
				"method": "rhf"
			},
			{
				"type": "unocc",
				"energy": -0.05085,
				"method": "rhf"
			},
			{
				"type": "unocc",
				"energy": -0.0391,
				"method": "rhf"
			},
			{
				"type": "unocc",
				"energy": -0.01427,
				"method": "rhf"
			},
			{
				"type": "unocc",
				"energy": 0.05377,
				"method": "rhf"
			}
		],
		"cosmo_sigma_profile": { 
			"-0.025": 0.0,
			"-0.024": 0.0,
			"-0.023": 0.0,
			"-0.022": 0.0,
			"-0.021": 0.0,
			"-0.02": 0.0,
			"-0.019": 0.0,
			"-0.018": 0.0,
			"-0.017": 0.0,
			"-0.016": 0.0,
			"-0.015": 0.0,
			"-0.014": 0.0,
			"-0.013": 0.0,
			"-0.012": 0.0,
			"-0.011": 0.0,
			"-0.01": 0.0,
			"-0.009": 0.0,
			"-0.008": 1.56162275707,
			"-0.007": 3.84885950529,
			"-0.006": 7.04444194185,
			"-0.005": 12.547278072,
			"-0.004": 15.8554711582,
			"-0.003": 19.9140037283,
			"-0.002": 29.586710037,
			"-0.001": 28.3787090097,
			"0.0": 28.182295869,
			"0.001": 21.4858220322,
			"0.002": 16.2768786584,
			"0.003": 18.5129349382,
			"0.004": 14.6223335709,
			"0.005": 4.25252415648,
			"0.006": 3.36325227456,
			"0.007": 5.41851530418,
			"0.008": 8.84424797686,
			"0.009": 3.83290688064,
			"0.01": 0.0,
			"0.011": 0.0,
			"0.012": 0.0,
			"0.013": 0.0,
			"0.014": 0.0,
			"0.015": 0.0,
			"0.016": 0.0,
			"0.017": 0.0,
			"0.018": 0.0,
			"0.019": 0.0,
			"0.02": 0.0,
			"0.021": 0.0,
			"0.022": 0.0,
			"0.023": 0.0,
			"0.024": 0.0,
			"0.025": 0.0
		}
	}
}
