{
	 "smiles": "ON=C(CC1=NC2=C(C=CC=C2)N1C(F)F)C1=CC=CC=C1", 
	 "Tm": 439.15, 
	 "num_atms": 35, 
	 "gaussian": { 
		 "optdone": 1, 
		 "sigma_profile": "yes", 
		 "theory": "DFT", 
		 "functional": "B3LYP", 
		 "basiset": "6-31G**", 
		 "properties": { 
			 "R2extent": 7011.0161, 
			 "electric_dipole_moment_norm": 2.6860162211, 
			 "electric_quadrupole_moment_norm": 6.136456506, 
			 "total_energy": -1056.638981, 
			 "HOMO_LUMO_gap": 0.18814, 
			 "cosmo_polarized_energy": -15.25, 
			 "cosmo_cavitation_energy": 39.32, 
			 "cosmo_dispersion_energy": -27.22, 
			 "cosmo_repulsion_energy": 2.04, 
			 "cosmo_total_nonelectrostatic_energy": 14.15, 
			 "SMD_solvation_energy": 4.63 
		},
		"coords": [
			{
				"x": -0.2603584655,
				"y": -2.6712452236,
				"z": -3.1010290606,
				"element": "O" 
			},
			{
				"x": 0.3930132521,
				"y": -2.9328523327,
				"z": -1.8886358907,
				"element": "N" 
			},
			{
				"x": 0.0965893897,
				"y": -2.0972343422,
				"z": -0.9584596897,
				"element": "C" 
			},
			{
				"x": 0.7883981439,
				"y": -2.3760725383,
				"z": 0.3685291966,
				"element": "C" 
			},
			{
				"x": 1.8017369642,
				"y": -1.3165872285,
				"z": 0.7279703294,
				"element": "C" 
			},
			{
				"x": 2.9793988326,
				"y": -1.2669985515,
				"z": 0.1677953584,
				"element": "N" 
			},
			{
				"x": 3.6157166059,
				"y": -0.1590051826,
				"z": 0.7033093262,
				"element": "C" 
			},
			{
				"x": 2.7822093236,
				"y": 0.4899064015,
				"z": 1.6407488227,
				"element": "C" 
			},
			{
				"x": 3.1898032626,
				"y": 1.6456004923,
				"z": 2.3145986927,
				"element": "C" 
			},
			{
				"x": 4.4617707577,
				"y": 2.1307707982,
				"z": 2.0180565399,
				"element": "C" 
			},
			{
				"x": 5.3056803944,
				"y": 1.4882905781,
				"z": 1.0924354432,
				"element": "C" 
			},
			{
				"x": 4.8950386513,
				"y": 0.3383249548,
				"z": 0.4283003283,
				"element": "C" 
			},
			{
				"x": 1.6125851688,
				"y": -0.2876629926,
				"z": 1.6691071448,
				"element": "N" 
			},
			{
				"x": 0.3896940208,
				"y": 0.0806315641,
				"z": 2.3266072049,
				"element": "C" 
			},
			{
				"x": 0.6792384433,
				"y": 0.8438555515,
				"z": 3.4092125096,
				"element": "F" 
			},
			{
				"x": -0.2463620647,
				"y": -1.0385384329,
				"z": 2.7769383641,
				"element": "F" 
			},
			{
				"x": -0.8149878597,
				"y": -0.9249519971,
				"z": -1.0810225963,
				"element": "C" 
			},
			{
				"x": -1.8273412104,
				"y": -0.7145806231,
				"z": -0.1298493932,
				"element": "C" 
			},
			{
				"x": -2.678658735,
				"y": 0.3878527241,
				"z": -0.2280863492,
				"element": "C" 
			},
			{
				"x": -2.5206002842,
				"y": 1.3035227587,
				"z": -1.2696932614,
				"element": "C" 
			},
			{
				"x": -1.5136290354,
				"y": 1.1052817243,
				"z": -2.2173383067,
				"element": "C" 
			},
			{
				"x": -0.6721411171,
				"y": -0.0021909392,
				"z": -2.1302928964,
				"element": "C" 
			},
			{
				"x": 0.0677108622,
				"y": -3.3890514236,
				"z": -3.6590005126,
				"element": "H" 
			},
			{
				"x": 0.0569214967,
				"y": -2.5036435301,
				"z": 1.1665624668,
				"element": "H" 
			},
			{
				"x": 1.3361089011,
				"y": -3.313393279,
				"z": 0.2529686432,
				"element": "H" 
			},
			{
				"x": 2.556516024,
				"y": 2.1453881459,
				"z": 3.034963364,
				"element": "H" 
			},
			{
				"x": 4.8100251732,
				"y": 3.0281002245,
				"z": 2.5210014417,
				"element": "H" 
			},
			{
				"x": 6.2914023938,
				"y": 1.9000936956,
				"z": 0.8975842336,
				"element": "H" 
			},
			{
				"x": 5.5308358345,
				"y": -0.1700055859,
				"z": -0.2890452697,
				"element": "H" 
			},
			{
				"x": -0.3058523938,
				"y": 0.6284730919,
				"z": 1.6840129902,
				"element": "H" 
			},
			{
				"x": -1.9595868041,
				"y": -1.4187012723,
				"z": 0.6860446872,
				"element": "H" 
			},
			{
				"x": -3.4655380549,
				"y": 0.5277438497,
				"z": 0.5077073913,
				"element": "H" 
			},
			{
				"x": -3.1789936957,
				"y": 2.1641429396,
				"z": -1.3441369287,
				"element": "H" 
			},
			{
				"x": -1.3843594126,
				"y": 1.8145907758,
				"z": -3.0296784378,
				"element": "H" 
			},
			{
				"x": 0.0998152369,
				"y": -0.1611547958,
				"z": -2.8737858859,
				"element": "H" 
			}
		],
		 "valence_orbital": [ 
			{
				"type": "occ",
				"energy": -0.27122,
				"method": "rhf"
			},
			{
				"type": "occ",
				"energy": -0.26118,
				"method": "rhf"
			},
			{
				"type": "occ",
				"energy": -0.2415,
				"method": "rhf"
			},
			{
				"type": "occ",
				"energy": -0.23184,
				"method": "rhf"
			},
			{
				"type": "occ",
				"energy": -0.22445,
				"method": "rhf"
			},
			{
				"type": "unocc",
				"energy": -0.03631,
				"method": "rhf"
			},
			{
				"type": "unocc",
				"energy": -0.02083,
				"method": "rhf"
			},
			{
				"type": "unocc",
				"energy": -0.0126,
				"method": "rhf"
			},
			{
				"type": "unocc",
				"energy": 0.01093,
				"method": "rhf"
			},
			{
				"type": "unocc",
				"energy": 0.02808,
				"method": "rhf"
			}
		],
		"cosmo_sigma_profile": { 
			"-0.025": 0.0,
			"-0.024": 0.0,
			"-0.023": 0.0,
			"-0.022": 0.0,
			"-0.021": 0.0,
			"-0.02": 0.0,
			"-0.019": 0.0,
			"-0.018": 0.0884956695738,
			"-0.017": 0.885334136276,
			"-0.016": 1.1266781775,
			"-0.015": 1.01508517351,
			"-0.014": 0.267028731719,
			"-0.013": 0.762113130083,
			"-0.012": 0.746676340078,
			"-0.011": 1.25564898743,
			"-0.01": 0.889223504572,
			"-0.009": 1.56048012997,
			"-0.008": 3.30037648596,
			"-0.007": 4.88723111291,
			"-0.006": 18.0985672247,
			"-0.005": 23.8370332055,
			"-0.004": 26.1841156572,
			"-0.003": 24.4095037695,
			"-0.002": 19.2820272577,
			"-0.001": 19.8457229196,
			"0.0": 17.8128596165,
			"0.001": 21.6780968027,
			"0.002": 25.3275558749,
			"0.003": 28.8067113811,
			"0.004": 22.4888198732,
			"0.005": 18.3658226358,
			"0.006": 7.37355685386,
			"0.007": 3.75387225668,
			"0.008": 5.11804003984,
			"0.009": 4.39081498467,
			"0.01": 3.17009526129,
			"0.011": 2.98797601263,
			"0.012": 2.07939058986,
			"0.013": 0.980254129674,
			"0.014": 0.658945141456,
			"0.015": 0.893536625677,
			"0.016": 0.899320142344,
			"0.017": 0.153144947842,
			"0.018": 0.0,
			"0.019": 0.0,
			"0.02": 0.0,
			"0.021": 0.0,
			"0.022": 0.0,
			"0.023": 0.0,
			"0.024": 0.0,
			"0.025": 0.0
		}
	}
}
