{
	 "smiles": "CCCC1=C(NC(C)=C1C(=O)OC)C(O)=O", 
	 "Tm": 489.15, 
	 "num_atms": 31, 
	 "gaussian": { 
		 "optdone": 1, 
		 "sigma_profile": "yes", 
		 "theory": "DFT", 
		 "functional": "B3LYP", 
		 "basiset": "6-31G**", 
		 "properties": { 
			 "R2extent": 4405.6602, 
			 "electric_dipole_moment_norm": 3.7623540583, 
			 "electric_quadrupole_moment_norm": 25.6909187274, 
			 "total_energy": -783.893105857, 
			 "HOMO_LUMO_gap": 0.19744, 
			 "cosmo_polarized_energy": -21.41, 
			 "cosmo_cavitation_energy": 34.69, 
			 "cosmo_dispersion_energy": -23.82, 
			 "cosmo_repulsion_energy": 1.89, 
			 "cosmo_total_nonelectrostatic_energy": 12.76, 
			 "SMD_solvation_energy": 8.26 
		},
		"coords": [
			{
				"x": 0.1138661938,
				"y": -0.9609077888,
				"z": 3.6768626207,
				"element": "C" 
			},
			{
				"x": -0.4230450794,
				"y": -1.1982473225,
				"z": 2.2626674276,
				"element": "C" 
			},
			{
				"x": 0.3988400477,
				"y": -0.4486986709,
				"z": 1.1926768638,
				"element": "C" 
			},
			{
				"x": -0.1156102112,
				"y": -0.6586509326,
				"z": -0.204683919,
				"element": "C" 
			},
			{
				"x": 0.3764427069,
				"y": -1.5927095659,
				"z": -1.1068926276,
				"element": "C" 
			},
			{
				"x": -0.4022849797,
				"y": -1.5204471293,
				"z": -2.2653117435,
				"element": "N" 
			},
			{
				"x": -1.3477553147,
				"y": -0.5532064918,
				"z": -2.1444643821,
				"element": "C" 
			},
			{
				"x": -2.2770799642,
				"y": -0.219250184,
				"z": -3.2652091904,
				"element": "C" 
			},
			{
				"x": -1.2199927607,
				"y": -0.0127196792,
				"z": -0.8588747065,
				"element": "C" 
			},
			{
				"x": -2.1188737412,
				"y": 1.0492914493,
				"z": -0.3908996417,
				"element": "C" 
			},
			{
				"x": -3.0167321084,
				"y": 1.536531933,
				"z": -1.0590115063,
				"element": "O" 
			},
			{
				"x": -1.8578305468,
				"y": 1.4517578729,
				"z": 0.8771516019,
				"element": "O" 
			},
			{
				"x": -2.707824744,
				"y": 2.4979111448,
				"z": 1.372070728,
				"element": "C" 
			},
			{
				"x": 1.4744146265,
				"y": -2.5559504192,
				"z": -0.9765387588,
				"element": "C" 
			},
			{
				"x": 1.4163461672,
				"y": -3.6278439654,
				"z": -1.8396030258,
				"element": "O" 
			},
			{
				"x": 2.4030912432,
				"y": -2.4600746933,
				"z": -0.2071388202,
				"element": "O" 
			},
			{
				"x": -0.4752620042,
				"y": -1.5053283548,
				"z": 4.4222668126,
				"element": "H" 
			},
			{
				"x": 0.0813209391,
				"y": 0.1029936131,
				"z": 3.9386095658,
				"element": "H" 
			},
			{
				"x": 1.154334262,
				"y": -1.2923041145,
				"z": 3.7665593923,
				"element": "H" 
			},
			{
				"x": -1.469159338,
				"y": -0.8776239514,
				"z": 2.202804722,
				"element": "H" 
			},
			{
				"x": -0.4075247397,
				"y": -2.2718955142,
				"z": 2.0366336651,
				"element": "H" 
			},
			{
				"x": 0.3829784331,
				"y": 0.6208077644,
				"z": 1.4211485959,
				"element": "H" 
			},
			{
				"x": 1.4364462307,
				"y": -0.7885354691,
				"z": 1.2324299177,
				"element": "H" 
			},
			{
				"x": -0.1465965936,
				"y": -1.9397229496,
				"z": -3.1478633802,
				"element": "H" 
			},
			{
				"x": -2.0761805609,
				"y": -0.8472985671,
				"z": -4.1391921549,
				"element": "H" 
			},
			{
				"x": -2.1820883192,
				"y": 0.8313036096,
				"z": -3.5523902972,
				"element": "H" 
			},
			{
				"x": -3.3181175681,
				"y": -0.3581285162,
				"z": -2.9615307517,
				"element": "H" 
			},
			{
				"x": -2.367606041,
				"y": 2.6946563686,
				"z": 2.3887035996,
				"element": "H" 
			},
			{
				"x": -3.7531982138,
				"y": 2.1793979878,
				"z": 1.3717018098,
				"element": "H" 
			},
			{
				"x": -2.6147874113,
				"y": 3.3955873033,
				"z": 0.7557096377,
				"element": "H" 
			},
			{
				"x": 0.4993693899,
				"y": -3.7798947671,
				"z": -2.1092920542,
				"element": "H" 
			}
		],
		 "valence_orbital": [ 
			{
				"type": "occ",
				"energy": -0.29978,
				"method": "rhf"
			},
			{
				"type": "occ",
				"energy": -0.27518,
				"method": "rhf"
			},
			{
				"type": "occ",
				"energy": -0.27036,
				"method": "rhf"
			},
			{
				"type": "occ",
				"energy": -0.26115,
				"method": "rhf"
			},
			{
				"type": "occ",
				"energy": -0.23081,
				"method": "rhf"
			},
			{
				"type": "unocc",
				"energy": -0.03337,
				"method": "rhf"
			},
			{
				"type": "unocc",
				"energy": -0.02209,
				"method": "rhf"
			},
			{
				"type": "unocc",
				"energy": 0.03918,
				"method": "rhf"
			},
			{
				"type": "unocc",
				"energy": 0.08303,
				"method": "rhf"
			},
			{
				"type": "unocc",
				"energy": 0.08808,
				"method": "rhf"
			}
		],
		"cosmo_sigma_profile": { 
			"-0.025": 0.0,
			"-0.024": 0.0,
			"-0.023": 0.0,
			"-0.022": 0.0,
			"-0.021": 0.0,
			"-0.02": 0.000127820748355,
			"-0.019": 0.923033554069,
			"-0.018": 1.80476017653,
			"-0.017": 1.69234510911,
			"-0.016": 2.11383476872,
			"-0.015": 1.95797158344,
			"-0.014": 2.58577978037,
			"-0.013": 1.43992742988,
			"-0.012": 1.61319468761,
			"-0.011": 1.78299419579,
			"-0.01": 2.07351165752,
			"-0.009": 1.10501896541,
			"-0.008": 1.71243984631,
			"-0.007": 2.34143736373,
			"-0.006": 5.4931034503,
			"-0.005": 11.9318659829,
			"-0.004": 12.865996855,
			"-0.003": 19.1088768885,
			"-0.002": 27.0939439113,
			"-0.001": 29.152805958,
			"0.0": 27.7193507884,
			"0.001": 30.8887728779,
			"0.002": 17.1957518548,
			"0.003": 13.0860295,
			"0.004": 7.96503617337,
			"0.005": 4.46837392363,
			"0.006": 4.70855276238,
			"0.007": 3.8590272013,
			"0.008": 4.17173319501,
			"0.009": 4.53189551685,
			"0.01": 5.50934074873,
			"0.011": 7.11068840459,
			"0.012": 8.3524052306,
			"0.013": 4.17738455674,
			"0.014": 0.313924105656,
			"0.015": 0.0,
			"0.016": 0.0,
			"0.017": 0.0,
			"0.018": 0.0,
			"0.019": 0.0,
			"0.02": 0.0,
			"0.021": 0.0,
			"0.022": 0.0,
			"0.023": 0.0,
			"0.024": 0.0,
			"0.025": 0.0
		}
	}
}
