{
	 "smiles": "CC(C)(C)OC(=O)N(CC(O)=O)C1CC1", 
	 "Tm": 364.15, 
	 "num_atms": 32, 
	 "gaussian": { 
		 "optdone": 1, 
		 "sigma_profile": "yes", 
		 "theory": "DFT", 
		 "functional": "B3LYP", 
		 "basiset": "6-31G**", 
		 "properties": { 
			 "R2extent": 3617.3054, 
			 "electric_dipole_moment_norm": 2.88040934244, 
			 "electric_quadrupole_moment_norm": 9.83231290592, 
			 "total_energy": -746.970015704, 
			 "HOMO_LUMO_gap": 0.24402, 
			 "cosmo_polarized_energy": -14.37, 
			 "cosmo_cavitation_energy": 34.34, 
			 "cosmo_dispersion_energy": -22.78, 
			 "cosmo_repulsion_energy": 1.81, 
			 "cosmo_total_nonelectrostatic_energy": 13.37, 
			 "SMD_solvation_energy": 7.48 
		},
		"coords": [
			{
				"x": -1.799937476,
				"y": -0.4370523701,
				"z": 2.3384921117,
				"element": "C" 
			},
			{
				"x": -0.6060289584,
				"y": 0.3364047779,
				"z": 1.7687674158,
				"element": "C" 
			},
			{
				"x": 0.703910793,
				"y": 0.0018470123,
				"z": 2.4899281736,
				"element": "C" 
			},
			{
				"x": -0.8717616873,
				"y": 1.8439729863,
				"z": 1.797506159,
				"element": "C" 
			},
			{
				"x": -0.4681069851,
				"y": 0.0641529809,
				"z": 0.3289051661,
				"element": "O" 
			},
			{
				"x": -0.2066201689,
				"y": -1.1903457512,
				"z": -0.1208172261,
				"element": "C" 
			},
			{
				"x": -0.0939075329,
				"y": -2.1884262998,
				"z": 0.5692579382,
				"element": "O" 
			},
			{
				"x": -0.0876420612,
				"y": -1.1820408669,
				"z": -1.4950273177,
				"element": "N" 
			},
			{
				"x": -0.319061706,
				"y": 0.0262214273,
				"z": -2.2581099432,
				"element": "C" 
			},
			{
				"x": 0.8665541235,
				"y": 0.9863386943,
				"z": -2.2363196954,
				"element": "C" 
			},
			{
				"x": 0.496472222,
				"y": 2.2081538632,
				"z": -2.6845190214,
				"element": "O" 
			},
			{
				"x": 1.9975316228,
				"y": 0.7170198108,
				"z": -1.9038939181,
				"element": "O" 
			},
			{
				"x": 0.2316672672,
				"y": -2.4143978286,
				"z": -2.1730967289,
				"element": "C" 
			},
			{
				"x": 1.5148825206,
				"y": -3.1264946006,
				"z": -1.8536128217,
				"element": "C" 
			},
			{
				"x": 1.3637711417,
				"y": -2.4234566133,
				"z": -3.176744865,
				"element": "C" 
			},
			{
				"x": -2.7084368004,
				"y": -0.2037499864,
				"z": 1.7738174083,
				"element": "H" 
			},
			{
				"x": -1.9637804963,
				"y": -0.1430874478,
				"z": 3.3804320936,
				"element": "H" 
			},
			{
				"x": -1.6235122658,
				"y": -1.5118739949,
				"z": 2.2975556439,
				"element": "H" 
			},
			{
				"x": 0.90320293,
				"y": -1.0694207462,
				"z": 2.4592272865,
				"element": "H" 
			},
			{
				"x": 0.6394742202,
				"y": 0.3213162443,
				"z": 3.5352378859,
				"element": "H" 
			},
			{
				"x": 1.5391966503,
				"y": 0.5314625833,
				"z": 2.0212164994,
				"element": "H" 
			},
			{
				"x": -0.0381179082,
				"y": 2.3914979634,
				"z": 1.3482351602,
				"element": "H" 
			},
			{
				"x": -1.783595336,
				"y": 2.0873940872,
				"z": 1.2440030935,
				"element": "H" 
			},
			{
				"x": -0.9932193702,
				"y": 2.184005276,
				"z": 2.8302466856,
				"element": "H" 
			},
			{
				"x": -1.202080791,
				"y": 0.5628661768,
				"z": -1.9046840806,
				"element": "H" 
			},
			{
				"x": -0.4998253082,
				"y": -0.2476527002,
				"z": -3.3023459762,
				"element": "H" 
			},
			{
				"x": 1.299166379,
				"y": 2.7563010711,
				"z": -2.6798082294,
				"element": "H" 
			},
			{
				"x": -0.6307006977,
				"y": -3.04152179,
				"z": -2.3979976303,
				"element": "H" 
			},
			{
				"x": 2.157776943,
				"y": -2.6630081346,
				"z": -1.1145809481,
				"element": "H" 
			},
			{
				"x": 1.4890223378,
				"y": -4.2107024448,
				"z": -1.819260295,
				"element": "H" 
			},
			{
				"x": 1.9251405644,
				"y": -1.504189188,
				"z": -3.3054079725,
				"element": "H" 
			},
			{
				"x": 1.229665834,
				"y": -3.0125341916,
				"z": -4.0790020519,
				"element": "H" 
			}
		],
		 "valence_orbital": [ 
			{
				"type": "occ",
				"energy": -0.29379,
				"method": "rhf"
			},
			{
				"type": "occ",
				"energy": -0.28503,
				"method": "rhf"
			},
			{
				"type": "occ",
				"energy": -0.28348,
				"method": "rhf"
			},
			{
				"type": "occ",
				"energy": -0.25765,
				"method": "rhf"
			},
			{
				"type": "occ",
				"energy": -0.23926,
				"method": "rhf"
			},
			{
				"type": "unocc",
				"energy": 0.00476,
				"method": "rhf"
			},
			{
				"type": "unocc",
				"energy": 0.05334,
				"method": "rhf"
			},
			{
				"type": "unocc",
				"energy": 0.06991,
				"method": "rhf"
			},
			{
				"type": "unocc",
				"energy": 0.08669,
				"method": "rhf"
			},
			{
				"type": "unocc",
				"energy": 0.10039,
				"method": "rhf"
			}
		],
		"cosmo_sigma_profile": { 
			"-0.025": 0.0,
			"-0.024": 0.0,
			"-0.023": 0.0,
			"-0.022": 0.0,
			"-0.021": 0.0,
			"-0.02": 0.0,
			"-0.019": 0.0495915249557,
			"-0.018": 1.04443475162,
			"-0.017": 0.915807124009,
			"-0.016": 0.952310644814,
			"-0.015": 0.573851005599,
			"-0.014": 0.706165206434,
			"-0.013": 0.751400848381,
			"-0.012": 0.336226815635,
			"-0.011": 1.28601168421,
			"-0.01": 0.681480935934,
			"-0.009": 0.682488693044,
			"-0.008": 2.02865551606,
			"-0.007": 3.11403624673,
			"-0.006": 4.9703911524,
			"-0.005": 12.1761488766,
			"-0.004": 23.4551360632,
			"-0.003": 27.8846929442,
			"-0.002": 25.2849597891,
			"-0.001": 27.1172735448,
			"0.0": 35.1501944264,
			"0.001": 23.5174345771,
			"0.002": 11.9388823639,
			"0.003": 10.8261571051,
			"0.004": 8.69695577402,
			"0.005": 7.05820937041,
			"0.006": 5.16833025227,
			"0.007": 5.2995899166,
			"0.008": 4.71474153584,
			"0.009": 3.82132418715,
			"0.01": 3.36780218494,
			"0.011": 6.04360256961,
			"0.012": 3.55766287783,
			"0.013": 3.06048183179,
			"0.014": 1.63706723557,
			"0.015": 0.0300793577698,
			"0.016": 0.0,
			"0.017": 0.0,
			"0.018": 0.0,
			"0.019": 0.0,
			"0.02": 0.0,
			"0.021": 0.0,
			"0.022": 0.0,
			"0.023": 0.0,
			"0.024": 0.0,
			"0.025": 0.0
		}
	}
}
