{
	 "smiles": "OC(=O)C=CC1=CC(=CC(Br)=C1)C#CC(O)=O", 
	 "Tm": 434.15, 
	 "num_atms": 24, 
	 "gaussian": { 
		 "optdone": 1, 
		 "sigma_profile": "yes", 
		 "theory": "DFT", 
		 "functional": "B3LYP", 
		 "basiset": "6-31G**", 
		 "properties": { 
			 "R2extent": 10852.9874, 
			 "electric_dipole_moment_norm": 4.2867010206, 
			 "electric_quadrupole_moment_norm": 42.6685018606, 
			 "total_energy": -3333.72244161, 
			 "HOMO_LUMO_gap": 0.16665, 
			 "cosmo_polarized_energy": -26.71, 
			 "cosmo_cavitation_energy": 35.13, 
			 "cosmo_dispersion_energy": -25.08, 
			 "cosmo_repulsion_energy": 1.99, 
			 "cosmo_total_nonelectrostatic_energy": 12.05, 
			 "SMD_solvation_energy": 7.83 
		},
		"coords": [
			{
				"x": 0.2583278028,
				"y": 5.4323912059,
				"z": -1.4339199922,
				"element": "O" 
			},
			{
				"x": -0.2471186012,
				"y": 5.5903119417,
				"z": -0.1800980001,
				"element": "C" 
			},
			{
				"x": -0.8034240189,
				"y": 6.616961257,
				"z": 0.1303554196,
				"element": "O" 
			},
			{
				"x": -0.1047076647,
				"y": 4.4518507102,
				"z": 0.7688033198,
				"element": "C" 
			},
			{
				"x": 0.0258613469,
				"y": 3.1642372718,
				"z": 0.4044950746,
				"element": "C" 
			},
			{
				"x": 0.0987937027,
				"y": 1.993406899,
				"z": 1.2882038293,
				"element": "C" 
			},
			{
				"x": 0.1696796659,
				"y": 0.7190291171,
				"z": 0.7101761988,
				"element": "C" 
			},
			{
				"x": 0.2436378892,
				"y": -0.4355859028,
				"z": 1.5085167717,
				"element": "C" 
			},
			{
				"x": 0.2480552154,
				"y": -0.3142726904,
				"z": 2.909415957,
				"element": "C" 
			},
			{
				"x": 0.1797827739,
				"y": 0.9559849154,
				"z": 3.4762879793,
				"element": "C" 
			},
			{
				"x": 0.1897464223,
				"y": 1.1244973179,
				"z": 5.3754176925,
				"element": "Br" 
			},
			{
				"x": 0.1065467999,
				"y": 2.1012905032,
				"z": 2.6919544495,
				"element": "C" 
			},
			{
				"x": 0.3150847734,
				"y": -1.7212539345,
				"z": 0.8964437846,
				"element": "C" 
			},
			{
				"x": 0.3765839731,
				"y": -2.8075451267,
				"z": 0.3567728972,
				"element": "C" 
			},
			{
				"x": 0.4530130184,
				"y": -4.0693428421,
				"z": -0.3582889747,
				"element": "C" 
			},
			{
				"x": 0.4710640824,
				"y": -5.1720957584,
				"z": 0.4312644312,
				"element": "O" 
			},
			{
				"x": 0.4986797777,
				"y": -4.1560228652,
				"z": -1.5607187844,
				"element": "O" 
			},
			{
				"x": 0.830337077,
				"y": 4.6532333225,
				"z": -1.4682368333,
				"element": "H" 
			},
			{
				"x": -0.2145294323,
				"y": 4.7480961567,
				"z": 1.807038142,
				"element": "H" 
			},
			{
				"x": 0.0546839154,
				"y": 2.9200426851,
				"z": -0.6575190876,
				"element": "H" 
			},
			{
				"x": 0.165443294,
				"y": 0.6110312395,
				"z": -0.3696430336,
				"element": "H" 
			},
			{
				"x": 0.3053393417,
				"y": -1.1963504354,
				"z": 3.5350542337,
				"element": "H" 
			},
			{
				"x": 0.0575617233,
				"y": 3.0706131972,
				"z": 3.1727205615,
				"element": "H" 
			},
			{
				"x": 0.4253571217,
				"y": -4.9094081845,
				"z": 1.3626039637,
				"element": "H" 
			}
		],
		 "valence_orbital": [ 
			{
				"type": "occ",
				"energy": -0.30449,
				"method": "rhf"
			},
			{
				"type": "occ",
				"energy": -0.28973,
				"method": "rhf"
			},
			{
				"type": "occ",
				"energy": -0.28401,
				"method": "rhf"
			},
			{
				"type": "occ",
				"energy": -0.27132,
				"method": "rhf"
			},
			{
				"type": "occ",
				"energy": -0.2678,
				"method": "rhf"
			},
			{
				"type": "unocc",
				"energy": -0.10115,
				"method": "rhf"
			},
			{
				"type": "unocc",
				"energy": -0.08124,
				"method": "rhf"
			},
			{
				"type": "unocc",
				"energy": -0.02927,
				"method": "rhf"
			},
			{
				"type": "unocc",
				"energy": -0.02178,
				"method": "rhf"
			},
			{
				"type": "unocc",
				"energy": -0.00237,
				"method": "rhf"
			}
		],
		"cosmo_sigma_profile": { 
			"-0.025": 0.0,
			"-0.024": 0.0,
			"-0.023": 0.0,
			"-0.022": 0.0,
			"-0.021": 0.0,
			"-0.02": 0.21266993143,
			"-0.019": 1.37507655815,
			"-0.018": 1.60700280847,
			"-0.017": 1.86705021384,
			"-0.016": 1.62212759095,
			"-0.015": 1.42554587101,
			"-0.014": 2.18317486151,
			"-0.013": 2.21453793,
			"-0.012": 2.56254320967,
			"-0.011": 2.20027422219,
			"-0.01": 5.43584065299,
			"-0.009": 6.32613294759,
			"-0.008": 8.1165891903,
			"-0.007": 7.33863702914,
			"-0.006": 8.33261835752,
			"-0.005": 10.1802038898,
			"-0.004": 11.2862029196,
			"-0.003": 13.5292243051,
			"-0.002": 16.6586298891,
			"-0.001": 23.157711654,
			"0.0": 34.596518075,
			"0.001": 20.1454867254,
			"0.002": 15.3472822744,
			"0.003": 14.9877526072,
			"0.004": 13.3410173658,
			"0.005": 5.28497981033,
			"0.006": 4.68633498443,
			"0.007": 4.66164421777,
			"0.008": 6.50595882851,
			"0.009": 8.24862115706,
			"0.01": 10.7780624582,
			"0.011": 10.5115128125,
			"0.012": 8.16287713193,
			"0.013": 2.24033524797,
			"0.014": 0.0715396331563,
			"0.015": 0.0,
			"0.016": 0.0,
			"0.017": 0.0,
			"0.018": 0.0,
			"0.019": 0.0,
			"0.02": 0.0,
			"0.021": 0.0,
			"0.022": 0.0,
			"0.023": 0.0,
			"0.024": 0.0,
			"0.025": 0.0
		}
	}
}
