{
	 "smiles": "NC1=CC(=NS1)C1=CC=CC=C1", 
	 "Tm": 433.15, 
	 "num_atms": 20, 
	 "gaussian": { 
		 "optdone": 1, 
		 "sigma_profile": "yes", 
		 "theory": "DFT", 
		 "functional": "B3LYP", 
		 "basiset": "6-31G**", 
		 "properties": { 
			 "R2extent": 2956.9798, 
			 "electric_dipole_moment_norm": 3.77167337266, 
			 "electric_quadrupole_moment_norm": 19.2151327586, 
			 "total_energy": -855.457084867, 
			 "HOMO_LUMO_gap": 0.18219, 
			 "cosmo_polarized_energy": -13.62, 
			 "cosmo_cavitation_energy": 25.76, 
			 "cosmo_dispersion_energy": -19.93, 
			 "cosmo_repulsion_energy": 1.53, 
			 "cosmo_total_nonelectrostatic_energy": 7.36, 
			 "SMD_solvation_energy": 2.92 
		},
		"coords": [
			{
				"x": 4.353579171,
				"y": -0.6861925626,
				"z": -1.0361681805,
				"element": "N" 
			},
			{
				"x": 3.0583316672,
				"y": -0.5576864791,
				"z": -0.5740779408,
				"element": "C" 
			},
			{
				"x": 1.9575627406,
				"y": -0.0399766858,
				"z": -1.2150548388,
				"element": "C" 
			},
			{
				"x": 0.8143778509,
				"y": -0.0265921463,
				"z": -0.3528915361,
				"element": "C" 
			},
			{
				"x": 0.991899397,
				"y": -0.499364324,
				"z": 0.8721576068,
				"element": "N" 
			},
			{
				"x": 2.5930891972,
				"y": -0.9803253733,
				"z": 1.056076522,
				"element": "S" 
			},
			{
				"x": -0.531526025,
				"y": 0.4566003922,
				"z": -0.7413105162,
				"element": "C" 
			},
			{
				"x": -0.7325897687,
				"y": 1.1987556474,
				"z": -1.9155522903,
				"element": "C" 
			},
			{
				"x": -2.0062277339,
				"y": 1.6464167423,
				"z": -2.2660337043,
				"element": "C" 
			},
			{
				"x": -3.1002501589,
				"y": 1.3616665698,
				"z": -1.4481009417,
				"element": "C" 
			},
			{
				"x": -2.9098645516,
				"y": 0.6276427518,
				"z": -0.2739636149,
				"element": "C" 
			},
			{
				"x": -1.6396347931,
				"y": 0.1793853395,
				"z": 0.0770860422,
				"element": "C" 
			},
			{
				"x": 4.9072726952,
				"y": -1.4230569218,
				"z": -0.6217769321,
				"element": "H" 
			},
			{
				"x": 4.4509795842,
				"y": -0.6529427736,
				"z": -2.0419984159,
				"element": "H" 
			},
			{
				"x": 1.9633617514,
				"y": 0.284455727,
				"z": -2.2476148926,
				"element": "H" 
			},
			{
				"x": 0.1093118983,
				"y": 1.4449182751,
				"z": -2.5549327899,
				"element": "H" 
			},
			{
				"x": -2.1416293215,
				"y": 2.2220455399,
				"z": -3.1773806284,
				"element": "H" 
			},
			{
				"x": -4.092300236,
				"y": 1.7096323546,
				"z": -1.7214554969,
				"element": "H" 
			},
			{
				"x": -3.7559336658,
				"y": 0.4019273225,
				"z": 0.3691270635,
				"element": "H" 
			},
			{
				"x": -1.4832096984,
				"y": -0.3916093956,
				"z": 0.9856654849,
				"element": "H" 
			}
		],
		 "valence_orbital": [ 
			{
				"type": "occ",
				"energy": -0.2794,
				"method": "rhf"
			},
			{
				"type": "occ",
				"energy": -0.27427,
				"method": "rhf"
			},
			{
				"type": "occ",
				"energy": -0.2463,
				"method": "rhf"
			},
			{
				"type": "occ",
				"energy": -0.22807,
				"method": "rhf"
			},
			{
				"type": "occ",
				"energy": -0.21393,
				"method": "rhf"
			},
			{
				"type": "unocc",
				"energy": -0.03174,
				"method": "rhf"
			},
			{
				"type": "unocc",
				"energy": 0.00235,
				"method": "rhf"
			},
			{
				"type": "unocc",
				"energy": 0.00723,
				"method": "rhf"
			},
			{
				"type": "unocc",
				"energy": 0.01919,
				"method": "rhf"
			},
			{
				"type": "unocc",
				"energy": 0.06514,
				"method": "rhf"
			}
		],
		"cosmo_sigma_profile": { 
			"-0.025": 0.0,
			"-0.024": 0.0,
			"-0.023": 0.0,
			"-0.022": 0.0,
			"-0.021": 0.0,
			"-0.02": 0.0,
			"-0.019": 0.0,
			"-0.018": 0.0,
			"-0.017": 0.0,
			"-0.016": 0.0,
			"-0.015": 0.385701615297,
			"-0.014": 2.59175130322,
			"-0.013": 3.08154697127,
			"-0.012": 2.2176109646,
			"-0.011": 3.54292593491,
			"-0.01": 2.98978611448,
			"-0.009": 2.10729958873,
			"-0.008": 4.16247087881,
			"-0.007": 4.54736288643,
			"-0.006": 7.90815239822,
			"-0.005": 10.9287593849,
			"-0.004": 12.0063331134,
			"-0.003": 11.4661653651,
			"-0.002": 9.82929984682,
			"-0.001": 8.34734683114,
			"0.0": 11.7264187291,
			"0.001": 12.0852504962,
			"0.002": 16.2886402655,
			"0.003": 21.6190874544,
			"0.004": 21.1298367148,
			"0.005": 17.5212034889,
			"0.006": 7.09098609941,
			"0.007": 2.75388075772,
			"0.008": 3.24336463838,
			"0.009": 2.68317280515,
			"0.01": 1.5461232442,
			"0.011": 1.88450435853,
			"0.012": 1.3330093234,
			"0.013": 1.40583732777,
			"0.014": 0.433878622451,
			"0.015": 0.00943780964381,
			"0.016": 0.0,
			"0.017": 0.0,
			"0.018": 0.0,
			"0.019": 0.0,
			"0.02": 0.0,
			"0.021": 0.0,
			"0.022": 0.0,
			"0.023": 0.0,
			"0.024": 0.0,
			"0.025": 0.0
		}
	}
}
