{
	 "smiles": "CCOC(=O)CCCCCCCCCCCCC(=O)OCC", 
	 "Tm": 302.65, 
	 "num_atms": 56, 
	 "gaussian": { 
		 "optdone": 1, 
		 "sigma_profile": "yes", 
		 "theory": "DFT", 
		 "functional": "B3LYP", 
		 "basiset": "6-31G**", 
		 "properties": { 
			 "R2extent": 9498.6285, 
			 "electric_dipole_moment_norm": 0.976831095942, 
			 "electric_quadrupole_moment_norm": 12.3562463216, 
			 "total_energy": -1007.37028814, 
			 "HOMO_LUMO_gap": 0.2744, 
			 "cosmo_polarized_energy": -10.31, 
			 "cosmo_cavitation_energy": 55.06, 
			 "cosmo_dispersion_energy": -34.41, 
			 "cosmo_repulsion_energy": 2.76, 
			 "cosmo_total_nonelectrostatic_energy": 23.41, 
			 "SMD_solvation_energy": 9.12 
		},
		"coords": [
			{
				"x": 6.0694382889,
				"y": -1.5306220633,
				"z": 1.7857053194,
				"element": "C" 
			},
			{
				"x": 4.8963911221,
				"y": -1.06741177,
				"z": 0.9426014402,
				"element": "C" 
			},
			{
				"x": 4.0074492323,
				"y": -0.323510869,
				"z": 1.8056140729,
				"element": "O" 
			},
			{
				"x": 2.8869225832,
				"y": 0.16619202,
				"z": 1.2271680127,
				"element": "C" 
			},
			{
				"x": 2.6357159091,
				"y": 0.0072003135,
				"z": 0.0477224853,
				"element": "O" 
			},
			{
				"x": 2.0233457317,
				"y": 0.900472025,
				"z": 2.2319341055,
				"element": "C" 
			},
			{
				"x": 1.4611724019,
				"y": -0.0423129516,
				"z": 3.3219581479,
				"element": "C" 
			},
			{
				"x": 0.3874037302,
				"y": -1.0143012421,
				"z": 2.8001414639,
				"element": "C" 
			},
			{
				"x": -0.9939762662,
				"y": -0.358275899,
				"z": 2.6383581003,
				"element": "C" 
			},
			{
				"x": -2.0131931373,
				"y": -1.1876813767,
				"z": 1.8396268284,
				"element": "C" 
			},
			{
				"x": -1.6334137437,
				"y": -1.3381638026,
				"z": 0.3572424006,
				"element": "C" 
			},
			{
				"x": -2.7951886526,
				"y": -1.7764494292,
				"z": -0.5421739259,
				"element": "C" 
			},
			{
				"x": -2.4479501542,
				"y": -1.8756011465,
				"z": -2.0394854938,
				"element": "C" 
			},
			{
				"x": -1.8958826089,
				"y": -0.5690853467,
				"z": -2.6602516817,
				"element": "C" 
			},
			{
				"x": -0.3620634911,
				"y": -0.5426001781,
				"z": -2.7992254271,
				"element": "C" 
			},
			{
				"x": 0.2291985736,
				"y": 0.8047689816,
				"z": -3.2618518874,
				"element": "C" 
			},
			{
				"x": 0.570866665,
				"y": 1.790168113,
				"z": -2.1225388079,
				"element": "C" 
			},
			{
				"x": -0.6036880513,
				"y": 2.3452815918,
				"z": -1.346982716,
				"element": "C" 
			},
			{
				"x": -0.7472361126,
				"y": 2.2748934483,
				"z": -0.1398403716,
				"element": "O" 
			},
			{
				"x": -1.4870256749,
				"y": 2.9723092003,
				"z": -2.159965225,
				"element": "O" 
			},
			{
				"x": -2.6429403373,
				"y": 3.57273789,
				"z": -1.5302364485,
				"element": "C" 
			},
			{
				"x": -2.3334942881,
				"y": 4.9751168528,
				"z": -1.0274445389,
				"element": "C" 
			},
			{
				"x": 5.7329899633,
				"y": -2.1726634188,
				"z": 2.6049187854,
				"element": "H" 
			},
			{
				"x": 6.770081239,
				"y": -2.1004331145,
				"z": 1.1673060936,
				"element": "H" 
			},
			{
				"x": 6.6038597647,
				"y": -0.6780483286,
				"z": 2.2146455137,
				"element": "H" 
			},
			{
				"x": 4.3462616821,
				"y": -1.9071785814,
				"z": 0.5060463417,
				"element": "H" 
			},
			{
				"x": 5.2126731339,
				"y": -0.4204179238,
				"z": 0.1180332279,
				"element": "H" 
			},
			{
				"x": 2.6431488521,
				"y": 1.670363331,
				"z": 2.7059746357,
				"element": "H" 
			},
			{
				"x": 1.2236970128,
				"y": 1.3948810228,
				"z": 1.6747897031,
				"element": "H" 
			},
			{
				"x": 2.2975760333,
				"y": -0.5972404164,
				"z": 3.7602366185,
				"element": "H" 
			},
			{
				"x": 1.0382842191,
				"y": 0.5713746204,
				"z": 4.1272752683,
				"element": "H" 
			},
			{
				"x": 0.3003846459,
				"y": -1.8653572285,
				"z": 3.4884044053,
				"element": "H" 
			},
			{
				"x": 0.7204850991,
				"y": -1.4326394968,
				"z": 1.8420927995,
				"element": "H" 
			},
			{
				"x": -1.3958360398,
				"y": -0.1458590325,
				"z": 3.6386930049,
				"element": "H" 
			},
			{
				"x": -0.8868715732,
				"y": 0.6123080308,
				"z": 2.1377501772,
				"element": "H" 
			},
			{
				"x": -2.1489759732,
				"y": -2.1766376998,
				"z": 2.3007368703,
				"element": "H" 
			},
			{
				"x": -2.9888986447,
				"y": -0.686898353,
				"z": 1.9043875452,
				"element": "H" 
			},
			{
				"x": -1.254396696,
				"y": -0.3705662367,
				"z": 0.0102551113,
				"element": "H" 
			},
			{
				"x": -0.8042518005,
				"y": -2.0498917218,
				"z": 0.2489526865,
				"element": "H" 
			},
			{
				"x": -3.6215187515,
				"y": -1.0605015182,
				"z": -0.4215104777,
				"element": "H" 
			},
			{
				"x": -3.1839334781,
				"y": -2.7456509263,
				"z": -0.1995525848,
				"element": "H" 
			},
			{
				"x": -3.3540340926,
				"y": -2.1819909498,
				"z": -2.5767258921,
				"element": "H" 
			},
			{
				"x": -1.7216882571,
				"y": -2.6858977948,
				"z": -2.1946095419,
				"element": "H" 
			},
			{
				"x": -2.3256896686,
				"y": -0.4231482103,
				"z": -3.6596999959,
				"element": "H" 
			},
			{
				"x": -2.2421708097,
				"y": 0.2862252567,
				"z": -2.0669262444,
				"element": "H" 
			},
			{
				"x": 0.1135432138,
				"y": -0.8335049173,
				"z": -1.8551043394,
				"element": "H" 
			},
			{
				"x": -0.0821326668,
				"y": -1.3185789814,
				"z": -3.5240328315,
				"element": "H" 
			},
			{
				"x": 1.1675674996,
				"y": 0.614437696,
				"z": -3.7954641251,
				"element": "H" 
			},
			{
				"x": -0.4426490724,
				"y": 1.2887175484,
				"z": -3.9809241703,
				"element": "H" 
			},
			{
				"x": 1.2401295046,
				"y": 1.317187436,
				"z": -1.3999912192,
				"element": "H" 
			},
			{
				"x": 1.0923293792,
				"y": 2.6540206874,
				"z": -2.5556083089,
				"element": "H" 
			},
			{
				"x": -3.4037150302,
				"y": 3.5881749747,
				"z": -2.314586862,
				"element": "H" 
			},
			{
				"x": -2.9762756605,
				"y": 2.9278191067,
				"z": -0.7135945293,
				"element": "H" 
			},
			{
				"x": -3.2422564215,
				"y": 5.4366692149,
				"z": -0.6265916272,
				"element": "H" 
			},
			{
				"x": -1.5868258621,
				"y": 4.9396898579,
				"z": -0.2304410577,
				"element": "H" 
			},
			{
				"x": -1.9573424641,
				"y": 5.6056117054,
				"z": -1.8386108336,
				"element": "H" 
			}
		],
		 "valence_orbital": [ 
			{
				"type": "occ",
				"energy": -0.2929,
				"method": "rhf"
			},
			{
				"type": "occ",
				"energy": -0.28865,
				"method": "rhf"
			},
			{
				"type": "occ",
				"energy": -0.2876,
				"method": "rhf"
			},
			{
				"type": "occ",
				"energy": -0.26173,
				"method": "rhf"
			},
			{
				"type": "occ",
				"energy": -0.2598,
				"method": "rhf"
			},
			{
				"type": "unocc",
				"energy": 0.0146,
				"method": "rhf"
			},
			{
				"type": "unocc",
				"energy": 0.01622,
				"method": "rhf"
			},
			{
				"type": "unocc",
				"energy": 0.08984,
				"method": "rhf"
			},
			{
				"type": "unocc",
				"energy": 0.09692,
				"method": "rhf"
			},
			{
				"type": "unocc",
				"energy": 0.10684,
				"method": "rhf"
			}
		],
		"cosmo_sigma_profile": { 
			"-0.025": 0.0,
			"-0.024": 0.0,
			"-0.023": 0.0,
			"-0.022": 0.0,
			"-0.021": 0.0,
			"-0.02": 0.0,
			"-0.019": 0.0,
			"-0.018": 0.0,
			"-0.017": 0.0,
			"-0.016": 0.0,
			"-0.015": 0.0,
			"-0.014": 0.0,
			"-0.013": 0.0,
			"-0.012": 0.0,
			"-0.011": 0.0,
			"-0.01": 0.0,
			"-0.009": 0.0,
			"-0.008": 0.0,
			"-0.007": 0.0,
			"-0.006": 2.04901703399,
			"-0.005": 13.2308024917,
			"-0.004": 26.3696664609,
			"-0.003": 37.5134461301,
			"-0.002": 57.2780906925,
			"-0.001": 73.6141982455,
			"0.0": 72.4024940907,
			"0.001": 47.5994318482,
			"0.002": 24.920132713,
			"0.003": 12.8487746478,
			"0.004": 12.4171693651,
			"0.005": 13.2768561715,
			"0.006": 10.4250455446,
			"0.007": 6.65110812406,
			"0.008": 5.47770635689,
			"0.009": 3.19141102801,
			"0.01": 2.64934124153,
			"0.011": 2.08869165686,
			"0.012": 0.985524884857,
			"0.013": 0.0720667402218,
			"0.014": 0.0,
			"0.015": 0.0,
			"0.016": 0.0,
			"0.017": 0.0,
			"0.018": 0.0,
			"0.019": 0.0,
			"0.02": 0.0,
			"0.021": 0.0,
			"0.022": 0.0,
			"0.023": 0.0,
			"0.024": 0.0,
			"0.025": 0.0
		}
	}
}
