{
	 "smiles": "NC1=C(Cl)C=C(C=C1Cl)C(F)(F)F", 
	 "Tm": 309.15, 
	 "num_atms": 17, 
	 "gaussian": { 
		 "optdone": 1, 
		 "sigma_profile": "yes", 
		 "theory": "DFT", 
		 "functional": "B3LYP", 
		 "basiset": "6-31G**", 
		 "properties": { 
			 "R2extent": 4247.3058, 
			 "electric_dipole_moment_norm": 3.00951584478, 
			 "electric_quadrupole_moment_norm": 5.41603261715, 
			 "total_energy": -1543.82637176, 
			 "HOMO_LUMO_gap": 0.19895, 
			 "cosmo_polarized_energy": -6.23, 
			 "cosmo_cavitation_energy": 26.24, 
			 "cosmo_dispersion_energy": -19.32, 
			 "cosmo_repulsion_energy": 1.47, 
			 "cosmo_total_nonelectrostatic_energy": 8.4, 
			 "SMD_solvation_energy": 5.02 
		},
		"coords": [
			{
				"x": -0.9855204747,
				"y": 1.2254051012,
				"z": 1.997025438,
				"element": "N" 
			},
			{
				"x": 0.0680654406,
				"y": 0.7451226822,
				"z": 1.2694837553,
				"element": "C" 
			},
			{
				"x": -0.0878145743,
				"y": 0.255717925,
				"z": -0.0481465483,
				"element": "C" 
			},
			{
				"x": -1.7076120679,
				"y": 0.2050404323,
				"z": -0.7343847954,
				"element": "Cl" 
			},
			{
				"x": 0.9806703205,
				"y": -0.1909169372,
				"z": -0.8104394863,
				"element": "C" 
			},
			{
				"x": 2.2696527377,
				"y": -0.1694059865,
				"z": -0.2745626014,
				"element": "C" 
			},
			{
				"x": 2.4714523833,
				"y": 0.2990646918,
				"z": 1.0250190195,
				"element": "C" 
			},
			{
				"x": 1.390158019,
				"y": 0.7415127296,
				"z": 1.7715128744,
				"element": "C" 
			},
			{
				"x": 1.6617679546,
				"y": 1.3125403178,
				"z": 3.4138704869,
				"element": "Cl" 
			},
			{
				"x": 3.4409901055,
				"y": -0.5918776374,
				"z": -1.1130288694,
				"element": "C" 
			},
			{
				"x": 3.9632559232,
				"y": 0.4430637586,
				"z": -1.8127014517,
				"element": "F" 
			},
			{
				"x": 3.094591976,
				"y": -1.5362936358,
				"z": -2.0161671724,
				"element": "F" 
			},
			{
				"x": 4.4422617141,
				"y": -1.0940860778,
				"z": -0.3561756677,
				"element": "F" 
			},
			{
				"x": -1.9146811278,
				"y": 0.9894958434,
				"z": 1.6849650826,
				"element": "H" 
			},
			{
				"x": -0.8544849027,
				"y": 1.3378814275,
				"z": 2.990280982,
				"element": "H" 
			},
			{
				"x": 0.8063076208,
				"y": -0.5633905365,
				"z": -1.8125374445,
				"element": "H" 
			},
			{
				"x": 3.4637389522,
				"y": 0.3100259019,
				"z": 1.4592863984,
				"element": "H" 
			}
		],
		 "valence_orbital": [ 
			{
				"type": "occ",
				"energy": -0.33857,
				"method": "rhf"
			},
			{
				"type": "occ",
				"energy": -0.33522,
				"method": "rhf"
			},
			{
				"type": "occ",
				"energy": -0.33189,
				"method": "rhf"
			},
			{
				"type": "occ",
				"energy": -0.2634,
				"method": "rhf"
			},
			{
				"type": "occ",
				"energy": -0.23135,
				"method": "rhf"
			},
			{
				"type": "unocc",
				"energy": -0.0324,
				"method": "rhf"
			},
			{
				"type": "unocc",
				"energy": -0.02609,
				"method": "rhf"
			},
			{
				"type": "unocc",
				"energy": -0.00413,
				"method": "rhf"
			},
			{
				"type": "unocc",
				"energy": 0.03763,
				"method": "rhf"
			},
			{
				"type": "unocc",
				"energy": 0.07925,
				"method": "rhf"
			}
		],
		"cosmo_sigma_profile": { 
			"-0.025": 0.0,
			"-0.024": 0.0,
			"-0.023": 0.0,
			"-0.022": 0.0,
			"-0.021": 0.0,
			"-0.02": 0.0,
			"-0.019": 0.0,
			"-0.018": 0.0,
			"-0.017": 0.0,
			"-0.016": 0.0,
			"-0.015": 0.0,
			"-0.014": 0.213920204638,
			"-0.013": 1.10974384178,
			"-0.012": 1.89131709239,
			"-0.011": 2.26357752265,
			"-0.01": 2.01856148837,
			"-0.009": 1.37112694447,
			"-0.008": 4.01613886265,
			"-0.007": 4.699816772,
			"-0.006": 5.07681596616,
			"-0.005": 6.17874555799,
			"-0.004": 6.18699629374,
			"-0.003": 8.2134879603,
			"-0.002": 11.0898458421,
			"-0.001": 13.7281377202,
			"0.0": 23.4054641057,
			"0.001": 33.3381014778,
			"0.002": 32.1794789269,
			"0.003": 38.5070111487,
			"0.004": 14.789142174,
			"0.005": 2.70921094145,
			"0.006": 0.472300269034,
			"0.007": 0.61226621557,
			"0.008": 0.396810082733,
			"0.009": 0.846171593732,
			"0.01": 0.0559629889791,
			"0.011": 0.0,
			"0.012": 0.0,
			"0.013": 0.0,
			"0.014": 0.0,
			"0.015": 0.0,
			"0.016": 0.0,
			"0.017": 0.0,
			"0.018": 0.0,
			"0.019": 0.0,
			"0.02": 0.0,
			"0.021": 0.0,
			"0.022": 0.0,
			"0.023": 0.0,
			"0.024": 0.0,
			"0.025": 0.0
		}
	}
}
