{
	 "smiles": "CC(CC(O)=O)C1=CC(F)=CC=C1", 
	 "Tm": 307.15, 
	 "num_atms": 24, 
	 "gaussian": { 
		 "optdone": 1, 
		 "sigma_profile": "yes", 
		 "theory": "DFT", 
		 "functional": "B3LYP", 
		 "basiset": "6-31G**", 
		 "properties": { 
			 "R2extent": 3462.4327, 
			 "electric_dipole_moment_norm": 4.1293116436, 
			 "electric_quadrupole_moment_norm": 13.1790843358, 
			 "total_energy": -637.992543607, 
			 "HOMO_LUMO_gap": 0.23225, 
			 "cosmo_polarized_energy": -15.39, 
			 "cosmo_cavitation_energy": 28.36, 
			 "cosmo_dispersion_energy": -19.91, 
			 "cosmo_repulsion_energy": 1.57, 
			 "cosmo_total_nonelectrostatic_energy": 10.03, 
			 "SMD_solvation_energy": 6.48 
		},
		"coords": [
			{
				"x": -1.4850732693,
				"y": -0.4168158558,
				"z": -0.0866633239,
				"element": "C" 
			},
			{
				"x": -0.083339597,
				"y": -0.1715314123,
				"z": 0.5006058072,
				"element": "C" 
			},
			{
				"x": 0.8675253449,
				"y": -1.3515255172,
				"z": 0.2115115242,
				"element": "C" 
			},
			{
				"x": 0.5107493022,
				"y": -2.6215201812,
				"z": 0.9778051257,
				"element": "C" 
			},
			{
				"x": 1.2090472439,
				"y": -3.7316153367,
				"z": 0.6143391168,
				"element": "O" 
			},
			{
				"x": -0.30023701,
				"y": -2.6877109187,
				"z": 1.8675538196,
				"element": "O" 
			},
			{
				"x": 0.5237984155,
				"y": 1.1395294485,
				"z": 0.0199312445,
				"element": "C" 
			},
			{
				"x": 0.8890608333,
				"y": 2.1216086755,
				"z": 0.9483113906,
				"element": "C" 
			},
			{
				"x": 1.449404225,
				"y": 3.3145596332,
				"z": 0.50443853,
				"element": "C" 
			},
			{
				"x": 1.7919987621,
				"y": 4.2481215439,
				"z": 1.4175241092,
				"element": "F" 
			},
			{
				"x": 1.6683154946,
				"y": 3.5769808452,
				"z": -0.8417863095,
				"element": "C" 
			},
			{
				"x": 1.3047532029,
				"y": 2.5965668233,
				"z": -1.7668600586,
				"element": "C" 
			},
			{
				"x": 0.739443115,
				"y": 1.3932498817,
				"z": -1.3440385044,
				"element": "C" 
			},
			{
				"x": -2.1515890432,
				"y": 0.4179345298,
				"z": 0.1485401881,
				"element": "H" 
			},
			{
				"x": -1.4514413567,
				"y": -0.5181403721,
				"z": -1.1773068565,
				"element": "H" 
			},
			{
				"x": -1.916877561,
				"y": -1.3284902762,
				"z": 0.3330346739,
				"element": "H" 
			},
			{
				"x": -0.1866215985,
				"y": -0.1182918327,
				"z": 1.5895669121,
				"element": "H" 
			},
			{
				"x": 1.8955868329,
				"y": -1.0824092801,
				"z": 0.4905555097,
				"element": "H" 
			},
			{
				"x": 0.8922907589,
				"y": -1.5742603309,
				"z": -0.8641959366,
				"element": "H" 
			},
			{
				"x": 1.8203127301,
				"y": -3.5221777864,
				"z": -0.1062306954,
				"element": "H" 
			},
			{
				"x": 0.7402544991,
				"y": 1.9722781379,
				"z": 2.0132163004,
				"element": "H" 
			},
			{
				"x": 2.1073524741,
				"y": 4.5213712429,
				"z": -1.1439109607,
				"element": "H" 
			},
			{
				"x": 1.4632477363,
				"y": 2.7767338482,
				"z": -2.8261490958,
				"element": "H" 
			},
			{
				"x": 0.4594384648,
				"y": 0.64945449,
				"z": -2.0844925105,
				"element": "H" 
			}
		],
		 "valence_orbital": [ 
			{
				"type": "occ",
				"energy": -0.33497,
				"method": "rhf"
			},
			{
				"type": "occ",
				"energy": -0.31929,
				"method": "rhf"
			},
			{
				"type": "occ",
				"energy": -0.27721,
				"method": "rhf"
			},
			{
				"type": "occ",
				"energy": -0.25889,
				"method": "rhf"
			},
			{
				"type": "occ",
				"energy": -0.24571,
				"method": "rhf"
			},
			{
				"type": "unocc",
				"energy": -0.01346,
				"method": "rhf"
			},
			{
				"type": "unocc",
				"energy": -0.00485,
				"method": "rhf"
			},
			{
				"type": "unocc",
				"energy": 0.00562,
				"method": "rhf"
			},
			{
				"type": "unocc",
				"energy": 0.05116,
				"method": "rhf"
			},
			{
				"type": "unocc",
				"energy": 0.07805,
				"method": "rhf"
			}
		],
		"cosmo_sigma_profile": { 
			"-0.025": 0.0,
			"-0.024": 0.0,
			"-0.023": 0.0,
			"-0.022": 0.0,
			"-0.021": 0.0,
			"-0.02": 0.0,
			"-0.019": 0.597266616549,
			"-0.018": 0.974689151966,
			"-0.017": 0.721549930672,
			"-0.016": 1.5811369465,
			"-0.015": 1.04753327702,
			"-0.014": 1.23106607596,
			"-0.013": 0.9295064558,
			"-0.012": 0.872880972026,
			"-0.011": 1.07397676527,
			"-0.01": 1.92697536798,
			"-0.009": 0.948717488855,
			"-0.008": 2.05876891677,
			"-0.007": 5.88006280422,
			"-0.006": 13.4423906084,
			"-0.005": 12.410840429,
			"-0.004": 14.6231250599,
			"-0.003": 13.7237779093,
			"-0.002": 13.4538097282,
			"-0.001": 15.1814513341,
			"0.0": 14.0564753937,
			"0.001": 19.6782555239,
			"0.002": 14.1404402769,
			"0.003": 12.8155439599,
			"0.004": 19.3392878132,
			"0.005": 14.0295212276,
			"0.006": 2.6616233045,
			"0.007": 2.49783294128,
			"0.008": 2.7919946561,
			"0.009": 3.39413260613,
			"0.01": 4.42549018425,
			"0.011": 5.19071641047,
			"0.012": 4.68122221127,
			"0.013": 1.77041154805,
			"0.014": 0.0522804524562,
			"0.015": 0.0,
			"0.016": 0.0,
			"0.017": 0.0,
			"0.018": 0.0,
			"0.019": 0.0,
			"0.02": 0.0,
			"0.021": 0.0,
			"0.022": 0.0,
			"0.023": 0.0,
			"0.024": 0.0,
			"0.025": 0.0
		}
	}
}
