{
	 "smiles": "CC1=CC2=C(C=C1)C(CCl)=CC(=O)O2", 
	 "Tm": 444.15, 
	 "num_atms": 23, 
	 "gaussian": { 
		 "optdone": 1, 
		 "sigma_profile": "yes", 
		 "theory": "DFT", 
		 "functional": "B3LYP", 
		 "basiset": "6-31G**", 
		 "properties": { 
			 "R2extent": 4770.507, 
			 "electric_dipole_moment_norm": 4.60152805164, 
			 "electric_quadrupole_moment_norm": 10.8173400048, 
			 "total_energy": -1035.24996275, 
			 "HOMO_LUMO_gap": 0.16048, 
			 "cosmo_polarized_energy": -12.61, 
			 "cosmo_cavitation_energy": 28.85, 
			 "cosmo_dispersion_energy": -21.23, 
			 "cosmo_repulsion_energy": 1.66, 
			 "cosmo_total_nonelectrostatic_energy": 9.28, 
			 "SMD_solvation_energy": 5.75 
		},
		"coords": [
			{
				"x": 0.077203377,
				"y": 2.8512203722,
				"z": -3.4829174152,
				"element": "C" 
			},
			{
				"x": -0.6244553432,
				"y": 1.9713834186,
				"z": -2.4778541697,
				"element": "C" 
			},
			{
				"x": 0.0940185452,
				"y": 1.1054699678,
				"z": -1.6566275606,
				"element": "C" 
			},
			{
				"x": -0.5714358628,
				"y": 0.2942239991,
				"z": -0.7346239518,
				"element": "C" 
			},
			{
				"x": -1.9726662605,
				"y": 0.3230153751,
				"z": -0.6019320358,
				"element": "C" 
			},
			{
				"x": -2.6872043518,
				"y": 1.2024167271,
				"z": -1.4411638443,
				"element": "C" 
			},
			{
				"x": -2.0287085619,
				"y": 2.0072839934,
				"z": -2.3556308924,
				"element": "C" 
			},
			{
				"x": -2.5695476878,
				"y": -0.5457018413,
				"z": 0.3974350487,
				"element": "C" 
			},
			{
				"x": -4.0521977991,
				"y": -0.5468295527,
				"z": 0.6413535506,
				"element": "C" 
			},
			{
				"x": -4.9768555366,
				"y": -1.3666832605,
				"z": -0.7030072991,
				"element": "Cl" 
			},
			{
				"x": -1.7685638979,
				"y": -1.3452851762,
				"z": 1.1460959915,
				"element": "C" 
			},
			{
				"x": -0.3183631165,
				"y": -1.3757421766,
				"z": 0.9952700051,
				"element": "C" 
			},
			{
				"x": 0.4453844956,
				"y": -2.0654251351,
				"z": 1.6287660415,
				"element": "O" 
			},
			{
				"x": 0.2102757594,
				"y": -0.5217987173,
				"z": 0.0320322631,
				"element": "O" 
			},
			{
				"x": 1.1622045913,
				"y": 2.7313964227,
				"z": -3.434170891,
				"element": "H" 
			},
			{
				"x": -0.2429737889,
				"y": 2.6137580396,
				"z": -4.50391513,
				"element": "H" 
			},
			{
				"x": -0.1550459954,
				"y": 3.9083390672,
				"z": -3.3115361617,
				"element": "H" 
			},
			{
				"x": 1.175811535,
				"y": 1.0412010764,
				"z": -1.7123040071,
				"element": "H" 
			},
			{
				"x": -3.7696287538,
				"y": 1.2362991974,
				"z": -1.3826597987,
				"element": "H" 
			},
			{
				"x": -2.6027287224,
				"y": 2.6742657663,
				"z": -2.9926943518,
				"element": "H" 
			},
			{
				"x": -4.2967686319,
				"y": -1.0912228195,
				"z": 1.5522439902,
				"element": "H" 
			},
			{
				"x": -4.4538644652,
				"y": 0.4652906296,
				"z": 0.7077700735,
				"element": "H" 
			},
			{
				"x": -2.1664895279,
				"y": -2.0106753731,
				"z": 1.903870545,
				"element": "H" 
			}
		],
		 "valence_orbital": [ 
			{
				"type": "occ",
				"energy": -0.3105,
				"method": "rhf"
			},
			{
				"type": "occ",
				"energy": -0.30657,
				"method": "rhf"
			},
			{
				"type": "occ",
				"energy": -0.2761,
				"method": "rhf"
			},
			{
				"type": "occ",
				"energy": -0.25849,
				"method": "rhf"
			},
			{
				"type": "occ",
				"energy": -0.23837,
				"method": "rhf"
			},
			{
				"type": "unocc",
				"energy": -0.07789,
				"method": "rhf"
			},
			{
				"type": "unocc",
				"energy": -0.01814,
				"method": "rhf"
			},
			{
				"type": "unocc",
				"energy": -0.01316,
				"method": "rhf"
			},
			{
				"type": "unocc",
				"energy": 0.02735,
				"method": "rhf"
			},
			{
				"type": "unocc",
				"energy": 0.07301,
				"method": "rhf"
			}
		],
		"cosmo_sigma_profile": { 
			"-0.025": 0.0,
			"-0.024": 0.0,
			"-0.023": 0.0,
			"-0.022": 0.0,
			"-0.021": 0.0,
			"-0.02": 0.0,
			"-0.019": 0.0,
			"-0.018": 0.0,
			"-0.017": 0.0,
			"-0.016": 0.0,
			"-0.015": 0.0,
			"-0.014": 0.0,
			"-0.013": 0.0,
			"-0.012": 0.0,
			"-0.011": 0.0,
			"-0.01": 0.397786074579,
			"-0.009": 5.21662569606,
			"-0.008": 6.96746050937,
			"-0.007": 7.18506609074,
			"-0.006": 10.5478225942,
			"-0.005": 16.0635342514,
			"-0.004": 16.5600537173,
			"-0.003": 16.1819211675,
			"-0.002": 16.2877269867,
			"-0.001": 19.6826636297,
			"0.0": 19.4244607856,
			"0.001": 15.7356723222,
			"0.002": 15.2597159681,
			"0.003": 16.2671956584,
			"0.004": 11.6528857463,
			"0.005": 9.50868817154,
			"0.006": 7.88971813671,
			"0.007": 2.21132831115,
			"0.008": 2.76162400947,
			"0.009": 2.11972725606,
			"0.01": 2.95556141621,
			"0.011": 3.99639712227,
			"0.012": 5.89581036865,
			"0.013": 2.15699598974,
			"0.014": 0.0190448240262,
			"0.015": 0.0,
			"0.016": 0.0,
			"0.017": 0.0,
			"0.018": 0.0,
			"0.019": 0.0,
			"0.02": 0.0,
			"0.021": 0.0,
			"0.022": 0.0,
			"0.023": 0.0,
			"0.024": 0.0,
			"0.025": 0.0
		}
	}
}
