{
	 "smiles": "CCOC(=O)C1C(C)=NN=C1N", 
	 "Tm": 328.15, 
	 "num_atms": 23, 
	 "gaussian": { 
		 "optdone": 1, 
		 "sigma_profile": "yes", 
		 "theory": "DFT", 
		 "functional": "B3LYP", 
		 "basiset": "6-31G**", 
		 "properties": { 
			 "R2extent": 3633.1562, 
			 "electric_dipole_moment_norm": 5.33151450715, 
			 "electric_quadrupole_moment_norm": 18.7955953181, 
			 "total_energy": -588.052111112, 
			 "HOMO_LUMO_gap": 0.18885, 
			 "cosmo_polarized_energy": -18.14, 
			 "cosmo_cavitation_energy": 26.92, 
			 "cosmo_dispersion_energy": -19.35, 
			 "cosmo_repulsion_energy": 1.58, 
			 "cosmo_total_nonelectrostatic_energy": 9.16, 
			 "SMD_solvation_energy": 3.75 
		},
		"coords": [
			{
				"x": 0.5259124724,
				"y": 1.9813081637,
				"z": -0.6401032777,
				"element": "C" 
			},
			{
				"x": 1.5629165621,
				"y": 0.8870515709,
				"z": -0.4845977734,
				"element": "C" 
			},
			{
				"x": 0.8826062309,
				"y": -0.2870063154,
				"z": 0.0400965081,
				"element": "O" 
			},
			{
				"x": 1.64671251,
				"y": -1.3626092751,
				"z": 0.2550205215,
				"element": "C" 
			},
			{
				"x": 2.8429645984,
				"y": -1.4000856881,
				"z": 0.0339924427,
				"element": "O" 
			},
			{
				"x": 0.8667983476,
				"y": -2.5639936525,
				"z": 0.7760980432,
				"element": "C" 
			},
			{
				"x": -0.4632603709,
				"y": -2.3896109911,
				"z": 1.487343674,
				"element": "C" 
			},
			{
				"x": -1.6951290204,
				"y": -1.751485464,
				"z": 0.9311339453,
				"element": "C" 
			},
			{
				"x": -0.4399134793,
				"y": -2.9545915202,
				"z": 2.6459333964,
				"element": "N" 
			},
			{
				"x": 0.845654923,
				"y": -3.5193149025,
				"z": 2.9121081936,
				"element": "N" 
			},
			{
				"x": 1.5986287128,
				"y": -3.3114194432,
				"z": 1.8774976714,
				"element": "C" 
			},
			{
				"x": 2.880320406,
				"y": -3.7514187838,
				"z": 1.7335932156,
				"element": "N" 
			},
			{
				"x": -0.2635749208,
				"y": 1.679179147,
				"z": -1.3340036489,
				"element": "H" 
			},
			{
				"x": 0.0678830122,
				"y": 2.2272309445,
				"z": 0.321978625,
				"element": "H" 
			},
			{
				"x": 1.0021771997,
				"y": 2.8841807144,
				"z": -1.0343457284,
				"element": "H" 
			},
			{
				"x": 2.3587601951,
				"y": 1.1641743129,
				"z": 0.2124521134,
				"element": "H" 
			},
			{
				"x": 2.0311501151,
				"y": 0.6185362157,
				"z": -1.436109904,
				"element": "H" 
			},
			{
				"x": 0.739314259,
				"y": -3.2339299995,
				"z": -0.0873908076,
				"element": "H" 
			},
			{
				"x": -2.5084316566,
				"y": -1.864793426,
				"z": 1.6505649088,
				"element": "H" 
			},
			{
				"x": -1.5373384415,
				"y": -0.6885718525,
				"z": 0.7261793295,
				"element": "H" 
			},
			{
				"x": -1.9943680876,
				"y": -2.221071974,
				"z": -0.0144285851,
				"element": "H" 
			},
			{
				"x": 3.4550090524,
				"y": -3.192860396,
				"z": 1.1134599589,
				"element": "H" 
			},
			{
				"x": 3.3193073804,
				"y": -4.069197385,
				"z": 2.5873271778,
				"element": "H" 
			}
		],
		 "valence_orbital": [ 
			{
				"type": "occ",
				"energy": -0.31839,
				"method": "rhf"
			},
			{
				"type": "occ",
				"energy": -0.30229,
				"method": "rhf"
			},
			{
				"type": "occ",
				"energy": -0.27522,
				"method": "rhf"
			},
			{
				"type": "occ",
				"energy": -0.24468,
				"method": "rhf"
			},
			{
				"type": "occ",
				"energy": -0.21428,
				"method": "rhf"
			},
			{
				"type": "unocc",
				"energy": -0.02543,
				"method": "rhf"
			},
			{
				"type": "unocc",
				"energy": -0.00802,
				"method": "rhf"
			},
			{
				"type": "unocc",
				"energy": 0.06701,
				"method": "rhf"
			},
			{
				"type": "unocc",
				"energy": 0.08027,
				"method": "rhf"
			},
			{
				"type": "unocc",
				"energy": 0.09611,
				"method": "rhf"
			}
		],
		"cosmo_sigma_profile": { 
			"-0.025": 0.0,
			"-0.024": 0.0,
			"-0.023": 0.0,
			"-0.022": 0.0,
			"-0.021": 0.0,
			"-0.02": 0.0,
			"-0.019": 0.0,
			"-0.018": 0.0,
			"-0.017": 0.0,
			"-0.016": 0.0,
			"-0.015": 0.0,
			"-0.014": 0.564931697834,
			"-0.013": 1.37079412694,
			"-0.012": 0.857989884264,
			"-0.011": 2.3808065754,
			"-0.01": 5.74452288409,
			"-0.009": 3.9649315527,
			"-0.008": 2.72444410136,
			"-0.007": 3.61899293302,
			"-0.006": 8.19633577384,
			"-0.005": 14.9527883047,
			"-0.004": 21.4163435926,
			"-0.003": 19.8267969655,
			"-0.002": 17.1855820656,
			"-0.001": 20.6344143718,
			"0.0": 17.1389664631,
			"0.001": 9.3067708727,
			"0.002": 7.01350244399,
			"0.003": 5.14574490117,
			"0.004": 5.38165902469,
			"0.005": 4.28033788358,
			"0.006": 3.20465706492,
			"0.007": 4.62580865195,
			"0.008": 3.79014785059,
			"0.009": 4.09160052688,
			"0.01": 5.42574133658,
			"0.011": 3.10565681515,
			"0.012": 2.32126734668,
			"0.013": 2.92121481354,
			"0.014": 3.19472494984,
			"0.015": 3.12115155376,
			"0.016": 2.38818311816,
			"0.017": 2.01644807665,
			"0.018": 0.374380126419,
			"0.019": 0.0,
			"0.02": 0.0,
			"0.021": 0.0,
			"0.022": 0.0,
			"0.023": 0.0,
			"0.024": 0.0,
			"0.025": 0.0
		}
	}
}
