{
	 "smiles": "COC1=C(OC)C=C(C(F)=C1)[N+]([O-])=O", 
	 "Tm": 413.15, 
	 "num_atms": 22, 
	 "gaussian": { 
		 "optdone": 1, 
		 "sigma_profile": "yes", 
		 "theory": "DFT", 
		 "functional": "B3LYP", 
		 "basiset": "6-31G**", 
		 "properties": { 
			 "R2extent": 3703.7946, 
			 "electric_dipole_moment_norm": 6.40180249227, 
			 "electric_quadrupole_moment_norm": 15.513416752, 
			 "total_energy": -765.010654328, 
			 "HOMO_LUMO_gap": 0.15301, 
			 "cosmo_polarized_energy": -11.12, 
			 "cosmo_cavitation_energy": 27.36, 
			 "cosmo_dispersion_energy": -19.8, 
			 "cosmo_repulsion_energy": 1.54, 
			 "cosmo_total_nonelectrostatic_energy": 9.11, 
			 "SMD_solvation_energy": 9.07 
		},
		"coords": [
			{
				"x": 2.6773496464,
				"y": -1.8970521583,
				"z": 0.4471340442,
				"element": "C" 
			},
			{
				"x": 1.7760721044,
				"y": -2.082661827,
				"z": -0.6541457894,
				"element": "O" 
			},
			{
				"x": 0.9862826045,
				"y": -1.0719316407,
				"z": -1.0870947221,
				"element": "C" 
			},
			{
				"x": 0.3339803705,
				"y": -0.1266342579,
				"z": -0.2473843573,
				"element": "C" 
			},
			{
				"x": 0.5312691885,
				"y": -0.2532199561,
				"z": 1.0967694644,
				"element": "O" 
			},
			{
				"x": -0.1168311777,
				"y": 0.6749130913,
				"z": 1.9581959246,
				"element": "C" 
			},
			{
				"x": -0.4739728609,
				"y": 0.8418256365,
				"z": -0.8266867131,
				"element": "C" 
			},
			{
				"x": -0.6808162249,
				"y": 0.889500307,
				"z": -2.2124905133,
				"element": "C" 
			},
			{
				"x": -0.0607715717,
				"y": -0.0594337569,
				"z": -3.0322959532,
				"element": "C" 
			},
			{
				"x": -0.2119202473,
				"y": -0.0786696443,
				"z": -4.3584203671,
				"element": "F" 
			},
			{
				"x": 0.7670329895,
				"y": -1.0198051083,
				"z": -2.4642195036,
				"element": "C" 
			},
			{
				"x": -1.5553063685,
				"y": 1.9367179949,
				"z": -2.7315946468,
				"element": "N" 
			},
			{
				"x": -1.7562891983,
				"y": 1.9807061652,
				"z": -3.943342921,
				"element": "O" 
			},
			{
				"x": -2.0443486343,
				"y": 2.722473624,
				"z": -1.9131925364,
				"element": "O" 
			},
			{
				"x": 3.1816078306,
				"y": -0.9275806009,
				"z": 0.3842712051,
				"element": "H" 
			},
			{
				"x": 3.4143101449,
				"y": -2.6962208197,
				"z": 0.349240117,
				"element": "H" 
			},
			{
				"x": 2.1617340541,
				"y": -1.9767016795,
				"z": 1.4048059534,
				"element": "H" 
			},
			{
				"x": 0.1731784503,
				"y": 0.3941348038,
				"z": 2.9712583294,
				"element": "H" 
			},
			{
				"x": -1.2077120819,
				"y": 0.6147879405,
				"z": 1.8623515487,
				"element": "H" 
			},
			{
				"x": 0.2077287039,
				"y": 1.7034740171,
				"z": 1.7582441737,
				"element": "H" 
			},
			{
				"x": -0.9900054582,
				"y": 1.5832585058,
				"z": -0.2336197696,
				"element": "H" 
			},
			{
				"x": 1.2595277359,
				"y": -1.7434806367,
				"z": -3.1024829676,
				"element": "H" 
			}
		],
		 "valence_orbital": [ 
			{
				"type": "occ",
				"energy": -0.30103,
				"method": "rhf"
			},
			{
				"type": "occ",
				"energy": -0.29997,
				"method": "rhf"
			},
			{
				"type": "occ",
				"energy": -0.28125,
				"method": "rhf"
			},
			{
				"type": "occ",
				"energy": -0.2644,
				"method": "rhf"
			},
			{
				"type": "occ",
				"energy": -0.23507,
				"method": "rhf"
			},
			{
				"type": "unocc",
				"energy": -0.08206,
				"method": "rhf"
			},
			{
				"type": "unocc",
				"energy": -0.01557,
				"method": "rhf"
			},
			{
				"type": "unocc",
				"energy": 0.00935,
				"method": "rhf"
			},
			{
				"type": "unocc",
				"energy": 0.0627,
				"method": "rhf"
			},
			{
				"type": "unocc",
				"energy": 0.07929,
				"method": "rhf"
			}
		],
		"cosmo_sigma_profile": { 
			"-0.025": 0.0,
			"-0.024": 0.0,
			"-0.023": 0.0,
			"-0.022": 0.0,
			"-0.021": 0.0,
			"-0.02": 0.0,
			"-0.019": 0.0,
			"-0.018": 0.0,
			"-0.017": 0.0,
			"-0.016": 0.0,
			"-0.015": 0.0,
			"-0.014": 0.0,
			"-0.013": 0.0,
			"-0.012": 0.0,
			"-0.011": 0.0,
			"-0.01": 0.0,
			"-0.009": 0.333843619402,
			"-0.008": 1.99399298521,
			"-0.007": 5.64047792263,
			"-0.006": 14.9601553934,
			"-0.005": 18.024809967,
			"-0.004": 19.897231869,
			"-0.003": 18.3553575757,
			"-0.002": 14.8029665104,
			"-0.001": 20.5912406746,
			"0.0": 18.2356190916,
			"0.001": 14.0121167602,
			"0.002": 8.73851678686,
			"0.003": 11.9854732223,
			"0.004": 8.57501210488,
			"0.005": 7.15351963741,
			"0.006": 4.24828210267,
			"0.007": 6.94082143497,
			"0.008": 11.9633151358,
			"0.009": 7.51425546073,
			"0.01": 3.9826131377,
			"0.011": 0.742746361573,
			"0.012": 0.0,
			"0.013": 0.0,
			"0.014": 0.0,
			"0.015": 0.0,
			"0.016": 0.0,
			"0.017": 0.0,
			"0.018": 0.0,
			"0.019": 0.0,
			"0.02": 0.0,
			"0.021": 0.0,
			"0.022": 0.0,
			"0.023": 0.0,
			"0.024": 0.0,
			"0.025": 0.0
		}
	}
}
