{
	 "smiles": "OC1=NC(=CS1)C1=CC=C(Cl)C=C1", 
	 "Tm": 492.15, 
	 "num_atms": 19, 
	 "gaussian": { 
		 "optdone": 1, 
		 "sigma_profile": "yes", 
		 "theory": "DFT", 
		 "functional": "B3LYP", 
		 "basiset": "6-31G**", 
		 "properties": { 
			 "R2extent": 4911.1394, 
			 "electric_dipole_moment_norm": 1.62083745638, 
			 "electric_quadrupole_moment_norm": 12.6345342653, 
			 "total_energy": -1334.92387395, 
			 "HOMO_LUMO_gap": 0.17288, 
			 "cosmo_polarized_energy": -9.11, 
			 "cosmo_cavitation_energy": 27.35, 
			 "cosmo_dispersion_energy": -21.19, 
			 "cosmo_repulsion_energy": 1.61, 
			 "cosmo_total_nonelectrostatic_energy": 7.78, 
			 "SMD_solvation_energy": 3.59 
		},
		"coords": [
			{
				"x": -4.6727142638,
				"y": -0.0997572584,
				"z": 2.747599351,
				"element": "O" 
			},
			{
				"x": -3.7353524016,
				"y": 0.3669619172,
				"z": 1.9100222972,
				"element": "C" 
			},
			{
				"x": -2.849621506,
				"y": -0.3539079334,
				"z": 1.3055561103,
				"element": "N" 
			},
			{
				"x": -2.0275998005,
				"y": 0.4399574588,
				"z": 0.5094244172,
				"element": "C" 
			},
			{
				"x": -2.3254987732,
				"y": 1.7765679879,
				"z": 0.5366622158,
				"element": "C" 
			},
			{
				"x": -3.6810245087,
				"y": 2.0903346588,
				"z": 1.5886353112,
				"element": "S" 
			},
			{
				"x": -0.9511974202,
				"y": -0.2074887775,
				"z": -0.2621273086,
				"element": "C" 
			},
			{
				"x": -0.078125373,
				"y": 0.5273212296,
				"z": -1.0821046634,
				"element": "C" 
			},
			{
				"x": 0.9324009528,
				"y": -0.0998627821,
				"z": -1.8040106549,
				"element": "C" 
			},
			{
				"x": 1.0795764508,
				"y": -1.4844852826,
				"z": -1.7100690154,
				"element": "C" 
			},
			{
				"x": 2.3543380589,
				"y": -2.2828082077,
				"z": -2.6194625361,
				"element": "Cl" 
			},
			{
				"x": 0.2292211518,
				"y": -2.2399351579,
				"z": -0.9049108824,
				"element": "C" 
			},
			{
				"x": -0.7783170888,
				"y": -1.599164498,
				"z": -0.1875842148,
				"element": "C" 
			},
			{
				"x": -4.5441703716,
				"y": -1.0606971884,
				"z": 2.7975681208,
				"element": "H" 
			},
			{
				"x": -1.8470270364,
				"y": 2.5918998452,
				"z": 0.0155279243,
				"element": "H" 
			},
			{
				"x": -0.1808689244,
				"y": 1.6048230081,
				"z": -1.1639561108,
				"element": "H" 
			},
			{
				"x": 1.6008755814,
				"y": 0.4765252948,
				"z": -2.4338514274,
				"element": "H" 
			},
			{
				"x": 0.3543147074,
				"y": -3.3152390935,
				"z": -0.8405682892,
				"element": "H" 
			},
			{
				"x": -1.4463094348,
				"y": -2.1750452209,
				"z": 0.4422493552,
				"element": "H" 
			}
		],
		 "valence_orbital": [ 
			{
				"type": "occ",
				"energy": -0.29469,
				"method": "rhf"
			},
			{
				"type": "occ",
				"energy": -0.29361,
				"method": "rhf"
			},
			{
				"type": "occ",
				"energy": -0.26542,
				"method": "rhf"
			},
			{
				"type": "occ",
				"energy": -0.26154,
				"method": "rhf"
			},
			{
				"type": "occ",
				"energy": -0.21609,
				"method": "rhf"
			},
			{
				"type": "unocc",
				"energy": -0.04321,
				"method": "rhf"
			},
			{
				"type": "unocc",
				"energy": -0.01422,
				"method": "rhf"
			},
			{
				"type": "unocc",
				"energy": 0.00371,
				"method": "rhf"
			},
			{
				"type": "unocc",
				"energy": 0.00555,
				"method": "rhf"
			},
			{
				"type": "unocc",
				"energy": 0.03132,
				"method": "rhf"
			}
		],
		"cosmo_sigma_profile": { 
			"-0.025": 0.0,
			"-0.024": 0.0,
			"-0.023": 0.0,
			"-0.022": 0.0,
			"-0.021": 0.0,
			"-0.02": 0.0265946151378,
			"-0.019": 0.56759161265,
			"-0.018": 0.794086149075,
			"-0.017": 0.792692939037,
			"-0.016": 1.04271741623,
			"-0.015": 1.15749096716,
			"-0.014": 0.490682929706,
			"-0.013": 0.24307242682,
			"-0.012": 0.643866048415,
			"-0.011": 0.418713193464,
			"-0.01": 1.29544882636,
			"-0.009": 3.91135672003,
			"-0.008": 3.62969322626,
			"-0.007": 6.96397348013,
			"-0.006": 8.26963083285,
			"-0.005": 8.312015423,
			"-0.004": 7.74347475109,
			"-0.003": 8.32721291517,
			"-0.002": 10.8882098151,
			"-0.001": 13.2915804682,
			"0.0": 20.3556991122,
			"0.001": 21.8207010013,
			"0.002": 28.8536799827,
			"0.003": 31.5168843675,
			"0.004": 22.0716568388,
			"0.005": 9.63783839198,
			"0.006": 2.97213247236,
			"0.007": 3.43435484701,
			"0.008": 3.01915011977,
			"0.009": 2.5452313584,
			"0.01": 0.0367171411215,
			"0.011": 0.0,
			"0.012": 0.0,
			"0.013": 0.0,
			"0.014": 0.0,
			"0.015": 0.0,
			"0.016": 0.0,
			"0.017": 0.0,
			"0.018": 0.0,
			"0.019": 0.0,
			"0.02": 0.0,
			"0.021": 0.0,
			"0.022": 0.0,
			"0.023": 0.0,
			"0.024": 0.0,
			"0.025": 0.0
		}
	}
}
