{
	 "smiles": "NC1=CC2=CC=CC=C2C=C1O", 
	 "Tm": 508.15, 
	 "num_atms": 21, 
	 "gaussian": { 
		 "optdone": 1, 
		 "sigma_profile": "yes", 
		 "theory": "DFT", 
		 "functional": "B3LYP", 
		 "basiset": "6-31G**", 
		 "properties": { 
			 "R2extent": 2406.4484, 
			 "electric_dipole_moment_norm": 2.77822498909, 
			 "electric_quadrupole_moment_norm": 15.7821824381, 
			 "total_energy": -516.474122012, 
			 "HOMO_LUMO_gap": 0.17088, 
			 "cosmo_polarized_energy": -10.82, 
			 "cosmo_cavitation_energy": 24.43, 
			 "cosmo_dispersion_energy": -18.56, 
			 "cosmo_repulsion_energy": 1.46, 
			 "cosmo_total_nonelectrostatic_energy": 7.32, 
			 "SMD_solvation_energy": 4.35 
		},
		"coords": [
			{
				"x": 0.229294233,
				"y": 3.7603830058,
				"z": -2.0220062502,
				"element": "N" 
			},
			{
				"x": 0.1046125037,
				"y": 2.4823632737,
				"z": -1.3925652101,
				"element": "C" 
			},
			{
				"x": -0.2622354636,
				"y": 1.3203804933,
				"z": -2.0301804511,
				"element": "C" 
			},
			{
				"x": -0.3257554605,
				"y": 0.0854508562,
				"z": -1.3286531344,
				"element": "C" 
			},
			{
				"x": -0.7034898898,
				"y": -1.1268514544,
				"z": -1.9636970804,
				"element": "C" 
			},
			{
				"x": -0.7770472964,
				"y": -2.3052198696,
				"z": -1.2537275931,
				"element": "C" 
			},
			{
				"x": -0.4731201483,
				"y": -2.3206732782,
				"z": 0.1290697978,
				"element": "C" 
			},
			{
				"x": -0.103793599,
				"y": -1.1611384078,
				"z": 0.774680013,
				"element": "C" 
			},
			{
				"x": -0.0190632146,
				"y": 0.0717573787,
				"z": 0.0727232077,
				"element": "C" 
			},
			{
				"x": 0.3762913586,
				"y": 1.2779415281,
				"z": 0.7091377319,
				"element": "C" 
			},
			{
				"x": 0.4519383756,
				"y": 2.4515796855,
				"z": -0.0047526894,
				"element": "C" 
			},
			{
				"x": 0.865474349,
				"y": 3.6057792274,
				"z": 0.5849764119,
				"element": "O" 
			},
			{
				"x": -0.5689953613,
				"y": 4.3588011293,
				"z": -1.8175816018,
				"element": "H" 
			},
			{
				"x": 0.3084914478,
				"y": 3.6790331911,
				"z": -3.0301388267,
				"element": "H" 
			},
			{
				"x": -0.520717473,
				"y": 1.3418006528,
				"z": -3.0870232533,
				"element": "H" 
			},
			{
				"x": -0.936572405,
				"y": -1.1097572488,
				"z": -3.0257518968,
				"element": "H" 
			},
			{
				"x": -1.0678357267,
				"y": -3.2253096753,
				"z": -1.7522889881,
				"element": "H" 
			},
			{
				"x": -0.5319265785,
				"y": -3.2541748879,
				"z": 0.6815930909,
				"element": "H" 
			},
			{
				"x": 0.1306744752,
				"y": -1.1737470479,
				"z": 1.8360436174,
				"element": "H" 
			},
			{
				"x": 0.6471126194,
				"y": 1.2794681211,
				"z": 1.7603441331,
				"element": "H" 
			},
			{
				"x": 1.0586632544,
				"y": 4.2178333272,
				"z": -0.1491010281,
				"element": "H" 
			}
		],
		 "valence_orbital": [ 
			{
				"type": "occ",
				"energy": -0.31645,
				"method": "rhf"
			},
			{
				"type": "occ",
				"energy": -0.28306,
				"method": "rhf"
			},
			{
				"type": "occ",
				"energy": -0.27085,
				"method": "rhf"
			},
			{
				"type": "occ",
				"energy": -0.21506,
				"method": "rhf"
			},
			{
				"type": "occ",
				"energy": -0.19982,
				"method": "rhf"
			},
			{
				"type": "unocc",
				"energy": -0.02894,
				"method": "rhf"
			},
			{
				"type": "unocc",
				"energy": 0.00531,
				"method": "rhf"
			},
			{
				"type": "unocc",
				"energy": 0.03865,
				"method": "rhf"
			},
			{
				"type": "unocc",
				"energy": 0.06494,
				"method": "rhf"
			},
			{
				"type": "unocc",
				"energy": 0.10156,
				"method": "rhf"
			}
		],
		"cosmo_sigma_profile": { 
			"-0.025": 0.0,
			"-0.024": 0.0,
			"-0.023": 0.0,
			"-0.022": 0.0,
			"-0.021": 0.0,
			"-0.02": 0.0,
			"-0.019": 0.0,
			"-0.018": 0.0,
			"-0.017": 0.0,
			"-0.016": 0.0,
			"-0.015": 0.0,
			"-0.014": 0.0,
			"-0.013": 0.320528115891,
			"-0.012": 3.20705616208,
			"-0.011": 3.18163689348,
			"-0.01": 3.71491463649,
			"-0.009": 4.19063151247,
			"-0.008": 3.99350644851,
			"-0.007": 3.53428504333,
			"-0.006": 6.59833426531,
			"-0.005": 15.6987430821,
			"-0.004": 11.7002430778,
			"-0.003": 13.5610206163,
			"-0.002": 10.751224044,
			"-0.001": 8.56111921794,
			"0.0": 9.03763601077,
			"0.001": 7.99693262577,
			"0.002": 10.3304715391,
			"0.003": 12.7167261663,
			"0.004": 18.452399152,
			"0.005": 22.9492834698,
			"0.006": 11.038866616,
			"0.007": 2.78450547094,
			"0.008": 2.2107351265,
			"0.009": 1.94226002398,
			"0.01": 2.29867734075,
			"0.011": 2.04762386925,
			"0.012": 1.69932494246,
			"0.013": 0.0578686936038,
			"0.014": 0.0,
			"0.015": 0.0,
			"0.016": 0.0,
			"0.017": 0.0,
			"0.018": 0.0,
			"0.019": 0.0,
			"0.02": 0.0,
			"0.021": 0.0,
			"0.022": 0.0,
			"0.023": 0.0,
			"0.024": 0.0,
			"0.025": 0.0
		}
	}
}
