{
	 "smiles": "CCCOC1=C(C=CC(O)=O)C=C2C=CC=CC2=N1", 
	 "Tm": 433.15, 
	 "num_atms": 34, 
	 "gaussian": { 
		 "optdone": 1, 
		 "sigma_profile": "yes", 
		 "theory": "DFT", 
		 "functional": "B3LYP", 
		 "basiset": "6-31G**", 
		 "properties": { 
			 "R2extent": 7089.8018, 
			 "electric_dipole_moment_norm": 5.73121161797, 
			 "electric_quadrupole_moment_norm": 29.8901937806, 
			 "total_energy": -861.072198124, 
			 "HOMO_LUMO_gap": 0.15088, 
			 "cosmo_polarized_energy": -16.74, 
			 "cosmo_cavitation_energy": 38.61, 
			 "cosmo_dispersion_energy": -27.06, 
			 "cosmo_repulsion_energy": 2.11, 
			 "cosmo_total_nonelectrostatic_energy": 13.66, 
			 "SMD_solvation_energy": 7.15 
		},
		"coords": [
			{
				"x": -2.8886340409,
				"y": -1.854630667,
				"z": 0.6001202019,
				"element": "C" 
			},
			{
				"x": -2.4635263622,
				"y": -0.561649446,
				"z": 1.3023217594,
				"element": "C" 
			},
			{
				"x": -1.1104833424,
				"y": -0.6581145184,
				"z": 2.0019870617,
				"element": "C" 
			},
			{
				"x": -0.0417908733,
				"y": -0.9997543612,
				"z": 1.0890746747,
				"element": "O" 
			},
			{
				"x": 0.5474732653,
				"y": -0.0082725856,
				"z": 0.3832571895,
				"element": "C" 
			},
			{
				"x": 1.6020458814,
				"y": -0.4328218594,
				"z": -0.5103150093,
				"element": "C" 
			},
			{
				"x": 1.9432872048,
				"y": -1.8520990032,
				"z": -0.6044507574,
				"element": "C" 
			},
			{
				"x": 3.0075924066,
				"y": -2.3849025261,
				"z": -1.2344835763,
				"element": "C" 
			},
			{
				"x": 3.2745228624,
				"y": -3.8395681753,
				"z": -1.3678363965,
				"element": "C" 
			},
			{
				"x": 2.6739467184,
				"y": -4.6778574108,
				"z": -0.477169836,
				"element": "O" 
			},
			{
				"x": 3.9889564912,
				"y": -4.2882484078,
				"z": -2.2352774255,
				"element": "O" 
			},
			{
				"x": 2.2230994223,
				"y": 0.5657140068,
				"z": -1.2340852365,
				"element": "C" 
			},
			{
				"x": 1.844424628,
				"y": 1.9221199433,
				"z": -1.0879665105,
				"element": "C" 
			},
			{
				"x": 2.4540934253,
				"y": 2.9816046343,
				"z": -1.8085143904,
				"element": "C" 
			},
			{
				"x": 2.0364598859,
				"y": 4.2814590712,
				"z": -1.6226760825,
				"element": "C" 
			},
			{
				"x": 0.9920267198,
				"y": 4.5675528783,
				"z": -0.7108361186,
				"element": "C" 
			},
			{
				"x": 0.3787983138,
				"y": 3.5573295825,
				"z": 0.0015275989,
				"element": "C" 
			},
			{
				"x": 0.7891704854,
				"y": 2.2129524464,
				"z": -0.1686360293,
				"element": "C" 
			},
			{
				"x": 0.1619804535,
				"y": 1.2303098159,
				"z": 0.54479582,
				"element": "N" 
			},
			{
				"x": -2.9657595247,
				"y": -2.6866297338,
				"z": 1.3097051247,
				"element": "H" 
			},
			{
				"x": -3.8638706062,
				"y": -1.7367407521,
				"z": 0.118088905,
				"element": "H" 
			},
			{
				"x": -2.1668652336,
				"y": -2.1407871861,
				"z": -0.1706592288,
				"element": "H" 
			},
			{
				"x": -3.2021237246,
				"y": -0.2897022048,
				"z": 2.0681538092,
				"element": "H" 
			},
			{
				"x": -2.4318249131,
				"y": 0.2706313228,
				"z": 0.5916661053,
				"element": "H" 
			},
			{
				"x": -1.1040742826,
				"y": -1.4757633528,
				"z": 2.7291678488,
				"element": "H" 
			},
			{
				"x": -0.8619420727,
				"y": 0.2792238816,
				"z": 2.5042602445,
				"element": "H" 
			},
			{
				"x": 1.230107295,
				"y": -2.5088511142,
				"z": -0.1123227437,
				"element": "H" 
			},
			{
				"x": 3.7263477582,
				"y": -1.771691503,
				"z": -1.7690408647,
				"element": "H" 
			},
			{
				"x": 2.2779645992,
				"y": -4.1676835912,
				"z": 0.2428413421,
				"element": "H" 
			},
			{
				"x": 3.0098934065,
				"y": 0.3164371689,
				"z": -1.9407463339,
				"element": "H" 
			},
			{
				"x": 3.2549028904,
				"y": 2.750783481,
				"z": -2.5063725733,
				"element": "H" 
			},
			{
				"x": 2.5059118282,
				"y": 5.090017573,
				"z": -2.1744708399,
				"element": "H" 
			},
			{
				"x": 0.6710819951,
				"y": 5.5960840665,
				"z": -0.5731160089,
				"element": "H" 
			},
			{
				"x": -0.4236929605,
				"y": 3.7597485262,
				"z": 0.7032082761,
				"element": "H" 
			}
		],
		 "valence_orbital": [ 
			{
				"type": "occ",
				"energy": -0.29255,
				"method": "rhf"
			},
			{
				"type": "occ",
				"energy": -0.27736,
				"method": "rhf"
			},
			{
				"type": "occ",
				"energy": -0.26648,
				"method": "rhf"
			},
			{
				"type": "occ",
				"energy": -0.23701,
				"method": "rhf"
			},
			{
				"type": "occ",
				"energy": -0.23501,
				"method": "rhf"
			},
			{
				"type": "unocc",
				"energy": -0.08413,
				"method": "rhf"
			},
			{
				"type": "unocc",
				"energy": -0.03696,
				"method": "rhf"
			},
			{
				"type": "unocc",
				"energy": -0.00453,
				"method": "rhf"
			},
			{
				"type": "unocc",
				"energy": 0.01267,
				"method": "rhf"
			},
			{
				"type": "unocc",
				"energy": 0.06218,
				"method": "rhf"
			}
		],
		"cosmo_sigma_profile": { 
			"-0.025": 0.0,
			"-0.024": 0.0,
			"-0.023": 0.0,
			"-0.022": 0.0,
			"-0.021": 0.0,
			"-0.02": 0.0,
			"-0.019": 0.115581812255,
			"-0.018": 0.900512882489,
			"-0.017": 1.0229568388,
			"-0.016": 0.768972021216,
			"-0.015": 0.445345269911,
			"-0.014": 0.877471173618,
			"-0.013": 0.826873999063,
			"-0.012": 1.41667677542,
			"-0.011": 1.07205800158,
			"-0.01": 0.87073344588,
			"-0.009": 2.91634132963,
			"-0.008": 4.38345900692,
			"-0.007": 6.87917652962,
			"-0.006": 10.6613302588,
			"-0.005": 13.1317322279,
			"-0.004": 18.6388679827,
			"-0.003": 24.7989932702,
			"-0.002": 25.2292029184,
			"-0.001": 28.4355022284,
			"0.0": 32.0696436997,
			"0.001": 32.5371796065,
			"0.002": 22.2192059205,
			"0.003": 17.580813251,
			"0.004": 15.9851671705,
			"0.005": 6.7141492642,
			"0.006": 5.48199541989,
			"0.007": 3.39922698513,
			"0.008": 4.059454761,
			"0.009": 4.13735356912,
			"0.01": 4.82824431431,
			"0.011": 5.1350785922,
			"0.012": 6.29700943779,
			"0.013": 3.25442788934,
			"0.014": 0.43800834401,
			"0.015": 0.0,
			"0.016": 0.0,
			"0.017": 0.0,
			"0.018": 0.0,
			"0.019": 0.0,
			"0.02": 0.0,
			"0.021": 0.0,
			"0.022": 0.0,
			"0.023": 0.0,
			"0.024": 0.0,
			"0.025": 0.0
		}
	}
}
