{
	 "smiles": "BrC1=CC=C(O1)C=C1N=C(OC1=O)C1=CC=CC=C1", 
	 "Tm": 395.15, 
	 "num_atms": 27, 
	 "gaussian": { 
		 "optdone": 1, 
		 "sigma_profile": "yes", 
		 "theory": "DFT", 
		 "functional": "B3LYP", 
		 "basiset": "6-31G**", 
		 "properties": { 
			 "R2extent": 9348.333, 
			 "electric_dipole_moment_norm": 2.82570590119, 
			 "electric_quadrupole_moment_norm": 23.0555043933, 
			 "total_energy": -3390.11041842, 
			 "HOMO_LUMO_gap": 0.11645, 
			 "cosmo_polarized_energy": -12.6, 
			 "cosmo_cavitation_energy": 36.51, 
			 "cosmo_dispersion_energy": -26.52, 
			 "cosmo_repulsion_energy": 2.04, 
			 "cosmo_total_nonelectrostatic_energy": 12.03, 
			 "SMD_solvation_energy": 5.51 
		},
		"coords": [
			{
				"x": 1.5815498462,
				"y": -0.6825513416,
				"z": 4.011608801,
				"element": "Br" 
			},
			{
				"x": 0.5527741552,
				"y": -1.8991160326,
				"z": 3.0434898664,
				"element": "C" 
			},
			{
				"x": -0.1896934518,
				"y": -2.9754351789,
				"z": 3.4491568594,
				"element": "C" 
			},
			{
				"x": -0.7449721235,
				"y": -3.5129527199,
				"z": 2.2587895004,
				"element": "C" 
			},
			{
				"x": -0.3041473491,
				"y": -2.7289828091,
				"z": 1.2095419264,
				"element": "C" 
			},
			{
				"x": 0.5027598259,
				"y": -1.7272702914,
				"z": 1.7074090964,
				"element": "O" 
			},
			{
				"x": -0.5589692631,
				"y": -2.8237137205,
				"z": -0.1860015214,
				"element": "C" 
			},
			{
				"x": -0.1091183918,
				"y": -2.0333729036,
				"z": -1.1987347785,
				"element": "C" 
			},
			{
				"x": 0.7209627566,
				"y": -0.9198251448,
				"z": -1.1404478353,
				"element": "N" 
			},
			{
				"x": 0.8515591201,
				"y": -0.5234000487,
				"z": -2.3675271637,
				"element": "C" 
			},
			{
				"x": 0.1786687921,
				"y": -1.2646297975,
				"z": -3.3180054887,
				"element": "O" 
			},
			{
				"x": -0.4802549598,
				"y": -2.282892947,
				"z": -2.610411698,
				"element": "C" 
			},
			{
				"x": -1.1644474242,
				"y": -3.1136656267,
				"z": -3.1483786968,
				"element": "O" 
			},
			{
				"x": 1.6294813491,
				"y": 0.6145358986,
				"z": -2.8382627286,
				"element": "C" 
			},
			{
				"x": 1.6864822874,
				"y": 0.9363707593,
				"z": -4.2043306557,
				"element": "C" 
			},
			{
				"x": 2.4379875462,
				"y": 2.0304252179,
				"z": -4.6274463512,
				"element": "C" 
			},
			{
				"x": 3.1335782455,
				"y": 2.8064250089,
				"z": -3.6974341079,
				"element": "C" 
			},
			{
				"x": 3.0780386415,
				"y": 2.4873601077,
				"z": -2.3362519502,
				"element": "C" 
			},
			{
				"x": 2.3308298289,
				"y": 1.3974846703,
				"z": -1.9039803576,
				"element": "C" 
			},
			{
				"x": -0.3128224722,
				"y": -3.3235403636,
				"z": 4.4629094913,
				"element": "H" 
			},
			{
				"x": -1.393096124,
				"y": -4.3735732568,
				"z": 2.1716208029,
				"element": "H" 
			},
			{
				"x": -1.2056581334,
				"y": -3.646041048,
				"z": -0.4810994716,
				"element": "H" 
			},
			{
				"x": 1.1434223267,
				"y": 0.3286171595,
				"z": -4.9194801631,
				"element": "H" 
			},
			{
				"x": 2.4809771556,
				"y": 2.2778546455,
				"z": -5.6838426682,
				"element": "H" 
			},
			{
				"x": 3.7184169967,
				"y": 3.658693193,
				"z": -4.0312493975,
				"element": "H" 
			},
			{
				"x": 3.6191169562,
				"y": 3.0911580241,
				"z": -1.6138522945,
				"element": "H" 
			},
			{
				"x": 2.2744738631,
				"y": 1.133038546,
				"z": -0.8534890156,
				"element": "H" 
			}
		],
		 "valence_orbital": [ 
			{
				"type": "occ",
				"energy": -0.28643,
				"method": "rhf"
			},
			{
				"type": "occ",
				"energy": -0.26954,
				"method": "rhf"
			},
			{
				"type": "occ",
				"energy": -0.2639,
				"method": "rhf"
			},
			{
				"type": "occ",
				"energy": -0.26177,
				"method": "rhf"
			},
			{
				"type": "occ",
				"energy": -0.21029,
				"method": "rhf"
			},
			{
				"type": "unocc",
				"energy": -0.09384,
				"method": "rhf"
			},
			{
				"type": "unocc",
				"energy": -0.03496,
				"method": "rhf"
			},
			{
				"type": "unocc",
				"energy": -0.01156,
				"method": "rhf"
			},
			{
				"type": "unocc",
				"energy": -0.00132,
				"method": "rhf"
			},
			{
				"type": "unocc",
				"energy": 0.01116,
				"method": "rhf"
			}
		],
		"cosmo_sigma_profile": { 
			"-0.025": 0.0,
			"-0.024": 0.0,
			"-0.023": 0.0,
			"-0.022": 0.0,
			"-0.021": 0.0,
			"-0.02": 0.0,
			"-0.019": 0.0,
			"-0.018": 0.0,
			"-0.017": 0.0,
			"-0.016": 0.0,
			"-0.015": 0.0,
			"-0.014": 0.0,
			"-0.013": 0.0,
			"-0.012": 0.0,
			"-0.011": 0.0,
			"-0.01": 0.39911625031,
			"-0.009": 5.51510323214,
			"-0.008": 5.42779447632,
			"-0.007": 7.1224840539,
			"-0.006": 16.4635776423,
			"-0.005": 18.4650950684,
			"-0.004": 18.4631771936,
			"-0.003": 15.3628640589,
			"-0.002": 20.2991100297,
			"-0.001": 25.993629455,
			"0.0": 30.1816719793,
			"0.001": 30.4370769976,
			"0.002": 32.7880614377,
			"0.003": 22.0546255345,
			"0.004": 14.3536789247,
			"0.005": 5.01023155395,
			"0.006": 5.09672317991,
			"0.007": 3.96720015286,
			"0.008": 3.28054492183,
			"0.009": 3.98721545117,
			"0.01": 5.65977056049,
			"0.011": 5.95599418957,
			"0.012": 2.02503180274,
			"0.013": 0.953242310212,
			"0.014": 0.136853468941,
			"0.015": 0.0,
			"0.016": 0.0,
			"0.017": 0.0,
			"0.018": 0.0,
			"0.019": 0.0,
			"0.02": 0.0,
			"0.021": 0.0,
			"0.022": 0.0,
			"0.023": 0.0,
			"0.024": 0.0,
			"0.025": 0.0
		}
	}
}
