{
	 "smiles": "CCOC(=O)C(=CNC1=C(OC)C=C(OC)C=C1)C#N", 
	 "Tm": 427.15, 
	 "num_atms": 36, 
	 "gaussian": { 
		 "optdone": 1, 
		 "sigma_profile": "yes", 
		 "theory": "DFT", 
		 "functional": "B3LYP", 
		 "basiset": "6-31G**", 
		 "properties": { 
			 "R2extent": 9108.2689, 
			 "electric_dipole_moment_norm": 10.3062733168, 
			 "electric_quadrupole_moment_norm": 37.9006236429, 
			 "total_energy": -953.498080516, 
			 "HOMO_LUMO_gap": 0.15845, 
			 "cosmo_polarized_energy": -22.42, 
			 "cosmo_cavitation_energy": 41.67, 
			 "cosmo_dispersion_energy": -28.54, 
			 "cosmo_repulsion_energy": 2.23, 
			 "cosmo_total_nonelectrostatic_energy": 15.36, 
			 "SMD_solvation_energy": 11.19 
		},
		"coords": [
			{
				"x": -3.0111336069,
				"y": -0.4312740666,
				"z": 3.2713294113,
				"element": "C" 
			},
			{
				"x": -2.976691273,
				"y": 1.0133910373,
				"z": 2.7973366246,
				"element": "C" 
			},
			{
				"x": -1.6807193448,
				"y": 1.3608751309,
				"z": 2.2477894513,
				"element": "O" 
			},
			{
				"x": -0.7251651893,
				"y": 1.7570000176,
				"z": 3.1580797871,
				"element": "C" 
			},
			{
				"x": -0.9523900972,
				"y": 1.8300348447,
				"z": 4.348094814,
				"element": "O" 
			},
			{
				"x": 0.558764076,
				"y": 2.0730085312,
				"z": 2.5177837409,
				"element": "C" 
			},
			{
				"x": 0.8645087743,
				"y": 1.9922647953,
				"z": 1.170395682,
				"element": "C" 
			},
			{
				"x": 0.0410483628,
				"y": 1.5987702932,
				"z": 0.1823981944,
				"element": "N" 
			},
			{
				"x": 0.2911610172,
				"y": 1.5284992955,
				"z": -1.2067787736,
				"element": "C" 
			},
			{
				"x": 1.574975477,
				"y": 1.311998474,
				"z": -1.7708464513,
				"element": "C" 
			},
			{
				"x": 2.6170026646,
				"y": 1.1949205612,
				"z": -0.8992707903,
				"element": "O" 
			},
			{
				"x": 3.9119136418,
				"y": 0.9021966925,
				"z": -1.4127898981,
				"element": "C" 
			},
			{
				"x": 1.7152986498,
				"y": 1.2214949871,
				"z": -3.1524849565,
				"element": "C" 
			},
			{
				"x": 0.6009805637,
				"y": 1.3222373836,
				"z": -3.9997076059,
				"element": "C" 
			},
			{
				"x": 0.8746553273,
				"y": 1.2128430102,
				"z": -5.330367513,
				"element": "O" 
			},
			{
				"x": -0.2056609853,
				"y": 1.3147601184,
				"z": -6.2461956398,
				"element": "C" 
			},
			{
				"x": -0.6698497684,
				"y": 1.5181812435,
				"z": -3.4562911726,
				"element": "C" 
			},
			{
				"x": -0.7999212713,
				"y": 1.623160905,
				"z": -2.0702476414,
				"element": "C" 
			},
			{
				"x": 1.6038293719,
				"y": 2.5103753122,
				"z": 3.3870587736,
				"element": "C" 
			},
			{
				"x": 2.4822754327,
				"y": 2.8705584026,
				"z": 4.0617250411,
				"element": "N" 
			},
			{
				"x": -4.0193962585,
				"y": -0.6837807115,
				"z": 3.6164132357,
				"element": "H" 
			},
			{
				"x": -2.3176280516,
				"y": -0.5759985163,
				"z": 4.1027222873,
				"element": "H" 
			},
			{
				"x": -2.7439887194,
				"y": -1.117308905,
				"z": 2.461719222,
				"element": "H" 
			},
			{
				"x": -3.676053644,
				"y": 1.1849637672,
				"z": 1.9748836712,
				"element": "H" 
			},
			{
				"x": -3.2012752349,
				"y": 1.7020928484,
				"z": 3.6140576225,
				"element": "H" 
			},
			{
				"x": 1.8658537943,
				"y": 2.2593286466,
				"z": 0.8620398172,
				"element": "H" 
			},
			{
				"x": -0.9043164541,
				"y": 1.379171914,
				"z": 0.4820689721,
				"element": "H" 
			},
			{
				"x": 4.2739816975,
				"y": 1.7051356543,
				"z": -2.0657382861,
				"element": "H" 
			},
			{
				"x": 3.9160425266,
				"y": -0.0456187186,
				"z": -1.9636757115,
				"element": "H" 
			},
			{
				"x": 4.564040805,
				"y": 0.8210904192,
				"z": -0.5427468004,
				"element": "H" 
			},
			{
				"x": 2.6824209899,
				"y": 1.0617252635,
				"z": -3.6107229558,
				"element": "H" 
			},
			{
				"x": -0.9455931179,
				"y": 0.5198086186,
				"z": -6.0880679573,
				"element": "H" 
			},
			{
				"x": -0.7042917749,
				"y": 2.2897499927,
				"z": -6.1752607228,
				"element": "H" 
			},
			{
				"x": 0.2310617867,
				"y": 1.206036626,
				"z": -7.2398391748,
				"element": "H" 
			},
			{
				"x": -1.5498943359,
				"y": 1.5979332946,
				"z": -4.0812667648,
				"element": "H" 
			},
			{
				"x": -1.7853458317,
				"y": 1.790172837,
				"z": -1.6433975322,
				"element": "H" 
			}
		],
		 "valence_orbital": [ 
			{
				"type": "occ",
				"energy": -0.29986,
				"method": "rhf"
			},
			{
				"type": "occ",
				"energy": -0.27244,
				"method": "rhf"
			},
			{
				"type": "occ",
				"energy": -0.25344,
				"method": "rhf"
			},
			{
				"type": "occ",
				"energy": -0.24808,
				"method": "rhf"
			},
			{
				"type": "occ",
				"energy": -0.20282,
				"method": "rhf"
			},
			{
				"type": "unocc",
				"energy": -0.04437,
				"method": "rhf"
			},
			{
				"type": "unocc",
				"energy": -0.01395,
				"method": "rhf"
			},
			{
				"type": "unocc",
				"energy": 0.01178,
				"method": "rhf"
			},
			{
				"type": "unocc",
				"energy": 0.04405,
				"method": "rhf"
			},
			{
				"type": "unocc",
				"energy": 0.05554,
				"method": "rhf"
			}
		],
		"cosmo_sigma_profile": { 
			"-0.025": 0.0,
			"-0.024": 0.0,
			"-0.023": 0.0,
			"-0.022": 0.0,
			"-0.021": 0.0,
			"-0.02": 0.0,
			"-0.019": 0.0,
			"-0.018": 0.0,
			"-0.017": 0.0,
			"-0.016": 0.0,
			"-0.015": 0.0,
			"-0.014": 0.0,
			"-0.013": 0.000337219563114,
			"-0.012": 0.688257132028,
			"-0.011": 0.900892762052,
			"-0.01": 0.823459936859,
			"-0.009": 1.32154521505,
			"-0.008": 2.21918349132,
			"-0.007": 6.69515945008,
			"-0.006": 21.3029645848,
			"-0.005": 29.9136555239,
			"-0.004": 32.7939646176,
			"-0.003": 32.9118045964,
			"-0.002": 25.8589811011,
			"-0.001": 25.0828074247,
			"0.0": 26.8396092262,
			"0.001": 21.4202102423,
			"0.002": 14.6566632479,
			"0.003": 15.8702552697,
			"0.004": 14.2637908782,
			"0.005": 7.82405590254,
			"0.006": 6.87509007238,
			"0.007": 4.8025472568,
			"0.008": 5.93160946103,
			"0.009": 6.79308246801,
			"0.01": 7.36424959136,
			"0.011": 6.04948703248,
			"0.012": 7.68829541439,
			"0.013": 3.46404464167,
			"0.014": 1.85589879542,
			"0.015": 0.153811065266,
			"0.016": 0.0,
			"0.017": 0.0,
			"0.018": 0.0,
			"0.019": 0.0,
			"0.02": 0.0,
			"0.021": 0.0,
			"0.022": 0.0,
			"0.023": 0.0,
			"0.024": 0.0,
			"0.025": 0.0
		}
	}
}
