{
	 "smiles": "NC(=O)C(CCN1CCCCCC1)(C1=CC=CC=C1)C1=CC=CC=C1", 
	 "Tm": 415.15, 
	 "num_atms": 53, 
	 "gaussian": { 
		 "optdone": 1, 
		 "sigma_profile": "yes", 
		 "theory": "DFT", 
		 "functional": "B3LYP", 
		 "basiset": "6-31G**", 
		 "properties": { 
			 "R2extent": 9890.467, 
			 "electric_dipole_moment_norm": 2.74916822694, 
			 "electric_quadrupole_moment_norm": 14.2331009622, 
			 "total_energy": -1039.95089025, 
			 "HOMO_LUMO_gap": 0.19286, 
			 "cosmo_polarized_energy": -14.77, 
			 "cosmo_cavitation_energy": 50.91, 
			 "cosmo_dispersion_energy": -34.11, 
			 "cosmo_repulsion_energy": 2.65, 
			 "cosmo_total_nonelectrostatic_energy": 19.45, 
			 "SMD_solvation_energy": 6.44 
		},
		"coords": [
			{
				"x": -1.5872818132,
				"y": -1.7049473189,
				"z": -1.5081656473,
				"element": "N" 
			},
			{
				"x": -1.1657840092,
				"y": -0.5040756717,
				"z": -2.0211598576,
				"element": "C" 
			},
			{
				"x": -1.0840102578,
				"y": -0.3335635622,
				"z": -3.2293736834,
				"element": "O" 
			},
			{
				"x": -0.8598284966,
				"y": 0.5978540401,
				"z": -0.9597315953,
				"element": "C" 
			},
			{
				"x": -0.0999298358,
				"y": 0.0024185412,
				"z": 0.2652950685,
				"element": "C" 
			},
			{
				"x": 1.2478071841,
				"y": -0.6624900351,
				"z": -0.0492959098,
				"element": "C" 
			},
			{
				"x": 1.8674785039,
				"y": -1.1904595198,
				"z": 1.1745995089,
				"element": "N" 
			},
			{
				"x": 2.7923605401,
				"y": -2.2990428789,
				"z": 0.9131466895,
				"element": "C" 
			},
			{
				"x": 3.0198127052,
				"y": -3.2262756451,
				"z": 2.1147026619,
				"element": "C" 
			},
			{
				"x": 3.4879851008,
				"y": -2.5681936112,
				"z": 3.4239660968,
				"element": "C" 
			},
			{
				"x": 2.4136893199,
				"y": -1.6816100562,
				"z": 4.078881367,
				"element": "C" 
			},
			{
				"x": 2.2768880384,
				"y": -0.2617754337,
				"z": 3.4947656694,
				"element": "C" 
			},
			{
				"x": 2.5105667793,
				"y": -0.1396610648,
				"z": 1.9804365609,
				"element": "C" 
			},
			{
				"x": -0.0128590357,
				"y": 1.7594940067,
				"z": -1.5258671133,
				"element": "C" 
			},
			{
				"x": 0.9037001354,
				"y": 1.6068926104,
				"z": -2.5775217723,
				"element": "C" 
			},
			{
				"x": 1.7149198972,
				"y": 2.6708903495,
				"z": -2.9783995409,
				"element": "C" 
			},
			{
				"x": 1.6373099487,
				"y": 3.9064294872,
				"z": -2.3367021647,
				"element": "C" 
			},
			{
				"x": 0.7362860032,
				"y": 4.0696896889,
				"z": -1.28418667,
				"element": "C" 
			},
			{
				"x": -0.0770137572,
				"y": 3.0084305708,
				"z": -0.8872371647,
				"element": "C" 
			},
			{
				"x": -2.2672738334,
				"y": 1.1183204464,
				"z": -0.5677705114,
				"element": "C" 
			},
			{
				"x": -2.7767403049,
				"y": 1.0654325336,
				"z": 0.7355357341,
				"element": "C" 
			},
			{
				"x": -4.0605457144,
				"y": 1.542567255,
				"z": 1.0228705597,
				"element": "C" 
			},
			{
				"x": -4.857266481,
				"y": 2.0750960471,
				"z": 0.0122182489,
				"element": "C" 
			},
			{
				"x": -4.3597560468,
				"y": 2.1320763821,
				"z": -1.2929003868,
				"element": "C" 
			},
			{
				"x": -3.0808346747,
				"y": 1.6615289518,
				"z": -1.5777885248,
				"element": "C" 
			},
			{
				"x": -1.9227021904,
				"y": -1.771369643,
				"z": -0.5599088653,
				"element": "H" 
			},
			{
				"x": -1.9818270645,
				"y": -2.3457801688,
				"z": -2.1819281831,
				"element": "H" 
			},
			{
				"x": 0.052175523,
				"y": 0.8173588318,
				"z": 0.9811372539,
				"element": "H" 
			},
			{
				"x": -0.7089472457,
				"y": -0.7438671042,
				"z": 0.7864372682,
				"element": "H" 
			},
			{
				"x": 1.0699241079,
				"y": -1.5026985517,
				"z": -0.7273149849,
				"element": "H" 
			},
			{
				"x": 1.9087557831,
				"y": 0.0424490679,
				"z": -0.5797690737,
				"element": "H" 
			},
			{
				"x": 3.7714874238,
				"y": -1.9216739562,
				"z": 0.5549275382,
				"element": "H" 
			},
			{
				"x": 2.3782305361,
				"y": -2.9056388842,
				"z": 0.1003486403,
				"element": "H" 
			},
			{
				"x": 3.755522378,
				"y": -3.9814100825,
				"z": 1.8066495394,
				"element": "H" 
			},
			{
				"x": 2.0850833766,
				"y": -3.7652524398,
				"z": 2.3182342143,
				"element": "H" 
			},
			{
				"x": 4.4119943336,
				"y": -1.9965220276,
				"z": 3.2576612386,
				"element": "H" 
			},
			{
				"x": 3.7545934915,
				"y": -3.3702657594,
				"z": 4.1234505906,
				"element": "H" 
			},
			{
				"x": 1.4510267342,
				"y": -2.199697173,
				"z": 3.9922928078,
				"element": "H" 
			},
			{
				"x": 2.6145814326,
				"y": -1.5932669827,
				"z": 5.1536647135,
				"element": "H" 
			},
			{
				"x": 2.9918291425,
				"y": 0.4113085652,
				"z": 3.9873088809,
				"element": "H" 
			},
			{
				"x": 1.2781757753,
				"y": 0.1206625547,
				"z": 3.739749633,
				"element": "H" 
			},
			{
				"x": 3.5959213643,
				"y": -0.1274943105,
				"z": 1.7761104815,
				"element": "H" 
			},
			{
				"x": 2.1416345726,
				"y": 0.839042152,
				"z": 1.6560493437,
				"element": "H" 
			},
			{
				"x": 0.9681620398,
				"y": 0.6646756424,
				"z": -3.1042685324,
				"element": "H" 
			},
			{
				"x": 2.4096080567,
				"y": 2.5274024973,
				"z": -3.8014969436,
				"element": "H" 
			},
			{
				"x": 2.2685122336,
				"y": 4.7318531809,
				"z": -2.6536528808,
				"element": "H" 
			},
			{
				"x": 0.6599837575,
				"y": 5.0246163425,
				"z": -0.7714055192,
				"element": "H" 
			},
			{
				"x": -0.7787036513,
				"y": 3.1573495493,
				"z": -0.0722237768,
				"element": "H" 
			},
			{
				"x": -2.1794992745,
				"y": 0.6634318215,
				"z": 1.5461559277,
				"element": "H" 
			},
			{
				"x": -4.4311587109,
				"y": 1.4960545756,
				"z": 2.0431972305,
				"element": "H" 
			},
			{
				"x": -5.8539489093,
				"y": 2.4442004505,
				"z": 0.2362709142,
				"element": "H" 
			},
			{
				"x": -4.9693979037,
				"y": 2.5456929558,
				"z": -2.0913437361,
				"element": "H" 
			},
			{
				"x": -2.6998970079,
				"y": 1.7065127829,
				"z": -2.5934513437,
				"element": "H" 
			}
		],
		 "valence_orbital": [ 
			{
				"type": "occ",
				"energy": -0.25227,
				"method": "rhf"
			},
			{
				"type": "occ",
				"energy": -0.24484,
				"method": "rhf"
			},
			{
				"type": "occ",
				"energy": -0.23636,
				"method": "rhf"
			},
			{
				"type": "occ",
				"energy": -0.23119,
				"method": "rhf"
			},
			{
				"type": "occ",
				"energy": -0.20472,
				"method": "rhf"
			},
			{
				"type": "unocc",
				"energy": -0.01186,
				"method": "rhf"
			},
			{
				"type": "unocc",
				"energy": -0.00664,
				"method": "rhf"
			},
			{
				"type": "unocc",
				"energy": 0.00429,
				"method": "rhf"
			},
			{
				"type": "unocc",
				"energy": 0.01169,
				"method": "rhf"
			},
			{
				"type": "unocc",
				"energy": 0.0319,
				"method": "rhf"
			}
		],
		"cosmo_sigma_profile": { 
			"-0.025": 0.0,
			"-0.024": 0.0,
			"-0.023": 0.0,
			"-0.022": 0.0,
			"-0.021": 0.0,
			"-0.02": 0.0,
			"-0.019": 0.0,
			"-0.018": 0.0,
			"-0.017": 0.0,
			"-0.016": 0.0,
			"-0.015": 0.0,
			"-0.014": 0.564718179414,
			"-0.013": 2.30882975879,
			"-0.012": 2.08642265519,
			"-0.011": 2.4090875305,
			"-0.01": 2.66404094873,
			"-0.009": 1.98392055885,
			"-0.008": 2.07786604116,
			"-0.007": 2.08214800955,
			"-0.006": 6.65363928904,
			"-0.005": 17.8501349965,
			"-0.004": 24.5342681687,
			"-0.003": 31.8983769235,
			"-0.002": 40.1947717269,
			"-0.001": 55.2658797512,
			"0.0": 51.8502059652,
			"0.001": 39.9634147542,
			"0.002": 20.9425858766,
			"0.003": 17.5470175308,
			"0.004": 20.6394500493,
			"0.005": 17.3573794123,
			"0.006": 14.5934927091,
			"0.007": 4.7423832114,
			"0.008": 1.87033964837,
			"0.009": 2.51531179815,
			"0.01": 2.63835646116,
			"0.011": 1.91216215752,
			"0.012": 2.39593058517,
			"0.013": 4.44262783925,
			"0.014": 2.00758728458,
			"0.015": 0.0311041278594,
			"0.016": 0.0,
			"0.017": 0.0,
			"0.018": 0.0,
			"0.019": 0.0,
			"0.02": 0.0,
			"0.021": 0.0,
			"0.022": 0.0,
			"0.023": 0.0,
			"0.024": 0.0,
			"0.025": 0.0
		}
	}
}
