{
	 "smiles": "COC(=O)C1=CC=C(OC)C(N)=C1", 
	 "Tm": 358.15, 
	 "num_atms": 24, 
	 "gaussian": { 
		 "optdone": 1, 
		 "sigma_profile": "yes", 
		 "theory": "DFT", 
		 "functional": "B3LYP", 
		 "basiset": "6-31G**", 
		 "properties": { 
			 "R2extent": 3775.6856, 
			 "electric_dipole_moment_norm": 1.68337100783, 
			 "electric_quadrupole_moment_norm": 12.7509548615, 
			 "total_energy": -630.010470318, 
			 "HOMO_LUMO_gap": 0.17152, 
			 "cosmo_polarized_energy": -11.65, 
			 "cosmo_cavitation_energy": 28.32, 
			 "cosmo_dispersion_energy": -20.61, 
			 "cosmo_repulsion_energy": 1.65, 
			 "cosmo_total_nonelectrostatic_energy": 9.35, 
			 "SMD_solvation_energy": 7.14 
		},
		"coords": [
			{
				"x": 0.4572352352,
				"y": 1.2874806922,
				"z": 5.0628043113,
				"element": "C" 
			},
			{
				"x": 0.6408374243,
				"y": 0.4685464313,
				"z": 3.8998888617,
				"element": "O" 
			},
			{
				"x": -0.3264746602,
				"y": 0.581982306,
				"z": 2.9580689703,
				"element": "C" 
			},
			{
				"x": -1.2840000072,
				"y": 1.322275647,
				"z": 3.0846830218,
				"element": "O" 
			},
			{
				"x": -0.0792129417,
				"y": -0.2904143362,
				"z": 1.7774509939,
				"element": "C" 
			},
			{
				"x": 1.0497559482,
				"y": -1.1143993124,
				"z": 1.6769378339,
				"element": "C" 
			},
			{
				"x": 1.2157464067,
				"y": -1.900604795,
				"z": 0.5375700755,
				"element": "C" 
			},
			{
				"x": 0.2721348745,
				"y": -1.8689471034,
				"z": -0.4852334169,
				"element": "C" 
			},
			{
				"x": 0.4479351428,
				"y": -2.6145120877,
				"z": -1.6370253362,
				"element": "O" 
			},
			{
				"x": -0.0741835507,
				"y": -3.9455781964,
				"z": -1.5549368454,
				"element": "C" 
			},
			{
				"x": -0.8679960205,
				"y": -1.0395504261,
				"z": -0.3996526111,
				"element": "C" 
			},
			{
				"x": -1.8053490974,
				"y": -1.0685075065,
				"z": -1.4301791289,
				"element": "N" 
			},
			{
				"x": -1.0245982405,
				"y": -0.2522205858,
				"z": 0.7450392634,
				"element": "C" 
			},
			{
				"x": 0.4337932206,
				"y": 2.3459618675,
				"z": 4.7907305516,
				"element": "H" 
			},
			{
				"x": -0.4785380685,
				"y": 1.0362859028,
				"z": 5.5689168291,
				"element": "H" 
			},
			{
				"x": 1.3098761479,
				"y": 1.0775117278,
				"z": 5.7088863396,
				"element": "H" 
			},
			{
				"x": 1.78166725,
				"y": -1.1328529589,
				"z": 2.4747438728,
				"element": "H" 
			},
			{
				"x": 2.0859960756,
				"y": -2.5391022759,
				"z": 0.4191665979,
				"element": "H" 
			},
			{
				"x": -1.1534551219,
				"y": -3.9376520557,
				"z": -1.3602264511,
				"element": "H" 
			},
			{
				"x": 0.4284199383,
				"y": -4.5181499432,
				"z": -0.7658084647,
				"element": "H" 
			},
			{
				"x": 0.1196660299,
				"y": -4.4159394334,
				"z": -2.5213531289,
				"element": "H" 
			},
			{
				"x": -1.4081307387,
				"y": -1.3476529056,
				"z": -2.3182203263,
				"element": "H" 
			},
			{
				"x": -2.3851154239,
				"y": -0.2437772135,
				"z": -1.5018358395,
				"element": "H" 
			},
			{
				"x": -1.8849098228,
				"y": 0.4009165613,
				"z": 0.8542840264,
				"element": "H" 
			}
		],
		 "valence_orbital": [ 
			{
				"type": "occ",
				"energy": -0.29495,
				"method": "rhf"
			},
			{
				"type": "occ",
				"energy": -0.27833,
				"method": "rhf"
			},
			{
				"type": "occ",
				"energy": -0.26596,
				"method": "rhf"
			},
			{
				"type": "occ",
				"energy": -0.24532,
				"method": "rhf"
			},
			{
				"type": "occ",
				"energy": -0.20624,
				"method": "rhf"
			},
			{
				"type": "unocc",
				"energy": -0.03472,
				"method": "rhf"
			},
			{
				"type": "unocc",
				"energy": 0.00841,
				"method": "rhf"
			},
			{
				"type": "unocc",
				"energy": 0.06832,
				"method": "rhf"
			},
			{
				"type": "unocc",
				"energy": 0.08218,
				"method": "rhf"
			},
			{
				"type": "unocc",
				"energy": 0.10501,
				"method": "rhf"
			}
		],
		"cosmo_sigma_profile": { 
			"-0.025": 0.0,
			"-0.024": 0.0,
			"-0.023": 0.0,
			"-0.022": 0.0,
			"-0.021": 0.0,
			"-0.02": 0.0,
			"-0.019": 0.0,
			"-0.018": 0.0,
			"-0.017": 0.0,
			"-0.016": 0.0,
			"-0.015": 0.0,
			"-0.014": 0.0,
			"-0.013": 0.498078710354,
			"-0.012": 1.60815696176,
			"-0.011": 1.81778319052,
			"-0.01": 2.66411487581,
			"-0.009": 2.88486708014,
			"-0.008": 1.97553857205,
			"-0.007": 3.28977760309,
			"-0.006": 9.57916773632,
			"-0.005": 15.6516930853,
			"-0.004": 19.6690736952,
			"-0.003": 25.6391133052,
			"-0.002": 18.0071221313,
			"-0.001": 13.3577184729,
			"0.0": 11.8108098379,
			"0.001": 11.4953308844,
			"0.002": 12.1788423847,
			"0.003": 16.2902193662,
			"0.004": 16.7721917197,
			"0.005": 8.96614227983,
			"0.006": 5.15557056707,
			"0.007": 4.04017571733,
			"0.008": 3.03312865094,
			"0.009": 3.05091125792,
			"0.01": 3.29914500999,
			"0.011": 4.4144999132,
			"0.012": 5.87346679618,
			"0.013": 1.11913226804,
			"0.014": 0.223361754756,
			"0.015": 0.0,
			"0.016": 0.0,
			"0.017": 0.0,
			"0.018": 0.0,
			"0.019": 0.0,
			"0.02": 0.0,
			"0.021": 0.0,
			"0.022": 0.0,
			"0.023": 0.0,
			"0.024": 0.0,
			"0.025": 0.0
		}
	}
}
