{
	 "smiles": "CC1CCC2=CC=CC=C2C1", 
	 "Tm": 230.05, 
	 "num_atms": 25, 
	 "gaussian": { 
		 "optdone": 1, 
		 "sigma_profile": "yes", 
		 "theory": "DFT", 
		 "functional": "B3LYP", 
		 "basiset": "6-31G**", 
		 "properties": { 
			 "R2extent": 3167.0681, 
			 "electric_dipole_moment_norm": 0.602258366484, 
			 "electric_quadrupole_moment_norm": 3.9940155533, 
			 "total_energy": -427.633438782, 
			 "HOMO_LUMO_gap": 0.23264, 
			 "cosmo_polarized_energy": -3.03, 
			 "cosmo_cavitation_energy": 25.88, 
			 "cosmo_dispersion_energy": -19.3, 
			 "cosmo_repulsion_energy": 1.54, 
			 "cosmo_total_nonelectrostatic_energy": 8.12, 
			 "SMD_solvation_energy": 3.65 
		},
		"coords": [
			{
				"x": -1.3510071562,
				"y": -0.5547310906,
				"z": 0.4903639065,
				"element": "C" 
			},
			{
				"x": 0.0962182062,
				"y": -0.0524527026,
				"z": 0.4973233158,
				"element": "C" 
			},
			{
				"x": 0.9922105074,
				"y": -0.8689693215,
				"z": 1.4402741699,
				"element": "C" 
			},
			{
				"x": 2.3905322101,
				"y": -0.2488017088,
				"z": 1.5442596511,
				"element": "C" 
			},
			{
				"x": 2.9948323772,
				"y": 0.1041595217,
				"z": 0.1962156914,
				"element": "C" 
			},
			{
				"x": 4.3721595277,
				"y": 0.3496770659,
				"z": 0.0954885297,
				"element": "C" 
			},
			{
				"x": 4.9591258507,
				"y": 0.7091719472,
				"z": -1.1147232811,
				"element": "C" 
			},
			{
				"x": 4.1630333974,
				"y": 0.8297793093,
				"z": -2.2564999152,
				"element": "C" 
			},
			{
				"x": 2.795025566,
				"y": 0.5867519233,
				"z": -2.1675762609,
				"element": "C" 
			},
			{
				"x": 2.1939789196,
				"y": 0.2214219541,
				"z": -0.9538760508,
				"element": "C" 
			},
			{
				"x": 0.7037450331,
				"y": -0.0708863225,
				"z": -0.9144419776,
				"element": "C" 
			},
			{
				"x": -1.797281366,
				"y": -0.4934477065,
				"z": 1.4888814601,
				"element": "H" 
			},
			{
				"x": -1.9750407458,
				"y": 0.0330832544,
				"z": -0.1920528077,
				"element": "H" 
			},
			{
				"x": -1.4009507431,
				"y": -1.6016792512,
				"z": 0.166903133,
				"element": "H" 
			},
			{
				"x": 0.0975694942,
				"y": 0.9888626783,
				"z": 0.8544783053,
				"element": "H" 
			},
			{
				"x": 1.0661827672,
				"y": -1.897629441,
				"z": 1.0593280964,
				"element": "H" 
			},
			{
				"x": 0.5400409312,
				"y": -0.9355175776,
				"z": 2.4373152066,
				"element": "H" 
			},
			{
				"x": 3.0674262621,
				"y": -0.9204985194,
				"z": 2.0862023546,
				"element": "H" 
			},
			{
				"x": 2.3288699365,
				"y": 0.6657254686,
				"z": 2.152854871,
				"element": "H" 
			},
			{
				"x": 4.9895622509,
				"y": 0.2556811258,
				"z": 0.9865467909,
				"element": "H" 
			},
			{
				"x": 6.0285002809,
				"y": 0.8932317392,
				"z": -1.1684495086,
				"element": "H" 
			},
			{
				"x": 4.6056457081,
				"y": 1.1119990347,
				"z": -3.2076939061,
				"element": "H" 
			},
			{
				"x": 2.1727748949,
				"y": 0.6797643002,
				"z": -3.0553389089,
				"element": "H" 
			},
			{
				"x": 0.1732238796,
				"y": 0.6391447985,
				"z": -1.5616137072,
				"element": "H" 
			},
			{
				"x": 0.52592201,
				"y": -1.0643404794,
				"z": -1.3556691583,
				"element": "H" 
			}
		],
		 "valence_orbital": [ 
			{
				"type": "occ",
				"energy": -0.3203,
				"method": "rhf"
			},
			{
				"type": "occ",
				"energy": -0.30527,
				"method": "rhf"
			},
			{
				"type": "occ",
				"energy": -0.30182,
				"method": "rhf"
			},
			{
				"type": "occ",
				"energy": -0.23525,
				"method": "rhf"
			},
			{
				"type": "occ",
				"energy": -0.22826,
				"method": "rhf"
			},
			{
				"type": "unocc",
				"energy": 0.00438,
				"method": "rhf"
			},
			{
				"type": "unocc",
				"energy": 0.0103,
				"method": "rhf"
			},
			{
				"type": "unocc",
				"energy": 0.0917,
				"method": "rhf"
			},
			{
				"type": "unocc",
				"energy": 0.10594,
				"method": "rhf"
			},
			{
				"type": "unocc",
				"energy": 0.11695,
				"method": "rhf"
			}
		],
		"cosmo_sigma_profile": { 
			"-0.025": 0.0,
			"-0.024": 0.0,
			"-0.023": 0.0,
			"-0.022": 0.0,
			"-0.021": 0.0,
			"-0.02": 0.0,
			"-0.019": 0.0,
			"-0.018": 0.0,
			"-0.017": 0.0,
			"-0.016": 0.0,
			"-0.015": 0.0,
			"-0.014": 0.0,
			"-0.013": 0.0,
			"-0.012": 0.0,
			"-0.011": 0.0,
			"-0.01": 0.0,
			"-0.009": 0.0,
			"-0.008": 0.0,
			"-0.007": 0.0,
			"-0.006": 0.222662699528,
			"-0.005": 5.13453811883,
			"-0.004": 8.43837222592,
			"-0.003": 21.3864405397,
			"-0.002": 35.431564977,
			"-0.001": 33.0633355619,
			"0.0": 28.6779904487,
			"0.001": 20.9110036107,
			"0.002": 13.0156754806,
			"0.003": 6.78514544374,
			"0.004": 7.02196673871,
			"0.005": 7.15286749966,
			"0.006": 6.98965756047,
			"0.007": 6.93926816128,
			"0.008": 0.910763044255,
			"0.009": 0.0,
			"0.01": 0.0,
			"0.011": 0.0,
			"0.012": 0.0,
			"0.013": 0.0,
			"0.014": 0.0,
			"0.015": 0.0,
			"0.016": 0.0,
			"0.017": 0.0,
			"0.018": 0.0,
			"0.019": 0.0,
			"0.02": 0.0,
			"0.021": 0.0,
			"0.022": 0.0,
			"0.023": 0.0,
			"0.024": 0.0,
			"0.025": 0.0
		}
	}
}
