{
	 "smiles": "OC(=O)CCCCCCC1=CC=CC=C1", 
	 "Tm": 293.15, 
	 "num_atms": 33, 
	 "gaussian": { 
		 "optdone": 1, 
		 "sigma_profile": "yes", 
		 "theory": "DFT", 
		 "functional": "B3LYP", 
		 "basiset": "6-31G**", 
		 "properties": { 
			 "R2extent": 4295.9478, 
			 "electric_dipole_moment_norm": 1.82630651042, 
			 "electric_quadrupole_moment_norm": 11.8386626061, 
			 "total_energy": -656.711381878, 
			 "HOMO_LUMO_gap": 0.23691, 
			 "cosmo_polarized_energy": -9.9, 
			 "cosmo_cavitation_energy": 34.8, 
			 "cosmo_dispersion_energy": -23.71, 
			 "cosmo_repulsion_energy": 1.88, 
			 "cosmo_total_nonelectrostatic_energy": 12.97, 
			 "SMD_solvation_energy": 6.29 
		},
		"coords": [
			{
				"x": 1.7374552647,
				"y": 2.9319034396,
				"z": 0.83555983,
				"element": "O" 
			},
			{
				"x": 2.0523511971,
				"y": 3.3202868458,
				"z": -0.4323850917,
				"element": "C" 
			},
			{
				"x": 2.833350397,
				"y": 4.2190092321,
				"z": -0.6506757586,
				"element": "O" 
			},
			{
				"x": 1.3037602113,
				"y": 2.5089867849,
				"z": -1.4626063202,
				"element": "C" 
			},
			{
				"x": -0.2118471596,
				"y": 2.8001031504,
				"z": -1.4527195173,
				"element": "C" 
			},
			{
				"x": -1.0006050772,
				"y": 1.9459509225,
				"z": -2.4590356686,
				"element": "C" 
			},
			{
				"x": -1.060167991,
				"y": 0.4264511357,
				"z": -2.2055978614,
				"element": "C" 
			},
			{
				"x": -1.888262787,
				"y": -0.0288388633,
				"z": -0.983768436,
				"element": "C" 
			},
			{
				"x": -1.1414799581,
				"y": -0.1403544578,
				"z": 0.3662330561,
				"element": "C" 
			},
			{
				"x": -0.0161781268,
				"y": -1.1591099023,
				"z": 0.3895853102,
				"element": "C" 
			},
			{
				"x": 1.2939352636,
				"y": -0.7767505488,
				"z": 0.7102512249,
				"element": "C" 
			},
			{
				"x": 2.3297767603,
				"y": -1.7144381879,
				"z": 0.7440616138,
				"element": "C" 
			},
			{
				"x": 2.0722266578,
				"y": -3.055102169,
				"z": 0.4591114953,
				"element": "C" 
			},
			{
				"x": 0.7697982167,
				"y": -3.4517759976,
				"z": 0.1452626742,
				"element": "C" 
			},
			{
				"x": -0.2610360747,
				"y": -2.5132012253,
				"z": 0.1127910861,
				"element": "C" 
			},
			{
				"x": 2.2483032402,
				"y": 3.5087638092,
				"z": 1.4280509825,
				"element": "H" 
			},
			{
				"x": 1.4835009942,
				"y": 1.4485219017,
				"z": -1.2559801256,
				"element": "H" 
			},
			{
				"x": 1.7324561173,
				"y": 2.7468209499,
				"z": -2.4393758025,
				"element": "H" 
			},
			{
				"x": -0.6032383348,
				"y": 2.6605858892,
				"z": -0.4403344426,
				"element": "H" 
			},
			{
				"x": -0.3629785337,
				"y": 3.8590630161,
				"z": -1.6963958902,
				"element": "H" 
			},
			{
				"x": -2.0288389058,
				"y": 2.3297835157,
				"z": -2.5015080494,
				"element": "H" 
			},
			{
				"x": -0.5777587903,
				"y": 2.1134493363,
				"z": -3.4591934917,
				"element": "H" 
			},
			{
				"x": -0.0498560527,
				"y": 0.0033902851,
				"z": -2.1432633178,
				"element": "H" 
			},
			{
				"x": -1.5059298912,
				"y": -0.023081426,
				"z": -3.1014332366,
				"element": "H" 
			},
			{
				"x": -2.3216860142,
				"y": -1.0111045911,
				"z": -1.2075266034,
				"element": "H" 
			},
			{
				"x": -2.7444255479,
				"y": 0.6469467967,
				"z": -0.8530473679,
				"element": "H" 
			},
			{
				"x": -0.7422677297,
				"y": 0.8334064355,
				"z": 0.6662830876,
				"element": "H" 
			},
			{
				"x": -1.8814069659,
				"y": -0.4108241761,
				"z": 1.1321631289,
				"element": "H" 
			},
			{
				"x": 1.5017541619,
				"y": 0.2639510042,
				"z": 0.9470084248,
				"element": "H" 
			},
			{
				"x": 3.3374330672,
				"y": -1.3946004647,
				"z": 0.9955659661,
				"element": "H" 
			},
			{
				"x": 2.8756150478,
				"y": -3.7857913814,
				"z": 0.4847430679,
				"element": "H" 
			},
			{
				"x": 0.5562068211,
				"y": -4.4950910251,
				"z": -0.0709893594,
				"element": "H" 
			},
			{
				"x": -1.2708594779,
				"y": -2.8390100341,
				"z": -0.1251346076,
				"element": "H" 
			}
		],
		 "valence_orbital": [ 
			{
				"type": "occ",
				"energy": -0.31604,
				"method": "rhf"
			},
			{
				"type": "occ",
				"energy": -0.30997,
				"method": "rhf"
			},
			{
				"type": "occ",
				"energy": -0.27095,
				"method": "rhf"
			},
			{
				"type": "occ",
				"energy": -0.24582,
				"method": "rhf"
			},
			{
				"type": "occ",
				"energy": -0.23747,
				"method": "rhf"
			},
			{
				"type": "unocc",
				"energy": -0.00056,
				"method": "rhf"
			},
			{
				"type": "unocc",
				"energy": 0.00294,
				"method": "rhf"
			},
			{
				"type": "unocc",
				"energy": 0.01008,
				"method": "rhf"
			},
			{
				"type": "unocc",
				"energy": 0.06682,
				"method": "rhf"
			},
			{
				"type": "unocc",
				"energy": 0.0861,
				"method": "rhf"
			}
		],
		"cosmo_sigma_profile": { 
			"-0.025": 0.0,
			"-0.024": 0.0,
			"-0.023": 0.0,
			"-0.022": 0.0,
			"-0.021": 0.0,
			"-0.02": 0.0,
			"-0.019": 0.0,
			"-0.018": 0.518383786833,
			"-0.017": 0.994023272213,
			"-0.016": 0.909820152581,
			"-0.015": 0.648330901506,
			"-0.014": 0.442307805052,
			"-0.013": 0.375573873165,
			"-0.012": 0.733574184037,
			"-0.011": 1.41654525875,
			"-0.01": 0.845865672108,
			"-0.009": 0.498123257835,
			"-0.008": 0.288338884294,
			"-0.007": 0.676981464319,
			"-0.006": 2.20413529132,
			"-0.005": 8.89620572635,
			"-0.004": 15.1124290568,
			"-0.003": 30.3782522257,
			"-0.002": 39.3924180432,
			"-0.001": 39.2702931732,
			"0.0": 31.8600964422,
			"0.001": 21.1560848546,
			"0.002": 14.5405150668,
			"0.003": 10.8918811932,
			"0.004": 10.0989883388,
			"0.005": 9.66453899655,
			"0.006": 10.1729265812,
			"0.007": 5.95688925734,
			"0.008": 1.23469943092,
			"0.009": 1.25454874941,
			"0.01": 1.88736216431,
			"0.011": 3.77531152358,
			"0.012": 4.94750741041,
			"0.013": 1.37743075511,
			"0.014": 0.0799852801992,
			"0.015": 0.0,
			"0.016": 0.0,
			"0.017": 0.0,
			"0.018": 0.0,
			"0.019": 0.0,
			"0.02": 0.0,
			"0.021": 0.0,
			"0.022": 0.0,
			"0.023": 0.0,
			"0.024": 0.0,
			"0.025": 0.0
		}
	}
}
