{
	 "smiles": "CC1(C)CC(=O)NC(=O)C1", 
	 "Tm": 418.15, 
	 "num_atms": 21, 
	 "gaussian": { 
		 "optdone": 1, 
		 "sigma_profile": "yes", 
		 "theory": "DFT", 
		 "functional": "B3LYP", 
		 "basiset": "6-31G**", 
		 "properties": { 
			 "R2extent": 1809.4315, 
			 "electric_dipole_moment_norm": 3.29195696965, 
			 "electric_quadrupole_moment_norm": 8.81853201899, 
			 "total_energy": -478.619370302, 
			 "HOMO_LUMO_gap": 0.23102, 
			 "cosmo_polarized_energy": -12.68, 
			 "cosmo_cavitation_energy": 23.25, 
			 "cosmo_dispersion_energy": -16.85, 
			 "cosmo_repulsion_energy": 1.37, 
			 "cosmo_total_nonelectrostatic_energy": 7.77, 
			 "SMD_solvation_energy": 5.38 
		},
		"coords": [
			{
				"x": 1.2026299545,
				"y": 1.8972404756,
				"z": 0.076568239,
				"element": "C" 
			},
			{
				"x": 0.2560672737,
				"y": 0.6797821328,
				"z": 0.0991982919,
				"element": "C" 
			},
			{
				"x": -0.6257199572,
				"y": 0.7458510497,
				"z": 1.3573264649,
				"element": "C" 
			},
			{
				"x": -0.6389954819,
				"y": 0.6711869208,
				"z": -1.1588543649,
				"element": "C" 
			},
			{
				"x": 0.1023041218,
				"y": 0.400775651,
				"z": -2.4560650372,
				"element": "C" 
			},
			{
				"x": -0.2557194915,
				"y": 0.8142875566,
				"z": -3.5422982251,
				"element": "O" 
			},
			{
				"x": 1.2381028708,
				"y": -0.4027520331,
				"z": -2.3419085689,
				"element": "N" 
			},
			{
				"x": 1.8226788922,
				"y": -0.9128625019,
				"z": -1.1814014094,
				"element": "C" 
			},
			{
				"x": 2.8514320853,
				"y": -1.5588585076,
				"z": -1.2399798539,
				"element": "O" 
			},
			{
				"x": 1.0687427221,
				"y": -0.6330212262,
				"z": 0.1065098523,
				"element": "C" 
			},
			{
				"x": 1.8553840793,
				"y": 1.8990730468,
				"z": -0.8023536721,
				"element": "H" 
			},
			{
				"x": 0.6303685281,
				"y": 2.8308105611,
				"z": 0.0669225539,
				"element": "H" 
			},
			{
				"x": 1.8424980392,
				"y": 1.9051338969,
				"z": 0.9651842845,
				"element": "H" 
			},
			{
				"x": -1.2242766198,
				"y": 1.6631921264,
				"z": 1.3673338437,
				"element": "H" 
			},
			{
				"x": -0.0126940646,
				"y": 0.7379162765,
				"z": 2.2650820558,
				"element": "H" 
			},
			{
				"x": -1.3139069786,
				"y": -0.1052485352,
				"z": 1.4089012362,
				"element": "H" 
			},
			{
				"x": -1.1733203728,
				"y": 1.6164815184,
				"z": -1.2867002957,
				"element": "H" 
			},
			{
				"x": -1.4033058812,
				"y": -0.1131654245,
				"z": -1.062493639,
				"element": "H" 
			},
			{
				"x": 1.7320810642,
				"y": -0.5957423387,
				"z": -3.2075111374,
				"element": "H" 
			},
			{
				"x": 0.3925369705,
				"y": -1.4846536293,
				"z": 0.2681604385,
				"element": "H" 
			},
			{
				"x": 1.801612246,
				"y": -0.6554270161,
				"z": 0.917578943,
				"element": "H" 
			}
		],
		 "valence_orbital": [ 
			{
				"type": "occ",
				"energy": -0.3456,
				"method": "rhf"
			},
			{
				"type": "occ",
				"energy": -0.34437,
				"method": "rhf"
			},
			{
				"type": "occ",
				"energy": -0.28566,
				"method": "rhf"
			},
			{
				"type": "occ",
				"energy": -0.27973,
				"method": "rhf"
			},
			{
				"type": "occ",
				"energy": -0.25836,
				"method": "rhf"
			},
			{
				"type": "unocc",
				"energy": -0.02734,
				"method": "rhf"
			},
			{
				"type": "unocc",
				"energy": 0.02841,
				"method": "rhf"
			},
			{
				"type": "unocc",
				"energy": 0.06441,
				"method": "rhf"
			},
			{
				"type": "unocc",
				"energy": 0.10427,
				"method": "rhf"
			},
			{
				"type": "unocc",
				"energy": 0.11526,
				"method": "rhf"
			}
		],
		"cosmo_sigma_profile": { 
			"-0.025": 0.0,
			"-0.024": 0.0,
			"-0.023": 0.0,
			"-0.022": 0.0,
			"-0.021": 0.0,
			"-0.02": 0.0,
			"-0.019": 0.0,
			"-0.018": 0.0,
			"-0.017": 0.0,
			"-0.016": 0.0,
			"-0.015": 0.500629190029,
			"-0.014": 1.18736999712,
			"-0.013": 0.803798567436,
			"-0.012": 0.484192023575,
			"-0.011": 0.378004173993,
			"-0.01": 1.05137931583,
			"-0.009": 0.814392182718,
			"-0.008": 1.99157498123,
			"-0.007": 5.84309428418,
			"-0.006": 8.04809353863,
			"-0.005": 9.89465594589,
			"-0.004": 19.7794602426,
			"-0.003": 24.2729246916,
			"-0.002": 19.2766980148,
			"-0.001": 16.1837749339,
			"0.0": 13.8570318176,
			"0.001": 10.4530838726,
			"0.002": 3.32897556863,
			"0.003": 2.71031826207,
			"0.004": 1.32024994051,
			"0.005": 2.80658870768,
			"0.006": 2.74374141441,
			"0.007": 2.39065164569,
			"0.008": 2.36395875171,
			"0.009": 3.46125819835,
			"0.01": 2.91125929151,
			"0.011": 5.61481022581,
			"0.012": 11.2619271453,
			"0.013": 4.82653032745,
			"0.014": 0.361647637192,
			"0.015": 0.0,
			"0.016": 0.0,
			"0.017": 0.0,
			"0.018": 0.0,
			"0.019": 0.0,
			"0.02": 0.0,
			"0.021": 0.0,
			"0.022": 0.0,
			"0.023": 0.0,
			"0.024": 0.0,
			"0.025": 0.0
		}
	}
}
