{
	 "smiles": "NC1=CC=C(C=C1)S(=O)(=O)NC1=CC=NN1C1=CC=CC=C1", 
	 "Tm": 454.15, 
	 "num_atms": 36, 
	 "gaussian": { 
		 "optdone": 1, 
		 "sigma_profile": "yes", 
		 "theory": "DFT", 
		 "functional": "B3LYP", 
		 "basiset": "6-31G**", 
		 "properties": { 
			 "R2extent": 7017.6346, 
			 "electric_dipole_moment_norm": 6.83883070122, 
			 "electric_quadrupole_moment_norm": 25.7868308462, 
			 "total_energy": -1347.58248376, 
			 "HOMO_LUMO_gap": 0.18598, 
			 "cosmo_polarized_energy": -23.34, 
			 "cosmo_cavitation_energy": 41.57, 
			 "cosmo_dispersion_energy": -28.68, 
			 "cosmo_repulsion_energy": 2.14, 
			 "cosmo_total_nonelectrostatic_energy": 15.03, 
			 "SMD_solvation_energy": 5.4 
		},
		"coords": [
			{
				"x": -4.2424754747,
				"y": 2.0794376784,
				"z": 0.5642438999,
				"element": "N" 
			},
			{
				"x": -2.8834315503,
				"y": 2.0271794294,
				"z": 0.321025698,
				"element": "C" 
			},
			{
				"x": -2.3953147901,
				"y": 1.6775200515,
				"z": -0.9551369572,
				"element": "C" 
			},
			{
				"x": -1.0303602465,
				"y": 1.5769186252,
				"z": -1.1870631169,
				"element": "C" 
			},
			{
				"x": -0.1272177014,
				"y": 1.8289055484,
				"z": -0.1474145689,
				"element": "C" 
			},
			{
				"x": -0.5934779677,
				"y": 2.1866123141,
				"z": 1.1238722066,
				"element": "C" 
			},
			{
				"x": -1.9583932214,
				"y": 2.2815443627,
				"z": 1.3545478676,
				"element": "C" 
			},
			{
				"x": 1.6202728917,
				"y": 1.6680755227,
				"z": -0.4436698626,
				"element": "S" 
			},
			{
				"x": 2.3166443404,
				"y": 2.5922263277,
				"z": 0.4485672951,
				"element": "O" 
			},
			{
				"x": 1.8420314955,
				"y": 1.6373344156,
				"z": -1.8897083365,
				"element": "O" 
			},
			{
				"x": 2.0762630924,
				"y": 0.096823159,
				"z": 0.0556258987,
				"element": "N" 
			},
			{
				"x": 2.0011933905,
				"y": -0.3141894942,
				"z": 1.3895510823,
				"element": "C" 
			},
			{
				"x": 2.5421210157,
				"y": 0.2566308547,
				"z": 2.52755508,
				"element": "C" 
			},
			{
				"x": 2.2161376705,
				"y": -0.6489392374,
				"z": 3.5592908275,
				"element": "C" 
			},
			{
				"x": 1.5469699507,
				"y": -1.7082276572,
				"z": 3.1184190994,
				"element": "N" 
			},
			{
				"x": 1.3832134444,
				"y": -1.4834003076,
				"z": 1.7815045289,
				"element": "N" 
			},
			{
				"x": 0.7714440194,
				"y": -2.4844711327,
				"z": 0.9763076015,
				"element": "C" 
			},
			{
				"x": -0.1658189194,
				"y": -2.1397645177,
				"z": -0.0050606877,
				"element": "C" 
			},
			{
				"x": -0.7412390676,
				"y": -3.1427200414,
				"z": -0.7879101526,
				"element": "C" 
			},
			{
				"x": -0.40714386,
				"y": -4.4809452729,
				"z": -0.5796812835,
				"element": "C" 
			},
			{
				"x": 0.5077236498,
				"y": -4.8181655354,
				"z": 0.4216847884,
				"element": "C" 
			},
			{
				"x": 1.1040026105,
				"y": -3.82612009,
				"z": 1.1964151626,
				"element": "C" 
			},
			{
				"x": -4.8499786785,
				"y": 2.1861348583,
				"z": -0.2343969801,
				"element": "H" 
			},
			{
				"x": -4.5450850714,
				"y": 2.5940781029,
				"z": 1.3777916106,
				"element": "H" 
			},
			{
				"x": -3.0965022583,
				"y": 1.4925809758,
				"z": -1.76456693,
				"element": "H" 
			},
			{
				"x": -0.6548080345,
				"y": 1.3293362743,
				"z": -2.1742091791,
				"element": "H" 
			},
			{
				"x": 0.1126824016,
				"y": 2.4029391282,
				"z": 1.9173538999,
				"element": "H" 
			},
			{
				"x": -2.3206468369,
				"y": 2.5595062525,
				"z": 2.3405529307,
				"element": "H" 
			},
			{
				"x": 1.8543261248,
				"y": -0.5967575573,
				"z": -0.6511626019,
				"element": "H" 
			},
			{
				"x": 3.1021094344,
				"y": 1.1766440759,
				"z": 2.571852333,
				"element": "H" 
			},
			{
				"x": 2.4555521084,
				"y": -0.574354301,
				"z": 4.6120128728,
				"element": "H" 
			},
			{
				"x": -0.4711400941,
				"y": -1.1064925685,
				"z": -0.1296191403,
				"element": "H" 
			},
			{
				"x": -1.4678227558,
				"y": -2.8730119057,
				"z": -1.548575602,
				"element": "H" 
			},
			{
				"x": -0.8626498109,
				"y": -5.2576108513,
				"z": -1.1865038012,
				"element": "H" 
			},
			{
				"x": 0.7653922961,
				"y": -5.8586895294,
				"z": 0.5956114448,
				"element": "H" 
			},
			{
				"x": 1.8155264026,
				"y": -4.0676679575,
				"z": 1.9772930721,
				"element": "H" 
			}
		],
		 "valence_orbital": [ 
			{
				"type": "occ",
				"energy": -0.27349,
				"method": "rhf"
			},
			{
				"type": "occ",
				"energy": -0.2634,
				"method": "rhf"
			},
			{
				"type": "occ",
				"energy": -0.23446,
				"method": "rhf"
			},
			{
				"type": "occ",
				"energy": -0.23346,
				"method": "rhf"
			},
			{
				"type": "occ",
				"energy": -0.21861,
				"method": "rhf"
			},
			{
				"type": "unocc",
				"energy": -0.03263,
				"method": "rhf"
			},
			{
				"type": "unocc",
				"energy": -0.02397,
				"method": "rhf"
			},
			{
				"type": "unocc",
				"energy": -0.01991,
				"method": "rhf"
			},
			{
				"type": "unocc",
				"energy": -0.01548,
				"method": "rhf"
			},
			{
				"type": "unocc",
				"energy": 0.02519,
				"method": "rhf"
			}
		],
		"cosmo_sigma_profile": { 
			"-0.025": 0.0,
			"-0.024": 0.0,
			"-0.023": 0.0,
			"-0.022": 0.0,
			"-0.021": 0.0,
			"-0.02": 0.0,
			"-0.019": 0.0,
			"-0.018": 0.0,
			"-0.017": 0.0,
			"-0.016": 0.0,
			"-0.015": 0.0,
			"-0.014": 1.13025813367,
			"-0.013": 3.62963110774,
			"-0.012": 4.90683400833,
			"-0.011": 4.12882914849,
			"-0.01": 5.05346976401,
			"-0.009": 3.99581579557,
			"-0.008": 5.10911893905,
			"-0.007": 10.9837807838,
			"-0.006": 17.3065009662,
			"-0.005": 20.2443077507,
			"-0.004": 20.7890757116,
			"-0.003": 17.3131292144,
			"-0.002": 19.3167882137,
			"-0.001": 19.8634272895,
			"0.0": 18.6570304401,
			"0.001": 21.4114884257,
			"0.002": 23.3818914348,
			"0.003": 27.1505884243,
			"0.004": 28.2887175695,
			"0.005": 11.1698014551,
			"0.006": 7.78170445982,
			"0.007": 6.51029200077,
			"0.008": 6.31196851404,
			"0.009": 5.93798280051,
			"0.01": 8.88695217977,
			"0.011": 9.20743548587,
			"0.012": 2.64452088315,
			"0.013": 0.980795070025,
			"0.014": 0.752476128784,
			"0.015": 0.665966503149,
			"0.016": 0.0,
			"0.017": 0.0,
			"0.018": 0.0,
			"0.019": 0.0,
			"0.02": 0.0,
			"0.021": 0.0,
			"0.022": 0.0,
			"0.023": 0.0,
			"0.024": 0.0,
			"0.025": 0.0
		}
	}
}
