{
	 "smiles": "ClC(=O)C1=NC2=CC=CC=C2S1", 
	 "Tm": 423.15, 
	 "num_atms": 16, 
	 "gaussian": { 
		 "optdone": 1, 
		 "sigma_profile": "yes", 
		 "theory": "DFT", 
		 "functional": "B3LYP", 
		 "basiset": "6-31G**", 
		 "properties": { 
			 "R2extent": 3865.5361, 
			 "electric_dipole_moment_norm": 4.76534738083, 
			 "electric_quadrupole_moment_norm": 11.2168390182, 
			 "total_energy": -1295.62083315, 
			 "HOMO_LUMO_gap": 0.15419, 
			 "cosmo_polarized_energy": -7.25, 
			 "cosmo_cavitation_energy": 24.76, 
			 "cosmo_dispersion_energy": -19.07, 
			 "cosmo_repulsion_energy": 1.47, 
			 "cosmo_total_nonelectrostatic_energy": 7.16, 
			 "SMD_solvation_energy": 2.88 
		},
		"coords": [
			{
				"x": 4.4244720925,
				"y": 1.8715890532,
				"z": 1.6324235279,
				"element": "Cl" 
			},
			{
				"x": 3.9921113158,
				"y": 0.9228280123,
				"z": 0.1774806937,
				"element": "C" 
			},
			{
				"x": 4.8231291821,
				"y": 0.555957886,
				"z": -0.6034289191,
				"element": "O" 
			},
			{
				"x": 2.5461188383,
				"y": 0.6442572354,
				"z": 0.0384795456,
				"element": "C" 
			},
			{
				"x": 1.611072338,
				"y": 1.0188092709,
				"z": 0.854434945,
				"element": "N" 
			},
			{
				"x": 0.3803094856,
				"y": 0.5853612781,
				"z": 0.4156090917,
				"element": "C" 
			},
			{
				"x": -0.8388047822,
				"y": 0.8259908829,
				"z": 1.0750035731,
				"element": "C" 
			},
			{
				"x": -2.0058891319,
				"y": 0.3286974667,
				"z": 0.518078901,
				"element": "C" 
			},
			{
				"x": -1.9778658083,
				"y": -0.4048317008,
				"z": -0.6858450121,
				"element": "C" 
			},
			{
				"x": -0.7853653856,
				"y": -0.6552206497,
				"z": -1.3553729446,
				"element": "C" 
			},
			{
				"x": 0.3965073395,
				"y": -0.1554278365,
				"z": -0.7975888733,
				"element": "C" 
			},
			{
				"x": 2.0371581123,
				"y": -0.291616944,
				"z": -1.3785765491,
				"element": "S" 
			},
			{
				"x": -0.8377331934,
				"y": 1.3925754475,
				"z": 1.9999626165,
				"element": "H" 
			},
			{
				"x": -2.9565034294,
				"y": 0.5038271833,
				"z": 1.0118437825,
				"element": "H" 
			},
			{
				"x": -2.9076158006,
				"y": -0.7829852578,
				"z": -1.1001168005,
				"element": "H" 
			},
			{
				"x": -0.7751011729,
				"y": -1.2208113275,
				"z": -2.2811875781,
				"element": "H" 
			}
		],
		 "valence_orbital": [ 
			{
				"type": "occ",
				"energy": -0.32331,
				"method": "rhf"
			},
			{
				"type": "occ",
				"energy": -0.31522,
				"method": "rhf"
			},
			{
				"type": "occ",
				"energy": -0.29523,
				"method": "rhf"
			},
			{
				"type": "occ",
				"energy": -0.26518,
				"method": "rhf"
			},
			{
				"type": "occ",
				"energy": -0.25631,
				"method": "rhf"
			},
			{
				"type": "unocc",
				"energy": -0.10212,
				"method": "rhf"
			},
			{
				"type": "unocc",
				"energy": -0.02674,
				"method": "rhf"
			},
			{
				"type": "unocc",
				"energy": -0.01143,
				"method": "rhf"
			},
			{
				"type": "unocc",
				"energy": -0.01083,
				"method": "rhf"
			},
			{
				"type": "unocc",
				"energy": 0.02304,
				"method": "rhf"
			}
		],
		"cosmo_sigma_profile": { 
			"-0.025": 0.0,
			"-0.024": 0.0,
			"-0.023": 0.0,
			"-0.022": 0.0,
			"-0.021": 0.0,
			"-0.02": 0.0,
			"-0.019": 0.0,
			"-0.018": 0.0,
			"-0.017": 0.0,
			"-0.016": 0.0,
			"-0.015": 0.0,
			"-0.014": 0.0,
			"-0.013": 0.0,
			"-0.012": 0.0,
			"-0.011": 0.0,
			"-0.01": 0.0,
			"-0.009": 0.370296820605,
			"-0.008": 3.2113091697,
			"-0.007": 8.07311785055,
			"-0.006": 11.7552681192,
			"-0.005": 11.4803630921,
			"-0.004": 10.6883973592,
			"-0.003": 12.6628555057,
			"-0.002": 13.8904839136,
			"-0.001": 15.0358478902,
			"0.0": 20.7105058551,
			"0.001": 22.8943625341,
			"0.002": 21.2951977652,
			"0.003": 20.9359859238,
			"0.004": 9.07930863092,
			"0.005": 4.7456247779,
			"0.006": 3.48474702314,
			"0.007": 3.95301197176,
			"0.008": 5.31145267197,
			"0.009": 2.96124563048,
			"0.01": 1.09956727112,
			"0.011": 1.00803268417,
			"0.012": 0.620503982743,
			"0.013": 0.0174340277054,
			"0.014": 0.0,
			"0.015": 0.0,
			"0.016": 0.0,
			"0.017": 0.0,
			"0.018": 0.0,
			"0.019": 0.0,
			"0.02": 0.0,
			"0.021": 0.0,
			"0.022": 0.0,
			"0.023": 0.0,
			"0.024": 0.0,
			"0.025": 0.0
		}
	}
}
