{
	 "smiles": "COC1=CC=C(C=NN=CC2=CC=C(OC)C=C2)C=C1", 
	 "Tm": 441.15, 
	 "num_atms": 36, 
	 "gaussian": { 
		 "optdone": 1, 
		 "sigma_profile": "yes", 
		 "theory": "DFT", 
		 "functional": "B3LYP", 
		 "basiset": "6-31G**", 
		 "properties": { 
			 "R2extent": 13698.2473, 
			 "electric_dipole_moment_norm": 0.00196214168703, 
			 "electric_quadrupole_moment_norm": 33.2506624534, 
			 "total_energy": -879.236858602, 
			 "HOMO_LUMO_gap": 0.13967, 
			 "cosmo_polarized_energy": -13.55, 
			 "cosmo_cavitation_energy": 41.71, 
			 "cosmo_dispersion_energy": -30.38, 
			 "cosmo_repulsion_energy": 2.32, 
			 "cosmo_total_nonelectrostatic_energy": 13.65, 
			 "SMD_solvation_energy": 7.78 
		},
		"coords": [
			{
				"x": 0.2687572176,
				"y": 7.7831014577,
				"z": 1.7529352586,
				"element": "C" 
			},
			{
				"x": 0.9893536191,
				"y": 7.2488717449,
				"z": 0.6521776503,
				"element": "O" 
			},
			{
				"x": 0.8177668663,
				"y": 5.9347436539,
				"z": 0.339727393,
				"element": "C" 
			},
			{
				"x": -0.0297697788,
				"y": 5.0549728566,
				"z": 1.0327724467,
				"element": "C" 
			},
			{
				"x": -0.1285249367,
				"y": 3.7285986452,
				"z": 0.6259560832,
				"element": "C" 
			},
			{
				"x": 0.6058247554,
				"y": 3.2462691607,
				"z": -0.4704049498,
				"element": "C" 
			},
			{
				"x": 0.5159173104,
				"y": 1.859454982,
				"z": -0.91223934,
				"element": "C" 
			},
			{
				"x": -0.2403628152,
				"y": 0.9948991525,
				"z": -0.3255934094,
				"element": "N" 
			},
			{
				"x": -0.1634396668,
				"y": -0.261862867,
				"z": -0.9202927679,
				"element": "N" 
			},
			{
				"x": -0.9190116815,
				"y": -1.1266649168,
				"z": -0.3330914017,
				"element": "C" 
			},
			{
				"x": -1.0083760996,
				"y": -2.5136449341,
				"z": -0.7745132661,
				"element": "C" 
			},
			{
				"x": -1.8526150553,
				"y": -3.4105878431,
				"z": -0.092490961,
				"element": "C" 
			},
			{
				"x": -1.960403432,
				"y": -4.7354674654,
				"z": -0.4870459154,
				"element": "C" 
			},
			{
				"x": -1.2197669814,
				"y": -5.2023031846,
				"z": -1.5841907428,
				"element": "C" 
			},
			{
				"x": -1.391082944,
				"y": -6.5165180224,
				"z": -1.8964455028,
				"element": "O" 
			},
			{
				"x": -0.67038518,
				"y": -7.0507403922,
				"z": -2.997141786,
				"element": "C" 
			},
			{
				"x": -0.3720678325,
				"y": -4.3225839421,
				"z": -2.2770979605,
				"element": "C" 
			},
			{
				"x": -0.2735735898,
				"y": -2.996119923,
				"z": -1.8705010767,
				"element": "C" 
			},
			{
				"x": 1.4500159618,
				"y": 4.1432198299,
				"z": -1.1524584132,
				"element": "C" 
			},
			{
				"x": 1.5580450814,
				"y": 5.4680263317,
				"z": -0.7577083219,
				"element": "C" 
			},
			{
				"x": -0.8154603707,
				"y": 7.7142679145,
				"z": 1.5984786031,
				"element": "H" 
			},
			{
				"x": 0.530772444,
				"y": 7.2781979401,
				"z": 2.6913097145,
				"element": "H" 
			},
			{
				"x": 0.5558930562,
				"y": 8.8335674418,
				"z": 1.8183635286,
				"element": "H" 
			},
			{
				"x": -0.6095751556,
				"y": 5.3954916491,
				"z": 1.8824995128,
				"element": "H" 
			},
			{
				"x": -0.7803298054,
				"y": 3.0412095096,
				"z": 1.1547227551,
				"element": "H" 
			},
			{
				"x": 1.1205421919,
				"y": 1.5598958335,
				"z": -1.7753430627,
				"element": "H" 
			},
			{
				"x": -1.5231093786,
				"y": -0.8272884812,
				"z": 0.5304400172,
				"element": "H" 
			},
			{
				"x": -2.4296708518,
				"y": -3.0570813979,
				"z": 0.758352258,
				"element": "H" 
			},
			{
				"x": -2.6090427274,
				"y": -5.4317290632,
				"z": 0.0340424195,
				"element": "H" 
			},
			{
				"x": -0.9323429321,
				"y": -6.5458113232,
				"z": -3.9355226436,
				"element": "H" 
			},
			{
				"x": 0.4138234837,
				"y": -6.9819208129,
				"z": -2.8426185446,
				"element": "H" 
			},
			{
				"x": -0.9574964498,
				"y": -8.1012150968,
				"z": -3.0625762901,
				"element": "H" 
			},
			{
				"x": 0.2081476983,
				"y": -4.663234637,
				"z": -3.1264946854,
				"element": "H" 
			},
			{
				"x": 0.3783784288,
				"y": -2.3087896031,
				"z": -2.3991650588,
				"element": "H" 
			},
			{
				"x": 2.0268455235,
				"y": 3.7897812279,
				"z": -2.0034828389,
				"element": "H" 
			},
			{
				"x": 2.2066240268,
				"y": 6.1642945746,
				"z": -1.2788587012,
				"element": "H" 
			}
		],
		 "valence_orbital": [ 
			{
				"type": "occ",
				"energy": -0.25442,
				"method": "rhf"
			},
			{
				"type": "occ",
				"energy": -0.25401,
				"method": "rhf"
			},
			{
				"type": "occ",
				"energy": -0.22833,
				"method": "rhf"
			},
			{
				"type": "occ",
				"energy": -0.22197,
				"method": "rhf"
			},
			{
				"type": "occ",
				"energy": -0.19564,
				"method": "rhf"
			},
			{
				"type": "unocc",
				"energy": -0.05597,
				"method": "rhf"
			},
			{
				"type": "unocc",
				"energy": -0.01006,
				"method": "rhf"
			},
			{
				"type": "unocc",
				"energy": -0.00159,
				"method": "rhf"
			},
			{
				"type": "unocc",
				"energy": 0.00172,
				"method": "rhf"
			},
			{
				"type": "unocc",
				"energy": 0.0587,
				"method": "rhf"
			}
		],
		"cosmo_sigma_profile": { 
			"-0.025": 0.0,
			"-0.024": 0.0,
			"-0.023": 0.0,
			"-0.022": 0.0,
			"-0.021": 0.0,
			"-0.02": 0.0,
			"-0.019": 0.0,
			"-0.018": 0.0,
			"-0.017": 0.0,
			"-0.016": 0.0,
			"-0.015": 0.0,
			"-0.014": 0.0,
			"-0.013": 0.0,
			"-0.012": 0.0,
			"-0.011": 0.0,
			"-0.01": 0.0,
			"-0.009": 0.0,
			"-0.008": 0.00253366468875,
			"-0.007": 7.05615783096,
			"-0.006": 27.6758414207,
			"-0.005": 31.9561657545,
			"-0.004": 33.7082092254,
			"-0.003": 26.5994506024,
			"-0.002": 17.5477726244,
			"-0.001": 16.5080309005,
			"0.0": 16.4796088946,
			"0.001": 16.6662273489,
			"0.002": 22.5249043764,
			"0.003": 32.7894154942,
			"0.004": 35.4843584723,
			"0.005": 15.8023468375,
			"0.006": 7.90071799057,
			"0.007": 6.17865249124,
			"0.008": 5.86272830406,
			"0.009": 4.97303982795,
			"0.01": 4.79319176159,
			"0.011": 2.65178681747,
			"0.012": 0.0654925806452,
			"0.013": 0.0,
			"0.014": 0.0,
			"0.015": 0.0,
			"0.016": 0.0,
			"0.017": 0.0,
			"0.018": 0.0,
			"0.019": 0.0,
			"0.02": 0.0,
			"0.021": 0.0,
			"0.022": 0.0,
			"0.023": 0.0,
			"0.024": 0.0,
			"0.025": 0.0
		}
	}
}
