{
	 "smiles": "OC(=O)C1=C(SCC(=O)NC2=CC(=CC=C2)C#N)C=CC=C1", 
	 "Tm": 392.15, 
	 "num_atms": 34, 
	 "gaussian": { 
		 "optdone": 1, 
		 "sigma_profile": "yes", 
		 "theory": "DFT", 
		 "functional": "B3LYP", 
		 "basiset": "6-31G**", 
		 "properties": { 
			 "R2extent": 7640.9545, 
			 "electric_dipole_moment_norm": 7.51792063339, 
			 "electric_quadrupole_moment_norm": 26.0956239611, 
			 "total_energy": -1350.29652169, 
			 "HOMO_LUMO_gap": 0.19205, 
			 "cosmo_polarized_energy": -25.92, 
			 "cosmo_cavitation_energy": 41.14, 
			 "cosmo_dispersion_energy": -27.74, 
			 "cosmo_repulsion_energy": 2.05, 
			 "cosmo_total_nonelectrostatic_energy": 15.45, 
			 "SMD_solvation_energy": 9.5 
		},
		"coords": [
			{
				"x": -1.5148358049,
				"y": 0.4968667096,
				"z": 0.5369184237,
				"element": "O" 
			},
			{
				"x": -1.5896778717,
				"y": 1.8262580045,
				"z": 0.3268859708,
				"element": "C" 
			},
			{
				"x": -2.6202093246,
				"y": 2.3137014447,
				"z": -0.0800818122,
				"element": "O" 
			},
			{
				"x": -0.3787259758,
				"y": 2.6887657342,
				"z": 0.6364652192,
				"element": "C" 
			},
			{
				"x": 0.9414877425,
				"y": 2.2677425415,
				"z": 0.9201834448,
				"element": "C" 
			},
			{
				"x": 1.4549958095,
				"y": 0.5388465132,
				"z": 1.0239604357,
				"element": "S" 
			},
			{
				"x": 2.0131704685,
				"y": 0.1721114279,
				"z": -0.7078476532,
				"element": "C" 
			},
			{
				"x": 0.8795407204,
				"y": 0.2942423539,
				"z": -1.716694535,
				"element": "C" 
			},
			{
				"x": 0.6434120064,
				"y": 1.3634445247,
				"z": -2.2571399043,
				"element": "O" 
			},
			{
				"x": 0.0825252347,
				"y": -0.8082326701,
				"z": -1.9526134921,
				"element": "N" 
			},
			{
				"x": 0.1511139127,
				"y": -2.1100584709,
				"z": -1.3873131859,
				"element": "C" 
			},
			{
				"x": -0.9190100093,
				"y": -2.5827553126,
				"z": -0.6207804408,
				"element": "C" 
			},
			{
				"x": -0.8792619311,
				"y": -3.8870953579,
				"z": -0.1045591466,
				"element": "C" 
			},
			{
				"x": 0.2363280989,
				"y": -4.7101629512,
				"z": -0.3336159131,
				"element": "C" 
			},
			{
				"x": 1.2974262477,
				"y": -4.2273832851,
				"z": -1.0948308326,
				"element": "C" 
			},
			{
				"x": 1.2514450108,
				"y": -2.9423289246,
				"z": -1.6362861084,
				"element": "C" 
			},
			{
				"x": -1.9781762797,
				"y": -4.3802153964,
				"z": 0.6761640242,
				"element": "C" 
			},
			{
				"x": -2.8631368192,
				"y": -4.7908837133,
				"z": 1.3090027857,
				"element": "N" 
			},
			{
				"x": 1.9353978551,
				"y": 3.218112082,
				"z": 1.1892935305,
				"element": "C" 
			},
			{
				"x": 1.6477165235,
				"y": 4.5809333187,
				"z": 1.1699541823,
				"element": "C" 
			},
			{
				"x": 0.3511907818,
				"y": 5.0054745291,
				"z": 0.8809442093,
				"element": "C" 
			},
			{
				"x": -0.6412969072,
				"y": 4.0674599808,
				"z": 0.6173681004,
				"element": "C" 
			},
			{
				"x": -0.6238700143,
				"y": 0.2448995242,
				"z": 0.8657788565,
				"element": "H" 
			},
			{
				"x": 2.7849726033,
				"y": 0.8921823522,
				"z": -0.9797451037,
				"element": "H" 
			},
			{
				"x": 2.44529862,
				"y": -0.8267723041,
				"z": -0.6375964685,
				"element": "H" 
			},
			{
				"x": -0.7719004116,
				"y": -0.5587013933,
				"z": -2.4376806259,
				"element": "H" 
			},
			{
				"x": -1.7622340153,
				"y": -1.9325973318,
				"z": -0.4123698893,
				"element": "H" 
			},
			{
				"x": 0.2575680757,
				"y": -5.7133208305,
				"z": 0.0775527768,
				"element": "H" 
			},
			{
				"x": 2.155290232,
				"y": -4.8632014006,
				"z": -1.289340957,
				"element": "H" 
			},
			{
				"x": 2.0541522959,
				"y": -2.5856802561,
				"z": -2.2742114748,
				"element": "H" 
			},
			{
				"x": 2.9395868006,
				"y": 2.8756996779,
				"z": 1.4177731615,
				"element": "H" 
			},
			{
				"x": 2.4316817702,
				"y": 5.3019056825,
				"z": 1.3814214762,
				"element": "H" 
			},
			{
				"x": 0.1118296003,
				"y": 6.0642990358,
				"z": 0.8618391299,
				"element": "H" 
			},
			{
				"x": -1.6538950456,
				"y": 4.3749441611,
				"z": 0.383301816,
				"element": "H" 
			}
		],
		 "valence_orbital": [ 
			{
				"type": "occ",
				"energy": -0.27651,
				"method": "rhf"
			},
			{
				"type": "occ",
				"energy": -0.27487,
				"method": "rhf"
			},
			{
				"type": "occ",
				"energy": -0.26817,
				"method": "rhf"
			},
			{
				"type": "occ",
				"energy": -0.26331,
				"method": "rhf"
			},
			{
				"type": "occ",
				"energy": -0.25794,
				"method": "rhf"
			},
			{
				"type": "unocc",
				"energy": -0.06589,
				"method": "rhf"
			},
			{
				"type": "unocc",
				"energy": -0.063,
				"method": "rhf"
			},
			{
				"type": "unocc",
				"energy": -0.04528,
				"method": "rhf"
			},
			{
				"type": "unocc",
				"energy": -0.03522,
				"method": "rhf"
			},
			{
				"type": "unocc",
				"energy": -0.01144,
				"method": "rhf"
			}
		],
		"cosmo_sigma_profile": { 
			"-0.025": 0.0,
			"-0.024": 0.0,
			"-0.023": 0.0,
			"-0.022": 0.0,
			"-0.021": 0.0,
			"-0.02": 0.0,
			"-0.019": 0.0,
			"-0.018": 0.0,
			"-0.017": 0.0,
			"-0.016": 0.0208163435487,
			"-0.015": 0.64750039105,
			"-0.014": 0.835747627941,
			"-0.013": 1.37994238227,
			"-0.012": 0.705173227732,
			"-0.011": 1.29983246483,
			"-0.01": 1.26873131409,
			"-0.009": 3.30333426925,
			"-0.008": 11.1012722031,
			"-0.007": 20.6449676747,
			"-0.006": 23.850689208,
			"-0.005": 23.5564529027,
			"-0.004": 18.1435009526,
			"-0.003": 18.8699184272,
			"-0.002": 20.83155016,
			"-0.001": 20.7668827571,
			"0.0": 25.5018255781,
			"0.001": 24.419417994,
			"0.002": 23.1359549638,
			"0.003": 14.0764297885,
			"0.004": 8.01768967494,
			"0.005": 8.81940019989,
			"0.006": 6.95017643647,
			"0.007": 6.45919918268,
			"0.008": 6.77847114173,
			"0.009": 8.3384248478,
			"0.01": 7.41126059209,
			"0.011": 9.17718983482,
			"0.012": 10.0670456802,
			"0.013": 6.25705532836,
			"0.014": 0.430997581518,
			"0.015": 0.0,
			"0.016": 0.0,
			"0.017": 0.0,
			"0.018": 0.0,
			"0.019": 0.0,
			"0.02": 0.0,
			"0.021": 0.0,
			"0.022": 0.0,
			"0.023": 0.0,
			"0.024": 0.0,
			"0.025": 0.0
		}
	}
}
