{
	 "smiles": "[O-][N+](=O)C1=CC(=C(Cl)C=C1C1C(=O)C2=CC=CC=C2C1=C1C(=O)C2=C(C=CC=C2)C1=O)[N+]([O-])=O", 
	 "Tm": 491.15, 
	 "num_atms": 45, 
	 "gaussian": { 
		 "optdone": 1, 
		 "sigma_profile": "yes", 
		 "theory": "DFT", 
		 "functional": "B3LYP", 
		 "basiset": "6-31G**", 
		 "properties": { 
			 "R2extent": 16382.6427, 
			 "electric_dipole_moment_norm": 8.80228394452, 
			 "electric_quadrupole_moment_norm": 23.7203155677, 
			 "total_energy": -2017.17745511, 
			 "HOMO_LUMO_gap": 0.14333, 
			 "cosmo_polarized_energy": -22.24, 
			 "cosmo_cavitation_energy": 53.51, 
			 "cosmo_dispersion_energy": -36.11, 
			 "cosmo_repulsion_energy": 2.62, 
			 "cosmo_total_nonelectrostatic_energy": 20.03, 
			 "SMD_solvation_energy": 13.77 
		},
		"coords": [
			{
				"x": 2.4196545798,
				"y": -4.9413556112,
				"z": 1.0546095246,
				"element": "O" 
			},
			{
				"x": 1.3316859104,
				"y": -4.3821728424,
				"z": 1.0768155766,
				"element": "N" 
			},
			{
				"x": 0.5049824774,
				"y": -4.4670979368,
				"z": 1.9875840273,
				"element": "O" 
			},
			{
				"x": 0.9106710173,
				"y": -3.6356406428,
				"z": -0.1229955901,
				"element": "C" 
			},
			{
				"x": 1.2559477137,
				"y": -4.2363175864,
				"z": -1.3263124701,
				"element": "C" 
			},
			{
				"x": 0.7173796361,
				"y": -3.7716697861,
				"z": -2.5194681315,
				"element": "C" 
			},
			{
				"x": -0.2190805,
				"y": -2.7286480554,
				"z": -2.4931041294,
				"element": "C" 
			},
			{
				"x": -1.0955471875,
				"y": -2.1794603628,
				"z": -3.8901973643,
				"element": "Cl" 
			},
			{
				"x": -0.5118707585,
				"y": -2.1175146225,
				"z": -1.2745005972,
				"element": "C" 
			},
			{
				"x": 0.0848391007,
				"y": -2.4934587572,
				"z": -0.0677725233,
				"element": "C" 
			},
			{
				"x": -0.2809717736,
				"y": -1.8129566286,
				"z": 1.2301563557,
				"element": "C" 
			},
			{
				"x": 0.7649149074,
				"y": -1.6931582518,
				"z": 2.3917513902,
				"element": "C" 
			},
			{
				"x": 1.9117656222,
				"y": -2.0695997425,
				"z": 2.3919930862,
				"element": "O" 
			},
			{
				"x": 0.0118139501,
				"y": -0.9822593048,
				"z": 3.451541366,
				"element": "C" 
			},
			{
				"x": 0.2805673103,
				"y": -0.9392396321,
				"z": 4.8146212459,
				"element": "C" 
			},
			{
				"x": -0.6162934562,
				"y": -0.2564353337,
				"z": 5.6379013421,
				"element": "C" 
			},
			{
				"x": -1.7406932883,
				"y": 0.3709607233,
				"z": 5.0870043991,
				"element": "C" 
			},
			{
				"x": -1.992317575,
				"y": 0.362362089,
				"z": 3.7109310245,
				"element": "C" 
			},
			{
				"x": -1.1012248521,
				"y": -0.3182068825,
				"z": 2.8769262223,
				"element": "C" 
			},
			{
				"x": -0.9427316611,
				"y": -0.4322277443,
				"z": 1.3983705245,
				"element": "C" 
			},
			{
				"x": -1.0485104041,
				"y": 0.6080007997,
				"z": 0.5149014756,
				"element": "C" 
			},
			{
				"x": -1.9068321132,
				"y": 1.8292283566,
				"z": 0.6805337561,
				"element": "C" 
			},
			{
				"x": -2.8097254365,
				"y": 2.0181887403,
				"z": 1.4832752393,
				"element": "O" 
			},
			{
				"x": -1.5357589057,
				"y": 2.7717106306,
				"z": -0.4110019293,
				"element": "C" 
			},
			{
				"x": -0.5081035612,
				"y": 2.222938019,
				"z": -1.1825637441,
				"element": "C" 
			},
			{
				"x": 0.0406999249,
				"y": 2.916367358,
				"z": -2.2580484267,
				"element": "C" 
			},
			{
				"x": -0.4870414051,
				"y": 4.1757982404,
				"z": -2.5532495436,
				"element": "C" 
			},
			{
				"x": -1.5258913002,
				"y": 4.7248495386,
				"z": -1.7824995054,
				"element": "C" 
			},
			{
				"x": -2.0643331068,
				"y": 4.0273621732,
				"z": -0.6983539858,
				"element": "C" 
			},
			{
				"x": -0.1365919155,
				"y": 0.8812834004,
				"z": -0.6537920781,
				"element": "C" 
			},
			{
				"x": 0.8190573156,
				"y": 0.2220530272,
				"z": -1.0299691292,
				"element": "O" 
			},
			{
				"x": 1.1609449128,
				"y": -4.4474435851,
				"z": -3.7514665813,
				"element": "N" 
			},
			{
				"x": 1.1616766929,
				"y": -3.7999120155,
				"z": -4.7921534842,
				"element": "O" 
			},
			{
				"x": 1.5286886103,
				"y": -5.6159662009,
				"z": -3.6384400972,
				"element": "O" 
			},
			{
				"x": 1.9212052175,
				"y": -5.0894025875,
				"z": -1.3355476192,
				"element": "H" 
			},
			{
				"x": -1.2459636076,
				"y": -1.3253462387,
				"z": -1.278203065,
				"element": "H" 
			},
			{
				"x": -1.0157494607,
				"y": -2.496701692,
				"z": 1.681738064,
				"element": "H" 
			},
			{
				"x": 1.1570749285,
				"y": -1.4406899222,
				"z": 5.2121700704,
				"element": "H" 
			},
			{
				"x": -0.4468180661,
				"y": -0.2152080723,
				"z": 6.7094882506,
				"element": "H" 
			},
			{
				"x": -2.4364272363,
				"y": 0.8863024257,
				"z": 5.7426374136,
				"element": "H" 
			},
			{
				"x": -2.8483982528,
				"y": 0.8742196749,
				"z": 3.2959207689,
				"element": "H" 
			},
			{
				"x": 0.8435646616,
				"y": 2.4800715373,
				"z": -2.843436415,
				"element": "H" 
			},
			{
				"x": -0.0914739911,
				"y": 4.7419238595,
				"z": -3.3913009071,
				"element": "H" 
			},
			{
				"x": -1.9111636725,
				"y": 5.7083243634,
				"z": -2.0349355996,
				"element": "H" 
			},
			{
				"x": -2.8616210015,
				"y": 4.4418450812,
				"z": -0.0898582067,
				"element": "H" 
			}
		],
		 "valence_orbital": [ 
			{
				"type": "occ",
				"energy": -0.28219,
				"method": "rhf"
			},
			{
				"type": "occ",
				"energy": -0.27673,
				"method": "rhf"
			},
			{
				"type": "occ",
				"energy": -0.27285,
				"method": "rhf"
			},
			{
				"type": "occ",
				"energy": -0.26209,
				"method": "rhf"
			},
			{
				"type": "occ",
				"energy": -0.25748,
				"method": "rhf"
			},
			{
				"type": "unocc",
				"energy": -0.11415,
				"method": "rhf"
			},
			{
				"type": "unocc",
				"energy": -0.10376,
				"method": "rhf"
			},
			{
				"type": "unocc",
				"energy": -0.09233,
				"method": "rhf"
			},
			{
				"type": "unocc",
				"energy": -0.08791,
				"method": "rhf"
			},
			{
				"type": "unocc",
				"energy": -0.076,
				"method": "rhf"
			}
		],
		"cosmo_sigma_profile": { 
			"-0.025": 0.0,
			"-0.024": 0.0,
			"-0.023": 0.0,
			"-0.022": 0.0,
			"-0.021": 0.0,
			"-0.02": 0.0,
			"-0.019": 0.0,
			"-0.018": 0.0,
			"-0.017": 0.0,
			"-0.016": 0.0,
			"-0.015": 0.0,
			"-0.014": 0.0,
			"-0.013": 0.0,
			"-0.012": 0.0,
			"-0.011": 0.241411392656,
			"-0.01": 1.63848368253,
			"-0.009": 4.38331144582,
			"-0.008": 10.8852805693,
			"-0.007": 23.0326926338,
			"-0.006": 25.9829523738,
			"-0.005": 26.6126148172,
			"-0.004": 26.3308289436,
			"-0.003": 30.6266177015,
			"-0.002": 28.7362395781,
			"-0.001": 27.4094580803,
			"0.0": 32.8214647914,
			"0.001": 39.8307727722,
			"0.002": 38.0149038023,
			"0.003": 14.6067773722,
			"0.004": 12.6681383551,
			"0.005": 13.9183038097,
			"0.006": 19.2929891046,
			"0.007": 23.5005123213,
			"0.008": 13.7194703315,
			"0.009": 11.117362514,
			"0.01": 5.72711157425,
			"0.011": 3.81709264417,
			"0.012": 0.704453890702,
			"0.013": 0.0,
			"0.014": 0.0,
			"0.015": 0.0,
			"0.016": 0.0,
			"0.017": 0.0,
			"0.018": 0.0,
			"0.019": 0.0,
			"0.02": 0.0,
			"0.021": 0.0,
			"0.022": 0.0,
			"0.023": 0.0,
			"0.024": 0.0,
			"0.025": 0.0
		}
	}
}
