{
	 "smiles": "CC(=O)OC(OC(C)=O)C1=CC=CO1", 
	 "Tm": 326.45, 
	 "num_atms": 24, 
	 "gaussian": { 
		 "optdone": 1, 
		 "sigma_profile": "yes", 
		 "theory": "DFT", 
		 "functional": "B3LYP", 
		 "basiset": "6-31G**", 
		 "properties": { 
			 "R2extent": 3784.5281, 
			 "electric_dipole_moment_norm": 3.33661566711, 
			 "electric_quadrupole_moment_norm": 11.6435400884, 
			 "total_energy": -725.096803259, 
			 "HOMO_LUMO_gap": 0.22937, 
			 "cosmo_polarized_energy": -12.42, 
			 "cosmo_cavitation_energy": 30.08, 
			 "cosmo_dispersion_energy": -20.59, 
			 "cosmo_repulsion_energy": 1.68, 
			 "cosmo_total_nonelectrostatic_energy": 11.17, 
			 "SMD_solvation_energy": 8.56 
		},
		"coords": [
			{
				"x": 1.7086336016,
				"y": 2.469987823,
				"z": -2.7693220609,
				"element": "C" 
			},
			{
				"x": 0.4810147294,
				"y": 1.6474675177,
				"z": -2.4746403493,
				"element": "C" 
			},
			{
				"x": -0.6549991431,
				"y": 1.9353300462,
				"z": -2.7601380201,
				"element": "O" 
			},
			{
				"x": 0.8314584856,
				"y": 0.4957700592,
				"z": -1.8184645821,
				"element": "O" 
			},
			{
				"x": -0.2356347383,
				"y": -0.3002870038,
				"z": -1.3100464249,
				"element": "C" 
			},
			{
				"x": 0.1449962734,
				"y": -0.7167681957,
				"z": 0.0042107929,
				"element": "O" 
			},
			{
				"x": -0.0003729343,
				"y": 0.2188047858,
				"z": 0.9909098079,
				"element": "C" 
			},
			{
				"x": 0.41926969,
				"y": -0.3528050689,
				"z": 2.3213462844,
				"element": "C" 
			},
			{
				"x": -0.4092606416,
				"y": 1.3384295972,
				"z": 0.7931919047,
				"element": "O" 
			},
			{
				"x": -0.4086637144,
				"y": -1.514221305,
				"z": -2.1543848837,
				"element": "C" 
			},
			{
				"x": 0.3684668086,
				"y": -2.1213325034,
				"z": -3.094588455,
				"element": "C" 
			},
			{
				"x": -0.3670381917,
				"y": -3.2685475295,
				"z": -3.5388796382,
				"element": "C" 
			},
			{
				"x": -1.5313403852,
				"y": -3.2684332508,
				"z": -2.8332069041,
				"element": "C" 
			},
			{
				"x": -1.5751297301,
				"y": -2.2031356998,
				"z": -1.9842986546,
				"element": "O" 
			},
			{
				"x": 2.1056261623,
				"y": 2.8718492996,
				"z": -1.8316694326,
				"element": "H" 
			},
			{
				"x": 1.4428947964,
				"y": 3.2909581976,
				"z": -3.4343513479,
				"element": "H" 
			},
			{
				"x": 2.4888270403,
				"y": 1.8505595452,
				"z": -3.2191674914,
				"element": "H" 
			},
			{
				"x": -1.1457177036,
				"y": 0.3004991144,
				"z": -1.2598438797,
				"element": "H" 
			},
			{
				"x": 1.4699634729,
				"y": -0.6551801931,
				"z": 2.2807190522,
				"element": "H" 
			},
			{
				"x": -0.1683640438,
				"y": -1.2472817996,
				"z": 2.5471375043,
				"element": "H" 
			},
			{
				"x": 0.2767189431,
				"y": 0.3967756575,
				"z": 3.098937192,
				"element": "H" 
			},
			{
				"x": 1.3400267347,
				"y": -1.7892925061,
				"z": -3.4280435155,
				"element": "H" 
			},
			{
				"x": -0.066926443,
				"y": -3.989960391,
				"z": -4.2849812221,
				"element": "H" 
			},
			{
				"x": -2.3939490693,
				"y": -3.9161861965,
				"z": -2.8176256764,
				"element": "H" 
			}
		],
		 "valence_orbital": [ 
			{
				"type": "occ",
				"energy": -0.31456,
				"method": "rhf"
			},
			{
				"type": "occ",
				"energy": -0.28399,
				"method": "rhf"
			},
			{
				"type": "occ",
				"energy": -0.28153,
				"method": "rhf"
			},
			{
				"type": "occ",
				"energy": -0.27612,
				"method": "rhf"
			},
			{
				"type": "occ",
				"energy": -0.23187,
				"method": "rhf"
			},
			{
				"type": "unocc",
				"energy": -0.0025,
				"method": "rhf"
			},
			{
				"type": "unocc",
				"energy": 0.0031,
				"method": "rhf"
			},
			{
				"type": "unocc",
				"energy": 0.00844,
				"method": "rhf"
			},
			{
				"type": "unocc",
				"energy": 0.06316,
				"method": "rhf"
			},
			{
				"type": "unocc",
				"energy": 0.10416,
				"method": "rhf"
			}
		],
		"cosmo_sigma_profile": { 
			"-0.025": 0.0,
			"-0.024": 0.0,
			"-0.023": 0.0,
			"-0.022": 0.0,
			"-0.021": 0.0,
			"-0.02": 0.0,
			"-0.019": 0.0,
			"-0.018": 0.0,
			"-0.017": 0.0,
			"-0.016": 0.0,
			"-0.015": 0.0,
			"-0.014": 0.0,
			"-0.013": 0.0,
			"-0.012": 0.0,
			"-0.011": 0.0,
			"-0.01": 0.0457548502613,
			"-0.009": 1.63234871865,
			"-0.008": 3.03198648875,
			"-0.007": 11.4811911525,
			"-0.006": 17.4063691888,
			"-0.005": 18.6880837682,
			"-0.004": 19.3234559539,
			"-0.003": 21.6992088807,
			"-0.002": 20.7295737178,
			"-0.001": 14.3042444374,
			"0.0": 9.57909963655,
			"0.001": 11.4733442757,
			"0.002": 15.140719902,
			"0.003": 12.5625147304,
			"0.004": 14.1260611866,
			"0.005": 11.5481412435,
			"0.006": 7.36842503148,
			"0.007": 6.23998883875,
			"0.008": 4.56417884244,
			"0.009": 3.79222870718,
			"0.01": 5.52982504576,
			"0.011": 6.98676573489,
			"0.012": 2.52145029697,
			"0.013": 0.0713906538112,
			"0.014": 0.0,
			"0.015": 0.0,
			"0.016": 0.0,
			"0.017": 0.0,
			"0.018": 0.0,
			"0.019": 0.0,
			"0.02": 0.0,
			"0.021": 0.0,
			"0.022": 0.0,
			"0.023": 0.0,
			"0.024": 0.0,
			"0.025": 0.0
		}
	}
}
