{
	 "smiles": "CN1C(S)=NN=C1C1=CC=CC=C1", 
	 "Tm": 461.15, 
	 "num_atms": 22, 
	 "gaussian": { 
		 "optdone": 1, 
		 "sigma_profile": "yes", 
		 "theory": "DFT", 
		 "functional": "B3LYP", 
		 "basiset": "6-31G**", 
		 "properties": { 
			 "R2extent": 3494.5311, 
			 "electric_dipole_moment_norm": 5.8053320396, 
			 "electric_quadrupole_moment_norm": 16.072038716, 
			 "total_energy": -910.797143507, 
			 "HOMO_LUMO_gap": 0.19697, 
			 "cosmo_polarized_energy": -17.82, 
			 "cosmo_cavitation_energy": 27.65, 
			 "cosmo_dispersion_energy": -20.84, 
			 "cosmo_repulsion_energy": 1.59, 
			 "cosmo_total_nonelectrostatic_energy": 8.4, 
			 "SMD_solvation_energy": 2.32 
		},
		"coords": [
			{
				"x": 0.3910276468,
				"y": 2.3882142628,
				"z": 1.1789647119,
				"element": "C" 
			},
			{
				"x": 0.1868341182,
				"y": 1.0445504463,
				"z": 1.7036972038,
				"element": "N" 
			},
			{
				"x": 0.255563511,
				"y": 0.6559917948,
				"z": 3.0284896797,
				"element": "C" 
			},
			{
				"x": 0.6540994415,
				"y": 1.7315472097,
				"z": 4.3734395909,
				"element": "S" 
			},
			{
				"x": -0.1035338394,
				"y": -0.6024772204,
				"z": 3.1598059247,
				"element": "N" 
			},
			{
				"x": -0.4096199114,
				"y": -1.0725492853,
				"z": 1.9128565977,
				"element": "N" 
			},
			{
				"x": -0.2291582991,
				"y": -0.0897797884,
				"z": 1.0436472056,
				"element": "C" 
			},
			{
				"x": -0.4725615841,
				"y": -0.2291743165,
				"z": -0.3995502413,
				"element": "C" 
			},
			{
				"x": 0.2803354509,
				"y": 0.4468030743,
				"z": -1.373461049,
				"element": "C" 
			},
			{
				"x": 0.0170175503,
				"y": 0.2528195454,
				"z": -2.7297531274,
				"element": "C" 
			},
			{
				"x": -0.9920297763,
				"y": -0.6228480058,
				"z": -3.1316957331,
				"element": "C" 
			},
			{
				"x": -1.7334417778,
				"y": -1.3132578009,
				"z": -2.1689154276,
				"element": "C" 
			},
			{
				"x": -1.4782080688,
				"y": -1.1200394817,
				"z": -0.814340174,
				"element": "C" 
			},
			{
				"x": 0.1846223994,
				"y": 3.1065305003,
				"z": 1.9733710075,
				"element": "H" 
			},
			{
				"x": 1.4204327919,
				"y": 2.5312511382,
				"z": 0.835192862,
				"element": "H" 
			},
			{
				"x": -0.2906523658,
				"y": 2.5588061054,
				"z": 0.3448633452,
				"element": "H" 
			},
			{
				"x": 1.9941418389,
				"y": 1.7451354601,
				"z": 4.1952782744,
				"element": "H" 
			},
			{
				"x": 1.0946797236,
				"y": 1.1009705316,
				"z": -1.0806753087,
				"element": "H" 
			},
			{
				"x": 0.6102402947,
				"y": 0.7791124001,
				"z": -3.4718520443,
				"element": "H" 
			},
			{
				"x": -1.195539355,
				"y": -0.7717842784,
				"z": -4.1880483025,
				"element": "H" 
			},
			{
				"x": -2.5153809032,
				"y": -2.0020746586,
				"z": -2.4748343058,
				"element": "H" 
			},
			{
				"x": -2.0435688865,
				"y": -1.6536476328,
				"z": -0.0582806897,
				"element": "H" 
			}
		],
		 "valence_orbital": [ 
			{
				"type": "occ",
				"energy": -0.28904,
				"method": "rhf"
			},
			{
				"type": "occ",
				"energy": -0.2707,
				"method": "rhf"
			},
			{
				"type": "occ",
				"energy": -0.26231,
				"method": "rhf"
			},
			{
				"type": "occ",
				"energy": -0.25117,
				"method": "rhf"
			},
			{
				"type": "occ",
				"energy": -0.23475,
				"method": "rhf"
			},
			{
				"type": "unocc",
				"energy": -0.03778,
				"method": "rhf"
			},
			{
				"type": "unocc",
				"energy": -0.01289,
				"method": "rhf"
			},
			{
				"type": "unocc",
				"energy": -0.00049,
				"method": "rhf"
			},
			{
				"type": "unocc",
				"energy": 0.03936,
				"method": "rhf"
			},
			{
				"type": "unocc",
				"energy": 0.05163,
				"method": "rhf"
			}
		],
		"cosmo_sigma_profile": { 
			"-0.025": 0.0,
			"-0.024": 0.0,
			"-0.023": 0.0,
			"-0.022": 0.0,
			"-0.021": 0.0,
			"-0.02": 0.0,
			"-0.019": 0.0,
			"-0.018": 0.0,
			"-0.017": 0.0,
			"-0.016": 0.0,
			"-0.015": 0.0,
			"-0.014": 0.0,
			"-0.013": 0.0,
			"-0.012": 0.599819721782,
			"-0.011": 2.89493546653,
			"-0.01": 1.92707110734,
			"-0.009": 1.8508088617,
			"-0.008": 4.04595997248,
			"-0.007": 8.12732287564,
			"-0.006": 16.1298533098,
			"-0.005": 20.1491418346,
			"-0.004": 21.9693087553,
			"-0.003": 15.4663589665,
			"-0.002": 13.4343087465,
			"-0.001": 10.7227775576,
			"0.0": 11.9678598127,
			"0.001": 11.8218527459,
			"0.002": 11.6244883422,
			"0.003": 13.7508531951,
			"0.004": 16.5725140502,
			"0.005": 9.46539982156,
			"0.006": 3.26518380514,
			"0.007": 3.50306611385,
			"0.008": 3.47480479227,
			"0.009": 2.67511798831,
			"0.01": 2.27389766301,
			"0.011": 2.36868431677,
			"0.012": 3.08251363536,
			"0.013": 3.26053926451,
			"0.014": 3.05637209343,
			"0.015": 2.38187808158,
			"0.016": 1.93741960099,
			"0.017": 0.504261983387,
			"0.018": 0.0,
			"0.019": 0.0,
			"0.02": 0.0,
			"0.021": 0.0,
			"0.022": 0.0,
			"0.023": 0.0,
			"0.024": 0.0,
			"0.025": 0.0
		}
	}
}
