{
	 "smiles": "COC(=O)CN1N=NC(=N1)N1CCOCC1", 
	 "Tm": 375.15, 
	 "num_atms": 29, 
	 "gaussian": { 
		 "optdone": 1, 
		 "sigma_profile": "yes", 
		 "theory": "DFT", 
		 "functional": "B3LYP", 
		 "basiset": "6-31G**", 
		 "properties": { 
			 "R2extent": 5163.5417, 
			 "electric_dipole_moment_norm": 1.59447509231, 
			 "electric_quadrupole_moment_norm": 10.7218843195, 
			 "total_energy": -812.040880352, 
			 "HOMO_LUMO_gap": 0.19164, 
			 "cosmo_polarized_energy": -15.69, 
			 "cosmo_cavitation_energy": 33.05, 
			 "cosmo_dispersion_energy": -23.92, 
			 "cosmo_repulsion_energy": 1.91, 
			 "cosmo_total_nonelectrostatic_energy": 11.05, 
			 "SMD_solvation_energy": 4.11 
		},
		"coords": [
			{
				"x": 3.2710596505,
				"y": -0.5573739723,
				"z": 1.6807944013,
				"element": "C" 
			},
			{
				"x": 1.8652558416,
				"y": -0.2585182672,
				"z": 1.7750716411,
				"element": "O" 
			},
			{
				"x": 1.1755355806,
				"y": -1.0159300369,
				"z": 2.6359955327,
				"element": "C" 
			},
			{
				"x": 1.6415751257,
				"y": -1.8941718758,
				"z": 3.3254470037,
				"element": "O" 
			},
			{
				"x": -0.2998976177,
				"y": -0.6217786419,
				"z": 2.7118501367,
				"element": "C" 
			},
			{
				"x": -0.7977210407,
				"y": 0.1189934264,
				"z": 1.5775491596,
				"element": "N" 
			},
			{
				"x": -1.0088748525,
				"y": 1.4243504563,
				"z": 1.611128204,
				"element": "N" 
			},
			{
				"x": -1.3937659364,
				"y": 1.7712952148,
				"z": 0.4071754389,
				"element": "N" 
			},
			{
				"x": -1.3935949591,
				"y": 0.6203094558,
				"z": -0.3338271092,
				"element": "C" 
			},
			{
				"x": -1.0215728319,
				"y": -0.4491706316,
				"z": 0.3796079065,
				"element": "N" 
			},
			{
				"x": -1.7247352487,
				"y": 0.5721949906,
				"z": -1.6527093627,
				"element": "N" 
			},
			{
				"x": -2.3299795661,
				"y": 1.7254916595,
				"z": -2.3194506276,
				"element": "C" 
			},
			{
				"x": -3.5471806876,
				"y": 1.2708036654,
				"z": -3.1213184441,
				"element": "C" 
			},
			{
				"x": -3.244472437,
				"y": 0.2492341136,
				"z": -4.0737562416,
				"element": "O" 
			},
			{
				"x": -2.0567811628,
				"y": -0.4886750434,
				"z": -3.8103605557,
				"element": "C" 
			},
			{
				"x": -1.8172064175,
				"y": -0.7233946101,
				"z": -2.3224290166,
				"element": "C" 
			},
			{
				"x": 3.6675042015,
				"y": 0.1373293814,
				"z": 0.9415449681,
				"element": "H" 
			},
			{
				"x": 3.7568397826,
				"y": -0.4116338542,
				"z": 2.6484130037,
				"element": "H" 
			},
			{
				"x": 3.419117626,
				"y": -1.5909056308,
				"z": 1.3595906738,
				"element": "H" 
			},
			{
				"x": -0.8828490542,
				"y": -1.5358232633,
				"z": 2.8377612393,
				"element": "H" 
			},
			{
				"x": -0.4421335653,
				"y": 0.0100576693,
				"z": 3.5922958712,
				"element": "H" 
			},
			{
				"x": -1.6032559918,
				"y": 2.2170500785,
				"z": -2.9811728114,
				"element": "H" 
			},
			{
				"x": -2.6283222283,
				"y": 2.4557150047,
				"z": -1.5640910832,
				"element": "H" 
			},
			{
				"x": -4.3200013757,
				"y": 0.9069763153,
				"z": -2.4274790826,
				"element": "H" 
			},
			{
				"x": -3.9664864593,
				"y": 2.1178176362,
				"z": -3.6761748165,
				"element": "H" 
			},
			{
				"x": -1.1814752465,
				"y": 0.0218028866,
				"z": -4.2421784423,
				"element": "H" 
			},
			{
				"x": -2.1667059451,
				"y": -1.4488367933,
				"z": -4.3232431391,
				"element": "H" 
			},
			{
				"x": -2.6300222592,
				"y": -1.332345164,
				"z": -1.8982776516,
				"element": "H" 
			},
			{
				"x": -0.8856529251,
				"y": -1.2825641695,
				"z": -2.1765567963,
				"element": "H" 
			}
		],
		 "valence_orbital": [ 
			{
				"type": "occ",
				"energy": -0.3048,
				"method": "rhf"
			},
			{
				"type": "occ",
				"energy": -0.28761,
				"method": "rhf"
			},
			{
				"type": "occ",
				"energy": -0.28194,
				"method": "rhf"
			},
			{
				"type": "occ",
				"energy": -0.25429,
				"method": "rhf"
			},
			{
				"type": "occ",
				"energy": -0.21205,
				"method": "rhf"
			},
			{
				"type": "unocc",
				"energy": -0.02041,
				"method": "rhf"
			},
			{
				"type": "unocc",
				"energy": -0.00447,
				"method": "rhf"
			},
			{
				"type": "unocc",
				"energy": 0.0628,
				"method": "rhf"
			},
			{
				"type": "unocc",
				"energy": 0.08287,
				"method": "rhf"
			},
			{
				"type": "unocc",
				"energy": 0.09176,
				"method": "rhf"
			}
		],
		"cosmo_sigma_profile": { 
			"-0.025": 0.0,
			"-0.024": 0.0,
			"-0.023": 0.0,
			"-0.022": 0.0,
			"-0.021": 0.0,
			"-0.02": 0.0,
			"-0.019": 0.0,
			"-0.018": 0.0,
			"-0.017": 0.0,
			"-0.016": 0.0,
			"-0.015": 0.0,
			"-0.014": 0.0,
			"-0.013": 0.0,
			"-0.012": 0.0,
			"-0.011": 0.661473940837,
			"-0.01": 2.44329142412,
			"-0.009": 3.61817593247,
			"-0.008": 3.49309204106,
			"-0.007": 6.22855324002,
			"-0.006": 14.7539146832,
			"-0.005": 26.5963151462,
			"-0.004": 37.4183693928,
			"-0.003": 25.9709399753,
			"-0.002": 16.9468001322,
			"-0.001": 12.0656160969,
			"0.0": 10.9920430591,
			"0.001": 9.97306705757,
			"0.002": 9.79891114729,
			"0.003": 9.56602727846,
			"0.004": 9.21049428177,
			"0.005": 7.67365037624,
			"0.006": 7.410960168,
			"0.007": 6.50593272469,
			"0.008": 6.46304494758,
			"0.009": 7.32765608497,
			"0.01": 7.48907960677,
			"0.011": 9.45179964193,
			"0.012": 5.04742281386,
			"0.013": 2.9732125391,
			"0.014": 0.813969183576,
			"0.015": 0.0,
			"0.016": 0.0,
			"0.017": 0.0,
			"0.018": 0.0,
			"0.019": 0.0,
			"0.02": 0.0,
			"0.021": 0.0,
			"0.022": 0.0,
			"0.023": 0.0,
			"0.024": 0.0,
			"0.025": 0.0
		}
	}
}
