{
	 "smiles": "CC1=C(C=CC(Br)=C1)N=C=S", 
	 "Tm": 318.65, 
	 "num_atms": 17, 
	 "gaussian": { 
		 "optdone": 1, 
		 "sigma_profile": "yes", 
		 "theory": "DFT", 
		 "functional": "B3LYP", 
		 "basiset": "6-31G**", 
		 "properties": { 
			 "R2extent": 8377.7568, 
			 "electric_dipole_moment_norm": 1.88075339425, 
			 "electric_quadrupole_moment_norm": 9.49220989918, 
			 "total_energy": -3332.81305564, 
			 "HOMO_LUMO_gap": 0.17494, 
			 "cosmo_polarized_energy": -5.69, 
			 "cosmo_cavitation_energy": 26.8, 
			 "cosmo_dispersion_energy": -20.01, 
			 "cosmo_repulsion_energy": 1.58, 
			 "cosmo_total_nonelectrostatic_energy": 8.37, 
			 "SMD_solvation_energy": 4.03 
		},
		"coords": [
			{
				"x": 2.2152323925,
				"y": -0.163770817,
				"z": -1.0734996052,
				"element": "C" 
			},
			{
				"x": 2.2738825902,
				"y": 1.2284967524,
				"z": -0.5022376295,
				"element": "C" 
			},
			{
				"x": 1.0883660102,
				"y": 1.938264607,
				"z": -0.2034582956,
				"element": "C" 
			},
			{
				"x": 1.1371920491,
				"y": 3.2358722548,
				"z": 0.3289353128,
				"element": "C" 
			},
			{
				"x": 2.3621672323,
				"y": 3.8477075303,
				"z": 0.5725850099,
				"element": "C" 
			},
			{
				"x": 3.5330975197,
				"y": 3.151165607,
				"z": 0.2793847814,
				"element": "C" 
			},
			{
				"x": 5.2229299915,
				"y": 3.9743920552,
				"z": 0.6066493274,
				"element": "Br" 
			},
			{
				"x": 3.4929287492,
				"y": 1.8615728104,
				"z": -0.2498272746,
				"element": "C" 
			},
			{
				"x": -0.1303048047,
				"y": 1.3508310544,
				"z": -0.4374415552,
				"element": "N" 
			},
			{
				"x": -1.1843177789,
				"y": 0.8427672767,
				"z": -0.6398107729,
				"element": "C" 
			},
			{
				"x": -2.5991347922,
				"y": 0.1616958015,
				"z": -0.9121701502,
				"element": "S" 
			},
			{
				"x": 3.2191202425,
				"y": -0.5592342624,
				"z": -1.2427695184,
				"element": "H" 
			},
			{
				"x": 1.6763319898,
				"y": -0.1791431952,
				"z": -2.0273552633,
				"element": "H" 
			},
			{
				"x": 1.6875439581,
				"y": -0.847566383,
				"z": -0.3993589107,
				"element": "H" 
			},
			{
				"x": 0.2091454937,
				"y": 3.7531768655,
				"z": 0.546954015,
				"element": "H" 
			},
			{
				"x": 2.4049984808,
				"y": 4.8493767254,
				"z": 0.9835133218,
				"element": "H" 
			},
			{
				"x": 4.4191206761,
				"y": 1.341795317,
				"z": -0.4689927927,
				"element": "H" 
			}
		],
		 "valence_orbital": [ 
			{
				"type": "occ",
				"energy": -0.29741,
				"method": "rhf"
			},
			{
				"type": "occ",
				"energy": -0.27997,
				"method": "rhf"
			},
			{
				"type": "occ",
				"energy": -0.27463,
				"method": "rhf"
			},
			{
				"type": "occ",
				"energy": -0.25646,
				"method": "rhf"
			},
			{
				"type": "occ",
				"energy": -0.23063,
				"method": "rhf"
			},
			{
				"type": "unocc",
				"energy": -0.05569,
				"method": "rhf"
			},
			{
				"type": "unocc",
				"energy": -0.02778,
				"method": "rhf"
			},
			{
				"type": "unocc",
				"energy": -0.00347,
				"method": "rhf"
			},
			{
				"type": "unocc",
				"energy": -0.00047,
				"method": "rhf"
			},
			{
				"type": "unocc",
				"energy": 0.03721,
				"method": "rhf"
			}
		],
		"cosmo_sigma_profile": { 
			"-0.025": 0.0,
			"-0.024": 0.0,
			"-0.023": 0.0,
			"-0.022": 0.0,
			"-0.021": 0.0,
			"-0.02": 0.0,
			"-0.019": 0.0,
			"-0.018": 0.0,
			"-0.017": 0.0,
			"-0.016": 0.0,
			"-0.015": 0.0,
			"-0.014": 0.0,
			"-0.013": 0.0,
			"-0.012": 0.0,
			"-0.011": 0.0,
			"-0.01": 0.0,
			"-0.009": 0.0200812148866,
			"-0.008": 2.59601518628,
			"-0.007": 6.71074896233,
			"-0.006": 7.15340259058,
			"-0.005": 10.8952618127,
			"-0.004": 13.8145045321,
			"-0.003": 15.0161409539,
			"-0.002": 18.4167903169,
			"-0.001": 26.3442439091,
			"0.0": 18.4565950031,
			"0.001": 21.7609687165,
			"0.002": 23.9000379591,
			"0.003": 14.8393070756,
			"0.004": 17.04166046,
			"0.005": 11.0421795909,
			"0.006": 13.1417950271,
			"0.007": 1.2726575108,
			"0.008": 0.0,
			"0.009": 0.0,
			"0.01": 0.0,
			"0.011": 0.0,
			"0.012": 0.0,
			"0.013": 0.0,
			"0.014": 0.0,
			"0.015": 0.0,
			"0.016": 0.0,
			"0.017": 0.0,
			"0.018": 0.0,
			"0.019": 0.0,
			"0.02": 0.0,
			"0.021": 0.0,
			"0.022": 0.0,
			"0.023": 0.0,
			"0.024": 0.0,
			"0.025": 0.0
		}
	}
}
