{
	 "smiles": "O=C1NC2CCCC12", 
	 "Tm": 320.65, 
	 "num_atms": 17, 
	 "gaussian": { 
		 "optdone": 1, 
		 "sigma_profile": "yes", 
		 "theory": "DFT", 
		 "functional": "B3LYP", 
		 "basiset": "6-31G**", 
		 "properties": { 
			 "R2extent": 1263.0543, 
			 "electric_dipole_moment_norm": 3.86869885362, 
			 "electric_quadrupole_moment_norm": 14.1630650775, 
			 "total_energy": -364.026549083, 
			 "HOMO_LUMO_gap": 0.27719, 
			 "cosmo_polarized_energy": -10.0, 
			 "cosmo_cavitation_energy": 19.09, 
			 "cosmo_dispersion_energy": -14.74, 
			 "cosmo_repulsion_energy": 1.26, 
			 "cosmo_total_nonelectrostatic_energy": 5.61, 
			 "SMD_solvation_energy": 2.57 
		},
		"coords": [
			{
				"x": 0.3515883396,
				"y": -0.8750656278,
				"z": 2.9290575836,
				"element": "O" 
			},
			{
				"x": 1.0327174208,
				"y": -0.8015148269,
				"z": 1.9324390526,
				"element": "C" 
			},
			{
				"x": 1.8124685298,
				"y": -1.7187541936,
				"z": 1.2629719295,
				"element": "N" 
			},
			{
				"x": 2.1852486618,
				"y": -0.8229502323,
				"z": 0.1555986588,
				"element": "C" 
			},
			{
				"x": 1.4926920496,
				"y": -1.040379965,
				"z": -1.2080025823,
				"element": "C" 
			},
			{
				"x": 0.739798296,
				"y": 0.2828653908,
				"z": -1.4653757029,
				"element": "C" 
			},
			{
				"x": 0.2385563131,
				"y": 0.7257527258,
				"z": -0.0721862831,
				"element": "C" 
			},
			{
				"x": 1.3685752318,
				"y": 0.2955306458,
				"z": 0.8875920882,
				"element": "C" 
			},
			{
				"x": 1.9283853685,
				"y": -2.7153203885,
				"z": 1.3981213916,
				"element": "H" 
			},
			{
				"x": 3.2656842282,
				"y": -0.6671637265,
				"z": 0.0727376201,
				"element": "H" 
			},
			{
				"x": 2.1972661469,
				"y": -1.2885449678,
				"z": -2.0077862413,
				"element": "H" 
			},
			{
				"x": 0.7813691632,
				"y": -1.8700321195,
				"z": -1.1247286354,
				"element": "H" 
			},
			{
				"x": 1.4392080599,
				"y": 1.0315840118,
				"z": -1.858686753,
				"element": "H" 
			},
			{
				"x": -0.0667570415,
				"y": 0.1805101791,
				"z": -2.1987385339,
				"element": "H" 
			},
			{
				"x": -0.6937681713,
				"y": 0.2086543749,
				"z": 0.1818996503,
				"element": "H" 
			},
			{
				"x": 0.0321073995,
				"y": 1.7982790492,
				"z": -0.0213872209,
				"element": "H" 
			},
			{
				"x": 1.9500600044,
				"y": 1.1263496706,
				"z": 1.2939739782,
				"element": "H" 
			}
		],
		 "valence_orbital": [ 
			{
				"type": "occ",
				"energy": -0.34092,
				"method": "rhf"
			},
			{
				"type": "occ",
				"energy": -0.3394,
				"method": "rhf"
			},
			{
				"type": "occ",
				"energy": -0.33136,
				"method": "rhf"
			},
			{
				"type": "occ",
				"energy": -0.25205,
				"method": "rhf"
			},
			{
				"type": "occ",
				"energy": -0.24304,
				"method": "rhf"
			},
			{
				"type": "unocc",
				"energy": 0.03415,
				"method": "rhf"
			},
			{
				"type": "unocc",
				"energy": 0.08159,
				"method": "rhf"
			},
			{
				"type": "unocc",
				"energy": 0.08578,
				"method": "rhf"
			},
			{
				"type": "unocc",
				"energy": 0.09796,
				"method": "rhf"
			},
			{
				"type": "unocc",
				"energy": 0.13173,
				"method": "rhf"
			}
		],
		"cosmo_sigma_profile": { 
			"-0.025": 0.0,
			"-0.024": 0.0,
			"-0.023": 0.0,
			"-0.022": 0.0,
			"-0.021": 0.0,
			"-0.02": 0.0,
			"-0.019": 0.0,
			"-0.018": 0.0,
			"-0.017": 0.0,
			"-0.016": 0.0,
			"-0.015": 0.0,
			"-0.014": 0.824386308177,
			"-0.013": 1.10508554712,
			"-0.012": 1.52481482999,
			"-0.011": 1.08592186345,
			"-0.01": 0.980370257512,
			"-0.009": 0.56545240331,
			"-0.008": 1.11380032591,
			"-0.007": 1.08348658156,
			"-0.006": 1.36581705201,
			"-0.005": 4.45861517966,
			"-0.004": 9.41108932866,
			"-0.003": 24.1601136228,
			"-0.002": 26.2388592232,
			"-0.001": 18.0401448993,
			"0.0": 16.1149691801,
			"0.001": 8.8392685772,
			"0.002": 2.88350615626,
			"0.003": 2.53398458749,
			"0.004": 2.52142410409,
			"0.005": 1.74161089922,
			"0.006": 1.34774666152,
			"0.007": 1.22803349299,
			"0.008": 1.41476262939,
			"0.009": 1.34410207362,
			"0.01": 1.46281082412,
			"0.011": 1.85614685982,
			"0.012": 2.14800903478,
			"0.013": 6.12570492382,
			"0.014": 4.8036285488,
			"0.015": 0.675458027168,
			"0.016": 0.0,
			"0.017": 0.0,
			"0.018": 0.0,
			"0.019": 0.0,
			"0.02": 0.0,
			"0.021": 0.0,
			"0.022": 0.0,
			"0.023": 0.0,
			"0.024": 0.0,
			"0.025": 0.0
		}
	}
}
