{
	 "smiles": "CC(C)(C)OC(=O)NC1CCC(O)CC1", 
	 "Tm": 443.15, 
	 "num_atms": 36, 
	 "gaussian": { 
		 "optdone": 1, 
		 "sigma_profile": "yes", 
		 "theory": "DFT", 
		 "functional": "B3LYP", 
		 "basiset": "6-31G**", 
		 "properties": { 
			 "R2extent": 3882.8375, 
			 "electric_dipole_moment_norm": 2.26748391174, 
			 "electric_quadrupole_moment_norm": 11.1225789289, 
			 "total_energy": -712.286616229, 
			 "HOMO_LUMO_gap": 0.29927, 
			 "cosmo_polarized_energy": -12.19, 
			 "cosmo_cavitation_energy": 34.71, 
			 "cosmo_dispersion_energy": -23.92, 
			 "cosmo_repulsion_energy": 1.86, 
			 "cosmo_total_nonelectrostatic_energy": 12.66, 
			 "SMD_solvation_energy": 5.99 
		},
		"coords": [
			{
				"x": -0.0229340768,
				"y": -0.7927761028,
				"z": 1.9515791489,
				"element": "C" 
			},
			{
				"x": 1.1752064691,
				"y": 0.1519210571,
				"z": 1.8210895999,
				"element": "C" 
			},
			{
				"x": 2.4788830938,
				"y": -0.5944441397,
				"z": 2.1255806664,
				"element": "C" 
			},
			{
				"x": 0.9847062431,
				"y": 1.3815969838,
				"z": 2.7161186796,
				"element": "C" 
			},
			{
				"x": 1.1387213357,
				"y": 0.548684899,
				"z": 0.3986808761,
				"element": "O" 
			},
			{
				"x": 2.073928481,
				"y": 1.4012891466,
				"z": -0.0872189331,
				"element": "C" 
			},
			{
				"x": 2.9808292628,
				"y": 1.8984116408,
				"z": 0.5676071142,
				"element": "O" 
			},
			{
				"x": 1.9235626744,
				"y": 1.6817852743,
				"z": -1.4182239323,
				"element": "N" 
			},
			{
				"x": 0.9999127954,
				"y": 1.2667905129,
				"z": -2.4953622942,
				"element": "C" 
			},
			{
				"x": 1.0670177329,
				"y": -0.2273371842,
				"z": -2.8946283144,
				"element": "C" 
			},
			{
				"x": 0.1286889366,
				"y": -1.1580353809,
				"z": -2.1116536118,
				"element": "C" 
			},
			{
				"x": -1.3116122348,
				"y": -0.6399283548,
				"z": -2.0970814646,
				"element": "C" 
			},
			{
				"x": -1.7875345836,
				"y": -0.707057247,
				"z": -3.4474239036,
				"element": "O" 
			},
			{
				"x": -1.3748826964,
				"y": 0.7934404451,
				"z": -1.5481475941,
				"element": "C" 
			},
			{
				"x": -0.4631112248,
				"y": 1.7460921622,
				"z": -2.3347317154,
				"element": "C" 
			},
			{
				"x": -0.0953002102,
				"y": -1.1565876114,
				"z": 2.9808797923,
				"element": "H" 
			},
			{
				"x": 0.0839930305,
				"y": -1.6578322343,
				"z": 1.2907723922,
				"element": "H" 
			},
			{
				"x": -0.9571102412,
				"y": -0.2797364075,
				"z": 1.7050765515,
				"element": "H" 
			},
			{
				"x": 3.339308295,
				"y": 0.0662934437,
				"z": 2.0248211714,
				"element": "H" 
			},
			{
				"x": 2.4464662124,
				"y": -0.9843186078,
				"z": 3.1483140501,
				"element": "H" 
			},
			{
				"x": 2.5989006088,
				"y": -1.442633341,
				"z": 1.4438457893,
				"element": "H" 
			},
			{
				"x": 1.8276709671,
				"y": 2.0655839333,
				"z": 2.6240606704,
				"element": "H" 
			},
			{
				"x": 0.8955659708,
				"y": 1.0631946908,
				"z": 3.7600183091,
				"element": "H" 
			},
			{
				"x": 0.0653909979,
				"y": 1.9103840127,
				"z": 2.4441393756,
				"element": "H" 
			},
			{
				"x": 2.6543917594,
				"y": 2.3160939762,
				"z": -1.7034916814,
				"element": "H" 
			},
			{
				"x": 1.4027484638,
				"y": 1.8226321891,
				"z": -3.3487846381,
				"element": "H" 
			},
			{
				"x": 2.1034127043,
				"y": -0.5733708197,
				"z": -2.8190952902,
				"element": "H" 
			},
			{
				"x": 0.7864825399,
				"y": -0.2830935663,
				"z": -3.9524155049,
				"element": "H" 
			},
			{
				"x": 0.1403680061,
				"y": -2.1543293331,
				"z": -2.5677202611,
				"element": "H" 
			},
			{
				"x": 0.4700974643,
				"y": -1.2587136952,
				"z": -1.0793456305,
				"element": "H" 
			},
			{
				"x": -1.9213341015,
				"y": -1.2982200457,
				"z": -1.4568870012,
				"element": "H" 
			},
			{
				"x": -2.6847088469,
				"y": -0.3493172153,
				"z": -3.4621279122,
				"element": "H" 
			},
			{
				"x": -1.0886146946,
				"y": 0.7790201382,
				"z": -0.4939116107,
				"element": "H" 
			},
			{
				"x": -2.4109379226,
				"y": 1.1589880692,
				"z": -1.5934573968,
				"element": "H" 
			},
			{
				"x": -0.4695079154,
				"y": 2.7462939072,
				"z": -1.8888605528,
				"element": "H" 
			},
			{
				"x": -0.8717652959,
				"y": 1.8430348043,
				"z": -3.3475149438,
				"element": "H" 
			}
		],
		 "valence_orbital": [ 
			{
				"type": "occ",
				"energy": -0.29852,
				"method": "rhf"
			},
			{
				"type": "occ",
				"energy": -0.284,
				"method": "rhf"
			},
			{
				"type": "occ",
				"energy": -0.261,
				"method": "rhf"
			},
			{
				"type": "occ",
				"energy": -0.25429,
				"method": "rhf"
			},
			{
				"type": "occ",
				"energy": -0.24048,
				"method": "rhf"
			},
			{
				"type": "unocc",
				"energy": 0.05879,
				"method": "rhf"
			},
			{
				"type": "unocc",
				"energy": 0.05928,
				"method": "rhf"
			},
			{
				"type": "unocc",
				"energy": 0.07136,
				"method": "rhf"
			},
			{
				"type": "unocc",
				"energy": 0.08653,
				"method": "rhf"
			},
			{
				"type": "unocc",
				"energy": 0.10652,
				"method": "rhf"
			}
		],
		"cosmo_sigma_profile": { 
			"-0.025": 0.0,
			"-0.024": 0.0,
			"-0.023": 0.0,
			"-0.022": 0.0,
			"-0.021": 0.0,
			"-0.02": 0.0,
			"-0.019": 0.0,
			"-0.018": 0.0,
			"-0.017": 0.0,
			"-0.016": 0.0,
			"-0.015": 0.393716260376,
			"-0.014": 1.00112475875,
			"-0.013": 1.74503051755,
			"-0.012": 2.08551754985,
			"-0.011": 1.54301518759,
			"-0.01": 2.19407347027,
			"-0.009": 1.80487753102,
			"-0.008": 2.14967722379,
			"-0.007": 2.14714763087,
			"-0.006": 2.36699055716,
			"-0.005": 3.81691078972,
			"-0.004": 12.6794398921,
			"-0.003": 26.2250461563,
			"-0.002": 33.2964839746,
			"-0.001": 35.9084485581,
			"0.0": 44.5976385929,
			"0.001": 37.3105399174,
			"0.002": 13.2453566538,
			"0.003": 7.25861157007,
			"0.004": 3.02276744317,
			"0.005": 3.60277466596,
			"0.006": 3.12607226273,
			"0.007": 2.74265254738,
			"0.008": 2.65277913827,
			"0.009": 3.07387740897,
			"0.01": 3.03590984087,
			"0.011": 1.84413811176,
			"0.012": 2.99812577101,
			"0.013": 3.77102594584,
			"0.014": 4.5511343837,
			"0.015": 1.08684639635,
			"0.016": 0.0120668337681,
			"0.017": 0.0,
			"0.018": 0.0,
			"0.019": 0.0,
			"0.02": 0.0,
			"0.021": 0.0,
			"0.022": 0.0,
			"0.023": 0.0,
			"0.024": 0.0,
			"0.025": 0.0
		}
	}
}
