{
	 "smiles": "[O-][N+](=O)C1=C2C=CC=CC2=CC2=CC=CC=C12", 
	 "Tm": 417.15, 
	 "num_atms": 26, 
	 "gaussian": { 
		 "optdone": 1, 
		 "sigma_profile": "yes", 
		 "theory": "DFT", 
		 "functional": "B3LYP", 
		 "basiset": "6-31G**", 
		 "properties": { 
			 "R2extent": 4016.544, 
			 "electric_dipole_moment_norm": 3.93089201327, 
			 "electric_quadrupole_moment_norm": 20.7106267834, 
			 "total_energy": -744.016948864, 
			 "HOMO_LUMO_gap": 0.12981, 
			 "cosmo_polarized_energy": -9.39, 
			 "cosmo_cavitation_energy": 30.76, 
			 "cosmo_dispersion_energy": -22.11, 
			 "cosmo_repulsion_energy": 1.65, 
			 "cosmo_total_nonelectrostatic_energy": 10.3, 
			 "SMD_solvation_energy": 7.25 
		},
		"coords": [
			{
				"x": 3.7670891341,
				"y": 0.4495915052,
				"z": -0.7768513943,
				"element": "O" 
			},
			{
				"x": 3.1455203114,
				"y": 0.1204038403,
				"z": 0.2300041355,
				"element": "N" 
			},
			{
				"x": 3.6424405905,
				"y": -0.1533481384,
				"z": 1.3193145664,
				"element": "O" 
			},
			{
				"x": 1.6730029633,
				"y": 0.0475070152,
				"z": 0.1214897924,
				"element": "C" 
			},
			{
				"x": 1.1046831645,
				"y": -1.1731053474,
				"z": -0.262254432,
				"element": "C" 
			},
			{
				"x": 1.868634768,
				"y": -2.3459770955,
				"z": -0.5531587095,
				"element": "C" 
			},
			{
				"x": 1.2427434666,
				"y": -3.5069617338,
				"z": -0.923212522,
				"element": "C" 
			},
			{
				"x": -0.1774233128,
				"y": -3.5710398003,
				"z": -1.0259490806,
				"element": "C" 
			},
			{
				"x": -0.9403899653,
				"y": -2.4669968394,
				"z": -0.7547315484,
				"element": "C" 
			},
			{
				"x": -0.3350055257,
				"y": -1.2318971923,
				"z": -0.3646381485,
				"element": "C" 
			},
			{
				"x": -1.0930781355,
				"y": -0.0894653865,
				"z": -0.0820679749,
				"element": "C" 
			},
			{
				"x": -0.5003757104,
				"y": 1.1198709099,
				"z": 0.2998763761,
				"element": "C" 
			},
			{
				"x": -1.2746506019,
				"y": 2.2866324927,
				"z": 0.5884881305,
				"element": "C" 
			},
			{
				"x": -0.6716963204,
				"y": 3.4583180775,
				"z": 0.9602227909,
				"element": "C" 
			},
			{
				"x": 0.7476005703,
				"y": 3.5348554763,
				"z": 1.0663722027,
				"element": "C" 
			},
			{
				"x": 1.5318481542,
				"y": 2.4437088114,
				"z": 0.8000613765,
				"element": "C" 
			},
			{
				"x": 0.9375656569,
				"y": 1.203564436,
				"z": 0.4092392197,
				"element": "C" 
			},
			{
				"x": 2.9505916165,
				"y": -2.3110809355,
				"z": -0.4788720972,
				"element": "H" 
			},
			{
				"x": 1.8335005542,
				"y": -4.3913510833,
				"z": -1.141696501,
				"element": "H" 
			},
			{
				"x": -0.6499590072,
				"y": -4.5029265407,
				"z": -1.3212247098,
				"element": "H" 
			},
			{
				"x": -2.0235225869,
				"y": -2.5086874195,
				"z": -0.8310296343,
				"element": "H" 
			},
			{
				"x": -2.1760796067,
				"y": -0.1431149587,
				"z": -0.1617294541,
				"element": "H" 
			},
			{
				"x": -2.3561141165,
				"y": 2.2211119075,
				"z": 0.5055425817,
				"element": "H" 
			},
			{
				"x": -1.271548706,
				"y": 4.337092037,
				"z": 1.1766117676,
				"element": "H" 
			},
			{
				"x": 1.2103272353,
				"y": 4.4714186583,
				"z": 1.3623560566,
				"element": "H" 
			},
			{
				"x": 2.6111954094,
				"y": 2.5158773038,
				"z": 0.8847372099,
				"element": "H" 
			}
		],
		 "valence_orbital": [ 
			{
				"type": "occ",
				"energy": -0.30111,
				"method": "rhf"
			},
			{
				"type": "occ",
				"energy": -0.28778,
				"method": "rhf"
			},
			{
				"type": "occ",
				"energy": -0.27003,
				"method": "rhf"
			},
			{
				"type": "occ",
				"energy": -0.25623,
				"method": "rhf"
			},
			{
				"type": "occ",
				"energy": -0.21041,
				"method": "rhf"
			},
			{
				"type": "unocc",
				"energy": -0.0806,
				"method": "rhf"
			},
			{
				"type": "unocc",
				"energy": -0.07205,
				"method": "rhf"
			},
			{
				"type": "unocc",
				"energy": -0.02961,
				"method": "rhf"
			},
			{
				"type": "unocc",
				"energy": -0.00865,
				"method": "rhf"
			},
			{
				"type": "unocc",
				"energy": 0.02622,
				"method": "rhf"
			}
		],
		"cosmo_sigma_profile": { 
			"-0.025": 0.0,
			"-0.024": 0.0,
			"-0.023": 0.0,
			"-0.022": 0.0,
			"-0.021": 0.0,
			"-0.02": 0.0,
			"-0.019": 0.0,
			"-0.018": 0.0,
			"-0.017": 0.0,
			"-0.016": 0.0,
			"-0.015": 0.0,
			"-0.014": 0.0,
			"-0.013": 0.0,
			"-0.012": 0.0,
			"-0.011": 0.0,
			"-0.01": 0.0,
			"-0.009": 0.0,
			"-0.008": 1.31071279327,
			"-0.007": 13.0294036652,
			"-0.006": 18.4787373235,
			"-0.005": 19.6731150091,
			"-0.004": 17.1012433432,
			"-0.003": 11.7917366983,
			"-0.002": 11.2672896332,
			"-0.001": 11.5184355165,
			"0.0": 15.7888852174,
			"0.001": 25.1861374018,
			"0.002": 31.830178245,
			"0.003": 23.5292141331,
			"0.004": 16.9193223882,
			"0.005": 3.22960974032,
			"0.006": 5.35234931044,
			"0.007": 11.1550253087,
			"0.008": 6.78173355636,
			"0.009": 3.71151948061,
			"0.01": 0.376926741942,
			"0.011": 0.0,
			"0.012": 0.0,
			"0.013": 0.0,
			"0.014": 0.0,
			"0.015": 0.0,
			"0.016": 0.0,
			"0.017": 0.0,
			"0.018": 0.0,
			"0.019": 0.0,
			"0.02": 0.0,
			"0.021": 0.0,
			"0.022": 0.0,
			"0.023": 0.0,
			"0.024": 0.0,
			"0.025": 0.0
		}
	}
}
