{
	 "smiles": "CC(C)(OC1=CC2=CC=CC=C2C=C1)C(O)=O", 
	 "Tm": 397.15, 
	 "num_atms": 31, 
	 "gaussian": { 
		 "optdone": 1, 
		 "sigma_profile": "yes", 
		 "theory": "DFT", 
		 "functional": "B3LYP", 
		 "basiset": "6-31G**", 
		 "properties": { 
			 "R2extent": 5835.2041, 
			 "electric_dipole_moment_norm": 1.76177663454, 
			 "electric_quadrupole_moment_norm": 10.371244448, 
			 "total_energy": -767.615690352, 
			 "HOMO_LUMO_gap": 0.17483, 
			 "cosmo_polarized_energy": -12.53, 
			 "cosmo_cavitation_energy": 34.39, 
			 "cosmo_dispersion_energy": -24.19, 
			 "cosmo_repulsion_energy": 1.85, 
			 "cosmo_total_nonelectrostatic_energy": 12.05, 
			 "SMD_solvation_energy": 6.87 
		},
		"coords": [
			{
				"x": 1.4612432466,
				"y": -1.6995462465,
				"z": 1.5113493497,
				"element": "C" 
			},
			{
				"x": 0.8229879356,
				"y": -0.4373031435,
				"z": 2.1168207703,
				"element": "C" 
			},
			{
				"x": 1.3104997386,
				"y": 0.8297918228,
				"z": 1.4126896576,
				"element": "C" 
			},
			{
				"x": -0.6231048699,
				"y": -0.5110296713,
				"z": 2.1316446243,
				"element": "O" 
			},
			{
				"x": -1.3053872007,
				"y": -0.7613145947,
				"z": 0.9569652385,
				"element": "C" 
			},
			{
				"x": -1.7157837519,
				"y": 0.273419995,
				"z": 0.1429080991,
				"element": "C" 
			},
			{
				"x": -2.4916186737,
				"y": 0.0176506194,
				"z": -1.0192391904,
				"element": "C" 
			},
			{
				"x": -2.9264185808,
				"y": 1.0612349258,
				"z": -1.8812076969,
				"element": "C" 
			},
			{
				"x": -3.6763805622,
				"y": 0.7838562522,
				"z": -3.0020397395,
				"element": "C" 
			},
			{
				"x": -4.030579164,
				"y": -0.5517489544,
				"z": -3.3154223271,
				"element": "C" 
			},
			{
				"x": -3.62776563,
				"y": -1.5846225101,
				"z": -2.498938958,
				"element": "C" 
			},
			{
				"x": -2.8524999861,
				"y": -1.3332247813,
				"z": -1.3353892761,
				"element": "C" 
			},
			{
				"x": -2.4292254211,
				"y": -2.3722480467,
				"z": -0.4628714723,
				"element": "C" 
			},
			{
				"x": -1.6778856146,
				"y": -2.0984236814,
				"z": 0.6559371653,
				"element": "C" 
			},
			{
				"x": 1.2111565885,
				"y": -0.3792445021,
				"z": 3.604313996,
				"element": "C" 
			},
			{
				"x": 0.5597060525,
				"y": -1.2975927605,
				"z": 4.3461069951,
				"element": "O" 
			},
			{
				"x": 2.0487893103,
				"y": 0.3641694975,
				"z": 4.0661933541,
				"element": "O" 
			},
			{
				"x": 2.5507254942,
				"y": -1.6407219235,
				"z": 1.5926548484,
				"element": "H" 
			},
			{
				"x": 1.1192003261,
				"y": -2.5955455819,
				"z": 2.0341201314,
				"element": "H" 
			},
			{
				"x": 1.2024118901,
				"y": -1.7847448318,
				"z": 0.4527465808,
				"element": "H" 
			},
			{
				"x": 0.84486041,
				"y": 1.7142190252,
				"z": 1.854057328,
				"element": "H" 
			},
			{
				"x": 1.0620483663,
				"y": 0.7872859568,
				"z": 0.3494508753,
				"element": "H" 
			},
			{
				"x": 2.3925408752,
				"y": 0.9283374028,
				"z": 1.5196222533,
				"element": "H" 
			},
			{
				"x": -1.459286933,
				"y": 1.2951680532,
				"z": 0.4036953316,
				"element": "H" 
			},
			{
				"x": -2.654960442,
				"y": 2.0858229204,
				"z": -1.6401324493,
				"element": "H" 
			},
			{
				"x": -4.0007768451,
				"y": 1.5913514009,
				"z": -3.6521359179,
				"element": "H" 
			},
			{
				"x": -4.6228021477,
				"y": -0.7566944882,
				"z": -4.2024841331,
				"element": "H" 
			},
			{
				"x": -3.8991798672,
				"y": -2.6107853484,
				"z": -2.7340079513,
				"element": "H" 
			},
			{
				"x": -2.7162203704,
				"y": -3.3960597631,
				"z": -0.6889895989,
				"element": "H" 
			},
			{
				"x": -1.3732505242,
				"y": -2.8863842865,
				"z": 1.3362936553,
				"element": "H" 
			},
			{
				"x": 0.8988563508,
				"y": -1.1946727561,
				"z": 5.251388457,
				"element": "H" 
			}
		],
		 "valence_orbital": [ 
			{
				"type": "occ",
				"energy": -0.28408,
				"method": "rhf"
			},
			{
				"type": "occ",
				"energy": -0.27532,
				"method": "rhf"
			},
			{
				"type": "occ",
				"energy": -0.27325,
				"method": "rhf"
			},
			{
				"type": "occ",
				"energy": -0.23887,
				"method": "rhf"
			},
			{
				"type": "occ",
				"energy": -0.21452,
				"method": "rhf"
			},
			{
				"type": "unocc",
				"energy": -0.03969,
				"method": "rhf"
			},
			{
				"type": "unocc",
				"energy": -0.00957,
				"method": "rhf"
			},
			{
				"type": "unocc",
				"energy": 0.00218,
				"method": "rhf"
			},
			{
				"type": "unocc",
				"energy": 0.03032,
				"method": "rhf"
			},
			{
				"type": "unocc",
				"energy": 0.07295,
				"method": "rhf"
			}
		],
		"cosmo_sigma_profile": { 
			"-0.025": 0.0,
			"-0.024": 0.0,
			"-0.023": 0.0,
			"-0.022": 0.0,
			"-0.021": 0.0,
			"-0.02": 0.0,
			"-0.019": 0.159087532195,
			"-0.018": 0.942991262235,
			"-0.017": 1.07473626479,
			"-0.016": 0.603954433377,
			"-0.015": 0.305718491534,
			"-0.014": 0.794931708191,
			"-0.013": 0.627187222592,
			"-0.012": 1.06768101718,
			"-0.011": 0.752754439314,
			"-0.01": 1.04692129124,
			"-0.009": 0.344632358409,
			"-0.008": 0.555104401513,
			"-0.007": 1.18637537082,
			"-0.006": 13.3877737562,
			"-0.005": 19.0526249909,
			"-0.004": 25.2126350595,
			"-0.003": 26.2119484096,
			"-0.002": 22.2688093095,
			"-0.001": 22.6024903388,
			"0.0": 19.0485093448,
			"0.001": 14.6869098986,
			"0.002": 12.3550494906,
			"0.003": 18.0731951932,
			"0.004": 26.6849886022,
			"0.005": 13.9797694251,
			"0.006": 4.25464945959,
			"0.007": 3.62388708279,
			"0.008": 3.92986955557,
			"0.009": 2.84715924407,
			"0.01": 4.22542359472,
			"0.011": 6.29362691448,
			"0.012": 3.43704827174,
			"0.013": 0.760781142277,
			"0.014": 0.0285618323281,
			"0.015": 0.0,
			"0.016": 0.0,
			"0.017": 0.0,
			"0.018": 0.0,
			"0.019": 0.0,
			"0.02": 0.0,
			"0.021": 0.0,
			"0.022": 0.0,
			"0.023": 0.0,
			"0.024": 0.0,
			"0.025": 0.0
		}
	}
}
