{
	 "smiles": "NCC1=CC(NC2CC2)=NC=C1", 
	 "Tm": 313.15, 
	 "num_atms": 25, 
	 "gaussian": { 
		 "optdone": 1, 
		 "sigma_profile": "yes", 
		 "theory": "DFT", 
		 "functional": "B3LYP", 
		 "basiset": "6-31G**", 
		 "properties": { 
			 "R2extent": 3616.3399, 
			 "electric_dipole_moment_norm": 2.40394637627, 
			 "electric_quadrupole_moment_norm": 9.77924709167, 
			 "total_energy": -515.01319791, 
			 "HOMO_LUMO_gap": 0.19419, 
			 "cosmo_polarized_energy": -11.97, 
			 "cosmo_cavitation_energy": 28.14, 
			 "cosmo_dispersion_energy": -20.64, 
			 "cosmo_repulsion_energy": 1.69, 
			 "cosmo_total_nonelectrostatic_energy": 9.2, 
			 "SMD_solvation_energy": 1.97 
		},
		"coords": [
			{
				"x": 2.4028413734,
				"y": 3.8036626777,
				"z": 1.7083661266,
				"element": "N" 
			},
			{
				"x": 2.7054735954,
				"y": 2.4590105295,
				"z": 2.2029265609,
				"element": "C" 
			},
			{
				"x": 2.1486394017,
				"y": 1.3730010479,
				"z": 1.3020443478,
				"element": "C" 
			},
			{
				"x": 1.8902902411,
				"y": 1.608786622,
				"z": -0.0400606957,
				"element": "C" 
			},
			{
				"x": 1.3992203064,
				"y": 0.5525874731,
				"z": -0.8406453117,
				"element": "C" 
			},
			{
				"x": 1.1060316576,
				"y": 0.7833835564,
				"z": -2.1746512649,
				"element": "N" 
			},
			{
				"x": 0.8403085507,
				"y": -0.2920261407,
				"z": -3.0858335779,
				"element": "C" 
			},
			{
				"x": 0.0695967563,
				"y": 0.047565157,
				"z": -4.3353288611,
				"element": "C" 
			},
			{
				"x": -0.5767285067,
				"y": -0.7740306058,
				"z": -3.2455548975,
				"element": "C" 
			},
			{
				"x": 1.1766237314,
				"y": -0.6807988013,
				"z": -0.3640235256,
				"element": "N" 
			},
			{
				"x": 1.4277414175,
				"y": -0.8860671105,
				"z": 0.9369599233,
				"element": "C" 
			},
			{
				"x": 1.9027467613,
				"y": 0.084386762,
				"z": 1.808856666,
				"element": "C" 
			},
			{
				"x": 2.8777008758,
				"y": 4.4975663176,
				"z": 2.2788761058,
				"element": "H" 
			},
			{
				"x": 1.4055350252,
				"y": 3.9860782306,
				"z": 1.7927563693,
				"element": "H" 
			},
			{
				"x": 3.7993582955,
				"y": 2.3583594122,
				"z": 2.230596251,
				"element": "H" 
			},
			{
				"x": 2.3586690174,
				"y": 2.2645905,
				"z": 3.2327485478,
				"element": "H" 
			},
			{
				"x": 2.0620943292,
				"y": 2.5966102675,
				"z": -0.4557447223,
				"element": "H" 
			},
			{
				"x": 1.5507571475,
				"y": 1.5979572244,
				"z": -2.5741394159,
				"element": "H" 
			},
			{
				"x": 1.6198368626,
				"y": -1.0500440765,
				"z": -3.1658783018,
				"element": "H" 
			},
			{
				"x": 0.3585209664,
				"y": -0.4407599604,
				"z": -5.2608562792,
				"element": "H" 
			},
			{
				"x": -0.2637873584,
				"y": 1.0747095802,
				"z": -4.4534300918,
				"element": "H" 
			},
			{
				"x": -1.3276603428,
				"y": -0.2915782944,
				"z": -2.6295757818,
				"element": "H" 
			},
			{
				"x": -0.7340528136,
				"y": -1.8347406452,
				"z": -3.4131415201,
				"element": "H" 
			},
			{
				"x": 1.2316916,
				"y": -1.8949949133,
				"z": 1.2985641121,
				"element": "H" 
			},
			{
				"x": 2.0782511092,
				"y": -0.1505148099,
				"z": 2.8545692366,
				"element": "H" 
			}
		],
		 "valence_orbital": [ 
			{
				"type": "occ",
				"energy": -0.27478,
				"method": "rhf"
			},
			{
				"type": "occ",
				"energy": -0.26174,
				"method": "rhf"
			},
			{
				"type": "occ",
				"energy": -0.24314,
				"method": "rhf"
			},
			{
				"type": "occ",
				"energy": -0.23643,
				"method": "rhf"
			},
			{
				"type": "occ",
				"energy": -0.19652,
				"method": "rhf"
			},
			{
				"type": "unocc",
				"energy": -0.00233,
				"method": "rhf"
			},
			{
				"type": "unocc",
				"energy": 0.01851,
				"method": "rhf"
			},
			{
				"type": "unocc",
				"energy": 0.08376,
				"method": "rhf"
			},
			{
				"type": "unocc",
				"energy": 0.09812,
				"method": "rhf"
			},
			{
				"type": "unocc",
				"energy": 0.11232,
				"method": "rhf"
			}
		],
		"cosmo_sigma_profile": { 
			"-0.025": 0.0,
			"-0.024": 0.0,
			"-0.023": 0.0,
			"-0.022": 0.0,
			"-0.021": 0.0,
			"-0.02": 0.0,
			"-0.019": 0.0,
			"-0.018": 0.0,
			"-0.017": 0.0,
			"-0.016": 0.0,
			"-0.015": 0.0,
			"-0.014": 0.0,
			"-0.013": 0.420353271444,
			"-0.012": 1.16220317062,
			"-0.011": 1.29008554482,
			"-0.01": 3.02522613584,
			"-0.009": 3.46556969154,
			"-0.008": 3.9039597408,
			"-0.007": 4.51104604762,
			"-0.006": 5.12419079874,
			"-0.005": 12.8318193631,
			"-0.004": 21.3261685552,
			"-0.003": 21.7140486289,
			"-0.002": 21.2906019005,
			"-0.001": 14.9186782057,
			"0.0": 13.8194572842,
			"0.001": 13.4769267606,
			"0.002": 12.0377137856,
			"0.003": 11.8262338454,
			"0.004": 14.1320924603,
			"0.005": 13.7236840064,
			"0.006": 5.79536377668,
			"0.007": 3.69429002006,
			"0.008": 2.76053178096,
			"0.009": 2.66597178625,
			"0.01": 2.35354908123,
			"0.011": 1.90796090594,
			"0.012": 1.56524235456,
			"0.013": 1.70608584098,
			"0.014": 1.4916050834,
			"0.015": 1.40613321953,
			"0.016": 1.25301456328,
			"0.017": 0.581502055886,
			"0.018": 0.0,
			"0.019": 0.0,
			"0.02": 0.0,
			"0.021": 0.0,
			"0.022": 0.0,
			"0.023": 0.0,
			"0.024": 0.0,
			"0.025": 0.0
		}
	}
}
