{
	 "smiles": "CC(C)S(=O)(=O)NCC1CCCNC1", 
	 "Tm": 430.15, 
	 "num_atms": 34, 
	 "gaussian": { 
		 "optdone": 1, 
		 "sigma_profile": "yes", 
		 "theory": "DFT", 
		 "functional": "B3LYP", 
		 "basiset": "6-31G**", 
		 "properties": { 
			 "R2extent": 4617.7392, 
			 "electric_dipole_moment_norm": 3.32138875924, 
			 "electric_quadrupole_moment_norm": 18.9222454027, 
			 "total_energy": -1013.08720488, 
			 "HOMO_LUMO_gap": 0.25826, 
			 "cosmo_polarized_energy": -15.64, 
			 "cosmo_cavitation_energy": 35.2, 
			 "cosmo_dispersion_energy": -25.13, 
			 "cosmo_repulsion_energy": 1.94, 
			 "cosmo_total_nonelectrostatic_energy": 12.01, 
			 "SMD_solvation_energy": 1.81 
		},
		"coords": [
			{
				"x": -0.4771459083,
				"y": -3.6072519849,
				"z": -3.4534098387,
				"element": "C" 
			},
			{
				"x": -0.0582176942,
				"y": -2.8861032806,
				"z": -2.1684847805,
				"element": "C" 
			},
			{
				"x": 1.4528682965,
				"y": -2.695687853,
				"z": -2.0481458782,
				"element": "C" 
			},
			{
				"x": -0.9243883555,
				"y": -1.2733967227,
				"z": -2.1129160211,
				"element": "S" 
			},
			{
				"x": -2.3693051245,
				"y": -1.5475706693,
				"z": -2.1049554362,
				"element": "O" 
			},
			{
				"x": -0.3214746953,
				"y": -0.3915818678,
				"z": -3.1224648468,
				"element": "O" 
			},
			{
				"x": -0.5395818374,
				"y": -0.6837900339,
				"z": -0.5652123195,
				"element": "N" 
			},
			{
				"x": 0.2179539437,
				"y": 0.5826431664,
				"z": -0.4752495814,
				"element": "C" 
			},
			{
				"x": 0.6188042619,
				"y": 0.8995431484,
				"z": 0.973187219,
				"element": "C" 
			},
			{
				"x": -0.5872056903,
				"y": 1.2595662464,
				"z": 1.8833410718,
				"element": "C" 
			},
			{
				"x": -0.2954082265,
				"y": 0.9586947439,
				"z": 3.3716165194,
				"element": "C" 
			},
			{
				"x": 1.1855198979,
				"y": 1.1624200531,
				"z": 3.6936424375,
				"element": "C" 
			},
			{
				"x": 2.0013694286,
				"y": 0.1841062578,
				"z": 2.9529765871,
				"element": "N" 
			},
			{
				"x": 1.4566453834,
				"y": -0.20732929,
				"z": 1.6413728625,
				"element": "C" 
			},
			{
				"x": -0.139014715,
				"y": -3.0537006448,
				"z": -4.3342823297,
				"element": "H" 
			},
			{
				"x": -1.5617586207,
				"y": -3.7221086263,
				"z": -3.507751311,
				"element": "H" 
			},
			{
				"x": -0.0186311255,
				"y": -4.6007128896,
				"z": -3.4744380133,
				"element": "H" 
			},
			{
				"x": -0.4507480391,
				"y": -3.4123716398,
				"z": -1.291921454,
				"element": "H" 
			},
			{
				"x": 1.8350688822,
				"y": -2.1008797545,
				"z": -2.882252669,
				"element": "H" 
			},
			{
				"x": 1.9424742153,
				"y": -3.6745149332,
				"z": -2.0701779354,
				"element": "H" 
			},
			{
				"x": 1.7206212524,
				"y": -2.205003564,
				"z": -1.1091801111,
				"element": "H" 
			},
			{
				"x": -1.4168039521,
				"y": -0.6581910946,
				"z": -0.0509862414,
				"element": "H" 
			},
			{
				"x": 1.1139392903,
				"y": 0.4694581506,
				"z": -1.0902789478,
				"element": "H" 
			},
			{
				"x": -0.3499156098,
				"y": 1.4239936401,
				"z": -0.8953259677,
				"element": "H" 
			},
			{
				"x": 1.2612103033,
				"y": 1.7887538248,
				"z": 0.902251191,
				"element": "H" 
			},
			{
				"x": -0.8299699373,
				"y": 2.3206961512,
				"z": 1.7524547027,
				"element": "H" 
			},
			{
				"x": -1.4863854833,
				"y": 0.7072043036,
				"z": 1.580910977,
				"element": "H" 
			},
			{
				"x": -0.9109243136,
				"y": 1.5935389239,
				"z": 4.0171714662,
				"element": "H" 
			},
			{
				"x": -0.5604706808,
				"y": -0.078729449,
				"z": 3.6077284848,
				"element": "H" 
			},
			{
				"x": 1.3625002746,
				"y": 1.0313779875,
				"z": 4.7687086646,
				"element": "H" 
			},
			{
				"x": 1.4523866863,
				"y": 2.2087076012,
				"z": 3.4574724376,
				"element": "H" 
			},
			{
				"x": 2.9397211116,
				"y": 0.5509818769,
				"z": 2.8353132311,
				"element": "H" 
			},
			{
				"x": 0.8372105145,
				"y": -1.106059003,
				"z": 1.753584688,
				"element": "H" 
			},
			{
				"x": 2.2936562664,
				"y": -0.4961027751,
				"z": 0.9954011424,
				"element": "H" 
			}
		],
		 "valence_orbital": [ 
			{
				"type": "occ",
				"energy": -0.30898,
				"method": "rhf"
			},
			{
				"type": "occ",
				"energy": -0.29388,
				"method": "rhf"
			},
			{
				"type": "occ",
				"energy": -0.29128,
				"method": "rhf"
			},
			{
				"type": "occ",
				"energy": -0.26924,
				"method": "rhf"
			},
			{
				"type": "occ",
				"energy": -0.21175,
				"method": "rhf"
			},
			{
				"type": "unocc",
				"energy": 0.04651,
				"method": "rhf"
			},
			{
				"type": "unocc",
				"energy": 0.06669,
				"method": "rhf"
			},
			{
				"type": "unocc",
				"energy": 0.07153,
				"method": "rhf"
			},
			{
				"type": "unocc",
				"energy": 0.08457,
				"method": "rhf"
			},
			{
				"type": "unocc",
				"energy": 0.09208,
				"method": "rhf"
			}
		],
		"cosmo_sigma_profile": { 
			"-0.025": 0.0,
			"-0.024": 0.0,
			"-0.023": 0.0,
			"-0.022": 0.0,
			"-0.021": 0.0,
			"-0.02": 0.0,
			"-0.019": 0.0,
			"-0.018": 0.0,
			"-0.017": 0.0,
			"-0.016": 0.0,
			"-0.015": 0.0,
			"-0.014": 0.0,
			"-0.013": 0.0766855850197,
			"-0.012": 0.839071896064,
			"-0.011": 1.10554729552,
			"-0.01": 1.42710247315,
			"-0.009": 2.97388577946,
			"-0.008": 1.9876066402,
			"-0.007": 5.12005093565,
			"-0.006": 5.14602759143,
			"-0.005": 11.2928032509,
			"-0.004": 23.1283874813,
			"-0.003": 33.9935877968,
			"-0.002": 42.6464069222,
			"-0.001": 38.0975856954,
			"0.0": 27.3266449535,
			"0.001": 13.4211192462,
			"0.002": 6.30509773342,
			"0.003": 5.64367330989,
			"0.004": 4.04064262244,
			"0.005": 4.08195028647,
			"0.006": 4.18892490173,
			"0.007": 3.11235153523,
			"0.008": 3.77975135893,
			"0.009": 4.59438727249,
			"0.01": 4.31672030724,
			"0.011": 10.238916888,
			"0.012": 7.77604240397,
			"0.013": 1.45135818488,
			"0.014": 0.902612270464,
			"0.015": 0.546710625013,
			"0.016": 0.360894348884,
			"0.017": 0.76656021063,
			"0.018": 0.331757520788,
			"0.019": 0.479585523698,
			"0.02": 0.0,
			"0.021": 0.0,
			"0.022": 0.0,
			"0.023": 0.0,
			"0.024": 0.0,
			"0.025": 0.0
		}
	}
}
