{
	 "smiles": "CCC1=CC(=O)NC(=N1)C1=CC=CC=C1", 
	 "Tm": 436.15, 
	 "num_atms": 27, 
	 "gaussian": { 
		 "optdone": 1, 
		 "sigma_profile": "yes", 
		 "theory": "DFT", 
		 "functional": "B3LYP", 
		 "basiset": "6-31G**", 
		 "properties": { 
			 "R2extent": 4536.3029, 
			 "electric_dipole_moment_norm": 3.8917789467, 
			 "electric_quadrupole_moment_norm": 17.0831296521, 
			 "total_energy": -649.267153481, 
			 "HOMO_LUMO_gap": 0.16619, 
			 "cosmo_polarized_energy": -13.35, 
			 "cosmo_cavitation_energy": 31.03, 
			 "cosmo_dispersion_energy": -22.51, 
			 "cosmo_repulsion_energy": 1.77, 
			 "cosmo_total_nonelectrostatic_energy": 10.3, 
			 "SMD_solvation_energy": 5.07 
		},
		"coords": [
			{
				"x": -0.425120764,
				"y": -3.6250263963,
				"z": 1.4032173187,
				"element": "C" 
			},
			{
				"x": -1.8316928713,
				"y": -3.0271483406,
				"z": 1.5736652993,
				"element": "C" 
			},
			{
				"x": -1.8571624637,
				"y": -1.5368134488,
				"z": 1.3375050299,
				"element": "C" 
			},
			{
				"x": -2.1388024851,
				"y": -0.6429859921,
				"z": 2.3355219237,
				"element": "C" 
			},
			{
				"x": -2.1613306192,
				"y": 0.7778976607,
				"z": 2.071654015,
				"element": "C" 
			},
			{
				"x": -2.4154609595,
				"y": 1.691171502,
				"z": 2.8459617232,
				"element": "O" 
			},
			{
				"x": -1.8511581747,
				"y": 1.066428275,
				"z": 0.7183041895,
				"element": "N" 
			},
			{
				"x": -1.5556551922,
				"y": 0.1262918545,
				"z": -0.2262119049,
				"element": "C" 
			},
			{
				"x": -1.5552501538,
				"y": -1.1534493136,
				"z": 0.0483479387,
				"element": "N" 
			},
			{
				"x": -1.2346096496,
				"y": 0.582453902,
				"z": -1.6010719532,
				"element": "C" 
			},
			{
				"x": -0.8137710394,
				"y": 1.8931011797,
				"z": -1.8767015305,
				"element": "C" 
			},
			{
				"x": -0.5254077343,
				"y": 2.2818612959,
				"z": -3.1842163413,
				"element": "C" 
			},
			{
				"x": -0.652829898,
				"y": 1.3677872789,
				"z": -4.2311545404,
				"element": "C" 
			},
			{
				"x": -1.0607793258,
				"y": 0.0582444443,
				"z": -3.9632196942,
				"element": "C" 
			},
			{
				"x": -1.3459866128,
				"y": -0.3343074639,
				"z": -2.6587460915,
				"element": "C" 
			},
			{
				"x": 0.2682140981,
				"y": -3.2156406008,
				"z": 2.1450586747,
				"element": "H" 
			},
			{
				"x": -0.0326990314,
				"y": -3.3970443375,
				"z": 0.4087213338,
				"element": "H" 
			},
			{
				"x": -0.4503845414,
				"y": -4.7122399045,
				"z": 1.5254121916,
				"element": "H" 
			},
			{
				"x": -2.509748043,
				"y": -3.495365854,
				"z": 0.8491644594,
				"element": "H" 
			},
			{
				"x": -2.2202185538,
				"y": -3.2462242336,
				"z": 2.5734115858,
				"element": "H" 
			},
			{
				"x": -2.369190005,
				"y": -0.9641845324,
				"z": 3.3442677809,
				"element": "H" 
			},
			{
				"x": -1.9093479471,
				"y": 2.047522239,
				"z": 0.4754679552,
				"element": "H" 
			},
			{
				"x": -0.6712558718,
				"y": 2.6122763897,
				"z": -1.0748863339,
				"element": "H" 
			},
			{
				"x": -0.1932971407,
				"y": 3.2964915174,
				"z": -3.3821455933,
				"element": "H" 
			},
			{
				"x": -0.4301460673,
				"y": 1.672572079,
				"z": -5.2494711697,
				"element": "H" 
			},
			{
				"x": -1.1580625644,
				"y": -0.6578374229,
				"z": -4.7738469508,
				"element": "H" 
			},
			{
				"x": -1.6589463887,
				"y": -1.3469317769,
				"z": -2.4319093156,
				"element": "H" 
			}
		],
		 "valence_orbital": [ 
			{
				"type": "occ",
				"energy": -0.27775,
				"method": "rhf"
			},
			{
				"type": "occ",
				"energy": -0.27022,
				"method": "rhf"
			},
			{
				"type": "occ",
				"energy": -0.2677,
				"method": "rhf"
			},
			{
				"type": "occ",
				"energy": -0.25162,
				"method": "rhf"
			},
			{
				"type": "occ",
				"energy": -0.22866,
				"method": "rhf"
			},
			{
				"type": "unocc",
				"energy": -0.06247,
				"method": "rhf"
			},
			{
				"type": "unocc",
				"energy": -0.01995,
				"method": "rhf"
			},
			{
				"type": "unocc",
				"energy": -0.01117,
				"method": "rhf"
			},
			{
				"type": "unocc",
				"energy": 0.02893,
				"method": "rhf"
			},
			{
				"type": "unocc",
				"energy": 0.06944,
				"method": "rhf"
			}
		],
		"cosmo_sigma_profile": { 
			"-0.025": 0.0,
			"-0.024": 0.0,
			"-0.023": 0.0,
			"-0.022": 0.0,
			"-0.021": 0.0,
			"-0.02": 0.0,
			"-0.019": 0.0,
			"-0.018": 0.0,
			"-0.017": 0.0,
			"-0.016": 0.370512575717,
			"-0.015": 1.37453275779,
			"-0.014": 0.739545343969,
			"-0.013": 0.786792329624,
			"-0.012": 1.28982223998,
			"-0.011": 1.31685735007,
			"-0.01": 0.845965844972,
			"-0.009": 1.95624710658,
			"-0.008": 1.73024423329,
			"-0.007": 3.5404244546,
			"-0.006": 10.3979236582,
			"-0.005": 14.9671467424,
			"-0.004": 16.8889103556,
			"-0.003": 18.5228026286,
			"-0.002": 24.0842561424,
			"-0.001": 25.16318343,
			"0.0": 22.9931401878,
			"0.001": 21.6461905661,
			"0.002": 16.6312250369,
			"0.003": 14.7496163004,
			"0.004": 15.6612860648,
			"0.005": 4.2475978726,
			"0.006": 3.21011954275,
			"0.007": 2.40982555603,
			"0.008": 2.76256368126,
			"0.009": 3.14848882835,
			"0.01": 1.79006240683,
			"0.011": 1.04176757691,
			"0.012": 2.43548201119,
			"0.013": 4.18424287554,
			"0.014": 5.2650124665,
			"0.015": 1.32736595158,
			"0.016": 0.00494245275493,
			"0.017": 0.0,
			"0.018": 0.0,
			"0.019": 0.0,
			"0.02": 0.0,
			"0.021": 0.0,
			"0.022": 0.0,
			"0.023": 0.0,
			"0.024": 0.0,
			"0.025": 0.0
		}
	}
}
