{
	 "smiles": "CC12CC(O)C3(F)C(CCC4=CC(=O)CCC34C)C1CCC2(O)C(=O)CO", 
	 "Tm": 534.15, 
	 "num_atms": 56, 
	 "gaussian": { 
		 "optdone": 1, 
		 "sigma_profile": "yes", 
		 "theory": "DFT", 
		 "functional": "B3LYP", 
		 "basiset": "6-31G**", 
		 "properties": { 
			 "R2extent": 10136.4853, 
			 "electric_dipole_moment_norm": 5.12248857295, 
			 "electric_quadrupole_moment_norm": 28.4398444192, 
			 "total_energy": -1293.63587717, 
			 "HOMO_LUMO_gap": 0.17305, 
			 "cosmo_polarized_energy": -22.99, 
			 "cosmo_cavitation_energy": 48.43, 
			 "cosmo_dispersion_energy": -33.8, 
			 "cosmo_repulsion_energy": 2.45, 
			 "cosmo_total_nonelectrostatic_energy": 17.08, 
			 "SMD_solvation_energy": 8.55 
		},
		"coords": [
			{
				"x": -1.036962703,
				"y": 1.0503648371,
				"z": -2.6713495611,
				"element": "C" 
			},
			{
				"x": -0.8282712573,
				"y": -0.1947622158,
				"z": -1.7795235866,
				"element": "C" 
			},
			{
				"x": -2.0078705395,
				"y": -0.3583950761,
				"z": -0.8139241235,
				"element": "C" 
			},
			{
				"x": -2.0095229295,
				"y": 0.731054,
				"z": 0.2805226684,
				"element": "C" 
			},
			{
				"x": -3.0842342249,
				"y": 0.5174715561,
				"z": 1.1927159762,
				"element": "O" 
			},
			{
				"x": -0.6800196872,
				"y": 0.918835419,
				"z": 1.0676395151,
				"element": "C" 
			},
			{
				"x": -0.7769585612,
				"y": 2.2501748078,
				"z": 1.5664706055,
				"element": "F" 
			},
			{
				"x": 0.5152142908,
				"y": 1.010727971,
				"z": 0.0599340061,
				"element": "C" 
			},
			{
				"x": 1.9001231157,
				"y": 1.163879711,
				"z": 0.7575346811,
				"element": "C" 
			},
			{
				"x": 1.8164700375,
				"y": 1.1883741158,
				"z": 2.2959439061,
				"element": "C" 
			},
			{
				"x": 1.0237327265,
				"y": -0.0148886577,
				"z": 2.7154008679,
				"element": "C" 
			},
			{
				"x": 1.6052576786,
				"y": -1.0604472448,
				"z": 3.3395861673,
				"element": "C" 
			},
			{
				"x": 0.906110159,
				"y": -2.3093180581,
				"z": 3.6823449112,
				"element": "C" 
			},
			{
				"x": 1.4727440362,
				"y": -3.226471258,
				"z": 4.2629429681,
				"element": "O" 
			},
			{
				"x": -0.5625041303,
				"y": -2.3951802504,
				"z": 3.2896098305,
				"element": "C" 
			},
			{
				"x": -0.9374274477,
				"y": -1.4640015398,
				"z": 2.1272569654,
				"element": "C" 
			},
			{
				"x": -0.4595199252,
				"y": -0.0017599881,
				"z": 2.3436053315,
				"element": "C" 
			},
			{
				"x": -1.2202353743,
				"y": 0.6200812422,
				"z": 3.5538939888,
				"element": "C" 
			},
			{
				"x": 0.4833088271,
				"y": -0.1421720405,
				"z": -0.9522915018,
				"element": "C" 
			},
			{
				"x": 1.5880915269,
				"y": -0.2584588777,
				"z": -2.0187898452,
				"element": "C" 
			},
			{
				"x": 0.9837989111,
				"y": -1.2356624985,
				"z": -3.0720939251,
				"element": "C" 
			},
			{
				"x": -0.4995157171,
				"y": -1.4677800523,
				"z": -2.6655446373,
				"element": "C" 
			},
			{
				"x": -0.5475422001,
				"y": -2.6440746913,
				"z": -1.8667854994,
				"element": "O" 
			},
			{
				"x": -1.5053462221,
				"y": -1.6618936988,
				"z": -3.8029980846,
				"element": "C" 
			},
			{
				"x": -2.5222950708,
				"y": -2.3093406971,
				"z": -3.5788991055,
				"element": "O" 
			},
			{
				"x": -1.2899646855,
				"y": -1.1369562862,
				"z": -5.213266839,
				"element": "C" 
			},
			{
				"x": -2.4492813783,
				"y": -1.2545006742,
				"z": -5.9862396555,
				"element": "O" 
			},
			{
				"x": -0.233205811,
				"y": 1.1926979639,
				"z": -3.3983209004,
				"element": "H" 
			},
			{
				"x": -1.0917154752,
				"y": 1.9680968457,
				"z": -2.0818639854,
				"element": "H" 
			},
			{
				"x": -1.9792095216,
				"y": 0.9753173572,
				"z": -3.224810567,
				"element": "H" 
			},
			{
				"x": -2.9659851777,
				"y": -0.2966210096,
				"z": -1.3484129088,
				"element": "H" 
			},
			{
				"x": -1.9667163249,
				"y": -1.3419698902,
				"z": -0.3449772339,
				"element": "H" 
			},
			{
				"x": -2.1455754677,
				"y": 1.7093983976,
				"z": -0.2014793203,
				"element": "H" 
			},
			{
				"x": -3.9094091725,
				"y": 0.5886239889,
				"z": 0.6962070866,
				"element": "H" 
			},
			{
				"x": 0.3205766389,
				"y": 1.9464558509,
				"z": -0.4754529515,
				"element": "H" 
			},
			{
				"x": 2.5441006382,
				"y": 0.3237253614,
				"z": 0.4784280655,
				"element": "H" 
			},
			{
				"x": 2.3973197017,
				"y": 2.0707113359,
				"z": 0.3983959599,
				"element": "H" 
			},
			{
				"x": 1.3243843708,
				"y": 2.1090217079,
				"z": 2.6241165768,
				"element": "H" 
			},
			{
				"x": 2.8215926243,
				"y": 1.1646463852,
				"z": 2.7272530472,
				"element": "H" 
			},
			{
				"x": 2.6561041697,
				"y": -1.0232317103,
				"z": 3.6187391722,
				"element": "H" 
			},
			{
				"x": -1.1527877247,
				"y": -2.1634011744,
				"z": 4.1854564253,
				"element": "H" 
			},
			{
				"x": -0.7841686144,
				"y": -3.4382221049,
				"z": 3.0439494159,
				"element": "H" 
			},
			{
				"x": -2.0194138243,
				"y": -1.4707392671,
				"z": 1.9806924628,
				"element": "H" 
			},
			{
				"x": -0.4818083427,
				"y": -1.8706954329,
				"z": 1.2187764674,
				"element": "H" 
			},
			{
				"x": -2.2822264609,
				"y": 0.7135247407,
				"z": 3.3277553186,
				"element": "H" 
			},
			{
				"x": -1.0922056465,
				"y": -0.011658553,
				"z": 4.4352531712,
				"element": "H" 
			},
			{
				"x": -0.833186187,
				"y": 1.6099884847,
				"z": 3.7960236774,
				"element": "H" 
			},
			{
				"x": 0.5146915416,
				"y": -1.0812371663,
				"z": -0.3886092281,
				"element": "H" 
			},
			{
				"x": 2.5262589658,
				"y": -0.6412274609,
				"z": -1.6105145636,
				"element": "H" 
			},
			{
				"x": 1.8110160054,
				"y": 0.7155866463,
				"z": -2.468588925,
				"element": "H" 
			},
			{
				"x": 1.4831019916,
				"y": -2.2070090671,
				"z": -3.0687046532,
				"element": "H" 
			},
			{
				"x": 1.0735573968,
				"y": -0.8271887262,
				"z": -4.0818897306,
				"element": "H" 
			},
			{
				"x": -1.4540486702,
				"y": -2.9844577433,
				"z": -1.9496909611,
				"element": "H" 
			},
			{
				"x": -0.9524301144,
				"y": -0.0940022453,
				"z": -5.1969138272,
				"element": "H" 
			},
			{
				"x": -0.4505893588,
				"y": -1.7259988013,
				"z": -5.6305260404,
				"element": "H" 
			},
			{
				"x": -3.0259014056,
				"y": -1.8681345682,
				"z": -5.4989870747,
				"element": "H" 
			}
		],
		 "valence_orbital": [ 
			{
				"type": "occ",
				"energy": -0.28604,
				"method": "rhf"
			},
			{
				"type": "occ",
				"energy": -0.28191,
				"method": "rhf"
			},
			{
				"type": "occ",
				"energy": -0.26841,
				"method": "rhf"
			},
			{
				"type": "occ",
				"energy": -0.25035,
				"method": "rhf"
			},
			{
				"type": "occ",
				"energy": -0.22596,
				"method": "rhf"
			},
			{
				"type": "unocc",
				"energy": -0.05291,
				"method": "rhf"
			},
			{
				"type": "unocc",
				"energy": -0.04084,
				"method": "rhf"
			},
			{
				"type": "unocc",
				"energy": 0.05,
				"method": "rhf"
			},
			{
				"type": "unocc",
				"energy": 0.05803,
				"method": "rhf"
			},
			{
				"type": "unocc",
				"energy": 0.06768,
				"method": "rhf"
			}
		],
		"cosmo_sigma_profile": { 
			"-0.025": 0.0,
			"-0.024": 0.0,
			"-0.023": 0.0,
			"-0.022": 0.0,
			"-0.021": 0.0,
			"-0.02": 0.0,
			"-0.019": 0.0,
			"-0.018": 0.0,
			"-0.017": 0.0,
			"-0.016": 0.572138061977,
			"-0.015": 0.885194150667,
			"-0.014": 1.15813890255,
			"-0.013": 1.06577409847,
			"-0.012": 1.04966524796,
			"-0.011": 1.86040401688,
			"-0.01": 1.88961936279,
			"-0.009": 2.41159370158,
			"-0.008": 3.11742541608,
			"-0.007": 8.30853032076,
			"-0.006": 13.798270248,
			"-0.005": 20.2786319105,
			"-0.004": 32.4914571485,
			"-0.003": 42.6815062252,
			"-0.002": 41.3629203173,
			"-0.001": 39.7024751109,
			"0.0": 32.0322053378,
			"0.001": 21.0421204865,
			"0.002": 15.2232823176,
			"0.003": 11.0791485981,
			"0.004": 10.6326546492,
			"0.005": 7.73277482706,
			"0.006": 10.0191935298,
			"0.007": 10.716510603,
			"0.008": 8.36025025004,
			"0.009": 5.65005580564,
			"0.01": 5.12918844009,
			"0.011": 5.65499976148,
			"0.012": 5.91007091506,
			"0.013": 7.48240655063,
			"0.014": 4.82961784705,
			"0.015": 0.594006323856,
			"0.016": 0.0,
			"0.017": 0.0,
			"0.018": 0.0,
			"0.019": 0.0,
			"0.02": 0.0,
			"0.021": 0.0,
			"0.022": 0.0,
			"0.023": 0.0,
			"0.024": 0.0,
			"0.025": 0.0
		}
	}
}
