{
	 "smiles": "CCCOC=O", 
	 "Tm": 180.15, 
	 "num_atms": 14, 
	 "gaussian": { 
		 "optdone": 1, 
		 "sigma_profile": "yes", 
		 "theory": "DFT", 
		 "functional": "B3LYP", 
		 "basiset": "6-31G**", 
		 "properties": { 
			 "R2extent": 929.2217, 
			 "electric_dipole_moment_norm": 2.12578945806, 
			 "electric_quadrupole_moment_norm": 7.15594271218, 
			 "total_energy": -307.701184253, 
			 "HOMO_LUMO_gap": 0.28688, 
			 "cosmo_polarized_energy": -5.91, 
			 "cosmo_cavitation_energy": 17.5, 
			 "cosmo_dispersion_energy": -12.81, 
			 "cosmo_repulsion_energy": 1.14, 
			 "cosmo_total_nonelectrostatic_energy": 5.82, 
			 "SMD_solvation_energy": 5.21 
		},
		"coords": [
			{
				"x": -2.5323980734,
				"y": -1.0736491757,
				"z": -0.0991667228,
				"element": "C" 
			},
			{
				"x": -1.471554654,
				"y": 0.000358828,
				"z": -0.3596943588,
				"element": "C" 
			},
			{
				"x": -0.3194084512,
				"y": -0.0265315485,
				"z": 0.6322893121,
				"element": "C" 
			},
			{
				"x": 0.3726298569,
				"y": -1.2927265561,
				"z": 0.4783635223,
				"element": "O" 
			},
			{
				"x": 1.4057425482,
				"y": -1.5008252587,
				"z": 1.3077818152,
				"element": "C" 
			},
			{
				"x": 1.8010816802,
				"y": -0.7366651602,
				"z": 2.1547699997,
				"element": "O" 
			},
			{
				"x": -2.9783036454,
				"y": -0.9553027221,
				"z": 0.8949744678,
				"element": "H" 
			},
			{
				"x": -2.0958229166,
				"y": -2.0747919927,
				"z": -0.153683447,
				"element": "H" 
			},
			{
				"x": -3.3391300331,
				"y": -1.0149821698,
				"z": -0.8360532243,
				"element": "H" 
			},
			{
				"x": -1.0671648418,
				"y": -0.1054175201,
				"z": -1.3735759531,
				"element": "H" 
			},
			{
				"x": -1.9242096835,
				"y": 0.998631934,
				"z": -0.3067827847,
				"element": "H" 
			},
			{
				"x": -0.6678263058,
				"y": 0.0574372487,
				"z": 1.667357646,
				"element": "H" 
			},
			{
				"x": 0.3939789729,
				"y": 0.7841718629,
				"z": 0.4538738743,
				"element": "H" 
			},
			{
				"x": 1.8441855466,
				"y": -2.4886077695,
				"z": 1.0939458533,
				"element": "H" 
			}
		],
		 "valence_orbital": [ 
			{
				"type": "occ",
				"energy": -0.35643,
				"method": "rhf"
			},
			{
				"type": "occ",
				"energy": -0.35093,
				"method": "rhf"
			},
			{
				"type": "occ",
				"energy": -0.34183,
				"method": "rhf"
			},
			{
				"type": "occ",
				"energy": -0.30431,
				"method": "rhf"
			},
			{
				"type": "occ",
				"energy": -0.27924,
				"method": "rhf"
			},
			{
				"type": "unocc",
				"energy": 0.00764,
				"method": "rhf"
			},
			{
				"type": "unocc",
				"energy": 0.09035,
				"method": "rhf"
			},
			{
				"type": "unocc",
				"energy": 0.11792,
				"method": "rhf"
			},
			{
				"type": "unocc",
				"energy": 0.13366,
				"method": "rhf"
			},
			{
				"type": "unocc",
				"energy": 0.1379,
				"method": "rhf"
			}
		],
		"cosmo_sigma_profile": { 
			"-0.025": 0.0,
			"-0.024": 0.0,
			"-0.023": 0.0,
			"-0.022": 0.0,
			"-0.021": 0.0,
			"-0.02": 0.0,
			"-0.019": 0.0,
			"-0.018": 0.0,
			"-0.017": 0.0,
			"-0.016": 0.0,
			"-0.015": 0.0,
			"-0.014": 0.0,
			"-0.013": 0.0,
			"-0.012": 0.0,
			"-0.011": 0.0,
			"-0.01": 0.0176410811189,
			"-0.009": 1.96386847609,
			"-0.008": 2.23199264125,
			"-0.007": 2.1571168608,
			"-0.006": 2.58987444212,
			"-0.005": 6.60397163572,
			"-0.004": 12.5477650601,
			"-0.003": 18.856034719,
			"-0.002": 15.6493963376,
			"-0.001": 13.9450754437,
			"0.0": 13.5551182601,
			"0.001": 11.7640433771,
			"0.002": 4.91157436847,
			"0.003": 4.41497467506,
			"0.004": 2.51780482254,
			"0.005": 2.37614614861,
			"0.006": 3.3372729173,
			"0.007": 2.09197018096,
			"0.008": 2.52710540675,
			"0.009": 1.79099816537,
			"0.01": 2.53504156441,
			"0.011": 4.14048737334,
			"0.012": 3.94340178133,
			"0.013": 0.500963587136,
			"0.014": 0.0,
			"0.015": 0.0,
			"0.016": 0.0,
			"0.017": 0.0,
			"0.018": 0.0,
			"0.019": 0.0,
			"0.02": 0.0,
			"0.021": 0.0,
			"0.022": 0.0,
			"0.023": 0.0,
			"0.024": 0.0,
			"0.025": 0.0
		}
	}
}
