{
	 "smiles": "CC(C)CC(C)C1=CC=CC=C1NC(=O)C1=C(F)N(C)N=C1C", 
	 "Tm": 384.15, 
	 "num_atms": 47, 
	 "gaussian": { 
		 "optdone": 1, 
		 "sigma_profile": "yes", 
		 "theory": "DFT", 
		 "functional": "B3LYP", 
		 "basiset": "6-31G**", 
		 "properties": { 
			 "R2extent": 8917.7745, 
			 "electric_dipole_moment_norm": 4.17021291783, 
			 "electric_quadrupole_moment_norm": 14.3973881107, 
			 "total_energy": -1039.70572525, 
			 "HOMO_LUMO_gap": 0.20771, 
			 "cosmo_polarized_energy": -15.04, 
			 "cosmo_cavitation_energy": 48.14, 
			 "cosmo_dispersion_energy": -31.61, 
			 "cosmo_repulsion_energy": 2.44, 
			 "cosmo_total_nonelectrostatic_energy": 18.97, 
			 "SMD_solvation_energy": 8.44 
		},
		"coords": [
			{
				"x": -1.6093424099,
				"y": 4.4398403178,
				"z": -1.6855141126,
				"element": "C" 
			},
			{
				"x": -0.8951478878,
				"y": 3.7100912549,
				"z": -0.5348789498,
				"element": "C" 
			},
			{
				"x": -0.0133038645,
				"y": 4.7008258315,
				"z": 0.2430755845,
				"element": "C" 
			},
			{
				"x": -0.0549995993,
				"y": 2.503921792,
				"z": -1.0290448434,
				"element": "C" 
			},
			{
				"x": -0.7314751638,
				"y": 1.1006816879,
				"z": -1.0249310863,
				"element": "C" 
			},
			{
				"x": -1.9552704469,
				"y": 1.0132995584,
				"z": -1.9506984839,
				"element": "C" 
			},
			{
				"x": -1.0099996086,
				"y": 0.6015009076,
				"z": 0.3892365512,
				"element": "C" 
			},
			{
				"x": -2.2565488496,
				"y": 0.7646821662,
				"z": 1.0093720642,
				"element": "C" 
			},
			{
				"x": -2.5104486078,
				"y": 0.2876115537,
				"z": 2.295879077,
				"element": "C" 
			},
			{
				"x": -1.5030833515,
				"y": -0.3664706345,
				"z": 3.0031148328,
				"element": "C" 
			},
			{
				"x": -0.2484654837,
				"y": -0.5278844213,
				"z": 2.4199046683,
				"element": "C" 
			},
			{
				"x": 0.0001624895,
				"y": -0.0617047862,
				"z": 1.1224967072,
				"element": "C" 
			},
			{
				"x": 1.293568112,
				"y": -0.2325764002,
				"z": 0.5469584152,
				"element": "N" 
			},
			{
				"x": 2.1412767221,
				"y": -1.3279917693,
				"z": 0.6228764246,
				"element": "C" 
			},
			{
				"x": 3.3549201982,
				"y": -1.1705336731,
				"z": 0.5152607006,
				"element": "O" 
			},
			{
				"x": 1.5493928501,
				"y": -2.671094907,
				"z": 0.7692696244,
				"element": "C" 
			},
			{
				"x": 0.3228836426,
				"y": -3.1716500765,
				"z": 0.3650371168,
				"element": "C" 
			},
			{
				"x": -0.7086889691,
				"y": -2.5739899115,
				"z": -0.2250660548,
				"element": "F" 
			},
			{
				"x": 0.275070877,
				"y": -4.4904048356,
				"z": 0.6227338515,
				"element": "N" 
			},
			{
				"x": -0.7998368619,
				"y": -5.4220528941,
				"z": 0.3459938711,
				"element": "C" 
			},
			{
				"x": 1.4443905129,
				"y": -4.916301532,
				"z": 1.1899717004,
				"element": "N" 
			},
			{
				"x": 2.2151166556,
				"y": -3.8361692716,
				"z": 1.2681628308,
				"element": "C" 
			},
			{
				"x": 3.5955748433,
				"y": -3.9307544355,
				"z": 1.8356939533,
				"element": "C" 
			},
			{
				"x": -0.8775794527,
				"y": 4.875355124,
				"z": -2.3772027473,
				"element": "H" 
			},
			{
				"x": -2.230301259,
				"y": 5.2584033143,
				"z": -1.3048144389,
				"element": "H" 
			},
			{
				"x": -2.2546989009,
				"y": 3.7752688483,
				"z": -2.2660171664,
				"element": "H" 
			},
			{
				"x": -1.6573086572,
				"y": 3.3372499006,
				"z": 0.1623103616,
				"element": "H" 
			},
			{
				"x": -0.5933937607,
				"y": 5.5637357294,
				"z": 0.5882381923,
				"element": "H" 
			},
			{
				"x": 0.8004224241,
				"y": 5.0802010276,
				"z": -0.3875665073,
				"element": "H" 
			},
			{
				"x": 0.4386677616,
				"y": 4.2273508751,
				"z": 1.1213440661,
				"element": "H" 
			},
			{
				"x": 0.848554243,
				"y": 2.4369824958,
				"z": -0.4091232214,
				"element": "H" 
			},
			{
				"x": 0.3041725743,
				"y": 2.7074403227,
				"z": -2.0472809505,
				"element": "H" 
			},
			{
				"x": 0.0195586802,
				"y": 0.4160469868,
				"z": -1.4377540918,
				"element": "H" 
			},
			{
				"x": -2.3475367873,
				"y": -0.0082866214,
				"z": -1.974118339,
				"element": "H" 
			},
			{
				"x": -2.7709048397,
				"y": 1.6742056848,
				"z": -1.6445073762,
				"element": "H" 
			},
			{
				"x": -1.6759454794,
				"y": 1.2921242464,
				"z": -2.9720922957,
				"element": "H" 
			},
			{
				"x": -3.0572336399,
				"y": 1.2580299923,
				"z": 0.4682381211,
				"element": "H" 
			},
			{
				"x": -3.4914426362,
				"y": 0.4279411475,
				"z": 2.7404720958,
				"element": "H" 
			},
			{
				"x": -1.6835743784,
				"y": -0.7353326776,
				"z": 4.0085195861,
				"element": "H" 
			},
			{
				"x": 0.5523253015,
				"y": -1.0129762034,
				"z": 2.9682522478,
				"element": "H" 
			},
			{
				"x": 1.8130820801,
				"y": 0.6082930341,
				"z": 0.3224408458,
				"element": "H" 
			},
			{
				"x": -0.4627395487,
				"y": -6.1837190521,
				"z": -0.3619239574,
				"element": "H" 
			},
			{
				"x": -1.1150591111,
				"y": -5.908468517,
				"z": 1.272270615,
				"element": "H" 
			},
			{
				"x": -1.6375065721,
				"y": -4.8700216534,
				"z": -0.0810703092,
				"element": "H" 
			},
			{
				"x": 3.8014335832,
				"y": -4.9652454286,
				"z": 2.1191392402,
				"element": "H" 
			},
			{
				"x": 4.3347228144,
				"y": -3.5891795741,
				"z": 1.1072089768,
				"element": "H" 
			},
			{
				"x": 3.7065397616,
				"y": -3.2917745237,
				"z": 2.7181326093,
				"element": "H" 
			}
		],
		 "valence_orbital": [ 
			{
				"type": "occ",
				"energy": -0.25781,
				"method": "rhf"
			},
			{
				"type": "occ",
				"energy": -0.24848,
				"method": "rhf"
			},
			{
				"type": "occ",
				"energy": -0.24602,
				"method": "rhf"
			},
			{
				"type": "occ",
				"energy": -0.24098,
				"method": "rhf"
			},
			{
				"type": "occ",
				"energy": -0.22729,
				"method": "rhf"
			},
			{
				"type": "unocc",
				"energy": -0.01958,
				"method": "rhf"
			},
			{
				"type": "unocc",
				"energy": -0.00528,
				"method": "rhf"
			},
			{
				"type": "unocc",
				"energy": 0.00562,
				"method": "rhf"
			},
			{
				"type": "unocc",
				"energy": 0.02531,
				"method": "rhf"
			},
			{
				"type": "unocc",
				"energy": 0.07201,
				"method": "rhf"
			}
		],
		"cosmo_sigma_profile": { 
			"-0.025": 0.0,
			"-0.024": 0.0,
			"-0.023": 0.0,
			"-0.022": 0.0,
			"-0.021": 0.0,
			"-0.02": 0.0,
			"-0.019": 0.0,
			"-0.018": 0.0,
			"-0.017": 0.0,
			"-0.016": 0.0,
			"-0.015": 0.0,
			"-0.014": 0.0,
			"-0.013": 0.00422810786647,
			"-0.012": 0.657389436885,
			"-0.011": 1.16538370293,
			"-0.01": 1.2792372915,
			"-0.009": 1.23769890822,
			"-0.008": 1.43736630995,
			"-0.007": 4.27632521863,
			"-0.006": 11.6178080004,
			"-0.005": 18.6423865446,
			"-0.004": 28.5168148993,
			"-0.003": 30.0129255196,
			"-0.002": 42.7081893578,
			"-0.001": 46.042736857,
			"0.0": 48.3821774385,
			"0.001": 42.14599791,
			"0.002": 31.6293408814,
			"0.003": 13.0627404529,
			"0.004": 10.6408505376,
			"0.005": 11.624247203,
			"0.006": 6.22171338211,
			"0.007": 2.83197320664,
			"0.008": 2.50481895654,
			"0.009": 1.81715239012,
			"0.01": 2.2449774879,
			"0.011": 3.23546363043,
			"0.012": 4.24090037331,
			"0.013": 4.46694448002,
			"0.014": 2.79582909116,
			"0.015": 0.722104000357,
			"0.016": 0.666645439752,
			"0.017": 0.29516046704,
			"0.018": 0.276539948505,
			"0.019": 0.210925064626,
			"0.02": 0.146941253592,
			"0.021": 0.0,
			"0.022": 0.0,
			"0.023": 0.365826714749,
			"0.024": 0.0381168792506,
			"0.025": 0.0
		}
	}
}
