{
	 "smiles": "OC(=O)CN1C=NC2=C(C=C(Br)C=C2)C1=O", 
	 "Tm": 551.15, 
	 "num_atms": 23, 
	 "gaussian": { 
		 "optdone": 1, 
		 "sigma_profile": "yes", 
		 "theory": "DFT", 
		 "functional": "B3LYP", 
		 "basiset": "6-31G**", 
		 "properties": { 
			 "R2extent": 11611.8456, 
			 "electric_dipole_moment_norm": 3.03498437887, 
			 "electric_quadrupole_moment_norm": 10.8509837748, 
			 "total_energy": -3291.89490527, 
			 "HOMO_LUMO_gap": 0.17863, 
			 "cosmo_polarized_energy": -17.71, 
			 "cosmo_cavitation_energy": 30.92, 
			 "cosmo_dispersion_energy": -22.77, 
			 "cosmo_repulsion_energy": 1.76, 
			 "cosmo_total_nonelectrostatic_energy": 9.92, 
			 "SMD_solvation_energy": 4.57 
		},
		"coords": [
			{
				"x": -2.4452225527,
				"y": 0.1602366108,
				"z": -0.8150505616,
				"element": "O" 
			},
			{
				"x": -2.03011518,
				"y": -1.0344842775,
				"z": -0.3512106476,
				"element": "C" 
			},
			{
				"x": -2.7694022329,
				"y": -1.9385825079,
				"z": -0.0446878932,
				"element": "O" 
			},
			{
				"x": -0.5143387968,
				"y": -1.1160638156,
				"z": -0.1920933393,
				"element": "C" 
			},
			{
				"x": 0.2378428816,
				"y": -0.1017548308,
				"z": -0.9165663916,
				"element": "N" 
			},
			{
				"x": 0.7732470172,
				"y": 0.9916132561,
				"z": -0.2703911327,
				"element": "C" 
			},
			{
				"x": 1.4342278265,
				"y": 1.9478178505,
				"z": -0.8268314974,
				"element": "N" 
			},
			{
				"x": 1.6122056091,
				"y": 1.8714982469,
				"z": -2.2014605215,
				"element": "C" 
			},
			{
				"x": 1.0943265182,
				"y": 0.8053296484,
				"z": -2.9723566665,
				"element": "C" 
			},
			{
				"x": 1.2900569965,
				"y": 0.7592522422,
				"z": -4.3616218013,
				"element": "C" 
			},
			{
				"x": 2.0036964566,
				"y": 1.7760706833,
				"z": -4.9710898023,
				"element": "C" 
			},
			{
				"x": 2.2869949022,
				"y": 1.7371608096,
				"z": -6.8582308287,
				"element": "Br" 
			},
			{
				"x": 2.5279411218,
				"y": 2.8458884467,
				"z": -4.2248171508,
				"element": "C" 
			},
			{
				"x": 2.3322857059,
				"y": 2.8910069609,
				"z": -2.8544030587,
				"element": "C" 
			},
			{
				"x": 0.3353562925,
				"y": -0.2627580892,
				"z": -2.3144764651,
				"element": "C" 
			},
			{
				"x": -0.1834446888,
				"y": -1.2258300002,
				"z": -2.863936065,
				"element": "O" 
			},
			{
				"x": -3.4136714494,
				"y": 0.1073755863,
				"z": -0.8829508947,
				"element": "H" 
			},
			{
				"x": -0.2843886832,
				"y": -1.0355399722,
				"z": 0.8742704019,
				"element": "H" 
			},
			{
				"x": -0.2157824864,
				"y": -2.1072869375,
				"z": -0.5357196167,
				"element": "H" 
			},
			{
				"x": 0.6094992576,
				"y": 1.0125158979,
				"z": 0.8055282621,
				"element": "H" 
			},
			{
				"x": 0.8783230009,
				"y": -0.0703597237,
				"z": -4.9238326333,
				"element": "H" 
			},
			{
				"x": 3.0824719894,
				"y": 3.6301894986,
				"z": -4.7276198664,
				"element": "H" 
			},
			{
				"x": 2.7261904943,
				"y": 3.7065044162,
				"z": -2.2573518299,
				"element": "H" 
			}
		],
		 "valence_orbital": [ 
			{
				"type": "occ",
				"energy": -0.28862,
				"method": "rhf"
			},
			{
				"type": "occ",
				"energy": -0.28022,
				"method": "rhf"
			},
			{
				"type": "occ",
				"energy": -0.27854,
				"method": "rhf"
			},
			{
				"type": "occ",
				"energy": -0.27666,
				"method": "rhf"
			},
			{
				"type": "occ",
				"energy": -0.23653,
				"method": "rhf"
			},
			{
				"type": "unocc",
				"energy": -0.0579,
				"method": "rhf"
			},
			{
				"type": "unocc",
				"energy": -0.05135,
				"method": "rhf"
			},
			{
				"type": "unocc",
				"energy": -0.00758,
				"method": "rhf"
			},
			{
				"type": "unocc",
				"energy": 0.00093,
				"method": "rhf"
			},
			{
				"type": "unocc",
				"energy": 0.0131,
				"method": "rhf"
			}
		],
		"cosmo_sigma_profile": { 
			"-0.025": 0.0,
			"-0.024": 0.0,
			"-0.023": 0.0,
			"-0.022": 0.0,
			"-0.021": 0.0,
			"-0.02": 0.0453992595305,
			"-0.019": 0.700359628288,
			"-0.018": 0.755305646069,
			"-0.017": 1.02537261374,
			"-0.016": 1.10049119135,
			"-0.015": 0.67006889659,
			"-0.014": 0.31168426739,
			"-0.013": 1.17410876909,
			"-0.012": 2.92126445682,
			"-0.011": 4.57120307352,
			"-0.01": 3.50523819093,
			"-0.009": 3.50287645797,
			"-0.008": 6.60973501749,
			"-0.007": 9.61376100237,
			"-0.006": 9.54151290896,
			"-0.005": 11.7714038573,
			"-0.004": 11.2107080463,
			"-0.003": 12.3541523348,
			"-0.002": 11.8592875051,
			"-0.001": 14.1144012101,
			"0.0": 20.3522615899,
			"0.001": 25.5967924057,
			"0.002": 19.4127246042,
			"0.003": 13.4776407315,
			"0.004": 17.3270387678,
			"0.005": 7.10033598566,
			"0.006": 6.74401215047,
			"0.007": 4.34286182445,
			"0.008": 3.43648728755,
			"0.009": 4.63326105036,
			"0.01": 5.10287327287,
			"0.011": 8.57989811295,
			"0.012": 6.13580552236,
			"0.013": 0.952203870908,
			"0.014": 0.90617576136,
			"0.015": 0.299596363247,
			"0.016": 0.0,
			"0.017": 0.0,
			"0.018": 0.0,
			"0.019": 0.0,
			"0.02": 0.0,
			"0.021": 0.0,
			"0.022": 0.0,
			"0.023": 0.0,
			"0.024": 0.0,
			"0.025": 0.0
		}
	}
}
