{
	 "smiles": "CCSC1=C(C=CC=C1)C(O)=O", 
	 "Tm": 409.15, 
	 "num_atms": 22, 
	 "gaussian": { 
		 "optdone": 1, 
		 "sigma_profile": "yes", 
		 "theory": "DFT", 
		 "functional": "B3LYP", 
		 "basiset": "6-31G**", 
		 "properties": { 
			 "R2extent": 2888.1177, 
			 "electric_dipole_moment_norm": 5.31678205026, 
			 "electric_quadrupole_moment_norm": 13.878889305, 
			 "total_energy": -897.635265987, 
			 "HOMO_LUMO_gap": 0.19965, 
			 "cosmo_polarized_energy": -11.64, 
			 "cosmo_cavitation_energy": 26.6, 
			 "cosmo_dispersion_energy": -19.63, 
			 "cosmo_repulsion_energy": 1.51, 
			 "cosmo_total_nonelectrostatic_energy": 8.48, 
			 "SMD_solvation_energy": 5.35 
		},
		"coords": [
			{
				"x": -1.5185219441,
				"y": 0.1932908777,
				"z": -0.0485521849,
				"element": "C" 
			},
			{
				"x": -1.1065386524,
				"y": -0.7598210537,
				"z": -1.1647317547,
				"element": "C" 
			},
			{
				"x": 0.5801823122,
				"y": -0.4705245965,
				"z": -1.8754580379,
				"element": "S" 
			},
			{
				"x": 1.6495512888,
				"y": -0.8119854714,
				"z": -0.460071181,
				"element": "C" 
			},
			{
				"x": 2.164519314,
				"y": 0.1834330015,
				"z": 0.403516037,
				"element": "C" 
			},
			{
				"x": 3.0067219342,
				"y": -0.2219969367,
				"z": 1.4528206679,
				"element": "C" 
			},
			{
				"x": 3.3402382443,
				"y": -1.5571433631,
				"z": 1.6506236568,
				"element": "C" 
			},
			{
				"x": 2.8329552933,
				"y": -2.5322606384,
				"z": 0.79124069,
				"element": "C" 
			},
			{
				"x": 1.9972262848,
				"y": -2.1555443607,
				"z": -0.2572603534,
				"element": "C" 
			},
			{
				"x": 1.9168081964,
				"y": 1.685046311,
				"z": 0.3555931502,
				"element": "C" 
			},
			{
				"x": 1.2335710019,
				"y": 2.2042089543,
				"z": -0.6748276701,
				"element": "O" 
			},
			{
				"x": 2.3359718234,
				"y": 2.4082019634,
				"z": 1.2342724118,
				"element": "O" 
			},
			{
				"x": -2.5427588914,
				"y": -0.0337342788,
				"z": 0.2676528314,
				"element": "H" 
			},
			{
				"x": -0.8700832002,
				"y": 0.0860347951,
				"z": 0.8254036022,
				"element": "H" 
			},
			{
				"x": -1.4821679151,
				"y": 1.2361735555,
				"z": -0.3735455073,
				"element": "H" 
			},
			{
				"x": -1.7616655148,
				"y": -0.6616924525,
				"z": -2.0362176685,
				"element": "H" 
			},
			{
				"x": -1.1457684762,
				"y": -1.8028743622,
				"z": -0.8382273309,
				"element": "H" 
			},
			{
				"x": 3.3862157957,
				"y": 0.5537265095,
				"z": 2.1078626249,
				"element": "H" 
			},
			{
				"x": 3.9966715139,
				"y": -1.8347843563,
				"z": 2.4697729908,
				"element": "H" 
			},
			{
				"x": 3.0899954742,
				"y": -3.5784260704,
				"z": 0.9288973098,
				"element": "H" 
			},
			{
				"x": 1.6085359512,
				"y": -2.9040108336,
				"z": -0.9405760977,
				"element": "H" 
			},
			{
				"x": 0.9594401659,
				"y": 1.4991828062,
				"z": -1.3051881865,
				"element": "H" 
			}
		],
		 "valence_orbital": [ 
			{
				"type": "occ",
				"energy": -0.30425,
				"method": "rhf"
			},
			{
				"type": "occ",
				"energy": -0.27245,
				"method": "rhf"
			},
			{
				"type": "occ",
				"energy": -0.27111,
				"method": "rhf"
			},
			{
				"type": "occ",
				"energy": -0.26556,
				"method": "rhf"
			},
			{
				"type": "occ",
				"energy": -0.25687,
				"method": "rhf"
			},
			{
				"type": "unocc",
				"energy": -0.05722,
				"method": "rhf"
			},
			{
				"type": "unocc",
				"energy": -0.03088,
				"method": "rhf"
			},
			{
				"type": "unocc",
				"energy": 0.02733,
				"method": "rhf"
			},
			{
				"type": "unocc",
				"energy": 0.04898,
				"method": "rhf"
			},
			{
				"type": "unocc",
				"energy": 0.05418,
				"method": "rhf"
			}
		],
		"cosmo_sigma_profile": { 
			"-0.025": 0.0,
			"-0.024": 0.0,
			"-0.023": 0.0,
			"-0.022": 0.0,
			"-0.021": 0.0,
			"-0.02": 0.0,
			"-0.019": 0.0,
			"-0.018": 0.0,
			"-0.017": 0.0,
			"-0.016": 0.0,
			"-0.015": 0.0,
			"-0.014": 0.0,
			"-0.013": 0.0,
			"-0.012": 0.0,
			"-0.011": 0.0,
			"-0.01": 0.0,
			"-0.009": 0.0391734499001,
			"-0.008": 0.510660685356,
			"-0.007": 6.31155434591,
			"-0.006": 12.6325756899,
			"-0.005": 17.6844910565,
			"-0.004": 19.7690425532,
			"-0.003": 22.0276745359,
			"-0.002": 18.7449585176,
			"-0.001": 16.7606240741,
			"0.0": 17.8618937922,
			"0.001": 14.1669937702,
			"0.002": 15.4138132193,
			"0.003": 13.9847521362,
			"0.004": 4.53043518605,
			"0.005": 3.91203668131,
			"0.006": 3.3254662066,
			"0.007": 3.32703645892,
			"0.008": 2.28564727068,
			"0.009": 2.83403564377,
			"0.01": 3.97276571875,
			"0.011": 5.10730262147,
			"0.012": 5.40821126835,
			"0.013": 2.43017397,
			"0.014": 0.441788113784,
			"0.015": 0.0,
			"0.016": 0.0,
			"0.017": 0.0,
			"0.018": 0.0,
			"0.019": 0.0,
			"0.02": 0.0,
			"0.021": 0.0,
			"0.022": 0.0,
			"0.023": 0.0,
			"0.024": 0.0,
			"0.025": 0.0
		}
	}
}
