{
	 "smiles": "NS(=O)(=O)C1CN(C1)C(=O)OCC1=CC=CC=C1", 
	 "Tm": 377.15, 
	 "num_atms": 32, 
	 "gaussian": { 
		 "optdone": 1, 
		 "sigma_profile": "yes", 
		 "theory": "DFT", 
		 "functional": "B3LYP", 
		 "basiset": "6-31G**", 
		 "properties": { 
			 "R2extent": 8179.9774, 
			 "electric_dipole_moment_norm": 2.47269491244, 
			 "electric_quadrupole_moment_norm": 26.9531957538, 
			 "total_energy": -1236.11409689, 
			 "HOMO_LUMO_gap": 0.23601, 
			 "cosmo_polarized_energy": -22.64, 
			 "cosmo_cavitation_energy": 38.21, 
			 "cosmo_dispersion_energy": -27.49, 
			 "cosmo_repulsion_energy": 2.12, 
			 "cosmo_total_nonelectrostatic_energy": 12.84, 
			 "SMD_solvation_energy": 5.65 
		},
		"coords": [
			{
				"x": 2.2691054381,
				"y": -5.2051928445,
				"z": -0.4740690307,
				"element": "N" 
			},
			{
				"x": 1.170047367,
				"y": -4.2342708841,
				"z": 0.374833713,
				"element": "S" 
			},
			{
				"x": -0.0300727017,
				"y": -5.0296163416,
				"z": 0.6501147352,
				"element": "O" 
			},
			{
				"x": 1.9132145965,
				"y": -3.5568435888,
				"z": 1.4410829183,
				"element": "O" 
			},
			{
				"x": 0.7285432712,
				"y": -3.0117866329,
				"z": -0.8757139742,
				"element": "C" 
			},
			{
				"x": 1.8493574258,
				"y": -2.0247266386,
				"z": -1.30311579,
				"element": "C" 
			},
			{
				"x": 1.0332438014,
				"y": -0.9376184081,
				"z": -0.7596081019,
				"element": "N" 
			},
			{
				"x": -0.0730434049,
				"y": -1.7979699285,
				"z": -0.3212407155,
				"element": "C" 
			},
			{
				"x": 1.0264794467,
				"y": 0.3490906509,
				"z": -1.2079669203,
				"element": "C" 
			},
			{
				"x": 1.9054164385,
				"y": 0.8441547575,
				"z": -1.891632108,
				"element": "O" 
			},
			{
				"x": -0.0882616288,
				"y": 0.9930264904,
				"z": -0.7730837778,
				"element": "O" 
			},
			{
				"x": -0.1758672581,
				"y": 2.3848264273,
				"z": -1.1531468199,
				"element": "C" 
			},
			{
				"x": -1.309579382,
				"y": 3.0205834476,
				"z": -0.3910400052,
				"element": "C" 
			},
			{
				"x": -1.3980096669,
				"y": 2.8871453318,
				"z": 1.0015380329,
				"element": "C" 
			},
			{
				"x": -2.4275374172,
				"y": 3.5077341208,
				"z": 1.7065693895,
				"element": "C" 
			},
			{
				"x": -3.3780054549,
				"y": 4.2777987219,
				"z": 1.0301335259,
				"element": "C" 
			},
			{
				"x": -3.2959027827,
				"y": 4.4171569077,
				"z": -0.3551599723,
				"element": "C" 
			},
			{
				"x": -2.2691129927,
				"y": 3.7860074417,
				"z": -1.0611885701,
				"element": "C" 
			},
			{
				"x": 3.1578727783,
				"y": -5.2172146689,
				"z": 0.019643655,
				"element": "H" 
			},
			{
				"x": 1.8902243273,
				"y": -6.1436636514,
				"z": -0.5724692963,
				"element": "H" 
			},
			{
				"x": 0.2470799521,
				"y": -3.5589497969,
				"z": -1.68651945,
				"element": "H" 
			},
			{
				"x": 2.8080653321,
				"y": -2.1535391289,
				"z": -0.7921837647,
				"element": "H" 
			},
			{
				"x": 2.0167148285,
				"y": -1.960453864,
				"z": -2.3826406351,
				"element": "H" 
			},
			{
				"x": -1.0224847562,
				"y": -1.6109396275,
				"z": -0.8310103298,
				"element": "H" 
			},
			{
				"x": -0.2339723547,
				"y": -1.7938732238,
				"z": 0.7609754322,
				"element": "H" 
			},
			{
				"x": -0.334302992,
				"y": 2.4559399041,
				"z": -2.2340391075,
				"element": "H" 
			},
			{
				"x": 0.7844536996,
				"y": 2.8628333873,
				"z": -0.9327403556,
				"element": "H" 
			},
			{
				"x": -0.662493443,
				"y": 2.2851496017,
				"z": 1.5270004732,
				"element": "H" 
			},
			{
				"x": -2.488096029,
				"y": 3.3935369292,
				"z": 2.7851969841,
				"element": "H" 
			},
			{
				"x": -4.1784300914,
				"y": 4.7632528757,
				"z": 1.5810926905,
				"element": "H" 
			},
			{
				"x": -4.0334798263,
				"y": 5.0095299367,
				"z": -0.8890589449,
				"element": "H" 
			},
			{
				"x": -2.2137665207,
				"y": 3.889192296,
				"z": -2.1421538799,
				"element": "H" 
			}
		],
		 "valence_orbital": [ 
			{
				"type": "occ",
				"energy": -0.29829,
				"method": "rhf"
			},
			{
				"type": "occ",
				"energy": -0.27562,
				"method": "rhf"
			},
			{
				"type": "occ",
				"energy": -0.25329,
				"method": "rhf"
			},
			{
				"type": "occ",
				"energy": -0.25244,
				"method": "rhf"
			},
			{
				"type": "occ",
				"energy": -0.24506,
				"method": "rhf"
			},
			{
				"type": "unocc",
				"energy": -0.00905,
				"method": "rhf"
			},
			{
				"type": "unocc",
				"energy": -0.00288,
				"method": "rhf"
			},
			{
				"type": "unocc",
				"energy": 0.03192,
				"method": "rhf"
			},
			{
				"type": "unocc",
				"energy": 0.04574,
				"method": "rhf"
			},
			{
				"type": "unocc",
				"energy": 0.05518,
				"method": "rhf"
			}
		],
		"cosmo_sigma_profile": { 
			"-0.025": 0.0,
			"-0.024": 0.0,
			"-0.023": 0.0,
			"-0.022": 0.0,
			"-0.021": 0.0,
			"-0.02": 0.0,
			"-0.019": 0.0,
			"-0.018": 0.0,
			"-0.017": 0.0,
			"-0.016": 0.00874738287376,
			"-0.015": 1.55031172436,
			"-0.014": 2.7499919806,
			"-0.013": 2.04499115026,
			"-0.012": 2.54737610033,
			"-0.011": 2.21890735301,
			"-0.01": 2.48974139131,
			"-0.009": 5.26113128815,
			"-0.008": 5.30007769477,
			"-0.007": 12.4442342829,
			"-0.006": 19.9556623209,
			"-0.005": 24.3020270585,
			"-0.004": 24.8129877827,
			"-0.003": 19.976843724,
			"-0.002": 16.6157329145,
			"-0.001": 14.0013791278,
			"0.0": 13.0238425989,
			"0.001": 12.7594341445,
			"0.002": 14.1496453562,
			"0.003": 14.1295499469,
			"0.004": 16.1583662985,
			"0.005": 15.6512135274,
			"0.006": 10.9806568529,
			"0.007": 6.49625384657,
			"0.008": 5.26526955633,
			"0.009": 4.99591428687,
			"0.01": 8.85124962705,
			"0.011": 12.2584314951,
			"0.012": 5.91924727774,
			"0.013": 5.48236029294,
			"0.014": 0.329329801078,
			"0.015": 0.0,
			"0.016": 0.0,
			"0.017": 0.0,
			"0.018": 0.0,
			"0.019": 0.0,
			"0.02": 0.0,
			"0.021": 0.0,
			"0.022": 0.0,
			"0.023": 0.0,
			"0.024": 0.0,
			"0.025": 0.0
		}
	}
}
