{
	 "smiles": "CCOC(=O)C(=CC1=CC=CC=C1)C(=O)OCC", 
	 "Tm": 304.15, 
	 "num_atms": 34, 
	 "gaussian": { 
		 "optdone": 1, 
		 "sigma_profile": "yes", 
		 "theory": "DFT", 
		 "functional": "B3LYP", 
		 "basiset": "6-31G**", 
		 "properties": { 
			 "R2extent": 5987.9886, 
			 "electric_dipole_moment_norm": 2.92694850484, 
			 "electric_quadrupole_moment_norm": 12.8784141201, 
			 "total_energy": -844.040065108, 
			 "HOMO_LUMO_gap": 0.1692, 
			 "cosmo_polarized_energy": -12.41, 
			 "cosmo_cavitation_energy": 38.99, 
			 "cosmo_dispersion_energy": -26.97, 
			 "cosmo_repulsion_energy": 2.17, 
			 "cosmo_total_nonelectrostatic_energy": 14.19, 
			 "SMD_solvation_energy": 8.7 
		},
		"coords": [
			{
				"x": -4.242074122,
				"y": 2.4053115066,
				"z": -0.0258881492,
				"element": "C" 
			},
			{
				"x": -3.8136463749,
				"y": 0.9567155555,
				"z": -0.1579358167,
				"element": "C" 
			},
			{
				"x": -2.3659598852,
				"y": 0.9299083137,
				"z": -0.1265967853,
				"element": "O" 
			},
			{
				"x": -1.7957354768,
				"y": -0.2739517388,
				"z": -0.2850476343,
				"element": "C" 
			},
			{
				"x": -2.4177263356,
				"y": -1.3141435758,
				"z": -0.3672212754,
				"element": "O" 
			},
			{
				"x": -0.2975013144,
				"y": -0.1442675596,
				"z": -0.3504279091,
				"element": "C" 
			},
			{
				"x": 0.582993659,
				"y": -0.6119895222,
				"z": 0.5637443237,
				"element": "C" 
			},
			{
				"x": 0.3964588904,
				"y": -1.3378210711,
				"z": 1.8236622309,
				"element": "C" 
			},
			{
				"x": 1.4535253395,
				"y": -1.2746855541,
				"z": 2.7550808818,
				"element": "C" 
			},
			{
				"x": 1.3691358669,
				"y": -1.9168945785,
				"z": 3.9868272014,
				"element": "C" 
			},
			{
				"x": 0.2304583775,
				"y": -2.6594207417,
				"z": 4.3065093791,
				"element": "C" 
			},
			{
				"x": -0.8138961948,
				"y": -2.7553532983,
				"z": 3.3834791379,
				"element": "C" 
			},
			{
				"x": -0.7391325484,
				"y": -2.1051191125,
				"z": 2.1537747047,
				"element": "C" 
			},
			{
				"x": 0.1641673668,
				"y": 0.568530198,
				"z": -1.5749303148,
				"element": "C" 
			},
			{
				"x": -0.5788618656,
				"y": 0.875738903,
				"z": -2.4883400049,
				"element": "O" 
			},
			{
				"x": 1.4922181635,
				"y": 0.8219143159,
				"z": -1.5823727778,
				"element": "O" 
			},
			{
				"x": 1.9979760518,
				"y": 1.468216642,
				"z": -2.7723937068,
				"element": "C" 
			},
			{
				"x": 3.4928134341,
				"y": 1.6503272896,
				"z": -2.591089435,
				"element": "C" 
			},
			{
				"x": -3.8892363466,
				"y": 2.8339696884,
				"z": 0.9165879392,
				"element": "H" 
			},
			{
				"x": -5.3343811505,
				"y": 2.4718346343,
				"z": -0.0469919028,
				"element": "H" 
			},
			{
				"x": -3.8430145445,
				"y": 3.0043910155,
				"z": -0.8489844008,
				"element": "H" 
			},
			{
				"x": -4.1487021027,
				"y": 0.5105058092,
				"z": -1.0990179891,
				"element": "H" 
			},
			{
				"x": -4.1950201463,
				"y": 0.3360612081,
				"z": 0.6591759274,
				"element": "H" 
			},
			{
				"x": 1.6210340351,
				"y": -0.3691164639,
				"z": 0.3494953706,
				"element": "H" 
			},
			{
				"x": 2.3433117468,
				"y": -0.7020747021,
				"z": 2.5060603846,
				"element": "H" 
			},
			{
				"x": 2.1917334166,
				"y": -1.8448123625,
				"z": 4.6923115154,
				"element": "H" 
			},
			{
				"x": 0.1627026414,
				"y": -3.1701035989,
				"z": 5.2628253237,
				"element": "H" 
			},
			{
				"x": -1.6921050346,
				"y": -3.3497595408,
				"z": 3.6187028757,
				"element": "H" 
			},
			{
				"x": -1.5414921087,
				"y": -2.2155884815,
				"z": 1.4355743671,
				"element": "H" 
			},
			{
				"x": 1.4792392502,
				"y": 2.4232085875,
				"z": -2.9019526426,
				"element": "H" 
			},
			{
				"x": 1.760574869,
				"y": 0.8455592841,
				"z": -3.6406912176,
				"element": "H" 
			},
			{
				"x": 3.9922880448,
				"y": 0.6858089162,
				"z": -2.4613539322,
				"element": "H" 
			},
			{
				"x": 3.915910527,
				"y": 2.1401701843,
				"z": -3.4736089244,
				"element": "H" 
			},
			{
				"x": 3.7086438712,
				"y": 2.2715298504,
				"z": -1.7169667444,
				"element": "H" 
			}
		],
		 "valence_orbital": [ 
			{
				"type": "occ",
				"energy": -0.29486,
				"method": "rhf"
			},
			{
				"type": "occ",
				"energy": -0.27608,
				"method": "rhf"
			},
			{
				"type": "occ",
				"energy": -0.26799,
				"method": "rhf"
			},
			{
				"type": "occ",
				"energy": -0.25687,
				"method": "rhf"
			},
			{
				"type": "occ",
				"energy": -0.23593,
				"method": "rhf"
			},
			{
				"type": "unocc",
				"energy": -0.06673,
				"method": "rhf"
			},
			{
				"type": "unocc",
				"energy": -0.0085,
				"method": "rhf"
			},
			{
				"type": "unocc",
				"energy": 0.00891,
				"method": "rhf"
			},
			{
				"type": "unocc",
				"energy": 0.01752,
				"method": "rhf"
			},
			{
				"type": "unocc",
				"energy": 0.0824,
				"method": "rhf"
			}
		],
		"cosmo_sigma_profile": { 
			"-0.025": 0.0,
			"-0.024": 0.0,
			"-0.023": 0.0,
			"-0.022": 0.0,
			"-0.021": 0.0,
			"-0.02": 0.0,
			"-0.019": 0.0,
			"-0.018": 0.0,
			"-0.017": 0.0,
			"-0.016": 0.0,
			"-0.015": 0.0,
			"-0.014": 0.0,
			"-0.013": 0.0,
			"-0.012": 0.0,
			"-0.011": 0.0,
			"-0.01": 0.0,
			"-0.009": 0.0,
			"-0.008": 0.80362091421,
			"-0.007": 3.49625125556,
			"-0.006": 11.3633685642,
			"-0.005": 22.5146301425,
			"-0.004": 34.679035799,
			"-0.003": 31.8164974277,
			"-0.002": 29.2455157651,
			"-0.001": 30.02705656,
			"0.0": 27.485855707,
			"0.001": 21.8177242867,
			"0.002": 17.0856889268,
			"0.003": 17.3571438017,
			"0.004": 18.7949761877,
			"0.005": 9.6587615136,
			"0.006": 4.11523088051,
			"0.007": 4.73787703229,
			"0.008": 4.28809437389,
			"0.009": 3.44649437514,
			"0.01": 4.98069633339,
			"0.011": 6.64148630558,
			"0.012": 4.87280097362,
			"0.013": 0.0690774709214,
			"0.014": 0.0,
			"0.015": 0.0,
			"0.016": 0.0,
			"0.017": 0.0,
			"0.018": 0.0,
			"0.019": 0.0,
			"0.02": 0.0,
			"0.021": 0.0,
			"0.022": 0.0,
			"0.023": 0.0,
			"0.024": 0.0,
			"0.025": 0.0
		}
	}
}
