{
	 "smiles": "BrCCC(C1=CC=CC=C1)C1=CC=CC=C1", 
	 "Tm": 314.15, 
	 "num_atms": 31, 
	 "gaussian": { 
		 "optdone": 1, 
		 "sigma_profile": "yes", 
		 "theory": "DFT", 
		 "functional": "B3LYP", 
		 "basiset": "6-31G**", 
		 "properties": { 
			 "R2extent": 6692.3763, 
			 "electric_dipole_moment_norm": 2.37830887397, 
			 "electric_quadrupole_moment_norm": 13.1065226586, 
			 "total_energy": -3152.053331, 
			 "HOMO_LUMO_gap": 0.22481, 
			 "cosmo_polarized_energy": -8.2, 
			 "cosmo_cavitation_energy": 36.07, 
			 "cosmo_dispersion_energy": -25.26, 
			 "cosmo_repulsion_energy": 2.01, 
			 "cosmo_total_nonelectrostatic_energy": 12.83, 
			 "SMD_solvation_energy": 4.5 
		},
		"coords": [
			{
				"x": 0.9540959197,
				"y": -2.7149877235,
				"z": 4.099702015,
				"element": "Br" 
			},
			{
				"x": 0.4014163353,
				"y": -2.2063473688,
				"z": 2.2649826098,
				"element": "C" 
			},
			{
				"x": -0.1432652015,
				"y": -0.7860108042,
				"z": 2.2270440698,
				"element": "C" 
			},
			{
				"x": -0.588799116,
				"y": -0.3757686469,
				"z": 0.8000794436,
				"element": "C" 
			},
			{
				"x": 0.5910957685,
				"y": -0.3436264575,
				"z": -0.173720736,
				"element": "C" 
			},
			{
				"x": 0.725850887,
				"y": -1.3247080135,
				"z": -1.164104604,
				"element": "C" 
			},
			{
				"x": 1.8122260934,
				"y": -1.3157660729,
				"z": -2.0427799096,
				"element": "C" 
			},
			{
				"x": 2.7837486438,
				"y": -0.3205525881,
				"z": -1.9420999776,
				"element": "C" 
			},
			{
				"x": 2.6591380956,
				"y": 0.665827048,
				"z": -0.9601151602,
				"element": "C" 
			},
			{
				"x": 1.5724793284,
				"y": 0.6549215217,
				"z": -0.0869491947,
				"element": "C" 
			},
			{
				"x": -1.3774764147,
				"y": 0.9350962019,
				"z": 0.7710204971,
				"element": "C" 
			},
			{
				"x": -1.2840299509,
				"y": 1.9084045116,
				"z": 1.7735938708,
				"element": "C" 
			},
			{
				"x": -2.0113479793,
				"y": 3.0992853286,
				"z": 1.6862727433,
				"element": "C" 
			},
			{
				"x": -2.846593569,
				"y": 3.3361539776,
				"z": 0.5960621148,
				"element": "C" 
			},
			{
				"x": -2.9504144903,
				"y": 2.3721526216,
				"z": -0.4102049562,
				"element": "C" 
			},
			{
				"x": -2.2226605748,
				"y": 1.18772305,
				"z": -0.3206646414,
				"element": "C" 
			},
			{
				"x": 1.2913193225,
				"y": -2.3310537265,
				"z": 1.650211731,
				"element": "H" 
			},
			{
				"x": -0.3464143489,
				"y": -2.9462265369,
				"z": 1.9773360241,
				"element": "H" 
			},
			{
				"x": -0.9964259589,
				"y": -0.7072175125,
				"z": 2.9086628338,
				"element": "H" 
			},
			{
				"x": 0.628101935,
				"y": -0.1015458773,
				"z": 2.5943439659,
				"element": "H" 
			},
			{
				"x": -1.2728289941,
				"y": -1.1569188588,
				"z": 0.4414393398,
				"element": "H" 
			},
			{
				"x": -0.0279335704,
				"y": -2.1041001352,
				"z": -1.2504683497,
				"element": "H" 
			},
			{
				"x": 1.8958249594,
				"y": -2.085850429,
				"z": -2.8045699351,
				"element": "H" 
			},
			{
				"x": 3.6291961845,
				"y": -0.3096587754,
				"z": -2.6238346816,
				"element": "H" 
			},
			{
				"x": 3.4079242105,
				"y": 1.4486872514,
				"z": -0.87769207,
				"element": "H" 
			},
			{
				"x": 1.4759652877,
				"y": 1.4383382183,
				"z": 0.6598677755,
				"element": "H" 
			},
			{
				"x": -0.6479357557,
				"y": 1.7453788993,
				"z": 2.6376895881,
				"element": "H" 
			},
			{
				"x": -1.924209326,
				"y": 3.8390970168,
				"z": 2.4771620026,
				"element": "H" 
			},
			{
				"x": -3.4138751774,
				"y": 4.2600421129,
				"z": 0.5304343335,
				"element": "H" 
			},
			{
				"x": -3.6007608693,
				"y": 2.542404228,
				"z": -1.2637025578,
				"element": "H" 
			},
			{
				"x": -2.304911674,
				"y": 0.4451275395,
				"z": -1.1107981847,
				"element": "H" 
			}
		],
		 "valence_orbital": [ 
			{
				"type": "occ",
				"energy": -0.26795,
				"method": "rhf"
			},
			{
				"type": "occ",
				"energy": -0.25443,
				"method": "rhf"
			},
			{
				"type": "occ",
				"energy": -0.25254,
				"method": "rhf"
			},
			{
				"type": "occ",
				"energy": -0.25057,
				"method": "rhf"
			},
			{
				"type": "occ",
				"energy": -0.23744,
				"method": "rhf"
			},
			{
				"type": "unocc",
				"energy": -0.01263,
				"method": "rhf"
			},
			{
				"type": "unocc",
				"energy": -0.0095,
				"method": "rhf"
			},
			{
				"type": "unocc",
				"energy": -0.00368,
				"method": "rhf"
			},
			{
				"type": "unocc",
				"energy": 0.00472,
				"method": "rhf"
			},
			{
				"type": "unocc",
				"energy": 0.00995,
				"method": "rhf"
			}
		],
		"cosmo_sigma_profile": { 
			"-0.025": 0.0,
			"-0.024": 0.0,
			"-0.023": 0.0,
			"-0.022": 0.0,
			"-0.021": 0.0,
			"-0.02": 0.0,
			"-0.019": 0.0,
			"-0.018": 0.0,
			"-0.017": 0.0,
			"-0.016": 0.0,
			"-0.015": 0.0,
			"-0.014": 0.0,
			"-0.013": 0.0,
			"-0.012": 0.0,
			"-0.011": 0.0,
			"-0.01": 0.0,
			"-0.009": 0.0,
			"-0.008": 0.0,
			"-0.007": 1.08184422672,
			"-0.006": 10.9822528446,
			"-0.005": 28.5285437507,
			"-0.004": 32.0463975904,
			"-0.003": 29.5052424793,
			"-0.002": 24.4667948099,
			"-0.001": 18.6721767691,
			"0.0": 18.8388305887,
			"0.001": 15.2565581706,
			"0.002": 16.7450092972,
			"0.003": 18.5293330093,
			"0.004": 19.4403464168,
			"0.005": 22.8115433758,
			"0.006": 25.8791135507,
			"0.007": 6.87914557627,
			"0.008": 0.0,
			"0.009": 0.0,
			"0.01": 0.0,
			"0.011": 0.0,
			"0.012": 0.0,
			"0.013": 0.0,
			"0.014": 0.0,
			"0.015": 0.0,
			"0.016": 0.0,
			"0.017": 0.0,
			"0.018": 0.0,
			"0.019": 0.0,
			"0.02": 0.0,
			"0.021": 0.0,
			"0.022": 0.0,
			"0.023": 0.0,
			"0.024": 0.0,
			"0.025": 0.0
		}
	}
}
