{
	 "smiles": "CBr", 
	 "Tm": 179.45, 
	 "num_atms": 5, 
	 "gaussian": { 
		 "optdone": 1, 
		 "sigma_profile": "yes", 
		 "theory": "DFT", 
		 "functional": "B3LYP", 
		 "basiset": "6-31G**", 
		 "properties": { 
			 "R2extent": 1383.3366, 
			 "electric_dipole_moment_norm": 1.95084762347, 
			 "electric_quadrupole_moment_norm": 4.34125360351, 
			 "total_energy": -2611.31965671, 
			 "HOMO_LUMO_gap": 0.27611, 
			 "cosmo_polarized_energy": -3.45, 
			 "cosmo_cavitation_energy": 10.25, 
			 "cosmo_dispersion_energy": -8.35, 
			 "cosmo_repulsion_energy": 0.82, 
			 "cosmo_total_nonelectrostatic_energy": 2.73, 
			 "SMD_solvation_energy": 1.47 
		},
		"coords": [
			{
				"x": -0.6461181305,
				"y": 0.7113967637,
				"z": 0.8703266222,
				"element": "C" 
			},
			{
				"x": -0.7887851,
				"y": 2.0780906469,
				"z": 2.2727049526,
				"element": "Br" 
			},
			{
				"x": 0.3954098011,
				"y": 0.4032161298,
				"z": 0.811271009,
				"element": "H" 
			},
			{
				"x": -1.2856854805,
				"y": -0.1221195585,
				"z": 1.1522169728,
				"element": "H" 
			},
			{
				"x": -0.9756210901,
				"y": 1.159016018,
				"z": -0.0647195566,
				"element": "H" 
			}
		],
		 "valence_orbital": [ 
			{
				"type": "occ",
				"energy": -0.44564,
				"method": "rhf"
			},
			{
				"type": "occ",
				"energy": -0.44564,
				"method": "rhf"
			},
			{
				"type": "occ",
				"energy": -0.38256,
				"method": "rhf"
			},
			{
				"type": "occ",
				"energy": -0.27304,
				"method": "rhf"
			},
			{
				"type": "occ",
				"energy": -0.27304,
				"method": "rhf"
			},
			{
				"type": "unocc",
				"energy": 0.00307,
				"method": "rhf"
			},
			{
				"type": "unocc",
				"energy": 0.10837,
				"method": "rhf"
			},
			{
				"type": "unocc",
				"energy": 0.14465,
				"method": "rhf"
			},
			{
				"type": "unocc",
				"energy": 0.14465,
				"method": "rhf"
			},
			{
				"type": "unocc",
				"energy": 0.42097,
				"method": "rhf"
			}
		],
		"cosmo_sigma_profile": { 
			"-0.025": 0.0,
			"-0.024": 0.0,
			"-0.023": 0.0,
			"-0.022": 0.0,
			"-0.021": 0.0,
			"-0.02": 0.0,
			"-0.019": 0.0,
			"-0.018": 0.0,
			"-0.017": 0.0,
			"-0.016": 0.0,
			"-0.015": 0.0,
			"-0.014": 0.0,
			"-0.013": 0.0,
			"-0.012": 0.0,
			"-0.011": 0.0,
			"-0.01": 0.0,
			"-0.009": 0.0,
			"-0.008": 0.635752221578,
			"-0.007": 5.47886381467,
			"-0.006": 5.7654951152,
			"-0.005": 5.73518184808,
			"-0.004": 7.61777650898,
			"-0.003": 8.59930216488,
			"-0.002": 4.90953987943,
			"-0.001": 3.73439136688,
			"0.0": 3.34421061642,
			"0.001": 3.98229653429,
			"0.002": 3.72850938358,
			"0.003": 4.14102418788,
			"0.004": 4.37641201533,
			"0.005": 6.30086952943,
			"0.006": 11.0837156881,
			"0.007": 5.12340586526,
			"0.008": 0.0,
			"0.009": 0.0,
			"0.01": 0.0,
			"0.011": 0.0,
			"0.012": 0.0,
			"0.013": 0.0,
			"0.014": 0.0,
			"0.015": 0.0,
			"0.016": 0.0,
			"0.017": 0.0,
			"0.018": 0.0,
			"0.019": 0.0,
			"0.02": 0.0,
			"0.021": 0.0,
			"0.022": 0.0,
			"0.023": 0.0,
			"0.024": 0.0,
			"0.025": 0.0
		}
	}
}
