{
	 "smiles": "CCC=C(/C)C(O)=O", 
	 "Tm": 297.55, 
	 "num_atms": 18, 
	 "gaussian": { 
		 "optdone": 1, 
		 "sigma_profile": "yes", 
		 "theory": "DFT", 
		 "functional": "B3LYP", 
		 "basiset": "6-31G**", 
		 "properties": { 
			 "R2extent": 1593.3792, 
			 "electric_dipole_moment_norm": 4.76299845476, 
			 "electric_quadrupole_moment_norm": 7.53777648315, 
			 "total_energy": -385.112973596, 
			 "HOMO_LUMO_gap": 0.22644, 
			 "cosmo_polarized_energy": -12.36, 
			 "cosmo_cavitation_energy": 21.37, 
			 "cosmo_dispersion_energy": -15.51, 
			 "cosmo_repulsion_energy": 1.33, 
			 "cosmo_total_nonelectrostatic_energy": 7.18, 
			 "SMD_solvation_energy": 5.2 
		},
		"coords": [
			{
				"x": 1.2712176286,
				"y": 0.4381119533,
				"z": -3.1675816487,
				"element": "C" 
			},
			{
				"x": 0.0962320315,
				"y": 1.2854075684,
				"z": -2.646348914,
				"element": "C" 
			},
			{
				"x": -0.7348006823,
				"y": 0.5487311108,
				"z": -1.6339746248,
				"element": "C" 
			},
			{
				"x": -0.9576968202,
				"y": 0.8684029347,
				"z": -0.3451666318,
				"element": "C" 
			},
			{
				"x": -0.3750428044,
				"y": 2.0460391712,
				"z": 0.3915435739,
				"element": "C" 
			},
			{
				"x": -1.7744898107,
				"y": -0.045883211,
				"z": 0.5281765032,
				"element": "C" 
			},
			{
				"x": -2.7302392385,
				"y": -0.8014440918,
				"z": -0.0800353133,
				"element": "O" 
			},
			{
				"x": -1.610884827,
				"y": -0.1313000349,
				"z": 1.7234721766,
				"element": "O" 
			},
			{
				"x": 1.9657914559,
				"y": 0.1911547963,
				"z": -2.3589778648,
				"element": "H" 
			},
			{
				"x": 1.8257418359,
				"y": 0.9784035038,
				"z": -3.9409447711,
				"element": "H" 
			},
			{
				"x": 0.9192095946,
				"y": -0.5031446782,
				"z": -3.6035128583,
				"element": "H" 
			},
			{
				"x": -0.5498414967,
				"y": 1.5517389167,
				"z": -3.4953431776,
				"element": "H" 
			},
			{
				"x": 0.4692480138,
				"y": 2.2284987338,
				"z": -2.2378055608,
				"element": "H" 
			},
			{
				"x": -1.1572230538,
				"y": -0.3852310759,
				"z": -2.0106556725,
				"element": "H" 
			},
			{
				"x": 0.3591205187,
				"y": 2.5915941918,
				"z": -0.2023622215,
				"element": "H" 
			},
			{
				"x": -1.1628290863,
				"y": 2.7467360266,
				"z": 0.6924902318,
				"element": "H" 
			},
			{
				"x": 0.0970801835,
				"y": 1.6951167745,
				"z": 1.3131378034,
				"element": "H" 
			},
			{
				"x": -2.8497934427,
				"y": -0.4927325903,
				"z": -0.9890110298,
				"element": "H" 
			}
		],
		 "valence_orbital": [ 
			{
				"type": "occ",
				"energy": -0.36095,
				"method": "rhf"
			},
			{
				"type": "occ",
				"energy": -0.35157,
				"method": "rhf"
			},
			{
				"type": "occ",
				"energy": -0.31154,
				"method": "rhf"
			},
			{
				"type": "occ",
				"energy": -0.27005,
				"method": "rhf"
			},
			{
				"type": "occ",
				"energy": -0.26352,
				"method": "rhf"
			},
			{
				"type": "unocc",
				"energy": -0.03708,
				"method": "rhf"
			},
			{
				"type": "unocc",
				"energy": 0.06549,
				"method": "rhf"
			},
			{
				"type": "unocc",
				"energy": 0.06677,
				"method": "rhf"
			},
			{
				"type": "unocc",
				"energy": 0.08869,
				"method": "rhf"
			},
			{
				"type": "unocc",
				"energy": 0.11509,
				"method": "rhf"
			}
		],
		"cosmo_sigma_profile": { 
			"-0.025": 0.0,
			"-0.024": 0.0,
			"-0.023": 0.0,
			"-0.022": 0.0,
			"-0.021": 0.0,
			"-0.02": 0.0,
			"-0.019": 0.0,
			"-0.018": 0.214902255637,
			"-0.017": 0.786495342689,
			"-0.016": 0.92721918775,
			"-0.015": 0.95871962142,
			"-0.014": 0.986637095093,
			"-0.013": 0.847268568143,
			"-0.012": 0.771239519419,
			"-0.011": 1.07914633597,
			"-0.01": 1.25715713871,
			"-0.009": 1.28413264405,
			"-0.008": 1.0704494492,
			"-0.007": 1.6375648977,
			"-0.006": 2.46651656078,
			"-0.005": 5.89297233918,
			"-0.004": 12.9705300974,
			"-0.003": 18.3714739513,
			"-0.002": 18.3166908458,
			"-0.001": 21.6593060793,
			"0.0": 19.8329012027,
			"0.001": 14.931462709,
			"0.002": 5.33219856757,
			"0.003": 3.12101347228,
			"0.004": 1.97371946112,
			"0.005": 1.94593407929,
			"0.006": 2.30255416297,
			"0.007": 2.86743294819,
			"0.008": 2.67343308515,
			"0.009": 2.69958327362,
			"0.01": 4.2327049047,
			"0.011": 5.50785142657,
			"0.012": 5.51191543701,
			"0.013": 2.82511368642,
			"0.014": 0.412765025801,
			"0.015": 0.0,
			"0.016": 0.0,
			"0.017": 0.0,
			"0.018": 0.0,
			"0.019": 0.0,
			"0.02": 0.0,
			"0.021": 0.0,
			"0.022": 0.0,
			"0.023": 0.0,
			"0.024": 0.0,
			"0.025": 0.0
		}
	}
}
