{
	 "smiles": "O=C1C=CC(=O)N1CC1=CC=CC=C1", 
	 "Tm": 342.15, 
	 "num_atms": 23, 
	 "gaussian": { 
		 "optdone": 1, 
		 "sigma_profile": "yes", 
		 "theory": "DFT", 
		 "functional": "B3LYP", 
		 "basiset": "6-31G**", 
		 "properties": { 
			 "R2extent": 3027.384, 
			 "electric_dipole_moment_norm": 1.19434023209, 
			 "electric_quadrupole_moment_norm": 14.6469069295, 
			 "total_energy": -629.797264683, 
			 "HOMO_LUMO_gap": 0.15054, 
			 "cosmo_polarized_energy": -10.34, 
			 "cosmo_cavitation_energy": 28.13, 
			 "cosmo_dispersion_energy": -19.74, 
			 "cosmo_repulsion_energy": 1.54, 
			 "cosmo_total_nonelectrostatic_energy": 9.92, 
			 "SMD_solvation_energy": 6.05 
		},
		"coords": [
			{
				"x": 0.0064681621,
				"y": -1.5014809817,
				"z": -3.120092771,
				"element": "O" 
			},
			{
				"x": -0.2830652948,
				"y": -2.0422550203,
				"z": -2.0713141574,
				"element": "C" 
			},
			{
				"x": -1.1095283341,
				"y": -3.2809958359,
				"z": -1.8594283672,
				"element": "C" 
			},
			{
				"x": -1.1800126726,
				"y": -3.5287461941,
				"z": -0.5479064804,
				"element": "C" 
			},
			{
				"x": -0.4043104942,
				"y": -2.468351623,
				"z": 0.1844080622,
				"element": "C" 
			},
			{
				"x": -0.235403607,
				"y": -2.3520215688,
				"z": 1.3819514053,
				"element": "O" 
			},
			{
				"x": 0.1112464726,
				"y": -1.6208538775,
				"z": -0.7991591046,
				"element": "N" 
			},
			{
				"x": 0.9018093239,
				"y": -0.4188108941,
				"z": -0.5295715232,
				"element": "C" 
			},
			{
				"x": 0.0571962748,
				"y": 0.8267416648,
				"z": -0.3412792997,
				"element": "C" 
			},
			{
				"x": -0.2815267987,
				"y": 1.6254176665,
				"z": -1.4408329794,
				"element": "C" 
			},
			{
				"x": -1.0701902533,
				"y": 2.7638942443,
				"z": -1.2695242855,
				"element": "C" 
			},
			{
				"x": -1.5281494999,
				"y": 3.1136335136,
				"z": 0.0025203657,
				"element": "C" 
			},
			{
				"x": -1.1976951482,
				"y": 2.3189544218,
				"z": 1.102252327,
				"element": "C" 
			},
			{
				"x": -0.4090506818,
				"y": 1.1804113721,
				"z": 0.9311588276,
				"element": "C" 
			},
			{
				"x": -1.5415207679,
				"y": -3.8275668012,
				"z": -2.6873138623,
				"element": "H" 
			},
			{
				"x": -1.6845871964,
				"y": -4.3304780554,
				"z": -0.0250495481,
				"element": "H" 
			},
			{
				"x": 1.5839961481,
				"y": -0.2978611599,
				"z": -1.3745041892,
				"element": "H" 
			},
			{
				"x": 1.488474617,
				"y": -0.6261591147,
				"z": 0.3686088968,
				"element": "H" 
			},
			{
				"x": 0.0679448652,
				"y": 1.3451417612,
				"z": -2.430824911,
				"element": "H" 
			},
			{
				"x": -1.3249437532,
				"y": 3.3784462795,
				"z": -2.1283504415,
				"element": "H" 
			},
			{
				"x": -2.1391605314,
				"y": 4.0018478017,
				"z": 0.1362885318,
				"element": "H" 
			},
			{
				"x": -1.551926578,
				"y": 2.5863723427,
				"z": 2.0937965799,
				"element": "H" 
			},
			{
				"x": -0.1585642523,
				"y": 0.5546200585,
				"z": 1.7834669243,
				"element": "H" 
			}
		],
		 "valence_orbital": [ 
			{
				"type": "occ",
				"energy": -0.30084,
				"method": "rhf"
			},
			{
				"type": "occ",
				"energy": -0.276,
				"method": "rhf"
			},
			{
				"type": "occ",
				"energy": -0.27176,
				"method": "rhf"
			},
			{
				"type": "occ",
				"energy": -0.25028,
				"method": "rhf"
			},
			{
				"type": "occ",
				"energy": -0.24736,
				"method": "rhf"
			},
			{
				"type": "unocc",
				"energy": -0.09682,
				"method": "rhf"
			},
			{
				"type": "unocc",
				"energy": -0.00723,
				"method": "rhf"
			},
			{
				"type": "unocc",
				"energy": -0.00221,
				"method": "rhf"
			},
			{
				"type": "unocc",
				"energy": 0.05411,
				"method": "rhf"
			},
			{
				"type": "unocc",
				"energy": 0.06467,
				"method": "rhf"
			}
		],
		"cosmo_sigma_profile": { 
			"-0.025": 0.0,
			"-0.024": 0.0,
			"-0.023": 0.0,
			"-0.022": 0.0,
			"-0.021": 0.0,
			"-0.02": 0.0,
			"-0.019": 0.0,
			"-0.018": 0.0,
			"-0.017": 0.0,
			"-0.016": 0.0,
			"-0.015": 0.0,
			"-0.014": 0.0,
			"-0.013": 0.0,
			"-0.012": 0.0,
			"-0.011": 0.0,
			"-0.01": 1.09934201193,
			"-0.009": 4.06077564439,
			"-0.008": 3.49764807365,
			"-0.007": 3.68457784376,
			"-0.006": 9.13679071291,
			"-0.005": 19.1782415825,
			"-0.004": 23.4570118993,
			"-0.003": 24.1318395481,
			"-0.002": 17.9104772448,
			"-0.001": 13.3347628209,
			"0.0": 13.8089672788,
			"0.001": 11.5114989115,
			"0.002": 12.8945941761,
			"0.003": 11.8002104068,
			"0.004": 11.8275668935,
			"0.005": 11.8972294527,
			"0.006": 7.26584160578,
			"0.007": 3.3539090191,
			"0.008": 3.28846248741,
			"0.009": 3.89996653016,
			"0.01": 5.26410359876,
			"0.011": 7.38200752809,
			"0.012": 2.17526344992,
			"0.013": 0.0,
			"0.014": 0.0,
			"0.015": 0.0,
			"0.016": 0.0,
			"0.017": 0.0,
			"0.018": 0.0,
			"0.019": 0.0,
			"0.02": 0.0,
			"0.021": 0.0,
			"0.022": 0.0,
			"0.023": 0.0,
			"0.024": 0.0,
			"0.025": 0.0
		}
	}
}
