{
	 "smiles": "CN(CC1=CC=C(C)C=C1)C1=CC=C(C=C1)C(O)=O", 
	 "Tm": 451.15, 
	 "num_atms": 36, 
	 "gaussian": { 
		 "optdone": 1, 
		 "sigma_profile": "yes", 
		 "theory": "DFT", 
		 "functional": "B3LYP", 
		 "basiset": "6-31G**", 
		 "properties": { 
			 "R2extent": 7748.0302, 
			 "electric_dipole_moment_norm": 7.57009484089, 
			 "electric_quadrupole_moment_norm": 28.442679596, 
			 "total_energy": -825.162674906, 
			 "HOMO_LUMO_gap": 0.17579, 
			 "cosmo_polarized_energy": -17.97, 
			 "cosmo_cavitation_energy": 39.2, 
			 "cosmo_dispersion_energy": -27.78, 
			 "cosmo_repulsion_energy": 2.13, 
			 "cosmo_total_nonelectrostatic_energy": 13.55, 
			 "SMD_solvation_energy": 7.78 
		},
		"coords": [
			{
				"x": 0.1993612309,
				"y": -1.3709298525,
				"z": -2.8843031648,
				"element": "C" 
			},
			{
				"x": -0.1701438355,
				"y": -0.3588133944,
				"z": -1.9074048701,
				"element": "N" 
			},
			{
				"x": -1.5235055037,
				"y": 0.1722940655,
				"z": -2.0035350692,
				"element": "C" 
			},
			{
				"x": -2.5846888575,
				"y": -0.5895309596,
				"z": -1.2183497313,
				"element": "C" 
			},
			{
				"x": -3.9396464539,
				"y": -0.3936245884,
				"z": -1.520332528,
				"element": "C" 
			},
			{
				"x": -4.9339507539,
				"y": -1.05097436,
				"z": -0.8016099221,
				"element": "C" 
			},
			{
				"x": -4.6108137162,
				"y": -1.9319004619,
				"z": 0.2422300336,
				"element": "C" 
			},
			{
				"x": -5.6952853609,
				"y": -2.6331987942,
				"z": 1.0260139283,
				"element": "C" 
			},
			{
				"x": -3.2572990314,
				"y": -2.1288268119,
				"z": 0.5333487957,
				"element": "C" 
			},
			{
				"x": -2.2565349379,
				"y": -1.4678962709,
				"z": -0.1838341727,
				"element": "C" 
			},
			{
				"x": 0.7877875033,
				"y": 0.2285463746,
				"z": -1.100692376,
				"element": "C" 
			},
			{
				"x": 0.4263667803,
				"y": 1.0787855872,
				"z": -0.0271756868,
				"element": "C" 
			},
			{
				"x": 1.3956037658,
				"y": 1.6523772929,
				"z": 0.783240079,
				"element": "C" 
			},
			{
				"x": 2.762723796,
				"y": 1.4075660416,
				"z": 0.5794922673,
				"element": "C" 
			},
			{
				"x": 3.1231336526,
				"y": 0.5752409991,
				"z": -0.4906019648,
				"element": "C" 
			},
			{
				"x": 2.1689516044,
				"y": -0.0083197374,
				"z": -1.3086951107,
				"element": "C" 
			},
			{
				"x": 3.8515349711,
				"y": 1.9993837349,
				"z": 1.4043395635,
				"element": "C" 
			},
			{
				"x": 3.4950701335,
				"y": 2.5326886945,
				"z": 2.6096631593,
				"element": "O" 
			},
			{
				"x": 5.0134908606,
				"y": 2.0271471513,
				"z": 1.0641731495,
				"element": "O" 
			},
			{
				"x": -0.7027744916,
				"y": -1.8988913245,
				"z": -3.2001951307,
				"element": "H" 
			},
			{
				"x": 0.8752203128,
				"y": -2.1092457561,
				"z": -2.4431295143,
				"element": "H" 
			},
			{
				"x": 0.6846561389,
				"y": -0.9473974949,
				"z": -3.7769652368,
				"element": "H" 
			},
			{
				"x": -1.8097526035,
				"y": 0.1897999768,
				"z": -3.0633765824,
				"element": "H" 
			},
			{
				"x": -1.5112038638,
				"y": 1.2224510775,
				"z": -1.6915540111,
				"element": "H" 
			},
			{
				"x": -4.2193483537,
				"y": 0.2779510218,
				"z": -2.3298034078,
				"element": "H" 
			},
			{
				"x": -5.9778535443,
				"y": -0.885398899,
				"z": -1.0580956451,
				"element": "H" 
			},
			{
				"x": -6.4325176544,
				"y": -3.0981682092,
				"z": 0.3624996128,
				"element": "H" 
			},
			{
				"x": -6.2399454852,
				"y": -1.930678643,
				"z": 1.6685941193,
				"element": "H" 
			},
			{
				"x": -5.2816561947,
				"y": -3.4150079302,
				"z": 1.6690162846,
				"element": "H" 
			},
			{
				"x": -2.9772960356,
				"y": -2.8112973623,
				"z": 1.332217123,
				"element": "H" 
			},
			{
				"x": -1.2124089285,
				"y": -1.6415205828,
				"z": 0.0576655677,
				"element": "H" 
			},
			{
				"x": -0.6179540161,
				"y": 1.2681983168,
				"z": 0.1912268195,
				"element": "H" 
			},
			{
				"x": 1.0598959912,
				"y": 2.3222524671,
				"z": 1.5723934571,
				"element": "H" 
			},
			{
				"x": 4.1790062708,
				"y": 0.4023998422,
				"z": -0.6707147449,
				"element": "H" 
			},
			{
				"x": 2.4967141716,
				"y": -0.6326615235,
				"z": -2.1309028219,
				"element": "H" 
			},
			{
				"x": 2.5837624383,
				"y": 2.2899003129,
				"z": 2.8216577314,
				"element": "H" 
			}
		],
		 "valence_orbital": [ 
			{
				"type": "occ",
				"energy": -0.26172,
				"method": "rhf"
			},
			{
				"type": "occ",
				"energy": -0.25634,
				"method": "rhf"
			},
			{
				"type": "occ",
				"energy": -0.25559,
				"method": "rhf"
			},
			{
				"type": "occ",
				"energy": -0.24204,
				"method": "rhf"
			},
			{
				"type": "occ",
				"energy": -0.20539,
				"method": "rhf"
			},
			{
				"type": "unocc",
				"energy": -0.0296,
				"method": "rhf"
			},
			{
				"type": "unocc",
				"energy": -0.01344,
				"method": "rhf"
			},
			{
				"type": "unocc",
				"energy": -0.00769,
				"method": "rhf"
			},
			{
				"type": "unocc",
				"energy": -0.00539,
				"method": "rhf"
			},
			{
				"type": "unocc",
				"energy": 0.0644,
				"method": "rhf"
			}
		],
		"cosmo_sigma_profile": { 
			"-0.025": 0.0,
			"-0.024": 0.0,
			"-0.023": 0.0,
			"-0.022": 0.0,
			"-0.021": 0.0,
			"-0.02": 0.0,
			"-0.019": 0.0,
			"-0.018": 0.481942523297,
			"-0.017": 0.790253265657,
			"-0.016": 0.827602265269,
			"-0.015": 1.28598743212,
			"-0.014": 0.471162132487,
			"-0.013": 1.07235734486,
			"-0.012": 0.858581132529,
			"-0.011": 1.39460892715,
			"-0.01": 1.28608514906,
			"-0.009": 1.23801133937,
			"-0.008": 1.17426111221,
			"-0.007": 1.96777335152,
			"-0.006": 10.0612619645,
			"-0.005": 24.2712690547,
			"-0.004": 31.2793282009,
			"-0.003": 30.9260006728,
			"-0.002": 28.6037608491,
			"-0.001": 24.3206526033,
			"0.0": 23.0197955745,
			"0.001": 20.6445807621,
			"0.002": 15.13697124,
			"0.003": 15.6737676428,
			"0.004": 17.9899337798,
			"0.005": 16.1323296732,
			"0.006": 9.91029577259,
			"0.007": 5.41499714473,
			"0.008": 2.0818294141,
			"0.009": 3.43869392336,
			"0.01": 2.99047220756,
			"0.011": 5.23578947074,
			"0.012": 5.5904939514,
			"0.013": 4.25083862139,
			"0.014": 1.33389964373,
			"0.015": 0.0161810552946,
			"0.016": 0.0,
			"0.017": 0.0,
			"0.018": 0.0,
			"0.019": 0.0,
			"0.02": 0.0,
			"0.021": 0.0,
			"0.022": 0.0,
			"0.023": 0.0,
			"0.024": 0.0,
			"0.025": 0.0
		}
	}
}
