{
	 "smiles": "COC(=O)C1=CC=C2C=NNC2=C1", 
	 "Tm": 416.15, 
	 "num_atms": 21, 
	 "gaussian": { 
		 "optdone": 1, 
		 "sigma_profile": "yes", 
		 "theory": "DFT", 
		 "functional": "B3LYP", 
		 "basiset": "6-31G**", 
		 "properties": { 
			 "R2extent": 3070.8573, 
			 "electric_dipole_moment_norm": 2.23707376946, 
			 "electric_quadrupole_moment_norm": 13.9641708121, 
			 "total_energy": -607.725043123, 
			 "HOMO_LUMO_gap": 0.17382, 
			 "cosmo_polarized_energy": -12.42, 
			 "cosmo_cavitation_energy": 25.82, 
			 "cosmo_dispersion_energy": -19.33, 
			 "cosmo_repulsion_energy": 1.52, 
			 "cosmo_total_nonelectrostatic_energy": 8.01, 
			 "SMD_solvation_energy": 5.08 
		},
		"coords": [
			{
				"x": -1.2423864998,
				"y": 2.2715389212,
				"z": -3.1720487488,
				"element": "C" 
			},
			{
				"x": -0.8993985933,
				"y": 1.3989702767,
				"z": -2.0852057808,
				"element": "O" 
			},
			{
				"x": -0.4515366117,
				"y": 0.1737100019,
				"z": -2.4509793797,
				"element": "C" 
			},
			{
				"x": -0.3448651272,
				"y": -0.1699139991,
				"z": -3.6123841235,
				"element": "O" 
			},
			{
				"x": -0.112379905,
				"y": -0.6844697682,
				"z": -1.2809340494,
				"element": "C" 
			},
			{
				"x": 0.3676703,
				"y": -1.9931604333,
				"z": -1.5544460461,
				"element": "C" 
			},
			{
				"x": 0.707326434,
				"y": -2.8601153597,
				"z": -0.5336019342,
				"element": "C" 
			},
			{
				"x": 0.5684453651,
				"y": -2.4205688885,
				"z": 0.7976199196,
				"element": "C" 
			},
			{
				"x": 0.7952688797,
				"y": -2.9693591666,
				"z": 2.0963954568,
				"element": "C" 
			},
			{
				"x": 0.492011664,
				"y": -2.1045068338,
				"z": 3.0499634513,
				"element": "N" 
			},
			{
				"x": 0.065285292,
				"y": -0.9838611689,
				"z": 2.4151215557,
				"element": "N" 
			},
			{
				"x": 0.0871867081,
				"y": -1.1094420825,
				"z": 1.0518552668,
				"element": "C" 
			},
			{
				"x": -0.2596982062,
				"y": -0.2233768077,
				"z": 0.0250378851,
				"element": "C" 
			},
			{
				"x": -0.3736340971,
				"y": 2.4528932546,
				"z": -3.8099525505,
				"element": "H" 
			},
			{
				"x": -1.5784578245,
				"y": 3.1997119336,
				"z": -2.7096959807,
				"element": "H" 
			},
			{
				"x": -2.0387203959,
				"y": 1.8352367814,
				"z": -3.780350821,
				"element": "H" 
			},
			{
				"x": 0.4580448515,
				"y": -2.2875125883,
				"z": -2.5937706486,
				"element": "H" 
			},
			{
				"x": 1.073321458,
				"y": -3.8584881976,
				"z": -0.7533466647,
				"element": "H" 
			},
			{
				"x": 1.1639867096,
				"y": -3.9515601754,
				"z": 2.3598047186,
				"element": "H" 
			},
			{
				"x": -0.2188064946,
				"y": -0.1901482601,
				"z": 2.9663981883,
				"element": "H" 
			},
			{
				"x": -0.6268639065,
				"y": 0.7770225603,
				"z": 0.2209202858,
				"element": "H" 
			}
		],
		 "valence_orbital": [ 
			{
				"type": "occ",
				"energy": -0.29975,
				"method": "rhf"
			},
			{
				"type": "occ",
				"energy": -0.29883,
				"method": "rhf"
			},
			{
				"type": "occ",
				"energy": -0.27399,
				"method": "rhf"
			},
			{
				"type": "occ",
				"energy": -0.24952,
				"method": "rhf"
			},
			{
				"type": "occ",
				"energy": -0.22936,
				"method": "rhf"
			},
			{
				"type": "unocc",
				"energy": -0.05554,
				"method": "rhf"
			},
			{
				"type": "unocc",
				"energy": -0.00597,
				"method": "rhf"
			},
			{
				"type": "unocc",
				"energy": 0.03658,
				"method": "rhf"
			},
			{
				"type": "unocc",
				"energy": 0.07872,
				"method": "rhf"
			},
			{
				"type": "unocc",
				"energy": 0.07884,
				"method": "rhf"
			}
		],
		"cosmo_sigma_profile": { 
			"-0.025": 0.0,
			"-0.024": 0.0,
			"-0.023": 0.0,
			"-0.022": 0.0,
			"-0.021": 0.0,
			"-0.02": 0.0,
			"-0.019": 0.0,
			"-0.018": 0.0,
			"-0.017": 0.448401140933,
			"-0.016": 1.94472311271,
			"-0.015": 1.07467778343,
			"-0.014": 1.26210883658,
			"-0.013": 1.28963363038,
			"-0.012": 0.764161487522,
			"-0.011": 1.35645747272,
			"-0.01": 1.08759427507,
			"-0.009": 0.939160898711,
			"-0.008": 2.62220588597,
			"-0.007": 5.2961931489,
			"-0.006": 10.6311541428,
			"-0.005": 14.9246332374,
			"-0.004": 13.1913945035,
			"-0.003": 14.8965403781,
			"-0.002": 12.1422703026,
			"-0.001": 11.4534527303,
			"0.0": 9.95555180831,
			"0.001": 16.7087020869,
			"0.002": 21.5467923399,
			"0.003": 19.1024942804,
			"0.004": 9.8701051994,
			"0.005": 6.63038339648,
			"0.006": 3.59691692268,
			"0.007": 3.02810620653,
			"0.008": 3.48708779693,
			"0.009": 2.46382396951,
			"0.01": 3.38451220267,
			"0.011": 3.63053678027,
			"0.012": 5.6729507413,
			"0.013": 0.969162988667,
			"0.014": 1.21124964139,
			"0.015": 0.577064629986,
			"0.016": 0.0,
			"0.017": 0.0,
			"0.018": 0.0,
			"0.019": 0.0,
			"0.02": 0.0,
			"0.021": 0.0,
			"0.022": 0.0,
			"0.023": 0.0,
			"0.024": 0.0,
			"0.025": 0.0
		}
	}
}
