{
	 "smiles": "CCOC(=O)C1=C(C)OC(NC(=O)NC2=CC(=CC=C2)C(F)(F)F)=C1C(=O)OCC", 
	 "Tm": 427.15, 
	 "num_atms": 49, 
	 "gaussian": { 
		 "optdone": 1, 
		 "sigma_profile": "yes", 
		 "theory": "DFT", 
		 "functional": "B3LYP", 
		 "basiset": "6-31G**", 
		 "properties": { 
			 "R2extent": 14400.1018, 
			 "electric_dipole_moment_norm": 5.4591576145, 
			 "electric_quadrupole_moment_norm": 26.1970813596, 
			 "total_energy": -1595.88931333, 
			 "HOMO_LUMO_gap": 0.17676, 
			 "cosmo_polarized_energy": -20.41, 
			 "cosmo_cavitation_energy": 56.17, 
			 "cosmo_dispersion_energy": -35.24, 
			 "cosmo_repulsion_energy": 2.67, 
			 "cosmo_total_nonelectrostatic_energy": 23.61, 
			 "SMD_solvation_energy": 14.0 
		},
		"coords": [
			{
				"x": -5.0517326631,
				"y": 1.243730619,
				"z": 0.5558496684,
				"element": "C" 
			},
			{
				"x": -4.4843623007,
				"y": -0.0748662399,
				"z": 0.0524398299,
				"element": "C" 
			},
			{
				"x": -3.1190808759,
				"y": 0.0821749344,
				"z": -0.4073685098,
				"element": "O" 
			},
			{
				"x": -2.1543564649,
				"y": -0.006421761,
				"z": 0.5458827029,
				"element": "C" 
			},
			{
				"x": -2.3871493198,
				"y": -0.182513744,
				"z": 1.7224039158,
				"element": "O" 
			},
			{
				"x": -0.7979849755,
				"y": 0.1035243518,
				"z": -0.0428849118,
				"element": "C" 
			},
			{
				"x": -0.407467347,
				"y": -0.4080335718,
				"z": -1.2480112693,
				"element": "C" 
			},
			{
				"x": -1.0715208977,
				"y": -1.1133432482,
				"z": -2.3740336972,
				"element": "C" 
			},
			{
				"x": 0.9636403191,
				"y": -0.2566328812,
				"z": -1.3890064123,
				"element": "O" 
			},
			{
				"x": 1.4271868052,
				"y": 0.3447105419,
				"z": -0.2773311672,
				"element": "C" 
			},
			{
				"x": 2.7614851615,
				"y": 0.6360321912,
				"z": -0.1516646395,
				"element": "N" 
			},
			{
				"x": 3.7842341478,
				"y": 0.6687846664,
				"z": -1.1093278498,
				"element": "C" 
			},
			{
				"x": 4.6431095706,
				"y": 1.5333707276,
				"z": -1.0662662237,
				"element": "O" 
			},
			{
				"x": 3.7832064822,
				"y": -0.3021543313,
				"z": -2.0995413421,
				"element": "N" 
			},
			{
				"x": 3.4092796046,
				"y": -1.6649570319,
				"z": -2.0535948993,
				"element": "C" 
			},
			{
				"x": 3.2439165808,
				"y": -2.3682878116,
				"z": -0.8539956811,
				"element": "C" 
			},
			{
				"x": 2.9065275664,
				"y": -3.7214302028,
				"z": -0.8889523065,
				"element": "C" 
			},
			{
				"x": 2.7552392953,
				"y": -4.3978126592,
				"z": -2.1018223814,
				"element": "C" 
			},
			{
				"x": 2.9408264696,
				"y": -3.6972508811,
				"z": -3.2927899856,
				"element": "C" 
			},
			{
				"x": 3.2556844126,
				"y": -2.340694502,
				"z": -3.2726508743,
				"element": "C" 
			},
			{
				"x": 2.6630221356,
				"y": -4.4561503445,
				"z": 0.4039219786,
				"element": "C" 
			},
			{
				"x": 1.351786074,
				"y": -4.4439558515,
				"z": 0.738439396,
				"element": "F" 
			},
			{
				"x": 3.3388668203,
				"y": -3.9069978278,
				"z": 1.4355055294,
				"element": "F" 
			},
			{
				"x": 3.0325224751,
				"y": -5.7534611897,
				"z": 0.318418524,
				"element": "F" 
			},
			{
				"x": 0.4024157243,
				"y": 0.6083323524,
				"z": 0.608679734,
				"element": "C" 
			},
			{
				"x": 0.6423576544,
				"y": 1.403015,
				"z": 1.8107545232,
				"element": "C" 
			},
			{
				"x": 1.7733566487,
				"y": 1.7168064024,
				"z": 2.1834560017,
				"element": "O" 
			},
			{
				"x": -0.4696614169,
				"y": 1.7958401006,
				"z": 2.4414912521,
				"element": "O" 
			},
			{
				"x": -0.2849384647,
				"y": 2.5644771859,
				"z": 3.6524918861,
				"element": "C" 
			},
			{
				"x": -1.664631725,
				"y": 2.8446398476,
				"z": 4.2165995316,
				"element": "C" 
			},
			{
				"x": -6.1054803941,
				"y": 1.115569959,
				"z": 0.8253076882,
				"element": "H" 
			},
			{
				"x": -4.5084449758,
				"y": 1.5798628508,
				"z": 1.4419994541,
				"element": "H" 
			},
			{
				"x": -4.9855379941,
				"y": 2.0161985672,
				"z": -0.2159473902,
				"element": "H" 
			},
			{
				"x": -5.026142314,
				"y": -0.434299406,
				"z": -0.8259192232,
				"element": "H" 
			},
			{
				"x": -4.5091437783,
				"y": -0.8384000394,
				"z": 0.8334723612,
				"element": "H" 
			},
			{
				"x": -0.6073426707,
				"y": -2.090865751,
				"z": -2.5459197206,
				"element": "H" 
			},
			{
				"x": -0.9805600667,
				"y": -0.5365824559,
				"z": -3.3020765445,
				"element": "H" 
			},
			{
				"x": -2.12944851,
				"y": -1.2462388363,
				"z": -2.154623025,
				"element": "H" 
			},
			{
				"x": 2.9252325096,
				"y": 1.232656094,
				"z": 0.6634272854,
				"element": "H" 
			},
			{
				"x": 4.4634465456,
				"y": -0.0648141702,
				"z": -2.810369292,
				"element": "H" 
			},
			{
				"x": 3.3883149237,
				"y": -1.8745583203,
				"z": 0.0985542014,
				"element": "H" 
			},
			{
				"x": 2.5099260069,
				"y": -5.4536530751,
				"z": -2.1096341442,
				"element": "H" 
			},
			{
				"x": 2.8349070553,
				"y": -4.2083498053,
				"z": -4.2447857984,
				"element": "H" 
			},
			{
				"x": 3.3820229801,
				"y": -1.7938674354,
				"z": -4.2029202416,
				"element": "H" 
			},
			{
				"x": 0.3337883357,
				"y": 1.9855157371,
				"z": 4.3449280624,
				"element": "H" 
			},
			{
				"x": 0.260275615,
				"y": 3.4824458526,
				"z": 3.4106892716,
				"element": "H" 
			},
			{
				"x": -1.5762932846,
				"y": 3.4034344259,
				"z": 5.1535434428,
				"element": "H" 
			},
			{
				"x": -2.1963289967,
				"y": 1.9100599557,
				"z": 4.4138401114,
				"element": "H" 
			},
			{
				"x": -2.2599684836,
				"y": 3.4382110112,
				"z": 3.5166411784,
				"element": "H" 
			}
		],
		 "valence_orbital": [ 
			{
				"type": "occ",
				"energy": -0.27829,
				"method": "rhf"
			},
			{
				"type": "occ",
				"energy": -0.27594,
				"method": "rhf"
			},
			{
				"type": "occ",
				"energy": -0.27107,
				"method": "rhf"
			},
			{
				"type": "occ",
				"energy": -0.23959,
				"method": "rhf"
			},
			{
				"type": "occ",
				"energy": -0.21526,
				"method": "rhf"
			},
			{
				"type": "unocc",
				"energy": -0.0385,
				"method": "rhf"
			},
			{
				"type": "unocc",
				"energy": -0.03485,
				"method": "rhf"
			},
			{
				"type": "unocc",
				"energy": -0.0281,
				"method": "rhf"
			},
			{
				"type": "unocc",
				"energy": -0.0123,
				"method": "rhf"
			},
			{
				"type": "unocc",
				"energy": 0.03244,
				"method": "rhf"
			}
		],
		"cosmo_sigma_profile": { 
			"-0.025": 0.0,
			"-0.024": 0.0,
			"-0.023": 0.0,
			"-0.022": 0.0,
			"-0.021": 0.0,
			"-0.02": 0.0,
			"-0.019": 0.0,
			"-0.018": 0.0,
			"-0.017": 0.0,
			"-0.016": 0.0260664576311,
			"-0.015": 1.02093139321,
			"-0.014": 0.82389774516,
			"-0.013": 1.35498756475,
			"-0.012": 1.13411533665,
			"-0.011": 0.674906665096,
			"-0.01": 1.22339129017,
			"-0.009": 1.44020954788,
			"-0.008": 2.08491748223,
			"-0.007": 5.82251023614,
			"-0.006": 13.1570800639,
			"-0.005": 26.775850735,
			"-0.004": 40.5942977144,
			"-0.003": 45.1076413732,
			"-0.002": 45.1188062786,
			"-0.001": 40.9610307461,
			"0.0": 39.5889409135,
			"0.001": 29.2355451713,
			"0.002": 38.5508168978,
			"0.003": 43.644488826,
			"0.004": 11.7779879463,
			"0.005": 7.56836383188,
			"0.006": 6.88854339577,
			"0.007": 5.93234157565,
			"0.008": 5.83615148959,
			"0.009": 4.89281471971,
			"0.01": 5.61822263019,
			"0.011": 6.85378541633,
			"0.012": 9.96580629397,
			"0.013": 3.2409312734,
			"0.014": 0.00991503658144,
			"0.015": 0.0,
			"0.016": 0.0,
			"0.017": 0.0,
			"0.018": 0.0,
			"0.019": 0.0,
			"0.02": 0.0,
			"0.021": 0.0,
			"0.022": 0.0,
			"0.023": 0.0,
			"0.024": 0.0,
			"0.025": 0.0
		}
	}
}
