{
	 "smiles": "COC(=O)C1=CC(C)=C(C=C1)S(Cl)(=O)=O", 
	 "Tm": 325.15, 
	 "num_atms": 24, 
	 "gaussian": { 
		 "optdone": 1, 
		 "sigma_profile": "yes", 
		 "theory": "DFT", 
		 "functional": "B3LYP", 
		 "basiset": "6-31G**", 
		 "properties": { 
			 "R2extent": 5776.1854, 
			 "electric_dipole_moment_norm": 5.32816692118, 
			 "electric_quadrupole_moment_norm": 7.24675856504, 
			 "total_energy": -1507.60378844, 
			 "HOMO_LUMO_gap": 0.18188, 
			 "cosmo_polarized_energy": -10.73, 
			 "cosmo_cavitation_energy": 31.66, 
			 "cosmo_dispersion_energy": -23.54, 
			 "cosmo_repulsion_energy": 1.79, 
			 "cosmo_total_nonelectrostatic_energy": 9.91, 
			 "SMD_solvation_energy": 5.88 
		},
		"coords": [
			{
				"x": -2.9503826154,
				"y": 1.6060108972,
				"z": -2.9909003416,
				"element": "C" 
			},
			{
				"x": -1.9760884308,
				"y": 1.1162130551,
				"z": -2.0526223642,
				"element": "O" 
			},
			{
				"x": -1.2767127971,
				"y": 0.03775504,
				"z": -2.4593606345,
				"element": "C" 
			},
			{
				"x": -1.437034754,
				"y": -0.5020331701,
				"z": -3.5351965769,
				"element": "O" 
			},
			{
				"x": -0.2827682034,
				"y": -0.4176454333,
				"z": -1.4372345961,
				"element": "C" 
			},
			{
				"x": -0.127471744,
				"y": 0.2321626106,
				"z": -0.2079301344,
				"element": "C" 
			},
			{
				"x": 0.8027555155,
				"y": -0.1963752673,
				"z": 0.7469968361,
				"element": "C" 
			},
			{
				"x": 0.9256549446,
				"y": 0.5473773991,
				"z": 2.0544657733,
				"element": "C" 
			},
			{
				"x": 1.5738638786,
				"y": -1.322376527,
				"z": 0.3953587622,
				"element": "C" 
			},
			{
				"x": 1.4417080457,
				"y": -1.9842797023,
				"z": -0.8292127575,
				"element": "C" 
			},
			{
				"x": 0.5045190695,
				"y": -1.5301793581,
				"z": -1.7490916858,
				"element": "C" 
			},
			{
				"x": 2.7846959411,
				"y": -2.0280677273,
				"z": 1.521593452,
				"element": "S" 
			},
			{
				"x": 4.3706014775,
				"y": -0.5971485929,
				"z": 1.3851751182,
				"element": "Cl" 
			},
			{
				"x": 2.3014286473,
				"y": -1.9697524859,
				"z": 2.8956788484,
				"element": "O" 
			},
			{
				"x": 3.3083680533,
				"y": -3.262028394,
				"z": 0.9501629796,
				"element": "O" 
			},
			{
				"x": -3.6937532928,
				"y": 0.8350621524,
				"z": -3.2069891939,
				"element": "H" 
			},
			{
				"x": -3.4154685967,
				"y": 2.4650596676,
				"z": -2.5084873942,
				"element": "H" 
			},
			{
				"x": -2.4662332921,
				"y": 1.9024923847,
				"z": -3.9243627195,
				"element": "H" 
			},
			{
				"x": -0.7453105572,
				"y": 1.0948706321,
				"z": 0.0134930531,
				"element": "H" 
			},
			{
				"x": 0.2910623927,
				"y": 1.4359077536,
				"z": 2.0377086441,
				"element": "H" 
			},
			{
				"x": 0.6289241153,
				"y": -0.0819180324,
				"z": 2.8973323125,
				"element": "H" 
			},
			{
				"x": 1.9552798249,
				"y": 0.8648608746,
				"z": 2.2438073094,
				"element": "H" 
			},
			{
				"x": 2.0656405237,
				"y": -2.8434897278,
				"z": -1.0439913596,
				"element": "H" 
			},
			{
				"x": 0.3717218537,
				"y": -2.0212780486,
				"z": -2.7062933307,
				"element": "H" 
			}
		],
		 "valence_orbital": [ 
			{
				"type": "occ",
				"energy": -0.3207,
				"method": "rhf"
			},
			{
				"type": "occ",
				"energy": -0.31654,
				"method": "rhf"
			},
			{
				"type": "occ",
				"energy": -0.2941,
				"method": "rhf"
			},
			{
				"type": "occ",
				"energy": -0.29276,
				"method": "rhf"
			},
			{
				"type": "occ",
				"energy": -0.28064,
				"method": "rhf"
			},
			{
				"type": "unocc",
				"energy": -0.09876,
				"method": "rhf"
			},
			{
				"type": "unocc",
				"energy": -0.06757,
				"method": "rhf"
			},
			{
				"type": "unocc",
				"energy": -0.03632,
				"method": "rhf"
			},
			{
				"type": "unocc",
				"energy": 0.01401,
				"method": "rhf"
			},
			{
				"type": "unocc",
				"energy": 0.05668,
				"method": "rhf"
			}
		],
		"cosmo_sigma_profile": { 
			"-0.025": 0.0,
			"-0.024": 0.0,
			"-0.023": 0.0,
			"-0.022": 0.0,
			"-0.021": 0.0,
			"-0.02": 0.0,
			"-0.019": 0.0,
			"-0.018": 0.0,
			"-0.017": 0.0,
			"-0.016": 0.0,
			"-0.015": 0.0,
			"-0.014": 0.0,
			"-0.013": 0.0,
			"-0.012": 0.0,
			"-0.011": 0.0,
			"-0.01": 0.0,
			"-0.009": 0.231785879344,
			"-0.008": 2.98915462268,
			"-0.007": 6.81062062706,
			"-0.006": 12.1112881299,
			"-0.005": 15.0303995728,
			"-0.004": 21.3883803507,
			"-0.003": 23.7153585531,
			"-0.002": 23.7956671531,
			"-0.001": 26.4641998568,
			"0.0": 26.3458654709,
			"0.001": 16.3547760208,
			"0.002": 12.5573057928,
			"0.003": 16.213959638,
			"0.004": 11.2615042184,
			"0.005": 5.66705767908,
			"0.006": 5.02538581239,
			"0.007": 7.6176308366,
			"0.008": 9.53853003285,
			"0.009": 5.05533564799,
			"0.01": 2.24439723335,
			"0.011": 4.12497842683,
			"0.012": 1.31011297746,
			"0.013": 0.0,
			"0.014": 0.0,
			"0.015": 0.0,
			"0.016": 0.0,
			"0.017": 0.0,
			"0.018": 0.0,
			"0.019": 0.0,
			"0.02": 0.0,
			"0.021": 0.0,
			"0.022": 0.0,
			"0.023": 0.0,
			"0.024": 0.0,
			"0.025": 0.0
		}
	}
}
