{
	 "smiles": "C1=CC=C(C=C1)C1=CC=CC=C1", 
	 "Tm": 343.15, 
	 "num_atms": 22, 
	 "gaussian": { 
		 "optdone": 1, 
		 "sigma_profile": "yes", 
		 "theory": "DFT", 
		 "functional": "B3LYP", 
		 "basiset": "6-31G**", 
		 "properties": { 
			 "R2extent": 2495.1489, 
			 "electric_dipole_moment_norm": 0.000141421356237, 
			 "electric_quadrupole_moment_norm": 7.35606311691, 
			 "total_energy": -463.3118564, 
			 "HOMO_LUMO_gap": 0.19707, 
			 "cosmo_polarized_energy": -4.92, 
			 "cosmo_cavitation_energy": 25.49, 
			 "cosmo_dispersion_energy": -18.91, 
			 "cosmo_repulsion_energy": 1.49, 
			 "cosmo_total_nonelectrostatic_energy": 8.06, 
			 "SMD_solvation_energy": 4.15 
		},
		"coords": [
			{
				"x": -1.5089376952,
				"y": 2.9126941103,
				"z": -1.6267074435,
				"element": "C" 
			},
			{
				"x": -1.0659504288,
				"y": 1.8203545314,
				"z": -2.3749374512,
				"element": "C" 
			},
			{
				"x": -0.7770272102,
				"y": 0.6094725554,
				"z": -1.7470896757,
				"element": "C" 
			},
			{
				"x": -0.9226854058,
				"y": 0.4630752238,
				"z": -0.3568906899,
				"element": "C" 
			},
			{
				"x": -1.3686979112,
				"y": 1.5718760008,
				"z": 0.3826669676,
				"element": "C" 
			},
			{
				"x": -1.659334504,
				"y": 2.7825585677,
				"z": -0.2447720093,
				"element": "C" 
			},
			{
				"x": -0.6140776644,
				"y": -0.8272736628,
				"z": 0.3119360108,
				"element": "C" 
			},
			{
				"x": 0.4759401007,
				"y": -1.6126729962,
				"z": -0.1007760347,
				"element": "C" 
			},
			{
				"x": 0.7652406128,
				"y": -2.8239907587,
				"z": 0.5260564977,
				"element": "C" 
			},
			{
				"x": -0.0283442225,
				"y": -3.2770850657,
				"z": 1.5816213142,
				"element": "C" 
			},
			{
				"x": -1.1142309079,
				"y": -2.5075948725,
				"z": 2.0035632747,
				"element": "C" 
			},
			{
				"x": -1.403948168,
				"y": -1.2971492321,
				"z": 1.375241312,
				"element": "C" 
			},
			{
				"x": -1.734704011,
				"y": 3.8559382441,
				"z": -2.1156623462,
				"element": "H" 
			},
			{
				"x": -0.953498922,
				"y": 1.9077331541,
				"z": -3.4520415314,
				"element": "H" 
			},
			{
				"x": -0.459162487,
				"y": -0.241740742,
				"z": -2.3420346646,
				"element": "H" 
			},
			{
				"x": -1.4631893383,
				"y": 1.4896128764,
				"z": 1.4614942595,
				"element": "H" 
			},
			{
				"x": -1.9951761267,
				"y": 3.6285299146,
				"z": 0.3485050961,
				"element": "H" 
			},
			{
				"x": 1.1158122077,
				"y": -1.2565983724,
				"z": -0.9028644814,
				"element": "H" 
			},
			{
				"x": 1.6178525801,
				"y": -3.410447891,
				"z": 0.1950643972,
				"element": "H" 
			},
			{
				"x": 0.1971853356,
				"y": -4.2204159156,
				"z": 2.0705180791,
				"element": "H" 
			},
			{
				"x": -1.7436716584,
				"y": -2.8545669568,
				"z": 2.818331561,
				"element": "H" 
			},
			{
				"x": -2.2669941756,
				"y": -0.7197087127,
				"z": 1.6934775581,
				"element": "H" 
			}
		],
		 "valence_orbital": [ 
			{
				"type": "occ",
				"energy": -0.33137,
				"method": "rhf"
			},
			{
				"type": "occ",
				"energy": -0.27176,
				"method": "rhf"
			},
			{
				"type": "occ",
				"energy": -0.24916,
				"method": "rhf"
			},
			{
				"type": "occ",
				"energy": -0.24867,
				"method": "rhf"
			},
			{
				"type": "occ",
				"energy": -0.22252,
				"method": "rhf"
			},
			{
				"type": "unocc",
				"energy": -0.02545,
				"method": "rhf"
			},
			{
				"type": "unocc",
				"energy": -0.00222,
				"method": "rhf"
			},
			{
				"type": "unocc",
				"energy": 0.00153,
				"method": "rhf"
			},
			{
				"type": "unocc",
				"energy": 0.03115,
				"method": "rhf"
			},
			{
				"type": "unocc",
				"energy": 0.09763,
				"method": "rhf"
			}
		],
		"cosmo_sigma_profile": { 
			"-0.025": 0.0,
			"-0.024": 0.0,
			"-0.023": 0.0,
			"-0.022": 0.0,
			"-0.021": 0.0,
			"-0.02": 0.0,
			"-0.019": 0.0,
			"-0.018": 0.0,
			"-0.017": 0.0,
			"-0.016": 0.0,
			"-0.015": 0.0,
			"-0.014": 0.0,
			"-0.013": 0.0,
			"-0.012": 0.0,
			"-0.011": 0.0,
			"-0.01": 0.0,
			"-0.009": 0.0,
			"-0.008": 0.0,
			"-0.007": 0.0,
			"-0.006": 6.94077552445,
			"-0.005": 21.0429826612,
			"-0.004": 21.9507373944,
			"-0.003": 21.8386124281,
			"-0.002": 14.2861949716,
			"-0.001": 12.4555054429,
			"0.0": 11.7845854477,
			"0.001": 13.3438183866,
			"0.002": 13.4879752149,
			"0.003": 17.4511271529,
			"0.004": 17.2186569155,
			"0.005": 18.0819645782,
			"0.006": 14.4724518587,
			"0.007": 0.198880694809,
			"0.008": 0.0,
			"0.009": 0.0,
			"0.01": 0.0,
			"0.011": 0.0,
			"0.012": 0.0,
			"0.013": 0.0,
			"0.014": 0.0,
			"0.015": 0.0,
			"0.016": 0.0,
			"0.017": 0.0,
			"0.018": 0.0,
			"0.019": 0.0,
			"0.02": 0.0,
			"0.021": 0.0,
			"0.022": 0.0,
			"0.023": 0.0,
			"0.024": 0.0,
			"0.025": 0.0
		}
	}
}
