{
	 "smiles": "CC(C)(C)N=O", 
	 "Tm": 355.15, 
	 "num_atms": 15, 
	 "gaussian": { 
		 "optdone": 1, 
		 "sigma_profile": "yes", 
		 "theory": "DFT", 
		 "functional": "B3LYP", 
		 "basiset": "6-31G**", 
		 "properties": { 
			 "R2extent": 1048.4431, 
			 "electric_dipole_moment_norm": 2.48230579301, 
			 "electric_quadrupole_moment_norm": 6.28175940959, 
			 "total_energy": -287.751499209, 
			 "HOMO_LUMO_gap": 0.13914, 
			 "cosmo_polarized_energy": -4.4, 
			 "cosmo_cavitation_energy": 17.81, 
			 "cosmo_dispersion_energy": -12.69, 
			 "cosmo_repulsion_energy": 1.09, 
			 "cosmo_total_nonelectrostatic_energy": 6.22, 
			 "SMD_solvation_energy": 2.89 
		},
		"coords": [
			{
				"x": 1.5139187678,
				"y": 1.0926946988,
				"z": -1.4325481605,
				"element": "C" 
			},
			{
				"x": 1.4484816284,
				"y": 0.245924299,
				"z": -0.1655646754,
				"element": "C" 
			},
			{
				"x": 0.0044814895,
				"y": -0.1140568729,
				"z": 0.2287154314,
				"element": "C" 
			},
			{
				"x": 2.1831651016,
				"y": 0.8998926263,
				"z": 1.0188233227,
				"element": "C" 
			},
			{
				"x": 2.131888376,
				"y": -1.1013633937,
				"z": -0.3209956294,
				"element": "N" 
			},
			{
				"x": 2.6195224445,
				"y": -1.3004009563,
				"z": -1.4097252568,
				"element": "O" 
			},
			{
				"x": 2.5494891162,
				"y": 1.2927595056,
				"z": -1.7208707331,
				"element": "H" 
			},
			{
				"x": 1.0094731218,
				"y": 2.0497763042,
				"z": -1.2685133101,
				"element": "H" 
			},
			{
				"x": 1.0295404714,
				"y": 0.5860253754,
				"z": -2.2717316751,
				"element": "H" 
			},
			{
				"x": -0.0059228648,
				"y": -0.802921795,
				"z": 1.0784782781,
				"element": "H" 
			},
			{
				"x": -0.5232504558,
				"y": -0.5881878157,
				"z": -0.6048346402,
				"element": "H" 
			},
			{
				"x": -0.5419359168,
				"y": 0.7916888691,
				"z": 0.5094919419,
				"element": "H" 
			},
			{
				"x": 1.6710374485,
				"y": 1.8216524229,
				"z": 1.3118509833,
				"element": "H" 
			},
			{
				"x": 2.2064876581,
				"y": 0.2268668766,
				"z": 1.8809312872,
				"element": "H" 
			},
			{
				"x": 3.2142236136,
				"y": 1.1510498557,
				"z": 0.7505928361,
				"element": "H" 
			}
		],
		 "valence_orbital": [ 
			{
				"type": "occ",
				"energy": -0.38259,
				"method": "rhf"
			},
			{
				"type": "occ",
				"energy": -0.37549,
				"method": "rhf"
			},
			{
				"type": "occ",
				"energy": -0.34441,
				"method": "rhf"
			},
			{
				"type": "occ",
				"energy": -0.34081,
				"method": "rhf"
			},
			{
				"type": "occ",
				"energy": -0.21417,
				"method": "rhf"
			},
			{
				"type": "unocc",
				"energy": -0.07503,
				"method": "rhf"
			},
			{
				"type": "unocc",
				"energy": 0.08195,
				"method": "rhf"
			},
			{
				"type": "unocc",
				"energy": 0.11516,
				"method": "rhf"
			},
			{
				"type": "unocc",
				"energy": 0.14102,
				"method": "rhf"
			},
			{
				"type": "unocc",
				"energy": 0.14413,
				"method": "rhf"
			}
		],
		"cosmo_sigma_profile": { 
			"-0.025": 0.0,
			"-0.024": 0.0,
			"-0.023": 0.0,
			"-0.022": 0.0,
			"-0.021": 0.0,
			"-0.02": 0.0,
			"-0.019": 0.0,
			"-0.018": 0.0,
			"-0.017": 0.0,
			"-0.016": 0.0,
			"-0.015": 0.0,
			"-0.014": 0.0,
			"-0.013": 0.0,
			"-0.012": 0.0,
			"-0.011": 0.0,
			"-0.01": 0.0,
			"-0.009": 0.0,
			"-0.008": 0.0,
			"-0.007": 0.0,
			"-0.006": 0.0,
			"-0.005": 2.91204989828,
			"-0.004": 19.1501092072,
			"-0.003": 19.9467106252,
			"-0.002": 16.3121483682,
			"-0.001": 18.3132432209,
			"0.0": 21.7266138235,
			"0.001": 8.55113141467,
			"0.002": 3.80683007411,
			"0.003": 2.78840847949,
			"0.004": 2.46770074055,
			"0.005": 3.43233914245,
			"0.006": 3.40640437234,
			"0.007": 4.98337303728,
			"0.008": 3.98297873002,
			"0.009": 3.31234801369,
			"0.01": 1.97567353427,
			"0.011": 0.905870512114,
			"0.012": 0.315576170728,
			"0.013": 0.0,
			"0.014": 0.0,
			"0.015": 0.0,
			"0.016": 0.0,
			"0.017": 0.0,
			"0.018": 0.0,
			"0.019": 0.0,
			"0.02": 0.0,
			"0.021": 0.0,
			"0.022": 0.0,
			"0.023": 0.0,
			"0.024": 0.0,
			"0.025": 0.0
		}
	}
}
