{
	 "smiles": "COC(=O)C1=CC=CN=C1N", 
	 "Tm": 358.15, 
	 "num_atms": 19, 
	 "gaussian": { 
		 "optdone": 1, 
		 "sigma_profile": "yes", 
		 "theory": "DFT", 
		 "functional": "B3LYP", 
		 "basiset": "6-31G**", 
		 "properties": { 
			 "R2extent": 1998.1964, 
			 "electric_dipole_moment_norm": 2.12025028004, 
			 "electric_quadrupole_moment_norm": 11.9645149016, 
			 "total_energy": -531.535567874, 
			 "HOMO_LUMO_gap": 0.17037, 
			 "cosmo_polarized_energy": -10.12, 
			 "cosmo_cavitation_energy": 23.15, 
			 "cosmo_dispersion_energy": -17.47, 
			 "cosmo_repulsion_energy": 1.4, 
			 "cosmo_total_nonelectrostatic_energy": 7.08, 
			 "SMD_solvation_energy": 4.22 
		},
		"coords": [
			{
				"x": 0.6281427894,
				"y": 3.1966699475,
				"z": -0.6495568684,
				"element": "C" 
			},
			{
				"x": -0.1800325581,
				"y": 2.0075265619,
				"z": -0.6468242552,
				"element": "O" 
			},
			{
				"x": 0.081177344,
				"y": 1.1344109455,
				"z": 0.371191248,
				"element": "C" 
			},
			{
				"x": 0.936841591,
				"y": 1.3692591911,
				"z": 1.2035991541,
				"element": "O" 
			},
			{
				"x": -0.762718816,
				"y": -0.0810764736,
				"z": 0.3545474419,
				"element": "C" 
			},
			{
				"x": -0.5515521499,
				"y": -0.9920340228,
				"z": 1.3988385235,
				"element": "C" 
			},
			{
				"x": -1.2951273788,
				"y": -2.1597268727,
				"z": 1.483076886,
				"element": "C" 
			},
			{
				"x": -2.2554662802,
				"y": -2.3774311288,
				"z": 0.4901482546,
				"element": "C" 
			},
			{
				"x": -2.4916002637,
				"y": -1.5461445527,
				"z": -0.520221439,
				"element": "N" 
			},
			{
				"x": -1.7640109075,
				"y": -0.4097104209,
				"z": -0.6108861454,
				"element": "C" 
			},
			{
				"x": -2.055694618,
				"y": 0.3634393271,
				"z": -1.6879619523,
				"element": "N" 
			},
			{
				"x": 0.2999976845,
				"y": 3.7735859419,
				"z": -1.514363988,
				"element": "H" 
			},
			{
				"x": 1.6863684687,
				"y": 2.9404455722,
				"z": -0.7369798849,
				"element": "H" 
			},
			{
				"x": 0.4779693725,
				"y": 3.7645375698,
				"z": 0.2714600978,
				"element": "H" 
			},
			{
				"x": 0.2095640539,
				"y": -0.7457875339,
				"z": 2.1318344871,
				"element": "H" 
			},
			{
				"x": -1.1467936097,
				"y": -2.8756154683,
				"z": 2.2834227992,
				"element": "H" 
			},
			{
				"x": -2.8719871952,
				"y": -3.2756743732,
				"z": 0.5117887338,
				"element": "H" 
			},
			{
				"x": -2.8344219381,
				"y": 0.0712440795,
				"z": -2.2556118039,
				"element": "H" 
			},
			{
				"x": -1.6369555887,
				"y": 1.2719817103,
				"z": -1.791201289,
				"element": "H" 
			}
		],
		 "valence_orbital": [ 
			{
				"type": "occ",
				"energy": -0.30585,
				"method": "rhf"
			},
			{
				"type": "occ",
				"energy": -0.28233,
				"method": "rhf"
			},
			{
				"type": "occ",
				"energy": -0.2798,
				"method": "rhf"
			},
			{
				"type": "occ",
				"energy": -0.25623,
				"method": "rhf"
			},
			{
				"type": "occ",
				"energy": -0.21546,
				"method": "rhf"
			},
			{
				"type": "unocc",
				"energy": -0.04509,
				"method": "rhf"
			},
			{
				"type": "unocc",
				"energy": 0.0029,
				"method": "rhf"
			},
			{
				"type": "unocc",
				"energy": 0.05474,
				"method": "rhf"
			},
			{
				"type": "unocc",
				"energy": 0.09461,
				"method": "rhf"
			},
			{
				"type": "unocc",
				"energy": 0.11067,
				"method": "rhf"
			}
		],
		"cosmo_sigma_profile": { 
			"-0.025": 0.0,
			"-0.024": 0.0,
			"-0.023": 0.0,
			"-0.022": 0.0,
			"-0.021": 0.0,
			"-0.02": 0.0,
			"-0.019": 0.0,
			"-0.018": 0.0,
			"-0.017": 0.0,
			"-0.016": 0.0,
			"-0.015": 0.0,
			"-0.014": 0.0288240442731,
			"-0.013": 1.167392903,
			"-0.012": 0.518116662335,
			"-0.011": 1.15103899994,
			"-0.01": 1.99808644282,
			"-0.009": 2.03783091135,
			"-0.008": 1.86976493874,
			"-0.007": 3.21906364297,
			"-0.006": 10.9673025827,
			"-0.005": 15.4869240589,
			"-0.004": 14.8860562203,
			"-0.003": 15.1219880572,
			"-0.002": 11.0002380711,
			"-0.001": 10.9546006369,
			"0.0": 12.3445604644,
			"0.001": 15.8186855451,
			"0.002": 14.8444829423,
			"0.003": 13.0552503886,
			"0.004": 7.96736823981,
			"0.005": 3.97928980316,
			"0.006": 3.36861904853,
			"0.007": 3.38201878113,
			"0.008": 3.2064869323,
			"0.009": 1.84512247318,
			"0.01": 3.26191157174,
			"0.011": 3.54383273501,
			"0.012": 5.00132233984,
			"0.013": 1.29560044301,
			"0.014": 0.95379143261,
			"0.015": 0.484352718185,
			"0.016": 0.0291331064763,
			"0.017": 0.0,
			"0.018": 0.0,
			"0.019": 0.0,
			"0.02": 0.0,
			"0.021": 0.0,
			"0.022": 0.0,
			"0.023": 0.0,
			"0.024": 0.0,
			"0.025": 0.0
		}
	}
}
