{
	 "smiles": "SC1=NC2=C(C=CS2)C(=O)N1", 
	 "Tm": 589.15, 
	 "num_atms": 15, 
	 "gaussian": { 
		 "optdone": 1, 
		 "sigma_profile": "yes", 
		 "theory": "DFT", 
		 "functional": "B3LYP", 
		 "basiset": "6-31G**", 
		 "properties": { 
			 "R2extent": 3064.1917, 
			 "electric_dipole_moment_norm": 1.80906941271, 
			 "electric_quadrupole_moment_norm": 12.7376859366, 
			 "total_energy": -1212.15728967, 
			 "HOMO_LUMO_gap": 0.17444, 
			 "cosmo_polarized_energy": -12.35, 
			 "cosmo_cavitation_energy": 23.27, 
			 "cosmo_dispersion_energy": -18.69, 
			 "cosmo_repulsion_energy": 1.39, 
			 "cosmo_total_nonelectrostatic_energy": 5.98, 
			 "SMD_solvation_energy": 2.57 
		},
		"coords": [
			{
				"x": -1.0788422835,
				"y": -0.8534139,
				"z": -1.3889397775,
				"element": "S" 
			},
			{
				"x": -0.1992193922,
				"y": 0.3177048923,
				"z": -0.3761238748,
				"element": "C" 
			},
			{
				"x": -0.0484630414,
				"y": 0.1121460118,
				"z": 0.8986448939,
				"element": "N" 
			},
			{
				"x": 0.6447780762,
				"y": 1.0879635998,
				"z": 1.5535914687,
				"element": "C" 
			},
			{
				"x": 1.1854985089,
				"y": 2.2437271269,
				"z": 0.9949965679,
				"element": "C" 
			},
			{
				"x": 1.8560327462,
				"y": 3.0696554188,
				"z": 1.9484173015,
				"element": "C" 
			},
			{
				"x": 1.8177888825,
				"y": 2.5396756345,
				"z": 3.2031254471,
				"element": "C" 
			},
			{
				"x": 0.9631190392,
				"y": 1.0140325596,
				"z": 3.2694970597,
				"element": "S" 
			},
			{
				"x": 1.0174632128,
				"y": 2.4730585538,
				"z": -0.4262499332,
				"element": "C" 
			},
			{
				"x": 1.4113444447,
				"y": 3.4124919055,
				"z": -1.0983297761,
				"element": "O" 
			},
			{
				"x": 0.2866832346,
				"y": 1.4145660646,
				"z": -1.0362714547,
				"element": "N" 
			},
			{
				"x": -1.3314080607,
				"y": -1.6778503227,
				"z": -0.3562730426,
				"element": "H" 
			},
			{
				"x": 2.3351505416,
				"y": 4.0060602855,
				"z": 1.6912376257,
				"element": "H" 
			},
			{
				"x": 2.2403086658,
				"y": 2.9468111217,
				"z": 4.1112019895,
				"element": "H" 
			},
			{
				"x": 0.1413654253,
				"y": 1.5270710479,
				"z": -2.033124495,
				"element": "H" 
			}
		],
		 "valence_orbital": [ 
			{
				"type": "occ",
				"energy": -0.29937,
				"method": "rhf"
			},
			{
				"type": "occ",
				"energy": -0.2888,
				"method": "rhf"
			},
			{
				"type": "occ",
				"energy": -0.27069,
				"method": "rhf"
			},
			{
				"type": "occ",
				"energy": -0.26611,
				"method": "rhf"
			},
			{
				"type": "occ",
				"energy": -0.22409,
				"method": "rhf"
			},
			{
				"type": "unocc",
				"energy": -0.04965,
				"method": "rhf"
			},
			{
				"type": "unocc",
				"energy": -0.01772,
				"method": "rhf"
			},
			{
				"type": "unocc",
				"energy": -0.01469,
				"method": "rhf"
			},
			{
				"type": "unocc",
				"energy": 0.01676,
				"method": "rhf"
			},
			{
				"type": "unocc",
				"energy": 0.01941,
				"method": "rhf"
			}
		],
		"cosmo_sigma_profile": { 
			"-0.025": 0.0,
			"-0.024": 0.0,
			"-0.023": 0.0,
			"-0.022": 0.0,
			"-0.021": 0.0,
			"-0.02": 0.0,
			"-0.019": 0.0,
			"-0.018": 0.139025360698,
			"-0.017": 0.769657825996,
			"-0.016": 1.11463767368,
			"-0.015": 1.02512768429,
			"-0.014": 1.01340808852,
			"-0.013": 1.55056657518,
			"-0.012": 2.2100106489,
			"-0.011": 1.9248556394,
			"-0.01": 2.22437229436,
			"-0.009": 4.52162483632,
			"-0.008": 4.48787638292,
			"-0.007": 5.19611281719,
			"-0.006": 6.12333900245,
			"-0.005": 6.8055985223,
			"-0.004": 7.19304457864,
			"-0.003": 10.042167567,
			"-0.002": 11.7493102307,
			"-0.001": 10.8652970967,
			"0.0": 16.4389964195,
			"0.001": 21.2386390832,
			"0.002": 20.1190303863,
			"0.003": 14.9866621171,
			"0.004": 9.6775661178,
			"0.005": 5.70516047605,
			"0.006": 4.21421790161,
			"0.007": 2.34086143203,
			"0.008": 2.08750788281,
			"0.009": 2.6676687866,
			"0.01": 1.79676159696,
			"0.011": 3.01492358928,
			"0.012": 4.44736346315,
			"0.013": 4.73113862549,
			"0.014": 0.290167902821,
			"0.015": 0.0,
			"0.016": 0.0,
			"0.017": 0.0,
			"0.018": 0.0,
			"0.019": 0.0,
			"0.02": 0.0,
			"0.021": 0.0,
			"0.022": 0.0,
			"0.023": 0.0,
			"0.024": 0.0,
			"0.025": 0.0
		}
	}
}
