{
	 "smiles": "CC(C)(C)OC(=O)NC1=C(N)C=CC=C1", 
	 "Tm": 379.15, 
	 "num_atms": 31, 
	 "gaussian": { 
		 "optdone": 1, 
		 "sigma_profile": "yes", 
		 "theory": "DFT", 
		 "functional": "B3LYP", 
		 "basiset": "6-31G**", 
		 "properties": { 
			 "R2extent": 4326.8238, 
			 "electric_dipole_moment_norm": 1.65871664548, 
			 "electric_quadrupole_moment_norm": 8.05163450735, 
			 "total_energy": -688.810962809, 
			 "HOMO_LUMO_gap": 0.19442, 
			 "cosmo_polarized_energy": -11.4, 
			 "cosmo_cavitation_energy": 33.22, 
			 "cosmo_dispersion_energy": -23.89, 
			 "cosmo_repulsion_energy": 1.88, 
			 "cosmo_total_nonelectrostatic_energy": 11.2, 
			 "SMD_solvation_energy": 6.34 
		},
		"coords": [
			{
				"x": -1.4053815325,
				"y": 2.9916631246,
				"z": 0.9214145313,
				"element": "C" 
			},
			{
				"x": -0.8697874894,
				"y": 1.9291683733,
				"z": 1.8868130555,
				"element": "C" 
			},
			{
				"x": 0.0056775905,
				"y": 2.5680914297,
				"z": 2.9681137075,
				"element": "C" 
			},
			{
				"x": -1.9905195358,
				"y": 1.0961000875,
				"z": 2.517456689,
				"element": "C" 
			},
			{
				"x": 0.0823936834,
				"y": 1.0489433288,
				"z": 1.1880690823,
				"element": "O" 
			},
			{
				"x": -0.3077781104,
				"y": 0.2791786418,
				"z": 0.1459943725,
				"element": "C" 
			},
			{
				"x": -1.4366045054,
				"y": 0.2337578778,
				"z": -0.3313309845,
				"element": "O" 
			},
			{
				"x": 0.7603035274,
				"y": -0.4597300697,
				"z": -0.2814744357,
				"element": "N" 
			},
			{
				"x": 0.8440872061,
				"y": -1.2737333164,
				"z": -1.448984355,
				"element": "C" 
			},
			{
				"x": -0.1070170628,
				"y": -2.2800187482,
				"z": -1.7461276992,
				"element": "C" 
			},
			{
				"x": -1.1981179558,
				"y": -2.5187715873,
				"z": -0.9161442446,
				"element": "N" 
			},
			{
				"x": 0.1312501442,
				"y": -3.0857780501,
				"z": -2.8759758601,
				"element": "C" 
			},
			{
				"x": 1.266557965,
				"y": -2.9316148223,
				"z": -3.6639929358,
				"element": "C" 
			},
			{
				"x": 2.2013090121,
				"y": -1.9404016036,
				"z": -3.3596128231,
				"element": "C" 
			},
			{
				"x": 1.9731328726,
				"y": -1.1172086946,
				"z": -2.2598901871,
				"element": "C" 
			},
			{
				"x": -0.5767850462,
				"y": 3.5392520894,
				"z": 0.4613194957,
				"element": "H" 
			},
			{
				"x": -2.0095421434,
				"y": 2.5382865435,
				"z": 0.1352821594,
				"element": "H" 
			},
			{
				"x": -2.022199591,
				"y": 3.709467614,
				"z": 1.4718328464,
				"element": "H" 
			},
			{
				"x": 0.8334830798,
				"y": 3.1229243654,
				"z": 2.5170686946,
				"element": "H" 
			},
			{
				"x": 0.4223979608,
				"y": 1.803447756,
				"z": 3.6300606246,
				"element": "H" 
			},
			{
				"x": -0.5886469831,
				"y": 3.261532821,
				"z": 3.5703173588,
				"element": "H" 
			},
			{
				"x": -2.6201820266,
				"y": 1.7406525775,
				"z": 3.1392757505,
				"element": "H" 
			},
			{
				"x": -2.6122311307,
				"y": 0.631360831,
				"z": 1.7520681755,
				"element": "H" 
			},
			{
				"x": -1.5691950289,
				"y": 0.3140444806,
				"z": 3.1568928249,
				"element": "H" 
			},
			{
				"x": 1.6336717393,
				"y": -0.2369137997,
				"z": 0.1747628517,
				"element": "H" 
			},
			{
				"x": -1.8731429024,
				"y": -3.153971543,
				"z": -1.3219069589,
				"element": "H" 
			},
			{
				"x": -1.6371264825,
				"y": -1.6654451469,
				"z": -0.577505388,
				"element": "H" 
			},
			{
				"x": -0.5945592646,
				"y": -3.8590274727,
				"z": -3.1174841458,
				"element": "H" 
			},
			{
				"x": 1.4161298977,
				"y": -3.5828490988,
				"z": -4.5204090961,
				"element": "H" 
			},
			{
				"x": 3.0878313001,
				"y": -1.8028401281,
				"z": -3.9700792298,
				"element": "H" 
			},
			{
				"x": 2.6820908127,
				"y": -0.3308678607,
				"z": -2.0114238766,
				"element": "H" 
			}
		],
		 "valence_orbital": [ 
			{
				"type": "occ",
				"energy": -0.29507,
				"method": "rhf"
			},
			{
				"type": "occ",
				"energy": -0.2904,
				"method": "rhf"
			},
			{
				"type": "occ",
				"energy": -0.27239,
				"method": "rhf"
			},
			{
				"type": "occ",
				"energy": -0.22898,
				"method": "rhf"
			},
			{
				"type": "occ",
				"energy": -0.19324,
				"method": "rhf"
			},
			{
				"type": "unocc",
				"energy": 0.00118,
				"method": "rhf"
			},
			{
				"type": "unocc",
				"energy": 0.02137,
				"method": "rhf"
			},
			{
				"type": "unocc",
				"energy": 0.0521,
				"method": "rhf"
			},
			{
				"type": "unocc",
				"energy": 0.08186,
				"method": "rhf"
			},
			{
				"type": "unocc",
				"energy": 0.09347,
				"method": "rhf"
			}
		],
		"cosmo_sigma_profile": { 
			"-0.025": 0.0,
			"-0.024": 0.0,
			"-0.023": 0.0,
			"-0.022": 0.0,
			"-0.021": 0.0,
			"-0.02": 0.0,
			"-0.019": 0.0,
			"-0.018": 0.0,
			"-0.017": 0.0,
			"-0.016": 0.0,
			"-0.015": 0.258063847157,
			"-0.014": 0.641192717332,
			"-0.013": 0.901117880115,
			"-0.012": 1.57193382723,
			"-0.011": 2.76361650567,
			"-0.01": 2.63789585369,
			"-0.009": 2.41775601654,
			"-0.008": 2.85482274333,
			"-0.007": 3.39080236341,
			"-0.006": 5.45581431376,
			"-0.005": 9.14672574241,
			"-0.004": 20.9477632487,
			"-0.003": 24.6409136354,
			"-0.002": 21.3444127732,
			"-0.001": 25.6644110105,
			"0.0": 30.9687102803,
			"0.001": 23.4844313364,
			"0.002": 11.7167566214,
			"0.003": 10.5370751146,
			"0.004": 10.952720257,
			"0.005": 13.4745447622,
			"0.006": 13.216179944,
			"0.007": 8.6802062687,
			"0.008": 1.95305352718,
			"0.009": 2.57442462778,
			"0.01": 2.28075169436,
			"0.011": 2.15523000983,
			"0.012": 2.17674011585,
			"0.013": 0.907464078916,
			"0.014": 0.690830106257,
			"0.015": 0.533729753011,
			"0.016": 0.0767775737722,
			"0.017": 0.0,
			"0.018": 0.0,
			"0.019": 0.0,
			"0.02": 0.0,
			"0.021": 0.0,
			"0.022": 0.0,
			"0.023": 0.0,
			"0.024": 0.0,
			"0.025": 0.0
		}
	}
}
