{
	 "smiles": "CC1=CC=C(C=C1C(F)(F)F)C(O)=O", 
	 "Tm": 450.15, 
	 "num_atms": 21, 
	 "gaussian": { 
		 "optdone": 1, 
		 "sigma_profile": "yes", 
		 "theory": "DFT", 
		 "functional": "B3LYP", 
		 "basiset": "6-31G**", 
		 "properties": { 
			 "R2extent": 3093.2886, 
			 "electric_dipole_moment_norm": 3.56702234504, 
			 "electric_quadrupole_moment_norm": 19.3251925261, 
			 "total_energy": -797.167587621, 
			 "HOMO_LUMO_gap": 0.20858, 
			 "cosmo_polarized_energy": -13.08, 
			 "cosmo_cavitation_energy": 26.5, 
			 "cosmo_dispersion_energy": -19.04, 
			 "cosmo_repulsion_energy": 1.42, 
			 "cosmo_total_nonelectrostatic_energy": 8.89, 
			 "SMD_solvation_energy": 6.84 
		},
		"coords": [
			{
				"x": -1.9065617525,
				"y": -2.029127449,
				"z": -2.2986435709,
				"element": "C" 
			},
			{
				"x": -1.0702196649,
				"y": -0.9184515966,
				"z": -1.7094279506,
				"element": "C" 
			},
			{
				"x": -0.6074070966,
				"y": 0.1192540546,
				"z": -2.5296904998,
				"element": "C" 
			},
			{
				"x": 0.1596238366,
				"y": 1.1650037668,
				"z": -2.0274491739,
				"element": "C" 
			},
			{
				"x": 0.4766572378,
				"y": 1.2153707509,
				"z": -0.6661727839,
				"element": "C" 
			},
			{
				"x": 0.0359665268,
				"y": 0.1808471495,
				"z": 0.1665130028,
				"element": "C" 
			},
			{
				"x": -0.725735347,
				"y": -0.8711769834,
				"z": -0.3419030567,
				"element": "C" 
			},
			{
				"x": -1.1625130701,
				"y": -1.9703849975,
				"z": 0.5963599052,
				"element": "C" 
			},
			{
				"x": -2.5082104978,
				"y": -2.114170735,
				"z": 0.6115735528,
				"element": "F" 
			},
			{
				"x": -0.6452531432,
				"y": -3.1709128486,
				"z": 0.2439305509,
				"element": "F" 
			},
			{
				"x": -0.7775280376,
				"y": -1.7355555217,
				"z": 1.8698108543,
				"element": "F" 
			},
			{
				"x": 1.3118505578,
				"y": 2.3635435289,
				"z": -0.1830203751,
				"element": "C" 
			},
			{
				"x": 1.3059058686,
				"y": 2.6126186939,
				"z": 1.1528020173,
				"element": "O" 
			},
			{
				"x": 1.9703771156,
				"y": 3.0545073164,
				"z": -0.9240158895,
				"element": "O" 
			},
			{
				"x": -1.4883295657,
				"y": -3.0109429753,
				"z": -2.0617918622,
				"element": "H" 
			},
			{
				"x": -2.9237223231,
				"y": -2.0104262582,
				"z": -1.8953338804,
				"element": "H" 
			},
			{
				"x": -1.9661629582,
				"y": -1.9308126429,
				"z": -3.3845458978,
				"element": "H" 
			},
			{
				"x": -0.8544416489,
				"y": 0.0985398009,
				"z": -3.5872495632,
				"element": "H" 
			},
			{
				"x": 0.5239280011,
				"y": 1.9560469343,
				"z": -2.6740181374,
				"element": "H" 
			},
			{
				"x": 0.3056868911,
				"y": 0.1531089027,
				"z": 1.2170973198,
				"element": "H" 
			},
			{
				"x": 0.6198890702,
				"y": 2.0927211092,
				"z": 1.5934754383,
				"element": "H" 
			}
		],
		 "valence_orbital": [ 
			{
				"type": "occ",
				"energy": -0.36563,
				"method": "rhf"
			},
			{
				"type": "occ",
				"energy": -0.32249,
				"method": "rhf"
			},
			{
				"type": "occ",
				"energy": -0.28697,
				"method": "rhf"
			},
			{
				"type": "occ",
				"energy": -0.28285,
				"method": "rhf"
			},
			{
				"type": "occ",
				"energy": -0.27145,
				"method": "rhf"
			},
			{
				"type": "unocc",
				"energy": -0.06287,
				"method": "rhf"
			},
			{
				"type": "unocc",
				"energy": -0.04245,
				"method": "rhf"
			},
			{
				"type": "unocc",
				"energy": 0.03343,
				"method": "rhf"
			},
			{
				"type": "unocc",
				"energy": 0.05467,
				"method": "rhf"
			},
			{
				"type": "unocc",
				"energy": 0.09264,
				"method": "rhf"
			}
		],
		"cosmo_sigma_profile": { 
			"-0.025": 0.0,
			"-0.024": 0.0,
			"-0.023": 0.0,
			"-0.022": 0.0,
			"-0.021": 0.0,
			"-0.02": 0.0417244499944,
			"-0.019": 0.452071848996,
			"-0.018": 1.18545302302,
			"-0.017": 0.976070478803,
			"-0.016": 1.18544139089,
			"-0.015": 0.905751489568,
			"-0.014": 0.797227554731,
			"-0.013": 0.844657286229,
			"-0.012": 1.53742843599,
			"-0.011": 0.778447865937,
			"-0.01": 0.45497018279,
			"-0.009": 1.47441193718,
			"-0.008": 1.73368170338,
			"-0.007": 4.56254076051,
			"-0.006": 6.93293511759,
			"-0.005": 9.68663078642,
			"-0.004": 10.7188025775,
			"-0.003": 14.676757833,
			"-0.002": 16.2292820041,
			"-0.001": 18.8420547062,
			"0.0": 17.6222901041,
			"0.001": 20.8351104373,
			"0.002": 27.8487484267,
			"0.003": 20.8564949807,
			"0.004": 2.51119735488,
			"0.005": 2.14276352099,
			"0.006": 1.83978733309,
			"0.007": 2.84002225142,
			"0.008": 2.61135063032,
			"0.009": 3.28631324734,
			"0.01": 5.06491292375,
			"0.011": 5.21714954294,
			"0.012": 4.44546897524,
			"0.013": 1.1244527714,
			"0.014": 0.0,
			"0.015": 0.0,
			"0.016": 0.0,
			"0.017": 0.0,
			"0.018": 0.0,
			"0.019": 0.0,
			"0.02": 0.0,
			"0.021": 0.0,
			"0.022": 0.0,
			"0.023": 0.0,
			"0.024": 0.0,
			"0.025": 0.0
		}
	}
}
