{
	 "smiles": "CC1=C(SC(C(O)=O)C2=CC=CC=C2)C=CC=C1", 
	 "Tm": 374.15, 
	 "num_atms": 32, 
	 "gaussian": { 
		 "optdone": 1, 
		 "sigma_profile": "yes", 
		 "theory": "DFT", 
		 "functional": "B3LYP", 
		 "basiset": "6-31G**", 
		 "properties": { 
			 "R2extent": 5972.9235, 
			 "electric_dipole_moment_norm": 4.66755661776, 
			 "electric_quadrupole_moment_norm": 14.9075832562, 
			 "total_energy": -1128.67758569, 
			 "HOMO_LUMO_gap": 0.17924, 
			 "cosmo_polarized_energy": -13.79, 
			 "cosmo_cavitation_energy": 36.74, 
			 "cosmo_dispersion_energy": -26.24, 
			 "cosmo_repulsion_energy": 2.0, 
			 "cosmo_total_nonelectrostatic_energy": 12.5, 
			 "SMD_solvation_energy": 6.92 
		},
		"coords": [
			{
				"x": -1.8078709223,
				"y": 2.7491001079,
				"z": -3.0611262339,
				"element": "C" 
			},
			{
				"x": -1.6464526448,
				"y": 3.0153266164,
				"z": -1.5834666389,
				"element": "C" 
			},
			{
				"x": -1.4727065922,
				"y": 1.9770093916,
				"z": -0.6417406455,
				"element": "C" 
			},
			{
				"x": -1.4864333075,
				"y": 0.2826984414,
				"z": -1.2461490347,
				"element": "S" 
			},
			{
				"x": -0.1286950925,
				"y": -0.5319503799,
				"z": -0.2584622892,
				"element": "C" 
			},
			{
				"x": -0.755794069,
				"y": -1.3083261765,
				"z": 0.9209635795,
				"element": "C" 
			},
			{
				"x": -0.9627221587,
				"y": -2.627435358,
				"z": 0.7416906745,
				"element": "O" 
			},
			{
				"x": -1.0677520287,
				"y": -0.7708293731,
				"z": 1.9572397122,
				"element": "O" 
			},
			{
				"x": 0.7794258161,
				"y": -1.3706312929,
				"z": -1.1365362283,
				"element": "C" 
			},
			{
				"x": 0.2769618965,
				"y": -2.2033436671,
				"z": -2.1509767363,
				"element": "C" 
			},
			{
				"x": 1.1363803804,
				"y": -3.0117048371,
				"z": -2.8982334476,
				"element": "C" 
			},
			{
				"x": 2.5090269842,
				"y": -2.9968788732,
				"z": -2.6476736927,
				"element": "C" 
			},
			{
				"x": 3.0189201536,
				"y": -2.1681433259,
				"z": -1.6463479304,
				"element": "C" 
			},
			{
				"x": 2.1608341624,
				"y": -1.3651242251,
				"z": -0.8950592434,
				"element": "C" 
			},
			{
				"x": -1.3456749999,
				"y": 2.2621906324,
				"z": 0.724678569,
				"element": "C" 
			},
			{
				"x": -1.3500255955,
				"y": 3.5854853918,
				"z": 1.1655812663,
				"element": "C" 
			},
			{
				"x": -1.5136804608,
				"y": 4.6244214997,
				"z": 0.2506274164,
				"element": "C" 
			},
			{
				"x": -1.6673637861,
				"y": 4.3317241928,
				"z": -1.103925384,
				"element": "C" 
			},
			{
				"x": -0.9895925695,
				"y": 2.132587809,
				"z": -3.4478469352,
				"element": "H" 
			},
			{
				"x": -2.7383566822,
				"y": 2.2118740407,
				"z": -3.2800304794,
				"element": "H" 
			},
			{
				"x": -1.829219805,
				"y": 3.6875488304,
				"z": -3.6214115875,
				"element": "H" 
			},
			{
				"x": 0.4397139637,
				"y": 0.2830538323,
				"z": 0.1913276502,
				"element": "H" 
			},
			{
				"x": -0.5727808455,
				"y": -2.9152393918,
				"z": -0.1004808883,
				"element": "H" 
			},
			{
				"x": -0.7851480942,
				"y": -2.1965143585,
				"z": -2.3837346805,
				"element": "H" 
			},
			{
				"x": 0.7313939067,
				"y": -3.6441504108,
				"z": -3.6826774797,
				"element": "H" 
			},
			{
				"x": 3.1772703926,
				"y": -3.6222118013,
				"z": -3.2319653607,
				"element": "H" 
			},
			{
				"x": 4.0866021627,
				"y": -2.1456111098,
				"z": -1.4488178707,
				"element": "H" 
			},
			{
				"x": 2.5644627009,
				"y": -0.7264848618,
				"z": -0.1138249317,
				"element": "H" 
			},
			{
				"x": -1.2533840926,
				"y": 1.4503778893,
				"z": 1.4392617435,
				"element": "H" 
			},
			{
				"x": -1.2427483579,
				"y": 3.7960630795,
				"z": 2.2257049281,
				"element": "H" 
			},
			{
				"x": -1.5268874134,
				"y": 5.6571112462,
				"z": 0.5869168063,
				"element": "H" 
			},
			{
				"x": -1.7961030014,
				"y": 5.1417064417,
				"z": -1.8175046273,
				"element": "H" 
			}
		],
		 "valence_orbital": [ 
			{
				"type": "occ",
				"energy": -0.27524,
				"method": "rhf"
			},
			{
				"type": "occ",
				"energy": -0.27157,
				"method": "rhf"
			},
			{
				"type": "occ",
				"energy": -0.25672,
				"method": "rhf"
			},
			{
				"type": "occ",
				"energy": -0.24333,
				"method": "rhf"
			},
			{
				"type": "occ",
				"energy": -0.21783,
				"method": "rhf"
			},
			{
				"type": "unocc",
				"energy": -0.03859,
				"method": "rhf"
			},
			{
				"type": "unocc",
				"energy": -0.02701,
				"method": "rhf"
			},
			{
				"type": "unocc",
				"energy": -0.01224,
				"method": "rhf"
			},
			{
				"type": "unocc",
				"energy": -0.00182,
				"method": "rhf"
			},
			{
				"type": "unocc",
				"energy": 0.00609,
				"method": "rhf"
			}
		],
		"cosmo_sigma_profile": { 
			"-0.025": 0.0,
			"-0.024": 0.0,
			"-0.023": 0.0,
			"-0.022": 0.0,
			"-0.021": 0.0,
			"-0.02": 0.0,
			"-0.019": 0.0,
			"-0.018": 0.0,
			"-0.017": 0.0,
			"-0.016": 0.0,
			"-0.015": 0.0,
			"-0.014": 0.147770636487,
			"-0.013": 0.952482948667,
			"-0.012": 0.860400198188,
			"-0.011": 1.67886526078,
			"-0.01": 1.53546340773,
			"-0.009": 2.06087847068,
			"-0.008": 3.72480901475,
			"-0.007": 6.44727337515,
			"-0.006": 16.4970817652,
			"-0.005": 22.9656813784,
			"-0.004": 23.6761427947,
			"-0.003": 20.6883579078,
			"-0.002": 19.4796853378,
			"-0.001": 19.7569162859,
			"0.0": 22.1321206649,
			"0.001": 18.0834894734,
			"0.002": 18.5757612958,
			"0.003": 20.9011532557,
			"0.004": 25.0934782964,
			"0.005": 18.0698410343,
			"0.006": 8.82953358911,
			"0.007": 3.78440788129,
			"0.008": 3.97344137529,
			"0.009": 3.6243643829,
			"0.01": 5.01511657797,
			"0.011": 3.74202631438,
			"0.012": 2.32879374583,
			"0.013": 0.46924336255,
			"0.014": 0.0,
			"0.015": 0.0,
			"0.016": 0.0,
			"0.017": 0.0,
			"0.018": 0.0,
			"0.019": 0.0,
			"0.02": 0.0,
			"0.021": 0.0,
			"0.022": 0.0,
			"0.023": 0.0,
			"0.024": 0.0,
			"0.025": 0.0
		}
	}
}
