{
	 "smiles": "OC(=O)C1CSCCS1", 
	 "Tm": 332.15, 
	 "num_atms": 17, 
	 "gaussian": { 
		 "optdone": 1, 
		 "sigma_profile": "yes", 
		 "theory": "DFT", 
		 "functional": "B3LYP", 
		 "basiset": "6-31G**", 
		 "properties": { 
			 "R2extent": 2215.3996, 
			 "electric_dipole_moment_norm": 1.13585550137, 
			 "electric_quadrupole_moment_norm": 13.2926880818, 
			 "total_energy": -1142.18073539, 
			 "HOMO_LUMO_gap": 0.22174, 
			 "cosmo_polarized_energy": -12.7, 
			 "cosmo_cavitation_energy": 22.22, 
			 "cosmo_dispersion_energy": -17.68, 
			 "cosmo_repulsion_energy": 1.35, 
			 "cosmo_total_nonelectrostatic_energy": 5.89, 
			 "SMD_solvation_energy": 3.6 
		},
		"coords": [
			{
				"x": -0.0860689012,
				"y": -2.9847835831,
				"z": -1.1730364152,
				"element": "O" 
			},
			{
				"x": 0.3525953981,
				"y": -1.7723436943,
				"z": -1.5928643308,
				"element": "C" 
			},
			{
				"x": 0.9109160034,
				"y": -1.6077689326,
				"z": -2.6507789783,
				"element": "O" 
			},
			{
				"x": 0.017162455,
				"y": -0.7147430483,
				"z": -0.5364703978,
				"element": "C" 
			},
			{
				"x": -1.494661049,
				"y": -0.4273546909,
				"z": -0.5082951997,
				"element": "C" 
			},
			{
				"x": -2.1988431665,
				"y": 0.1178508238,
				"z": -2.120123215,
				"element": "S" 
			},
			{
				"x": -0.8254541739,
				"y": 1.1624727866,
				"z": -2.7786900846,
				"element": "C" 
			},
			{
				"x": -0.0574720278,
				"y": 1.9021539912,
				"z": -1.6879440974,
				"element": "C" 
			},
			{
				"x": 1.0285339465,
				"y": 0.8125096344,
				"z": -0.6695363801,
				"element": "S" 
			},
			{
				"x": 0.1116979553,
				"y": -3.6099981388,
				"z": -1.890687091,
				"element": "H" 
			},
			{
				"x": 0.2863223019,
				"y": -1.143847419,
				"z": 0.4347400665,
				"element": "H" 
			},
			{
				"x": -1.6981430774,
				"y": 0.3157584046,
				"z": 0.2664204559,
				"element": "H" 
			},
			{
				"x": -2.0368984361,
				"y": -1.3427992063,
				"z": -0.2575875633,
				"element": "H" 
			},
			{
				"x": -0.147790891,
				"y": 0.539176851,
				"z": -3.3650003133,
				"element": "H" 
			},
			{
				"x": -1.3150492943,
				"y": 1.8815504211,
				"z": -3.4425040265,
				"element": "H" 
			},
			{
				"x": -0.7409996003,
				"y": 2.4572702759,
				"z": -1.0391959514,
				"element": "H" 
			},
			{
				"x": 0.6344525572,
				"y": 2.6185955246,
				"z": -2.1415464781,
				"element": "H" 
			}
		],
		 "valence_orbital": [ 
			{
				"type": "occ",
				"energy": -0.32756,
				"method": "rhf"
			},
			{
				"type": "occ",
				"energy": -0.30324,
				"method": "rhf"
			},
			{
				"type": "occ",
				"energy": -0.2829,
				"method": "rhf"
			},
			{
				"type": "occ",
				"energy": -0.2324,
				"method": "rhf"
			},
			{
				"type": "occ",
				"energy": -0.22709,
				"method": "rhf"
			},
			{
				"type": "unocc",
				"energy": -0.00535,
				"method": "rhf"
			},
			{
				"type": "unocc",
				"energy": 0.0192,
				"method": "rhf"
			},
			{
				"type": "unocc",
				"energy": 0.04042,
				"method": "rhf"
			},
			{
				"type": "unocc",
				"energy": 0.04445,
				"method": "rhf"
			},
			{
				"type": "unocc",
				"energy": 0.07478,
				"method": "rhf"
			}
		],
		"cosmo_sigma_profile": { 
			"-0.025": 0.0,
			"-0.024": 0.0,
			"-0.023": 0.0,
			"-0.022": 0.0,
			"-0.021": 0.0,
			"-0.02": 0.0,
			"-0.019": 0.120373714403,
			"-0.018": 0.789384645312,
			"-0.017": 1.47800197013,
			"-0.016": 0.499069856763,
			"-0.015": 0.700121235557,
			"-0.014": 0.776350637464,
			"-0.013": 0.770395379564,
			"-0.012": 0.566093313013,
			"-0.011": 1.00336656014,
			"-0.01": 1.01261741148,
			"-0.009": 0.755575322626,
			"-0.008": 3.4548655445,
			"-0.007": 6.92073608105,
			"-0.006": 12.5988133419,
			"-0.005": 16.233542334,
			"-0.004": 13.6694876918,
			"-0.003": 13.9778732415,
			"-0.002": 10.3655907894,
			"-0.001": 6.99380325176,
			"0.0": 7.48380360117,
			"0.001": 6.14159383272,
			"0.002": 7.36819529868,
			"0.003": 5.88008113995,
			"0.004": 6.96345039875,
			"0.005": 10.6317848529,
			"0.006": 8.07870964498,
			"0.007": 7.57673022791,
			"0.008": 6.49127114733,
			"0.009": 6.07374429861,
			"0.01": 4.87798602575,
			"0.011": 4.83521017633,
			"0.012": 1.95229479953,
			"0.013": 1.17281089592,
			"0.014": 0.129457971103,
			"0.015": 0.0,
			"0.016": 0.0,
			"0.017": 0.0,
			"0.018": 0.0,
			"0.019": 0.0,
			"0.02": 0.0,
			"0.021": 0.0,
			"0.022": 0.0,
			"0.023": 0.0,
			"0.024": 0.0,
			"0.025": 0.0
		}
	}
}
