{
	 "smiles": "FC1=CC=C(C=C1)C(Br)(C1=CC=C(F)C=C1)C1=CC=C(F)C=C1", 
	 "Tm": 382.15, 
	 "num_atms": 35, 
	 "gaussian": { 
		 "optdone": 1, 
		 "sigma_profile": "yes", 
		 "theory": "DFT", 
		 "functional": "B3LYP", 
		 "basiset": "6-31G**", 
		 "properties": { 
			 "R2extent": 8642.8283, 
			 "electric_dipole_moment_norm": 1.21273829411, 
			 "electric_quadrupole_moment_norm": 2.14700712621, 
			 "total_energy": -3602.15858495, 
			 "HOMO_LUMO_gap": 0.18222, 
			 "cosmo_polarized_energy": -7.67, 
			 "cosmo_cavitation_energy": 41.93, 
			 "cosmo_dispersion_energy": -28.55, 
			 "cosmo_repulsion_energy": 2.1, 
			 "cosmo_total_nonelectrostatic_energy": 15.48, 
			 "SMD_solvation_energy": 7.63 
		},
		"coords": [
			{
				"x": -2.5682717109,
				"y": 4.3572591453,
				"z": -1.874947634,
				"element": "F" 
			},
			{
				"x": -1.9152595846,
				"y": 3.3186737012,
				"z": -1.3174692802,
				"element": "C" 
			},
			{
				"x": -0.5360549393,
				"y": 3.2399439084,
				"z": -1.437235922,
				"element": "C" 
			},
			{
				"x": 0.1311388343,
				"y": 2.162056077,
				"z": -0.8495204131,
				"element": "C" 
			},
			{
				"x": -0.5669320413,
				"y": 1.1709805289,
				"z": -0.1457963746,
				"element": "C" 
			},
			{
				"x": -1.966426959,
				"y": 1.2827194629,
				"z": -0.056148441,
				"element": "C" 
			},
			{
				"x": -2.6452243079,
				"y": 2.3493569936,
				"z": -0.6339324995,
				"element": "C" 
			},
			{
				"x": 0.155170983,
				"y": -0.0469145426,
				"z": 0.4278175285,
				"element": "C" 
			},
			{
				"x": -0.5631197518,
				"y": -0.2573000683,
				"z": 2.3858162133,
				"element": "Br" 
			},
			{
				"x": 1.6625968347,
				"y": 0.1603804474,
				"z": 0.5635611688,
				"element": "C" 
			},
			{
				"x": 2.1766515006,
				"y": 1.1266833568,
				"z": 1.4473795941,
				"element": "C" 
			},
			{
				"x": 3.5415045606,
				"y": 1.3764372198,
				"z": 1.5316796309,
				"element": "C" 
			},
			{
				"x": 4.408097181,
				"y": 0.6530318027,
				"z": 0.7159998439,
				"element": "C" 
			},
			{
				"x": 5.7324965148,
				"y": 0.8878798268,
				"z": 0.7976919138,
				"element": "F" 
			},
			{
				"x": 3.9408545932,
				"y": -0.3005329884,
				"z": -0.1757085994,
				"element": "C" 
			},
			{
				"x": 2.566171245,
				"y": -0.5404367168,
				"z": -0.2470966378,
				"element": "C" 
			},
			{
				"x": -0.2080640822,
				"y": -1.3486115643,
				"z": -0.2844488196,
				"element": "C" 
			},
			{
				"x": 0.1126546021,
				"y": -2.5926793581,
				"z": 0.2887840771,
				"element": "C" 
			},
			{
				"x": -0.1480109626,
				"y": -3.7846116379,
				"z": -0.3772607841,
				"element": "C" 
			},
			{
				"x": -0.734236486,
				"y": -3.7340045293,
				"z": -1.639584709,
				"element": "C" 
			},
			{
				"x": -0.9935795774,
				"y": -4.8869380099,
				"z": -2.2871564299,
				"element": "F" 
			},
			{
				"x": -1.0562106024,
				"y": -2.5281333474,
				"z": -2.2436797998,
				"element": "C" 
			},
			{
				"x": -0.788846829,
				"y": -1.3391451965,
				"z": -1.5601083571,
				"element": "C" 
			},
			{
				"x": 0.0027347519,
				"y": 4.0092729854,
				"z": -1.9794277201,
				"element": "H" 
			},
			{
				"x": 1.2075699026,
				"y": 2.0987100982,
				"z": -0.9512665661,
				"element": "H" 
			},
			{
				"x": -2.5257668039,
				"y": 0.5302377963,
				"z": 0.4883087525,
				"element": "H" 
			},
			{
				"x": -3.7229909495,
				"y": 2.4434248792,
				"z": -0.5573555557,
				"element": "H" 
			},
			{
				"x": 1.4961638912,
				"y": 1.6767532731,
				"z": 2.0875996936,
				"element": "H" 
			},
			{
				"x": 3.941254494,
				"y": 2.1133528658,
				"z": 2.2197638503,
				"element": "H" 
			},
			{
				"x": 4.6416320388,
				"y": -0.8440443168,
				"z": -0.7999117498,
				"element": "H" 
			},
			{
				"x": 2.2031918967,
				"y": -1.2801350988,
				"z": -0.9500735844,
				"element": "H" 
			},
			{
				"x": 0.5575448243,
				"y": -2.6234445437,
				"z": 1.2770475547,
				"element": "H" 
			},
			{
				"x": 0.088631106,
				"y": -4.7453819103,
				"z": 0.0668393294,
				"element": "H" 
			},
			{
				"x": -1.5083293477,
				"y": -2.522843209,
				"z": -3.2294235029,
				"element": "H" 
			},
			{
				"x": -1.0340348193,
				"y": -0.3983973308,
				"z": -2.0375357705,
				"element": "H" 
			}
		],
		 "valence_orbital": [ 
			{
				"type": "occ",
				"energy": -0.26582,
				"method": "rhf"
			},
			{
				"type": "occ",
				"energy": -0.26581,
				"method": "rhf"
			},
			{
				"type": "occ",
				"energy": -0.2473,
				"method": "rhf"
			},
			{
				"type": "occ",
				"energy": -0.24725,
				"method": "rhf"
			},
			{
				"type": "occ",
				"energy": -0.24334,
				"method": "rhf"
			},
			{
				"type": "unocc",
				"energy": -0.06112,
				"method": "rhf"
			},
			{
				"type": "unocc",
				"energy": -0.03051,
				"method": "rhf"
			},
			{
				"type": "unocc",
				"energy": -0.01489,
				"method": "rhf"
			},
			{
				"type": "unocc",
				"energy": -0.01486,
				"method": "rhf"
			},
			{
				"type": "unocc",
				"energy": -0.01182,
				"method": "rhf"
			}
		],
		"cosmo_sigma_profile": { 
			"-0.025": 0.0,
			"-0.024": 0.0,
			"-0.023": 0.0,
			"-0.022": 0.0,
			"-0.021": 0.0,
			"-0.02": 0.0,
			"-0.019": 0.0,
			"-0.018": 0.0,
			"-0.017": 0.0,
			"-0.016": 0.0,
			"-0.015": 0.0,
			"-0.014": 0.0,
			"-0.013": 0.0,
			"-0.012": 0.0,
			"-0.011": 0.0,
			"-0.01": 0.0,
			"-0.009": 0.0,
			"-0.008": 2.55557211882,
			"-0.007": 11.5952073553,
			"-0.006": 16.2766233575,
			"-0.005": 21.4231200063,
			"-0.004": 16.4896815854,
			"-0.003": 17.5462707153,
			"-0.002": 23.2498139861,
			"-0.001": 23.0959687961,
			"0.0": 34.8027945075,
			"0.001": 39.2753397715,
			"0.002": 36.2906112522,
			"0.003": 34.8518219979,
			"0.004": 42.5177549527,
			"0.005": 15.6225436215,
			"0.006": 4.51305451423,
			"0.007": 0.256976897567,
			"0.008": 0.0,
			"0.009": 0.0,
			"0.01": 0.0,
			"0.011": 0.0,
			"0.012": 0.0,
			"0.013": 0.0,
			"0.014": 0.0,
			"0.015": 0.0,
			"0.016": 0.0,
			"0.017": 0.0,
			"0.018": 0.0,
			"0.019": 0.0,
			"0.02": 0.0,
			"0.021": 0.0,
			"0.022": 0.0,
			"0.023": 0.0,
			"0.024": 0.0,
			"0.025": 0.0
		}
	}
}
