{
	 "smiles": "COC(=O)N[C@H]1[C@H](O)O[C@H](CO)[C@@H](O)[C@@H]1O", 
	 "Tm": 469.0, 
	 "num_atms": 31, 
	 "gaussian": { 
		 "optdone": 1, 
		 "sigma_profile": "yes", 
		 "theory": "DFT", 
		 "functional": "B3LYP", 
		 "basiset": "6-31G**", 
		 "properties": { 
			 "R2extent": 4539.7427, 
			 "electric_dipole_moment_norm": 3.79864999967, 
			 "electric_quadrupole_moment_norm": 19.4277755525, 
			 "total_energy": -895.194483234, 
			 "HOMO_LUMO_gap": 0.28671, 
			 "cosmo_polarized_energy": -20.56, 
			 "cosmo_cavitation_energy": 32.75, 
			 "cosmo_dispersion_energy": -23.95, 
			 "cosmo_repulsion_energy": 1.87, 
			 "cosmo_total_nonelectrostatic_energy": 10.67, 
			 "SMD_solvation_energy": 6.14 
		},
		"coords": [
			{
				"x": 1.7676031878,
				"y": -1.9237414235,
				"z": -3.389554366,
				"element": "C" 
			},
			{
				"x": 1.2100532401,
				"y": -1.4283745715,
				"z": -2.1571303657,
				"element": "O" 
			},
			{
				"x": 0.2134733213,
				"y": -2.2062128453,
				"z": -1.6277923575,
				"element": "C" 
			},
			{
				"x": -0.160847852,
				"y": -3.2423453101,
				"z": -2.1381536555,
				"element": "O" 
			},
			{
				"x": -0.2742887436,
				"y": -1.6909828448,
				"z": -0.4570270615,
				"element": "N" 
			},
			{
				"x": -0.1891967746,
				"y": -0.3061497055,
				"z": 0.0219849921,
				"element": "C" 
			},
			{
				"x": -1.3185754163,
				"y": -0.1413604064,
				"z": 1.0757116975,
				"element": "C" 
			},
			{
				"x": -2.5753062612,
				"y": -0.4444792739,
				"z": 0.5555847806,
				"element": "O" 
			},
			{
				"x": -1.3333770721,
				"y": 1.1712231967,
				"z": 1.5860564986,
				"element": "O" 
			},
			{
				"x": -0.1505659853,
				"y": 1.5019702537,
				"z": 2.3243578128,
				"element": "C" 
			},
			{
				"x": -0.3494613478,
				"y": 2.8941055833,
				"z": 2.9307938647,
				"element": "C" 
			},
			{
				"x": 0.6632083577,
				"y": 3.2108719827,
				"z": 3.8616852653,
				"element": "O" 
			},
			{
				"x": 1.0354813494,
				"y": 1.431632222,
				"z": 1.3617152334,
				"element": "C" 
			},
			{
				"x": 2.2312319357,
				"y": 1.7362227677,
				"z": 2.0691877173,
				"element": "O" 
			},
			{
				"x": 1.1490229321,
				"y": 0.0564580723,
				"z": 0.6971986952,
				"element": "C" 
			},
			{
				"x": 2.2601475292,
				"y": 0.1668156775,
				"z": -0.1751467253,
				"element": "O" 
			},
			{
				"x": 0.9894237005,
				"y": -2.0067107665,
				"z": -4.1504338654,
				"element": "H" 
			},
			{
				"x": 2.5175256164,
				"y": -1.1899957419,
				"z": -3.6846679821,
				"element": "H" 
			},
			{
				"x": 2.223689557,
				"y": -2.9039580626,
				"z": -3.2365762,
				"element": "H" 
			},
			{
				"x": -1.1253323369,
				"y": -2.1709261501,
				"z": -0.1890063151,
				"element": "H" 
			},
			{
				"x": -0.3763403231,
				"y": 0.4037618059,
				"z": -0.7970429282,
				"element": "H" 
			},
			{
				"x": -1.1533671206,
				"y": -0.8671219133,
				"z": 1.8885627159,
				"element": "H" 
			},
			{
				"x": -2.8002609963,
				"y": 0.2410341333,
				"z": -0.0910114452,
				"element": "H" 
			},
			{
				"x": -0.0030071353,
				"y": 0.7840318027,
				"z": 3.1463892154,
				"element": "H" 
			},
			{
				"x": -0.4169662435,
				"y": 3.6319961528,
				"z": 2.1130417036,
				"element": "H" 
			},
			{
				"x": -1.3048643909,
				"y": 2.9088324143,
				"z": 3.4644995445,
				"element": "H" 
			},
			{
				"x": 1.5117066717,
				"y": 3.0238094497,
				"z": 3.4296864277,
				"element": "H" 
			},
			{
				"x": 0.8649806779,
				"y": 2.1714524393,
				"z": 0.5622268558,
				"element": "H" 
			},
			{
				"x": 2.9608646428,
				"y": 1.5660565906,
				"z": 1.4547815143,
				"element": "H" 
			},
			{
				"x": 1.3477297095,
				"y": -0.6978003836,
				"z": 1.4775095953,
				"element": "H" 
			},
			{
				"x": 2.1705155702,
				"y": -0.4929151454,
				"z": -0.8810308625,
				"element": "H" 
			}
		],
		 "valence_orbital": [ 
			{
				"type": "occ",
				"energy": -0.29563,
				"method": "rhf"
			},
			{
				"type": "occ",
				"energy": -0.28546,
				"method": "rhf"
			},
			{
				"type": "occ",
				"energy": -0.27116,
				"method": "rhf"
			},
			{
				"type": "occ",
				"energy": -0.26641,
				"method": "rhf"
			},
			{
				"type": "occ",
				"energy": -0.2577,
				"method": "rhf"
			},
			{
				"type": "unocc",
				"energy": 0.02901,
				"method": "rhf"
			},
			{
				"type": "unocc",
				"energy": 0.05442,
				"method": "rhf"
			},
			{
				"type": "unocc",
				"energy": 0.06012,
				"method": "rhf"
			},
			{
				"type": "unocc",
				"energy": 0.07923,
				"method": "rhf"
			},
			{
				"type": "unocc",
				"energy": 0.0935,
				"method": "rhf"
			}
		],
		"cosmo_sigma_profile": { 
			"-0.025": 0.0,
			"-0.024": 0.0,
			"-0.023": 0.0,
			"-0.022": 0.0,
			"-0.021": 0.0,
			"-0.02": 0.0,
			"-0.019": 0.0,
			"-0.018": 0.00330766379126,
			"-0.017": 0.533844799269,
			"-0.016": 1.06865444026,
			"-0.015": 1.09863874631,
			"-0.014": 0.780584426427,
			"-0.013": 1.66045202168,
			"-0.012": 2.05404549869,
			"-0.011": 2.66244067975,
			"-0.01": 1.45206133313,
			"-0.009": 2.56053109798,
			"-0.008": 4.02566941073,
			"-0.007": 9.68381319748,
			"-0.006": 16.4557561226,
			"-0.005": 19.7936231375,
			"-0.004": 25.1248209593,
			"-0.003": 24.4248303081,
			"-0.002": 14.8933630119,
			"-0.001": 14.1364280724,
			"0.0": 10.2639194942,
			"0.001": 9.7276027455,
			"0.002": 9.39534388087,
			"0.003": 11.1899561066,
			"0.004": 8.59960711039,
			"0.005": 6.59247710934,
			"0.006": 6.95747010927,
			"0.007": 5.94705679716,
			"0.008": 5.53196947762,
			"0.009": 7.91091179808,
			"0.01": 6.80411341359,
			"0.011": 6.41974981243,
			"0.012": 7.32241706225,
			"0.013": 5.85319210206,
			"0.014": 2.38328187887,
			"0.015": 0.920275109441,
			"0.016": 0.0,
			"0.017": 0.0,
			"0.018": 0.0,
			"0.019": 0.0,
			"0.02": 0.0,
			"0.021": 0.0,
			"0.022": 0.0,
			"0.023": 0.0,
			"0.024": 0.0,
			"0.025": 0.0
		}
	}
}
