{
	 "smiles": "CC1=CC=C(O1)C1=CSC(N)=N1", 
	 "Tm": 376.15, 
	 "num_atms": 20, 
	 "gaussian": { 
		 "optdone": 1, 
		 "sigma_profile": "yes", 
		 "theory": "DFT", 
		 "functional": "B3LYP", 
		 "basiset": "6-31G**", 
		 "properties": { 
			 "R2extent": 4808.5937, 
			 "electric_dipole_moment_norm": 1.21115986146, 
			 "electric_quadrupole_moment_norm": 20.1545208651, 
			 "total_energy": -892.566205877, 
			 "HOMO_LUMO_gap": 0.16478, 
			 "cosmo_polarized_energy": -13.18, 
			 "cosmo_cavitation_energy": 26.5, 
			 "cosmo_dispersion_energy": -20.24, 
			 "cosmo_repulsion_energy": 1.59, 
			 "cosmo_total_nonelectrostatic_energy": 7.85, 
			 "SMD_solvation_energy": 3.57 
		},
		"coords": [
			{
				"x": 0.8520907959,
				"y": 2.1781988676,
				"z": -1.1838768091,
				"element": "C" 
			},
			{
				"x": 0.3390928202,
				"y": 0.9518780913,
				"z": -0.5150964791,
				"element": "C" 
			},
			{
				"x": 0.9103014929,
				"y": -0.2366591358,
				"z": -0.1557611013,
				"element": "C" 
			},
			{
				"x": -0.1157888188,
				"y": -1.0130950117,
				"z": 0.4640973282,
				"element": "C" 
			},
			{
				"x": -1.2526258898,
				"y": -0.2471154329,
				"z": 0.4407719725,
				"element": "C" 
			},
			{
				"x": -0.9783683541,
				"y": 0.9550986522,
				"z": -0.1564876775,
				"element": "O" 
			},
			{
				"x": -2.6129433047,
				"y": -0.4699649375,
				"z": 0.9034137701,
				"element": "C" 
			},
			{
				"x": -3.0898317398,
				"y": -1.6588349144,
				"z": 1.3911557433,
				"element": "C" 
			},
			{
				"x": -4.7622276969,
				"y": -1.4914222437,
				"z": 1.8569715543,
				"element": "S" 
			},
			{
				"x": -4.6837572403,
				"y": 0.1936280195,
				"z": 1.3160224899,
				"element": "C" 
			},
			{
				"x": -5.7651428626,
				"y": 1.0349959621,
				"z": 1.4624243503,
				"element": "N" 
			},
			{
				"x": -3.5287971174,
				"y": 0.5712300036,
				"z": 0.8583236368,
				"element": "N" 
			},
			{
				"x": 0.313250357,
				"y": 2.3819851506,
				"z": -2.1165815819,
				"element": "H" 
			},
			{
				"x": 1.911890837,
				"y": 2.0570697685,
				"z": -1.4198857783,
				"element": "H" 
			},
			{
				"x": 0.7410039941,
				"y": 3.0604923329,
				"z": -0.5428442474,
				"element": "H" 
			},
			{
				"x": 1.9415139771,
				"y": -0.5208310374,
				"z": -0.3109057465,
				"element": "H" 
			},
			{
				"x": -0.0202301094,
				"y": -2.0054859094,
				"z": 0.8810376544,
				"element": "H" 
			},
			{
				"x": -2.5807935107,
				"y": -2.6057291116,
				"z": 1.4894495991,
				"element": "H" 
			},
			{
				"x": -6.6799843342,
				"y": 0.6214938665,
				"z": 1.3500653846,
				"element": "H" 
			},
			{
				"x": -5.6476532955,
				"y": 1.9055670196,
				"z": 0.9598059376,
				"element": "H" 
			}
		],
		 "valence_orbital": [ 
			{
				"type": "occ",
				"energy": -0.27915,
				"method": "rhf"
			},
			{
				"type": "occ",
				"energy": -0.26994,
				"method": "rhf"
			},
			{
				"type": "occ",
				"energy": -0.26777,
				"method": "rhf"
			},
			{
				"type": "occ",
				"energy": -0.23162,
				"method": "rhf"
			},
			{
				"type": "occ",
				"energy": -0.18455,
				"method": "rhf"
			},
			{
				"type": "unocc",
				"energy": -0.01977,
				"method": "rhf"
			},
			{
				"type": "unocc",
				"energy": 0.01181,
				"method": "rhf"
			},
			{
				"type": "unocc",
				"energy": 0.02442,
				"method": "rhf"
			},
			{
				"type": "unocc",
				"energy": 0.06743,
				"method": "rhf"
			},
			{
				"type": "unocc",
				"energy": 0.07303,
				"method": "rhf"
			}
		],
		"cosmo_sigma_profile": { 
			"-0.025": 0.0,
			"-0.024": 0.0,
			"-0.023": 0.0,
			"-0.022": 0.0,
			"-0.021": 0.0,
			"-0.02": 0.0,
			"-0.019": 0.0,
			"-0.018": 0.0,
			"-0.017": 0.0,
			"-0.016": 0.0,
			"-0.015": 0.262068870942,
			"-0.014": 1.84051398837,
			"-0.013": 2.73066733827,
			"-0.012": 2.73152188013,
			"-0.011": 2.94887245949,
			"-0.01": 2.28942821795,
			"-0.009": 2.20261708353,
			"-0.008": 3.57739731173,
			"-0.007": 6.62658741547,
			"-0.006": 7.91440360457,
			"-0.005": 11.159783995,
			"-0.004": 11.8916987797,
			"-0.003": 13.1762768525,
			"-0.002": 13.3329076687,
			"-0.001": 15.8995985862,
			"0.0": 11.7740594422,
			"0.001": 11.562389718,
			"0.002": 14.977945469,
			"0.003": 20.1681934992,
			"0.004": 19.1102431626,
			"0.005": 12.1251505655,
			"0.006": 7.21850317656,
			"0.007": 2.71342880458,
			"0.008": 2.93282101636,
			"0.009": 2.31731468649,
			"0.01": 2.02474316592,
			"0.011": 2.49290169851,
			"0.012": 1.65198875055,
			"0.013": 1.27912347136,
			"0.014": 1.22748731427,
			"0.015": 1.15290675469,
			"0.016": 0.78477911765,
			"0.017": 0.0,
			"0.018": 0.0,
			"0.019": 0.0,
			"0.02": 0.0,
			"0.021": 0.0,
			"0.022": 0.0,
			"0.023": 0.0,
			"0.024": 0.0,
			"0.025": 0.0
		}
	}
}
