{
	 "smiles": "BrC1=CC=C(O1)C=C1C(=O)NC(=S)NC1=O", 
	 "Tm": 488.15, 
	 "num_atms": 21, 
	 "gaussian": { 
		 "optdone": 1, 
		 "sigma_profile": "yes", 
		 "theory": "DFT", 
		 "functional": "B3LYP", 
		 "basiset": "6-31G**", 
		 "properties": { 
			 "R2extent": 7951.1873, 
			 "electric_dipole_moment_norm": 5.81304439515, 
			 "electric_quadrupole_moment_norm": 2.41510441596, 
			 "total_energy": -3650.73574878, 
			 "HOMO_LUMO_gap": 0.11736, 
			 "cosmo_polarized_energy": -18.66, 
			 "cosmo_cavitation_energy": 31.79, 
			 "cosmo_dispersion_energy": -24.1, 
			 "cosmo_repulsion_energy": 1.83, 
			 "cosmo_total_nonelectrostatic_energy": 9.51, 
			 "SMD_solvation_energy": 5.16 
		},
		"coords": [
			{
				"x": -0.0976830328,
				"y": 3.6233286575,
				"z": -3.786856768,
				"element": "Br" 
			},
			{
				"x": 0.5359354976,
				"y": 3.0700861393,
				"z": -2.1286908558,
				"element": "C" 
			},
			{
				"x": 1.3413047911,
				"y": 3.7105999408,
				"z": -1.2167354675,
				"element": "C" 
			},
			{
				"x": 1.4787068066,
				"y": 2.7968907241,
				"z": -0.1504338888,
				"element": "C" 
			},
			{
				"x": 0.7512194013,
				"y": 1.6591918586,
				"z": -0.476460884,
				"element": "C" 
			},
			{
				"x": 0.1714847586,
				"y": 1.8493640447,
				"z": -1.7126348738,
				"element": "O" 
			},
			{
				"x": 0.6107974114,
				"y": 0.4884031663,
				"z": 0.3078411864,
				"element": "C" 
			},
			{
				"x": -0.036774911,
				"y": -0.7133546339,
				"z": 0.1863972435,
				"element": "C" 
			},
			{
				"x": -0.8646621944,
				"y": -1.1445994716,
				"z": -0.9545780457,
				"element": "C" 
			},
			{
				"x": -1.1013236448,
				"y": -0.5032037526,
				"z": -1.9629679373,
				"element": "O" 
			},
			{
				"x": -1.4179577643,
				"y": -2.4332032714,
				"z": -0.8251087783,
				"element": "N" 
			},
			{
				"x": -1.2851162908,
				"y": -3.3183552886,
				"z": 0.2110307057,
				"element": "C" 
			},
			{
				"x": -2.0053987883,
				"y": -4.816718716,
				"z": 0.2226085006,
				"element": "S" 
			},
			{
				"x": -0.5039020363,
				"y": -2.8629026357,
				"z": 1.2436305175,
				"element": "N" 
			},
			{
				"x": 0.1463810963,
				"y": -1.6302520535,
				"z": 1.3412830021,
				"element": "C" 
			},
			{
				"x": 0.8095434961,
				"y": -1.3769335746,
				"z": 2.3365620503,
				"element": "O" 
			},
			{
				"x": 1.7642087565,
				"y": 4.6979528702,
				"z": -1.3172672501,
				"element": "H" 
			},
			{
				"x": 2.0420764647,
				"y": 2.9365912299,
				"z": 0.7617756902,
				"element": "H" 
			},
			{
				"x": 1.1596279926,
				"y": 0.5699877036,
				"z": 1.2455531663,
				"element": "H" 
			},
			{
				"x": -1.988418803,
				"y": -2.7360008364,
				"z": -1.605442863,
				"element": "H" 
			},
			{
				"x": -0.381649007,
				"y": -3.4902721005,
				"z": 2.0291955496,
				"element": "H" 
			}
		],
		 "valence_orbital": [ 
			{
				"type": "occ",
				"energy": -0.29703,
				"method": "rhf"
			},
			{
				"type": "occ",
				"energy": -0.28057,
				"method": "rhf"
			},
			{
				"type": "occ",
				"energy": -0.25135,
				"method": "rhf"
			},
			{
				"type": "occ",
				"energy": -0.23934,
				"method": "rhf"
			},
			{
				"type": "occ",
				"energy": -0.23049,
				"method": "rhf"
			},
			{
				"type": "unocc",
				"energy": -0.11313,
				"method": "rhf"
			},
			{
				"type": "unocc",
				"energy": -0.0402,
				"method": "rhf"
			},
			{
				"type": "unocc",
				"energy": -0.01321,
				"method": "rhf"
			},
			{
				"type": "unocc",
				"energy": -0.00629,
				"method": "rhf"
			},
			{
				"type": "unocc",
				"energy": 0.00393,
				"method": "rhf"
			}
		],
		"cosmo_sigma_profile": { 
			"-0.025": 0.0,
			"-0.024": 0.0,
			"-0.023": 0.0,
			"-0.022": 0.0,
			"-0.021": 0.0,
			"-0.02": 0.0,
			"-0.019": 0.0,
			"-0.018": 0.0,
			"-0.017": 0.00644219260876,
			"-0.016": 1.0104123518,
			"-0.015": 1.54196459721,
			"-0.014": 1.71557391052,
			"-0.013": 1.21182655784,
			"-0.012": 1.23263832727,
			"-0.011": 1.94981665817,
			"-0.01": 5.14127076282,
			"-0.009": 6.86221760598,
			"-0.008": 7.30777458559,
			"-0.007": 8.93937314083,
			"-0.006": 9.3430140422,
			"-0.005": 10.4312014662,
			"-0.004": 12.1425707866,
			"-0.003": 18.285119005,
			"-0.002": 22.1966082568,
			"-0.001": 26.1810504506,
			"0.0": 16.6126586241,
			"0.001": 16.7334600643,
			"0.002": 18.6442725154,
			"0.003": 7.30014974674,
			"0.004": 6.52580817991,
			"0.005": 6.37030703759,
			"0.006": 7.14807471458,
			"0.007": 9.8833008558,
			"0.008": 9.12645980675,
			"0.009": 7.12072161954,
			"0.01": 7.02371547244,
			"0.011": 7.87774508354,
			"0.012": 7.28305627108,
			"0.013": 0.185616610208,
			"0.014": 0.0,
			"0.015": 0.0,
			"0.016": 0.0,
			"0.017": 0.0,
			"0.018": 0.0,
			"0.019": 0.0,
			"0.02": 0.0,
			"0.021": 0.0,
			"0.022": 0.0,
			"0.023": 0.0,
			"0.024": 0.0,
			"0.025": 0.0
		}
	}
}
