{
	 "smiles": "CC1(O)CSC(C)(O)CS1", 
	 "Tm": 337.65, 
	 "num_atms": 22, 
	 "gaussian": { 
		 "optdone": 1, 
		 "sigma_profile": "yes", 
		 "theory": "DFT", 
		 "functional": "B3LYP", 
		 "basiset": "6-31G**", 
		 "properties": { 
			 "R2extent": 2638.1238, 
			 "electric_dipole_moment_norm": 0.0, 
			 "electric_quadrupole_moment_norm": 14.0186180399, 
			 "total_energy": -1182.68965139, 
			 "HOMO_LUMO_gap": 0.25326, 
			 "cosmo_polarized_energy": -13.67, 
			 "cosmo_cavitation_energy": 25.94, 
			 "cosmo_dispersion_energy": -19.75, 
			 "cosmo_repulsion_energy": 1.48, 
			 "cosmo_total_nonelectrostatic_energy": 7.68, 
			 "SMD_solvation_energy": 3.4 
		},
		"coords": [
			{
				"x": -1.4826060027,
				"y": -0.8301180311,
				"z": -2.8904873958,
				"element": "C" 
			},
			{
				"x": -0.8084152677,
				"y": -1.272283395,
				"z": -1.5841288706,
				"element": "C" 
			},
			{
				"x": -1.6937621378,
				"y": -2.0323696585,
				"z": -0.7905712126,
				"element": "O" 
			},
			{
				"x": 0.4050860584,
				"y": -2.1592685928,
				"z": -1.8942519572,
				"element": "C" 
			},
			{
				"x": 1.2928062605,
				"y": -2.8453330907,
				"z": -0.4463706002,
				"element": "S" 
			},
			{
				"x": 1.8210447623,
				"y": -1.2762144857,
				"z": 0.4118181053,
				"element": "C" 
			},
			{
				"x": 2.4952237564,
				"y": -1.7183870717,
				"z": 1.7181795851,
				"element": "C" 
			},
			{
				"x": 2.7064051586,
				"y": -0.5161353135,
				"z": -0.3817310618,
				"element": "O" 
			},
			{
				"x": 0.6075449027,
				"y": -0.3892229555,
				"z": 0.7219365398,
				"element": "C" 
			},
			{
				"x": -0.280177477,
				"y": 0.2968362169,
				"z": -0.7259460257,
				"element": "S" 
			},
			{
				"x": -2.3305514534,
				"y": -0.1691047474,
				"z": -2.6813128447,
				"element": "H" 
			},
			{
				"x": -1.8588954391,
				"y": -1.7151619169,
				"z": -3.4130017328,
				"element": "H" 
			},
			{
				"x": -0.7891159367,
				"y": -0.2968759566,
				"z": -3.5461074557,
				"element": "H" 
			},
			{
				"x": -2.4244890179,
				"y": -1.4515995964,
				"z": -0.5366221803,
				"element": "H" 
			},
			{
				"x": 0.0629867271,
				"y": -3.0408288928,
				"z": -2.4466397947,
				"element": "H" 
			},
			{
				"x": 1.1071777523,
				"y": -1.6026760742,
				"z": -2.5178607162,
				"element": "H" 
			},
			{
				"x": 2.8715107829,
				"y": -0.8333472415,
				"z": 2.2407024092,
				"element": "H" 
			},
			{
				"x": 1.8017264824,
				"y": -2.2516307272,
				"z": 2.3737910153,
				"element": "H" 
			},
			{
				"x": 3.3431691234,
				"y": -2.3794014422,
				"z": 1.5090081392,
				"element": "H" 
			},
			{
				"x": 3.4371316427,
				"y": -1.096909171,
				"z": -0.6356728122,
				"element": "H" 
			},
			{
				"x": 0.9496469708,
				"y": 0.4923404119,
				"z": 1.2743178944,
				"element": "H" 
			},
			{
				"x": -0.0945476487,
				"y": -0.9458082681,
				"z": 1.3455509723,
				"element": "H" 
			}
		],
		 "valence_orbital": [ 
			{
				"type": "occ",
				"energy": -0.29865,
				"method": "rhf"
			},
			{
				"type": "occ",
				"energy": -0.27924,
				"method": "rhf"
			},
			{
				"type": "occ",
				"energy": -0.26996,
				"method": "rhf"
			},
			{
				"type": "occ",
				"energy": -0.22697,
				"method": "rhf"
			},
			{
				"type": "occ",
				"energy": -0.22172,
				"method": "rhf"
			},
			{
				"type": "unocc",
				"energy": 0.03154,
				"method": "rhf"
			},
			{
				"type": "unocc",
				"energy": 0.03364,
				"method": "rhf"
			},
			{
				"type": "unocc",
				"energy": 0.05985,
				"method": "rhf"
			},
			{
				"type": "unocc",
				"energy": 0.0738,
				"method": "rhf"
			},
			{
				"type": "unocc",
				"energy": 0.0814,
				"method": "rhf"
			}
		],
		"cosmo_sigma_profile": { 
			"-0.025": 0.0,
			"-0.024": 0.0,
			"-0.023": 0.0,
			"-0.022": 0.0,
			"-0.021": 0.0,
			"-0.02": 0.0,
			"-0.019": 0.0,
			"-0.018": 0.0,
			"-0.017": 0.0,
			"-0.016": 0.370147262648,
			"-0.015": 1.7898333565,
			"-0.014": 1.69445640997,
			"-0.013": 0.751966975093,
			"-0.012": 1.53336799589,
			"-0.011": 1.97524213762,
			"-0.01": 1.66460884956,
			"-0.009": 1.8909830012,
			"-0.008": 2.21802401542,
			"-0.007": 2.49233410195,
			"-0.006": 6.85248945302,
			"-0.005": 16.8645436103,
			"-0.004": 19.0172719383,
			"-0.003": 17.9523288359,
			"-0.002": 18.4847839883,
			"-0.001": 19.9503318373,
			"0.0": 14.5567478332,
			"0.001": 6.28332953608,
			"0.002": 7.16912661345,
			"0.003": 6.15666970812,
			"0.004": 5.63329860812,
			"0.005": 7.42296406459,
			"0.006": 7.5199107038,
			"0.007": 6.73036182716,
			"0.008": 4.348479677,
			"0.009": 6.52206625712,
			"0.01": 3.71268162929,
			"0.011": 2.89660014393,
			"0.012": 3.46634968227,
			"0.013": 3.20337520392,
			"0.014": 2.23294312703,
			"0.015": 1.09115702643,
			"0.016": 0.0231059314353,
			"0.017": 0.0,
			"0.018": 0.0,
			"0.019": 0.0,
			"0.02": 0.0,
			"0.021": 0.0,
			"0.022": 0.0,
			"0.023": 0.0,
			"0.024": 0.0,
			"0.025": 0.0
		}
	}
}
