{
	 "smiles": "OC(=O)CSC1=C(C=C(Cl)C=C1)[N+]([O-])=O", 
	 "Tm": 433.15, 
	 "num_atms": 21, 
	 "gaussian": { 
		 "optdone": 1, 
		 "sigma_profile": "yes", 
		 "theory": "DFT", 
		 "functional": "B3LYP", 
		 "basiset": "6-31G**", 
		 "properties": { 
			 "R2extent": 4849.3251, 
			 "electric_dipole_moment_norm": 4.59416229687, 
			 "electric_quadrupole_moment_norm": 17.7083731977, 
			 "total_energy": -1522.38597628, 
			 "HOMO_LUMO_gap": 0.14098, 
			 "cosmo_polarized_energy": -16.3, 
			 "cosmo_cavitation_energy": 29.8, 
			 "cosmo_dispersion_energy": -21.76, 
			 "cosmo_repulsion_energy": 1.67, 
			 "cosmo_total_nonelectrostatic_energy": 9.7, 
			 "SMD_solvation_energy": 7.58 
		},
		"coords": [
			{
				"x": 2.2760022652,
				"y": -0.9675127028,
				"z": 0.2745994334,
				"element": "O" 
			},
			{
				"x": 1.9832030846,
				"y": -0.9238910678,
				"z": -1.027310052,
				"element": "C" 
			},
			{
				"x": 2.8365256683,
				"y": -0.8002990627,
				"z": -1.8730867052,
				"element": "O" 
			},
			{
				"x": 0.5184037561,
				"y": -1.0750852394,
				"z": -1.4704645244,
				"element": "C" 
			},
			{
				"x": -0.8148397646,
				"y": -0.8598417641,
				"z": -0.227934149,
				"element": "S" 
			},
			{
				"x": -0.5962033158,
				"y": 0.8607517748,
				"z": 0.229639206,
				"element": "C" 
			},
			{
				"x": -0.3784949858,
				"y": 1.2885674046,
				"z": 1.5504922627,
				"element": "C" 
			},
			{
				"x": -0.3421661494,
				"y": 2.6383723157,
				"z": 1.9027720842,
				"element": "C" 
			},
			{
				"x": -0.4725582879,
				"y": 3.5967373912,
				"z": 0.9046615655,
				"element": "C" 
			},
			{
				"x": -0.3937195969,
				"y": 5.2903184195,
				"z": 1.3219405377,
				"element": "Cl" 
			},
			{
				"x": -0.6774590451,
				"y": 3.2151737728,
				"z": -0.4230130554,
				"element": "C" 
			},
			{
				"x": -0.7611319602,
				"y": 1.862769893,
				"z": -0.738885005,
				"element": "C" 
			},
			{
				"x": -0.1697749753,
				"y": 0.3500767291,
				"z": 2.6735745433,
				"element": "N" 
			},
			{
				"x": 0.5351828806,
				"y": -0.6453269593,
				"z": 2.492012281,
				"element": "O" 
			},
			{
				"x": -0.688198721,
				"y": 0.6437880496,
				"z": 3.7436325018,
				"element": "O" 
			},
			{
				"x": 1.488932063,
				"y": -1.0223919244,
				"z": 0.8523236069,
				"element": "H" 
			},
			{
				"x": 0.3695495959,
				"y": -0.4194293441,
				"z": -2.3297961699,
				"element": "H" 
			},
			{
				"x": 0.3830688252,
				"y": -2.1023956456,
				"z": -1.8259980586,
				"element": "H" 
			},
			{
				"x": -0.200675618,
				"y": 2.9181588309,
				"z": 2.9388164453,
				"element": "H" 
			},
			{
				"x": -0.7932604365,
				"y": 3.9686486208,
				"z": -1.1938834399,
				"element": "H" 
			},
			{
				"x": -0.9729852824,
				"y": 1.5718105081,
				"z": -1.7622933082,
				"element": "H" 
			}
		],
		 "valence_orbital": [ 
			{
				"type": "occ",
				"energy": -0.314,
				"method": "rhf"
			},
			{
				"type": "occ",
				"energy": -0.30546,
				"method": "rhf"
			},
			{
				"type": "occ",
				"energy": -0.29397,
				"method": "rhf"
			},
			{
				"type": "occ",
				"energy": -0.28222,
				"method": "rhf"
			},
			{
				"type": "occ",
				"energy": -0.25571,
				"method": "rhf"
			},
			{
				"type": "unocc",
				"energy": -0.11473,
				"method": "rhf"
			},
			{
				"type": "unocc",
				"energy": -0.066,
				"method": "rhf"
			},
			{
				"type": "unocc",
				"energy": -0.04534,
				"method": "rhf"
			},
			{
				"type": "unocc",
				"energy": -0.00547,
				"method": "rhf"
			},
			{
				"type": "unocc",
				"energy": 0.00016,
				"method": "rhf"
			}
		],
		"cosmo_sigma_profile": { 
			"-0.025": 0.0,
			"-0.024": 0.0,
			"-0.023": 0.0,
			"-0.022": 0.0,
			"-0.021": 0.0,
			"-0.02": 0.0,
			"-0.019": 0.0,
			"-0.018": 0.0,
			"-0.017": 0.0,
			"-0.016": 0.0,
			"-0.015": 0.0,
			"-0.014": 0.0,
			"-0.013": 0.0,
			"-0.012": 0.0,
			"-0.011": 0.107964285962,
			"-0.01": 4.02760688122,
			"-0.009": 11.5084960579,
			"-0.008": 12.1793177373,
			"-0.007": 9.75920603881,
			"-0.006": 10.1962550473,
			"-0.005": 10.746309102,
			"-0.004": 11.4629246581,
			"-0.003": 13.1841216534,
			"-0.002": 16.6369224631,
			"-0.001": 21.8657454793,
			"0.0": 16.3647579235,
			"0.001": 12.7378789324,
			"0.002": 12.2368845151,
			"0.003": 16.9270415547,
			"0.004": 11.044955762,
			"0.005": 8.14592841229,
			"0.006": 9.41341349379,
			"0.007": 8.22167667693,
			"0.008": 6.16547736233,
			"0.009": 4.35177306079,
			"0.01": 4.30597380258,
			"0.011": 5.09562933493,
			"0.012": 5.51227618772,
			"0.013": 1.53743774559,
			"0.014": 0.0,
			"0.015": 0.0,
			"0.016": 0.0,
			"0.017": 0.0,
			"0.018": 0.0,
			"0.019": 0.0,
			"0.02": 0.0,
			"0.021": 0.0,
			"0.022": 0.0,
			"0.023": 0.0,
			"0.024": 0.0,
			"0.025": 0.0
		}
	}
}
