{
	 "smiles": "CCCCCCCCOC1=CC=C(C(=O)C2=CC=CC=C2)C(O)=C1", 
	 "Tm": 321.35, 
	 "num_atms": 50, 
	 "gaussian": { 
		 "optdone": 1, 
		 "sigma_profile": "yes", 
		 "theory": "DFT", 
		 "functional": "B3LYP", 
		 "basiset": "6-31G**", 
		 "properties": { 
			 "R2extent": 15832.8564, 
			 "electric_dipole_moment_norm": 4.27843905882, 
			 "electric_quadrupole_moment_norm": 22.1217647266, 
			 "total_energy": -1041.5909332, 
			 "HOMO_LUMO_gap": 0.1703, 
			 "cosmo_polarized_energy": -15.82, 
			 "cosmo_cavitation_energy": 52.67, 
			 "cosmo_dispersion_energy": -36.51, 
			 "cosmo_repulsion_energy": 2.86, 
			 "cosmo_total_nonelectrostatic_energy": 19.02, 
			 "SMD_solvation_energy": 8.96 
		},
		"coords": [
			{
				"x": 4.6013600202,
				"y": 1.8606657456,
				"z": 5.0399315449,
				"element": "C" 
			},
			{
				"x": 3.6952542658,
				"y": 2.820812675,
				"z": 4.2625867301,
				"element": "C" 
			},
			{
				"x": 3.2618509106,
				"y": 2.2733505135,
				"z": 2.8967031028,
				"element": "C" 
			},
			{
				"x": 2.3541062129,
				"y": 3.2280567578,
				"z": 2.1110645878,
				"element": "C" 
			},
			{
				"x": 1.9217622825,
				"y": 2.6766715242,
				"z": 0.7463653266,
				"element": "C" 
			},
			{
				"x": 1.0171000731,
				"y": 3.6458904733,
				"z": -0.0283173657,
				"element": "C" 
			},
			{
				"x": 0.6123811537,
				"y": 3.1988683791,
				"z": -1.4438055717,
				"element": "C" 
			},
			{
				"x": -0.3927755384,
				"y": 2.0553677302,
				"z": -1.5265619567,
				"element": "C" 
			},
			{
				"x": 0.2520443349,
				"y": 0.8324751528,
				"z": -1.1541676162,
				"element": "O" 
			},
			{
				"x": -0.4648984443,
				"y": -0.3222553718,
				"z": -1.1814525034,
				"element": "C" 
			},
			{
				"x": -1.8217561156,
				"y": -0.4142973277,
				"z": -1.5248381891,
				"element": "C" 
			},
			{
				"x": -2.4295997165,
				"y": -1.6656266702,
				"z": -1.5137618002,
				"element": "C" 
			},
			{
				"x": -1.7553515972,
				"y": -2.8360320915,
				"z": -1.1409285164,
				"element": "C" 
			},
			{
				"x": -2.5285840113,
				"y": -4.1192122783,
				"z": -1.2042318721,
				"element": "C" 
			},
			{
				"x": -3.3616815466,
				"y": -4.2702659663,
				"z": -2.0934317706,
				"element": "O" 
			},
			{
				"x": -2.3638509948,
				"y": -5.1806681046,
				"z": -0.1587998148,
				"element": "C" 
			},
			{
				"x": -2.7892347717,
				"y": -6.4812788103,
				"z": -0.4691878024,
				"element": "C" 
			},
			{
				"x": -2.7228297974,
				"y": -7.4920522656,
				"z": 0.4857252215,
				"element": "C" 
			},
			{
				"x": -2.2551064499,
				"y": -7.2076650634,
				"z": 1.7721170334,
				"element": "C" 
			},
			{
				"x": -1.8511238748,
				"y": -5.9107150068,
				"z": 2.0963800747,
				"element": "C" 
			},
			{
				"x": -1.8977440515,
				"y": -4.903160852,
				"z": 1.133846617,
				"element": "C" 
			},
			{
				"x": -0.3816374247,
				"y": -2.7229459298,
				"z": -0.8281456261,
				"element": "C" 
			},
			{
				"x": 0.3181507728,
				"y": -3.8605983099,
				"z": -0.5537180965,
				"element": "O" 
			},
			{
				"x": 0.2482527159,
				"y": -1.4800432058,
				"z": -0.8446791791,
				"element": "C" 
			},
			{
				"x": 4.8929085109,
				"y": 2.2795829677,
				"z": 6.0086888586,
				"element": "H" 
			},
			{
				"x": 4.097374818,
				"y": 0.9058243021,
				"z": 5.2291084913,
				"element": "H" 
			},
			{
				"x": 5.5195651805,
				"y": 1.6431460743,
				"z": 4.4821874985,
				"element": "H" 
			},
			{
				"x": 2.8021888144,
				"y": 3.0468079284,
				"z": 4.8611670842,
				"element": "H" 
			},
			{
				"x": 4.2137662834,
				"y": 3.7788045613,
				"z": 4.119936968,
				"element": "H" 
			},
			{
				"x": 2.7430377898,
				"y": 1.3143919879,
				"z": 3.0392918185,
				"element": "H" 
			},
			{
				"x": 4.1557632681,
				"y": 2.0466470654,
				"z": 2.2977253684,
				"element": "H" 
			},
			{
				"x": 2.8727121257,
				"y": 4.1875639817,
				"z": 1.9701450727,
				"element": "H" 
			},
			{
				"x": 1.4610313751,
				"y": 3.4537746416,
				"z": 2.7117715155,
				"element": "H" 
			},
			{
				"x": 2.8141247738,
				"y": 2.4588314057,
				"z": 0.1422973276,
				"element": "H" 
			},
			{
				"x": 1.4091678934,
				"y": 1.718059242,
				"z": 0.8807803493,
				"element": "H" 
			},
			{
				"x": 1.5323533411,
				"y": 4.6122213061,
				"z": -0.1141525296,
				"element": "H" 
			},
			{
				"x": 0.1074151315,
				"y": 3.8443766092,
				"z": 0.5570516238,
				"element": "H" 
			},
			{
				"x": 0.1545262763,
				"y": 4.0505663546,
				"z": -1.9633176404,
				"element": "H" 
			},
			{
				"x": 1.5011198399,
				"y": 2.9235688245,
				"z": -2.0256516209,
				"element": "H" 
			},
			{
				"x": -1.247655546,
				"y": 2.2422956191,
				"z": -0.8607256472,
				"element": "H" 
			},
			{
				"x": -0.7765594336,
				"y": 1.9627000942,
				"z": -2.5516846663,
				"element": "H" 
			},
			{
				"x": -2.3954893028,
				"y": 0.4614659894,
				"z": -1.7991719407,
				"element": "H" 
			},
			{
				"x": -3.4724326384,
				"y": -1.7611376797,
				"z": -1.7980273068,
				"element": "H" 
			},
			{
				"x": -3.1714374782,
				"y": -6.6738500349,
				"z": -1.46608337,
				"element": "H" 
			},
			{
				"x": -3.0414341223,
				"y": -8.4993086714,
				"z": 0.2327938023,
				"element": "H" 
			},
			{
				"x": -2.2103359531,
				"y": -7.9938057011,
				"z": 2.5208360808,
				"element": "H" 
			},
			{
				"x": -1.5005940484,
				"y": -5.6845956279,
				"z": 3.0994292169,
				"element": "H" 
			},
			{
				"x": -1.5885870116,
				"y": -3.8954112441,
				"z": 1.3900551409,
				"element": "H" 
			},
			{
				"x": 1.2423314542,
				"y": -3.6318881635,
				"z": -0.389519865,
				"element": "H" 
			},
			{
				"x": 1.3068502506,
				"y": -1.3879735304,
				"z": -0.6166241883,
				"element": "H" 
			}
		],
		 "valence_orbital": [ 
			{
				"type": "occ",
				"energy": -0.24975,
				"method": "rhf"
			},
			{
				"type": "occ",
				"energy": -0.24729,
				"method": "rhf"
			},
			{
				"type": "occ",
				"energy": -0.24104,
				"method": "rhf"
			},
			{
				"type": "occ",
				"energy": -0.2345,
				"method": "rhf"
			},
			{
				"type": "occ",
				"energy": -0.22048,
				"method": "rhf"
			},
			{
				"type": "unocc",
				"energy": -0.05018,
				"method": "rhf"
			},
			{
				"type": "unocc",
				"energy": -0.00359,
				"method": "rhf"
			},
			{
				"type": "unocc",
				"energy": 0.00328,
				"method": "rhf"
			},
			{
				"type": "unocc",
				"energy": 0.00975,
				"method": "rhf"
			},
			{
				"type": "unocc",
				"energy": 0.06379,
				"method": "rhf"
			}
		],
		"cosmo_sigma_profile": { 
			"-0.025": 0.0,
			"-0.024": 0.0,
			"-0.023": 0.0,
			"-0.022": 0.0,
			"-0.021": 0.0,
			"-0.02": 0.0,
			"-0.019": 0.0340358849279,
			"-0.018": 0.665987852336,
			"-0.017": 1.08025467301,
			"-0.016": 1.28887007003,
			"-0.015": 0.77070696422,
			"-0.014": 1.26427652947,
			"-0.013": 0.777258709316,
			"-0.012": 0.585341907269,
			"-0.011": 1.18325541919,
			"-0.01": 1.89645830194,
			"-0.009": 0.690076497956,
			"-0.008": 0.930527309312,
			"-0.007": 1.76965447245,
			"-0.006": 11.3524157196,
			"-0.005": 20.0662126897,
			"-0.004": 25.1001110489,
			"-0.003": 24.6466210682,
			"-0.002": 38.9042325957,
			"-0.001": 53.6820638183,
			"0.0": 55.5208649802,
			"0.001": 44.3565946305,
			"0.002": 33.7677535463,
			"0.003": 23.359253413,
			"0.004": 22.4155130593,
			"0.005": 15.1811947916,
			"0.006": 5.9364441249,
			"0.007": 4.93821465692,
			"0.008": 4.5914392729,
			"0.009": 4.09601010784,
			"0.01": 3.05758165475,
			"0.011": 2.44069675078,
			"0.012": 3.91539262138,
			"0.013": 2.59354829309,
			"0.014": 0.152178482575,
			"0.015": 0.0,
			"0.016": 0.0,
			"0.017": 0.0,
			"0.018": 0.0,
			"0.019": 0.0,
			"0.02": 0.0,
			"0.021": 0.0,
			"0.022": 0.0,
			"0.023": 0.0,
			"0.024": 0.0,
			"0.025": 0.0
		}
	}
}
