{
	 "smiles": "CC(=O)NCC1=CC=C(S1)S(N)(=O)=O", 
	 "Tm": 395.15, 
	 "num_atms": 24, 
	 "gaussian": { 
		 "optdone": 1, 
		 "sigma_profile": "yes", 
		 "theory": "DFT", 
		 "functional": "B3LYP", 
		 "basiset": "6-31G**", 
		 "properties": { 
			 "R2extent": 4491.7447, 
			 "electric_dipole_moment_norm": 5.32501257651, 
			 "electric_quadrupole_moment_norm": 27.1564050228, 
			 "total_energy": -1404.24377408, 
			 "HOMO_LUMO_gap": 0.19537, 
			 "cosmo_polarized_energy": -27.86, 
			 "cosmo_cavitation_energy": 31.8, 
			 "cosmo_dispersion_energy": -23.12, 
			 "cosmo_repulsion_energy": 1.77, 
			 "cosmo_total_nonelectrostatic_energy": 10.45, 
			 "SMD_solvation_energy": 5.29 
		},
		"coords": [
			{
				"x": -0.5753027147,
				"y": -3.2142419198,
				"z": -2.1812938584,
				"element": "C" 
			},
			{
				"x": 0.668227867,
				"y": -2.5597819397,
				"z": -2.7597353043,
				"element": "C" 
			},
			{
				"x": 1.64968253,
				"y": -3.1973088203,
				"z": -3.1090050297,
				"element": "O" 
			},
			{
				"x": 0.6353585819,
				"y": -1.1875599777,
				"z": -2.9024659487,
				"element": "N" 
			},
			{
				"x": -0.416193284,
				"y": -0.2753274228,
				"z": -2.4857752378,
				"element": "C" 
			},
			{
				"x": -0.4494318987,
				"y": 0.0491488918,
				"z": -1.0085402709,
				"element": "C" 
			},
			{
				"x": -1.5558379743,
				"y": 0.1935642445,
				"z": -0.2082001965,
				"element": "C" 
			},
			{
				"x": -1.2417914663,
				"y": 0.5842204284,
				"z": 1.1250318211,
				"element": "C" 
			},
			{
				"x": 0.1075821618,
				"y": 0.7264198658,
				"z": 1.3159851562,
				"element": "C" 
			},
			{
				"x": 1.0183092098,
				"y": 0.3996637765,
				"z": -0.1334610233,
				"element": "S" 
			},
			{
				"x": 0.899025124,
				"y": 1.1512042337,
				"z": 2.8513941526,
				"element": "S" 
			},
			{
				"x": 1.4190672254,
				"y": -0.2773186177,
				"z": 3.5560629927,
				"element": "N" 
			},
			{
				"x": 2.1142946178,
				"y": 1.8894127746,
				"z": 2.5212527617,
				"element": "O" 
			},
			{
				"x": -0.1538337794,
				"y": 1.6680528471,
				"z": 3.7201328861,
				"element": "O" 
			},
			{
				"x": -0.3650575355,
				"y": -4.2751648468,
				"z": -2.0507206571,
				"element": "H" 
			},
			{
				"x": -0.8600392032,
				"y": -2.7735209634,
				"z": -1.2209639188,
				"element": "H" 
			},
			{
				"x": -1.4257803693,
				"y": -3.1040619878,
				"z": -2.8639798127,
				"element": "H" 
			},
			{
				"x": 1.4814389862,
				"y": -0.8023793997,
				"z": -3.3004221357,
				"element": "H" 
			},
			{
				"x": -0.286589165,
				"y": 0.6487813261,
				"z": -3.0605806677,
				"element": "H" 
			},
			{
				"x": -1.3988336106,
				"y": -0.6714320798,
				"z": -2.7644997798,
				"element": "H" 
			},
			{
				"x": -2.567454337,
				"y": 0.0353518696,
				"z": -0.5668306434,
				"element": "H" 
			},
			{
				"x": -1.9663247175,
				"y": 0.7590757044,
				"z": 1.9110965062,
				"element": "H" 
			},
			{
				"x": 0.6598810486,
				"y": -0.9054968696,
				"z": 3.7984630358,
				"element": "H" 
			},
			{
				"x": 2.170702703,
				"y": -0.7265011174,
				"z": 3.0428551724,
				"element": "H" 
			}
		],
		 "valence_orbital": [ 
			{
				"type": "occ",
				"energy": -0.31247,
				"method": "rhf"
			},
			{
				"type": "occ",
				"energy": -0.28248,
				"method": "rhf"
			},
			{
				"type": "occ",
				"energy": -0.26931,
				"method": "rhf"
			},
			{
				"type": "occ",
				"energy": -0.25969,
				"method": "rhf"
			},
			{
				"type": "occ",
				"energy": -0.25409,
				"method": "rhf"
			},
			{
				"type": "unocc",
				"energy": -0.05872,
				"method": "rhf"
			},
			{
				"type": "unocc",
				"energy": 0.00026,
				"method": "rhf"
			},
			{
				"type": "unocc",
				"energy": 0.01816,
				"method": "rhf"
			},
			{
				"type": "unocc",
				"energy": 0.02487,
				"method": "rhf"
			},
			{
				"type": "unocc",
				"energy": 0.04157,
				"method": "rhf"
			}
		],
		"cosmo_sigma_profile": { 
			"-0.025": 0.0,
			"-0.024": 0.0,
			"-0.023": 0.0,
			"-0.022": 0.0,
			"-0.021": 0.0,
			"-0.02": 0.0,
			"-0.019": 0.0,
			"-0.018": 0.0,
			"-0.017": 0.0,
			"-0.016": 0.381408000335,
			"-0.015": 2.65626282534,
			"-0.014": 3.34960764027,
			"-0.013": 3.99505852074,
			"-0.012": 3.9265392655,
			"-0.011": 3.48295986319,
			"-0.01": 3.31662105878,
			"-0.009": 4.18531723426,
			"-0.008": 8.52219913228,
			"-0.007": 13.7715872966,
			"-0.006": 11.2212990623,
			"-0.005": 12.6578784251,
			"-0.004": 12.5979366489,
			"-0.003": 14.6520657125,
			"-0.002": 14.6180471391,
			"-0.001": 14.2582100943,
			"0.0": 13.4960480642,
			"0.001": 16.3788255035,
			"0.002": 15.9851913993,
			"0.003": 10.7128202825,
			"0.004": 4.93624602512,
			"0.005": 5.61491153055,
			"0.006": 4.45092881872,
			"0.007": 4.71768077855,
			"0.008": 6.69124283291,
			"0.009": 5.90010606884,
			"0.01": 10.7767355709,
			"0.011": 11.7564647717,
			"0.012": 4.59995748022,
			"0.013": 3.93712793449,
			"0.014": 5.14936515779,
			"0.015": 1.42757996739,
			"0.016": 0.0,
			"0.017": 0.0,
			"0.018": 0.0,
			"0.019": 0.0,
			"0.02": 0.0,
			"0.021": 0.0,
			"0.022": 0.0,
			"0.023": 0.0,
			"0.024": 0.0,
			"0.025": 0.0
		}
	}
}
