{
	 "smiles": "CC1=NC2=C(N=NC3=C(Cl)C=C(Cl)C=C3Cl)C(N)=NN2C(=C1)C(F)(F)F", 
	 "Tm": 462.15, 
	 "num_atms": 34, 
	 "gaussian": { 
		 "optdone": 1, 
		 "sigma_profile": "yes", 
		 "theory": "DFT", 
		 "functional": "B3LYP", 
		 "basiset": "6-31G**", 
		 "properties": { 
			 "R2extent": 14426.8068, 
			 "electric_dipole_moment_norm": 3.33185145827, 
			 "electric_quadrupole_moment_norm": 27.3371352243, 
			 "total_energy": -2546.82717712, 
			 "HOMO_LUMO_gap": 0.13295, 
			 "cosmo_polarized_energy": -18.73, 
			 "cosmo_cavitation_energy": 46.23, 
			 "cosmo_dispersion_energy": -31.66, 
			 "cosmo_repulsion_energy": 2.36, 
			 "cosmo_total_nonelectrostatic_energy": 16.93, 
			 "SMD_solvation_energy": 4.23 
		},
		"coords": [
			{
				"x": 2.88510879,
				"y": 0.8934318625,
				"z": -3.857970648,
				"element": "C" 
			},
			{
				"x": 1.8148362926,
				"y": 0.8328204369,
				"z": -2.8027400816,
				"element": "C" 
			},
			{
				"x": 1.1301127218,
				"y": -0.2965949121,
				"z": -2.6807189217,
				"element": "N" 
			},
			{
				"x": 0.1646451099,
				"y": -0.3486439073,
				"z": -1.7549312424,
				"element": "C" 
			},
			{
				"x": -0.6996277914,
				"y": -1.3862979985,
				"z": -1.3444237539,
				"element": "C" 
			},
			{
				"x": -0.7229669978,
				"y": -2.589442932,
				"z": -2.0379510428,
				"element": "N" 
			},
			{
				"x": -1.0445638717,
				"y": -3.7045305382,
				"z": -1.5535191997,
				"element": "N" 
			},
			{
				"x": -1.2067387508,
				"y": -3.970925324,
				"z": -0.1631843133,
				"element": "C" 
			},
			{
				"x": -2.4084144718,
				"y": -4.5450101154,
				"z": 0.2909768526,
				"element": "C" 
			},
			{
				"x": -3.7861858478,
				"y": -4.5704222111,
				"z": -0.7993262832,
				"element": "Cl" 
			},
			{
				"x": -2.5707793347,
				"y": -5.0461339421,
				"z": 1.576781852,
				"element": "C" 
			},
			{
				"x": -1.4836151128,
				"y": -4.9959168661,
				"z": 2.4470065321,
				"element": "C" 
			},
			{
				"x": -1.6531578146,
				"y": -5.6286098418,
				"z": 4.0717158492,
				"element": "Cl" 
			},
			{
				"x": -0.26376473,
				"y": -4.4590451874,
				"z": 2.0453365238,
				"element": "C" 
			},
			{
				"x": -0.1351612513,
				"y": -3.955554785,
				"z": 0.7520140676,
				"element": "C" 
			},
			{
				"x": 1.4372727156,
				"y": -3.3578356747,
				"z": 0.2685165288,
				"element": "Cl" 
			},
			{
				"x": -1.5071342755,
				"y": -0.7868456389,
				"z": -0.3173576086,
				"element": "C" 
			},
			{
				"x": -2.567300461,
				"y": -1.3149237314,
				"z": 0.3654152568,
				"element": "N" 
			},
			{
				"x": -1.1626469951,
				"y": 0.487722311,
				"z": -0.0738866414,
				"element": "N" 
			},
			{
				"x": -0.1320302762,
				"y": 0.7332278129,
				"z": -0.921259229,
				"element": "N" 
			},
			{
				"x": 0.5731660339,
				"y": 1.8895695439,
				"z": -1.0199279152,
				"element": "C" 
			},
			{
				"x": 1.562641529,
				"y": 1.9604552079,
				"z": -1.969053959,
				"element": "C" 
			},
			{
				"x": 0.2267797429,
				"y": 3.0290490503,
				"z": -0.0859212159,
				"element": "C" 
			},
			{
				"x": -1.0382951382,
				"y": 3.4412619333,
				"z": -0.264774315,
				"element": "F" 
			},
			{
				"x": 1.0404458838,
				"y": 4.0782291444,
				"z": -0.3237978426,
				"element": "F" 
			},
			{
				"x": 0.3778626927,
				"y": 2.673086172,
				"z": 1.1988290116,
				"element": "F" 
			},
			{
				"x": 2.6694827525,
				"y": 1.6815414688,
				"z": -4.5886017965,
				"element": "H" 
			},
			{
				"x": 3.8606916944,
				"y": 1.1221759791,
				"z": -3.4140861151,
				"element": "H" 
			},
			{
				"x": 2.9446587353,
				"y": -0.0641217561,
				"z": -4.3760008937,
				"element": "H" 
			},
			{
				"x": -3.5197868842,
				"y": -5.4627710988,
				"z": 1.890102086,
				"element": "H" 
			},
			{
				"x": 0.581190081,
				"y": -4.4355817636,
				"z": 2.7220460973,
				"element": "H" 
			},
			{
				"x": -3.1417607321,
				"y": -0.621940752,
				"z": 0.826679539,
				"element": "H" 
			},
			{
				"x": -3.087693096,
				"y": -2.053777533,
				"z": -0.0837772386,
				"element": "H" 
			},
			{
				"x": 2.1386290577,
				"y": 2.8706555867,
				"z": -2.0681099393,
				"element": "H" 
			}
		],
		 "valence_orbital": [ 
			{
				"type": "occ",
				"energy": -0.26665,
				"method": "rhf"
			},
			{
				"type": "occ",
				"energy": -0.26376,
				"method": "rhf"
			},
			{
				"type": "occ",
				"energy": -0.2502,
				"method": "rhf"
			},
			{
				"type": "occ",
				"energy": -0.23831,
				"method": "rhf"
			},
			{
				"type": "occ",
				"energy": -0.21447,
				"method": "rhf"
			},
			{
				"type": "unocc",
				"energy": -0.08152,
				"method": "rhf"
			},
			{
				"type": "unocc",
				"energy": -0.07167,
				"method": "rhf"
			},
			{
				"type": "unocc",
				"energy": -0.03694,
				"method": "rhf"
			},
			{
				"type": "unocc",
				"energy": -0.02613,
				"method": "rhf"
			},
			{
				"type": "unocc",
				"energy": -0.02133,
				"method": "rhf"
			}
		],
		"cosmo_sigma_profile": { 
			"-0.025": 0.0,
			"-0.024": 0.0,
			"-0.023": 0.0,
			"-0.022": 0.0,
			"-0.021": 0.0,
			"-0.02": 0.0,
			"-0.019": 0.0,
			"-0.018": 0.0,
			"-0.017": 0.0,
			"-0.016": 0.0,
			"-0.015": 0.0572792450738,
			"-0.014": 1.13455642442,
			"-0.013": 1.42683333316,
			"-0.012": 1.35882478813,
			"-0.011": 2.10596846236,
			"-0.01": 2.18048279356,
			"-0.009": 6.10357523611,
			"-0.008": 6.6288025753,
			"-0.007": 7.46925905879,
			"-0.006": 15.1180341699,
			"-0.005": 18.9543277212,
			"-0.004": 19.9698402493,
			"-0.003": 23.1892562626,
			"-0.002": 27.9627283211,
			"-0.001": 33.3643684491,
			"0.0": 37.3797984665,
			"0.001": 35.3686179502,
			"0.002": 43.06717547,
			"0.003": 29.68725789,
			"0.004": 21.6844497044,
			"0.005": 6.7911439705,
			"0.006": 5.92112970129,
			"0.007": 5.90201331273,
			"0.008": 5.14612544161,
			"0.009": 4.57253707529,
			"0.01": 4.52916098362,
			"0.011": 4.09106724672,
			"0.012": 3.35626582623,
			"0.013": 3.14152771582,
			"0.014": 1.45144573057,
			"0.015": 0.0182980682927,
			"0.016": 0.0,
			"0.017": 0.0,
			"0.018": 0.0,
			"0.019": 0.0,
			"0.02": 0.0,
			"0.021": 0.0,
			"0.022": 0.0,
			"0.023": 0.0,
			"0.024": 0.0,
			"0.025": 0.0
		}
	}
}
