{
	 "smiles": "BrCC(=O)C1=C2OCCC2=CC(Br)=C1", 
	 "Tm": 406.15, 
	 "num_atms": 22, 
	 "gaussian": { 
		 "optdone": 1, 
		 "sigma_profile": "yes", 
		 "theory": "DFT", 
		 "functional": "B3LYP", 
		 "basiset": "6-31G**", 
		 "properties": { 
			 "R2extent": 6818.8533, 
			 "electric_dipole_moment_norm": 6.94077892603, 
			 "electric_quadrupole_moment_norm": 14.489808349, 
			 "total_energy": -5679.13114336, 
			 "HOMO_LUMO_gap": 0.16464, 
			 "cosmo_polarized_energy": -13.08, 
			 "cosmo_cavitation_energy": 30.56, 
			 "cosmo_dispersion_energy": -23.42, 
			 "cosmo_repulsion_energy": 1.87, 
			 "cosmo_total_nonelectrostatic_energy": 9.0, 
			 "SMD_solvation_energy": 3.3 
		},
		"coords": [
			{
				"x": 1.1372070632,
				"y": 4.0935365483,
				"z": -0.8633949676,
				"element": "Br" 
			},
			{
				"x": 0.2804416847,
				"y": 2.598017511,
				"z": 0.0544874201,
				"element": "C" 
			},
			{
				"x": 0.7609632921,
				"y": 1.2356933397,
				"z": -0.4379901066,
				"element": "C" 
			},
			{
				"x": 1.5945040521,
				"y": 1.1147161587,
				"z": -1.3150701226,
				"element": "O" 
			},
			{
				"x": 0.1555660619,
				"y": 0.024419268,
				"z": 0.208665407,
				"element": "C" 
			},
			{
				"x": -0.8002559139,
				"y": 0.019969315,
				"z": 1.2333249849,
				"element": "C" 
			},
			{
				"x": -1.3421383481,
				"y": 1.1308949492,
				"z": 1.8065683395,
				"element": "O" 
			},
			{
				"x": -2.1356653351,
				"y": 0.7085066211,
				"z": 2.9525401775,
				"element": "C" 
			},
			{
				"x": -2.3512425991,
				"y": -0.8150675142,
				"z": 2.8066824237,
				"element": "C" 
			},
			{
				"x": -1.3068282483,
				"y": -1.1701739253,
				"z": 1.7724339806,
				"element": "C" 
			},
			{
				"x": -0.8688111708,
				"y": -2.3965571881,
				"z": 1.3033072579,
				"element": "C" 
			},
			{
				"x": 0.0942742147,
				"y": -2.4098381001,
				"z": 0.2822134995,
				"element": "C" 
			},
			{
				"x": 0.7217738097,
				"y": -4.0924501171,
				"z": -0.3734001507,
				"element": "Br" 
			},
			{
				"x": 0.5928764544,
				"y": -1.2345733637,
				"z": -0.2555419976,
				"element": "C" 
			},
			{
				"x": -0.7959789799,
				"y": 2.699951656,
				"z": -0.088417051,
				"element": "H" 
			},
			{
				"x": 0.4781147038,
				"y": 2.7118364757,
				"z": 1.1208077418,
				"element": "H" 
			},
			{
				"x": -1.5676334798,
				"y": 0.9559933576,
				"z": 3.8557347913,
				"element": "H" 
			},
			{
				"x": -3.0581871314,
				"y": 1.2913806142,
				"z": 2.9410381183,
				"element": "H" 
			},
			{
				"x": -3.3594639574,
				"y": -1.049253437,
				"z": 2.444645056,
				"element": "H" 
			},
			{
				"x": -2.213601684,
				"y": -1.337482431,
				"z": 3.7577943499,
				"element": "H" 
			},
			{
				"x": -1.2533163942,
				"y": -3.3272400852,
				"z": 1.7061576845,
				"element": "H" 
			},
			{
				"x": 1.3353019052,
				"y": -1.2463796528,
				"z": -1.0443868365,
				"element": "H" 
			}
		],
		 "valence_orbital": [ 
			{
				"type": "occ",
				"energy": -0.27586,
				"method": "rhf"
			},
			{
				"type": "occ",
				"energy": -0.26872,
				"method": "rhf"
			},
			{
				"type": "occ",
				"energy": -0.26784,
				"method": "rhf"
			},
			{
				"type": "occ",
				"energy": -0.26486,
				"method": "rhf"
			},
			{
				"type": "occ",
				"energy": -0.23322,
				"method": "rhf"
			},
			{
				"type": "unocc",
				"energy": -0.06858,
				"method": "rhf"
			},
			{
				"type": "unocc",
				"energy": -0.01704,
				"method": "rhf"
			},
			{
				"type": "unocc",
				"energy": -0.00216,
				"method": "rhf"
			},
			{
				"type": "unocc",
				"energy": 0.01303,
				"method": "rhf"
			},
			{
				"type": "unocc",
				"energy": 0.01763,
				"method": "rhf"
			}
		],
		"cosmo_sigma_profile": { 
			"-0.025": 0.0,
			"-0.024": 0.0,
			"-0.023": 0.0,
			"-0.022": 0.0,
			"-0.021": 0.0,
			"-0.02": 0.0,
			"-0.019": 0.0,
			"-0.018": 0.0,
			"-0.017": 0.0,
			"-0.016": 0.0,
			"-0.015": 0.0,
			"-0.014": 0.0,
			"-0.013": 0.0,
			"-0.012": 0.0,
			"-0.011": 0.0,
			"-0.01": 0.0,
			"-0.009": 1.26119765323,
			"-0.008": 5.06314535183,
			"-0.007": 7.35461668659,
			"-0.006": 17.078839756,
			"-0.005": 19.3833169224,
			"-0.004": 20.2663019749,
			"-0.003": 15.9581265375,
			"-0.002": 16.0518676726,
			"-0.001": 13.7489707572,
			"0.0": 17.1546681051,
			"0.001": 21.5294594902,
			"0.002": 22.2279181341,
			"0.003": 14.7217030499,
			"0.004": 17.7076280271,
			"0.005": 15.5681775227,
			"0.006": 8.9482873139,
			"0.007": 2.03736748985,
			"0.008": 2.4034093729,
			"0.009": 2.56345939172,
			"0.01": 2.91150296468,
			"0.011": 3.79804453882,
			"0.012": 2.25928286177,
			"0.013": 0.886244998879,
			"0.014": 0.0,
			"0.015": 0.0,
			"0.016": 0.0,
			"0.017": 0.0,
			"0.018": 0.0,
			"0.019": 0.0,
			"0.02": 0.0,
			"0.021": 0.0,
			"0.022": 0.0,
			"0.023": 0.0,
			"0.024": 0.0,
			"0.025": 0.0
		}
	}
}
