{
	 "smiles": "CC(NC(=O)CCl)C1=CC2=C(C=CC=C2)C=C1", 
	 "Tm": 475.15, 
	 "num_atms": 31, 
	 "gaussian": { 
		 "optdone": 1, 
		 "sigma_profile": "yes", 
		 "theory": "DFT", 
		 "functional": "B3LYP", 
		 "basiset": "6-31G**", 
		 "properties": { 
			 "R2extent": 6882.3514, 
			 "electric_dipole_moment_norm": 1.6537462139, 
			 "electric_quadrupole_moment_norm": 8.56385543257, 
			 "total_energy": -1132.13051899, 
			 "HOMO_LUMO_gap": 0.17715, 
			 "cosmo_polarized_energy": -11.69, 
			 "cosmo_cavitation_energy": 35.69, 
			 "cosmo_dispersion_energy": -25.82, 
			 "cosmo_repulsion_energy": 2.02, 
			 "cosmo_total_nonelectrostatic_energy": 11.89, 
			 "SMD_solvation_energy": 5.48 
		},
		"coords": [
			{
				"x": -1.9348544376,
				"y": 2.6343255407,
				"z": 0.6124330057,
				"element": "C" 
			},
			{
				"x": -1.2608886987,
				"y": 1.6475613367,
				"z": 1.5785033965,
				"element": "C" 
			},
			{
				"x": 0.0690571709,
				"y": 2.1193472089,
				"z": 2.0233495408,
				"element": "N" 
			},
			{
				"x": 1.0604057042,
				"y": 2.5947462516,
				"z": 1.2407629566,
				"element": "C" 
			},
			{
				"x": 1.0257030258,
				"y": 2.7371400803,
				"z": 0.0213426937,
				"element": "O" 
			},
			{
				"x": 2.3688900781,
				"y": 3.0129349135,
				"z": 1.925648084,
				"element": "C" 
			},
			{
				"x": 2.4579055828,
				"y": 2.8417176202,
				"z": 3.7338189651,
				"element": "Cl" 
			},
			{
				"x": -1.2287030451,
				"y": 0.2176007284,
				"z": 1.0505095901,
				"element": "C" 
			},
			{
				"x": -1.9286381606,
				"y": -0.7733477991,
				"z": 1.7072912339,
				"element": "C" 
			},
			{
				"x": -1.9461508485,
				"y": -2.1148050239,
				"z": 1.2379607976,
				"element": "C" 
			},
			{
				"x": -1.2106857122,
				"y": -2.4398442496,
				"z": 0.0532950192,
				"element": "C" 
			},
			{
				"x": -1.2238868201,
				"y": -3.7797134703,
				"z": -0.4178448582,
				"element": "C" 
			},
			{
				"x": -1.9309271562,
				"y": -4.7550050052,
				"z": 0.2499495937,
				"element": "C" 
			},
			{
				"x": -2.6584752099,
				"y": -4.4335344785,
				"z": 1.4221221147,
				"element": "C" 
			},
			{
				"x": -2.6650730433,
				"y": -3.143378228,
				"z": 1.9040509547,
				"element": "C" 
			},
			{
				"x": -0.493712358,
				"y": -1.4036835739,
				"z": -0.6055166764,
				"element": "C" 
			},
			{
				"x": -0.5008108093,
				"y": -0.1141299335,
				"z": -0.128931903,
				"element": "C" 
			},
			{
				"x": -1.9832434031,
				"y": 3.6306691706,
				"z": 1.0628842755,
				"element": "H" 
			},
			{
				"x": -2.9543082449,
				"y": 2.2941766434,
				"z": 0.4093039212,
				"element": "H" 
			},
			{
				"x": -1.3900292483,
				"y": 2.7090045216,
				"z": -0.3281243065,
				"element": "H" 
			},
			{
				"x": -1.8567383219,
				"y": 1.6337904942,
				"z": 2.4976301206,
				"element": "H" 
			},
			{
				"x": 0.2928149439,
				"y": 1.9893334552,
				"z": 3.0003305078,
				"element": "H" 
			},
			{
				"x": 2.5523503214,
				"y": 4.0620093115,
				"z": 1.6936931124,
				"element": "H" 
			},
			{
				"x": 3.1777144103,
				"y": 2.4125209554,
				"z": 1.5090307467,
				"element": "H" 
			},
			{
				"x": -2.4898147505,
				"y": -0.5357886947,
				"z": 2.6094390892,
				"element": "H" 
			},
			{
				"x": -0.6645793212,
				"y": -4.023197177,
				"z": -1.3176841124,
				"element": "H" 
			},
			{
				"x": -1.9334812487,
				"y": -5.7761796393,
				"z": -0.120222739,
				"element": "H" 
			},
			{
				"x": -3.2124350605,
				"y": -5.211076435,
				"z": 1.9402365675,
				"element": "H" 
			},
			{
				"x": -3.2229429155,
				"y": -2.8946941825,
				"z": 2.8035256853,
				"element": "H" 
			},
			{
				"x": 0.0664901506,
				"y": -1.6473757687,
				"z": -1.5049418233,
				"element": "H" 
			},
			{
				"x": 0.0563474262,
				"y": 0.6639754268,
				"z": -0.6398455538,
				"element": "H" 
			}
		],
		 "valence_orbital": [ 
			{
				"type": "occ",
				"energy": -0.28354,
				"method": "rhf"
			},
			{
				"type": "occ",
				"energy": -0.26601,
				"method": "rhf"
			},
			{
				"type": "occ",
				"energy": -0.25774,
				"method": "rhf"
			},
			{
				"type": "occ",
				"energy": -0.23942,
				"method": "rhf"
			},
			{
				"type": "occ",
				"energy": -0.21535,
				"method": "rhf"
			},
			{
				"type": "unocc",
				"energy": -0.0382,
				"method": "rhf"
			},
			{
				"type": "unocc",
				"energy": -0.01159,
				"method": "rhf"
			},
			{
				"type": "unocc",
				"energy": 0.01275,
				"method": "rhf"
			},
			{
				"type": "unocc",
				"energy": 0.01535,
				"method": "rhf"
			},
			{
				"type": "unocc",
				"energy": 0.03263,
				"method": "rhf"
			}
		],
		"cosmo_sigma_profile": { 
			"-0.025": 0.0,
			"-0.024": 0.0,
			"-0.023": 0.0,
			"-0.022": 0.0,
			"-0.021": 0.0,
			"-0.02": 0.0,
			"-0.019": 0.0,
			"-0.018": 0.0,
			"-0.017": 0.0,
			"-0.016": 0.0,
			"-0.015": 0.0,
			"-0.014": 0.0,
			"-0.013": 0.366824613141,
			"-0.012": 1.0532665198,
			"-0.011": 0.943662382834,
			"-0.01": 0.717907800908,
			"-0.009": 3.74572745318,
			"-0.008": 4.91386899922,
			"-0.007": 5.58845102958,
			"-0.006": 15.3934577612,
			"-0.005": 21.4946150926,
			"-0.004": 19.7348145987,
			"-0.003": 20.3995569427,
			"-0.002": 19.3580863118,
			"-0.001": 19.4909209625,
			"0.0": 20.2735741219,
			"0.001": 22.3945275056,
			"0.002": 16.3191307604,
			"0.003": 18.1323973592,
			"0.004": 29.056494559,
			"0.005": 25.9162825341,
			"0.006": 7.88466826104,
			"0.007": 1.15604791289,
			"0.008": 1.3715252473,
			"0.009": 1.50810933242,
			"0.01": 1.39196897231,
			"0.011": 1.13048092313,
			"0.012": 2.28442609397,
			"0.013": 2.51561350942,
			"0.014": 1.51479164435,
			"0.015": 0.0258528397753,
			"0.016": 0.0,
			"0.017": 0.0,
			"0.018": 0.0,
			"0.019": 0.0,
			"0.02": 0.0,
			"0.021": 0.0,
			"0.022": 0.0,
			"0.023": 0.0,
			"0.024": 0.0,
			"0.025": 0.0
		}
	}
}
