{
	 "smiles": "COC1=CC=C(CCCCC(O)=O)C=C1", 
	 "Tm": 386.15, 
	 "num_atms": 31, 
	 "gaussian": { 
		 "optdone": 1, 
		 "sigma_profile": "yes", 
		 "theory": "DFT", 
		 "functional": "B3LYP", 
		 "basiset": "6-31G**", 
		 "properties": { 
			 "R2extent": 5216.9525, 
			 "electric_dipole_moment_norm": 4.72411907767, 
			 "electric_quadrupole_moment_norm": 27.3533088328, 
			 "total_energy": -692.599419644, 
			 "HOMO_LUMO_gap": 0.20765, 
			 "cosmo_polarized_energy": -15.05, 
			 "cosmo_cavitation_energy": 33.28, 
			 "cosmo_dispersion_energy": -23.2, 
			 "cosmo_repulsion_energy": 1.83, 
			 "cosmo_total_nonelectrostatic_energy": 11.91, 
			 "SMD_solvation_energy": 6.86 
		},
		"coords": [
			{
				"x": 2.6725749961,
				"y": 4.0389141056,
				"z": 3.1460589672,
				"element": "C" 
			},
			{
				"x": 1.4991303033,
				"y": 3.8882952155,
				"z": 2.361080987,
				"element": "O" 
			},
			{
				"x": 1.4757430364,
				"y": 2.9043382958,
				"z": 1.4184263658,
				"element": "C" 
			},
			{
				"x": 2.5338541517,
				"y": 2.0303014628,
				"z": 1.1470896876,
				"element": "C" 
			},
			{
				"x": 2.3846690809,
				"y": 1.0555786365,
				"z": 0.1507663542,
				"element": "C" 
			},
			{
				"x": 1.2027655741,
				"y": 0.9199615003,
				"z": -0.5853819918,
				"element": "C" 
			},
			{
				"x": 1.0369076271,
				"y": -0.1750055713,
				"z": -1.6198699431,
				"element": "C" 
			},
			{
				"x": 0.0244003573,
				"y": -1.2750129122,
				"z": -1.2123334439,
				"element": "C" 
			},
			{
				"x": 0.236368488,
				"y": -1.8548410407,
				"z": 0.1940693972,
				"element": "C" 
			},
			{
				"x": 1.5901686184,
				"y": -2.5721883116,
				"z": 0.3922786375,
				"element": "C" 
			},
			{
				"x": 1.9484253797,
				"y": -2.7544779339,
				"z": 1.8607433547,
				"element": "C" 
			},
			{
				"x": 2.1804847292,
				"y": -1.6007489092,
				"z": 2.5477786915,
				"element": "O" 
			},
			{
				"x": 2.029241982,
				"y": -3.8182202984,
				"z": 2.4228234831,
				"element": "O" 
			},
			{
				"x": 0.1588272659,
				"y": 1.8180247465,
				"z": -0.3003769128,
				"element": "C" 
			},
			{
				"x": 0.2868785722,
				"y": 2.7932303569,
				"z": 0.6793979271,
				"element": "C" 
			},
			{
				"x": 3.5439819378,
				"y": 4.2894302801,
				"z": 2.5274377813,
				"element": "H" 
			},
			{
				"x": 2.4718022176,
				"y": 4.8627018736,
				"z": 3.8323684426,
				"element": "H" 
			},
			{
				"x": 2.8911046201,
				"y": 3.1322592738,
				"z": 3.7245733023,
				"element": "H" 
			},
			{
				"x": 3.4718224722,
				"y": 2.1017310744,
				"z": 1.6850085115,
				"element": "H" 
			},
			{
				"x": 3.2288454644,
				"y": 0.4047717057,
				"z": -0.0687939988,
				"element": "H" 
			},
			{
				"x": 0.7049302363,
				"y": 0.2559658399,
				"z": -2.5727568747,
				"element": "H" 
			},
			{
				"x": 2.015017954,
				"y": -0.626167733,
				"z": -1.8217654746,
				"element": "H" 
			},
			{
				"x": 0.0572080951,
				"y": -2.0765002096,
				"z": -1.9616309925,
				"element": "H" 
			},
			{
				"x": -0.989283899,
				"y": -0.8579316976,
				"z": -1.2557811692,
				"element": "H" 
			},
			{
				"x": -0.5700692005,
				"y": -2.5599595876,
				"z": 0.4242359163,
				"element": "H" 
			},
			{
				"x": 0.1397276409,
				"y": -1.0403510324,
				"z": 0.9208028677,
				"element": "H" 
			},
			{
				"x": 1.5794943181,
				"y": -3.5607464002,
				"z": -0.0716140024,
				"element": "H" 
			},
			{
				"x": 2.3956131766,
				"y": -1.9957806015,
				"z": -0.0790071281,
				"element": "H" 
			},
			{
				"x": 2.092509955,
				"y": -0.8279397342,
				"z": 1.9666705569,
				"element": "H" 
			},
			{
				"x": -0.7719321785,
				"y": 1.7522096734,
				"z": -0.8587616994,
				"element": "H" 
			},
			{
				"x": -0.5206129722,
				"y": 3.4855579323,
				"z": 0.8946623998,
				"element": "H" 
			}
		],
		 "valence_orbital": [ 
			{
				"type": "occ",
				"energy": -0.32019,
				"method": "rhf"
			},
			{
				"type": "occ",
				"energy": -0.30215,
				"method": "rhf"
			},
			{
				"type": "occ",
				"energy": -0.26491,
				"method": "rhf"
			},
			{
				"type": "occ",
				"energy": -0.25683,
				"method": "rhf"
			},
			{
				"type": "occ",
				"energy": -0.22596,
				"method": "rhf"
			},
			{
				"type": "unocc",
				"energy": -0.01831,
				"method": "rhf"
			},
			{
				"type": "unocc",
				"energy": -0.00234,
				"method": "rhf"
			},
			{
				"type": "unocc",
				"energy": 0.01897,
				"method": "rhf"
			},
			{
				"type": "unocc",
				"energy": 0.06542,
				"method": "rhf"
			},
			{
				"type": "unocc",
				"energy": 0.08695,
				"method": "rhf"
			}
		],
		"cosmo_sigma_profile": { 
			"-0.025": 0.0,
			"-0.024": 0.0,
			"-0.023": 0.0,
			"-0.022": 0.0,
			"-0.021": 0.0,
			"-0.02": 0.0,
			"-0.019": 0.0,
			"-0.018": 0.0,
			"-0.017": 0.0,
			"-0.016": 0.0,
			"-0.015": 0.0,
			"-0.014": 0.0,
			"-0.013": 0.0171019435415,
			"-0.012": 0.244767195272,
			"-0.011": 0.319704732227,
			"-0.01": 0.525360514154,
			"-0.009": 1.22831157024,
			"-0.008": 2.45594069428,
			"-0.007": 3.90697239551,
			"-0.006": 12.3443054258,
			"-0.005": 22.373310407,
			"-0.004": 25.1793474911,
			"-0.003": 35.3546225047,
			"-0.002": 27.4980891978,
			"-0.001": 22.4135452748,
			"0.0": 16.3857430407,
			"0.001": 10.7641785994,
			"0.002": 8.7706379031,
			"0.003": 10.6135360361,
			"0.004": 10.6245051363,
			"0.005": 9.88368086358,
			"0.006": 6.86136120654,
			"0.007": 3.25478476132,
			"0.008": 4.15683455499,
			"0.009": 4.01080498766,
			"0.01": 5.90129886387,
			"0.011": 6.255372591,
			"0.012": 6.07277924823,
			"0.013": 3.64329214834,
			"0.014": 0.374269251672,
			"0.015": 0.0,
			"0.016": 0.0,
			"0.017": 0.0,
			"0.018": 0.0,
			"0.019": 0.0,
			"0.02": 0.0,
			"0.021": 0.0,
			"0.022": 0.0,
			"0.023": 0.0,
			"0.024": 0.0,
			"0.025": 0.0
		}
	}
}
