{
	 "smiles": "O=C(CC1=CC=CC=C1)OCCC1=CC=CC=C1", 
	 "Tm": 299.65, 
	 "num_atms": 34, 
	 "gaussian": { 
		 "optdone": 1, 
		 "sigma_profile": "yes", 
		 "theory": "DFT", 
		 "functional": "B3LYP", 
		 "basiset": "6-31G**", 
		 "properties": { 
			 "R2extent": 8306.7125, 
			 "electric_dipole_moment_norm": 1.74079821921, 
			 "electric_quadrupole_moment_norm": 12.1338273051, 
			 "total_energy": -769.814293108, 
			 "HOMO_LUMO_gap": 0.23245, 
			 "cosmo_polarized_energy": -10.13, 
			 "cosmo_cavitation_energy": 38.75, 
			 "cosmo_dispersion_energy": -27.19, 
			 "cosmo_repulsion_energy": 2.14, 
			 "cosmo_total_nonelectrostatic_energy": 13.7, 
			 "SMD_solvation_energy": 6.97 
		},
		"coords": [
			{
				"x": 2.9539548135,
				"y": -1.1050072327,
				"z": 1.1931608196,
				"element": "O" 
			},
			{
				"x": 2.3974915328,
				"y": -0.041682102,
				"z": 1.0176497128,
				"element": "C" 
			},
			{
				"x": 3.1110300853,
				"y": 1.276301447,
				"z": 0.7605789379,
				"element": "C" 
			},
			{
				"x": 3.5461965143,
				"y": 1.3975231337,
				"z": -0.6926098924,
				"element": "C" 
			},
			{
				"x": 4.4488661645,
				"y": 0.4760802111,
				"z": -1.2421506462,
				"element": "C" 
			},
			{
				"x": 4.8537131356,
				"y": 0.5906682122,
				"z": -2.5715245833,
				"element": "C" 
			},
			{
				"x": 4.3628454521,
				"y": 1.6265046478,
				"z": -3.370503705,
				"element": "C" 
			},
			{
				"x": 3.4616403753,
				"y": 2.5449670483,
				"z": -2.8316453041,
				"element": "C" 
			},
			{
				"x": 3.0545341181,
				"y": 2.4283577322,
				"z": -1.5007309218,
				"element": "C" 
			},
			{
				"x": 1.0566992305,
				"y": 0.1094970407,
				"z": 0.9960891082,
				"element": "O" 
			},
			{
				"x": 0.2828617854,
				"y": -1.0988373132,
				"z": 1.1726132546,
				"element": "C" 
			},
			{
				"x": -1.1926148494,
				"y": -0.7100728545,
				"z": 1.0988699871,
				"element": "C" 
			},
			{
				"x": -2.0931338272,
				"y": -1.9153227191,
				"z": 1.2728751173,
				"element": "C" 
			},
			{
				"x": -2.4854572935,
				"y": -2.6821241544,
				"z": 0.1672974417,
				"element": "C" 
			},
			{
				"x": -3.2864343678,
				"y": -3.8133880152,
				"z": 0.3285213743,
				"element": "C" 
			},
			{
				"x": -3.7082663457,
				"y": -4.1968038485,
				"z": 1.6029255664,
				"element": "C" 
			},
			{
				"x": -3.3249284641,
				"y": -3.4413542154,
				"z": 2.7125466297,
				"element": "C" 
			},
			{
				"x": -2.5237580503,
				"y": -2.310854158,
				"z": 2.546492758,
				"element": "C" 
			},
			{
				"x": 2.4553416311,
				"y": 2.107200122,
				"z": 1.0294300019,
				"element": "H" 
			},
			{
				"x": 3.9863547247,
				"y": 1.294644706,
				"z": 1.4179903637,
				"element": "H" 
			},
			{
				"x": 4.820454943,
				"y": -0.3358404883,
				"z": -0.6238816961,
				"element": "H" 
			},
			{
				"x": 5.5542629098,
				"y": -0.1298125146,
				"z": -2.9843891343,
				"element": "H" 
			},
			{
				"x": 4.6811311144,
				"y": 1.7160492854,
				"z": -4.405207652,
				"element": "H" 
			},
			{
				"x": 3.0729596899,
				"y": 3.3529198055,
				"z": -3.4452111367,
				"element": "H" 
			},
			{
				"x": 2.3512522091,
				"y": 3.1459569663,
				"z": -1.0857623269,
				"element": "H" 
			},
			{
				"x": 0.5346128625,
				"y": -1.5512647616,
				"z": 2.1369120529,
				"element": "H" 
			},
			{
				"x": 0.5523760649,
				"y": -1.8163246087,
				"z": 0.3914083805,
				"element": "H" 
			},
			{
				"x": -1.3806992018,
				"y": -0.2288838191,
				"z": 0.1327719429,
				"element": "H" 
			},
			{
				"x": -1.3989109914,
				"y": 0.0357398741,
				"z": 1.874499194,
				"element": "H" 
			},
			{
				"x": -2.1648581558,
				"y": -2.3859153475,
				"z": -0.8288803239,
				"element": "H" 
			},
			{
				"x": -3.5839141954,
				"y": -4.3925787231,
				"z": -0.5411445814,
				"element": "H" 
			},
			{
				"x": -4.3343411771,
				"y": -5.0752652007,
				"z": 1.7299081625,
				"element": "H" 
			},
			{
				"x": -3.6525214402,
				"y": -3.7294940912,
				"z": 3.7075074308,
				"element": "H" 
			},
			{
				"x": -2.2332409973,
				"y": -1.7236840645,
				"z": 3.4146936673,
				"element": "H" 
			}
		],
		 "valence_orbital": [ 
			{
				"type": "occ",
				"energy": -0.27171,
				"method": "rhf"
			},
			{
				"type": "occ",
				"energy": -0.25133,
				"method": "rhf"
			},
			{
				"type": "occ",
				"energy": -0.24864,
				"method": "rhf"
			},
			{
				"type": "occ",
				"energy": -0.24595,
				"method": "rhf"
			},
			{
				"type": "occ",
				"energy": -0.24088,
				"method": "rhf"
			},
			{
				"type": "unocc",
				"energy": -0.00843,
				"method": "rhf"
			},
			{
				"type": "unocc",
				"energy": -0.00385,
				"method": "rhf"
			},
			{
				"type": "unocc",
				"energy": -0.00284,
				"method": "rhf"
			},
			{
				"type": "unocc",
				"energy": -0.00067,
				"method": "rhf"
			},
			{
				"type": "unocc",
				"energy": 0.0217,
				"method": "rhf"
			}
		],
		"cosmo_sigma_profile": { 
			"-0.025": 0.0,
			"-0.024": 0.0,
			"-0.023": 0.0,
			"-0.022": 0.0,
			"-0.021": 0.0,
			"-0.02": 0.0,
			"-0.019": 0.0,
			"-0.018": 0.0,
			"-0.017": 0.0,
			"-0.016": 0.0,
			"-0.015": 0.0,
			"-0.014": 0.0,
			"-0.013": 0.0,
			"-0.012": 0.0,
			"-0.011": 0.0,
			"-0.01": 0.0,
			"-0.009": 0.0,
			"-0.008": 0.0,
			"-0.007": 0.296423110385,
			"-0.006": 11.2824667558,
			"-0.005": 31.8769883548,
			"-0.004": 38.1911287244,
			"-0.003": 34.425996999,
			"-0.002": 23.0628555196,
			"-0.001": 21.8625886888,
			"0.0": 18.1005265798,
			"0.001": 18.2108043248,
			"0.002": 18.241823344,
			"0.003": 19.4552901301,
			"0.004": 18.7325582741,
			"0.005": 19.7528359516,
			"0.006": 18.6664625968,
			"0.007": 2.73808644139,
			"0.008": 2.14942545918,
			"0.009": 1.44136446171,
			"0.01": 1.99815570918,
			"0.011": 2.737575841,
			"0.012": 4.15062618055,
			"0.013": 0.463219371001,
			"0.014": 0.0,
			"0.015": 0.0,
			"0.016": 0.0,
			"0.017": 0.0,
			"0.018": 0.0,
			"0.019": 0.0,
			"0.02": 0.0,
			"0.021": 0.0,
			"0.022": 0.0,
			"0.023": 0.0,
			"0.024": 0.0,
			"0.025": 0.0
		}
	}
}
