{
	 "smiles": "[O-][N+](=O)C1=CC(=CC=C1)C1=CNN=C1", 
	 "Tm": 428.15, 
	 "num_atms": 21, 
	 "gaussian": { 
		 "optdone": 1, 
		 "sigma_profile": "yes", 
		 "theory": "DFT", 
		 "functional": "B3LYP", 
		 "basiset": "6-31G**", 
		 "properties": { 
			 "R2extent": 3602.7851, 
			 "electric_dipole_moment_norm": 6.50289623629, 
			 "electric_quadrupole_moment_norm": 5.47301282385, 
			 "total_energy": -661.758366336, 
			 "HOMO_LUMO_gap": 0.14963, 
			 "cosmo_polarized_energy": -15.57, 
			 "cosmo_cavitation_energy": 26.67, 
			 "cosmo_dispersion_energy": -19.62, 
			 "cosmo_repulsion_energy": 1.52, 
			 "cosmo_total_nonelectrostatic_energy": 8.57, 
			 "SMD_solvation_energy": 6.16 
		},
		"coords": [
			{
				"x": 2.6862562502,
				"y": -2.2314349403,
				"z": 0.2775144515,
				"element": "O" 
			},
			{
				"x": 2.7284542048,
				"y": -1.2151836495,
				"z": 0.9699300397,
				"element": "N" 
			},
			{
				"x": 3.4476108815,
				"y": -1.0704795904,
				"z": 1.9577935092,
				"element": "O" 
			},
			{
				"x": 1.8562912763,
				"y": -0.0889134828,
				"z": 0.5896642511,
				"element": "C" 
			},
			{
				"x": 1.0281146311,
				"y": -0.2339600101,
				"z": -0.5183320087,
				"element": "C" 
			},
			{
				"x": 0.1902163359,
				"y": 0.8248167106,
				"z": -0.900002695,
				"element": "C" 
			},
			{
				"x": 0.2236931634,
				"y": 2.0045310456,
				"z": -0.1322444542,
				"element": "C" 
			},
			{
				"x": 1.0535258113,
				"y": 2.1230545242,
				"z": 0.9817691732,
				"element": "C" 
			},
			{
				"x": 1.8879117141,
				"y": 1.0722806161,
				"z": 1.3584158646,
				"element": "C" 
			},
			{
				"x": -0.6887500889,
				"y": 0.6950527573,
				"z": -2.0679806555,
				"element": "C" 
			},
			{
				"x": -1.8545891619,
				"y": 1.3985206805,
				"z": -2.3464536302,
				"element": "C" 
			},
			{
				"x": -2.3119805755,
				"y": 0.9308971093,
				"z": -3.5331088126,
				"element": "N" 
			},
			{
				"x": -1.5308482214,
				"y": -0.0328798534,
				"z": -4.0664949176,
				"element": "N" 
			},
			{
				"x": -0.5505819274,
				"y": -0.1799920057,
				"z": -3.1820902771,
				"element": "C" 
			},
			{
				"x": 1.0362839713,
				"y": -1.1723751114,
				"z": -1.0577904637,
				"element": "H" 
			},
			{
				"x": -0.3972622244,
				"y": 2.8463321238,
				"z": -0.4237934943,
				"element": "H" 
			},
			{
				"x": 1.0583501474,
				"y": 3.0450521994,
				"z": 1.5547004695,
				"element": "H" 
			},
			{
				"x": 2.5484617074,
				"y": 1.1340047663,
				"z": 2.213439485,
				"element": "H" 
			},
			{
				"x": -2.3864906327,
				"y": 2.1557792946,
				"z": -1.7894685129,
				"element": "H" 
			},
			{
				"x": -3.1441090727,
				"y": 1.2138952767,
				"z": -4.0271297601,
				"element": "H" 
			},
			{
				"x": 0.2389418103,
				"y": -0.8935984609,
				"z": -3.3759375622,
				"element": "H" 
			}
		],
		 "valence_orbital": [ 
			{
				"type": "occ",
				"energy": -0.29935,
				"method": "rhf"
			},
			{
				"type": "occ",
				"energy": -0.28891,
				"method": "rhf"
			},
			{
				"type": "occ",
				"energy": -0.28059,
				"method": "rhf"
			},
			{
				"type": "occ",
				"energy": -0.27035,
				"method": "rhf"
			},
			{
				"type": "occ",
				"energy": -0.23686,
				"method": "rhf"
			},
			{
				"type": "unocc",
				"energy": -0.08723,
				"method": "rhf"
			},
			{
				"type": "unocc",
				"energy": -0.03651,
				"method": "rhf"
			},
			{
				"type": "unocc",
				"energy": -0.00628,
				"method": "rhf"
			},
			{
				"type": "unocc",
				"energy": 0.01148,
				"method": "rhf"
			},
			{
				"type": "unocc",
				"energy": 0.067,
				"method": "rhf"
			}
		],
		"cosmo_sigma_profile": { 
			"-0.025": 0.0,
			"-0.024": 0.0,
			"-0.023": 0.0,
			"-0.022": 0.0,
			"-0.021": 0.0,
			"-0.02": 0.0,
			"-0.019": 0.0,
			"-0.018": 0.0,
			"-0.017": 1.17127929196,
			"-0.016": 1.40093394337,
			"-0.015": 1.41221608769,
			"-0.014": 1.16653123209,
			"-0.013": 1.12324878841,
			"-0.012": 0.82334728406,
			"-0.011": 1.05797307159,
			"-0.01": 1.89242988116,
			"-0.009": 4.22087672123,
			"-0.008": 5.38018761391,
			"-0.007": 11.1485847842,
			"-0.006": 11.7065304431,
			"-0.005": 9.88136404163,
			"-0.004": 10.0232542713,
			"-0.003": 9.30482947281,
			"-0.002": 10.0201153159,
			"-0.001": 13.6179033157,
			"0.0": 13.6887420669,
			"0.001": 17.1589717617,
			"0.002": 21.2824358389,
			"0.003": 12.2088548202,
			"0.004": 9.50346982225,
			"0.005": 4.55825072223,
			"0.006": 6.44713672064,
			"0.007": 8.86514471908,
			"0.008": 9.35643704295,
			"0.009": 5.71466530766,
			"0.01": 4.39514496892,
			"0.011": 1.23976359131,
			"0.012": 1.08076147658,
			"0.013": 1.32774423758,
			"0.014": 1.0585743432,
			"0.015": 1.18847681686,
			"0.016": 0.442502492998,
			"0.017": 0.0,
			"0.018": 0.0,
			"0.019": 0.0,
			"0.02": 0.0,
			"0.021": 0.0,
			"0.022": 0.0,
			"0.023": 0.0,
			"0.024": 0.0,
			"0.025": 0.0
		}
	}
}
