{
	 "smiles": "COC(=O)C1=CC(CO)=CC=N1", 
	 "Tm": 348.15, 
	 "num_atms": 21, 
	 "gaussian": { 
		 "optdone": 1, 
		 "sigma_profile": "yes", 
		 "theory": "DFT", 
		 "functional": "B3LYP", 
		 "basiset": "6-31G**", 
		 "properties": { 
			 "R2extent": 2904.7895, 
			 "electric_dipole_moment_norm": 1.16630154763, 
			 "electric_quadrupole_moment_norm": 8.10408231202, 
			 "total_energy": -590.689109624, 
			 "HOMO_LUMO_gap": 0.20136, 
			 "cosmo_polarized_energy": -14.49, 
			 "cosmo_cavitation_energy": 25.89, 
			 "cosmo_dispersion_energy": -19.04, 
			 "cosmo_repulsion_energy": 1.54, 
			 "cosmo_total_nonelectrostatic_energy": 8.39, 
			 "SMD_solvation_energy": 5.02 
		},
		"coords": [
			{
				"x": -3.5773781784,
				"y": -0.1627467932,
				"z": 2.915884227,
				"element": "C" 
			},
			{
				"x": -2.7391570186,
				"y": 0.329180242,
				"z": 1.8594385184,
				"element": "O" 
			},
			{
				"x": -1.9953810184,
				"y": -0.6027626911,
				"z": 1.2453371365,
				"element": "C" 
			},
			{
				"x": -2.0091810223,
				"y": -1.7839989083,
				"z": 1.5393158028,
				"element": "O" 
			},
			{
				"x": -1.1327779984,
				"y": -0.0416373206,
				"z": 0.1482386814,
				"element": "C" 
			},
			{
				"x": -0.3142026224,
				"y": -0.935909798,
				"z": -0.5471985944,
				"element": "C" 
			},
			{
				"x": 0.4996976553,
				"y": -0.4520120621,
				"z": -1.5738963237,
				"element": "C" 
			},
			{
				"x": 1.4292682185,
				"y": -1.3739333542,
				"z": -2.340629634,
				"element": "C" 
			},
			{
				"x": 1.809343044,
				"y": -0.8763847218,
				"z": -3.6119338236,
				"element": "O" 
			},
			{
				"x": 0.4423874612,
				"y": 0.9155830821,
				"z": -1.8526059423,
				"element": "C" 
			},
			{
				"x": -0.4135351775,
				"y": 1.7246997816,
				"z": -1.101156509,
				"element": "C" 
			},
			{
				"x": -1.1923698671,
				"y": 1.2717751794,
				"z": -0.1155283867,
				"element": "N" 
			},
			{
				"x": -4.2860742794,
				"y": -0.9022124715,
				"z": 2.5338556563,
				"element": "H" 
			},
			{
				"x": -4.1039062263,
				"y": 0.7099800488,
				"z": 3.3014077159,
				"element": "H" 
			},
			{
				"x": -2.975741086,
				"y": -0.6274325885,
				"z": 3.7014276654,
				"element": "H" 
			},
			{
				"x": -0.3351802115,
				"y": -1.9861790541,
				"z": -0.2747559808,
				"element": "H" 
			},
			{
				"x": 0.9772979793,
				"y": -2.3752321321,
				"z": -2.409528256,
				"element": "H" 
			},
			{
				"x": 2.364662182,
				"y": -1.490037148,
				"z": -1.7802450753,
				"element": "H" 
			},
			{
				"x": 1.0168053246,
				"y": -0.83803467,
				"z": -4.1638363992,
				"element": "H" 
			},
			{
				"x": 1.0554357639,
				"y": 1.3344698982,
				"z": -2.6435506044,
				"element": "H" 
			},
			{
				"x": -0.4727129222,
				"y": 2.7926254813,
				"z": -1.3044398744,
				"element": "H" 
			}
		],
		 "valence_orbital": [ 
			{
				"type": "occ",
				"energy": -0.29753,
				"method": "rhf"
			},
			{
				"type": "occ",
				"energy": -0.28367,
				"method": "rhf"
			},
			{
				"type": "occ",
				"energy": -0.27987,
				"method": "rhf"
			},
			{
				"type": "occ",
				"energy": -0.26961,
				"method": "rhf"
			},
			{
				"type": "occ",
				"energy": -0.25618,
				"method": "rhf"
			},
			{
				"type": "unocc",
				"energy": -0.05482,
				"method": "rhf"
			},
			{
				"type": "unocc",
				"energy": -0.02871,
				"method": "rhf"
			},
			{
				"type": "unocc",
				"energy": 0.04976,
				"method": "rhf"
			},
			{
				"type": "unocc",
				"energy": 0.07044,
				"method": "rhf"
			},
			{
				"type": "unocc",
				"energy": 0.11205,
				"method": "rhf"
			}
		],
		"cosmo_sigma_profile": { 
			"-0.025": 0.0,
			"-0.024": 0.0,
			"-0.023": 0.0,
			"-0.022": 0.0,
			"-0.021": 0.0,
			"-0.02": 0.0,
			"-0.019": 0.0,
			"-0.018": 0.0,
			"-0.017": 0.0498675132451,
			"-0.016": 0.731212020287,
			"-0.015": 1.01861881824,
			"-0.014": 1.18091231939,
			"-0.013": 0.735792198348,
			"-0.012": 1.23770644125,
			"-0.011": 0.664871764429,
			"-0.01": 0.661776112608,
			"-0.009": 1.13143300235,
			"-0.008": 0.934475431529,
			"-0.007": 6.25126070221,
			"-0.006": 16.7626860617,
			"-0.005": 18.13486496,
			"-0.004": 17.7204318286,
			"-0.003": 20.0795939165,
			"-0.002": 11.9850905703,
			"-0.001": 10.4864865397,
			"0.0": 15.0956016142,
			"0.001": 17.3197398392,
			"0.002": 8.68381673884,
			"0.003": 5.49232611938,
			"0.004": 4.88993811268,
			"0.005": 4.8106328399,
			"0.006": 3.91886089796,
			"0.007": 4.13322172334,
			"0.008": 4.51701762456,
			"0.009": 3.22599532915,
			"0.01": 4.87696611937,
			"0.011": 5.70968901351,
			"0.012": 5.77489999071,
			"0.013": 2.91421880091,
			"0.014": 1.83025698506,
			"0.015": 0.963652888359,
			"0.016": 1.09264080223,
			"0.017": 0.70811447157,
			"0.018": 0.0520034233432,
			"0.019": 0.0,
			"0.02": 0.0,
			"0.021": 0.0,
			"0.022": 0.0,
			"0.023": 0.0,
			"0.024": 0.0,
			"0.025": 0.0
		}
	}
}
