{
	 "smiles": "CS(=O)(=O)C1=C(N)C=C(C=C1)C#N", 
	 "Tm": 424.15, 
	 "num_atms": 21, 
	 "gaussian": { 
		 "optdone": 1, 
		 "sigma_profile": "yes", 
		 "theory": "DFT", 
		 "functional": "B3LYP", 
		 "basiset": "6-31G**", 
		 "properties": { 
			 "R2extent": 3689.9961, 
			 "electric_dipole_moment_norm": 3.82470516119, 
			 "electric_quadrupole_moment_norm": 27.4365379068, 
			 "total_energy": -967.737722491, 
			 "HOMO_LUMO_gap": 0.169, 
			 "cosmo_polarized_energy": -18.89, 
			 "cosmo_cavitation_energy": 27.26, 
			 "cosmo_dispersion_energy": -19.99, 
			 "cosmo_repulsion_energy": 1.53, 
			 "cosmo_total_nonelectrostatic_energy": 8.79, 
			 "SMD_solvation_energy": 5.91 
		},
		"coords": [
			{
				"x": 2.7943969698,
				"y": 2.5460004302,
				"z": 1.9768113379,
				"element": "C" 
			},
			{
				"x": 0.9967583882,
				"y": 2.4609797583,
				"z": 2.1251236249,
				"element": "S" 
			},
			{
				"x": 0.4612396514,
				"y": 3.8263189092,
				"z": 2.0480518468,
				"element": "O" 
			},
			{
				"x": 0.6963624663,
				"y": 1.607120447,
				"z": 3.295633803,
				"element": "O" 
			},
			{
				"x": 0.4949104517,
				"y": 1.5727685511,
				"z": 0.6466550607,
				"element": "C" 
			},
			{
				"x": 0.6899142934,
				"y": 0.1726211334,
				"z": 0.5384822513,
				"element": "C" 
			},
			{
				"x": 1.2771274,
				"y": -0.5671090459,
				"z": 1.5439774875,
				"element": "N" 
			},
			{
				"x": 0.3095178736,
				"y": -0.4343806142,
				"z": -0.6731925635,
				"element": "C" 
			},
			{
				"x": -0.2547007301,
				"y": 0.3167660547,
				"z": -1.7080420013,
				"element": "C" 
			},
			{
				"x": -0.4677254391,
				"y": 1.700260993,
				"z": -1.5702423639,
				"element": "C" 
			},
			{
				"x": -0.0856338069,
				"y": 2.3141021045,
				"z": -0.3847090674,
				"element": "C" 
			},
			{
				"x": -0.6300916826,
				"y": -0.3443238414,
				"z": -2.9264570016,
				"element": "C" 
			},
			{
				"x": -0.9323714042,
				"y": -0.8782861571,
				"z": -3.9142108439,
				"element": "N" 
			},
			{
				"x": 3.0491390033,
				"y": 3.1598003788,
				"z": 1.1120803181,
				"element": "H" 
			},
			{
				"x": 3.1856704224,
				"y": 1.5321460689,
				"z": 1.8751637278,
				"element": "H" 
			},
			{
				"x": 3.1585729155,
				"y": 3.0075006335,
				"z": 2.8970767602,
				"element": "H" 
			},
			{
				"x": 1.13237351,
				"y": -0.2146629499,
				"z": 2.4853816929,
				"element": "H" 
			},
			{
				"x": 1.1988411931,
				"y": -1.5698266377,
				"z": 1.453265602,
				"element": "H" 
			},
			{
				"x": 0.448510722,
				"y": -1.5033478338,
				"z": -0.8011870409,
				"element": "H" 
			},
			{
				"x": -0.9183839363,
				"y": 2.2675821326,
				"z": -2.3756182158,
				"element": "H" 
			},
			{
				"x": -0.2336282617,
				"y": 3.3781694845,
				"z": -0.2345444148,
				"element": "H" 
			}
		],
		 "valence_orbital": [ 
			{
				"type": "occ",
				"energy": -0.32743,
				"method": "rhf"
			},
			{
				"type": "occ",
				"energy": -0.31258,
				"method": "rhf"
			},
			{
				"type": "occ",
				"energy": -0.30404,
				"method": "rhf"
			},
			{
				"type": "occ",
				"energy": -0.28447,
				"method": "rhf"
			},
			{
				"type": "occ",
				"energy": -0.24357,
				"method": "rhf"
			},
			{
				"type": "unocc",
				"energy": -0.07457,
				"method": "rhf"
			},
			{
				"type": "unocc",
				"energy": -0.02651,
				"method": "rhf"
			},
			{
				"type": "unocc",
				"energy": 0.02672,
				"method": "rhf"
			},
			{
				"type": "unocc",
				"energy": 0.03938,
				"method": "rhf"
			},
			{
				"type": "unocc",
				"energy": 0.05425,
				"method": "rhf"
			}
		],
		"cosmo_sigma_profile": { 
			"-0.025": 0.0,
			"-0.024": 0.0,
			"-0.023": 0.0,
			"-0.022": 0.0,
			"-0.021": 0.0,
			"-0.02": 0.0,
			"-0.019": 0.0,
			"-0.018": 0.0,
			"-0.017": 0.0,
			"-0.016": 0.0,
			"-0.015": 0.0901391303278,
			"-0.014": 1.39197080722,
			"-0.013": 1.83682478894,
			"-0.012": 1.69467859444,
			"-0.011": 1.83961550034,
			"-0.01": 3.23863300477,
			"-0.009": 5.30386289206,
			"-0.008": 9.58773073736,
			"-0.007": 11.5387951786,
			"-0.006": 10.7996850329,
			"-0.005": 12.8601702047,
			"-0.004": 12.991200188,
			"-0.003": 13.2064068055,
			"-0.002": 11.9391859165,
			"-0.001": 13.1517670049,
			"0.0": 15.8307031765,
			"0.001": 16.381832001,
			"0.002": 8.54463363108,
			"0.003": 4.69785773245,
			"0.004": 5.06870090601,
			"0.005": 6.07121341328,
			"0.006": 4.83795321054,
			"0.007": 5.86986464911,
			"0.008": 7.44424457677,
			"0.009": 6.22775500434,
			"0.01": 8.8600872331,
			"0.011": 10.2177492934,
			"0.012": 6.91260501369,
			"0.013": 0.750118178165,
			"0.014": 0.0,
			"0.015": 0.0,
			"0.016": 0.0,
			"0.017": 0.0,
			"0.018": 0.0,
			"0.019": 0.0,
			"0.02": 0.0,
			"0.021": 0.0,
			"0.022": 0.0,
			"0.023": 0.0,
			"0.024": 0.0,
			"0.025": 0.0
		}
	}
}
