{
	 "smiles": "OC1=CC(O)=C(C(=O)C2=CC=C(O)C(O)=C2)C(O)=C1", 
	 "Tm": 495.15, 
	 "num_atms": 29, 
	 "gaussian": { 
		 "optdone": 1, 
		 "sigma_profile": "yes", 
		 "theory": "DFT", 
		 "functional": "B3LYP", 
		 "basiset": "6-31G**", 
		 "properties": { 
			 "R2extent": 6567.3017, 
			 "electric_dipole_moment_norm": 5.63911290541, 
			 "electric_quadrupole_moment_norm": 17.120766505, 
			 "total_energy": -952.745480792, 
			 "HOMO_LUMO_gap": 0.15677, 
			 "cosmo_polarized_energy": -25.26, 
			 "cosmo_cavitation_energy": 33.76, 
			 "cosmo_dispersion_energy": -25.17, 
			 "cosmo_repulsion_energy": 1.92, 
			 "cosmo_total_nonelectrostatic_energy": 10.51, 
			 "SMD_solvation_energy": 7.66 
		},
		"coords": [
			{
				"x": -0.4849828556,
				"y": 4.3408259831,
				"z": -4.1784573139,
				"element": "O" 
			},
			{
				"x": -0.4981825453,
				"y": 3.251016932,
				"z": -3.3671182307,
				"element": "C" 
			},
			{
				"x": 0.373477504,
				"y": 3.2758449351,
				"z": -2.2695083262,
				"element": "C" 
			},
			{
				"x": 0.4180143491,
				"y": 2.1889374265,
				"z": -1.4050890228,
				"element": "C" 
			},
			{
				"x": 1.2043602223,
				"y": 2.2337026593,
				"z": -0.2954431583,
				"element": "O" 
			},
			{
				"x": -0.3792389933,
				"y": 1.0293876946,
				"z": -1.617471193,
				"element": "C" 
			},
			{
				"x": -0.3446857642,
				"y": -0.1970949466,
				"z": -0.8052508216,
				"element": "C" 
			},
			{
				"x": -1.3323385212,
				"y": -0.9654153022,
				"z": -0.8079540519,
				"element": "O" 
			},
			{
				"x": 0.8508307618,
				"y": -0.6414467789,
				"z": -0.031410049,
				"element": "C" 
			},
			{
				"x": 2.1568749688,
				"y": -0.4530270382,
				"z": -0.4997952747,
				"element": "C" 
			},
			{
				"x": 3.2343494963,
				"y": -1.0091637192,
				"z": 0.1886436758,
				"element": "C" 
			},
			{
				"x": 3.012389735,
				"y": -1.7366075392,
				"z": 1.35486027,
				"element": "C" 
			},
			{
				"x": 4.0017750057,
				"y": -2.3112964626,
				"z": 2.1138749579,
				"element": "O" 
			},
			{
				"x": 1.7035935093,
				"y": -1.9353129569,
				"z": 1.8339116736,
				"element": "C" 
			},
			{
				"x": 1.4879315266,
				"y": -2.6502794132,
				"z": 2.9735131836,
				"element": "O" 
			},
			{
				"x": 0.6331768796,
				"y": -1.4055507905,
				"z": 1.1270815078,
				"element": "C" 
			},
			{
				"x": -1.324299829,
				"y": 1.089184437,
				"z": -2.6951021233,
				"element": "C" 
			},
			{
				"x": -2.2051387792,
				"y": 0.1085619496,
				"z": -2.9037977579,
				"element": "O" 
			},
			{
				"x": -1.3484311402,
				"y": 2.1718935755,
				"z": -3.5817981753,
				"element": "C" 
			},
			{
				"x": -1.1321326905,
				"y": 4.2164816462,
				"z": -4.8855190351,
				"element": "H" 
			},
			{
				"x": 0.9813888986,
				"y": 4.1586300943,
				"z": -2.0969526726,
				"element": "H" 
			},
			{
				"x": 1.6528102562,
				"y": 3.0891846144,
				"z": -0.2670900573,
				"element": "H" 
			},
			{
				"x": 2.3345750342,
				"y": 0.1065492467,
				"z": -1.4103036375,
				"element": "H" 
			},
			{
				"x": 4.249142213,
				"y": -0.8799699835,
				"z": -0.1815877091,
				"element": "H" 
			},
			{
				"x": 4.8639432007,
				"y": -2.1430227672,
				"z": 1.7141351741,
				"element": "H" 
			},
			{
				"x": 2.3497943146,
				"y": -2.9438920887,
				"z": 3.3038739695,
				"element": "H" 
			},
			{
				"x": -0.3764265075,
				"y": -1.5890019401,
				"z": 1.4758094337,
				"element": "H" 
			},
			{
				"x": -2.1213570735,
				"y": -0.502712699,
				"z": -2.1168513954,
				"element": "H" 
			},
			{
				"x": -2.0644131763,
				"y": 2.1573932318,
				"z": -4.3975038405,
				"element": "H" 
			}
		],
		 "valence_orbital": [ 
			{
				"type": "occ",
				"energy": -0.25884,
				"method": "rhf"
			},
			{
				"type": "occ",
				"energy": -0.24005,
				"method": "rhf"
			},
			{
				"type": "occ",
				"energy": -0.22955,
				"method": "rhf"
			},
			{
				"type": "occ",
				"energy": -0.21863,
				"method": "rhf"
			},
			{
				"type": "occ",
				"energy": -0.21248,
				"method": "rhf"
			},
			{
				"type": "unocc",
				"energy": -0.05571,
				"method": "rhf"
			},
			{
				"type": "unocc",
				"energy": 0.00196,
				"method": "rhf"
			},
			{
				"type": "unocc",
				"energy": 0.01026,
				"method": "rhf"
			},
			{
				"type": "unocc",
				"energy": 0.0146,
				"method": "rhf"
			},
			{
				"type": "unocc",
				"energy": 0.04797,
				"method": "rhf"
			}
		],
		"cosmo_sigma_profile": { 
			"-0.025": 0.0,
			"-0.024": 0.0,
			"-0.023": 0.0,
			"-0.022": 0.0,
			"-0.021": 0.0,
			"-0.02": 0.0,
			"-0.019": 0.700005900825,
			"-0.018": 3.29486000427,
			"-0.017": 3.05040503119,
			"-0.016": 3.35820063541,
			"-0.015": 3.68832089293,
			"-0.014": 3.21866270264,
			"-0.013": 2.2746428445,
			"-0.012": 2.5841098783,
			"-0.011": 5.11676956135,
			"-0.01": 4.29523866949,
			"-0.009": 3.33806471843,
			"-0.008": 3.9650705126,
			"-0.007": 5.74918954138,
			"-0.006": 7.60469670084,
			"-0.005": 8.47898752215,
			"-0.004": 9.84737971014,
			"-0.003": 8.65330780657,
			"-0.002": 11.4222039623,
			"-0.001": 13.3717112667,
			"0.0": 14.0661547542,
			"0.001": 16.193381011,
			"0.002": 24.462514886,
			"0.003": 26.6544312543,
			"0.004": 20.8272569265,
			"0.005": 12.4418625199,
			"0.006": 9.30953766558,
			"0.007": 8.66670162745,
			"0.008": 7.77576710708,
			"0.009": 7.40010656921,
			"0.01": 8.41496704556,
			"0.011": 6.57747672395,
			"0.012": 2.36421887905,
			"0.013": 0.248138941263,
			"0.014": 0.0,
			"0.015": 0.0,
			"0.016": 0.0,
			"0.017": 0.0,
			"0.018": 0.0,
			"0.019": 0.0,
			"0.02": 0.0,
			"0.021": 0.0,
			"0.022": 0.0,
			"0.023": 0.0,
			"0.024": 0.0,
			"0.025": 0.0
		}
	}
}
