{
	 "smiles": "NC1=C(OCC2=CN=CC=C2)C=CC=N1", 
	 "Tm": 378.15, 
	 "num_atms": 26, 
	 "gaussian": { 
		 "optdone": 1, 
		 "sigma_profile": "yes", 
		 "theory": "DFT", 
		 "functional": "B3LYP", 
		 "basiset": "6-31G**", 
		 "properties": { 
			 "R2extent": 5296.6827, 
			 "electric_dipole_moment_norm": 0.998332559822, 
			 "electric_quadrupole_moment_norm": 19.3823002771, 
			 "total_energy": -665.262356928, 
			 "HOMO_LUMO_gap": 0.18037, 
			 "cosmo_polarized_energy": -13.54, 
			 "cosmo_cavitation_energy": 30.9, 
			 "cosmo_dispersion_energy": -22.02, 
			 "cosmo_repulsion_energy": 1.71, 
			 "cosmo_total_nonelectrostatic_energy": 10.59, 
			 "SMD_solvation_energy": 2.39 
		},
		"coords": [
			{
				"x": 2.0631882659,
				"y": -1.9129930141,
				"z": 0.8175058245,
				"element": "N" 
			},
			{
				"x": 2.0055010644,
				"y": -0.7913351925,
				"z": 0.0069240468,
				"element": "C" 
			},
			{
				"x": 0.9115799694,
				"y": -0.6273342931,
				"z": -0.8767007025,
				"element": "C" 
			},
			{
				"x": -0.0319978105,
				"y": -1.6364595017,
				"z": -0.938444685,
				"element": "O" 
			},
			{
				"x": -1.1974515694,
				"y": -1.4022421223,
				"z": -0.1135001429,
				"element": "C" 
			},
			{
				"x": -1.8928573953,
				"y": -2.7138799032,
				"z": 0.1243138169,
				"element": "C" 
			},
			{
				"x": -2.9968640438,
				"y": -3.1023244993,
				"z": -0.6421060645,
				"element": "C" 
			},
			{
				"x": -3.6467842978,
				"y": -4.2622730073,
				"z": -0.4935842079,
				"element": "N" 
			},
			{
				"x": -3.1981359925,
				"y": -5.0972577457,
				"z": 0.4511061371,
				"element": "C" 
			},
			{
				"x": -2.1051563025,
				"y": -4.8165669747,
				"z": 1.2747893077,
				"element": "C" 
			},
			{
				"x": -1.4433548487,
				"y": -3.6035110025,
				"z": 1.1061020818,
				"element": "C" 
			},
			{
				"x": 0.8532071061,
				"y": 0.5072218803,
				"z": -1.6679162008,
				"element": "C" 
			},
			{
				"x": 1.8716983446,
				"y": 1.4629995747,
				"z": -1.5562264993,
				"element": "C" 
			},
			{
				"x": 2.8994770015,
				"y": 1.2168123103,
				"z": -0.6517116932,
				"element": "C" 
			},
			{
				"x": 2.9814493985,
				"y": 0.1159058536,
				"z": 0.1104616059,
				"element": "N" 
			},
			{
				"x": 1.6169802653,
				"y": -2.7322411171,
				"z": 0.427751707,
				"element": "H" 
			},
			{
				"x": 2.9803958827,
				"y": -2.0730225651,
				"z": 1.2119607065,
				"element": "H" 
			},
			{
				"x": -0.8823730744,
				"y": -0.9559748358,
				"z": 0.8374673025,
				"element": "H" 
			},
			{
				"x": -1.8652380076,
				"y": -0.6926282746,
				"z": -0.6191431132,
				"element": "H" 
			},
			{
				"x": -3.3773465105,
				"y": -2.4355749392,
				"z": -1.4157878172,
				"element": "H" 
			},
			{
				"x": -3.7394262503,
				"y": -6.0358680764,
				"z": 0.5576228623,
				"element": "H" 
			},
			{
				"x": -1.7892834697,
				"y": -5.5304438865,
				"z": 2.0291592411,
				"element": "H" 
			},
			{
				"x": -0.5907978837,
				"y": -3.3389046285,
				"z": 1.7274615639,
				"element": "H" 
			},
			{
				"x": 0.0278701747,
				"y": 0.6312153639,
				"z": -2.3630033057,
				"element": "H" 
			},
			{
				"x": 1.8653324821,
				"y": 2.3651983452,
				"z": -2.1583264913,
				"element": "H" 
			},
			{
				"x": 3.7106875015,
				"y": 1.9327822519,
				"z": -0.5327752806,
				"element": "H" 
			}
		],
		 "valence_orbital": [ 
			{
				"type": "occ",
				"energy": -0.27321,
				"method": "rhf"
			},
			{
				"type": "occ",
				"energy": -0.26563,
				"method": "rhf"
			},
			{
				"type": "occ",
				"energy": -0.2574,
				"method": "rhf"
			},
			{
				"type": "occ",
				"energy": -0.25099,
				"method": "rhf"
			},
			{
				"type": "occ",
				"energy": -0.21353,
				"method": "rhf"
			},
			{
				"type": "unocc",
				"energy": -0.03316,
				"method": "rhf"
			},
			{
				"type": "unocc",
				"energy": -0.02169,
				"method": "rhf"
			},
			{
				"type": "unocc",
				"energy": -0.01343,
				"method": "rhf"
			},
			{
				"type": "unocc",
				"energy": 0.00909,
				"method": "rhf"
			},
			{
				"type": "unocc",
				"energy": 0.07974,
				"method": "rhf"
			}
		],
		"cosmo_sigma_profile": { 
			"-0.025": 0.0,
			"-0.024": 0.0,
			"-0.023": 0.0,
			"-0.022": 0.0,
			"-0.021": 0.0,
			"-0.02": 0.0,
			"-0.019": 0.0,
			"-0.018": 0.0,
			"-0.017": 0.0,
			"-0.016": 0.0,
			"-0.015": 0.0,
			"-0.014": 0.0,
			"-0.013": 0.0804492921051,
			"-0.012": 1.07239784505,
			"-0.011": 1.33087886036,
			"-0.01": 2.41733898325,
			"-0.009": 1.67934154758,
			"-0.008": 2.05885524877,
			"-0.007": 6.08539069378,
			"-0.006": 19.3117454929,
			"-0.005": 25.0298210389,
			"-0.004": 20.2692836131,
			"-0.003": 16.9805135592,
			"-0.002": 13.8044212786,
			"-0.001": 13.7932396828,
			"0.0": 12.4767033,
			"0.001": 16.2801858219,
			"0.002": 22.067314332,
			"0.003": 17.8222211496,
			"0.004": 12.3407638242,
			"0.005": 7.43616184627,
			"0.006": 4.96710213968,
			"0.007": 4.52557958251,
			"0.008": 4.75911946559,
			"0.009": 3.45485878279,
			"0.01": 4.12548491801,
			"0.011": 3.30020669885,
			"0.012": 2.48203920962,
			"0.013": 1.87237814551,
			"0.014": 1.46205730233,
			"0.015": 2.02065809441,
			"0.016": 1.17594983316,
			"0.017": 0.320238573136,
			"0.018": 0.0,
			"0.019": 0.0,
			"0.02": 0.0,
			"0.021": 0.0,
			"0.022": 0.0,
			"0.023": 0.0,
			"0.024": 0.0,
			"0.025": 0.0
		}
	}
}
