{
	 "smiles": "CC(C)(C)C1=CC=C(C=C1)C(=O)NC1=CC=C(O)C=C1", 
	 "Tm": 470.15, 
	 "num_atms": 39, 
	 "gaussian": { 
		 "optdone": 1, 
		 "sigma_profile": "yes", 
		 "theory": "DFT", 
		 "functional": "B3LYP", 
		 "basiset": "6-31G**", 
		 "properties": { 
			 "R2extent": 10949.4303, 
			 "electric_dipole_moment_norm": 4.84895854591, 
			 "electric_quadrupole_moment_norm": 27.5047269654, 
			 "total_energy": -864.490901411, 
			 "HOMO_LUMO_gap": 0.1614, 
			 "cosmo_polarized_energy": -18.15, 
			 "cosmo_cavitation_energy": 41.54, 
			 "cosmo_dispersion_energy": -29.83, 
			 "cosmo_repulsion_energy": 2.24, 
			 "cosmo_total_nonelectrostatic_energy": 13.96, 
			 "SMD_solvation_energy": 7.79 
		},
		"coords": [
			{
				"x": 3.5801154961,
				"y": 1.3214701992,
				"z": -3.1986263609,
				"element": "C" 
			},
			{
				"x": 2.2272951608,
				"y": 0.5729721106,
				"z": -3.267707722,
				"element": "C" 
			},
			{
				"x": 2.4648532751,
				"y": -0.8706473858,
				"z": -3.7724210331,
				"element": "C" 
			},
			{
				"x": 1.3282650108,
				"y": 1.2970705576,
				"z": -4.2877393196,
				"element": "C" 
			},
			{
				"x": 1.5991316535,
				"y": 0.5241704399,
				"z": -1.863832681,
				"element": "C" 
			},
			{
				"x": 2.2864636973,
				"y": -0.1017316013,
				"z": -0.8070562666,
				"element": "C" 
			},
			{
				"x": 1.7547115086,
				"y": -0.1646941112,
				"z": 0.4746245605,
				"element": "C" 
			},
			{
				"x": 0.4958756232,
				"y": 0.3850716767,
				"z": 0.7542073281,
				"element": "C" 
			},
			{
				"x": -0.1917507011,
				"y": 1.0245696167,
				"z": -0.2831705239,
				"element": "C" 
			},
			{
				"x": 0.3521604157,
				"y": 1.0908502588,
				"z": -1.5674227211,
				"element": "C" 
			},
			{
				"x": -0.0068686018,
				"y": 0.278956477,
				"z": 2.1666840527,
				"element": "C" 
			},
			{
				"x": 0.7646200404,
				"y": 0.1107823955,
				"z": 3.1073266273,
				"element": "O" 
			},
			{
				"x": -1.37386279,
				"y": 0.3671758989,
				"z": 2.3052473898,
				"element": "N" 
			},
			{
				"x": -2.1491873678,
				"y": 0.323356286,
				"z": 3.485705419,
				"element": "C" 
			},
			{
				"x": -1.5976567517,
				"y": 0.2524115957,
				"z": 4.7763757961,
				"element": "C" 
			},
			{
				"x": -2.4331633287,
				"y": 0.2245311129,
				"z": 5.8887927553,
				"element": "C" 
			},
			{
				"x": -3.8232375367,
				"y": 0.2654077064,
				"z": 5.7446265394,
				"element": "C" 
			},
			{
				"x": -4.5832643193,
				"y": 0.2336853715,
				"z": 6.8826547294,
				"element": "O" 
			},
			{
				"x": -4.3759639262,
				"y": 0.3353354239,
				"z": 4.4627964921,
				"element": "C" 
			},
			{
				"x": -3.5432274192,
				"y": 0.3647562696,
				"z": 3.346770216,
				"element": "C" 
			},
			{
				"x": 3.4419473218,
				"y": 2.3494417298,
				"z": -2.84800928,
				"element": "H" 
			},
			{
				"x": 4.2843426253,
				"y": 0.8297846157,
				"z": -2.5212844218,
				"element": "H" 
			},
			{
				"x": 4.043730578,
				"y": 1.359947833,
				"z": -4.1907387849,
				"element": "H" 
			},
			{
				"x": 2.919371111,
				"y": -0.8541904702,
				"z": -4.7693097311,
				"element": "H" 
			},
			{
				"x": 3.1337112242,
				"y": -1.4291553351,
				"z": -3.1111760227,
				"element": "H" 
			},
			{
				"x": 1.5219164944,
				"y": -1.4233646029,
				"z": -3.8382914971,
				"element": "H" 
			},
			{
				"x": 1.1476495178,
				"y": 2.3395472455,
				"z": -4.0055195567,
				"element": "H" 
			},
			{
				"x": 0.3594802249,
				"y": 0.7998335103,
				"z": -4.4034062826,
				"element": "H" 
			},
			{
				"x": 1.8146869988,
				"y": 1.3018410703,
				"z": -5.2684023574,
				"element": "H" 
			},
			{
				"x": 3.2599756566,
				"y": -0.5480453215,
				"z": -0.9869606401,
				"element": "H" 
			},
			{
				"x": 2.3007261622,
				"y": -0.6371351908,
				"z": 1.2842072232,
				"element": "H" 
			},
			{
				"x": -1.1430725323,
				"y": 1.5174976249,
				"z": -0.0985172684,
				"element": "H" 
			},
			{
				"x": -0.2111540691,
				"y": 1.6044927832,
				"z": -2.3376928965,
				"element": "H" 
			},
			{
				"x": -1.9058659447,
				"y": 0.3763350334,
				"z": 1.4480176069,
				"element": "H" 
			},
			{
				"x": -0.5238613995,
				"y": 0.2136382115,
				"z": 4.8900505434,
				"element": "H" 
			},
			{
				"x": -2.0138398102,
				"y": 0.1688065728,
				"z": 6.8880348301,
				"element": "H" 
			},
			{
				"x": -5.5173049996,
				"y": 0.2656455154,
				"z": 6.6396089203,
				"element": "H" 
			},
			{
				"x": -5.4554350029,
				"y": 0.3678550748,
				"z": 4.3311411723,
				"element": "H" 
			},
			{
				"x": -3.9873132955,
				"y": 0.4212238015,
				"z": 2.3552131656,
				"element": "H" 
			}
		],
		 "valence_orbital": [ 
			{
				"type": "occ",
				"energy": -0.25722,
				"method": "rhf"
			},
			{
				"type": "occ",
				"energy": -0.25421,
				"method": "rhf"
			},
			{
				"type": "occ",
				"energy": -0.25119,
				"method": "rhf"
			},
			{
				"type": "occ",
				"energy": -0.24326,
				"method": "rhf"
			},
			{
				"type": "occ",
				"energy": -0.19895,
				"method": "rhf"
			},
			{
				"type": "unocc",
				"energy": -0.03755,
				"method": "rhf"
			},
			{
				"type": "unocc",
				"energy": -0.00848,
				"method": "rhf"
			},
			{
				"type": "unocc",
				"energy": -0.00163,
				"method": "rhf"
			},
			{
				"type": "unocc",
				"energy": 0.02052,
				"method": "rhf"
			},
			{
				"type": "unocc",
				"energy": 0.06876,
				"method": "rhf"
			}
		],
		"cosmo_sigma_profile": { 
			"-0.025": 0.0,
			"-0.024": 0.0,
			"-0.023": 0.0,
			"-0.022": 0.0,
			"-0.021": 0.0,
			"-0.02": 0.0,
			"-0.019": 0.0,
			"-0.018": 0.438172979786,
			"-0.017": 1.06350823996,
			"-0.016": 0.863508944079,
			"-0.015": 1.20867489452,
			"-0.014": 2.22589946932,
			"-0.013": 2.30210007256,
			"-0.012": 2.99233255193,
			"-0.011": 1.72975928423,
			"-0.01": 2.66072899378,
			"-0.009": 2.50033229428,
			"-0.008": 3.58607368801,
			"-0.007": 4.70949808748,
			"-0.006": 7.73351962391,
			"-0.005": 13.89495927,
			"-0.004": 16.0772157672,
			"-0.003": 26.4079492298,
			"-0.002": 30.7392353538,
			"-0.001": 26.4908887517,
			"0.0": 28.3394207144,
			"0.001": 34.7329736362,
			"0.002": 21.1588193712,
			"0.003": 19.4404775984,
			"0.004": 24.0830702017,
			"0.005": 22.7542678032,
			"0.006": 6.28224331613,
			"0.007": 3.22613669905,
			"0.008": 3.15526206146,
			"0.009": 3.23316155617,
			"0.01": 3.08364816291,
			"0.011": 3.93092673791,
			"0.012": 3.25313591436,
			"0.013": 3.00036834315,
			"0.014": 1.03337132649,
			"0.015": 0.0,
			"0.016": 0.0,
			"0.017": 0.0,
			"0.018": 0.0,
			"0.019": 0.0,
			"0.02": 0.0,
			"0.021": 0.0,
			"0.022": 0.0,
			"0.023": 0.0,
			"0.024": 0.0,
			"0.025": 0.0
		}
	}
}
