{
	 "smiles": "O=C1C(C=CC2=NC3=C(N2)C=CC=C3)=COC2=CC=CC=C12", 
	 "Tm": 533.15, 
	 "num_atms": 34, 
	 "gaussian": { 
		 "optdone": 1, 
		 "sigma_profile": "yes", 
		 "theory": "DFT", 
		 "functional": "B3LYP", 
		 "basiset": "6-31G**", 
		 "properties": { 
			 "R2extent": 11991.6449, 
			 "electric_dipole_moment_norm": 6.01923630455, 
			 "electric_quadrupole_moment_norm": 23.7581081097, 
			 "total_energy": -953.094458411, 
			 "HOMO_LUMO_gap": 0.13617, 
			 "cosmo_polarized_energy": -22.76, 
			 "cosmo_cavitation_energy": 39.83, 
			 "cosmo_dispersion_energy": -29.46, 
			 "cosmo_repulsion_energy": 2.18, 
			 "cosmo_total_nonelectrostatic_energy": 12.54, 
			 "SMD_solvation_energy": 5.7 
		},
		"coords": [
			{
				"x": -0.5934934995,
				"y": 1.3960249361,
				"z": 2.2904428427,
				"element": "O" 
			},
			{
				"x": -0.7353880563,
				"y": 2.3301260365,
				"z": 1.5050343057,
				"element": "C" 
			},
			{
				"x": -0.8084357993,
				"y": 2.1417673977,
				"z": 0.0382415148,
				"element": "C" 
			},
			{
				"x": -0.6824656568,
				"y": 0.7840394819,
				"z": -0.4833108081,
				"element": "C" 
			},
			{
				"x": -0.3413362004,
				"y": 0.440487596,
				"z": -1.7420772953,
				"element": "C" 
			},
			{
				"x": -0.2739923264,
				"y": -0.9351086161,
				"z": -2.1976854817,
				"element": "C" 
			},
			{
				"x": -0.5921875777,
				"y": -2.0113217383,
				"z": -1.5033263694,
				"element": "N" 
			},
			{
				"x": -0.3562938013,
				"y": -3.0766573038,
				"z": -2.3486502395,
				"element": "C" 
			},
			{
				"x": 0.1199543695,
				"y": -2.6206835316,
				"z": -3.6061893027,
				"element": "C" 
			},
			{
				"x": 0.1591254702,
				"y": -1.2464059265,
				"z": -3.4790478772,
				"element": "N" 
			},
			{
				"x": 0.4369223093,
				"y": -3.4905105186,
				"z": -4.651398531,
				"element": "C" 
			},
			{
				"x": 0.2645934344,
				"y": -4.850854657,
				"z": -4.4075979878,
				"element": "C" 
			},
			{
				"x": -0.2079363637,
				"y": -5.3237286516,
				"z": -3.1652158684,
				"element": "C" 
			},
			{
				"x": -0.5222385176,
				"y": -4.4522460126,
				"z": -2.1287362826,
				"element": "C" 
			},
			{
				"x": -1.0318204015,
				"y": 3.2249280442,
				"z": -0.7523672897,
				"element": "C" 
			},
			{
				"x": -1.1392418374,
				"y": 4.5010668828,
				"z": -0.3247250986,
				"element": "O" 
			},
			{
				"x": -1.0344897314,
				"y": 4.7648619005,
				"z": 1.0187024519,
				"element": "C" 
			},
			{
				"x": -1.1367859812,
				"y": 6.1035075399,
				"z": 1.4087517593,
				"element": "C" 
			},
			{
				"x": -1.0460488634,
				"y": 6.411739232,
				"z": 2.7598799286,
				"element": "C" 
			},
			{
				"x": -0.8568018256,
				"y": 5.3985017952,
				"z": 3.7155824976,
				"element": "C" 
			},
			{
				"x": -0.7584060682,
				"y": 4.0755703338,
				"z": 3.3121853166,
				"element": "C" 
			},
			{
				"x": -0.8451418666,
				"y": 3.7362441787,
				"z": 1.9509474227,
				"element": "C" 
			},
			{
				"x": -0.8591460249,
				"y": -0.0063249847,
				"z": 0.2408512829,
				"element": "H" 
			},
			{
				"x": -0.0832100066,
				"y": 1.2017798888,
				"z": -2.4771370613,
				"element": "H" 
			},
			{
				"x": 0.469391957,
				"y": -0.5876195363,
				"z": -4.1760902096,
				"element": "H" 
			},
			{
				"x": 0.8009907756,
				"y": -3.1305425462,
				"z": -5.6091997062,
				"element": "H" 
			},
			{
				"x": 0.4996034604,
				"y": -5.5638930941,
				"z": -5.1922913783,
				"element": "H" 
			},
			{
				"x": -0.3269409693,
				"y": -6.3933909993,
				"z": -3.0200075396,
				"element": "H" 
			},
			{
				"x": -0.8855408782,
				"y": -4.8102030136,
				"z": -1.1709731643,
				"element": "H" 
			},
			{
				"x": -1.1645933885,
				"y": 3.171054297,
				"z": -1.8269597606,
				"element": "H" 
			},
			{
				"x": -1.2852822049,
				"y": 6.8672399515,
				"z": 0.6529876965,
				"element": "H" 
			},
			{
				"x": -1.1233232011,
				"y": 7.4474867735,
				"z": 3.07673215,
				"element": "H" 
			},
			{
				"x": -0.7882676792,
				"y": 5.6546686231,
				"z": 4.7681530451,
				"element": "H" 
			},
			{
				"x": -0.6123730494,
				"y": 3.2668962411,
				"z": 4.0206950379,
				"element": "H" 
			}
		],
		 "valence_orbital": [ 
			{
				"type": "occ",
				"energy": -0.26571,
				"method": "rhf"
			},
			{
				"type": "occ",
				"energy": -0.24869,
				"method": "rhf"
			},
			{
				"type": "occ",
				"energy": -0.24483,
				"method": "rhf"
			},
			{
				"type": "occ",
				"energy": -0.2233,
				"method": "rhf"
			},
			{
				"type": "occ",
				"energy": -0.20203,
				"method": "rhf"
			},
			{
				"type": "unocc",
				"energy": -0.06586,
				"method": "rhf"
			},
			{
				"type": "unocc",
				"energy": -0.05603,
				"method": "rhf"
			},
			{
				"type": "unocc",
				"energy": -0.01291,
				"method": "rhf"
			},
			{
				"type": "unocc",
				"energy": -0.00099,
				"method": "rhf"
			},
			{
				"type": "unocc",
				"energy": 0.02271,
				"method": "rhf"
			}
		],
		"cosmo_sigma_profile": { 
			"-0.025": 0.0,
			"-0.024": 0.0,
			"-0.023": 0.0,
			"-0.022": 0.0,
			"-0.021": 0.0,
			"-0.02": 0.0,
			"-0.019": 0.0,
			"-0.018": 0.0,
			"-0.017": 0.193016415081,
			"-0.016": 1.65813724202,
			"-0.015": 1.69580819136,
			"-0.014": 1.02872722377,
			"-0.013": 1.63062932777,
			"-0.012": 2.05311639391,
			"-0.011": 1.35885153557,
			"-0.01": 4.16332872352,
			"-0.009": 3.96019902549,
			"-0.008": 5.116163944,
			"-0.007": 9.56121312642,
			"-0.006": 14.705510827,
			"-0.005": 17.9644131514,
			"-0.004": 19.6879557892,
			"-0.003": 18.9795033674,
			"-0.002": 19.873196926,
			"-0.001": 21.5305553895,
			"0.0": 22.1480346337,
			"0.001": 26.6834429942,
			"0.002": 26.5473066405,
			"0.003": 26.9145144187,
			"0.004": 17.5578178474,
			"0.005": 14.9334478764,
			"0.006": 12.8128402267,
			"0.007": 5.02289107259,
			"0.008": 2.75009086068,
			"0.009": 2.12439244105,
			"0.01": 3.11355797816,
			"0.011": 3.43914321927,
			"0.012": 5.1497947949,
			"0.013": 4.42656456215,
			"0.014": 1.11630133683,
			"0.015": 0.754794895947,
			"0.016": 0.791868955447,
			"0.017": 0.0911470867815,
			"0.018": 0.0,
			"0.019": 0.0,
			"0.02": 0.0,
			"0.021": 0.0,
			"0.022": 0.0,
			"0.023": 0.0,
			"0.024": 0.0,
			"0.025": 0.0
		}
	}
}
