{
	 "smiles": "BrC1=C2ON=CC2=CC=C1", 
	 "Tm": 353.15, 
	 "num_atms": 14, 
	 "gaussian": { 
		 "optdone": 1, 
		 "sigma_profile": "yes", 
		 "theory": "DFT", 
		 "functional": "B3LYP", 
		 "basiset": "6-31G**", 
		 "properties": { 
			 "R2extent": 3210.7864, 
			 "electric_dipole_moment_norm": 3.89516570636, 
			 "electric_quadrupole_moment_norm": 8.62625015462, 
			 "total_energy": -2970.48041374, 
			 "HOMO_LUMO_gap": 0.18953, 
			 "cosmo_polarized_energy": -8.07, 
			 "cosmo_cavitation_energy": 21.02, 
			 "cosmo_dispersion_energy": -16.27, 
			 "cosmo_repulsion_energy": 1.3, 
			 "cosmo_total_nonelectrostatic_energy": 6.05, 
			 "SMD_solvation_energy": 2.47 
		},
		"coords": [
			{
				"x": 2.4511910005,
				"y": -3.054124464,
				"z": 0.058280573,
				"element": "Br" 
			},
			{
				"x": 1.080242714,
				"y": -1.7547145217,
				"z": -0.1117783771,
				"element": "C" 
			},
			{
				"x": 1.1169232604,
				"y": -0.7998846036,
				"z": -1.1299254827,
				"element": "C" 
			},
			{
				"x": 2.0559571566,
				"y": -0.6492451172,
				"z": -2.0891576677,
				"element": "O" 
			},
			{
				"x": 1.6854155182,
				"y": 0.4432560693,
				"z": -2.9008481179,
				"element": "N" 
			},
			{
				"x": 0.5643217558,
				"y": 0.9072810664,
				"z": -2.4211651247,
				"element": "C" 
			},
			{
				"x": 0.1150923285,
				"y": 0.1699862876,
				"z": -1.2748408789,
				"element": "C" 
			},
			{
				"x": -0.9712597953,
				"y": 0.2113982487,
				"z": -0.3879460183,
				"element": "C" 
			},
			{
				"x": -1.0103947002,
				"y": -0.7368547116,
				"z": 0.625443448,
				"element": "C" 
			},
			{
				"x": 0.0023404846,
				"y": -1.709259279,
				"z": 0.7636664622,
				"element": "C" 
			},
			{
				"x": 0.1019381632,
				"y": 1.7585381507,
				"z": -2.9051187034,
				"element": "H" 
			},
			{
				"x": -1.7526920924,
				"y": 0.9572215365,
				"z": -0.4898974776,
				"element": "H" 
			},
			{
				"x": -1.8332911727,
				"y": -0.7400813776,
				"z": 1.3330135483,
				"element": "H" 
			},
			{
				"x": -0.0554846212,
				"y": -2.4371172846,
				"z": 1.5653738168,
				"element": "H" 
			}
		],
		 "valence_orbital": [ 
			{
				"type": "occ",
				"energy": -0.31903,
				"method": "rhf"
			},
			{
				"type": "occ",
				"energy": -0.30481,
				"method": "rhf"
			},
			{
				"type": "occ",
				"energy": -0.29586,
				"method": "rhf"
			},
			{
				"type": "occ",
				"energy": -0.26753,
				"method": "rhf"
			},
			{
				"type": "occ",
				"energy": -0.24637,
				"method": "rhf"
			},
			{
				"type": "unocc",
				"energy": -0.05684,
				"method": "rhf"
			},
			{
				"type": "unocc",
				"energy": -0.0119,
				"method": "rhf"
			},
			{
				"type": "unocc",
				"energy": -0.00154,
				"method": "rhf"
			},
			{
				"type": "unocc",
				"energy": 0.02812,
				"method": "rhf"
			},
			{
				"type": "unocc",
				"energy": 0.07849,
				"method": "rhf"
			}
		],
		"cosmo_sigma_profile": { 
			"-0.025": 0.0,
			"-0.024": 0.0,
			"-0.023": 0.0,
			"-0.022": 0.0,
			"-0.021": 0.0,
			"-0.02": 0.0,
			"-0.019": 0.0,
			"-0.018": 0.0,
			"-0.017": 0.0,
			"-0.016": 0.0,
			"-0.015": 0.0,
			"-0.014": 0.0,
			"-0.013": 0.0,
			"-0.012": 0.0,
			"-0.011": 0.421751556259,
			"-0.01": 2.12373910302,
			"-0.009": 1.68815338671,
			"-0.008": 5.09188368985,
			"-0.007": 8.72363626063,
			"-0.006": 8.55998068062,
			"-0.005": 7.94933759186,
			"-0.004": 7.9799717597,
			"-0.003": 6.71702918996,
			"-0.002": 9.88023617937,
			"-0.001": 15.0507051127,
			"0.0": 16.8742638378,
			"0.001": 16.9948248672,
			"0.002": 16.334497658,
			"0.003": 14.591541184,
			"0.004": 11.7713493444,
			"0.005": 3.58652622099,
			"0.006": 3.78477132904,
			"0.007": 5.03493074102,
			"0.008": 3.93849610648,
			"0.009": 1.55492202628,
			"0.01": 1.36587922826,
			"0.011": 1.32308242388,
			"0.012": 1.34497133634,
			"0.013": 0.910730812081,
			"0.014": 0.098334073586,
			"0.015": 0.0,
			"0.016": 0.0,
			"0.017": 0.0,
			"0.018": 0.0,
			"0.019": 0.0,
			"0.02": 0.0,
			"0.021": 0.0,
			"0.022": 0.0,
			"0.023": 0.0,
			"0.024": 0.0,
			"0.025": 0.0
		}
	}
}
