{
	 "smiles": "N1N=CN=C1C1=CN=CC=C1", 
	 "Tm": 447.15, 
	 "num_atms": 17, 
	 "gaussian": { 
		 "optdone": 1, 
		 "sigma_profile": "yes", 
		 "theory": "DFT", 
		 "functional": "B3LYP", 
		 "basiset": "6-31G**", 
		 "properties": { 
			 "R2extent": 1889.4574, 
			 "electric_dipole_moment_norm": 1.16897177468, 
			 "electric_quadrupole_moment_norm": 7.23461899619, 
			 "total_energy": -489.348582358, 
			 "HOMO_LUMO_gap": 0.1918, 
			 "cosmo_polarized_energy": -13.51, 
			 "cosmo_cavitation_energy": 21.83, 
			 "cosmo_dispersion_energy": -16.53, 
			 "cosmo_repulsion_energy": 1.29, 
			 "cosmo_total_nonelectrostatic_energy": 6.59, 
			 "SMD_solvation_energy": 0.14 
		},
		"coords": [
			{
				"x": 0.2715485166,
				"y": -0.2210110589,
				"z": -2.2225783328,
				"element": "N" 
			},
			{
				"x": 1.0715447455,
				"y": -0.1401094872,
				"z": -3.3142502523,
				"element": "N" 
			},
			{
				"x": 2.2504321892,
				"y": 0.1185825848,
				"z": -2.7646243678,
				"element": "C" 
			},
			{
				"x": 2.254649761,
				"y": 0.2066491807,
				"z": -1.4085986661,
				"element": "N" 
			},
			{
				"x": 0.9836268405,
				"y": -0.0130040153,
				"z": -1.083604727,
				"element": "C" 
			},
			{
				"x": 0.4436768323,
				"y": -0.0276631313,
				"z": 0.2768486781,
				"element": "C" 
			},
			{
				"x": -0.9106123361,
				"y": -0.2658269839,
				"z": 0.5574878884,
				"element": "C" 
			},
			{
				"x": -1.4276576789,
				"y": -0.2846016538,
				"z": 1.787574239,
				"element": "N" 
			},
			{
				"x": -0.5931754338,
				"y": -0.0609746874,
				"z": 2.8105596887,
				"element": "C" 
			},
			{
				"x": 0.772297439,
				"y": 0.1869654548,
				"z": 2.6486784457,
				"element": "C" 
			},
			{
				"x": 1.3001701579,
				"y": 0.204197121,
				"z": 1.3633779017,
				"element": "C" 
			},
			{
				"x": -0.7110185709,
				"y": -0.4146778256,
				"z": -2.3425651862,
				"element": "H" 
			},
			{
				"x": 3.1381485363,
				"y": 0.2476958201,
				"z": -3.3680886447,
				"element": "H" 
			},
			{
				"x": -1.6212245038,
				"y": -0.4520141912,
				"z": -0.2477895171,
				"element": "H" 
			},
			{
				"x": -1.0368689246,
				"y": -0.0810786746,
				"z": 3.803975878,
				"element": "H" 
			},
			{
				"x": 1.4038436611,
				"y": 0.3620306108,
				"z": 3.5138297592,
				"element": "H" 
			},
			{
				"x": 2.3520187687,
				"y": 0.3910409371,
				"z": 1.1752672151,
				"element": "H" 
			}
		],
		 "valence_orbital": [ 
			{
				"type": "occ",
				"energy": -0.30075,
				"method": "rhf"
			},
			{
				"type": "occ",
				"energy": -0.29052,
				"method": "rhf"
			},
			{
				"type": "occ",
				"energy": -0.28389,
				"method": "rhf"
			},
			{
				"type": "occ",
				"energy": -0.26784,
				"method": "rhf"
			},
			{
				"type": "occ",
				"energy": -0.24689,
				"method": "rhf"
			},
			{
				"type": "unocc",
				"energy": -0.05509,
				"method": "rhf"
			},
			{
				"type": "unocc",
				"energy": -0.03387,
				"method": "rhf"
			},
			{
				"type": "unocc",
				"energy": 0.02695,
				"method": "rhf"
			},
			{
				"type": "unocc",
				"energy": 0.05441,
				"method": "rhf"
			},
			{
				"type": "unocc",
				"energy": 0.05885,
				"method": "rhf"
			}
		],
		"cosmo_sigma_profile": { 
			"-0.025": 0.0,
			"-0.024": 0.0,
			"-0.023": 0.0,
			"-0.022": 0.0,
			"-0.021": 0.0,
			"-0.02": 0.0,
			"-0.019": 0.0,
			"-0.018": 0.60925934303,
			"-0.017": 1.39905453458,
			"-0.016": 1.53002377698,
			"-0.015": 1.26773748753,
			"-0.014": 1.79321117982,
			"-0.013": 1.41290138292,
			"-0.012": 0.446116511538,
			"-0.011": 1.34067692221,
			"-0.01": 1.49797178871,
			"-0.009": 1.85693776071,
			"-0.008": 4.35304651449,
			"-0.007": 7.41526257484,
			"-0.006": 9.36737642559,
			"-0.005": 8.67395742899,
			"-0.004": 7.6595355628,
			"-0.003": 7.43598048599,
			"-0.002": 8.91808472729,
			"-0.001": 11.8757869587,
			"0.0": 14.990938087,
			"0.001": 18.7030430269,
			"0.002": 13.8405613611,
			"0.003": 7.14918386086,
			"0.004": 6.10844855658,
			"0.005": 4.22025672783,
			"0.006": 4.19835307484,
			"0.007": 5.3321808177,
			"0.008": 2.62891531223,
			"0.009": 2.88795713467,
			"0.01": 3.79741464635,
			"0.011": 2.39283786775,
			"0.012": 3.51196562028,
			"0.013": 3.11840668944,
			"0.014": 2.90798233984,
			"0.015": 1.28669934412,
			"0.016": 0.558408783241,
			"0.017": 0.0327623195401,
			"0.018": 0.0,
			"0.019": 0.0,
			"0.02": 0.0,
			"0.021": 0.0,
			"0.022": 0.0,
			"0.023": 0.0,
			"0.024": 0.0,
			"0.025": 0.0
		}
	}
}
