{
	 "smiles": "CC(OC1=CC=CC=C1)C(O)=O", 
	 "Tm": 391.15, 
	 "num_atms": 22, 
	 "gaussian": { 
		 "optdone": 1, 
		 "sigma_profile": "yes", 
		 "theory": "DFT", 
		 "functional": "B3LYP", 
		 "basiset": "6-31G**", 
		 "properties": { 
			 "R2extent": 2291.6607, 
			 "electric_dipole_moment_norm": 2.41437661934, 
			 "electric_quadrupole_moment_norm": 9.78575298942, 
			 "total_energy": -574.655541321, 
			 "HOMO_LUMO_gap": 0.22717, 
			 "cosmo_polarized_energy": -10.92, 
			 "cosmo_cavitation_energy": 25.82, 
			 "cosmo_dispersion_energy": -18.67, 
			 "cosmo_repulsion_energy": 1.5, 
			 "cosmo_total_nonelectrostatic_energy": 8.66, 
			 "SMD_solvation_energy": 5.75 
		},
		"coords": [
			{
				"x": 0.6121036604,
				"y": 1.1931761456,
				"z": 1.9391953747,
				"element": "C" 
			},
			{
				"x": 1.1600156243,
				"y": -0.1930389898,
				"z": 1.5763380064,
				"element": "C" 
			},
			{
				"x": 1.3981365726,
				"y": -0.3984340864,
				"z": 0.1898546387,
				"element": "O" 
			},
			{
				"x": 0.5740002813,
				"y": 0.1691081555,
				"z": -0.7684332938,
				"element": "C" 
			},
			{
				"x": 1.1748405146,
				"y": 1.0516846175,
				"z": -1.6710514471,
				"element": "C" 
			},
			{
				"x": 0.4224035593,
				"y": 1.6070769058,
				"z": -2.7059872175,
				"element": "C" 
			},
			{
				"x": -0.9319263773,
				"y": 1.2928648167,
				"z": -2.837220283,
				"element": "C" 
			},
			{
				"x": -1.5234395887,
				"y": 0.4071604667,
				"z": -1.9342370868,
				"element": "C" 
			},
			{
				"x": -0.777520068,
				"y": -0.1658276527,
				"z": -0.9019385294,
				"element": "C" 
			},
			{
				"x": 0.2951283328,
				"y": -1.3059148065,
				"z": 2.1778469098,
				"element": "C" 
			},
			{
				"x": 0.4282453921,
				"y": -1.3175428786,
				"z": 3.5272075048,
				"element": "O" 
			},
			{
				"x": -0.4145614404,
				"y": -2.0847049245,
				"z": 1.5850554777,
				"element": "O" 
			},
			{
				"x": 0.5808681965,
				"y": 1.3007270084,
				"z": 3.0258120225,
				"element": "H" 
			},
			{
				"x": -0.3937891745,
				"y": 1.3450983133,
				"z": 1.5410326209,
				"element": "H" 
			},
			{
				"x": 1.266080417,
				"y": 1.9651028967,
				"z": 1.5256943496,
				"element": "H" 
			},
			{
				"x": 2.1464321865,
				"y": -0.3047304202,
				"z": 2.0413834364,
				"element": "H" 
			},
			{
				"x": 2.2285187397,
				"y": 1.2829011239,
				"z": -1.5511457337,
				"element": "H" 
			},
			{
				"x": 0.8951994304,
				"y": 2.2898045931,
				"z": -3.4064549747,
				"element": "H" 
			},
			{
				"x": -1.5189761718,
				"y": 1.728353415,
				"z": -3.6403520855,
				"element": "H" 
			},
			{
				"x": -2.5731623083,
				"y": 0.1465599238,
				"z": -2.0381087489,
				"element": "H" 
			},
			{
				"x": -1.2165244222,
				"y": -0.8840302051,
				"z": -0.2201228005,
				"element": "H" 
			},
			{
				"x": -0.146773356,
				"y": -2.0307944183,
				"z": 3.8521318594,
				"element": "H" 
			}
		],
		 "valence_orbital": [ 
			{
				"type": "occ",
				"energy": -0.32701,
				"method": "rhf"
			},
			{
				"type": "occ",
				"energy": -0.29669,
				"method": "rhf"
			},
			{
				"type": "occ",
				"energy": -0.27454,
				"method": "rhf"
			},
			{
				"type": "occ",
				"energy": -0.24668,
				"method": "rhf"
			},
			{
				"type": "occ",
				"energy": -0.2289,
				"method": "rhf"
			},
			{
				"type": "unocc",
				"energy": -0.00173,
				"method": "rhf"
			},
			{
				"type": "unocc",
				"energy": 0.00174,
				"method": "rhf"
			},
			{
				"type": "unocc",
				"energy": 0.00775,
				"method": "rhf"
			},
			{
				"type": "unocc",
				"energy": 0.06862,
				"method": "rhf"
			},
			{
				"type": "unocc",
				"energy": 0.09705,
				"method": "rhf"
			}
		],
		"cosmo_sigma_profile": { 
			"-0.025": 0.0,
			"-0.024": 0.0,
			"-0.023": 0.0,
			"-0.022": 0.0,
			"-0.021": 0.0,
			"-0.02": 0.0,
			"-0.019": 0.177088205148,
			"-0.018": 0.980481682114,
			"-0.017": 0.826367226278,
			"-0.016": 1.09948610246,
			"-0.015": 0.686799476381,
			"-0.014": 0.466839619686,
			"-0.013": 0.653294465191,
			"-0.012": 0.490201525934,
			"-0.011": 0.975983853254,
			"-0.01": 0.801789193649,
			"-0.009": 0.454243119077,
			"-0.008": 1.07409682737,
			"-0.007": 3.42275798196,
			"-0.006": 7.44818433778,
			"-0.005": 13.574244147,
			"-0.004": 19.131471099,
			"-0.003": 19.9692565542,
			"-0.002": 14.6656164391,
			"-0.001": 16.8800147485,
			"0.0": 13.1549678371,
			"0.001": 10.8828684495,
			"0.002": 9.43784273329,
			"0.003": 11.3465102667,
			"0.004": 13.4246228251,
			"0.005": 12.2837098617,
			"0.006": 8.25985097382,
			"0.007": 3.42986385624,
			"0.008": 4.27554768526,
			"0.009": 4.33850363819,
			"0.01": 4.77139445854,
			"0.011": 5.03080262471,
			"0.012": 0.453365085903,
			"0.013": 0.0,
			"0.014": 0.0,
			"0.015": 0.0,
			"0.016": 0.0,
			"0.017": 0.0,
			"0.018": 0.0,
			"0.019": 0.0,
			"0.02": 0.0,
			"0.021": 0.0,
			"0.022": 0.0,
			"0.023": 0.0,
			"0.024": 0.0,
			"0.025": 0.0
		}
	}
}
