{
	 "smiles": "COCCCOC1=CC(=CC=C1)C(O)=O", 
	 "Tm": 355.15, 
	 "num_atms": 29, 
	 "gaussian": { 
		 "optdone": 1, 
		 "sigma_profile": "yes", 
		 "theory": "DFT", 
		 "functional": "B3LYP", 
		 "basiset": "6-31G**", 
		 "properties": { 
			 "R2extent": 6031.4942, 
			 "electric_dipole_moment_norm": 3.88652986738, 
			 "electric_quadrupole_moment_norm": 26.9437629317, 
			 "total_energy": -728.491494663, 
			 "HOMO_LUMO_gap": 0.18803, 
			 "cosmo_polarized_energy": -16.47, 
			 "cosmo_cavitation_energy": 33.36, 
			 "cosmo_dispersion_energy": -24.07, 
			 "cosmo_repulsion_energy": 1.93, 
			 "cosmo_total_nonelectrostatic_energy": 11.21, 
			 "SMD_solvation_energy": 7.4 
		},
		"coords": [
			{
				"x": -0.4976004466,
				"y": -5.4315364521,
				"z": 1.9779826057,
				"element": "C" 
			},
			{
				"x": -0.6496876074,
				"y": -4.7629214344,
				"z": 0.7449115163,
				"element": "O" 
			},
			{
				"x": 0.0789128434,
				"y": -3.5519206764,
				"z": 0.6842410057,
				"element": "C" 
			},
			{
				"x": -0.1874128775,
				"y": -2.9114194176,
				"z": -0.6737942029,
				"element": "C" 
			},
			{
				"x": 0.5887258833,
				"y": -1.6225721476,
				"z": -0.8956817085,
				"element": "C" 
			},
			{
				"x": 0.1452553073,
				"y": -0.6661267451,
				"z": 0.0736450667,
				"element": "O" 
			},
			{
				"x": 0.7077916689,
				"y": 0.5719611761,
				"z": 0.0780618749,
				"element": "C" 
			},
			{
				"x": 1.6940001908,
				"y": 0.9980978871,
				"z": -0.8141654495,
				"element": "C" 
			},
			{
				"x": 2.1959715867,
				"y": 2.3049283565,
				"z": -0.7276450916,
				"element": "C" 
			},
			{
				"x": 1.7338489611,
				"y": 3.1759219465,
				"z": 0.2647232665,
				"element": "C" 
			},
			{
				"x": 0.7517450441,
				"y": 2.738901456,
				"z": 1.1589968591,
				"element": "C" 
			},
			{
				"x": 0.2347319146,
				"y": 1.4533575248,
				"z": 1.0660827442,
				"element": "C" 
			},
			{
				"x": 3.2540422041,
				"y": 2.6877839778,
				"z": -1.7207567085,
				"element": "C" 
			},
			{
				"x": 3.4516268972,
				"y": 4.018147339,
				"z": -1.9196350432,
				"element": "O" 
			},
			{
				"x": 3.9137699619,
				"y": 1.8815414,
				"z": -2.3345577599,
				"element": "O" 
			},
			{
				"x": -1.0967188748,
				"y": -6.3441678397,
				"z": 1.9299418153,
				"element": "H" 
			},
			{
				"x": 0.5522202323,
				"y": -5.7062141903,
				"z": 2.1694832159,
				"element": "H" 
			},
			{
				"x": -0.8502932076,
				"y": -4.819000393,
				"z": 2.8231628942,
				"element": "H" 
			},
			{
				"x": 1.1600203804,
				"y": -3.7438224221,
				"z": 0.8099284143,
				"element": "H" 
			},
			{
				"x": -0.2262654886,
				"y": -2.8710139711,
				"z": 1.4941791834,
				"element": "H" 
			},
			{
				"x": -1.2602112931,
				"y": -2.7167626794,
				"z": -0.7772163355,
				"element": "H" 
			},
			{
				"x": 0.0898051915,
				"y": -3.6216352244,
				"z": -1.4612817378,
				"element": "H" 
			},
			{
				"x": 1.6695731795,
				"y": -1.7888548082,
				"z": -0.7829862409,
				"element": "H" 
			},
			{
				"x": 0.4103380102,
				"y": -1.2356634855,
				"z": -1.9076228293,
				"element": "H" 
			},
			{
				"x": 2.0984956461,
				"y": 0.3528584485,
				"z": -1.5831410096,
				"element": "H" 
			},
			{
				"x": 2.1568501341,
				"y": 4.1697231646,
				"z": 0.3845863174,
				"element": "H" 
			},
			{
				"x": 0.3937672652,
				"y": 3.4054946766,
				"z": 1.9377603666,
				"element": "H" 
			},
			{
				"x": -0.5302333369,
				"y": 1.1005450502,
				"z": 1.7499374864,
				"element": "H" 
			},
			{
				"x": 2.7502306297,
				"y": 4.5243694831,
				"z": -1.4867405154,
				"element": "H" 
			}
		],
		 "valence_orbital": [ 
			{
				"type": "occ",
				"energy": -0.31397,
				"method": "rhf"
			},
			{
				"type": "occ",
				"energy": -0.27632,
				"method": "rhf"
			},
			{
				"type": "occ",
				"energy": -0.26437,
				"method": "rhf"
			},
			{
				"type": "occ",
				"energy": -0.25623,
				"method": "rhf"
			},
			{
				"type": "occ",
				"energy": -0.23749,
				"method": "rhf"
			},
			{
				"type": "unocc",
				"energy": -0.04946,
				"method": "rhf"
			},
			{
				"type": "unocc",
				"energy": -0.00995,
				"method": "rhf"
			},
			{
				"type": "unocc",
				"energy": 0.05223,
				"method": "rhf"
			},
			{
				"type": "unocc",
				"energy": 0.06364,
				"method": "rhf"
			},
			{
				"type": "unocc",
				"energy": 0.08933,
				"method": "rhf"
			}
		],
		"cosmo_sigma_profile": { 
			"-0.025": 0.0,
			"-0.024": 0.0,
			"-0.023": 0.0,
			"-0.022": 0.0,
			"-0.021": 0.0,
			"-0.02": 0.0,
			"-0.019": 0.0353624521476,
			"-0.018": 0.585409972143,
			"-0.017": 1.16238136298,
			"-0.016": 0.717429436183,
			"-0.015": 1.10027225928,
			"-0.014": 0.908249784606,
			"-0.013": 1.03164626901,
			"-0.012": 1.01786766406,
			"-0.011": 1.22549015529,
			"-0.01": 0.944880652774,
			"-0.009": 1.2749375887,
			"-0.008": 1.44914614086,
			"-0.007": 4.45702832145,
			"-0.006": 10.9439594877,
			"-0.005": 17.9534116371,
			"-0.004": 23.7269176251,
			"-0.003": 28.0605864797,
			"-0.002": 25.4745992422,
			"-0.001": 20.8194548819,
			"0.0": 13.8655205998,
			"0.001": 12.6785820993,
			"0.002": 16.0422018325,
			"0.003": 18.3393257665,
			"0.004": 11.1199619815,
			"0.005": 4.89679418689,
			"0.006": 6.46255608764,
			"0.007": 4.65697336142,
			"0.008": 4.78487300068,
			"0.009": 5.36169623758,
			"0.01": 5.53606258719,
			"0.011": 6.52152477016,
			"0.012": 6.59941761321,
			"0.013": 3.2621952039,
			"0.014": 0.216219426507,
			"0.015": 0.0,
			"0.016": 0.0,
			"0.017": 0.0,
			"0.018": 0.0,
			"0.019": 0.0,
			"0.02": 0.0,
			"0.021": 0.0,
			"0.022": 0.0,
			"0.023": 0.0,
			"0.024": 0.0,
			"0.025": 0.0
		}
	}
}
