{
	 "smiles": "CCCCCCCCCCCCCO", 
	 "Tm": 306.35, 
	 "num_atms": 42, 
	 "gaussian": { 
		 "optdone": 1, 
		 "sigma_profile": "yes", 
		 "theory": "DFT", 
		 "functional": "B3LYP", 
		 "basiset": "6-31G**", 
		 "properties": { 
			 "R2extent": 5880.9677, 
			 "electric_dipole_moment_norm": 1.5878559475, 
			 "electric_quadrupole_moment_norm": 7.79507712213, 
			 "total_energy": -587.503129603, 
			 "HOMO_LUMO_gap": 0.32603, 
			 "cosmo_polarized_energy": -6.18, 
			 "cosmo_cavitation_energy": 40.78, 
			 "cosmo_dispersion_energy": -27.51, 
			 "cosmo_repulsion_energy": 2.28, 
			 "cosmo_total_nonelectrostatic_energy": 15.54, 
			 "SMD_solvation_energy": 5.57 
		},
		"coords": [
			{
				"x": 3.1348152331,
				"y": 2.0353345397,
				"z": 2.8224811783,
				"element": "C" 
			},
			{
				"x": 1.6362734229,
				"y": 1.9995529739,
				"z": 2.498598358,
				"element": "C" 
			},
			{
				"x": 1.266566208,
				"y": 2.571994715,
				"z": 1.1196891986,
				"element": "C" 
			},
			{
				"x": 1.8167703037,
				"y": 1.7736841178,
				"z": -0.0721760049,
				"element": "C" 
			},
			{
				"x": 1.3737446851,
				"y": 2.3210781607,
				"z": -1.4435870738,
				"element": "C" 
			},
			{
				"x": -0.1070935192,
				"y": 2.0799503236,
				"z": -1.8222107148,
				"element": "C" 
			},
			{
				"x": -0.3732281074,
				"y": 0.8425424957,
				"z": -2.6996603981,
				"element": "C" 
			},
			{
				"x": -0.0336345931,
				"y": -0.5112221585,
				"z": -2.0604236391,
				"element": "C" 
			},
			{
				"x": -0.3355403627,
				"y": -1.728517362,
				"z": -2.9532416232,
				"element": "C" 
			},
			{
				"x": -1.8088747587,
				"y": -2.0000367929,
				"z": -3.3170369635,
				"element": "C" 
			},
			{
				"x": -2.7391208991,
				"y": -2.3593179841,
				"z": -2.1376815743,
				"element": "C" 
			},
			{
				"x": -3.4783007369,
				"y": -1.1761431023,
				"z": -1.4954641875,
				"element": "C" 
			},
			{
				"x": -4.3439837407,
				"y": -1.5861849185,
				"z": -0.3014213856,
				"element": "C" 
			},
			{
				"x": -3.5984772389,
				"y": -2.1857821806,
				"z": 0.7538101491,
				"element": "O" 
			},
			{
				"x": 3.7178133288,
				"y": 1.415866627,
				"z": 2.1334267711,
				"element": "H" 
			},
			{
				"x": 3.3274751447,
				"y": 1.667414374,
				"z": 3.8357229069,
				"element": "H" 
			},
			{
				"x": 3.5266713812,
				"y": 3.0574888704,
				"z": 2.7607490173,
				"element": "H" 
			},
			{
				"x": 1.0935589232,
				"y": 2.5625357986,
				"z": 3.2689025793,
				"element": "H" 
			},
			{
				"x": 1.2729888467,
				"y": 0.9647036026,
				"z": 2.5684956868,
				"element": "H" 
			},
			{
				"x": 1.6244596874,
				"y": 3.6097975994,
				"z": 1.051274682,
				"element": "H" 
			},
			{
				"x": 0.1723171913,
				"y": 2.6265055326,
				"z": 1.0481377906,
				"element": "H" 
			},
			{
				"x": 2.9131989524,
				"y": 1.7798290819,
				"z": -0.0345161271,
				"element": "H" 
			},
			{
				"x": 1.5158951467,
				"y": 0.7227216942,
				"z": 0.0291253604,
				"element": "H" 
			},
			{
				"x": 2.0129907045,
				"y": 1.8926347656,
				"z": -2.227230342,
				"element": "H" 
			},
			{
				"x": 1.5779346335,
				"y": 3.3999660819,
				"z": -1.4557908893,
				"element": "H" 
			},
			{
				"x": -0.7196786461,
				"y": 2.0163647605,
				"z": -0.9122764444,
				"element": "H" 
			},
			{
				"x": -0.4823899606,
				"y": 2.9557597665,
				"z": -2.3657721629,
				"element": "H" 
			},
			{
				"x": -1.4315471668,
				"y": 0.8527288331,
				"z": -2.9900127987,
				"element": "H" 
			},
			{
				"x": 0.1949637877,
				"y": 0.9427577099,
				"z": -3.6361102699,
				"element": "H" 
			},
			{
				"x": -0.5600108975,
				"y": -0.6102368611,
				"z": -1.1012787719,
				"element": "H" 
			},
			{
				"x": 1.035302407,
				"y": -0.5352540935,
				"z": -1.8147759274,
				"element": "H" 
			},
			{
				"x": 0.0630346357,
				"y": -2.6259950109,
				"z": -2.4608909186,
				"element": "H" 
			},
			{
				"x": 0.2345704959,
				"y": -1.6209675563,
				"z": -3.8867875748,
				"element": "H" 
			},
			{
				"x": -1.8096145086,
				"y": -2.8371158462,
				"z": -4.0262763148,
				"element": "H" 
			},
			{
				"x": -2.2275868908,
				"y": -1.1496048622,
				"z": -3.8718186058,
				"element": "H" 
			},
			{
				"x": -3.4988479911,
				"y": -3.0714334357,
				"z": -2.4870668909,
				"element": "H" 
			},
			{
				"x": -2.1741625696,
				"y": -2.8881741257,
				"z": -1.360432657,
				"element": "H" 
			},
			{
				"x": -4.1230644365,
				"y": -0.6911466786,
				"z": -2.24206132,
				"element": "H" 
			},
			{
				"x": -2.7674358601,
				"y": -0.4052027039,
				"z": -1.1675931814,
				"element": "H" 
			},
			{
				"x": -4.9161815747,
				"y": -0.7175655445,
				"z": 0.0624995534,
				"element": "H" 
			},
			{
				"x": -5.072229694,
				"y": -2.3455373777,
				"z": -0.6089073385,
				"element": "H" 
			},
			{
				"x": -2.9706409666,
				"y": -1.5265738295,
				"z": 1.0774888682,
				"element": "H" 
			}
		],
		 "valence_orbital": [ 
			{
				"type": "occ",
				"energy": -0.30772,
				"method": "rhf"
			},
			{
				"type": "occ",
				"energy": -0.30397,
				"method": "rhf"
			},
			{
				"type": "occ",
				"energy": -0.29843,
				"method": "rhf"
			},
			{
				"type": "occ",
				"energy": -0.29708,
				"method": "rhf"
			},
			{
				"type": "occ",
				"energy": -0.26101,
				"method": "rhf"
			},
			{
				"type": "unocc",
				"energy": 0.06502,
				"method": "rhf"
			},
			{
				"type": "unocc",
				"energy": 0.08624,
				"method": "rhf"
			},
			{
				"type": "unocc",
				"energy": 0.09145,
				"method": "rhf"
			},
			{
				"type": "unocc",
				"energy": 0.10279,
				"method": "rhf"
			},
			{
				"type": "unocc",
				"energy": 0.10872,
				"method": "rhf"
			}
		],
		"cosmo_sigma_profile": { 
			"-0.025": 0.0,
			"-0.024": 0.0,
			"-0.023": 0.0,
			"-0.022": 0.0,
			"-0.021": 0.0,
			"-0.02": 0.0,
			"-0.019": 0.0,
			"-0.018": 0.0,
			"-0.017": 0.0,
			"-0.016": 0.0,
			"-0.015": 0.254935796371,
			"-0.014": 1.01881710042,
			"-0.013": 1.04244216138,
			"-0.012": 0.567940203423,
			"-0.011": 1.26184495315,
			"-0.01": 0.638678722687,
			"-0.009": 1.178510583,
			"-0.008": 0.82601968095,
			"-0.007": 0.807089194193,
			"-0.006": 1.10114983676,
			"-0.005": 1.42651976973,
			"-0.004": 2.4221091546,
			"-0.003": 10.7579628794,
			"-0.002": 38.3603123667,
			"-0.001": 70.9564196122,
			"0.0": 72.8737476587,
			"0.001": 59.9579448342,
			"0.002": 26.7868463225,
			"0.003": 1.76309777212,
			"0.004": 1.55652922864,
			"0.005": 1.61000638128,
			"0.006": 1.3793922352,
			"0.007": 1.1328366194,
			"0.008": 1.60516455178,
			"0.009": 1.04203524964,
			"0.01": 1.82479149263,
			"0.011": 1.03731022,
			"0.012": 0.678378766967,
			"0.013": 1.90410930749,
			"0.014": 1.66906693573,
			"0.015": 1.80396411765,
			"0.016": 0.0388212570441,
			"0.017": 0.0,
			"0.018": 0.0,
			"0.019": 0.0,
			"0.02": 0.0,
			"0.021": 0.0,
			"0.022": 0.0,
			"0.023": 0.0,
			"0.024": 0.0,
			"0.025": 0.0
		}
	}
}
