{
	 "smiles": "CC(=O)C1=COC=C1", 
	 "Tm": 326.15, 
	 "num_atms": 14, 
	 "gaussian": { 
		 "optdone": 1, 
		 "sigma_profile": "yes", 
		 "theory": "DFT", 
		 "functional": "B3LYP", 
		 "basiset": "6-31G**", 
		 "properties": { 
			 "R2extent": 1415.4294, 
			 "electric_dipole_moment_norm": 3.05347676592, 
			 "electric_quadrupole_moment_norm": 8.77320467332, 
			 "total_energy": -382.67125098, 
			 "HOMO_LUMO_gap": 0.2006, 
			 "cosmo_polarized_energy": -8.3, 
			 "cosmo_cavitation_energy": 18.58, 
			 "cosmo_dispersion_energy": -13.58, 
			 "cosmo_repulsion_energy": 1.12, 
			 "cosmo_total_nonelectrostatic_energy": 6.12, 
			 "SMD_solvation_energy": 5.49 
		},
		"coords": [
			{
				"x": 1.585583454,
				"y": -3.6165674387,
				"z": -0.109353258,
				"element": "C" 
			},
			{
				"x": 0.5143086911,
				"y": -2.7716954261,
				"z": 0.555621695,
				"element": "C" 
			},
			{
				"x": -0.1272970485,
				"y": -3.1853374513,
				"z": 1.5108782806,
				"element": "O" 
			},
			{
				"x": 0.2711250723,
				"y": -1.4202323658,
				"z": 0.0041699147,
				"element": "C" 
			},
			{
				"x": -0.6607751698,
				"y": -0.5444562612,
				"z": 0.4970815988,
				"element": "C" 
			},
			{
				"x": -0.6547249848,
				"y": 0.6082359126,
				"z": -0.2078196925,
				"element": "O" 
			},
			{
				"x": 0.3018753468,
				"y": 0.4805393956,
				"z": -1.1809399761,
				"element": "C" 
			},
			{
				"x": 0.8990926856,
				"y": -0.7359162089,
				"z": -1.0999140744,
				"element": "C" 
			},
			{
				"x": 2.5572049141,
				"y": -3.1107617756,
				"z": -0.0678431788,
				"element": "H" 
			},
			{
				"x": 1.6528373535,
				"y": -4.5786852872,
				"z": 0.3994611721,
				"element": "H" 
			},
			{
				"x": 1.3491733322,
				"y": -3.7768535643,
				"z": -1.1676667588,
				"element": "H" 
			},
			{
				"x": -1.3629886649,
				"y": -0.6173024453,
				"z": 1.3122824537,
				"element": "H" 
			},
			{
				"x": 0.4240388256,
				"y": 1.3324690361,
				"z": -1.8311135034,
				"element": "H" 
			},
			{
				"x": 1.6864461927,
				"y": -1.1061361199,
				"z": -1.7402446729,
				"element": "H" 
			}
		],
		 "valence_orbital": [ 
			{
				"type": "occ",
				"energy": -0.37326,
				"method": "rhf"
			},
			{
				"type": "occ",
				"energy": -0.35988,
				"method": "rhf"
			},
			{
				"type": "occ",
				"energy": -0.28828,
				"method": "rhf"
			},
			{
				"type": "occ",
				"energy": -0.24721,
				"method": "rhf"
			},
			{
				"type": "occ",
				"energy": -0.24154,
				"method": "rhf"
			},
			{
				"type": "unocc",
				"energy": -0.04094,
				"method": "rhf"
			},
			{
				"type": "unocc",
				"energy": 0.01145,
				"method": "rhf"
			},
			{
				"type": "unocc",
				"energy": 0.09887,
				"method": "rhf"
			},
			{
				"type": "unocc",
				"energy": 0.10212,
				"method": "rhf"
			},
			{
				"type": "unocc",
				"energy": 0.12174,
				"method": "rhf"
			}
		],
		"cosmo_sigma_profile": { 
			"-0.025": 0.0,
			"-0.024": 0.0,
			"-0.023": 0.0,
			"-0.022": 0.0,
			"-0.021": 0.0,
			"-0.02": 0.0,
			"-0.019": 0.0,
			"-0.018": 0.0,
			"-0.017": 0.0,
			"-0.016": 0.0,
			"-0.015": 0.0,
			"-0.014": 0.0,
			"-0.013": 0.0,
			"-0.012": 0.0,
			"-0.011": 0.0,
			"-0.01": 0.798350022199,
			"-0.009": 3.37052005245,
			"-0.008": 3.71416783269,
			"-0.007": 4.7510790382,
			"-0.006": 8.60501445111,
			"-0.005": 12.6849622328,
			"-0.004": 10.4918897192,
			"-0.003": 9.69001896758,
			"-0.002": 9.43959441963,
			"-0.001": 12.070104281,
			"0.0": 9.5362445529,
			"0.001": 10.9461459924,
			"0.002": 11.4892096694,
			"0.003": 9.36503277612,
			"0.004": 6.08684289475,
			"0.005": 3.50474576573,
			"0.006": 3.7530227959,
			"0.007": 2.34743085489,
			"0.008": 1.98940715375,
			"0.009": 2.30899190568,
			"0.01": 1.64739394509,
			"0.011": 2.72882258158,
			"0.012": 4.53527622074,
			"0.013": 2.41116871281,
			"0.014": 0.431319195391,
			"0.015": 0.0,
			"0.016": 0.0,
			"0.017": 0.0,
			"0.018": 0.0,
			"0.019": 0.0,
			"0.02": 0.0,
			"0.021": 0.0,
			"0.022": 0.0,
			"0.023": 0.0,
			"0.024": 0.0,
			"0.025": 0.0
		}
	}
}
