{
	 "smiles": "OC(=O)C1=C(C2CC2)N(N=N1)C1=CC=C(Br)C=C1", 
	 "Tm": 450.15, 
	 "num_atms": 28, 
	 "gaussian": { 
		 "optdone": 1, 
		 "sigma_profile": "yes", 
		 "theory": "DFT", 
		 "functional": "B3LYP", 
		 "basiset": "6-31G**", 
		 "properties": { 
			 "R2extent": 9351.7361, 
			 "electric_dipole_moment_norm": 3.19017618792, 
			 "electric_quadrupole_moment_norm": 9.24015417079, 
			 "total_energy": -3349.3530899, 
			 "HOMO_LUMO_gap": 0.19686, 
			 "cosmo_polarized_energy": -17.4, 
			 "cosmo_cavitation_energy": 35.3, 
			 "cosmo_dispersion_energy": -25.28, 
			 "cosmo_repulsion_energy": 1.97, 
			 "cosmo_total_nonelectrostatic_energy": 11.99, 
			 "SMD_solvation_energy": 4.14 
		},
		"coords": [
			{
				"x": 1.4793352449,
				"y": -3.7219498869,
				"z": 2.2444876908,
				"element": "O" 
			},
			{
				"x": 1.3723130341,
				"y": -3.1088757869,
				"z": 1.0469043159,
				"element": "C" 
			},
			{
				"x": 1.4312886482,
				"y": -3.710718398,
				"z": -0.0099828503,
				"element": "O" 
			},
			{
				"x": 1.1831910896,
				"y": -1.6543842356,
				"z": 1.1672822723,
				"element": "C" 
			},
			{
				"x": 0.9670220549,
				"y": -0.7452810565,
				"z": 0.1349546432,
				"element": "C" 
			},
			{
				"x": 0.8116286636,
				"y": -0.9390360002,
				"z": -1.3250389122,
				"element": "C" 
			},
			{
				"x": -0.3839253145,
				"y": -0.3757987377,
				"z": -2.0714160519,
				"element": "C" 
			},
			{
				"x": -0.2628454772,
				"y": -1.858263734,
				"z": -1.854203939,
				"element": "C" 
			},
			{
				"x": 0.8937253068,
				"y": 0.4516429106,
				"z": 0.7895944826,
				"element": "N" 
			},
			{
				"x": 1.0391082083,
				"y": 0.2742924697,
				"z": 2.146615599,
				"element": "N" 
			},
			{
				"x": 1.2100193102,
				"y": -0.9866333678,
				"z": 2.360456144,
				"element": "N" 
			},
			{
				"x": 0.7046468315,
				"y": 1.7738376838,
				"z": 0.2955655913,
				"element": "C" 
			},
			{
				"x": -0.1225980224,
				"y": 2.6447813699,
				"z": 1.0116466027,
				"element": "C" 
			},
			{
				"x": -0.3013508171,
				"y": 3.9523275388,
				"z": 0.5670052954,
				"element": "C" 
			},
			{
				"x": 0.3430634256,
				"y": 4.3756502444,
				"z": -0.5954431651,
				"element": "C" 
			},
			{
				"x": 0.0883754031,
				"y": 6.1620690591,
				"z": -1.2140004002,
				"element": "Br" 
			},
			{
				"x": 1.1739796018,
				"y": 3.5145149815,
				"z": -1.3106737408,
				"element": "C" 
			},
			{
				"x": 1.3624931445,
				"y": 2.2100214263,
				"z": -0.8573537107,
				"element": "C" 
			},
			{
				"x": 1.6121696877,
				"y": -4.6632061398,
				"z": 2.0433053531,
				"element": "H" 
			},
			{
				"x": 1.7525834383,
				"y": -0.9669901413,
				"z": -1.8714619222,
				"element": "H" 
			},
			{
				"x": -1.1322309813,
				"y": 0.1621797096,
				"z": -1.4979668346,
				"element": "H" 
			},
			{
				"x": -0.2106904164,
				"y": 0.0279661353,
				"z": -3.0639737032,
				"element": "H" 
			},
			{
				"x": 0.0023535177,
				"y": -2.4964518785,
				"z": -2.6898126709,
				"element": "H" 
			},
			{
				"x": -0.9219987685,
				"y": -2.3243774886,
				"z": -1.1301876934,
				"element": "H" 
			},
			{
				"x": -0.6106649515,
				"y": 2.2948469057,
				"z": 1.9135520924,
				"element": "H" 
			},
			{
				"x": -0.9404150499,
				"y": 4.6336928623,
				"z": 1.1163144162,
				"element": "H" 
			},
			{
				"x": 1.6794470222,
				"y": 3.8605956958,
				"z": -2.2046015732,
				"element": "H" 
			},
			{
				"x": 2.0276761658,
				"y": 1.5435478592,
				"z": -1.3930673313,
				"element": "H" 
			}
		],
		 "valence_orbital": [ 
			{
				"type": "occ",
				"energy": -0.28328,
				"method": "rhf"
			},
			{
				"type": "occ",
				"energy": -0.27691,
				"method": "rhf"
			},
			{
				"type": "occ",
				"energy": -0.27256,
				"method": "rhf"
			},
			{
				"type": "occ",
				"energy": -0.26737,
				"method": "rhf"
			},
			{
				"type": "occ",
				"energy": -0.25034,
				"method": "rhf"
			},
			{
				"type": "unocc",
				"energy": -0.05348,
				"method": "rhf"
			},
			{
				"type": "unocc",
				"energy": -0.03349,
				"method": "rhf"
			},
			{
				"type": "unocc",
				"energy": -0.02751,
				"method": "rhf"
			},
			{
				"type": "unocc",
				"energy": -0.0059,
				"method": "rhf"
			},
			{
				"type": "unocc",
				"energy": -0.00032,
				"method": "rhf"
			}
		],
		"cosmo_sigma_profile": { 
			"-0.025": 0.0,
			"-0.024": 0.0,
			"-0.023": 0.0,
			"-0.022": 0.0,
			"-0.021": 0.0,
			"-0.02": 0.0,
			"-0.019": 0.118413189101,
			"-0.018": 0.865458450692,
			"-0.017": 0.865139102642,
			"-0.016": 0.765106128253,
			"-0.015": 0.75295393816,
			"-0.014": 0.858121548836,
			"-0.013": 0.424337185563,
			"-0.012": 0.681269987993,
			"-0.011": 1.26990008746,
			"-0.01": 0.473783461806,
			"-0.009": 0.892069198526,
			"-0.008": 6.45805082269,
			"-0.007": 12.0108631944,
			"-0.006": 13.4523125131,
			"-0.005": 19.9728659156,
			"-0.004": 19.9321735968,
			"-0.003": 19.1922189982,
			"-0.002": 20.1671315151,
			"-0.001": 18.7891964315,
			"0.0": 19.0899588993,
			"0.001": 26.8890842989,
			"0.002": 23.0197849473,
			"0.003": 14.2574956029,
			"0.004": 16.0634749532,
			"0.005": 6.08393263788,
			"0.006": 4.49760894368,
			"0.007": 4.19428460924,
			"0.008": 5.3127257342,
			"0.009": 5.8040579187,
			"0.01": 6.4922776026,
			"0.011": 6.4905225586,
			"0.012": 5.97837738213,
			"0.013": 1.68028799975,
			"0.014": 1.58598217778,
			"0.015": 0.51444422644,
			"0.016": 0.0,
			"0.017": 0.0,
			"0.018": 0.0,
			"0.019": 0.0,
			"0.02": 0.0,
			"0.021": 0.0,
			"0.022": 0.0,
			"0.023": 0.0,
			"0.024": 0.0,
			"0.025": 0.0
		}
	}
}
