{
	 "smiles": "CCCCC(CN1C=NC=N1)(C#N)C1=CC=C(Cl)C=C1", 
	 "Tm": 344.05, 
	 "num_atms": 37, 
	 "gaussian": { 
		 "optdone": 1, 
		 "sigma_profile": "yes", 
		 "theory": "DFT", 
		 "functional": "B3LYP", 
		 "basiset": "6-31G**", 
		 "properties": { 
			 "R2extent": 7025.2556, 
			 "electric_dipole_moment_norm": 1.30741223415, 
			 "electric_quadrupole_moment_norm": 13.2534171552, 
			 "total_energy": -1260.99786597, 
			 "HOMO_LUMO_gap": 0.22363, 
			 "cosmo_polarized_energy": -16.02, 
			 "cosmo_cavitation_energy": 40.65, 
			 "cosmo_dispersion_energy": -27.08, 
			 "cosmo_repulsion_energy": 2.09, 
			 "cosmo_total_nonelectrostatic_energy": 15.65, 
			 "SMD_solvation_energy": 5.48 
		},
		"coords": [
			{
				"x": 1.6208291471,
				"y": 3.1526752288,
				"z": -1.7367071091,
				"element": "C" 
			},
			{
				"x": 0.5242561793,
				"y": 2.2775273689,
				"z": -1.1203754494,
				"element": "C" 
			},
			{
				"x": -0.2169440834,
				"y": 1.4525063957,
				"z": -2.1797870359,
				"element": "C" 
			},
			{
				"x": -1.3892893478,
				"y": 0.5690622774,
				"z": -1.710151345,
				"element": "C" 
			},
			{
				"x": -1.0662820492,
				"y": -0.8228375232,
				"z": -1.0092570734,
				"element": "C" 
			},
			{
				"x": -1.3303624477,
				"y": -0.8258560235,
				"z": 0.5482239081,
				"element": "C" 
			},
			{
				"x": -0.8176047453,
				"y": 0.2693440591,
				"z": 1.3575357979,
				"element": "N" 
			},
			{
				"x": 0.1650749596,
				"y": 0.2655183671,
				"z": 2.2952785028,
				"element": "C" 
			},
			{
				"x": 0.2011101721,
				"y": 1.4172822841,
				"z": 2.9387268168,
				"element": "N" 
			},
			{
				"x": -0.8217615344,
				"y": 2.1084479381,
				"z": 2.3611678645,
				"element": "C" 
			},
			{
				"x": -1.4790900384,
				"y": 1.4582661097,
				"z": 1.4126524938,
				"element": "N" 
			},
			{
				"x": -2.1041194547,
				"y": -1.7680449882,
				"z": -1.4839340686,
				"element": "C" 
			},
			{
				"x": -2.9418475493,
				"y": -2.4907619112,
				"z": -1.8363718102,
				"element": "N" 
			},
			{
				"x": 0.3070650378,
				"y": -1.3935467934,
				"z": -1.4179484476,
				"element": "C" 
			},
			{
				"x": 1.4649398003,
				"y": -1.1492931194,
				"z": -0.6686025858,
				"element": "C" 
			},
			{
				"x": 2.7072553876,
				"y": -1.645166775,
				"z": -1.0659400717,
				"element": "C" 
			},
			{
				"x": 2.8007748401,
				"y": -2.3945550794,
				"z": -2.2359898071,
				"element": "C" 
			},
			{
				"x": 4.3581586344,
				"y": -3.0241907982,
				"z": -2.7430514045,
				"element": "Cl" 
			},
			{
				"x": 1.6680033855,
				"y": -2.6491940703,
				"z": -3.0068633352,
				"element": "C" 
			},
			{
				"x": 0.4344930437,
				"y": -2.149287703,
				"z": -2.5932986935,
				"element": "C" 
			},
			{
				"x": 2.3764593959,
				"y": 2.5434167418,
				"z": -2.2458271341,
				"element": "H" 
			},
			{
				"x": 2.1320799372,
				"y": 3.7467481129,
				"z": -0.9725461377,
				"element": "H" 
			},
			{
				"x": 1.2056622016,
				"y": 3.8478410408,
				"z": -2.475612046,
				"element": "H" 
			},
			{
				"x": 0.9724790045,
				"y": 1.6221157414,
				"z": -0.3655015333,
				"element": "H" 
			},
			{
				"x": -0.196163403,
				"y": 2.9054192042,
				"z": -0.5848926126,
				"element": "H" 
			},
			{
				"x": 0.5001756859,
				"y": 0.8441836555,
				"z": -2.7436569805,
				"element": "H" 
			},
			{
				"x": -0.6436643769,
				"y": 2.1537830839,
				"z": -2.9096103378,
				"element": "H" 
			},
			{
				"x": -1.9806705791,
				"y": 0.330487329,
				"z": -2.5988420717,
				"element": "H" 
			},
			{
				"x": -2.0433873888,
				"y": 1.136051293,
				"z": -1.0414858599,
				"element": "H" 
			},
			{
				"x": -2.4118407928,
				"y": -0.8233122979,
				"z": 0.6959519947,
				"element": "H" 
			},
			{
				"x": -0.9377233803,
				"y": -1.7556984498,
				"z": 0.9659594827,
				"element": "H" 
			},
			{
				"x": 0.802368325,
				"y": -0.5891911074,
				"z": 2.4765958327,
				"element": "H" 
			},
			{
				"x": -1.0949672427,
				"y": 3.1135258047,
				"z": 2.6516514178,
				"element": "H" 
			},
			{
				"x": 1.4205831622,
				"y": -0.5537257744,
				"z": 0.2331703607,
				"element": "H" 
			},
			{
				"x": 3.5928514222,
				"y": -1.447548662,
				"z": -0.4722486384,
				"element": "H" 
			},
			{
				"x": 1.7465578152,
				"y": -3.2360111636,
				"z": -3.9152169778,
				"element": "H" 
			},
			{
				"x": -0.4422591235,
				"y": -2.367479796,
				"z": -3.1945959056,
				"element": "H" 
			}
		],
		 "valence_orbital": [ 
			{
				"type": "occ",
				"energy": -0.30411,
				"method": "rhf"
			},
			{
				"type": "occ",
				"energy": -0.29033,
				"method": "rhf"
			},
			{
				"type": "occ",
				"energy": -0.28006,
				"method": "rhf"
			},
			{
				"type": "occ",
				"energy": -0.27892,
				"method": "rhf"
			},
			{
				"type": "occ",
				"energy": -0.25867,
				"method": "rhf"
			},
			{
				"type": "unocc",
				"energy": -0.03504,
				"method": "rhf"
			},
			{
				"type": "unocc",
				"energy": -0.03206,
				"method": "rhf"
			},
			{
				"type": "unocc",
				"energy": -0.01754,
				"method": "rhf"
			},
			{
				"type": "unocc",
				"energy": 0.01443,
				"method": "rhf"
			},
			{
				"type": "unocc",
				"energy": 0.02419,
				"method": "rhf"
			}
		],
		"cosmo_sigma_profile": { 
			"-0.025": 0.0555127919292,
			"-0.024": 0.0478974828206,
			"-0.023": 0.0257229669,
			"-0.022": 0.0295690023502,
			"-0.021": 0.003314831947,
			"-0.02": 0.0612160862762,
			"-0.019": 0.00256096077684,
			"-0.018": 0.0,
			"-0.017": 0.00086878199406,
			"-0.016": 0.0117842412915,
			"-0.015": 0.0124591577144,
			"-0.014": 0.0234538150287,
			"-0.013": 0.0131755679713,
			"-0.012": 0.250619189755,
			"-0.011": 2.29548890164,
			"-0.01": 3.82618493705,
			"-0.009": 4.90099258057,
			"-0.008": 8.10577461257,
			"-0.007": 13.2626552849,
			"-0.006": 15.0413583559,
			"-0.005": 13.8477467276,
			"-0.004": 12.9638747715,
			"-0.003": 17.7661368607,
			"-0.002": 28.4698375691,
			"-0.001": 31.5216711165,
			"0.0": 28.7729155324,
			"0.001": 35.7182677229,
			"0.002": 26.8516966629,
			"0.003": 18.0382658115,
			"0.004": 16.2350248816,
			"0.005": 8.49161738071,
			"0.006": 4.91791713696,
			"0.007": 4.73273778232,
			"0.008": 5.29341261489,
			"0.009": 3.97008027248,
			"0.01": 5.65003348434,
			"0.011": 4.37503865167,
			"0.012": 4.12474327148,
			"0.013": 2.49899756392,
			"0.014": 1.28614292708,
			"0.015": 0.825847317389,
			"0.016": 1.04473502308,
			"0.017": 0.0892945415097,
			"0.018": 0.0,
			"0.019": 0.0,
			"0.02": 0.0,
			"0.021": 0.0,
			"0.022": 0.0,
			"0.023": 0.0,
			"0.024": 0.0,
			"0.025": 0.0
		}
	}
}
