{
	 "smiles": "CC1=CC=CC(=C1)P(C1=CC(C)=CC=C1)C1=CC(C)=CC=C1", 
	 "Tm": 375.15, 
	 "num_atms": 43, 
	 "gaussian": { 
		 "optdone": 1, 
		 "sigma_profile": "yes", 
		 "theory": "DFT", 
		 "functional": "B3LYP", 
		 "basiset": "6-31G**", 
		 "properties": { 
			 "R2extent": 8869.4166, 
			 "electric_dipole_moment_norm": 1.82932526905, 
			 "electric_quadrupole_moment_norm": 7.02979010426, 
			 "total_energy": -1154.26458332, 
			 "HOMO_LUMO_gap": 0.191, 
			 "cosmo_polarized_energy": -8.06, 
			 "cosmo_cavitation_energy": 47.22, 
			 "cosmo_dispersion_energy": -31.76, 
			 "cosmo_repulsion_energy": 2.59, 
			 "cosmo_total_nonelectrostatic_energy": 18.05, 
			 "SMD_solvation_energy": 8.12 
		},
		"coords": [
			{
				"x": 1.9241589344,
				"y": 1.6661820098,
				"z": -2.8176863008,
				"element": "C" 
			},
			{
				"x": 2.0033215206,
				"y": 2.080072128,
				"z": -1.3661187412,
				"element": "C" 
			},
			{
				"x": 2.9541203146,
				"y": 3.0153681635,
				"z": -0.9372234897,
				"element": "C" 
			},
			{
				"x": 3.0019259632,
				"y": 3.421808701,
				"z": 0.3965458011,
				"element": "C" 
			},
			{
				"x": 2.0979901653,
				"y": 2.9005675373,
				"z": 1.3213676141,
				"element": "C" 
			},
			{
				"x": 1.146403904,
				"y": 1.9477434,
				"z": 0.9232811645,
				"element": "C" 
			},
			{
				"x": 1.1117725806,
				"y": 1.5527823461,
				"z": -0.4220683709,
				"element": "C" 
			},
			{
				"x": -0.0108581783,
				"y": 1.3234051165,
				"z": 2.2296018617,
				"element": "P" 
			},
			{
				"x": -1.3571182568,
				"y": 0.5295337489,
				"z": 1.2328680979,
				"element": "C" 
			},
			{
				"x": -1.3719027663,
				"y": -0.8205717933,
				"z": 0.8525977861,
				"element": "C" 
			},
			{
				"x": -2.4320701007,
				"y": -1.3649952371,
				"z": 0.1153290323,
				"element": "C" 
			},
			{
				"x": -2.4436485526,
				"y": -2.830807261,
				"z": -0.2533877793,
				"element": "C" 
			},
			{
				"x": -3.4905601085,
				"y": -0.5241469332,
				"z": -0.2529842388,
				"element": "C" 
			},
			{
				"x": -3.4939980226,
				"y": 0.8206161334,
				"z": 0.1182188491,
				"element": "C" 
			},
			{
				"x": -2.4397949804,
				"y": 1.3446463281,
				"z": 0.8654957692,
				"element": "C" 
			},
			{
				"x": 0.9023808209,
				"y": -0.1387316464,
				"z": 2.9106445654,
				"element": "C" 
			},
			{
				"x": 0.4611362469,
				"y": -0.6393260314,
				"z": 4.1472346734,
				"element": "C" 
			},
			{
				"x": 1.0786200014,
				"y": -1.7312166163,
				"z": 4.7662657003,
				"element": "C" 
			},
			{
				"x": 0.5669601598,
				"y": -2.2724443464,
				"z": 6.0812082763,
				"element": "C" 
			},
			{
				"x": 2.1833049022,
				"y": -2.3161176889,
				"z": 4.1304095012,
				"element": "C" 
			},
			{
				"x": 2.6443459484,
				"y": -1.8246014208,
				"z": 2.9103076374,
				"element": "C" 
			},
			{
				"x": 2.0087380479,
				"y": -0.7424370166,
				"z": 2.2971296937,
				"element": "C" 
			},
			{
				"x": 1.4628742033,
				"y": 0.6804886274,
				"z": -2.9283508201,
				"element": "H" 
			},
			{
				"x": 2.9159988174,
				"y": 1.6310035176,
				"z": -3.2794913105,
				"element": "H" 
			},
			{
				"x": 1.3210626936,
				"y": 2.3750129539,
				"z": -3.3989869353,
				"element": "H" 
			},
			{
				"x": 3.6580286744,
				"y": 3.4311833126,
				"z": -1.6543991837,
				"element": "H" 
			},
			{
				"x": 3.7414286356,
				"y": 4.1519104858,
				"z": 0.7141626084,
				"element": "H" 
			},
			{
				"x": 2.1285260483,
				"y": 3.2334849872,
				"z": 2.3556977777,
				"element": "H" 
			},
			{
				"x": 0.3756700471,
				"y": 0.8220245229,
				"z": -0.7450795623,
				"element": "H" 
			},
			{
				"x": -0.5437780874,
				"y": -1.4639805502,
				"z": 1.1364217139,
				"element": "H" 
			},
			{
				"x": -1.4326604037,
				"y": -3.2482471091,
				"z": -0.2666624246,
				"element": "H" 
			},
			{
				"x": -3.0283751101,
				"y": -3.4157977703,
				"z": 0.4676913264,
				"element": "H" 
			},
			{
				"x": -2.8912430357,
				"y": -2.9930267116,
				"z": -1.2391484409,
				"element": "H" 
			},
			{
				"x": -4.3194445698,
				"y": -0.9275579756,
				"z": -0.8300259094,
				"element": "H" 
			},
			{
				"x": -4.3240828477,
				"y": 1.459964828,
				"z": -0.1698966271,
				"element": "H" 
			},
			{
				"x": -2.4557609825,
				"y": 2.3889613561,
				"z": 1.1667667904,
				"element": "H" 
			},
			{
				"x": -0.3813255864,
				"y": -0.1604178924,
				"z": 4.6424308101,
				"element": "H" 
			},
			{
				"x": 1.3898759536,
				"y": -2.5198666584,
				"z": 6.7599036118,
				"element": "H" 
			},
			{
				"x": -0.0157450932,
				"y": -3.1901913543,
				"z": 5.9329671999,
				"element": "H" 
			},
			{
				"x": -0.0817024485,
				"y": -1.5506175981,
				"z": 6.5854086563,
				"element": "H" 
			},
			{
				"x": 2.689201215,
				"y": -3.1562994781,
				"z": 4.6005595499,
				"element": "H" 
			},
			{
				"x": 3.5060164309,
				"y": -2.2843632401,
				"z": 2.433408072,
				"element": "H" 
			},
			{
				"x": 2.3771069018,
				"y": -0.3653978747,
				"z": 1.3485859939,
				"element": "H" 
			}
		],
		 "valence_orbital": [ 
			{
				"type": "occ",
				"energy": -0.24812,
				"method": "rhf"
			},
			{
				"type": "occ",
				"energy": -0.24121,
				"method": "rhf"
			},
			{
				"type": "occ",
				"energy": -0.23826,
				"method": "rhf"
			},
			{
				"type": "occ",
				"energy": -0.23563,
				"method": "rhf"
			},
			{
				"type": "occ",
				"energy": -0.20712,
				"method": "rhf"
			},
			{
				"type": "unocc",
				"energy": -0.01612,
				"method": "rhf"
			},
			{
				"type": "unocc",
				"energy": -0.01595,
				"method": "rhf"
			},
			{
				"type": "unocc",
				"energy": -0.00434,
				"method": "rhf"
			},
			{
				"type": "unocc",
				"energy": 0.00366,
				"method": "rhf"
			},
			{
				"type": "unocc",
				"energy": 0.0078,
				"method": "rhf"
			}
		],
		"cosmo_sigma_profile": { 
			"-0.025": 0.0,
			"-0.024": 0.0,
			"-0.023": 0.0,
			"-0.022": 0.0,
			"-0.021": 0.0,
			"-0.02": 0.0,
			"-0.019": 0.0,
			"-0.018": 0.0,
			"-0.017": 0.0,
			"-0.016": 0.0,
			"-0.015": 0.0,
			"-0.014": 0.0,
			"-0.013": 0.0,
			"-0.012": 0.0,
			"-0.011": 0.0,
			"-0.01": 0.0,
			"-0.009": 0.0,
			"-0.008": 0.0,
			"-0.007": 0.0,
			"-0.006": 3.89545523299,
			"-0.005": 19.4032862881,
			"-0.004": 40.194424727,
			"-0.003": 43.2296308777,
			"-0.002": 35.3918744646,
			"-0.001": 38.2719105686,
			"0.0": 45.8630407759,
			"0.001": 30.4244426606,
			"0.002": 23.3155225235,
			"0.003": 27.2369291683,
			"0.004": 25.1697360575,
			"0.005": 24.083105422,
			"0.006": 13.6806608581,
			"0.007": 0.915610965957,
			"0.008": 0.996903706098,
			"0.009": 0.627989454438,
			"0.01": 0.718631208028,
			"0.011": 0.363076003639,
			"0.012": 0.859991950256,
			"0.013": 0.623804423303,
			"0.014": 0.355423322532,
			"0.015": 0.0,
			"0.016": 0.0,
			"0.017": 0.0,
			"0.018": 0.0,
			"0.019": 0.0,
			"0.02": 0.0,
			"0.021": 0.0,
			"0.022": 0.0,
			"0.023": 0.0,
			"0.024": 0.0,
			"0.025": 0.0
		}
	}
}
