{
	 "smiles": "NC(=O)NCCCC(O)=O", 
	 "Tm": 445.15, 
	 "num_atms": 20, 
	 "gaussian": { 
		 "optdone": 1, 
		 "sigma_profile": "yes", 
		 "theory": "DFT", 
		 "functional": "B3LYP", 
		 "basiset": "6-31G**", 
		 "properties": { 
			 "R2extent": 3317.1189, 
			 "electric_dipole_moment_norm": 2.15807212113, 
			 "electric_quadrupole_moment_norm": 24.8683820953, 
			 "total_energy": -531.765819825, 
			 "HOMO_LUMO_gap": 0.25661, 
			 "cosmo_polarized_energy": -26.5, 
			 "cosmo_cavitation_energy": 24.46, 
			 "cosmo_dispersion_energy": -17.3, 
			 "cosmo_repulsion_energy": 1.46, 
			 "cosmo_total_nonelectrostatic_energy": 8.62, 
			 "SMD_solvation_energy": 5.99 
		},
		"coords": [
			{
				"x": 0.7791528971,
				"y": -1.8807255005,
				"z": 2.0384717589,
				"element": "N" 
			},
			{
				"x": 0.6428660671,
				"y": -2.9843388938,
				"z": 1.2075865283,
				"element": "C" 
			},
			{
				"x": 0.8136104545,
				"y": -4.1295866917,
				"z": 1.6020769504,
				"element": "O" 
			},
			{
				"x": 0.3259882994,
				"y": -2.7053113849,
				"z": -0.1116454947,
				"element": "N" 
			},
			{
				"x": 0.4392892027,
				"y": -1.4070491825,
				"z": -0.7665615389,
				"element": "C" 
			},
			{
				"x": -0.8930606111,
				"y": -0.6426031685,
				"z": -0.854386888,
				"element": "C" 
			},
			{
				"x": -1.9429114165,
				"y": -1.3766765492,
				"z": -1.7107967504,
				"element": "C" 
			},
			{
				"x": -3.2781684947,
				"y": -0.6463005692,
				"z": -1.7084336373,
				"element": "C" 
			},
			{
				"x": -4.0481687205,
				"y": -0.8325956182,
				"z": -0.5984499749,
				"element": "O" 
			},
			{
				"x": -3.6495718999,
				"y": 0.0945828207,
				"z": -2.5826065149,
				"element": "O" 
			},
			{
				"x": 0.2446399246,
				"y": -1.0454494392,
				"z": 1.8505069292,
				"element": "H" 
			},
			{
				"x": 0.836420225,
				"y": -2.1379757025,
				"z": 3.0131436183,
				"element": "H" 
			},
			{
				"x": 0.3864797551,
				"y": -3.5350833726,
				"z": -0.6833049989,
				"element": "H" 
			},
			{
				"x": 1.1820647543,
				"y": -0.7975845225,
				"z": -0.2396483316,
				"element": "H" 
			},
			{
				"x": 0.8296670117,
				"y": -1.5673937654,
				"z": -1.7778046748,
				"element": "H" 
			},
			{
				"x": -1.2913386094,
				"y": -0.4841188804,
				"z": 0.1571877075,
				"element": "H" 
			},
			{
				"x": -0.7103306333,
				"y": 0.3519215571,
				"z": -1.277577286,
				"element": "H" 
			},
			{
				"x": -1.6060810666,
				"y": -1.4337891446,
				"z": -2.7491111261,
				"element": "H" 
			},
			{
				"x": -2.0646797043,
				"y": -2.4005587276,
				"z": -1.335022355,
				"element": "H" 
			},
			{
				"x": -3.6430674353,
				"y": -1.4886632645,
				"z": -0.0140239212,
				"element": "H" 
			}
		],
		 "valence_orbital": [ 
			{
				"type": "occ",
				"energy": -0.31893,
				"method": "rhf"
			},
			{
				"type": "occ",
				"energy": -0.28152,
				"method": "rhf"
			},
			{
				"type": "occ",
				"energy": -0.2741,
				"method": "rhf"
			},
			{
				"type": "occ",
				"energy": -0.26507,
				"method": "rhf"
			},
			{
				"type": "occ",
				"energy": -0.25439,
				"method": "rhf"
			},
			{
				"type": "unocc",
				"energy": 0.00222,
				"method": "rhf"
			},
			{
				"type": "unocc",
				"energy": 0.03316,
				"method": "rhf"
			},
			{
				"type": "unocc",
				"energy": 0.05066,
				"method": "rhf"
			},
			{
				"type": "unocc",
				"energy": 0.06407,
				"method": "rhf"
			},
			{
				"type": "unocc",
				"energy": 0.07657,
				"method": "rhf"
			}
		],
		"cosmo_sigma_profile": { 
			"-0.025": 0.0,
			"-0.024": 0.0,
			"-0.023": 0.0,
			"-0.022": 0.0,
			"-0.021": 0.0,
			"-0.02": 0.0,
			"-0.019": 0.219632323298,
			"-0.018": 0.92192805026,
			"-0.017": 0.936568475293,
			"-0.016": 1.17900118553,
			"-0.015": 0.527100255564,
			"-0.014": 1.1538012954,
			"-0.013": 3.47193908042,
			"-0.012": 4.7672763378,
			"-0.011": 4.13852260355,
			"-0.01": 5.10568560038,
			"-0.009": 5.90680983858,
			"-0.008": 5.09182662297,
			"-0.007": 4.75038970403,
			"-0.006": 8.26866741132,
			"-0.005": 13.6906850951,
			"-0.004": 15.9814103304,
			"-0.003": 15.1562082967,
			"-0.002": 10.1390754022,
			"-0.001": 6.34267899099,
			"0.0": 5.15513787995,
			"0.001": 5.77063101479,
			"0.002": 4.42533403259,
			"0.003": 4.31284976755,
			"0.004": 4.86615169808,
			"0.005": 4.56707277208,
			"0.006": 4.3484475282,
			"0.007": 3.95430087058,
			"0.008": 3.92556004213,
			"0.009": 4.71608723197,
			"0.01": 5.76042714354,
			"0.011": 7.57657083011,
			"0.012": 7.3466858503,
			"0.013": 5.3387404132,
			"0.014": 4.82435910727,
			"0.015": 5.62653027662,
			"0.016": 0.559849992345,
			"0.017": 0.0,
			"0.018": 0.0,
			"0.019": 0.0,
			"0.02": 0.0,
			"0.021": 0.0,
			"0.022": 0.0,
			"0.023": 0.0,
			"0.024": 0.0,
			"0.025": 0.0
		}
	}
}
