{
	 "smiles": "CC1=CC=C(O1)C(Cl)=O", 
	 "Tm": 302.15, 
	 "num_atms": 14, 
	 "gaussian": { 
		 "optdone": 1, 
		 "sigma_profile": "yes", 
		 "theory": "DFT", 
		 "functional": "B3LYP", 
		 "basiset": "6-31G**", 
		 "properties": { 
			 "R2extent": 1690.0362, 
			 "electric_dipole_moment_norm": 5.24871244211, 
			 "electric_quadrupole_moment_norm": 2.30632097506, 
			 "total_energy": -842.280529502, 
			 "HOMO_LUMO_gap": 0.18056, 
			 "cosmo_polarized_energy": -8.06, 
			 "cosmo_cavitation_energy": 20.94, 
			 "cosmo_dispersion_energy": -15.52, 
			 "cosmo_repulsion_energy": 1.3, 
			 "cosmo_total_nonelectrostatic_energy": 6.72, 
			 "SMD_solvation_energy": 5.08 
		},
		"coords": [
			{
				"x": 2.1793782093,
				"y": -1.3564071111,
				"z": -1.7030247282,
				"element": "C" 
			},
			{
				"x": 1.3350798959,
				"y": -1.1036510344,
				"z": -0.5052003221,
				"element": "C" 
			},
			{
				"x": 1.358133426,
				"y": -1.5908856208,
				"z": 0.7799321591,
				"element": "C" 
			},
			{
				"x": 0.2866572278,
				"y": -0.9675550943,
				"z": 1.4697645165,
				"element": "C" 
			},
			{
				"x": -0.3258659322,
				"y": -0.1365631842,
				"z": 0.5619054706,
				"element": "C" 
			},
			{
				"x": 0.3181568416,
				"y": -0.2207703612,
				"z": -0.6493787141,
				"element": "O" 
			},
			{
				"x": -1.4551505059,
				"y": 0.7665424401,
				"z": 0.6131479145,
				"element": "C" 
			},
			{
				"x": -2.2320882129,
				"y": 0.7944652966,
				"z": 2.2752756125,
				"element": "Cl" 
			},
			{
				"x": -1.8889356434,
				"y": 1.4431041069,
				"z": -0.2709742457,
				"element": "O" 
			},
			{
				"x": 2.6543714817,
				"y": -0.4325684905,
				"z": -2.050575262,
				"element": "H" 
			},
			{
				"x": 2.9602122226,
				"y": -2.0811712462,
				"z": -1.4644649439,
				"element": "H" 
			},
			{
				"x": 1.5789773253,
				"y": -1.7492171591,
				"z": -2.5307361176,
				"element": "H" 
			},
			{
				"x": 2.0615233937,
				"y": -2.309267813,
				"z": 1.1752142445,
				"element": "H" 
			},
			{
				"x": -0.0067497297,
				"y": -1.1033547288,
				"z": 2.4995144159,
				"element": "H" 
			}
		],
		 "valence_orbital": [ 
			{
				"type": "occ",
				"energy": -0.31819,
				"method": "rhf"
			},
			{
				"type": "occ",
				"energy": -0.31659,
				"method": "rhf"
			},
			{
				"type": "occ",
				"energy": -0.30559,
				"method": "rhf"
			},
			{
				"type": "occ",
				"energy": -0.29101,
				"method": "rhf"
			},
			{
				"type": "occ",
				"energy": -0.25178,
				"method": "rhf"
			},
			{
				"type": "unocc",
				"energy": -0.07122,
				"method": "rhf"
			},
			{
				"type": "unocc",
				"energy": 0.02016,
				"method": "rhf"
			},
			{
				"type": "unocc",
				"energy": 0.02357,
				"method": "rhf"
			},
			{
				"type": "unocc",
				"energy": 0.08438,
				"method": "rhf"
			},
			{
				"type": "unocc",
				"energy": 0.08795,
				"method": "rhf"
			}
		],
		"cosmo_sigma_profile": { 
			"-0.025": 0.0,
			"-0.024": 0.0,
			"-0.023": 0.0,
			"-0.022": 0.0,
			"-0.021": 0.0,
			"-0.02": 0.0,
			"-0.019": 0.0,
			"-0.018": 0.0,
			"-0.017": 0.0,
			"-0.016": 0.0,
			"-0.015": 0.0,
			"-0.014": 0.0,
			"-0.013": 0.0,
			"-0.012": 0.0,
			"-0.011": 0.0,
			"-0.01": 0.00379831742713,
			"-0.009": 0.826872363073,
			"-0.008": 2.96442849045,
			"-0.007": 4.90848577256,
			"-0.006": 10.8341405961,
			"-0.005": 8.86485992323,
			"-0.004": 10.8709893787,
			"-0.003": 14.1445066161,
			"-0.002": 16.2466486601,
			"-0.001": 15.4865204758,
			"0.0": 13.9560834611,
			"0.001": 11.6022823705,
			"0.002": 11.8720835419,
			"0.003": 9.38675334558,
			"0.004": 8.54933387689,
			"0.005": 9.20115264144,
			"0.006": 4.54148691797,
			"0.007": 3.10726697977,
			"0.008": 5.00350241959,
			"0.009": 6.33002813773,
			"0.01": 1.78514885692,
			"0.011": 0.0,
			"0.012": 0.0,
			"0.013": 0.0,
			"0.014": 0.0,
			"0.015": 0.0,
			"0.016": 0.0,
			"0.017": 0.0,
			"0.018": 0.0,
			"0.019": 0.0,
			"0.02": 0.0,
			"0.021": 0.0,
			"0.022": 0.0,
			"0.023": 0.0,
			"0.024": 0.0,
			"0.025": 0.0
		}
	}
}
