{
	 "smiles": "NC(=O)C1=CN=C(Cl)C=C1", 
	 "Tm": 488.15, 
	 "num_atms": 15, 
	 "gaussian": { 
		 "optdone": 1, 
		 "sigma_profile": "yes", 
		 "theory": "DFT", 
		 "functional": "B3LYP", 
		 "basiset": "6-31G**", 
		 "properties": { 
			 "R2extent": 3339.6244, 
			 "electric_dipole_moment_norm": 5.19780993592, 
			 "electric_quadrupole_moment_norm": 10.6968505617, 
			 "total_energy": -876.582350412, 
			 "HOMO_LUMO_gap": 0.20069, 
			 "cosmo_polarized_energy": -15.85, 
			 "cosmo_cavitation_energy": 21.81, 
			 "cosmo_dispersion_energy": -16.46, 
			 "cosmo_repulsion_energy": 1.34, 
			 "cosmo_total_nonelectrostatic_energy": 6.7, 
			 "SMD_solvation_energy": 2.94 
		},
		"coords": [
			{
				"x": -1.1383096185,
				"y": -1.0732850581,
				"z": -1.3885902114,
				"element": "N" 
			},
			{
				"x": -1.680797604,
				"y": 0.1853527113,
				"z": -1.2847577835,
				"element": "C" 
			},
			{
				"x": -2.8371483469,
				"y": 0.4256931988,
				"z": -1.6043023098,
				"element": "O" 
			},
			{
				"x": -0.7814285936,
				"y": 1.2491442576,
				"z": -0.7257042101,
				"element": "C" 
			},
			{
				"x": -1.1336681111,
				"y": 2.586023468,
				"z": -0.9451049447,
				"element": "C" 
			},
			{
				"x": -0.4174827594,
				"y": 3.6247778262,
				"z": -0.4998999196,
				"element": "N" 
			},
			{
				"x": 0.6727864137,
				"y": 3.3544405618,
				"z": 0.197126387,
				"element": "C" 
			},
			{
				"x": 1.6021987835,
				"y": 4.7303351055,
				"z": 0.7769828939,
				"element": "Cl" 
			},
			{
				"x": 1.124531887,
				"y": 2.0674055453,
				"z": 0.5046352626,
				"element": "C" 
			},
			{
				"x": 0.3736592076,
				"y": 0.9991473932,
				"z": 0.0272731985,
				"element": "C" 
			},
			{
				"x": -1.7142230051,
				"y": -1.7513290565,
				"z": -1.867526823,
				"element": "H" 
			},
			{
				"x": -0.1402539031,
				"y": -1.1983851933,
				"z": -1.4578430698,
				"element": "H" 
			},
			{
				"x": -2.0352986376,
				"y": 2.8120146874,
				"z": -1.5068971081,
				"element": "H" 
			},
			{
				"x": 2.018331477,
				"y": 1.9196036052,
				"z": 1.0984869701,
				"element": "H" 
			},
			{
				"x": 0.6736028105,
				"y": -0.0163390526,
				"z": 0.2691216678,
				"element": "H" 
			}
		],
		 "valence_orbital": [ 
			{
				"type": "occ",
				"energy": -0.31094,
				"method": "rhf"
			},
			{
				"type": "occ",
				"energy": -0.28924,
				"method": "rhf"
			},
			{
				"type": "occ",
				"energy": -0.28444,
				"method": "rhf"
			},
			{
				"type": "occ",
				"energy": -0.27054,
				"method": "rhf"
			},
			{
				"type": "occ",
				"energy": -0.26143,
				"method": "rhf"
			},
			{
				"type": "unocc",
				"energy": -0.06074,
				"method": "rhf"
			},
			{
				"type": "unocc",
				"energy": -0.04444,
				"method": "rhf"
			},
			{
				"type": "unocc",
				"energy": 0.02638,
				"method": "rhf"
			},
			{
				"type": "unocc",
				"energy": 0.03564,
				"method": "rhf"
			},
			{
				"type": "unocc",
				"energy": 0.06688,
				"method": "rhf"
			}
		],
		"cosmo_sigma_profile": { 
			"-0.025": 0.0,
			"-0.024": 0.0,
			"-0.023": 0.0,
			"-0.022": 0.0,
			"-0.021": 0.0,
			"-0.02": 0.0,
			"-0.019": 0.0,
			"-0.018": 0.0,
			"-0.017": 0.0,
			"-0.016": 0.00929298752567,
			"-0.015": 0.770342099486,
			"-0.014": 2.33998522024,
			"-0.013": 2.71346270873,
			"-0.012": 3.05257087969,
			"-0.011": 2.94328294852,
			"-0.01": 2.60346845221,
			"-0.009": 3.9772648631,
			"-0.008": 5.42874175241,
			"-0.007": 5.69981576614,
			"-0.006": 5.38168316558,
			"-0.005": 5.1075082123,
			"-0.004": 5.65873953738,
			"-0.003": 7.57502333902,
			"-0.002": 11.7178964449,
			"-0.001": 18.3580952618,
			"0.0": 17.7377862302,
			"0.001": 8.84527148212,
			"0.002": 9.24197796529,
			"0.003": 10.2313222765,
			"0.004": 12.2055754558,
			"0.005": 5.76233547679,
			"0.006": 4.38850010254,
			"0.007": 3.4954854032,
			"0.008": 2.97376518895,
			"0.009": 2.21276415921,
			"0.01": 2.20876484721,
			"0.011": 2.92451166168,
			"0.012": 3.89116180074,
			"0.013": 5.95916343256,
			"0.014": 1.8980407192,
			"0.015": 0.0665023560303,
			"0.016": 0.0,
			"0.017": 0.0,
			"0.018": 0.0,
			"0.019": 0.0,
			"0.02": 0.0,
			"0.021": 0.0,
			"0.022": 0.0,
			"0.023": 0.0,
			"0.024": 0.0,
			"0.025": 0.0
		}
	}
}
