{
	 "smiles": "CC1(C)C2CCC1(C)CC2", 
	 "Tm": 431.15, 
	 "num_atms": 28, 
	 "gaussian": { 
		 "optdone": 1, 
		 "sigma_profile": "yes", 
		 "theory": "DFT", 
		 "functional": "B3LYP", 
		 "basiset": "6-31G**", 
		 "properties": { 
			 "R2extent": 1691.5442, 
			 "electric_dipole_moment_norm": 0.0451629272745, 
			 "electric_quadrupole_moment_norm": 0.398798645936, 
			 "total_energy": -391.925353823, 
			 "HOMO_LUMO_gap": 0.34519, 
			 "cosmo_polarized_energy": -0.8, 
			 "cosmo_cavitation_energy": 25.5, 
			 "cosmo_dispersion_energy": -18.87, 
			 "cosmo_repulsion_energy": 1.48, 
			 "cosmo_total_nonelectrostatic_energy": 8.1, 
			 "SMD_solvation_energy": 3.85 
		},
		"coords": [
			{
				"x": -0.0977279435,
				"y": -0.4608386065,
				"z": 2.1770427201,
				"element": "C" 
			},
			{
				"x": -1.2106970969,
				"y": 0.0143921576,
				"z": 1.2242802583,
				"element": "C" 
			},
			{
				"x": -2.252546754,
				"y": 0.7469220005,
				"z": 2.090503892,
				"element": "C" 
			},
			{
				"x": -1.8103701147,
				"y": -1.1203053645,
				"z": 0.3349706846,
				"element": "C" 
			},
			{
				"x": -2.7661558657,
				"y": -0.3483320873,
				"z": -0.6054920907,
				"element": "C" 
			},
			{
				"x": -2.003200476,
				"y": 0.9905305778,
				"z": -0.8533322785,
				"element": "C" 
			},
			{
				"x": -0.6999171709,
				"y": 0.8368375431,
				"z": -0.0194301239,
				"element": "C" 
			},
			{
				"x": 0.0244964979,
				"y": 2.1501666266,
				"z": 0.2481680027,
				"element": "C" 
			},
			{
				"x": 0.1608572977,
				"y": -0.2211965792,
				"z": -0.7658235014,
				"element": "C" 
			},
			{
				"x": -0.5975989027,
				"y": -1.5626627503,
				"z": -0.5180319023,
				"element": "C" 
			},
			{
				"x": 0.717647499,
				"y": -0.9862619458,
				"z": 1.6766109793,
				"element": "H" 
			},
			{
				"x": 0.3399332936,
				"y": 0.3884858677,
				"z": 2.7137362659,
				"element": "H" 
			},
			{
				"x": -0.5109803942,
				"y": -1.1399002221,
				"z": 2.9318828948,
				"element": "H" 
			},
			{
				"x": -1.7896516945,
				"y": 1.5835282018,
				"z": 2.6260786094,
				"element": "H" 
			},
			{
				"x": -2.6602598455,
				"y": 0.0666937349,
				"z": 2.8473162655,
				"element": "H" 
			},
			{
				"x": -3.0951595659,
				"y": 1.1479184325,
				"z": 1.5242927283,
				"element": "H" 
			},
			{
				"x": -2.2907509425,
				"y": -1.9388807411,
				"z": 0.8811859016,
				"element": "H" 
			},
			{
				"x": -2.9526857641,
				"y": -0.9036250358,
				"z": -1.5304115973,
				"element": "H" 
			},
			{
				"x": -3.7405941155,
				"y": -0.1756901342,
				"z": -0.138785279,
				"element": "H" 
			},
			{
				"x": -2.5863299239,
				"y": 1.8549215028,
				"z": -0.518715492,
				"element": "H" 
			},
			{
				"x": -1.775093876,
				"y": 1.1568102186,
				"z": -1.9116311725,
				"element": "H" 
			},
			{
				"x": 0.9312683417,
				"y": 1.99691197,
				"z": 0.8441843216,
				"element": "H" 
			},
			{
				"x": -0.6144840715,
				"y": 2.861735837,
				"z": 0.7832601643,
				"element": "H" 
			},
			{
				"x": 0.3284334532,
				"y": 2.6272246992,
				"z": -0.6911563541,
				"element": "H" 
			},
			{
				"x": 0.2490289931,
				"y": 0.0236636594,
				"z": -1.8297437948,
				"element": "H" 
			},
			{
				"x": 1.1798688397,
				"y": -0.2542920191,
				"z": -0.3661725471,
				"element": "H" 
			},
			{
				"x": 0.0280516819,
				"y": -2.2862401977,
				"z": 0.013188647,
				"element": "H" 
			},
			{
				"x": -0.9165813798,
				"y": -2.0436173459,
				"z": -1.4483762016,
				"element": "H" 
			}
		],
		 "valence_orbital": [ 
			{
				"type": "occ",
				"energy": -0.31018,
				"method": "rhf"
			},
			{
				"type": "occ",
				"energy": -0.30502,
				"method": "rhf"
			},
			{
				"type": "occ",
				"energy": -0.30408,
				"method": "rhf"
			},
			{
				"type": "occ",
				"energy": -0.28021,
				"method": "rhf"
			},
			{
				"type": "occ",
				"energy": -0.2737,
				"method": "rhf"
			},
			{
				"type": "unocc",
				"energy": 0.07149,
				"method": "rhf"
			},
			{
				"type": "unocc",
				"energy": 0.09935,
				"method": "rhf"
			},
			{
				"type": "unocc",
				"energy": 0.10977,
				"method": "rhf"
			},
			{
				"type": "unocc",
				"energy": 0.12195,
				"method": "rhf"
			},
			{
				"type": "unocc",
				"energy": 0.13432,
				"method": "rhf"
			}
		],
		"cosmo_sigma_profile": { 
			"-0.025": 0.0,
			"-0.024": 0.0,
			"-0.023": 0.0,
			"-0.022": 0.0,
			"-0.021": 0.0,
			"-0.02": 0.0,
			"-0.019": 0.0,
			"-0.018": 0.0,
			"-0.017": 0.0,
			"-0.016": 0.0,
			"-0.015": 0.0,
			"-0.014": 0.0,
			"-0.013": 0.0,
			"-0.012": 0.0,
			"-0.011": 0.0,
			"-0.01": 0.0,
			"-0.009": 0.0,
			"-0.008": 0.0,
			"-0.007": 0.0,
			"-0.006": 0.0,
			"-0.005": 0.0,
			"-0.004": 0.0,
			"-0.003": 4.65908760985,
			"-0.002": 31.2760086399,
			"-0.001": 41.0670212524,
			"0.0": 42.3545646661,
			"0.001": 36.9117154997,
			"0.002": 34.5074460655,
			"0.003": 3.99683502158,
			"0.004": 0.0,
			"0.005": 0.0,
			"0.006": 0.0,
			"0.007": 0.0,
			"0.008": 0.0,
			"0.009": 0.0,
			"0.01": 0.0,
			"0.011": 0.0,
			"0.012": 0.0,
			"0.013": 0.0,
			"0.014": 0.0,
			"0.015": 0.0,
			"0.016": 0.0,
			"0.017": 0.0,
			"0.018": 0.0,
			"0.019": 0.0,
			"0.02": 0.0,
			"0.021": 0.0,
			"0.022": 0.0,
			"0.023": 0.0,
			"0.024": 0.0,
			"0.025": 0.0
		}
	}
}
