{
	 "smiles": "COC1=C(C=CC=C1)N1C(=O)C=CC1=O", 
	 "Tm": 363.65, 
	 "num_atms": 24, 
	 "gaussian": { 
		 "optdone": 1, 
		 "sigma_profile": "yes", 
		 "theory": "DFT", 
		 "functional": "B3LYP", 
		 "basiset": "6-31G**", 
		 "properties": { 
			 "R2extent": 2902.6881, 
			 "electric_dipole_moment_norm": 1.52543976938, 
			 "electric_quadrupole_moment_norm": 22.83779304, 
			 "total_energy": -704.998787088, 
			 "HOMO_LUMO_gap": 0.13423, 
			 "cosmo_polarized_energy": -13.95, 
			 "cosmo_cavitation_energy": 29.3, 
			 "cosmo_dispersion_energy": -20.38, 
			 "cosmo_repulsion_energy": 1.61, 
			 "cosmo_total_nonelectrostatic_energy": 10.53, 
			 "SMD_solvation_energy": 7.71 
		},
		"coords": [
			{
				"x": -0.4460524152,
				"y": -3.1582765379,
				"z": 1.8583241342,
				"element": "C" 
			},
			{
				"x": -0.3637015012,
				"y": -1.860411956,
				"z": 1.2879851561,
				"element": "O" 
			},
			{
				"x": -0.0121195726,
				"y": -1.7504204675,
				"z": -0.0200288237,
				"element": "C" 
			},
			{
				"x": -0.0287366389,
				"y": -0.4469613218,
				"z": -0.5593254513,
				"element": "C" 
			},
			{
				"x": 0.3566653884,
				"y": -0.2287741969,
				"z": -1.8787155858,
				"element": "C" 
			},
			{
				"x": 0.7531477456,
				"y": -1.2958128075,
				"z": -2.6866496378,
				"element": "C" 
			},
			{
				"x": 0.7467398706,
				"y": -2.5862088203,
				"z": -2.1623763049,
				"element": "C" 
			},
			{
				"x": 0.3656134514,
				"y": -2.8203281023,
				"z": -0.8386388439,
				"element": "C" 
			},
			{
				"x": -0.4242094335,
				"y": 0.6435756012,
				"z": 0.2656273655,
				"element": "N" 
			},
			{
				"x": -1.7105939136,
				"y": 0.8080405102,
				"z": 0.8159472654,
				"element": "C" 
			},
			{
				"x": -2.6737770083,
				"y": 0.1042067923,
				"z": 0.6086534701,
				"element": "O" 
			},
			{
				"x": -1.6329863968,
				"y": 2.0349618387,
				"z": 1.6779039141,
				"element": "C" 
			},
			{
				"x": -0.392932199,
				"y": 2.5283010164,
				"z": 1.6216296265,
				"element": "C" 
			},
			{
				"x": 0.4378431602,
				"y": 1.6581362051,
				"z": 0.7234293298,
				"element": "C" 
			},
			{
				"x": 1.6071451528,
				"y": 1.7895987603,
				"z": 0.4338705995,
				"element": "O" 
			},
			{
				"x": -1.1788173998,
				"y": -3.7817745573,
				"z": 1.3317758405,
				"element": "H" 
			},
			{
				"x": 0.5283843749,
				"y": -3.6629214682,
				"z": 1.856335266,
				"element": "H" 
			},
			{
				"x": -0.7723108441,
				"y": -3.0116410756,
				"z": 2.888708659,
				"element": "H" 
			},
			{
				"x": 0.3423177051,
				"y": 0.7854201973,
				"z": -2.2638714447,
				"element": "H" 
			},
			{
				"x": 1.0544328068,
				"y": -1.1181016942,
				"z": -3.7136618776,
				"element": "H" 
			},
			{
				"x": 1.0427177658,
				"y": -3.4274985327,
				"z": -2.7823604454,
				"element": "H" 
			},
			{
				"x": 0.3747213985,
				"y": -3.8313611176,
				"z": -0.4498584483,
				"element": "H" 
			},
			{
				"x": -2.4948552259,
				"y": 2.4018251999,
				"z": 2.2198062379,
				"element": "H" 
			},
			{
				"x": 0.0229637289,
				"y": 3.4015265343,
				"z": 2.1069899988,
				"element": "H" 
			}
		],
		 "valence_orbital": [ 
			{
				"type": "occ",
				"energy": -0.29101,
				"method": "rhf"
			},
			{
				"type": "occ",
				"energy": -0.28643,
				"method": "rhf"
			},
			{
				"type": "occ",
				"energy": -0.26487,
				"method": "rhf"
			},
			{
				"type": "occ",
				"energy": -0.25019,
				"method": "rhf"
			},
			{
				"type": "occ",
				"energy": -0.22399,
				"method": "rhf"
			},
			{
				"type": "unocc",
				"energy": -0.08976,
				"method": "rhf"
			},
			{
				"type": "unocc",
				"energy": -0.01197,
				"method": "rhf"
			},
			{
				"type": "unocc",
				"energy": 0.00674,
				"method": "rhf"
			},
			{
				"type": "unocc",
				"energy": 0.06228,
				"method": "rhf"
			},
			{
				"type": "unocc",
				"energy": 0.07255,
				"method": "rhf"
			}
		],
		"cosmo_sigma_profile": { 
			"-0.025": 0.0,
			"-0.024": 0.0,
			"-0.023": 0.0,
			"-0.022": 0.0,
			"-0.021": 0.0,
			"-0.02": 0.0,
			"-0.019": 0.0,
			"-0.018": 0.0,
			"-0.017": 0.0,
			"-0.016": 0.0,
			"-0.015": 0.0,
			"-0.014": 0.0,
			"-0.013": 0.0,
			"-0.012": 0.0,
			"-0.011": 0.0,
			"-0.01": 1.60264007503,
			"-0.009": 3.841046832,
			"-0.008": 2.66926369269,
			"-0.007": 7.1343842941,
			"-0.006": 17.3998719096,
			"-0.005": 22.8263909321,
			"-0.004": 23.4411468609,
			"-0.003": 20.7482784427,
			"-0.002": 16.1823908042,
			"-0.001": 11.7512934268,
			"0.0": 10.6917191654,
			"0.001": 12.0696161331,
			"0.002": 9.91481972809,
			"0.003": 9.00825637972,
			"0.004": 13.9070645442,
			"0.005": 12.6077217964,
			"0.006": 4.27768270044,
			"0.007": 4.72541415144,
			"0.008": 4.60537796627,
			"0.009": 6.02402405593,
			"0.01": 7.7046609296,
			"0.011": 9.95030369334,
			"0.012": 2.317678424,
			"0.013": 0.0,
			"0.014": 0.0,
			"0.015": 0.0,
			"0.016": 0.0,
			"0.017": 0.0,
			"0.018": 0.0,
			"0.019": 0.0,
			"0.02": 0.0,
			"0.021": 0.0,
			"0.022": 0.0,
			"0.023": 0.0,
			"0.024": 0.0,
			"0.025": 0.0
		}
	}
}
