{
	 "smiles": "OC(=O)C(Br)(Br)Br", 
	 "Tm": 405.15, 
	 "num_atms": 8, 
	 "gaussian": { 
		 "optdone": 1, 
		 "sigma_profile": "yes", 
		 "theory": "DFT", 
		 "functional": "B3LYP", 
		 "basiset": "6-31G**", 
		 "properties": { 
			 "R2extent": 5473.6949, 
			 "electric_dipole_moment_norm": 1.68617356758, 
			 "electric_quadrupole_moment_norm": 4.2288915498, 
			 "total_energy": -7941.45184793, 
			 "HOMO_LUMO_gap": 0.20595, 
			 "cosmo_polarized_energy": -8.44, 
			 "cosmo_cavitation_energy": 19.63, 
			 "cosmo_dispersion_energy": -15.49, 
			 "cosmo_repulsion_energy": 1.31, 
			 "cosmo_total_nonelectrostatic_energy": 5.45, 
			 "SMD_solvation_energy": 1.47 
		},
		"coords": [
			{
				"x": -0.6546853829,
				"y": -2.108237644,
				"z": 0.6860423593,
				"element": "O" 
			},
			{
				"x": 0.0760131407,
				"y": -1.3782009521,
				"z": -0.1685992042,
				"element": "C" 
			},
			{
				"x": 0.696949987,
				"y": -0.390585198,
				"z": 0.1268588455,
				"element": "O" 
			},
			{
				"x": 0.0177075867,
				"y": -1.9739461053,
				"z": -1.5953751447,
				"element": "C" 
			},
			{
				"x": 0.7248861889,
				"y": -3.809491422,
				"z": -1.5325644999,
				"element": "Br" 
			},
			{
				"x": 1.0820471557,
				"y": -0.9000408469,
				"z": -2.8161729904,
				"element": "Br" 
			},
			{
				"x": -1.8595293791,
				"y": -1.9913349134,
				"z": -2.1862787323,
				"element": "Br" 
			},
			{
				"x": -0.5735892971,
				"y": -1.6808629183,
				"z": 1.5550893667,
				"element": "H" 
			}
		],
		 "valence_orbital": [ 
			{
				"type": "occ",
				"energy": -0.3211,
				"method": "rhf"
			},
			{
				"type": "occ",
				"energy": -0.30569,
				"method": "rhf"
			},
			{
				"type": "occ",
				"energy": -0.29902,
				"method": "rhf"
			},
			{
				"type": "occ",
				"energy": -0.28739,
				"method": "rhf"
			},
			{
				"type": "occ",
				"energy": -0.28317,
				"method": "rhf"
			},
			{
				"type": "unocc",
				"energy": -0.07722,
				"method": "rhf"
			},
			{
				"type": "unocc",
				"energy": -0.06612,
				"method": "rhf"
			},
			{
				"type": "unocc",
				"energy": -0.02531,
				"method": "rhf"
			},
			{
				"type": "unocc",
				"energy": 0.03198,
				"method": "rhf"
			},
			{
				"type": "unocc",
				"energy": 0.05749,
				"method": "rhf"
			}
		],
		"cosmo_sigma_profile": { 
			"-0.025": 0.0,
			"-0.024": 0.0,
			"-0.023": 0.0,
			"-0.022": 0.0,
			"-0.021": 0.130284699124,
			"-0.02": 0.867620718136,
			"-0.019": 0.935076023605,
			"-0.018": 0.930201025284,
			"-0.017": 0.842575458865,
			"-0.016": 0.427484638916,
			"-0.015": 1.0721699651,
			"-0.014": 1.06467836961,
			"-0.013": 0.771059945206,
			"-0.012": 0.550823304631,
			"-0.011": 0.374425992995,
			"-0.01": 0.676118896616,
			"-0.009": 1.27907395885,
			"-0.008": 1.16583113959,
			"-0.007": 3.89915072825,
			"-0.006": 4.3207649424,
			"-0.005": 7.2141881024,
			"-0.004": 8.3804840821,
			"-0.003": 6.77184440266,
			"-0.002": 9.47026231144,
			"-0.001": 9.98531636719,
			"0.0": 10.90847298,
			"0.001": 16.2779337645,
			"0.002": 29.1036713949,
			"0.003": 21.0457248766,
			"0.004": 5.02898365164,
			"0.005": 4.80918717742,
			"0.006": 3.99203125385,
			"0.007": 3.66121451014,
			"0.008": 2.6201983154,
			"0.009": 4.8892564424,
			"0.01": 3.00920132454,
			"0.011": 0.108205756594,
			"0.012": 0.0,
			"0.013": 0.0,
			"0.014": 0.0,
			"0.015": 0.0,
			"0.016": 0.0,
			"0.017": 0.0,
			"0.018": 0.0,
			"0.019": 0.0,
			"0.02": 0.0,
			"0.021": 0.0,
			"0.022": 0.0,
			"0.023": 0.0,
			"0.024": 0.0,
			"0.025": 0.0
		}
	}
}
