{
	 "smiles": "C1CC2CCCCC2N1", 
	 "Tm": 416.15, 
	 "num_atms": 24, 
	 "gaussian": { 
		 "optdone": 1, 
		 "sigma_profile": "yes", 
		 "theory": "DFT", 
		 "functional": "B3LYP", 
		 "basiset": "6-31G**", 
		 "properties": { 
			 "R2extent": 1229.8464, 
			 "electric_dipole_moment_norm": 1.26345188274, 
			 "electric_quadrupole_moment_norm": 4.95689836995, 
			 "total_energy": -368.649426167, 
			 "HOMO_LUMO_gap": 0.28564, 
			 "cosmo_polarized_energy": -4.21, 
			 "cosmo_cavitation_energy": 22.84, 
			 "cosmo_dispersion_energy": -17.68, 
			 "cosmo_repulsion_energy": 1.44, 
			 "cosmo_total_nonelectrostatic_energy": 6.61, 
			 "SMD_solvation_energy": 0.25 
		},
		"coords": [
			{
				"x": -1.2076090949,
				"y": 0.4097172491,
				"z": 1.4167229406,
				"element": "C" 
			},
			{
				"x": -1.5201141335,
				"y": 0.0833748036,
				"z": -0.0760601402,
				"element": "C" 
			},
			{
				"x": -0.4519569951,
				"y": 0.8675103056,
				"z": -0.8750880363,
				"element": "C" 
			},
			{
				"x": -0.0341190944,
				"y": 0.2683391737,
				"z": -2.2301616626,
				"element": "C" 
			},
			{
				"x": 0.8670184146,
				"y": -0.9691761206,
				"z": -2.0949240268,
				"element": "C" 
			},
			{
				"x": 2.0662709016,
				"y": -0.6812932202,
				"z": -1.1804734347,
				"element": "C" 
			},
			{
				"x": 1.5966605539,
				"y": -0.2403342202,
				"z": 0.2128754583,
				"element": "C" 
			},
			{
				"x": 0.700128558,
				"y": 1.0090393484,
				"z": 0.1561985148,
				"element": "C" 
			},
			{
				"x": 0.0319389919,
				"y": 1.2247042135,
				"z": 1.4535190909,
				"element": "N" 
			},
			{
				"x": -2.021116125,
				"y": 0.9539532021,
				"z": 1.9064681985,
				"element": "H" 
			},
			{
				"x": -1.0600401288,
				"y": -0.513505017,
				"z": 1.9890039068,
				"element": "H" 
			},
			{
				"x": -2.5341315362,
				"y": 0.3773873105,
				"z": -0.3647909672,
				"element": "H" 
			},
			{
				"x": -1.4385945217,
				"y": -0.9932412606,
				"z": -0.2605518156,
				"element": "H" 
			},
			{
				"x": -0.8468024105,
				"y": 1.8772769304,
				"z": -1.0558925499,
				"element": "H" 
			},
			{
				"x": 0.5157796237,
				"y": 1.0349749705,
				"z": -2.7938752536,
				"element": "H" 
			},
			{
				"x": -0.9239125704,
				"y": 0.0325027455,
				"z": -2.8278287825,
				"element": "H" 
			},
			{
				"x": 1.2069947751,
				"y": -1.2870710732,
				"z": -3.0879015675,
				"element": "H" 
			},
			{
				"x": 0.294656833,
				"y": -1.8110819067,
				"z": -1.6817223749,
				"element": "H" 
			},
			{
				"x": 2.6848421803,
				"y": 0.1092535131,
				"z": -1.6304977337,
				"element": "H" 
			},
			{
				"x": 2.7073634983,
				"y": -1.5672110792,
				"z": -1.0996199336,
				"element": "H" 
			},
			{
				"x": 2.445659781,
				"y": -0.0364371507,
				"z": 0.8744663829,
				"element": "H" 
			},
			{
				"x": 1.0395473967,
				"y": -1.0644118023,
				"z": 0.6782580141,
				"element": "H" 
			},
			{
				"x": 1.3294033401,
				"y": 1.8785282054,
				"z": -0.0731528095,
				"element": "H" 
			},
			{
				"x": -0.2337682378,
				"y": 2.2046008793,
				"z": 1.5100285817,
				"element": "H" 
			}
		],
		 "valence_orbital": [ 
			{
				"type": "occ",
				"energy": -0.31949,
				"method": "rhf"
			},
			{
				"type": "occ",
				"energy": -0.30829,
				"method": "rhf"
			},
			{
				"type": "occ",
				"energy": -0.29506,
				"method": "rhf"
			},
			{
				"type": "occ",
				"energy": -0.29105,
				"method": "rhf"
			},
			{
				"type": "occ",
				"energy": -0.21451,
				"method": "rhf"
			},
			{
				"type": "unocc",
				"energy": 0.07113,
				"method": "rhf"
			},
			{
				"type": "unocc",
				"energy": 0.0879,
				"method": "rhf"
			},
			{
				"type": "unocc",
				"energy": 0.10172,
				"method": "rhf"
			},
			{
				"type": "unocc",
				"energy": 0.13473,
				"method": "rhf"
			},
			{
				"type": "unocc",
				"energy": 0.14035,
				"method": "rhf"
			}
		],
		"cosmo_sigma_profile": { 
			"-0.025": 0.0,
			"-0.024": 0.0,
			"-0.023": 0.0,
			"-0.022": 0.0,
			"-0.021": 0.0,
			"-0.02": 0.0,
			"-0.019": 0.0,
			"-0.018": 0.0,
			"-0.017": 0.0,
			"-0.016": 0.0,
			"-0.015": 0.0,
			"-0.014": 0.0,
			"-0.013": 0.0,
			"-0.012": 0.0,
			"-0.011": 0.0,
			"-0.01": 0.125368992673,
			"-0.009": 0.970555035843,
			"-0.008": 1.55001974219,
			"-0.007": 1.4429225252,
			"-0.006": 1.19946379363,
			"-0.005": 1.76258626886,
			"-0.004": 2.9557626702,
			"-0.003": 8.16771469826,
			"-0.002": 31.3232949781,
			"-0.001": 36.7423888307,
			"0.0": 35.3612081721,
			"0.001": 28.3061429055,
			"0.002": 10.4421854649,
			"0.003": 1.8269562708,
			"0.004": 1.10164729324,
			"0.005": 1.1407977462,
			"0.006": 0.90176559963,
			"0.007": 1.33659788435,
			"0.008": 0.662247200555,
			"0.009": 0.430564363815,
			"0.01": 1.1531666132,
			"0.011": 0.939967415556,
			"0.012": 0.712598335432,
			"0.013": 0.135540784341,
			"0.014": 1.18756171917,
			"0.015": 0.728520962496,
			"0.016": 0.330533082042,
			"0.017": 0.511145084915,
			"0.018": 0.580442925685,
			"0.019": 0.397016871354,
			"0.02": 0.23170734217,
			"0.021": 0.0,
			"0.022": 0.0,
			"0.023": 0.0,
			"0.024": 0.0,
			"0.025": 0.0
		}
	}
}
