{
	 "smiles": "NC1CCCCC1NC(=O)C1=CC=CC=C1", 
	 "Tm": 398.15, 
	 "num_atms": 34, 
	 "gaussian": { 
		 "optdone": 1, 
		 "sigma_profile": "yes", 
		 "theory": "DFT", 
		 "functional": "B3LYP", 
		 "basiset": "6-31G**", 
		 "properties": { 
			 "R2extent": 3907.9571, 
			 "electric_dipole_moment_norm": 3.45699279143, 
			 "electric_quadrupole_moment_norm": 17.7690494251, 
			 "total_energy": -690.96669992, 
			 "HOMO_LUMO_gap": 0.20101, 
			 "cosmo_polarized_energy": -13.22, 
			 "cosmo_cavitation_energy": 33.9, 
			 "cosmo_dispersion_energy": -23.83, 
			 "cosmo_repulsion_energy": 1.86, 
			 "cosmo_total_nonelectrostatic_energy": 11.93, 
			 "SMD_solvation_energy": 3.96 
		},
		"coords": [
			{
				"x": 0.0630937398,
				"y": -2.4178490741,
				"z": -1.0867593532,
				"element": "N" 
			},
			{
				"x": -0.5334154572,
				"y": -1.4366386437,
				"z": -0.1725107997,
				"element": "C" 
			},
			{
				"x": -0.8212423296,
				"y": -2.1030189528,
				"z": 1.1799680441,
				"element": "C" 
			},
			{
				"x": -1.4017298614,
				"y": -1.1152042557,
				"z": 2.2237131443,
				"element": "C" 
			},
			{
				"x": -2.0297807821,
				"y": 0.132595652,
				"z": 1.5688017508,
				"element": "C" 
			},
			{
				"x": -2.7655391196,
				"y": -0.2161653653,
				"z": 0.2672786698,
				"element": "C" 
			},
			{
				"x": -1.8679047604,
				"y": -0.9467855282,
				"z": -0.7762285272,
				"element": "C" 
			},
			{
				"x": -1.6950324479,
				"y": -0.239531485,
				"z": -2.0732298693,
				"element": "N" 
			},
			{
				"x": -0.664215279,
				"y": 0.5743208344,
				"z": -2.5118203225,
				"element": "C" 
			},
			{
				"x": -0.2704615731,
				"y": 0.4932820175,
				"z": -3.6741022934,
				"element": "O" 
			},
			{
				"x": -0.0670091534,
				"y": 1.6035689249,
				"z": -1.5960797932,
				"element": "C" 
			},
			{
				"x": 1.3173797917,
				"y": 1.8196560386,
				"z": -1.6719702914,
				"element": "C" 
			},
			{
				"x": 1.9180971697,
				"y": 2.8180718844,
				"z": -0.9095797186,
				"element": "C" 
			},
			{
				"x": 1.1368870911,
				"y": 3.6393082982,
				"z": -0.0910426547,
				"element": "C" 
			},
			{
				"x": -0.2455258558,
				"y": 3.4563985285,
				"z": -0.0406563552,
				"element": "C" 
			},
			{
				"x": -0.8458033287,
				"y": 2.4385314078,
				"z": -0.7853470156,
				"element": "C" 
			},
			{
				"x": 0.276982775,
				"y": -1.979548976,
				"z": -1.98015754,
				"element": "H" 
			},
			{
				"x": 0.9511861071,
				"y": -2.7402634734,
				"z": -0.7089914686,
				"element": "H" 
			},
			{
				"x": 0.1178681055,
				"y": -0.5637020847,
				"z": 0.0002905608,
				"element": "H" 
			},
			{
				"x": -1.5176253572,
				"y": -2.930688156,
				"z": 0.9962486426,
				"element": "H" 
			},
			{
				"x": 0.0984126514,
				"y": -2.5632815515,
				"z": 1.5608181765,
				"element": "H" 
			},
			{
				"x": -2.1539951271,
				"y": -1.6350799155,
				"z": 2.8283732737,
				"element": "H" 
			},
			{
				"x": -0.6192081899,
				"y": -0.7957005305,
				"z": 2.9211875193,
				"element": "H" 
			},
			{
				"x": -1.2479651901,
				"y": 0.8691474571,
				"z": 1.3569559741,
				"element": "H" 
			},
			{
				"x": -2.7223103363,
				"y": 0.6149196158,
				"z": 2.268314778,
				"element": "H" 
			},
			{
				"x": -3.6135566291,
				"y": -0.8689355956,
				"z": 0.5092308312,
				"element": "H" 
			},
			{
				"x": -3.1987881231,
				"y": 0.6772248777,
				"z": -0.1906247926,
				"element": "H" 
			},
			{
				"x": -2.3866031358,
				"y": -1.8654002038,
				"z": -1.0681031095,
				"element": "H" 
			},
			{
				"x": -1.9968201378,
				"y": -0.7981216001,
				"z": -2.8636304078,
				"element": "H" 
			},
			{
				"x": 1.905924298,
				"y": 1.2005077323,
				"z": -2.3411586077,
				"element": "H" 
			},
			{
				"x": 2.9927125218,
				"y": 2.9668126312,
				"z": -0.9630493969,
				"element": "H" 
			},
			{
				"x": 1.603350369,
				"y": 4.4263133074,
				"z": 0.4946243915,
				"element": "H" 
			},
			{
				"x": -0.8597248475,
				"y": 4.1090554637,
				"z": 0.5730465,
				"element": "H" 
			},
			{
				"x": -1.9226375982,
				"y": 2.3145007205,
				"z": -0.7639099396,
				"element": "H" 
			}
		],
		 "valence_orbital": [ 
			{
				"type": "occ",
				"energy": -0.26483,
				"method": "rhf"
			},
			{
				"type": "occ",
				"energy": -0.25866,
				"method": "rhf"
			},
			{
				"type": "occ",
				"energy": -0.25495,
				"method": "rhf"
			},
			{
				"type": "occ",
				"energy": -0.23789,
				"method": "rhf"
			},
			{
				"type": "occ",
				"energy": -0.23303,
				"method": "rhf"
			},
			{
				"type": "unocc",
				"energy": -0.03202,
				"method": "rhf"
			},
			{
				"type": "unocc",
				"energy": -0.00896,
				"method": "rhf"
			},
			{
				"type": "unocc",
				"energy": 0.04298,
				"method": "rhf"
			},
			{
				"type": "unocc",
				"energy": 0.06931,
				"method": "rhf"
			},
			{
				"type": "unocc",
				"energy": 0.08299,
				"method": "rhf"
			}
		],
		"cosmo_sigma_profile": { 
			"-0.025": 0.0,
			"-0.024": 0.0,
			"-0.023": 0.0,
			"-0.022": 0.0,
			"-0.021": 0.0,
			"-0.02": 0.0,
			"-0.019": 0.0,
			"-0.018": 0.0,
			"-0.017": 0.0,
			"-0.016": 0.0,
			"-0.015": 0.0,
			"-0.014": 0.0,
			"-0.013": 0.20214417685,
			"-0.012": 1.01596320828,
			"-0.011": 0.903700283889,
			"-0.01": 1.0357614768,
			"-0.009": 2.82978040793,
			"-0.008": 2.69424795614,
			"-0.007": 3.5670767992,
			"-0.006": 11.9642476874,
			"-0.005": 16.4925483287,
			"-0.004": 18.9881553871,
			"-0.003": 20.7180101689,
			"-0.002": 28.1198187704,
			"-0.001": 32.0753836878,
			"0.0": 27.7690920518,
			"0.001": 24.4665678653,
			"0.002": 12.6224278765,
			"0.003": 10.9836908965,
			"0.004": 11.9498906778,
			"0.005": 7.89494953437,
			"0.006": 2.59767096871,
			"0.007": 2.57730393264,
			"0.008": 2.35629985005,
			"0.009": 1.47516557807,
			"0.01": 2.01302867063,
			"0.011": 2.38428109949,
			"0.012": 2.82577682782,
			"0.013": 4.0594197113,
			"0.014": 4.36864648849,
			"0.015": 1.60001622032,
			"0.016": 0.67483823171,
			"0.017": 0.246145186823,
			"0.018": 0.579555858018,
			"0.019": 0.268271398881,
			"0.02": 0.168778874277,
			"0.021": 0.0,
			"0.022": 0.0,
			"0.023": 0.0,
			"0.024": 0.0,
			"0.025": 0.0
		}
	}
}
