{
	 "smiles": "CCOC1=CC=C(NS(=O)(=O)C2=CC(C(O)=O)=C(C)C=C2)C=C1", 
	 "Tm": 505.15, 
	 "num_atms": 40, 
	 "gaussian": { 
		 "optdone": 1, 
		 "sigma_profile": "yes", 
		 "theory": "DFT", 
		 "functional": "B3LYP", 
		 "basiset": "6-31G**", 
		 "properties": { 
			 "R2extent": 9739.6619, 
			 "electric_dipole_moment_norm": 5.394728717, 
			 "electric_quadrupole_moment_norm": 25.8085374324, 
			 "total_energy": -1448.94409081, 
			 "HOMO_LUMO_gap": 0.1597, 
			 "cosmo_polarized_energy": -25.39, 
			 "cosmo_cavitation_energy": 45.13, 
			 "cosmo_dispersion_energy": -31.26, 
			 "cosmo_repulsion_energy": 2.35, 
			 "cosmo_total_nonelectrostatic_energy": 16.22, 
			 "SMD_solvation_energy": 7.9 
		},
		"coords": [
			{
				"x": 4.0081712715,
				"y": 2.5667359914,
				"z": -2.7278235753,
				"element": "C" 
			},
			{
				"x": 3.6344270742,
				"y": 1.7469114832,
				"z": -1.5057299829,
				"element": "C" 
			},
			{
				"x": 2.5698847999,
				"y": 0.8716888783,
				"z": -1.8836182111,
				"element": "O" 
			},
			{
				"x": 2.0548327196,
				"y": 0.0240715114,
				"z": -0.9507544821,
				"element": "C" 
			},
			{
				"x": 1.0223402616,
				"y": -0.8179180853,
				"z": -1.3939270316,
				"element": "C" 
			},
			{
				"x": 0.4181557877,
				"y": -1.7087759163,
				"z": -0.5144126487,
				"element": "C" 
			},
			{
				"x": 0.8489159409,
				"y": -1.7993983262,
				"z": 0.8202777337,
				"element": "C" 
			},
			{
				"x": 0.2294470291,
				"y": -2.7307025108,
				"z": 1.6985564563,
				"element": "N" 
			},
			{
				"x": -0.36937819,
				"y": -2.3314913601,
				"z": 3.229158872,
				"element": "S" 
			},
			{
				"x": 0.7505029836,
				"y": -1.9697863536,
				"z": 4.0986235693,
				"element": "O" 
			},
			{
				"x": -1.2580924614,
				"y": -3.447204291,
				"z": 3.557691102,
				"element": "O" 
			},
			{
				"x": -1.3205808433,
				"y": -0.8243493313,
				"z": 2.9872701141,
				"element": "C" 
			},
			{
				"x": -2.0736624301,
				"y": -0.6406472208,
				"z": 1.8316852829,
				"element": "C" 
			},
			{
				"x": -2.8071689976,
				"y": 0.5358360458,
				"z": 1.6424328421,
				"element": "C" 
			},
			{
				"x": -3.5578049641,
				"y": 0.7147538477,
				"z": 0.3535995013,
				"element": "C" 
			},
			{
				"x": -2.9521041335,
				"y": 0.2032509123,
				"z": -0.7529169262,
				"element": "O" 
			},
			{
				"x": -4.6321428345,
				"y": 1.2586574776,
				"z": 0.2582417349,
				"element": "O" 
			},
			{
				"x": -2.840217113,
				"y": 1.524607707,
				"z": 2.6538013674,
				"element": "C" 
			},
			{
				"x": -3.6503094823,
				"y": 2.7898361925,
				"z": 2.5224670258,
				"element": "C" 
			},
			{
				"x": -2.0702652074,
				"y": 1.3068323459,
				"z": 3.8045984517,
				"element": "C" 
			},
			{
				"x": -1.3004788302,
				"y": 0.1575836091,
				"z": 3.9765361898,
				"element": "C" 
			},
			{
				"x": 1.8916803998,
				"y": -0.9779547297,
				"z": 1.2542016983,
				"element": "C" 
			},
			{
				"x": 2.48165245,
				"y": -0.0615431222,
				"z": 0.3804831425,
				"element": "C" 
			},
			{
				"x": 3.1527927575,
				"y": 3.1521904206,
				"z": -3.0760311213,
				"element": "H" 
			},
			{
				"x": 4.8234206677,
				"y": 3.2542548103,
				"z": -2.4830555763,
				"element": "H" 
			},
			{
				"x": 4.3357283025,
				"y": 1.9159171719,
				"z": -3.5431365808,
				"element": "H" 
			},
			{
				"x": 3.3075976795,
				"y": 2.3970681051,
				"z": -0.6818330032,
				"element": "H" 
			},
			{
				"x": 4.4919108289,
				"y": 1.1583474561,
				"z": -1.1504224331,
				"element": "H" 
			},
			{
				"x": 0.7106753807,
				"y": -0.7571757658,
				"z": -2.4314887533,
				"element": "H" 
			},
			{
				"x": -0.3773623051,
				"y": -2.3589654517,
				"z": -0.8729885632,
				"element": "H" 
			},
			{
				"x": -0.3564431816,
				"y": -3.4392670434,
				"z": 1.2713093732,
				"element": "H" 
			},
			{
				"x": -2.0975979757,
				"y": -1.4156834733,
				"z": 1.0736640262,
				"element": "H" 
			},
			{
				"x": -2.02821378,
				"y": -0.0220113436,
				"z": -0.5627278694,
				"element": "H" 
			},
			{
				"x": -3.4430710316,
				"y": 3.4651274713,
				"z": 3.3560909961,
				"element": "H" 
			},
			{
				"x": -4.719590186,
				"y": 2.5638406262,
				"z": 2.5033197385,
				"element": "H" 
			},
			{
				"x": -3.4353302294,
				"y": 3.3136221173,
				"z": 1.5863682122,
				"element": "H" 
			},
			{
				"x": -2.0644980089,
				"y": 2.0664252092,
				"z": 4.5809588853,
				"element": "H" 
			},
			{
				"x": -0.6858774113,
				"y": 0.0217157851,
				"z": 4.859499372,
				"element": "H" 
			},
			{
				"x": 2.2410022484,
				"y": -1.0555521884,
				"z": 2.2775411273,
				"element": "H" 
			},
			{
				"x": 3.2842510142,
				"y": 0.5661513382,
				"z": 0.7480899436,
				"element": "H" 
			}
		],
		 "valence_orbital": [ 
			{
				"type": "occ",
				"energy": -0.2899,
				"method": "rhf"
			},
			{
				"type": "occ",
				"energy": -0.27842,
				"method": "rhf"
			},
			{
				"type": "occ",
				"energy": -0.27349,
				"method": "rhf"
			},
			{
				"type": "occ",
				"energy": -0.27114,
				"method": "rhf"
			},
			{
				"type": "occ",
				"energy": -0.22252,
				"method": "rhf"
			},
			{
				"type": "unocc",
				"energy": -0.06282,
				"method": "rhf"
			},
			{
				"type": "unocc",
				"energy": -0.05044,
				"method": "rhf"
			},
			{
				"type": "unocc",
				"energy": -0.02329,
				"method": "rhf"
			},
			{
				"type": "unocc",
				"energy": -0.01282,
				"method": "rhf"
			},
			{
				"type": "unocc",
				"energy": 0.02332,
				"method": "rhf"
			}
		],
		"cosmo_sigma_profile": { 
			"-0.025": 0.0,
			"-0.024": 0.0,
			"-0.023": 0.0,
			"-0.022": 0.0,
			"-0.021": 0.0,
			"-0.02": 0.0,
			"-0.019": 0.0,
			"-0.018": 0.0,
			"-0.017": 0.0,
			"-0.016": 0.202223558005,
			"-0.015": 1.20832363694,
			"-0.014": 2.3042539588,
			"-0.013": 2.12948135775,
			"-0.012": 2.59708995115,
			"-0.011": 2.8059697973,
			"-0.01": 3.50312407432,
			"-0.009": 3.75187970311,
			"-0.008": 6.62575037928,
			"-0.007": 11.3375397928,
			"-0.006": 16.0607271104,
			"-0.005": 22.4685959079,
			"-0.004": 27.8820688934,
			"-0.003": 26.5663341848,
			"-0.002": 23.7643845966,
			"-0.001": 26.6539839115,
			"0.0": 29.1204738974,
			"0.001": 25.7186733424,
			"0.002": 16.9416765064,
			"0.003": 15.3087416764,
			"0.004": 16.9732578367,
			"0.005": 10.2927046838,
			"0.006": 7.55783346163,
			"0.007": 7.20152723354,
			"0.008": 8.34971479498,
			"0.009": 10.3261193572,
			"0.01": 14.3123625545,
			"0.011": 12.9085605099,
			"0.012": 3.30707125374,
			"0.013": 0.612154366394,
			"0.014": 0.0,
			"0.015": 0.0,
			"0.016": 0.0,
			"0.017": 0.0,
			"0.018": 0.0,
			"0.019": 0.0,
			"0.02": 0.0,
			"0.021": 0.0,
			"0.022": 0.0,
			"0.023": 0.0,
			"0.024": 0.0,
			"0.0": 0.0
		}
	}
}
