{
	 "smiles": "OC1=C(NC2=CC(=CC=C12)[N+]([O-])=O)C1=CC=CC(=C1)C1=C(O)C2=C(N1)C=C(C=C2)[N+]([O-])=O", 
	 "Tm": 539.15, 
	 "num_atms": 46, 
	 "gaussian": { 
		 "optdone": 1, 
		 "sigma_profile": "yes", 
		 "theory": "DFT", 
		 "functional": "B3LYP", 
		 "basiset": "6-31G**", 
		 "properties": { 
			 "R2extent": 25006.0007, 
			 "electric_dipole_moment_norm": 5.46507262623, 
			 "electric_quadrupole_moment_norm": 76.3546948178, 
			 "total_energy": -1516.94065977, 
			 "HOMO_LUMO_gap": 0.11537, 
			 "cosmo_polarized_energy": -33.35, 
			 "cosmo_cavitation_energy": 53.21, 
			 "cosmo_dispersion_energy": -38.47, 
			 "cosmo_repulsion_energy": 2.78, 
			 "cosmo_total_nonelectrostatic_energy": 17.52, 
			 "SMD_solvation_energy": 12.74 
		},
		"coords": [
			{
				"x": 2.8184442203,
				"y": 3.6385011858,
				"z": -0.1469722426,
				"element": "O" 
			},
			{
				"x": 1.7729650396,
				"y": 3.0965342679,
				"z": 0.5408605037,
				"element": "C" 
			},
			{
				"x": 1.0105550312,
				"y": 1.9811323956,
				"z": 0.2259689232,
				"element": "C" 
			},
			{
				"x": 0.1119327044,
				"y": 1.768194553,
				"z": 1.2744034551,
				"element": "N" 
			},
			{
				"x": 0.2478884195,
				"y": 2.7709258947,
				"z": 2.2072636414,
				"element": "C" 
			},
			{
				"x": -0.4563542254,
				"y": 3.0039444597,
				"z": 3.3855931419,
				"element": "C" 
			},
			{
				"x": -0.0522152097,
				"y": 4.1018719925,
				"z": 4.1377926286,
				"element": "C" 
			},
			{
				"x": 1.0103671868,
				"y": 4.9507625884,
				"z": 3.764172453,
				"element": "C" 
			},
			{
				"x": 1.6983943354,
				"y": 4.7092643376,
				"z": 2.5881600539,
				"element": "C" 
			},
			{
				"x": 1.314469756,
				"y": 3.6177347759,
				"z": 1.7868528691,
				"element": "C" 
			},
			{
				"x": -0.7686338762,
				"y": 4.3806616974,
				"z": 5.3850567106,
				"element": "N" 
			},
			{
				"x": -1.69783228,
				"y": 3.6308562319,
				"z": 5.6963949802,
				"element": "O" 
			},
			{
				"x": -0.4036332987,
				"y": 5.3483891689,
				"z": 6.0549256079,
				"element": "O" 
			},
			{
				"x": 1.0960897635,
				"y": 1.0826160362,
				"z": -0.9228793737,
				"element": "C" 
			},
			{
				"x": 1.5172544131,
				"y": 1.5656436381,
				"z": -2.1787559035,
				"element": "C" 
			},
			{
				"x": 1.6142974552,
				"y": 0.6965619406,
				"z": -3.2631807625,
				"element": "C" 
			},
			{
				"x": 1.2799146789,
				"y": -0.6480880398,
				"z": -3.1284080798,
				"element": "C" 
			},
			{
				"x": 0.829387751,
				"y": -1.1519962806,
				"z": -1.8913990057,
				"element": "C" 
			},
			{
				"x": 0.753691304,
				"y": -0.273307516,
				"z": -0.7968329098,
				"element": "C" 
			},
			{
				"x": 0.4558548786,
				"y": -2.5557320589,
				"z": -1.7459007084,
				"element": "C" 
			},
			{
				"x": 0.3085784476,
				"y": -3.3443518474,
				"z": -0.6114945461,
				"element": "C" 
			},
			{
				"x": 0.48341395,
				"y": -2.8923176117,
				"z": 0.665369913,
				"element": "O" 
			},
			{
				"x": -0.0471667848,
				"y": -4.6651645122,
				"z": -1.0175971264,
				"element": "C" 
			},
			{
				"x": -0.1142347237,
				"y": -4.6395304513,
				"z": -2.4416017378,
				"element": "C" 
			},
			{
				"x": 0.2123976368,
				"y": -3.3701782864,
				"z": -2.8537481702,
				"element": "N" 
			},
			{
				"x": -0.4580147925,
				"y": -5.765139726,
				"z": -3.18474526,
				"element": "C" 
			},
			{
				"x": -0.7226000887,
				"y": -6.924583908,
				"z": -2.4638476761,
				"element": "C" 
			},
			{
				"x": -0.6568717888,
				"y": -6.9944706922,
				"z": -1.0573539926,
				"element": "C" 
			},
			{
				"x": -0.3196581022,
				"y": -5.8657919749,
				"z": -0.3318727961,
				"element": "C" 
			},
			{
				"x": -1.0864404629,
				"y": -8.131951338,
				"z": -3.2101182186,
				"element": "N" 
			},
			{
				"x": -1.1446625814,
				"y": -8.0523637455,
				"z": -4.4394641096,
				"element": "O" 
			},
			{
				"x": -1.3134696224,
				"y": -9.1580415679,
				"z": -2.5670998141,
				"element": "O" 
			},
			{
				"x": 3.1636433977,
				"y": 2.9810696706,
				"z": -0.7666785773,
				"element": "H" 
			},
			{
				"x": -0.6808202035,
				"y": 1.1494377939,
				"z": 1.2081416545,
				"element": "H" 
			},
			{
				"x": -1.2738511172,
				"y": 2.3816831115,
				"z": 3.7275039879,
				"element": "H" 
			},
			{
				"x": 1.263458371,
				"y": 5.7792791507,
				"z": 4.4124248379,
				"element": "H" 
			},
			{
				"x": 2.5173139129,
				"y": 5.3515276602,
				"z": 2.2825648765,
				"element": "H" 
			},
			{
				"x": 1.7225055568,
				"y": 2.6232409961,
				"z": -2.3125784386,
				"element": "H" 
			},
			{
				"x": 1.9461748275,
				"y": 1.0731061471,
				"z": -4.2262057571,
				"element": "H" 
			},
			{
				"x": 1.3987970556,
				"y": -1.3095720864,
				"z": -3.9810368152,
				"element": "H" 
			},
			{
				"x": 0.4515835831,
				"y": -0.663026588,
				"z": 0.1674709789,
				"element": "H" 
			},
			{
				"x": 0.6392727919,
				"y": -3.6447199356,
				"z": 1.2501596818,
				"element": "H" 
			},
			{
				"x": 0.0535195355,
				"y": -3.0169406283,
				"z": -3.7835656957,
				"element": "H" 
			},
			{
				"x": -0.5207806445,
				"y": -5.7715493033,
				"z": -4.2657912526,
				"element": "H" 
			},
			{
				"x": -0.8795256463,
				"y": -7.9366918144,
				"z": -0.5743685557,
				"element": "H" 
			},
			{
				"x": -0.2821005551,
				"y": -5.9144297811,
				"z": 0.7530166267,
				"element": "H" 
			}
		],
		 "valence_orbital": [ 
			{
				"type": "occ",
				"energy": -0.27916,
				"method": "rhf"
			},
			{
				"type": "occ",
				"energy": -0.25176,
				"method": "rhf"
			},
			{
				"type": "occ",
				"energy": -0.24195,
				"method": "rhf"
			},
			{
				"type": "occ",
				"energy": -0.21805,
				"method": "rhf"
			},
			{
				"type": "occ",
				"energy": -0.20905,
				"method": "rhf"
			},
			{
				"type": "unocc",
				"energy": -0.09368,
				"method": "rhf"
			},
			{
				"type": "unocc",
				"energy": -0.08359,
				"method": "rhf"
			},
			{
				"type": "unocc",
				"energy": -0.05321,
				"method": "rhf"
			},
			{
				"type": "unocc",
				"energy": -0.04283,
				"method": "rhf"
			},
			{
				"type": "unocc",
				"energy": -0.02012,
				"method": "rhf"
			}
		],
		"cosmo_sigma_profile": { 
			"-0.025": 0.0,
			"-0.024": 0.0,
			"-0.023": 0.0,
			"-0.022": 0.0,
			"-0.021": 0.0,
			"-0.02": 0.0,
			"-0.019": 0.0,
			"-0.018": 0.19523699898,
			"-0.017": 1.19917328892,
			"-0.016": 3.31593353262,
			"-0.015": 5.11417969389,
			"-0.014": 5.32007897283,
			"-0.013": 4.81065236202,
			"-0.012": 3.94739807618,
			"-0.011": 5.26912342758,
			"-0.01": 5.88476765233,
			"-0.009": 5.92386453876,
			"-0.008": 6.20857227818,
			"-0.007": 10.4935421828,
			"-0.006": 15.177894218,
			"-0.005": 19.5293575971,
			"-0.004": 18.7779579852,
			"-0.003": 16.0812652454,
			"-0.002": 16.9749462124,
			"-0.001": 21.1777240003,
			"0.0": 28.5074222595,
			"0.001": 40.1807261358,
			"0.002": 52.1154134527,
			"0.003": 40.4254430691,
			"0.004": 20.6070861298,
			"0.005": 8.4239599543,
			"0.006": 10.3582660446,
			"0.007": 11.6378165777,
			"0.008": 22.0009634376,
			"0.009": 14.1053648566,
			"0.01": 9.98642011345,
			"0.011": 4.84334822589,
			"0.012": 0.0165798685033,
			"0.013": 0.0,
			"0.014": 0.0,
			"0.015": 0.0,
			"0.016": 0.0,
			"0.017": 0.0,
			"0.018": 0.0,
			"0.019": 0.0,
			"0.02": 0.0,
			"0.021": 0.0,
			"0.022": 0.0,
			"0.023": 0.0,
			"0.024": 0.0,
			"0.025": 0.0
		}
	}
}
