{
	 "smiles": "ClN1C(=O)NC(=O)N(Cl)C1=O", 
	 "Tm": 498.15, 
	 "num_atms": 12, 
	 "gaussian": { 
		 "optdone": 1, 
		 "sigma_profile": "yes", 
		 "theory": "DFT", 
		 "functional": "B3LYP", 
		 "basiset": "6-31G**", 
		 "properties": { 
			 "R2extent": 3109.4877, 
			 "electric_dipole_moment_norm": 0.889777607046, 
			 "electric_quadrupole_moment_norm": 5.71174255197, 
			 "total_energy": -1425.18728437, 
			 "HOMO_LUMO_gap": 0.20778, 
			 "cosmo_polarized_energy": -14.63, 
			 "cosmo_cavitation_energy": 21.52, 
			 "cosmo_dispersion_energy": -16.5, 
			 "cosmo_repulsion_energy": 1.32, 
			 "cosmo_total_nonelectrostatic_energy": 6.35, 
			 "SMD_solvation_energy": 5.85 
		},
		"coords": [
			{
				"x": -3.3005893132,
				"y": -1.1535089668,
				"z": -1.9680641841,
				"element": "Cl" 
			},
			{
				"x": -1.7552093404,
				"y": -0.9893522147,
				"z": -1.2501320874,
				"element": "N" 
			},
			{
				"x": -1.259144763,
				"y": 0.3224329704,
				"z": -1.1140795852,
				"element": "C" 
			},
			{
				"x": -1.8497349716,
				"y": 1.3127763011,
				"z": -1.4672709784,
				"element": "O" 
			},
			{
				"x": -0.0030254768,
				"y": 0.3511078138,
				"z": -0.5228117073,
				"element": "N" 
			},
			{
				"x": 0.7749305735,
				"y": -0.7087746181,
				"z": -0.0759480212,
				"element": "C" 
			},
			{
				"x": 1.8620256939,
				"y": -0.5689619648,
				"z": 0.4270406306,
				"element": "O" 
			},
			{
				"x": 0.1476892185,
				"y": -1.9540599715,
				"z": -0.278955249,
				"element": "N" 
			},
			{
				"x": 1.0122776965,
				"y": -3.3399973655,
				"z": 0.2331581612,
				"element": "Cl" 
			},
			{
				"x": -1.1179487856,
				"y": -2.1869345808,
				"z": -0.8593924855,
				"element": "C" 
			},
			{
				"x": -1.5976604199,
				"y": -3.2788758971,
				"z": -1.0041289945,
				"element": "O" 
			},
			{
				"x": 0.4011898881,
				"y": 1.2712484942,
				"z": -0.4008154995,
				"element": "H" 
			}
		],
		 "valence_orbital": [ 
			{
				"type": "occ",
				"energy": -0.34135,
				"method": "rhf"
			},
			{
				"type": "occ",
				"energy": -0.32801,
				"method": "rhf"
			},
			{
				"type": "occ",
				"energy": -0.30986,
				"method": "rhf"
			},
			{
				"type": "occ",
				"energy": -0.30171,
				"method": "rhf"
			},
			{
				"type": "occ",
				"energy": -0.29728,
				"method": "rhf"
			},
			{
				"type": "unocc",
				"energy": -0.0895,
				"method": "rhf"
			},
			{
				"type": "unocc",
				"energy": -0.05168,
				"method": "rhf"
			},
			{
				"type": "unocc",
				"energy": -0.03666,
				"method": "rhf"
			},
			{
				"type": "unocc",
				"energy": -0.03658,
				"method": "rhf"
			},
			{
				"type": "unocc",
				"energy": 0.06914,
				"method": "rhf"
			}
		],
		"cosmo_sigma_profile": { 
			"-0.025": 0.0,
			"-0.024": 0.0,
			"-0.023": 0.0,
			"-0.022": 0.0,
			"-0.021": 0.0,
			"-0.02": 0.0,
			"-0.019": 0.261646988805,
			"-0.018": 0.983304860339,
			"-0.017": 1.00241694628,
			"-0.016": 1.0005249598,
			"-0.015": 0.747469357392,
			"-0.014": 1.09926788507,
			"-0.013": 1.74960824678,
			"-0.012": 1.68059143536,
			"-0.011": 2.90791259483,
			"-0.01": 2.49258226894,
			"-0.009": 3.47085600519,
			"-0.008": 6.41377245344,
			"-0.007": 7.91389549265,
			"-0.006": 8.03176188347,
			"-0.005": 9.86880230039,
			"-0.004": 9.44154379722,
			"-0.003": 6.70714173507,
			"-0.002": 6.14184549375,
			"-0.001": 8.33618681385,
			"0.0": 11.525311624,
			"0.001": 11.3522126081,
			"0.002": 12.7775342931,
			"0.003": 6.49039981588,
			"0.004": 5.79160310123,
			"0.005": 5.2610497984,
			"0.006": 4.64308622794,
			"0.007": 5.60440544846,
			"0.008": 7.55160284412,
			"0.009": 11.2358403575,
			"0.01": 14.143360603,
			"0.011": 1.95429154563,
			"0.012": 0.0,
			"0.013": 0.0,
			"0.014": 0.0,
			"0.015": 0.0,
			"0.016": 0.0,
			"0.017": 0.0,
			"0.018": 0.0,
			"0.019": 0.0,
			"0.02": 0.0,
			"0.021": 0.0,
			"0.022": 0.0,
			"0.023": 0.0,
			"0.024": 0.0,
			"0.025": 0.0
		}
	}
}
