{
	 "smiles": "CC1=CC=NC=C1C=CC(O)=O", 
	 "Tm": 410.15, 
	 "num_atms": 21, 
	 "gaussian": { 
		 "optdone": 1, 
		 "sigma_profile": "yes", 
		 "theory": "DFT", 
		 "functional": "B3LYP", 
		 "basiset": "6-31G**", 
		 "properties": { 
			 "R2extent": 3029.7978, 
			 "electric_dipole_moment_norm": 2.60954860081, 
			 "electric_quadrupole_moment_norm": 10.4490775229, 
			 "total_energy": -553.573862134, 
			 "HOMO_LUMO_gap": 0.18144, 
			 "cosmo_polarized_energy": -12.04, 
			 "cosmo_cavitation_energy": 25.17, 
			 "cosmo_dispersion_energy": -18.24, 
			 "cosmo_repulsion_energy": 1.46, 
			 "cosmo_total_nonelectrostatic_energy": 8.39, 
			 "SMD_solvation_energy": 4.1 
		},
		"coords": [
			{
				"x": 0.9208049651,
				"y": -0.8782109742,
				"z": 1.3298961186,
				"element": "C" 
			},
			{
				"x": 0.4011004697,
				"y": -0.2505763133,
				"z": 0.0646550336,
				"element": "C" 
			},
			{
				"x": -0.8980979068,
				"y": -0.5435225928,
				"z": -0.3687917391,
				"element": "C" 
			},
			{
				"x": -1.4128719562,
				"y": 0.0551060031,
				"z": -1.5135920569,
				"element": "C" 
			},
			{
				"x": -0.7362468957,
				"y": 0.9514214617,
				"z": -2.2457735413,
				"element": "N" 
			},
			{
				"x": 0.4950698074,
				"y": 1.2442785419,
				"z": -1.8306207548,
				"element": "C" 
			},
			{
				"x": 1.1378061413,
				"y": 0.6645183328,
				"z": -0.7188499407,
				"element": "C" 
			},
			{
				"x": 2.5013385633,
				"y": 1.1493230174,
				"z": -0.4268458578,
				"element": "C" 
			},
			{
				"x": 3.6542775599,
				"y": 0.486067619,
				"z": -0.2119669571,
				"element": "C" 
			},
			{
				"x": 3.8618807004,
				"y": -0.9718718956,
				"z": -0.3161913945,
				"element": "C" 
			},
			{
				"x": 5.1645380853,
				"y": -1.2836663659,
				"z": -0.0827327362,
				"element": "O" 
			},
			{
				"x": 3.0381242853,
				"y": -1.821891679,
				"z": -0.5968726732,
				"element": "O" 
			},
			{
				"x": 1.4026585161,
				"y": -1.8336471472,
				"z": 1.101861045,
				"element": "H" 
			},
			{
				"x": 0.1019925903,
				"y": -1.0618661937,
				"z": 2.0314140573,
				"element": "H" 
			},
			{
				"x": 1.6656748228,
				"y": -0.2473755485,
				"z": 1.821643115,
				"element": "H" 
			},
			{
				"x": -1.5119195287,
				"y": -1.2365007146,
				"z": 0.19993784,
				"element": "H" 
			},
			{
				"x": -2.4215544512,
				"y": -0.1784035378,
				"z": -1.8499441188,
				"element": "H" 
			},
			{
				"x": 1.0337836861,
				"y": 1.983712154,
				"z": -2.4232954591,
				"element": "H" 
			},
			{
				"x": 2.5912609657,
				"y": 2.236462194,
				"z": -0.435146854,
				"element": "H" 
			},
			{
				"x": 4.5559792293,
				"y": 1.0601584971,
				"z": -0.0227473472,
				"element": "H" 
			},
			{
				"x": 5.2317003509,
				"y": -2.2461148582,
				"z": -0.1974357789,
				"element": "H" 
			}
		],
		 "valence_orbital": [ 
			{
				"type": "occ",
				"energy": -0.30281,
				"method": "rhf"
			},
			{
				"type": "occ",
				"energy": -0.28101,
				"method": "rhf"
			},
			{
				"type": "occ",
				"energy": -0.26904,
				"method": "rhf"
			},
			{
				"type": "occ",
				"energy": -0.25318,
				"method": "rhf"
			},
			{
				"type": "occ",
				"energy": -0.2476,
				"method": "rhf"
			},
			{
				"type": "unocc",
				"energy": -0.06616,
				"method": "rhf"
			},
			{
				"type": "unocc",
				"energy": -0.0184,
				"method": "rhf"
			},
			{
				"type": "unocc",
				"energy": -0.00229,
				"method": "rhf"
			},
			{
				"type": "unocc",
				"energy": 0.07831,
				"method": "rhf"
			},
			{
				"type": "unocc",
				"energy": 0.08209,
				"method": "rhf"
			}
		],
		"cosmo_sigma_profile": { 
			"-0.025": 0.0,
			"-0.024": 0.0,
			"-0.023": 0.0,
			"-0.022": 0.0,
			"-0.021": 0.0,
			"-0.02": 0.0,
			"-0.019": 0.0,
			"-0.018": 0.527828896453,
			"-0.017": 0.94937874214,
			"-0.016": 0.997601376677,
			"-0.015": 0.635082625539,
			"-0.014": 0.66695612075,
			"-0.013": 0.592352786518,
			"-0.012": 0.44156642565,
			"-0.011": 1.05763373345,
			"-0.01": 0.914459101701,
			"-0.009": 0.415866058421,
			"-0.008": 1.45165577986,
			"-0.007": 6.99383207931,
			"-0.006": 13.7953422604,
			"-0.005": 11.3206215996,
			"-0.004": 11.290387923,
			"-0.003": 12.8928442029,
			"-0.002": 16.8819934138,
			"-0.001": 19.3277987499,
			"0.0": 17.9435506784,
			"0.001": 13.7420185956,
			"0.002": 13.8437621718,
			"0.003": 10.9067758119,
			"0.004": 5.72556507912,
			"0.005": 4.852161229,
			"0.006": 4.33354652885,
			"0.007": 4.02510669854,
			"0.008": 4.80789232015,
			"0.009": 4.28473660535,
			"0.01": 3.47771243811,
			"0.011": 3.70429077344,
			"0.012": 3.59346037935,
			"0.013": 1.23913943657,
			"0.014": 0.937929060263,
			"0.015": 0.6134853638,
			"0.016": 1.16654373648,
			"0.017": 0.252108481048,
			"0.018": 0.0,
			"0.019": 0.0,
			"0.02": 0.0,
			"0.021": 0.0,
			"0.022": 0.0,
			"0.023": 0.0,
			"0.024": 0.0,
			"0.025": 0.0
		}
	}
}
