{
	 "smiles": "CCC1=CC=C(C=C1)C#CC1=CC=C(C)C=C1", 
	 "Tm": 346.15, 
	 "num_atms": 33, 
	 "gaussian": { 
		 "optdone": 1, 
		 "sigma_profile": "yes", 
		 "theory": "DFT", 
		 "functional": "B3LYP", 
		 "basiset": "6-31G**", 
		 "properties": { 
			 "R2extent": 8878.4925, 
			 "electric_dipole_moment_norm": 0.0569278490723, 
			 "electric_quadrupole_moment_norm": 14.5308613244, 
			 "total_energy": -657.422061625, 
			 "HOMO_LUMO_gap": 0.15926, 
			 "cosmo_polarized_energy": -6.67, 
			 "cosmo_cavitation_energy": 38.12, 
			 "cosmo_dispersion_energy": -26.96, 
			 "cosmo_repulsion_energy": 2.12, 
			 "cosmo_total_nonelectrostatic_energy": 13.28, 
			 "SMD_solvation_energy": 6.46 
		},
		"coords": [
			{
				"x": 3.8850326968,
				"y": 4.4060012325,
				"z": 2.6421735197,
				"element": "C" 
			},
			{
				"x": 4.3207665302,
				"y": 2.9332312951,
				"z": 2.5301827951,
				"element": "C" 
			},
			{
				"x": 3.1928309775,
				"y": 2.0168481339,
				"z": 2.1083111286,
				"element": "C" 
			},
			{
				"x": 2.349856714,
				"y": 1.4236489731,
				"z": 3.0594499517,
				"element": "C" 
			},
			{
				"x": 1.287402057,
				"y": 0.6110904988,
				"z": 2.6781114339,
				"element": "C" 
			},
			{
				"x": 1.0305367005,
				"y": 0.3616353502,
				"z": 1.3149154418,
				"element": "C" 
			},
			{
				"x": 1.8766573532,
				"y": 0.9542579832,
				"z": 0.3561488846,
				"element": "C" 
			},
			{
				"x": 2.9352492244,
				"y": 1.7645596558,
				"z": 0.7529570436,
				"element": "C" 
			},
			{
				"x": -0.0532157978,
				"y": -0.4721918919,
				"z": 0.9166818481,
				"element": "C" 
			},
			{
				"x": -0.9797892931,
				"y": -1.1841112599,
				"z": 0.5770234383,
				"element": "C" 
			},
			{
				"x": -2.0636877662,
				"y": -2.0177449699,
				"z": 0.1788988539,
				"element": "C" 
			},
			{
				"x": -2.9101269342,
				"y": -2.61033604,
				"z": 1.1366941608,
				"element": "C" 
			},
			{
				"x": -3.9688586237,
				"y": -3.4209220616,
				"z": 0.739751961,
				"element": "C" 
			},
			{
				"x": -4.2250873621,
				"y": -3.6746409298,
				"z": -0.6150410238,
				"element": "C" 
			},
			{
				"x": -5.3562288095,
				"y": -4.5807494365,
				"z": -1.0384239893,
				"element": "C" 
			},
			{
				"x": -3.382852133,
				"y": -3.0798644962,
				"z": -1.5661238398,
				"element": "C" 
			},
			{
				"x": -2.3208518875,
				"y": -2.2675090074,
				"z": -1.1843318165,
				"element": "C" 
			},
			{
				"x": 3.51114738,
				"y": 4.7782275961,
				"z": 1.6828803715,
				"element": "H" 
			},
			{
				"x": 3.0825510759,
				"y": 4.5225611729,
				"z": 3.3777175589,
				"element": "H" 
			},
			{
				"x": 4.7232015069,
				"y": 5.0401203661,
				"z": 2.9498010291,
				"element": "H" 
			},
			{
				"x": 5.1439749031,
				"y": 2.8551218122,
				"z": 1.8099355489,
				"element": "H" 
			},
			{
				"x": 4.7195170287,
				"y": 2.601356196,
				"z": 3.4963230557,
				"element": "H" 
			},
			{
				"x": 2.5329365112,
				"y": 1.5990067,
				"z": 4.1170573703,
				"element": "H" 
			},
			{
				"x": 0.6478176614,
				"y": 0.1570776208,
				"z": 3.4283544539,
				"element": "H" 
			},
			{
				"x": 1.6948418107,
				"y": 0.7669605418,
				"z": -0.6973788245,
				"element": "H" 
			},
			{
				"x": 3.5786416354,
				"y": 2.208111768,
				"z": -0.0034169016,
				"element": "H" 
			},
			{
				"x": -2.7290391158,
				"y": -2.4237649912,
				"z": 2.1904555068,
				"element": "H" 
			},
			{
				"x": -4.6112266332,
				"y": -3.8651199659,
				"z": 1.496239407,
				"element": "H" 
			},
			{
				"x": -6.149504044,
				"y": -4.6099119809,
				"z": -0.2856160583,
				"element": "H" 
			},
			{
				"x": -5.0063216401,
				"y": -5.6109254864,
				"z": -1.1831508062,
				"element": "H" 
			},
			{
				"x": -5.7984009809,
				"y": -4.2543722241,
				"z": -1.9849150322,
				"element": "H" 
			},
			{
				"x": -3.5645147121,
				"y": -3.2557610061,
				"z": -2.6236958037,
				"element": "H" 
			},
			{
				"x": -1.6811560339,
				"y": -1.813991149,
				"z": -1.9347706677,
				"element": "H" 
			}
		],
		 "valence_orbital": [ 
			{
				"type": "occ",
				"energy": -0.2595,
				"method": "rhf"
			},
			{
				"type": "occ",
				"energy": -0.25547,
				"method": "rhf"
			},
			{
				"type": "occ",
				"energy": -0.25091,
				"method": "rhf"
			},
			{
				"type": "occ",
				"energy": -0.25072,
				"method": "rhf"
			},
			{
				"type": "occ",
				"energy": -0.20071,
				"method": "rhf"
			},
			{
				"type": "unocc",
				"energy": -0.04145,
				"method": "rhf"
			},
			{
				"type": "unocc",
				"energy": -0.00046,
				"method": "rhf"
			},
			{
				"type": "unocc",
				"energy": -0.00028,
				"method": "rhf"
			},
			{
				"type": "unocc",
				"energy": 0.01325,
				"method": "rhf"
			},
			{
				"type": "unocc",
				"energy": 0.05977,
				"method": "rhf"
			}
		],
		"cosmo_sigma_profile": { 
			"-0.025": 0.0,
			"-0.024": 0.0,
			"-0.023": 0.0,
			"-0.022": 0.0,
			"-0.021": 0.0,
			"-0.02": 0.0,
			"-0.019": 0.0,
			"-0.018": 0.0,
			"-0.017": 0.0,
			"-0.016": 0.0,
			"-0.015": 0.0,
			"-0.014": 0.0,
			"-0.013": 0.0,
			"-0.012": 0.0,
			"-0.011": 0.0,
			"-0.01": 0.0,
			"-0.009": 0.0,
			"-0.008": 0.0,
			"-0.007": 0.0729437835639,
			"-0.006": 8.28854736734,
			"-0.005": 17.356363672,
			"-0.004": 27.2619102235,
			"-0.003": 30.7636257028,
			"-0.002": 29.3009432142,
			"-0.001": 30.0222122084,
			"0.0": 31.2877832013,
			"0.001": 24.6001534305,
			"0.002": 18.9888629803,
			"0.003": 22.7086759656,
			"0.004": 28.7497894978,
			"0.005": 26.7512224541,
			"0.006": 6.85673823205,
			"0.007": 0.789421021415,
			"0.008": 0.0,
			"0.009": 0.0,
			"0.01": 0.0,
			"0.011": 0.0,
			"0.012": 0.0,
			"0.013": 0.0,
			"0.014": 0.0,
			"0.015": 0.0,
			"0.016": 0.0,
			"0.017": 0.0,
			"0.018": 0.0,
			"0.019": 0.0,
			"0.02": 0.0,
			"0.021": 0.0,
			"0.022": 0.0,
			"0.023": 0.0,
			"0.024": 0.0,
			"0.025": 0.0
		}
	}
}
