{
	 "smiles": "CNCC(O)COC1=CC=C(C=C1)C(F)(F)F", 
	 "Tm": 359.15, 
	 "num_atms": 31, 
	 "gaussian": { 
		 "optdone": 1, 
		 "sigma_profile": "yes", 
		 "theory": "DFT", 
		 "functional": "B3LYP", 
		 "basiset": "6-31G**", 
		 "properties": { 
			 "R2extent": 7490.3224, 
			 "electric_dipole_moment_norm": 3.04562550062, 
			 "electric_quadrupole_moment_norm": 15.524350578, 
			 "total_energy": -932.312824473, 
			 "HOMO_LUMO_gap": 0.21477, 
			 "cosmo_polarized_energy": -10.44, 
			 "cosmo_cavitation_energy": 35.92, 
			 "cosmo_dispersion_energy": -24.92, 
			 "cosmo_repulsion_energy": 1.9, 
			 "cosmo_total_nonelectrostatic_energy": 12.91, 
			 "SMD_solvation_energy": 6.26 
		},
		"coords": [
			{
				"x": -0.5525680587,
				"y": 0.9393234669,
				"z": -4.2329950996,
				"element": "C" 
			},
			{
				"x": -0.2256275565,
				"y": 0.7220790919,
				"z": -2.8260810536,
				"element": "N" 
			},
			{
				"x": 1.1070904327,
				"y": 1.1968633413,
				"z": -2.4588019362,
				"element": "C" 
			},
			{
				"x": 1.4619812696,
				"y": 0.7360694199,
				"z": -1.0449427631,
				"element": "C" 
			},
			{
				"x": 2.6299209916,
				"y": 1.4364573282,
				"z": -0.6436959618,
				"element": "O" 
			},
			{
				"x": 1.6984108609,
				"y": -0.7727533989,
				"z": -0.9963044941,
				"element": "C" 
			},
			{
				"x": 1.9424778553,
				"y": -1.2105364137,
				"z": 0.3490958654,
				"element": "O" 
			},
			{
				"x": 0.8913715461,
				"y": -1.5334030621,
				"z": 1.1579844069,
				"element": "C" 
			},
			{
				"x": 1.2403727995,
				"y": -1.9783975199,
				"z": 2.4436998131,
				"element": "C" 
			},
			{
				"x": 0.2549418626,
				"y": -2.3440062834,
				"z": 3.3484660393,
				"element": "C" 
			},
			{
				"x": -1.0968439947,
				"y": -2.2706918154,
				"z": 2.9878346744,
				"element": "C" 
			},
			{
				"x": -1.4420688128,
				"y": -1.8264063776,
				"z": 1.712113628,
				"element": "C" 
			},
			{
				"x": -0.46010362,
				"y": -1.4529243944,
				"z": 0.7938201365,
				"element": "C" 
			},
			{
				"x": -2.1548859556,
				"y": -2.7210894426,
				"z": 3.9514279519,
				"element": "C" 
			},
			{
				"x": -2.3536130661,
				"y": -4.0610114869,
				"z": 3.8989561287,
				"element": "F" 
			},
			{
				"x": -3.3508983531,
				"y": -2.1412687772,
				"z": 3.6998161729,
				"element": "F" 
			},
			{
				"x": -1.8246313283,
				"y": -2.43217114,
				"z": 5.231835336,
				"element": "F" 
			},
			{
				"x": -1.5817775261,
				"y": 0.6203216776,
				"z": -4.4221898119,
				"element": "H" 
			},
			{
				"x": 0.1055621875,
				"y": 0.3270445108,
				"z": -4.8592097745,
				"element": "H" 
			},
			{
				"x": -0.4495990849,
				"y": 1.9870150081,
				"z": -4.5663460186,
				"element": "H" 
			},
			{
				"x": -0.9134360042,
				"y": 1.2040392833,
				"z": -2.2515545533,
				"element": "H" 
			},
			{
				"x": 1.8324925509,
				"y": 0.7767888457,
				"z": -3.1677152848,
				"element": "H" 
			},
			{
				"x": 1.2238552057,
				"y": 2.2932830496,
				"z": -2.5050360303,
				"element": "H" 
			},
			{
				"x": 0.6202200173,
				"y": 0.9829766989,
				"z": -0.3745808999,
				"element": "H" 
			},
			{
				"x": 2.9187080976,
				"y": 1.0446534224,
				"z": 0.1922929094,
				"element": "H" 
			},
			{
				"x": 2.6217315506,
				"y": -1.0018128673,
				"z": -1.5366219329,
				"element": "H" 
			},
			{
				"x": 0.8740386264,
				"y": -1.3230698206,
				"z": -1.4564763882,
				"element": "H" 
			},
			{
				"x": 2.2918375619,
				"y": -2.0298250516,
				"z": 2.7057433409,
				"element": "H" 
			},
			{
				"x": 0.5310225543,
				"y": -2.6817681797,
				"z": 4.3418360199,
				"element": "H" 
			},
			{
				"x": -2.48777546,
				"y": -1.7587026316,
				"z": 1.4319764422,
				"element": "H" 
			},
			{
				"x": -0.7587071494,
				"y": -1.0976764817,
				"z": -0.1849468626,
				"element": "H" 
			}
		],
		 "valence_orbital": [ 
			{
				"type": "occ",
				"energy": -0.32345,
				"method": "rhf"
			},
			{
				"type": "occ",
				"energy": -0.27727,
				"method": "rhf"
			},
			{
				"type": "occ",
				"energy": -0.26662,
				"method": "rhf"
			},
			{
				"type": "occ",
				"energy": -0.23835,
				"method": "rhf"
			},
			{
				"type": "occ",
				"energy": -0.23198,
				"method": "rhf"
			},
			{
				"type": "unocc",
				"energy": -0.01721,
				"method": "rhf"
			},
			{
				"type": "unocc",
				"energy": -0.01414,
				"method": "rhf"
			},
			{
				"type": "unocc",
				"energy": 0.06265,
				"method": "rhf"
			},
			{
				"type": "unocc",
				"energy": 0.08624,
				"method": "rhf"
			},
			{
				"type": "unocc",
				"energy": 0.09483,
				"method": "rhf"
			}
		],
		"cosmo_sigma_profile": { 
			"-0.025": 0.0,
			"-0.024": 0.0,
			"-0.023": 0.0,
			"-0.022": 0.0,
			"-0.021": 0.0,
			"-0.02": 0.0,
			"-0.019": 0.0,
			"-0.018": 0.0,
			"-0.017": 0.0,
			"-0.016": 0.0,
			"-0.015": 0.0,
			"-0.014": 0.364884630359,
			"-0.013": 0.707365765125,
			"-0.012": 0.528883111042,
			"-0.011": 0.507472079735,
			"-0.01": 1.79781523775,
			"-0.009": 2.03052935642,
			"-0.008": 2.87063366052,
			"-0.007": 5.46586512049,
			"-0.006": 9.9703655153,
			"-0.005": 14.650101853,
			"-0.004": 20.4437229026,
			"-0.003": 23.5218522693,
			"-0.002": 24.6552357326,
			"-0.001": 23.419401526,
			"0.0": 22.8123991166,
			"0.001": 18.6316093038,
			"0.002": 24.9842049392,
			"0.003": 45.1561105784,
			"0.004": 17.8638360076,
			"0.005": 2.25955156955,
			"0.006": 2.56022981351,
			"0.007": 3.06327609959,
			"0.008": 2.65184949966,
			"0.009": 2.43656972854,
			"0.01": 2.09303736218,
			"0.011": 2.11728310708,
			"0.012": 1.43444629417,
			"0.013": 2.75043914333,
			"0.014": 1.2733104777,
			"0.015": 0.0,
			"0.016": 0.0,
			"0.017": 0.0,
			"0.018": 0.0,
			"0.019": 0.0,
			"0.02": 0.0,
			"0.021": 0.0,
			"0.022": 0.0,
			"0.023": 0.0,
			"0.024": 0.0,
			"0.025": 0.0
		}
	}
}
