{
	 "smiles": "CC(C)(C)C1=CC=C(CC(O)=O)C=C1", 
	 "Tm": 350.15, 
	 "num_atms": 30, 
	 "gaussian": { 
		 "optdone": 1, 
		 "sigma_profile": "yes", 
		 "theory": "DFT", 
		 "functional": "B3LYP", 
		 "basiset": "6-31G**", 
		 "properties": { 
			 "R2extent": 4868.4618, 
			 "electric_dipole_moment_norm": 1.5914236331, 
			 "electric_quadrupole_moment_norm": 8.72093567342, 
			 "total_energy": -617.400587807, 
			 "HOMO_LUMO_gap": 0.22542, 
			 "cosmo_polarized_energy": -9.77, 
			 "cosmo_cavitation_energy": 32.36, 
			 "cosmo_dispersion_energy": -22.64, 
			 "cosmo_repulsion_energy": 1.79, 
			 "cosmo_total_nonelectrostatic_energy": 11.51, 
			 "SMD_solvation_energy": 6.72 
		},
		"coords": [
			{
				"x": -2.4472155093,
				"y": -1.7918034225,
				"z": 0.031059574,
				"element": "C" 
			},
			{
				"x": -1.853980785,
				"y": -0.5522101597,
				"z": 0.7272016488,
				"element": "C" 
			},
			{
				"x": -2.4000651204,
				"y": 0.7082047358,
				"z": 0.0147586845,
				"element": "C" 
			},
			{
				"x": -2.3284337143,
				"y": -0.5534525352,
				"z": 2.200099319,
				"element": "C" 
			},
			{
				"x": -0.314894274,
				"y": -0.5382205179,
				"z": 0.6847799505,
				"element": "C" 
			},
			{
				"x": 0.3946609054,
				"y": 0.5209622218,
				"z": 1.2743435556,
				"element": "C" 
			},
			{
				"x": 1.7870285662,
				"y": 0.569227417,
				"z": 1.255721548,
				"element": "C" 
			},
			{
				"x": 2.5298589861,
				"y": -0.4425851467,
				"z": 0.6387738151,
				"element": "C" 
			},
			{
				"x": 4.0502658647,
				"y": -0.3923807266,
				"z": 0.6061791345,
				"element": "C" 
			},
			{
				"x": 4.6507657085,
				"y": -1.5650221194,
				"z": 1.359379553,
				"element": "C" 
			},
			{
				"x": 4.9401097023,
				"y": -1.2501714575,
				"z": 2.6439906296,
				"element": "O" 
			},
			{
				"x": 4.8325916446,
				"y": -2.6715769683,
				"z": 0.9001424768,
				"element": "O" 
			},
			{
				"x": 1.8366474899,
				"y": -1.5051714693,
				"z": 0.0515014272,
				"element": "C" 
			},
			{
				"x": 0.4418867572,
				"y": -1.5493603467,
				"z": 0.0751410256,
				"element": "C" 
			},
			{
				"x": -2.1723882682,
				"y": -1.8354996548,
				"z": -1.0279632998,
				"element": "H" 
			},
			{
				"x": -2.1217536133,
				"y": -2.7222224724,
				"z": 0.5078428971,
				"element": "H" 
			},
			{
				"x": -3.5401338631,
				"y": -1.7579021666,
				"z": 0.0865771744,
				"element": "H" 
			},
			{
				"x": -2.0481375522,
				"y": 1.6290061733,
				"z": 0.4893641444,
				"element": "H" 
			},
			{
				"x": -2.0858709068,
				"y": 0.7322216459,
				"z": -1.0339003781,
				"element": "H" 
			},
			{
				"x": -3.495655529,
				"y": 0.717332989,
				"z": 0.0417084054,
				"element": "H" 
			},
			{
				"x": -3.4233283289,
				"y": -0.5574192427,
				"z": 2.2482512736,
				"element": "H" 
			},
			{
				"x": -1.9750663848,
				"y": 0.3283502283,
				"z": 2.7427841561,
				"element": "H" 
			},
			{
				"x": -1.961840263,
				"y": -1.4395376388,
				"z": 2.7286499973,
				"element": "H" 
			},
			{
				"x": -0.1444515936,
				"y": 1.3285364243,
				"z": 1.7611569895,
				"element": "H" 
			},
			{
				"x": 2.3006944533,
				"y": 1.4050362104,
				"z": 1.7243596729,
				"element": "H" 
			},
			{
				"x": 4.4105758894,
				"y": -0.4605121845,
				"z": -0.4248266856,
				"element": "H" 
			},
			{
				"x": 4.4068689823,
				"y": 0.5438782606,
				"z": 1.0413964142,
				"element": "H" 
			},
			{
				"x": 5.2748256961,
				"y": -2.0666967492,
				"z": 3.052439294,
				"element": "H" 
			},
			{
				"x": 2.3936623157,
				"y": -2.3101778189,
				"z": -0.4198559036,
				"element": "H" 
			},
			{
				"x": -0.0519272558,
				"y": -2.3925335088,
				"z": -0.3941564939,
				"element": "H" 
			}
		],
		 "valence_orbital": [ 
			{
				"type": "occ",
				"energy": -0.31703,
				"method": "rhf"
			},
			{
				"type": "occ",
				"energy": -0.31468,
				"method": "rhf"
			},
			{
				"type": "occ",
				"energy": -0.2751,
				"method": "rhf"
			},
			{
				"type": "occ",
				"energy": -0.24738,
				"method": "rhf"
			},
			{
				"type": "occ",
				"energy": -0.2343,
				"method": "rhf"
			},
			{
				"type": "unocc",
				"energy": -0.00888,
				"method": "rhf"
			},
			{
				"type": "unocc",
				"energy": -0.00093,
				"method": "rhf"
			},
			{
				"type": "unocc",
				"energy": 0.0206,
				"method": "rhf"
			},
			{
				"type": "unocc",
				"energy": 0.07949,
				"method": "rhf"
			},
			{
				"type": "unocc",
				"energy": 0.08186,
				"method": "rhf"
			}
		],
		"cosmo_sigma_profile": { 
			"-0.025": 0.0,
			"-0.024": 0.0,
			"-0.023": 0.0,
			"-0.022": 0.0,
			"-0.021": 0.0,
			"-0.02": 0.0,
			"-0.019": 0.0,
			"-0.018": 0.42017055549,
			"-0.017": 1.26438072673,
			"-0.016": 0.987451841987,
			"-0.015": 0.18305772029,
			"-0.014": 1.03574084716,
			"-0.013": 0.732892260276,
			"-0.012": 1.01258295549,
			"-0.011": 0.84900004578,
			"-0.01": 0.582958901666,
			"-0.009": 0.320510346921,
			"-0.008": 0.448393168363,
			"-0.007": 1.37696971582,
			"-0.006": 6.39605562728,
			"-0.005": 11.6765858494,
			"-0.004": 15.8310378537,
			"-0.003": 25.7148492594,
			"-0.002": 28.7140803489,
			"-0.001": 26.4988274142,
			"0.0": 22.2662472291,
			"0.001": 29.2122604818,
			"0.002": 17.9011425664,
			"0.003": 10.3001928979,
			"0.004": 10.9670812326,
			"0.005": 9.18065525812,
			"0.006": 9.54550763937,
			"0.007": 3.57964938139,
			"0.008": 2.80124188149,
			"0.009": 2.77427688937,
			"0.01": 2.64328592493,
			"0.011": 3.04074688998,
			"0.012": 4.48110624332,
			"0.013": 0.399326126434,
			"0.014": 0.0,
			"0.015": 0.0,
			"0.016": 0.0,
			"0.017": 0.0,
			"0.018": 0.0,
			"0.019": 0.0,
			"0.02": 0.0,
			"0.021": 0.0,
			"0.022": 0.0,
			"0.023": 0.0,
			"0.024": 0.0,
			"0.025": 0.0
		}
	}
}
