{
	 "smiles": "OC(=O)C1=C(COC2=CC(C=O)=CC=C2)OC=C1", 
	 "Tm": 397.15, 
	 "num_atms": 28, 
	 "gaussian": { 
		 "optdone": 1, 
		 "sigma_profile": "yes", 
		 "theory": "DFT", 
		 "functional": "B3LYP", 
		 "basiset": "6-31G**", 
		 "properties": { 
			 "R2extent": 5934.6618, 
			 "electric_dipole_moment_norm": 1.99663765616, 
			 "electric_quadrupole_moment_norm": 15.0820585094, 
			 "total_energy": -877.498741291, 
			 "HOMO_LUMO_gap": 0.17188, 
			 "cosmo_polarized_energy": -16.0, 
			 "cosmo_cavitation_energy": 34.25, 
			 "cosmo_dispersion_energy": -23.75, 
			 "cosmo_repulsion_energy": 1.83, 
			 "cosmo_total_nonelectrostatic_energy": 12.33, 
			 "SMD_solvation_energy": 9.26 
		},
		"coords": [
			{
				"x": 3.473674457,
				"y": 1.4295844266,
				"z": 2.6839329399,
				"element": "O" 
			},
			{
				"x": 2.9180073908,
				"y": 2.6685244232,
				"z": 2.7090192521,
				"element": "C" 
			},
			{
				"x": 3.5791354716,
				"y": 3.6747677533,
				"z": 2.8691073851,
				"element": "O" 
			},
			{
				"x": 1.4590127206,
				"y": 2.6553008918,
				"z": 2.5330587358,
				"element": "C" 
			},
			{
				"x": 0.610778782,
				"y": 1.593595529,
				"z": 2.3117815194,
				"element": "C" 
			},
			{
				"x": 0.8113510005,
				"y": 0.1219501652,
				"z": 2.1364444977,
				"element": "C" 
			},
			{
				"x": 1.250494041,
				"y": -0.2504627904,
				"z": 0.8233728217,
				"element": "O" 
			},
			{
				"x": 0.3451851368,
				"y": -0.4054024023,
				"z": -0.1889601205,
				"element": "C" 
			},
			{
				"x": -1.0204687605,
				"y": -0.1406231458,
				"z": -0.1070973672,
				"element": "C" 
			},
			{
				"x": -1.83272621,
				"y": -0.3695428972,
				"z": -1.2308679409,
				"element": "C" 
			},
			{
				"x": -3.2835521854,
				"y": -0.086927651,
				"z": -1.1464871839,
				"element": "C" 
			},
			{
				"x": -3.8515821231,
				"y": 0.339019557,
				"z": -0.1581193351,
				"element": "O" 
			},
			{
				"x": -1.2916416274,
				"y": -0.8505675418,
				"z": -2.4258631451,
				"element": "C" 
			},
			{
				"x": 0.0802685743,
				"y": -1.1043724164,
				"z": -2.5011283053,
				"element": "C" 
			},
			{
				"x": 0.8922030505,
				"y": -0.885215501,
				"z": -1.3945721679,
				"element": "C" 
			},
			{
				"x": -0.6657307521,
				"y": 2.0553630108,
				"z": 2.2272627517,
				"element": "O" 
			},
			{
				"x": -0.6346736753,
				"y": 3.413323227,
				"z": 2.3904775307,
				"element": "C" 
			},
			{
				"x": 0.6405261512,
				"y": 3.834088319,
				"z": 2.5804350312,
				"element": "C" 
			},
			{
				"x": 4.4282219478,
				"y": 1.5644586479,
				"z": 2.8047727338,
				"element": "H" 
			},
			{
				"x": -0.1089382724,
				"y": -0.4081622366,
				"z": 2.4047195799,
				"element": "H" 
			},
			{
				"x": 1.6187567387,
				"y": -0.2063719551,
				"z": 2.7900956768,
				"element": "H" 
			},
			{
				"x": -1.4912465001,
				"y": 0.2586108529,
				"z": 0.7822253134,
				"element": "H" 
			},
			{
				"x": -3.8484900862,
				"y": -0.2961622408,
				"z": -2.082213499,
				"element": "H" 
			},
			{
				"x": -1.9362076805,
				"y": -1.0191761128,
				"z": -3.2844282603,
				"element": "H" 
			},
			{
				"x": 0.5192096805,
				"y": -1.476245346,
				"z": -3.4220821685,
				"element": "H" 
			},
			{
				"x": 1.9591700836,
				"y": -1.0800782601,
				"z": -1.4306462629,
				"element": "H" 
			},
			{
				"x": -1.5908084485,
				"y": 3.9103765932,
				"z": 2.3477529071,
				"element": "H" 
			},
			{
				"x": 0.9912710945,
				"y": 4.8421471006,
				"z": 2.7408070802,
				"element": "H" 
			}
		],
		 "valence_orbital": [ 
			{
				"type": "occ",
				"energy": -0.28385,
				"method": "rhf"
			},
			{
				"type": "occ",
				"energy": -0.26263,
				"method": "rhf"
			},
			{
				"type": "occ",
				"energy": -0.25404,
				"method": "rhf"
			},
			{
				"type": "occ",
				"energy": -0.24954,
				"method": "rhf"
			},
			{
				"type": "occ",
				"energy": -0.23375,
				"method": "rhf"
			},
			{
				"type": "unocc",
				"energy": -0.06187,
				"method": "rhf"
			},
			{
				"type": "unocc",
				"energy": -0.04562,
				"method": "rhf"
			},
			{
				"type": "unocc",
				"energy": -0.00189,
				"method": "rhf"
			},
			{
				"type": "unocc",
				"energy": 0.01131,
				"method": "rhf"
			},
			{
				"type": "unocc",
				"energy": 0.04293,
				"method": "rhf"
			}
		],
		"cosmo_sigma_profile": { 
			"-0.025": 0.0,
			"-0.024": 0.0,
			"-0.023": 0.0,
			"-0.022": 0.0,
			"-0.021": 0.0,
			"-0.02": 0.0,
			"-0.019": 0.0699360778404,
			"-0.018": 1.05440406342,
			"-0.017": 0.615998045342,
			"-0.016": 0.70541067488,
			"-0.015": 1.16623718665,
			"-0.014": 0.707917786243,
			"-0.013": 0.444635463171,
			"-0.012": 0.346041911353,
			"-0.011": 1.18710183343,
			"-0.01": 2.16515326708,
			"-0.009": 2.57399555039,
			"-0.008": 4.85017168451,
			"-0.007": 13.7522678278,
			"-0.006": 16.7660752771,
			"-0.005": 17.3089481257,
			"-0.004": 15.394327183,
			"-0.003": 13.8572649025,
			"-0.002": 15.4422982763,
			"-0.001": 16.6033623237,
			"0.0": 18.105558247,
			"0.001": 23.9622905261,
			"0.002": 24.7677772943,
			"0.003": 23.809943825,
			"0.004": 11.3079624696,
			"0.005": 7.60087135695,
			"0.006": 3.84933858193,
			"0.007": 5.37977628422,
			"0.008": 5.63384103886,
			"0.009": 4.59893484502,
			"0.01": 5.14258770675,
			"0.011": 8.84441356835,
			"0.012": 6.3281818706,
			"0.013": 0.835705904716,
			"0.014": 0.0,
			"0.015": 0.0,
			"0.016": 0.0,
			"0.017": 0.0,
			"0.018": 0.0,
			"0.019": 0.0,
			"0.02": 0.0,
			"0.021": 0.0,
			"0.022": 0.0,
			"0.023": 0.0,
			"0.024": 0.0,
			"0.025": 0.0
		}
	}
}
