{
	 "smiles": "OC(=O)C1=CC=C(NS(=O)(=O)C2=CC=CS2)C=C1", 
	 "Tm": 500.15, 
	 "num_atms": 27, 
	 "gaussian": { 
		 "optdone": 1, 
		 "sigma_profile": "yes", 
		 "theory": "DFT", 
		 "functional": "B3LYP", 
		 "basiset": "6-31G**", 
		 "properties": { 
			 "R2extent": 7043.4211, 
			 "electric_dipole_moment_norm": 2.76653907437, 
			 "electric_quadrupole_moment_norm": 40.2077906759, 
			 "total_energy": -1576.53220088, 
			 "HOMO_LUMO_gap": 0.18178, 
			 "cosmo_polarized_energy": -24.67, 
			 "cosmo_cavitation_energy": 35.46, 
			 "cosmo_dispersion_energy": -25.75, 
			 "cosmo_repulsion_energy": 1.9, 
			 "cosmo_total_nonelectrostatic_energy": 11.6, 
			 "SMD_solvation_energy": 6.32 
		},
		"coords": [
			{
				"x": -2.0563639102,
				"y": 4.1228890242,
				"z": -2.2283985824,
				"element": "O" 
			},
			{
				"x": -1.7883445807,
				"y": 2.8512309577,
				"z": -2.6320281849,
				"element": "C" 
			},
			{
				"x": -1.420989874,
				"y": 2.6443251009,
				"z": -3.7653210657,
				"element": "O" 
			},
			{
				"x": -1.9698784992,
				"y": 1.7661606489,
				"z": -1.6176732756,
				"element": "C" 
			},
			{
				"x": -1.993907099,
				"y": 1.9923705095,
				"z": -0.2342367399,
				"element": "C" 
			},
			{
				"x": -2.1569398134,
				"y": 0.9449979436,
				"z": 0.6675821308,
				"element": "C" 
			},
			{
				"x": -2.2783116982,
				"y": -0.3680567217,
				"z": 0.1875423181,
				"element": "C" 
			},
			{
				"x": -2.4858920872,
				"y": -1.4594968813,
				"z": 1.059868504,
				"element": "N" 
			},
			{
				"x": -1.6424148771,
				"y": -1.7257635152,
				"z": 2.511993258,
				"element": "S" 
			},
			{
				"x": -1.7895583171,
				"y": -0.5256135166,
				"z": 3.3301078987,
				"element": "O" 
			},
			{
				"x": -2.1051359419,
				"y": -3.0453107875,
				"z": 2.9323790806,
				"element": "O" 
			},
			{
				"x": 0.0679810003,
				"y": -1.8502509935,
				"z": 2.0833437954,
				"element": "C" 
			},
			{
				"x": 0.9768396994,
				"y": -0.8209051143,
				"z": 2.0884332662,
				"element": "C" 
			},
			{
				"x": 2.2597496903,
				"y": -1.2378774903,
				"z": 1.6348638024,
				"element": "C" 
			},
			{
				"x": 2.2922772252,
				"y": -2.565029321,
				"z": 1.2939041307,
				"element": "C" 
			},
			{
				"x": 0.7668276392,
				"y": -3.3462076624,
				"z": 1.5282935117,
				"element": "S" 
			},
			{
				"x": -2.2373338221,
				"y": -0.605541836,
				"z": -1.1967456266,
				"element": "C" 
			},
			{
				"x": -2.0859135667,
				"y": 0.4496160172,
				"z": -2.0850397508,
				"element": "C" 
			},
			{
				"x": -2.5009304001,
				"y": 4.1159479152,
				"z": -1.3696774529,
				"element": "H" 
			},
			{
				"x": -1.8639764428,
				"y": 2.9945085805,
				"z": 0.1676703926,
				"element": "H" 
			},
			{
				"x": -2.1982857904,
				"y": 1.1331189276,
				"z": 1.733034661,
				"element": "H" 
			},
			{
				"x": -2.6765823963,
				"y": -2.3491331361,
				"z": 0.610233981,
				"element": "H" 
			},
			{
				"x": 0.7289938842,
				"y": 0.1801269391,
				"z": 2.4177958949,
				"element": "H" 
			},
			{
				"x": 3.1206675068,
				"y": -0.5830348194,
				"z": 1.5716034742,
				"element": "H" 
			},
			{
				"x": 3.1354074904,
				"y": -3.1408658994,
				"z": 0.9363418106,
				"element": "H" 
			},
			{
				"x": -2.3209104727,
				"y": -1.6224882084,
				"z": -1.5712430628,
				"element": "H" 
			},
			{
				"x": -2.0431745466,
				"y": 0.2746833386,
				"z": -3.1545281693,
				"element": "H" 
			}
		],
		 "valence_orbital": [ 
			{
				"type": "occ",
				"energy": -0.28464,
				"method": "rhf"
			},
			{
				"type": "occ",
				"energy": -0.28084,
				"method": "rhf"
			},
			{
				"type": "occ",
				"energy": -0.27712,
				"method": "rhf"
			},
			{
				"type": "occ",
				"energy": -0.27205,
				"method": "rhf"
			},
			{
				"type": "occ",
				"energy": -0.24804,
				"method": "rhf"
			},
			{
				"type": "unocc",
				"energy": -0.06626,
				"method": "rhf"
			},
			{
				"type": "unocc",
				"energy": -0.05124,
				"method": "rhf"
			},
			{
				"type": "unocc",
				"energy": -0.03147,
				"method": "rhf"
			},
			{
				"type": "unocc",
				"energy": -0.00036,
				"method": "rhf"
			},
			{
				"type": "unocc",
				"energy": 0.023,
				"method": "rhf"
			}
		],
		"cosmo_sigma_profile": { 
			"-0.025": 0.0,
			"-0.024": 0.0,
			"-0.023": 0.0,
			"-0.022": 0.0,
			"-0.021": 0.0,
			"-0.02": 0.0,
			"-0.019": 0.302642389826,
			"-0.018": 0.931080515087,
			"-0.017": 1.09044511915,
			"-0.016": 1.73669603076,
			"-0.015": 2.18560385854,
			"-0.014": 1.82163630709,
			"-0.013": 2.42537790549,
			"-0.012": 2.826556945,
			"-0.011": 2.77406027385,
			"-0.01": 4.28350361578,
			"-0.009": 4.93015870681,
			"-0.008": 8.45913812805,
			"-0.007": 10.8498397233,
			"-0.006": 13.3827545911,
			"-0.005": 11.6860945877,
			"-0.004": 11.6854247592,
			"-0.003": 14.1947218886,
			"-0.002": 13.1702647941,
			"-0.001": 14.3723378899,
			"0.0": 19.9877423874,
			"0.001": 25.6628320414,
			"0.002": 30.6763355043,
			"0.003": 19.0458834259,
			"0.004": 6.89394246975,
			"0.005": 6.75590410836,
			"0.006": 6.64457954425,
			"0.007": 5.36014034076,
			"0.008": 5.9247541587,
			"0.009": 9.5177282147,
			"0.01": 12.8610131601,
			"0.011": 7.95375530743,
			"0.012": 5.18333813497,
			"0.013": 1.77305179753,
			"0.014": 0.13445525908,
			"0.015": 0.0,
			"0.016": 0.0,
			"0.017": 0.0,
			"0.018": 0.0,
			"0.019": 0.0,
			"0.02": 0.0,
			"0.021": 0.0,
			"0.022": 0.0,
			"0.023": 0.0,
			"0.024": 0.0,
			"0.0": 0.0
		}
	}
}
