{
	 "smiles": "CC1=NC=CN1C1=C(N)C=CC=N1", 
	 "Tm": 440.15, 
	 "num_atms": 23, 
	 "gaussian": { 
		 "optdone": 1, 
		 "sigma_profile": "yes", 
		 "theory": "DFT", 
		 "functional": "B3LYP", 
		 "basiset": "6-31G**", 
		 "properties": { 
			 "R2extent": 2313.6645, 
			 "electric_dipole_moment_norm": 5.25581832353, 
			 "electric_quadrupole_moment_norm": 8.12289422804, 
			 "total_energy": -567.988965973, 
			 "HOMO_LUMO_gap": 0.18112, 
			 "cosmo_polarized_energy": -14.78, 
			 "cosmo_cavitation_energy": 26.63, 
			 "cosmo_dispersion_energy": -19.39, 
			 "cosmo_repulsion_energy": 1.53, 
			 "cosmo_total_nonelectrostatic_energy": 8.77, 
			 "SMD_solvation_energy": 2.65 
		},
		"coords": [
			{
				"x": -1.9837153107,
				"y": 0.1878671392,
				"z": -1.5738063684,
				"element": "C" 
			},
			{
				"x": -1.1139211633,
				"y": -0.964358779,
				"z": -1.1899392237,
				"element": "C" 
			},
			{
				"x": -1.1606577632,
				"y": -2.1610643451,
				"z": -1.7374836358,
				"element": "N" 
			},
			{
				"x": -0.2075775721,
				"y": -2.9165083354,
				"z": -1.0887612027,
				"element": "C" 
			},
			{
				"x": 0.4225609125,
				"y": -2.1793326582,
				"z": -0.1251935367,
				"element": "C" 
			},
			{
				"x": -0.1640566433,
				"y": -0.9147929087,
				"z": -0.1817842158,
				"element": "N" 
			},
			{
				"x": 0.2048021158,
				"y": 0.2164713703,
				"z": 0.6042089236,
				"element": "C" 
			},
			{
				"x": 0.2338794775,
				"y": 0.105523561,
				"z": 2.0170170831,
				"element": "C" 
			},
			{
				"x": -0.0502452668,
				"y": -1.0849628946,
				"z": 2.6707524075,
				"element": "N" 
			},
			{
				"x": 0.6096594716,
				"y": 1.2582846425,
				"z": 2.723442664,
				"element": "C" 
			},
			{
				"x": 0.9065198382,
				"y": 2.4284634939,
				"z": 2.0338230898,
				"element": "C" 
			},
			{
				"x": 0.8200232417,
				"y": 2.4279741821,
				"z": 0.6419733739,
				"element": "C" 
			},
			{
				"x": 0.4836159998,
				"y": 1.3369925781,
				"z": -0.0535110782,
				"element": "N" 
			},
			{
				"x": -2.6873635949,
				"y": -0.1606054978,
				"z": -2.331093346,
				"element": "H" 
			},
			{
				"x": -1.3944393926,
				"y": 1.0165638282,
				"z": -1.9752415596,
				"element": "H" 
			},
			{
				"x": -2.5493800083,
				"y": 0.5751500653,
				"z": -0.7184733012,
				"element": "H" 
			},
			{
				"x": -0.0276937573,
				"y": -3.948751766,
				"z": -1.3565693444,
				"element": "H" 
			},
			{
				"x": 1.2268877959,
				"y": -2.3975047597,
				"z": 0.5597106693,
				"element": "H" 
			},
			{
				"x": -0.3416571657,
				"y": -0.9932651949,
				"z": 3.6337937207,
				"element": "H" 
			},
			{
				"x": -0.5975941629,
				"y": -1.7555140569,
				"z": 2.1479868443,
				"element": "H" 
			},
			{
				"x": 0.6550774965,
				"y": 1.226762572,
				"z": 3.8091307224,
				"element": "H" 
			},
			{
				"x": 1.1934668437,
				"y": 3.3280970666,
				"z": 2.5688990157,
				"element": "H" 
			},
			{
				"x": 1.0319086077,
				"y": 3.3238106971,
				"z": 0.0638182986,
				"element": "H" 
			}
		],
		 "valence_orbital": [ 
			{
				"type": "occ",
				"energy": -0.26994,
				"method": "rhf"
			},
			{
				"type": "occ",
				"energy": -0.26606,
				"method": "rhf"
			},
			{
				"type": "occ",
				"energy": -0.25447,
				"method": "rhf"
			},
			{
				"type": "occ",
				"energy": -0.22192,
				"method": "rhf"
			},
			{
				"type": "occ",
				"energy": -0.21386,
				"method": "rhf"
			},
			{
				"type": "unocc",
				"energy": -0.03274,
				"method": "rhf"
			},
			{
				"type": "unocc",
				"energy": -0.00832,
				"method": "rhf"
			},
			{
				"type": "unocc",
				"energy": 0.03805,
				"method": "rhf"
			},
			{
				"type": "unocc",
				"energy": 0.06741,
				"method": "rhf"
			},
			{
				"type": "unocc",
				"energy": 0.08548,
				"method": "rhf"
			}
		],
		"cosmo_sigma_profile": { 
			"-0.025": 0.0,
			"-0.024": 0.0,
			"-0.023": 0.0,
			"-0.022": 0.0,
			"-0.021": 0.0,
			"-0.02": 0.0,
			"-0.019": 0.0,
			"-0.018": 0.0,
			"-0.017": 0.0,
			"-0.016": 0.0,
			"-0.015": 0.0,
			"-0.014": 0.347488784447,
			"-0.013": 1.37501828506,
			"-0.012": 2.06259661153,
			"-0.011": 2.56991702798,
			"-0.01": 2.72794883278,
			"-0.009": 2.91380153394,
			"-0.008": 3.44393603578,
			"-0.007": 6.20194641595,
			"-0.006": 10.7427300553,
			"-0.005": 13.2937442132,
			"-0.004": 14.3827774066,
			"-0.003": 16.1683757045,
			"-0.002": 14.305547526,
			"-0.001": 14.2369900008,
			"0.0": 15.9703945454,
			"0.001": 12.2530953212,
			"0.002": 13.4441566956,
			"0.003": 16.3324111197,
			"0.004": 10.8614477737,
			"0.005": 7.4351438285,
			"0.006": 6.65396528036,
			"0.007": 4.07203390974,
			"0.008": 3.34527391826,
			"0.009": 3.17681222044,
			"0.01": 2.99145972109,
			"0.011": 1.86666821318,
			"0.012": 2.1925073713,
			"0.013": 2.12399576985,
			"0.014": 1.33957492776,
			"0.015": 0.983893442559,
			"0.016": 0.954840344649,
			"0.017": 0.963177760968,
			"0.018": 0.864027882957,
			"0.019": 0.0619515528335,
			"0.02": 0.0,
			"0.021": 0.0,
			"0.022": 0.0,
			"0.023": 0.0,
			"0.024": 0.0,
			"0.025": 0.0
		}
	}
}
