{
	 "smiles": "CN(C)CCOC1=CC2=CC=CC=C2SC2=CC=C(Cl)C=C12", 
	 "Tm": 363.15, 
	 "num_atms": 40, 
	 "gaussian": { 
		 "optdone": 1, 
		 "sigma_profile": "yes", 
		 "theory": "DFT", 
		 "functional": "B3LYP", 
		 "basiset": "6-31G**", 
		 "properties": { 
			 "R2extent": 9511.5274, 
			 "electric_dipole_moment_norm": 1.65301555044, 
			 "electric_quadrupole_moment_norm": 13.3292995836, 
			 "total_energy": -1685.0849569, 
			 "HOMO_LUMO_gap": 0.147, 
			 "cosmo_polarized_energy": -8.86, 
			 "cosmo_cavitation_energy": 45.72, 
			 "cosmo_dispersion_energy": -31.73, 
			 "cosmo_repulsion_energy": 2.39, 
			 "cosmo_total_nonelectrostatic_energy": 16.39, 
			 "SMD_solvation_energy": 4.54 
		},
		"coords": [
			{
				"x": 0.6920691805,
				"y": 2.4484311932,
				"z": 3.4702487301,
				"element": "C" 
			},
			{
				"x": -0.0120571653,
				"y": 3.4174887165,
				"z": 2.6415853555,
				"element": "N" 
			},
			{
				"x": -1.4386063008,
				"y": 3.4573457448,
				"z": 2.9116586153,
				"element": "C" 
			},
			{
				"x": 0.3357811711,
				"y": 3.4101313524,
				"z": 1.2279053746,
				"element": "C" 
			},
			{
				"x": -0.1234334308,
				"y": 2.2351650402,
				"z": 0.3577374662,
				"element": "C" 
			},
			{
				"x": 0.6101999565,
				"y": 1.052829524,
				"z": 0.7292014727,
				"element": "O" 
			},
			{
				"x": 0.3623335145,
				"y": -0.0651817631,
				"z": -0.046516046,
				"element": "C" 
			},
			{
				"x": -0.1845358464,
				"y": -1.127311618,
				"z": 0.586596435,
				"element": "C" 
			},
			{
				"x": -0.4233523117,
				"y": -2.4892027629,
				"z": 0.1065595914,
				"element": "C" 
			},
			{
				"x": -0.2710793695,
				"y": -3.5502188609,
				"z": 1.0214089954,
				"element": "C" 
			},
			{
				"x": -0.4940510684,
				"y": -4.8722479769,
				"z": 0.6502512254,
				"element": "C" 
			},
			{
				"x": -0.8810318103,
				"y": -5.1724313856,
				"z": -0.6576348862,
				"element": "C" 
			},
			{
				"x": -1.043920364,
				"y": -4.1413261659,
				"z": -1.5816170226,
				"element": "C" 
			},
			{
				"x": -0.8325199934,
				"y": -2.8097349276,
				"z": -1.206508437,
				"element": "C" 
			},
			{
				"x": -1.2336761968,
				"y": -1.5264046657,
				"z": -2.3903849165,
				"element": "S" 
			},
			{
				"x": 0.3288203781,
				"y": -0.6663799476,
				"z": -2.5255432284,
				"element": "C" 
			},
			{
				"x": 0.9323849096,
				"y": -0.5802927259,
				"z": -3.7862184636,
				"element": "C" 
			},
			{
				"x": 2.0935411496,
				"y": 0.1635726544,
				"z": -3.9806443108,
				"element": "C" 
			},
			{
				"x": 2.6631400938,
				"y": 0.810721964,
				"z": -2.8839977783,
				"element": "C" 
			},
			{
				"x": 4.1368741545,
				"y": 1.7436835757,
				"z": -3.1014557254,
				"element": "Cl" 
			},
			{
				"x": 2.0898756269,
				"y": 0.7295393713,
				"z": -1.6212301975,
				"element": "C" 
			},
			{
				"x": 0.90899915,
				"y": -0.0093088937,
				"z": -1.421078938,
				"element": "C" 
			},
			{
				"x": 1.7626708558,
				"y": 2.4826214852,
				"z": 3.2465999894,
				"element": "H" 
			},
			{
				"x": 0.5572446478,
				"y": 2.7147932296,
				"z": 4.5254199005,
				"element": "H" 
			},
			{
				"x": 0.3559543835,
				"y": 1.4074530768,
				"z": 3.3334186402,
				"element": "H" 
			},
			{
				"x": -1.9737232842,
				"y": 2.5139389294,
				"z": 2.6919422302,
				"element": "H" 
			},
			{
				"x": -1.9070786474,
				"y": 4.2547029565,
				"z": 2.3239994917,
				"element": "H" 
			},
			{
				"x": -1.6012471919,
				"y": 3.6827923692,
				"z": 3.9716046429,
				"element": "H" 
			},
			{
				"x": 1.4265694115,
				"y": 3.489888766,
				"z": 1.1430581694,
				"element": "H" 
			},
			{
				"x": -0.0864352729,
				"y": 4.317793626,
				"z": 0.7742038523,
				"element": "H" 
			},
			{
				"x": -1.1976228119,
				"y": 2.0400241341,
				"z": 0.4750830148,
				"element": "H" 
			},
			{
				"x": 0.0604959876,
				"y": 2.4766694565,
				"z": -0.6980024888,
				"element": "H" 
			},
			{
				"x": -0.3893702387,
				"y": -0.9625542025,
				"z": 1.6421639983,
				"element": "H" 
			},
			{
				"x": 0.0338267001,
				"y": -3.3192846918,
				"z": 2.0385725706,
				"element": "H" 
			},
			{
				"x": -0.366584665,
				"y": -5.6667262341,
				"z": 1.3796018541,
				"element": "H" 
			},
			{
				"x": -1.0606258891,
				"y": -6.2008517011,
				"z": -0.956431303,
				"element": "H" 
			},
			{
				"x": -1.3513307456,
				"y": -4.3592031435,
				"z": -2.5994461476,
				"element": "H" 
			},
			{
				"x": 0.4756008895,
				"y": -1.0953630174,
				"z": -4.624902524,
				"element": "H" 
			},
			{
				"x": 2.5501114511,
				"y": 0.2382535448,
				"z": -4.9611433396,
				"element": "H" 
			},
			{
				"x": 2.5472889924,
				"y": 1.2307839742,
				"z": -0.7768658627,
				"element": "H" 
			}
		],
		 "valence_orbital": [ 
			{
				"type": "occ",
				"energy": -0.2705,
				"method": "rhf"
			},
			{
				"type": "occ",
				"energy": -0.25316,
				"method": "rhf"
			},
			{
				"type": "occ",
				"energy": -0.22996,
				"method": "rhf"
			},
			{
				"type": "occ",
				"energy": -0.21668,
				"method": "rhf"
			},
			{
				"type": "occ",
				"energy": -0.20279,
				"method": "rhf"
			},
			{
				"type": "unocc",
				"energy": -0.05579,
				"method": "rhf"
			},
			{
				"type": "unocc",
				"energy": -0.02506,
				"method": "rhf"
			},
			{
				"type": "unocc",
				"energy": -0.01424,
				"method": "rhf"
			},
			{
				"type": "unocc",
				"energy": -0.01206,
				"method": "rhf"
			},
			{
				"type": "unocc",
				"energy": 0.02342,
				"method": "rhf"
			}
		],
		"cosmo_sigma_profile": { 
			"-0.025": 0.0,
			"-0.024": 0.0,
			"-0.023": 0.0,
			"-0.022": 0.0,
			"-0.021": 0.0,
			"-0.02": 0.0,
			"-0.019": 0.0,
			"-0.018": 0.0,
			"-0.017": 0.0,
			"-0.016": 0.0,
			"-0.015": 0.0,
			"-0.014": 0.0,
			"-0.013": 0.0,
			"-0.012": 0.0,
			"-0.011": 0.0,
			"-0.01": 0.0,
			"-0.009": 0.0,
			"-0.008": 0.942315957598,
			"-0.007": 5.02037596456,
			"-0.006": 14.4777826294,
			"-0.005": 15.6401455804,
			"-0.004": 30.251486541,
			"-0.003": 33.5919159183,
			"-0.002": 32.1779678841,
			"-0.001": 34.2299579342,
			"0.0": 38.793306592,
			"0.001": 36.0982777587,
			"0.002": 37.4226632951,
			"0.003": 28.350018441,
			"0.004": 28.4484704661,
			"0.005": 13.9861252286,
			"0.006": 5.19324482579,
			"0.007": 3.49252448709,
			"0.008": 2.76018339396,
			"0.009": 2.26917163069,
			"0.01": 1.05664175573,
			"0.011": 0.525475079764,
			"0.012": 0.701444166149,
			"0.013": 0.195246219088,
			"0.014": 0.213474189785,
			"0.015": 1.04886566944,
			"0.016": 0.156074271408,
			"0.017": 0.0,
			"0.018": 0.0,
			"0.019": 0.0,
			"0.02": 0.0,
			"0.021": 0.0,
			"0.022": 0.0,
			"0.023": 0.0,
			"0.024": 0.0,
			"0.025": 0.0
		}
	}
}
