{
	 "smiles": "OC(=O)C1=CN=C(S1)C1=CC2=C(OCC2)C=C1", 
	 "Tm": 489.15, 
	 "num_atms": 26, 
	 "gaussian": { 
		 "optdone": 1, 
		 "sigma_profile": "yes", 
		 "theory": "DFT", 
		 "functional": "B3LYP", 
		 "basiset": "6-31G**", 
		 "properties": { 
			 "R2extent": 6776.1885, 
			 "electric_dipole_moment_norm": 3.57952407311, 
			 "electric_quadrupole_moment_norm": 9.48113292228, 
			 "total_energy": -1141.31951945, 
			 "HOMO_LUMO_gap": 0.14149, 
			 "cosmo_polarized_energy": -13.15, 
			 "cosmo_cavitation_energy": 32.5, 
			 "cosmo_dispersion_energy": -24.87, 
			 "cosmo_repulsion_energy": 1.87, 
			 "cosmo_total_nonelectrostatic_energy": 9.5, 
			 "SMD_solvation_energy": 5.24 
		},
		"coords": [
			{
				"x": 5.4413590931,
				"y": -2.2444933,
				"z": 1.9985578724,
				"element": "O" 
			},
			{
				"x": 4.7043771256,
				"y": -2.5272837951,
				"z": 0.892974724,
				"element": "C" 
			},
			{
				"x": 5.0057703119,
				"y": -3.4062608,
				"z": 0.1078398183,
				"element": "O" 
			},
			{
				"x": 3.5339655931,
				"y": -1.6589818192,
				"z": 0.7757144154,
				"element": "C" 
			},
			{
				"x": 3.1075764227,
				"y": -0.6447653436,
				"z": 1.6013028633,
				"element": "C" 
			},
			{
				"x": 1.9669725988,
				"y": -0.003628402,
				"z": 1.2324914801,
				"element": "N" 
			},
			{
				"x": 1.4768079625,
				"y": -0.5011435541,
				"z": 0.1126678763,
				"element": "C" 
			},
			{
				"x": 2.42845401,
				"y": -1.8228873187,
				"z": -0.5599560273,
				"element": "S" 
			},
			{
				"x": 0.2555483161,
				"y": -0.0040422482,
				"z": -0.5198446296,
				"element": "C" 
			},
			{
				"x": -0.4294450023,
				"y": 1.0747607626,
				"z": 0.0853389537,
				"element": "C" 
			},
			{
				"x": -1.5889355653,
				"y": 1.5517227927,
				"z": -0.4957768833,
				"element": "C" 
			},
			{
				"x": -2.0739229347,
				"y": 0.9720484474,
				"z": -1.6752495615,
				"element": "C" 
			},
			{
				"x": -3.216575488,
				"y": 1.5454558673,
				"z": -2.1319857147,
				"element": "O" 
			},
			{
				"x": -3.6802154571,
				"y": 2.48111461,
				"z": -1.1190348301,
				"element": "C" 
			},
			{
				"x": -2.5071033148,
				"y": 2.6974761586,
				"z": -0.1308450653,
				"element": "C" 
			},
			{
				"x": -1.4202905025,
				"y": -0.0870002774,
				"z": -2.3007034721,
				"element": "C" 
			},
			{
				"x": -0.2531334191,
				"y": -0.5636369722,
				"z": -1.706784912,
				"element": "C" 
			},
			{
				"x": 6.185509396,
				"y": -2.8684701721,
				"z": 1.9833279936,
				"element": "H" 
			},
			{
				"x": 3.6264850691,
				"y": -0.3455958737,
				"z": 2.5044336107,
				"element": "H" 
			},
			{
				"x": -0.0253041129,
				"y": 1.5037527315,
				"z": 0.9958190663,
				"element": "H" 
			},
			{
				"x": -4.5496572844,
				"y": 2.0314242771,
				"z": -0.6265253994,
				"element": "H" 
			},
			{
				"x": -3.9974867577,
				"y": 3.390162445,
				"z": -1.6339628596,
				"element": "H" 
			},
			{
				"x": -2.0156281149,
				"y": 3.6646106281,
				"z": -0.2911242799,
				"element": "H" 
			},
			{
				"x": -2.8426387707,
				"y": 2.6692868417,
				"z": 0.9100876058,
				"element": "H" 
			},
			{
				"x": -1.8129016145,
				"y": -0.5226473531,
				"z": -3.2124476052,
				"element": "H" 
			},
			{
				"x": 0.2663124398,
				"y": -1.3931783327,
				"z": -2.17821504,
				"element": "H" 
			}
		],
		 "valence_orbital": [ 
			{
				"type": "occ",
				"energy": -0.28735,
				"method": "rhf"
			},
			{
				"type": "occ",
				"energy": -0.26811,
				"method": "rhf"
			},
			{
				"type": "occ",
				"energy": -0.26785,
				"method": "rhf"
			},
			{
				"type": "occ",
				"energy": -0.25897,
				"method": "rhf"
			},
			{
				"type": "occ",
				"energy": -0.21178,
				"method": "rhf"
			},
			{
				"type": "unocc",
				"energy": -0.07029,
				"method": "rhf"
			},
			{
				"type": "unocc",
				"energy": -0.01725,
				"method": "rhf"
			},
			{
				"type": "unocc",
				"energy": -0.00812,
				"method": "rhf"
			},
			{
				"type": "unocc",
				"energy": 0.01777,
				"method": "rhf"
			},
			{
				"type": "unocc",
				"energy": 0.05114,
				"method": "rhf"
			}
		],
		"cosmo_sigma_profile": { 
			"-0.025": 0.0,
			"-0.024": 0.0,
			"-0.023": 0.0,
			"-0.022": 0.0,
			"-0.021": 0.0,
			"-0.02": 0.0,
			"-0.019": 0.200132636344,
			"-0.018": 0.80765884072,
			"-0.017": 0.725648989033,
			"-0.016": 1.48002746637,
			"-0.015": 0.261938458491,
			"-0.014": 0.402300093072,
			"-0.013": 0.415181213412,
			"-0.012": 1.36598589219,
			"-0.011": 0.861683669326,
			"-0.01": 0.639723466138,
			"-0.009": 0.634732171682,
			"-0.008": 2.18256679058,
			"-0.007": 5.60669184557,
			"-0.006": 12.7895532196,
			"-0.005": 21.6838332625,
			"-0.004": 18.0297348261,
			"-0.003": 17.6297635013,
			"-0.002": 18.010283711,
			"-0.001": 16.6046143364,
			"0.0": 22.5441186883,
			"0.001": 23.3418035045,
			"0.002": 22.5423442223,
			"0.003": 19.7887109076,
			"0.004": 12.0542916381,
			"0.005": 7.13795431557,
			"0.006": 6.06054106973,
			"0.007": 5.04726275083,
			"0.008": 4.502939082,
			"0.009": 4.55313375448,
			"0.01": 4.72049211962,
			"0.011": 6.2320075997,
			"0.012": 3.97720944851,
			"0.013": 0.0130718637415,
			"0.014": 0.0,
			"0.015": 0.0,
			"0.016": 0.0,
			"0.017": 0.0,
			"0.018": 0.0,
			"0.019": 0.0,
			"0.02": 0.0,
			"0.021": 0.0,
			"0.022": 0.0,
			"0.023": 0.0,
			"0.024": 0.0,
			"0.025": 0.0
		}
	}
}
