{
	 "smiles": "N#CC1=CC=C(C=C1)N1C=CC=C1", 
	 "Tm": 377.15, 
	 "num_atms": 21, 
	 "gaussian": { 
		 "optdone": 1, 
		 "sigma_profile": "yes", 
		 "theory": "DFT", 
		 "functional": "B3LYP", 
		 "basiset": "6-31G**", 
		 "properties": { 
			 "R2extent": 3272.1787, 
			 "electric_dipole_moment_norm": 3.87989560298, 
			 "electric_quadrupole_moment_norm": 23.0190227064, 
			 "total_energy": -533.46350297, 
			 "HOMO_LUMO_gap": 0.16688, 
			 "cosmo_polarized_energy": -11.05, 
			 "cosmo_cavitation_energy": 26.53, 
			 "cosmo_dispersion_energy": -18.9, 
			 "cosmo_repulsion_energy": 1.46, 
			 "cosmo_total_nonelectrostatic_energy": 9.08, 
			 "SMD_solvation_energy": 6.62 
		},
		"coords": [
			{
				"x": -4.357243076,
				"y": -2.8101870594,
				"z": 2.3825106706,
				"element": "N" 
			},
			{
				"x": -3.4994616101,
				"y": -2.3289300913,
				"z": 1.7607124534,
				"element": "C" 
			},
			{
				"x": -2.4435783151,
				"y": -1.7362833072,
				"z": 0.9955056369,
				"element": "C" 
			},
			{
				"x": -1.6758475614,
				"y": -0.6905821889,
				"z": 1.5360801912,
				"element": "C" 
			},
			{
				"x": -0.6578317979,
				"y": -0.110254739,
				"z": 0.7908730774,
				"element": "C" 
			},
			{
				"x": -0.3744558282,
				"y": -0.5744831909,
				"z": -0.5033498189,
				"element": "C" 
			},
			{
				"x": -1.1347876086,
				"y": -1.6247810617,
				"z": -1.0413925377,
				"element": "C" 
			},
			{
				"x": -2.1642811043,
				"y": -2.1941129046,
				"z": -0.3034284043,
				"element": "C" 
			},
			{
				"x": 0.6642445904,
				"y": 0.008794493,
				"z": -1.2558934829,
				"element": "N" 
			},
			{
				"x": 1.8311706391,
				"y": 0.557820235,
				"z": -0.7407730482,
				"element": "C" 
			},
			{
				"x": 2.5895900463,
				"y": 1.0188579296,
				"z": -1.7875391379,
				"element": "C" 
			},
			{
				"x": 1.8659064992,
				"y": 0.7558457783,
				"z": -2.9901875759,
				"element": "C" 
			},
			{
				"x": 0.6947146657,
				"y": 0.1327509828,
				"z": -2.6387147183,
				"element": "C" 
			},
			{
				"x": -1.8936109464,
				"y": -0.3265168834,
				"z": 2.534433867,
				"element": "H" 
			},
			{
				"x": -0.096754705,
				"y": 0.722493197,
				"z": 1.1995178827,
				"element": "H" 
			},
			{
				"x": -0.8995212204,
				"y": -2.0104245109,
				"z": -2.0268808443,
				"element": "H" 
			},
			{
				"x": -2.7470430056,
				"y": -3.0076954593,
				"z": -0.7219294305,
				"element": "H" 
			},
			{
				"x": 2.0385856266,
				"y": 0.517845089,
				"z": 0.3171347937,
				"element": "H" 
			},
			{
				"x": 3.5623036574,
				"y": 1.4826799365,
				"z": -1.7039773273,
				"element": "H" 
			},
			{
				"x": 2.16743495,
				"y": 1.0078968395,
				"z": -3.9970804815,
				"element": "H" 
			},
			{
				"x": -0.1446338955,
				"y": -0.1823330843,
				"z": -3.2387217651,
				"element": "H" 
			}
		],
		 "valence_orbital": [ 
			{
				"type": "occ",
				"energy": -0.3315,
				"method": "rhf"
			},
			{
				"type": "occ",
				"energy": -0.28883,
				"method": "rhf"
			},
			{
				"type": "occ",
				"energy": -0.28446,
				"method": "rhf"
			},
			{
				"type": "occ",
				"energy": -0.23505,
				"method": "rhf"
			},
			{
				"type": "occ",
				"energy": -0.22536,
				"method": "rhf"
			},
			{
				"type": "unocc",
				"energy": -0.05848,
				"method": "rhf"
			},
			{
				"type": "unocc",
				"energy": -0.03327,
				"method": "rhf"
			},
			{
				"type": "unocc",
				"energy": 0.02284,
				"method": "rhf"
			},
			{
				"type": "unocc",
				"energy": 0.03481,
				"method": "rhf"
			},
			{
				"type": "unocc",
				"energy": 0.06621,
				"method": "rhf"
			}
		],
		"cosmo_sigma_profile": { 
			"-0.025": 0.0,
			"-0.024": 0.0,
			"-0.023": 0.0,
			"-0.022": 0.0,
			"-0.021": 0.0,
			"-0.02": 0.0,
			"-0.019": 0.0,
			"-0.018": 0.0,
			"-0.017": 0.0,
			"-0.016": 0.0,
			"-0.015": 0.0,
			"-0.014": 0.0,
			"-0.013": 0.0,
			"-0.012": 0.0,
			"-0.011": 0.0,
			"-0.01": 0.0,
			"-0.009": 0.693412327569,
			"-0.008": 10.9493876412,
			"-0.007": 12.3298311788,
			"-0.006": 12.8878984036,
			"-0.005": 12.8561929421,
			"-0.004": 10.9304384967,
			"-0.003": 12.2721894394,
			"-0.002": 14.6315979965,
			"-0.001": 15.5400980414,
			"0.0": 17.3226657877,
			"0.001": 18.920971752,
			"0.002": 16.9799209191,
			"0.003": 8.99559955299,
			"0.004": 6.43225667373,
			"0.005": 7.50746187945,
			"0.006": 7.88552387043,
			"0.007": 9.05224195963,
			"0.008": 5.01392126779,
			"0.009": 3.56969486497,
			"0.01": 3.16051466753,
			"0.011": 2.98645960534,
			"0.012": 2.34036434479,
			"0.013": 1.75446230506,
			"0.014": 0.145478991302,
			"0.015": 0.0,
			"0.016": 0.0,
			"0.017": 0.0,
			"0.018": 0.0,
			"0.019": 0.0,
			"0.02": 0.0,
			"0.021": 0.0,
			"0.022": 0.0,
			"0.023": 0.0,
			"0.024": 0.0,
			"0.025": 0.0
		}
	}
}
