{
	 "smiles": "CC1=CC2=C(N1)C(Cl)=CC(Cl)=C2", 
	 "Tm": 323.15, 
	 "num_atms": 19, 
	 "gaussian": { 
		 "optdone": 1, 
		 "sigma_profile": "yes", 
		 "theory": "DFT", 
		 "functional": "B3LYP", 
		 "basiset": "6-31G**", 
		 "properties": { 
			 "R2extent": 3764.178, 
			 "electric_dipole_moment_norm": 4.27714540085, 
			 "electric_quadrupole_moment_norm": 6.88508560223, 
			 "total_energy": -1322.32863093, 
			 "HOMO_LUMO_gap": 0.18935, 
			 "cosmo_polarized_energy": -7.71, 
			 "cosmo_cavitation_energy": 26.64, 
			 "cosmo_dispersion_energy": -20.04, 
			 "cosmo_repulsion_energy": 1.6, 
			 "cosmo_total_nonelectrostatic_energy": 8.2, 
			 "SMD_solvation_energy": 3.67 
		},
		"coords": [
			{
				"x": 1.96258126,
				"y": 0.5336305817,
				"z": -2.8516155914,
				"element": "C" 
			},
			{
				"x": 0.7134221576,
				"y": 0.3430403958,
				"z": -2.0547835845,
				"element": "C" 
			},
			{
				"x": -0.5149002741,
				"y": 0.9484215667,
				"z": -2.1684270877,
				"element": "C" 
			},
			{
				"x": -1.369965632,
				"y": 0.4023416466,
				"z": -1.1525387201,
				"element": "C" 
			},
			{
				"x": -0.5855819242,
				"y": -0.5485938481,
				"z": -0.4412469383,
				"element": "C" 
			},
			{
				"x": 0.6671281451,
				"y": -0.5643974798,
				"z": -1.0062350899,
				"element": "N" 
			},
			{
				"x": -1.1208503931,
				"y": -1.270823502,
				"z": 0.625302829,
				"element": "C" 
			},
			{
				"x": -0.1156643623,
				"y": -2.4356964379,
				"z": 1.4760600143,
				"element": "Cl" 
			},
			{
				"x": -2.4402607355,
				"y": -1.0594609024,
				"z": 1.0000327133,
				"element": "C" 
			},
			{
				"x": -3.2084406798,
				"y": -0.1168396398,
				"z": 0.2905739628,
				"element": "C" 
			},
			{
				"x": -4.8806093238,
				"y": 0.1281105459,
				"z": 0.7914057842,
				"element": "Cl" 
			},
			{
				"x": -2.7057251261,
				"y": 0.6170547043,
				"z": -0.7740004077,
				"element": "C" 
			},
			{
				"x": 2.7961487535,
				"y": 0.8708233556,
				"z": -2.2234437056,
				"element": "H" 
			},
			{
				"x": 1.8017725512,
				"y": 1.2850367146,
				"z": -3.6272048941,
				"element": "H" 
			},
			{
				"x": 2.2754480005,
				"y": -0.3959208499,
				"z": -3.3427145079,
				"element": "H" 
			},
			{
				"x": -0.7773569522,
				"y": 1.7011399772,
				"z": -2.8982298527,
				"element": "H" 
			},
			{
				"x": 1.4273257775,
				"y": -1.1496224099,
				"z": -0.6975925481,
				"element": "H" 
			},
			{
				"x": -2.8725104497,
				"y": -1.6108668716,
				"z": 1.8252717215,
				"element": "H" 
			},
			{
				"x": -3.3319607924,
				"y": 1.3334224532,
				"z": -1.2934140971,
				"element": "H" 
			}
		],
		 "valence_orbital": [ 
			{
				"type": "occ",
				"energy": -0.30652,
				"method": "rhf"
			},
			{
				"type": "occ",
				"energy": -0.30417,
				"method": "rhf"
			},
			{
				"type": "occ",
				"energy": -0.27798,
				"method": "rhf"
			},
			{
				"type": "occ",
				"energy": -0.22486,
				"method": "rhf"
			},
			{
				"type": "occ",
				"energy": -0.21468,
				"method": "rhf"
			},
			{
				"type": "unocc",
				"energy": -0.02533,
				"method": "rhf"
			},
			{
				"type": "unocc",
				"energy": 0.00919,
				"method": "rhf"
			},
			{
				"type": "unocc",
				"energy": 0.01246,
				"method": "rhf"
			},
			{
				"type": "unocc",
				"energy": 0.05354,
				"method": "rhf"
			},
			{
				"type": "unocc",
				"energy": 0.05713,
				"method": "rhf"
			}
		],
		"cosmo_sigma_profile": { 
			"-0.025": 0.0,
			"-0.024": 0.0,
			"-0.023": 0.0,
			"-0.022": 0.0,
			"-0.021": 0.0,
			"-0.02": 0.0,
			"-0.019": 0.0,
			"-0.018": 0.0,
			"-0.017": 0.0,
			"-0.016": 0.126630136647,
			"-0.015": 0.611804574704,
			"-0.014": 1.03311424677,
			"-0.013": 0.56773226126,
			"-0.012": 1.02855222073,
			"-0.011": 1.24865438425,
			"-0.01": 1.03024777279,
			"-0.009": 1.2380512376,
			"-0.008": 1.63187941542,
			"-0.007": 4.24239038755,
			"-0.006": 7.34615885647,
			"-0.005": 13.2886375538,
			"-0.004": 11.7716262362,
			"-0.003": 13.1192777186,
			"-0.002": 14.1576531335,
			"-0.001": 16.0679192851,
			"0.0": 14.6341556499,
			"0.001": 16.0693681592,
			"0.002": 22.1683954162,
			"0.003": 29.7412270501,
			"0.004": 25.87292084,
			"0.005": 17.1307734724,
			"0.006": 3.76547215687,
			"0.007": 0.0487315940641,
			"0.008": 0.0,
			"0.009": 0.0,
			"0.01": 0.0,
			"0.011": 0.0,
			"0.012": 0.0,
			"0.013": 0.0,
			"0.014": 0.0,
			"0.015": 0.0,
			"0.016": 0.0,
			"0.017": 0.0,
			"0.018": 0.0,
			"0.019": 0.0,
			"0.02": 0.0,
			"0.021": 0.0,
			"0.022": 0.0,
			"0.023": 0.0,
			"0.024": 0.0,
			"0.025": 0.0
		}
	}
}
