{
	 "smiles": "CN1C(=O)NC(=O)C(C(=O)CCl)=C1N", 
	 "Tm": 630.15, 
	 "num_atms": 22, 
	 "gaussian": { 
		 "optdone": 1, 
		 "sigma_profile": "yes", 
		 "theory": "DFT", 
		 "functional": "B3LYP", 
		 "basiset": "6-31G**", 
		 "properties": { 
			 "R2extent": 3445.3096, 
			 "electric_dipole_moment_norm": 5.79810564409, 
			 "electric_quadrupole_moment_norm": 15.4333426541, 
			 "total_energy": -1121.73997037, 
			 "HOMO_LUMO_gap": 0.18553, 
			 "cosmo_polarized_energy": -20.58, 
			 "cosmo_cavitation_energy": 27.47, 
			 "cosmo_dispersion_energy": -20.82, 
			 "cosmo_repulsion_energy": 1.62, 
			 "cosmo_total_nonelectrostatic_energy": 8.27, 
			 "SMD_solvation_energy": 6.18 
		},
		"coords": [
			{
				"x": 1.7762934327,
				"y": 0.5700009319,
				"z": 2.3678501212,
				"element": "C" 
			},
			{
				"x": 0.7597156001,
				"y": 0.3288149867,
				"z": 1.3422699788,
				"element": "N" 
			},
			{
				"x": -0.5858525025,
				"y": 0.3238364649,
				"z": 1.7729144472,
				"element": "C" 
			},
			{
				"x": -0.8959229688,
				"y": 0.4991337409,
				"z": 2.9378106687,
				"element": "O" 
			},
			{
				"x": -1.4937539368,
				"y": 0.1161825518,
				"z": 0.7696082621,
				"element": "N" 
			},
			{
				"x": -1.2615599899,
				"y": -0.1015296226,
				"z": -0.604236542,
				"element": "C" 
			},
			{
				"x": -2.2393610553,
				"y": -0.2341695586,
				"z": -1.3294484388,
				"element": "O" 
			},
			{
				"x": 0.1443882592,
				"y": -0.1267090962,
				"z": -0.979744193,
				"element": "C" 
			},
			{
				"x": 0.5831514273,
				"y": -0.3933452953,
				"z": -2.3420715984,
				"element": "C" 
			},
			{
				"x": 1.7738786535,
				"y": -0.318707731,
				"z": -2.6985266483,
				"element": "O" 
			},
			{
				"x": -0.4155656652,
				"y": -0.8128603202,
				"z": -3.4148366151,
				"element": "C" 
			},
			{
				"x": -0.7423740286,
				"y": -2.5957281564,
				"z": -3.2677995296,
				"element": "Cl" 
			},
			{
				"x": 1.115731372,
				"y": 0.1228182772,
				"z": 0.0252744674,
				"element": "C" 
			},
			{
				"x": 2.4169810927,
				"y": 0.1648786073,
				"z": -0.2763123789,
				"element": "N" 
			},
			{
				"x": 2.3518082752,
				"y": 1.4722042654,
				"z": 2.1371858283,
				"element": "H" 
			},
			{
				"x": 1.249535151,
				"y": 0.7109810299,
				"z": 3.308868287,
				"element": "H" 
			},
			{
				"x": 2.4482119333,
				"y": -0.2898017713,
				"z": 2.4587455002,
				"element": "H" 
			},
			{
				"x": -2.4669733808,
				"y": 0.1242411632,
				"z": 1.0493506009,
				"element": "H" 
			},
			{
				"x": 0.0540324453,
				"y": -0.6582496584,
				"z": -4.3846251007,
				"element": "H" 
			},
			{
				"x": -1.3770084064,
				"y": -0.3169958782,
				"z": -3.3198149107,
				"element": "H" 
			},
			{
				"x": 2.620937581,
				"y": 0.0029404611,
				"z": -1.2744059898,
				"element": "H" 
			},
			{
				"x": 3.1287067109,
				"y": 0.2806646078,
				"z": 0.4237437838,
				"element": "H" 
			}
		],
		 "valence_orbital": [ 
			{
				"type": "occ",
				"energy": -0.29592,
				"method": "rhf"
			},
			{
				"type": "occ",
				"energy": -0.28614,
				"method": "rhf"
			},
			{
				"type": "occ",
				"energy": -0.26871,
				"method": "rhf"
			},
			{
				"type": "occ",
				"energy": -0.26421,
				"method": "rhf"
			},
			{
				"type": "occ",
				"energy": -0.24542,
				"method": "rhf"
			},
			{
				"type": "unocc",
				"energy": -0.05989,
				"method": "rhf"
			},
			{
				"type": "unocc",
				"energy": -0.01958,
				"method": "rhf"
			},
			{
				"type": "unocc",
				"energy": 0.00832,
				"method": "rhf"
			},
			{
				"type": "unocc",
				"energy": 0.05128,
				"method": "rhf"
			},
			{
				"type": "unocc",
				"energy": 0.05542,
				"method": "rhf"
			}
		],
		"cosmo_sigma_profile": { 
			"-0.025": 0.0,
			"-0.024": 0.0,
			"-0.023": 0.0,
			"-0.022": 0.0,
			"-0.021": 0.0,
			"-0.02": 0.0,
			"-0.019": 0.0,
			"-0.018": 0.0,
			"-0.017": 0.00310795594831,
			"-0.016": 1.14608427073,
			"-0.015": 1.88363727352,
			"-0.014": 2.81788300639,
			"-0.013": 1.99048279067,
			"-0.012": 1.55292043035,
			"-0.011": 2.14955110141,
			"-0.01": 3.92024668833,
			"-0.009": 3.13063681906,
			"-0.008": 5.23317488711,
			"-0.007": 7.57655044213,
			"-0.006": 10.8219056003,
			"-0.005": 15.7671279906,
			"-0.004": 16.6724376384,
			"-0.003": 13.8628669388,
			"-0.002": 10.3301357041,
			"-0.001": 13.2639415927,
			"0.0": 12.4233569192,
			"0.001": 8.27464898887,
			"0.002": 9.36474920319,
			"0.003": 9.43587393494,
			"0.004": 9.10804026427,
			"0.005": 10.7828975937,
			"0.006": 12.1611225097,
			"0.007": 4.09690115133,
			"0.008": 5.13205071926,
			"0.009": 5.01300906857,
			"0.01": 4.75435191319,
			"0.011": 8.03483791002,
			"0.012": 7.82162750381,
			"0.013": 2.72418007006,
			"0.014": 0.0768834143303,
			"0.015": 0.0,
			"0.016": 0.0,
			"0.017": 0.0,
			"0.018": 0.0,
			"0.019": 0.0,
			"0.02": 0.0,
			"0.021": 0.0,
			"0.022": 0.0,
			"0.023": 0.0,
			"0.024": 0.0,
			"0.025": 0.0
		}
	}
}
