{
	 "smiles": "O=CC1=CC=CC2=C1SC=C2", 
	 "Tm": 315.95, 
	 "num_atms": 17, 
	 "gaussian": { 
		 "optdone": 1, 
		 "sigma_profile": "yes", 
		 "theory": "DFT", 
		 "functional": "B3LYP", 
		 "basiset": "6-31G**", 
		 "properties": { 
			 "R2extent": 3063.6398, 
			 "electric_dipole_moment_norm": 3.49664880993, 
			 "electric_quadrupole_moment_norm": 20.6272431197, 
			 "total_energy": -819.978510309, 
			 "HOMO_LUMO_gap": 0.16068, 
			 "cosmo_polarized_energy": -9.04, 
			 "cosmo_cavitation_energy": 22.67, 
			 "cosmo_dispersion_energy": -17.52, 
			 "cosmo_repulsion_energy": 1.32, 
			 "cosmo_total_nonelectrostatic_energy": 6.47, 
			 "SMD_solvation_energy": 4.7 
		},
		"coords": [
			{
				"x": 0.5683745984,
				"y": 4.9639805055,
				"z": -0.1649487436,
				"element": "O" 
			},
			{
				"x": 1.4062679608,
				"y": 4.1125290499,
				"z": -0.412464353,
				"element": "C" 
			},
			{
				"x": 1.1512522462,
				"y": 2.6663856506,
				"z": -0.3583009032,
				"element": "C" 
			},
			{
				"x": 2.1740960512,
				"y": 1.761057249,
				"z": -0.6585568388,
				"element": "C" 
			},
			{
				"x": 1.953968614,
				"y": 0.3783055228,
				"z": -0.6135006108,
				"element": "C" 
			},
			{
				"x": 0.7033610072,
				"y": -0.1212582302,
				"z": -0.2662765945,
				"element": "C" 
			},
			{
				"x": -0.3501525997,
				"y": 0.7591928146,
				"z": 0.0423670205,
				"element": "C" 
			},
			{
				"x": -0.1146314178,
				"y": 2.1565871294,
				"z": -0.0069011101,
				"element": "C" 
			},
			{
				"x": -1.5494394616,
				"y": 3.0636931519,
				"z": 0.4098112224,
				"element": "S" 
			},
			{
				"x": -2.4431370139,
				"y": 1.5736326443,
				"z": 0.6439089972,
				"element": "C" 
			},
			{
				"x": -1.7060544925,
				"y": 0.4554141338,
				"z": 0.4218167053,
				"element": "C" 
			},
			{
				"x": 2.4408833314,
				"y": 4.3974187779,
				"z": -0.7010883033,
				"element": "H" 
			},
			{
				"x": 3.1530811258,
				"y": 2.1481758663,
				"z": -0.9304113347,
				"element": "H" 
			},
			{
				"x": 2.7634281388,
				"y": -0.3048333118,
				"z": -0.8507290902,
				"element": "H" 
			},
			{
				"x": 0.5331315997,
				"y": -1.1939441482,
				"z": -0.2314583522,
				"element": "H" 
			},
			{
				"x": -3.4832033332,
				"y": 1.6263701221,
				"z": 0.9384907299,
				"element": "H" 
			},
			{
				"x": -2.0902263549,
				"y": -0.553706928,
				"z": 0.5179415592,
				"element": "H" 
			}
		],
		 "valence_orbital": [ 
			{
				"type": "occ",
				"energy": -0.33776,
				"method": "rhf"
			},
			{
				"type": "occ",
				"energy": -0.2886,
				"method": "rhf"
			},
			{
				"type": "occ",
				"energy": -0.2582,
				"method": "rhf"
			},
			{
				"type": "occ",
				"energy": -0.24577,
				"method": "rhf"
			},
			{
				"type": "occ",
				"energy": -0.22929,
				"method": "rhf"
			},
			{
				"type": "unocc",
				"energy": -0.06861,
				"method": "rhf"
			},
			{
				"type": "unocc",
				"energy": -0.02397,
				"method": "rhf"
			},
			{
				"type": "unocc",
				"energy": 0.0175,
				"method": "rhf"
			},
			{
				"type": "unocc",
				"energy": 0.03612,
				"method": "rhf"
			},
			{
				"type": "unocc",
				"energy": 0.0606,
				"method": "rhf"
			}
		],
		"cosmo_sigma_profile": { 
			"-0.025": 0.0,
			"-0.024": 0.0,
			"-0.023": 0.0,
			"-0.022": 0.0,
			"-0.021": 0.0,
			"-0.02": 0.0,
			"-0.019": 0.0,
			"-0.018": 0.0,
			"-0.017": 0.0,
			"-0.016": 0.0,
			"-0.015": 0.0,
			"-0.014": 0.0,
			"-0.013": 0.0,
			"-0.012": 0.0,
			"-0.011": 0.0,
			"-0.01": 0.0,
			"-0.009": 0.795587614722,
			"-0.008": 4.43851635482,
			"-0.007": 12.0923479711,
			"-0.006": 14.1616519261,
			"-0.005": 12.2419239711,
			"-0.004": 10.1553136672,
			"-0.003": 10.7772113397,
			"-0.002": 8.96032741652,
			"-0.001": 9.07082558537,
			"0.0": 10.3821718179,
			"0.001": 12.1882533311,
			"0.002": 20.1792018073,
			"0.003": 21.3330739022,
			"0.004": 12.7582887659,
			"0.005": 6.61587168612,
			"0.006": 2.99711646286,
			"0.007": 2.03523830491,
			"0.008": 2.30093976892,
			"0.009": 2.6792106044,
			"0.01": 3.03732728309,
			"0.011": 2.98416833814,
			"0.012": 2.37084874689,
			"0.013": 0.461865545631,
			"0.014": 0.0,
			"0.015": 0.0,
			"0.016": 0.0,
			"0.017": 0.0,
			"0.018": 0.0,
			"0.019": 0.0,
			"0.02": 0.0,
			"0.021": 0.0,
			"0.022": 0.0,
			"0.023": 0.0,
			"0.024": 0.0,
			"0.025": 0.0
		}
	}
}
