{
	 "smiles": "CC(C)(C)C1CCC2=C(C1)C=C(S2)C1=NN=C(S)O1", 
	 "Tm": 450.15, 
	 "num_atms": 37, 
	 "gaussian": { 
		 "optdone": 1, 
		 "sigma_profile": "yes", 
		 "theory": "DFT", 
		 "functional": "B3LYP", 
		 "basiset": "6-31G**", 
		 "properties": { 
			 "R2extent": 12037.5515, 
			 "electric_dipole_moment_norm": 5.939618513, 
			 "electric_quadrupole_moment_norm": 33.6905786651, 
			 "total_energy": -1525.40967519, 
			 "HOMO_LUMO_gap": 0.16165, 
			 "cosmo_polarized_energy": -13.43, 
			 "cosmo_cavitation_energy": 40.86, 
			 "cosmo_dispersion_energy": -30.09, 
			 "cosmo_repulsion_energy": 2.19, 
			 "cosmo_total_nonelectrostatic_energy": 12.97, 
			 "SMD_solvation_energy": 3.86 
		},
		"coords": [
			{
				"x": 0.6586306296,
				"y": -1.1937788885,
				"z": 3.1135165804,
				"element": "C" 
			},
			{
				"x": -0.2050305644,
				"y": -1.15107045,
				"z": 1.8313239954,
				"element": "C" 
			},
			{
				"x": 0.7449620717,
				"y": -1.0413231222,
				"z": 0.6197254886,
				"element": "C" 
			},
			{
				"x": -0.9684049054,
				"y": -2.4890818727,
				"z": 1.7431565497,
				"element": "C" 
			},
			{
				"x": -1.2209929142,
				"y": 0.044101695,
				"z": 1.965442067,
				"element": "C" 
			},
			{
				"x": -2.4826105084,
				"y": 0.0073091475,
				"z": 1.0668861057,
				"element": "C" 
			},
			{
				"x": -2.2371107384,
				"y": 0.3002811067,
				"z": -0.4255069904,
				"element": "C" 
			},
			{
				"x": -1.3085466371,
				"y": 1.4704518248,
				"z": -0.5713332552,
				"element": "C" 
			},
			{
				"x": -0.5369410575,
				"y": 1.9894329808,
				"z": 0.4416370432,
				"element": "C" 
			},
			{
				"x": -0.5742911375,
				"y": 1.4501117345,
				"z": 1.8534347728,
				"element": "C" 
			},
			{
				"x": 0.2615472192,
				"y": 3.0873871019,
				"z": 0.0045840387,
				"element": "C" 
			},
			{
				"x": 0.0914787789,
				"y": 3.386400194,
				"z": -1.3275128901,
				"element": "C" 
			},
			{
				"x": -1.0669216816,
				"y": 2.3134553585,
				"z": -2.0768851893,
				"element": "S" 
			},
			{
				"x": 0.731076896,
				"y": 4.4207484623,
				"z": -2.0951684304,
				"element": "C" 
			},
			{
				"x": 0.5867083766,
				"y": 4.7191763643,
				"z": -3.3529362467,
				"element": "N" 
			},
			{
				"x": 1.4293915589,
				"y": 5.8020650865,
				"z": -3.6112022828,
				"element": "N" 
			},
			{
				"x": 2.0149951766,
				"y": 6.0702589012,
				"z": -2.4891006893,
				"element": "C" 
			},
			{
				"x": 3.1933876679,
				"y": 7.3403713666,
				"z": -2.1992931876,
				"element": "S" 
			},
			{
				"x": 1.6370056726,
				"y": 5.2481597731,
				"z": -1.4682087958,
				"element": "O" 
			},
			{
				"x": 1.3743064679,
				"y": -2.0217511534,
				"z": 3.0664652064,
				"element": "H" 
			},
			{
				"x": 0.0383751184,
				"y": -1.3399411084,
				"z": 4.00525624,
				"element": "H" 
			},
			{
				"x": 1.2361248297,
				"y": -0.2744942336,
				"z": 3.2556503425,
				"element": "H" 
			},
			{
				"x": 1.3448098926,
				"y": -0.1271284543,
				"z": 0.6485583392,
				"element": "H" 
			},
			{
				"x": 0.2118964098,
				"y": -1.0583947069,
				"z": -0.3340754354,
				"element": "H" 
			},
			{
				"x": 1.4403382388,
				"y": -1.8885273955,
				"z": 0.6190321973,
				"element": "H" 
			},
			{
				"x": -0.2682199372,
				"y": -3.3291375977,
				"z": 1.8065404797,
				"element": "H" 
			},
			{
				"x": -1.687568153,
				"y": -2.5966560337,
				"z": 2.563734651,
				"element": "H" 
			},
			{
				"x": -1.5143207964,
				"y": -2.593040924,
				"z": 0.800168889,
				"element": "H" 
			},
			{
				"x": -1.6026914459,
				"y": -0.0411129811,
				"z": 2.9919044168,
				"element": "H" 
			},
			{
				"x": -3.0055209341,
				"y": -0.9471749609,
				"z": 1.1702248066,
				"element": "H" 
			},
			{
				"x": -3.1694147024,
				"y": 0.7727424771,
				"z": 1.4505665948,
				"element": "H" 
			},
			{
				"x": -3.1947276602,
				"y": 0.5004622954,
				"z": -0.9218026912,
				"element": "H" 
			},
			{
				"x": -1.8171838713,
				"y": -0.5801437593,
				"z": -0.9301261336,
				"element": "H" 
			},
			{
				"x": 0.4376513831,
				"y": 1.4497747058,
				"z": 2.2727237229,
				"element": "H" 
			},
			{
				"x": -1.148013788,
				"y": 2.1489195934,
				"z": 2.4784659959,
				"element": "H" 
			},
			{
				"x": 0.9391325398,
				"y": 3.6387284744,
				"z": 0.6472225551,
				"element": "H" 
			},
			{
				"x": 3.3498925048,
				"y": 7.0449189983,
				"z": -0.8947688608,
				"element": "H" 
			}
		],
		 "valence_orbital": [ 
			{
				"type": "occ",
				"energy": -0.30792,
				"method": "rhf"
			},
			{
				"type": "occ",
				"energy": -0.27913,
				"method": "rhf"
			},
			{
				"type": "occ",
				"energy": -0.26685,
				"method": "rhf"
			},
			{
				"type": "occ",
				"energy": -0.25238,
				"method": "rhf"
			},
			{
				"type": "occ",
				"energy": -0.21553,
				"method": "rhf"
			},
			{
				"type": "unocc",
				"energy": -0.05388,
				"method": "rhf"
			},
			{
				"type": "unocc",
				"energy": -0.00419,
				"method": "rhf"
			},
			{
				"type": "unocc",
				"energy": 0.01047,
				"method": "rhf"
			},
			{
				"type": "unocc",
				"energy": 0.02177,
				"method": "rhf"
			},
			{
				"type": "unocc",
				"energy": 0.03817,
				"method": "rhf"
			}
		],
		"cosmo_sigma_profile": { 
			"-0.025": 0.0,
			"-0.024": 0.0,
			"-0.023": 0.0,
			"-0.022": 0.0,
			"-0.021": 0.0,
			"-0.02": 0.0,
			"-0.019": 0.0,
			"-0.018": 0.0,
			"-0.017": 0.0,
			"-0.016": 0.0,
			"-0.015": 0.0,
			"-0.014": 0.244254272942,
			"-0.013": 1.77558364733,
			"-0.012": 1.98401874397,
			"-0.011": 0.90743905963,
			"-0.01": 1.77186281126,
			"-0.009": 1.44175378715,
			"-0.008": 1.45766078705,
			"-0.007": 2.94109256676,
			"-0.006": 3.56476682504,
			"-0.005": 7.09991697182,
			"-0.004": 18.2382460255,
			"-0.003": 30.1163995288,
			"-0.002": 48.1912793919,
			"-0.001": 42.716739805,
			"0.0": 32.660459504,
			"0.001": 35.3165949291,
			"0.002": 33.814231259,
			"0.003": 21.6683829554,
			"0.004": 11.3255646397,
			"0.005": 5.07533908937,
			"0.006": 2.76126974853,
			"0.007": 2.39068513505,
			"0.008": 2.22520226968,
			"0.009": 2.36734542599,
			"0.01": 2.67305288538,
			"0.011": 3.52401312814,
			"0.012": 3.36407212996,
			"0.013": 2.1359824698,
			"0.014": 1.99365908707,
			"0.015": 0.317564077743,
			"0.016": 0.0,
			"0.017": 0.0,
			"0.018": 0.0,
			"0.019": 0.0,
			"0.02": 0.0,
			"0.021": 0.0,
			"0.022": 0.0,
			"0.023": 0.0,
			"0.024": 0.0,
			"0.025": 0.0
		}
	}
}
