{
	 "smiles": "COC1=C(OC)C=C(NC(=O)C(C)Cl)C=C1", 
	 "Tm": 383.15, 
	 "num_atms": 30, 
	 "gaussian": { 
		 "optdone": 1, 
		 "sigma_profile": "yes", 
		 "theory": "DFT", 
		 "functional": "B3LYP", 
		 "basiset": "6-31G**", 
		 "properties": { 
			 "R2extent": 5215.4787, 
			 "electric_dipole_moment_norm": 4.53577624448, 
			 "electric_quadrupole_moment_norm": 13.097696925, 
			 "total_energy": -1168.20598907, 
			 "HOMO_LUMO_gap": 0.21346, 
			 "cosmo_polarized_energy": -14.12, 
			 "cosmo_cavitation_energy": 35.52, 
			 "cosmo_dispersion_energy": -24.25, 
			 "cosmo_repulsion_energy": 1.94, 
			 "cosmo_total_nonelectrostatic_energy": 13.22, 
			 "SMD_solvation_energy": 7.96 
		},
		"coords": [
			{
				"x": 1.0970862206,
				"y": -4.1486976819,
				"z": -0.5781682776,
				"element": "C" 
			},
			{
				"x": 0.5093598224,
				"y": -3.4129954179,
				"z": 0.5037315638,
				"element": "O" 
			},
			{
				"x": -0.1068552174,
				"y": -2.2388372424,
				"z": 0.1403833073,
				"element": "C" 
			},
			{
				"x": 0.6317733713,
				"y": -1.1252013431,
				"z": -0.3062430699,
				"element": "C" 
			},
			{
				"x": 1.9973177667,
				"y": -1.1786501998,
				"z": -0.4598406156,
				"element": "O" 
			},
			{
				"x": 2.7400169247,
				"y": -1.2743681815,
				"z": 0.7638570923,
				"element": "C" 
			},
			{
				"x": -0.0353769878,
				"y": 0.0460990165,
				"z": -0.6665293867,
				"element": "C" 
			},
			{
				"x": -1.4267505504,
				"y": 0.1409519523,
				"z": -0.5425761155,
				"element": "C" 
			},
			{
				"x": -2.1070144249,
				"y": 1.3335630765,
				"z": -0.9377310885,
				"element": "N" 
			},
			{
				"x": -2.1235683597,
				"y": 2.5707041973,
				"z": -0.3388745463,
				"element": "C" 
			},
			{
				"x": -2.7537210093,
				"y": 3.499700272,
				"z": -0.8202083321,
				"element": "O" 
			},
			{
				"x": -1.3331764583,
				"y": 2.7328276183,
				"z": 0.969284839,
				"element": "C" 
			},
			{
				"x": -0.9274765143,
				"y": 4.1755405688,
				"z": 1.2059641689,
				"element": "C" 
			},
			{
				"x": -2.4205385295,
				"y": 2.1473341435,
				"z": 2.3305542004,
				"element": "Cl" 
			},
			{
				"x": -2.1546175483,
				"y": -0.9545778147,
				"z": -0.0679828827,
				"element": "C" 
			},
			{
				"x": -1.49422674,
				"y": -2.1382103371,
				"z": 0.2574620921,
				"element": "C" 
			},
			{
				"x": 1.866037852,
				"y": -3.5614080158,
				"z": -1.0890094663,
				"element": "H" 
			},
			{
				"x": 0.329213359,
				"y": -4.4527536252,
				"z": -1.300214878,
				"element": "H" 
			},
			{
				"x": 1.545390874,
				"y": -5.0385989748,
				"z": -0.1324092685,
				"element": "H" 
			},
			{
				"x": 2.5691082295,
				"y": -0.389421697,
				"z": 1.3893109445,
				"element": "H" 
			},
			{
				"x": 3.7925961405,
				"y": -1.3160307181,
				"z": 0.4777326156,
				"element": "H" 
			},
			{
				"x": 2.470762073,
				"y": -2.1743124412,
				"z": 1.3244635458,
				"element": "H" 
			},
			{
				"x": 0.5449878506,
				"y": 0.87611599,
				"z": -1.0561540286,
				"element": "H" 
			},
			{
				"x": -2.7412669902,
				"y": 1.2777340071,
				"z": -1.7260418481,
				"element": "H" 
			},
			{
				"x": -0.4775143011,
				"y": 2.0597231914,
				"z": 1.0042983712,
				"element": "H" 
			},
			{
				"x": -0.2227189409,
				"y": 4.4845656717,
				"z": 0.4259508406,
				"element": "H" 
			},
			{
				"x": -1.800134367,
				"y": 4.8272936091,
				"z": 1.1494429405,
				"element": "H" 
			},
			{
				"x": -0.4439470202,
				"y": 4.2842116679,
				"z": 2.1790501573,
				"element": "H" 
			},
			{
				"x": -3.2308394172,
				"y": -0.8742197765,
				"z": 0.0439249184,
				"element": "H" 
			},
			{
				"x": -2.0411071077,
				"y": -3.0033815154,
				"z": 0.6179722065,
				"element": "H" 
			}
		],
		 "valence_orbital": [ 
			{
				"type": "occ",
				"energy": -0.27683,
				"method": "rhf"
			},
			{
				"type": "occ",
				"energy": -0.27476,
				"method": "rhf"
			},
			{
				"type": "occ",
				"energy": -0.25839,
				"method": "rhf"
			},
			{
				"type": "occ",
				"energy": -0.25334,
				"method": "rhf"
			},
			{
				"type": "occ",
				"energy": -0.2367,
				"method": "rhf"
			},
			{
				"type": "unocc",
				"energy": -0.02324,
				"method": "rhf"
			},
			{
				"type": "unocc",
				"energy": -0.01743,
				"method": "rhf"
			},
			{
				"type": "unocc",
				"energy": -0.01102,
				"method": "rhf"
			},
			{
				"type": "unocc",
				"energy": 0.06334,
				"method": "rhf"
			},
			{
				"type": "unocc",
				"energy": 0.07614,
				"method": "rhf"
			}
		],
		"cosmo_sigma_profile": { 
			"-0.025": 0.0,
			"-0.024": 0.0,
			"-0.023": 0.0,
			"-0.022": 0.0,
			"-0.021": 0.0,
			"-0.02": 0.0,
			"-0.019": 0.0,
			"-0.018": 0.0,
			"-0.017": 0.0,
			"-0.016": 0.0,
			"-0.015": 0.221658667814,
			"-0.014": 1.05003613275,
			"-0.013": 1.40286021617,
			"-0.012": 0.465525183846,
			"-0.011": 0.917867934083,
			"-0.01": 0.903707611825,
			"-0.009": 1.08459771085,
			"-0.008": 2.45339922451,
			"-0.007": 7.70698240286,
			"-0.006": 12.4211847486,
			"-0.005": 17.8262715802,
			"-0.004": 24.1307687003,
			"-0.003": 28.9288547486,
			"-0.002": 25.7125127599,
			"-0.001": 22.5106457508,
			"0.0": 19.854465942,
			"0.001": 16.6390623249,
			"0.002": 16.2665812544,
			"0.003": 17.3358075447,
			"0.004": 13.693599274,
			"0.005": 14.3299037782,
			"0.006": 10.559947697,
			"0.007": 3.2412092187,
			"0.008": 3.11780947849,
			"0.009": 2.77205824995,
			"0.01": 4.60294768181,
			"0.011": 3.22659373971,
			"0.012": 4.37254467903,
			"0.013": 4.92045204491,
			"0.014": 0.340724558966,
			"0.015": 0.0,
			"0.016": 0.0,
			"0.017": 0.0,
			"0.018": 0.0,
			"0.019": 0.0,
			"0.02": 0.0,
			"0.021": 0.0,
			"0.022": 0.0,
			"0.023": 0.0,
			"0.024": 0.0,
			"0.025": 0.0
		}
	}
}
