{
	 "smiles": "OC(=O)CC1=CSC(=N1)C1=CC(Br)=CS1", 
	 "Tm": 403.15, 
	 "num_atms": 21, 
	 "gaussian": { 
		 "optdone": 1, 
		 "sigma_profile": "yes", 
		 "theory": "DFT", 
		 "functional": "B3LYP", 
		 "basiset": "6-31G**", 
		 "properties": { 
			 "R2extent": 9031.0987, 
			 "electric_dipole_moment_norm": 5.20380429398, 
			 "electric_quadrupole_moment_norm": 25.6536183844, 
			 "total_energy": -3919.54680275, 
			 "HOMO_LUMO_gap": 0.14905, 
			 "cosmo_polarized_energy": -14.39, 
			 "cosmo_cavitation_energy": 32.04, 
			 "cosmo_dispersion_energy": -24.61, 
			 "cosmo_repulsion_energy": 1.84, 
			 "cosmo_total_nonelectrostatic_energy": 9.27, 
			 "SMD_solvation_energy": 4.66 
		},
		"coords": [
			{
				"x": 2.5704113727,
				"y": 0.6485243402,
				"z": -2.1386117177,
				"element": "O" 
			},
			{
				"x": 1.872438198,
				"y": 0.5091453901,
				"z": -3.2773353534,
				"element": "C" 
			},
			{
				"x": 2.3804849401,
				"y": 0.6564324302,
				"z": -4.3622827577,
				"element": "O" 
			},
			{
				"x": 0.3654322225,
				"y": 0.2276964795,
				"z": -3.1214524048,
				"element": "C" 
			},
			{
				"x": -0.0202801739,
				"y": -0.6965668142,
				"z": -1.9998666948,
				"element": "C" 
			},
			{
				"x": -0.8534164679,
				"y": -1.7769474266,
				"z": -2.0822110867,
				"element": "C" 
			},
			{
				"x": -1.0334687156,
				"y": -2.5243123212,
				"z": -0.5274279221,
				"element": "S" 
			},
			{
				"x": 0.0578870816,
				"y": -1.3239557071,
				"z": 0.146935236,
				"element": "C" 
			},
			{
				"x": 0.4849799209,
				"y": -0.4547206838,
				"z": -0.7395712146,
				"element": "N" 
			},
			{
				"x": 0.4327328599,
				"y": -1.3065393223,
				"z": 1.5449083093,
				"element": "C" 
			},
			{
				"x": 0.1081787189,
				"y": -2.201162831,
				"z": 2.540698794,
				"element": "C" 
			},
			{
				"x": 0.6714373758,
				"y": -1.8355921361,
				"z": 3.7924536212,
				"element": "C" 
			},
			{
				"x": 0.4148005538,
				"y": -2.8590049494,
				"z": 5.3669334101,
				"element": "Br" 
			},
			{
				"x": 1.4116354297,
				"y": -0.685476183,
				"z": 3.7520302631,
				"element": "C" 
			},
			{
				"x": 1.436123982,
				"y": -0.0108716748,
				"z": 2.1594757063,
				"element": "S" 
			},
			{
				"x": 2.0000677558,
				"y": 0.4337047009,
				"z": -1.3670525262,
				"element": "H" 
			},
			{
				"x": 0.007262613,
				"y": -0.1471942154,
				"z": -4.0805115685,
				"element": "H" 
			},
			{
				"x": -0.1106047717,
				"y": 1.2051798418,
				"z": -2.9573453878,
				"element": "H" 
			},
			{
				"x": -1.3635081064,
				"y": -2.1681633679,
				"z": -2.9504979498,
				"element": "H" 
			},
			{
				"x": -0.4996641673,
				"y": -3.085618647,
				"z": 2.3954234573,
				"element": "H" 
			},
			{
				"x": 1.9385693781,
				"y": -0.2034569027,
				"z": 4.5623077867,
				"element": "H" 
			}
		],
		 "valence_orbital": [ 
			{
				"type": "occ",
				"energy": -0.30351,
				"method": "rhf"
			},
			{
				"type": "occ",
				"energy": -0.2979,
				"method": "rhf"
			},
			{
				"type": "occ",
				"energy": -0.26967,
				"method": "rhf"
			},
			{
				"type": "occ",
				"energy": -0.25852,
				"method": "rhf"
			},
			{
				"type": "occ",
				"energy": -0.23631,
				"method": "rhf"
			},
			{
				"type": "unocc",
				"energy": -0.08726,
				"method": "rhf"
			},
			{
				"type": "unocc",
				"energy": -0.01551,
				"method": "rhf"
			},
			{
				"type": "unocc",
				"energy": -0.01516,
				"method": "rhf"
			},
			{
				"type": "unocc",
				"energy": -0.0106,
				"method": "rhf"
			},
			{
				"type": "unocc",
				"energy": 0.00954,
				"method": "rhf"
			}
		],
		"cosmo_sigma_profile": { 
			"-0.025": 0.0,
			"-0.024": 0.0,
			"-0.023": 0.0,
			"-0.022": 0.0,
			"-0.021": 0.0,
			"-0.02": 0.0,
			"-0.019": 0.0,
			"-0.018": 0.0,
			"-0.017": 0.0,
			"-0.016": 0.0,
			"-0.015": 0.0,
			"-0.014": 0.0,
			"-0.013": 0.0,
			"-0.012": 0.0,
			"-0.011": 0.0889044123904,
			"-0.01": 2.91251750928,
			"-0.009": 6.3626695336,
			"-0.008": 9.58327344873,
			"-0.007": 10.7376497408,
			"-0.006": 9.95135741713,
			"-0.005": 11.2435752888,
			"-0.004": 15.2249924653,
			"-0.003": 13.6438117977,
			"-0.002": 16.4983651218,
			"-0.001": 20.8008929416,
			"0.0": 26.5412873171,
			"0.001": 34.216260302,
			"0.002": 27.6660135183,
			"0.003": 13.9616465164,
			"0.004": 12.9178885164,
			"0.005": 3.95939598996,
			"0.006": 2.60882395065,
			"0.007": 2.34657173479,
			"0.008": 2.03159492999,
			"0.009": 3.1040561981,
			"0.01": 4.41692438084,
			"0.011": 5.50000137302,
			"0.012": 6.13430586458,
			"0.013": 3.07004421582,
			"0.014": 0.450907539821,
			"0.015": 0.0,
			"0.016": 0.0,
			"0.017": 0.0,
			"0.018": 0.0,
			"0.019": 0.0,
			"0.02": 0.0,
			"0.021": 0.0,
			"0.022": 0.0,
			"0.023": 0.0,
			"0.024": 0.0,
			"0.025": 0.0
		}
	}
}
