{
	 "smiles": "ClCCC(=O)C1=CC=CC=C1", 
	 "Tm": 321.65, 
	 "num_atms": 20, 
	 "gaussian": { 
		 "optdone": 1, 
		 "sigma_profile": "yes", 
		 "theory": "DFT", 
		 "functional": "B3LYP", 
		 "basiset": "6-31G**", 
		 "properties": { 
			 "R2extent": 3536.8803, 
			 "electric_dipole_moment_norm": 3.45597141337, 
			 "electric_quadrupole_moment_norm": 9.96957295725, 
			 "total_energy": -883.803029447, 
			 "HOMO_LUMO_gap": 0.1874, 
			 "cosmo_polarized_energy": -9.34, 
			 "cosmo_cavitation_energy": 25.75, 
			 "cosmo_dispersion_energy": -18.73, 
			 "cosmo_repulsion_energy": 1.52, 
			 "cosmo_total_nonelectrostatic_energy": 8.54, 
			 "SMD_solvation_energy": 4.48 
		},
		"coords": [
			{
				"x": 0.2384582737,
				"y": 1.1831391169,
				"z": -4.9462782154,
				"element": "Cl" 
			},
			{
				"x": -0.295377184,
				"y": 0.848528537,
				"z": -3.2422678942,
				"element": "C" 
			},
			{
				"x": 0.9023040232,
				"y": 0.6310249108,
				"z": -2.3160504821,
				"element": "C" 
			},
			{
				"x": 0.420618721,
				"y": 0.3689883428,
				"z": -0.8848926673,
				"element": "C" 
			},
			{
				"x": 0.318748136,
				"y": 1.3069696048,
				"z": -0.1082759305,
				"element": "O" 
			},
			{
				"x": 0.0425854032,
				"y": -1.0190272832,
				"z": -0.4687507493,
				"element": "C" 
			},
			{
				"x": 0.1328834803,
				"y": -2.1297781161,
				"z": -1.3229867516,
				"element": "C" 
			},
			{
				"x": -0.2455555771,
				"y": -3.3958259037,
				"z": -0.8758387354,
				"element": "C" 
			},
			{
				"x": -0.7136795595,
				"y": -3.5653651583,
				"z": 0.4282019824,
				"element": "C" 
			},
			{
				"x": -0.8057964762,
				"y": -2.4652199445,
				"z": 1.2871720111,
				"element": "C" 
			},
			{
				"x": -0.4322472783,
				"y": -1.2020743238,
				"z": 0.8412980986,
				"element": "C" 
			},
			{
				"x": -0.9429014322,
				"y": -0.0281370215,
				"z": -3.2908320713,
				"element": "H" 
			},
			{
				"x": -0.8831796664,
				"y": 1.7106208412,
				"z": -2.9249383569,
				"element": "H" 
			},
			{
				"x": 1.5212035053,
				"y": -0.186711176,
				"z": -2.6943902869,
				"element": "H" 
			},
			{
				"x": 1.5089140857,
				"y": 1.5384849283,
				"z": -2.2869861737,
				"element": "H" 
			},
			{
				"x": 0.4988535947,
				"y": -2.0179247218,
				"z": -2.3384388539,
				"element": "H" 
			},
			{
				"x": -0.1724873213,
				"y": -4.2485940288,
				"z": -1.5441106178,
				"element": "H" 
			},
			{
				"x": -1.0056500936,
				"y": -4.5523104098,
				"z": 0.7755624556,
				"element": "H" 
			},
			{
				"x": -1.1698318953,
				"y": -2.5967365214,
				"z": 2.3019025884,
				"element": "H" 
			},
			{
				"x": -0.4964627392,
				"y": -0.3328516728,
				"z": 1.4871006501,
				"element": "H" 
			}
		],
		 "valence_orbital": [ 
			{
				"type": "occ",
				"energy": -0.30334,
				"method": "rhf"
			},
			{
				"type": "occ",
				"energy": -0.2994,
				"method": "rhf"
			},
			{
				"type": "occ",
				"energy": -0.26988,
				"method": "rhf"
			},
			{
				"type": "occ",
				"energy": -0.26638,
				"method": "rhf"
			},
			{
				"type": "occ",
				"energy": -0.25658,
				"method": "rhf"
			},
			{
				"type": "unocc",
				"energy": -0.06918,
				"method": "rhf"
			},
			{
				"type": "unocc",
				"energy": -0.01869,
				"method": "rhf"
			},
			{
				"type": "unocc",
				"energy": 0.01107,
				"method": "rhf"
			},
			{
				"type": "unocc",
				"energy": 0.04745,
				"method": "rhf"
			},
			{
				"type": "unocc",
				"energy": 0.07662,
				"method": "rhf"
			}
		],
		"cosmo_sigma_profile": { 
			"-0.025": 0.0,
			"-0.024": 0.0,
			"-0.023": 0.0,
			"-0.022": 0.0,
			"-0.021": 0.0,
			"-0.02": 0.0,
			"-0.019": 0.0,
			"-0.018": 0.0,
			"-0.017": 0.0,
			"-0.016": 0.0,
			"-0.015": 0.0,
			"-0.014": 0.0,
			"-0.013": 0.0,
			"-0.012": 0.0,
			"-0.011": 0.0,
			"-0.01": 0.0,
			"-0.009": 0.49340692304,
			"-0.008": 2.81510387972,
			"-0.007": 8.50473588796,
			"-0.006": 15.7301986477,
			"-0.005": 20.9608934173,
			"-0.004": 17.11203667,
			"-0.003": 14.1174816179,
			"-0.002": 9.98179781843,
			"-0.001": 11.0478078801,
			"0.0": 11.4926517157,
			"0.001": 12.1345773717,
			"0.002": 14.8830649557,
			"0.003": 15.5181747109,
			"0.004": 16.2069018371,
			"0.005": 7.820726455,
			"0.006": 11.7604484092,
			"0.007": 4.66212737617,
			"0.008": 1.32324647386,
			"0.009": 1.56941545241,
			"0.01": 2.07360056153,
			"0.011": 3.62772374909,
			"0.012": 2.97486942212,
			"0.013": 0.684812882175,
			"0.014": 0.0,
			"0.015": 0.0,
			"0.016": 0.0,
			"0.017": 0.0,
			"0.018": 0.0,
			"0.019": 0.0,
			"0.02": 0.0,
			"0.021": 0.0,
			"0.022": 0.0,
			"0.023": 0.0,
			"0.024": 0.0,
			"0.025": 0.0
		}
	}
}
