{
	 "smiles": "COC1=C(OC)C=C(C=C1)C1=NC(=CS1)C(O)=O", 
	 "Tm": 478.15, 
	 "num_atms": 29, 
	 "gaussian": { 
		 "optdone": 1, 
		 "sigma_profile": "yes", 
		 "theory": "DFT", 
		 "functional": "B3LYP", 
		 "basiset": "6-31G**", 
		 "properties": { 
			 "R2extent": 7215.5132, 
			 "electric_dipole_moment_norm": 6.88954694955, 
			 "electric_quadrupole_moment_norm": 15.8225631979, 
			 "total_energy": -1217.71977698, 
			 "HOMO_LUMO_gap": 0.1605, 
			 "cosmo_polarized_energy": -14.08, 
			 "cosmo_cavitation_energy": 35.62, 
			 "cosmo_dispersion_energy": -26.15, 
			 "cosmo_repulsion_energy": 1.97, 
			 "cosmo_total_nonelectrostatic_energy": 11.45, 
			 "SMD_solvation_energy": 7.95 
		},
		"coords": [
			{
				"x": -3.1380699865,
				"y": 1.7390721728,
				"z": -3.8101611183,
				"element": "C" 
			},
			{
				"x": -3.1320319772,
				"y": 0.4830272102,
				"z": -3.1143048328,
				"element": "O" 
			},
			{
				"x": -2.3256635726,
				"y": 0.4264299953,
				"z": -2.0065919689,
				"element": "C" 
			},
			{
				"x": -2.5908768244,
				"y": 1.1894056292,
				"z": -0.8504554765,
				"element": "C" 
			},
			{
				"x": -3.6495023937,
				"y": 2.0651375612,
				"z": -0.7899862699,
				"element": "O" 
			},
			{
				"x": -4.9439952699,
				"y": 1.4460407332,
				"z": -0.768236908,
				"element": "C" 
			},
			{
				"x": -1.7460329053,
				"y": 1.0887456659,
				"z": 0.2511189468,
				"element": "C" 
			},
			{
				"x": -0.6394133903,
				"y": 0.2246672681,
				"z": 0.2396201371,
				"element": "C" 
			},
			{
				"x": -0.4037861427,
				"y": -0.5587570843,
				"z": -0.9031365681,
				"element": "C" 
			},
			{
				"x": -1.2379013593,
				"y": -0.4512880875,
				"z": -2.0100141354,
				"element": "C" 
			},
			{
				"x": 0.2618642425,
				"y": 0.1111249206,
				"z": 1.3902678228,
				"element": "C" 
			},
			{
				"x": 1.2368763584,
				"y": -0.7561790901,
				"z": 1.4906682572,
				"element": "N" 
			},
			{
				"x": 1.9202377919,
				"y": -0.6290151742,
				"z": 2.6773793393,
				"element": "C" 
			},
			{
				"x": 1.4767748692,
				"y": 0.3511380172,
				"z": 3.5206591059,
				"element": "C" 
			},
			{
				"x": 0.1386793537,
				"y": 1.170246715,
				"z": 2.8061022176,
				"element": "S" 
			},
			{
				"x": 3.0643664093,
				"y": -1.5437815306,
				"z": 2.9624337611,
				"element": "C" 
			},
			{
				"x": 3.3050164053,
				"y": -2.4331471961,
				"z": 1.9775906866,
				"element": "O" 
			},
			{
				"x": 3.7196736259,
				"y": -1.4994131818,
				"z": 3.9777920685,
				"element": "O" 
			},
			{
				"x": -3.4745929541,
				"y": 2.5534358415,
				"z": -3.1625194761,
				"element": "H" 
			},
			{
				"x": -3.8292843689,
				"y": 1.6175347973,
				"z": -4.6459147265,
				"element": "H" 
			},
			{
				"x": -2.1375838086,
				"y": 1.967439717,
				"z": -4.1967703367,
				"element": "H" 
			},
			{
				"x": -5.6693487,
				"y": 2.2605641481,
				"z": -0.7266061827,
				"element": "H" 
			},
			{
				"x": -5.0546850826,
				"y": 0.8152686816,
				"z": 0.1221766323,
				"element": "H" 
			},
			{
				"x": -5.1131590805,
				"y": 0.8432632579,
				"z": -1.665591913,
				"element": "H" 
			},
			{
				"x": -1.9860882191,
				"y": 1.6962639941,
				"z": 1.1185437108,
				"element": "H" 
			},
			{
				"x": 0.4440531898,
				"y": -1.2334355421,
				"z": -0.916286979,
				"element": "H" 
			},
			{
				"x": -1.0592085823,
				"y": -1.0390156993,
				"z": -2.9046277771,
				"element": "H" 
			},
			{
				"x": 1.8711183439,
				"y": 0.6102711281,
				"z": 4.4921003134,
				"element": "H" 
			},
			{
				"x": 2.6495640278,
				"y": -2.2730448684,
				"z": 1.2730516694,
				"element": "H" 
			}
		],
		 "valence_orbital": [ 
			{
				"type": "occ",
				"energy": -0.28682,
				"method": "rhf"
			},
			{
				"type": "occ",
				"energy": -0.27725,
				"method": "rhf"
			},
			{
				"type": "occ",
				"energy": -0.26935,
				"method": "rhf"
			},
			{
				"type": "occ",
				"energy": -0.25905,
				"method": "rhf"
			},
			{
				"type": "occ",
				"energy": -0.2319,
				"method": "rhf"
			},
			{
				"type": "unocc",
				"energy": -0.0714,
				"method": "rhf"
			},
			{
				"type": "unocc",
				"energy": -0.03638,
				"method": "rhf"
			},
			{
				"type": "unocc",
				"energy": -0.01763,
				"method": "rhf"
			},
			{
				"type": "unocc",
				"energy": 0.00102,
				"method": "rhf"
			},
			{
				"type": "unocc",
				"energy": 0.0284,
				"method": "rhf"
			}
		],
		"cosmo_sigma_profile": { 
			"-0.025": 0.0,
			"-0.024": 0.0,
			"-0.023": 0.0,
			"-0.022": 0.0,
			"-0.021": 0.0,
			"-0.02": 0.0,
			"-0.019": 0.0,
			"-0.018": 0.0,
			"-0.017": 0.0,
			"-0.016": 0.0,
			"-0.015": 0.0,
			"-0.014": 0.275971686075,
			"-0.013": 0.63484885407,
			"-0.012": 0.0952661102254,
			"-0.011": 1.18302649218,
			"-0.01": 2.67483519843,
			"-0.009": 2.12952614007,
			"-0.008": 2.63511169918,
			"-0.007": 5.66509183158,
			"-0.006": 10.351646394,
			"-0.005": 17.0165436661,
			"-0.004": 22.146825785,
			"-0.003": 28.5198571053,
			"-0.002": 29.876888899,
			"-0.001": 26.7879834001,
			"0.0": 25.9600472215,
			"0.001": 21.0114895245,
			"0.002": 22.3576843073,
			"0.003": 15.4323336297,
			"0.004": 8.27568427061,
			"0.005": 4.88864736954,
			"0.006": 4.43272481578,
			"0.007": 4.68487866022,
			"0.008": 4.77713015603,
			"0.009": 4.82719134471,
			"0.01": 7.7292101805,
			"0.011": 6.71903159155,
			"0.012": 4.81735675145,
			"0.013": 1.57293255597,
			"0.014": 0.0287920853645,
			"0.015": 0.0,
			"0.016": 0.0,
			"0.017": 0.0,
			"0.018": 0.0,
			"0.019": 0.0,
			"0.02": 0.0,
			"0.021": 0.0,
			"0.022": 0.0,
			"0.023": 0.0,
			"0.024": 0.0,
			"0.025": 0.0
		}
	}
}
