{
	 "smiles": "CC(=C/NNC1=NC(C)=CC(C)=N1)C1=CC=CC=N1", 
	 "Tm": 417.15, 
	 "num_atms": 36, 
	 "gaussian": { 
		 "optdone": 1, 
		 "sigma_profile": "yes", 
		 "theory": "DFT", 
		 "functional": "B3LYP", 
		 "basiset": "6-31G**", 
		 "properties": { 
			 "R2extent": 7817.0207, 
			 "electric_dipole_moment_norm": 2.85187816184, 
			 "electric_quadrupole_moment_norm": 10.3149032628, 
			 "total_energy": -817.476283965, 
			 "HOMO_LUMO_gap": 0.15293, 
			 "cosmo_polarized_energy": -13.93, 
			 "cosmo_cavitation_energy": 40.31, 
			 "cosmo_dispersion_energy": -28.64, 
			 "cosmo_repulsion_energy": 2.25, 
			 "cosmo_total_nonelectrostatic_energy": 13.92, 
			 "SMD_solvation_energy": 3.95 
		},
		"coords": [
			{
				"x": 0.8148804008,
				"y": 1.218859369,
				"z": -2.387666879,
				"element": "C" 
			},
			{
				"x": -0.3738083213,
				"y": 0.537933544,
				"z": -1.7511456308,
				"element": "C" 
			},
			{
				"x": -0.2667225291,
				"y": -0.5994721715,
				"z": -1.0265844272,
				"element": "C" 
			},
			{
				"x": 0.8983126928,
				"y": -1.3284953026,
				"z": -0.8029687494,
				"element": "N" 
			},
			{
				"x": 0.8489242261,
				"y": -2.2720092606,
				"z": 0.2219236525,
				"element": "N" 
			},
			{
				"x": 1.3970351624,
				"y": -1.9990547378,
				"z": 1.4606512469,
				"element": "C" 
			},
			{
				"x": 1.5445859729,
				"y": -3.069689449,
				"z": 2.2608019563,
				"element": "N" 
			},
			{
				"x": 2.0331430476,
				"y": -2.8251566738,
				"z": 3.4810553611,
				"element": "C" 
			},
			{
				"x": 2.1911610981,
				"y": -4.0119454023,
				"z": 4.3945795563,
				"element": "C" 
			},
			{
				"x": 2.3782401172,
				"y": -1.527729377,
				"z": 3.8832297097,
				"element": "C" 
			},
			{
				"x": 2.2134670745,
				"y": -0.495805693,
				"z": 2.9578706293,
				"element": "C" 
			},
			{
				"x": 2.5753611137,
				"y": 0.9307505208,
				"z": 3.273811851,
				"element": "C" 
			},
			{
				"x": 1.7226750004,
				"y": -0.7285969485,
				"z": 1.7293852421,
				"element": "N" 
			},
			{
				"x": -1.711300078,
				"y": 1.1382814634,
				"z": -1.9229405077,
				"element": "C" 
			},
			{
				"x": -1.8905220727,
				"y": 2.3518697393,
				"z": -2.6180770356,
				"element": "C" 
			},
			{
				"x": -3.1698035327,
				"y": 2.8837927846,
				"z": -2.7552027269,
				"element": "C" 
			},
			{
				"x": -4.2533005233,
				"y": 2.2058622832,
				"z": -2.2007372416,
				"element": "C" 
			},
			{
				"x": -3.986233841,
				"y": 1.0114796432,
				"z": -1.525963993,
				"element": "C" 
			},
			{
				"x": -2.7705404316,
				"y": 0.4883233161,
				"z": -1.3856643203,
				"element": "N" 
			},
			{
				"x": 0.6601028118,
				"y": 1.3710223166,
				"z": -3.4629624043,
				"element": "H" 
			},
			{
				"x": 1.0101292549,
				"y": 2.2057681565,
				"z": -1.94844624,
				"element": "H" 
			},
			{
				"x": 1.7312140081,
				"y": 0.6315520628,
				"z": -2.2880973332,
				"element": "H" 
			},
			{
				"x": -1.1602155411,
				"y": -1.0511328434,
				"z": -0.6113593218,
				"element": "H" 
			},
			{
				"x": 1.7532118618,
				"y": -0.7826254888,
				"z": -0.7707256506,
				"element": "H" 
			},
			{
				"x": 0.9308125199,
				"y": -3.2365224509,
				"z": -0.0722627403,
				"element": "H" 
			},
			{
				"x": 2.6740418478,
				"y": -3.739008022,
				"z": 5.3358232588,
				"element": "H" 
			},
			{
				"x": 1.2110211639,
				"y": -4.4473937303,
				"z": 4.6164266746,
				"element": "H" 
			},
			{
				"x": 2.7817014283,
				"y": -4.7903751804,
				"z": 3.9018553957,
				"element": "H" 
			},
			{
				"x": 2.7743513536,
				"y": -1.335309676,
				"z": 4.8738115086,
				"element": "H" 
			},
			{
				"x": 3.3016188239,
				"y": 1.3053860598,
				"z": 2.5452439121,
				"element": "H" 
			},
			{
				"x": 1.6885540376,
				"y": 1.5682027633,
				"z": 3.195489989,
				"element": "H" 
			},
			{
				"x": 2.9954833675,
				"y": 1.0310923571,
				"z": 4.2772819982,
				"element": "H" 
			},
			{
				"x": -1.041150872,
				"y": 2.8741198126,
				"z": -3.0428084639,
				"element": "H" 
			},
			{
				"x": -3.315376438,
				"y": 3.8188992996,
				"z": -3.2897383878,
				"element": "H" 
			},
			{
				"x": -5.2677075825,
				"y": 2.5822052575,
				"z": -2.2831441078,
				"element": "H" 
			},
			{
				"x": -4.8012466225,
				"y": 0.4460216586,
				"z": -1.0741457807,
				"element": "H" 
			}
		],
		 "valence_orbital": [ 
			{
				"type": "occ",
				"energy": -0.25919,
				"method": "rhf"
			},
			{
				"type": "occ",
				"energy": -0.24683,
				"method": "rhf"
			},
			{
				"type": "occ",
				"energy": -0.23697,
				"method": "rhf"
			},
			{
				"type": "occ",
				"energy": -0.22839,
				"method": "rhf"
			},
			{
				"type": "occ",
				"energy": -0.18417,
				"method": "rhf"
			},
			{
				"type": "unocc",
				"energy": -0.03124,
				"method": "rhf"
			},
			{
				"type": "unocc",
				"energy": -0.01805,
				"method": "rhf"
			},
			{
				"type": "unocc",
				"energy": 0.00011,
				"method": "rhf"
			},
			{
				"type": "unocc",
				"energy": 0.00416,
				"method": "rhf"
			},
			{
				"type": "unocc",
				"energy": 0.06864,
				"method": "rhf"
			}
		],
		"cosmo_sigma_profile": { 
			"-0.025": 0.0,
			"-0.024": 0.0,
			"-0.023": 0.0,
			"-0.022": 0.0,
			"-0.021": 0.0,
			"-0.02": 0.0,
			"-0.019": 0.0,
			"-0.018": 0.0,
			"-0.017": 0.0,
			"-0.016": 0.0,
			"-0.015": 0.0,
			"-0.014": 0.377541044595,
			"-0.013": 0.807284221839,
			"-0.012": 1.33613386017,
			"-0.011": 2.25050825006,
			"-0.01": 1.01189167515,
			"-0.009": 1.13317273746,
			"-0.008": 1.94108042258,
			"-0.007": 3.44161671591,
			"-0.006": 11.0856651892,
			"-0.005": 22.9054114061,
			"-0.004": 27.9612716552,
			"-0.003": 26.5698385641,
			"-0.002": 25.7140281101,
			"-0.001": 34.3850766909,
			"0.0": 30.5771397974,
			"0.001": 21.3762223535,
			"0.002": 18.0082539848,
			"0.003": 19.8248367484,
			"0.004": 19.9851649615,
			"0.005": 12.3710538017,
			"0.006": 10.1228427062,
			"0.007": 5.93329171148,
			"0.008": 5.08006392374,
			"0.009": 4.28805124326,
			"0.01": 4.48424267913,
			"0.011": 2.70418195864,
			"0.012": 2.63572713663,
			"0.013": 1.17033010126,
			"0.014": 0.487938585577,
			"0.015": 0.312827405442,
			"0.016": 0.0,
			"0.017": 0.0,
			"0.018": 0.0,
			"0.019": 0.0,
			"0.02": 0.0,
			"0.021": 0.0,
			"0.022": 0.0,
			"0.023": 0.0,
			"0.024": 0.0,
			"0.025": 0.0
		}
	}
}
