{
	 "smiles": "NC1=NC2=C(N=CN2)C(S)=N1", 
	 "Tm": 633.15, 
	 "num_atms": 16, 
	 "gaussian": { 
		 "optdone": 1, 
		 "sigma_profile": "yes", 
		 "theory": "DFT", 
		 "functional": "B3LYP", 
		 "basiset": "6-31G**", 
		 "properties": { 
			 "R2extent": 2912.7621, 
			 "electric_dipole_moment_norm": 3.56847602346, 
			 "electric_quadrupole_moment_norm": 20.0916672352, 
			 "total_energy": -865.510036763, 
			 "HOMO_LUMO_gap": 0.17851, 
			 "cosmo_polarized_energy": -17.17, 
			 "cosmo_cavitation_energy": 22.52, 
			 "cosmo_dispersion_energy": -17.9, 
			 "cosmo_repulsion_energy": 1.41, 
			 "cosmo_total_nonelectrostatic_energy": 6.03, 
			 "SMD_solvation_energy": -1.21 
		},
		"coords": [
			{
				"x": 0.2124518785,
				"y": -3.7735629982,
				"z": 1.0466778471,
				"element": "N" 
			},
			{
				"x": 0.8223150438,
				"y": -2.7233198177,
				"z": 0.4151472544,
				"element": "C" 
			},
			{
				"x": 2.1224975739,
				"y": -2.8711268586,
				"z": 0.1046295453,
				"element": "N" 
			},
			{
				"x": 2.6229294633,
				"y": -1.7734367316,
				"z": -0.458041754,
				"element": "C" 
			},
			{
				"x": 1.9404832897,
				"y": -0.5731461844,
				"z": -0.7322672668,
				"element": "C" 
			},
			{
				"x": 2.7789163367,
				"y": 0.3552145244,
				"z": -1.3274391955,
				"element": "N" 
			},
			{
				"x": 3.9289240559,
				"y": -0.2595378531,
				"z": -1.4111393032,
				"element": "C" 
			},
			{
				"x": 3.903995097,
				"y": -1.5506703876,
				"z": -0.9044753798,
				"element": "N" 
			},
			{
				"x": 0.5868367813,
				"y": -0.5631257309,
				"z": -0.3680127855,
				"element": "C" 
			},
			{
				"x": -0.4095519242,
				"y": 0.8724614004,
				"z": -0.6648313383,
				"element": "S" 
			},
			{
				"x": 0.0386626377,
				"y": -1.6348856625,
				"z": 0.2004737855,
				"element": "N" 
			},
			{
				"x": -0.7948070385,
				"y": -3.7682165741,
				"z": 1.0605282964,
				"element": "H" 
			},
			{
				"x": 0.6822039635,
				"y": -4.6638262909,
				"z": 1.0025391978,
				"element": "H" 
			},
			{
				"x": 4.8341659377,
				"y": 0.1622329543,
				"z": -1.8273280999,
				"element": "H" 
			},
			{
				"x": 4.6684838312,
				"y": -2.207217825,
				"z": -0.8586231345,
				"element": "H" 
			},
			{
				"x": -1.5185069275,
				"y": 0.3216640354,
				"z": -0.1334376689,
				"element": "H" 
			}
		],
		 "valence_orbital": [ 
			{
				"type": "occ",
				"energy": -0.28814,
				"method": "rhf"
			},
			{
				"type": "occ",
				"energy": -0.27899,
				"method": "rhf"
			},
			{
				"type": "occ",
				"energy": -0.24911,
				"method": "rhf"
			},
			{
				"type": "occ",
				"energy": -0.24845,
				"method": "rhf"
			},
			{
				"type": "occ",
				"energy": -0.20982,
				"method": "rhf"
			},
			{
				"type": "unocc",
				"energy": -0.03131,
				"method": "rhf"
			},
			{
				"type": "unocc",
				"energy": 0.01318,
				"method": "rhf"
			},
			{
				"type": "unocc",
				"energy": 0.02694,
				"method": "rhf"
			},
			{
				"type": "unocc",
				"energy": 0.04389,
				"method": "rhf"
			},
			{
				"type": "unocc",
				"energy": 0.07239,
				"method": "rhf"
			}
		],
		"cosmo_sigma_profile": { 
			"-0.025": 0.0,
			"-0.024": 0.0,
			"-0.023": 0.0,
			"-0.022": 0.0,
			"-0.021": 0.0,
			"-0.02": 0.0,
			"-0.019": 0.0,
			"-0.018": 0.021455884275,
			"-0.017": 1.3638878561,
			"-0.016": 1.57770018039,
			"-0.015": 1.6615405864,
			"-0.014": 1.57985969151,
			"-0.013": 2.41748363264,
			"-0.012": 3.57063282291,
			"-0.011": 4.49393742736,
			"-0.01": 6.32666045763,
			"-0.009": 5.94809936287,
			"-0.008": 4.99770946156,
			"-0.007": 5.50486906787,
			"-0.006": 4.23888055435,
			"-0.005": 3.44339803015,
			"-0.004": 4.76568115236,
			"-0.003": 5.10403511475,
			"-0.002": 5.93495821124,
			"-0.001": 9.91554412644,
			"0.0": 15.1911763552,
			"0.001": 12.2451450584,
			"0.002": 11.8043325994,
			"0.003": 11.4212272618,
			"0.004": 10.0940776607,
			"0.005": 10.1030556224,
			"0.006": 9.13769917538,
			"0.007": 7.96435610893,
			"0.008": 5.34556065554,
			"0.009": 3.14876667382,
			"0.01": 3.66101929937,
			"0.011": 3.25776783235,
			"0.012": 1.90603065021,
			"0.013": 2.2777853124,
			"0.014": 1.35816270027,
			"0.015": 1.0869905305,
			"0.016": 0.464014909612,
			"0.017": 0.0,
			"0.018": 0.0,
			"0.019": 0.0,
			"0.02": 0.0,
			"0.021": 0.0,
			"0.022": 0.0,
			"0.023": 0.0,
			"0.024": 0.0,
			"0.025": 0.0
		}
	}
}
