{
	 "smiles": "CC(C)OC1=CC(CNC(=O)CCl)=CC=C1", 
	 "Tm": 343.15, 
	 "num_atms": 32, 
	 "gaussian": { 
		 "optdone": 1, 
		 "sigma_profile": "yes", 
		 "theory": "DFT", 
		 "functional": "B3LYP", 
		 "basiset": "6-31G**", 
		 "properties": { 
			 "R2extent": 5199.1973, 
			 "electric_dipole_moment_norm": 0.439457085504, 
			 "electric_quadrupole_moment_norm": 9.11747771645, 
			 "total_energy": -1132.33096049, 
			 "HOMO_LUMO_gap": 0.20748, 
			 "cosmo_polarized_energy": -11.96, 
			 "cosmo_cavitation_energy": 36.35, 
			 "cosmo_dispersion_energy": -25.13, 
			 "cosmo_repulsion_energy": 2.01, 
			 "cosmo_total_nonelectrostatic_energy": 13.23, 
			 "SMD_solvation_energy": 6.01 
		},
		"coords": [
			{
				"x": 0.5876993421,
				"y": -2.2094268136,
				"z": -1.457930017,
				"element": "C" 
			},
			{
				"x": 2.0855914671,
				"y": -1.9864533842,
				"z": -1.2242908978,
				"element": "C" 
			},
			{
				"x": 2.7379039186,
				"y": -0.9963499627,
				"z": -2.1927906032,
				"element": "C" 
			},
			{
				"x": 2.4161920292,
				"y": -1.7166276077,
				"z": 0.156942599,
				"element": "O" 
			},
			{
				"x": 2.014706808,
				"y": -0.6126435559,
				"z": 0.8483023901,
				"element": "C" 
			},
			{
				"x": 1.2164137409,
				"y": 0.4284865781,
				"z": 0.3629698996,
				"element": "C" 
			},
			{
				"x": 0.8684937479,
				"y": 1.501414785,
				"z": 1.19847363,
				"element": "C" 
			},
			{
				"x": -0.0358346559,
				"y": 2.589735156,
				"z": 0.6500221767,
				"element": "C" 
			},
			{
				"x": -1.4473609357,
				"y": 2.1978839914,
				"z": 0.5800332485,
				"element": "N" 
			},
			{
				"x": -1.9629435352,
				"y": 1.5733292777,
				"z": -0.4988437722,
				"element": "C" 
			},
			{
				"x": -1.3431728159,
				"y": 1.319305042,
				"z": -1.5297827627,
				"element": "O" 
			},
			{
				"x": -3.4354321498,
				"y": 1.1568686607,
				"z": -0.4615003982,
				"element": "C" 
			},
			{
				"x": -4.3626439346,
				"y": 1.5483214899,
				"z": 1.0511079017,
				"element": "Cl" 
			},
			{
				"x": 1.3287102765,
				"y": 1.5451721905,
				"z": 2.5147326167,
				"element": "C" 
			},
			{
				"x": 2.135149564,
				"y": 0.5078562594,
				"z": 2.9961776108,
				"element": "C" 
			},
			{
				"x": 2.4743145296,
				"y": -0.5612973175,
				"z": 2.1775445324,
				"element": "C" 
			},
			{
				"x": 0.1854463875,
				"y": -2.877931991,
				"z": -0.6910307222,
				"element": "H" 
			},
			{
				"x": 0.0030604691,
				"y": -1.2870906925,
				"z": -1.4597488914,
				"element": "H" 
			},
			{
				"x": 0.448264995,
				"y": -2.6899287533,
				"z": -2.4321992109,
				"element": "H" 
			},
			{
				"x": 2.5810378619,
				"y": -2.9532011638,
				"z": -1.3666279856,
				"element": "H" 
			},
			{
				"x": 2.2746129899,
				"y": -0.0079049171,
				"z": -2.1696071026,
				"element": "H" 
			},
			{
				"x": 3.8004601421,
				"y": -0.8860093498,
				"z": -1.9581033593,
				"element": "H" 
			},
			{
				"x": 2.6518169724,
				"y": -1.3802917967,
				"z": -3.2146580686,
				"element": "H" 
			},
			{
				"x": 0.839985789,
				"y": 0.431901867,
				"z": -0.6495420842,
				"element": "H" 
			},
			{
				"x": 0.0265441401,
				"y": 3.4873934802,
				"z": 1.2719632582,
				"element": "H" 
			},
			{
				"x": 0.2624329723,
				"y": 2.8587203785,
				"z": -0.3663406714,
				"element": "H" 
			},
			{
				"x": -2.018423483,
				"y": 2.2680753495,
				"z": 1.4106589708,
				"element": "H" 
			},
			{
				"x": -3.4900984494,
				"y": 0.0768377805,
				"z": -0.59925841,
				"element": "H" 
			},
			{
				"x": -3.9493396346,
				"y": 1.6445813463,
				"z": -1.2899617912,
				"element": "H" 
			},
			{
				"x": 1.0656989781,
				"y": 2.3798755376,
				"z": 3.1592981957,
				"element": "H" 
			},
			{
				"x": 2.5014173668,
				"y": 0.5351221964,
				"z": 4.0186768807,
				"element": "H" 
			},
			{
				"x": 3.0974951061,
				"y": -1.3737240609,
				"z": 2.5368128376,
				"element": "H" 
			}
		],
		 "valence_orbital": [ 
			{
				"type": "occ",
				"energy": -0.30739,
				"method": "rhf"
			},
			{
				"type": "occ",
				"energy": -0.26952,
				"method": "rhf"
			},
			{
				"type": "occ",
				"energy": -0.26016,
				"method": "rhf"
			},
			{
				"type": "occ",
				"energy": -0.24282,
				"method": "rhf"
			},
			{
				"type": "occ",
				"energy": -0.21297,
				"method": "rhf"
			},
			{
				"type": "unocc",
				"energy": -0.00549,
				"method": "rhf"
			},
			{
				"type": "unocc",
				"energy": 0.01103,
				"method": "rhf"
			},
			{
				"type": "unocc",
				"energy": 0.01367,
				"method": "rhf"
			},
			{
				"type": "unocc",
				"energy": 0.01752,
				"method": "rhf"
			},
			{
				"type": "unocc",
				"energy": 0.08897,
				"method": "rhf"
			}
		],
		"cosmo_sigma_profile": { 
			"-0.025": 0.0,
			"-0.024": 0.0,
			"-0.023": 0.0,
			"-0.022": 0.0,
			"-0.021": 0.0,
			"-0.02": 0.0,
			"-0.019": 0.0,
			"-0.018": 0.0,
			"-0.017": 0.0,
			"-0.016": 0.0,
			"-0.015": 0.0,
			"-0.014": 0.0794370270606,
			"-0.013": 0.458537016799,
			"-0.012": 0.571567302003,
			"-0.011": 0.813360747771,
			"-0.01": 1.43319733485,
			"-0.009": 3.7831345955,
			"-0.008": 4.62005076503,
			"-0.007": 5.68775585239,
			"-0.006": 9.57335968234,
			"-0.005": 16.6529023681,
			"-0.004": 25.4199427683,
			"-0.003": 24.6326061881,
			"-0.002": 23.6892124976,
			"-0.001": 22.8736505355,
			"0.0": 25.0974728814,
			"0.001": 22.6035927531,
			"0.002": 18.5492202202,
			"0.003": 14.67201537,
			"0.004": 17.5836877305,
			"0.005": 17.9008144432,
			"0.006": 14.0563597921,
			"0.007": 2.83486460977,
			"0.008": 2.00366442909,
			"0.009": 3.24582159457,
			"0.01": 2.42559665737,
			"0.011": 1.8922731744,
			"0.012": 1.73829743061,
			"0.013": 3.11817423747,
			"0.014": 1.04927691647,
			"0.015": 0.0290866486031,
			"0.016": 0.0,
			"0.017": 0.0,
			"0.018": 0.0,
			"0.019": 0.0,
			"0.02": 0.0,
			"0.021": 0.0,
			"0.022": 0.0,
			"0.023": 0.0,
			"0.024": 0.0,
			"0.025": 0.0
		}
	}
}
