{
	 "smiles": "CC(=O)C1=C(O)C=CC(=C1)C1=CC=CC=C1", 
	 "Tm": 323.15, 
	 "num_atms": 28, 
	 "gaussian": { 
		 "optdone": 1, 
		 "sigma_profile": "yes", 
		 "theory": "DFT", 
		 "functional": "B3LYP", 
		 "basiset": "6-31G**", 
		 "properties": { 
			 "R2extent": 4693.7471, 
			 "electric_dipole_moment_norm": 4.33351680048, 
			 "electric_quadrupole_moment_norm": 12.3995707793, 
			 "total_energy": -691.176318274, 
			 "HOMO_LUMO_gap": 0.16747, 
			 "cosmo_polarized_energy": -13.9, 
			 "cosmo_cavitation_energy": 31.99, 
			 "cosmo_dispersion_energy": -23.33, 
			 "cosmo_repulsion_energy": 1.79, 
			 "cosmo_total_nonelectrostatic_energy": 10.45, 
			 "SMD_solvation_energy": 6.25 
		},
		"coords": [
			{
				"x": 3.4364644274,
				"y": 1.6338031164,
				"z": -0.1295730774,
				"element": "C" 
			},
			{
				"x": 2.279556304,
				"y": 0.7384605675,
				"z": 0.2640983202,
				"element": "C" 
			},
			{
				"x": 2.4349254684,
				"y": -0.1083943295,
				"z": 1.1336084852,
				"element": "O" 
			},
			{
				"x": 0.9336781055,
				"y": 0.87441973,
				"z": -0.3998972468,
				"element": "C" 
			},
			{
				"x": 0.5983606941,
				"y": 1.8010993072,
				"z": -1.4094929628,
				"element": "C" 
			},
			{
				"x": 1.5369049348,
				"y": 2.6848342646,
				"z": -1.8593913202,
				"element": "O" 
			},
			{
				"x": -0.6975499266,
				"y": 1.8098767505,
				"z": -1.9421335745,
				"element": "C" 
			},
			{
				"x": -1.6596100105,
				"y": 0.9176399203,
				"z": -1.4887193261,
				"element": "C" 
			},
			{
				"x": -1.3611027454,
				"y": -0.0218086874,
				"z": -0.4851478914,
				"element": "C" 
			},
			{
				"x": -0.0633063635,
				"y": -0.0148165934,
				"z": 0.0321442518,
				"element": "C" 
			},
			{
				"x": -2.3848309091,
				"y": -0.9803312409,
				"z": 0.0033463517,
				"element": "C" 
			},
			{
				"x": -2.4381127229,
				"y": -1.3513119799,
				"z": 1.3579038587,
				"element": "C" 
			},
			{
				"x": -3.3986021638,
				"y": -2.2515324382,
				"z": 1.8165270576,
				"element": "C" 
			},
			{
				"x": -4.3310008225,
				"y": -2.7981366149,
				"z": 0.9325657154,
				"element": "C" 
			},
			{
				"x": -4.2913010337,
				"y": -2.4382040599,
				"z": -0.415663811,
				"element": "C" 
			},
			{
				"x": -3.3277855474,
				"y": -1.5411825009,
				"z": -0.8749923713,
				"element": "C" 
			},
			{
				"x": 3.1882673728,
				"y": 2.6874519046,
				"z": 0.0282986376,
				"element": "H" 
			},
			{
				"x": 4.3011703192,
				"y": 1.3546003892,
				"z": 0.4738190504,
				"element": "H" 
			},
			{
				"x": 3.6675267159,
				"y": 1.5306765451,
				"z": -1.1939265558,
				"element": "H" 
			},
			{
				"x": 1.1419611431,
				"y": 3.2354204786,
				"z": -2.5483031305,
				"element": "H" 
			},
			{
				"x": -0.9515788261,
				"y": 2.5362406243,
				"z": -2.7120853881,
				"element": "H" 
			},
			{
				"x": -2.66238564,
				"y": 0.9661294233,
				"z": -1.9024200446,
				"element": "H" 
			},
			{
				"x": 0.2324387589,
				"y": -0.729320167,
				"z": 0.7926846484,
				"element": "H" 
			},
			{
				"x": -1.7339112018,
				"y": -0.9138621844,
				"z": 2.0592818925,
				"element": "H" 
			},
			{
				"x": -3.4236363483,
				"y": -2.5194015134,
				"z": 2.8690620941,
				"element": "H" 
			},
			{
				"x": -5.0800934687,
				"y": -3.4983547886,
				"z": 1.2905977703,
				"element": "H" 
			},
			{
				"x": -5.0052241914,
				"y": -2.8646838537,
				"z": -1.1148327711,
				"element": "H" 
			},
			{
				"x": -3.2885223223,
				"y": -1.2930120695,
				"z": -1.9318586622,
				"element": "H" 
			}
		],
		 "valence_orbital": [ 
			{
				"type": "occ",
				"energy": -0.26542,
				"method": "rhf"
			},
			{
				"type": "occ",
				"energy": -0.25922,
				"method": "rhf"
			},
			{
				"type": "occ",
				"energy": -0.24954,
				"method": "rhf"
			},
			{
				"type": "occ",
				"energy": -0.24204,
				"method": "rhf"
			},
			{
				"type": "occ",
				"energy": -0.21714,
				"method": "rhf"
			},
			{
				"type": "unocc",
				"energy": -0.04967,
				"method": "rhf"
			},
			{
				"type": "unocc",
				"energy": -0.0239,
				"method": "rhf"
			},
			{
				"type": "unocc",
				"energy": -0.00105,
				"method": "rhf"
			},
			{
				"type": "unocc",
				"energy": 0.01969,
				"method": "rhf"
			},
			{
				"type": "unocc",
				"energy": 0.04981,
				"method": "rhf"
			}
		],
		"cosmo_sigma_profile": { 
			"-0.025": 0.0,
			"-0.024": 0.0,
			"-0.023": 0.0,
			"-0.022": 0.0,
			"-0.021": 0.0,
			"-0.02": 0.0,
			"-0.019": 0.0796217884754,
			"-0.018": 0.944120008046,
			"-0.017": 1.55295085793,
			"-0.016": 0.838967032685,
			"-0.015": 0.939998872967,
			"-0.014": 0.884824948501,
			"-0.013": 0.967771925495,
			"-0.012": 1.12138156981,
			"-0.011": 1.41108734521,
			"-0.01": 0.846768660305,
			"-0.009": 1.03492081108,
			"-0.008": 1.34874037269,
			"-0.007": 2.29649400461,
			"-0.006": 8.63183359368,
			"-0.005": 18.5450955842,
			"-0.004": 20.714033121,
			"-0.003": 19.6119001909,
			"-0.002": 17.2305523397,
			"-0.001": 18.4122142695,
			"0.0": 17.2807572992,
			"0.001": 17.7883370802,
			"0.002": 19.3911327439,
			"0.003": 23.9527096566,
			"0.004": 19.3186878123,
			"0.005": 12.8762069281,
			"0.006": 11.3802791047,
			"0.007": 2.28394892444,
			"0.008": 1.05906442112,
			"0.009": 1.60929346374,
			"0.01": 2.1090143484,
			"0.011": 2.64649791986,
			"0.012": 3.87601767497,
			"0.013": 2.15525929459,
			"0.014": 0.4489198871,
			"0.015": 0.0,
			"0.016": 0.0,
			"0.017": 0.0,
			"0.018": 0.0,
			"0.019": 0.0,
			"0.02": 0.0,
			"0.021": 0.0,
			"0.022": 0.0,
			"0.023": 0.0,
			"0.024": 0.0,
			"0.025": 0.0
		}
	}
}
