{
	 "smiles": "BrC1=CNC(=O)C2=C1SC=C2", 
	 "Tm": 503.15, 
	 "num_atms": 15, 
	 "gaussian": { 
		 "optdone": 1, 
		 "sigma_profile": "yes", 
		 "theory": "DFT", 
		 "functional": "B3LYP", 
		 "basiset": "6-31G**", 
		 "properties": { 
			 "R2extent": 3070.6278, 
			 "electric_dipole_moment_norm": 1.74014431873, 
			 "electric_quadrupole_moment_norm": 20.0466449552, 
			 "total_energy": -3368.72538597, 
			 "HOMO_LUMO_gap": 0.16341, 
			 "cosmo_polarized_energy": -12.43, 
			 "cosmo_cavitation_energy": 23.38, 
			 "cosmo_dispersion_energy": -18.55, 
			 "cosmo_repulsion_energy": 1.42, 
			 "cosmo_total_nonelectrostatic_energy": 6.25, 
			 "SMD_solvation_energy": 3.67 
		},
		"coords": [
			{
				"x": -0.0642777795,
				"y": -3.1367916161,
				"z": 1.1970789499,
				"element": "Br" 
			},
			{
				"x": 0.3141384437,
				"y": -1.3023350703,
				"z": 0.8851279664,
				"element": "C" 
			},
			{
				"x": 0.3833794906,
				"y": -0.4215964417,
				"z": 1.9209278905,
				"element": "C" 
			},
			{
				"x": 0.6570988241,
				"y": 0.9034322116,
				"z": 1.6905938452,
				"element": "N" 
			},
			{
				"x": 0.8893564838,
				"y": 1.5006804685,
				"z": 0.4365474807,
				"element": "C" 
			},
			{
				"x": 1.125931947,
				"y": 2.7001457228,
				"z": 0.3495815037,
				"element": "O" 
			},
			{
				"x": 0.8118823383,
				"y": 0.5451544446,
				"z": -0.6603352092,
				"element": "C" 
			},
			{
				"x": 0.5337307746,
				"y": -0.8040319178,
				"z": -0.4311866183,
				"element": "C" 
			},
			{
				"x": 0.5051011861,
				"y": -1.6994300181,
				"z": -1.9220990493,
				"element": "S" 
			},
			{
				"x": 0.8665922939,
				"y": -0.2534539113,
				"z": -2.8353046961,
				"element": "C" 
			},
			{
				"x": 1.000674582,
				"y": 0.8470647234,
				"z": -2.0438783785,
				"element": "C" 
			},
			{
				"x": 0.2297158868,
				"y": -0.7161813159,
				"z": 2.9511150835,
				"element": "H" 
			},
			{
				"x": 0.705362827,
				"y": 1.5462210977,
				"z": 2.4711128931,
				"element": "H" 
			},
			{
				"x": 0.9561123291,
				"y": -0.3194923953,
				"z": -3.9108269476,
				"element": "H" 
			},
			{
				"x": 1.2242003724,
				"y": 1.844014018,
				"z": -2.4022547141,
				"element": "H" 
			}
		],
		 "valence_orbital": [ 
			{
				"type": "occ",
				"energy": -0.30415,
				"method": "rhf"
			},
			{
				"type": "occ",
				"energy": -0.274,
				"method": "rhf"
			},
			{
				"type": "occ",
				"energy": -0.26522,
				"method": "rhf"
			},
			{
				"type": "occ",
				"energy": -0.26085,
				"method": "rhf"
			},
			{
				"type": "occ",
				"energy": -0.21432,
				"method": "rhf"
			},
			{
				"type": "unocc",
				"energy": -0.05091,
				"method": "rhf"
			},
			{
				"type": "unocc",
				"energy": -0.01873,
				"method": "rhf"
			},
			{
				"type": "unocc",
				"energy": -0.00757,
				"method": "rhf"
			},
			{
				"type": "unocc",
				"energy": 0.02567,
				"method": "rhf"
			},
			{
				"type": "unocc",
				"energy": 0.03022,
				"method": "rhf"
			}
		],
		"cosmo_sigma_profile": { 
			"-0.025": 0.0,
			"-0.024": 0.0,
			"-0.023": 0.0,
			"-0.022": 0.0,
			"-0.021": 0.0,
			"-0.02": 0.0,
			"-0.019": 0.0,
			"-0.018": 0.0,
			"-0.017": 0.35182032377,
			"-0.016": 1.58080384125,
			"-0.015": 1.56799867466,
			"-0.014": 1.22036878351,
			"-0.013": 0.991788602605,
			"-0.012": 1.2414612236,
			"-0.011": 2.12918686406,
			"-0.01": 1.95271374461,
			"-0.009": 4.62651819661,
			"-0.008": 4.14431221793,
			"-0.007": 5.40396071262,
			"-0.006": 5.09581760388,
			"-0.005": 6.61582888348,
			"-0.004": 7.23027216826,
			"-0.003": 6.90126138638,
			"-0.002": 10.6892263301,
			"-0.001": 13.1520943165,
			"0.0": 18.4046497127,
			"0.001": 25.589440996,
			"0.002": 23.6767223277,
			"0.003": 19.0615770651,
			"0.004": 11.3466535394,
			"0.005": 2.02249504308,
			"0.006": 1.56348588802,
			"0.007": 1.10683584148,
			"0.008": 0.910098870599,
			"0.009": 1.39020964308,
			"0.01": 1.1956400597,
			"0.011": 1.54221599073,
			"0.012": 1.88273699792,
			"0.013": 4.583096395,
			"0.014": 4.67756946398,
			"0.015": 0.135043038692,
			"0.016": 0.0,
			"0.017": 0.0,
			"0.018": 0.0,
			"0.019": 0.0,
			"0.02": 0.0,
			"0.021": 0.0,
			"0.022": 0.0,
			"0.023": 0.0,
			"0.024": 0.0,
			"0.025": 0.0
		}
	}
}
