{
	 "smiles": "COC(=O)CCCCCCCCC=C", 
	 "Tm": 245.65, 
	 "num_atms": 36, 
	 "gaussian": { 
		 "optdone": 1, 
		 "sigma_profile": "yes", 
		 "theory": "DFT", 
		 "functional": "B3LYP", 
		 "basiset": "6-31G**", 
		 "properties": { 
			 "R2extent": 5117.873, 
			 "electric_dipole_moment_norm": 1.78957958471, 
			 "electric_quadrupole_moment_norm": 9.22502564603, 
			 "total_energy": -620.983723907, 
			 "HOMO_LUMO_gap": 0.26054, 
			 "cosmo_polarized_energy": -7.48, 
			 "cosmo_cavitation_energy": 37.59, 
			 "cosmo_dispersion_energy": -25.19, 
			 "cosmo_repulsion_energy": 2.06, 
			 "cosmo_total_nonelectrostatic_energy": 14.46, 
			 "SMD_solvation_energy": 7.46 
		},
		"coords": [
			{
				"x": 1.5153428183,
				"y": 1.322544205,
				"z": -4.6941791485,
				"element": "C" 
			},
			{
				"x": 2.1712357653,
				"y": 1.7102439568,
				"z": -3.4764317529,
				"element": "O" 
			},
			{
				"x": 1.4009456377,
				"y": 2.3932009183,
				"z": -2.5959486716,
				"element": "C" 
			},
			{
				"x": 0.2403766053,
				"y": 2.675466401,
				"z": -2.8091382672,
				"element": "O" 
			},
			{
				"x": 2.1651729046,
				"y": 2.7086909232,
				"z": -1.3284149495,
				"element": "C" 
			},
			{
				"x": 2.3283359629,
				"y": 1.470205562,
				"z": -0.4171918884,
				"element": "C" 
			},
			{
				"x": 1.017932187,
				"y": 0.7762566855,
				"z": -0.00687738,
				"element": "C" 
			},
			{
				"x": 0.0314317467,
				"y": 1.6735892062,
				"z": 0.7536767043,
				"element": "C" 
			},
			{
				"x": -1.2486974416,
				"y": 0.96804891,
				"z": 1.2381176528,
				"element": "C" 
			},
			{
				"x": -1.0231069476,
				"y": -0.150272442,
				"z": 2.2865656931,
				"element": "C" 
			},
			{
				"x": -0.9885323042,
				"y": -1.5939930233,
				"z": 1.73908305,
				"element": "C" 
			},
			{
				"x": -2.3641359237,
				"y": -2.2941351532,
				"z": 1.6328728163,
				"element": "C" 
			},
			{
				"x": -3.3615477665,
				"y": -1.6356389454,
				"z": 0.7170890222,
				"element": "C" 
			},
			{
				"x": -3.8102797507,
				"y": -2.157967656,
				"z": -0.4255480144,
				"element": "C" 
			},
			{
				"x": 0.6587481742,
				"y": 0.6771477857,
				"z": -4.4833378956,
				"element": "H" 
			},
			{
				"x": 2.2648681156,
				"y": 0.7858441738,
				"z": -5.2759500029,
				"element": "H" 
			},
			{
				"x": 1.164310869,
				"y": 2.2020476116,
				"z": -5.239995051,
				"element": "H" 
			},
			{
				"x": 3.1573548866,
				"y": 3.086110108,
				"z": -1.5965689932,
				"element": "H" 
			},
			{
				"x": 1.6220048933,
				"y": 3.5041643143,
				"z": -0.8140846612,
				"element": "H" 
			},
			{
				"x": 2.8691413647,
				"y": 1.7890159884,
				"z": 0.4830148788,
				"element": "H" 
			},
			{
				"x": 2.973212978,
				"y": 0.7463885205,
				"z": -0.9285006613,
				"element": "H" 
			},
			{
				"x": 1.2835382056,
				"y": -0.090891894,
				"z": 0.6100254321,
				"element": "H" 
			},
			{
				"x": 0.5188527622,
				"y": 0.3730172677,
				"z": -0.8987423406,
				"element": "H" 
			},
			{
				"x": -0.2648541696,
				"y": 2.5057393477,
				"z": 0.104404635,
				"element": "H" 
			},
			{
				"x": 0.5432065679,
				"y": 2.1185809559,
				"z": 1.6203865958,
				"element": "H" 
			},
			{
				"x": -1.9066472311,
				"y": 1.7349994318,
				"z": 1.6653382094,
				"element": "H" 
			},
			{
				"x": -1.7839222988,
				"y": 0.5647259729,
				"z": 0.3701684482,
				"element": "H" 
			},
			{
				"x": -1.8023299362,
				"y": -0.0937321406,
				"z": 3.0583205981,
				"element": "H" 
			},
			{
				"x": -0.0817792515,
				"y": 0.053203156,
				"z": 2.8141695878,
				"element": "H" 
			},
			{
				"x": -0.5052408412,
				"y": -1.6108336713,
				"z": 0.7551783027,
				"element": "H" 
			},
			{
				"x": -0.3649945697,
				"y": -2.2111245833,
				"z": 2.3986349246,
				"element": "H" 
			},
			{
				"x": -2.793812586,
				"y": -2.3519977089,
				"z": 2.6442390083,
				"element": "H" 
			},
			{
				"x": -2.2052120416,
				"y": -3.3280694947,
				"z": 1.3023094413,
				"element": "H" 
			},
			{
				"x": -3.738953567,
				"y": -0.6622695623,
				"z": 1.0304400177,
				"element": "H" 
			},
			{
				"x": -4.5324861988,
				"y": -1.6385606693,
				"z": -1.0487516132,
				"element": "H" 
			},
			{
				"x": -3.4713796192,
				"y": -3.1294444579,
				"z": -0.779473727,
				"element": "H" 
			}
		],
		 "valence_orbital": [ 
			{
				"type": "occ",
				"energy": -0.3054,
				"method": "rhf"
			},
			{
				"type": "occ",
				"energy": -0.3003,
				"method": "rhf"
			},
			{
				"type": "occ",
				"energy": -0.2963,
				"method": "rhf"
			},
			{
				"type": "occ",
				"energy": -0.26417,
				"method": "rhf"
			},
			{
				"type": "occ",
				"energy": -0.24698,
				"method": "rhf"
			},
			{
				"type": "unocc",
				"energy": 0.01356,
				"method": "rhf"
			},
			{
				"type": "unocc",
				"energy": 0.0242,
				"method": "rhf"
			},
			{
				"type": "unocc",
				"energy": 0.08824,
				"method": "rhf"
			},
			{
				"type": "unocc",
				"energy": 0.10172,
				"method": "rhf"
			},
			{
				"type": "unocc",
				"energy": 0.11274,
				"method": "rhf"
			}
		],
		"cosmo_sigma_profile": { 
			"-0.025": 0.0,
			"-0.024": 0.0,
			"-0.023": 0.0,
			"-0.022": 0.0,
			"-0.021": 0.0,
			"-0.02": 0.0,
			"-0.019": 0.0,
			"-0.018": 0.0,
			"-0.017": 0.0,
			"-0.016": 0.0,
			"-0.015": 0.0,
			"-0.014": 0.0,
			"-0.013": 0.0,
			"-0.012": 0.0,
			"-0.011": 0.0,
			"-0.01": 0.0,
			"-0.009": 0.0,
			"-0.008": 0.0,
			"-0.007": 0.277818656183,
			"-0.006": 3.77641144926,
			"-0.005": 9.35304027254,
			"-0.004": 16.2480569225,
			"-0.003": 28.761615486,
			"-0.002": 47.5085354129,
			"-0.001": 54.8103996574,
			"0.0": 41.5493230042,
			"0.001": 27.0393752209,
			"0.002": 11.6568526438,
			"0.003": 9.23471140221,
			"0.004": 8.20804342018,
			"0.005": 6.60471942922,
			"0.006": 5.40436485954,
			"0.007": 5.64159195977,
			"0.008": 2.33335157758,
			"0.009": 2.62164087056,
			"0.01": 1.68292190024,
			"0.011": 2.36480977554,
			"0.012": 4.34541385389,
			"0.013": 1.62576464646,
			"0.014": 0.0,
			"0.015": 0.0,
			"0.016": 0.0,
			"0.017": 0.0,
			"0.018": 0.0,
			"0.019": 0.0,
			"0.02": 0.0,
			"0.021": 0.0,
			"0.022": 0.0,
			"0.023": 0.0,
			"0.024": 0.0,
			"0.025": 0.0
		}
	}
}
