{
	 "smiles": "CCCC1=CC=C(C=C1)C(O)=O", 
	 "Tm": 415.15, 
	 "num_atms": 24, 
	 "gaussian": { 
		 "optdone": 1, 
		 "sigma_profile": "yes", 
		 "theory": "DFT", 
		 "functional": "B3LYP", 
		 "basiset": "6-31G**", 
		 "properties": { 
			 "R2extent": 3187.7682, 
			 "electric_dipole_moment_norm": 5.29574042604, 
			 "electric_quadrupole_moment_norm": 17.3965976096, 
			 "total_energy": -538.767444234, 
			 "HOMO_LUMO_gap": 0.20815, 
			 "cosmo_polarized_energy": -13.36, 
			 "cosmo_cavitation_energy": 27.45, 
			 "cosmo_dispersion_energy": -19.69, 
			 "cosmo_repulsion_energy": 1.58, 
			 "cosmo_total_nonelectrostatic_energy": 9.34, 
			 "SMD_solvation_energy": 5.64 
		},
		"coords": [
			{
				"x": -2.9686805809,
				"y": -1.1518184189,
				"z": -1.3477117881,
				"element": "C" 
			},
			{
				"x": -3.3371290218,
				"y": -0.8492937241,
				"z": 0.1074588234,
				"element": "C" 
			},
			{
				"x": -2.1496972344,
				"y": -0.9515852903,
				"z": 1.0920869307,
				"element": "C" 
			},
			{
				"x": -1.0702575568,
				"y": 0.0837469201,
				"z": 0.8607807024,
				"element": "C" 
			},
			{
				"x": -1.2544067956,
				"y": 1.4092558837,
				"z": 1.2821083305,
				"element": "C" 
			},
			{
				"x": -0.2811663834,
				"y": 2.3781578538,
				"z": 1.0524582288,
				"element": "C" 
			},
			{
				"x": 0.911613436,
				"y": 2.0448915943,
				"z": 0.3934318095,
				"element": "C" 
			},
			{
				"x": 1.1137270897,
				"y": 0.718305824,
				"z": -0.0077980934,
				"element": "C" 
			},
			{
				"x": 0.1325635294,
				"y": -0.2427676297,
				"z": 0.2165819644,
				"element": "C" 
			},
			{
				"x": 2.007932222,
				"y": 3.0300905426,
				"z": 0.1275875398,
				"element": "C" 
			},
			{
				"x": 1.66659954,
				"y": 4.3480560502,
				"z": 0.1507260997,
				"element": "O" 
			},
			{
				"x": 3.150542231,
				"y": 2.709328266,
				"z": -0.1026663121,
				"element": "O" 
			},
			{
				"x": -3.8456341855,
				"y": -1.0747169906,
				"z": -1.99827213,
				"element": "H" 
			},
			{
				"x": -2.2119897639,
				"y": -0.4559756373,
				"z": -1.7236821683,
				"element": "H" 
			},
			{
				"x": -2.5672797644,
				"y": -2.1666785696,
				"z": -1.4508879874,
				"element": "H" 
			},
			{
				"x": -4.1169033374,
				"y": -1.5455815636,
				"z": 0.440170593,
				"element": "H" 
			},
			{
				"x": -3.7726889391,
				"y": 0.1558065275,
				"z": 0.176789077,
				"element": "H" 
			},
			{
				"x": -1.7131228325,
				"y": -1.9553528343,
				"z": 1.0239310814,
				"element": "H" 
			},
			{
				"x": -2.5334972132,
				"y": -0.8460348055,
				"z": 2.1143014085,
				"element": "H" 
			},
			{
				"x": -2.1655820726,
				"y": 1.6814883088,
				"z": 1.8088748731,
				"element": "H" 
			},
			{
				"x": -0.4448280143,
				"y": 3.3836234925,
				"z": 1.4342332781,
				"element": "H" 
			},
			{
				"x": 2.049448676,
				"y": 0.4631102024,
				"z": -0.493647113,
				"element": "H" 
			},
			{
				"x": 0.3026070918,
				"y": -1.2667176764,
				"z": -0.1054693155,
				"element": "H" 
			},
			{
				"x": 0.7046298798,
				"y": 4.4414616743,
				"z": 0.1822141673,
				"element": "H" 
			}
		],
		 "valence_orbital": [ 
			{
				"type": "occ",
				"energy": -0.33665,
				"method": "rhf"
			},
			{
				"type": "occ",
				"energy": -0.31218,
				"method": "rhf"
			},
			{
				"type": "occ",
				"energy": -0.27207,
				"method": "rhf"
			},
			{
				"type": "occ",
				"energy": -0.26809,
				"method": "rhf"
			},
			{
				"type": "occ",
				"energy": -0.25584,
				"method": "rhf"
			},
			{
				"type": "unocc",
				"energy": -0.04769,
				"method": "rhf"
			},
			{
				"type": "unocc",
				"energy": -0.02031,
				"method": "rhf"
			},
			{
				"type": "unocc",
				"energy": 0.04822,
				"method": "rhf"
			},
			{
				"type": "unocc",
				"energy": 0.06444,
				"method": "rhf"
			},
			{
				"type": "unocc",
				"energy": 0.08518,
				"method": "rhf"
			}
		],
		"cosmo_sigma_profile": { 
			"-0.025": 0.0,
			"-0.024": 0.0,
			"-0.023": 0.0,
			"-0.022": 0.0,
			"-0.021": 0.0,
			"-0.02": 0.0,
			"-0.019": 0.0737375249141,
			"-0.018": 0.531615751622,
			"-0.017": 1.0876455571,
			"-0.016": 1.11031160487,
			"-0.015": 1.00052511367,
			"-0.014": 0.674470623077,
			"-0.013": 1.08251030651,
			"-0.012": 0.947066531372,
			"-0.011": 1.42679590982,
			"-0.01": 1.04568616461,
			"-0.009": 0.955442851003,
			"-0.008": 1.70631467894,
			"-0.007": 1.91124238245,
			"-0.006": 6.28247141843,
			"-0.005": 9.19230819264,
			"-0.004": 12.9066015715,
			"-0.003": 17.7604892591,
			"-0.002": 22.8044198578,
			"-0.001": 23.0588295625,
			"0.0": 23.9302883916,
			"0.001": 21.7643321588,
			"0.002": 12.8780652569,
			"0.003": 12.1055919737,
			"0.004": 9.68792510505,
			"0.005": 2.63136103147,
			"0.006": 2.43199754203,
			"0.007": 2.16992216352,
			"0.008": 2.56761014167,
			"0.009": 3.53063691492,
			"0.01": 4.09589358355,
			"0.011": 5.44398509144,
			"0.012": 5.52722178183,
			"0.013": 2.00980711531,
			"0.014": 0.190815389392,
			"0.015": 0.0,
			"0.016": 0.0,
			"0.017": 0.0,
			"0.018": 0.0,
			"0.019": 0.0,
			"0.02": 0.0,
			"0.021": 0.0,
			"0.022": 0.0,
			"0.023": 0.0,
			"0.024": 0.0,
			"0.025": 0.0
		}
	}
}
