{
	 "smiles": "ClC1=CC=CC2=C(C#CC3=CC=CC=C3)C3=CC=CC(Cl)=C3C(C#CC3=CC=CC=C3)=C12", 
	 "Tm": 441.15, 
	 "num_atms": 48, 
	 "gaussian": { 
		 "optdone": 1, 
		 "sigma_profile": "yes", 
		 "theory": "DFT", 
		 "functional": "B3LYP", 
		 "basiset": "6-31G**", 
		 "properties": { 
			 "R2extent": 20870.1268, 
			 "electric_dipole_moment_norm": 3.24637662171, 
			 "electric_quadrupole_moment_norm": 29.5547331906, 
			 "total_energy": -2073.11183047, 
			 "HOMO_LUMO_gap": 0.08851, 
			 "cosmo_polarized_energy": -11.58, 
			 "cosmo_cavitation_energy": 58.09, 
			 "cosmo_dispersion_energy": -39.86, 
			 "cosmo_repulsion_energy": 2.91, 
			 "cosmo_total_nonelectrostatic_energy": 21.13, 
			 "SMD_solvation_energy": 8.47 
		},
		"coords": [
			{
				"x": 2.49995418,
				"y": -1.3190316534,
				"z": 3.3200143356,
				"element": "Cl" 
			},
			{
				"x": 0.8553784867,
				"y": -0.8112530386,
				"z": 2.9521524884,
				"element": "C" 
			},
			{
				"x": -0.0494846112,
				"y": -0.9769193043,
				"z": 3.9739911273,
				"element": "C" 
			},
			{
				"x": -1.4266441555,
				"y": -0.7440632162,
				"z": 3.7594030677,
				"element": "C" 
			},
			{
				"x": -1.8720741831,
				"y": -0.403521387,
				"z": 2.5114674228,
				"element": "C" 
			},
			{
				"x": -0.9645152689,
				"y": -0.2331355339,
				"z": 1.4266773384,
				"element": "C" 
			},
			{
				"x": -1.4568344032,
				"y": 0.1054305755,
				"z": 0.1359011231,
				"element": "C" 
			},
			{
				"x": -2.8420379754,
				"y": 0.3442340446,
				"z": -0.0490096373,
				"element": "C" 
			},
			{
				"x": -4.0328898826,
				"y": 0.5538929904,
				"z": -0.2071354806,
				"element": "C" 
			},
			{
				"x": -5.4221369767,
				"y": 0.8016526949,
				"z": -0.391004364,
				"element": "C" 
			},
			{
				"x": -5.9303163128,
				"y": 1.13326141,
				"z": -1.6646432342,
				"element": "C" 
			},
			{
				"x": -7.2896271391,
				"y": 1.3750395759,
				"z": -1.8391362696,
				"element": "C" 
			},
			{
				"x": -8.1662474627,
				"y": 1.2918377164,
				"z": -0.7540262047,
				"element": "C" 
			},
			{
				"x": -7.6740454775,
				"y": 0.9643676432,
				"z": 0.5122052275,
				"element": "C" 
			},
			{
				"x": -6.3164378836,
				"y": 0.7207773697,
				"z": 0.6971368088,
				"element": "C" 
			},
			{
				"x": -0.572780792,
				"y": 0.1785420324,
				"z": -0.9759453573,
				"element": "C" 
			},
			{
				"x": -1.0906765052,
				"y": 0.4175771484,
				"z": -2.2813623629,
				"element": "C" 
			},
			{
				"x": -0.2642780786,
				"y": 0.4775500046,
				"z": -3.3700292271,
				"element": "C" 
			},
			{
				"x": 1.1221663261,
				"y": 0.2546554455,
				"z": -3.2121486223,
				"element": "C" 
			},
			{
				"x": 1.657181811,
				"y": 0.0316299428,
				"z": -1.9653939601,
				"element": "C" 
			},
			{
				"x": 3.3594885412,
				"y": -0.415353607,
				"z": -1.9513096302,
				"element": "Cl" 
			},
			{
				"x": 0.8500102594,
				"y": 0.0356709404,
				"z": -0.77350587,
				"element": "C" 
			},
			{
				"x": 1.3556649519,
				"y": -0.0696160987,
				"z": 0.5644732904,
				"element": "C" 
			},
			{
				"x": 2.6807891646,
				"y": 0.3318849097,
				"z": 0.8493528441,
				"element": "C" 
			},
			{
				"x": 3.7563031226,
				"y": 0.8407962423,
				"z": 1.1118673474,
				"element": "C" 
			},
			{
				"x": 5.028237328,
				"y": 1.3941403691,
				"z": 1.4140849973,
				"element": "C" 
			},
			{
				"x": 5.8627625765,
				"y": 1.8767749024,
				"z": 0.3832450873,
				"element": "C" 
			},
			{
				"x": 7.1085838584,
				"y": 2.417958189,
				"z": 0.685619642,
				"element": "C" 
			},
			{
				"x": 7.543892502,
				"y": 2.48953357,
				"z": 2.0120399049,
				"element": "C" 
			},
			{
				"x": 6.7243921527,
				"y": 2.014961647,
				"z": 3.0402448266,
				"element": "C" 
			},
			{
				"x": 5.4765861788,
				"y": 1.4716544684,
				"z": 2.7501082746,
				"element": "C" 
			},
			{
				"x": 0.4566996323,
				"y": -0.377742193,
				"z": 1.6386672719,
				"element": "C" 
			},
			{
				"x": 0.3024331114,
				"y": -1.32326833,
				"z": 4.9389866572,
				"element": "H" 
			},
			{
				"x": -2.1247725512,
				"y": -0.8740844787,
				"z": 4.5804254582,
				"element": "H" 
			},
			{
				"x": -2.9291483829,
				"y": -0.2675781303,
				"z": 2.3177379936,
				"element": "H" 
			},
			{
				"x": -5.2485670308,
				"y": 1.1982834513,
				"z": -2.5065340146,
				"element": "H" 
			},
			{
				"x": -7.6671660627,
				"y": 1.6294775488,
				"z": -2.8252101892,
				"element": "H" 
			},
			{
				"x": -9.2263124227,
				"y": 1.4811475936,
				"z": -0.8942698837,
				"element": "H" 
			},
			{
				"x": -8.3512145327,
				"y": 0.8986817313,
				"z": 1.358813039,
				"element": "H" 
			},
			{
				"x": -5.9330828969,
				"y": 0.4669714807,
				"z": 1.6801988481,
				"element": "H" 
			},
			{
				"x": -2.16157264,
				"y": 0.538802572,
				"z": -2.3904888377,
				"element": "H" 
			},
			{
				"x": -0.6668623009,
				"y": 0.6580469824,
				"z": -4.3618515162,
				"element": "H" 
			},
			{
				"x": 1.7727028928,
				"y": 0.2222462951,
				"z": -4.0786184893,
				"element": "H" 
			},
			{
				"x": 5.518818194,
				"y": 1.816989791,
				"z": -0.644102146,
				"element": "H" 
			},
			{
				"x": 7.7433394599,
				"y": 2.7858542421,
				"z": -0.1153817771,
				"element": "H" 
			},
			{
				"x": 8.5168762536,
				"y": 2.9131938461,
				"z": 2.243305284,
				"element": "H" 
			},
			{
				"x": 7.0601190376,
				"y": 2.0691889131,
				"z": 4.0718505354,
				"element": "H" 
			},
			{
				"x": 4.8356459071,
				"y": 1.100258691,
				"z": 3.5429368324,
				"element": "H" 
			}
		],
		 "valence_orbital": [ 
			{
				"type": "occ",
				"energy": -0.2516,
				"method": "rhf"
			},
			{
				"type": "occ",
				"energy": -0.24473,
				"method": "rhf"
			},
			{
				"type": "occ",
				"energy": -0.23947,
				"method": "rhf"
			},
			{
				"type": "occ",
				"energy": -0.23436,
				"method": "rhf"
			},
			{
				"type": "occ",
				"energy": -0.18498,
				"method": "rhf"
			},
			{
				"type": "unocc",
				"energy": -0.09647,
				"method": "rhf"
			},
			{
				"type": "unocc",
				"energy": -0.03416,
				"method": "rhf"
			},
			{
				"type": "unocc",
				"energy": -0.02901,
				"method": "rhf"
			},
			{
				"type": "unocc",
				"energy": -0.02485,
				"method": "rhf"
			},
			{
				"type": "unocc",
				"energy": -0.01093,
				"method": "rhf"
			}
		],
		"cosmo_sigma_profile": { 
			"-0.025": 0.0,
			"-0.024": 0.0,
			"-0.023": 0.0,
			"-0.022": 0.0,
			"-0.021": 0.0,
			"-0.02": 0.0,
			"-0.019": 0.0,
			"-0.018": 0.0,
			"-0.017": 0.0,
			"-0.016": 0.0,
			"-0.015": 0.0,
			"-0.014": 0.0,
			"-0.013": 0.0,
			"-0.012": 0.0,
			"-0.011": 0.0,
			"-0.01": 0.0,
			"-0.009": 0.0,
			"-0.008": 1.05667090575,
			"-0.007": 9.24107052559,
			"-0.006": 27.2705971086,
			"-0.005": 33.1653295679,
			"-0.004": 30.8599453473,
			"-0.003": 26.2812483876,
			"-0.002": 25.8650716917,
			"-0.001": 27.0631902197,
			"0.0": 38.4589220483,
			"0.001": 65.5776704428,
			"0.002": 60.8784920355,
			"0.003": 55.8719626294,
			"0.004": 47.3902635382,
			"0.005": 22.5856688756,
			"0.006": 2.85585473994,
			"0.007": 0.817130567226,
			"0.008": 0.0,
			"0.009": 0.0,
			"0.01": 0.0,
			"0.011": 0.0,
			"0.012": 0.0,
			"0.013": 0.0,
			"0.014": 0.0,
			"0.015": 0.0,
			"0.016": 0.0,
			"0.017": 0.0,
			"0.018": 0.0,
			"0.019": 0.0,
			"0.02": 0.0,
			"0.021": 0.0,
			"0.022": 0.0,
			"0.023": 0.0,
			"0.024": 0.0,
			"0.025": 0.0
		}
	}
}
