{
	 "smiles": "NC(=S)NC1=CC=CC(Cl)=C1", 
	 "Tm": 411.15, 
	 "num_atms": 18, 
	 "gaussian": { 
		 "optdone": 1, 
		 "sigma_profile": "yes", 
		 "theory": "DFT", 
		 "functional": "B3LYP", 
		 "basiset": "6-31G**", 
		 "properties": { 
			 "R2extent": 3197.0558, 
			 "electric_dipole_moment_norm": 3.99481419593, 
			 "electric_quadrupole_moment_norm": 22.4373596283, 
			 "total_energy": -1238.85886406, 
			 "HOMO_LUMO_gap": 0.17604, 
			 "cosmo_polarized_energy": -19.14, 
			 "cosmo_cavitation_energy": 25.78, 
			 "cosmo_dispersion_energy": -19.77, 
			 "cosmo_repulsion_energy": 1.56, 
			 "cosmo_total_nonelectrostatic_energy": 7.56, 
			 "SMD_solvation_energy": 3.33 
		},
		"coords": [
			{
				"x": -0.8261985768,
				"y": 0.2256096931,
				"z": -3.6076962642,
				"element": "N" 
			},
			{
				"x": -1.2148366181,
				"y": 0.5135215145,
				"z": -2.3217842022,
				"element": "C" 
			},
			{
				"x": -2.7245262435,
				"y": 1.1624620705,
				"z": -2.0086133693,
				"element": "S" 
			},
			{
				"x": -0.2150078409,
				"y": 0.2564741724,
				"z": -1.4159532149,
				"element": "N" 
			},
			{
				"x": -0.1771229787,
				"y": 0.3660211928,
				"z": -0.0080961295,
				"element": "C" 
			},
			{
				"x": -1.3052520214,
				"y": 0.2645923343,
				"z": 0.8170174728,
				"element": "C" 
			},
			{
				"x": -1.1463721612,
				"y": 0.3387952298,
				"z": 2.1998995594,
				"element": "C" 
			},
			{
				"x": 0.108357332,
				"y": 0.4996356473,
				"z": 2.7884886854,
				"element": "C" 
			},
			{
				"x": 1.2185790939,
				"y": 0.5874032059,
				"z": 1.951403257,
				"element": "C" 
			},
			{
				"x": 2.8207561664,
				"y": 0.7861013373,
				"z": 2.6492736752,
				"element": "Cl" 
			},
			{
				"x": 1.0931094742,
				"y": 0.5270412591,
				"z": 0.5677055243,
				"element": "C" 
			},
			{
				"x": -1.5592173486,
				"y": 0.3082697585,
				"z": -4.2961521652,
				"element": "H" 
			},
			{
				"x": -0.1461170395,
				"y": -0.5050586141,
				"z": -3.7738580572,
				"element": "H" 
			},
			{
				"x": 0.6984619029,
				"y": 0.1153869112,
				"z": -1.8284507171,
				"element": "H" 
			},
			{
				"x": -2.2849857585,
				"y": 0.1423956528,
				"z": 0.3787803169,
				"element": "H" 
			},
			{
				"x": -2.0243512994,
				"y": 0.2629990606,
				"z": 2.8342533995,
				"element": "H" 
			},
			{
				"x": 0.225641995,
				"y": 0.5537471443,
				"z": 3.8644522435,
				"element": "H" 
			},
			{
				"x": 1.9771819222,
				"y": 0.6114024296,
				"z": -0.0569700147,
				"element": "H" 
			}
		],
		 "valence_orbital": [ 
			{
				"type": "occ",
				"energy": -0.30972,
				"method": "rhf"
			},
			{
				"type": "occ",
				"energy": -0.2574,
				"method": "rhf"
			},
			{
				"type": "occ",
				"energy": -0.24547,
				"method": "rhf"
			},
			{
				"type": "occ",
				"energy": -0.22309,
				"method": "rhf"
			},
			{
				"type": "occ",
				"energy": -0.21334,
				"method": "rhf"
			},
			{
				"type": "unocc",
				"energy": -0.0373,
				"method": "rhf"
			},
			{
				"type": "unocc",
				"energy": -0.0167,
				"method": "rhf"
			},
			{
				"type": "unocc",
				"energy": 0.01139,
				"method": "rhf"
			},
			{
				"type": "unocc",
				"energy": 0.02343,
				"method": "rhf"
			},
			{
				"type": "unocc",
				"energy": 0.04598,
				"method": "rhf"
			}
		],
		"cosmo_sigma_profile": { 
			"-0.025": 0.0,
			"-0.024": 0.0,
			"-0.023": 0.0,
			"-0.022": 0.0,
			"-0.021": 0.0,
			"-0.02": 0.0,
			"-0.019": 0.00378818427358,
			"-0.018": 0.723342856419,
			"-0.017": 1.75128582311,
			"-0.016": 2.10335590047,
			"-0.015": 2.55715951565,
			"-0.014": 3.11170862616,
			"-0.013": 3.26907095243,
			"-0.012": 3.0664313759,
			"-0.011": 3.38798206848,
			"-0.01": 2.71678677217,
			"-0.009": 2.88462216026,
			"-0.008": 2.53189104547,
			"-0.007": 5.29664058216,
			"-0.006": 6.12238932126,
			"-0.005": 7.68877665935,
			"-0.004": 7.45011394683,
			"-0.003": 7.53961774342,
			"-0.002": 8.43414863342,
			"-0.001": 9.54320859814,
			"0.0": 12.3958910194,
			"0.001": 15.2895097896,
			"0.002": 17.5812964687,
			"0.003": 21.2939217943,
			"0.004": 19.3720892575,
			"0.005": 12.3021817848,
			"0.006": 5.10425494988,
			"0.007": 5.37737660754,
			"0.008": 5.68134196664,
			"0.009": 4.4234552989,
			"0.01": 6.63342984381,
			"0.011": 4.16722128089,
			"0.012": 1.25404577865,
			"0.013": 0.0,
			"0.014": 0.0,
			"0.015": 0.0,
			"0.016": 0.0,
			"0.017": 0.0,
			"0.018": 0.0,
			"0.019": 0.0,
			"0.02": 0.0,
			"0.021": 0.0,
			"0.022": 0.0,
			"0.023": 0.0,
			"0.024": 0.0,
			"0.025": 0.0
		}
	}
}
