{
	 "smiles": "OC(=O)C1CCCN2C(=O)NN=C12", 
	 "Tm": 395.15, 
	 "num_atms": 22, 
	 "gaussian": { 
		 "optdone": 1, 
		 "sigma_profile": "yes", 
		 "theory": "DFT", 
		 "functional": "B3LYP", 
		 "basiset": "6-31G**", 
		 "properties": { 
			 "R2extent": 3008.4512, 
			 "electric_dipole_moment_norm": 3.05168606184, 
			 "electric_quadrupole_moment_norm": 16.794419764, 
			 "total_energy": -662.115720368, 
			 "HOMO_LUMO_gap": 0.21517, 
			 "cosmo_polarized_energy": -19.89, 
			 "cosmo_cavitation_energy": 25.69, 
			 "cosmo_dispersion_energy": -18.99, 
			 "cosmo_repulsion_energy": 1.54, 
			 "cosmo_total_nonelectrostatic_energy": 8.23, 
			 "SMD_solvation_energy": 4.86 
		},
		"coords": [
			{
				"x": -2.7208251555,
				"y": -1.8609585898,
				"z": -0.0477072989,
				"element": "O" 
			},
			{
				"x": -1.8500386526,
				"y": -2.0893620399,
				"z": -1.0573252173,
				"element": "C" 
			},
			{
				"x": -2.1287772851,
				"y": -2.7384239265,
				"z": -2.0381111714,
				"element": "O" 
			},
			{
				"x": -0.5156488353,
				"y": -1.3884745061,
				"z": -0.8289307934,
				"element": "C" 
			},
			{
				"x": -0.676772388,
				"y": 0.1538131205,
				"z": -0.81155428,
				"element": "C" 
			},
			{
				"x": 0.6249681776,
				"y": 0.8377673094,
				"z": -0.3663082519,
				"element": "C" 
			},
			{
				"x": 0.976770933,
				"y": 0.4603611647,
				"z": 1.0752439924,
				"element": "C" 
			},
			{
				"x": 0.8689726043,
				"y": -0.9835022025,
				"z": 1.2343840153,
				"element": "N" 
			},
			{
				"x": 1.4175487927,
				"y": -1.7117790982,
				"z": 2.3006180107,
				"element": "C" 
			},
			{
				"x": 2.1016275397,
				"y": -1.2934171528,
				"z": 3.2215134053,
				"element": "O" 
			},
			{
				"x": 0.9789134724,
				"y": -2.9875779526,
				"z": 2.0134065793,
				"element": "N" 
			},
			{
				"x": 0.2067383487,
				"y": -3.0750490111,
				"z": 0.8730612197,
				"element": "N" 
			},
			{
				"x": 0.1571410274,
				"y": -1.8507524308,
				"z": 0.4354724756,
				"element": "C" 
			},
			{
				"x": -3.5348185912,
				"y": -2.3405964221,
				"z": -0.2756175543,
				"element": "H" 
			},
			{
				"x": 0.1097178889,
				"y": -1.6713991298,
				"z": -1.6826738068,
				"element": "H" 
			},
			{
				"x": -0.9670708251,
				"y": 0.4909938905,
				"z": -1.8110537078,
				"element": "H" 
			},
			{
				"x": -1.4892877265,
				"y": 0.4236198369,
				"z": -0.1275583177,
				"element": "H" 
			},
			{
				"x": 0.5224561953,
				"y": 1.9253364794,
				"z": -0.4335924727,
				"element": "H" 
			},
			{
				"x": 1.444425359,
				"y": 0.5493333532,
				"z": -1.0364502934,
				"element": "H" 
			},
			{
				"x": 1.9936324783,
				"y": 0.7563684834,
				"z": 1.3471399381,
				"element": "H" 
			},
			{
				"x": 0.2932473011,
				"y": 0.9530576566,
				"z": 1.7786989324,
				"element": "H" 
			},
			{
				"x": 1.165779341,
				"y": -3.8084588324,
				"z": 2.5652445968,
				"element": "H" 
			}
		],
		 "valence_orbital": [ 
			{
				"type": "occ",
				"energy": -0.32473,
				"method": "rhf"
			},
			{
				"type": "occ",
				"energy": -0.3036,
				"method": "rhf"
			},
			{
				"type": "occ",
				"energy": -0.28479,
				"method": "rhf"
			},
			{
				"type": "occ",
				"energy": -0.25986,
				"method": "rhf"
			},
			{
				"type": "occ",
				"energy": -0.22014,
				"method": "rhf"
			},
			{
				"type": "unocc",
				"energy": -0.00497,
				"method": "rhf"
			},
			{
				"type": "unocc",
				"energy": 0.01141,
				"method": "rhf"
			},
			{
				"type": "unocc",
				"energy": 0.05626,
				"method": "rhf"
			},
			{
				"type": "unocc",
				"energy": 0.06585,
				"method": "rhf"
			},
			{
				"type": "unocc",
				"energy": 0.08191,
				"method": "rhf"
			}
		],
		"cosmo_sigma_profile": { 
			"-0.025": 0.0,
			"-0.024": 0.0,
			"-0.023": 0.0,
			"-0.022": 0.0,
			"-0.021": 0.0,
			"-0.02": 0.0,
			"-0.019": 0.267134391767,
			"-0.018": 0.930759372429,
			"-0.017": 1.35005717516,
			"-0.016": 2.23095828293,
			"-0.015": 2.28399776993,
			"-0.014": 1.43002383754,
			"-0.013": 1.17366018197,
			"-0.012": 1.21877780286,
			"-0.011": 2.00739672769,
			"-0.01": 1.5967387763,
			"-0.009": 0.993173497612,
			"-0.008": 1.62708626892,
			"-0.007": 5.14477251391,
			"-0.006": 12.5357096543,
			"-0.005": 20.5875808159,
			"-0.004": 19.6161772153,
			"-0.003": 16.1247354763,
			"-0.002": 14.5074228037,
			"-0.001": 8.80828162204,
			"0.0": 7.47177990593,
			"0.001": 6.69798539016,
			"0.002": 7.10957644091,
			"0.003": 5.1646030639,
			"0.004": 4.58600891584,
			"0.005": 5.40635811292,
			"0.006": 6.02230535543,
			"0.007": 5.48316894888,
			"0.008": 5.79423193517,
			"0.009": 4.13326080831,
			"0.01": 5.61268805,
			"0.011": 6.78837481574,
			"0.012": 5.17167406844,
			"0.013": 5.09971301471,
			"0.014": 6.81896839801,
			"0.015": 0.530389274052,
			"0.016": 0.0,
			"0.017": 0.0,
			"0.018": 0.0,
			"0.019": 0.0,
			"0.02": 0.0,
			"0.021": 0.0,
			"0.022": 0.0,
			"0.023": 0.0,
			"0.024": 0.0,
			"0.025": 0.0
		}
	}
}
