{
	 "smiles": "COCCOCCOCCO", 
	 "Tm": 229.15, 
	 "num_atms": 27, 
	 "gaussian": { 
		 "optdone": 1, 
		 "sigma_profile": "yes", 
		 "theory": "DFT", 
		 "functional": "B3LYP", 
		 "basiset": "6-31G**", 
		 "properties": { 
			 "R2extent": 4149.8642, 
			 "electric_dipole_moment_norm": 3.21260918881, 
			 "electric_quadrupole_moment_norm": 12.5273620755, 
			 "total_energy": -577.221098593, 
			 "HOMO_LUMO_gap": 0.32749, 
			 "cosmo_polarized_energy": -13.34, 
			 "cosmo_cavitation_energy": 29.85, 
			 "cosmo_dispersion_energy": -21.56, 
			 "cosmo_repulsion_energy": 1.81, 
			 "cosmo_total_nonelectrostatic_energy": 10.1, 
			 "SMD_solvation_energy": 5.67 
		},
		"coords": [
			{
				"x": 3.1163833464,
				"y": -2.8934920164,
				"z": -0.9200840011,
				"element": "C" 
			},
			{
				"x": 2.3342386965,
				"y": -2.3487093574,
				"z": 0.1192802059,
				"element": "O" 
			},
			{
				"x": 2.4209118494,
				"y": -0.9429848558,
				"z": 0.1922897357,
				"element": "C" 
			},
			{
				"x": 1.5026450072,
				"y": -0.4471945415,
				"z": 1.3013419838,
				"element": "C" 
			},
			{
				"x": 0.1240683275,
				"y": -0.6319636849,
				"z": 1.0150535927,
				"element": "O" 
			},
			{
				"x": -0.4759469354,
				"y": 0.3978210363,
				"z": 0.2474950595,
				"element": "C" 
			},
			{
				"x": -1.0934177967,
				"y": 1.458249073,
				"z": 1.1583859978,
				"element": "C" 
			},
			{
				"x": -1.671986831,
				"y": 2.4526867987,
				"z": 0.3245438105,
				"element": "O" 
			},
			{
				"x": -2.2887352048,
				"y": 3.534581062,
				"z": 1.0226460005,
				"element": "C" 
			},
			{
				"x": -3.725294893,
				"y": 3.1844460932,
				"z": 1.4003252858,
				"element": "C" 
			},
			{
				"x": -4.4678948854,
				"y": 2.8152640755,
				"z": 0.2535011591,
				"element": "O" 
			},
			{
				"x": 2.8012579324,
				"y": -2.5225284714,
				"z": -1.9086261918,
				"element": "H" 
			},
			{
				"x": 2.9839559161,
				"y": -3.9777453153,
				"z": -0.8926730998,
				"element": "H" 
			},
			{
				"x": 4.1871018927,
				"y": -2.6635716303,
				"z": -0.7941075866,
				"element": "H" 
			},
			{
				"x": 2.1427953302,
				"y": -0.481808158,
				"z": -0.7715471056,
				"element": "H" 
			},
			{
				"x": 3.4553452606,
				"y": -0.6232442104,
				"z": 0.4159897926,
				"element": "H" 
			},
			{
				"x": 1.7084216601,
				"y": -1.0225832483,
				"z": 2.2096610515,
				"element": "H" 
			},
			{
				"x": 1.7324832956,
				"y": 0.609235818,
				"z": 1.5092703229,
				"element": "H" 
			},
			{
				"x": 0.2362364828,
				"y": 0.8760374161,
				"z": -0.4394576657,
				"element": "H" 
			},
			{
				"x": -1.2607766473,
				"y": -0.061525064,
				"z": -0.3626292889,
				"element": "H" 
			},
			{
				"x": -0.3205553792,
				"y": 1.9060933064,
				"z": 1.8039128517,
				"element": "H" 
			},
			{
				"x": -1.8356519286,
				"y": 0.9821222912,
				"z": 1.8148004322,
				"element": "H" 
			},
			{
				"x": -1.699107408,
				"y": 3.8181666841,
				"z": 1.9077350734,
				"element": "H" 
			},
			{
				"x": -2.2932024599,
				"y": 4.3756293441,
				"z": 0.3215724353,
				"element": "H" 
			},
			{
				"x": -3.7332574963,
				"y": 2.3849855262,
				"z": 2.1604550002,
				"element": "H" 
			},
			{
				"x": -4.2151291458,
				"y": 4.0585987168,
				"z": 1.8441658782,
				"element": "H" 
			},
			{
				"x": -3.8898879861,
				"y": 2.221133312,
				"z": -0.2478007298,
				"element": "H" 
			}
		],
		 "valence_orbital": [ 
			{
				"type": "occ",
				"energy": -0.30737,
				"method": "rhf"
			},
			{
				"type": "occ",
				"energy": -0.28054,
				"method": "rhf"
			},
			{
				"type": "occ",
				"energy": -0.25775,
				"method": "rhf"
			},
			{
				"type": "occ",
				"energy": -0.25436,
				"method": "rhf"
			},
			{
				"type": "occ",
				"energy": -0.25301,
				"method": "rhf"
			},
			{
				"type": "unocc",
				"energy": 0.07448,
				"method": "rhf"
			},
			{
				"type": "unocc",
				"energy": 0.07713,
				"method": "rhf"
			},
			{
				"type": "unocc",
				"energy": 0.09916,
				"method": "rhf"
			},
			{
				"type": "unocc",
				"energy": 0.10896,
				"method": "rhf"
			},
			{
				"type": "unocc",
				"energy": 0.11101,
				"method": "rhf"
			}
		],
		"cosmo_sigma_profile": { 
			"-0.025": 0.0,
			"-0.024": 0.0,
			"-0.023": 0.0,
			"-0.022": 0.0,
			"-0.021": 0.0,
			"-0.02": 0.0,
			"-0.019": 0.0,
			"-0.018": 0.0,
			"-0.017": 0.0,
			"-0.016": 0.0,
			"-0.015": 0.0,
			"-0.014": 0.0,
			"-0.013": 0.0,
			"-0.012": 0.272932166404,
			"-0.011": 0.874089642794,
			"-0.01": 0.535991557343,
			"-0.009": 0.0830713095951,
			"-0.008": 0.399678715303,
			"-0.007": 0.573597056146,
			"-0.006": 2.64218967247,
			"-0.005": 20.4662252705,
			"-0.004": 41.4019021972,
			"-0.003": 39.0904852651,
			"-0.002": 29.05761776,
			"-0.001": 17.5654244251,
			"0.0": 9.53977494917,
			"0.001": 6.47327813451,
			"0.002": 5.15519875316,
			"0.003": 6.2306939657,
			"0.004": 4.82496127866,
			"0.005": 4.70533107489,
			"0.006": 4.76215742984,
			"0.007": 3.64778047759,
			"0.008": 3.78751682473,
			"0.009": 5.0334201117,
			"0.01": 3.83493706738,
			"0.011": 3.68011623759,
			"0.012": 5.14599247215,
			"0.013": 4.59594846223,
			"0.014": 4.86936333622,
			"0.015": 1.64685690761,
			"0.016": 0.0,
			"0.017": 0.0,
			"0.018": 0.0,
			"0.019": 0.0,
			"0.02": 0.0,
			"0.021": 0.0,
			"0.022": 0.0,
			"0.023": 0.0,
			"0.024": 0.0,
			"0.025": 0.0
		}
	}
}
