{
	 "smiles": "CCC1=C(O)N=C(S)N(C1=O)C1=C(OC)C=CC=C1", 
	 "Tm": 434.15, 
	 "num_atms": 33, 
	 "gaussian": { 
		 "optdone": 1, 
		 "sigma_profile": "yes", 
		 "theory": "DFT", 
		 "functional": "B3LYP", 
		 "basiset": "6-31G**", 
		 "properties": { 
			 "R2extent": 6516.5997, 
			 "electric_dipole_moment_norm": 3.29670178967, 
			 "electric_quadrupole_moment_norm": 27.6710087434, 
			 "total_energy": -1237.17876774, 
			 "HOMO_LUMO_gap": 0.18669, 
			 "cosmo_polarized_energy": -20.53, 
			 "cosmo_cavitation_energy": 38.47, 
			 "cosmo_dispersion_energy": -26.39, 
			 "cosmo_repulsion_energy": 2.02, 
			 "cosmo_total_nonelectrostatic_energy": 14.1, 
			 "SMD_solvation_energy": 6.29 
		},
		"coords": [
			{
				"x": -3.0458622327,
				"y": 0.780772121,
				"z": -0.8797916976,
				"element": "C" 
			},
			{
				"x": -1.9856479604,
				"y": 1.8234238639,
				"z": -1.2787280067,
				"element": "C" 
			},
			{
				"x": -0.8794503122,
				"y": 1.9802081361,
				"z": -0.2630189929,
				"element": "C" 
			},
			{
				"x": -0.8926369275,
				"y": 2.8902621419,
				"z": 0.7716823378,
				"element": "C" 
			},
			{
				"x": -1.9015114176,
				"y": 3.7659677784,
				"z": 0.9785906101,
				"element": "O" 
			},
			{
				"x": 0.0931331324,
				"y": 3.0240556026,
				"z": 1.6967152014,
				"element": "N" 
			},
			{
				"x": 1.1181499218,
				"y": 2.2294002559,
				"z": 1.6096063108,
				"element": "C" 
			},
			{
				"x": 2.3435280706,
				"y": 2.4839769454,
				"z": 2.8740263278,
				"element": "S" 
			},
			{
				"x": 1.269162943,
				"y": 1.2774023746,
				"z": 0.6352977993,
				"element": "N" 
			},
			{
				"x": 0.2348868311,
				"y": 1.0739856357,
				"z": -0.3596912504,
				"element": "C" 
			},
			{
				"x": 0.3778456548,
				"y": 0.1861974494,
				"z": -1.1916160996,
				"element": "O" 
			},
			{
				"x": 2.3817867106,
				"y": 0.3688282015,
				"z": 0.581803653,
				"element": "C" 
			},
			{
				"x": 2.2915481702,
				"y": -0.8637172789,
				"z": 1.2613003773,
				"element": "C" 
			},
			{
				"x": 1.1503651962,
				"y": -1.0713044921,
				"z": 1.9633999757,
				"element": "O" 
			},
			{
				"x": 0.9850665063,
				"y": -2.3119896614,
				"z": 2.6380511151,
				"element": "C" 
			},
			{
				"x": 3.3636422278,
				"y": -1.7603393473,
				"z": 1.1841327358,
				"element": "C" 
			},
			{
				"x": 4.4939743714,
				"y": -1.4321250994,
				"z": 0.4311873726,
				"element": "C" 
			},
			{
				"x": 4.5753800107,
				"y": -0.2193263127,
				"z": -0.2502752634,
				"element": "C" 
			},
			{
				"x": 3.5075292359,
				"y": 0.6768322562,
				"z": -0.176261589,
				"element": "C" 
			},
			{
				"x": -3.8171783075,
				"y": 0.6892798277,
				"z": -1.6519065206,
				"element": "H" 
			},
			{
				"x": -2.5749490366,
				"y": -0.1973808101,
				"z": -0.7506656904,
				"element": "H" 
			},
			{
				"x": -3.5371377595,
				"y": 1.0465195946,
				"z": 0.0628324679,
				"element": "H" 
			},
			{
				"x": -2.4677883908,
				"y": 2.7926423591,
				"z": -1.4773532758,
				"element": "H" 
			},
			{
				"x": -1.5271290963,
				"y": 1.5183363558,
				"z": -2.2241702425,
				"element": "H" 
			},
			{
				"x": -2.578068615,
				"y": 3.6300120731,
				"z": 0.3016550399,
				"element": "H" 
			},
			{
				"x": 3.2130902982,
				"y": 1.5468957732,
				"z": 2.4515072587,
				"element": "H" 
			},
			{
				"x": 1.0139086804,
				"y": -3.1546352193,
				"z": 1.9369916151,
				"element": "H" 
			},
			{
				"x": 1.750050871,
				"y": -2.4543751016,
				"z": 3.4114052619,
				"element": "H" 
			},
			{
				"x": 0.0024254872,
				"y": -2.2656712813,
				"z": 3.1082988775,
				"element": "H" 
			},
			{
				"x": 3.3211780907,
				"y": -2.7118846674,
				"z": 1.7000317119,
				"element": "H" 
			},
			{
				"x": 5.3158572329,
				"y": -2.1402825277,
				"z": 0.3798887661,
				"element": "H" 
			},
			{
				"x": 5.4527227369,
				"y": 0.0260344232,
				"z": -0.8391965115,
				"element": "H" 
			},
			{
				"x": 3.5339276758,
				"y": 1.62349863,
				"z": -0.7065296753,
				"element": "H" 
			}
		],
		 "valence_orbital": [ 
			{
				"type": "occ",
				"energy": -0.2701,
				"method": "rhf"
			},
			{
				"type": "occ",
				"energy": -0.26497,
				"method": "rhf"
			},
			{
				"type": "occ",
				"energy": -0.25141,
				"method": "rhf"
			},
			{
				"type": "occ",
				"energy": -0.23556,
				"method": "rhf"
			},
			{
				"type": "occ",
				"energy": -0.21352,
				"method": "rhf"
			},
			{
				"type": "unocc",
				"energy": -0.02683,
				"method": "rhf"
			},
			{
				"type": "unocc",
				"energy": -0.02429,
				"method": "rhf"
			},
			{
				"type": "unocc",
				"energy": -0.00467,
				"method": "rhf"
			},
			{
				"type": "unocc",
				"energy": 0.01482,
				"method": "rhf"
			},
			{
				"type": "unocc",
				"energy": 0.01872,
				"method": "rhf"
			}
		],
		"cosmo_sigma_profile": { 
			"-0.025": 0.0,
			"-0.024": 0.0,
			"-0.023": 0.0,
			"-0.022": 0.0,
			"-0.021": 0.0,
			"-0.02": 0.0,
			"-0.019": 0.0,
			"-0.018": 0.0499321501004,
			"-0.017": 0.745020864973,
			"-0.016": 0.832169249194,
			"-0.015": 1.00268667005,
			"-0.014": 0.84431251222,
			"-0.013": 0.952434246005,
			"-0.012": 0.607552146672,
			"-0.011": 1.98805759133,
			"-0.01": 2.17596336773,
			"-0.009": 2.10871451968,
			"-0.008": 2.69921058288,
			"-0.007": 9.27454342211,
			"-0.006": 19.6020871466,
			"-0.005": 21.4016023183,
			"-0.004": 21.950122391,
			"-0.003": 23.013298895,
			"-0.002": 21.8967094388,
			"-0.001": 23.1168379016,
			"0.0": 23.1348766561,
			"0.001": 23.920516835,
			"0.002": 16.1410432435,
			"0.003": 16.0643245728,
			"0.004": 16.486758074,
			"0.005": 11.7785209856,
			"0.006": 9.44062433213,
			"0.007": 5.93954264814,
			"0.008": 4.52979976184,
			"0.009": 4.22321187093,
			"0.01": 4.41427197083,
			"0.011": 5.28418557955,
			"0.012": 4.05158301971,
			"0.013": 5.30716922472,
			"0.014": 3.51008455556,
			"0.015": 0.00623611314545,
			"0.016": 0.0,
			"0.017": 0.0,
			"0.018": 0.0,
			"0.019": 0.0,
			"0.02": 0.0,
			"0.021": 0.0,
			"0.022": 0.0,
			"0.023": 0.0,
			"0.024": 0.0,
			"0.025": 0.0
		}
	}
}
