{
	 "smiles": "COC(=O)C1=C(N)SC=C1C1=CC=C(F)C=C1", 
	 "Tm": 409.15, 
	 "num_atms": 27, 
	 "gaussian": { 
		 "optdone": 1, 
		 "sigma_profile": "yes", 
		 "theory": "DFT", 
		 "functional": "B3LYP", 
		 "basiset": "6-31G**", 
		 "properties": { 
			 "R2extent": 5388.9252, 
			 "electric_dipole_moment_norm": 4.6883116492, 
			 "electric_quadrupole_moment_norm": 13.9488249939, 
			 "total_energy": -1166.52440592, 
			 "HOMO_LUMO_gap": 0.17788, 
			 "cosmo_polarized_energy": -13.55, 
			 "cosmo_cavitation_energy": 33.41, 
			 "cosmo_dispersion_energy": -24.48, 
			 "cosmo_repulsion_energy": 1.84, 
			 "cosmo_total_nonelectrostatic_energy": 10.77, 
			 "SMD_solvation_energy": 7.19 
		},
		"coords": [
			{
				"x": -4.2689995984,
				"y": -2.1072289846,
				"z": 1.7602741532,
				"element": "C" 
			},
			{
				"x": -3.005544277,
				"y": -2.3744253408,
				"z": 1.1321798833,
				"element": "O" 
			},
			{
				"x": -2.2359632621,
				"y": -1.259523288,
				"z": 0.8846214551,
				"element": "C" 
			},
			{
				"x": -2.6237876298,
				"y": -0.1530172898,
				"z": 1.2055574752,
				"element": "O" 
			},
			{
				"x": -0.9683617208,
				"y": -1.5836618578,
				"z": 0.2226153545,
				"element": "C" 
			},
			{
				"x": -0.6271462776,
				"y": -2.8546439868,
				"z": -0.2455354215,
				"element": "C" 
			},
			{
				"x": -1.3497105053,
				"y": -4.0135141559,
				"z": -0.2149610977,
				"element": "N" 
			},
			{
				"x": 0.9149476758,
				"y": -2.8440888771,
				"z": -1.0700918073,
				"element": "S" 
			},
			{
				"x": 1.1070865886,
				"y": -1.1329498672,
				"z": -0.7737859911,
				"element": "C" 
			},
			{
				"x": 0.0570183016,
				"y": -0.592819821,
				"z": -0.092803825,
				"element": "C" 
			},
			{
				"x": 0.0704323113,
				"y": 0.8487730704,
				"z": 0.2678313933,
				"element": "C" 
			},
			{
				"x": -0.1034935212,
				"y": 1.2867956578,
				"z": 1.5911263785,
				"element": "C" 
			},
			{
				"x": 0.0026656288,
				"y": 2.6344988045,
				"z": 1.9208704822,
				"element": "C" 
			},
			{
				"x": 0.2823377785,
				"y": 3.5529018011,
				"z": 0.9137873457,
				"element": "C" 
			},
			{
				"x": 0.3832021815,
				"y": 4.8622734867,
				"z": 1.2309841538,
				"element": "F" 
			},
			{
				"x": 0.4581501766,
				"y": 3.1613579094,
				"z": -0.4062735405,
				"element": "C" 
			},
			{
				"x": 0.3507427339,
				"y": 1.8058070128,
				"z": -0.7197651486,
				"element": "C" 
			},
			{
				"x": -4.7536336651,
				"y": -3.0776805381,
				"z": 1.8725412423,
				"element": "H" 
			},
			{
				"x": -4.8765188687,
				"y": -1.4452113289,
				"z": 1.1389202516,
				"element": "H" 
			},
			{
				"x": -4.1238229637,
				"y": -1.6368112138,
				"z": 2.7357254494,
				"element": "H" 
			},
			{
				"x": -2.1484764948,
				"y": -4.0053340683,
				"z": 0.404008048,
				"element": "H" 
			},
			{
				"x": -0.854647746,
				"y": -4.8857474672,
				"z": -0.3177852815,
				"element": "H" 
			},
			{
				"x": 2.0179824287,
				"y": -0.6391063323,
				"z": -1.0784753782,
				"element": "H" 
			},
			{
				"x": -0.324277985,
				"y": 0.5659823916,
				"z": 2.3696413512,
				"element": "H" 
			},
			{
				"x": -0.1278799425,
				"y": 2.9811529869,
				"z": 2.9402943846,
				"element": "H" 
			},
			{
				"x": 0.6663561335,
				"y": 3.9068175673,
				"z": -1.1661373421,
				"element": "H" 
			},
			{
				"x": 0.470742519,
				"y": 1.4842037291,
				"z": -1.7496639685,
				"element": "H" 
			}
		],
		 "valence_orbital": [ 
			{
				"type": "occ",
				"energy": -0.27378,
				"method": "rhf"
			},
			{
				"type": "occ",
				"energy": -0.26026,
				"method": "rhf"
			},
			{
				"type": "occ",
				"energy": -0.24806,
				"method": "rhf"
			},
			{
				"type": "occ",
				"energy": -0.22769,
				"method": "rhf"
			},
			{
				"type": "occ",
				"energy": -0.20103,
				"method": "rhf"
			},
			{
				"type": "unocc",
				"energy": -0.02315,
				"method": "rhf"
			},
			{
				"type": "unocc",
				"energy": -0.01107,
				"method": "rhf"
			},
			{
				"type": "unocc",
				"energy": 0.00062,
				"method": "rhf"
			},
			{
				"type": "unocc",
				"energy": 0.00745,
				"method": "rhf"
			},
			{
				"type": "unocc",
				"energy": 0.03737,
				"method": "rhf"
			}
		],
		"cosmo_sigma_profile": { 
			"-0.025": 0.0,
			"-0.024": 0.0,
			"-0.023": 0.0,
			"-0.022": 0.0,
			"-0.021": 0.0,
			"-0.02": 0.0,
			"-0.019": 0.0,
			"-0.018": 0.0,
			"-0.017": 0.0,
			"-0.016": 0.0,
			"-0.015": 0.625461505841,
			"-0.014": 1.57125518573,
			"-0.013": 1.27588114001,
			"-0.012": 1.48199338545,
			"-0.011": 1.62005141275,
			"-0.01": 2.37119291637,
			"-0.009": 2.00783059386,
			"-0.008": 3.77764445595,
			"-0.007": 6.4043331657,
			"-0.006": 10.8947455611,
			"-0.005": 16.3628078673,
			"-0.004": 19.7954130251,
			"-0.003": 19.5282021389,
			"-0.002": 15.8828013304,
			"-0.001": 15.7172002587,
			"0.0": 14.4034872876,
			"0.001": 23.2045259068,
			"0.002": 24.2363027221,
			"0.003": 25.0926673972,
			"0.004": 29.5490905827,
			"0.005": 12.704743333,
			"0.006": 3.22207052213,
			"0.007": 2.96060876001,
			"0.008": 1.56248755664,
			"0.009": 3.03228362768,
			"0.01": 2.08385055939,
			"0.011": 2.03535704342,
			"0.012": 3.19173600922,
			"0.013": 3.10809084914,
			"0.014": 0.0370090808313,
			"0.015": 0.0,
			"0.016": 0.0,
			"0.017": 0.0,
			"0.018": 0.0,
			"0.019": 0.0,
			"0.02": 0.0,
			"0.021": 0.0,
			"0.022": 0.0,
			"0.023": 0.0,
			"0.024": 0.0,
			"0.025": 0.0
		}
	}
}
