{
	 "smiles": "CCCCCCCCCC(=O)OC", 
	 "Tm": 255.15, 
	 "num_atms": 35, 
	 "gaussian": { 
		 "optdone": 1, 
		 "sigma_profile": "yes", 
		 "theory": "DFT", 
		 "functional": "B3LYP", 
		 "basiset": "6-31G**", 
		 "properties": { 
			 "R2extent": 3730.7178, 
			 "electric_dipole_moment_norm": 1.9777167593, 
			 "electric_quadrupole_moment_norm": 4.80349446549, 
			 "total_energy": -582.90907682, 
			 "HOMO_LUMO_gap": 0.28114, 
			 "cosmo_polarized_energy": -5.86, 
			 "cosmo_cavitation_energy": 35.01, 
			 "cosmo_dispersion_energy": -23.9, 
			 "cosmo_repulsion_energy": 1.96, 
			 "cosmo_total_nonelectrostatic_energy": 13.07, 
			 "SMD_solvation_energy": 6.49 
		},
		"coords": [
			{
				"x": 2.0574281297,
				"y": -0.1949667695,
				"z": -2.5137605575,
				"element": "C" 
			},
			{
				"x": 0.7740227278,
				"y": 0.6415068349,
				"z": -2.4716372223,
				"element": "C" 
			},
			{
				"x": -0.4351216191,
				"y": -0.1569271184,
				"z": -1.9634918818,
				"element": "C" 
			},
			{
				"x": -1.766379614,
				"y": 0.6156671724,
				"z": -1.9746531881,
				"element": "C" 
			},
			{
				"x": -1.8399243143,
				"y": 1.850749319,
				"z": -1.0581032719,
				"element": "C" 
			},
			{
				"x": -1.7386596709,
				"y": 1.595332869,
				"z": 0.4590425818,
				"element": "C" 
			},
			{
				"x": -2.9065355324,
				"y": 0.7672879465,
				"z": 1.0514599329,
				"element": "C" 
			},
			{
				"x": -2.6643404605,
				"y": -0.742626432,
				"z": 1.2609139566,
				"element": "C" 
			},
			{
				"x": -1.8845340572,
				"y": -1.1052883292,
				"z": 2.5360355934,
				"element": "C" 
			},
			{
				"x": -0.380483958,
				"y": -0.9313713127,
				"z": 2.4520255999,
				"element": "C" 
			},
			{
				"x": 0.2952493343,
				"y": -1.0389320048,
				"z": 1.4484805988,
				"element": "O" 
			},
			{
				"x": 0.1492249238,
				"y": -0.6903079873,
				"z": 3.6716414136,
				"element": "O" 
			},
			{
				"x": 1.5822408375,
				"y": -0.5845461183,
				"z": 3.7120155033,
				"element": "C" 
			},
			{
				"x": 1.9453770359,
				"y": -1.0585091516,
				"z": -3.1798470981,
				"element": "H" 
			},
			{
				"x": 2.3073710096,
				"y": -0.5779293308,
				"z": -1.5180433682,
				"element": "H" 
			},
			{
				"x": 2.9100113336,
				"y": 0.3923091665,
				"z": -2.871690518,
				"element": "H" 
			},
			{
				"x": 0.9399360515,
				"y": 1.5170474628,
				"z": -1.8310068853,
				"element": "H" 
			},
			{
				"x": 0.5571923315,
				"y": 1.0356983646,
				"z": -3.4748105925,
				"element": "H" 
			},
			{
				"x": -0.218701102,
				"y": -0.5286503769,
				"z": -0.9549268844,
				"element": "H" 
			},
			{
				"x": -0.5526258796,
				"y": -1.0488470619,
				"z": -2.5953483145,
				"element": "H" 
			},
			{
				"x": -2.5803268742,
				"y": -0.0748925221,
				"z": -1.716292484,
				"element": "H" 
			},
			{
				"x": -1.9747654355,
				"y": 0.9430651785,
				"z": -3.0031046204,
				"element": "H" 
			},
			{
				"x": -1.0531112366,
				"y": 2.5602816426,
				"z": -1.3443277254,
				"element": "H" 
			},
			{
				"x": -2.7896886256,
				"y": 2.3679112237,
				"z": -1.2550438524,
				"element": "H" 
			},
			{
				"x": -0.7797107112,
				"y": 1.1223832669,
				"z": 0.6925407825,
				"element": "H" 
			},
			{
				"x": -1.7185897559,
				"y": 2.5756126754,
				"z": 0.9515363418,
				"element": "H" 
			},
			{
				"x": -3.7828709274,
				"y": 0.8882873699,
				"z": 0.4009425353,
				"element": "H" 
			},
			{
				"x": -3.2037653139,
				"y": 1.1955120282,
				"z": 2.0183308633,
				"element": "H" 
			},
			{
				"x": -2.1539980303,
				"y": -1.1801046969,
				"z": 0.3973618263,
				"element": "H" 
			},
			{
				"x": -3.6394964903,
				"y": -1.2391741563,
				"z": 1.3307004936,
				"element": "H" 
			},
			{
				"x": -2.0381387013,
				"y": -2.1689321402,
				"z": 2.7665419663,
				"element": "H" 
			},
			{
				"x": -2.256699372,
				"y": -0.5520930709,
				"z": 3.4043063299,
				"element": "H" 
			},
			{
				"x": 1.925128849,
				"y": 0.2385968934,
				"z": 3.0801961258,
				"element": "H" 
			},
			{
				"x": 1.8342890721,
				"y": -0.3966849399,
				"z": 4.7556196824,
				"element": "H" 
			},
			{
				"x": 2.0476960458,
				"y": -1.5105658946,
				"z": 3.3650963375,
				"element": "H" 
			}
		],
		 "valence_orbital": [ 
			{
				"type": "occ",
				"energy": -0.30397,
				"method": "rhf"
			},
			{
				"type": "occ",
				"energy": -0.29877,
				"method": "rhf"
			},
			{
				"type": "occ",
				"energy": -0.29557,
				"method": "rhf"
			},
			{
				"type": "occ",
				"energy": -0.29184,
				"method": "rhf"
			},
			{
				"type": "occ",
				"energy": -0.27142,
				"method": "rhf"
			},
			{
				"type": "unocc",
				"energy": 0.00972,
				"method": "rhf"
			},
			{
				"type": "unocc",
				"energy": 0.085,
				"method": "rhf"
			},
			{
				"type": "unocc",
				"energy": 0.10501,
				"method": "rhf"
			},
			{
				"type": "unocc",
				"energy": 0.10507,
				"method": "rhf"
			},
			{
				"type": "unocc",
				"energy": 0.11733,
				"method": "rhf"
			}
		],
		"cosmo_sigma_profile": { 
			"-0.025": 0.0,
			"-0.024": 0.0,
			"-0.023": 0.0,
			"-0.022": 0.0,
			"-0.021": 0.0,
			"-0.02": 0.0,
			"-0.019": 0.0,
			"-0.018": 0.0,
			"-0.017": 0.0,
			"-0.016": 0.0,
			"-0.015": 0.0,
			"-0.014": 0.0,
			"-0.013": 0.0,
			"-0.012": 0.0,
			"-0.011": 0.0,
			"-0.01": 0.0,
			"-0.009": 0.0,
			"-0.008": 0.0,
			"-0.007": 0.72851877016,
			"-0.006": 5.90373677774,
			"-0.005": 9.24911966832,
			"-0.004": 12.1844903349,
			"-0.003": 19.6769006684,
			"-0.002": 32.0893156945,
			"-0.001": 45.5144892196,
			"0.0": 44.1157219303,
			"0.001": 43.3541693929,
			"0.002": 23.7376146695,
			"0.003": 6.09935310126,
			"0.004": 4.23906014288,
			"0.005": 4.17302290123,
			"0.006": 3.4876279309,
			"0.007": 4.06010812922,
			"0.008": 3.17022895664,
			"0.009": 3.02651646577,
			"0.01": 2.20002415443,
			"0.011": 2.21151936837,
			"0.012": 0.766838668992,
			"0.013": 0.0,
			"0.014": 0.0,
			"0.015": 0.0,
			"0.016": 0.0,
			"0.017": 0.0,
			"0.018": 0.0,
			"0.019": 0.0,
			"0.02": 0.0,
			"0.021": 0.0,
			"0.022": 0.0,
			"0.023": 0.0,
			"0.024": 0.0,
			"0.025": 0.0
		}
	}
}
