{
	 "smiles": "O=C1C(=CC2=COC3=CC=CC=C3C2=O)C(C2=C1C=CC=C2)=C1C(=O)C2=C(C=CC=C2)C1=O", 
	 "Tm": 523.15, 
	 "num_atms": 47, 
	 "gaussian": { 
		 "optdone": 1, 
		 "sigma_profile": "yes", 
		 "theory": "DFT", 
		 "functional": "B3LYP", 
		 "basiset": "6-31G**", 
		 "properties": { 
			 "R2extent": 15157.9207, 
			 "electric_dipole_moment_norm": 6.26960342446, 
			 "electric_quadrupole_moment_norm": 40.513355365, 
			 "total_energy": -1451.50509547, 
			 "HOMO_LUMO_gap": 0.12079, 
			 "cosmo_polarized_energy": -22.19, 
			 "cosmo_cavitation_energy": 52.66, 
			 "cosmo_dispersion_energy": -36.91, 
			 "cosmo_repulsion_energy": 2.66, 
			 "cosmo_total_nonelectrostatic_energy": 18.41, 
			 "SMD_solvation_energy": 10.55 
		},
		"coords": [
			{
				"x": 3.1373789193,
				"y": -1.0974556726,
				"z": 2.9154853656,
				"element": "O" 
			},
			{
				"x": 2.5582566418,
				"y": -1.3679962719,
				"z": 1.8777229828,
				"element": "C" 
			},
			{
				"x": 1.3254207429,
				"y": -0.7000295685,
				"z": 1.322999312,
				"element": "C" 
			},
			{
				"x": 1.0704890368,
				"y": 0.5454163948,
				"z": 1.8148959606,
				"element": "C" 
			},
			{
				"x": 0.27424028,
				"y": 1.6745704835,
				"z": 1.3874501918,
				"element": "C" 
			},
			{
				"x": -0.3549821528,
				"y": 1.7597880011,
				"z": 0.1814462431,
				"element": "C" 
			},
			{
				"x": -1.0448366654,
				"y": 2.820258333,
				"z": -0.262532907,
				"element": "O" 
			},
			{
				"x": -1.17159406,
				"y": 3.931542975,
				"z": 0.5413144471,
				"element": "C" 
			},
			{
				"x": -1.9222845194,
				"y": 4.9934385178,
				"z": 0.0326717853,
				"element": "C" 
			},
			{
				"x": -2.0680036415,
				"y": 6.1349126656,
				"z": 0.81187018,
				"element": "C" 
			},
			{
				"x": -1.4716660156,
				"y": 6.2166201691,
				"z": 2.0812410532,
				"element": "C" 
			},
			{
				"x": -0.7284509878,
				"y": 5.151483694,
				"z": 2.5692259295,
				"element": "C" 
			},
			{
				"x": -0.567395349,
				"y": 3.9857511059,
				"z": 1.8023350576,
				"element": "C" 
			},
			{
				"x": 0.2237446063,
				"y": 2.8402234105,
				"z": 2.3043005305,
				"element": "C" 
			},
			{
				"x": 0.7937200604,
				"y": 2.8630623959,
				"z": 3.3912379431,
				"element": "O" 
			},
			{
				"x": 0.8594376304,
				"y": -1.5199793841,
				"z": 0.1870769586,
				"element": "C" 
			},
			{
				"x": 2.0169474544,
				"y": -2.3907800472,
				"z": -0.1844213682,
				"element": "C" 
			},
			{
				"x": 2.9685060516,
				"y": -2.3565305935,
				"z": 0.8583963742,
				"element": "C" 
			},
			{
				"x": 4.1251900605,
				"y": -3.1256239794,
				"z": 0.8463676315,
				"element": "C" 
			},
			{
				"x": 4.3592032342,
				"y": -3.9458668966,
				"z": -0.2578584357,
				"element": "C" 
			},
			{
				"x": 3.4409875608,
				"y": -3.9711598983,
				"z": -1.3151406507,
				"element": "C" 
			},
			{
				"x": 2.2696382355,
				"y": -3.2080191481,
				"z": -1.2947225858,
				"element": "C" 
			},
			{
				"x": -0.4465135701,
				"y": -1.6374000827,
				"z": -0.2546011683,
				"element": "C" 
			},
			{
				"x": -1.6429082045,
				"y": -1.1776754502,
				"z": 0.5274357614,
				"element": "C" 
			},
			{
				"x": -1.6755829616,
				"y": -0.5049160259,
				"z": 1.5468325773,
				"element": "O" 
			},
			{
				"x": -2.8492900132,
				"y": -1.7363287139,
				"z": -0.1501939273,
				"element": "C" 
			},
			{
				"x": -2.4622118232,
				"y": -2.4325786635,
				"z": -1.2953272276,
				"element": "C" 
			},
			{
				"x": -3.4002314401,
				"y": -3.0369751105,
				"z": -2.1273005809,
				"element": "C" 
			},
			{
				"x": -4.7472632982,
				"y": -2.9316512949,
				"z": -1.7699779902,
				"element": "C" 
			},
			{
				"x": -5.1364929114,
				"y": -2.2339233648,
				"z": -0.6144618458,
				"element": "C" 
			},
			{
				"x": -4.1883555203,
				"y": -1.6248616866,
				"z": 0.2123791289,
				"element": "C" 
			},
			{
				"x": -0.9771146788,
				"y": -2.3919522251,
				"z": -1.4336407897,
				"element": "C" 
			},
			{
				"x": -0.3804913382,
				"y": -2.8512724585,
				"z": -2.4002810393,
				"element": "O" 
			},
			{
				"x": 1.6695800748,
				"y": 0.7851300851,
				"z": 2.6946855851,
				"element": "H" 
			},
			{
				"x": -0.3396926847,
				"y": 0.9723114808,
				"z": -0.5609823508,
				"element": "H" 
			},
			{
				"x": -2.3713888915,
				"y": 4.905841344,
				"z": -0.9506646818,
				"element": "H" 
			},
			{
				"x": -2.649080184,
				"y": 6.9695121425,
				"z": 0.4314568949,
				"element": "H" 
			},
			{
				"x": -1.5940360512,
				"y": 7.1146346865,
				"z": 2.6785104848,
				"element": "H" 
			},
			{
				"x": -0.253588475,
				"y": 5.1794736792,
				"z": 3.5443038195,
				"element": "H" 
			},
			{
				"x": 4.8170886285,
				"y": -3.0679937672,
				"z": 1.6808164059,
				"element": "H" 
			},
			{
				"x": 5.2553006061,
				"y": -4.5577167005,
				"z": -0.3045766312,
				"element": "H" 
			},
			{
				"x": 3.6406228917,
				"y": -4.5989677564,
				"z": -2.1788915771,
				"element": "H" 
			},
			{
				"x": 1.5751913052,
				"y": -3.2372275616,
				"z": -2.1216306385,
				"element": "H" 
			},
			{
				"x": -3.083370613,
				"y": -3.5727141256,
				"z": -3.0164383912,
				"element": "H" 
			},
			{
				"x": -5.5075999791,
				"y": -3.3950672003,
				"z": -2.3919563112,
				"element": "H" 
			},
			{
				"x": -6.1914134241,
				"y": -2.1673014273,
				"z": -0.3645064774,
				"element": "H" 
			},
			{
				"x": -4.4732045673,
				"y": -1.0794064887,
				"z": 1.1064489712,
				"element": "H" 
			}
		],
		 "valence_orbital": [ 
			{
				"type": "occ",
				"energy": -0.2566,
				"method": "rhf"
			},
			{
				"type": "occ",
				"energy": -0.25207,
				"method": "rhf"
			},
			{
				"type": "occ",
				"energy": -0.24729,
				"method": "rhf"
			},
			{
				"type": "occ",
				"energy": -0.24217,
				"method": "rhf"
			},
			{
				"type": "occ",
				"energy": -0.22981,
				"method": "rhf"
			},
			{
				"type": "unocc",
				"energy": -0.10902,
				"method": "rhf"
			},
			{
				"type": "unocc",
				"energy": -0.07958,
				"method": "rhf"
			},
			{
				"type": "unocc",
				"energy": -0.07724,
				"method": "rhf"
			},
			{
				"type": "unocc",
				"energy": -0.06195,
				"method": "rhf"
			},
			{
				"type": "unocc",
				"energy": -0.03234,
				"method": "rhf"
			}
		],
		"cosmo_sigma_profile": { 
			"-0.025": 0.0,
			"-0.024": 0.0,
			"-0.023": 0.0,
			"-0.022": 0.0,
			"-0.021": 0.0,
			"-0.02": 0.0,
			"-0.019": 0.0,
			"-0.018": 0.0,
			"-0.017": 0.0,
			"-0.016": 0.0,
			"-0.015": 0.0,
			"-0.014": 0.0,
			"-0.013": 0.0,
			"-0.012": 0.0,
			"-0.011": 0.0961022816534,
			"-0.01": 1.51295885679,
			"-0.009": 2.01793981381,
			"-0.008": 4.62222421522,
			"-0.007": 20.6580239694,
			"-0.006": 25.9994061097,
			"-0.005": 30.0534689427,
			"-0.004": 25.06230823,
			"-0.003": 28.1860103022,
			"-0.002": 29.9975152281,
			"-0.001": 35.5338018476,
			"0.0": 36.6633581147,
			"0.001": 42.9528329309,
			"0.002": 48.0630527444,
			"0.003": 24.1229818274,
			"0.004": 9.49126865945,
			"0.005": 7.36451039832,
			"0.006": 5.60280035907,
			"0.007": 8.33283407264,
			"0.008": 5.5981000785,
			"0.009": 7.67113745203,
			"0.01": 7.63000906226,
			"0.011": 10.6983010959,
			"0.012": 8.55477710629,
			"0.013": 1.15952901279,
			"0.014": 0.0,
			"0.015": 0.0,
			"0.016": 0.0,
			"0.017": 0.0,
			"0.018": 0.0,
			"0.019": 0.0,
			"0.02": 0.0,
			"0.021": 0.0,
			"0.022": 0.0,
			"0.023": 0.0,
			"0.024": 0.0,
			"0.025": 0.0
		}
	}
}
