{
	 "smiles": "NNC(=S)NCCN1CCCCC1", 
	 "Tm": 395.15, 
	 "num_atms": 31, 
	 "gaussian": { 
		 "optdone": 1, 
		 "sigma_profile": "yes", 
		 "theory": "DFT", 
		 "functional": "B3LYP", 
		 "basiset": "6-31G**", 
		 "properties": { 
			 "R2extent": 4788.3794, 
			 "electric_dipole_moment_norm": 5.75132241663, 
			 "electric_quadrupole_moment_norm": 33.149594957, 
			 "total_energy": -932.875977868, 
			 "HOMO_LUMO_gap": 0.20834, 
			 "cosmo_polarized_energy": -19.66, 
			 "cosmo_cavitation_energy": 33.24, 
			 "cosmo_dispersion_energy": -24.61, 
			 "cosmo_repulsion_energy": 1.97, 
			 "cosmo_total_nonelectrostatic_energy": 10.61, 
			 "SMD_solvation_energy": 2.09 
		},
		"coords": [
			{
				"x": 2.6576692611,
				"y": 0.4380769815,
				"z": -4.0752442832,
				"element": "N" 
			},
			{
				"x": 3.4883826742,
				"y": 0.2225507218,
				"z": -2.9632405659,
				"element": "N" 
			},
			{
				"x": 3.0167329451,
				"y": 0.4337517998,
				"z": -1.6854699562,
				"element": "C" 
			},
			{
				"x": 4.1056314153,
				"y": 0.4191021607,
				"z": -0.3984217183,
				"element": "S" 
			},
			{
				"x": 1.6879931917,
				"y": 0.62454286,
				"z": -1.5997765598,
				"element": "N" 
			},
			{
				"x": 0.9446533513,
				"y": 0.7917054863,
				"z": -0.3590483582,
				"element": "C" 
			},
			{
				"x": 0.5421774492,
				"y": -0.5486441179,
				"z": 0.283585565,
				"element": "C" 
			},
			{
				"x": -0.279077228,
				"y": -0.3172229108,
				"z": 1.4708267064,
				"element": "N" 
			},
			{
				"x": -1.7202165115,
				"y": -0.247594882,
				"z": 1.2079538866,
				"element": "C" 
			},
			{
				"x": -2.3896978725,
				"y": -1.6247615262,
				"z": 1.0303339229,
				"element": "C" 
			},
			{
				"x": -2.0895003277,
				"y": -2.5312788683,
				"z": 2.2349547847,
				"element": "C" 
			},
			{
				"x": -0.5766333472,
				"y": -2.6011985974,
				"z": 2.4974652571,
				"element": "C" 
			},
			{
				"x": 0.0106999193,
				"y": -1.1826965511,
				"z": 2.6180656237,
				"element": "C" 
			},
			{
				"x": 2.7266508589,
				"y": -0.3512160043,
				"z": -4.7115665697,
				"element": "H" 
			},
			{
				"x": 2.922348035,
				"y": 1.2881730347,
				"z": -4.5703161404,
				"element": "H" 
			},
			{
				"x": 4.4969639967,
				"y": 0.2547878407,
				"z": -3.0516477979,
				"element": "H" 
			},
			{
				"x": 1.1963568198,
				"y": 0.5913681239,
				"z": -2.4862939349,
				"element": "H" 
			},
			{
				"x": 0.0543041272,
				"y": 1.3875682449,
				"z": -0.5860931894,
				"element": "H" 
			},
			{
				"x": 1.5597827809,
				"y": 1.3545541939,
				"z": 0.3456745312,
				"element": "H" 
			},
			{
				"x": 0.0482544782,
				"y": -1.1809039868,
				"z": -0.4744883908,
				"element": "H" 
			},
			{
				"x": 1.4618124676,
				"y": -1.06598752,
				"z": 0.5715268832,
				"element": "H" 
			},
			{
				"x": -2.1927828962,
				"y": 0.2715105208,
				"z": 2.0545188179,
				"element": "H" 
			},
			{
				"x": -1.8902798501,
				"y": 0.3799374194,
				"z": 0.3255835568,
				"element": "H" 
			},
			{
				"x": -3.4715850702,
				"y": -1.4968201084,
				"z": 0.8990179,
				"element": "H" 
			},
			{
				"x": -2.0171530986,
				"y": -2.1008514002,
				"z": 0.11314919,
				"element": "H" 
			},
			{
				"x": -2.5892389867,
				"y": -2.1226677252,
				"z": 3.1256335982,
				"element": "H" 
			},
			{
				"x": -2.5045720825,
				"y": -3.5337801302,
				"z": 2.0771746528,
				"element": "H" 
			},
			{
				"x": -0.367769063,
				"y": -3.1707118102,
				"z": 3.4117741969,
				"element": "H" 
			},
			{
				"x": -0.0815605972,
				"y": -3.1336580785,
				"z": 1.6737386332,
				"element": "H" 
			},
			{
				"x": 1.0953285508,
				"y": -1.2172399228,
				"z": 2.7620833856,
				"element": "H" 
			},
			{
				"x": -0.4122753907,
				"y": -0.7003952479,
				"z": 3.5120463726,
				"element": "H" 
			}
		],
		 "valence_orbital": [ 
			{
				"type": "occ",
				"energy": -0.29868,
				"method": "rhf"
			},
			{
				"type": "occ",
				"energy": -0.25563,
				"method": "rhf"
			},
			{
				"type": "occ",
				"energy": -0.20301,
				"method": "rhf"
			},
			{
				"type": "occ",
				"energy": -0.19587,
				"method": "rhf"
			},
			{
				"type": "occ",
				"energy": -0.19396,
				"method": "rhf"
			},
			{
				"type": "unocc",
				"energy": 0.01438,
				"method": "rhf"
			},
			{
				"type": "unocc",
				"energy": 0.05365,
				"method": "rhf"
			},
			{
				"type": "unocc",
				"energy": 0.07973,
				"method": "rhf"
			},
			{
				"type": "unocc",
				"energy": 0.09387,
				"method": "rhf"
			},
			{
				"type": "unocc",
				"energy": 0.10696,
				"method": "rhf"
			}
		],
		"cosmo_sigma_profile": { 
			"-0.025": 0.0,
			"-0.024": 0.0,
			"-0.023": 0.0,
			"-0.022": 0.0,
			"-0.021": 0.0,
			"-0.02": 0.0,
			"-0.019": 0.0,
			"-0.018": 0.0,
			"-0.017": 0.0,
			"-0.016": 0.0,
			"-0.015": 0.0,
			"-0.014": 0.380754060631,
			"-0.013": 1.9517425027,
			"-0.012": 5.56806220804,
			"-0.011": 5.97972359052,
			"-0.01": 4.99003779793,
			"-0.009": 5.17473715959,
			"-0.008": 3.19171965229,
			"-0.007": 4.14659761839,
			"-0.006": 2.81949277805,
			"-0.005": 5.79890906109,
			"-0.004": 6.43147527002,
			"-0.003": 14.9730568587,
			"-0.002": 34.1079516854,
			"-0.001": 35.9461420685,
			"0.0": 32.4631784177,
			"0.001": 22.2802323259,
			"0.002": 10.6166294058,
			"0.003": 7.6165726087,
			"0.004": 5.19696258557,
			"0.005": 5.83417368632,
			"0.006": 6.33323145625,
			"0.007": 5.66348947662,
			"0.008": 4.40573154003,
			"0.009": 5.06936716788,
			"0.01": 4.61003745732,
			"0.011": 7.52802346021,
			"0.012": 7.80869464025,
			"0.013": 1.99195412657,
			"0.014": 0.391818047679,
			"0.015": 0.346868675101,
			"0.016": 0.0315336762026,
			"0.017": 0.0,
			"0.018": 0.0,
			"0.019": 0.0,
			"0.02": 0.0,
			"0.021": 0.0,
			"0.022": 0.0,
			"0.023": 0.0,
			"0.024": 0.0,
			"0.025": 0.0
		}
	}
}
