{
	 "smiles": "CC1(C)SC[C@@H](NC1=O)C(O)=O", 
	 "Tm": 479.15, 
	 "num_atms": 23, 
	 "gaussian": { 
		 "optdone": 1, 
		 "sigma_profile": "yes", 
		 "theory": "DFT", 
		 "functional": "B3LYP", 
		 "basiset": "6-31G**", 
		 "properties": { 
			 "R2extent": 3049.8005, 
			 "electric_dipole_moment_norm": 1.95620993505, 
			 "electric_quadrupole_moment_norm": 18.3179785318, 
			 "total_energy": -952.013859981, 
			 "HOMO_LUMO_gap": 0.21943, 
			 "cosmo_polarized_energy": -16.65, 
			 "cosmo_cavitation_energy": 26.93, 
			 "cosmo_dispersion_energy": -19.64, 
			 "cosmo_repulsion_energy": 1.52, 
			 "cosmo_total_nonelectrostatic_energy": 8.81, 
			 "SMD_solvation_energy": 5.51 
		},
		"coords": [
			{
				"x": 1.1338051421,
				"y": -0.292207232,
				"z": -0.5772411947,
				"element": "C" 
			},
			{
				"x": -0.3627013884,
				"y": -0.473600295,
				"z": -0.2813121548,
				"element": "C" 
			},
			{
				"x": -1.0299359035,
				"y": -1.2956014531,
				"z": -1.4032993333,
				"element": "C" 
			},
			{
				"x": -1.0804486667,
				"y": 1.2379663492,
				"z": -0.1842824211,
				"element": "S" 
			},
			{
				"x": -2.6759268793,
				"y": 0.8159210104,
				"z": 0.5893674524,
				"element": "C" 
			},
			{
				"x": -2.4582050966,
				"y": 0.1553990856,
				"z": 1.9486659901,
				"element": "C" 
			},
			{
				"x": -1.5917714474,
				"y": -1.0087714008,
				"z": 1.8669654922,
				"element": "N" 
			},
			{
				"x": -0.521949103,
				"y": -1.2585714328,
				"z": 1.0363514091,
				"element": "C" 
			},
			{
				"x": 0.2424460384,
				"y": -2.1794498705,
				"z": 1.2928120187,
				"element": "O" 
			},
			{
				"x": -2.0095364588,
				"y": 1.2081778465,
				"z": 2.9787559713,
				"element": "C" 
			},
			{
				"x": -1.0520418407,
				"y": 0.7539824501,
				"z": 3.8102741071,
				"element": "O" 
			},
			{
				"x": -2.5118961905,
				"y": 2.3051947465,
				"z": 3.0706860126,
				"element": "O" 
			},
			{
				"x": 1.2697889146,
				"y": 0.2189229473,
				"z": -1.5351677015,
				"element": "H" 
			},
			{
				"x": 1.624859649,
				"y": 0.2936320061,
				"z": 0.2040612626,
				"element": "H" 
			},
			{
				"x": 1.6136001643,
				"y": -1.2715439005,
				"z": -0.6221103064,
				"element": "H" 
			},
			{
				"x": -0.8774925104,
				"y": -0.8042772422,
				"z": -2.3678905886,
				"element": "H" 
			},
			{
				"x": -2.1052949664,
				"y": -1.415671972,
				"z": -1.2436879746,
				"element": "H" 
			},
			{
				"x": -0.5824617094,
				"y": -2.2942059877,
				"z": -1.4375012043,
				"element": "H" 
			},
			{
				"x": -3.2173904988,
				"y": 1.7517870831,
				"z": 0.7333184679,
				"element": "H" 
			},
			{
				"x": -3.2630914349,
				"y": 0.1634375469,
				"z": -0.0619493575,
				"element": "H" 
			},
			{
				"x": -3.4386788235,
				"y": -0.1869261048,
				"z": 2.3135125497,
				"element": "H" 
			},
			{
				"x": -1.5329533032,
				"y": -1.5758695528,
				"z": 2.7043297386,
				"element": "H" 
			},
			{
				"x": -0.864923687,
				"y": 1.4762753723,
				"z": 4.4339417643,
				"element": "H" 
			}
		],
		 "valence_orbital": [ 
			{
				"type": "occ",
				"energy": -0.31915,
				"method": "rhf"
			},
			{
				"type": "occ",
				"energy": -0.30725,
				"method": "rhf"
			},
			{
				"type": "occ",
				"energy": -0.26234,
				"method": "rhf"
			},
			{
				"type": "occ",
				"energy": -0.254,
				"method": "rhf"
			},
			{
				"type": "occ",
				"energy": -0.23029,
				"method": "rhf"
			},
			{
				"type": "unocc",
				"energy": -0.01086,
				"method": "rhf"
			},
			{
				"type": "unocc",
				"energy": 0.00943,
				"method": "rhf"
			},
			{
				"type": "unocc",
				"energy": 0.03466,
				"method": "rhf"
			},
			{
				"type": "unocc",
				"energy": 0.05914,
				"method": "rhf"
			},
			{
				"type": "unocc",
				"energy": 0.06868,
				"method": "rhf"
			}
		],
		"cosmo_sigma_profile": { 
			"-0.025": 0.0,
			"-0.024": 0.0,
			"-0.023": 0.0,
			"-0.022": 0.0,
			"-0.021": 0.0,
			"-0.02": 0.0,
			"-0.019": 0.498579906041,
			"-0.018": 0.967345838692,
			"-0.017": 0.917316250797,
			"-0.016": 0.593599843236,
			"-0.015": 0.983718777994,
			"-0.014": 1.42932293455,
			"-0.013": 1.91479530016,
			"-0.012": 1.69552643057,
			"-0.011": 1.4352326384,
			"-0.01": 2.14479058196,
			"-0.009": 4.5061860096,
			"-0.008": 3.8642743004,
			"-0.007": 5.69206001858,
			"-0.006": 7.19611294214,
			"-0.005": 7.78136385623,
			"-0.004": 15.6053011578,
			"-0.003": 16.3840522473,
			"-0.002": 18.2793427075,
			"-0.001": 17.8663153808,
			"0.0": 16.3612328843,
			"0.001": 9.27306209628,
			"0.002": 8.78511354842,
			"0.003": 9.27266730406,
			"0.004": 8.94463565827,
			"0.005": 6.95843216487,
			"0.006": 7.44186540237,
			"0.007": 5.75386800684,
			"0.008": 4.57828450774,
			"0.009": 3.92753071268,
			"0.01": 4.61868525504,
			"0.011": 6.52783358519,
			"0.012": 3.68242764686,
			"0.013": 5.03782197996,
			"0.014": 1.41227139528,
			"0.015": 0.0,
			"0.016": 0.0,
			"0.017": 0.0,
			"0.018": 0.0,
			"0.019": 0.0,
			"0.02": 0.0,
			"0.021": 0.0,
			"0.022": 0.0,
			"0.023": 0.0,
			"0.024": 0.0,
			"0.025": 0.0
		}
	}
}
