{
	 "smiles": "O=C(OC1=CC2=CC=CC=C2C=C1)C1=CC=CC(=C1)S(=O)(=O)OC1=CC2=CC=CC=C2C=C1", 
	 "Tm": 445.15, 
	 "num_atms": 51, 
	 "gaussian": { 
		 "optdone": 1, 
		 "sigma_profile": "yes", 
		 "theory": "DFT", 
		 "functional": "B3LYP", 
		 "basiset": "6-31G**", 
		 "properties": { 
			 "R2extent": 21709.5581, 
			 "electric_dipole_moment_norm": 5.95051457691, 
			 "electric_quadrupole_moment_norm": 21.4544514409, 
			 "total_energy": -1813.9866054, 
			 "HOMO_LUMO_gap": 0.1469, 
			 "cosmo_polarized_energy": -19.09, 
			 "cosmo_cavitation_energy": 58.73, 
			 "cosmo_dispersion_energy": -40.72, 
			 "cosmo_repulsion_energy": 2.96, 
			 "cosmo_total_nonelectrostatic_energy": 20.97, 
			 "SMD_solvation_energy": 9.09 
		},
		"coords": [
			{
				"x": 1.270010065,
				"y": 1.1475376461,
				"z": 0.9985079712,
				"element": "O" 
			},
			{
				"x": 0.2430640666,
				"y": 1.6577366753,
				"z": 0.6137548532,
				"element": "C" 
			},
			{
				"x": 0.1806168369,
				"y": 2.6991775812,
				"z": -0.2667198063,
				"element": "O" 
			},
			{
				"x": 1.3561394491,
				"y": 3.2638726913,
				"z": -0.7749687528,
				"element": "C" 
			},
			{
				"x": 1.4132541885,
				"y": 3.4536685364,
				"z": -2.1336426715,
				"element": "C" 
			},
			{
				"x": 2.53528404,
				"y": 4.1010689211,
				"z": -2.7147837073,
				"element": "C" 
			},
			{
				"x": 2.6398587795,
				"y": 4.3205480626,
				"z": -4.1149104462,
				"element": "C" 
			},
			{
				"x": 3.7427873829,
				"y": 4.9495405369,
				"z": -4.6473859894,
				"element": "C" 
			},
			{
				"x": 4.7933941328,
				"y": 5.3901929117,
				"z": -3.8052378096,
				"element": "C" 
			},
			{
				"x": 4.7207969883,
				"y": 5.1927401634,
				"z": -2.444539924,
				"element": "C" 
			},
			{
				"x": 3.5976219249,
				"y": 4.5469338154,
				"z": -1.8622131965,
				"element": "C" 
			},
			{
				"x": 3.4872113396,
				"y": 4.3297903525,
				"z": -0.4617969355,
				"element": "C" 
			},
			{
				"x": 2.391106054,
				"y": 3.7037764555,
				"z": 0.0837869643,
				"element": "C" 
			},
			{
				"x": -1.1218526,
				"y": 1.2267219782,
				"z": 1.0382706433,
				"element": "C" 
			},
			{
				"x": -2.2905301751,
				"y": 1.853759644,
				"z": 0.5853186416,
				"element": "C" 
			},
			{
				"x": -3.5399306415,
				"y": 1.4151432486,
				"z": 1.0260484251,
				"element": "C" 
			},
			{
				"x": -3.6356809431,
				"y": 0.3472508889,
				"z": 1.9170051542,
				"element": "C" 
			},
			{
				"x": -2.4612905732,
				"y": -0.2717962803,
				"z": 2.356922532,
				"element": "C" 
			},
			{
				"x": -1.2052916863,
				"y": 0.1533023709,
				"z": 1.9344161581,
				"element": "C" 
			},
			{
				"x": -2.5881110816,
				"y": -1.647154673,
				"z": 3.4943017377,
				"element": "S" 
			},
			{
				"x": -3.8459475042,
				"y": -1.5502513152,
				"z": 4.2182719519,
				"element": "O" 
			},
			{
				"x": -1.3074261893,
				"y": -1.8146971896,
				"z": 4.1715819659,
				"element": "O" 
			},
			{
				"x": -2.8414587199,
				"y": -2.9377816404,
				"z": 2.4706474908,
				"element": "O" 
			},
			{
				"x": -1.7784977074,
				"y": -3.4590476913,
				"z": 1.7196754023,
				"element": "C" 
			},
			{
				"x": -0.7690442916,
				"y": -4.1747333612,
				"z": 2.3189198929,
				"element": "C" 
			},
			{
				"x": 0.2533866969,
				"y": -4.749503183,
				"z": 1.5187306765,
				"element": "C" 
			},
			{
				"x": 1.3221605525,
				"y": -5.4929332311,
				"z": 2.0894610937,
				"element": "C" 
			},
			{
				"x": 2.2983499789,
				"y": -6.0458311808,
				"z": 1.2920931185,
				"element": "C" 
			},
			{
				"x": 2.2528432494,
				"y": -5.8825662108,
				"z": -0.1147301286,
				"element": "C" 
			},
			{
				"x": 1.2307573993,
				"y": -5.1685842739,
				"z": -0.698231674,
				"element": "C" 
			},
			{
				"x": 0.2071081068,
				"y": -4.5841682631,
				"z": 0.0948361645,
				"element": "C" 
			},
			{
				"x": -0.8635384637,
				"y": -3.8430133207,
				"z": -0.4748858114,
				"element": "C" 
			},
			{
				"x": -1.8392972901,
				"y": -3.2841747714,
				"z": 0.3170743311,
				"element": "C" 
			},
			{
				"x": 0.5952154961,
				"y": 3.1099686658,
				"z": -2.7590485873,
				"element": "H" 
			},
			{
				"x": 1.833645545,
				"y": 3.9817359554,
				"z": -4.7603257076,
				"element": "H" 
			},
			{
				"x": 3.8114093189,
				"y": 5.1104623525,
				"z": -5.7193405218,
				"element": "H" 
			},
			{
				"x": 5.6574791344,
				"y": 5.8849952464,
				"z": -4.2387685861,
				"element": "H" 
			},
			{
				"x": 5.524856749,
				"y": 5.5292829252,
				"z": -1.7951626443,
				"element": "H" 
			},
			{
				"x": 4.2905873163,
				"y": 4.6700359748,
				"z": 0.1858747008,
				"element": "H" 
			},
			{
				"x": 2.3158747527,
				"y": 3.536484266,
				"z": 1.1506667411,
				"element": "H" 
			},
			{
				"x": -2.2137898216,
				"y": 2.6854593031,
				"z": -0.1050014815,
				"element": "H" 
			},
			{
				"x": -4.4413048542,
				"y": 1.9107213979,
				"z": 0.6797942938,
				"element": "H" 
			},
			{
				"x": -4.5964996699,
				"y": 0.0023124168,
				"z": 2.2831369743,
				"element": "H" 
			},
			{
				"x": -0.2989863691,
				"y": -0.318900192,
				"z": 2.2953511324,
				"element": "H" 
			},
			{
				"x": -0.7518661723,
				"y": -4.2918339153,
				"z": 3.396201148,
				"element": "H" 
			},
			{
				"x": 1.3559330155,
				"y": -5.6151126518,
				"z": 3.168621843,
				"element": "H" 
			},
			{
				"x": 3.1106316446,
				"y": -6.610409299,
				"z": 1.7403784362,
				"element": "H" 
			},
			{
				"x": 3.0302591817,
				"y": -6.3236570401,
				"z": -0.7316246456,
				"element": "H" 
			},
			{
				"x": 1.1934530827,
				"y": -5.0409029737,
				"z": -1.7770136918,
				"element": "H" 
			},
			{
				"x": -0.9026602516,
				"y": -3.7212043837,
				"z": -1.5539462417,
				"element": "H" 
			},
			{
				"x": -2.6643914631,
				"y": -2.7217639427,
				"z": -0.1064714773,
				"element": "H" 
			}
		],
		 "valence_orbital": [ 
			{
				"type": "occ",
				"energy": -0.28568,
				"method": "rhf"
			},
			{
				"type": "occ",
				"energy": -0.24691,
				"method": "rhf"
			},
			{
				"type": "occ",
				"energy": -0.24642,
				"method": "rhf"
			},
			{
				"type": "occ",
				"energy": -0.22223,
				"method": "rhf"
			},
			{
				"type": "occ",
				"energy": -0.22081,
				"method": "rhf"
			},
			{
				"type": "unocc",
				"energy": -0.07391,
				"method": "rhf"
			},
			{
				"type": "unocc",
				"energy": -0.05265,
				"method": "rhf"
			},
			{
				"type": "unocc",
				"energy": -0.04571,
				"method": "rhf"
			},
			{
				"type": "unocc",
				"energy": -0.04367,
				"method": "rhf"
			},
			{
				"type": "unocc",
				"energy": -0.01678,
				"method": "rhf"
			}
		],
		"cosmo_sigma_profile": { 
			"-0.025": 0.0,
			"-0.024": 0.0,
			"-0.023": 0.0,
			"-0.022": 0.0,
			"-0.021": 0.0,
			"-0.02": 0.0,
			"-0.019": 0.0,
			"-0.018": 0.0,
			"-0.017": 0.0,
			"-0.016": 0.0,
			"-0.015": 0.0,
			"-0.014": 0.0,
			"-0.013": 0.0,
			"-0.012": 0.0,
			"-0.011": 0.0,
			"-0.01": 0.0,
			"-0.009": 0.458936342673,
			"-0.008": 4.53869215754,
			"-0.007": 16.5509688344,
			"-0.006": 32.865285757,
			"-0.005": 32.9897993324,
			"-0.004": 36.8309211097,
			"-0.003": 31.975904713,
			"-0.002": 31.6895159706,
			"-0.001": 34.1836279862,
			"0.0": 36.7417755946,
			"0.001": 32.8186439164,
			"0.002": 35.6535643772,
			"0.003": 48.1021041393,
			"0.004": 34.4483259833,
			"0.005": 18.3349902821,
			"0.006": 6.68661557422,
			"0.007": 7.14689975228,
			"0.008": 8.56264661388,
			"0.009": 10.573945724,
			"0.01": 9.50767340366,
			"0.011": 3.07029497499,
			"0.012": 0.0243441526359,
			"0.013": 0.0,
			"0.014": 0.0,
			"0.015": 0.0,
			"0.016": 0.0,
			"0.017": 0.0,
			"0.018": 0.0,
			"0.019": 0.0,
			"0.02": 0.0,
			"0.021": 0.0,
			"0.022": 0.0,
			"0.023": 0.0,
			"0.024": 0.0,
			"0.025": 0.0
		}
	}
}
