{
	 "smiles": "COC(=O)C(=O)OC", 
	 "Tm": 326.25, 
	 "num_atms": 14, 
	 "gaussian": { 
		 "optdone": 1, 
		 "sigma_profile": "yes", 
		 "theory": "DFT", 
		 "functional": "B3LYP", 
		 "basiset": "6-31G**", 
		 "properties": { 
			 "R2extent": 1253.7552, 
			 "electric_dipole_moment_norm": 3.56879591739, 
			 "electric_quadrupole_moment_norm": 9.54942106779, 
			 "total_energy": -456.928859355, 
			 "HOMO_LUMO_gap": 0.2243, 
			 "cosmo_polarized_energy": -11.12, 
			 "cosmo_cavitation_energy": 19.31, 
			 "cosmo_dispersion_energy": -14.07, 
			 "cosmo_repulsion_energy": 1.21, 
			 "cosmo_total_nonelectrostatic_energy": 6.44, 
			 "SMD_solvation_energy": 7.22 
		},
		"coords": [
			{
				"x": 0.8444227615,
				"y": 0.836597597,
				"z": -2.9079996533,
				"element": "C" 
			},
			{
				"x": -0.101107486,
				"y": 0.4491192608,
				"z": -1.8929451556,
				"element": "O" 
			},
			{
				"x": 0.3629296162,
				"y": -0.4317712665,
				"z": -0.9967083499,
				"element": "C" 
			},
			{
				"x": 1.4743003376,
				"y": -0.9018405671,
				"z": -0.9852043561,
				"element": "O" 
			},
			{
				"x": -0.6896235741,
				"y": -0.8098430085,
				"z": 0.0633970182,
				"element": "C" 
			},
			{
				"x": -0.4483984198,
				"y": -1.5955016797,
				"z": 0.9470231341,
				"element": "O" 
			},
			{
				"x": -1.8561182324,
				"y": -0.177050163,
				"z": -0.1194601553,
				"element": "O" 
			},
			{
				"x": -2.8764078931,
				"y": -0.4952186661,
				"z": 0.8460811081,
				"element": "C" 
			},
			{
				"x": 1.7208047044,
				"y": 1.3045514885,
				"z": -2.4531451427,
				"element": "H" 
			},
			{
				"x": 0.3152769058,
				"y": 1.5442182174,
				"z": -3.5449167321,
				"element": "H" 
			},
			{
				"x": 1.1661511745,
				"y": -0.0359877208,
				"z": -3.4815773135,
				"element": "H" 
			},
			{
				"x": -2.5441205336,
				"y": -0.2297401825,
				"z": 1.8525662732,
				"element": "H" 
			},
			{
				"x": -3.1064557989,
				"y": -1.5630453114,
				"z": 0.8189239943,
				"element": "H" 
			},
			{
				"x": -3.7453535625,
				"y": 0.0948120019,
				"z": 0.5576653304,
				"element": "H" 
			}
		],
		 "valence_orbital": [ 
			{
				"type": "occ",
				"energy": -0.37166,
				"method": "rhf"
			},
			{
				"type": "occ",
				"energy": -0.32105,
				"method": "rhf"
			},
			{
				"type": "occ",
				"energy": -0.31151,
				"method": "rhf"
			},
			{
				"type": "occ",
				"energy": -0.29952,
				"method": "rhf"
			},
			{
				"type": "occ",
				"energy": -0.28255,
				"method": "rhf"
			},
			{
				"type": "unocc",
				"energy": -0.05825,
				"method": "rhf"
			},
			{
				"type": "unocc",
				"energy": 0.07783,
				"method": "rhf"
			},
			{
				"type": "unocc",
				"energy": 0.10202,
				"method": "rhf"
			},
			{
				"type": "unocc",
				"energy": 0.1061,
				"method": "rhf"
			},
			{
				"type": "unocc",
				"energy": 0.11063,
				"method": "rhf"
			}
		],
		"cosmo_sigma_profile": { 
			"-0.025": 0.0,
			"-0.024": 0.0,
			"-0.023": 0.0,
			"-0.022": 0.0,
			"-0.021": 0.0,
			"-0.02": 0.0,
			"-0.019": 0.0,
			"-0.018": 0.0,
			"-0.017": 0.0,
			"-0.016": 0.0,
			"-0.015": 0.0,
			"-0.014": 0.0,
			"-0.013": 0.0,
			"-0.012": 0.0,
			"-0.011": 0.0,
			"-0.01": 0.0,
			"-0.009": 0.107761481897,
			"-0.008": 1.54295651889,
			"-0.007": 9.33439125471,
			"-0.006": 16.8686549616,
			"-0.005": 19.041153113,
			"-0.004": 18.8484642618,
			"-0.003": 12.4010945043,
			"-0.002": 6.71933252657,
			"-0.001": 5.48357865352,
			"0.0": 5.08429749344,
			"0.001": 4.57812186605,
			"0.002": 4.27120045211,
			"0.003": 3.95300638248,
			"0.004": 3.49370106972,
			"0.005": 3.78972762464,
			"0.006": 3.7620286774,
			"0.007": 3.92723388967,
			"0.008": 4.79035956045,
			"0.009": 5.81869395803,
			"0.01": 9.68655120866,
			"0.011": 6.68632455639,
			"0.012": 2.73037555019,
			"0.013": 0.478009800393,
			"0.014": 0.0,
			"0.015": 0.0,
			"0.016": 0.0,
			"0.017": 0.0,
			"0.018": 0.0,
			"0.019": 0.0,
			"0.02": 0.0,
			"0.021": 0.0,
			"0.022": 0.0,
			"0.023": 0.0,
			"0.024": 0.0,
			"0.025": 0.0
		}
	}
}
