{
	 "smiles": "CC(C)(C)C1=CC(=C(O)C(=C1)N=NC1=CC(=CC(=C1O)C(C)(C)C)C(C)(C)C)C(C)(C)C", 
	 "Tm": 519.15, 
	 "num_atms": 74, 
	 "gaussian": { 
		 "optdone": 1, 
		 "sigma_profile": "yes", 
		 "theory": "DFT", 
		 "functional": "B3LYP", 
		 "basiset": "6-31G**", 
		 "properties": { 
			 "R2extent": 21560.8434, 
			 "electric_dipole_moment_norm": 4.01576903843, 
			 "electric_quadrupole_moment_norm": 14.1922493756, 
			 "total_energy": -1352.2423868, 
			 "HOMO_LUMO_gap": 0.12784, 
			 "cosmo_polarized_energy": -13.13, 
			 "cosmo_cavitation_energy": 69.24, 
			 "cosmo_dispersion_energy": -45.51, 
			 "cosmo_repulsion_energy": 3.42, 
			 "cosmo_total_nonelectrostatic_energy": 27.15, 
			 "SMD_solvation_energy": 11.51 
		},
		"coords": [
			{
				"x": 0.4581198671,
				"y": 4.9976324712,
				"z": -2.1667977155,
				"element": "C" 
			},
			{
				"x": 1.2163724707,
				"y": 4.0517458379,
				"z": -3.1280636454,
				"element": "C" 
			},
			{
				"x": 0.2728598239,
				"y": 3.6341018979,
				"z": -4.2808969755,
				"element": "C" 
			},
			{
				"x": 2.3983315261,
				"y": 4.8316119801,
				"z": -3.7345696774,
				"element": "C" 
			},
			{
				"x": 1.6716756551,
				"y": 2.7971972527,
				"z": -2.3589891002,
				"element": "C" 
			},
			{
				"x": 3.0181088773,
				"y": 2.4180813296,
				"z": -2.2311609652,
				"element": "C" 
			},
			{
				"x": 3.4800060846,
				"y": 1.2858111955,
				"z": -1.5413987873,
				"element": "C" 
			},
			{
				"x": 2.504844343,
				"y": 0.4647824492,
				"z": -0.930053359,
				"element": "C" 
			},
			{
				"x": 2.8410797782,
				"y": -0.6421976239,
				"z": -0.2489834926,
				"element": "O" 
			},
			{
				"x": 1.1226603106,
				"y": 0.8225554523,
				"z": -1.0387842904,
				"element": "C" 
			},
			{
				"x": 0.7371095146,
				"y": 1.9712449383,
				"z": -1.7450241782,
				"element": "C" 
			},
			{
				"x": 0.0546018292,
				"y": 0.1079825369,
				"z": -0.4843039486,
				"element": "N" 
			},
			{
				"x": 0.3567171407,
				"y": -0.9498040519,
				"z": 0.1539086627,
				"element": "N" 
			},
			{
				"x": -0.6725905707,
				"y": -1.7118764096,
				"z": 0.7455265488,
				"element": "C" 
			},
			{
				"x": -0.2992310062,
				"y": -3.0343532161,
				"z": 1.0222551035,
				"element": "C" 
			},
			{
				"x": -1.1727440491,
				"y": -3.938528141,
				"z": 1.6166569309,
				"element": "C" 
			},
			{
				"x": -2.4443731786,
				"y": -3.4506994422,
				"z": 1.9421577734,
				"element": "C" 
			},
			{
				"x": -2.8799058217,
				"y": -2.1347070746,
				"z": 1.720300125,
				"element": "C" 
			},
			{
				"x": -1.9621691617,
				"y": -1.2406383529,
				"z": 1.1160234566,
				"element": "C" 
			},
			{
				"x": -2.2138968243,
				"y": 0.0727205669,
				"z": 0.877809293,
				"element": "O" 
			},
			{
				"x": -4.3435262411,
				"y": -1.8210008913,
				"z": 2.1557176081,
				"element": "C" 
			},
			{
				"x": -4.8438205616,
				"y": -0.3767009988,
				"z": 1.9134864828,
				"element": "C" 
			},
			{
				"x": -5.3044726565,
				"y": -2.7469797529,
				"z": 1.3676692707,
				"element": "C" 
			},
			{
				"x": -4.4931337695,
				"y": -2.0883749503,
				"z": 3.6740124283,
				"element": "C" 
			},
			{
				"x": -0.8000626766,
				"y": -5.4017104917,
				"z": 1.9168544031,
				"element": "C" 
			},
			{
				"x": -1.7549965312,
				"y": -6.3472439652,
				"z": 1.1501465234,
				"element": "C" 
			},
			{
				"x": 0.6437221064,
				"y": -5.7285894371,
				"z": 1.4905843019,
				"element": "C" 
			},
			{
				"x": -0.9260881937,
				"y": -5.6682885318,
				"z": 3.4356639965,
				"element": "C" 
			},
			{
				"x": 5.0127490693,
				"y": 1.0446451953,
				"z": -1.5188127311,
				"element": "C" 
			},
			{
				"x": 5.4758075606,
				"y": -0.2114382357,
				"z": -0.7496692813,
				"element": "C" 
			},
			{
				"x": 5.5194849188,
				"y": 0.8992231845,
				"z": -2.9756846674,
				"element": "C" 
			},
			{
				"x": 5.7027447029,
				"y": 2.2637483512,
				"z": -0.8568554868,
				"element": "C" 
			},
			{
				"x": 1.1048484903,
				"y": 5.3194288915,
				"z": -1.3437978181,
				"element": "H" 
			},
			{
				"x": -0.4194758889,
				"y": 4.5117967104,
				"z": -1.7298985099,
				"element": "H" 
			},
			{
				"x": 0.1142178872,
				"y": 5.8919703322,
				"z": -2.6993930277,
				"element": "H" 
			},
			{
				"x": -0.0728149934,
				"y": 4.5155624818,
				"z": -4.8334198671,
				"element": "H" 
			},
			{
				"x": -0.6105127219,
				"y": 3.1060316712,
				"z": -3.9095795071,
				"element": "H" 
			},
			{
				"x": 0.7856717382,
				"y": 2.9707676988,
				"z": -4.9852624777,
				"element": "H" 
			},
			{
				"x": 2.9624300492,
				"y": 4.2262118956,
				"z": -4.4520263803,
				"element": "H" 
			},
			{
				"x": 3.0923375068,
				"y": 5.1858466538,
				"z": -2.9649397398,
				"element": "H" 
			},
			{
				"x": 2.0240472714,
				"y": 5.7107885811,
				"z": -4.2692550733,
				"element": "H" 
			},
			{
				"x": 3.7669547792,
				"y": 3.0442043246,
				"z": -2.6998346811,
				"element": "H" 
			},
			{
				"x": 1.9765109735,
				"y": -1.0395897192,
				"z": 0.0743783351,
				"element": "H" 
			},
			{
				"x": -0.3283906807,
				"y": 2.1739998316,
				"z": -1.7805057448,
				"element": "H" 
			},
			{
				"x": 0.7061614665,
				"y": -3.3200741055,
				"z": 0.7372727307,
				"element": "H" 
			},
			{
				"x": -3.1454983888,
				"y": -4.1379484142,
				"z": 2.4027652141,
				"element": "H" 
			},
			{
				"x": -3.0299976018,
				"y": 0.3273951883,
				"z": 1.3190077184,
				"element": "H" 
			},
			{
				"x": -4.8099111119,
				"y": -0.0862329728,
				"z": 0.8581627031,
				"element": "H" 
			},
			{
				"x": -5.8923114032,
				"y": -0.3106017988,
				"z": 2.2202948364,
				"element": "H" 
			},
			{
				"x": -4.3143904252,
				"y": 0.364052243,
				"z": 2.5287815553,
				"element": "H" 
			},
			{
				"x": -5.0862419247,
				"y": -3.8046996713,
				"z": 1.5330235658,
				"element": "H" 
			},
			{
				"x": -6.3410058428,
				"y": -2.5693118698,
				"z": 1.6763054424,
				"element": "H" 
			},
			{
				"x": -5.232324888,
				"y": -2.5573575166,
				"z": 0.2917881761,
				"element": "H" 
			},
			{
				"x": -5.5227876637,
				"y": -1.8924886393,
				"z": 3.9945082958,
				"element": "H" 
			},
			{
				"x": -3.8279303374,
				"y": -1.4386408774,
				"z": 4.2524263633,
				"element": "H" 
			},
			{
				"x": -4.2561497579,
				"y": -3.1221536914,
				"z": 3.9368832708,
				"element": "H" 
			},
			{
				"x": -1.5043888627,
				"y": -7.3940448988,
				"z": 1.3564419324,
				"element": "H" 
			},
			{
				"x": -2.7995234111,
				"y": -6.1939198772,
				"z": 1.4387570259,
				"element": "H" 
			},
			{
				"x": -1.6804578459,
				"y": -6.1864147565,
				"z": 0.0696980455,
				"element": "H" 
			},
			{
				"x": 0.8691901462,
				"y": -6.7746118487,
				"z": 1.7220872815,
				"element": "H" 
			},
			{
				"x": 1.3749297232,
				"y": -5.1086288635,
				"z": 2.0195967503,
				"element": "H" 
			},
			{
				"x": 0.7922073927,
				"y": -5.5895806606,
				"z": 0.414742146,
				"element": "H" 
			},
			{
				"x": -0.6675392064,
				"y": -6.708464398,
				"z": 3.6642889542,
				"element": "H" 
			},
			{
				"x": -0.2532039648,
				"y": -5.0180074591,
				"z": 4.0041339792,
				"element": "H" 
			},
			{
				"x": -1.9438842983,
				"y": -5.4932659762,
				"z": 3.7979113214,
				"element": "H" 
			},
			{
				"x": 5.1907629416,
				"y": -0.1782962294,
				"z": 0.3031942944,
				"element": "H" 
			},
			{
				"x": 6.5692823048,
				"y": -0.2667997426,
				"z": -0.8073796566,
				"element": "H" 
			},
			{
				"x": 5.0647963454,
				"y": -1.1290902462,
				"z": -1.1737351492,
				"element": "H" 
			},
			{
				"x": 5.3050584511,
				"y": 1.7834043145,
				"z": -3.583251566,
				"element": "H" 
			},
			{
				"x": 5.0537352732,
				"y": 0.0371116991,
				"z": -3.4643394335,
				"element": "H" 
			},
			{
				"x": 6.6048803418,
				"y": 0.7469193458,
				"z": -2.9838491461,
				"element": "H" 
			},
			{
				"x": 5.4946975526,
				"y": 3.1994925957,
				"z": -1.3841251254,
				"element": "H" 
			},
			{
				"x": 6.7896911689,
				"y": 2.122962993,
				"z": -0.8484346999,
				"element": "H" 
			},
			{
				"x": 5.3695450793,
				"y": 2.3828237087,
				"z": 0.1793530588,
				"element": "H" 
			}
		],
		 "valence_orbital": [ 
			{
				"type": "occ",
				"energy": -0.25942,
				"method": "rhf"
			},
			{
				"type": "occ",
				"energy": -0.22838,
				"method": "rhf"
			},
			{
				"type": "occ",
				"energy": -0.21792,
				"method": "rhf"
			},
			{
				"type": "occ",
				"energy": -0.21008,
				"method": "rhf"
			},
			{
				"type": "occ",
				"energy": -0.19625,
				"method": "rhf"
			},
			{
				"type": "unocc",
				"energy": -0.06841,
				"method": "rhf"
			},
			{
				"type": "unocc",
				"energy": 0.00281,
				"method": "rhf"
			},
			{
				"type": "unocc",
				"energy": 0.01317,
				"method": "rhf"
			},
			{
				"type": "unocc",
				"energy": 0.02002,
				"method": "rhf"
			},
			{
				"type": "unocc",
				"energy": 0.04703,
				"method": "rhf"
			}
		],
		"cosmo_sigma_profile": { 
			"-0.025": 0.0,
			"-0.024": 0.0,
			"-0.023": 0.0,
			"-0.022": 0.0,
			"-0.021": 0.0,
			"-0.02": 0.0,
			"-0.019": 0.0,
			"-0.018": 0.0,
			"-0.017": 0.0,
			"-0.016": 0.0,
			"-0.015": 0.0,
			"-0.014": 0.0,
			"-0.013": 0.1632350142,
			"-0.012": 0.837686805424,
			"-0.011": 0.827623052076,
			"-0.01": 0.991793896056,
			"-0.009": 1.93861061042,
			"-0.008": 1.07908824821,
			"-0.007": 1.25003130617,
			"-0.006": 5.09945136054,
			"-0.005": 14.7292575821,
			"-0.004": 22.7202190378,
			"-0.003": 53.2895895723,
			"-0.002": 72.2443402754,
			"-0.001": 71.825756674,
			"0.0": 67.9908679726,
			"0.001": 84.7535218783,
			"0.002": 53.1282429325,
			"0.003": 24.8506904199,
			"0.004": 22.3341935093,
			"0.005": 14.1934235344,
			"0.006": 4.87326803944,
			"0.007": 3.1253656908,
			"0.008": 3.9045344664,
			"0.009": 3.45163003433,
			"0.01": 1.76009217338,
			"0.011": 1.35876415942,
			"0.012": 1.60887939027,
			"0.013": 0.956250966503,
			"0.014": 0.531644091152,
			"0.015": 0.976402180068,
			"0.016": 0.593743967483,
			"0.017": 0.094620028986,
			"0.018": 0.0,
			"0.019": 0.0,
			"0.02": 0.0,
			"0.021": 0.0,
			"0.022": 0.0,
			"0.023": 0.0,
			"0.024": 0.0,
			"0.025": 0.0
		}
	}
}
