{
	 "smiles": "CCC1=NN=C(NC(=O)CCl)S1", 
	 "Tm": 375.15, 
	 "num_atms": 20, 
	 "gaussian": { 
		 "optdone": 1, 
		 "sigma_profile": "yes", 
		 "theory": "DFT", 
		 "functional": "B3LYP", 
		 "basiset": "6-31G**", 
		 "properties": { 
			 "R2extent": 3815.8178, 
			 "electric_dipole_moment_norm": 1.97135218061, 
			 "electric_quadrupole_moment_norm": 14.6334916531, 
			 "total_energy": -1331.31199348, 
			 "HOMO_LUMO_gap": 0.20369, 
			 "cosmo_polarized_energy": -13.82, 
			 "cosmo_cavitation_energy": 27.88, 
			 "cosmo_dispersion_energy": -21.24, 
			 "cosmo_repulsion_energy": 1.68, 
			 "cosmo_total_nonelectrostatic_energy": 8.32, 
			 "SMD_solvation_energy": 2.99 
		},
		"coords": [
			{
				"x": -0.5684877708,
				"y": 3.5834652574,
				"z": 3.3365087823,
				"element": "C" 
			},
			{
				"x": -1.1655514436,
				"y": 3.6160368104,
				"z": 1.9188249373,
				"element": "C" 
			},
			{
				"x": -0.9901342858,
				"y": 2.3329046004,
				"z": 1.1606022706,
				"element": "C" 
			},
			{
				"x": -1.9755437088,
				"y": 1.5387979467,
				"z": 0.8562904234,
				"element": "N" 
			},
			{
				"x": -1.584585871,
				"y": 0.4154659479,
				"z": 0.1764301541,
				"element": "N" 
			},
			{
				"x": -0.2963871382,
				"y": 0.38345851,
				"z": -0.0221201911,
				"element": "C" 
			},
			{
				"x": 0.2812050054,
				"y": -0.6821215935,
				"z": -0.6971662739,
				"element": "N" 
			},
			{
				"x": 1.6143996237,
				"y": -0.8147177137,
				"z": -0.9607276841,
				"element": "C" 
			},
			{
				"x": 2.4596810217,
				"y": 0.0022585625,
				"z": -0.62678953,
				"element": "O" 
			},
			{
				"x": 2.0697414511,
				"y": -2.0599499129,
				"z": -1.7182677649,
				"element": "C" 
			},
			{
				"x": 0.7790993526,
				"y": -3.2379785163,
				"z": -2.1872622658,
				"element": "Cl" 
			},
			{
				"x": 0.58736849,
				"y": 1.7497292129,
				"z": 0.6154878613,
				"element": "S" 
			},
			{
				"x": -0.7509417436,
				"y": 4.5342486738,
				"z": 3.8462827142,
				"element": "H" 
			},
			{
				"x": -1.0211428941,
				"y": 2.7843099518,
				"z": 3.9306214677,
				"element": "H" 
			},
			{
				"x": 0.5131764058,
				"y": 3.4169501121,
				"z": 3.3134783704,
				"element": "H" 
			},
			{
				"x": -0.7224054386,
				"y": 4.4423786657,
				"z": 1.3496135087,
				"element": "H" 
			},
			{
				"x": -2.2435440969,
				"y": 3.7964556038,
				"z": 1.9654889674,
				"element": "H" 
			},
			{
				"x": -0.367618371,
				"y": -1.3987838223,
				"z": -1.0039032572,
				"element": "H" 
			},
			{
				"x": 2.5682809619,
				"y": -1.7372605428,
				"z": -2.6329484945,
				"element": "H" 
			},
			{
				"x": 2.7895904504,
				"y": -2.5917477538,
				"z": -1.0951439961,
				"element": "H" 
			}
		],
		 "valence_orbital": [ 
			{
				"type": "occ",
				"energy": -0.30592,
				"method": "rhf"
			},
			{
				"type": "occ",
				"energy": -0.29404,
				"method": "rhf"
			},
			{
				"type": "occ",
				"energy": -0.29078,
				"method": "rhf"
			},
			{
				"type": "occ",
				"energy": -0.26358,
				"method": "rhf"
			},
			{
				"type": "occ",
				"energy": -0.24925,
				"method": "rhf"
			},
			{
				"type": "unocc",
				"energy": -0.04556,
				"method": "rhf"
			},
			{
				"type": "unocc",
				"energy": -0.00319,
				"method": "rhf"
			},
			{
				"type": "unocc",
				"energy": 0.00187,
				"method": "rhf"
			},
			{
				"type": "unocc",
				"energy": 0.01174,
				"method": "rhf"
			},
			{
				"type": "unocc",
				"energy": 0.04554,
				"method": "rhf"
			}
		],
		"cosmo_sigma_profile": { 
			"-0.025": 0.0,
			"-0.024": 0.0,
			"-0.023": 0.0,
			"-0.022": 0.0,
			"-0.021": 0.0,
			"-0.02": 0.0,
			"-0.019": 0.0,
			"-0.018": 0.0,
			"-0.017": 0.0,
			"-0.016": 0.0,
			"-0.015": 0.0,
			"-0.014": 0.0,
			"-0.013": 0.349175655895,
			"-0.012": 0.713752940714,
			"-0.011": 0.863733654619,
			"-0.01": 4.18913823207,
			"-0.009": 5.56411480076,
			"-0.008": 5.45830357958,
			"-0.007": 6.28930191699,
			"-0.006": 9.78074182565,
			"-0.005": 10.8090836241,
			"-0.004": 15.7651235605,
			"-0.003": 17.3936133546,
			"-0.002": 24.8522548439,
			"-0.001": 20.5882784886,
			"0.0": 18.5452462481,
			"0.001": 11.655720439,
			"0.002": 10.1117388898,
			"0.003": 8.92700508638,
			"0.004": 10.2040121454,
			"0.005": 8.97564948217,
			"0.006": 2.81498028861,
			"0.007": 2.9811708696,
			"0.008": 4.65454714272,
			"0.009": 3.80181826629,
			"0.01": 5.08944664013,
			"0.011": 5.87150850053,
			"0.012": 4.87715394687,
			"0.013": 2.26602755934,
			"0.014": 1.9658712867,
			"0.015": 0.747768900466,
			"0.016": 0.0,
			"0.017": 0.0,
			"0.018": 0.0,
			"0.019": 0.0,
			"0.02": 0.0,
			"0.021": 0.0,
			"0.022": 0.0,
			"0.023": 0.0,
			"0.024": 0.0,
			"0.025": 0.0
		}
	}
}
