{
	 "smiles": "COC(=O)C1=CC=C(OC)C(Cl)=C1", 
	 "Tm": 368.15, 
	 "num_atms": 22, 
	 "gaussian": { 
		 "optdone": 1, 
		 "sigma_profile": "yes", 
		 "theory": "DFT", 
		 "functional": "B3LYP", 
		 "basiset": "6-31G**", 
		 "properties": { 
			 "R2extent": 4382.0148, 
			 "electric_dipole_moment_norm": 1.45007021209, 
			 "electric_quadrupole_moment_norm": 14.5136867277, 
			 "total_energy": -1034.23883445, 
			 "HOMO_LUMO_gap": 0.19859, 
			 "cosmo_polarized_energy": -8.51, 
			 "cosmo_cavitation_energy": 28.48, 
			 "cosmo_dispersion_energy": -20.75, 
			 "cosmo_repulsion_energy": 1.65, 
			 "cosmo_total_nonelectrostatic_energy": 9.38, 
			 "SMD_solvation_energy": 7.08 
		},
		"coords": [
			{
				"x": 2.5368154688,
				"y": 2.2380659407,
				"z": 1.4003573339,
				"element": "C" 
			},
			{
				"x": 1.2754901439,
				"y": 1.9508152236,
				"z": 0.7764860942,
				"element": "O" 
			},
			{
				"x": 1.2103179764,
				"y": 0.766526165,
				"z": 0.1273844289,
				"element": "C" 
			},
			{
				"x": 2.1417464096,
				"y": -0.0123991896,
				"z": 0.0677009706,
				"element": "O" 
			},
			{
				"x": -0.121836641,
				"y": 0.5314995402,
				"z": -0.4970559641,
				"element": "C" 
			},
			{
				"x": -0.3170936439,
				"y": -0.6620393349,
				"z": -1.2037020481,
				"element": "C" 
			},
			{
				"x": -1.5441105825,
				"y": -0.9239797547,
				"z": -1.8012248695,
				"element": "C" 
			},
			{
				"x": -2.5959302321,
				"y": -0.0045710277,
				"z": -1.7099724595,
				"element": "C" 
			},
			{
				"x": -3.773230883,
				"y": -0.2633766594,
				"z": -2.3535014759,
				"element": "O" 
			},
			{
				"x": -4.8012637335,
				"y": -0.8443618614,
				"z": -1.5423889451,
				"element": "C" 
			},
			{
				"x": -2.3880644183,
				"y": 1.1929327856,
				"z": -1.0027224832,
				"element": "C" 
			},
			{
				"x": -3.6775222435,
				"y": 2.3765026275,
				"z": -0.8985344839,
				"element": "Cl" 
			},
			{
				"x": -1.16322606,
				"y": 1.4633641881,
				"z": -0.4010098027,
				"element": "C" 
			},
			{
				"x": 2.778013065,
				"y": 1.4780026268,
				"z": 2.1476315319,
				"element": "H" 
			},
			{
				"x": 2.4165733593,
				"y": 3.2139086287,
				"z": 1.870475063,
				"element": "H" 
			},
			{
				"x": 3.336368985,
				"y": 2.2656102857,
				"z": 0.6558987229,
				"element": "H" 
			},
			{
				"x": 0.5038024015,
				"y": -1.3671805923,
				"z": -1.2717529998,
				"element": "H" 
			},
			{
				"x": -1.7142275011,
				"y": -1.8371160019,
				"z": -2.3625038159,
				"element": "H" 
			},
			{
				"x": -5.0870551361,
				"y": -0.178612252,
				"z": -0.7209032428,
				"element": "H" 
			},
			{
				"x": -5.6581518913,
				"y": -0.9953383669,
				"z": -2.2007481296,
				"element": "H" 
			},
			{
				"x": -4.4786035137,
				"y": -1.8104518732,
				"z": -1.1345609275,
				"element": "H" 
			},
			{
				"x": -1.0172113296,
				"y": 2.392298902,
				"z": 0.1356475022,
				"element": "H" 
			}
		],
		 "valence_orbital": [ 
			{
				"type": "occ",
				"energy": -0.3058,
				"method": "rhf"
			},
			{
				"type": "occ",
				"energy": -0.28631,
				"method": "rhf"
			},
			{
				"type": "occ",
				"energy": -0.27768,
				"method": "rhf"
			},
			{
				"type": "occ",
				"energy": -0.26447,
				"method": "rhf"
			},
			{
				"type": "occ",
				"energy": -0.24977,
				"method": "rhf"
			},
			{
				"type": "unocc",
				"energy": -0.05118,
				"method": "rhf"
			},
			{
				"type": "unocc",
				"energy": -0.02061,
				"method": "rhf"
			},
			{
				"type": "unocc",
				"energy": 0.02562,
				"method": "rhf"
			},
			{
				"type": "unocc",
				"energy": 0.05035,
				"method": "rhf"
			},
			{
				"type": "unocc",
				"energy": 0.10493,
				"method": "rhf"
			}
		],
		"cosmo_sigma_profile": { 
			"-0.025": 0.0,
			"-0.024": 0.0,
			"-0.023": 0.0,
			"-0.022": 0.0,
			"-0.021": 0.0,
			"-0.02": 0.0,
			"-0.019": 0.0,
			"-0.018": 0.0,
			"-0.017": 0.0,
			"-0.016": 0.0,
			"-0.015": 0.0,
			"-0.014": 0.0,
			"-0.013": 0.0,
			"-0.012": 0.0,
			"-0.011": 0.0,
			"-0.01": 0.0,
			"-0.009": 0.0,
			"-0.008": 0.401295710712,
			"-0.007": 3.62435931827,
			"-0.006": 11.7981371638,
			"-0.005": 17.3318183603,
			"-0.004": 21.5848685607,
			"-0.003": 24.9294605553,
			"-0.002": 18.1763048922,
			"-0.001": 14.9837205932,
			"0.0": 19.1657701367,
			"0.001": 23.8483483535,
			"0.002": 18.9677416121,
			"0.003": 11.2496728626,
			"0.004": 11.9255318979,
			"0.005": 7.45426986637,
			"0.006": 3.07690508956,
			"0.007": 3.75998419231,
			"0.008": 2.71633562601,
			"0.009": 3.09947667039,
			"0.01": 3.78619652071,
			"0.011": 4.00786558271,
			"0.012": 3.57486792261,
			"0.013": 0.0,
			"0.014": 0.0,
			"0.015": 0.0,
			"0.016": 0.0,
			"0.017": 0.0,
			"0.018": 0.0,
			"0.019": 0.0,
			"0.02": 0.0,
			"0.021": 0.0,
			"0.022": 0.0,
			"0.023": 0.0,
			"0.024": 0.0,
			"0.025": 0.0
		}
	}
}
