{
	 "smiles": "COCCOC1=CC(CC(O)=O)=CC=C1", 
	 "Tm": 321.15, 
	 "num_atms": 29, 
	 "gaussian": { 
		 "optdone": 1, 
		 "sigma_profile": "yes", 
		 "theory": "DFT", 
		 "functional": "B3LYP", 
		 "basiset": "6-31G**", 
		 "properties": { 
			 "R2extent": 4667.8579, 
			 "electric_dipole_moment_norm": 4.13866348717, 
			 "electric_quadrupole_moment_norm": 23.8031792471, 
			 "total_energy": -728.485362409, 
			 "HOMO_LUMO_gap": 0.20748, 
			 "cosmo_polarized_energy": -16.37, 
			 "cosmo_cavitation_energy": 32.75, 
			 "cosmo_dispersion_energy": -22.88, 
			 "cosmo_repulsion_energy": 1.83, 
			 "cosmo_total_nonelectrostatic_energy": 11.7, 
			 "SMD_solvation_energy": 7.45 
		},
		"coords": [
			{
				"x": -3.0874220388,
				"y": 1.5070183632,
				"z": 1.0537539056,
				"element": "C" 
			},
			{
				"x": -3.2697330396,
				"y": 0.9984072032,
				"z": -0.2584202328,
				"element": "O" 
			},
			{
				"x": -2.0907098047,
				"y": 0.552711951,
				"z": -0.8939687874,
				"element": "C" 
			},
			{
				"x": -1.6368707912,
				"y": -0.841132441,
				"z": -0.453683363,
				"element": "C" 
			},
			{
				"x": -1.0451276867,
				"y": -0.8762284881,
				"z": 0.8500708653,
				"element": "O" 
			},
			{
				"x": 0.2704526119,
				"y": -0.5621788854,
				"z": 1.0178124434,
				"element": "C" 
			},
			{
				"x": 1.1437066877,
				"y": -0.1705384529,
				"z": -0.0033992845,
				"element": "C" 
			},
			{
				"x": 2.4876417669,
				"y": 0.119540875,
				"z": 0.2847695733,
				"element": "C" 
			},
			{
				"x": 3.4324446373,
				"y": 0.4910121703,
				"z": -0.8366916361,
				"element": "C" 
			},
			{
				"x": 4.1333701879,
				"y": -0.6938069621,
				"z": -1.524479864,
				"element": "C" 
			},
			{
				"x": 4.3309042662,
				"y": -1.79514932,
				"z": -0.7651844104,
				"element": "O" 
			},
			{
				"x": 4.5284660765,
				"y": -0.6437020348,
				"z": -2.6623271723,
				"element": "O" 
			},
			{
				"x": 2.9499435938,
				"y": 0.0144168873,
				"z": 1.6020554793,
				"element": "C" 
			},
			{
				"x": 2.0718263919,
				"y": -0.3775753129,
				"z": 2.6206433498,
				"element": "C" 
			},
			{
				"x": 0.7442493408,
				"y": -0.6643103029,
				"z": 2.3375286046,
				"element": "C" 
			},
			{
				"x": -4.0425568462,
				"y": 1.9439881166,
				"z": 1.3555985169,
				"element": "H" 
			},
			{
				"x": -2.3166171784,
				"y": 2.2930303384,
				"z": 1.0751971038,
				"element": "H" 
			},
			{
				"x": -2.8056409238,
				"y": 0.725596647,
				"z": 1.7695716861,
				"element": "H" 
			},
			{
				"x": -2.3261503193,
				"y": 0.501517868,
				"z": -1.9640737079,
				"element": "H" 
			},
			{
				"x": -1.2736631355,
				"y": 1.2800709413,
				"z": -0.7638015605,
				"element": "H" 
			},
			{
				"x": -2.5154770961,
				"y": -1.4872372948,
				"z": -0.3790452594,
				"element": "H" 
			},
			{
				"x": -0.9549488226,
				"y": -1.277403698,
				"z": -1.1948906915,
				"element": "H" 
			},
			{
				"x": 0.8008452034,
				"y": -0.0788957106,
				"z": -1.0275113258,
				"element": "H" 
			},
			{
				"x": 2.9261731477,
				"y": 1.0477831101,
				"z": -1.6283400614,
				"element": "H" 
			},
			{
				"x": 4.2323207116,
				"y": 1.1396784555,
				"z": -0.4581202524,
				"element": "H" 
			},
			{
				"x": 3.9018956464,
				"y": -1.6759669111,
				"z": 0.0988223271,
				"element": "H" 
			},
			{
				"x": 3.9813270822,
				"y": 0.2638856027,
				"z": 1.8375936761,
				"element": "H" 
			},
			{
				"x": 2.4294668224,
				"y": -0.4520553201,
				"z": 3.643426421,
				"element": "H" 
			},
			{
				"x": 0.0506835082,
				"y": -0.970877395,
				"z": 3.1132936571,
				"element": "H" 
			}
		],
		 "valence_orbital": [ 
			{
				"type": "occ",
				"energy": -0.30965,
				"method": "rhf"
			},
			{
				"type": "occ",
				"energy": -0.27997,
				"method": "rhf"
			},
			{
				"type": "occ",
				"energy": -0.26685,
				"method": "rhf"
			},
			{
				"type": "occ",
				"energy": -0.25546,
				"method": "rhf"
			},
			{
				"type": "occ",
				"energy": -0.23367,
				"method": "rhf"
			},
			{
				"type": "unocc",
				"energy": -0.02619,
				"method": "rhf"
			},
			{
				"type": "unocc",
				"energy": -0.01417,
				"method": "rhf"
			},
			{
				"type": "unocc",
				"energy": 0.01728,
				"method": "rhf"
			},
			{
				"type": "unocc",
				"energy": 0.07329,
				"method": "rhf"
			},
			{
				"type": "unocc",
				"energy": 0.08917,
				"method": "rhf"
			}
		],
		"cosmo_sigma_profile": { 
			"-0.025": 0.0,
			"-0.024": 0.0,
			"-0.023": 0.0,
			"-0.022": 0.0,
			"-0.021": 0.0,
			"-0.02": 0.0,
			"-0.019": 0.0,
			"-0.018": 0.0,
			"-0.017": 0.0,
			"-0.016": 0.0,
			"-0.015": 0.0,
			"-0.014": 0.0,
			"-0.013": 0.202807949149,
			"-0.012": 0.563417718777,
			"-0.011": 1.13826578978,
			"-0.01": 1.26947220671,
			"-0.009": 1.80275668606,
			"-0.008": 5.30141248078,
			"-0.007": 10.6160069216,
			"-0.006": 17.8111560882,
			"-0.005": 20.5064881099,
			"-0.004": 24.969694479,
			"-0.003": 22.0437953543,
			"-0.002": 21.6229244037,
			"-0.001": 15.0711948573,
			"0.0": 12.7911836789,
			"0.001": 12.3040735384,
			"0.002": 13.230448959,
			"0.003": 12.9349024832,
			"0.004": 11.5433829171,
			"0.005": 9.12409940936,
			"0.006": 5.20581521679,
			"0.007": 4.07321962808,
			"0.008": 4.4225441717,
			"0.009": 5.58164577516,
			"0.01": 5.87790009559,
			"0.011": 6.03328526958,
			"0.012": 7.35719812899,
			"0.013": 4.78314757556,
			"0.014": 0.475621021326,
			"0.015": 0.0,
			"0.016": 0.0,
			"0.017": 0.0,
			"0.018": 0.0,
			"0.019": 0.0,
			"0.02": 0.0,
			"0.021": 0.0,
			"0.022": 0.0,
			"0.023": 0.0,
			"0.024": 0.0,
			"0.025": 0.0
		}
	}
}
