{
	 "smiles": "NC1=NOC(=N1)C1=CSC=C1", 
	 "Tm": 470.15, 
	 "num_atms": 16, 
	 "gaussian": { 
		 "optdone": 1, 
		 "sigma_profile": "yes", 
		 "theory": "DFT", 
		 "functional": "B3LYP", 
		 "basiset": "6-31G**", 
		 "properties": { 
			 "R2extent": 3492.9644, 
			 "electric_dipole_moment_norm": 1.8368809134, 
			 "electric_quadrupole_moment_norm": 14.4680733448, 
			 "total_energy": -869.268653336, 
			 "HOMO_LUMO_gap": 0.18065, 
			 "cosmo_polarized_energy": -12.1, 
			 "cosmo_cavitation_energy": 23.03, 
			 "cosmo_dispersion_energy": -17.98, 
			 "cosmo_repulsion_energy": 1.39, 
			 "cosmo_total_nonelectrostatic_energy": 6.44, 
			 "SMD_solvation_energy": 2.19 
		},
		"coords": [
			{
				"x": 0.9003204944,
				"y": 0.3076972867,
				"z": 2.6708075449,
				"element": "N" 
			},
			{
				"x": 0.5522737794,
				"y": -0.1119661129,
				"z": 1.4122465543,
				"element": "C" 
			},
			{
				"x": -0.6966384247,
				"y": -0.16822182,
				"z": 0.990322753,
				"element": "N" 
			},
			{
				"x": -0.5488205209,
				"y": -0.7164181193,
				"z": -0.30992492,
				"element": "O" 
			},
			{
				"x": 0.7657757284,
				"y": -0.9049003112,
				"z": -0.5034584693,
				"element": "C" 
			},
			{
				"x": 1.5007806603,
				"y": -0.5522423933,
				"z": 0.5185835689,
				"element": "N" 
			},
			{
				"x": 1.2027647144,
				"y": -1.4581650362,
				"z": -1.773567284,
				"element": "C" 
			},
			{
				"x": 2.5253835737,
				"y": -1.7012846756,
				"z": -2.0656993951,
				"element": "C" 
			},
			{
				"x": 2.7127474403,
				"y": -2.3559184033,
				"z": -3.6478300634,
				"element": "S" 
			},
			{
				"x": 0.9979662997,
				"y": -2.3066778679,
				"z": -3.9298656463,
				"element": "C" 
			},
			{
				"x": 0.3244609685,
				"y": -1.8095590219,
				"z": -2.8534938032,
				"element": "C" 
			},
			{
				"x": 1.8433974288,
				"y": 0.6597599545,
				"z": 2.7451375534,
				"element": "H" 
			},
			{
				"x": 0.2033440635,
				"y": 0.8598345472,
				"z": 3.1494473139,
				"element": "H" 
			},
			{
				"x": 3.3768223306,
				"y": -1.5258290473,
				"z": -1.4242566002,
				"element": "H" 
			},
			{
				"x": 0.5949994183,
				"y": -2.6481423086,
				"z": -4.8728681656,
				"element": "H" 
			},
			{
				"x": -0.7509779548,
				"y": -1.6907666708,
				"z": -2.8106809412,
				"element": "H" 
			}
		],
		 "valence_orbital": [ 
			{
				"type": "occ",
				"energy": -0.31456,
				"method": "rhf"
			},
			{
				"type": "occ",
				"energy": -0.29022,
				"method": "rhf"
			},
			{
				"type": "occ",
				"energy": -0.26554,
				"method": "rhf"
			},
			{
				"type": "occ",
				"energy": -0.25208,
				"method": "rhf"
			},
			{
				"type": "occ",
				"energy": -0.22949,
				"method": "rhf"
			},
			{
				"type": "unocc",
				"energy": -0.04884,
				"method": "rhf"
			},
			{
				"type": "unocc",
				"energy": -0.00424,
				"method": "rhf"
			},
			{
				"type": "unocc",
				"energy": 0.01966,
				"method": "rhf"
			},
			{
				"type": "unocc",
				"energy": 0.05587,
				"method": "rhf"
			},
			{
				"type": "unocc",
				"energy": 0.0722,
				"method": "rhf"
			}
		],
		"cosmo_sigma_profile": { 
			"-0.025": 0.0,
			"-0.024": 0.0,
			"-0.023": 0.0,
			"-0.022": 0.0,
			"-0.021": 0.0,
			"-0.02": 0.0,
			"-0.019": 0.0,
			"-0.018": 0.0,
			"-0.017": 0.0,
			"-0.016": 0.0,
			"-0.015": 0.102837960981,
			"-0.014": 2.19481371961,
			"-0.013": 2.28024085856,
			"-0.012": 2.25467642015,
			"-0.011": 2.26544582935,
			"-0.01": 3.04094139011,
			"-0.009": 5.11205316661,
			"-0.008": 5.48661313254,
			"-0.007": 6.3147490865,
			"-0.006": 6.6723113255,
			"-0.005": 6.48208091555,
			"-0.004": 6.00957377669,
			"-0.003": 9.259110993,
			"-0.002": 10.2727352107,
			"-0.001": 13.3182282566,
			"0.0": 12.9685399167,
			"0.001": 16.2821336754,
			"0.002": 21.4037277746,
			"0.003": 13.4818072595,
			"0.004": 6.89537263533,
			"0.005": 4.60417487773,
			"0.006": 4.94139983138,
			"0.007": 5.81477759775,
			"0.008": 4.54736727474,
			"0.009": 2.75834298958,
			"0.01": 3.37219596875,
			"0.011": 3.06143875338,
			"0.012": 3.10744974401,
			"0.013": 2.00879436121,
			"0.014": 1.23067169517,
			"0.015": 0.182009512273,
			"0.016": 0.0,
			"0.017": 0.0,
			"0.018": 0.0,
			"0.019": 0.0,
			"0.02": 0.0,
			"0.021": 0.0,
			"0.022": 0.0,
			"0.023": 0.0,
			"0.024": 0.0,
			"0.025": 0.0
		}
	}
}
