{
	 "smiles": "CC(C)(C)C1=CC=C(C=C1)S(=O)(=O)C=C", 
	 "Tm": 365.15, 
	 "num_atms": 31, 
	 "gaussian": { 
		 "optdone": 1, 
		 "sigma_profile": "yes", 
		 "theory": "DFT", 
		 "functional": "B3LYP", 
		 "basiset": "6-31G**", 
		 "properties": { 
			 "R2extent": 4912.6083, 
			 "electric_dipole_moment_norm": 5.59467532749, 
			 "electric_quadrupole_moment_norm": 21.6418251857, 
			 "total_energy": -1015.47420597, 
			 "HOMO_LUMO_gap": 0.21159, 
			 "cosmo_polarized_energy": -13.7, 
			 "cosmo_cavitation_energy": 34.67, 
			 "cosmo_dispersion_energy": -24.6, 
			 "cosmo_repulsion_energy": 1.87, 
			 "cosmo_total_nonelectrostatic_energy": 11.94, 
			 "SMD_solvation_energy": 6.41 
		},
		"coords": [
			{
				"x": 3.0863317347,
				"y": -0.9185763391,
				"z": 1.9032896128,
				"element": "C" 
			},
			{
				"x": 1.6809071087,
				"y": -0.426452722,
				"z": 2.2977282252,
				"element": "C" 
			},
			{
				"x": 1.8409671226,
				"y": 0.7358772234,
				"z": 3.3071852855,
				"element": "C" 
			},
			{
				"x": 0.931370378,
				"y": -1.5980105794,
				"z": 2.9767736595,
				"element": "C" 
			},
			{
				"x": 0.8688778552,
				"y": 0.0614474185,
				"z": 1.0847205784,
				"element": "C" 
			},
			{
				"x": -0.4412457466,
				"y": 0.542779682,
				"z": 1.2705068705,
				"element": "C" 
			},
			{
				"x": -1.2130178288,
				"y": 0.9940279289,
				"z": 0.2053800692,
				"element": "C" 
			},
			{
				"x": -0.6745546773,
				"y": 0.9680367153,
				"z": -1.0834846931,
				"element": "C" 
			},
			{
				"x": 0.6214833695,
				"y": 0.5074703139,
				"z": -1.303446838,
				"element": "C" 
			},
			{
				"x": 1.3805373867,
				"y": 0.0579955925,
				"z": -0.2212026464,
				"element": "C" 
			},
			{
				"x": -1.6577667381,
				"y": 1.54082466,
				"z": -2.4714822228,
				"element": "S" 
			},
			{
				"x": -0.7315748804,
				"y": 1.8891631673,
				"z": -3.5613882127,
				"element": "O" 
			},
			{
				"x": -2.6456270493,
				"y": 2.5067168428,
				"z": -1.9626840927,
				"element": "O" 
			},
			{
				"x": -2.5424760816,
				"y": 0.0720546232,
				"z": -2.9914571351,
				"element": "C" 
			},
			{
				"x": -3.8690001314,
				"y": 0.0253607678,
				"z": -2.9286261882,
				"element": "C" 
			},
			{
				"x": 3.620136502,
				"y": -1.2571754138,
				"z": 2.7968097783,
				"element": "H" 
			},
			{
				"x": 3.6842021562,
				"y": -0.1240083175,
				"z": 1.4450739106,
				"element": "H" 
			},
			{
				"x": 3.0435970069,
				"y": -1.7622109848,
				"z": 1.2065308055,
				"element": "H" 
			},
			{
				"x": 2.3714728544,
				"y": 1.5793302317,
				"z": 2.8536795138,
				"element": "H" 
			},
			{
				"x": 2.4145987805,
				"y": 0.4026572161,
				"z": 4.1790545357,
				"element": "H" 
			},
			{
				"x": 0.8747960865,
				"y": 1.1027075871,
				"z": 3.6656907262,
				"element": "H" 
			},
			{
				"x": 0.8088723484,
				"y": -2.4388347694,
				"z": 2.2861821219,
				"element": "H" 
			},
			{
				"x": 1.4942299211,
				"y": -1.9529437749,
				"z": 3.847054332,
				"element": "H" 
			},
			{
				"x": -0.0631321749,
				"y": -1.3017946763,
				"z": 3.3230110712,
				"element": "H" 
			},
			{
				"x": -0.8683193774,
				"y": 0.5734193205,
				"z": 2.2680537647,
				"element": "H" 
			},
			{
				"x": -2.2139193866,
				"y": 1.3808268584,
				"z": 0.3650604386,
				"element": "H" 
			},
			{
				"x": 1.0357890715,
				"y": 0.5222062817,
				"z": -2.3060443061,
				"element": "H" 
			},
			{
				"x": 2.3881512321,
				"y": -0.2915966228,
				"z": -0.4116521392,
				"element": "H" 
			},
			{
				"x": -1.9088586958,
				"y": -0.7123474115,
				"z": -3.394348079,
				"element": "H" 
			},
			{
				"x": -4.4331137905,
				"y": 0.8606639362,
				"z": -2.524737581,
				"element": "H" 
			},
			{
				"x": -4.417214356,
				"y": -0.8406147556,
				"z": -3.2876311655,
				"element": "H" 
			}
		],
		 "valence_orbital": [ 
			{
				"type": "occ",
				"energy": -0.30422,
				"method": "rhf"
			},
			{
				"type": "occ",
				"energy": -0.29055,
				"method": "rhf"
			},
			{
				"type": "occ",
				"energy": -0.28397,
				"method": "rhf"
			},
			{
				"type": "occ",
				"energy": -0.26713,
				"method": "rhf"
			},
			{
				"type": "occ",
				"energy": -0.25978,
				"method": "rhf"
			},
			{
				"type": "unocc",
				"energy": -0.04819,
				"method": "rhf"
			},
			{
				"type": "unocc",
				"energy": -0.01852,
				"method": "rhf"
			},
			{
				"type": "unocc",
				"energy": -0.01169,
				"method": "rhf"
			},
			{
				"type": "unocc",
				"energy": 0.06424,
				"method": "rhf"
			},
			{
				"type": "unocc",
				"energy": 0.08047,
				"method": "rhf"
			}
		],
		"cosmo_sigma_profile": { 
			"-0.025": 0.0,
			"-0.024": 0.0,
			"-0.023": 0.0,
			"-0.022": 0.0,
			"-0.021": 0.0,
			"-0.02": 0.0,
			"-0.019": 0.0,
			"-0.018": 0.0,
			"-0.017": 0.0,
			"-0.016": 0.0,
			"-0.015": 0.0,
			"-0.014": 0.0,
			"-0.013": 0.0,
			"-0.012": 0.0,
			"-0.011": 0.0,
			"-0.01": 0.518774177896,
			"-0.009": 2.3642864012,
			"-0.008": 3.57935912347,
			"-0.007": 6.4195624104,
			"-0.006": 13.5076332212,
			"-0.005": 13.7781044774,
			"-0.004": 15.3433075965,
			"-0.003": 28.6092793598,
			"-0.002": 28.272043061,
			"-0.001": 25.6208214951,
			"0.0": 26.7584074513,
			"0.001": 33.7725495576,
			"0.002": 17.6257403357,
			"0.003": 15.5839478369,
			"0.004": 6.26179187473,
			"0.005": 3.14550170554,
			"0.006": 2.63306370607,
			"0.007": 2.90220853869,
			"0.008": 2.3415498518,
			"0.009": 3.11149624469,
			"0.01": 5.62125847695,
			"0.011": 7.51993308575,
			"0.012": 7.67522902189,
			"0.013": 0.704019463453,
			"0.014": 0.0,
			"0.015": 0.0,
			"0.016": 0.0,
			"0.017": 0.0,
			"0.018": 0.0,
			"0.019": 0.0,
			"0.02": 0.0,
			"0.021": 0.0,
			"0.022": 0.0,
			"0.023": 0.0,
			"0.024": 0.0,
			"0.025": 0.0
		}
	}
}
