{
	 "smiles": "CC(C)CCCC(C)C1CCC2C3CC=C4CC(CCC4(C)C3CCC12C)OC(=O)C1=CC=CC=C1", 
	 "Tm": 423.15, 
	 "num_atms": 86, 
	 "gaussian": { 
		 "optdone": 1, 
		 "sigma_profile": "yes", 
		 "theory": "DFT", 
		 "functional": "B3LYP", 
		 "basiset": "6-31G**", 
		 "properties": { 
			 "R2extent": 34471.6456, 
			 "electric_dipole_moment_norm": 2.11434586811, 
			 "electric_quadrupole_moment_norm": 20.3061639528, 
			 "total_energy": -1476.24753075, 
			 "HOMO_LUMO_gap": 0.18822, 
			 "cosmo_polarized_energy": -8.7, 
			 "cosmo_cavitation_energy": 75.19, 
			 "cosmo_dispersion_energy": -50.94, 
			 "cosmo_repulsion_energy": 3.76, 
			 "cosmo_total_nonelectrostatic_energy": 28.01, 
			 "SMD_solvation_energy": 11.39 
		},
		"coords": [
			{
				"x": -2.4957881737,
				"y": 0.3547613601,
				"z": 8.7790487507,
				"element": "C" 
			},
			{
				"x": -2.6458457596,
				"y": -1.0387732623,
				"z": 8.1484815632,
				"element": "C" 
			},
			{
				"x": -4.0935619634,
				"y": -1.2875466677,
				"z": 7.6962834724,
				"element": "C" 
			},
			{
				"x": -1.6177155204,
				"y": -1.2953468301,
				"z": 7.0229308349,
				"element": "C" 
			},
			{
				"x": -1.7058848529,
				"y": -0.3792238513,
				"z": 5.7918345858,
				"element": "C" 
			},
			{
				"x": -0.656214963,
				"y": -0.7414773755,
				"z": 4.7283468509,
				"element": "C" 
			},
			{
				"x": -0.5446497267,
				"y": 0.2433329405,
				"z": 3.539123293,
				"element": "C" 
			},
			{
				"x": -1.9039440426,
				"y": 0.3903645057,
				"z": 2.8327117537,
				"element": "C" 
			},
			{
				"x": 0.5807128612,
				"y": -0.1898929375,
				"z": 2.5600931788,
				"element": "C" 
			},
			{
				"x": 1.9199082278,
				"y": -0.5519679685,
				"z": 3.2388439793,
				"element": "C" 
			},
			{
				"x": 2.8902724114,
				"y": -0.6833454464,
				"z": 2.0650040232,
				"element": "C" 
			},
			{
				"x": 2.5404391421,
				"y": 0.5153174363,
				"z": 1.164654232,
				"element": "C" 
			},
			{
				"x": 3.0031334535,
				"y": 0.412925653,
				"z": -0.3138790807,
				"element": "C" 
			},
			{
				"x": 2.8846564198,
				"y": -0.9713028935,
				"z": -0.9872975062,
				"element": "C" 
			},
			{
				"x": 3.0490846782,
				"y": -0.9021741306,
				"z": -2.4841676636,
				"element": "C" 
			},
			{
				"x": 3.0780306906,
				"y": 0.2239008614,
				"z": -3.208752989,
				"element": "C" 
			},
			{
				"x": 3.2475005137,
				"y": 0.2090846883,
				"z": -4.7102890868,
				"element": "C" 
			},
			{
				"x": 2.0697567273,
				"y": 0.8726473403,
				"z": -5.4602095651,
				"element": "C" 
			},
			{
				"x": 1.2218617239,
				"y": 1.7611404801,
				"z": -4.54172868,
				"element": "C" 
			},
			{
				"x": 2.1026022335,
				"y": 2.5300024797,
				"z": -3.5457693871,
				"element": "C" 
			},
			{
				"x": 2.9387068877,
				"y": 1.6124857375,
				"z": -2.5823928582,
				"element": "C" 
			},
			{
				"x": 4.3411418189,
				"y": 2.2640105816,
				"z": -2.4496651518,
				"element": "C" 
			},
			{
				"x": 2.2964419777,
				"y": 1.4950718896,
				"z": -1.1614086339,
				"element": "C" 
			},
			{
				"x": 0.7619837397,
				"y": 1.2568375797,
				"z": -1.1614274604,
				"element": "C" 
			},
			{
				"x": 0.212981777,
				"y": 0.5420795471,
				"z": 0.0994208766,
				"element": "C" 
			},
			{
				"x": 0.9988438465,
				"y": 0.8108377245,
				"z": 1.4011084716,
				"element": "C" 
			},
			{
				"x": 0.8313413473,
				"y": 2.2848254644,
				"z": 1.8273423949,
				"element": "C" 
			},
			{
				"x": 1.2429751136,
				"y": -0.1986947174,
				"z": -5.9970473995,
				"element": "O" 
			},
			{
				"x": 0.507825541,
				"y": 0.0853265858,
				"z": -7.0951172116,
				"element": "C" 
			},
			{
				"x": 0.5025499966,
				"y": 1.1726095639,
				"z": -7.6431043142,
				"element": "O" 
			},
			{
				"x": -0.2909710928,
				"y": -1.0861625192,
				"z": -7.5611387606,
				"element": "C" 
			},
			{
				"x": -0.2713403177,
				"y": -2.320971966,
				"z": -6.897705559,
				"element": "C" 
			},
			{
				"x": -1.0395413146,
				"y": -3.3802202378,
				"z": -7.3786717343,
				"element": "C" 
			},
			{
				"x": -1.8278938167,
				"y": -3.2134222134,
				"z": -8.520011638,
				"element": "C" 
			},
			{
				"x": -1.8492844664,
				"y": -1.983149964,
				"z": -9.1827996254,
				"element": "C" 
			},
			{
				"x": -1.084003097,
				"y": -0.9221674307,
				"z": -8.7050817198,
				"element": "C" 
			},
			{
				"x": -1.4678939812,
				"y": 0.5327039942,
				"z": 9.1149438498,
				"element": "H" 
			},
			{
				"x": -2.7573165509,
				"y": 1.1492083877,
				"z": 8.0711801786,
				"element": "H" 
			},
			{
				"x": -3.1540584471,
				"y": 0.4634013738,
				"z": 9.6480271193,
				"element": "H" 
			},
			{
				"x": -2.4227142584,
				"y": -1.7748918369,
				"z": 8.9346897605,
				"element": "H" 
			},
			{
				"x": -4.7850389991,
				"y": -1.2146304452,
				"z": 8.5429246649,
				"element": "H" 
			},
			{
				"x": -4.2089733846,
				"y": -2.2846293968,
				"z": 7.2563854323,
				"element": "H" 
			},
			{
				"x": -4.4162766906,
				"y": -0.5540944076,
				"z": 6.94895812,
				"element": "H" 
			},
			{
				"x": -0.6083357918,
				"y": -1.213906736,
				"z": 7.4506926008,
				"element": "H" 
			},
			{
				"x": -1.7204242581,
				"y": -2.3386929252,
				"z": 6.6918768653,
				"element": "H" 
			},
			{
				"x": -1.5615829478,
				"y": 0.666978199,
				"z": 6.0942001036,
				"element": "H" 
			},
			{
				"x": -2.7124663897,
				"y": -0.4401110369,
				"z": 5.3639009857,
				"element": "H" 
			},
			{
				"x": 0.3158763544,
				"y": -0.8057480416,
				"z": 5.2297996469,
				"element": "H" 
			},
			{
				"x": -0.8661299981,
				"y": -1.7508529839,
				"z": 4.3426445552,
				"element": "H" 
			},
			{
				"x": -0.2734872879,
				"y": 1.2207756279,
				"z": 3.9633299352,
				"element": "H" 
			},
			{
				"x": -2.2300939305,
				"y": -0.570257486,
				"z": 2.4145007962,
				"element": "H" 
			},
			{
				"x": -2.6797700063,
				"y": 0.7308224821,
				"z": 3.5240576019,
				"element": "H" 
			},
			{
				"x": -1.8693208426,
				"y": 1.1108915756,
				"z": 2.0132100068,
				"element": "H" 
			},
			{
				"x": 0.2264519785,
				"y": -1.1087712327,
				"z": 2.0657892787,
				"element": "H" 
			},
			{
				"x": 2.2377813677,
				"y": 0.2576661261,
				"z": 3.9114325775,
				"element": "H" 
			},
			{
				"x": 1.8628701382,
				"y": -1.4654527673,
				"z": 3.8370542742,
				"element": "H" 
			},
			{
				"x": 3.9440356239,
				"y": -0.6887719399,
				"z": 2.3656143097,
				"element": "H" 
			},
			{
				"x": 2.698667615,
				"y": -1.6321675702,
				"z": 1.549966971,
				"element": "H" 
			},
			{
				"x": 3.0798556891,
				"y": 1.3810107052,
				"z": 1.5727342068,
				"element": "H" 
			},
			{
				"x": 4.0751173047,
				"y": 0.6420417984,
				"z": -0.303821999,
				"element": "H" 
			},
			{
				"x": 3.6472850573,
				"y": -1.646522157,
				"z": -0.5765080515,
				"element": "H" 
			},
			{
				"x": 1.9266379636,
				"y": -1.4579593507,
				"z": -0.7586740916,
				"element": "H" 
			},
			{
				"x": 3.1449795082,
				"y": -1.8576341657,
				"z": -3.0008064068,
				"element": "H" 
			},
			{
				"x": 3.3761114492,
				"y": -0.8108568765,
				"z": -5.0833991771,
				"element": "H" 
			},
			{
				"x": 4.1616335411,
				"y": 0.7566893459,
				"z": -4.9767979557,
				"element": "H" 
			},
			{
				"x": 2.4337728951,
				"y": 1.4517715606,
				"z": -6.3126427929,
				"element": "H" 
			},
			{
				"x": 0.6268659417,
				"y": 2.4490633161,
				"z": -5.1495555696,
				"element": "H" 
			},
			{
				"x": 0.5210104852,
				"y": 1.1122151212,
				"z": -4.008412267,
				"element": "H" 
			},
			{
				"x": 2.7903570593,
				"y": 3.1653257998,
				"z": -4.1187019331,
				"element": "H" 
			},
			{
				"x": 1.4873649554,
				"y": 3.2207199866,
				"z": -2.9597332124,
				"element": "H" 
			},
			{
				"x": 4.2482642251,
				"y": 3.2908186424,
				"z": -2.0759618884,
				"element": "H" 
			},
			{
				"x": 4.9951287989,
				"y": 1.7120091655,
				"z": -1.7704894616,
				"element": "H" 
			},
			{
				"x": 4.8451882905,
				"y": 2.314056974,
				"z": -3.4202889797,
				"element": "H" 
			},
			{
				"x": 2.4808267976,
				"y": 2.4583139151,
				"z": -0.6652061327,
				"element": "H" 
			},
			{
				"x": 0.4823133587,
				"y": 0.6468005231,
				"z": -2.0244073008,
				"element": "H" 
			},
			{
				"x": 0.2520130201,
				"y": 2.2176246058,
				"z": -1.2907676577,
				"element": "H" 
			},
			{
				"x": -0.839131366,
				"y": 0.8173947244,
				"z": 0.2260471198,
				"element": "H" 
			},
			{
				"x": 0.2077647637,
				"y": -0.539173415,
				"z": -0.0763576508,
				"element": "H" 
			},
			{
				"x": 1.2433070504,
				"y": 2.9601639856,
				"z": 1.0713275079,
				"element": "H" 
			},
			{
				"x": -0.2180981473,
				"y": 2.5598285771,
				"z": 1.9701253118,
				"element": "H" 
			},
			{
				"x": 1.3615183637,
				"y": 2.4917265739,
				"z": 2.763681806,
				"element": "H" 
			},
			{
				"x": 0.3423050271,
				"y": -2.4406192666,
				"z": -6.0123513083,
				"element": "H" 
			},
			{
				"x": -1.0238774369,
				"y": -4.3362896772,
				"z": -6.8635201518,
				"element": "H" 
			},
			{
				"x": -2.4252157266,
				"y": -4.0410764835,
				"z": -8.8922369543,
				"element": "H" 
			},
			{
				"x": -2.4623154525,
				"y": -1.8530272795,
				"z": -10.0698280186,
				"element": "H" 
			},
			{
				"x": -1.083494751,
				"y": 0.0427923831,
				"z": -9.2005888611,
				"element": "H" 
			}
		],
		 "valence_orbital": [ 
			{
				"type": "occ",
				"energy": -0.2674,
				"method": "rhf"
			},
			{
				"type": "occ",
				"energy": -0.26684,
				"method": "rhf"
			},
			{
				"type": "occ",
				"energy": -0.25589,
				"method": "rhf"
			},
			{
				"type": "occ",
				"energy": -0.25486,
				"method": "rhf"
			},
			{
				"type": "occ",
				"energy": -0.22908,
				"method": "rhf"
			},
			{
				"type": "unocc",
				"energy": -0.04086,
				"method": "rhf"
			},
			{
				"type": "unocc",
				"energy": -0.00456,
				"method": "rhf"
			},
			{
				"type": "unocc",
				"energy": 0.02609,
				"method": "rhf"
			},
			{
				"type": "unocc",
				"energy": 0.06298,
				"method": "rhf"
			},
			{
				"type": "unocc",
				"energy": 0.06785,
				"method": "rhf"
			}
		],
		"cosmo_sigma_profile": { 
			"-0.025": 0.0,
			"-0.024": 0.0,
			"-0.023": 0.0,
			"-0.022": 0.0,
			"-0.021": 0.0,
			"-0.02": 0.0,
			"-0.019": 0.0,
			"-0.018": 0.0,
			"-0.017": 0.0,
			"-0.016": 0.0,
			"-0.015": 0.0,
			"-0.014": 0.0,
			"-0.013": 0.0,
			"-0.012": 0.0,
			"-0.011": 0.0,
			"-0.01": 0.0,
			"-0.009": 0.0,
			"-0.008": 0.0,
			"-0.007": 0.840759886698,
			"-0.006": 7.50584600256,
			"-0.005": 12.1394652393,
			"-0.004": 20.3744004619,
			"-0.003": 31.5275262321,
			"-0.002": 70.8995116166,
			"-0.001": 110.727277392,
			"0.0": 116.239825429,
			"0.001": 87.1352604819,
			"0.002": 55.8891320894,
			"0.003": 22.2810240438,
			"0.004": 19.5383314665,
			"0.005": 7.43987490225,
			"0.006": 3.93844171163,
			"0.007": 2.2276639042,
			"0.008": 1.38027789327,
			"0.009": 1.5395282126,
			"0.01": 1.78076791238,
			"0.011": 2.14763903919,
			"0.012": 4.02720945059,
			"0.013": 0.599976596764,
			"0.014": 0.0,
			"0.015": 0.0,
			"0.016": 0.0,
			"0.017": 0.0,
			"0.018": 0.0,
			"0.019": 0.0,
			"0.02": 0.0,
			"0.021": 0.0,
			"0.022": 0.0,
			"0.023": 0.0,
			"0.024": 0.0,
			"0.025": 0.0
		}
	}
}
