{
	 "smiles": "CC(C)CC(N)C1=NN=NN1", 
	 "Tm": 546.15, 
	 "num_atms": 24, 
	 "gaussian": { 
		 "optdone": 1, 
		 "sigma_profile": "yes", 
		 "theory": "DFT", 
		 "functional": "B3LYP", 
		 "basiset": "6-31G**", 
		 "properties": { 
			 "R2extent": 1851.562, 
			 "electric_dipole_moment_norm": 5.4426761965, 
			 "electric_quadrupole_moment_norm": 9.00249882921, 
			 "total_energy": -510.1758366, 
			 "HOMO_LUMO_gap": 0.22551, 
			 "cosmo_polarized_energy": -19.49, 
			 "cosmo_cavitation_energy": 25.81, 
			 "cosmo_dispersion_energy": -18.33, 
			 "cosmo_repulsion_energy": 1.46, 
			 "cosmo_total_nonelectrostatic_energy": 8.95, 
			 "SMD_solvation_energy": 1.53 
		},
		"coords": [
			{
				"x": 3.1512615852,
				"y": -0.0539915129,
				"z": -0.7606889849,
				"element": "C" 
			},
			{
				"x": 2.2132928121,
				"y": -1.2060352254,
				"z": -0.3636863334,
				"element": "C" 
			},
			{
				"x": 1.2522977124,
				"y": -1.5498473375,
				"z": -1.5158979161,
				"element": "C" 
			},
			{
				"x": 1.5054574137,
				"y": -1.0207937863,
				"z": 1.0024589241,
				"element": "C" 
			},
			{
				"x": 0.7328996368,
				"y": 0.2895644941,
				"z": 1.3592099094,
				"element": "C" 
			},
			{
				"x": 1.5428889832,
				"y": 1.4751457368,
				"z": 1.6386237997,
				"element": "N" 
			},
			{
				"x": -0.3015421857,
				"y": 0.6649665973,
				"z": 0.3355939454,
				"element": "C" 
			},
			{
				"x": -0.165982739,
				"y": 1.5567336761,
				"z": -0.6280537158,
				"element": "N" 
			},
			{
				"x": -1.3301235869,
				"y": 1.5394517061,
				"z": -1.3379204902,
				"element": "N" 
			},
			{
				"x": -2.1616361874,
				"y": 0.682544061,
				"z": -0.8485392657,
				"element": "N" 
			},
			{
				"x": -1.5298473124,
				"y": 0.1201452024,
				"z": 0.2113840213,
				"element": "N" 
			},
			{
				"x": 3.8451095411,
				"y": 0.2054942674,
				"z": 0.0464120258,
				"element": "H" 
			},
			{
				"x": 2.5893130225,
				"y": 0.8433566015,
				"z": -1.0362155109,
				"element": "H" 
			},
			{
				"x": 3.7508586949,
				"y": -0.3415409234,
				"z": -1.6310571769,
				"element": "H" 
			},
			{
				"x": 2.8448763811,
				"y": -2.0941494342,
				"z": -0.2146449088,
				"element": "H" 
			},
			{
				"x": 0.5861612564,
				"y": -2.3780452422,
				"z": -1.2480998935,
				"element": "H" 
			},
			{
				"x": 1.8204159645,
				"y": -1.8587508309,
				"z": -2.3999011271,
				"element": "H" 
			},
			{
				"x": 0.6370387099,
				"y": -0.6963203564,
				"z": -1.8116955363,
				"element": "H" 
			},
			{
				"x": 0.8114876867,
				"y": -1.8630607164,
				"z": 1.1376713564,
				"element": "H" 
			},
			{
				"x": 2.2541100627,
				"y": -1.1322855646,
				"z": 1.799281505,
				"element": "H" 
			},
			{
				"x": 0.1851093278,
				"y": 0.0458235903,
				"z": 2.2832048152,
				"element": "H" 
			},
			{
				"x": 2.4118706412,
				"y": 1.2067556581,
				"z": 2.0899563513,
				"element": "H" 
			},
			{
				"x": 1.7727078239,
				"y": 1.9593881807,
				"z": 0.77666855,
				"element": "H" 
			},
			{
				"x": -1.9980252448,
				"y": -0.5786488416,
				"z": 0.7700356561,
				"element": "H" 
			}
		],
		 "valence_orbital": [ 
			{
				"type": "occ",
				"energy": -0.32638,
				"method": "rhf"
			},
			{
				"type": "occ",
				"energy": -0.29916,
				"method": "rhf"
			},
			{
				"type": "occ",
				"energy": -0.29308,
				"method": "rhf"
			},
			{
				"type": "occ",
				"energy": -0.28684,
				"method": "rhf"
			},
			{
				"type": "occ",
				"energy": -0.2425,
				"method": "rhf"
			},
			{
				"type": "unocc",
				"energy": -0.01699,
				"method": "rhf"
			},
			{
				"type": "unocc",
				"energy": 0.01867,
				"method": "rhf"
			},
			{
				"type": "unocc",
				"energy": 0.0469,
				"method": "rhf"
			},
			{
				"type": "unocc",
				"energy": 0.06701,
				"method": "rhf"
			},
			{
				"type": "unocc",
				"energy": 0.10685,
				"method": "rhf"
			}
		],
		"cosmo_sigma_profile": { 
			"-0.025": 0.0,
			"-0.024": 0.0,
			"-0.023": 0.0,
			"-0.022": 0.0,
			"-0.021": 0.0,
			"-0.02": 0.0,
			"-0.019": 0.982203582164,
			"-0.018": 2.08112727214,
			"-0.017": 1.36362887031,
			"-0.016": 0.992560904674,
			"-0.015": 1.07161957054,
			"-0.014": 1.57683050335,
			"-0.013": 1.14103219497,
			"-0.012": 0.478824984488,
			"-0.011": 0.989630711339,
			"-0.01": 2.34637109638,
			"-0.009": 2.25055571707,
			"-0.008": 4.07275126046,
			"-0.007": 4.44320393252,
			"-0.006": 5.6627534485,
			"-0.005": 6.79188634072,
			"-0.004": 9.45755820615,
			"-0.003": 15.6121707846,
			"-0.002": 21.1083003176,
			"-0.001": 21.2267221526,
			"0.0": 18.3398252678,
			"0.001": 16.9073427008,
			"0.002": 9.92796908257,
			"0.003": 4.31248155359,
			"0.004": 3.57147947212,
			"0.005": 3.18827667909,
			"0.006": 4.11439761662,
			"0.007": 4.95067975885,
			"0.008": 5.18186046503,
			"0.009": 4.97603938737,
			"0.01": 6.54310062867,
			"0.011": 4.83993139925,
			"0.012": 3.69085009022,
			"0.013": 2.75307649053,
			"0.014": 1.56145882359,
			"0.015": 0.683139164048,
			"0.016": 0.363673377909,
			"0.017": 0.463144027236,
			"0.018": 0.784914956439,
			"0.019": 0.178438373704,
			"0.02": 0.0,
			"0.021": 0.0,
			"0.022": 0.0,
			"0.023": 0.0,
			"0.024": 0.0,
			"0.025": 0.0
		}
	}
}
