{
	 "smiles": "OC(=O)C1CCN1", 
	 "Tm": 479.15, 
	 "num_atms": 14, 
	 "gaussian": { 
		 "optdone": 1, 
		 "sigma_profile": "yes", 
		 "theory": "DFT", 
		 "functional": "B3LYP", 
		 "basiset": "6-31G**", 
		 "properties": { 
			 "R2extent": 2058.0773, 
			 "electric_dipole_moment_norm": 5.41515828208, 
			 "electric_quadrupole_moment_norm": 27.8537098962, 
			 "total_energy": -361.818969905, 
			 "HOMO_LUMO_gap": 0.26218, 
			 "cosmo_polarized_energy": -12.86, 
			 "cosmo_cavitation_energy": 17.21, 
			 "cosmo_dispersion_energy": -13.12, 
			 "cosmo_repulsion_energy": 1.14, 
			 "cosmo_total_nonelectrostatic_energy": 5.23, 
			 "SMD_solvation_energy": 2.92 
		},
		"coords": [
			{
				"x": 1.9081426195,
				"y": -1.6252810351,
				"z": -3.4419418628,
				"element": "O" 
			},
			{
				"x": 1.1436288534,
				"y": -0.5296385698,
				"z": -3.5812792807,
				"element": "C" 
			},
			{
				"x": 0.5311835783,
				"y": -0.2610982672,
				"z": -4.5880141635,
				"element": "O" 
			},
			{
				"x": 1.0872104011,
				"y": 0.320815832,
				"z": -2.3132753737,
				"element": "C" 
			},
			{
				"x": -0.0647107658,
				"y": -0.0035957371,
				"z": -1.3142997811,
				"element": "C" 
			},
			{
				"x": 1.0267874677,
				"y": -0.0454537851,
				"z": -0.2172605884,
				"element": "C" 
			},
			{
				"x": 2.0680274592,
				"y": -0.1084147823,
				"z": -1.280742614,
				"element": "N" 
			},
			{
				"x": 2.2809683078,
				"y": -1.5572100538,
				"z": -2.5308137363,
				"element": "H" 
			},
			{
				"x": 1.1218354385,
				"y": 1.3798285034,
				"z": -2.5906750568,
				"element": "H" 
			},
			{
				"x": -0.8418820945,
				"y": 0.7543602197,
				"z": -1.2146353113,
				"element": "H" 
			},
			{
				"x": -0.5292267667,
				"y": -0.9736481442,
				"z": -1.5037444953,
				"element": "H" 
			},
			{
				"x": 1.0618500148,
				"y": 0.8765340335,
				"z": 0.3761380932,
				"element": "H" 
			},
			{
				"x": 1.0310564179,
				"y": -0.9029059027,
				"z": 0.4628810408,
				"element": "H" 
			},
			{
				"x": 2.8722290688,
				"y": 0.5006076887,
				"z": -1.15193687,
				"element": "H" 
			}
		],
		 "valence_orbital": [ 
			{
				"type": "occ",
				"energy": -0.35859,
				"method": "rhf"
			},
			{
				"type": "occ",
				"energy": -0.35171,
				"method": "rhf"
			},
			{
				"type": "occ",
				"energy": -0.29883,
				"method": "rhf"
			},
			{
				"type": "occ",
				"energy": -0.27958,
				"method": "rhf"
			},
			{
				"type": "occ",
				"energy": -0.24885,
				"method": "rhf"
			},
			{
				"type": "unocc",
				"energy": 0.01333,
				"method": "rhf"
			},
			{
				"type": "unocc",
				"energy": 0.05364,
				"method": "rhf"
			},
			{
				"type": "unocc",
				"energy": 0.09317,
				"method": "rhf"
			},
			{
				"type": "unocc",
				"energy": 0.10529,
				"method": "rhf"
			},
			{
				"type": "unocc",
				"energy": 0.11334,
				"method": "rhf"
			}
		],
		"cosmo_sigma_profile": { 
			"-0.025": 0.0,
			"-0.024": 0.0,
			"-0.023": 0.0,
			"-0.022": 0.0,
			"-0.021": 0.0,
			"-0.02": 0.0,
			"-0.019": 0.0,
			"-0.018": 0.0,
			"-0.017": 0.0,
			"-0.016": 0.0,
			"-0.015": 0.0,
			"-0.014": 0.0,
			"-0.013": 0.0,
			"-0.012": 0.877107678261,
			"-0.011": 1.65011111223,
			"-0.01": 1.92909346114,
			"-0.009": 1.71643079185,
			"-0.008": 2.79478291237,
			"-0.007": 3.56009000496,
			"-0.006": 8.09450132745,
			"-0.005": 14.2297217935,
			"-0.004": 15.6043877644,
			"-0.003": 13.1478073729,
			"-0.002": 11.5122992062,
			"-0.001": 10.4286336026,
			"0.0": 4.42924041579,
			"0.001": 3.2621749848,
			"0.002": 2.63550574995,
			"0.003": 2.15076335208,
			"0.004": 2.34378265992,
			"0.005": 2.65093162627,
			"0.006": 3.03350677607,
			"0.007": 2.42944684284,
			"0.008": 2.91121904482,
			"0.009": 2.94155961752,
			"0.01": 4.24136277043,
			"0.011": 4.91340897881,
			"0.012": 5.9902392454,
			"0.013": 4.5113333678,
			"0.014": 1.07265233172,
			"0.015": 0.0,
			"0.016": 0.0,
			"0.017": 0.0,
			"0.018": 0.0,
			"0.019": 0.0,
			"0.02": 0.0,
			"0.021": 0.0,
			"0.022": 0.0,
			"0.023": 0.0,
			"0.024": 0.0,
			"0.025": 0.0
		}
	}
}
