{
	 "smiles": "O=S(=O)(C1=CC=CC=C1)C1=CC=CC=C1", 
	 "Tm": 401.15, 
	 "num_atms": 25, 
	 "gaussian": { 
		 "optdone": 1, 
		 "sigma_profile": "yes", 
		 "theory": "DFT", 
		 "functional": "B3LYP", 
		 "basiset": "6-31G**", 
		 "properties": { 
			 "R2extent": 3534.385, 
			 "electric_dipole_moment_norm": 5.41988433364, 
			 "electric_quadrupole_moment_norm": 14.7623641213, 
			 "total_energy": -1011.86993327, 
			 "HOMO_LUMO_gap": 0.21082, 
			 "cosmo_polarized_energy": -13.61, 
			 "cosmo_cavitation_energy": 30.66, 
			 "cosmo_dispersion_energy": -22.3, 
			 "cosmo_repulsion_energy": 1.69, 
			 "cosmo_total_nonelectrostatic_energy": 10.06, 
			 "SMD_solvation_energy": 4.57 
		},
		"coords": [
			{
				"x": 0.0744184953,
				"y": 2.2904245646,
				"z": -1.5340718339,
				"element": "O" 
			},
			{
				"x": -0.513641922,
				"y": 1.0111847185,
				"z": -1.1035918579,
				"element": "S" 
			},
			{
				"x": -1.9225804607,
				"y": 0.675062573,
				"z": -1.367228606,
				"element": "O" 
			},
			{
				"x": -0.2546269339,
				"y": 0.8744819076,
				"z": 0.6751321303,
				"element": "C" 
			},
			{
				"x": -1.1074208824,
				"y": 0.0650029125,
				"z": 1.4279584868,
				"element": "C" 
			},
			{
				"x": -0.9041189033,
				"y": -0.0340231785,
				"z": 2.8045351734,
				"element": "C" 
			},
			{
				"x": 0.1376091137,
				"y": 0.6718386986,
				"z": 3.4115767709,
				"element": "C" 
			},
			{
				"x": 0.9760131974,
				"y": 1.4876377805,
				"z": 2.6477395821,
				"element": "C" 
			},
			{
				"x": 0.7827408085,
				"y": 1.5948101558,
				"z": 1.270323201,
				"element": "C" 
			},
			{
				"x": 0.4925515254,
				"y": -0.3059541713,
				"z": -1.8123561129,
				"element": "C" 
			},
			{
				"x": 1.8152736295,
				"y": -0.0366802003,
				"z": -2.1689286624,
				"element": "C" 
			},
			{
				"x": 2.5878108248,
				"y": -1.059161185,
				"z": -2.7201452637,
				"element": "C" 
			},
			{
				"x": 2.0366972402,
				"y": -2.328716551,
				"z": -2.910990694,
				"element": "C" 
			},
			{
				"x": 0.707941266,
				"y": -2.5808782188,
				"z": -2.5606510829,
				"element": "C" 
			},
			{
				"x": -0.0746490914,
				"y": -1.5665186364,
				"z": -2.0086423789,
				"element": "C" 
			},
			{
				"x": -1.9254684904,
				"y": -0.4547511177,
				"z": 0.941201324,
				"element": "H" 
			},
			{
				"x": -1.5630314627,
				"y": -0.6555799492,
				"z": 3.4033396165,
				"element": "H" 
			},
			{
				"x": 0.2910015845,
				"y": 0.5927879797,
				"z": 4.4838817384,
				"element": "H" 
			},
			{
				"x": 1.7754923466,
				"y": 2.0463874633,
				"z": 3.1249167271,
				"element": "H" 
			},
			{
				"x": 1.4064596238,
				"y": 2.2419635847,
				"z": 0.6633334445,
				"element": "H" 
			},
			{
				"x": 2.21626866,
				"y": 0.9621875276,
				"z": -2.035748398,
				"element": "H" 
			},
			{
				"x": 3.6164235315,
				"y": -0.8626278866,
				"z": -3.007193322,
				"element": "H" 
			},
			{
				"x": 2.641616354,
				"y": -3.1211775526,
				"z": -3.34191282,
				"element": "H" 
			},
			{
				"x": 0.2783630692,
				"y": -3.5646691235,
				"z": -2.7239993185,
				"element": "H" 
			},
			{
				"x": -1.1152431237,
				"y": -1.7345320954,
				"z": -1.7532778438,
				"element": "H" 
			}
		],
		 "valence_orbital": [ 
			{
				"type": "occ",
				"energy": -0.28597,
				"method": "rhf"
			},
			{
				"type": "occ",
				"energy": -0.28558,
				"method": "rhf"
			},
			{
				"type": "occ",
				"energy": -0.27148,
				"method": "rhf"
			},
			{
				"type": "occ",
				"energy": -0.26782,
				"method": "rhf"
			},
			{
				"type": "occ",
				"energy": -0.26149,
				"method": "rhf"
			},
			{
				"type": "unocc",
				"energy": -0.05067,
				"method": "rhf"
			},
			{
				"type": "unocc",
				"energy": -0.02511,
				"method": "rhf"
			},
			{
				"type": "unocc",
				"energy": -0.01865,
				"method": "rhf"
			},
			{
				"type": "unocc",
				"energy": -0.015,
				"method": "rhf"
			},
			{
				"type": "unocc",
				"energy": 0.0545,
				"method": "rhf"
			}
		],
		"cosmo_sigma_profile": { 
			"-0.025": 0.0,
			"-0.024": 0.0,
			"-0.023": 0.0,
			"-0.022": 0.0,
			"-0.021": 0.0,
			"-0.02": 0.0,
			"-0.019": 0.0,
			"-0.018": 0.0,
			"-0.017": 0.0,
			"-0.016": 0.0,
			"-0.015": 0.0,
			"-0.014": 0.0,
			"-0.013": 0.0,
			"-0.012": 0.0,
			"-0.011": 0.0,
			"-0.01": 0.0,
			"-0.009": 0.0,
			"-0.008": 0.0498094907854,
			"-0.007": 13.157842601,
			"-0.006": 21.2282891154,
			"-0.005": 25.7217672783,
			"-0.004": 16.3813400064,
			"-0.003": 13.702289367,
			"-0.002": 14.9386827169,
			"-0.001": 13.0136924566,
			"0.0": 15.3465451389,
			"0.001": 18.6965554324,
			"0.002": 25.0971852618,
			"0.003": 27.8013549658,
			"0.004": 7.83288923527,
			"0.005": 2.68073826222,
			"0.006": 2.7428203757,
			"0.007": 2.3843552964,
			"0.008": 3.83674075029,
			"0.009": 2.95427578604,
			"0.01": 5.70585300693,
			"0.011": 7.10310656026,
			"0.012": 6.3272087726,
			"0.013": 0.127360592987,
			"0.014": 0.0,
			"0.015": 0.0,
			"0.016": 0.0,
			"0.017": 0.0,
			"0.018": 0.0,
			"0.019": 0.0,
			"0.02": 0.0,
			"0.021": 0.0,
			"0.022": 0.0,
			"0.023": 0.0,
			"0.024": 0.0,
			"0.025": 0.0
		}
	}
}
