{
	 "smiles": "CC1=NOC2=C1C(=CC(=N2)C1=C(F)C=CC(F)=C1)C(O)=O", 
	 "Tm": 511.15, 
	 "num_atms": 29, 
	 "gaussian": { 
		 "optdone": 1, 
		 "sigma_profile": "yes", 
		 "theory": "DFT", 
		 "functional": "B3LYP", 
		 "basiset": "6-31G**", 
		 "properties": { 
			 "R2extent": 7581.8526, 
			 "electric_dipole_moment_norm": 4.88199218045, 
			 "electric_quadrupole_moment_norm": 5.64091010919, 
			 "total_energy": -1073.1342763, 
			 "HOMO_LUMO_gap": 0.1479, 
			 "cosmo_polarized_energy": -12.97, 
			 "cosmo_cavitation_energy": 35.53, 
			 "cosmo_dispersion_energy": -25.89, 
			 "cosmo_repulsion_energy": 1.88, 
			 "cosmo_total_nonelectrostatic_energy": 11.52, 
			 "SMD_solvation_energy": 6.82 
		},
		"coords": [
			{
				"x": -3.1643082956,
				"y": -1.8824865917,
				"z": -1.9306934026,
				"element": "C" 
			},
			{
				"x": -2.1986566644,
				"y": -1.4481678997,
				"z": -0.8734426252,
				"element": "C" 
			},
			{
				"x": -2.4228330569,
				"y": -1.8310499666,
				"z": 0.3614831377,
				"element": "N" 
			},
			{
				"x": -1.4024281082,
				"y": -1.3161476848,
				"z": 1.1820254439,
				"element": "O" 
			},
			{
				"x": -0.559418781,
				"y": -0.6123246322,
				"z": 0.3987433197,
				"element": "C" 
			},
			{
				"x": -0.9978265311,
				"y": -0.6456252364,
				"z": -0.9373942491,
				"element": "C" 
			},
			{
				"x": -0.1968666375,
				"y": 0.0639215407,
				"z": -1.8556974838,
				"element": "C" 
			},
			{
				"x": 0.9360972739,
				"y": 0.7098035782,
				"z": -1.3603068108,
				"element": "C" 
			},
			{
				"x": 1.2663028578,
				"y": 0.6549471563,
				"z": 0.0162458691,
				"element": "C" 
			},
			{
				"x": 0.5020788401,
				"y": -0.0116748581,
				"z": 0.8989323621,
				"element": "N" 
			},
			{
				"x": 2.4489637115,
				"y": 1.3465664436,
				"z": 0.5964382637,
				"element": "C" 
			},
			{
				"x": 3.5237059802,
				"y": 1.8617088404,
				"z": -0.1462175629,
				"element": "C" 
			},
			{
				"x": 3.5520616662,
				"y": 1.7399640935,
				"z": -1.4961212341,
				"element": "F" 
			},
			{
				"x": 4.6083974802,
				"y": 2.5001972661,
				"z": 0.4435689888,
				"element": "C" 
			},
			{
				"x": 4.656254394,
				"y": 2.646457405,
				"z": 1.8269223941,
				"element": "C" 
			},
			{
				"x": 3.6019971355,
				"y": 2.1351390016,
				"z": 2.5785623007,
				"element": "C" 
			},
			{
				"x": 3.6346285912,
				"y": 2.268287313,
				"z": 3.9197621826,
				"element": "F" 
			},
			{
				"x": 2.5215904725,
				"y": 1.4966692311,
				"z": 1.9943643256,
				"element": "C" 
			},
			{
				"x": -0.5293163412,
				"y": 0.1371575895,
				"z": -3.3090533782,
				"element": "C" 
			},
			{
				"x": 0.3516631977,
				"y": 0.8853115214,
				"z": -4.0098769253,
				"element": "O" 
			},
			{
				"x": -1.4799805747,
				"y": -0.4050611056,
				"z": -3.8342492149,
				"element": "O" 
			},
			{
				"x": -3.6130744935,
				"y": -1.0199106305,
				"z": -2.4280172436,
				"element": "H" 
			},
			{
				"x": -2.6596996962,
				"y": -2.4642306632,
				"z": -2.7050542047,
				"element": "H" 
			},
			{
				"x": -3.9464823609,
				"y": -2.4873825547,
				"z": -1.4674785139,
				"element": "H" 
			},
			{
				"x": 1.5616020869,
				"y": 1.2628810746,
				"z": -2.0416301973,
				"element": "H" 
			},
			{
				"x": 5.4038866965,
				"y": 2.8695370561,
				"z": -0.1938585117,
				"element": "H" 
			},
			{
				"x": 5.4859778037,
				"y": 3.1412810618,
				"z": 2.3188326082,
				"element": "H" 
			},
			{
				"x": 1.7221028052,
				"y": 1.1032323029,
				"z": 2.6093951933,
				"element": "H" 
			},
			{
				"x": 0.047780548,
				"y": 0.8651993476,
				"z": -4.9323848314,
				"element": "H" 
			}
		],
		 "valence_orbital": [ 
			{
				"type": "occ",
				"energy": -0.29854,
				"method": "rhf"
			},
			{
				"type": "occ",
				"energy": -0.28843,
				"method": "rhf"
			},
			{
				"type": "occ",
				"energy": -0.27462,
				"method": "rhf"
			},
			{
				"type": "occ",
				"energy": -0.25959,
				"method": "rhf"
			},
			{
				"type": "occ",
				"energy": -0.245,
				"method": "rhf"
			},
			{
				"type": "unocc",
				"energy": -0.0971,
				"method": "rhf"
			},
			{
				"type": "unocc",
				"energy": -0.05199,
				"method": "rhf"
			},
			{
				"type": "unocc",
				"energy": -0.0161,
				"method": "rhf"
			},
			{
				"type": "unocc",
				"energy": 0.00258,
				"method": "rhf"
			},
			{
				"type": "unocc",
				"energy": 0.02267,
				"method": "rhf"
			}
		],
		"cosmo_sigma_profile": { 
			"-0.025": 0.0,
			"-0.024": 0.0,
			"-0.023": 0.0,
			"-0.022": 0.0,
			"-0.021": 0.0,
			"-0.02": 0.106251559926,
			"-0.019": 0.75978835753,
			"-0.018": 1.01499630752,
			"-0.017": 1.0167743752,
			"-0.016": 0.412303633159,
			"-0.015": 0.216882555718,
			"-0.014": 0.455078674719,
			"-0.013": 1.22733483709,
			"-0.012": 0.695428822966,
			"-0.011": 0.994456648967,
			"-0.01": 0.650274035898,
			"-0.009": 0.960865023331,
			"-0.008": 5.02373263469,
			"-0.007": 5.01150843183,
			"-0.006": 5.47072120433,
			"-0.005": 10.0410355849,
			"-0.004": 18.1258605615,
			"-0.003": 24.9877722046,
			"-0.002": 28.0152983608,
			"-0.001": 31.0293353472,
			"0.0": 30.1777086201,
			"0.001": 24.9102782598,
			"0.002": 17.617874769,
			"0.003": 16.6356473142,
			"0.004": 18.7424264934,
			"0.005": 7.99416896525,
			"0.006": 8.11339563547,
			"0.007": 8.24533076951,
			"0.008": 6.39697661872,
			"0.009": 3.82164988601,
			"0.01": 3.1592254425,
			"0.011": 2.9341088249,
			"0.012": 1.36694847473,
			"0.013": 0.77296612744,
			"0.014": 0.143626243169,
			"0.015": 0.0,
			"0.016": 0.0,
			"0.017": 0.0,
			"0.018": 0.0,
			"0.019": 0.0,
			"0.02": 0.0,
			"0.021": 0.0,
			"0.022": 0.0,
			"0.023": 0.0,
			"0.024": 0.0,
			"0.025": 0.0
		}
	}
}
