{
	 "smiles": "COC1=CC(C=CC(O)=O)=C(OCC2=NC=CC=C2)C=C1", 
	 "Tm": 451.15, 
	 "num_atms": 36, 
	 "gaussian": { 
		 "optdone": 1, 
		 "sigma_profile": "yes", 
		 "theory": "DFT", 
		 "functional": "B3LYP", 
		 "basiset": "6-31G**", 
		 "properties": { 
			 "R2extent": 8591.5159, 
			 "electric_dipole_moment_norm": 2.21213644471, 
			 "electric_quadrupole_moment_norm": 11.308464019, 
			 "total_energy": -974.36109175, 
			 "HOMO_LUMO_gap": 0.13554, 
			 "cosmo_polarized_energy": -13.68, 
			 "cosmo_cavitation_energy": 40.92, 
			 "cosmo_dispersion_energy": -28.7, 
			 "cosmo_repulsion_energy": 2.2, 
			 "cosmo_total_nonelectrostatic_energy": 14.42, 
			 "SMD_solvation_energy": 7.75 
		},
		"coords": [
			{
				"x": 0.520114718,
				"y": 4.4354011306,
				"z": -0.2922286796,
				"element": "C" 
			},
			{
				"x": -0.0085585774,
				"y": 3.5395412311,
				"z": 0.6756815441,
				"element": "O" 
			},
			{
				"x": 0.1027414745,
				"y": 2.2000237066,
				"z": 0.428735166,
				"element": "C" 
			},
			{
				"x": 0.7015493355,
				"y": 1.6557579991,
				"z": -0.7045466917,
				"element": "C" 
			},
			{
				"x": 0.777727833,
				"y": 0.2590363045,
				"z": -0.8892873119,
				"element": "C" 
			},
			{
				"x": 1.3670227961,
				"y": -0.3815545693,
				"z": -2.0605014728,
				"element": "C" 
			},
			{
				"x": 2.027362905,
				"y": 0.0409426551,
				"z": -3.1705515727,
				"element": "C" 
			},
			{
				"x": 2.4302742671,
				"y": 1.378936506,
				"z": -3.6232920547,
				"element": "C" 
			},
			{
				"x": 3.1193387305,
				"y": 1.2815960353,
				"z": -4.7949109557,
				"element": "O" 
			},
			{
				"x": 2.2346915048,
				"y": 2.4730177165,
				"z": -3.1138815131,
				"element": "O" 
			},
			{
				"x": 0.2304903897,
				"y": -0.5856256404,
				"z": 0.1156328245,
				"element": "C" 
			},
			{
				"x": 0.3267973747,
				"y": -1.9399430031,
				"z": -0.0948421985,
				"element": "O" 
			},
			{
				"x": -0.3444841365,
				"y": -2.8332709569,
				"z": 0.7874342332,
				"element": "C" 
			},
			{
				"x": 0.3939300923,
				"y": -3.0791556014,
				"z": 2.0915218559,
				"element": "C" 
			},
			{
				"x": -0.3800741769,
				"y": -3.4154789109,
				"z": 3.1331519943,
				"element": "N" 
			},
			{
				"x": 0.2248676026,
				"y": -3.6922055915,
				"z": 4.2952987255,
				"element": "C" 
			},
			{
				"x": 1.606675682,
				"y": -3.6388910938,
				"z": 4.4776925524,
				"element": "C" 
			},
			{
				"x": 2.4020087347,
				"y": -3.2807031979,
				"z": 3.3888204806,
				"element": "C" 
			},
			{
				"x": 1.7881536208,
				"y": -2.9982863313,
				"z": 2.1706999944,
				"element": "C" 
			},
			{
				"x": -0.3647935493,
				"y": -0.0294912824,
				"z": 1.2531767714,
				"element": "C" 
			},
			{
				"x": -0.4306147412,
				"y": 1.3507140096,
				"z": 1.4065856287,
				"element": "C" 
			},
			{
				"x": 0.0197078442,
				"y": 4.3247146657,
				"z": -1.2623147634,
				"element": "H" 
			},
			{
				"x": 0.3385842753,
				"y": 5.4386549066,
				"z": 0.0968852943,
				"element": "H" 
			},
			{
				"x": 1.5975755303,
				"y": 4.2882615433,
				"z": -0.4359133179,
				"element": "H" 
			},
			{
				"x": 1.1252375201,
				"y": 2.28543929,
				"z": -1.4734476267,
				"element": "H" 
			},
			{
				"x": 1.2457437993,
				"y": -1.4604296752,
				"z": -2.030178466,
				"element": "H" 
			},
			{
				"x": 2.3354360212,
				"y": -0.7355159066,
				"z": -3.8638663737,
				"element": "H" 
			},
			{
				"x": 3.3517097265,
				"y": 2.1931969799,
				"z": -5.0355715114,
				"element": "H" 
			},
			{
				"x": -1.3646624151,
				"y": -2.4991807653,
				"z": 1.0042934424,
				"element": "H" 
			},
			{
				"x": -0.4159010727,
				"y": -3.7713982559,
				"z": 0.2259715337,
				"element": "H" 
			},
			{
				"x": -0.4303742157,
				"y": -3.962472543,
				"z": 5.1216045834,
				"element": "H" 
			},
			{
				"x": 2.0421351569,
				"y": -3.8664257327,
				"z": 5.4454178775,
				"element": "H" 
			},
			{
				"x": 3.4823100564,
				"y": -3.2225784385,
				"z": 3.4868837159,
				"element": "H" 
			},
			{
				"x": 2.3637361893,
				"y": -2.7132890208,
				"z": 1.2968487191,
				"element": "H" 
			},
			{
				"x": -0.7676641314,
				"y": -0.6632579852,
				"z": 2.0333391841,
				"element": "H" 
			},
			{
				"x": -0.8892961649,
				"y": 1.7881198223,
				"z": 2.2874583886,
				"element": "H" 
			}
		],
		 "valence_orbital": [ 
			{
				"type": "occ",
				"energy": -0.26691,
				"method": "rhf"
			},
			{
				"type": "occ",
				"energy": -0.26316,
				"method": "rhf"
			},
			{
				"type": "occ",
				"energy": -0.26217,
				"method": "rhf"
			},
			{
				"type": "occ",
				"energy": -0.23626,
				"method": "rhf"
			},
			{
				"type": "occ",
				"energy": -0.19952,
				"method": "rhf"
			},
			{
				"type": "unocc",
				"energy": -0.06398,
				"method": "rhf"
			},
			{
				"type": "unocc",
				"energy": -0.0311,
				"method": "rhf"
			},
			{
				"type": "unocc",
				"energy": -0.01916,
				"method": "rhf"
			},
			{
				"type": "unocc",
				"energy": 0.0142,
				"method": "rhf"
			},
			{
				"type": "unocc",
				"energy": 0.02945,
				"method": "rhf"
			}
		],
		"cosmo_sigma_profile": { 
			"-0.025": 0.0,
			"-0.024": 0.0,
			"-0.023": 0.0,
			"-0.022": 0.0,
			"-0.021": 0.0,
			"-0.02": 0.0,
			"-0.019": 0.0,
			"-0.018": 0.288227379903,
			"-0.017": 0.972145848044,
			"-0.016": 0.74659255315,
			"-0.015": 1.11183468556,
			"-0.014": 0.748630027195,
			"-0.013": 0.459761568144,
			"-0.012": 0.0857096698547,
			"-0.011": 0.901604771371,
			"-0.01": 1.00312031698,
			"-0.009": 0.651089780805,
			"-0.008": 0.586284701834,
			"-0.007": 7.70765906122,
			"-0.006": 19.367257425,
			"-0.005": 25.8650648671,
			"-0.004": 23.3842596545,
			"-0.003": 23.4582658467,
			"-0.002": 20.4589087315,
			"-0.001": 20.1060944004,
			"0.0": 21.5917432907,
			"0.001": 27.8074254487,
			"0.002": 32.3862360448,
			"0.003": 34.993536345,
			"0.004": 20.5652969153,
			"0.005": 8.0510473647,
			"0.006": 5.37722159835,
			"0.007": 6.35720773107,
			"0.008": 4.86700462344,
			"0.009": 5.28120916149,
			"0.01": 4.70077705106,
			"0.011": 3.56108139091,
			"0.012": 1.7610400714,
			"0.013": 0.433701418621,
			"0.014": 0.906654836449,
			"0.015": 0.697442450038,
			"0.016": 0.173826390812,
			"0.017": 0.0,
			"0.018": 0.0,
			"0.019": 0.0,
			"0.02": 0.0,
			"0.021": 0.0,
			"0.022": 0.0,
			"0.023": 0.0,
			"0.024": 0.0,
			"0.025": 0.0
		}
	}
}
