{
	 "smiles": "OC1=CC=CC=C1N1CCCC1", 
	 "Tm": 384.15, 
	 "num_atms": 25, 
	 "gaussian": { 
		 "optdone": 1, 
		 "sigma_profile": "yes", 
		 "theory": "DFT", 
		 "functional": "B3LYP", 
		 "basiset": "6-31G**", 
		 "properties": { 
			 "R2extent": 2401.8152, 
			 "electric_dipole_moment_norm": 2.55555537213, 
			 "electric_quadrupole_moment_norm": 6.95512808725, 
			 "total_energy": -518.868773478, 
			 "HOMO_LUMO_gap": 0.21055, 
			 "cosmo_polarized_energy": -6.12, 
			 "cosmo_cavitation_energy": 26.76, 
			 "cosmo_dispersion_energy": -19.67, 
			 "cosmo_repulsion_energy": 1.57, 
			 "cosmo_total_nonelectrostatic_energy": 8.66, 
			 "SMD_solvation_energy": 4.47 
		},
		"coords": [
			{
				"x": -1.4994732967,
				"y": -1.3842639402,
				"z": -1.0195647186,
				"element": "O" 
			},
			{
				"x": -0.6834755228,
				"y": -0.3076686924,
				"z": -0.9189385492,
				"element": "C" 
			},
			{
				"x": -0.4506056188,
				"y": 0.5171018377,
				"z": -2.0234583035,
				"element": "C" 
			},
			{
				"x": 0.3943808599,
				"y": 1.6178851614,
				"z": -1.8890502537,
				"element": "C" 
			},
			{
				"x": 1.0094721932,
				"y": 1.9056657732,
				"z": -0.6667382007,
				"element": "C" 
			},
			{
				"x": 0.7743229168,
				"y": 1.0794336212,
				"z": 0.4342332466,
				"element": "C" 
			},
			{
				"x": -0.0688975915,
				"y": -0.0273732383,
				"z": 0.3181719318,
				"element": "C" 
			},
			{
				"x": -0.382213564,
				"y": -0.9447667601,
				"z": 1.3822544136,
				"element": "N" 
			},
			{
				"x": 0.7441977241,
				"y": -1.7120873108,
				"z": 1.9455049086,
				"element": "C" 
			},
			{
				"x": 0.113723983,
				"y": -2.4417307466,
				"z": 3.1459962076,
				"element": "C" 
			},
			{
				"x": -1.1004430279,
				"y": -1.5545129813,
				"z": 3.5535154387,
				"element": "C" 
			},
			{
				"x": -1.0816913902,
				"y": -0.3836405042,
				"z": 2.5531341582,
				"element": "C" 
			},
			{
				"x": -1.4790094751,
				"y": -1.7685166247,
				"z": -0.1165831105,
				"element": "H" 
			},
			{
				"x": -0.9336517169,
				"y": 0.2833949304,
				"z": -2.9665259871,
				"element": "H" 
			},
			{
				"x": 0.5743325539,
				"y": 2.2578757767,
				"z": -2.7484047711,
				"element": "H" 
			},
			{
				"x": 1.6657661288,
				"y": 2.7652785572,
				"z": -0.572385081,
				"element": "H" 
			},
			{
				"x": 1.2481607508,
				"y": 1.295421338,
				"z": 1.3884391687,
				"element": "H" 
			},
			{
				"x": 1.1608339485,
				"y": -2.3845802804,
				"z": 1.1901181006,
				"element": "H" 
			},
			{
				"x": 1.5554680392,
				"y": -1.0441969563,
				"z": 2.2819219363,
				"element": "H" 
			},
			{
				"x": -0.2239764299,
				"y": -3.4400122494,
				"z": 2.8540253573,
				"element": "H" 
			},
			{
				"x": 0.8339104454,
				"y": -2.5664806935,
				"z": 3.9591499804,
				"element": "H" 
			},
			{
				"x": -2.0326368096,
				"y": -2.119551074,
				"z": 3.4665049194,
				"element": "H" 
			},
			{
				"x": -1.0314022167,
				"y": -1.1975236646,
				"z": 4.5846546061,
				"element": "H" 
			},
			{
				"x": -0.5320242226,
				"y": 0.4753970194,
				"z": 2.9741775552,
				"element": "H" 
			},
			{
				"x": -2.0772686609,
				"y": -0.0317482982,
				"z": 2.2677470462,
				"element": "H" 
			}
		],
		 "valence_orbital": [ 
			{
				"type": "occ",
				"energy": -0.32861,
				"method": "rhf"
			},
			{
				"type": "occ",
				"energy": -0.32123,
				"method": "rhf"
			},
			{
				"type": "occ",
				"energy": -0.24186,
				"method": "rhf"
			},
			{
				"type": "occ",
				"energy": -0.23545,
				"method": "rhf"
			},
			{
				"type": "occ",
				"energy": -0.20922,
				"method": "rhf"
			},
			{
				"type": "unocc",
				"energy": 0.00133,
				"method": "rhf"
			},
			{
				"type": "unocc",
				"energy": 0.02136,
				"method": "rhf"
			},
			{
				"type": "unocc",
				"energy": 0.07231,
				"method": "rhf"
			},
			{
				"type": "unocc",
				"energy": 0.09063,
				"method": "rhf"
			},
			{
				"type": "unocc",
				"energy": 0.1041,
				"method": "rhf"
			}
		],
		"cosmo_sigma_profile": { 
			"-0.025": 0.0,
			"-0.024": 0.0,
			"-0.023": 0.0,
			"-0.022": 0.0,
			"-0.021": 0.0,
			"-0.02": 0.0,
			"-0.019": 0.0,
			"-0.018": 0.0,
			"-0.017": 0.0,
			"-0.016": 0.0,
			"-0.015": 0.0,
			"-0.014": 0.0,
			"-0.013": 0.0,
			"-0.012": 0.0,
			"-0.011": 0.0,
			"-0.01": 0.0855689789108,
			"-0.009": 0.72653083764,
			"-0.008": 0.516142420636,
			"-0.007": 0.28306817771,
			"-0.006": 3.19362626602,
			"-0.005": 9.20983561354,
			"-0.004": 14.3330924192,
			"-0.003": 27.6851473844,
			"-0.002": 33.7108021322,
			"-0.001": 28.5034287918,
			"0.0": 20.7449821384,
			"0.001": 12.9879923978,
			"0.002": 9.07589748086,
			"0.003": 7.83534737057,
			"0.004": 9.84379025553,
			"0.005": 10.4027488855,
			"0.006": 9.10916293411,
			"0.007": 2.87770304063,
			"0.008": 1.91676754121,
			"0.009": 1.32183807671,
			"0.01": 1.49924338626,
			"0.011": 1.55914976563,
			"0.012": 2.46552941164,
			"0.013": 0.359900555179,
			"0.014": 0.0,
			"0.015": 0.0,
			"0.016": 0.0,
			"0.017": 0.0,
			"0.018": 0.0,
			"0.019": 0.0,
			"0.02": 0.0,
			"0.021": 0.0,
			"0.022": 0.0,
			"0.023": 0.0,
			"0.024": 0.0,
			"0.025": 0.0
		}
	}
}
