{
	 "smiles": "OC(=O)C1=CC(=C(Cl)C=C1)[N+]([O-])=O", 
	 "Tm": 455.15, 
	 "num_atms": 17, 
	 "gaussian": { 
		 "optdone": 1, 
		 "sigma_profile": "yes", 
		 "theory": "DFT", 
		 "functional": "B3LYP", 
		 "basiset": "6-31G**", 
		 "properties": { 
			 "R2extent": 3395.7299, 
			 "electric_dipole_moment_norm": 1.99955226238, 
			 "electric_quadrupole_moment_norm": 19.5585887627, 
			 "total_energy": -1084.88534197, 
			 "HOMO_LUMO_gap": 0.17777, 
			 "cosmo_polarized_energy": -16.99, 
			 "cosmo_cavitation_energy": 24.88, 
			 "cosmo_dispersion_energy": -18.39, 
			 "cosmo_repulsion_energy": 1.45, 
			 "cosmo_total_nonelectrostatic_energy": 7.95, 
			 "SMD_solvation_energy": 7.51 
		},
		"coords": [
			{
				"x": 1.7070639728,
				"y": 2.0072347672,
				"z": 2.8201227378,
				"element": "O" 
			},
			{
				"x": 0.5797612204,
				"y": 1.2836488668,
				"z": 2.6160286447,
				"element": "C" 
			},
			{
				"x": -0.3915116068,
				"y": 1.4542487896,
				"z": 3.3129638782,
				"element": "O" 
			},
			{
				"x": 0.5988569083,
				"y": 0.2798569111,
				"z": 1.4977014597,
				"element": "C" 
			},
			{
				"x": 1.5119002086,
				"y": 0.321445193,
				"z": 0.446049453,
				"element": "C" 
			},
			{
				"x": 1.4559556705,
				"y": -0.6191951919,
				"z": -0.5836888489,
				"element": "C" 
			},
			{
				"x": 0.4937240491,
				"y": -1.6410306105,
				"z": -0.563498887,
				"element": "C" 
			},
			{
				"x": 0.3994207788,
				"y": -2.9082065933,
				"z": -1.7464934664,
				"element": "Cl" 
			},
			{
				"x": -0.4204770504,
				"y": -1.6783128756,
				"z": 0.4978850496,
				"element": "C" 
			},
			{
				"x": -0.3824637897,
				"y": -0.7220623358,
				"z": 1.5027279618,
				"element": "C" 
			},
			{
				"x": 2.4457058029,
				"y": -0.4515982435,
				"z": -1.6656606331,
				"element": "N" 
			},
			{
				"x": 2.148818136,
				"y": -0.8378211622,
				"z": -2.7890134624,
				"element": "O" 
			},
			{
				"x": 3.5038051888,
				"y": 0.0995438317,
				"z": -1.358854528,
				"element": "O" 
			},
			{
				"x": 2.4488450274,
				"y": 1.6542149488,
				"z": 2.3095681506,
				"element": "H" 
			},
			{
				"x": 2.2730151641,
				"y": 1.0891522556,
				"z": 0.362762375,
				"element": "H" 
			},
			{
				"x": -1.1600888731,
				"y": -2.4705443829,
				"z": 0.5178952165,
				"element": "H" 
			},
			{
				"x": -1.1045308079,
				"y": -0.736974168,
				"z": 2.3117048988,
				"element": "H" 
			}
		],
		 "valence_orbital": [ 
			{
				"type": "occ",
				"energy": -0.32706,
				"method": "rhf"
			},
			{
				"type": "occ",
				"energy": -0.31592,
				"method": "rhf"
			},
			{
				"type": "occ",
				"energy": -0.30194,
				"method": "rhf"
			},
			{
				"type": "occ",
				"energy": -0.29728,
				"method": "rhf"
			},
			{
				"type": "occ",
				"energy": -0.2876,
				"method": "rhf"
			},
			{
				"type": "unocc",
				"energy": -0.10983,
				"method": "rhf"
			},
			{
				"type": "unocc",
				"energy": -0.08143,
				"method": "rhf"
			},
			{
				"type": "unocc",
				"energy": -0.03907,
				"method": "rhf"
			},
			{
				"type": "unocc",
				"energy": -0.00595,
				"method": "rhf"
			},
			{
				"type": "unocc",
				"energy": 0.02289,
				"method": "rhf"
			}
		],
		"cosmo_sigma_profile": { 
			"-0.025": 0.0,
			"-0.024": 0.0,
			"-0.023": 0.0,
			"-0.022": 0.0,
			"-0.021": 0.0,
			"-0.02": 0.643070971369,
			"-0.019": 0.730546928639,
			"-0.018": 1.14684553881,
			"-0.017": 1.09988839939,
			"-0.016": 1.00817372608,
			"-0.015": 1.19884231094,
			"-0.014": 1.29366980385,
			"-0.013": 1.24591337223,
			"-0.012": 0.634167488757,
			"-0.011": 0.828827453985,
			"-0.01": 1.50848315234,
			"-0.009": 3.96356485578,
			"-0.008": 7.85122112475,
			"-0.007": 6.8398459536,
			"-0.006": 7.33164696466,
			"-0.005": 7.16128897227,
			"-0.004": 9.730424792,
			"-0.003": 14.7157283087,
			"-0.002": 18.4768623576,
			"-0.001": 13.9129463036,
			"0.0": 10.5621156177,
			"0.001": 9.67686024178,
			"0.002": 10.4478787528,
			"0.003": 10.3046164488,
			"0.004": 4.84825783751,
			"0.005": 5.21611054155,
			"0.006": 8.36978781943,
			"0.007": 13.8267476827,
			"0.008": 8.62113533996,
			"0.009": 6.85475389528,
			"0.01": 5.40167605882,
			"0.011": 5.06463622196,
			"0.012": 2.10299977331,
			"0.013": 0.291517268958,
			"0.014": 0.0,
			"0.015": 0.0,
			"0.016": 0.0,
			"0.017": 0.0,
			"0.018": 0.0,
			"0.019": 0.0,
			"0.02": 0.0,
			"0.021": 0.0,
			"0.022": 0.0,
			"0.023": 0.0,
			"0.024": 0.0,
			"0.025": 0.0
		}
	}
}
