{
	 "smiles": "BrCC1=CC2=NON=C2C=C1", 
	 "Tm": 351.65, 
	 "num_atms": 16, 
	 "gaussian": { 
		 "optdone": 1, 
		 "sigma_profile": "yes", 
		 "theory": "DFT", 
		 "functional": "B3LYP", 
		 "basiset": "6-31G**", 
		 "properties": { 
			 "R2extent": 3628.2524, 
			 "electric_dipole_moment_norm": 3.36674146468, 
			 "electric_quadrupole_moment_norm": 11.3447535769, 
			 "total_energy": -3025.79434538, 
			 "HOMO_LUMO_gap": 0.16127, 
			 "cosmo_polarized_energy": -10.0, 
			 "cosmo_cavitation_energy": 23.27, 
			 "cosmo_dispersion_energy": -17.65, 
			 "cosmo_repulsion_energy": 1.41, 
			 "cosmo_total_nonelectrostatic_energy": 7.03, 
			 "SMD_solvation_energy": 1.95 
		},
		"coords": [
			{
				"x": -2.8288644708,
				"y": -1.9436553612,
				"z": -2.0036511382,
				"element": "Br" 
			},
			{
				"x": -1.121859847,
				"y": -2.2225603123,
				"z": -1.0040408295,
				"element": "C" 
			},
			{
				"x": -0.3909064161,
				"y": -0.9359969811,
				"z": -0.7858866087,
				"element": "C" 
			},
			{
				"x": 0.7915493715,
				"y": -0.6943225114,
				"z": -1.4386759161,
				"element": "C" 
			},
			{
				"x": 1.4553030417,
				"y": 0.5356583442,
				"z": -1.1603437674,
				"element": "C" 
			},
			{
				"x": 2.5929767847,
				"y": 1.0169982036,
				"z": -1.6326112716,
				"element": "N" 
			},
			{
				"x": 2.7355702261,
				"y": 2.229178395,
				"z": -1.0156551215,
				"element": "O" 
			},
			{
				"x": 1.7096644104,
				"y": 2.5259979577,
				"z": -0.1594394688,
				"element": "N" 
			},
			{
				"x": 0.9015385885,
				"y": 1.4831278675,
				"z": -0.2356234424,
				"element": "C" 
			},
			{
				"x": -0.3331897204,
				"y": 1.2152384939,
				"z": 0.4285362398,
				"element": "C" 
			},
			{
				"x": -0.9449107822,
				"y": 0.0291955106,
				"z": 0.1417789908,
				"element": "C" 
			},
			{
				"x": -1.4339399059,
				"y": -2.6901769011,
				"z": -0.0706449025,
				"element": "H" 
			},
			{
				"x": -0.5501598897,
				"y": -2.9296340523,
				"z": -1.6014130325,
				"element": "H" 
			},
			{
				"x": 1.2181416414,
				"y": -1.4028870358,
				"z": -2.1402788062,
				"element": "H" 
			},
			{
				"x": -0.7542609676,
				"y": 1.9307024186,
				"z": 1.1253245147,
				"element": "H" 
			},
			{
				"x": -1.8926520645,
				"y": -0.2135640359,
				"z": 0.6130245602,
				"element": "H" 
			}
		],
		 "valence_orbital": [ 
			{
				"type": "occ",
				"energy": -0.32523,
				"method": "rhf"
			},
			{
				"type": "occ",
				"energy": -0.30114,
				"method": "rhf"
			},
			{
				"type": "occ",
				"energy": -0.2859,
				"method": "rhf"
			},
			{
				"type": "occ",
				"energy": -0.28282,
				"method": "rhf"
			},
			{
				"type": "occ",
				"energy": -0.25872,
				"method": "rhf"
			},
			{
				"type": "unocc",
				"energy": -0.09745,
				"method": "rhf"
			},
			{
				"type": "unocc",
				"energy": -0.03909,
				"method": "rhf"
			},
			{
				"type": "unocc",
				"energy": -0.00227,
				"method": "rhf"
			},
			{
				"type": "unocc",
				"energy": 0.01995,
				"method": "rhf"
			},
			{
				"type": "unocc",
				"energy": 0.07698,
				"method": "rhf"
			}
		],
		"cosmo_sigma_profile": { 
			"-0.025": 0.0,
			"-0.024": 0.0,
			"-0.023": 0.0,
			"-0.022": 0.0,
			"-0.021": 0.0,
			"-0.02": 0.0,
			"-0.019": 0.0,
			"-0.018": 0.0,
			"-0.017": 0.0,
			"-0.016": 0.0,
			"-0.015": 0.0,
			"-0.014": 0.0,
			"-0.013": 0.0,
			"-0.012": 0.0,
			"-0.011": 0.0,
			"-0.01": 0.468373650506,
			"-0.009": 4.78634292281,
			"-0.008": 10.7980238373,
			"-0.007": 9.50787960543,
			"-0.006": 9.1420429934,
			"-0.005": 8.67671936687,
			"-0.004": 8.00357783355,
			"-0.003": 9.96790540549,
			"-0.002": 12.6004591539,
			"-0.001": 15.6861031329,
			"0.0": 14.9576419473,
			"0.001": 11.5552794304,
			"0.002": 9.63760084875,
			"0.003": 8.87805977953,
			"0.004": 12.1057310506,
			"0.005": 16.9734325658,
			"0.006": 12.6665825259,
			"0.007": 3.73612061563,
			"0.008": 2.46880963981,
			"0.009": 2.51923773128,
			"0.01": 2.53507001772,
			"0.011": 2.29068279673,
			"0.012": 0.992708490353,
			"0.013": 0.0,
			"0.014": 0.0,
			"0.015": 0.0,
			"0.016": 0.0,
			"0.017": 0.0,
			"0.018": 0.0,
			"0.019": 0.0,
			"0.02": 0.0,
			"0.021": 0.0,
			"0.022": 0.0,
			"0.023": 0.0,
			"0.024": 0.0,
			"0.025": 0.0
		}
	}
}
