{
	 "smiles": "COC1=CC=C(C=C1)C1=CC(=NC(=C1)C1=CC=CC=N1)C1=CC=CC=N1", 
	 "Tm": 435.15, 
	 "num_atms": 43, 
	 "gaussian": { 
		 "optdone": 1, 
		 "sigma_profile": "yes", 
		 "theory": "DFT", 
		 "functional": "B3LYP", 
		 "basiset": "6-31G**", 
		 "properties": { 
			 "R2extent": 12882.7165, 
			 "electric_dipole_moment_norm": 2.41570473568, 
			 "electric_quadrupole_moment_norm": 19.9307392527, 
			 "total_energy": -1088.06411834, 
			 "HOMO_LUMO_gap": 0.16827, 
			 "cosmo_polarized_energy": -17.83, 
			 "cosmo_cavitation_energy": 48.22, 
			 "cosmo_dispersion_energy": -34.6, 
			 "cosmo_repulsion_energy": 2.58, 
			 "cosmo_total_nonelectrostatic_energy": 16.21, 
			 "SMD_solvation_energy": 5.35 
		},
		"coords": [
			{
				"x": -2.7487112794,
				"y": 1.7119293399,
				"z": 6.6940810128,
				"element": "C" 
			},
			{
				"x": -1.4102355789,
				"y": 1.5454053077,
				"z": 6.2520563907,
				"element": "O" 
			},
			{
				"x": -1.1972535551,
				"y": 1.2087036802,
				"z": 4.9487002132,
				"element": "C" 
			},
			{
				"x": -2.2065146835,
				"y": 1.0256653934,
				"z": 3.9956072329,
				"element": "C" 
			},
			{
				"x": -1.8664063115,
				"y": 0.6787520762,
				"z": 2.6874870569,
				"element": "C" 
			},
			{
				"x": -0.5323940914,
				"y": 0.5102945159,
				"z": 2.2922395722,
				"element": "C" 
			},
			{
				"x": 0.4659937778,
				"y": 0.7001470159,
				"z": 3.2672450345,
				"element": "C" 
			},
			{
				"x": 0.1444242864,
				"y": 1.0411100112,
				"z": 4.5725947178,
				"element": "C" 
			},
			{
				"x": -0.187686829,
				"y": 0.1465737502,
				"z": 0.8972488529,
				"element": "C" 
			},
			{
				"x": -1.0053946788,
				"y": -0.6987796079,
				"z": 0.1376770384,
				"element": "C" 
			},
			{
				"x": -0.6324861868,
				"y": -1.0225656679,
				"z": -1.1722866457,
				"element": "C" 
			},
			{
				"x": 0.4850959553,
				"y": -0.5568223731,
				"z": -1.7481444556,
				"element": "N" 
			},
			{
				"x": 1.2749819286,
				"y": 0.2575426191,
				"z": -1.0361995817,
				"element": "C" 
			},
			{
				"x": 0.9774319901,
				"y": 0.6289101256,
				"z": 0.2813332755,
				"element": "C" 
			},
			{
				"x": 2.506041191,
				"y": 0.7647201036,
				"z": -1.7162404978,
				"element": "C" 
			},
			{
				"x": 3.0030866027,
				"y": 2.0499843166,
				"z": -1.4464020923,
				"element": "C" 
			},
			{
				"x": 4.1551758776,
				"y": 2.482305077,
				"z": -2.0988467035,
				"element": "C" 
			},
			{
				"x": 4.7770122355,
				"y": 1.6230367071,
				"z": -3.0024404782,
				"element": "C" 
			},
			{
				"x": 4.2031947463,
				"y": 0.3668335563,
				"z": -3.2116825852,
				"element": "C" 
			},
			{
				"x": 3.0997098596,
				"y": -0.0619458744,
				"z": -2.5948334089,
				"element": "N" 
			},
			{
				"x": -1.4786142589,
				"y": -1.9291871409,
				"z": -2.0008449201,
				"element": "C" 
			},
			{
				"x": -1.067831561,
				"y": -2.302607649,
				"z": -3.2894359254,
				"element": "C" 
			},
			{
				"x": -1.8843991916,
				"y": -3.1509973363,
				"z": -4.03046895,
				"element": "C" 
			},
			{
				"x": -3.0801832829,
				"y": -3.6009619067,
				"z": -3.4692258298,
				"element": "C" 
			},
			{
				"x": -3.4015594006,
				"y": -3.1751620733,
				"z": -2.1793205034,
				"element": "C" 
			},
			{
				"x": -2.629627514,
				"y": -2.3609603686,
				"z": -1.4548104483,
				"element": "N" 
			},
			{
				"x": -2.6866196575,
				"y": 1.9658331681,
				"z": 7.7532957001,
				"element": "H" 
			},
			{
				"x": -3.3311220899,
				"y": 0.7890375559,
				"z": 6.5775672009,
				"element": "H" 
			},
			{
				"x": -3.254313219,
				"y": 2.525080126,
				"z": 6.1575756918,
				"element": "H" 
			},
			{
				"x": -3.2504270376,
				"y": 1.1563661524,
				"z": 4.254609136,
				"element": "H" 
			},
			{
				"x": -2.6596286679,
				"y": 0.5604372578,
				"z": 1.9555473907,
				"element": "H" 
			},
			{
				"x": 1.5087445847,
				"y": 0.5494369748,
				"z": 3.0041896952,
				"element": "H" 
			},
			{
				"x": 0.9138476657,
				"y": 1.1738805044,
				"z": 5.326078308,
				"element": "H" 
			},
			{
				"x": -1.909147245,
				"y": -1.135844584,
				"z": 0.5435983755,
				"element": "H" 
			},
			{
				"x": 1.6461926159,
				"y": 1.287500187,
				"z": 0.824311,
				"element": "H" 
			},
			{
				"x": 2.481395837,
				"y": 2.7064995631,
				"z": -0.7580725613,
				"element": "H" 
			},
			{
				"x": 4.5528477845,
				"y": 3.4756757309,
				"z": -1.9111187851,
				"element": "H" 
			},
			{
				"x": 5.6764440309,
				"y": 1.914328122,
				"z": -3.5357099164,
				"element": "H" 
			},
			{
				"x": 4.6582654239,
				"y": -0.3324283202,
				"z": -3.9120581328,
				"element": "H" 
			},
			{
				"x": -0.1268116702,
				"y": -1.9225853606,
				"z": -3.6687420535,
				"element": "H" 
			},
			{
				"x": -1.5920245584,
				"y": -3.4582651848,
				"z": -5.030751137,
				"element": "H" 
			},
			{
				"x": -3.7473353717,
				"y": -4.2638842723,
				"z": -4.0111879138,
				"element": "H" 
			},
			{
				"x": -4.325258473,
				"y": -3.5049912182,
				"z": -1.7059193702,
				"element": "H" 
			}
		],
		 "valence_orbital": [ 
			{
				"type": "occ",
				"energy": -0.25046,
				"method": "rhf"
			},
			{
				"type": "occ",
				"energy": -0.24761,
				"method": "rhf"
			},
			{
				"type": "occ",
				"energy": -0.24006,
				"method": "rhf"
			},
			{
				"type": "occ",
				"energy": -0.22473,
				"method": "rhf"
			},
			{
				"type": "occ",
				"energy": -0.2149,
				"method": "rhf"
			},
			{
				"type": "unocc",
				"energy": -0.04663,
				"method": "rhf"
			},
			{
				"type": "unocc",
				"energy": -0.04379,
				"method": "rhf"
			},
			{
				"type": "unocc",
				"energy": -0.01771,
				"method": "rhf"
			},
			{
				"type": "unocc",
				"energy": -0.01294,
				"method": "rhf"
			},
			{
				"type": "unocc",
				"energy": -0.00675,
				"method": "rhf"
			}
		],
		"cosmo_sigma_profile": { 
			"-0.025": 0.0,
			"-0.024": 0.0,
			"-0.023": 0.0,
			"-0.022": 0.0,
			"-0.021": 0.0,
			"-0.02": 0.0,
			"-0.019": 0.0,
			"-0.018": 0.0,
			"-0.017": 0.0,
			"-0.016": 0.0,
			"-0.015": 0.0,
			"-0.014": 0.0,
			"-0.013": 0.0,
			"-0.012": 0.0,
			"-0.011": 0.0,
			"-0.01": 0.0,
			"-0.009": 0.0,
			"-0.008": 0.865926761105,
			"-0.007": 13.0998165844,
			"-0.006": 29.5715723631,
			"-0.005": 37.1588144936,
			"-0.004": 30.5467881825,
			"-0.003": 27.5178328242,
			"-0.002": 20.80276614,
			"-0.001": 17.8510470242,
			"0.0": 24.0040175223,
			"0.001": 32.3968472524,
			"0.002": 52.6730201563,
			"0.003": 34.3745127193,
			"0.004": 17.4683297128,
			"0.005": 14.4706776189,
			"0.006": 5.84700713524,
			"0.007": 5.22416226833,
			"0.008": 5.09534471365,
			"0.009": 4.4770011733,
			"0.01": 3.88152878825,
			"0.011": 2.6626531828,
			"0.012": 2.20556588154,
			"0.013": 1.17627712914,
			"0.014": 0.721513285399,
			"0.015": 1.35842585438,
			"0.016": 1.3482579641,
			"0.017": 0.828857462665,
			"0.018": 0.70265788618,
			"0.019": 0.0620408100377,
			"0.02": 0.0,
			"0.021": 0.0,
			"0.022": 0.0,
			"0.023": 0.0,
			"0.024": 0.0,
			"0.025": 0.0
		}
	}
}
