{
	 "smiles": "OC(=O)C1=C(Br)C=CC(=C1)[N+]([O-])=O", 
	 "Tm": 452.65, 
	 "num_atms": 17, 
	 "gaussian": { 
		 "optdone": 1, 
		 "sigma_profile": "yes", 
		 "theory": "DFT", 
		 "functional": "B3LYP", 
		 "basiset": "6-31G**", 
		 "properties": { 
			 "R2extent": 4529.7719, 
			 "electric_dipole_moment_norm": 5.93884706151, 
			 "electric_quadrupole_moment_norm": 14.4259312171, 
			 "total_energy": -3196.10487826, 
			 "HOMO_LUMO_gap": 0.18272, 
			 "cosmo_polarized_energy": -14.79, 
			 "cosmo_cavitation_energy": 25.02, 
			 "cosmo_dispersion_energy": -19.0, 
			 "cosmo_repulsion_energy": 1.48, 
			 "cosmo_total_nonelectrostatic_energy": 7.5, 
			 "SMD_solvation_energy": 6.8 
		},
		"coords": [
			{
				"x": -0.0450798538,
				"y": -2.1687213605,
				"z": -3.1420390844,
				"element": "O" 
			},
			{
				"x": -0.5616576157,
				"y": -1.3416612354,
				"z": -2.2231111417,
				"element": "C" 
			},
			{
				"x": -1.4896792806,
				"y": -0.6207215164,
				"z": -2.5081504282,
				"element": "O" 
			},
			{
				"x": 0.0364752952,
				"y": -1.2940536732,
				"z": -0.820382337,
				"element": "C" 
			},
			{
				"x": 1.0073582003,
				"y": -2.1194446882,
				"z": -0.2237512388,
				"element": "C" 
			},
			{
				"x": 1.8448125721,
				"y": -3.5976304586,
				"z": -1.1230936233,
				"element": "Br" 
			},
			{
				"x": 1.4332743455,
				"y": -1.9273466277,
				"z": 1.094676579,
				"element": "C" 
			},
			{
				"x": 0.9017172249,
				"y": -0.8967118961,
				"z": 1.8579258245,
				"element": "C" 
			},
			{
				"x": -0.0598147016,
				"y": -0.075220621,
				"z": 1.2751802211,
				"element": "C" 
			},
			{
				"x": -0.491059023,
				"y": -0.261536684,
				"z": -0.0276112422,
				"element": "C" 
			},
			{
				"x": -0.6364928627,
				"y": 1.0245334509,
				"z": 2.0720268891,
				"element": "N" 
			},
			{
				"x": -0.230420301,
				"y": 1.152549106,
				"z": 3.2259677617,
				"element": "O" 
			},
			{
				"x": -1.4790656044,
				"y": 1.735761051,
				"z": 1.5330686534,
				"element": "O" 
			},
			{
				"x": 0.686353633,
				"y": -2.7045463698,
				"z": -2.789248039,
				"element": "H" 
			},
			{
				"x": 2.1807542664,
				"y": -2.5882664703,
				"z": 1.5167110869,
				"element": "H" 
			},
			{
				"x": 1.2153899987,
				"y": -0.7247747584,
				"z": 2.879838434,
				"element": "H" 
			},
			{
				"x": -1.2462662933,
				"y": 0.3837927518,
				"z": -0.457908315,
				"element": "H" 
			}
		],
		 "valence_orbital": [ 
			{
				"type": "occ",
				"energy": -0.32324,
				"method": "rhf"
			},
			{
				"type": "occ",
				"energy": -0.30812,
				"method": "rhf"
			},
			{
				"type": "occ",
				"energy": -0.30434,
				"method": "rhf"
			},
			{
				"type": "occ",
				"energy": -0.29559,
				"method": "rhf"
			},
			{
				"type": "occ",
				"energy": -0.29323,
				"method": "rhf"
			},
			{
				"type": "unocc",
				"energy": -0.11051,
				"method": "rhf"
			},
			{
				"type": "unocc",
				"energy": -0.07965,
				"method": "rhf"
			},
			{
				"type": "unocc",
				"energy": -0.04531,
				"method": "rhf"
			},
			{
				"type": "unocc",
				"energy": -0.03509,
				"method": "rhf"
			},
			{
				"type": "unocc",
				"energy": 0.03269,
				"method": "rhf"
			}
		],
		"cosmo_sigma_profile": { 
			"-0.025": 0.0,
			"-0.024": 0.0,
			"-0.023": 0.0,
			"-0.022": 0.0,
			"-0.021": 0.0,
			"-0.02": 0.0,
			"-0.019": 0.0,
			"-0.018": 0.0,
			"-0.017": 0.0,
			"-0.016": 0.0,
			"-0.015": 0.0,
			"-0.014": 0.000404566072028,
			"-0.013": 0.0533549208322,
			"-0.012": 0.45796932386,
			"-0.011": 1.16625436677,
			"-0.01": 1.99118323427,
			"-0.009": 5.21064025901,
			"-0.008": 6.35459646696,
			"-0.007": 8.53091150876,
			"-0.006": 9.32224215557,
			"-0.005": 10.5704504682,
			"-0.004": 13.1288777766,
			"-0.003": 19.6452650492,
			"-0.002": 24.6322411805,
			"-0.001": 14.1363048212,
			"0.0": 11.8367356035,
			"0.001": 9.28615253488,
			"0.002": 7.19931095816,
			"0.003": 4.72289787342,
			"0.004": 4.76431813983,
			"0.005": 5.79389158138,
			"0.006": 6.35517386081,
			"0.007": 12.3451066878,
			"0.008": 8.45278856087,
			"0.009": 6.68416017937,
			"0.01": 6.12536794246,
			"0.011": 4.23109437436,
			"0.012": 2.18214620225,
			"0.013": 0.340788672025,
			"0.014": 0.0,
			"0.015": 0.0,
			"0.016": 0.0,
			"0.017": 0.0,
			"0.018": 0.0,
			"0.019": 0.0,
			"0.02": 0.0,
			"0.021": 0.0,
			"0.022": 0.0,
			"0.023": 0.0,
			"0.024": 0.0,
			"0.025": 0.0
		}
	}
}
