{
	 "smiles": "O=CC1=CNC2=C1C=C(C=C2)C#N", 
	 "Tm": 513.15, 
	 "num_atms": 19, 
	 "gaussian": { 
		 "optdone": 1, 
		 "sigma_profile": "yes", 
		 "theory": "DFT", 
		 "functional": "B3LYP", 
		 "basiset": "6-31G**", 
		 "properties": { 
			 "R2extent": 2484.7691, 
			 "electric_dipole_moment_norm": 9.37632689117, 
			 "electric_quadrupole_moment_norm": 8.40545442258, 
			 "total_energy": -569.389560685, 
			 "HOMO_LUMO_gap": 0.17852, 
			 "cosmo_polarized_energy": -21.79, 
			 "cosmo_cavitation_energy": 25.28, 
			 "cosmo_dispersion_energy": -17.97, 
			 "cosmo_repulsion_energy": 1.4, 
			 "cosmo_total_nonelectrostatic_energy": 8.71, 
			 "SMD_solvation_energy": 6.66 
		},
		"coords": [
			{
				"x": 2.5026287164,
				"y": -0.3288247972,
				"z": 1.8877688025,
				"element": "O" 
			},
			{
				"x": 1.7629755555,
				"y": -1.2823453589,
				"z": 1.7015494466,
				"element": "C" 
			},
			{
				"x": 0.6726550996,
				"y": -1.3011312921,
				"z": 0.7381054125,
				"element": "C" 
			},
			{
				"x": -0.1780676069,
				"y": -2.3649187109,
				"z": 0.5074545899,
				"element": "C" 
			},
			{
				"x": -1.0820414556,
				"y": -2.0303156621,
				"z": -0.4652754535,
				"element": "N" 
			},
			{
				"x": -0.8444623457,
				"y": -0.7346002992,
				"z": -0.8968543038,
				"element": "C" 
			},
			{
				"x": 0.2601899282,
				"y": -0.2414987988,
				"z": -0.156221354,
				"element": "C" 
			},
			{
				"x": 0.7232955847,
				"y": 1.0575743437,
				"z": -0.3882410041,
				"element": "C" 
			},
			{
				"x": 0.0689291144,
				"y": 1.8294137538,
				"z": -1.3553150651,
				"element": "C" 
			},
			{
				"x": -1.0348632026,
				"y": 1.3167276295,
				"z": -2.0854030131,
				"element": "C" 
			},
			{
				"x": -1.5029857536,
				"y": 0.0307086103,
				"z": -1.8643859278,
				"element": "C" 
			},
			{
				"x": 0.514141256,
				"y": 3.1664474788,
				"z": -1.6221421301,
				"element": "C" 
			},
			{
				"x": 0.8665359456,
				"y": 4.2522911567,
				"z": -1.8470292725,
				"element": "N" 
			},
			{
				"x": 1.8896922228,
				"y": -2.223358115,
				"z": 2.2820288362,
				"element": "H" 
			},
			{
				"x": -0.1988899377,
				"y": -3.3404859418,
				"z": 0.9734465095,
				"element": "H" 
			},
			{
				"x": -1.8093453868,
				"y": -2.6353929495,
				"z": -0.8136389635,
				"element": "H" 
			},
			{
				"x": 1.5659445204,
				"y": 1.445490173,
				"z": 0.1708753217,
				"element": "H" 
			},
			{
				"x": -1.5127565562,
				"y": 1.9488602665,
				"z": -2.8256586228,
				"element": "H" 
			},
			{
				"x": -2.3474756986,
				"y": -0.3591414868,
				"z": -2.4241638085,
				"element": "H" 
			}
		],
		 "valence_orbital": [ 
			{
				"type": "occ",
				"energy": -0.32316,
				"method": "rhf"
			},
			{
				"type": "occ",
				"energy": -0.30327,
				"method": "rhf"
			},
			{
				"type": "occ",
				"energy": -0.25598,
				"method": "rhf"
			},
			{
				"type": "occ",
				"energy": -0.25162,
				"method": "rhf"
			},
			{
				"type": "occ",
				"energy": -0.24076,
				"method": "rhf"
			},
			{
				"type": "unocc",
				"energy": -0.06224,
				"method": "rhf"
			},
			{
				"type": "unocc",
				"energy": -0.02904,
				"method": "rhf"
			},
			{
				"type": "unocc",
				"energy": -0.02743,
				"method": "rhf"
			},
			{
				"type": "unocc",
				"energy": 0.04401,
				"method": "rhf"
			},
			{
				"type": "unocc",
				"energy": 0.04934,
				"method": "rhf"
			}
		],
		"cosmo_sigma_profile": { 
			"-0.025": 0.0,
			"-0.024": 0.0,
			"-0.023": 0.0,
			"-0.022": 0.0,
			"-0.021": 0.0,
			"-0.02": 0.0,
			"-0.019": 0.0,
			"-0.018": 0.152962659604,
			"-0.017": 1.94772228663,
			"-0.016": 1.62642966666,
			"-0.015": 1.57108886223,
			"-0.014": 1.30436507729,
			"-0.013": 1.58787417599,
			"-0.012": 1.51397494038,
			"-0.011": 1.84596873554,
			"-0.01": 4.16400212451,
			"-0.009": 3.44643943168,
			"-0.008": 5.94846007363,
			"-0.007": 7.71323171106,
			"-0.006": 9.81277222429,
			"-0.005": 9.53529205148,
			"-0.004": 7.91524118051,
			"-0.003": 7.91345037309,
			"-0.002": 9.58819698517,
			"-0.001": 11.8155613818,
			"0.0": 15.8832113819,
			"0.001": 17.9938631379,
			"0.002": 22.0671879751,
			"0.003": 10.5389434257,
			"0.004": 4.38477337096,
			"0.005": 3.98562223848,
			"0.006": 4.3600653091,
			"0.007": 4.16327049242,
			"0.008": 5.14353567699,
			"0.009": 5.02135460767,
			"0.01": 5.64685961235,
			"0.011": 5.72196777998,
			"0.012": 5.74909523747,
			"0.013": 4.26519987208,
			"0.014": 0.816385786537,
			"0.015": 0.0,
			"0.016": 0.0,
			"0.017": 0.0,
			"0.018": 0.0,
			"0.019": 0.0,
			"0.02": 0.0,
			"0.021": 0.0,
			"0.022": 0.0,
			"0.023": 0.0,
			"0.024": 0.0,
			"0.025": 0.0
		}
	}
}
