{
	 "smiles": "OC(=O)CCC1=NN=CN1C1=CC=CC=C1", 
	 "Tm": 476.15, 
	 "num_atms": 27, 
	 "gaussian": { 
		 "optdone": 1, 
		 "sigma_profile": "yes", 
		 "theory": "DFT", 
		 "functional": "B3LYP", 
		 "basiset": "6-31G**", 
		 "properties": { 
			 "R2extent": 4856.0021, 
			 "electric_dipole_moment_norm": 4.08149663971, 
			 "electric_quadrupole_moment_norm": 23.261952041, 
			 "total_energy": -740.490628004, 
			 "HOMO_LUMO_gap": 0.21494, 
			 "cosmo_polarized_energy": -24.36, 
			 "cosmo_cavitation_energy": 32.2, 
			 "cosmo_dispersion_energy": -22.7, 
			 "cosmo_repulsion_energy": 1.78, 
			 "cosmo_total_nonelectrostatic_energy": 11.28, 
			 "SMD_solvation_energy": 5.16 
		},
		"coords": [
			{
				"x": 0.7624280822,
				"y": -0.3112116909,
				"z": 4.7585630366,
				"element": "O" 
			},
			{
				"x": 0.0537862166,
				"y": 0.1849227178,
				"z": 3.7096266974,
				"element": "C" 
			},
			{
				"x": -1.0947269825,
				"y": 0.5218400072,
				"z": 3.8611654387,
				"element": "O" 
			},
			{
				"x": 0.8163880959,
				"y": 0.2715422304,
				"z": 2.3973782055,
				"element": "C" 
			},
			{
				"x": -0.0608556406,
				"y": 0.7963361376,
				"z": 1.2594052028,
				"element": "C" 
			},
			{
				"x": 0.7350622441,
				"y": 0.9979165769,
				"z": 0.0071050652,
				"element": "C" 
			},
			{
				"x": 2.046867035,
				"y": 0.997375065,
				"z": -0.0676622103,
				"element": "N" 
			},
			{
				"x": 2.4046679647,
				"y": 1.1939910655,
				"z": -1.3885340261,
				"element": "N" 
			},
			{
				"x": 1.2964230092,
				"y": 1.2970995591,
				"z": -2.0722027488,
				"element": "C" 
			},
			{
				"x": 0.1957038527,
				"y": 1.1862653748,
				"z": -1.251806937,
				"element": "N" 
			},
			{
				"x": -1.172908004,
				"y": 1.2125932743,
				"z": -1.6574496406,
				"element": "C" 
			},
			{
				"x": -1.603622731,
				"y": 0.346880518,
				"z": -2.6685670806,
				"element": "C" 
			},
			{
				"x": -2.9338737825,
				"y": 0.3824404826,
				"z": -3.0857676276,
				"element": "C" 
			},
			{
				"x": -3.8355604933,
				"y": 1.2646650359,
				"z": -2.487232693,
				"element": "C" 
			},
			{
				"x": -3.4009572036,
				"y": 2.1218268288,
				"z": -1.4743989461,
				"element": "C" 
			},
			{
				"x": -2.0685254542,
				"y": 2.1066648719,
				"z": -1.0626034282,
				"element": "C" 
			},
			{
				"x": 1.6649209964,
				"y": -0.5257926229,
				"z": 4.4815194646,
				"element": "H" 
			},
			{
				"x": 1.6907906626,
				"y": 0.9205946455,
				"z": 2.5258643465,
				"element": "H" 
			},
			{
				"x": 1.2211566309,
				"y": -0.7169495398,
				"z": 2.1466594461,
				"element": "H" 
			},
			{
				"x": -0.8909014196,
				"y": 0.1057112926,
				"z": 1.0747809334,
				"element": "H" 
			},
			{
				"x": -0.5290172695,
				"y": 1.7336019602,
				"z": 1.5805476134,
				"element": "H" 
			},
			{
				"x": 1.2145553146,
				"y": 1.4705746144,
				"z": -3.1356144652,
				"element": "H" 
			},
			{
				"x": -0.9013520513,
				"y": -0.3533874604,
				"z": -3.1097114429,
				"element": "H" 
			},
			{
				"x": -3.266747131,
				"y": -0.2888488087,
				"z": -3.8715076525,
				"element": "H" 
			},
			{
				"x": -4.8724109071,
				"y": 1.2840420141,
				"z": -2.8084091179,
				"element": "H" 
			},
			{
				"x": -4.0962528261,
				"y": 2.8134414941,
				"z": -1.0087880108,
				"element": "H" 
			},
			{
				"x": -1.7198382085,
				"y": 2.791464356,
				"z": -0.2970594227,
				"element": "H" 
			}
		],
		 "valence_orbital": [ 
			{
				"type": "occ",
				"energy": -0.27709,
				"method": "rhf"
			},
			{
				"type": "occ",
				"energy": -0.27518,
				"method": "rhf"
			},
			{
				"type": "occ",
				"energy": -0.26816,
				"method": "rhf"
			},
			{
				"type": "occ",
				"energy": -0.25803,
				"method": "rhf"
			},
			{
				"type": "occ",
				"energy": -0.24944,
				"method": "rhf"
			},
			{
				"type": "unocc",
				"energy": -0.0345,
				"method": "rhf"
			},
			{
				"type": "unocc",
				"energy": -0.02833,
				"method": "rhf"
			},
			{
				"type": "unocc",
				"energy": 0.00826,
				"method": "rhf"
			},
			{
				"type": "unocc",
				"energy": 0.02135,
				"method": "rhf"
			},
			{
				"type": "unocc",
				"energy": 0.04151,
				"method": "rhf"
			}
		],
		"cosmo_sigma_profile": { 
			"-0.025": 0.0,
			"-0.024": 0.0,
			"-0.023": 0.0,
			"-0.022": 0.0,
			"-0.021": 0.0,
			"-0.02": 0.0329647556461,
			"-0.019": 0.701540384181,
			"-0.018": 1.19031239553,
			"-0.017": 1.19046294876,
			"-0.016": 1.23428096888,
			"-0.015": 0.955696687213,
			"-0.014": 0.631419581296,
			"-0.013": 1.23766491895,
			"-0.012": 1.34384815035,
			"-0.011": 1.79887584736,
			"-0.01": 2.35428720579,
			"-0.009": 2.98777649159,
			"-0.008": 6.44586473699,
			"-0.007": 12.7670288435,
			"-0.006": 20.2739492106,
			"-0.005": 23.409972641,
			"-0.004": 16.4512861549,
			"-0.003": 14.0017428931,
			"-0.002": 13.8660263248,
			"-0.001": 13.812406921,
			"0.0": 11.8886827164,
			"0.001": 10.9552672211,
			"0.002": 12.4908130498,
			"0.003": 13.1852236442,
			"0.004": 12.4883280457,
			"0.005": 5.86088302901,
			"0.006": 3.01335729116,
			"0.007": 4.68020353717,
			"0.008": 5.28819855925,
			"0.009": 4.89820573856,
			"0.01": 6.24033179405,
			"0.011": 8.34248399853,
			"0.012": 7.396260676,
			"0.013": 4.5276471084,
			"0.014": 3.39458203343,
			"0.015": 2.9768919929,
			"0.016": 1.82767649659,
			"0.017": 0.70710628131,
			"0.018": 0.0,
			"0.019": 0.0,
			"0.02": 0.0,
			"0.021": 0.0,
			"0.022": 0.0,
			"0.023": 0.0,
			"0.024": 0.0,
			"0.025": 0.0
		}
	}
}
