{
	 "smiles": "FC(F)C(F)C(F)(F)F", 
	 "Tm": 117.15, 
	 "num_atms": 11, 
	 "gaussian": { 
		 "optdone": 1, 
		 "sigma_profile": "yes", 
		 "theory": "DFT", 
		 "functional": "B3LYP", 
		 "basiset": "6-31G**", 
		 "properties": { 
			 "R2extent": 1206.7606, 
			 "electric_dipole_moment_norm": 2.06651232757, 
			 "electric_quadrupole_moment_norm": 3.56021854245, 
			 "total_energy": -714.546284872, 
			 "HOMO_LUMO_gap": 0.39752, 
			 "cosmo_polarized_energy": -5.59, 
			 "cosmo_cavitation_energy": 17.78, 
			 "cosmo_dispersion_energy": -12.26, 
			 "cosmo_repulsion_energy": 0.92, 
			 "cosmo_total_nonelectrostatic_energy": 6.44, 
			 "SMD_solvation_energy": 5.55 
		},
		"coords": [
			{
				"x": 2.0121153891,
				"y": -0.7146631287,
				"z": -0.1805695913,
				"element": "F" 
			},
			{
				"x": 1.0188431746,
				"y": -0.8201407927,
				"z": 0.7387963096,
				"element": "C" 
			},
			{
				"x": 1.3420794487,
				"y": -1.8136521017,
				"z": 1.6118493621,
				"element": "F" 
			},
			{
				"x": -0.2913121995,
				"y": -1.1963650255,
				"z": 0.0510922213,
				"element": "C" 
			},
			{
				"x": -0.1086713578,
				"y": -2.3399835931,
				"z": -0.6879159409,
				"element": "F" 
			},
			{
				"x": -0.8101489964,
				"y": -0.1003730485,
				"z": -0.8784369304,
				"element": "C" 
			},
			{
				"x": -0.9476308093,
				"y": 1.0458178242,
				"z": -0.1702434045,
				"element": "F" 
			},
			{
				"x": 0.0173820241,
				"y": 0.132965552,
				"z": -1.9028492931,
				"element": "F" 
			},
			{
				"x": -2.0124765236,
				"y": -0.4333276466,
				"z": -1.3735988237,
				"element": "F" 
			},
			{
				"x": 0.9346110832,
				"y": 0.1248409303,
				"z": 1.2872001855,
				"element": "H" 
			},
			{
				"x": -1.0527912332,
				"y": -1.3709189697,
				"z": 0.8198759054,
				"element": "H" 
			}
		],
		 "valence_orbital": [ 
			{
				"type": "occ",
				"energy": -0.42051,
				"method": "rhf"
			},
			{
				"type": "occ",
				"energy": -0.40983,
				"method": "rhf"
			},
			{
				"type": "occ",
				"energy": -0.40153,
				"method": "rhf"
			},
			{
				"type": "occ",
				"energy": -0.37269,
				"method": "rhf"
			},
			{
				"type": "occ",
				"energy": -0.34722,
				"method": "rhf"
			},
			{
				"type": "unocc",
				"energy": 0.0503,
				"method": "rhf"
			},
			{
				"type": "unocc",
				"energy": 0.07886,
				"method": "rhf"
			},
			{
				"type": "unocc",
				"energy": 0.11401,
				"method": "rhf"
			},
			{
				"type": "unocc",
				"energy": 0.1258,
				"method": "rhf"
			},
			{
				"type": "unocc",
				"energy": 0.14393,
				"method": "rhf"
			}
		],
		"cosmo_sigma_profile": { 
			"-0.025": 0.0,
			"-0.024": 0.0,
			"-0.023": 0.0,
			"-0.022": 0.0,
			"-0.021": 0.0,
			"-0.02": 0.0,
			"-0.019": 0.0,
			"-0.018": 0.0,
			"-0.017": 0.0,
			"-0.016": 0.0,
			"-0.015": 0.0,
			"-0.014": 0.0,
			"-0.013": 0.2365199014,
			"-0.012": 1.82282447173,
			"-0.011": 3.38291333984,
			"-0.01": 4.96365153185,
			"-0.009": 2.92288036727,
			"-0.008": 2.64080499812,
			"-0.007": 3.03746949094,
			"-0.006": 2.21957496522,
			"-0.005": 2.45641944245,
			"-0.004": 2.79816329216,
			"-0.003": 2.6463380892,
			"-0.002": 4.40930724378,
			"-0.001": 5.53771966687,
			"0.0": 6.70256798557,
			"0.001": 18.0244576637,
			"0.002": 33.0927099875,
			"0.003": 26.9924999184,
			"0.004": 18.1634470905,
			"0.005": 0.0305558135158,
			"0.006": 0.0,
			"0.007": 0.0,
			"0.008": 0.0,
			"0.009": 0.0,
			"0.01": 0.0,
			"0.011": 0.0,
			"0.012": 0.0,
			"0.013": 0.0,
			"0.014": 0.0,
			"0.015": 0.0,
			"0.016": 0.0,
			"0.017": 0.0,
			"0.018": 0.0,
			"0.019": 0.0,
			"0.02": 0.0,
			"0.021": 0.0,
			"0.022": 0.0,
			"0.023": 0.0,
			"0.024": 0.0,
			"0.025": 0.0
		}
	}
}
