{
	 "smiles": "NC(=S)C1=C(Cl)C(Cl)=CC=C1", 
	 "Tm": 395.15, 
	 "num_atms": 16, 
	 "gaussian": { 
		 "optdone": 1, 
		 "sigma_profile": "yes", 
		 "theory": "DFT", 
		 "functional": "B3LYP", 
		 "basiset": "6-31G**", 
		 "properties": { 
			 "R2extent": 3975.5798, 
			 "electric_dipole_moment_norm": 3.44144242143, 
			 "electric_quadrupole_moment_norm": 21.095284744, 
			 "total_energy": -1643.08065038, 
			 "HOMO_LUMO_gap": 0.15056, 
			 "cosmo_polarized_energy": -13.48, 
			 "cosmo_cavitation_energy": 25.46, 
			 "cosmo_dispersion_energy": -19.34, 
			 "cosmo_repulsion_energy": 1.52, 
			 "cosmo_total_nonelectrostatic_energy": 7.63, 
			 "SMD_solvation_energy": 2.94 
		},
		"coords": [
			{
				"x": 0.7858077285,
				"y": 1.4005083469,
				"z": -2.0004251776,
				"element": "N" 
			},
			{
				"x": -0.2427805301,
				"y": 1.9513595606,
				"z": -1.3300261147,
				"element": "C" 
			},
			{
				"x": -0.1456109046,
				"y": 3.4544071804,
				"z": -0.6205761038,
				"element": "S" 
			},
			{
				"x": -1.513527052,
				"y": 1.1519541233,
				"z": -1.3058351502,
				"element": "C" 
			},
			{
				"x": -1.5916765952,
				"y": -0.1917548601,
				"z": -0.885328391,
				"element": "C" 
			},
			{
				"x": -0.1740728278,
				"y": -1.0352751527,
				"z": -0.2917103147,
				"element": "Cl" 
			},
			{
				"x": -2.8286174305,
				"y": -0.8576456153,
				"z": -0.8924822933,
				"element": "C" 
			},
			{
				"x": -2.9712924068,
				"y": -2.5151835683,
				"z": -0.3572390979,
				"element": "Cl" 
			},
			{
				"x": -3.9814835961,
				"y": -0.2039566587,
				"z": -1.3260128376,
				"element": "C" 
			},
			{
				"x": -3.9082984889,
				"y": 1.1242330937,
				"z": -1.7378934321,
				"element": "C" 
			},
			{
				"x": -2.6911905402,
				"y": 1.7947074891,
				"z": -1.7164332431,
				"element": "C" 
			},
			{
				"x": 1.6756183493,
				"y": 1.8785478221,
				"z": -1.9909845135,
				"element": "H" 
			},
			{
				"x": 0.744098471,
				"y": 0.4602051181,
				"z": -2.3648149534,
				"element": "H" 
			},
			{
				"x": -4.9232098342,
				"y": -0.7410013066,
				"z": -1.3266545344,
				"element": "H" 
			},
			{
				"x": -4.8055021478,
				"y": 1.6367787849,
				"z": -2.0692453014,
				"element": "H" 
			},
			{
				"x": -2.6252621946,
				"y": 2.8350156426,
				"z": -2.0130385411,
				"element": "H" 
			}
		],
		 "valence_orbital": [ 
			{
				"type": "occ",
				"energy": -0.31677,
				"method": "rhf"
			},
			{
				"type": "occ",
				"energy": -0.27633,
				"method": "rhf"
			},
			{
				"type": "occ",
				"energy": -0.26185,
				"method": "rhf"
			},
			{
				"type": "occ",
				"energy": -0.2397,
				"method": "rhf"
			},
			{
				"type": "occ",
				"energy": -0.21593,
				"method": "rhf"
			},
			{
				"type": "unocc",
				"energy": -0.06537,
				"method": "rhf"
			},
			{
				"type": "unocc",
				"energy": -0.03371,
				"method": "rhf"
			},
			{
				"type": "unocc",
				"energy": -0.01174,
				"method": "rhf"
			},
			{
				"type": "unocc",
				"energy": -0.00916,
				"method": "rhf"
			},
			{
				"type": "unocc",
				"energy": 0.05179,
				"method": "rhf"
			}
		],
		"cosmo_sigma_profile": { 
			"-0.025": 0.0,
			"-0.024": 0.0,
			"-0.023": 0.0,
			"-0.022": 0.0,
			"-0.021": 0.0,
			"-0.02": 0.0,
			"-0.019": 0.0,
			"-0.018": 0.0,
			"-0.017": 0.0,
			"-0.016": 0.315828094518,
			"-0.015": 1.95050097341,
			"-0.014": 2.82950846006,
			"-0.013": 1.89048691395,
			"-0.012": 2.91277227418,
			"-0.011": 1.87907524994,
			"-0.01": 1.85493882192,
			"-0.009": 2.33428142987,
			"-0.008": 4.27727114835,
			"-0.007": 6.66339591942,
			"-0.006": 7.96537713923,
			"-0.005": 5.98327152989,
			"-0.004": 7.473378584,
			"-0.003": 8.46362325701,
			"-0.002": 10.8760035078,
			"-0.001": 15.8093112294,
			"0.0": 21.2786191987,
			"0.001": 18.9274449576,
			"0.002": 18.6528588368,
			"0.003": 18.197084132,
			"0.004": 15.1631391241,
			"0.005": 7.29251404954,
			"0.006": 4.32069444499,
			"0.007": 5.91737115383,
			"0.008": 6.69799257227,
			"0.009": 4.2168904656,
			"0.01": 3.94055017844,
			"0.011": 2.79330854136,
			"0.012": 0.564238511885,
			"0.013": 0.0,
			"0.014": 0.0,
			"0.015": 0.0,
			"0.016": 0.0,
			"0.017": 0.0,
			"0.018": 0.0,
			"0.019": 0.0,
			"0.02": 0.0,
			"0.021": 0.0,
			"0.022": 0.0,
			"0.023": 0.0,
			"0.024": 0.0,
			"0.025": 0.0
		}
	}
}
