{
	 "smiles": "COC1=CC(CCl)=C(OC)C=C1CCl", 
	 "Tm": 437.15, 
	 "num_atms": 26, 
	 "gaussian": { 
		 "optdone": 1, 
		 "sigma_profile": "yes", 
		 "theory": "DFT", 
		 "functional": "B3LYP", 
		 "basiset": "6-31G**", 
		 "properties": { 
			 "R2extent": 4634.7536, 
			 "electric_dipole_moment_norm": 0.0, 
			 "electric_quadrupole_moment_norm": 24.5236780492, 
			 "total_energy": -1459.11525513, 
			 "HOMO_LUMO_gap": 0.16754, 
			 "cosmo_polarized_energy": -12.32, 
			 "cosmo_cavitation_energy": 33.12, 
			 "cosmo_dispersion_energy": -23.38, 
			 "cosmo_repulsion_energy": 1.91, 
			 "cosmo_total_nonelectrostatic_energy": 11.65, 
			 "SMD_solvation_energy": 6.4 
		},
		"coords": [
			{
				"x": 1.7443267601,
				"y": -2.2510776905,
				"z": 1.2189700608,
				"element": "C" 
			},
			{
				"x": 0.6439912475,
				"y": -1.9733761639,
				"z": 0.3670426144,
				"element": "O" 
			},
			{
				"x": 0.1222892813,
				"y": -0.7115150902,
				"z": 0.3666609207,
				"element": "C" 
			},
			{
				"x": 0.5969323223,
				"y": 0.3391334502,
				"z": 1.15567067,
				"element": "C" 
			},
			{
				"x": 0.0105667988,
				"y": 1.6076690541,
				"z": 1.1028161861,
				"element": "C" 
			},
			{
				"x": 0.5329835759,
				"y": 2.717417505,
				"z": 1.9574394929,
				"element": "C" 
			},
			{
				"x": 1.8192256839,
				"y": 3.7188827284,
				"z": 1.0982485605,
				"element": "Cl" 
			},
			{
				"x": -1.0747468168,
				"y": 1.8294943672,
				"z": 0.2338288969,
				"element": "C" 
			},
			{
				"x": -1.5964491953,
				"y": 3.0913554636,
				"z": 0.2334462733,
				"element": "O" 
			},
			{
				"x": -2.6967947989,
				"y": 3.3690480873,
				"z": -0.6184724374,
				"element": "C" 
			},
			{
				"x": -1.5493898264,
				"y": 0.7788463364,
				"z": -0.5551813932,
				"element": "C" 
			},
			{
				"x": -0.9630240905,
				"y": -0.4896887188,
				"z": -0.502326643,
				"element": "C" 
			},
			{
				"x": -1.4854407527,
				"y": -1.5994375036,
				"z": -1.3569502042,
				"element": "C" 
			},
			{
				"x": -2.7716975893,
				"y": -2.6008895232,
				"z": -0.4977661504,
				"element": "Cl" 
			},
			{
				"x": 2.61526098,
				"y": -1.6309954822,
				"z": 0.9706098446,
				"element": "H" 
			},
			{
				"x": 1.9921023782,
				"y": -3.3009457242,
				"z": 1.0567666734,
				"element": "H" 
			},
			{
				"x": 1.4840987803,
				"y": -2.1018433254,
				"z": 2.2745396129,
				"element": "H" 
			},
			{
				"x": 1.4367111816,
				"y": 0.1895791864,
				"z": 1.8244656648,
				"element": "H" 
			},
			{
				"x": -0.2476028729,
				"y": 3.4270762547,
				"z": 2.2226876278,
				"element": "H" 
			},
			{
				"x": 1.0199905382,
				"y": 2.339348218,
				"z": 2.8558106122,
				"element": "H" 
			},
			{
				"x": -2.4365735409,
				"y": 3.219817134,
				"z": -1.6740441215,
				"element": "H" 
			},
			{
				"x": -2.9445771011,
				"y": 4.4189138018,
				"z": -0.4562653224,
				"element": "H" 
			},
			{
				"x": -3.5677205958,
				"y": 2.7489572256,
				"z": -0.3701053939,
				"element": "H" 
			},
			{
				"x": -2.38916853,
				"y": 0.928402085,
				"z": -1.2239762547,
				"element": "H" 
			},
			{
				"x": -1.9724368765,
				"y": -1.2213689497,
				"z": -2.2553275634,
				"element": "H" 
			},
			{
				"x": -0.704856941,
				"y": -2.309102726,
				"z": -1.6221882271,
				"element": "H" 
			}
		],
		 "valence_orbital": [ 
			{
				"type": "occ",
				"energy": -0.29002,
				"method": "rhf"
			},
			{
				"type": "occ",
				"energy": -0.2873,
				"method": "rhf"
			},
			{
				"type": "occ",
				"energy": -0.2857,
				"method": "rhf"
			},
			{
				"type": "occ",
				"energy": -0.25823,
				"method": "rhf"
			},
			{
				"type": "occ",
				"energy": -0.21115,
				"method": "rhf"
			},
			{
				"type": "unocc",
				"energy": -0.04361,
				"method": "rhf"
			},
			{
				"type": "unocc",
				"energy": 0.00817,
				"method": "rhf"
			},
			{
				"type": "unocc",
				"energy": 0.02421,
				"method": "rhf"
			},
			{
				"type": "unocc",
				"energy": 0.0572,
				"method": "rhf"
			},
			{
				"type": "unocc",
				"energy": 0.08681,
				"method": "rhf"
			}
		],
		"cosmo_sigma_profile": { 
			"-0.025": 0.0,
			"-0.024": 0.0,
			"-0.023": 0.0,
			"-0.022": 0.0,
			"-0.021": 0.0,
			"-0.02": 0.0,
			"-0.019": 0.0,
			"-0.018": 0.0,
			"-0.017": 0.0,
			"-0.016": 0.0,
			"-0.015": 0.0,
			"-0.014": 0.0,
			"-0.013": 0.0,
			"-0.012": 0.0,
			"-0.011": 0.0,
			"-0.01": 0.0,
			"-0.009": 0.0,
			"-0.008": 4.44988703461,
			"-0.007": 10.3359899955,
			"-0.006": 19.6423572439,
			"-0.005": 25.9354641345,
			"-0.004": 24.8004720852,
			"-0.003": 22.5136446776,
			"-0.002": 12.40247305,
			"-0.001": 10.1311664503,
			"0.0": 11.5387143767,
			"0.001": 12.2490779449,
			"0.002": 13.8595790295,
			"0.003": 20.5774267305,
			"0.004": 16.1081704525,
			"0.005": 15.9576175795,
			"0.006": 19.2934820843,
			"0.007": 22.3930167427,
			"0.008": 4.44687243874,
			"0.009": 0.261248459896,
			"0.01": 0.0,
			"0.011": 0.0,
			"0.012": 0.0,
			"0.013": 0.0,
			"0.014": 0.0,
			"0.015": 0.0,
			"0.016": 0.0,
			"0.017": 0.0,
			"0.018": 0.0,
			"0.019": 0.0,
			"0.02": 0.0,
			"0.021": 0.0,
			"0.022": 0.0,
			"0.023": 0.0,
			"0.024": 0.0,
			"0.025": 0.0
		}
	}
}
