{
	 "smiles": "OC1=C(Cl)C=C(Cl)C=C1Cl", 
	 "Tm": 340.65, 
	 "num_atms": 13, 
	 "gaussian": { 
		 "optdone": 1, 
		 "sigma_profile": "yes", 
		 "theory": "DFT", 
		 "functional": "B3LYP", 
		 "basiset": "6-31G**", 
		 "properties": { 
			 "R2extent": 2624.4892, 
			 "electric_dipole_moment_norm": 1.41307283959, 
			 "electric_quadrupole_moment_norm": 5.44424845502, 
			 "total_energy": -1686.2396005, 
			 "HOMO_LUMO_gap": 0.20224, 
			 "cosmo_polarized_energy": -6.27, 
			 "cosmo_cavitation_energy": 22.9, 
			 "cosmo_dispersion_energy": -17.67, 
			 "cosmo_repulsion_energy": 1.44, 
			 "cosmo_total_nonelectrostatic_energy": 6.67, 
			 "SMD_solvation_energy": 3.52 
		},
		"coords": [
			{
				"x": -0.9626827042,
				"y": 2.1389119755,
				"z": -0.7392066125,
				"element": "O" 
			},
			{
				"x": -0.4387308071,
				"y": 0.899182657,
				"z": -0.6697620136,
				"element": "C" 
			},
			{
				"x": 0.3925900934,
				"y": 0.3477193316,
				"z": -1.6590138048,
				"element": "C" 
			},
			{
				"x": 0.7654978164,
				"y": 1.3380755353,
				"z": -3.0641458642,
				"element": "Cl" 
			},
			{
				"x": 0.9200190129,
				"y": -0.9361405095,
				"z": -1.5613430075,
				"element": "C" 
			},
			{
				"x": 0.6080616539,
				"y": -1.697375927,
				"z": -0.4382554241,
				"element": "C" 
			},
			{
				"x": 1.259210424,
				"y": -3.3189448535,
				"z": -0.2893757917,
				"element": "Cl" 
			},
			{
				"x": -0.2126088084,
				"y": -1.1925256848,
				"z": 0.5690984752,
				"element": "C" 
			},
			{
				"x": -0.7274397873,
				"y": 0.0950566614,
				"z": 0.4470604921,
				"element": "C" 
			},
			{
				"x": -1.7554515996,
				"y": 0.7348616577,
				"z": 1.7031028871,
				"element": "Cl" 
			},
			{
				"x": -0.6703405325,
				"y": 2.5580258237,
				"z": -1.5633230722,
				"element": "H" 
			},
			{
				"x": 1.5574318871,
				"y": -1.3276023223,
				"z": -2.3442251873,
				"element": "H" 
			},
			{
				"x": -0.4523566486,
				"y": -1.7885443452,
				"z": 1.4407889236,
				"element": "H" 
			}
		],
		 "valence_orbital": [ 
			{
				"type": "occ",
				"energy": -0.32958,
				"method": "rhf"
			},
			{
				"type": "occ",
				"energy": -0.32022,
				"method": "rhf"
			},
			{
				"type": "occ",
				"energy": -0.31586,
				"method": "rhf"
			},
			{
				"type": "occ",
				"energy": -0.26688,
				"method": "rhf"
			},
			{
				"type": "occ",
				"energy": -0.24107,
				"method": "rhf"
			},
			{
				"type": "unocc",
				"energy": -0.03883,
				"method": "rhf"
			},
			{
				"type": "unocc",
				"energy": -0.02249,
				"method": "rhf"
			},
			{
				"type": "unocc",
				"energy": -0.02142,
				"method": "rhf"
			},
			{
				"type": "unocc",
				"energy": 0.03475,
				"method": "rhf"
			},
			{
				"type": "unocc",
				"energy": 0.04284,
				"method": "rhf"
			}
		],
		"cosmo_sigma_profile": { 
			"-0.025": 0.0,
			"-0.024": 0.0,
			"-0.023": 0.0,
			"-0.022": 0.0,
			"-0.021": 0.0,
			"-0.02": 0.0,
			"-0.019": 0.0,
			"-0.018": 0.0,
			"-0.017": 0.172167192368,
			"-0.016": 0.509431246776,
			"-0.015": 0.654008463828,
			"-0.014": 0.180959647008,
			"-0.013": 0.980640442688,
			"-0.012": 1.2482645506,
			"-0.011": 0.625254906733,
			"-0.01": 1.30658604872,
			"-0.009": 2.86562637503,
			"-0.008": 3.77377189999,
			"-0.007": 3.19305756602,
			"-0.006": 5.47087165259,
			"-0.005": 4.70667558242,
			"-0.004": 4.99888637162,
			"-0.003": 8.87525160262,
			"-0.002": 12.3095706939,
			"-0.001": 18.7205496157,
			"0.0": 24.6947383191,
			"0.001": 25.8289922093,
			"0.002": 16.5712067736,
			"0.003": 21.0367207937,
			"0.004": 18.5886701584,
			"0.005": 4.56923510276,
			"0.006": 2.62551895011,
			"0.007": 1.52021035811,
			"0.008": 1.94616665163,
			"0.009": 2.20779592801,
			"0.01": 1.1698891238,
			"0.011": 0.0,
			"0.012": 0.0,
			"0.013": 0.0,
			"0.014": 0.0,
			"0.015": 0.0,
			"0.016": 0.0,
			"0.017": 0.0,
			"0.018": 0.0,
			"0.019": 0.0,
			"0.02": 0.0,
			"0.021": 0.0,
			"0.022": 0.0,
			"0.023": 0.0,
			"0.024": 0.0,
			"0.025": 0.0
		}
	}
}
