{
	 "smiles": "OC(=O)C1=CC(OCC2=C(OC(F)F)C=CC=C2)=CC=C1", 
	 "Tm": 413.15, 
	 "num_atms": 33, 
	 "gaussian": { 
		 "optdone": 1, 
		 "sigma_profile": "yes", 
		 "theory": "DFT", 
		 "functional": "B3LYP", 
		 "basiset": "6-31G**", 
		 "properties": { 
			 "R2extent": 9731.8066, 
			 "electric_dipole_moment_norm": 6.52762758282, 
			 "electric_quadrupole_moment_norm": 21.4917087276, 
			 "total_energy": -1079.3956462, 
			 "HOMO_LUMO_gap": 0.18944, 
			 "cosmo_polarized_energy": -17.77, 
			 "cosmo_cavitation_energy": 39.08, 
			 "cosmo_dispersion_energy": -27.37, 
			 "cosmo_repulsion_energy": 2.06, 
			 "cosmo_total_nonelectrostatic_energy": 13.77, 
			 "SMD_solvation_energy": 9.08 
		},
		"coords": [
			{
				"x": -3.7015557199,
				"y": 0.7343932444,
				"z": -3.7506801854,
				"element": "O" 
			},
			{
				"x": -4.1438211202,
				"y": 0.176550059,
				"z": -2.5914006704,
				"element": "C" 
			},
			{
				"x": -5.2475669972,
				"y": -0.3123906073,
				"z": -2.5393163585,
				"element": "O" 
			},
			{
				"x": -3.1987337401,
				"y": 0.2045838327,
				"z": -1.425841844,
				"element": "C" 
			},
			{
				"x": -2.1452722423,
				"y": 1.1187962942,
				"z": -1.3385061396,
				"element": "C" 
			},
			{
				"x": -1.2962011917,
				"y": 1.115618473,
				"z": -0.2242390225,
				"element": "C" 
			},
			{
				"x": -0.3061128081,
				"y": 2.0604414787,
				"z": -0.2436559349,
				"element": "O" 
			},
			{
				"x": 0.4593151049,
				"y": 2.2890307321,
				"z": 0.9368550187,
				"element": "C" 
			},
			{
				"x": 1.6251094834,
				"y": 1.3302057815,
				"z": 1.0944877497,
				"element": "C" 
			},
			{
				"x": 2.3069302402,
				"y": 1.2616380519,
				"z": 2.3188456387,
				"element": "C" 
			},
			{
				"x": 1.8034459109,
				"y": 2.0783017497,
				"z": 3.3267778476,
				"element": "O" 
			},
			{
				"x": 2.6666149463,
				"y": 2.5259790881,
				"z": 4.2979623822,
				"element": "C" 
			},
			{
				"x": 2.8647923445,
				"y": 1.5669975005,
				"z": 5.2473077666,
				"element": "F" 
			},
			{
				"x": 2.0681325642,
				"y": 3.5702393123,
				"z": 4.8956583158,
				"element": "F" 
			},
			{
				"x": 3.3937635635,
				"y": 0.4071896793,
				"z": 2.5042004115,
				"element": "C" 
			},
			{
				"x": 3.8316104071,
				"y": -0.3755244125,
				"z": 1.4328470069,
				"element": "C" 
			},
			{
				"x": 3.178097921,
				"y": -0.3137732579,
				"z": 0.2039958933,
				"element": "C" 
			},
			{
				"x": 2.0790365359,
				"y": 0.5330775188,
				"z": 0.0426115845,
				"element": "C" 
			},
			{
				"x": -1.4994767973,
				"y": 0.1867842317,
				"z": 0.8026337455,
				"element": "C" 
			},
			{
				"x": -2.5666574901,
				"y": -0.7128991414,
				"z": 0.7128251285,
				"element": "C" 
			},
			{
				"x": -3.4208778819,
				"y": -0.7073231979,
				"z": -0.3839013415,
				"element": "C" 
			},
			{
				"x": -2.7580877981,
				"y": 0.9360751687,
				"z": -3.6821999749,
				"element": "H" 
			},
			{
				"x": -1.9777345386,
				"y": 1.8855922598,
				"z": -2.0897601049,
				"element": "H" 
			},
			{
				"x": 0.8307798262,
				"y": 3.3143305776,
				"z": 0.834079458,
				"element": "H" 
			},
			{
				"x": -0.1847255558,
				"y": 2.2713447784,
				"z": 1.8227710396,
				"element": "H" 
			},
			{
				"x": 3.6425639756,
				"y": 2.8211577799,
				"z": 3.8947173298,
				"element": "H" 
			},
			{
				"x": 3.8702637314,
				"y": 0.3312256841,
				"z": 3.4741861263,
				"element": "H" 
			},
			{
				"x": 4.6784776115,
				"y": -1.0405489186,
				"z": 1.57186691,
				"element": "H" 
			},
			{
				"x": 3.5159989931,
				"y": -0.9253689435,
				"z": -0.6266740462,
				"element": "H" 
			},
			{
				"x": 1.5613228842,
				"y": 0.5859716263,
				"z": -0.9089825502,
				"element": "H" 
			},
			{
				"x": -0.8362927698,
				"y": 0.1493016172,
				"z": 1.6583396242,
				"element": "H" 
			},
			{
				"x": -2.7216484703,
				"y": -1.4275354543,
				"z": 1.5156307205,
				"element": "H" 
			},
			{
				"x": -4.2558909226,
				"y": -1.3939625864,
				"z": -0.4599415247,
				"element": "H" 
			}
		],
		 "valence_orbital": [ 
			{
				"type": "occ",
				"energy": -0.27588,
				"method": "rhf"
			},
			{
				"type": "occ",
				"energy": -0.2701,
				"method": "rhf"
			},
			{
				"type": "occ",
				"energy": -0.26559,
				"method": "rhf"
			},
			{
				"type": "occ",
				"energy": -0.25291,
				"method": "rhf"
			},
			{
				"type": "occ",
				"energy": -0.23855,
				"method": "rhf"
			},
			{
				"type": "unocc",
				"energy": -0.04911,
				"method": "rhf"
			},
			{
				"type": "unocc",
				"energy": -0.02423,
				"method": "rhf"
			},
			{
				"type": "unocc",
				"energy": -0.01812,
				"method": "rhf"
			},
			{
				"type": "unocc",
				"energy": -0.00946,
				"method": "rhf"
			},
			{
				"type": "unocc",
				"energy": 0.05202,
				"method": "rhf"
			}
		],
		"cosmo_sigma_profile": { 
			"-0.025": 0.0,
			"-0.024": 0.0,
			"-0.023": 0.0,
			"-0.022": 0.0,
			"-0.021": 0.0,
			"-0.02": 0.0,
			"-0.019": 0.15769963112,
			"-0.018": 0.775386683544,
			"-0.017": 0.966822191705,
			"-0.016": 1.12361737717,
			"-0.015": 0.524072985237,
			"-0.014": 0.980860914382,
			"-0.013": 1.245729592,
			"-0.012": 1.17551177606,
			"-0.011": 1.07098626102,
			"-0.01": 3.62684069308,
			"-0.009": 4.29813203758,
			"-0.008": 3.24708238036,
			"-0.007": 8.65082286998,
			"-0.006": 18.5582821521,
			"-0.005": 19.1386455107,
			"-0.004": 21.3259252423,
			"-0.003": 16.5468424191,
			"-0.002": 16.715715457,
			"-0.001": 15.9281701071,
			"0.0": 18.0908603753,
			"0.001": 21.4106711023,
			"0.002": 26.9014022232,
			"0.003": 38.098093179,
			"0.004": 29.5512433128,
			"0.005": 10.5637393374,
			"0.006": 5.24688880285,
			"0.007": 3.23626982297,
			"0.008": 3.0190900052,
			"0.009": 4.71410178549,
			"0.01": 4.47395406006,
			"0.011": 5.44082614539,
			"0.012": 5.03690149128,
			"0.013": 1.32000411246,
			"0.014": 0.0227810808366,
			"0.015": 0.0,
			"0.016": 0.0,
			"0.017": 0.0,
			"0.018": 0.0,
			"0.019": 0.0,
			"0.02": 0.0,
			"0.021": 0.0,
			"0.022": 0.0,
			"0.023": 0.0,
			"0.024": 0.0,
			"0.025": 0.0
		}
	}
}
