{
	 "smiles": "CNC(N[N+]([O-])=O)=NCC1CCOC1", 
	 "Tm": 380.65, 
	 "num_atms": 28, 
	 "gaussian": { 
		 "optdone": 1, 
		 "sigma_profile": "yes", 
		 "theory": "DFT", 
		 "functional": "B3LYP", 
		 "basiset": "6-31G**", 
		 "properties": { 
			 "R2extent": 4385.9933, 
			 "electric_dipole_moment_norm": 5.29212871726, 
			 "electric_quadrupole_moment_norm": 16.11217923, 
			 "total_energy": -719.715236211, 
			 "HOMO_LUMO_gap": 0.1684, 
			 "cosmo_polarized_energy": -15.13, 
			 "cosmo_cavitation_energy": 31.07, 
			 "cosmo_dispersion_energy": -22.52, 
			 "cosmo_repulsion_energy": 1.84, 
			 "cosmo_total_nonelectrostatic_energy": 10.39, 
			 "SMD_solvation_energy": 5.51 
		},
		"coords": [
			{
				"x": 2.003620266,
				"y": 3.6932428868,
				"z": -1.144497922,
				"element": "C" 
			},
			{
				"x": 1.3501484594,
				"y": 2.3936401916,
				"z": -1.2020288637,
				"element": "N" 
			},
			{
				"x": 0.3451269625,
				"y": 1.9463260562,
				"z": -0.3927899939,
				"element": "C" 
			},
			{
				"x": -0.0608763239,
				"y": 2.8458328393,
				"z": 0.6507423865,
				"element": "N" 
			},
			{
				"x": -0.9211152841,
				"y": 3.914439636,
				"z": 0.3138144167,
				"element": "N" 
			},
			{
				"x": -1.6069136561,
				"y": 4.3354159426,
				"z": 1.2343313221,
				"element": "O" 
			},
			{
				"x": -0.8723462958,
				"y": 4.3428215749,
				"z": -0.8312751038,
				"element": "O" 
			},
			{
				"x": -0.1992102527,
				"y": 0.7881315891,
				"z": -0.3744661177,
				"element": "N" 
			},
			{
				"x": 0.3011219527,
				"y": -0.226572644,
				"z": -1.2861946849,
				"element": "C" 
			},
			{
				"x": -0.3246635106,
				"y": -1.5976240851,
				"z": -1.0037886466,
				"element": "C" 
			},
			{
				"x": -0.1276388988,
				"y": -2.1286209404,
				"z": 0.4255344064,
				"element": "C" 
			},
			{
				"x": -1.2427640545,
				"y": -3.1729618323,
				"z": 0.5323161593,
				"element": "C" 
			},
			{
				"x": -2.3101588227,
				"y": -2.7139535321,
				"z": -0.3035441952,
				"element": "O" 
			},
			{
				"x": -1.8567105871,
				"y": -1.6364345901,
				"z": -1.1275920167,
				"element": "C" 
			},
			{
				"x": 1.4770412895,
				"y": 4.4528537305,
				"z": -1.7308684354,
				"element": "H" 
			},
			{
				"x": 2.0543161033,
				"y": 4.0281600059,
				"z": -0.1074017728,
				"element": "H" 
			},
			{
				"x": 3.0254561097,
				"y": 3.5879850789,
				"z": -1.519059179,
				"element": "H" 
			},
			{
				"x": 1.4946543543,
				"y": 1.8516374682,
				"z": -2.040119901,
				"element": "H" 
			},
			{
				"x": -0.4933677454,
				"y": 2.3466771765,
				"z": 1.4225783198,
				"element": "H" 
			},
			{
				"x": 0.0802685414,
				"y": 0.0505745724,
				"z": -2.3327717071,
				"element": "H" 
			},
			{
				"x": 1.400100685,
				"y": -0.3113797845,
				"z": -1.2172315224,
				"element": "H" 
			},
			{
				"x": 0.1098784896,
				"y": -2.313766372,
				"z": -1.7143182336,
				"element": "H" 
			},
			{
				"x": -0.2874588726,
				"y": -1.3118703184,
				"z": 1.1367658398,
				"element": "H" 
			},
			{
				"x": 0.8678228924,
				"y": -2.5500854706,
				"z": 0.5979941745,
				"element": "H" 
			},
			{
				"x": -1.6209879677,
				"y": -3.2962017556,
				"z": 1.5539531454,
				"element": "H" 
			},
			{
				"x": -0.8973563857,
				"y": -4.1577707042,
				"z": 0.1803999649,
				"element": "H" 
			},
			{
				"x": -2.2889646223,
				"y": -0.6894351138,
				"z": -0.7765843974,
				"element": "H" 
			},
			{
				"x": -2.1929228257,
				"y": -1.8118616057,
				"z": -2.1571974422,
				"element": "H" 
			}
		],
		 "valence_orbital": [ 
			{
				"type": "occ",
				"energy": -0.30476,
				"method": "rhf"
			},
			{
				"type": "occ",
				"energy": -0.29838,
				"method": "rhf"
			},
			{
				"type": "occ",
				"energy": -0.27007,
				"method": "rhf"
			},
			{
				"type": "occ",
				"energy": -0.24391,
				"method": "rhf"
			},
			{
				"type": "occ",
				"energy": -0.23116,
				"method": "rhf"
			},
			{
				"type": "unocc",
				"energy": -0.06276,
				"method": "rhf"
			},
			{
				"type": "unocc",
				"energy": 0.00277,
				"method": "rhf"
			},
			{
				"type": "unocc",
				"energy": 0.06171,
				"method": "rhf"
			},
			{
				"type": "unocc",
				"energy": 0.08708,
				"method": "rhf"
			},
			{
				"type": "unocc",
				"energy": 0.09544,
				"method": "rhf"
			}
		],
		"cosmo_sigma_profile": { 
			"-0.025": 0.0,
			"-0.024": 0.0,
			"-0.023": 0.0,
			"-0.022": 0.0,
			"-0.021": 0.0,
			"-0.02": 0.0,
			"-0.019": 0.0,
			"-0.018": 0.0,
			"-0.017": 0.0,
			"-0.016": 0.134440503491,
			"-0.015": 0.57636556798,
			"-0.014": 1.75534297291,
			"-0.013": 1.43834727994,
			"-0.012": 1.2843227612,
			"-0.011": 2.86125702317,
			"-0.01": 1.99974879369,
			"-0.009": 2.46762625544,
			"-0.008": 2.76645400079,
			"-0.007": 2.52470426964,
			"-0.006": 4.987111872,
			"-0.005": 8.65174509441,
			"-0.004": 17.2634729386,
			"-0.003": 30.2896569733,
			"-0.002": 35.4972928605,
			"-0.001": 21.8919856367,
			"0.0": 15.4142677218,
			"0.001": 12.0603664634,
			"0.002": 9.13648915897,
			"0.003": 10.0978893907,
			"0.004": 6.55946744918,
			"0.005": 6.92248962209,
			"0.006": 8.83265569119,
			"0.007": 11.9512774229,
			"0.008": 9.0186147723,
			"0.009": 6.31797786264,
			"0.01": 2.27347082284,
			"0.011": 1.17512105057,
			"0.012": 2.40411097448,
			"0.013": 1.3599920059,
			"0.014": 2.00506357108,
			"0.015": 0.818718856239,
			"0.016": 0.0,
			"0.017": 0.0,
			"0.018": 0.0,
			"0.019": 0.0,
			"0.02": 0.0,
			"0.021": 0.0,
			"0.022": 0.0,
			"0.023": 0.0,
			"0.024": 0.0,
			"0.025": 0.0
		}
	}
}
