{
	 "smiles": "CCOC(=O)C1=C(N)N(N=N1)C1=CC(=CC=C1)[N+]([O-])=O", 
	 "Tm": 425.15, 
	 "num_atms": 31, 
	 "gaussian": { 
		 "optdone": 1, 
		 "sigma_profile": "yes", 
		 "theory": "DFT", 
		 "functional": "B3LYP", 
		 "basiset": "6-31G**", 
		 "properties": { 
			 "R2extent": 8596.8793, 
			 "electric_dipole_moment_norm": 9.20696740844, 
			 "electric_quadrupole_moment_norm": 20.1568133719, 
			 "total_energy": -1000.32724302, 
			 "HOMO_LUMO_gap": 0.14223, 
			 "cosmo_polarized_energy": -25.85, 
			 "cosmo_cavitation_energy": 37.4, 
			 "cosmo_dispersion_energy": -26.81, 
			 "cosmo_repulsion_energy": 2.06, 
			 "cosmo_total_nonelectrostatic_energy": 12.65, 
			 "SMD_solvation_energy": 8.36 
		},
		"coords": [
			{
				"x": -5.7699191468,
				"y": 0.1628388088,
				"z": -0.5977268624,
				"element": "C" 
			},
			{
				"x": -5.1042267052,
				"y": 1.5256656955,
				"z": -0.5774127861,
				"element": "C" 
			},
			{
				"x": -3.6900813893,
				"y": 1.3217896149,
				"z": -0.3463116481,
				"element": "O" 
			},
			{
				"x": -2.9310198574,
				"y": 2.4652281802,
				"z": -0.3095144728,
				"element": "C" 
			},
			{
				"x": -3.397336173,
				"y": 3.572216916,
				"z": -0.4522794937,
				"element": "O" 
			},
			{
				"x": -1.5233384697,
				"y": 2.1377832131,
				"z": -0.0724208549,
				"element": "C" 
			},
			{
				"x": -0.9228336678,
				"y": 0.8875333132,
				"z": 0.0959325157,
				"element": "C" 
			},
			{
				"x": -1.4444931681,
				"y": -0.3781953951,
				"z": 0.0312813319,
				"element": "N" 
			},
			{
				"x": 0.3911042876,
				"y": 1.1758308389,
				"z": 0.3088310014,
				"element": "N" 
			},
			{
				"x": 0.5824111679,
				"y": 2.5632476498,
				"z": 0.2861430829,
				"element": "N" 
			},
			{
				"x": -0.5556094929,
				"y": 3.1014338428,
				"z": 0.0531996931,
				"element": "N" 
			},
			{
				"x": 1.4945550785,
				"y": 0.3175266754,
				"z": 0.5366844086,
				"element": "C" 
			},
			{
				"x": 2.4869204653,
				"y": 0.7281728732,
				"z": 1.4312864921,
				"element": "C" 
			},
			{
				"x": 3.5771778097,
				"y": -0.1113578742,
				"z": 1.62568312,
				"element": "C" 
			},
			{
				"x": 3.7112966238,
				"y": -1.3381520958,
				"z": 0.9783504804,
				"element": "C" 
			},
			{
				"x": 2.7113222829,
				"y": -1.7259357856,
				"z": 0.0897445294,
				"element": "C" 
			},
			{
				"x": 1.6087650341,
				"y": -0.9022752662,
				"z": -0.1442897777,
				"element": "C" 
			},
			{
				"x": 4.6303104782,
				"y": 0.3117270607,
				"z": 2.5711502153,
				"element": "N" 
			},
			{
				"x": 4.4807147375,
				"y": 1.3878379086,
				"z": 3.1439970872,
				"element": "O" 
			},
			{
				"x": 5.587724466,
				"y": -0.4444809955,
				"z": 2.7248949701,
				"element": "O" 
			},
			{
				"x": -6.8434486973,
				"y": 0.2781944733,
				"z": -0.7755397169,
				"element": "H" 
			},
			{
				"x": -5.6389748561,
				"y": -0.354901575,
				"z": 0.3576925345,
				"element": "H" 
			},
			{
				"x": -5.3588017321,
				"y": -0.4644331744,
				"z": -1.3945651614,
				"element": "H" 
			},
			{
				"x": -5.2309689868,
				"y": 2.0587343062,
				"z": -1.5243248842,
				"element": "H" 
			},
			{
				"x": -5.5016263707,
				"y": 2.1658355148,
				"z": 0.2159731061,
				"element": "H" 
			},
			{
				"x": -2.4577045068,
				"y": -0.3717176678,
				"z": 0.0351309632,
				"element": "H" 
			},
			{
				"x": -1.022535077,
				"y": -1.0701768903,
				"z": 0.6367412202,
				"element": "H" 
			},
			{
				"x": 2.417183664,
				"y": 1.6751870906,
				"z": 1.9490603857,
				"element": "H" 
			},
			{
				"x": 4.5804321671,
				"y": -1.9528847331,
				"z": 1.1736018489,
				"element": "H" 
			},
			{
				"x": 2.7963463095,
				"y": -2.6695233573,
				"z": -0.4392300888,
				"element": "H" 
			},
			{
				"x": 0.850253725,
				"y": -1.1917491659,
				"z": -0.8631632398,
				"element": "H" 
			}
		],
		 "valence_orbital": [ 
			{
				"type": "occ",
				"energy": -0.30017,
				"method": "rhf"
			},
			{
				"type": "occ",
				"energy": -0.28051,
				"method": "rhf"
			},
			{
				"type": "occ",
				"energy": -0.27538,
				"method": "rhf"
			},
			{
				"type": "occ",
				"energy": -0.27054,
				"method": "rhf"
			},
			{
				"type": "occ",
				"energy": -0.24385,
				"method": "rhf"
			},
			{
				"type": "unocc",
				"energy": -0.10162,
				"method": "rhf"
			},
			{
				"type": "unocc",
				"energy": -0.05649,
				"method": "rhf"
			},
			{
				"type": "unocc",
				"energy": -0.02562,
				"method": "rhf"
			},
			{
				"type": "unocc",
				"energy": -0.02148,
				"method": "rhf"
			},
			{
				"type": "unocc",
				"energy": 0.00732,
				"method": "rhf"
			}
		],
		"cosmo_sigma_profile": { 
			"-0.025": 0.0,
			"-0.024": 0.0,
			"-0.023": 0.0,
			"-0.022": 0.0,
			"-0.021": 0.0,
			"-0.02": 0.0,
			"-0.019": 0.0,
			"-0.018": 0.0,
			"-0.017": 0.0,
			"-0.016": 0.0,
			"-0.015": 0.688308075642,
			"-0.014": 1.15384071581,
			"-0.013": 1.86689840425,
			"-0.012": 1.79695460355,
			"-0.011": 2.94893849855,
			"-0.01": 1.46765887487,
			"-0.009": 2.36989396482,
			"-0.008": 7.16233469619,
			"-0.007": 10.0686103322,
			"-0.006": 11.2598913109,
			"-0.005": 17.1595760245,
			"-0.004": 24.6539698392,
			"-0.003": 27.1394165045,
			"-0.002": 29.1107295626,
			"-0.001": 30.5235459007,
			"0.0": 22.9488418655,
			"0.001": 14.8594590056,
			"0.002": 8.42747478897,
			"0.003": 7.16722053714,
			"0.004": 5.72122634373,
			"0.005": 6.3440668261,
			"0.006": 8.67305078708,
			"0.007": 12.9572196645,
			"0.008": 10.3213760189,
			"0.009": 8.4491288112,
			"0.01": 6.58492638537,
			"0.011": 5.49901358515,
			"0.012": 6.56395358605,
			"0.013": 3.36206199656,
			"0.014": 2.00114459492,
			"0.015": 0.267565599873,
			"0.016": 0.0,
			"0.017": 0.0,
			"0.018": 0.0,
			"0.019": 0.0,
			"0.02": 0.0,
			"0.021": 0.0,
			"0.022": 0.0,
			"0.023": 0.0,
			"0.024": 0.0,
			"0.025": 0.0
		}
	}
}
