{
	 "smiles": "COC1=CC(OC)=NC(NC(=O)NS(=O)(=O)C2=C(C(O)=O)C(Cl)=NN2C)=N1", 
	 "Tm": 449.15, 
	 "num_atms": 40, 
	 "gaussian": { 
		 "optdone": 1, 
		 "sigma_profile": "yes", 
		 "theory": "DFT", 
		 "functional": "B3LYP", 
		 "basiset": "6-31G**", 
		 "properties": { 
			 "R2extent": 15768.6612, 
			 "electric_dipole_moment_norm": 10.9412760106, 
			 "electric_quadrupole_moment_norm": 49.2252069837, 
			 "total_energy": -2178.50210306, 
			 "HOMO_LUMO_gap": 0.19434, 
			 "cosmo_polarized_energy": -27.8, 
			 "cosmo_cavitation_energy": 48.82, 
			 "cosmo_dispersion_energy": -34.29, 
			 "cosmo_repulsion_energy": 2.53, 
			 "cosmo_total_nonelectrostatic_energy": 17.06, 
			 "SMD_solvation_energy": 8.68 
		},
		"coords": [
			{
				"x": 2.0053671889,
				"y": 4.2526212582,
				"z": 3.9648245481,
				"element": "C" 
			},
			{
				"x": 1.7766668971,
				"y": 2.8847617039,
				"z": 4.3394177236,
				"element": "O" 
			},
			{
				"x": 1.2648201989,
				"y": 2.0600034306,
				"z": 3.4214948185,
				"element": "C" 
			},
			{
				"x": 1.0523402657,
				"y": 0.7293835448,
				"z": 3.7947746561,
				"element": "C" 
			},
			{
				"x": 0.5182434287,
				"y": -0.0936578393,
				"z": 2.807507648,
				"element": "C" 
			},
			{
				"x": 0.3011230247,
				"y": -1.3776987201,
				"z": 3.1114078146,
				"element": "O" 
			},
			{
				"x": -0.2227857444,
				"y": -2.2475907649,
				"z": 2.0981319149,
				"element": "C" 
			},
			{
				"x": 0.217763736,
				"y": 0.354177061,
				"z": 1.5754524689,
				"element": "N" 
			},
			{
				"x": 0.4738586221,
				"y": 1.6481739606,
				"z": 1.3425071033,
				"element": "C" 
			},
			{
				"x": 0.1961767824,
				"y": 2.16759646,
				"z": 0.082156819,
				"element": "N" 
			},
			{
				"x": -0.295861422,
				"y": 1.5751194361,
				"z": -1.0791867089,
				"element": "C" 
			},
			{
				"x": -0.3905432611,
				"y": 2.1938761706,
				"z": -2.1204785728,
				"element": "O" 
			},
			{
				"x": -0.6949848663,
				"y": 0.2494683128,
				"z": -0.9237570061,
				"element": "N" 
			},
			{
				"x": -1.02165083,
				"y": -0.7537961731,
				"z": -2.229854841,
				"element": "S" 
			},
			{
				"x": -1.324032049,
				"y": -2.0379407268,
				"z": -1.6009749902,
				"element": "O" 
			},
			{
				"x": 0.0445308695,
				"y": -0.6688530022,
				"z": -3.2322816594,
				"element": "O" 
			},
			{
				"x": -2.4969710711,
				"y": -0.0870596079,
				"z": -2.9627455624,
				"element": "C" 
			},
			{
				"x": -2.6927839289,
				"y": 0.7931725988,
				"z": -4.0413387872,
				"element": "C" 
			},
			{
				"x": -1.7806219689,
				"y": 1.5619486091,
				"z": -4.9630504838,
				"element": "C" 
			},
			{
				"x": -0.5239371711,
				"y": 1.1485311112,
				"z": -5.1327986912,
				"element": "O" 
			},
			{
				"x": -2.2115715088,
				"y": 2.515795886,
				"z": -5.5700112962,
				"element": "O" 
			},
			{
				"x": -4.1095276496,
				"y": 0.8991283319,
				"z": -4.081573794,
				"element": "C" 
			},
			{
				"x": -5.0956864447,
				"y": 1.7829952954,
				"z": -5.1792264291,
				"element": "Cl" 
			},
			{
				"x": -4.7100142162,
				"y": 0.179673862,
				"z": -3.1407883483,
				"element": "N" 
			},
			{
				"x": -3.7219335825,
				"y": -0.4116305257,
				"z": -2.4529838535,
				"element": "N" 
			},
			{
				"x": -4.0958716157,
				"y": -1.2576139312,
				"z": -1.320199457,
				"element": "C" 
			},
			{
				"x": 0.9827760056,
				"y": 2.5329276382,
				"z": 2.2007485472,
				"element": "N" 
			},
			{
				"x": 1.0707897775,
				"y": 4.7388470828,
				"z": 3.6746053509,
				"element": "H" 
			},
			{
				"x": 2.7133853626,
				"y": 4.3162287564,
				"z": 3.1349349247,
				"element": "H" 
			},
			{
				"x": 2.4194545251,
				"y": 4.7247924373,
				"z": 4.8554330578,
				"element": "H" 
			},
			{
				"x": 1.2901593835,
				"y": 0.3613572226,
				"z": 4.7825557577,
				"element": "H" 
			},
			{
				"x": 0.4454738529,
				"y": -2.2985282404,
				"z": 1.2343826528,
				"element": "H" 
			},
			{
				"x": -1.2143740286,
				"y": -1.9216115596,
				"z": 1.771854098,
				"element": "H" 
			},
			{
				"x": -0.2927639909,
				"y": -3.2265763701,
				"z": 2.5714516607,
				"element": "H" 
			},
			{
				"x": 0.4392062944,
				"y": 3.1426640537,
				"z": -0.0386829877,
				"element": "H" 
			},
			{
				"x": -0.4836267411,
				"y": -0.2026244776,
				"z": -0.0180745575,
				"element": "H" 
			},
			{
				"x": -0.2688982358,
				"y": 0.4324684814,
				"z": -4.5179174775,
				"element": "H" 
			},
			{
				"x": -5.1775165615,
				"y": -1.1729880246,
				"z": -1.2336765679,
				"element": "H" 
			},
			{
				"x": -3.8011807934,
				"y": -2.291541997,
				"z": -1.4979583207,
				"element": "H" 
			},
			{
				"x": -3.6194985344,
				"y": -0.9002007449,
				"z": -0.4047811722,
				"element": "H" 
			}
		],
		 "valence_orbital": [ 
			{
				"type": "occ",
				"energy": -0.29758,
				"method": "rhf"
			},
			{
				"type": "occ",
				"energy": -0.2826,
				"method": "rhf"
			},
			{
				"type": "occ",
				"energy": -0.26259,
				"method": "rhf"
			},
			{
				"type": "occ",
				"energy": -0.25968,
				"method": "rhf"
			},
			{
				"type": "occ",
				"energy": -0.25628,
				"method": "rhf"
			},
			{
				"type": "unocc",
				"energy": -0.06194,
				"method": "rhf"
			},
			{
				"type": "unocc",
				"energy": -0.05015,
				"method": "rhf"
			},
			{
				"type": "unocc",
				"energy": -0.03679,
				"method": "rhf"
			},
			{
				"type": "unocc",
				"energy": -0.00256,
				"method": "rhf"
			},
			{
				"type": "unocc",
				"energy": 0.01299,
				"method": "rhf"
			}
		],
		"cosmo_sigma_profile": { 
			"-0.025": 0.0,
			"-0.024": 0.0,
			"-0.023": 0.0,
			"-0.022": 0.0,
			"-0.021": 0.0,
			"-0.02": 0.0,
			"-0.019": 0.0,
			"-0.018": 0.0,
			"-0.017": 0.0,
			"-0.016": 0.329224566309,
			"-0.015": 1.03417032096,
			"-0.014": 0.628329953472,
			"-0.013": 0.425829343743,
			"-0.012": 0.377188406306,
			"-0.011": 1.59027782796,
			"-0.01": 1.17412120489,
			"-0.009": 0.924704165666,
			"-0.008": 5.07648573505,
			"-0.007": 14.1586140105,
			"-0.006": 25.3412174348,
			"-0.005": 31.942529925,
			"-0.004": 36.6076164726,
			"-0.003": 35.2989359232,
			"-0.002": 29.3126933934,
			"-0.001": 24.6543056105,
			"0.0": 21.4263313365,
			"0.001": 21.9756436649,
			"0.002": 18.663307534,
			"0.003": 19.3925622184,
			"0.004": 17.6275002689,
			"0.005": 13.7804746599,
			"0.006": 12.9229742804,
			"0.007": 13.5336678581,
			"0.008": 12.733044642,
			"0.009": 10.5624846137,
			"0.01": 7.70143006277,
			"0.011": 8.34872738217,
			"0.012": 4.94961239411,
			"0.013": 1.21956720162,
			"0.014": 0.0,
			"0.015": 0.0,
			"0.016": 0.0,
			"0.017": 0.0,
			"0.018": 0.0,
			"0.019": 0.0,
			"0.02": 0.0,
			"0.021": 0.0,
			"0.022": 0.0,
			"0.023": 0.0,
			"0.024": 0.0,
			"0.025": 0.0
		}
	}
}
