{
	 "smiles": "NNC(=O)CN1C=CC(=N1)C(F)(F)F", 
	 "Tm": 431.15, 
	 "num_atms": 21, 
	 "gaussian": { 
		 "optdone": 1, 
		 "sigma_profile": "yes", 
		 "theory": "DFT", 
		 "functional": "B3LYP", 
		 "basiset": "6-31G**", 
		 "properties": { 
			 "R2extent": 3765.9668, 
			 "electric_dipole_moment_norm": 2.77260889416, 
			 "electric_quadrupole_moment_norm": 17.4446650326, 
			 "total_energy": -826.562527421, 
			 "HOMO_LUMO_gap": 0.22786, 
			 "cosmo_polarized_energy": -14.9, 
			 "cosmo_cavitation_energy": 27.56, 
			 "cosmo_dispersion_energy": -18.98, 
			 "cosmo_repulsion_energy": 1.45, 
			 "cosmo_total_nonelectrostatic_energy": 10.03, 
			 "SMD_solvation_energy": 6.75 
		},
		"coords": [
			{
				"x": -0.8508582564,
				"y": 2.6284029298,
				"z": -2.7083117342,
				"element": "N" 
			},
			{
				"x": 0.3686926536,
				"y": 2.0696330105,
				"z": -3.1300867699,
				"element": "N" 
			},
			{
				"x": 1.2980810145,
				"y": 1.4174285954,
				"z": -2.3726642058,
				"element": "C" 
			},
			{
				"x": 2.2553352087,
				"y": 0.8328753257,
				"z": -2.8598038466,
				"element": "O" 
			},
			{
				"x": 1.081406571,
				"y": 1.4347280456,
				"z": -0.8468271323,
				"element": "C" 
			},
			{
				"x": 0.2130073849,
				"y": 0.3438026666,
				"z": -0.4215979621,
				"element": "N" 
			},
			{
				"x": 0.576625112,
				"y": -0.9111988917,
				"z": -0.0430293034,
				"element": "C" 
			},
			{
				"x": -0.5902974464,
				"y": -1.6250856671,
				"z": 0.1510940262,
				"element": "C" 
			},
			{
				"x": -1.61154918,
				"y": -0.7046743438,
				"z": -0.1555584416,
				"element": "C" 
			},
			{
				"x": -1.1243422806,
				"y": 0.4863041801,
				"z": -0.5062820458,
				"element": "N" 
			},
			{
				"x": -3.0908103278,
				"y": -0.916633498,
				"z": -0.0746074471,
				"element": "C" 
			},
			{
				"x": -3.7383614056,
				"y": -0.3342394522,
				"z": -1.1013818234,
				"element": "F" 
			},
			{
				"x": -3.6120555432,
				"y": -0.4098981014,
				"z": 1.0645785892,
				"element": "F" 
			},
			{
				"x": -3.3756323784,
				"y": -2.237047486,
				"z": -0.0919831361,
				"element": "F" 
			},
			{
				"x": -0.6867128809,
				"y": 3.5194849115,
				"z": -2.2464157088,
				"element": "H" 
			},
			{
				"x": -1.3259624583,
				"y": 1.9928419657,
				"z": -2.0674328526,
				"element": "H" 
			},
			{
				"x": 0.4776922144,
				"y": 1.966520179,
				"z": -4.1315194114,
				"element": "H" 
			},
			{
				"x": 2.0604138135,
				"y": 1.2917290798,
				"z": -0.3895680381,
				"element": "H" 
			},
			{
				"x": 0.6426290783,
				"y": 2.3684313866,
				"z": -0.4908465736,
				"element": "H" 
			},
			{
				"x": 1.6153996296,
				"y": -1.1907721576,
				"z": 0.0495911461,
				"element": "H" 
			},
			{
				"x": -0.6948005229,
				"y": -2.6513326785,
				"z": 0.4655526714,
				"element": "H" 
			}
		],
		 "valence_orbital": [ 
			{
				"type": "occ",
				"energy": -0.29643,
				"method": "rhf"
			},
			{
				"type": "occ",
				"energy": -0.2867,
				"method": "rhf"
			},
			{
				"type": "occ",
				"energy": -0.27668,
				"method": "rhf"
			},
			{
				"type": "occ",
				"energy": -0.2647,
				"method": "rhf"
			},
			{
				"type": "occ",
				"energy": -0.25038,
				"method": "rhf"
			},
			{
				"type": "unocc",
				"energy": -0.02252,
				"method": "rhf"
			},
			{
				"type": "unocc",
				"energy": 0.00311,
				"method": "rhf"
			},
			{
				"type": "unocc",
				"energy": 0.03129,
				"method": "rhf"
			},
			{
				"type": "unocc",
				"energy": 0.07152,
				"method": "rhf"
			},
			{
				"type": "unocc",
				"energy": 0.08781,
				"method": "rhf"
			}
		],
		"cosmo_sigma_profile": { 
			"-0.025": 0.0,
			"-0.024": 0.0,
			"-0.023": 0.0,
			"-0.022": 0.0,
			"-0.021": 0.0,
			"-0.02": 0.0,
			"-0.019": 0.0,
			"-0.018": 0.0,
			"-0.017": 0.0,
			"-0.016": 0.0,
			"-0.015": 0.0230212474863,
			"-0.014": 0.580403041315,
			"-0.013": 1.41425760371,
			"-0.012": 1.59045559123,
			"-0.011": 3.64467828367,
			"-0.01": 6.4056128689,
			"-0.009": 6.34378839875,
			"-0.008": 7.40717829574,
			"-0.007": 8.84438539673,
			"-0.006": 8.31458702537,
			"-0.005": 8.84977381342,
			"-0.004": 7.55153057432,
			"-0.003": 7.6701552257,
			"-0.002": 8.49989907603,
			"-0.001": 12.2865321416,
			"0.0": 14.3994593119,
			"0.001": 16.1817866972,
			"0.002": 29.1209867572,
			"0.003": 36.5586709715,
			"0.004": 4.88236540439,
			"0.005": 2.63063365143,
			"0.006": 2.17657659363,
			"0.007": 2.25413058629,
			"0.008": 2.20534430634,
			"0.009": 2.79087478489,
			"0.01": 2.07779935781,
			"0.011": 1.47512046528,
			"0.012": 3.78687778507,
			"0.013": 6.43883445858,
			"0.014": 2.27906020665,
			"0.015": 0.55287223788,
			"0.016": 0.408983158906,
			"0.017": 0.0120741590343,
			"0.018": 0.0,
			"0.019": 0.0,
			"0.02": 0.0,
			"0.021": 0.0,
			"0.022": 0.0,
			"0.023": 0.0,
			"0.024": 0.0,
			"0.025": 0.0
		}
	}
}
