{
	 "smiles": "CN1CCN(CC1)S(=O)(=O)C1=CC=C(C=C1)C(=O)NN", 
	 "Tm": 444.15, 
	 "num_atms": 38, 
	 "gaussian": { 
		 "optdone": 1, 
		 "sigma_profile": "yes", 
		 "theory": "DFT", 
		 "functional": "B3LYP", 
		 "basiset": "6-31G**", 
		 "properties": { 
			 "R2extent": 8389.8654, 
			 "electric_dipole_moment_norm": 7.95171772009, 
			 "electric_quadrupole_moment_norm": 17.3082501747, 
			 "total_energy": -1310.87815942, 
			 "HOMO_LUMO_gap": 0.14174, 
			 "cosmo_polarized_energy": -24.14, 
			 "cosmo_cavitation_energy": 40.97, 
			 "cosmo_dispersion_energy": -29.61, 
			 "cosmo_repulsion_energy": 2.24, 
			 "cosmo_total_nonelectrostatic_energy": 13.59, 
			 "SMD_solvation_energy": 3.92 
		},
		"coords": [
			{
				"x": -1.9097550157,
				"y": -5.6808793029,
				"z": -0.7562228546,
				"element": "C" 
			},
			{
				"x": -1.8335468239,
				"y": -4.5969712546,
				"z": -1.7282708332,
				"element": "N" 
			},
			{
				"x": -0.5272758152,
				"y": -3.9364574502,
				"z": -1.7952946861,
				"element": "C" 
			},
			{
				"x": -0.2696038837,
				"y": -2.9669391885,
				"z": -0.626986212,
				"element": "C" 
			},
			{
				"x": -1.371647761,
				"y": -1.992822074,
				"z": -0.4700391819,
				"element": "N" 
			},
			{
				"x": -2.7095190481,
				"y": -2.6233337226,
				"z": -0.4376870467,
				"element": "C" 
			},
			{
				"x": -2.9043975515,
				"y": -3.603872747,
				"z": -1.6073595998,
				"element": "C" 
			},
			{
				"x": -1.2144320999,
				"y": -0.5407325142,
				"z": -1.3236957748,
				"element": "S" 
			},
			{
				"x": -0.5328034114,
				"y": -0.7439728403,
				"z": -2.6115044595,
				"element": "O" 
			},
			{
				"x": -2.5284750069,
				"y": 0.1105368944,
				"z": -1.2710603147,
				"element": "O" 
			},
			{
				"x": -0.0775184187,
				"y": 0.3711380644,
				"z": -0.2701959193,
				"element": "C" 
			},
			{
				"x": -0.518005322,
				"y": 0.8295202574,
				"z": 0.9735900562,
				"element": "C" 
			},
			{
				"x": 0.3552370566,
				"y": 1.5471874409,
				"z": 1.785361729,
				"element": "C" 
			},
			{
				"x": 1.6637107572,
				"y": 1.8180056529,
				"z": 1.35226718,
				"element": "C" 
			},
			{
				"x": 2.0737613856,
				"y": 1.3769089813,
				"z": 0.086803817,
				"element": "C" 
			},
			{
				"x": 1.211256959,
				"y": 0.6455683094,
				"z": -0.72735733,
				"element": "C" 
			},
			{
				"x": 2.6648350064,
				"y": 2.6473130438,
				"z": 2.1088358391,
				"element": "C" 
			},
			{
				"x": 3.5621802143,
				"y": 3.2423668788,
				"z": 1.5212127424,
				"element": "O" 
			},
			{
				"x": 2.5707168203,
				"y": 2.7848375496,
				"z": 3.4800427173,
				"element": "N" 
			},
			{
				"x": 1.8861107178,
				"y": 1.8871327842,
				"z": 4.3142253687,
				"element": "N" 
			},
			{
				"x": -1.135418296,
				"y": -6.421393628,
				"z": -0.9835538647,
				"element": "H" 
			},
			{
				"x": -1.7866024427,
				"y": -5.3876810458,
				"z": 0.3023177509,
				"element": "H" 
			},
			{
				"x": -2.8818238977,
				"y": -6.1772543841,
				"z": -0.8474764525,
				"element": "H" 
			},
			{
				"x": 0.2574654525,
				"y": -4.7014439876,
				"z": -1.8240991181,
				"element": "H" 
			},
			{
				"x": -0.4765205414,
				"y": -3.3671164685,
				"z": -2.7302210265,
				"element": "H" 
			},
			{
				"x": 0.6712355993,
				"y": -2.4280466346,
				"z": -0.7669065959,
				"element": "H" 
			},
			{
				"x": -0.1919755108,
				"y": -3.5085197223,
				"z": 0.3239400079,
				"element": "H" 
			},
			{
				"x": -2.7830430948,
				"y": -3.1452336647,
				"z": 0.5247841716,
				"element": "H" 
			},
			{
				"x": -3.4642114306,
				"y": -1.8357900519,
				"z": -0.4504931766,
				"element": "H" 
			},
			{
				"x": -3.8630263065,
				"y": -4.1249012012,
				"z": -1.4998985389,
				"element": "H" 
			},
			{
				"x": -2.9450324392,
				"y": -3.0308921459,
				"z": -2.5428792489,
				"element": "H" 
			},
			{
				"x": -1.5340632624,
				"y": 0.6306314306,
				"z": 1.2964980966,
				"element": "H" 
			},
			{
				"x": 0.0231291432,
				"y": 1.8936973134,
				"z": 2.7540279985,
				"element": "H" 
			},
			{
				"x": 3.0730544434,
				"y": 1.6302247778,
				"z": -0.249192814,
				"element": "H" 
			},
			{
				"x": 1.5157240372,
				"y": 0.3046502642,
				"z": -1.7104970285,
				"element": "H" 
			},
			{
				"x": 3.3522049447,
				"y": 3.3176931458,
				"z": 3.8537659368,
				"element": "H" 
			},
			{
				"x": 1.3808091453,
				"y": 2.4095652597,
				"z": 5.0243256306,
				"element": "H" 
			},
			{
				"x": 2.5392656975,
				"y": 1.2575759803,
				"z": 4.7769930344,
				"element": "H" 
			}
		],
		 "valence_orbital": [ 
			{
				"type": "occ",
				"energy": -0.27251,
				"method": "rhf"
			},
			{
				"type": "occ",
				"energy": -0.26561,
				"method": "rhf"
			},
			{
				"type": "occ",
				"energy": -0.26028,
				"method": "rhf"
			},
			{
				"type": "occ",
				"energy": -0.25245,
				"method": "rhf"
			},
			{
				"type": "occ",
				"energy": -0.19879,
				"method": "rhf"
			},
			{
				"type": "unocc",
				"energy": -0.05705,
				"method": "rhf"
			},
			{
				"type": "unocc",
				"energy": -0.01584,
				"method": "rhf"
			},
			{
				"type": "unocc",
				"energy": 0.0321,
				"method": "rhf"
			},
			{
				"type": "unocc",
				"energy": 0.05279,
				"method": "rhf"
			},
			{
				"type": "unocc",
				"energy": 0.06675,
				"method": "rhf"
			}
		],
		"cosmo_sigma_profile": { 
			"-0.025": 0.0,
			"-0.024": 0.0,
			"-0.023": 0.0,
			"-0.022": 0.0,
			"-0.021": 0.0,
			"-0.02": 0.0,
			"-0.019": 0.0,
			"-0.018": 0.0,
			"-0.017": 0.0,
			"-0.016": 0.0,
			"-0.015": 0.0,
			"-0.014": 0.185359024758,
			"-0.013": 1.26430353763,
			"-0.012": 4.49889445004,
			"-0.011": 5.46120582649,
			"-0.01": 4.87423344296,
			"-0.009": 4.45336200038,
			"-0.008": 4.2468238768,
			"-0.007": 4.41486426852,
			"-0.006": 9.05444258521,
			"-0.005": 19.4378378645,
			"-0.004": 31.7374604198,
			"-0.003": 31.6653095078,
			"-0.002": 27.3885257416,
			"-0.001": 25.4446083164,
			"0.0": 22.3808981696,
			"0.001": 17.6896482005,
			"0.002": 20.7021388765,
			"0.003": 12.3920928041,
			"0.004": 8.25843852564,
			"0.005": 8.59770885128,
			"0.006": 5.94529670448,
			"0.007": 5.21331956668,
			"0.008": 7.62736013634,
			"0.009": 6.23923772383,
			"0.01": 8.82462587204,
			"0.011": 8.7570067936,
			"0.012": 6.15304058564,
			"0.013": 5.98770257187,
			"0.014": 2.28175306484,
			"0.015": 0.457697764535,
			"0.016": 0.330674957383,
			"0.017": 0.0879076132335,
			"0.018": 0.0,
			"0.019": 0.0,
			"0.02": 0.0,
			"0.021": 0.0,
			"0.022": 0.0,
			"0.023": 0.0,
			"0.024": 0.0,
			"0.025": 0.0
		}
	}
}
