{
	 "smiles": "CCCCCCCC(=O)C1=CC=CC=C1O", 
	 "Tm": 294.0, 
	 "num_atms": 36, 
	 "gaussian": { 
		 "optdone": 1, 
		 "sigma_profile": "yes", 
		 "theory": "DFT", 
		 "functional": "B3LYP", 
		 "basiset": "6-31G**", 
		 "properties": { 
			 "R2extent": 6117.2633, 
			 "electric_dipole_moment_norm": 4.34225617277, 
			 "electric_quadrupole_moment_norm": 14.1881024602, 
			 "total_energy": -696.008213596, 
			 "HOMO_LUMO_gap": 0.18541, 
			 "cosmo_polarized_energy": -12.12, 
			 "cosmo_cavitation_energy": 37.95, 
			 "cosmo_dispersion_energy": -26.44, 
			 "cosmo_repulsion_energy": 2.1, 
			 "cosmo_total_nonelectrostatic_energy": 13.6, 
			 "SMD_solvation_energy": 6.53 
		},
		"coords": [
			{
				"x": -1.6047142664,
				"y": -3.4829464752,
				"z": -3.1288439494,
				"element": "C" 
			},
			{
				"x": -1.1517279633,
				"y": -4.3323952119,
				"z": -1.9351576728,
				"element": "C" 
			},
			{
				"x": -1.4610323318,
				"y": -3.7164469557,
				"z": -0.5606070532,
				"element": "C" 
			},
			{
				"x": -0.7010403121,
				"y": -2.4184095551,
				"z": -0.2521073656,
				"element": "C" 
			},
			{
				"x": -0.9892915824,
				"y": -1.880182387,
				"z": 1.1565615517,
				"element": "C" 
			},
			{
				"x": -0.3178166405,
				"y": -0.5374986891,
				"z": 1.4875254559,
				"element": "C" 
			},
			{
				"x": 1.2239642433,
				"y": -0.6132040757,
				"z": 1.556007849,
				"element": "C" 
			},
			{
				"x": 1.8217905016,
				"y": 0.708572061,
				"z": 2.0112087718,
				"element": "C" 
			},
			{
				"x": 2.0683849433,
				"y": 0.8695467125,
				"z": 3.2002490242,
				"element": "O" 
			},
			{
				"x": 2.0980387734,
				"y": 1.8392629766,
				"z": 1.0511968296,
				"element": "C" 
			},
			{
				"x": 2.6624229115,
				"y": 2.9990624809,
				"z": 1.6147208553,
				"element": "C" 
			},
			{
				"x": 2.9838824792,
				"y": 4.1159477458,
				"z": 0.8555779416,
				"element": "C" 
			},
			{
				"x": 2.7402075504,
				"y": 4.0967924827,
				"z": -0.5206603064,
				"element": "C" 
			},
			{
				"x": 2.1813330449,
				"y": 2.9687908203,
				"z": -1.111013726,
				"element": "C" 
			},
			{
				"x": 1.8577066783,
				"y": 1.8431075779,
				"z": -0.3405239237,
				"element": "C" 
			},
			{
				"x": 1.3012994761,
				"y": 0.7472433667,
				"z": -0.9383568456,
				"element": "O" 
			},
			{
				"x": -1.0891875078,
				"y": -2.5174902791,
				"z": -3.1624251176,
				"element": "H" 
			},
			{
				"x": -1.4039421963,
				"y": -3.9944064423,
				"z": -4.0761273669,
				"element": "H" 
			},
			{
				"x": -2.6813450824,
				"y": -3.2807964015,
				"z": -3.0826359742,
				"element": "H" 
			},
			{
				"x": -1.6357460563,
				"y": -5.3155670769,
				"z": -1.9960619791,
				"element": "H" 
			},
			{
				"x": -0.0720322283,
				"y": -4.5221117947,
				"z": -2.0105805612,
				"element": "H" 
			},
			{
				"x": -1.225151987,
				"y": -4.455278296,
				"z": 0.2174925191,
				"element": "H" 
			},
			{
				"x": -2.5423325891,
				"y": -3.5312329311,
				"z": -0.4829231287,
				"element": "H" 
			},
			{
				"x": 0.375513989,
				"y": -2.6007631452,
				"z": -0.37095791,
				"element": "H" 
			},
			{
				"x": -0.9612777979,
				"y": -1.6449666175,
				"z": -0.9867876308,
				"element": "H" 
			},
			{
				"x": -0.6883218807,
				"y": -2.6301796425,
				"z": 1.9017701101,
				"element": "H" 
			},
			{
				"x": -2.0752377235,
				"y": -1.7593243748,
				"z": 1.2718281858,
				"element": "H" 
			},
			{
				"x": -0.6144810385,
				"y": 0.2107090294,
				"z": 0.7431309039,
				"element": "H" 
			},
			{
				"x": -0.685164858,
				"y": -0.1845912105,
				"z": 2.4588295371,
				"element": "H" 
			},
			{
				"x": 1.5138545233,
				"y": -1.3488443083,
				"z": 2.313020265,
				"element": "H" 
			},
			{
				"x": 1.631347886,
				"y": -0.9141551178,
				"z": 0.5896367962,
				"element": "H" 
			},
			{
				"x": 2.8384944526,
				"y": 2.9780930224,
				"z": 2.6847692185,
				"element": "H" 
			},
			{
				"x": 3.4191935775,
				"y": 4.9919891604,
				"z": 1.3255287126,
				"element": "H" 
			},
			{
				"x": 2.9833560257,
				"y": 4.9579822264,
				"z": -1.1364474966,
				"element": "H" 
			},
			{
				"x": 1.9879922529,
				"y": 2.951205677,
				"z": -2.1821661877,
				"element": "H" 
			},
			{
				"x": 1.208460733,
				"y": 0.9202856478,
				"z": -1.8843703319,
				"element": "H" 
			}
		],
		 "valence_orbital": [ 
			{
				"type": "occ",
				"energy": -0.31135,
				"method": "rhf"
			},
			{
				"type": "occ",
				"energy": -0.30411,
				"method": "rhf"
			},
			{
				"type": "occ",
				"energy": -0.25758,
				"method": "rhf"
			},
			{
				"type": "occ",
				"energy": -0.23714,
				"method": "rhf"
			},
			{
				"type": "occ",
				"energy": -0.23458,
				"method": "rhf"
			},
			{
				"type": "unocc",
				"energy": -0.04917,
				"method": "rhf"
			},
			{
				"type": "unocc",
				"energy": 0.00181,
				"method": "rhf"
			},
			{
				"type": "unocc",
				"energy": 0.04218,
				"method": "rhf"
			},
			{
				"type": "unocc",
				"energy": 0.0537,
				"method": "rhf"
			},
			{
				"type": "unocc",
				"energy": 0.08995,
				"method": "rhf"
			}
		],
		"cosmo_sigma_profile": { 
			"-0.025": 0.0,
			"-0.024": 0.0,
			"-0.023": 0.0,
			"-0.022": 0.0,
			"-0.021": 0.0,
			"-0.02": 0.0,
			"-0.019": 0.0400433377113,
			"-0.018": 0.721068947833,
			"-0.017": 1.41242187027,
			"-0.016": 0.935466508389,
			"-0.015": 0.866399774374,
			"-0.014": 1.44225828089,
			"-0.013": 0.915457671096,
			"-0.012": 0.83442042116,
			"-0.011": 0.731027441202,
			"-0.01": 1.20717771065,
			"-0.009": 1.27837155728,
			"-0.008": 0.876588933051,
			"-0.007": 2.2214411773,
			"-0.006": 5.56892053532,
			"-0.005": 7.32820914142,
			"-0.004": 8.28091048825,
			"-0.003": 12.9639247202,
			"-0.002": 33.9477301184,
			"-0.001": 45.781877841,
			"0.0": 49.8933326399,
			"0.001": 37.3556672543,
			"0.002": 23.3668334138,
			"0.003": 15.7146537209,
			"0.004": 15.2269180562,
			"0.005": 8.69696581092,
			"0.006": 2.68476345975,
			"0.007": 1.65658335628,
			"0.008": 1.80595656702,
			"0.009": 1.26512801017,
			"0.01": 1.82855796181,
			"0.011": 2.39498034735,
			"0.012": 3.52178763146,
			"0.013": 2.56302994471,
			"0.014": 0.864741733558,
			"0.015": 0.00310893220648,
			"0.016": 0.0,
			"0.017": 0.0,
			"0.018": 0.0,
			"0.019": 0.0,
			"0.02": 0.0,
			"0.021": 0.0,
			"0.022": 0.0,
			"0.023": 0.0,
			"0.024": 0.0,
			"0.025": 0.0
		}
	}
}
