{
	 "smiles": "CC(C)(C)C1CCCC1", 
	 "Tm": 177.15, 
	 "num_atms": 27, 
	 "gaussian": { 
		 "optdone": 1, 
		 "sigma_profile": "yes", 
		 "theory": "DFT", 
		 "functional": "B3LYP", 
		 "basiset": "6-31G**", 
		 "properties": { 
			 "R2extent": 1815.199, 
			 "electric_dipole_moment_norm": 0.0338763929603, 
			 "electric_quadrupole_moment_norm": 0.596748397568, 
			 "total_energy": -353.827722647, 
			 "HOMO_LUMO_gap": 0.37125, 
			 "cosmo_polarized_energy": -0.73, 
			 "cosmo_cavitation_energy": 25.61, 
			 "cosmo_dispersion_energy": -18.68, 
			 "cosmo_repulsion_energy": 1.51, 
			 "cosmo_total_nonelectrostatic_energy": 8.44, 
			 "SMD_solvation_energy": 3.92 
		},
		"coords": [
			{
				"x": 0.0903077757,
				"y": -2.5340644219,
				"z": 1.848938602,
				"element": "C" 
			},
			{
				"x": 0.2340401259,
				"y": -1.1361346218,
				"z": 1.2107239785,
				"element": "C" 
			},
			{
				"x": 1.2292468291,
				"y": -1.2286823109,
				"z": 0.0359577908,
				"element": "C" 
			},
			{
				"x": 0.809776633,
				"y": -0.1751585455,
				"z": 2.2724771665,
				"element": "C" 
			},
			{
				"x": -1.1708684914,
				"y": -0.6284602329,
				"z": 0.7697330592,
				"element": "C" 
			},
			{
				"x": -1.2454131026,
				"y": 0.7803162235,
				"z": 0.1404158372,
				"element": "C" 
			},
			{
				"x": -2.6761625429,
				"y": 0.8746356837,
				"z": -0.4378204339,
				"element": "C" 
			},
			{
				"x": -3.1234830551,
				"y": -0.5944846829,
				"z": -0.703830625,
				"element": "C" 
			},
			{
				"x": -1.9350480016,
				"y": -1.4817324619,
				"z": -0.2667850598,
				"element": "C" 
			},
			{
				"x": -0.6217173969,
				"y": -2.5175878848,
				"z": 2.6824895305,
				"element": "H" 
			},
			{
				"x": 1.0528442858,
				"y": -2.8820184214,
				"z": 2.2409133397,
				"element": "H" 
			},
			{
				"x": -0.2588377517,
				"y": -3.2770939765,
				"z": 1.1248933984,
				"element": "H" 
			},
			{
				"x": 1.3971802926,
				"y": -0.2560748594,
				"z": -0.4374834518,
				"element": "H" 
			},
			{
				"x": 2.2005891989,
				"y": -1.588430017,
				"z": 0.3936914783,
				"element": "H" 
			},
			{
				"x": 0.8889709358,
				"y": -1.9255837992,
				"z": -0.736592948,
				"element": "H" 
			},
			{
				"x": 0.9922877001,
				"y": 0.8225938843,
				"z": 1.8608519963,
				"element": "H" 
			},
			{
				"x": 1.7633007969,
				"y": -0.551897788,
				"z": 2.6598478638,
				"element": "H" 
			},
			{
				"x": 0.1251735555,
				"y": -0.0674309793,
				"z": 3.1220565672,
				"element": "H" 
			},
			{
				"x": -1.7867842612,
				"y": -0.6051431736,
				"z": 1.6837942882,
				"element": "H" 
			},
			{
				"x": -1.0318765825,
				"y": 1.5829872489,
				"z": 0.8525931793,
				"element": "H" 
			},
			{
				"x": -0.510007212,
				"y": 0.8640561254,
				"z": -0.6691619016,
				"element": "H" 
			},
			{
				"x": -2.7079230864,
				"y": 1.4889570879,
				"z": -1.3430670588,
				"element": "H" 
			},
			{
				"x": -3.3475183396,
				"y": 1.3503104161,
				"z": 0.285243496,
				"element": "H" 
			},
			{
				"x": -4.0136782172,
				"y": -0.8329173672,
				"z": -0.111812523,
				"element": "H" 
			},
			{
				"x": -3.3917893176,
				"y": -0.7637280085,
				"z": -1.7513232846,
				"element": "H" 
			},
			{
				"x": -1.2869541552,
				"y": -1.687322689,
				"z": -1.1275661673,
				"element": "H" 
			},
			{
				"x": -2.2619566153,
				"y": -2.4487104283,
				"z": 0.1271218821,
				"element": "H" 
			}
		],
		 "valence_orbital": [ 
			{
				"type": "occ",
				"energy": -0.32407,
				"method": "rhf"
			},
			{
				"type": "occ",
				"energy": -0.30837,
				"method": "rhf"
			},
			{
				"type": "occ",
				"energy": -0.3012,
				"method": "rhf"
			},
			{
				"type": "occ",
				"energy": -0.29732,
				"method": "rhf"
			},
			{
				"type": "occ",
				"energy": -0.29625,
				"method": "rhf"
			},
			{
				"type": "unocc",
				"energy": 0.075,
				"method": "rhf"
			},
			{
				"type": "unocc",
				"energy": 0.09826,
				"method": "rhf"
			},
			{
				"type": "unocc",
				"energy": 0.10546,
				"method": "rhf"
			},
			{
				"type": "unocc",
				"energy": 0.12973,
				"method": "rhf"
			},
			{
				"type": "unocc",
				"energy": 0.13498,
				"method": "rhf"
			}
		],
		"cosmo_sigma_profile": { 
			"-0.025": 0.0,
			"-0.024": 0.0,
			"-0.023": 0.0,
			"-0.022": 0.0,
			"-0.021": 0.0,
			"-0.02": 0.0,
			"-0.019": 0.0,
			"-0.018": 0.0,
			"-0.017": 0.0,
			"-0.016": 0.0,
			"-0.015": 0.0,
			"-0.014": 0.0,
			"-0.013": 0.0,
			"-0.012": 0.0,
			"-0.011": 0.0,
			"-0.01": 0.0,
			"-0.009": 0.0,
			"-0.008": 0.0,
			"-0.007": 0.0,
			"-0.006": 0.0,
			"-0.005": 0.0,
			"-0.004": 0.0,
			"-0.003": 1.96148595735,
			"-0.002": 29.6724622239,
			"-0.001": 44.1006454773,
			"0.0": 48.3676725189,
			"0.001": 36.4552947555,
			"0.002": 31.0587218192,
			"0.003": 3.93949974197,
			"0.004": 0.0,
			"0.005": 0.0,
			"0.006": 0.0,
			"0.007": 0.0,
			"0.008": 0.0,
			"0.009": 0.0,
			"0.01": 0.0,
			"0.011": 0.0,
			"0.012": 0.0,
			"0.013": 0.0,
			"0.014": 0.0,
			"0.015": 0.0,
			"0.016": 0.0,
			"0.017": 0.0,
			"0.018": 0.0,
			"0.019": 0.0,
			"0.02": 0.0,
			"0.021": 0.0,
			"0.022": 0.0,
			"0.023": 0.0,
			"0.024": 0.0,
			"0.025": 0.0
		}
	}
}
