{
	 "smiles": "O=C1CC2(CCCC2)CC(=O)N1CCCCN1CCN(CC1)C1=NC=CC=N1", 
	 "Tm": 475.15, 
	 "num_atms": 59, 
	 "gaussian": { 
		 "optdone": 1, 
		 "sigma_profile": "yes", 
		 "theory": "DFT", 
		 "functional": "B3LYP", 
		 "basiset": "6-31G**", 
		 "properties": { 
			 "R2extent": 20273.29, 
			 "electric_dipole_moment_norm": 3.23493139958, 
			 "electric_quadrupole_moment_norm": 25.1786346929, 
			 "total_energy": -1243.16169962, 
			 "HOMO_LUMO_gap": 0.17606, 
			 "cosmo_polarized_energy": -17.98, 
			 "cosmo_cavitation_energy": 57.11, 
			 "cosmo_dispersion_energy": -39.28, 
			 "cosmo_repulsion_energy": 2.96, 
			 "cosmo_total_nonelectrostatic_energy": 20.78, 
			 "SMD_solvation_energy": 5.41 
		},
		"coords": [
			{
				"x": -2.8266274204,
				"y": -1.5097265113,
				"z": -0.8297893167,
				"element": "O" 
			},
			{
				"x": -2.1253792934,
				"y": -1.9956299459,
				"z": -1.7012511938,
				"element": "C" 
			},
			{
				"x": -2.3394300853,
				"y": -3.4145257655,
				"z": -2.2020261052,
				"element": "C" 
			},
			{
				"x": -1.0714777677,
				"y": -4.0917314301,
				"z": -2.7495195392,
				"element": "C" 
			},
			{
				"x": -1.3859704819,
				"y": -5.4907100732,
				"z": -3.3262032132,
				"element": "C" 
			},
			{
				"x": -1.4753442267,
				"y": -6.4324167935,
				"z": -2.1036415983,
				"element": "C" 
			},
			{
				"x": -0.621902857,
				"y": -5.7553305372,
				"z": -0.9891824617,
				"element": "C" 
			},
			{
				"x": -0.0807367453,
				"y": -4.4461822884,
				"z": -1.6105336529,
				"element": "C" 
			},
			{
				"x": -0.4855092066,
				"y": -3.1416619557,
				"z": -3.7977985346,
				"element": "C" 
			},
			{
				"x": -0.2562897151,
				"y": -1.7202472203,
				"z": -3.3112139249,
				"element": "C" 
			},
			{
				"x": 0.6118861199,
				"y": -1.0122076835,
				"z": -3.7928468286,
				"element": "O" 
			},
			{
				"x": -1.1072339991,
				"y": -1.2405119338,
				"z": -2.3027057087,
				"element": "N" 
			},
			{
				"x": -0.9471141984,
				"y": 0.1610607074,
				"z": -1.853918514,
				"element": "C" 
			},
			{
				"x": -0.1548685098,
				"y": 0.3152485413,
				"z": -0.5510387852,
				"element": "C" 
			},
			{
				"x": 1.3039733321,
				"y": -0.1524155685,
				"z": -0.6206317582,
				"element": "C" 
			},
			{
				"x": 2.0923367841,
				"y": 0.1695466574,
				"z": 0.6570358618,
				"element": "C" 
			},
			{
				"x": 2.1812476213,
				"y": 1.6011604713,
				"z": 0.9275854681,
				"element": "N" 
			},
			{
				"x": 2.9821096095,
				"y": 2.3322385545,
				"z": -0.0694228629,
				"element": "C" 
			},
			{
				"x": 3.6720810343,
				"y": 3.5655756396,
				"z": 0.5360045491,
				"element": "C" 
			},
			{
				"x": 2.8071728548,
				"y": 4.2344722351,
				"z": 1.496728534,
				"element": "N" 
			},
			{
				"x": 2.2446456887,
				"y": 3.4096513802,
				"z": 2.5686704691,
				"element": "C" 
			},
			{
				"x": 2.5484710878,
				"y": 1.9335384681,
				"z": 2.2982434515,
				"element": "C" 
			},
			{
				"x": 2.5551576401,
				"y": 5.5741127464,
				"z": 1.4555173544,
				"element": "C" 
			},
			{
				"x": 1.7673442705,
				"y": 6.0687255337,
				"z": 2.4403014439,
				"element": "N" 
			},
			{
				"x": 1.5148371664,
				"y": 7.375600621,
				"z": 2.386914345,
				"element": "C" 
			},
			{
				"x": 2.0196921879,
				"y": 8.2140871453,
				"z": 1.3941379024,
				"element": "C" 
			},
			{
				"x": 2.8251526315,
				"y": 7.5948893263,
				"z": 0.4373719447,
				"element": "C" 
			},
			{
				"x": 3.1046968219,
				"y": 6.2942115673,
				"z": 0.4481138231,
				"element": "N" 
			},
			{
				"x": -2.7942691878,
				"y": -3.9644415207,
				"z": -1.3748121939,
				"element": "H" 
			},
			{
				"x": -3.0981176664,
				"y": -3.3607971903,
				"z": -2.9960339357,
				"element": "H" 
			},
			{
				"x": -2.2918398266,
				"y": -5.4981749818,
				"z": -3.9426637033,
				"element": "H" 
			},
			{
				"x": -0.5547762412,
				"y": -5.7947744292,
				"z": -3.9751225599,
				"element": "H" 
			},
			{
				"x": -2.5141976362,
				"y": -6.5440035707,
				"z": -1.7768119376,
				"element": "H" 
			},
			{
				"x": -1.1176100149,
				"y": -7.437124135,
				"z": -2.3464125508,
				"element": "H" 
			},
			{
				"x": 0.1938485994,
				"y": -6.3976903775,
				"z": -0.6451833799,
				"element": "H" 
			},
			{
				"x": -1.2380970192,
				"y": -5.5412099048,
				"z": -0.1101665034,
				"element": "H" 
			},
			{
				"x": 0.0347438646,
				"y": -3.6447053226,
				"z": -0.8731764835,
				"element": "H" 
			},
			{
				"x": 0.9091366859,
				"y": -4.6187834602,
				"z": -2.0506443845,
				"element": "H" 
			},
			{
				"x": -1.1670027617,
				"y": -3.0755447216,
				"z": -4.6585391834,
				"element": "H" 
			},
			{
				"x": 0.4739862876,
				"y": -3.49518305,
				"z": -4.185109734,
				"element": "H" 
			},
			{
				"x": -1.9532910792,
				"y": 0.56148709,
				"z": -1.7180717657,
				"element": "H" 
			},
			{
				"x": -0.4533551552,
				"y": 0.6876058385,
				"z": -2.6712314565,
				"element": "H" 
			},
			{
				"x": -0.6827681784,
				"y": -0.2144384106,
				"z": 0.2507739154,
				"element": "H" 
			},
			{
				"x": -0.1706742374,
				"y": 1.3771293743,
				"z": -0.279119436,
				"element": "H" 
			},
			{
				"x": 1.797956018,
				"y": 0.2905346627,
				"z": -1.493063687,
				"element": "H" 
			},
			{
				"x": 1.3497464537,
				"y": -1.2376307444,
				"z": -0.7761202851,
				"element": "H" 
			},
			{
				"x": 1.5878637019,
				"y": -0.2993422348,
				"z": 1.5114538887,
				"element": "H" 
			},
			{
				"x": 3.0971142854,
				"y": -0.2945091875,
				"z": 0.5868668891,
				"element": "H" 
			},
			{
				"x": 2.3328065935,
				"y": 2.6422985852,
				"z": -0.8973034058,
				"element": "H" 
			},
			{
				"x": 3.7702253437,
				"y": 1.688945898,
				"z": -0.5013922422,
				"element": "H" 
			},
			{
				"x": 4.6079243995,
				"y": 3.2663386343,
				"z": 1.029167889,
				"element": "H" 
			},
			{
				"x": 3.9307075501,
				"y": 4.2795957155,
				"z": -0.2441663059,
				"element": "H" 
			},
			{
				"x": 2.6471299473,
				"y": 3.7125596593,
				"z": 3.544695145,
				"element": "H" 
			},
			{
				"x": 1.1618149317,
				"y": 3.5620679008,
				"z": 2.6049521595,
				"element": "H" 
			},
			{
				"x": 3.6046051393,
				"y": 1.7012317859,
				"z": 2.5379866345,
				"element": "H" 
			},
			{
				"x": 1.9388171729,
				"y": 1.332131796,
				"z": 2.9800938998,
				"element": "H" 
			},
			{
				"x": 0.8790577637,
				"y": 7.7697221498,
				"z": 3.1796974799,
				"element": "H" 
			},
			{
				"x": 1.8055416485,
				"y": 9.2757342648,
				"z": 1.3693911953,
				"element": "H" 
			},
			{
				"x": 3.2680522732,
				"y": 8.1702479986,
				"z": -0.3755351111,
				"element": "H" 
			}
		],
		 "valence_orbital": [ 
			{
				"type": "occ",
				"energy": -0.26527,
				"method": "rhf"
			},
			{
				"type": "occ",
				"energy": -0.25376,
				"method": "rhf"
			},
			{
				"type": "occ",
				"energy": -0.23406,
				"method": "rhf"
			},
			{
				"type": "occ",
				"energy": -0.20949,
				"method": "rhf"
			},
			{
				"type": "occ",
				"energy": -0.19929,
				"method": "rhf"
			},
			{
				"type": "unocc",
				"energy": -0.02323,
				"method": "rhf"
			},
			{
				"type": "unocc",
				"energy": -0.02231,
				"method": "rhf"
			},
			{
				"type": "unocc",
				"energy": 0.01102,
				"method": "rhf"
			},
			{
				"type": "unocc",
				"energy": 0.03026,
				"method": "rhf"
			},
			{
				"type": "unocc",
				"energy": 0.06004,
				"method": "rhf"
			}
		],
		"cosmo_sigma_profile": { 
			"-0.025": 0.0,
			"-0.024": 0.0,
			"-0.023": 0.0,
			"-0.022": 0.0,
			"-0.021": 0.0,
			"-0.02": 0.0,
			"-0.019": 0.0,
			"-0.018": 0.0,
			"-0.017": 0.0,
			"-0.016": 0.0,
			"-0.015": 0.0,
			"-0.014": 0.0,
			"-0.013": 0.0,
			"-0.012": 0.0,
			"-0.011": 0.0,
			"-0.01": 0.0,
			"-0.009": 0.0,
			"-0.008": 0.850140089353,
			"-0.007": 6.90040688824,
			"-0.006": 12.658087824,
			"-0.005": 16.5216310533,
			"-0.004": 34.3769011475,
			"-0.003": 62.5996804658,
			"-0.002": 72.1945660475,
			"-0.001": 56.0689413711,
			"0.0": 36.6786741781,
			"0.001": 32.1396851951,
			"0.002": 23.5487897894,
			"0.003": 14.9534677165,
			"0.004": 9.4050062646,
			"0.005": 9.09025605445,
			"0.006": 7.68295013426,
			"0.007": 7.14131657045,
			"0.008": 7.07784336776,
			"0.009": 6.56107360043,
			"0.01": 6.10855921503,
			"0.011": 6.0034157073,
			"0.012": 9.37681714913,
			"0.013": 5.49545295586,
			"0.014": 0.954119902637,
			"0.015": 0.0,
			"0.016": 0.0,
			"0.017": 0.0,
			"0.018": 0.0,
			"0.019": 0.0,
			"0.02": 0.0,
			"0.021": 0.0,
			"0.022": 0.0,
			"0.023": 0.0,
			"0.024": 0.0,
			"0.025": 0.0
		}
	}
}
