{
	 "smiles": "COC(=O)NC1=CC(N)=CC=C1", 
	 "Tm": 336.15, 
	 "num_atms": 22, 
	 "gaussian": { 
		 "optdone": 1, 
		 "sigma_profile": "yes", 
		 "theory": "DFT", 
		 "functional": "B3LYP", 
		 "basiset": "6-31G**", 
		 "properties": { 
			 "R2extent": 3203.4386, 
			 "electric_dipole_moment_norm": 2.94094780301, 
			 "electric_quadrupole_moment_norm": 9.97138292064, 
			 "total_energy": -570.849924468, 
			 "HOMO_LUMO_gap": 0.19932, 
			 "cosmo_polarized_energy": -14.09, 
			 "cosmo_cavitation_energy": 26.23, 
			 "cosmo_dispersion_energy": -19.4, 
			 "cosmo_repulsion_energy": 1.56, 
			 "cosmo_total_nonelectrostatic_energy": 8.39, 
			 "SMD_solvation_energy": 6.25 
		},
		"coords": [
			{
				"x": 3.3308693138,
				"y": 0.4750213282,
				"z": 0.6370840142,
				"element": "C" 
			},
			{
				"x": 2.151764809,
				"y": -0.3309334931,
				"z": 0.4854605129,
				"element": "O" 
			},
			{
				"x": 2.3221234062,
				"y": -1.4249713467,
				"z": -0.2918350714,
				"element": "C" 
			},
			{
				"x": 3.3730860464,
				"y": -1.7190177643,
				"z": -0.8332831263,
				"element": "O" 
			},
			{
				"x": 1.1880227728,
				"y": -2.1912107334,
				"z": -0.422761185,
				"element": "N" 
			},
			{
				"x": -0.1282044451,
				"y": -2.1038945104,
				"z": 0.080231401,
				"element": "C" 
			},
			{
				"x": -0.59069356,
				"y": -1.0664785354,
				"z": 0.8955988898,
				"element": "C" 
			},
			{
				"x": -1.9214136453,
				"y": -1.0627847169,
				"z": 1.3467405043,
				"element": "C" 
			},
			{
				"x": -2.3560579681,
				"y": -0.0524237945,
				"z": 2.2074021373,
				"element": "N" 
			},
			{
				"x": -2.7887196146,
				"y": -2.1025144841,
				"z": 0.9742951914,
				"element": "C" 
			},
			{
				"x": -2.3164422057,
				"y": -3.1288748344,
				"z": 0.1609815368,
				"element": "C" 
			},
			{
				"x": -1.0006044562,
				"y": -3.1429500493,
				"z": -0.29027563,
				"element": "C" 
			},
			{
				"x": 3.672385457,
				"y": 0.8461733084,
				"z": -0.3319625371,
				"element": "H" 
			},
			{
				"x": 3.0351046346,
				"y": 1.3028168758,
				"z": 1.2818751588,
				"element": "H" 
			},
			{
				"x": 4.1358323028,
				"y": -0.101463199,
				"z": 1.0986410014,
				"element": "H" 
			},
			{
				"x": 1.3742714283,
				"y": -2.9927266465,
				"z": -1.0085626494,
				"element": "H" 
			},
			{
				"x": 0.075464308,
				"y": -0.2668200083,
				"z": 1.1873010986,
				"element": "H" 
			},
			{
				"x": -3.3536412325,
				"y": 0.1092411945,
				"z": 2.2079641457,
				"element": "H" 
			},
			{
				"x": -1.8343508647,
				"y": 0.8114453455,
				"z": 2.1530292135,
				"element": "H" 
			},
			{
				"x": -3.8168678313,
				"y": -2.1039768874,
				"z": 1.3255533703,
				"element": "H" 
			},
			{
				"x": -2.9868415194,
				"y": -3.9330170399,
				"z": -0.1291573974,
				"element": "H" 
			},
			{
				"x": -0.6455871361,
				"y": -3.9498400087,
				"z": -0.9255205793,
				"element": "H" 
			}
		],
		 "valence_orbital": [ 
			{
				"type": "occ",
				"energy": -0.30023,
				"method": "rhf"
			},
			{
				"type": "occ",
				"energy": -0.28446,
				"method": "rhf"
			},
			{
				"type": "occ",
				"energy": -0.2755,
				"method": "rhf"
			},
			{
				"type": "occ",
				"energy": -0.22063,
				"method": "rhf"
			},
			{
				"type": "occ",
				"energy": -0.19781,
				"method": "rhf"
			},
			{
				"type": "unocc",
				"energy": 0.00151,
				"method": "rhf"
			},
			{
				"type": "unocc",
				"energy": 0.01721,
				"method": "rhf"
			},
			{
				"type": "unocc",
				"energy": 0.0678,
				"method": "rhf"
			},
			{
				"type": "unocc",
				"energy": 0.07934,
				"method": "rhf"
			},
			{
				"type": "unocc",
				"energy": 0.08812,
				"method": "rhf"
			}
		],
		"cosmo_sigma_profile": { 
			"-0.025": 0.0,
			"-0.024": 0.0,
			"-0.023": 0.0,
			"-0.022": 0.0,
			"-0.021": 0.0,
			"-0.02": 0.0,
			"-0.019": 0.0,
			"-0.018": 0.0,
			"-0.017": 0.0,
			"-0.016": 0.0,
			"-0.015": 0.293134670626,
			"-0.014": 1.09266346671,
			"-0.013": 0.98194180629,
			"-0.012": 3.14547853891,
			"-0.011": 3.83369195349,
			"-0.01": 3.61831772284,
			"-0.009": 3.95654210737,
			"-0.008": 4.47534490251,
			"-0.007": 4.58893305256,
			"-0.006": 9.46691464618,
			"-0.005": 14.175441116,
			"-0.004": 15.1159105668,
			"-0.003": 15.5153649874,
			"-0.002": 11.9655036175,
			"-0.001": 10.9030712282,
			"0.0": 10.9758593694,
			"0.001": 10.8123451816,
			"0.002": 9.84291384675,
			"0.003": 11.6153458592,
			"0.004": 10.9860725253,
			"0.005": 10.1023209141,
			"0.006": 12.1171017429,
			"0.007": 8.74657694834,
			"0.008": 2.38213655819,
			"0.009": 1.30313491217,
			"0.01": 2.10374189112,
			"0.011": 2.78688414878,
			"0.012": 3.52801963769,
			"0.013": 6.40301627343,
			"0.014": 0.961253555278,
			"0.015": 0.258277045449,
			"0.016": 0.0,
			"0.017": 0.0,
			"0.018": 0.0,
			"0.019": 0.0,
			"0.02": 0.0,
			"0.021": 0.0,
			"0.022": 0.0,
			"0.023": 0.0,
			"0.024": 0.0,
			"0.025": 0.0
		}
	}
}
