{
	 "smiles": "NN1C(S)=NN=C1C1CC1", 
	 "Tm": 447.15, 
	 "num_atms": 18, 
	 "gaussian": { 
		 "optdone": 1, 
		 "sigma_profile": "yes", 
		 "theory": "DFT", 
		 "functional": "B3LYP", 
		 "basiset": "6-31G**", 
		 "properties": { 
			 "R2extent": 3744.8881, 
			 "electric_dipole_moment_norm": 6.94021328563, 
			 "electric_quadrupole_moment_norm": 21.5772389758, 
			 "total_energy": -812.452429923, 
			 "HOMO_LUMO_gap": 0.23266, 
			 "cosmo_polarized_energy": -21.62, 
			 "cosmo_cavitation_energy": 23.73, 
			 "cosmo_dispersion_energy": -17.88, 
			 "cosmo_repulsion_energy": 1.42, 
			 "cosmo_total_nonelectrostatic_energy": 7.27, 
			 "SMD_solvation_energy": 1.79 
		},
		"coords": [
			{
				"x": -0.6648524817,
				"y": 0.3093693343,
				"z": -2.1906358312,
				"element": "N" 
			},
			{
				"x": 0.6682671042,
				"y": 0.7199590737,
				"z": -2.2479313373,
				"element": "N" 
			},
			{
				"x": 1.2883277884,
				"y": 1.2407024288,
				"z": -3.3661583479,
				"element": "C" 
			},
			{
				"x": 0.5088549734,
				"y": 1.4262795851,
				"z": -4.9346240167,
				"element": "S" 
			},
			{
				"x": 2.5276253834,
				"y": 1.5531956288,
				"z": -3.0930540994,
				"element": "N" 
			},
			{
				"x": 2.7495721415,
				"y": 1.2307005595,
				"z": -1.757380493,
				"element": "N" 
			},
			{
				"x": 1.642069081,
				"y": 0.7392901197,
				"z": -1.2623919233,
				"element": "C" 
			},
			{
				"x": 1.4019924437,
				"y": 0.3169468693,
				"z": 0.1292420113,
				"element": "C" 
			},
			{
				"x": 2.5789550899,
				"y": 0.2381281682,
				"z": 1.0735108866,
				"element": "C" 
			},
			{
				"x": 1.5674084291,
				"y": 1.3296588563,
				"z": 1.2594608326,
				"element": "C" 
			},
			{
				"x": -1.150921421,
				"y": 0.8288932563,
				"z": -1.4638406136,
				"element": "H" 
			},
			{
				"x": -0.7117194062,
				"y": -0.6850889514,
				"z": -1.9814293271,
				"element": "H" 
			},
			{
				"x": -0.6885880301,
				"y": 0.999584581,
				"z": -4.4788733903,
				"element": "H" 
			},
			{
				"x": 0.6142407662,
				"y": -0.4222635667,
				"z": 0.2547229855,
				"element": "H" 
			},
			{
				"x": 3.5412956469,
				"y": 0.507800058,
				"z": 0.6523220248,
				"element": "H" 
			},
			{
				"x": 2.5946197768,
				"y": -0.5827295938,
				"z": 1.783306118,
				"element": "H" 
			},
			{
				"x": 0.8770212507,
				"y": 1.2671660707,
				"z": 2.0955622263,
				"element": "H" 
			},
			{
				"x": 1.8520314637,
				"y": 2.3363075222,
				"z": 0.9710922946,
				"element": "H" 
			}
		],
		 "valence_orbital": [ 
			{
				"type": "occ",
				"energy": -0.30485,
				"method": "rhf"
			},
			{
				"type": "occ",
				"energy": -0.29522,
				"method": "rhf"
			},
			{
				"type": "occ",
				"energy": -0.28751,
				"method": "rhf"
			},
			{
				"type": "occ",
				"energy": -0.24657,
				"method": "rhf"
			},
			{
				"type": "occ",
				"energy": -0.2196,
				"method": "rhf"
			},
			{
				"type": "unocc",
				"energy": 0.01306,
				"method": "rhf"
			},
			{
				"type": "unocc",
				"energy": 0.02089,
				"method": "rhf"
			},
			{
				"type": "unocc",
				"energy": 0.03989,
				"method": "rhf"
			},
			{
				"type": "unocc",
				"energy": 0.04518,
				"method": "rhf"
			},
			{
				"type": "unocc",
				"energy": 0.07236,
				"method": "rhf"
			}
		],
		"cosmo_sigma_profile": { 
			"-0.025": 0.0,
			"-0.024": 0.0,
			"-0.023": 0.0,
			"-0.022": 0.0,
			"-0.021": 0.0,
			"-0.02": 0.0,
			"-0.019": 0.0,
			"-0.018": 0.0,
			"-0.017": 0.0,
			"-0.016": 0.0,
			"-0.015": 0.0408936311883,
			"-0.014": 2.31065129351,
			"-0.013": 3.9546633739,
			"-0.012": 3.23734261307,
			"-0.011": 4.35522777139,
			"-0.01": 3.65571862995,
			"-0.009": 3.81583078435,
			"-0.008": 3.72500614649,
			"-0.007": 3.80350813339,
			"-0.006": 5.77285254316,
			"-0.005": 10.3522439356,
			"-0.004": 11.0612081099,
			"-0.003": 10.6774556806,
			"-0.002": 12.6604584606,
			"-0.001": 13.6363028467,
			"0.0": 11.9606421703,
			"0.001": 12.4693860989,
			"0.002": 12.0968816992,
			"0.003": 11.4009263084,
			"0.004": 8.7481471586,
			"0.005": 7.34178225599,
			"0.006": 6.13696625465,
			"0.007": 4.91590584146,
			"0.008": 1.84699135833,
			"0.009": 1.94963753566,
			"0.01": 2.1389391201,
			"0.011": 1.80331878703,
			"0.012": 2.29810804671,
			"0.013": 3.31130593435,
			"0.014": 3.60647106829,
			"0.015": 2.76295206446,
			"0.016": 2.11563726854,
			"0.017": 0.90644301325,
			"0.018": 0.0548424178717,
			"0.019": 0.0,
			"0.02": 0.0,
			"0.021": 0.0,
			"0.022": 0.0,
			"0.023": 0.0,
			"0.024": 0.0,
			"0.025": 0.0
		}
	}
}
