{
	 "smiles": "CCCCC(CC)COC(=O)CCCCCCCCC(=O)OCC(CC)CCCC", 
	 "Tm": 225.15, 
	 "num_atms": 80, 
	 "gaussian": { 
		 "optdone": 1, 
		 "sigma_profile": "yes", 
		 "theory": "DFT", 
		 "functional": "B3LYP", 
		 "basiset": "6-31G**", 
		 "properties": { 
			 "R2extent": 35875.5881, 
			 "electric_dipole_moment_norm": 2.8716103026, 
			 "electric_quadrupole_moment_norm": 14.4631854493, 
			 "total_energy": -1321.89550806, 
			 "HOMO_LUMO_gap": 0.2761, 
			 "cosmo_polarized_energy": -12.56, 
			 "cosmo_cavitation_energy": 78.42, 
			 "cosmo_dispersion_energy": -50.34, 
			 "cosmo_repulsion_energy": 4.03, 
			 "cosmo_total_nonelectrostatic_energy": 32.12, 
			 "SMD_solvation_energy": 12.76 
		},
		"coords": [
			{
				"x": -4.5932059408,
				"y": -1.3801093596,
				"z": -6.7966679731,
				"element": "C" 
			},
			{
				"x": -3.288703299,
				"y": -1.6790280764,
				"z": -7.5455902107,
				"element": "C" 
			},
			{
				"x": -2.0124084837,
				"y": -1.2253010477,
				"z": -6.8164097693,
				"element": "C" 
			},
			{
				"x": -1.7380509972,
				"y": -1.9711613553,
				"z": -5.5003260789,
				"element": "C" 
			},
			{
				"x": -0.4408915096,
				"y": -1.5445787891,
				"z": -4.7758605741,
				"element": "C" 
			},
			{
				"x": -0.4511731745,
				"y": -1.9227313296,
				"z": -3.2773753541,
				"element": "C" 
			},
			{
				"x": -0.5932921743,
				"y": -3.4179531074,
				"z": -2.9626595453,
				"element": "C" 
			},
			{
				"x": 0.7872920705,
				"y": -2.0952434676,
				"z": -5.5111277695,
				"element": "C" 
			},
			{
				"x": 2.0283928878,
				"y": -1.6630495528,
				"z": -4.9034817166,
				"element": "O" 
			},
			{
				"x": 2.5534702373,
				"y": -0.4952634232,
				"z": -5.34984011,
				"element": "C" 
			},
			{
				"x": 2.0407611164,
				"y": 0.1907880464,
				"z": -6.2086325811,
				"element": "O" 
			},
			{
				"x": 3.8606561524,
				"y": -0.1835689769,
				"z": -4.6458916212,
				"element": "C" 
			},
			{
				"x": 3.7227239106,
				"y": -0.0227478147,
				"z": -3.1197402446,
				"element": "C" 
			},
			{
				"x": 2.8382470665,
				"y": 1.1580794727,
				"z": -2.6996577926,
				"element": "C" 
			},
			{
				"x": 2.728470847,
				"y": 1.3174338324,
				"z": -1.1780764822,
				"element": "C" 
			},
			{
				"x": 1.8493504389,
				"y": 2.4990290154,
				"z": -0.7492758685,
				"element": "C" 
			},
			{
				"x": 1.7312770439,
				"y": 2.6509486751,
				"z": 0.7722473907,
				"element": "C" 
			},
			{
				"x": 0.8518654704,
				"y": 3.8361420467,
				"z": 1.1920666709,
				"element": "C" 
			},
			{
				"x": 0.7286595879,
				"y": 4.0062101498,
				"z": 2.7095583712,
				"element": "C" 
			},
			{
				"x": -0.0973560884,
				"y": 2.9188575635,
				"z": 3.3735734178,
				"element": "C" 
			},
			{
				"x": -0.8272170353,
				"y": 2.136926573,
				"z": 2.8006309778,
				"element": "O" 
			},
			{
				"x": 0.0595087063,
				"y": 2.9436231976,
				"z": 4.7156734351,
				"element": "O" 
			},
			{
				"x": -0.7162922185,
				"y": 1.9787424333,
				"z": 5.4663962253,
				"element": "C" 
			},
			{
				"x": -0.4077732814,
				"y": 2.1629152841,
				"z": 6.952629512,
				"element": "C" 
			},
			{
				"x": 1.0748918587,
				"y": 1.8868084989,
				"z": 7.284397537,
				"element": "C" 
			},
			{
				"x": 1.5644945931,
				"y": 0.4720277291,
				"z": 6.9543752759,
				"element": "C" 
			},
			{
				"x": -0.8332462672,
				"y": 3.5503603233,
				"z": 7.4813365587,
				"element": "C" 
			},
			{
				"x": -2.3385728962,
				"y": 3.8460782424,
				"z": 7.4083618489,
				"element": "C" 
			},
			{
				"x": -2.7422367163,
				"y": 5.2090431214,
				"z": 7.9985604778,
				"element": "C" 
			},
			{
				"x": -2.5529232822,
				"y": 5.3308064597,
				"z": 9.5154452232,
				"element": "C" 
			},
			{
				"x": -4.6852632449,
				"y": -0.3096942547,
				"z": -6.5782172487,
				"element": "H" 
			},
			{
				"x": -5.4642255861,
				"y": -1.67268082,
				"z": -7.3923559694,
				"element": "H" 
			},
			{
				"x": -4.6537786108,
				"y": -1.9180355183,
				"z": -5.8449856098,
				"element": "H" 
			},
			{
				"x": -3.3222598645,
				"y": -1.1867197804,
				"z": -8.5257849645,
				"element": "H" 
			},
			{
				"x": -3.2239229346,
				"y": -2.7566333104,
				"z": -7.7512304325,
				"element": "H" 
			},
			{
				"x": -1.1622054816,
				"y": -1.3495896062,
				"z": -7.498061945,
				"element": "H" 
			},
			{
				"x": -2.0763453668,
				"y": -0.1475703718,
				"z": -6.6109049245,
				"element": "H" 
			},
			{
				"x": -2.5774096498,
				"y": -1.8086963455,
				"z": -4.8129194883,
				"element": "H" 
			},
			{
				"x": -1.7176474655,
				"y": -3.0531607479,
				"z": -5.6964059137,
				"element": "H" 
			},
			{
				"x": -0.3742879125,
				"y": -0.4495690065,
				"z": -4.832612783,
				"element": "H" 
			},
			{
				"x": -1.2756760866,
				"y": -1.3782024053,
				"z": -2.799285245,
				"element": "H" 
			},
			{
				"x": 0.469783303,
				"y": -1.5474838744,
				"z": -2.8166828683,
				"element": "H" 
			},
			{
				"x": -1.5215919948,
				"y": -3.8351848757,
				"z": -3.3665049423,
				"element": "H" 
			},
			{
				"x": 0.2394985135,
				"y": -4.0033942664,
				"z": -3.366735241,
				"element": "H" 
			},
			{
				"x": -0.6058988113,
				"y": -3.5802811705,
				"z": -1.8800325316,
				"element": "H" 
			},
			{
				"x": 0.7883507084,
				"y": -1.7820507117,
				"z": -6.5565381365,
				"element": "H" 
			},
			{
				"x": 0.8217813288,
				"y": -3.1870280284,
				"z": -5.4619271759,
				"element": "H" 
			},
			{
				"x": 4.5588680901,
				"y": -1.0011615526,
				"z": -4.861671854,
				"element": "H" 
			},
			{
				"x": 4.255897866,
				"y": 0.7287361376,
				"z": -5.1004213935,
				"element": "H" 
			},
			{
				"x": 4.7274727208,
				"y": 0.10813612,
				"z": -2.6980607473,
				"element": "H" 
			},
			{
				"x": 3.3269961023,
				"y": -0.9539484141,
				"z": -2.6981009467,
				"element": "H" 
			},
			{
				"x": 3.237247139,
				"y": 2.0838755112,
				"z": -3.1374552568,
				"element": "H" 
			},
			{
				"x": 1.8319173182,
				"y": 1.0347071916,
				"z": -3.123127746,
				"element": "H" 
			},
			{
				"x": 3.7348736695,
				"y": 1.439400199,
				"z": -0.752077502,
				"element": "H" 
			},
			{
				"x": 2.3264134622,
				"y": 0.390936742,
				"z": -0.7441635113,
				"element": "H" 
			},
			{
				"x": 2.2533887577,
				"y": 3.4267759797,
				"z": -1.1796062119,
				"element": "H" 
			},
			{
				"x": 0.844956472,
				"y": 2.3777976287,
				"z": -1.1784852496,
				"element": "H" 
			},
			{
				"x": 2.7354061268,
				"y": 2.7721357248,
				"z": 1.2047057301,
				"element": "H" 
			},
			{
				"x": 1.3157406296,
				"y": 1.7292323687,
				"z": 1.1973177046,
				"element": "H" 
			},
			{
				"x": 1.2622164093,
				"y": 4.762595457,
				"z": 0.7707406146,
				"element": "H" 
			},
			{
				"x": -0.1517789001,
				"y": 3.7116704007,
				"z": 0.7700040281,
				"element": "H" 
			},
			{
				"x": 1.7108131199,
				"y": 4.0406178348,
				"z": 3.1951784713,
				"element": "H" 
			},
			{
				"x": 0.2438845449,
				"y": 4.9610627366,
				"z": 2.9532666682,
				"element": "H" 
			},
			{
				"x": -1.776283518,
				"y": 2.1318576784,
				"z": 5.2458148301,
				"element": "H" 
			},
			{
				"x": -0.4588096627,
				"y": 0.9747052755,
				"z": 5.1178939503,
				"element": "H" 
			},
			{
				"x": -1.0148525588,
				"y": 1.4025690684,
				"z": 7.4695666541,
				"element": "H" 
			},
			{
				"x": 1.2194090232,
				"y": 2.0709195025,
				"z": 8.3564474763,
				"element": "H" 
			},
			{
				"x": 1.6971985956,
				"y": 2.6224010624,
				"z": 6.7605459,
				"element": "H" 
			},
			{
				"x": 1.558945932,
				"y": 0.2733001235,
				"z": 5.8778888383,
				"element": "H" 
			},
			{
				"x": 2.5918696549,
				"y": 0.326874951,
				"z": 7.3037863458,
				"element": "H" 
			},
			{
				"x": 0.9410220975,
				"y": -0.2898343179,
				"z": 7.4370500382,
				"element": "H" 
			},
			{
				"x": -0.5008529283,
				"y": 3.6240058862,
				"z": 8.5239058226,
				"element": "H" 
			},
			{
				"x": -0.2842980242,
				"y": 4.323954519,
				"z": 6.9287234561,
				"element": "H" 
			},
			{
				"x": -2.8932654497,
				"y": 3.0509576042,
				"z": 7.9281340651,
				"element": "H" 
			},
			{
				"x": -2.6700902286,
				"y": 3.8153461111,
				"z": 6.3631026771,
				"element": "H" 
			},
			{
				"x": -3.7969249595,
				"y": 5.3937433038,
				"z": 7.758086078,
				"element": "H" 
			},
			{
				"x": -2.1739763806,
				"y": 6.002290479,
				"z": 7.49362433,
				"element": "H" 
			},
			{
				"x": -3.1143395229,
				"y": 4.5527755687,
				"z": 10.0460929872,
				"element": "H" 
			},
			{
				"x": -2.9078403888,
				"y": 6.3009394068,
				"z": 9.8786511379,
				"element": "H" 
			},
			{
				"x": -1.5020446758,
				"y": 5.2381144408,
				"z": 9.8080888041,
				"element": "H" 
			}
		],
		 "valence_orbital": [ 
			{
				"type": "occ",
				"energy": -0.29789,
				"method": "rhf"
			},
			{
				"type": "occ",
				"energy": -0.2923,
				"method": "rhf"
			},
			{
				"type": "occ",
				"energy": -0.28312,
				"method": "rhf"
			},
			{
				"type": "occ",
				"energy": -0.26691,
				"method": "rhf"
			},
			{
				"type": "occ",
				"energy": -0.26033,
				"method": "rhf"
			},
			{
				"type": "unocc",
				"energy": 0.01577,
				"method": "rhf"
			},
			{
				"type": "unocc",
				"energy": 0.01722,
				"method": "rhf"
			},
			{
				"type": "unocc",
				"energy": 0.07305,
				"method": "rhf"
			},
			{
				"type": "unocc",
				"energy": 0.07591,
				"method": "rhf"
			},
			{
				"type": "unocc",
				"energy": 0.08578,
				"method": "rhf"
			}
		],
		"cosmo_sigma_profile": { 
			"-0.025": 0.0,
			"-0.024": 0.0,
			"-0.023": 0.0,
			"-0.022": 0.0,
			"-0.021": 0.0,
			"-0.02": 0.0,
			"-0.019": 0.0,
			"-0.018": 0.0,
			"-0.017": 0.0,
			"-0.016": 0.0,
			"-0.015": 0.0,
			"-0.014": 0.0,
			"-0.013": 0.0,
			"-0.012": 0.0,
			"-0.011": 0.0,
			"-0.01": 0.0,
			"-0.009": 0.0,
			"-0.008": 0.0,
			"-0.007": 0.0,
			"-0.006": 2.46187584167,
			"-0.005": 9.43637611093,
			"-0.004": 20.7338270217,
			"-0.003": 46.5367969085,
			"-0.002": 107.315825129,
			"-0.001": 123.456019411,
			"0.0": 105.380775534,
			"0.001": 87.7583989516,
			"0.002": 36.6561146285,
			"0.003": 9.70806062401,
			"0.004": 7.61434719043,
			"0.005": 7.48558235228,
			"0.006": 5.21705451354,
			"0.007": 3.85564044781,
			"0.008": 3.70801804762,
			"0.009": 4.33803193143,
			"0.01": 3.36245262805,
			"0.011": 4.44754352801,
			"0.012": 7.8984972245,
			"0.013": 4.45697433719,
			"0.014": 0.206712081895,
			"0.015": 0.0,
			"0.016": 0.0,
			"0.017": 0.0,
			"0.018": 0.0,
			"0.019": 0.0,
			"0.02": 0.0,
			"0.021": 0.0,
			"0.022": 0.0,
			"0.023": 0.0,
			"0.024": 0.0,
			"0.025": 0.0
		}
	}
}
