{
	 "smiles": "CCCCCCCCCCCCCCCCCCCC1CCCCC1", 
	 "Tm": 318.15, 
	 "num_atms": 75, 
	 "gaussian": { 
		 "optdone": 1, 
		 "sigma_profile": "yes", 
		 "theory": "DFT", 
		 "functional": "B3LYP", 
		 "basiset": "6-31G**", 
		 "properties": { 
			 "R2extent": 27429.1522, 
			 "electric_dipole_moment_norm": 0.0484779331243, 
			 "electric_quadrupole_moment_norm": 0.771541340435, 
			 "total_energy": -982.868684067, 
			 "HOMO_LUMO_gap": 0.36083, 
			 "cosmo_polarized_energy": -1.44, 
			 "cosmo_cavitation_energy": 69.68, 
			 "cosmo_dispersion_energy": -46.93, 
			 "cosmo_repulsion_energy": 3.77, 
			 "cosmo_total_nonelectrostatic_energy": 26.52, 
			 "SMD_solvation_energy": 8.1 
		},
		"coords": [
			{
				"x": 8.4665909501,
				"y": -0.2091091214,
				"z": -1.6575023252,
				"element": "C" 
			},
			{
				"x": 7.5487198299,
				"y": 1.0157289606,
				"z": -1.5622986107,
				"element": "C" 
			},
			{
				"x": 6.9658095121,
				"y": 1.2690024869,
				"z": -0.1620001305,
				"element": "C" 
			},
			{
				"x": 5.9934098975,
				"y": 0.1897819086,
				"z": 0.3351288477,
				"element": "C" 
			},
			{
				"x": 5.3880500613,
				"y": 0.5169455258,
				"z": 1.7080168854,
				"element": "C" 
			},
			{
				"x": 4.3485907615,
				"y": -0.4976067868,
				"z": 2.2138402586,
				"element": "C" 
			},
			{
				"x": 4.9170266191,
				"y": -1.8906375835,
				"z": 2.5249538617,
				"element": "C" 
			},
			{
				"x": 3.9140679992,
				"y": -2.8503386569,
				"z": 3.19054331,
				"element": "C" 
			},
			{
				"x": 2.6760403239,
				"y": -3.2196944277,
				"z": 2.3525096987,
				"element": "C" 
			},
			{
				"x": 3.0003507126,
				"y": -3.9741893728,
				"z": 1.0546902929,
				"element": "C" 
			},
			{
				"x": 1.7942360804,
				"y": -4.5505651001,
				"z": 0.289944601,
				"element": "C" 
			},
			{
				"x": 0.8025090795,
				"y": -3.5205568406,
				"z": -0.2956677261,
				"element": "C" 
			},
			{
				"x": -0.3711108237,
				"y": -3.1390717774,
				"z": 0.6201557618,
				"element": "C" 
			},
			{
				"x": -1.3339462346,
				"y": -2.1302346613,
				"z": -0.0198594152,
				"element": "C" 
			},
			{
				"x": -2.5243798795,
				"y": -1.772801801,
				"z": 0.8817105037,
				"element": "C" 
			},
			{
				"x": -3.5508064047,
				"y": -0.8186530615,
				"z": 0.2480386965,
				"element": "C" 
			},
			{
				"x": -3.0222868927,
				"y": 0.5997675953,
				"z": -0.017500892,
				"element": "C" 
			},
			{
				"x": -4.0871739362,
				"y": 1.5952211067,
				"z": -0.5097637357,
				"element": "C" 
			},
			{
				"x": -4.6375843074,
				"y": 1.2985727991,
				"z": -1.912608328,
				"element": "C" 
			},
			{
				"x": -5.6651120865,
				"y": 2.3248523202,
				"z": -2.4299852437,
				"element": "C" 
			},
			{
				"x": -5.8336417605,
				"y": 2.1966709194,
				"z": -3.9651362761,
				"element": "C" 
			},
			{
				"x": -7.1523610091,
				"y": 2.8142232332,
				"z": -4.44720619,
				"element": "C" 
			},
			{
				"x": -8.3686512371,
				"y": 2.0431685979,
				"z": -3.8777550703,
				"element": "C" 
			},
			{
				"x": -8.0447760862,
				"y": 1.3771834915,
				"z": -2.5206457352,
				"element": "C" 
			},
			{
				"x": -7.0435216947,
				"y": 2.2158714812,
				"z": -1.7135213435,
				"element": "C" 
			},
			{
				"x": 9.3015072284,
				"y": -0.1314302462,
				"z": -0.9510510408,
				"element": "H" 
			},
			{
				"x": 8.890923792,
				"y": -0.3065194892,
				"z": -2.6623320896,
				"element": "H" 
			},
			{
				"x": 7.9327178334,
				"y": -1.1390687535,
				"z": -1.4366556029,
				"element": "H" 
			},
			{
				"x": 8.1111977285,
				"y": 1.9053690189,
				"z": -1.8736810727,
				"element": "H" 
			},
			{
				"x": 6.7251189322,
				"y": 0.911878896,
				"z": -2.2822690642,
				"element": "H" 
			},
			{
				"x": 7.7903500548,
				"y": 1.373010816,
				"z": 0.5583617107,
				"element": "H" 
			},
			{
				"x": 6.4452254084,
				"y": 2.2365711404,
				"z": -0.166067284,
				"element": "H" 
			},
			{
				"x": 6.5076753856,
				"y": -0.7776350472,
				"z": 0.3801309969,
				"element": "H" 
			},
			{
				"x": 5.1815831747,
				"y": 0.070839432,
				"z": -0.3979132208,
				"element": "H" 
			},
			{
				"x": 6.1966592687,
				"y": 0.6055083266,
				"z": 2.4480860573,
				"element": "H" 
			},
			{
				"x": 4.916828596,
				"y": 1.5081363076,
				"z": 1.6567010448,
				"element": "H" 
			},
			{
				"x": 3.5418371194,
				"y": -0.5788667425,
				"z": 1.4726711939,
				"element": "H" 
			},
			{
				"x": 3.8820034372,
				"y": -0.0983479786,
				"z": 3.125275804,
				"element": "H" 
			},
			{
				"x": 5.3112864947,
				"y": -2.3477099284,
				"z": 1.6091968911,
				"element": "H" 
			},
			{
				"x": 5.7796419484,
				"y": -1.7748548052,
				"z": 3.1959888957,
				"element": "H" 
			},
			{
				"x": 4.4412367864,
				"y": -3.7752879876,
				"z": 3.4625084373,
				"element": "H" 
			},
			{
				"x": 3.5769987404,
				"y": -2.4045571914,
				"z": 4.1366019083,
				"element": "H" 
			},
			{
				"x": 2.0160799014,
				"y": -3.8438819215,
				"z": 2.9705254284,
				"element": "H" 
			},
			{
				"x": 2.1041549926,
				"y": -2.3122035634,
				"z": 2.1248490613,
				"element": "H" 
			},
			{
				"x": 3.6797654945,
				"y": -4.8040286747,
				"z": 1.2968461606,
				"element": "H" 
			},
			{
				"x": 3.5605055979,
				"y": -3.3173722135,
				"z": 0.37532984,
				"element": "H" 
			},
			{
				"x": 1.2498267531,
				"y": -5.2507581344,
				"z": 0.9396654695,
				"element": "H" 
			},
			{
				"x": 2.1917009435,
				"y": -5.1579647776,
				"z": -0.5329634945,
				"element": "H" 
			},
			{
				"x": 1.3504973993,
				"y": -2.6132505229,
				"z": -0.5888886419,
				"element": "H" 
			},
			{
				"x": 0.3821048017,
				"y": -3.9243069836,
				"z": -1.226506174,
				"element": "H" 
			},
			{
				"x": 0.001479072,
				"y": -2.7297781784,
				"z": 1.5671495776,
				"element": "H" 
			},
			{
				"x": -0.925685487,
				"y": -4.0510695519,
				"z": 0.8843598968,
				"element": "H" 
			},
			{
				"x": -1.710542034,
				"y": -2.5392287541,
				"z": -0.9690233939,
				"element": "H" 
			},
			{
				"x": -0.7762767661,
				"y": -1.2214084381,
				"z": -0.2822175248,
				"element": "H" 
			},
			{
				"x": -3.0372809534,
				"y": -2.7009012194,
				"z": 1.1691027196,
				"element": "H" 
			},
			{
				"x": -2.1508441102,
				"y": -1.3324750556,
				"z": 1.8176490562,
				"element": "H" 
			},
			{
				"x": -4.4220080767,
				"y": -0.7468933579,
				"z": 0.9141388759,
				"element": "H" 
			},
			{
				"x": -3.9198798874,
				"y": -1.2627603673,
				"z": -0.6860573529,
				"element": "H" 
			},
			{
				"x": -2.5825769004,
				"y": 0.9870290415,
				"z": 0.9122906974,
				"element": "H" 
			},
			{
				"x": -2.2030591717,
				"y": 0.5641764982,
				"z": -0.7480228996,
				"element": "H" 
			},
			{
				"x": -4.9085697624,
				"y": 1.6265851747,
				"z": 0.2191910815,
				"element": "H" 
			},
			{
				"x": -3.6508317737,
				"y": 2.6035938118,
				"z": -0.5150754064,
				"element": "H" 
			},
			{
				"x": -3.7922313698,
				"y": 1.2611816079,
				"z": -2.6150660021,
				"element": "H" 
			},
			{
				"x": -5.0937375025,
				"y": 0.2991342879,
				"z": -1.9390211376,
				"element": "H" 
			},
			{
				"x": -5.2614885138,
				"y": 3.3272193109,
				"z": -2.2257382573,
				"element": "H" 
			},
			{
				"x": -5.8101498005,
				"y": 1.1349601733,
				"z": -4.2497520995,
				"element": "H" 
			},
			{
				"x": -4.9775921993,
				"y": 2.6626711498,
				"z": -4.4674922139,
				"element": "H" 
			},
			{
				"x": -7.1939641818,
				"y": 2.834022033,
				"z": -5.5421078026,
				"element": "H" 
			},
			{
				"x": -7.1891981997,
				"y": 3.8627550809,
				"z": -4.1231224306,
				"element": "H" 
			},
			{
				"x": -9.2157232002,
				"y": 2.7302734039,
				"z": -3.763049494,
				"element": "H" 
			},
			{
				"x": -8.6922817641,
				"y": 1.2751330144,
				"z": -4.5905902885,
				"element": "H" 
			},
			{
				"x": -7.6208882016,
				"y": 0.3785603569,
				"z": -2.6886469155,
				"element": "H" 
			},
			{
				"x": -8.9650435851,
				"y": 1.2201524268,
				"z": -1.9465125793,
				"element": "H" 
			},
			{
				"x": -6.9175420246,
				"y": 1.7931073121,
				"z": -0.7103980421,
				"element": "H" 
			},
			{
				"x": -7.4641608934,
				"y": 3.2188600268,
				"z": -1.5650809749,
				"element": "H" 
			}
		],
		 "valence_orbital": [ 
			{
				"type": "occ",
				"energy": -0.29505,
				"method": "rhf"
			},
			{
				"type": "occ",
				"energy": -0.29192,
				"method": "rhf"
			},
			{
				"type": "occ",
				"energy": -0.28912,
				"method": "rhf"
			},
			{
				"type": "occ",
				"energy": -0.28833,
				"method": "rhf"
			},
			{
				"type": "occ",
				"energy": -0.28189,
				"method": "rhf"
			},
			{
				"type": "unocc",
				"energy": 0.07894,
				"method": "rhf"
			},
			{
				"type": "unocc",
				"energy": 0.07906,
				"method": "rhf"
			},
			{
				"type": "unocc",
				"energy": 0.09102,
				"method": "rhf"
			},
			{
				"type": "unocc",
				"energy": 0.09576,
				"method": "rhf"
			},
			{
				"type": "unocc",
				"energy": 0.09998,
				"method": "rhf"
			}
		],
		"cosmo_sigma_profile": { 
			"-0.025": 0.0,
			"-0.024": 0.0,
			"-0.023": 0.0,
			"-0.022": 0.0,
			"-0.021": 0.0,
			"-0.02": 0.0,
			"-0.019": 0.0,
			"-0.018": 0.0,
			"-0.017": 0.0,
			"-0.016": 0.0,
			"-0.015": 0.0,
			"-0.014": 0.0,
			"-0.013": 0.0,
			"-0.012": 0.0,
			"-0.011": 0.0,
			"-0.01": 0.0,
			"-0.009": 0.0,
			"-0.008": 0.0,
			"-0.007": 0.0,
			"-0.006": 0.0,
			"-0.005": 0.0,
			"-0.004": 0.0,
			"-0.003": 1.89417518592,
			"-0.002": 50.6685116912,
			"-0.001": 137.653002421,
			"0.0": 153.425450211,
			"0.001": 127.724334418,
			"0.002": 57.2307452987,
			"0.003": 1.31525930869,
			"0.004": 0.0,
			"0.005": 0.0,
			"0.006": 0.0,
			"0.007": 0.0,
			"0.008": 0.0,
			"0.009": 0.0,
			"0.01": 0.0,
			"0.011": 0.0,
			"0.012": 0.0,
			"0.013": 0.0,
			"0.014": 0.0,
			"0.015": 0.0,
			"0.016": 0.0,
			"0.017": 0.0,
			"0.018": 0.0,
			"0.019": 0.0,
			"0.02": 0.0,
			"0.021": 0.0,
			"0.022": 0.0,
			"0.023": 0.0,
			"0.024": 0.0,
			"0.025": 0.0
		}
	}
}
