{
	 "smiles": "OC(=O)C1CCCN(C1)C1=C(C=CC=N1)C(F)(F)F", 
	 "Tm": 360.15, 
	 "num_atms": 32, 
	 "gaussian": { 
		 "optdone": 1, 
		 "sigma_profile": "yes", 
		 "theory": "DFT", 
		 "functional": "B3LYP", 
		 "basiset": "6-31G**", 
		 "properties": { 
			 "R2extent": 5555.1547, 
			 "electric_dipole_moment_norm": 4.65876770831, 
			 "electric_quadrupole_moment_norm": 20.6297579838, 
			 "total_energy": -1024.59698802, 
			 "HOMO_LUMO_gap": 0.17683, 
			 "cosmo_polarized_energy": -16.19, 
			 "cosmo_cavitation_energy": 35.19, 
			 "cosmo_dispersion_energy": -24.63, 
			 "cosmo_repulsion_energy": 1.83, 
			 "cosmo_total_nonelectrostatic_energy": 12.4, 
			 "SMD_solvation_energy": 6.41 
		},
		"coords": [
			{
				"x": 4.3903786574,
				"y": 2.1393235493,
				"z": -1.3437825381,
				"element": "O" 
			},
			{
				"x": 3.651222628,
				"y": 1.6600736839,
				"z": -0.304610463,
				"element": "C" 
			},
			{
				"x": 3.9029874428,
				"y": 2.009298758,
				"z": 0.8225961923,
				"element": "O" 
			},
			{
				"x": 2.5606665381,
				"y": 0.6636772921,
				"z": -0.677700065,
				"element": "C" 
			},
			{
				"x": 3.1785473204,
				"y": -0.7006863163,
				"z": -1.0712358301,
				"element": "C" 
			},
			{
				"x": 2.0811803626,
				"y": -1.7443252137,
				"z": -1.316337392,
				"element": "C" 
			},
			{
				"x": 1.0988628688,
				"y": -1.8362307812,
				"z": -0.1350274082,
				"element": "C" 
			},
			{
				"x": 0.5417108345,
				"y": -0.5177027869,
				"z": 0.192631354,
				"element": "N" 
			},
			{
				"x": 1.5798875592,
				"y": 0.4719827554,
				"z": 0.4913232654,
				"element": "C" 
			},
			{
				"x": -0.6669486653,
				"y": -0.0760480537,
				"z": -0.3259017199,
				"element": "C" 
			},
			{
				"x": -1.8781619249,
				"y": -0.8332927476,
				"z": -0.2793820279,
				"element": "C" 
			},
			{
				"x": -3.0166917631,
				"y": -0.2883671132,
				"z": -0.8742164491,
				"element": "C" 
			},
			{
				"x": -2.9834841696,
				"y": 0.9805672917,
				"z": -1.4447762798,
				"element": "C" 
			},
			{
				"x": -1.7848520413,
				"y": 1.681494875,
				"z": -1.3539665758,
				"element": "C" 
			},
			{
				"x": -0.6686790954,
				"y": 1.1737728727,
				"z": -0.8321737242,
				"element": "N" 
			},
			{
				"x": -2.050056296,
				"y": -2.1459891138,
				"z": 0.4405568898,
				"element": "C" 
			},
			{
				"x": -3.3335289544,
				"y": -2.3277781609,
				"z": 0.8259810776,
				"element": "F" 
			},
			{
				"x": -1.7456214047,
				"y": -3.2213882469,
				"z": -0.3433603293,
				"element": "F" 
			},
			{
				"x": -1.2883180734,
				"y": -2.2436593193,
				"z": 1.5477717038,
				"element": "F" 
			},
			{
				"x": 4.0478194921,
				"y": 1.794423355,
				"z": -2.1805159004,
				"element": "H" 
			},
			{
				"x": 1.9919821922,
				"y": 1.0627277508,
				"z": -1.5290655467,
				"element": "H" 
			},
			{
				"x": 3.83080711,
				"y": -1.0363687889,
				"z": -0.2537465962,
				"element": "H" 
			},
			{
				"x": 3.8160813332,
				"y": -0.6027570776,
				"z": -1.9583112607,
				"element": "H" 
			},
			{
				"x": 2.5304609068,
				"y": -2.7295844243,
				"z": -1.4889796821,
				"element": "H" 
			},
			{
				"x": 1.5191133167,
				"y": -1.4845078102,
				"z": -2.2229184707,
				"element": "H" 
			},
			{
				"x": 0.3047211926,
				"y": -2.5354853503,
				"z": -0.3783373392,
				"element": "H" 
			},
			{
				"x": 1.6135253286,
				"y": -2.2223090003,
				"z": 0.7544908324,
				"element": "H" 
			},
			{
				"x": 1.109627804,
				"y": 1.4177980919,
				"z": 0.7518702843,
				"element": "H" 
			},
			{
				"x": 2.1378343345,
				"y": 0.1199267296,
				"z": 1.3668562429,
				"element": "H" 
			},
			{
				"x": -3.9427042587,
				"y": -0.8517853344,
				"z": -0.8468249656,
				"element": "H" 
			},
			{
				"x": -3.8609528497,
				"y": 1.4203175489,
				"z": -1.9046953481,
				"element": "H" 
			},
			{
				"x": -1.7093177255,
				"y": 2.7012810851,
				"z": -1.7289119306,
				"element": "H" 
			}
		],
		 "valence_orbital": [ 
			{
				"type": "occ",
				"energy": -0.30355,
				"method": "rhf"
			},
			{
				"type": "occ",
				"energy": -0.29294,
				"method": "rhf"
			},
			{
				"type": "occ",
				"energy": -0.27296,
				"method": "rhf"
			},
			{
				"type": "occ",
				"energy": -0.26681,
				"method": "rhf"
			},
			{
				"type": "occ",
				"energy": -0.21746,
				"method": "rhf"
			},
			{
				"type": "unocc",
				"energy": -0.04063,
				"method": "rhf"
			},
			{
				"type": "unocc",
				"energy": -0.01958,
				"method": "rhf"
			},
			{
				"type": "unocc",
				"energy": 0.00972,
				"method": "rhf"
			},
			{
				"type": "unocc",
				"energy": 0.04743,
				"method": "rhf"
			},
			{
				"type": "unocc",
				"energy": 0.08981,
				"method": "rhf"
			}
		],
		"cosmo_sigma_profile": { 
			"-0.025": 0.0,
			"-0.024": 0.0,
			"-0.023": 0.0,
			"-0.022": 0.0,
			"-0.021": 0.0,
			"-0.02": 0.0,
			"-0.019": 0.166161814062,
			"-0.018": 0.969959769106,
			"-0.017": 0.710933525078,
			"-0.016": 1.06865409088,
			"-0.015": 1.22002509776,
			"-0.014": 1.1124125556,
			"-0.013": 1.39837098787,
			"-0.012": 0.64065949999,
			"-0.011": 1.311763538,
			"-0.01": 1.32242606756,
			"-0.009": 0.843563292211,
			"-0.008": 1.84825359605,
			"-0.007": 5.58981453416,
			"-0.006": 8.5404781162,
			"-0.005": 11.847441666,
			"-0.004": 22.5713412173,
			"-0.003": 27.6727908869,
			"-0.002": 23.885638127,
			"-0.001": 19.7342582891,
			"0.0": 19.1410200793,
			"0.001": 20.526868161,
			"0.002": 29.0722674959,
			"0.003": 30.0514732908,
			"0.004": 7.24260689339,
			"0.005": 5.07685486466,
			"0.006": 4.1762220492,
			"0.007": 4.66089687004,
			"0.008": 4.26061953158,
			"0.009": 3.18396058489,
			"0.01": 5.80384132666,
			"0.011": 5.62261039161,
			"0.012": 5.22760349048,
			"0.013": 1.73124822275,
			"0.014": 0.0713663761296,
			"0.015": 0.0,
			"0.016": 0.0,
			"0.017": 0.0,
			"0.018": 0.0,
			"0.019": 0.0,
			"0.02": 0.0,
			"0.021": 0.0,
			"0.022": 0.0,
			"0.023": 0.0,
			"0.024": 0.0,
			"0.025": 0.0
		}
	}
}
