{
	 "smiles": "OC1=CC=C(C(=C1)C(F)(F)F)[N+]([O-])=O", 
	 "Tm": 349.15, 
	 "num_atms": 18, 
	 "gaussian": { 
		 "optdone": 1, 
		 "sigma_profile": "yes", 
		 "theory": "DFT", 
		 "functional": "B3LYP", 
		 "basiset": "6-31G**", 
		 "properties": { 
			 "R2extent": 3712.7094, 
			 "electric_dipole_moment_norm": 5.68313004426, 
			 "electric_quadrupole_moment_norm": 12.5618320101, 
			 "total_energy": -848.989246507, 
			 "HOMO_LUMO_gap": 0.17354, 
			 "cosmo_polarized_energy": -14.11, 
			 "cosmo_cavitation_energy": 24.57, 
			 "cosmo_dispersion_energy": -17.8, 
			 "cosmo_repulsion_energy": 1.33, 
			 "cosmo_total_nonelectrostatic_energy": 8.1, 
			 "SMD_solvation_energy": 7.82 
		},
		"coords": [
			{
				"x": 2.1695668813,
				"y": 2.3494896749,
				"z": -0.36260038,
				"element": "O" 
			},
			{
				"x": 1.5540494686,
				"y": 1.1910006459,
				"z": -0.6994220884,
				"element": "C" 
			},
			{
				"x": 2.0820558998,
				"y": 0.0028393738,
				"z": -0.1832639753,
				"element": "C" 
			},
			{
				"x": 1.4770171556,
				"y": -1.2014867608,
				"z": -0.5046802882,
				"element": "C" 
			},
			{
				"x": 0.363787431,
				"y": -1.241477839,
				"z": -1.3479522543,
				"element": "C" 
			},
			{
				"x": -0.1872052571,
				"y": -0.05438525,
				"z": -1.8646283471,
				"element": "C" 
			},
			{
				"x": 0.4203863436,
				"y": 1.1528035275,
				"z": -1.5210926126,
				"element": "C" 
			},
			{
				"x": -1.4347939883,
				"y": 0.0243897762,
				"z": -2.736151634,
				"element": "C" 
			},
			{
				"x": -2.4435103929,
				"y": -0.7085798283,
				"z": -2.237504413,
				"element": "F" 
			},
			{
				"x": -1.8816365349,
				"y": 1.3059812476,
				"z": -2.7942642343,
				"element": "F" 
			},
			{
				"x": -1.201753417,
				"y": -0.3534508239,
				"z": -4.001266231,
				"element": "F" 
			},
			{
				"x": -0.1563990176,
				"y": -2.5787249056,
				"z": -1.6680343688,
				"element": "N" 
			},
			{
				"x": -0.7632496154,
				"y": -2.7244007627,
				"z": -2.7249917773,
				"element": "O" 
			},
			{
				"x": 0.0812193182,
				"y": -3.4794404209,
				"z": -0.861996298,
				"element": "O" 
			},
			{
				"x": 1.7194613723,
				"y": 3.0972932369,
				"z": -0.7783290943,
				"element": "H" 
			},
			{
				"x": 2.9544201698,
				"y": 0.0424339459,
				"z": 0.459140292,
				"element": "H" 
			},
			{
				"x": 1.855815055,
				"y": -2.1376721702,
				"z": -0.1146017138,
				"element": "H" 
			},
			{
				"x": -0.0091308719,
				"y": 2.0774873327,
				"z": -1.8897605814,
				"element": "H" 
			}
		],
		 "valence_orbital": [ 
			{
				"type": "occ",
				"energy": -0.31164,
				"method": "rhf"
			},
			{
				"type": "occ",
				"energy": -0.31139,
				"method": "rhf"
			},
			{
				"type": "occ",
				"energy": -0.29784,
				"method": "rhf"
			},
			{
				"type": "occ",
				"energy": -0.29552,
				"method": "rhf"
			},
			{
				"type": "occ",
				"energy": -0.26469,
				"method": "rhf"
			},
			{
				"type": "unocc",
				"energy": -0.09115,
				"method": "rhf"
			},
			{
				"type": "unocc",
				"energy": -0.04932,
				"method": "rhf"
			},
			{
				"type": "unocc",
				"energy": -0.00916,
				"method": "rhf"
			},
			{
				"type": "unocc",
				"energy": 0.03944,
				"method": "rhf"
			},
			{
				"type": "unocc",
				"energy": 0.07579,
				"method": "rhf"
			}
		],
		"cosmo_sigma_profile": { 
			"-0.025": 0.0,
			"-0.024": 0.0,
			"-0.023": 0.0,
			"-0.022": 0.0,
			"-0.021": 0.0,
			"-0.02": 0.370591521624,
			"-0.019": 1.28683713489,
			"-0.018": 1.29560247476,
			"-0.017": 1.45708669994,
			"-0.016": 0.831097563513,
			"-0.015": 1.05495656504,
			"-0.014": 0.907137340934,
			"-0.013": 0.695711717237,
			"-0.012": 1.31826186012,
			"-0.011": 1.18390168259,
			"-0.01": 1.07078354022,
			"-0.009": 1.48215103947,
			"-0.008": 3.97816833031,
			"-0.007": 5.93792785512,
			"-0.006": 5.95644841888,
			"-0.005": 6.45965379146,
			"-0.004": 6.90171394093,
			"-0.003": 9.615589687,
			"-0.002": 10.5901861251,
			"-0.001": 19.3840301239,
			"0.0": 16.5285774269,
			"0.001": 15.4397090101,
			"0.002": 23.2875464784,
			"0.003": 15.3017680059,
			"0.004": 6.07005207126,
			"0.005": 5.05441691392,
			"0.006": 6.81959778625,
			"0.007": 10.2215544424,
			"0.008": 8.19241472617,
			"0.009": 6.20932463728,
			"0.01": 2.73597338315,
			"0.011": 0.0254381430773,
			"0.012": 0.0,
			"0.013": 0.0,
			"0.014": 0.0,
			"0.015": 0.0,
			"0.016": 0.0,
			"0.017": 0.0,
			"0.018": 0.0,
			"0.019": 0.0,
			"0.02": 0.0,
			"0.021": 0.0,
			"0.022": 0.0,
			"0.023": 0.0,
			"0.024": 0.0,
			"0.025": 0.0
		}
	}
}
