{
	 "smiles": "CN1C(=O)NC2=C(C=CC=C2)C1=O", 
	 "Tm": 516.15, 
	 "num_atms": 21, 
	 "gaussian": { 
		 "optdone": 1, 
		 "sigma_profile": "yes", 
		 "theory": "DFT", 
		 "functional": "B3LYP", 
		 "basiset": "6-31G**", 
		 "properties": { 
			 "R2extent": 2703.7432, 
			 "electric_dipole_moment_norm": 3.54104612509, 
			 "electric_quadrupole_moment_norm": 5.56242955191, 
			 "total_energy": -607.786590607, 
			 "HOMO_LUMO_gap": 0.18488, 
			 "cosmo_polarized_energy": -13.79, 
			 "cosmo_cavitation_energy": 24.95, 
			 "cosmo_dispersion_energy": -18.86, 
			 "cosmo_repulsion_energy": 1.45, 
			 "cosmo_total_nonelectrostatic_energy": 7.54, 
			 "SMD_solvation_energy": 5.59 
		},
		"coords": [
			{
				"x": -0.6765011143,
				"y": -4.0304428288,
				"z": -0.8389813804,
				"element": "C" 
			},
			{
				"x": -0.5772701606,
				"y": -2.7252458889,
				"z": -0.17699129,
				"element": "N" 
			},
			{
				"x": -0.3296068048,
				"y": -2.7312876769,
				"z": 1.1997362486,
				"element": "C" 
			},
			{
				"x": -0.2001878199,
				"y": -3.7554596303,
				"z": 1.8510144893,
				"element": "O" 
			},
			{
				"x": -0.2452854595,
				"y": -1.4814326714,
				"z": 1.7876278141,
				"element": "N" 
			},
			{
				"x": -0.3638623495,
				"y": -0.2699412257,
				"z": 1.1255982409,
				"element": "C" 
			},
			{
				"x": -0.5930218234,
				"y": -0.2878012318,
				"z": -0.2596101878,
				"element": "C" 
			},
			{
				"x": -0.7152088712,
				"y": 0.9197257564,
				"z": -0.9598799246,
				"element": "C" 
			},
			{
				"x": -0.613395773,
				"y": 2.1320159314,
				"z": -0.2907110213,
				"element": "C" 
			},
			{
				"x": -0.3845359035,
				"y": 2.1406753864,
				"z": 1.0933937193,
				"element": "C" 
			},
			{
				"x": -0.2588645861,
				"y": 0.9532087662,
				"z": 1.8047237791,
				"element": "C" 
			},
			{
				"x": -0.6989499832,
				"y": -1.5733824395,
				"z": -0.9751634923,
				"element": "C" 
			},
			{
				"x": -0.8826588121,
				"y": -1.66352169,
				"z": -2.1812204879,
				"element": "O" 
			},
			{
				"x": -1.0657451887,
				"y": -4.752094424,
				"z": -0.1235681579,
				"element": "H" 
			},
			{
				"x": 0.3071553741,
				"y": -4.3639356985,
				"z": -1.1838034921,
				"element": "H" 
			},
			{
				"x": -1.3346804167,
				"y": -3.9245347087,
				"z": -1.6992899802,
				"element": "H" 
			},
			{
				"x": -0.065568542,
				"y": -1.5078524834,
				"z": 2.7813883443,
				"element": "H" 
			},
			{
				"x": -0.890052765,
				"y": 0.8674658272,
				"z": -2.0291505643,
				"element": "H" 
			},
			{
				"x": -0.7091318931,
				"y": 3.0670543347,
				"z": -0.8327386106,
				"element": "H" 
			},
			{
				"x": -0.3032811026,
				"y": 3.085821955,
				"z": 1.6222993478,
				"element": "H" 
			},
			{
				"x": -0.0812460047,
				"y": 0.9643646406,
				"z": 2.8765266059,
				"element": "H" 
			}
		],
		 "valence_orbital": [ 
			{
				"type": "occ",
				"energy": -0.29074,
				"method": "rhf"
			},
			{
				"type": "occ",
				"energy": -0.27232,
				"method": "rhf"
			},
			{
				"type": "occ",
				"energy": -0.27044,
				"method": "rhf"
			},
			{
				"type": "occ",
				"energy": -0.26418,
				"method": "rhf"
			},
			{
				"type": "occ",
				"energy": -0.23639,
				"method": "rhf"
			},
			{
				"type": "unocc",
				"energy": -0.05151,
				"method": "rhf"
			},
			{
				"type": "unocc",
				"energy": -0.01856,
				"method": "rhf"
			},
			{
				"type": "unocc",
				"energy": 0.02197,
				"method": "rhf"
			},
			{
				"type": "unocc",
				"energy": 0.07184,
				"method": "rhf"
			},
			{
				"type": "unocc",
				"energy": 0.07213,
				"method": "rhf"
			}
		],
		"cosmo_sigma_profile": { 
			"-0.025": 0.0,
			"-0.024": 0.0,
			"-0.023": 0.0,
			"-0.022": 0.0,
			"-0.021": 0.0,
			"-0.02": 0.0,
			"-0.019": 0.0,
			"-0.018": 0.0,
			"-0.017": 0.112340438202,
			"-0.016": 0.937482073789,
			"-0.015": 1.25724513915,
			"-0.014": 1.43710408892,
			"-0.013": 0.786968442245,
			"-0.012": 1.02356499935,
			"-0.011": 1.11558699161,
			"-0.01": 1.1811542931,
			"-0.009": 1.85723181799,
			"-0.008": 1.92653833558,
			"-0.007": 3.92834373274,
			"-0.006": 9.90544833389,
			"-0.005": 14.5429082519,
			"-0.004": 16.901877638,
			"-0.003": 17.7663629227,
			"-0.002": 18.6443809806,
			"-0.001": 13.203322954,
			"0.0": 10.5731228853,
			"0.001": 12.2603279329,
			"0.002": 12.2839599817,
			"0.003": 13.4744985385,
			"0.004": 9.20463373637,
			"0.005": 3.24194656764,
			"0.006": 2.72460254414,
			"0.007": 2.37355119657,
			"0.008": 2.62437687458,
			"0.009": 2.72889788994,
			"0.01": 3.47909425475,
			"0.011": 3.955332163,
			"0.012": 8.52444860066,
			"0.013": 5.80527690083,
			"0.014": 0.0755380512664,
			"0.015": 0.0,
			"0.016": 0.0,
			"0.017": 0.0,
			"0.018": 0.0,
			"0.019": 0.0,
			"0.02": 0.0,
			"0.021": 0.0,
			"0.022": 0.0,
			"0.023": 0.0,
			"0.024": 0.0,
			"0.025": 0.0
		}
	}
}
