{
	 "smiles": "CCOC(=O)C1=C(C)C(C(C)=O)=C(C)N1C", 
	 "Tm": 334.65, 
	 "num_atms": 33, 
	 "gaussian": { 
		 "optdone": 1, 
		 "sigma_profile": "yes", 
		 "theory": "DFT", 
		 "functional": "B3LYP", 
		 "basiset": "6-31G**", 
		 "properties": { 
			 "R2extent": 4476.1237, 
			 "electric_dipole_moment_norm": 3.34391217139, 
			 "electric_quadrupole_moment_norm": 21.8749627129, 
			 "total_energy": -747.972440593, 
			 "HOMO_LUMO_gap": 0.19569, 
			 "cosmo_polarized_energy": -12.79, 
			 "cosmo_cavitation_energy": 34.85, 
			 "cosmo_dispersion_energy": -24.88, 
			 "cosmo_repulsion_energy": 1.94, 
			 "cosmo_total_nonelectrostatic_energy": 11.91, 
			 "SMD_solvation_energy": 7.62 
		},
		"coords": [
			{
				"x": 4.4158428312,
				"y": -0.1297774238,
				"z": -2.568357529,
				"element": "C" 
			},
			{
				"x": 3.5530065676,
				"y": 1.0795452169,
				"z": -2.2392161911,
				"element": "C" 
			},
			{
				"x": 2.5198498075,
				"y": 0.7467225618,
				"z": -1.283198148,
				"element": "O" 
			},
			{
				"x": 1.3747189686,
				"y": 0.2286786325,
				"z": -1.7895096195,
				"element": "C" 
			},
			{
				"x": 1.2185279619,
				"y": 0.0301541688,
				"z": -2.9869256586,
				"element": "O" 
			},
			{
				"x": 0.3784766992,
				"y": -0.0635639966,
				"z": -0.7557293687,
				"element": "C" 
			},
			{
				"x": 0.3461961397,
				"y": 0.2062761296,
				"z": 0.6103674613,
				"element": "C" 
			},
			{
				"x": 1.3756193032,
				"y": 0.9287617733,
				"z": 1.4290640856,
				"element": "C" 
			},
			{
				"x": -0.8987495883,
				"y": -0.3075454487,
				"z": 1.1040677065,
				"element": "C" 
			},
			{
				"x": -1.3121242662,
				"y": -0.197843554,
				"z": 2.5185782007,
				"element": "C" 
			},
			{
				"x": -2.761500452,
				"y": -0.4241145467,
				"z": 2.9396631229,
				"element": "C" 
			},
			{
				"x": -0.4999258718,
				"y": 0.1064218632,
				"z": 3.3870070961,
				"element": "O" 
			},
			{
				"x": -1.5791215208,
				"y": -0.8840176332,
				"z": 0.0145727462,
				"element": "C" 
			},
			{
				"x": -2.885027201,
				"y": -1.6191604541,
				"z": -0.057568943,
				"element": "C" 
			},
			{
				"x": -0.8084642941,
				"y": -0.7311555519,
				"z": -1.0967706799,
				"element": "N" 
			},
			{
				"x": -1.1646793426,
				"y": -1.2070606257,
				"z": -2.4332741318,
				"element": "C" 
			},
			{
				"x": 3.8255861953,
				"y": -0.8929486062,
				"z": -3.0809048918,
				"element": "H" 
			},
			{
				"x": 4.8431689618,
				"y": -0.5620314916,
				"z": -1.6587788983,
				"element": "H" 
			},
			{
				"x": 5.2386060789,
				"y": 0.1690312863,
				"z": -3.2267079954,
				"element": "H" 
			},
			{
				"x": 3.0871817554,
				"y": 1.4873171419,
				"z": -3.1391621814,
				"element": "H" 
			},
			{
				"x": 4.1344129591,
				"y": 1.8613860985,
				"z": -1.7444988403,
				"element": "H" 
			},
			{
				"x": 2.0938008857,
				"y": 1.4441628168,
				"z": 0.7958107032,
				"element": "H" 
			},
			{
				"x": 1.915435509,
				"y": 0.2275736845,
				"z": 2.0743116099,
				"element": "H" 
			},
			{
				"x": 0.8944792318,
				"y": 1.6382962289,
				"z": 2.1053616274,
				"element": "H" 
			},
			{
				"x": -2.9854465179,
				"y": -1.4957458807,
				"z": 2.9991126451,
				"element": "H" 
			},
			{
				"x": -2.8822844339,
				"y": -0.0024969251,
				"z": 3.9388109836,
				"element": "H" 
			},
			{
				"x": -3.4788231065,
				"y": 0.0372103247,
				"z": 2.2551411274,
				"element": "H" 
			},
			{
				"x": -2.7576186106,
				"y": -2.6187390241,
				"z": -0.4881198728,
				"element": "H" 
			},
			{
				"x": -3.621150651,
				"y": -1.0879474283,
				"z": -0.6733501644,
				"element": "H" 
			},
			{
				"x": -3.3179061745,
				"y": -1.7492243462,
				"z": 0.9296217901,
				"element": "H" 
			},
			{
				"x": -2.1257857187,
				"y": -1.714811369,
				"z": -2.3826318826,
				"element": "H" 
			},
			{
				"x": -1.227247602,
				"y": -0.3722805539,
				"z": -3.1314706089,
				"element": "H" 
			},
			{
				"x": -0.4075545039,
				"y": -1.8964730681,
				"z": -2.8091153006,
				"element": "H" 
			}
		],
		 "valence_orbital": [ 
			{
				"type": "occ",
				"energy": -0.29324,
				"method": "rhf"
			},
			{
				"type": "occ",
				"energy": -0.26945,
				"method": "rhf"
			},
			{
				"type": "occ",
				"energy": -0.23901,
				"method": "rhf"
			},
			{
				"type": "occ",
				"energy": -0.23215,
				"method": "rhf"
			},
			{
				"type": "occ",
				"energy": -0.22024,
				"method": "rhf"
			},
			{
				"type": "unocc",
				"energy": -0.02455,
				"method": "rhf"
			},
			{
				"type": "unocc",
				"energy": -0.02359,
				"method": "rhf"
			},
			{
				"type": "unocc",
				"energy": 0.08184,
				"method": "rhf"
			},
			{
				"type": "unocc",
				"energy": 0.08415,
				"method": "rhf"
			},
			{
				"type": "unocc",
				"energy": 0.10755,
				"method": "rhf"
			}
		],
		"cosmo_sigma_profile": { 
			"-0.025": 0.0,
			"-0.024": 0.0,
			"-0.023": 0.0,
			"-0.022": 0.0,
			"-0.021": 0.0,
			"-0.02": 0.0,
			"-0.019": 0.0,
			"-0.018": 0.0,
			"-0.017": 0.0,
			"-0.016": 0.0,
			"-0.015": 0.0,
			"-0.014": 0.0,
			"-0.013": 0.0,
			"-0.012": 0.0,
			"-0.011": 0.0,
			"-0.01": 0.0,
			"-0.009": 0.0,
			"-0.008": 0.0,
			"-0.007": 2.47806627169,
			"-0.006": 11.1578616636,
			"-0.005": 18.4178175226,
			"-0.004": 26.6336153828,
			"-0.003": 31.7683905509,
			"-0.002": 31.2575239914,
			"-0.001": 29.1802573353,
			"0.0": 26.9958139607,
			"0.001": 20.7631513035,
			"0.002": 14.8049240192,
			"0.003": 12.3588838262,
			"0.004": 10.8291600874,
			"0.005": 5.95252925985,
			"0.006": 4.50206480593,
			"0.007": 3.82052274779,
			"0.008": 3.52881035364,
			"0.009": 2.28387533401,
			"0.01": 3.8964737577,
			"0.011": 3.41201529547,
			"0.012": 4.71733816487,
			"0.013": 3.90507559826,
			"0.014": 1.68462861938,
			"0.015": 0.0881243087315,
			"0.016": 0.0,
			"0.017": 0.0,
			"0.018": 0.0,
			"0.019": 0.0,
			"0.02": 0.0,
			"0.021": 0.0,
			"0.022": 0.0,
			"0.023": 0.0,
			"0.024": 0.0,
			"0.025": 0.0
		}
	}
}
