{
	 "smiles": "ClC1=CC(I)=CC(Cl)=C1", 
	 "Tm": 329.65, 
	 "num_atms": 12, 
	 "gaussian": { 
		 "optdone": 1, 
		 "sigma_profile": "no", 
		 "theory": "DFT", 
		 "functional": "B3LYP", 
		 "basiset": "6-31G**", 
		 "properties": { 
			 "R2extent": 2297.0863, 
			 "electric_dipole_moment_norm": 0.269387249141, 
			 "electric_quadrupole_moment_norm": 3.56081704529, 
			 "total_energy": -1162.214014, 
			 "HOMO_LUMO_gap": 0.19734, 
			 "cosmo_polarized_energy": -96785.52, 
			 "cosmo_cavitation_energy": 23.42, 
			 "cosmo_dispersion_energy": -19.02, 
			 "cosmo_repulsion_energy": 1.53, 
			 "cosmo_total_nonelectrostatic_energy": 5.93, 
			 "SMD_solvation_energy": 2.56 
		},
		"coords": [
			{
				"x": 2.4834920178,
				"y": -0.390775685,
				"z": -1.6098155691,
				"element": "Cl" 
			},
			{
				"x": 1.1217436391,
				"y": 0.3924593423,
				"z": -0.8339860354,
				"element": "C" 
			},
			{
				"x": 1.1968406458,
				"y": 0.6899124406,
				"z": 0.5277024174,
				"element": "C" 
			},
			{
				"x": 0.1015858284,
				"y": 1.3137157246,
				"z": 1.1264858087,
				"element": "C" 
			},
			{
				"x": 0.1827365369,
				"y": 1.7789164275,
				"z": 3.1913675705,
				"element": "I" 
			},
			{
				"x": -1.0457275589,
				"y": 1.639344275,
				"z": 0.4019710134,
				"element": "C" 
			},
			{
				"x": -1.0776771397,
				"y": 1.3236167154,
				"z": -0.9572900924,
				"element": "C" 
			},
			{
				"x": -2.5066217448,
				"y": 1.7219246967,
				"z": -1.8895825763,
				"element": "Cl" 
			},
			{
				"x": -0.0054807307,
				"y": 0.7004683249,
				"z": -1.5947812244,
				"element": "C" 
			},
			{
				"x": 2.0848483416,
				"y": 0.43909534,
				"z": 1.0932639236,
				"element": "H" 
			},
			{
				"x": -1.8930140246,
				"y": 2.1232135157,
				"z": 0.8702473318,
				"element": "H" 
			},
			{
				"x": -0.0470258108,
				"y": 0.4626088823,
				"z": -2.6500825677,
				"element": "H" 
			}
		],
		 "valence_orbital": [ 
			{
				"type": "occ",
				"energy": -0.32724,
				"method": "rhf"
			},
			{
				"type": "occ",
				"energy": -0.29926,
				"method": "rhf"
			},
			{
				"type": "occ",
				"energy": -0.28254,
				"method": "rhf"
			},
			{
				"type": "occ",
				"energy": -0.26568,
				"method": "rhf"
			},
			{
				"type": "occ",
				"energy": -0.25737,
				"method": "rhf"
			},
			{
				"type": "unocc",
				"energy": -0.06003,
				"method": "rhf"
			},
			{
				"type": "unocc",
				"energy": -0.04227,
				"method": "rhf"
			},
			{
				"type": "unocc",
				"energy": -0.03899,
				"method": "rhf"
			},
			{
				"type": "unocc",
				"energy": 0.00819,
				"method": "rhf"
			},
			{
				"type": "unocc",
				"energy": 0.02961,
				"method": "rhf"
			}
		],
		"cosmo_sigma_profile": { 
			"0.0": 0.0,
			"0.0": 0.0,
			"0.0": 0.0,
			"0.0": 0.0,
			"0.0": 0.0,
			"0.0": 0.0,
			"0.0": 0.0,
			"0.0": 0.0,
			"0.0": 0.0,
			"0.0": 0.0,
			"0.0": 0.0,
			"0.0": 0.0,
			"0.0": 0.0,
			"0.0": 0.0,
			"0.0": 0.0,
			"0.0": 0.0,
			"0.0": 0.0,
			"0.0": 0.0,
			"0.0": 0.0,
			"0.0": 0.0,
			"0.0": 0.0,
			"0.0": 0.0,
			"0.0": 0.0,
			"0.0": 0.0,
			"0.0": 0.0,
			"0.0": 0.0,
			"0.0": 0.0,
			"0.0": 0.0,
			"0.0": 0.0,
			"0.0": 0.0,
			"0.0": 0.0,
			"0.0": 0.0,
			"0.0": 0.0,
			"0.0": 0.0,
			"0.0": 0.0,
			"0.0": 0.0,
			"0.0": 0.0,
			"0.0": 0.0,
			"0.0": 0.0,
			"0.0": 0.0,
			"0.0": 0.0,
			"0.0": 0.0,
			"0.0": 0.0,
			"0.0": 0.0,
			"0.0": 0.0,
			"0.0": 0.0,
			"0.0": 0.0,
			"0.0": 0.0,
			"0.0": 0.0,
			"0.0": 0.0,
			"0.0": 0.0
		}
	}
}
