{
	 "smiles": "O=C1CC(=NO1)C1=CC(=CC=C1)C1=NOC(=O)C1", 
	 "Tm": 463.15, 
	 "num_atms": 26, 
	 "gaussian": { 
		 "optdone": 1, 
		 "sigma_profile": "yes", 
		 "theory": "DFT", 
		 "functional": "B3LYP", 
		 "basiset": "6-31G**", 
		 "properties": { 
			 "R2extent": 6484.8592, 
			 "electric_dipole_moment_norm": 5.06837451359, 
			 "electric_quadrupole_moment_norm": 34.5598844113, 
			 "total_energy": -872.405338269, 
			 "HOMO_LUMO_gap": 0.17392, 
			 "cosmo_polarized_energy": -23.04, 
			 "cosmo_cavitation_energy": 32.42, 
			 "cosmo_dispersion_energy": -23.75, 
			 "cosmo_repulsion_energy": 1.81, 
			 "cosmo_total_nonelectrostatic_energy": 10.49, 
			 "SMD_solvation_energy": 7.0 
		},
		"coords": [
			{
				"x": 2.8768227093,
				"y": 3.6138031146,
				"z": -2.9772186836,
				"element": "O" 
			},
			{
				"x": 2.5774038808,
				"y": 3.0741702083,
				"z": -1.9500645761,
				"element": "C" 
			},
			{
				"x": 1.7322170581,
				"y": 1.8383361724,
				"z": -1.687018595,
				"element": "C" 
			},
			{
				"x": 1.7970910767,
				"y": 1.7628066121,
				"z": -0.1927474847,
				"element": "C" 
			},
			{
				"x": 2.5044903231,
				"y": 2.7127529974,
				"z": 0.3219134406,
				"element": "N" 
			},
			{
				"x": 3.001622008,
				"y": 3.5375240058,
				"z": -0.7166103906,
				"element": "O" 
			},
			{
				"x": 1.1558992217,
				"y": 0.7525092007,
				"z": 0.6613636522,
				"element": "C" 
			},
			{
				"x": 0.3954544253,
				"y": -0.2680005248,
				"z": 0.087499715,
				"element": "C" 
			},
			{
				"x": -0.2236515264,
				"y": -1.2412044433,
				"z": 0.8910311246,
				"element": "C" 
			},
			{
				"x": -0.0694120535,
				"y": -1.1768323972,
				"z": 2.2818624836,
				"element": "C" 
			},
			{
				"x": 0.6912957144,
				"y": -0.1563271004,
				"z": 2.8594969942,
				"element": "C" 
			},
			{
				"x": 1.3014469271,
				"y": 0.8032075243,
				"z": 2.0627566525,
				"element": "C" 
			},
			{
				"x": -1.0212505471,
				"y": -2.3106406956,
				"z": 0.2754327967,
				"element": "C" 
			},
			{
				"x": -1.1680589766,
				"y": -2.3758684988,
				"z": -1.0062651616,
				"element": "N" 
			},
			{
				"x": -1.9767270812,
				"y": -3.4944530755,
				"z": -1.3265993779,
				"element": "O" 
			},
			{
				"x": -2.3549561009,
				"y": -4.1648897154,
				"z": -0.1773506444,
				"element": "C" 
			},
			{
				"x": -3.0437233428,
				"y": -5.145247949,
				"z": -0.2001799304,
				"element": "O" 
			},
			{
				"x": -1.7373839406,
				"y": -3.4139325803,
				"z": 0.991765344,
				"element": "C" 
			},
			{
				"x": 0.7185202354,
				"y": 1.9764538283,
				"z": -2.0778860651,
				"element": "H" 
			},
			{
				"x": 2.1603548001,
				"y": 0.9656565475,
				"z": -2.1915772697,
				"element": "H" 
			},
			{
				"x": 0.2679090921,
				"y": -0.3296649855,
				"z": -0.9877089805,
				"element": "H" 
			},
			{
				"x": -0.5401066059,
				"y": -1.9195888529,
				"z": 2.9185794665,
				"element": "H" 
			},
			{
				"x": 0.8050637668,
				"y": -0.1147386594,
				"z": 3.9381838001,
				"element": "H" 
			},
			{
				"x": 1.8931613174,
				"y": 1.5979715538,
				"z": 2.5034338103,
				"element": "H" 
			},
			{
				"x": -2.5173567217,
				"y": -3.0620529919,
				"z": 1.6752719157,
				"element": "H" 
			},
			{
				"x": -1.0737256593,
				"y": -4.0727492952,
				"z": 1.5617359636,
				"element": "H" 
			}
		],
		 "valence_orbital": [ 
			{
				"type": "occ",
				"energy": -0.3101,
				"method": "rhf"
			},
			{
				"type": "occ",
				"energy": -0.28862,
				"method": "rhf"
			},
			{
				"type": "occ",
				"energy": -0.28459,
				"method": "rhf"
			},
			{
				"type": "occ",
				"energy": -0.27174,
				"method": "rhf"
			},
			{
				"type": "occ",
				"energy": -0.26068,
				"method": "rhf"
			},
			{
				"type": "unocc",
				"energy": -0.08676,
				"method": "rhf"
			},
			{
				"type": "unocc",
				"energy": -0.0739,
				"method": "rhf"
			},
			{
				"type": "unocc",
				"energy": -0.02568,
				"method": "rhf"
			},
			{
				"type": "unocc",
				"energy": -0.01755,
				"method": "rhf"
			},
			{
				"type": "unocc",
				"energy": 0.00824,
				"method": "rhf"
			}
		],
		"cosmo_sigma_profile": { 
			"-0.025": 0.0,
			"-0.024": 0.0,
			"-0.023": 0.0,
			"-0.022": 0.0,
			"-0.021": 0.0,
			"-0.02": 0.0,
			"-0.019": 0.0,
			"-0.018": 0.0,
			"-0.017": 0.0,
			"-0.016": 0.0,
			"-0.015": 0.0,
			"-0.014": 0.0,
			"-0.013": 0.0,
			"-0.012": 0.0,
			"-0.011": 0.207936141945,
			"-0.01": 12.0670536527,
			"-0.009": 18.6211028261,
			"-0.008": 13.8906125873,
			"-0.007": 13.5135470809,
			"-0.006": 11.983107791,
			"-0.005": 11.6031751704,
			"-0.004": 9.1445644247,
			"-0.003": 9.16146476713,
			"-0.002": 9.68655435617,
			"-0.001": 12.1762171893,
			"0.0": 16.1249416499,
			"0.001": 17.049172213,
			"0.002": 15.7169383943,
			"0.003": 8.76315101009,
			"0.004": 6.88041302217,
			"0.005": 6.64071950076,
			"0.006": 9.18988053021,
			"0.007": 12.8710270107,
			"0.008": 13.5405380068,
			"0.009": 9.67988133422,
			"0.01": 12.431977133,
			"0.011": 9.87394824564,
			"0.012": 0.702604303552,
			"0.013": 0.0,
			"0.014": 0.0,
			"0.015": 0.0,
			"0.016": 0.0,
			"0.017": 0.0,
			"0.018": 0.0,
			"0.019": 0.0,
			"0.02": 0.0,
			"0.021": 0.0,
			"0.022": 0.0,
			"0.023": 0.0,
			"0.024": 0.0,
			"0.025": 0.0
		}
	}
}
