{
	 "smiles": "NNC(=O)C1=CC(=CC=C1)S(=O)(=O)N1CCOCC1", 
	 "Tm": 414.15, 
	 "num_atms": 34, 
	 "gaussian": { 
		 "optdone": 1, 
		 "sigma_profile": "yes", 
		 "theory": "DFT", 
		 "functional": "B3LYP", 
		 "basiset": "6-31G**", 
		 "properties": { 
			 "R2extent": 6279.8232, 
			 "electric_dipole_moment_norm": 4.98765215407, 
			 "electric_quadrupole_moment_norm": 14.1560519069, 
			 "total_energy": -1291.43322285, 
			 "HOMO_LUMO_gap": 0.18931, 
			 "cosmo_polarized_energy": -23.84, 
			 "cosmo_cavitation_energy": 38.2, 
			 "cosmo_dispersion_energy": -27.37, 
			 "cosmo_repulsion_energy": 2.08, 
			 "cosmo_total_nonelectrostatic_energy": 12.91, 
			 "SMD_solvation_energy": 5.59 
		},
		"coords": [
			{
				"x": -1.6376866696,
				"y": -1.0380593966,
				"z": 5.3658263699,
				"element": "N" 
			},
			{
				"x": -1.7604955021,
				"y": -1.1980233402,
				"z": 3.967334402,
				"element": "N" 
			},
			{
				"x": -0.8724576801,
				"y": -0.5696701132,
				"z": 3.1269249598,
				"element": "C" 
			},
			{
				"x": 0.1110302022,
				"y": 0.0262913129,
				"z": 3.5544522204,
				"element": "O" 
			},
			{
				"x": -1.1816624518,
				"y": -0.6577792096,
				"z": 1.6599024326,
				"element": "C" 
			},
			{
				"x": -0.6306440866,
				"y": 0.3261785398,
				"z": 0.830541504,
				"element": "C" 
			},
			{
				"x": -0.8754507674,
				"y": 0.2842538218,
				"z": -0.5412327886,
				"element": "C" 
			},
			{
				"x": -1.6703544411,
				"y": -0.7197585657,
				"z": -1.1041009608,
				"element": "C" 
			},
			{
				"x": -2.2072230691,
				"y": -1.7047800092,
				"z": -0.2752814519,
				"element": "C" 
			},
			{
				"x": -1.9597461425,
				"y": -1.6798416935,
				"z": 1.0980979469,
				"element": "C" 
			},
			{
				"x": -0.1283756008,
				"y": 1.5261941757,
				"z": -1.6145241929,
				"element": "S" 
			},
			{
				"x": 0.0080042464,
				"y": 2.749425482,
				"z": -0.8234109262,
				"element": "O" 
			},
			{
				"x": -0.855610903,
				"y": 1.4790784732,
				"z": -2.8850000104,
				"element": "O" 
			},
			{
				"x": 1.425804394,
				"y": 1.0055878825,
				"z": -1.9411622649,
				"element": "N" 
			},
			{
				"x": 1.647623347,
				"y": -0.0445906407,
				"z": -2.9564871211,
				"element": "C" 
			},
			{
				"x": 2.5503529422,
				"y": -1.1361474257,
				"z": -2.3878047545,
				"element": "C" 
			},
			{
				"x": 3.8102366284,
				"y": -0.6364961331,
				"z": -1.9508678411,
				"element": "O" 
			},
			{
				"x": 3.7865659053,
				"y": 0.7028424018,
				"z": -1.4606405066,
				"element": "C" 
			},
			{
				"x": 2.4363898557,
				"y": 1.0999035434,
				"z": -0.8721951984,
				"element": "C" 
			},
			{
				"x": -1.1750381448,
				"y": -0.1394492315,
				"z": 5.5152262144,
				"element": "H" 
			},
			{
				"x": -0.9747688464,
				"y": -1.7399366526,
				"z": 5.6932573196,
				"element": "H" 
			},
			{
				"x": -2.7129360694,
				"y": -1.3321450696,
				"z": 3.6575155721,
				"element": "H" 
			},
			{
				"x": -0.0393121443,
				"y": 1.1195568799,
				"z": 1.2727003986,
				"element": "H" 
			},
			{
				"x": -1.8752554441,
				"y": -0.7070129762,
				"z": -2.1688669762,
				"element": "H" 
			},
			{
				"x": -2.8188034095,
				"y": -2.4943228973,
				"z": -0.7010408899,
				"element": "H" 
			},
			{
				"x": -2.3554954797,
				"y": -2.4711882413,
				"z": 1.7274780608,
				"element": "H" 
			},
			{
				"x": 0.691933102,
				"y": -0.469149646,
				"z": -3.2725714558,
				"element": "H" 
			},
			{
				"x": 2.1092866588,
				"y": 0.4038436752,
				"z": -3.8441849789,
				"element": "H" 
			},
			{
				"x": 2.0325312904,
				"y": -1.6438269912,
				"z": -1.5589628259,
				"element": "H" 
			},
			{
				"x": 2.7579168796,
				"y": -1.8851351621,
				"z": -3.1592344851,
				"element": "H" 
			},
			{
				"x": 4.5568158564,
				"y": 0.7728082672,
				"z": -0.6860454253,
				"element": "H" 
			},
			{
				"x": 4.0499719271,
				"y": 1.4053222199,
				"z": -2.2653588991,
				"element": "H" 
			},
			{
				"x": 2.1981932753,
				"y": 0.441889623,
				"z": -0.0229114582,
				"element": "H" 
			},
			{
				"x": 2.4715603415,
				"y": 2.1289370968,
				"z": -0.5085719892,
				"element": "H" 
			}
		],
		 "valence_orbital": [ 
			{
				"type": "occ",
				"energy": -0.28347,
				"method": "rhf"
			},
			{
				"type": "occ",
				"energy": -0.27074,
				"method": "rhf"
			},
			{
				"type": "occ",
				"energy": -0.26524,
				"method": "rhf"
			},
			{
				"type": "occ",
				"energy": -0.26258,
				"method": "rhf"
			},
			{
				"type": "occ",
				"energy": -0.25057,
				"method": "rhf"
			},
			{
				"type": "unocc",
				"energy": -0.06126,
				"method": "rhf"
			},
			{
				"type": "unocc",
				"energy": -0.04426,
				"method": "rhf"
			},
			{
				"type": "unocc",
				"energy": 0.02791,
				"method": "rhf"
			},
			{
				"type": "unocc",
				"energy": 0.05257,
				"method": "rhf"
			},
			{
				"type": "unocc",
				"energy": 0.0755,
				"method": "rhf"
			}
		],
		"cosmo_sigma_profile": { 
			"-0.025": 0.0,
			"-0.024": 0.0,
			"-0.023": 0.0,
			"-0.022": 0.0,
			"-0.021": 0.0,
			"-0.02": 0.0,
			"-0.019": 0.0,
			"-0.018": 0.0,
			"-0.017": 0.0,
			"-0.016": 0.0,
			"-0.015": 0.313444479532,
			"-0.014": 1.15491395493,
			"-0.013": 0.641898673789,
			"-0.012": 2.56484974628,
			"-0.011": 2.77693944395,
			"-0.01": 3.44361898825,
			"-0.009": 3.51802885283,
			"-0.008": 4.74143712558,
			"-0.007": 9.95866422071,
			"-0.006": 21.3746581676,
			"-0.005": 30.0616506186,
			"-0.004": 29.134175631,
			"-0.003": 21.8226866752,
			"-0.002": 18.9110355308,
			"-0.001": 14.709773257,
			"0.0": 14.4527160007,
			"0.001": 18.8296135638,
			"0.002": 15.7164234197,
			"0.003": 8.05262808293,
			"0.004": 9.17778442484,
			"0.005": 6.78082862182,
			"0.006": 5.52136337278,
			"0.007": 6.79533228283,
			"0.008": 6.3645319491,
			"0.009": 7.08056077358,
			"0.01": 9.7469670757,
			"0.011": 12.2371078811,
			"0.012": 7.19362079791,
			"0.013": 6.57942813037,
			"0.014": 0.766027860189,
			"0.015": 0.373373849482,
			"0.016": 0.797359829436,
			"0.017": 0.13822725266,
			"0.018": 0.0,
			"0.019": 0.0,
			"0.02": 0.0,
			"0.021": 0.0,
			"0.022": 0.0,
			"0.023": 0.0,
			"0.024": 0.0,
			"0.025": 0.0
		}
	}
}
