{
	 "smiles": "NNC1=NC(=CC=N1)N1CCOCC1", 
	 "Tm": 420.15, 
	 "num_atms": 27, 
	 "gaussian": { 
		 "optdone": 1, 
		 "sigma_profile": "yes", 
		 "theory": "DFT", 
		 "functional": "B3LYP", 
		 "basiset": "6-31G**", 
		 "properties": { 
			 "R2extent": 3604.4161, 
			 "electric_dipole_moment_norm": 2.31531450347, 
			 "electric_quadrupole_moment_norm": 10.8393365369, 
			 "total_energy": -661.633400584, 
			 "HOMO_LUMO_gap": 0.19623, 
			 "cosmo_polarized_energy": -13.32, 
			 "cosmo_cavitation_energy": 29.21, 
			 "cosmo_dispersion_energy": -21.94, 
			 "cosmo_repulsion_energy": 1.74, 
			 "cosmo_total_nonelectrostatic_energy": 9.01, 
			 "SMD_solvation_energy": 2.48 
		},
		"coords": [
			{
				"x": 2.4803686952,
				"y": 0.6007344637,
				"z": -3.2023453303,
				"element": "N" 
			},
			{
				"x": 2.6008556311,
				"y": -0.7003001664,
				"z": -2.6886349731,
				"element": "N" 
			},
			{
				"x": 2.2315803131,
				"y": -1.0435352892,
				"z": -1.4131884959,
				"element": "C" 
			},
			{
				"x": 1.5033628505,
				"y": -0.153631594,
				"z": -0.7262549573,
				"element": "N" 
			},
			{
				"x": 1.1093069586,
				"y": -0.5060914136,
				"z": 0.5128163032,
				"element": "C" 
			},
			{
				"x": 1.4861009753,
				"y": -1.7579857085,
				"z": 1.0523717574,
				"element": "C" 
			},
			{
				"x": 2.2553430449,
				"y": -2.5755072303,
				"z": 0.235295527,
				"element": "C" 
			},
			{
				"x": 2.6482185193,
				"y": -2.2574385236,
				"z": -1.000527811,
				"element": "N" 
			},
			{
				"x": 0.320236153,
				"y": 0.4001304981,
				"z": 1.1886885968,
				"element": "N" 
			},
			{
				"x": 0.2055307594,
				"y": 1.7799656425,
				"z": 0.7090289417,
				"element": "C" 
			},
			{
				"x": -1.1583389682,
				"y": 2.3519344483,
				"z": 1.0822661217,
				"element": "C" 
			},
			{
				"x": -1.3978148762,
				"y": 2.2521792018,
				"z": 2.4808420492,
				"element": "O" 
			},
			{
				"x": -1.3703155778,
				"y": 0.895645142,
				"z": 2.8910310423,
				"element": "C" 
			},
			{
				"x": -0.0188393543,
				"y": 0.2380130838,
				"z": 2.5993506673,
				"element": "C" 
			},
			{
				"x": 1.4958030164,
				"y": 0.7631076113,
				"z": -3.4082616154,
				"element": "H" 
			},
			{
				"x": 2.7175925871,
				"y": 1.262045345,
				"z": -2.4618813525,
				"element": "H" 
			},
			{
				"x": 3.3195767451,
				"y": -1.2716232456,
				"z": -3.1078112666,
				"element": "H" 
			},
			{
				"x": 1.2232350408,
				"y": -2.0806485315,
				"z": 2.0494637648,
				"element": "H" 
			},
			{
				"x": 2.5827297803,
				"y": -3.547440055,
				"z": 0.6033119433,
				"element": "H" 
			},
			{
				"x": 0.3480817074,
				"y": 1.7815915374,
				"z": -0.370802388,
				"element": "H" 
			},
			{
				"x": 0.9949425973,
				"y": 2.4018734479,
				"z": 1.1610378628,
				"element": "H" 
			},
			{
				"x": -1.2044062439,
				"y": 3.4155739686,
				"z": 0.8315610394,
				"element": "H" 
			},
			{
				"x": -1.9489793894,
				"y": 1.8236952262,
				"z": 0.5245664279,
				"element": "H" 
			},
			{
				"x": -1.5668785735,
				"y": 0.8855151348,
				"z": 3.9670944648,
				"element": "H" 
			},
			{
				"x": -2.1670997501,
				"y": 0.3278846282,
				"z": 2.3823868322,
				"element": "H" 
			},
			{
				"x": -0.0916554633,
				"y": -0.821331405,
				"z": 2.8495059709,
				"element": "H" 
			},
			{
				"x": 0.7561628217,
				"y": 0.688843783,
				"z": 3.2399888775,
				"element": "H" 
			}
		],
		 "valence_orbital": [ 
			{
				"type": "occ",
				"energy": -0.26946,
				"method": "rhf"
			},
			{
				"type": "occ",
				"energy": -0.26784,
				"method": "rhf"
			},
			{
				"type": "occ",
				"energy": -0.24122,
				"method": "rhf"
			},
			{
				"type": "occ",
				"energy": -0.23254,
				"method": "rhf"
			},
			{
				"type": "occ",
				"energy": -0.20582,
				"method": "rhf"
			},
			{
				"type": "unocc",
				"energy": -0.00959,
				"method": "rhf"
			},
			{
				"type": "unocc",
				"energy": 0.01445,
				"method": "rhf"
			},
			{
				"type": "unocc",
				"energy": 0.08186,
				"method": "rhf"
			},
			{
				"type": "unocc",
				"energy": 0.09406,
				"method": "rhf"
			},
			{
				"type": "unocc",
				"energy": 0.10546,
				"method": "rhf"
			}
		],
		"cosmo_sigma_profile": { 
			"-0.025": 0.0,
			"-0.024": 0.0,
			"-0.023": 0.0,
			"-0.022": 0.0,
			"-0.021": 0.0,
			"-0.02": 0.0,
			"-0.019": 0.0,
			"-0.018": 0.0,
			"-0.017": 0.0,
			"-0.016": 0.0,
			"-0.015": 0.0,
			"-0.014": 0.0,
			"-0.013": 0.46131824153,
			"-0.012": 0.920542587935,
			"-0.011": 1.37272177152,
			"-0.01": 2.00021228989,
			"-0.009": 3.74964214686,
			"-0.008": 4.00873474015,
			"-0.007": 5.09928714646,
			"-0.006": 9.57324025127,
			"-0.005": 15.7115588315,
			"-0.004": 28.9510283248,
			"-0.003": 24.1611057717,
			"-0.002": 16.3815450258,
			"-0.001": 12.0880771056,
			"0.0": 9.99779907742,
			"0.001": 11.4401345671,
			"0.002": 13.3388829853,
			"0.003": 14.2668420717,
			"0.004": 11.765147373,
			"0.005": 8.79815443566,
			"0.006": 6.67192864994,
			"0.007": 4.37498388672,
			"0.008": 3.49923123587,
			"0.009": 3.66519881466,
			"0.01": 3.12724137626,
			"0.011": 2.6017594773,
			"0.012": 2.79754205047,
			"0.013": 3.84050699004,
			"0.014": 1.71507346931,
			"0.015": 1.51729185008,
			"0.016": 1.14183835115,
			"0.017": 0.587776370063,
			"0.018": 0.0250548010495,
			"0.019": 0.0,
			"0.02": 0.0,
			"0.021": 0.0,
			"0.022": 0.0,
			"0.023": 0.0,
			"0.024": 0.0,
			"0.025": 0.0
		}
	}
}
