{
	 "smiles": "CCOC(=O)C(=CC1=CC=NC=C1)C#N", 
	 "Tm": 375.15, 
	 "num_atms": 25, 
	 "gaussian": { 
		 "optdone": 1, 
		 "sigma_profile": "yes", 
		 "theory": "DFT", 
		 "functional": "B3LYP", 
		 "basiset": "6-31G**", 
		 "properties": { 
			 "R2extent": 4584.169, 
			 "electric_dipole_moment_norm": 5.60435181176, 
			 "electric_quadrupole_moment_norm": 13.885521337, 
			 "total_energy": -685.119666468, 
			 "HOMO_LUMO_gap": 0.16292, 
			 "cosmo_polarized_energy": -14.72, 
			 "cosmo_cavitation_energy": 31.16, 
			 "cosmo_dispersion_energy": -21.84, 
			 "cosmo_repulsion_energy": 1.72, 
			 "cosmo_total_nonelectrostatic_energy": 11.03, 
			 "SMD_solvation_energy": 6.38 
		},
		"coords": [
			{
				"x": 3.7861243155,
				"y": 2.3512524798,
				"z": -0.580402468,
				"element": "C" 
			},
			{
				"x": 3.6184269738,
				"y": 0.8525801856,
				"z": -0.7732975129,
				"element": "C" 
			},
			{
				"x": 2.3228714156,
				"y": 0.400641941,
				"z": -0.2965554723,
				"element": "O" 
			},
			{
				"x": 2.2350271287,
				"y": 0.120622415,
				"z": 1.0186120759,
				"element": "C" 
			},
			{
				"x": 3.1515512536,
				"y": 0.2131498242,
				"z": 1.8075306,
				"element": "O" 
			},
			{
				"x": 0.8601069599,
				"y": -0.3323042323,
				"z": 1.4150163393,
				"element": "C" 
			},
			{
				"x": -0.1493284967,
				"y": -0.4264832664,
				"z": 0.510642419,
				"element": "C" 
			},
			{
				"x": -1.5443477041,
				"y": -0.835801391,
				"z": 0.6611101497,
				"element": "C" 
			},
			{
				"x": -2.1610241657,
				"y": -1.2430689437,
				"z": 1.8590509335,
				"element": "C" 
			},
			{
				"x": -3.5066916693,
				"y": -1.6034979272,
				"z": 1.8315045757,
				"element": "C" 
			},
			{
				"x": -4.2705652621,
				"y": -1.5910184937,
				"z": 0.73020881,
				"element": "N" 
			},
			{
				"x": -3.6840930754,
				"y": -1.2038171463,
				"z": -0.4090258382,
				"element": "C" 
			},
			{
				"x": -2.3475689237,
				"y": -0.8231296054,
				"z": -0.4949963484,
				"element": "C" 
			},
			{
				"x": 0.733731051,
				"y": -0.642966755,
				"z": 2.8067382415,
				"element": "C" 
			},
			{
				"x": 0.6204639163,
				"y": -0.8976028884,
				"z": 3.9362322063,
				"element": "N" 
			},
			{
				"x": 4.7373929417,
				"y": 2.6732987465,
				"z": -1.0165913749,
				"element": "H" 
			},
			{
				"x": 3.7943816121,
				"y": 2.6050450563,
				"z": 0.4822286513,
				"element": "H" 
			},
			{
				"x": 2.9793024436,
				"y": 2.9021081423,
				"z": -1.0725371384,
				"element": "H" 
			},
			{
				"x": 4.3959279291,
				"y": 0.29449115,
				"z": -0.2472536867,
				"element": "H" 
			},
			{
				"x": 3.6231767665,
				"y": 0.5776665794,
				"z": -1.8303083485,
				"element": "H" 
			},
			{
				"x": 0.1293928513,
				"y": -0.1483786755,
				"z": -0.5015713033,
				"element": "H" 
			},
			{
				"x": -1.6175766439,
				"y": -1.2823166867,
				"z": 2.7937665724,
				"element": "H" 
			},
			{
				"x": -3.9973247627,
				"y": -1.9205166082,
				"z": 2.7494275657,
				"element": "H" 
			},
			{
				"x": -4.3129605913,
				"y": -1.1973444852,
				"z": -1.2971925521,
				"element": "H" 
			},
			{
				"x": -1.9291962638,
				"y": -0.5186094151,
				"z": -1.4500370966,
				"element": "H" 
			}
		],
		 "valence_orbital": [ 
			{
				"type": "occ",
				"energy": -0.31669,
				"method": "rhf"
			},
			{
				"type": "occ",
				"energy": -0.29385,
				"method": "rhf"
			},
			{
				"type": "occ",
				"energy": -0.28022,
				"method": "rhf"
			},
			{
				"type": "occ",
				"energy": -0.27179,
				"method": "rhf"
			},
			{
				"type": "occ",
				"energy": -0.27044,
				"method": "rhf"
			},
			{
				"type": "unocc",
				"energy": -0.10752,
				"method": "rhf"
			},
			{
				"type": "unocc",
				"energy": -0.02799,
				"method": "rhf"
			},
			{
				"type": "unocc",
				"energy": -0.00813,
				"method": "rhf"
			},
			{
				"type": "unocc",
				"energy": 0.01338,
				"method": "rhf"
			},
			{
				"type": "unocc",
				"energy": 0.01818,
				"method": "rhf"
			}
		],
		"cosmo_sigma_profile": { 
			"-0.025": 0.0,
			"-0.024": 0.0,
			"-0.023": 0.0,
			"-0.022": 0.0,
			"-0.021": 0.0,
			"-0.02": 0.0,
			"-0.019": 0.0,
			"-0.018": 0.0,
			"-0.017": 0.0,
			"-0.016": 0.0,
			"-0.015": 0.0,
			"-0.014": 0.0,
			"-0.013": 0.0,
			"-0.012": 0.0,
			"-0.011": 0.290028621176,
			"-0.01": 1.22313710002,
			"-0.009": 2.1451477296,
			"-0.008": 3.11283601358,
			"-0.007": 7.6671673708,
			"-0.006": 11.6082373856,
			"-0.005": 15.2670476464,
			"-0.004": 23.1381720408,
			"-0.003": 28.9918548817,
			"-0.002": 25.1060008463,
			"-0.001": 20.2558072322,
			"0.0": 24.4516893739,
			"0.001": 18.0650077897,
			"0.002": 7.29374110446,
			"0.003": 7.67328899958,
			"0.004": 6.08967717523,
			"0.005": 5.35499158803,
			"0.006": 5.09370982923,
			"0.007": 6.50752811846,
			"0.008": 5.38522022125,
			"0.009": 5.66687283392,
			"0.01": 6.36126103299,
			"0.011": 7.89425754309,
			"0.012": 3.05852420267,
			"0.013": 0.711988908436,
			"0.014": 1.06533072936,
			"0.015": 0.899079117306,
			"0.016": 0.352562864109,
			"0.017": 0.0,
			"0.018": 0.0,
			"0.019": 0.0,
			"0.02": 0.0,
			"0.021": 0.0,
			"0.022": 0.0,
			"0.023": 0.0,
			"0.024": 0.0,
			"0.025": 0.0
		}
	}
}
