{
	 "smiles": "ClCC(=O)NC1=CN=CC=C1", 
	 "Tm": 453.15, 
	 "num_atms": 18, 
	 "gaussian": { 
		 "optdone": 1, 
		 "sigma_profile": "yes", 
		 "theory": "DFT", 
		 "functional": "B3LYP", 
		 "basiset": "6-31G**", 
		 "properties": { 
			 "R2extent": 2311.8889, 
			 "electric_dipole_moment_norm": 4.43493289464, 
			 "electric_quadrupole_moment_norm": 11.4902598987, 
			 "total_energy": -915.880886833, 
			 "HOMO_LUMO_gap": 0.20138, 
			 "cosmo_polarized_energy": -14.81, 
			 "cosmo_cavitation_energy": 24.17, 
			 "cosmo_dispersion_energy": -17.82, 
			 "cosmo_repulsion_energy": 1.44, 
			 "cosmo_total_nonelectrostatic_energy": 7.79, 
			 "SMD_solvation_energy": 3.2 
		},
		"coords": [
			{
				"x": -2.7174984886,
				"y": -0.6822984133,
				"z": 0.6476129114,
				"element": "Cl" 
			},
			{
				"x": -1.3616904878,
				"y": -1.2628962279,
				"z": -0.4048922303,
				"element": "C" 
			},
			{
				"x": -1.1382883332,
				"y": -0.3136760863,
				"z": -1.5786495436,
				"element": "C" 
			},
			{
				"x": -1.8288475506,
				"y": -0.3815493525,
				"z": -2.5813215335,
				"element": "O" 
			},
			{
				"x": -0.1026010536,
				"y": 0.5974316315,
				"z": -1.501748006,
				"element": "N" 
			},
			{
				"x": 0.8552529537,
				"y": 0.8597218741,
				"z": -0.4948910173,
				"element": "C" 
			},
			{
				"x": 0.5168784784,
				"y": 0.9848813598,
				"z": 0.8620939201,
				"element": "C" 
			},
			{
				"x": 1.4123969191,
				"y": 1.2405228339,
				"z": 1.8205770999,
				"element": "N" 
			},
			{
				"x": 2.6873372199,
				"y": 1.4214469045,
				"z": 1.4598327902,
				"element": "C" 
			},
			{
				"x": 3.1221957514,
				"y": 1.356020003,
				"z": 0.1343282531,
				"element": "C" 
			},
			{
				"x": 2.1931392263,
				"y": 1.0624762148,
				"z": -0.8578809549,
				"element": "C" 
			},
			{
				"x": -1.677979518,
				"y": -2.218657869,
				"z": -0.8194465518,
				"element": "H" 
			},
			{
				"x": -0.4875372243,
				"y": -1.3899902711,
				"z": 0.2324045253,
				"element": "H" 
			},
			{
				"x": 0.0165336579,
				"y": 1.0880017195,
				"z": -2.3808485024,
				"element": "H" 
			},
			{
				"x": -0.5181482878,
				"y": 0.8851754805,
				"z": 1.1792034478,
				"element": "H" 
			},
			{
				"x": 3.389534987,
				"y": 1.637945857,
				"z": 2.2621733919,
				"element": "H" 
			},
			{
				"x": 4.1662807107,
				"y": 1.5205835988,
				"z": -0.1123181764,
				"element": "H" 
			},
			{
				"x": 2.4916410395,
				"y": 0.9828607428,
				"z": -1.8998298233,
				"element": "H" 
			}
		],
		 "valence_orbital": [ 
			{
				"type": "occ",
				"energy": -0.30935,
				"method": "rhf"
			},
			{
				"type": "occ",
				"energy": -0.29563,
				"method": "rhf"
			},
			{
				"type": "occ",
				"energy": -0.27161,
				"method": "rhf"
			},
			{
				"type": "occ",
				"energy": -0.26972,
				"method": "rhf"
			},
			{
				"type": "occ",
				"energy": -0.24834,
				"method": "rhf"
			},
			{
				"type": "unocc",
				"energy": -0.04696,
				"method": "rhf"
			},
			{
				"type": "unocc",
				"energy": -0.03716,
				"method": "rhf"
			},
			{
				"type": "unocc",
				"energy": -0.01635,
				"method": "rhf"
			},
			{
				"type": "unocc",
				"energy": 0.05141,
				"method": "rhf"
			},
			{
				"type": "unocc",
				"energy": 0.07725,
				"method": "rhf"
			}
		],
		"cosmo_sigma_profile": { 
			"-0.025": 0.0,
			"-0.024": 0.0,
			"-0.023": 0.0,
			"-0.022": 0.0,
			"-0.021": 0.0,
			"-0.02": 0.0,
			"-0.019": 0.0,
			"-0.018": 0.0,
			"-0.017": 0.0,
			"-0.016": 0.0720627224914,
			"-0.015": 0.914273543294,
			"-0.014": 1.45935015781,
			"-0.013": 0.756940067399,
			"-0.012": 1.43503887134,
			"-0.011": 0.979735751807,
			"-0.01": 0.959528634316,
			"-0.009": 3.42553490116,
			"-0.008": 7.70399454196,
			"-0.007": 11.2870955452,
			"-0.006": 12.861895945,
			"-0.005": 10.1916937831,
			"-0.004": 8.84450219748,
			"-0.003": 9.16949579652,
			"-0.002": 11.8364234663,
			"-0.001": 11.6291273026,
			"0.0": 12.7780795549,
			"0.001": 15.2499946371,
			"0.002": 15.0291474894,
			"0.003": 8.56087775228,
			"0.004": 9.26716379285,
			"0.005": 10.5075589037,
			"0.006": 4.64903297432,
			"0.007": 2.59194584731,
			"0.008": 2.54178068769,
			"0.009": 2.56402105146,
			"0.01": 2.37471071092,
			"0.011": 3.05951323214,
			"0.012": 6.37609391592,
			"0.013": 3.96904436012,
			"0.014": 1.07657367441,
			"0.015": 0.824357529256,
			"0.016": 0.859229484347,
			"0.017": 0.0470351211017,
			"0.018": 0.0,
			"0.019": 0.0,
			"0.02": 0.0,
			"0.021": 0.0,
			"0.022": 0.0,
			"0.023": 0.0,
			"0.024": 0.0,
			"0.025": 0.0
		}
	}
}
