{
	 "smiles": "ClC1=CC2=C(C=C1)N=C1CCCN1C2=O", 
	 "Tm": 454.15, 
	 "num_atms": 24, 
	 "gaussian": { 
		 "optdone": 1, 
		 "sigma_profile": "yes", 
		 "theory": "DFT", 
		 "functional": "B3LYP", 
		 "basiset": "6-31G**", 
		 "properties": { 
			 "R2extent": 4456.0879, 
			 "electric_dipole_moment_norm": 4.56856997976, 
			 "electric_quadrupole_moment_norm": 14.4916401542, 
			 "total_energy": -1069.55535245, 
			 "HOMO_LUMO_gap": 0.17994, 
			 "cosmo_polarized_energy": -11.54, 
			 "cosmo_cavitation_energy": 29.22, 
			 "cosmo_dispersion_energy": -22.19, 
			 "cosmo_repulsion_energy": 1.72, 
			 "cosmo_total_nonelectrostatic_energy": 8.75, 
			 "SMD_solvation_energy": 2.78 
		},
		"coords": [
			{
				"x": 2.0598601737,
				"y": 4.741007291,
				"z": 0.839188238,
				"element": "Cl" 
			},
			{
				"x": 1.2064620881,
				"y": 3.2054078892,
				"z": 0.86560613,
				"element": "C" 
			},
			{
				"x": 1.8030938424,
				"y": 2.0768719507,
				"z": 0.3313834308,
				"element": "C" 
			},
			{
				"x": 1.1065429192,
				"y": 0.8589082417,
				"z": 0.3611687511,
				"element": "C" 
			},
			{
				"x": -0.1896374619,
				"y": 0.7756249785,
				"z": 0.9277138815,
				"element": "C" 
			},
			{
				"x": -0.7648212707,
				"y": 1.9464437967,
				"z": 1.4617859793,
				"element": "C" 
			},
			{
				"x": -0.0786086434,
				"y": 3.1488395231,
				"z": 1.4330248839,
				"element": "C" 
			},
			{
				"x": -0.9157014195,
				"y": -0.4085790521,
				"z": 0.9796285613,
				"element": "N" 
			},
			{
				"x": -0.3385889959,
				"y": -1.4505154517,
				"z": 0.4800060155,
				"element": "C" 
			},
			{
				"x": -0.9241131103,
				"y": -2.8396513188,
				"z": 0.3918373489,
				"element": "C" 
			},
			{
				"x": 0.3084039047,
				"y": -3.7329935244,
				"z": 0.1334720105,
				"element": "C" 
			},
			{
				"x": 1.3136880514,
				"y": -2.8004126323,
				"z": -0.5725667111,
				"element": "C" 
			},
			{
				"x": 0.9214409131,
				"y": -1.4725524534,
				"z": -0.0834011568,
				"element": "N" 
			},
			{
				"x": 1.7358433576,
				"y": -0.3437478233,
				"z": -0.2067899399,
				"element": "C" 
			},
			{
				"x": 2.8401942603,
				"y": -0.4086096441,
				"z": -0.7329723854,
				"element": "O" 
			},
			{
				"x": 2.7926666045,
				"y": 2.105413334,
				"z": -0.109930446,
				"element": "H" 
			},
			{
				"x": -1.7573628993,
				"y": 1.8783384117,
				"z": 1.8942795747,
				"element": "H" 
			},
			{
				"x": -0.5227829293,
				"y": 4.0488981286,
				"z": 1.8440382309,
				"element": "H" 
			},
			{
				"x": -1.6299430778,
				"y": -2.8734004258,
				"z": -0.4479986496,
				"element": "H" 
			},
			{
				"x": -1.4817520913,
				"y": -3.0928116674,
				"z": 1.2955836833,
				"element": "H" 
			},
			{
				"x": 0.7281053601,
				"y": -4.0723526147,
				"z": 1.0856477893,
				"element": "H" 
			},
			{
				"x": 0.0789036518,
				"y": -4.6172629949,
				"z": -0.4644233034,
				"element": "H" 
			},
			{
				"x": 2.3586548189,
				"y": -2.9907980148,
				"z": -0.3218950104,
				"element": "H" 
			},
			{
				"x": 1.2209519535,
				"y": -2.8302659274,
				"z": -1.6645869065,
				"element": "H" 
			}
		],
		 "valence_orbital": [ 
			{
				"type": "occ",
				"energy": -0.28069,
				"method": "rhf"
			},
			{
				"type": "occ",
				"energy": -0.27847,
				"method": "rhf"
			},
			{
				"type": "occ",
				"energy": -0.26858,
				"method": "rhf"
			},
			{
				"type": "occ",
				"energy": -0.26597,
				"method": "rhf"
			},
			{
				"type": "occ",
				"energy": -0.22712,
				"method": "rhf"
			},
			{
				"type": "unocc",
				"energy": -0.04718,
				"method": "rhf"
			},
			{
				"type": "unocc",
				"energy": -0.03881,
				"method": "rhf"
			},
			{
				"type": "unocc",
				"energy": 0.01948,
				"method": "rhf"
			},
			{
				"type": "unocc",
				"energy": 0.03062,
				"method": "rhf"
			},
			{
				"type": "unocc",
				"energy": 0.06579,
				"method": "rhf"
			}
		],
		"cosmo_sigma_profile": { 
			"-0.025": 0.0,
			"-0.024": 0.0,
			"-0.023": 0.0,
			"-0.022": 0.0,
			"-0.021": 0.0,
			"-0.02": 0.0,
			"-0.019": 0.0,
			"-0.018": 0.0,
			"-0.017": 0.0,
			"-0.016": 0.0,
			"-0.015": 0.0,
			"-0.014": 0.0,
			"-0.013": 0.0,
			"-0.012": 0.0,
			"-0.011": 0.0,
			"-0.01": 0.0,
			"-0.009": 0.0,
			"-0.008": 1.05894731159,
			"-0.007": 4.69063555114,
			"-0.006": 15.7796118062,
			"-0.005": 23.5628048267,
			"-0.004": 25.0130369138,
			"-0.003": 19.8394591093,
			"-0.002": 16.4178565404,
			"-0.001": 14.5717990068,
			"0.0": 13.6079894609,
			"0.001": 22.2573336934,
			"0.002": 20.0466324644,
			"0.003": 12.3300756556,
			"0.004": 12.7724898254,
			"0.005": 7.26928054145,
			"0.006": 3.09806687965,
			"0.007": 2.05013557482,
			"0.008": 2.81961446602,
			"0.009": 2.81694138606,
			"0.01": 2.21311134166,
			"0.011": 3.08296388706,
			"0.012": 4.12443735255,
			"0.013": 4.99528121259,
			"0.014": 0.991004286275,
			"0.015": 0.517678978301,
			"0.016": 0.0580826518668,
			"0.017": 0.0,
			"0.018": 0.0,
			"0.019": 0.0,
			"0.02": 0.0,
			"0.021": 0.0,
			"0.022": 0.0,
			"0.023": 0.0,
			"0.024": 0.0,
			"0.025": 0.0
		}
	}
}
