{
	 "smiles": "ClCCN(CCCl)C1=CC=C(C=O)C=C1", 
	 "Tm": 359.65, 
	 "num_atms": 28, 
	 "gaussian": { 
		 "optdone": 1, 
		 "sigma_profile": "yes", 
		 "theory": "DFT", 
		 "functional": "B3LYP", 
		 "basiset": "6-31G**", 
		 "properties": { 
			 "R2extent": 5475.4323, 
			 "electric_dipole_moment_norm": 5.23705197606, 
			 "electric_quadrupole_moment_norm": 26.644034237, 
			 "total_energy": -1477.36044579, 
			 "HOMO_LUMO_gap": 0.16621, 
			 "cosmo_polarized_energy": -17.17, 
			 "cosmo_cavitation_energy": 34.71, 
			 "cosmo_dispersion_energy": -24.24, 
			 "cosmo_repulsion_energy": 1.91, 
			 "cosmo_total_nonelectrostatic_energy": 12.38, 
			 "SMD_solvation_energy": 5.85 
		},
		"coords": [
			{
				"x": 0.812129115,
				"y": 1.7995496748,
				"z": 3.8392195618,
				"element": "Cl" 
			},
			{
				"x": 0.7190995667,
				"y": 0.5300620169,
				"z": 2.5473933339,
				"element": "C" 
			},
			{
				"x": 1.6306490446,
				"y": 0.9028440586,
				"z": 1.3732387682,
				"element": "C" 
			},
			{
				"x": 1.5705055342,
				"y": -0.0878511702,
				"z": 0.3049499094,
				"element": "N" 
			},
			{
				"x": 2.7920071629,
				"y": -0.8398610602,
				"z": 0.0567112765,
				"element": "C" 
			},
			{
				"x": 3.1376801382,
				"y": -1.9040966859,
				"z": 1.0987033791,
				"element": "C" 
			},
			{
				"x": 1.9172716574,
				"y": -3.2398379866,
				"z": 1.1814437556,
				"element": "Cl" 
			},
			{
				"x": 0.4749540882,
				"y": -0.1403537489,
				"z": -0.5586196468,
				"element": "C" 
			},
			{
				"x": 0.3023303092,
				"y": -1.2127546102,
				"z": -1.4709404993,
				"element": "C" 
			},
			{
				"x": -0.7724246143,
				"y": -1.2410350255,
				"z": -2.341285417,
				"element": "C" 
			},
			{
				"x": -1.7371383072,
				"y": -0.219898529,
				"z": -2.3388699884,
				"element": "C" 
			},
			{
				"x": -2.8799100628,
				"y": -0.2561345319,
				"z": -3.2631083576,
				"element": "C" 
			},
			{
				"x": -3.0816071942,
				"y": -1.1280430673,
				"z": -4.0912674738,
				"element": "O" 
			},
			{
				"x": -1.5895195479,
				"y": 0.8266817202,
				"z": -1.4212445554,
				"element": "C" 
			},
			{
				"x": -0.5131751094,
				"y": 0.8727678375,
				"z": -0.5447387906,
				"element": "C" 
			},
			{
				"x": -0.3247354293,
				"y": 0.4617906752,
				"z": 2.2415686516,
				"element": "H" 
			},
			{
				"x": 1.0172407796,
				"y": -0.4160108142,
				"z": 3.0001502629,
				"element": "H" 
			},
			{
				"x": 1.3772464462,
				"y": 1.9048672855,
				"z": 1.0082688796,
				"element": "H" 
			},
			{
				"x": 2.6620387245,
				"y": 0.960805196,
				"z": 1.730451166,
				"element": "H" 
			},
			{
				"x": 2.7483310023,
				"y": -1.2918384218,
				"z": -0.9337130412,
				"element": "H" 
			},
			{
				"x": 3.6439930166,
				"y": -0.1418474366,
				"z": 0.03971628,
				"element": "H" 
			},
			{
				"x": 4.0970465032,
				"y": -2.3648118545,
				"z": 0.8538594382,
				"element": "H" 
			},
			{
				"x": 3.2006619211,
				"y": -1.4811592433,
				"z": 2.1031259224,
				"element": "H" 
			},
			{
				"x": 0.9906115337,
				"y": -2.0483167037,
				"z": -1.4674402527,
				"element": "H" 
			},
			{
				"x": -0.8983836625,
				"y": -2.0675749103,
				"z": -3.033853205,
				"element": "H" 
			},
			{
				"x": -3.5836315849,
				"y": 0.601346708,
				"z": -3.1582355594,
				"element": "H" 
			},
			{
				"x": -2.328754176,
				"y": 1.6245029892,
				"z": -1.3950955396,
				"element": "H" 
			},
			{
				"x": -0.440616855,
				"y": 1.7084076382,
				"z": 0.1399117416,
				"element": "H" 
			}
		],
		 "valence_orbital": [ 
			{
				"type": "occ",
				"energy": -0.30781,
				"method": "rhf"
			},
			{
				"type": "occ",
				"energy": -0.29972,
				"method": "rhf"
			},
			{
				"type": "occ",
				"energy": -0.26455,
				"method": "rhf"
			},
			{
				"type": "occ",
				"energy": -0.24384,
				"method": "rhf"
			},
			{
				"type": "occ",
				"energy": -0.21636,
				"method": "rhf"
			},
			{
				"type": "unocc",
				"energy": -0.05015,
				"method": "rhf"
			},
			{
				"type": "unocc",
				"energy": -0.01455,
				"method": "rhf"
			},
			{
				"type": "unocc",
				"energy": 0.01023,
				"method": "rhf"
			},
			{
				"type": "unocc",
				"energy": 0.01381,
				"method": "rhf"
			},
			{
				"type": "unocc",
				"energy": 0.04873,
				"method": "rhf"
			}
		],
		"cosmo_sigma_profile": { 
			"-0.025": 0.0,
			"-0.024": 0.0,
			"-0.023": 0.0,
			"-0.022": 0.0,
			"-0.021": 0.0,
			"-0.02": 0.0,
			"-0.019": 0.0,
			"-0.018": 0.0,
			"-0.017": 0.0,
			"-0.016": 0.0,
			"-0.015": 0.0,
			"-0.014": 0.0,
			"-0.013": 0.0,
			"-0.012": 0.0,
			"-0.011": 0.0,
			"-0.01": 0.0180368055232,
			"-0.009": 1.4720169301,
			"-0.008": 8.27554020037,
			"-0.007": 18.147489901,
			"-0.006": 22.3806480537,
			"-0.005": 22.9420484272,
			"-0.004": 18.926958888,
			"-0.003": 17.7937959941,
			"-0.002": 13.4632659857,
			"-0.001": 11.6609626696,
			"0.0": 14.4494264994,
			"0.001": 14.647170152,
			"0.002": 15.2870899261,
			"0.003": 19.067514152,
			"0.004": 21.1210513618,
			"0.005": 18.4664363724,
			"0.006": 18.6965611704,
			"0.007": 6.5779108985,
			"0.008": 1.4976730479,
			"0.009": 1.6170753022,
			"0.01": 2.20027536851,
			"0.011": 2.51004366329,
			"0.012": 4.65513592446,
			"0.013": 3.05127597931,
			"0.014": 0.709130923213,
			"0.015": 0.0,
			"0.016": 0.0,
			"0.017": 0.0,
			"0.018": 0.0,
			"0.019": 0.0,
			"0.02": 0.0,
			"0.021": 0.0,
			"0.022": 0.0,
			"0.023": 0.0,
			"0.024": 0.0,
			"0.025": 0.0
		}
	}
}
