{
	 "smiles": "CCN[C@H]1CN(CCCOC)S(=O)(=O)C2=C1C=C(S2)S(N)(=O)=O", 
	 "Tm": 404.15, 
	 "num_atms": 44, 
	 "gaussian": { 
		 "optdone": 1, 
		 "sigma_profile": "yes", 
		 "theory": "DFT", 
		 "functional": "B3LYP", 
		 "basiset": "6-31G**", 
		 "properties": { 
			 "R2extent": 10994.7055, 
			 "electric_dipole_moment_norm": 5.47458824114, 
			 "electric_quadrupole_moment_norm": 30.0366251821, 
			 "total_energy": -2204.67287678, 
			 "HOMO_LUMO_gap": 0.16549, 
			 "cosmo_polarized_energy": -30.06, 
			 "cosmo_cavitation_energy": 49.6, 
			 "cosmo_dispersion_energy": -34.33, 
			 "cosmo_repulsion_energy": 2.54, 
			 "cosmo_total_nonelectrostatic_energy": 17.81, 
			 "SMD_solvation_energy": 5.12 
		},
		"coords": [
			{
				"x": 1.3552115061,
				"y": -3.7121232486,
				"z": -1.181675121,
				"element": "C" 
			},
			{
				"x": 0.9337763512,
				"y": -2.899285052,
				"z": 0.0438180999,
				"element": "C" 
			},
			{
				"x": -0.3534727957,
				"y": -2.2259675198,
				"z": -0.1445826023,
				"element": "N" 
			},
			{
				"x": -0.4124120361,
				"y": -1.0980061089,
				"z": -1.0789701892,
				"element": "C" 
			},
			{
				"x": -1.8735748622,
				"y": -0.6475632823,
				"z": -1.1940887261,
				"element": "C" 
			},
			{
				"x": -2.3429308794,
				"y": -0.0651013978,
				"z": 0.0929427669,
				"element": "N" 
			},
			{
				"x": -3.8291430942,
				"y": -0.1283617289,
				"z": 0.2474162249,
				"element": "C" 
			},
			{
				"x": -4.3426090853,
				"y": 0.1072907538,
				"z": 1.6708679633,
				"element": "C" 
			},
			{
				"x": -3.7309417567,
				"y": -0.843119903,
				"z": 2.7071317489,
				"element": "C" 
			},
			{
				"x": -4.3612682127,
				"y": -0.7510238364,
				"z": 3.9735378693,
				"element": "O" 
			},
			{
				"x": -3.9359809354,
				"y": 0.352860401,
				"z": 4.7507849975,
				"element": "C" 
			},
			{
				"x": -1.7418401785,
				"y": 1.527765287,
				"z": 0.2992874416,
				"element": "S" 
			},
			{
				"x": -2.2907204074,
				"y": 2.431009328,
				"z": -0.7204822317,
				"element": "O" 
			},
			{
				"x": -1.8525911799,
				"y": 1.9028539916,
				"z": 1.7110499206,
				"element": "O" 
			},
			{
				"x": -0.027595233,
				"y": 1.205414145,
				"z": -0.0634064473,
				"element": "C" 
			},
			{
				"x": 0.4627646936,
				"y": 0.0895932036,
				"z": -0.702963051,
				"element": "C" 
			},
			{
				"x": 1.871559767,
				"y": 0.2021107316,
				"z": -0.9108999819,
				"element": "C" 
			},
			{
				"x": 2.3850291239,
				"y": 1.378453701,
				"z": -0.4284000367,
				"element": "C" 
			},
			{
				"x": 1.1779822107,
				"y": 2.4071335097,
				"z": 0.283345566,
				"element": "S" 
			},
			{
				"x": 4.1055193368,
				"y": 1.853940927,
				"z": -0.4808315738,
				"element": "S" 
			},
			{
				"x": 4.7724167663,
				"y": 1.4476273703,
				"z": 0.9963557673,
				"element": "N" 
			},
			{
				"x": 4.7323980219,
				"y": 0.9765688614,
				"z": -1.4632901431,
				"element": "O" 
			},
			{
				"x": 4.1406406047,
				"y": 3.3107039318,
				"z": -0.5452850979,
				"element": "O" 
			},
			{
				"x": 0.5661529719,
				"y": -4.415827911,
				"z": -1.4621790425,
				"element": "H" 
			},
			{
				"x": 2.2674660763,
				"y": -4.2774375908,
				"z": -0.9670025637,
				"element": "H" 
			},
			{
				"x": 1.5651694095,
				"y": -3.0778169327,
				"z": -2.0499655697,
				"element": "H" 
			},
			{
				"x": 1.7491183093,
				"y": -2.2098343529,
				"z": 0.3269701378,
				"element": "H" 
			},
			{
				"x": 0.8029688853,
				"y": -3.5803550457,
				"z": 0.8918915711,
				"element": "H" 
			},
			{
				"x": -0.7210287858,
				"y": -1.9114711825,
				"z": 0.7496254283,
				"element": "H" 
			},
			{
				"x": -0.1004411562,
				"y": -1.4566212446,
				"z": -2.066520171,
				"element": "H" 
			},
			{
				"x": -2.0101903479,
				"y": 0.0512571665,
				"z": -2.0308534589,
				"element": "H" 
			},
			{
				"x": -2.4844608799,
				"y": -1.5327461016,
				"z": -1.3786860479,
				"element": "H" 
			},
			{
				"x": -4.0892118519,
				"y": -1.1463515725,
				"z": -0.0600139899,
				"element": "H" 
			},
			{
				"x": -4.317758844,
				"y": 0.5602432328,
				"z": -0.4558070591,
				"element": "H" 
			},
			{
				"x": -5.4267577152,
				"y": -0.0575550112,
				"z": 1.6497570303,
				"element": "H" 
			},
			{
				"x": -4.1814381331,
				"y": 1.1454294657,
				"z": 1.968802461,
				"element": "H" 
			},
			{
				"x": -2.651226536,
				"y": -0.6564323353,
				"z": 2.7988159719,
				"element": "H" 
			},
			{
				"x": -3.8662694035,
				"y": -1.8819484971,
				"z": 2.3801223355,
				"element": "H" 
			},
			{
				"x": -4.4335421216,
				"y": 0.268631087,
				"z": 5.720299208,
				"element": "H" 
			},
			{
				"x": -2.8462348204,
				"y": 0.3419395923,
				"z": 4.9069265482,
				"element": "H" 
			},
			{
				"x": -4.2050152136,
				"y": 1.3194704562,
				"z": 4.3021892732,
				"element": "H" 
			},
			{
				"x": 2.4822134746,
				"y": -0.533014506,
				"z": -1.4210154743,
				"element": "H" 
			},
			{
				"x": 4.4306413582,
				"y": 2.0100449296,
				"z": 1.7685136608,
				"element": "H" 
			},
			{
				"x": 4.7855275983,
				"y": 0.4504222885,
				"z": 1.1815665872,
				"element": "H" 
			}
		],
		 "valence_orbital": [ 
			{
				"type": "occ",
				"energy": -0.29079,
				"method": "rhf"
			},
			{
				"type": "occ",
				"energy": -0.28004,
				"method": "rhf"
			},
			{
				"type": "occ",
				"energy": -0.27044,
				"method": "rhf"
			},
			{
				"type": "occ",
				"energy": -0.24812,
				"method": "rhf"
			},
			{
				"type": "occ",
				"energy": -0.2435,
				"method": "rhf"
			},
			{
				"type": "unocc",
				"energy": -0.07801,
				"method": "rhf"
			},
			{
				"type": "unocc",
				"energy": -0.01127,
				"method": "rhf"
			},
			{
				"type": "unocc",
				"energy": 0.00271,
				"method": "rhf"
			},
			{
				"type": "unocc",
				"energy": 0.00691,
				"method": "rhf"
			},
			{
				"type": "unocc",
				"energy": 0.03865,
				"method": "rhf"
			}
		],
		"cosmo_sigma_profile": { 
			"-0.025": 0.0,
			"-0.024": 0.0,
			"-0.023": 0.0,
			"-0.022": 0.0,
			"-0.021": 0.0,
			"-0.02": 0.0,
			"-0.019": 0.0,
			"-0.018": 0.0,
			"-0.017": 0.0,
			"-0.016": 1.12318397905,
			"-0.015": 3.07773501761,
			"-0.014": 2.66809188382,
			"-0.013": 3.23620454211,
			"-0.012": 2.78187163046,
			"-0.011": 2.47376935136,
			"-0.01": 1.66018535307,
			"-0.009": 2.04340589267,
			"-0.008": 6.71119200639,
			"-0.007": 10.7341316715,
			"-0.006": 15.9191829725,
			"-0.005": 19.5230081971,
			"-0.004": 31.1742765072,
			"-0.003": 35.7435648672,
			"-0.002": 37.2594642195,
			"-0.001": 40.3510945592,
			"0.0": 28.8424033829,
			"0.001": 22.4612891226,
			"0.002": 13.6340769421,
			"0.003": 10.7887791134,
			"0.004": 9.7002085253,
			"0.005": 8.98237626377,
			"0.006": 8.4398570092,
			"0.007": 9.55228356106,
			"0.008": 10.0831632448,
			"0.009": 11.9971993082,
			"0.01": 21.033689707,
			"0.011": 12.7611675631,
			"0.012": 2.3327693658,
			"0.013": 2.34166227361,
			"0.014": 1.24292244939,
			"0.015": 0.381318528942,
			"0.016": 0.0568645290576,
			"0.017": 0.0,
			"0.018": 0.0,
			"0.019": 0.0,
			"0.02": 0.0,
			"0.021": 0.0,
			"0.022": 0.0,
			"0.023": 0.0,
			"0.024": 0.0,
			"0.025": 0.0
		}
	}
}
