{
	 "smiles": "[O-][N+](=O)C1=C(NC2CC2)C=C(F)C=C1", 
	 "Tm": 343.15, 
	 "num_atms": 23, 
	 "gaussian": { 
		 "optdone": 1, 
		 "sigma_profile": "yes", 
		 "theory": "DFT", 
		 "functional": "B3LYP", 
		 "basiset": "6-31G**", 
		 "properties": { 
			 "R2extent": 3979.6188, 
			 "electric_dipole_moment_norm": 3.80293747516, 
			 "electric_quadrupole_moment_norm": 11.4534654812, 
			 "total_energy": -708.041840205, 
			 "HOMO_LUMO_gap": 0.14228, 
			 "cosmo_polarized_energy": -8.59, 
			 "cosmo_cavitation_energy": 27.66, 
			 "cosmo_dispersion_energy": -20.08, 
			 "cosmo_repulsion_energy": 1.56, 
			 "cosmo_total_nonelectrostatic_energy": 9.14, 
			 "SMD_solvation_energy": 6.28 
		},
		"coords": [
			{
				"x": -0.4264970786,
				"y": 2.5947497566,
				"z": 3.6600486418,
				"element": "O" 
			},
			{
				"x": -0.3519546122,
				"y": 1.9638710812,
				"z": 2.6043552665,
				"element": "N" 
			},
			{
				"x": -1.0998959028,
				"y": 2.1997367957,
				"z": 1.6329756001,
				"element": "O" 
			},
			{
				"x": 0.6353571995,
				"y": 0.9142961325,
				"z": 2.4903680686,
				"element": "C" 
			},
			{
				"x": 0.7937878488,
				"y": 0.1371854874,
				"z": 1.2975281624,
				"element": "C" 
			},
			{
				"x": 0.0479761173,
				"y": 0.3341067618,
				"z": 0.1774411446,
				"element": "N" 
			},
			{
				"x": 0.1001710692,
				"y": -0.5081782481,
				"z": -0.9783676065,
				"element": "C" 
			},
			{
				"x": 1.2096781108,
				"y": -0.3203679574,
				"z": -1.993296248,
				"element": "C" 
			},
			{
				"x": -0.1950659872,
				"y": 0.1275943847,
				"z": -2.3086152924,
				"element": "C" 
			},
			{
				"x": 1.7903126282,
				"y": -0.8693055508,
				"z": 1.3263548274,
				"element": "C" 
			},
			{
				"x": 2.5548989639,
				"y": -1.0603424513,
				"z": 2.4576890226,
				"element": "C" 
			},
			{
				"x": 3.4903565397,
				"y": -2.0255909937,
				"z": 2.4379496716,
				"element": "F" 
			},
			{
				"x": 2.4061198236,
				"y": -0.3017664369,
				"z": 3.6244806152,
				"element": "C" 
			},
			{
				"x": 1.4379731184,
				"y": 0.682393884,
				"z": 3.6193158099,
				"element": "C" 
			},
			{
				"x": -0.6936849371,
				"y": 1.0184839827,
				"z": 0.2759932773,
				"element": "H" 
			},
			{
				"x": -0.2566651302,
				"y": -1.5277163495,
				"z": -0.8258951655,
				"element": "H" 
			},
			{
				"x": 1.9456358458,
				"y": 0.4480231309,
				"z": -1.780831288,
				"element": "H" 
			},
			{
				"x": 1.5992613733,
				"y": -1.2029018113,
				"z": -2.4915491151,
				"element": "H" 
			},
			{
				"x": -0.7791484772,
				"y": -0.4428195555,
				"z": -3.0233341909,
				"element": "H" 
			},
			{
				"x": -0.390457644,
				"y": 1.1956773175,
				"z": -2.3158564564,
				"element": "H" 
			},
			{
				"x": 1.9648328456,
				"y": -1.4889568687,
				"z": 0.4573557363,
				"element": "H" 
			},
			{
				"x": 3.0322006306,
				"y": -0.4936166809,
				"z": 4.4869642008,
				"element": "H" 
			},
			{
				"x": 1.2672076547,
				"y": 1.304444189,
				"z": 4.4883253176,
				"element": "H" 
			}
		],
		 "valence_orbital": [ 
			{
				"type": "occ",
				"energy": -0.30283,
				"method": "rhf"
			},
			{
				"type": "occ",
				"energy": -0.29882,
				"method": "rhf"
			},
			{
				"type": "occ",
				"energy": -0.28362,
				"method": "rhf"
			},
			{
				"type": "occ",
				"energy": -0.2691,
				"method": "rhf"
			},
			{
				"type": "occ",
				"energy": -0.22414,
				"method": "rhf"
			},
			{
				"type": "unocc",
				"energy": -0.08186,
				"method": "rhf"
			},
			{
				"type": "unocc",
				"energy": -0.01172,
				"method": "rhf"
			},
			{
				"type": "unocc",
				"energy": 0.01182,
				"method": "rhf"
			},
			{
				"type": "unocc",
				"energy": 0.08079,
				"method": "rhf"
			},
			{
				"type": "unocc",
				"energy": 0.08724,
				"method": "rhf"
			}
		],
		"cosmo_sigma_profile": { 
			"-0.025": 0.0,
			"-0.024": 0.0,
			"-0.023": 0.0,
			"-0.022": 0.0,
			"-0.021": 0.0,
			"-0.02": 0.0,
			"-0.019": 0.0,
			"-0.018": 0.0,
			"-0.017": 0.0,
			"-0.016": 0.0,
			"-0.015": 0.0,
			"-0.014": 0.0,
			"-0.013": 0.0,
			"-0.012": 0.0,
			"-0.011": 0.0,
			"-0.01": 0.0,
			"-0.009": 0.0102291978238,
			"-0.008": 1.94233213112,
			"-0.007": 4.38738758993,
			"-0.006": 9.25923014601,
			"-0.005": 17.1280823941,
			"-0.004": 17.52653332,
			"-0.003": 17.7679060804,
			"-0.002": 16.8185841334,
			"-0.001": 20.3128829588,
			"0.0": 26.8757104224,
			"0.001": 22.2850935768,
			"0.002": 15.2360789587,
			"0.003": 12.6007998402,
			"0.004": 11.1007210888,
			"0.005": 3.3818229678,
			"0.006": 1.95480653436,
			"0.007": 4.09941056291,
			"0.008": 6.05555413594,
			"0.009": 5.06844496018,
			"0.01": 4.19731940433,
			"0.011": 2.95339012839,
			"0.012": 0.183099674608,
			"0.013": 0.0,
			"0.014": 0.0,
			"0.015": 0.0,
			"0.016": 0.0,
			"0.017": 0.0,
			"0.018": 0.0,
			"0.019": 0.0,
			"0.02": 0.0,
			"0.021": 0.0,
			"0.022": 0.0,
			"0.023": 0.0,
			"0.024": 0.0,
			"0.025": 0.0
		}
	}
}
