{
	 "smiles": "ClCCC(=O)NC1=CC2=C(OCO2)C=C1", 
	 "Tm": 416.15, 
	 "num_atms": 25, 
	 "gaussian": { 
		 "optdone": 1, 
		 "sigma_profile": "yes", 
		 "theory": "DFT", 
		 "functional": "B3LYP", 
		 "basiset": "6-31G**", 
		 "properties": { 
			 "R2extent": 7019.9974, 
			 "electric_dipole_moment_norm": 3.69444451034, 
			 "electric_quadrupole_moment_norm": 8.75351426628, 
			 "total_energy": -1127.70105071, 
			 "HOMO_LUMO_gap": 0.1871, 
			 "cosmo_polarized_energy": -15.51, 
			 "cosmo_cavitation_energy": 31.14, 
			 "cosmo_dispersion_energy": -23.67, 
			 "cosmo_repulsion_energy": 1.86, 
			 "cosmo_total_nonelectrostatic_energy": 9.33, 
			 "SMD_solvation_energy": 5.93 
		},
		"coords": [
			{
				"x": -5.2134207851,
				"y": -4.189491829,
				"z": -1.5517813928,
				"element": "Cl" 
			},
			{
				"x": -4.7178289652,
				"y": -2.5330290264,
				"z": -0.9947476894,
				"element": "C" 
			},
			{
				"x": -3.2123529589,
				"y": -2.470850488,
				"z": -0.7789981082,
				"element": "C" 
			},
			{
				"x": -2.7930171287,
				"y": -1.073533525,
				"z": -0.3092097986,
				"element": "C" 
			},
			{
				"x": -3.6085214041,
				"y": -0.1737898472,
				"z": -0.1492252298,
				"element": "O" 
			},
			{
				"x": -1.4425551445,
				"y": -0.9502642121,
				"z": -0.0946389739,
				"element": "N" 
			},
			{
				"x": -0.7043859144,
				"y": 0.1784326441,
				"z": 0.3376346716,
				"element": "C" 
			},
			{
				"x": 0.6932523026,
				"y": -0.0026786433,
				"z": 0.4692529808,
				"element": "C" 
			},
			{
				"x": 1.431821153,
				"y": 1.0822728032,
				"z": 0.8883373565,
				"element": "C" 
			},
			{
				"x": 0.8453306642,
				"y": 2.3115954942,
				"z": 1.1745843441,
				"element": "C" 
			},
			{
				"x": 1.8143460779,
				"y": 3.2071392329,
				"z": 1.5673092304,
				"element": "O" 
			},
			{
				"x": 3.0539868323,
				"y": 2.4941415497,
				"z": 1.5244583384,
				"element": "C" 
			},
			{
				"x": 2.7871580656,
				"y": 1.152518812,
				"z": 1.087999205,
				"element": "O" 
			},
			{
				"x": -0.5146907122,
				"y": 2.5025070564,
				"z": 1.0509515341,
				"element": "C" 
			},
			{
				"x": -1.2979801645,
				"y": 1.4138761355,
				"z": 0.6248596848,
				"element": "C" 
			},
			{
				"x": -5.2641272842,
				"y": -2.3285464942,
				"z": -0.0753526611,
				"element": "H" 
			},
			{
				"x": -5.0434948351,
				"y": -1.8285539854,
				"z": -1.7584111615,
				"element": "H" 
			},
			{
				"x": -2.6893152015,
				"y": -2.7215840969,
				"z": -1.7098077891,
				"element": "H" 
			},
			{
				"x": -2.9085513485,
				"y": -3.2185600735,
				"z": -0.0363939529,
				"element": "H" 
			},
			{
				"x": -0.8903069233,
				"y": -1.7783494739,
				"z": -0.2677309634,
				"element": "H" 
			},
			{
				"x": 1.1706621353,
				"y": -0.9528144256,
				"z": 0.2511546777,
				"element": "H" 
			},
			{
				"x": 3.7335219221,
				"y": 2.9788746319,
				"z": 0.8124769508,
				"element": "H" 
			},
			{
				"x": 3.4989987538,
				"y": 2.467791354,
				"z": 2.5270635147,
				"element": "H" 
			},
			{
				"x": -0.9710548296,
				"y": 3.4601934703,
				"z": 1.2739831991,
				"element": "H" 
			},
			{
				"x": -2.366874307,
				"y": 1.5211029362,
				"z": 0.5151320327,
				"element": "H" 
			}
		],
		 "valence_orbital": [ 
			{
				"type": "occ",
				"energy": -0.29623,
				"method": "rhf"
			},
			{
				"type": "occ",
				"energy": -0.28478,
				"method": "rhf"
			},
			{
				"type": "occ",
				"energy": -0.26369,
				"method": "rhf"
			},
			{
				"type": "occ",
				"energy": -0.24532,
				"method": "rhf"
			},
			{
				"type": "occ",
				"energy": -0.20085,
				"method": "rhf"
			},
			{
				"type": "unocc",
				"energy": -0.01375,
				"method": "rhf"
			},
			{
				"type": "unocc",
				"energy": -0.0026,
				"method": "rhf"
			},
			{
				"type": "unocc",
				"energy": 0.02373,
				"method": "rhf"
			},
			{
				"type": "unocc",
				"energy": 0.04138,
				"method": "rhf"
			},
			{
				"type": "unocc",
				"energy": 0.06324,
				"method": "rhf"
			}
		],
		"cosmo_sigma_profile": { 
			"-0.025": 0.0,
			"-0.024": 0.0,
			"-0.023": 0.0,
			"-0.022": 0.0,
			"-0.021": 0.0,
			"-0.02": 0.0,
			"-0.019": 0.0,
			"-0.018": 0.0,
			"-0.017": 0.0,
			"-0.016": 0.324313821936,
			"-0.015": 1.44370193874,
			"-0.014": 1.40189755498,
			"-0.013": 1.69215063753,
			"-0.012": 1.45138280685,
			"-0.011": 1.79867864381,
			"-0.01": 1.55608832955,
			"-0.009": 1.90146395723,
			"-0.008": 4.62205625431,
			"-0.007": 17.5905664202,
			"-0.006": 17.3661417432,
			"-0.005": 15.7240288449,
			"-0.004": 11.8083484245,
			"-0.003": 11.5387527166,
			"-0.002": 11.9888046722,
			"-0.001": 9.90243624696,
			"0.0": 12.2726893745,
			"0.001": 12.6649364753,
			"0.002": 17.310353402,
			"0.003": 19.7501627597,
			"0.004": 19.397006349,
			"0.005": 15.0907046766,
			"0.006": 14.2675463925,
			"0.007": 9.10207075651,
			"0.008": 3.69311435283,
			"0.009": 4.81866890889,
			"0.01": 3.6262637635,
			"0.011": 1.90607243192,
			"0.012": 2.80319175252,
			"0.013": 1.58460500326,
			"0.014": 0.00286115733424,
			"0.015": 0.0,
			"0.016": 0.0,
			"0.017": 0.0,
			"0.018": 0.0,
			"0.019": 0.0,
			"0.02": 0.0,
			"0.021": 0.0,
			"0.022": 0.0,
			"0.023": 0.0,
			"0.024": 0.0,
			"0.025": 0.0
		}
	}
}
