{
	 "smiles": "OC(=O)COC1=CC=CC=C1O", 
	 "Tm": 400.65, 
	 "num_atms": 20, 
	 "gaussian": { 
		 "optdone": 1, 
		 "sigma_profile": "yes", 
		 "theory": "DFT", 
		 "functional": "B3LYP", 
		 "basiset": "6-31G**", 
		 "properties": { 
			 "R2extent": 3288.1617, 
			 "electric_dipole_moment_norm": 0.815472219024, 
			 "electric_quadrupole_moment_norm": 14.1519777081, 
			 "total_energy": -610.56101655, 
			 "HOMO_LUMO_gap": 0.20306, 
			 "cosmo_polarized_energy": -13.01, 
			 "cosmo_cavitation_energy": 24.42, 
			 "cosmo_dispersion_energy": -18.06, 
			 "cosmo_repulsion_energy": 1.45, 
			 "cosmo_total_nonelectrostatic_energy": 7.81, 
			 "SMD_solvation_energy": 5.97 
		},
		"coords": [
			{
				"x": -1.6854999252,
				"y": 1.6030728931,
				"z": -0.0160522165,
				"element": "O" 
			},
			{
				"x": -1.1370329446,
				"y": 0.4648425967,
				"z": -0.5008972448,
				"element": "C" 
			},
			{
				"x": -0.9315439085,
				"y": 0.2722840383,
				"z": -1.6755617498,
				"element": "O" 
			},
			{
				"x": -0.8511915181,
				"y": -0.5696382453,
				"z": 0.5826090752,
				"element": "C" 
			},
			{
				"x": -0.9322750197,
				"y": -0.0760932561,
				"z": 1.9071261257,
				"element": "O" 
			},
			{
				"x": 0.2447858688,
				"y": 0.4030324429,
				"z": 2.4781848961,
				"element": "C" 
			},
			{
				"x": 1.3289752926,
				"y": -0.4271712883,
				"z": 2.7527378903,
				"element": "C" 
			},
			{
				"x": 2.4581083269,
				"y": 0.089858563,
				"z": 3.3909976109,
				"element": "C" 
			},
			{
				"x": 2.4825957723,
				"y": 1.4356460568,
				"z": 3.7650870493,
				"element": "C" 
			},
			{
				"x": 1.3944204108,
				"y": 2.2660671186,
				"z": 3.5003951185,
				"element": "C" 
			},
			{
				"x": 0.266018351,
				"y": 1.7594204844,
				"z": 2.8479911885,
				"element": "C" 
			},
			{
				"x": -0.78416772,
				"y": 2.5790304133,
				"z": 2.5946050262,
				"element": "O" 
			},
			{
				"x": -1.8250915446,
				"y": 2.1924381463,
				"z": -0.7767127468,
				"element": "H" 
			},
			{
				"x": 0.1249703513,
				"y": -1.0121108575,
				"z": 0.360089543,
				"element": "H" 
			},
			{
				"x": -1.6066922621,
				"y": -1.3566296574,
				"z": 0.4780281875,
				"element": "H" 
			},
			{
				"x": 1.2755425676,
				"y": -1.4778566547,
				"z": 2.481780686,
				"element": "H" 
			},
			{
				"x": 3.3030147264,
				"y": -0.5570200852,
				"z": 3.6042081562,
				"element": "H" 
			},
			{
				"x": 3.3542702578,
				"y": 1.8436394937,
				"z": 4.2681462583,
				"element": "H" 
			},
			{
				"x": 1.3989067562,
				"y": 3.3141342232,
				"z": 3.7815808831,
				"element": "H" 
			},
			{
				"x": -1.4098138388,
				"y": 2.0912535743,
				"z": 2.0336562632,
				"element": "H" 
			}
		],
		 "valence_orbital": [ 
			{
				"type": "occ",
				"energy": -0.33094,
				"method": "rhf"
			},
			{
				"type": "occ",
				"energy": -0.3227,
				"method": "rhf"
			},
			{
				"type": "occ",
				"energy": -0.28701,
				"method": "rhf"
			},
			{
				"type": "occ",
				"energy": -0.2436,
				"method": "rhf"
			},
			{
				"type": "occ",
				"energy": -0.21542,
				"method": "rhf"
			},
			{
				"type": "unocc",
				"energy": -0.01236,
				"method": "rhf"
			},
			{
				"type": "unocc",
				"energy": -0.00087,
				"method": "rhf"
			},
			{
				"type": "unocc",
				"energy": 0.01369,
				"method": "rhf"
			},
			{
				"type": "unocc",
				"energy": 0.05343,
				"method": "rhf"
			},
			{
				"type": "unocc",
				"energy": 0.08685,
				"method": "rhf"
			}
		],
		"cosmo_sigma_profile": { 
			"-0.025": 0.0,
			"-0.024": 0.0,
			"-0.023": 0.0,
			"-0.022": 0.0,
			"-0.021": 0.0,
			"-0.02": 0.0296342703614,
			"-0.019": 0.696259681107,
			"-0.018": 1.08354273611,
			"-0.017": 0.955634121564,
			"-0.016": 0.484878315299,
			"-0.015": 1.04713875954,
			"-0.014": 0.492737794435,
			"-0.013": 0.69760037337,
			"-0.012": 1.33266749854,
			"-0.011": 0.520509985918,
			"-0.01": 0.3030315844,
			"-0.009": 3.00546391614,
			"-0.008": 5.23756998414,
			"-0.007": 8.07213898161,
			"-0.006": 10.9916267452,
			"-0.005": 13.4860160227,
			"-0.004": 13.873827936,
			"-0.003": 12.1272642836,
			"-0.002": 8.74163571889,
			"-0.001": 10.5221380704,
			"0.0": 7.96616730549,
			"0.001": 9.1891711288,
			"0.002": 11.3022126325,
			"0.003": 11.8676649719,
			"0.004": 13.0843534185,
			"0.005": 11.8829102389,
			"0.006": 8.63576135704,
			"0.007": 4.15102815441,
			"0.008": 3.91836263576,
			"0.009": 3.82655089608,
			"0.01": 4.9099165641,
			"0.011": 7.67084367578,
			"0.012": 2.56998082341,
			"0.013": 0.0,
			"0.014": 0.0,
			"0.015": 0.0,
			"0.016": 0.0,
			"0.017": 0.0,
			"0.018": 0.0,
			"0.019": 0.0,
			"0.02": 0.0,
			"0.021": 0.0,
			"0.022": 0.0,
			"0.023": 0.0,
			"0.024": 0.0,
			"0.025": 0.0
		}
	}
}
