{
	 "smiles": "ClC1=CC=C2N(CC3CO3)C3=C(C=C(Cl)C=C3)C2=C1", 
	 "Tm": 417.15, 
	 "num_atms": 30, 
	 "gaussian": { 
		 "optdone": 1, 
		 "sigma_profile": "yes", 
		 "theory": "DFT", 
		 "functional": "B3LYP", 
		 "basiset": "6-31G**", 
		 "properties": { 
			 "R2extent": 8691.9996, 
			 "electric_dipole_moment_norm": 5.78481517769, 
			 "electric_quadrupole_moment_norm": 13.6601104608, 
			 "total_energy": -1628.5616387, 
			 "HOMO_LUMO_gap": 0.16434, 
			 "cosmo_polarized_energy": -12.18, 
			 "cosmo_cavitation_energy": 37.47, 
			 "cosmo_dispersion_energy": -27.18, 
			 "cosmo_repulsion_energy": 2.06, 
			 "cosmo_total_nonelectrostatic_energy": 12.36, 
			 "SMD_solvation_energy": 5.01 
		},
		"coords": [
			{
				"x": 2.270744145,
				"y": -3.540002799,
				"z": -4.1465837746,
				"element": "Cl" 
			},
			{
				"x": 1.193156071,
				"y": -2.7270488375,
				"z": -3.0148271261,
				"element": "C" 
			},
			{
				"x": 0.7067759179,
				"y": -3.4448508823,
				"z": -1.910983132,
				"element": "C" 
			},
			{
				"x": -0.1441948365,
				"y": -2.8350483053,
				"z": -0.9926365265,
				"element": "C" 
			},
			{
				"x": -0.5006664855,
				"y": -1.4997350504,
				"z": -1.203975758,
				"element": "C" 
			},
			{
				"x": -1.3265748206,
				"y": -0.667368061,
				"z": -0.4529335721,
				"element": "N" 
			},
			{
				"x": -2.1126266906,
				"y": -1.0639924041,
				"z": 0.7018007949,
				"element": "C" 
			},
			{
				"x": -1.5765526521,
				"y": -0.5459773425,
				"z": 2.0214193559,
				"element": "C" 
			},
			{
				"x": -2.4708166671,
				"y": -0.3758759864,
				"z": 3.1758881313,
				"element": "C" 
			},
			{
				"x": -2.0179205462,
				"y": 0.7566056702,
				"z": 2.4238306442,
				"element": "O" 
			},
			{
				"x": -1.3695138553,
				"y": 0.583686244,
				"z": -1.0662502909,
				"element": "C" 
			},
			{
				"x": -0.5665803699,
				"y": 0.5551486808,
				"z": -2.2354195388,
				"element": "C" 
			},
			{
				"x": -0.4574804453,
				"y": 1.6977100933,
				"z": -3.0362489106,
				"element": "C" 
			},
			{
				"x": -1.1551007603,
				"y": 2.8348019051,
				"z": -2.6481913467,
				"element": "C" 
			},
			{
				"x": -1.0426242474,
				"y": 4.2905653869,
				"z": -3.6345331701,
				"element": "Cl" 
			},
			{
				"x": -1.9434048224,
				"y": 2.8654823686,
				"z": -1.4860480479,
				"element": "C" 
			},
			{
				"x": -2.0562511061,
				"y": 1.737667485,
				"z": -0.6776795067,
				"element": "C" 
			},
			{
				"x": -0.0059681972,
				"y": -0.7762267994,
				"z": -2.3221030602,
				"element": "C" 
			},
			{
				"x": 0.8509859506,
				"y": -1.3984215945,
				"z": -3.2361287434,
				"element": "C" 
			},
			{
				"x": 1.0023895111,
				"y": -4.4790256932,
				"z": -1.7754355025,
				"element": "H" 
			},
			{
				"x": -0.504557855,
				"y": -3.3980943019,
				"z": -0.1378375064,
				"element": "H" 
			},
			{
				"x": -2.1448861516,
				"y": -2.1575163871,
				"z": 0.7253949331,
				"element": "H" 
			},
			{
				"x": -3.1434531424,
				"y": -0.7110163755,
				"z": 0.5766134717,
				"element": "H" 
			},
			{
				"x": -0.5171616249,
				"y": -0.7363036389,
				"z": 2.2015814929,
				"element": "H" 
			},
			{
				"x": -2.0705424727,
				"y": -0.4605507197,
				"z": 4.185311579,
				"element": "H" 
			},
			{
				"x": -3.5311428486,
				"y": -0.6097741314,
				"z": 3.0760102154,
				"element": "H" 
			},
			{
				"x": 0.1495397611,
				"y": 1.7037141517,
				"z": -3.9348639225,
				"element": "H" 
			},
			{
				"x": -2.4575088645,
				"y": 3.7810226545,
				"z": -1.21613463,
				"element": "H" 
			},
			{
				"x": -2.6282127856,
				"y": 1.7707764804,
				"z": 0.2427123752,
				"element": "H" 
			},
			{
				"x": 1.2414508909,
				"y": -0.8658518104,
				"z": -4.0963489274,
				"element": "H" 
			}
		],
		 "valence_orbital": [ 
			{
				"type": "occ",
				"energy": -0.28983,
				"method": "rhf"
			},
			{
				"type": "occ",
				"energy": -0.28733,
				"method": "rhf"
			},
			{
				"type": "occ",
				"energy": -0.25505,
				"method": "rhf"
			},
			{
				"type": "occ",
				"energy": -0.22536,
				"method": "rhf"
			},
			{
				"type": "occ",
				"energy": -0.20804,
				"method": "rhf"
			},
			{
				"type": "unocc",
				"energy": -0.0437,
				"method": "rhf"
			},
			{
				"type": "unocc",
				"energy": -0.00887,
				"method": "rhf"
			},
			{
				"type": "unocc",
				"energy": 0.01142,
				"method": "rhf"
			},
			{
				"type": "unocc",
				"energy": 0.02685,
				"method": "rhf"
			},
			{
				"type": "unocc",
				"energy": 0.03125,
				"method": "rhf"
			}
		],
		"cosmo_sigma_profile": { 
			"-0.025": 0.0,
			"-0.024": 0.0,
			"-0.023": 0.0,
			"-0.022": 0.0,
			"-0.021": 0.0,
			"-0.02": 0.0,
			"-0.019": 0.0,
			"-0.018": 0.0,
			"-0.017": 0.0,
			"-0.016": 0.0,
			"-0.015": 0.0,
			"-0.014": 0.0,
			"-0.013": 0.0,
			"-0.012": 0.0,
			"-0.011": 0.0,
			"-0.01": 0.18002174246,
			"-0.009": 1.97972627697,
			"-0.008": 3.70023590955,
			"-0.007": 16.105315741,
			"-0.006": 21.2864015149,
			"-0.005": 20.1591856224,
			"-0.004": 19.6759672241,
			"-0.003": 15.3957340224,
			"-0.002": 14.9276763531,
			"-0.001": 16.1362235643,
			"0.0": 17.7025619377,
			"0.001": 19.6741234285,
			"0.002": 29.2575584461,
			"0.003": 38.3526940066,
			"0.004": 34.7226541221,
			"0.005": 22.3377824718,
			"0.006": 4.49754563519,
			"0.007": 1.77942098821,
			"0.008": 1.72608223096,
			"0.009": 1.4834174788,
			"0.01": 1.74849133065,
			"0.011": 1.37209796969,
			"0.012": 1.01732031535,
			"0.013": 0.132130716211,
			"0.014": 0.0,
			"0.015": 0.0,
			"0.016": 0.0,
			"0.017": 0.0,
			"0.018": 0.0,
			"0.019": 0.0,
			"0.02": 0.0,
			"0.021": 0.0,
			"0.022": 0.0,
			"0.023": 0.0,
			"0.024": 0.0,
			"0.025": 0.0
		}
	}
}
