{
	 "smiles": "OC(=O)CCNS(=O)(=O)C1=CC2=C(C=CC=C2)C=C1", 
	 "Tm": 448.15, 
	 "num_atms": 32, 
	 "gaussian": { 
		 "optdone": 1, 
		 "sigma_profile": "yes", 
		 "theory": "DFT", 
		 "functional": "B3LYP", 
		 "basiset": "6-31G**", 
		 "properties": { 
			 "R2extent": 6547.2093, 
			 "electric_dipole_moment_norm": 6.23874136746, 
			 "electric_quadrupole_moment_norm": 25.7327809817, 
			 "total_energy": -1257.00181601, 
			 "HOMO_LUMO_gap": 0.17485, 
			 "cosmo_polarized_energy": -25.05, 
			 "cosmo_cavitation_energy": 37.96, 
			 "cosmo_dispersion_energy": -26.77, 
			 "cosmo_repulsion_energy": 2.03, 
			 "cosmo_total_nonelectrostatic_energy": 13.22, 
			 "SMD_solvation_energy": 5.95 
		},
		"coords": [
			{
				"x": -3.168924973,
				"y": 2.2213371747,
				"z": 1.0440437254,
				"element": "O" 
			},
			{
				"x": -2.5903942124,
				"y": 2.6521327668,
				"z": -0.1075066966,
				"element": "C" 
			},
			{
				"x": -2.9668389927,
				"y": 3.6707772904,
				"z": -0.6312931301,
				"element": "O" 
			},
			{
				"x": -1.4913757928,
				"y": 1.7563296713,
				"z": -0.6631729072,
				"element": "C" 
			},
			{
				"x": -0.7648602621,
				"y": 2.4212056534,
				"z": -1.8323930908,
				"element": "C" 
			},
			{
				"x": 0.1037454381,
				"y": 1.4694852434,
				"z": -2.548921559,
				"element": "N" 
			},
			{
				"x": 1.6178835133,
				"y": 1.0917574717,
				"z": -1.8808044353,
				"element": "S" 
			},
			{
				"x": 1.9688908802,
				"y": 2.068778836,
				"z": -0.8418600377,
				"element": "O" 
			},
			{
				"x": 2.4856506106,
				"y": 0.8547809897,
				"z": -3.0391147234,
				"element": "O" 
			},
			{
				"x": 1.3210660856,
				"y": -0.475142003,
				"z": -1.0621883791,
				"element": "C" 
			},
			{
				"x": 1.5976910776,
				"y": -0.5862217914,
				"z": 0.2806743052,
				"element": "C" 
			},
			{
				"x": 1.4163538883,
				"y": -1.8314186377,
				"z": 0.9407022426,
				"element": "C" 
			},
			{
				"x": 0.9481736311,
				"y": -2.9558909775,
				"z": 0.1850239366,
				"element": "C" 
			},
			{
				"x": 0.7646106542,
				"y": -4.1972769545,
				"z": 0.8489546192,
				"element": "C" 
			},
			{
				"x": 1.03231457,
				"y": -4.3216335475,
				"z": 2.1945589,
				"element": "C" 
			},
			{
				"x": 1.497072986,
				"y": -3.2106060834,
				"z": 2.9400219124,
				"element": "C" 
			},
			{
				"x": 1.6852626947,
				"y": -1.9923946466,
				"z": 2.3263317951,
				"element": "C" 
			},
			{
				"x": 0.6855584612,
				"y": -2.7925849913,
				"z": -1.2048175693,
				"element": "C" 
			},
			{
				"x": 0.8700335214,
				"y": -1.5816281435,
				"z": -1.8262356319,
				"element": "C" 
			},
			{
				"x": -2.7529846008,
				"y": 1.4000806809,
				"z": 1.3429140375,
				"element": "H" 
			},
			{
				"x": -1.9431703833,
				"y": 0.8121423497,
				"z": -0.9947025099,
				"element": "H" 
			},
			{
				"x": -0.7855882877,
				"y": 1.504464554,
				"z": 0.1374635209,
				"element": "H" 
			},
			{
				"x": -0.2089722681,
				"y": 3.2948460105,
				"z": -1.4764027298,
				"element": "H" 
			},
			{
				"x": -1.5064092872,
				"y": 2.7743353015,
				"z": -2.5522901911,
				"element": "H" 
			},
			{
				"x": 0.2866456762,
				"y": 1.7435402299,
				"z": -3.5112276941,
				"element": "H" 
			},
			{
				"x": 1.9572832293,
				"y": 0.2777514823,
				"z": 0.8305625593,
				"element": "H" 
			},
			{
				"x": 0.4106008142,
				"y": -5.0506090786,
				"z": 0.2767374802,
				"element": "H" 
			},
			{
				"x": 0.8891972933,
				"y": -5.2771124455,
				"z": 2.6905215001,
				"element": "H" 
			},
			{
				"x": 1.7064484054,
				"y": -3.3247520644,
				"z": 3.999371102,
				"element": "H" 
			},
			{
				"x": 2.0448752258,
				"y": -1.1377197773,
				"z": 2.8929784325,
				"element": "H" 
			},
			{
				"x": 0.3370965199,
				"y": -3.6491468278,
				"z": -1.775438076,
				"element": "H" 
			},
			{
				"x": 0.6739638837,
				"y": -1.4609077365,
				"z": -2.8856907078,
				"element": "H" 
			}
		],
		 "valence_orbital": [ 
			{
				"type": "occ",
				"energy": -0.30573,
				"method": "rhf"
			},
			{
				"type": "occ",
				"energy": -0.28742,
				"method": "rhf"
			},
			{
				"type": "occ",
				"energy": -0.27862,
				"method": "rhf"
			},
			{
				"type": "occ",
				"energy": -0.26244,
				"method": "rhf"
			},
			{
				"type": "occ",
				"energy": -0.24013,
				"method": "rhf"
			},
			{
				"type": "unocc",
				"energy": -0.06528,
				"method": "rhf"
			},
			{
				"type": "unocc",
				"energy": -0.04067,
				"method": "rhf"
			},
			{
				"type": "unocc",
				"energy": 0.00218,
				"method": "rhf"
			},
			{
				"type": "unocc",
				"energy": 0.00853,
				"method": "rhf"
			},
			{
				"type": "unocc",
				"energy": 0.04634,
				"method": "rhf"
			}
		],
		"cosmo_sigma_profile": { 
			"-0.025": 0.0,
			"-0.024": 0.0,
			"-0.023": 0.0,
			"-0.022": 0.0,
			"-0.021": 0.0,
			"-0.02": 0.0130053800574,
			"-0.019": 0.823877887212,
			"-0.018": 1.23775638848,
			"-0.017": 1.02934544342,
			"-0.016": 1.38479364511,
			"-0.015": 1.5868575342,
			"-0.014": 1.6243155465,
			"-0.013": 1.92184794941,
			"-0.012": 2.06232908097,
			"-0.011": 3.32586654901,
			"-0.01": 2.31778390048,
			"-0.009": 2.46779396451,
			"-0.008": 3.90142199153,
			"-0.007": 14.3680314661,
			"-0.006": 18.7519496557,
			"-0.005": 20.0953531598,
			"-0.004": 20.5959139784,
			"-0.003": 16.8271187722,
			"-0.002": 15.2891367143,
			"-0.001": 15.2679788702,
			"0.0": 13.9256331374,
			"0.001": 18.599728684,
			"0.002": 22.8949372763,
			"0.003": 22.4154805564,
			"0.004": 14.1747970141,
			"0.005": 7.13008952139,
			"0.006": 4.9060753689,
			"0.007": 6.06347881211,
			"0.008": 6.29289417337,
			"0.009": 6.56735345334,
			"0.01": 12.1231424863,
			"0.011": 14.0909128996,
			"0.012": 6.95826796064,
			"0.013": 1.16798819538,
			"0.014": 0.0,
			"0.015": 0.0,
			"0.016": 0.0,
			"0.017": 0.0,
			"0.018": 0.0,
			"0.019": 0.0,
			"0.02": 0.0,
			"0.021": 0.0,
			"0.022": 0.0,
			"0.023": 0.0,
			"0.024": 0.0,
			"0.025": 0.0
		}
	}
}
