{
	 "smiles": "COC1=CC(=CC=C1N)[N+]([O-])=O", 
	 "Tm": 413.15, 
	 "num_atms": 20, 
	 "gaussian": { 
		 "optdone": 1, 
		 "sigma_profile": "yes", 
		 "theory": "DFT", 
		 "functional": "B3LYP", 
		 "basiset": "6-31G**", 
		 "properties": { 
			 "R2extent": 2414.5741, 
			 "electric_dipole_moment_norm": 6.64951378222, 
			 "electric_quadrupole_moment_norm": 13.1542589404, 
			 "total_energy": -606.636680795, 
			 "HOMO_LUMO_gap": 0.14517, 
			 "cosmo_polarized_energy": -14.49, 
			 "cosmo_cavitation_energy": 24.64, 
			 "cosmo_dispersion_energy": -18.32, 
			 "cosmo_repulsion_energy": 1.47, 
			 "cosmo_total_nonelectrostatic_energy": 7.79, 
			 "SMD_solvation_energy": 7.28 
		},
		"coords": [
			{
				"x": 2.194673704,
				"y": 0.3895053026,
				"z": -2.5237783006,
				"element": "C" 
			},
			{
				"x": 1.5203060379,
				"y": -0.6527721058,
				"z": -1.831268562,
				"element": "O" 
			},
			{
				"x": 0.9386915438,
				"y": -0.3523284833,
				"z": -0.6291530065,
				"element": "C" 
			},
			{
				"x": 0.9500993893,
				"y": 0.892303232,
				"z": -0.0248172045,
				"element": "C" 
			},
			{
				"x": 0.3002656889,
				"y": 1.0554622702,
				"z": 1.2073214138,
				"element": "C" 
			},
			{
				"x": -0.3563246454,
				"y": 0.0006134445,
				"z": 1.8336014378,
				"element": "C" 
			},
			{
				"x": -0.3634373389,
				"y": -1.2466954689,
				"z": 1.2193215307,
				"element": "C" 
			},
			{
				"x": 0.2786685096,
				"y": -1.4529006473,
				"z": -0.0115333505,
				"element": "C" 
			},
			{
				"x": 0.3297660484,
				"y": -2.6822312178,
				"z": -0.6237377261,
				"element": "N" 
			},
			{
				"x": 0.3157115351,
				"y": 2.3672758811,
				"z": 1.8357758699,
				"element": "N" 
			},
			{
				"x": 0.9080046083,
				"y": 3.2810748609,
				"z": 1.251405721,
				"element": "O" 
			},
			{
				"x": -0.2633177032,
				"y": 2.4983944117,
				"z": 2.9180033946,
				"element": "O" 
			},
			{
				"x": 1.5115413718,
				"y": 1.2104553914,
				"z": -2.7743562621,
				"element": "H" 
			},
			{
				"x": 3.0306920428,
				"y": 0.7838897912,
				"z": -1.9335729522,
				"element": "H" 
			},
			{
				"x": 2.5784227614,
				"y": -0.0565628053,
				"z": -3.4421462361,
				"element": "H" 
			},
			{
				"x": 1.4389126567,
				"y": 1.7483936061,
				"z": -0.4681164026,
				"element": "H" 
			},
			{
				"x": -0.8482337668,
				"y": 0.1678385791,
				"z": 2.7830050485,
				"element": "H" 
			},
			{
				"x": -0.8676779129,
				"y": -2.0824496436,
				"z": 1.6960463795,
				"element": "H" 
			},
			{
				"x": -0.3542110067,
				"y": -3.3718108803,
				"z": -0.3542087419,
				"element": "H" 
			},
			{
				"x": 0.605446476,
				"y": -2.6881555187,
				"z": -1.5940920508,
				"element": "H" 
			}
		],
		 "valence_orbital": [ 
			{
				"type": "occ",
				"energy": -0.29035,
				"method": "rhf"
			},
			{
				"type": "occ",
				"energy": -0.28992,
				"method": "rhf"
			},
			{
				"type": "occ",
				"energy": -0.27111,
				"method": "rhf"
			},
			{
				"type": "occ",
				"energy": -0.25306,
				"method": "rhf"
			},
			{
				"type": "occ",
				"energy": -0.21419,
				"method": "rhf"
			},
			{
				"type": "unocc",
				"energy": -0.06902,
				"method": "rhf"
			},
			{
				"type": "unocc",
				"energy": -0.0065,
				"method": "rhf"
			},
			{
				"type": "unocc",
				"energy": 0.02674,
				"method": "rhf"
			},
			{
				"type": "unocc",
				"energy": 0.06881,
				"method": "rhf"
			},
			{
				"type": "unocc",
				"energy": 0.08726,
				"method": "rhf"
			}
		],
		"cosmo_sigma_profile": { 
			"-0.025": 0.0,
			"-0.024": 0.0,
			"-0.023": 0.0,
			"-0.022": 0.0,
			"-0.021": 0.0,
			"-0.02": 0.0,
			"-0.019": 0.0,
			"-0.018": 0.0,
			"-0.017": 0.0,
			"-0.016": 0.0,
			"-0.015": 0.0692818220367,
			"-0.014": 1.11129537202,
			"-0.013": 1.73382525892,
			"-0.012": 1.98304834483,
			"-0.011": 2.28706075168,
			"-0.01": 2.95332761479,
			"-0.009": 2.53948681241,
			"-0.008": 2.24502184634,
			"-0.007": 5.68376571354,
			"-0.006": 12.1933763001,
			"-0.005": 13.1516576969,
			"-0.004": 14.1331152721,
			"-0.003": 12.878648639,
			"-0.002": 8.6226535194,
			"-0.001": 8.83754965315,
			"0.0": 10.6375350303,
			"0.001": 16.6818686014,
			"0.002": 16.1084496776,
			"0.003": 13.1238395806,
			"0.004": 7.40181706255,
			"0.005": 5.29210941786,
			"0.006": 5.30380858906,
			"0.007": 4.3626065702,
			"0.008": 7.17142781761,
			"0.009": 9.8665972295,
			"0.01": 5.37899743591,
			"0.011": 3.72250006056,
			"0.012": 0.712004616731,
			"0.013": 0.0,
			"0.014": 0.0,
			"0.015": 0.0,
			"0.016": 0.0,
			"0.017": 0.0,
			"0.018": 0.0,
			"0.019": 0.0,
			"0.02": 0.0,
			"0.021": 0.0,
			"0.022": 0.0,
			"0.023": 0.0,
			"0.024": 0.0,
			"0.025": 0.0
		}
	}
}
