{
	 "smiles": "CCCC(C)C1(CC=C)C(=O)NC(=O)NC1=O", 
	 "Tm": 370.65, 
	 "num_atms": 35, 
	 "gaussian": { 
		 "optdone": 1, 
		 "sigma_profile": "yes", 
		 "theory": "DFT", 
		 "functional": "B3LYP", 
		 "basiset": "6-31G**", 
		 "properties": { 
			 "R2extent": 4682.313, 
			 "electric_dipole_moment_norm": 1.61741232838, 
			 "electric_quadrupole_moment_norm": 6.19162624437, 
			 "total_energy": -803.342059192, 
			 "HOMO_LUMO_gap": 0.20764, 
			 "cosmo_polarized_energy": -15.11, 
			 "cosmo_cavitation_energy": 36.47, 
			 "cosmo_dispersion_energy": -24.8, 
			 "cosmo_repulsion_energy": 1.95, 
			 "cosmo_total_nonelectrostatic_energy": 13.61, 
			 "SMD_solvation_energy": 8.45 
		},
		"coords": [
			{
				"x": -1.7001715585,
				"y": -1.0427574274,
				"z": 3.443495578,
				"element": "C" 
			},
			{
				"x": -0.7571539401,
				"y": -0.2501798753,
				"z": 2.5322185258,
				"element": "C" 
			},
			{
				"x": -1.1228486725,
				"y": -0.3892728709,
				"z": 1.0452677245,
				"element": "C" 
			},
			{
				"x": -0.2007596614,
				"y": 0.4289147165,
				"z": 0.109532979,
				"element": "C" 
			},
			{
				"x": -0.5833797184,
				"y": 1.9187196335,
				"z": 0.1429360359,
				"element": "C" 
			},
			{
				"x": -0.1488452317,
				"y": -0.1665546729,
				"z": -1.3788517531,
				"element": "C" 
			},
			{
				"x": -1.5515480501,
				"y": -0.2427243508,
				"z": -2.0371906631,
				"element": "C" 
			},
			{
				"x": -1.5556458771,
				"y": -0.9199618838,
				"z": -3.385739528,
				"element": "C" 
			},
			{
				"x": -1.717494302,
				"y": -0.287074763,
				"z": -4.5482321298,
				"element": "C" 
			},
			{
				"x": 0.4534434879,
				"y": -1.5699720479,
				"z": -1.2605360137,
				"element": "C" 
			},
			{
				"x": -0.2049702658,
				"y": -2.5740035887,
				"z": -1.0571673724,
				"element": "O" 
			},
			{
				"x": 1.8423031423,
				"y": -1.6488329294,
				"z": -1.3113345333,
				"element": "N" 
			},
			{
				"x": 2.7244310713,
				"y": -0.6860668914,
				"z": -1.7910348904,
				"element": "C" 
			},
			{
				"x": 3.920484641,
				"y": -0.8724838779,
				"z": -1.8803556366,
				"element": "O" 
			},
			{
				"x": 2.1085462972,
				"y": 0.4969223089,
				"z": -2.1796996631,
				"element": "N" 
			},
			{
				"x": 0.7424247213,
				"y": 0.7720185744,
				"z": -2.2012678986,
				"element": "C" 
			},
			{
				"x": 0.3301151423,
				"y": 1.7572116971,
				"z": -2.7816892053,
				"element": "O" 
			},
			{
				"x": -1.413328528,
				"y": -0.9431812935,
				"z": 4.4952547989,
				"element": "H" 
			},
			{
				"x": -1.688942631,
				"y": -2.1094764917,
				"z": 3.193539361,
				"element": "H" 
			},
			{
				"x": -2.7336336587,
				"y": -0.6916194055,
				"z": 3.3458307243,
				"element": "H" 
			},
			{
				"x": 0.2738814461,
				"y": -0.5985162164,
				"z": 2.6819115363,
				"element": "H" 
			},
			{
				"x": -0.768767461,
				"y": 0.8050961789,
				"z": 2.8320212599,
				"element": "H" 
			},
			{
				"x": -1.0939404708,
				"y": -1.4505987539,
				"z": 0.7818926172,
				"element": "H" 
			},
			{
				"x": -2.161192352,
				"y": -0.0636620527,
				"z": 0.8991531037,
				"element": "H" 
			},
			{
				"x": 0.8254338564,
				"y": 0.3396290792,
				"z": 0.4932088744,
				"element": "H" 
			},
			{
				"x": -1.5828371884,
				"y": 2.0833208826,
				"z": -0.2705116422,
				"element": "H" 
			},
			{
				"x": -0.5957751742,
				"y": 2.2643526884,
				"z": 1.1804401456,
				"element": "H" 
			},
			{
				"x": 0.1131482278,
				"y": 2.5511863125,
				"z": -0.4096734005,
				"element": "H" 
			},
			{
				"x": -2.210215934,
				"y": -0.7906634526,
				"z": -1.3581758851,
				"element": "H" 
			},
			{
				"x": -1.9284565607,
				"y": 0.7768752911,
				"z": -2.135814009,
				"element": "H" 
			},
			{
				"x": -1.4200053201,
				"y": -2.0000347349,
				"z": -3.3746569177,
				"element": "H" 
			},
			{
				"x": -1.7211025899,
				"y": -0.8259671314,
				"z": -5.4915166038,
				"element": "H" 
			},
			{
				"x": -1.848382977,
				"y": 0.7906507747,
				"z": -4.597432059,
				"element": "H" 
			},
			{
				"x": 2.2489257231,
				"y": -2.5620202266,
				"z": -1.1442887734,
				"element": "H" 
			},
			{
				"x": 2.7101603668,
				"y": 1.1640268007,
				"z": -2.6488346863,
				"element": "H" 
			}
		],
		 "valence_orbital": [ 
			{
				"type": "occ",
				"energy": -0.30231,
				"method": "rhf"
			},
			{
				"type": "occ",
				"energy": -0.3014,
				"method": "rhf"
			},
			{
				"type": "occ",
				"energy": -0.28996,
				"method": "rhf"
			},
			{
				"type": "occ",
				"energy": -0.26653,
				"method": "rhf"
			},
			{
				"type": "occ",
				"energy": -0.25782,
				"method": "rhf"
			},
			{
				"type": "unocc",
				"energy": -0.05018,
				"method": "rhf"
			},
			{
				"type": "unocc",
				"energy": -0.00571,
				"method": "rhf"
			},
			{
				"type": "unocc",
				"energy": 0.01479,
				"method": "rhf"
			},
			{
				"type": "unocc",
				"energy": 0.05019,
				"method": "rhf"
			},
			{
				"type": "unocc",
				"energy": 0.07283,
				"method": "rhf"
			}
		],
		"cosmo_sigma_profile": { 
			"-0.025": 0.0,
			"-0.024": 0.0,
			"-0.023": 0.0,
			"-0.022": 0.0,
			"-0.021": 0.0,
			"-0.02": 0.0,
			"-0.019": 0.0,
			"-0.018": 0.0,
			"-0.017": 0.23574451328,
			"-0.016": 1.71693935886,
			"-0.015": 2.09906323303,
			"-0.014": 1.80888505091,
			"-0.013": 1.19351907805,
			"-0.012": 1.70909326478,
			"-0.011": 2.07333514145,
			"-0.01": 1.13248302521,
			"-0.009": 1.82539453159,
			"-0.008": 2.39424615659,
			"-0.007": 2.38887691868,
			"-0.006": 4.9203399171,
			"-0.005": 9.62454303775,
			"-0.004": 19.8584647251,
			"-0.003": 30.195618996,
			"-0.002": 34.8810876123,
			"-0.001": 31.1295032613,
			"0.0": 30.7445366941,
			"0.001": 25.2135908482,
			"0.002": 12.3506147451,
			"0.003": 7.34379132997,
			"0.004": 8.52059117571,
			"0.005": 7.43256515162,
			"0.006": 7.01369471964,
			"0.007": 3.95885092374,
			"0.008": 3.73118914819,
			"0.009": 4.59122860688,
			"0.01": 6.15580695994,
			"0.011": 11.9130462764,
			"0.012": 6.63512226975,
			"0.013": 0.0450437818259,
			"0.014": 0.0,
			"0.015": 0.0,
			"0.016": 0.0,
			"0.017": 0.0,
			"0.018": 0.0,
			"0.019": 0.0,
			"0.02": 0.0,
			"0.021": 0.0,
			"0.022": 0.0,
			"0.023": 0.0,
			"0.024": 0.0,
			"0.025": 0.0
		}
	}
}
