{
	 "smiles": "C1CC(CN1)NC1=CC=CC=C1", 
	 "Tm": 351.15, 
	 "num_atms": 26, 
	 "gaussian": { 
		 "optdone": 1, 
		 "sigma_profile": "yes", 
		 "theory": "DFT", 
		 "functional": "B3LYP", 
		 "basiset": "6-31G**", 
		 "properties": { 
			 "R2extent": 2684.2214, 
			 "electric_dipole_moment_norm": 0.792727929368, 
			 "electric_quadrupole_moment_norm": 9.09850884706, 
			 "total_energy": -498.992427103, 
			 "HOMO_LUMO_gap": 0.19854, 
			 "cosmo_polarized_energy": -10.13, 
			 "cosmo_cavitation_energy": 27.48, 
			 "cosmo_dispersion_energy": -20.4, 
			 "cosmo_repulsion_energy": 1.63, 
			 "cosmo_total_nonelectrostatic_energy": 8.71, 
			 "SMD_solvation_energy": 0.46 
		},
		"coords": [
			{
				"x": -0.9142208764,
				"y": 3.5256661336,
				"z": 0.0112865339,
				"element": "C" 
			},
			{
				"x": -1.3454433652,
				"y": 2.0409760677,
				"z": 0.218249223,
				"element": "C" 
			},
			{
				"x": -0.4801400295,
				"y": 1.2280834728,
				"z": -0.7975168376,
				"element": "C" 
			},
			{
				"x": 0.1127745418,
				"y": 2.3403032256,
				"z": -1.6978319333,
				"element": "C" 
			},
			{
				"x": 0.278549355,
				"y": 3.5304741482,
				"z": -0.8551532634,
				"element": "N" 
			},
			{
				"x": 0.6070172702,
				"y": 0.4612905679,
				"z": -0.1980752955,
				"element": "N" 
			},
			{
				"x": 0.3997344194,
				"y": -0.6008340051,
				"z": 0.6786093215,
				"element": "C" 
			},
			{
				"x": -0.8383007014,
				"y": -1.2625985131,
				"z": 0.7877733779,
				"element": "C" 
			},
			{
				"x": -0.9782954317,
				"y": -2.3607219337,
				"z": 1.6376017645,
				"element": "C" 
			},
			{
				"x": 0.0921385066,
				"y": -2.8227741141,
				"z": 2.4024752046,
				"element": "C" 
			},
			{
				"x": 1.3217725369,
				"y": -2.164158733,
				"z": 2.3039288009,
				"element": "C" 
			},
			{
				"x": 1.4766324203,
				"y": -1.0715580018,
				"z": 1.4584975698,
				"element": "C" 
			},
			{
				"x": -0.7064543106,
				"y": 4.0513628944,
				"z": 0.9473608023,
				"element": "H" 
			},
			{
				"x": -1.7119775361,
				"y": 4.0790412349,
				"z": -0.4993628036,
				"element": "H" 
			},
			{
				"x": -2.415440248,
				"y": 1.9104225558,
				"z": 0.026492643,
				"element": "H" 
			},
			{
				"x": -1.1561057607,
				"y": 1.6910542531,
				"z": 1.2365548722,
				"element": "H" 
			},
			{
				"x": -1.0939316562,
				"y": 0.5365078649,
				"z": -1.3838702364,
				"element": "H" 
			},
			{
				"x": 1.0542585372,
				"y": 2.0439361188,
				"z": -2.1689228452,
				"element": "H" 
			},
			{
				"x": -0.6013128393,
				"y": 2.577777833,
				"z": -2.4962627853,
				"element": "H" 
			},
			{
				"x": 1.1110475611,
				"y": 3.4208132891,
				"z": -0.2790241773,
				"element": "H" 
			},
			{
				"x": 1.4279967223,
				"y": 1.0107255915,
				"z": 0.0208373314,
				"element": "H" 
			},
			{
				"x": -1.691442676,
				"y": -0.9228378089,
				"z": 0.2112847845,
				"element": "H" 
			},
			{
				"x": -1.9444146824,
				"y": -2.8544663921,
				"z": 1.702417216,
				"element": "H" 
			},
			{
				"x": -0.0270984388,
				"y": -3.6749083807,
				"z": 3.064085311,
				"element": "H" 
			},
			{
				"x": 2.170259923,
				"y": -2.503800139,
				"z": 2.8920592628,
				"element": "H" 
			},
			{
				"x": 2.4411967585,
				"y": -0.5731772299,
				"z": 1.385806158,
				"element": "H" 
			}
		],
		 "valence_orbital": [ 
			{
				"type": "occ",
				"energy": -0.32882,
				"method": "rhf"
			},
			{
				"type": "occ",
				"energy": -0.28686,
				"method": "rhf"
			},
			{
				"type": "occ",
				"energy": -0.24091,
				"method": "rhf"
			},
			{
				"type": "occ",
				"energy": -0.23192,
				"method": "rhf"
			},
			{
				"type": "occ",
				"energy": -0.19058,
				"method": "rhf"
			},
			{
				"type": "unocc",
				"energy": 0.00796,
				"method": "rhf"
			},
			{
				"type": "unocc",
				"energy": 0.02279,
				"method": "rhf"
			},
			{
				"type": "unocc",
				"energy": 0.05884,
				"method": "rhf"
			},
			{
				"type": "unocc",
				"energy": 0.08636,
				"method": "rhf"
			},
			{
				"type": "unocc",
				"energy": 0.09901,
				"method": "rhf"
			}
		],
		"cosmo_sigma_profile": { 
			"-0.025": 0.0,
			"-0.024": 0.0,
			"-0.023": 0.0,
			"-0.022": 0.0,
			"-0.021": 0.0,
			"-0.02": 0.0,
			"-0.019": 0.0,
			"-0.018": 0.0,
			"-0.017": 0.0,
			"-0.016": 0.0,
			"-0.015": 0.0,
			"-0.014": 0.0,
			"-0.013": 0.514916283925,
			"-0.012": 1.83121685926,
			"-0.011": 2.49983647295,
			"-0.01": 2.07625623932,
			"-0.009": 2.00654976908,
			"-0.008": 2.47378496289,
			"-0.007": 2.5882782592,
			"-0.006": 3.50321041016,
			"-0.005": 9.28429579976,
			"-0.004": 18.5727448158,
			"-0.003": 24.7755801968,
			"-0.002": 28.3733956464,
			"-0.001": 18.991336664,
			"0.0": 16.7913917782,
			"0.001": 12.4494639734,
			"0.002": 9.00897706301,
			"0.003": 7.68175936541,
			"0.004": 9.04192706072,
			"0.005": 8.04198120087,
			"0.006": 10.3790311487,
			"0.007": 10.1077274109,
			"0.008": 5.3223095867,
			"0.009": 1.43033546795,
			"0.01": 1.53649296514,
			"0.011": 1.31437636661,
			"0.012": 0.981428433535,
			"0.013": 0.393961575781,
			"0.014": 0.441394227933,
			"0.015": 0.964771028968,
			"0.016": 0.516524157764,
			"0.017": 0.727396146363,
			"0.018": 0.489813297857,
			"0.019": 0.400659159597,
			"0.02": 0.0,
			"0.021": 0.0,
			"0.022": 0.0,
			"0.023": 0.0,
			"0.024": 0.0,
			"0.025": 0.0
		}
	}
}
