{
	 "smiles": "FC(F)(F)C1=CC=C(C=C1)N1N=NN=C1CCl", 
	 "Tm": 330.15, 
	 "num_atms": 23, 
	 "gaussian": { 
		 "optdone": 1, 
		 "sigma_profile": "yes", 
		 "theory": "DFT", 
		 "functional": "B3LYP", 
		 "basiset": "6-31G**", 
		 "properties": { 
			 "R2extent": 5930.4548, 
			 "electric_dipole_moment_norm": 3.42793134412, 
			 "electric_quadrupole_moment_norm": 32.1280640758, 
			 "total_energy": -1325.24028883, 
			 "HOMO_LUMO_gap": 0.21038, 
			 "cosmo_polarized_energy": -15.33, 
			 "cosmo_cavitation_energy": 31.91, 
			 "cosmo_dispersion_energy": -22.02, 
			 "cosmo_repulsion_energy": 1.65, 
			 "cosmo_total_nonelectrostatic_energy": 11.54, 
			 "SMD_solvation_energy": 4.38 
		},
		"coords": [
			{
				"x": 2.5299900376,
				"y": 2.6690877619,
				"z": 0.7921353715,
				"element": "F" 
			},
			{
				"x": 2.8438261973,
				"y": 1.5673580557,
				"z": 0.0777164019,
				"element": "C" 
			},
			{
				"x": 2.8893410587,
				"y": 1.9197414256,
				"z": -1.2242147997,
				"element": "F" 
			},
			{
				"x": 4.0960114455,
				"y": 1.2055999626,
				"z": 0.4351455635,
				"element": "F" 
			},
			{
				"x": 1.8607121726,
				"y": 0.4500279032,
				"z": 0.3171938796,
				"element": "C" 
			},
			{
				"x": 1.2093837538,
				"y": 0.3488380252,
				"z": 1.5482578645,
				"element": "C" 
			},
			{
				"x": 0.3441208642,
				"y": -0.7147879603,
				"z": 1.7924182873,
				"element": "C" 
			},
			{
				"x": 0.1228607187,
				"y": -1.6611437937,
				"z": 0.7899707546,
				"element": "C" 
			},
			{
				"x": 0.7748438201,
				"y": -1.5710099271,
				"z": -0.442141333,
				"element": "C" 
			},
			{
				"x": 1.6488412081,
				"y": -0.5133859153,
				"z": -0.6731895218,
				"element": "C" 
			},
			{
				"x": -0.7617724712,
				"y": -2.7563738921,
				"z": 1.0200665454,
				"element": "N" 
			},
			{
				"x": -0.3656083676,
				"y": -4.0329689746,
				"z": 0.7560869506,
				"element": "N" 
			},
			{
				"x": -1.3692553925,
				"y": -4.7949114573,
				"z": 1.0340833448,
				"element": "N" 
			},
			{
				"x": -2.4329311305,
				"y": -4.0706333815,
				"z": 1.4641077218,
				"element": "N" 
			},
			{
				"x": -2.0504849505,
				"y": -2.8071761031,
				"z": 1.4516819742,
				"element": "C" 
			},
			{
				"x": -2.9350278191,
				"y": -1.6666535829,
				"z": 1.8074277069,
				"element": "C" 
			},
			{
				"x": -3.3822974645,
				"y": -0.669532024,
				"z": 0.3529954983,
				"element": "Cl" 
			},
			{
				"x": 1.3826323572,
				"y": 1.0951611435,
				"z": 2.3152183058,
				"element": "H" 
			},
			{
				"x": -0.1335471574,
				"y": -0.81913615,
				"z": 2.7605366445,
				"element": "H" 
			},
			{
				"x": 0.5910036001,
				"y": -2.3225511372,
				"z": -1.2009459898,
				"element": "H" 
			},
			{
				"x": 2.1544872738,
				"y": -0.4269061516,
				"z": -1.6283709973,
				"element": "H" 
			},
			{
				"x": -3.8578476433,
				"y": -2.0711207752,
				"z": 2.2193401601,
				"element": "H" 
			},
			{
				"x": -2.4799821108,
				"y": -0.979623052,
				"z": 2.5195796662,
				"element": "H" 
			}
		],
		 "valence_orbital": [ 
			{
				"type": "occ",
				"energy": -0.31117,
				"method": "rhf"
			},
			{
				"type": "occ",
				"energy": -0.31045,
				"method": "rhf"
			},
			{
				"type": "occ",
				"energy": -0.30397,
				"method": "rhf"
			},
			{
				"type": "occ",
				"energy": -0.29579,
				"method": "rhf"
			},
			{
				"type": "occ",
				"energy": -0.28283,
				"method": "rhf"
			},
			{
				"type": "unocc",
				"energy": -0.07245,
				"method": "rhf"
			},
			{
				"type": "unocc",
				"energy": -0.04657,
				"method": "rhf"
			},
			{
				"type": "unocc",
				"energy": -0.03851,
				"method": "rhf"
			},
			{
				"type": "unocc",
				"energy": -0.01039,
				"method": "rhf"
			},
			{
				"type": "unocc",
				"energy": 0.03279,
				"method": "rhf"
			}
		],
		"cosmo_sigma_profile": { 
			"-0.025": 0.0,
			"-0.024": 0.0,
			"-0.023": 0.0,
			"-0.022": 0.0,
			"-0.021": 0.0,
			"-0.02": 0.0,
			"-0.019": 0.0,
			"-0.018": 0.0,
			"-0.017": 0.0,
			"-0.016": 0.0,
			"-0.015": 0.0,
			"-0.014": 0.0242431844604,
			"-0.013": 0.462435439944,
			"-0.012": 1.31993704073,
			"-0.011": 2.00683375111,
			"-0.01": 4.32060358964,
			"-0.009": 5.84362458255,
			"-0.008": 10.036249322,
			"-0.007": 12.6401853083,
			"-0.006": 11.6456473751,
			"-0.005": 9.39605386448,
			"-0.004": 9.89521459106,
			"-0.003": 8.87090370931,
			"-0.002": 13.0320554125,
			"-0.001": 15.0375336663,
			"0.0": 21.4399102214,
			"0.001": 25.9665170148,
			"0.002": 30.348091264,
			"0.003": 27.2092998243,
			"0.004": 10.3817711349,
			"0.005": 10.0097084434,
			"0.006": 3.62511515954,
			"0.007": 5.36168772511,
			"0.008": 3.73458542529,
			"0.009": 4.77149323858,
			"0.01": 4.58336332512,
			"0.011": 2.7917876183,
			"0.012": 2.75066963479,
			"0.013": 1.61972369346,
			"0.014": 0.549718879461,
			"0.015": 0.0,
			"0.016": 0.0,
			"0.017": 0.0,
			"0.018": 0.0,
			"0.019": 0.0,
			"0.02": 0.0,
			"0.021": 0.0,
			"0.022": 0.0,
			"0.023": 0.0,
			"0.024": 0.0,
			"0.025": 0.0
		}
	}
}
