{
	 "smiles": "CC(=O)CS(=O)(=O)C1=CC=C(Cl)C=C1", 
	 "Tm": 363.15, 
	 "num_atms": 23, 
	 "gaussian": { 
		 "optdone": 1, 
		 "sigma_profile": "yes", 
		 "theory": "DFT", 
		 "functional": "B3LYP", 
		 "basiset": "6-31G**", 
		 "properties": { 
			 "R2extent": 4490.8832, 
			 "electric_dipole_moment_norm": 2.13380642515, 
			 "electric_quadrupole_moment_norm": 20.6400070555, 
			 "total_energy": -1432.36321717, 
			 "HOMO_LUMO_gap": 0.20897, 
			 "cosmo_polarized_energy": -15.34, 
			 "cosmo_cavitation_energy": 30.61, 
			 "cosmo_dispersion_energy": -22.1, 
			 "cosmo_repulsion_energy": 1.7, 
			 "cosmo_total_nonelectrostatic_energy": 10.22, 
			 "SMD_solvation_energy": 5.02 
		},
		"coords": [
			{
				"x": 3.8176716853,
				"y": -0.5652672847,
				"z": 0.3427339284,
				"element": "C" 
			},
			{
				"x": 2.4139835713,
				"y": -0.0187110239,
				"z": 0.4347348106,
				"element": "C" 
			},
			{
				"x": 1.6562370569,
				"y": -0.2628021691,
				"z": 1.3530261557,
				"element": "O" 
			},
			{
				"x": 1.9425568897,
				"y": 0.8607625338,
				"z": -0.7265112819,
				"element": "C" 
			},
			{
				"x": 1.121248906,
				"y": -0.118312819,
				"z": -2.0473678826,
				"element": "S" 
			},
			{
				"x": 1.9242268907,
				"y": -1.3375244535,
				"z": -2.2421185374,
				"element": "O" 
			},
			{
				"x": 0.8676173675,
				"y": 0.8157185944,
				"z": -3.1535682016,
				"element": "O" 
			},
			{
				"x": -0.463936201,
				"y": -0.596593478,
				"z": -1.3530209753,
				"element": "C" 
			},
			{
				"x": -0.5719822157,
				"y": -1.7883424005,
				"z": -0.6343678862,
				"element": "C" 
			},
			{
				"x": -1.8081086464,
				"y": -2.1561532756,
				"z": -0.1075637077,
				"element": "C" 
			},
			{
				"x": -2.9107474137,
				"y": -1.324602819,
				"z": -0.3132253359,
				"element": "C" 
			},
			{
				"x": -4.4651936236,
				"y": -1.7865041363,
				"z": 0.3490115022,
				"element": "Cl" 
			},
			{
				"x": -2.8064484664,
				"y": -0.1372056325,
				"z": -1.0409431275,
				"element": "C" 
			},
			{
				"x": -1.5693565782,
				"y": 0.2290681346,
				"z": -1.5666785914,
				"element": "C" 
			},
			{
				"x": 3.9190178683,
				"y": -1.1376524937,
				"z": -0.5862572711,
				"element": "H" 
			},
			{
				"x": 4.5443209329,
				"y": 0.2549118534,
				"z": 0.3011082013,
				"element": "H" 
			},
			{
				"x": 4.0265152743,
				"y": -1.2000898784,
				"z": 1.2044722903,
				"element": "H" 
			},
			{
				"x": 2.7628619428,
				"y": 1.3549636544,
				"z": -1.2543280163,
				"element": "H" 
			},
			{
				"x": 1.216559114,
				"y": 1.5979360878,
				"z": -0.379103584,
				"element": "H" 
			},
			{
				"x": 0.2947038337,
				"y": -2.4253099241,
				"z": -0.5015425632,
				"element": "H" 
			},
			{
				"x": -1.9181737618,
				"y": -3.0767997464,
				"z": 0.4537837391,
				"element": "H" 
			},
			{
				"x": -3.681213718,
				"y": 0.4834505717,
				"z": -1.1979322644,
				"element": "H" 
			},
			{
				"x": -1.4639607084,
				"y": 1.1339601045,
				"z": -2.1553414012,
				"element": "H" 
			}
		],
		 "valence_orbital": [ 
			{
				"type": "occ",
				"energy": -0.31274,
				"method": "rhf"
			},
			{
				"type": "occ",
				"energy": -0.30237,
				"method": "rhf"
			},
			{
				"type": "occ",
				"energy": -0.28591,
				"method": "rhf"
			},
			{
				"type": "occ",
				"energy": -0.27187,
				"method": "rhf"
			},
			{
				"type": "occ",
				"energy": -0.26635,
				"method": "rhf"
			},
			{
				"type": "unocc",
				"energy": -0.05738,
				"method": "rhf"
			},
			{
				"type": "unocc",
				"energy": -0.04466,
				"method": "rhf"
			},
			{
				"type": "unocc",
				"energy": -0.03572,
				"method": "rhf"
			},
			{
				"type": "unocc",
				"energy": 0.01449,
				"method": "rhf"
			},
			{
				"type": "unocc",
				"energy": 0.0589,
				"method": "rhf"
			}
		],
		"cosmo_sigma_profile": { 
			"-0.025": 0.0,
			"-0.024": 0.0,
			"-0.023": 0.0,
			"-0.022": 0.0,
			"-0.021": 0.0,
			"-0.02": 0.0,
			"-0.019": 0.0,
			"-0.018": 0.0,
			"-0.017": 0.0,
			"-0.016": 0.0,
			"-0.015": 0.0,
			"-0.014": 0.0,
			"-0.013": 0.0,
			"-0.012": 0.0,
			"-0.011": 0.0,
			"-0.01": 2.14536582238,
			"-0.009": 6.79748165247,
			"-0.008": 12.5090811635,
			"-0.007": 13.3190244042,
			"-0.006": 12.8131693063,
			"-0.005": 13.2164013591,
			"-0.004": 11.6841447889,
			"-0.003": 13.2697712048,
			"-0.002": 17.092949932,
			"-0.001": 17.8288043808,
			"0.0": 20.0886565565,
			"0.001": 22.0880780398,
			"0.002": 11.3900393412,
			"0.003": 12.9826516687,
			"0.004": 12.1171932687,
			"0.005": 4.22539509396,
			"0.006": 5.22297863923,
			"0.007": 3.80017513531,
			"0.008": 4.41821597518,
			"0.009": 6.14189944401,
			"0.01": 9.35937630374,
			"0.011": 10.8121044548,
			"0.012": 3.45323411632,
			"0.013": 0.0432481901246,
			"0.014": 0.0,
			"0.015": 0.0,
			"0.016": 0.0,
			"0.017": 0.0,
			"0.018": 0.0,
			"0.019": 0.0,
			"0.02": 0.0,
			"0.021": 0.0,
			"0.022": 0.0,
			"0.023": 0.0,
			"0.024": 0.0,
			"0.025": 0.0
		}
	}
}
