{
	 "smiles": "NCCC(=O)N1CCN(CC1)C1=NC=CC=C1", 
	 "Tm": 350.15, 
	 "num_atms": 35, 
	 "gaussian": { 
		 "optdone": 1, 
		 "sigma_profile": "yes", 
		 "theory": "DFT", 
		 "functional": "B3LYP", 
		 "basiset": "6-31G**", 
		 "properties": { 
			 "R2extent": 5686.655, 
			 "electric_dipole_moment_norm": 1.70564702679, 
			 "electric_quadrupole_moment_norm": 13.2706872294, 
			 "total_energy": -762.355441178, 
			 "HOMO_LUMO_gap": 0.18562, 
			 "cosmo_polarized_energy": -16.44, 
			 "cosmo_cavitation_energy": 35.96, 
			 "cosmo_dispersion_energy": -26.07, 
			 "cosmo_repulsion_energy": 2.04, 
			 "cosmo_total_nonelectrostatic_energy": 11.93, 
			 "SMD_solvation_energy": 2.95 
		},
		"coords": [
			{
				"x": -1.701455061,
				"y": -3.5791323551,
				"z": -0.8051055214,
				"element": "N" 
			},
			{
				"x": -2.127338692,
				"y": -2.4082247619,
				"z": -1.5707562,
				"element": "C" 
			},
			{
				"x": -3.0070665637,
				"y": -1.4757344161,
				"z": -0.712080759,
				"element": "C" 
			},
			{
				"x": -2.5285058139,
				"y": -1.3600955772,
				"z": 0.7337893516,
				"element": "C" 
			},
			{
				"x": -2.998087619,
				"y": -2.1049664719,
				"z": 1.5925236469,
				"element": "O" 
			},
			{
				"x": -1.5733490206,
				"y": -0.4180055005,
				"z": 1.0278521971,
				"element": "N" 
			},
			{
				"x": -1.0286179141,
				"y": -0.3724888649,
				"z": 2.3832466953,
				"element": "C" 
			},
			{
				"x": 0.4985361994,
				"y": -0.4387775075,
				"z": 2.3583812444,
				"element": "C" 
			},
			{
				"x": 1.0368408647,
				"y": 0.5795512666,
				"z": 1.4587370837,
				"element": "N" 
			},
			{
				"x": 0.0785592781,
				"y": 1.3798766167,
				"z": 0.7083729952,
				"element": "C" 
			},
			{
				"x": -0.97139691,
				"y": 0.4885479132,
				"z": 0.0395438141,
				"element": "C" 
			},
			{
				"x": 2.3974112892,
				"y": 0.7394912553,
				"z": 1.2951047717,
				"element": "C" 
			},
			{
				"x": 2.8055276636,
				"y": 1.7024551235,
				"z": 0.4455955146,
				"element": "N" 
			},
			{
				"x": 4.1174512632,
				"y": 1.8811802017,
				"z": 0.2675428533,
				"element": "C" 
			},
			{
				"x": 5.1046297421,
				"y": 1.1379988583,
				"z": 0.9082068985,
				"element": "C" 
			},
			{
				"x": 4.6791040616,
				"y": 0.1389861485,
				"z": 1.7891753151,
				"element": "C" 
			},
			{
				"x": 3.3239736589,
				"y": -0.0748173383,
				"z": 1.993947703,
				"element": "C" 
			},
			{
				"x": -2.4782938921,
				"y": -3.9565341503,
				"z": -0.2686629042,
				"element": "H" 
			},
			{
				"x": -1.367221083,
				"y": -4.3108692004,
				"z": -1.4251650678,
				"element": "H" 
			},
			{
				"x": -1.2279527646,
				"y": -1.8743672618,
				"z": -1.9039025073,
				"element": "H" 
			},
			{
				"x": -2.7009750386,
				"y": -2.640740337,
				"z": -2.4852728423,
				"element": "H" 
			},
			{
				"x": -4.0126207478,
				"y": -1.8988608659,
				"z": -0.637699412,
				"element": "H" 
			},
			{
				"x": -3.0930075487,
				"y": -0.5034491183,
				"z": -1.2075655392,
				"element": "H" 
			},
			{
				"x": -1.4368162164,
				"y": -1.2286108785,
				"z": 2.9200028478,
				"element": "H" 
			},
			{
				"x": -1.3618998055,
				"y": 0.5361225401,
				"z": 2.9016841769,
				"element": "H" 
			},
			{
				"x": 0.8770549402,
				"y": -0.2933662421,
				"z": 3.3809614473,
				"element": "H" 
			},
			{
				"x": 0.8094367898,
				"y": -1.4414677052,
				"z": 2.0311911795,
				"element": "H" 
			},
			{
				"x": 0.630334333,
				"y": 1.9363926634,
				"z": -0.0481392279,
				"element": "H" 
			},
			{
				"x": -0.4134984109,
				"y": 2.1158640729,
				"z": 1.3606149008,
				"element": "H" 
			},
			{
				"x": -1.735946346,
				"y": 1.130946811,
				"z": -0.4169768151,
				"element": "H" 
			},
			{
				"x": -0.4902512965,
				"y": -0.0839186719,
				"z": -0.7618825324,
				"element": "H" 
			},
			{
				"x": 4.3912345966,
				"y": 2.6711761693,
				"z": -0.4311038867,
				"element": "H" 
			},
			{
				"x": 6.1558438983,
				"y": 1.332125812,
				"z": 0.7264640494,
				"element": "H" 
			},
			{
				"x": 5.4032657075,
				"y": -0.4763829031,
				"z": 2.3164469919,
				"element": "H" 
			},
			{
				"x": 2.9912964584,
				"y": -0.8517053247,
				"z": 2.670527537,
				"element": "H" 
			}
		],
		 "valence_orbital": [ 
			{
				"type": "occ",
				"energy": -0.25094,
				"method": "rhf"
			},
			{
				"type": "occ",
				"energy": -0.24027,
				"method": "rhf"
			},
			{
				"type": "occ",
				"energy": -0.23311,
				"method": "rhf"
			},
			{
				"type": "occ",
				"energy": -0.22815,
				"method": "rhf"
			},
			{
				"type": "occ",
				"energy": -0.19758,
				"method": "rhf"
			},
			{
				"type": "unocc",
				"energy": -0.01196,
				"method": "rhf"
			},
			{
				"type": "unocc",
				"energy": 0.01477,
				"method": "rhf"
			},
			{
				"type": "unocc",
				"energy": 0.02758,
				"method": "rhf"
			},
			{
				"type": "unocc",
				"energy": 0.07575,
				"method": "rhf"
			},
			{
				"type": "unocc",
				"energy": 0.09392,
				"method": "rhf"
			}
		],
		"cosmo_sigma_profile": { 
			"-0.025": 0.0,
			"-0.024": 0.0,
			"-0.023": 0.0,
			"-0.022": 0.0,
			"-0.021": 0.0,
			"-0.02": 0.0,
			"-0.019": 0.0,
			"-0.018": 0.0,
			"-0.017": 0.0,
			"-0.016": 0.0,
			"-0.015": 0.0,
			"-0.014": 0.0,
			"-0.013": 0.0,
			"-0.012": 0.0,
			"-0.011": 0.0126777044184,
			"-0.01": 0.786219013673,
			"-0.009": 1.78341891196,
			"-0.008": 1.78133503637,
			"-0.007": 3.00830512732,
			"-0.006": 11.9797417238,
			"-0.005": 31.2761028291,
			"-0.004": 39.235806086,
			"-0.003": 30.8136712916,
			"-0.002": 27.6013878656,
			"-0.001": 20.075646992,
			"0.0": 12.0384654861,
			"0.001": 11.0898842905,
			"0.002": 12.160599854,
			"0.003": 12.4256421921,
			"0.004": 13.9749065038,
			"0.005": 12.2473863036,
			"0.006": 5.40465909467,
			"0.007": 3.49040166974,
			"0.008": 3.08203407767,
			"0.009": 3.9608708088,
			"0.01": 3.9029471575,
			"0.011": 2.67149389447,
			"0.012": 4.44557373077,
			"0.013": 3.45470716396,
			"0.014": 4.91729724037,
			"0.015": 2.07686635413,
			"0.016": 1.04570425576,
			"0.017": 0.420832418064,
			"0.018": 0.602545318998,
			"0.019": 0.208903784009,
			"0.02": 0.0,
			"0.021": 0.0,
			"0.022": 0.0,
			"0.023": 0.0,
			"0.024": 0.0,
			"0.025": 0.0
		}
	}
}
