{
	 "smiles": "NNC(=S)NCC1=CC=C(F)C=C1", 
	 "Tm": 414.15, 
	 "num_atms": 23, 
	 "gaussian": { 
		 "optdone": 1, 
		 "sigma_profile": "yes", 
		 "theory": "DFT", 
		 "functional": "B3LYP", 
		 "basiset": "6-31G**", 
		 "properties": { 
			 "R2extent": 4327.8894, 
			 "electric_dipole_moment_norm": 5.39797587064, 
			 "electric_quadrupole_moment_norm": 24.8780102307, 
			 "total_energy": -973.12893619, 
			 "HOMO_LUMO_gap": 0.17815, 
			 "cosmo_polarized_energy": -18.93, 
			 "cosmo_cavitation_energy": 29.6, 
			 "cosmo_dispersion_energy": -21.5, 
			 "cosmo_repulsion_energy": 1.67, 
			 "cosmo_total_nonelectrostatic_energy": 9.78, 
			 "SMD_solvation_energy": 4.61 
		},
		"coords": [
			{
				"x": -1.8629296762,
				"y": 2.6062732103,
				"z": -0.5947080865,
				"element": "N" 
			},
			{
				"x": -1.7655854907,
				"y": 1.7229908782,
				"z": -1.6965715973,
				"element": "N" 
			},
			{
				"x": -0.5283805105,
				"y": 1.2732968568,
				"z": -2.1112236888,
				"element": "C" 
			},
			{
				"x": -0.2551929889,
				"y": 0.9866932916,
				"z": -3.7501605,
				"element": "S" 
			},
			{
				"x": 0.4142764945,
				"y": 1.0422487438,
				"z": -1.1703667769,
				"element": "N" 
			},
			{
				"x": 0.2181295554,
				"y": 0.813741894,
				"z": 0.2682863648,
				"element": "C" 
			},
			{
				"x": 1.2413187394,
				"y": -0.1719891692,
				"z": 0.7919648403,
				"element": "C" 
			},
			{
				"x": 1.2985184448,
				"y": -1.4804040219,
				"z": 0.2869630696,
				"element": "C" 
			},
			{
				"x": 2.230384784,
				"y": -2.3963039294,
				"z": 0.7702210646,
				"element": "C" 
			},
			{
				"x": 3.1078121653,
				"y": -1.9902995102,
				"z": 1.7713889959,
				"element": "C" 
			},
			{
				"x": 4.01081722,
				"y": -2.872415483,
				"z": 2.2456369699,
				"element": "F" 
			},
			{
				"x": 3.0814442512,
				"y": -0.7038499851,
				"z": 2.2948483933,
				"element": "C" 
			},
			{
				"x": 2.1440952335,
				"y": 0.201263525,
				"z": 1.7941616889,
				"element": "C" 
			},
			{
				"x": -1.876096263,
				"y": 3.5718709686,
				"z": -0.9217070284,
				"element": "H" 
			},
			{
				"x": -2.7336274449,
				"y": 2.41855589,
				"z": -0.1065160986,
				"element": "H" 
			},
			{
				"x": -2.3675706859,
				"y": 1.9016174322,
				"z": -2.4949698085,
				"element": "H" 
			},
			{
				"x": 1.2908417121,
				"y": 0.7250595247,
				"z": -1.5605896176,
				"element": "H" 
			},
			{
				"x": 0.2767159644,
				"y": 1.7560137417,
				"z": 0.8204984199,
				"element": "H" 
			},
			{
				"x": -0.795088367,
				"y": 0.4261927375,
				"z": 0.416414003,
				"element": "H" 
			},
			{
				"x": 0.607999787,
				"y": -1.785020603,
				"z": -0.4950441387,
				"element": "H" 
			},
			{
				"x": 2.2844678642,
				"y": -3.4101711908,
				"z": 0.3888285311,
				"element": "H" 
			},
			{
				"x": 3.785414509,
				"y": -0.4256357273,
				"z": 3.0715398294,
				"element": "H" 
			},
			{
				"x": 2.1160347021,
				"y": 1.2124709256,
				"z": 2.1911051705,
				"element": "H" 
			}
		],
		 "valence_orbital": [ 
			{
				"type": "occ",
				"energy": -0.27097,
				"method": "rhf"
			},
			{
				"type": "occ",
				"energy": -0.26599,
				"method": "rhf"
			},
			{
				"type": "occ",
				"energy": -0.25049,
				"method": "rhf"
			},
			{
				"type": "occ",
				"energy": -0.21097,
				"method": "rhf"
			},
			{
				"type": "occ",
				"energy": -0.19929,
				"method": "rhf"
			},
			{
				"type": "unocc",
				"energy": -0.02114,
				"method": "rhf"
			},
			{
				"type": "unocc",
				"energy": -0.01489,
				"method": "rhf"
			},
			{
				"type": "unocc",
				"energy": -0.00125,
				"method": "rhf"
			},
			{
				"type": "unocc",
				"energy": 0.05396,
				"method": "rhf"
			},
			{
				"type": "unocc",
				"energy": 0.07913,
				"method": "rhf"
			}
		],
		"cosmo_sigma_profile": { 
			"-0.025": 0.0,
			"-0.024": 0.0,
			"-0.023": 0.0,
			"-0.022": 0.0,
			"-0.021": 0.0,
			"-0.02": 0.0,
			"-0.019": 0.0,
			"-0.018": 0.0,
			"-0.017": 0.0,
			"-0.016": 0.0,
			"-0.015": 0.0,
			"-0.014": 0.046587251054,
			"-0.013": 1.74574251495,
			"-0.012": 5.28655130107,
			"-0.011": 6.05100525391,
			"-0.01": 5.04887762043,
			"-0.009": 4.92831717154,
			"-0.008": 3.31206139899,
			"-0.007": 7.74322281011,
			"-0.006": 13.2474123077,
			"-0.005": 13.7993835941,
			"-0.004": 13.977034748,
			"-0.003": 13.0391414332,
			"-0.002": 10.5061223714,
			"-0.001": 11.3300868764,
			"0.0": 11.6369649369,
			"0.001": 14.1255676319,
			"0.002": 14.7783526155,
			"0.003": 17.4908566843,
			"0.004": 20.4244522737,
			"0.005": 9.73856010183,
			"0.006": 4.5754160834,
			"0.007": 4.83417197188,
			"0.008": 4.64212255319,
			"0.009": 3.78560042054,
			"0.01": 5.03006228618,
			"0.011": 6.77740540831,
			"0.012": 6.94500744941,
			"0.013": 2.55698018069,
			"0.014": 0.0750108824377,
			"0.015": 0.0,
			"0.016": 0.0,
			"0.017": 0.0,
			"0.018": 0.0,
			"0.019": 0.0,
			"0.02": 0.0,
			"0.021": 0.0,
			"0.022": 0.0,
			"0.023": 0.0,
			"0.024": 0.0,
			"0.025": 0.0
		}
	}
}
