{
	 "smiles": "S=P(N1CC1)(N1CC1)N1CC1", 
	 "Tm": 328.65, 
	 "num_atms": 23, 
	 "gaussian": { 
		 "optdone": 1, 
		 "sigma_profile": "yes", 
		 "theory": "DFT", 
		 "functional": "B3LYP", 
		 "basiset": "6-31G**", 
		 "properties": { 
			 "R2extent": 2062.0591, 
			 "electric_dipole_moment_norm": 3.22039300397, 
			 "electric_quadrupole_moment_norm": 11.851877272, 
			 "total_energy": -1139.57986184, 
			 "HOMO_LUMO_gap": 0.26939, 
			 "cosmo_polarized_energy": -12.79, 
			 "cosmo_cavitation_energy": 28.52, 
			 "cosmo_dispersion_energy": -20.1, 
			 "cosmo_repulsion_energy": 1.54, 
			 "cosmo_total_nonelectrostatic_energy": 9.96, 
			 "SMD_solvation_energy": -1.69 
		},
		"coords": [
			{
				"x": 0.5992885142,
				"y": -0.1442134522,
				"z": -1.7677743575,
				"element": "S" 
			},
			{
				"x": 0.1084563436,
				"y": -0.0620244685,
				"z": 0.1318798622,
				"element": "P" 
			},
			{
				"x": 1.4308587331,
				"y": 0.1641313281,
				"z": 1.1613353452,
				"element": "N" 
			},
			{
				"x": 1.329946207,
				"y": 0.8118190009,
				"z": 2.4744508893,
				"element": "C" 
			},
			{
				"x": 2.0705966556,
				"y": 1.4649902527,
				"z": 1.3572769787,
				"element": "C" 
			},
			{
				"x": -0.5883712525,
				"y": -1.4389102537,
				"z": 0.8546905506,
				"element": "N" 
			},
			{
				"x": -1.3657652788,
				"y": -2.3980850576,
				"z": 0.0542488532,
				"element": "C" 
			},
			{
				"x": -0.0222181756,
				"y": -2.7656860945,
				"z": 0.5679636012,
				"element": "C" 
			},
			{
				"x": -1.0491968407,
				"y": 1.126097479,
				"z": 0.5735999913,
				"element": "N" 
			},
			{
				"x": -1.312571138,
				"y": 2.2880939365,
				"z": -0.2910722411,
				"element": "C" 
			},
			{
				"x": -2.3318749099,
				"y": 1.2207294825,
				"z": -0.1427430604,
				"element": "C" 
			},
			{
				"x": 1.8771195346,
				"y": 0.3070316373,
				"z": 3.2668470485,
				"element": "H" 
			},
			{
				"x": 0.3685274504,
				"y": 1.2330965099,
				"z": 2.7558053886,
				"element": "H" 
			},
			{
				"x": 1.6170059994,
				"y": 2.341372013,
				"z": 0.8987514337,
				"element": "H" 
			},
			{
				"x": 3.1571782517,
				"y": 1.4472983411,
				"z": 1.3309891836,
				"element": "H" 
			},
			{
				"x": -1.4478935083,
				"y": -2.216648011,
				"z": -1.0160267646,
				"element": "H" 
			},
			{
				"x": -2.2631736992,
				"y": -2.7664853239,
				"z": 0.5444442487,
				"element": "H" 
			},
			{
				"x": 0.7852292422,
				"y": -2.8282737934,
				"z": -0.1587189294,
				"element": "H" 
			},
			{
				"x": 0.0783094333,
				"y": -3.4057056344,
				"z": 1.4405235101,
				"element": "H" 
			},
			{
				"x": -0.7839078642,
				"y": 2.3379180378,
				"z": -1.2414047274,
				"element": "H" 
			},
			{
				"x": -1.4244738898,
				"y": 3.228015088,
				"z": 0.2437415635,
				"element": "H" 
			},
			{
				"x": -3.1975457245,
				"y": 1.3649260666,
				"z": 0.4985937754,
				"element": "H" 
			},
			{
				"x": -2.4863240837,
				"y": 0.5702129155,
				"z": -1.0016021434,
				"element": "H" 
			}
		],
		 "valence_orbital": [ 
			{
				"type": "occ",
				"energy": -0.27721,
				"method": "rhf"
			},
			{
				"type": "occ",
				"energy": -0.26999,
				"method": "rhf"
			},
			{
				"type": "occ",
				"energy": -0.26008,
				"method": "rhf"
			},
			{
				"type": "occ",
				"energy": -0.22538,
				"method": "rhf"
			},
			{
				"type": "occ",
				"energy": -0.22203,
				"method": "rhf"
			},
			{
				"type": "unocc",
				"energy": 0.04736,
				"method": "rhf"
			},
			{
				"type": "unocc",
				"energy": 0.05466,
				"method": "rhf"
			},
			{
				"type": "unocc",
				"energy": 0.06593,
				"method": "rhf"
			},
			{
				"type": "unocc",
				"energy": 0.08517,
				"method": "rhf"
			},
			{
				"type": "unocc",
				"energy": 0.09142,
				"method": "rhf"
			}
		],
		"cosmo_sigma_profile": { 
			"-0.025": 0.0,
			"-0.024": 0.0,
			"-0.023": 0.0,
			"-0.022": 0.0,
			"-0.021": 0.0,
			"-0.02": 0.0,
			"-0.019": 0.0,
			"-0.018": 0.0,
			"-0.017": 0.0,
			"-0.016": 0.0,
			"-0.015": 0.0,
			"-0.014": 0.0,
			"-0.013": 0.0,
			"-0.012": 0.0,
			"-0.011": 0.0,
			"-0.01": 0.0,
			"-0.009": 0.0,
			"-0.008": 0.0,
			"-0.007": 6.15891787778,
			"-0.006": 15.3041389368,
			"-0.005": 23.4719173387,
			"-0.004": 23.176348388,
			"-0.003": 27.8342622357,
			"-0.002": 19.9965984993,
			"-0.001": 15.4700351821,
			"0.0": 14.2747751066,
			"0.001": 10.6577470319,
			"0.002": 6.57214127647,
			"0.003": 5.83954227963,
			"0.004": 6.91160864145,
			"0.005": 5.6787886254,
			"0.006": 7.722202426,
			"0.007": 7.83442798801,
			"0.008": 8.01344297906,
			"0.009": 8.4208408703,
			"0.01": 6.71495823416,
			"0.011": 4.3349783649,
			"0.012": 1.42381753283,
			"0.013": 0.928736030235,
			"0.014": 0.514916494607,
			"0.015": 0.0,
			"0.016": 0.0,
			"0.017": 0.0,
			"0.018": 0.0,
			"0.019": 0.0,
			"0.02": 0.0,
			"0.021": 0.0,
			"0.022": 0.0,
			"0.023": 0.0,
			"0.024": 0.0,
			"0.025": 0.0
		}
	}
}
