{
	 "smiles": "NC1=NN(CC2=CC=C(Br)C=C2)C=N1", 
	 "Tm": 443.15, 
	 "num_atms": 23, 
	 "gaussian": { 
		 "optdone": 1, 
		 "sigma_profile": "yes", 
		 "theory": "DFT", 
		 "functional": "B3LYP", 
		 "basiset": "6-31G**", 
		 "properties": { 
			 "R2extent": 7485.7184, 
			 "electric_dipole_moment_norm": 1.05438214135, 
			 "electric_quadrupole_moment_norm": 19.6739127791, 
			 "total_energy": -3138.78273442, 
			 "HOMO_LUMO_gap": 0.18994, 
			 "cosmo_polarized_energy": -14.96, 
			 "cosmo_cavitation_energy": 30.21, 
			 "cosmo_dispersion_energy": -22.28, 
			 "cosmo_repulsion_energy": 1.77, 
			 "cosmo_total_nonelectrostatic_energy": 9.69, 
			 "SMD_solvation_energy": 1.56 
		},
		"coords": [
			{
				"x": 3.3650762599,
				"y": -1.4501319942,
				"z": -1.5668478494,
				"element": "N" 
			},
			{
				"x": 2.1529390146,
				"y": -1.3105625084,
				"z": -0.9207061744,
				"element": "C" 
			},
			{
				"x": 2.0158351291,
				"y": -0.6427868274,
				"z": 0.2231519869,
				"element": "N" 
			},
			{
				"x": 0.6882706934,
				"y": -0.8431227511,
				"z": 0.5087467769,
				"element": "N" 
			},
			{
				"x": 0.0791711152,
				"y": -0.2148701533,
				"z": 1.6720531025,
				"element": "C" 
			},
			{
				"x": -0.334184544,
				"y": 1.2303046229,
				"z": 1.4535745769,
				"element": "C" 
			},
			{
				"x": 0.5860227194,
				"y": 2.1760669607,
				"z": 0.9811370851,
				"element": "C" 
			},
			{
				"x": 0.2107040657,
				"y": 3.5060286884,
				"z": 0.8023376316,
				"element": "C" 
			},
			{
				"x": -1.0948145961,
				"y": 3.8938686744,
				"z": 1.105629398,
				"element": "C" 
			},
			{
				"x": -1.6131140591,
				"y": 5.7183177822,
				"z": 0.8657576998,
				"element": "Br" 
			},
			{
				"x": -2.0263690699,
				"y": 2.9738257524,
				"z": 1.578634929,
				"element": "C" 
			},
			{
				"x": -1.6372456338,
				"y": 1.6432997152,
				"z": 1.7465047401,
				"element": "C" 
			},
			{
				"x": 0.1263018872,
				"y": -1.5848864017,
				"z": -0.4644499298,
				"element": "C" 
			},
			{
				"x": 1.0169137617,
				"y": -1.9097501714,
				"z": -1.3876378611,
				"element": "N" 
			},
			{
				"x": 3.2702156473,
				"y": -1.640857087,
				"z": -2.5543602958,
				"element": "H" 
			},
			{
				"x": 4.035191342,
				"y": -0.7242602203,
				"z": -1.355781752,
				"element": "H" 
			},
			{
				"x": -0.7901251083,
				"y": -0.8156654525,
				"z": 1.9538923712,
				"element": "H" 
			},
			{
				"x": 0.8103586818,
				"y": -0.2906681209,
				"z": 2.4829445361,
				"element": "H" 
			},
			{
				"x": 1.5966761345,
				"y": 1.8598488199,
				"z": 0.7420212216,
				"element": "H" 
			},
			{
				"x": 0.9233554384,
				"y": 4.2352937349,
				"z": 0.4341189371,
				"element": "H" 
			},
			{
				"x": -3.0384986566,
				"y": 3.2873593389,
				"z": 1.8073208966,
				"element": "H" 
			},
			{
				"x": -2.3650788197,
				"y": 0.9230724102,
				"z": 2.1123869371,
				"element": "H" 
			},
			{
				"x": -0.9175014025,
				"y": -1.8690248118,
				"z": -0.4600289641,
				"element": "H" 
			}
		],
		 "valence_orbital": [ 
			{
				"type": "occ",
				"energy": -0.27965,
				"method": "rhf"
			},
			{
				"type": "occ",
				"energy": -0.27157,
				"method": "rhf"
			},
			{
				"type": "occ",
				"energy": -0.26808,
				"method": "rhf"
			},
			{
				"type": "occ",
				"energy": -0.24545,
				"method": "rhf"
			},
			{
				"type": "occ",
				"energy": -0.2136,
				"method": "rhf"
			},
			{
				"type": "unocc",
				"energy": -0.02366,
				"method": "rhf"
			},
			{
				"type": "unocc",
				"energy": -0.01917,
				"method": "rhf"
			},
			{
				"type": "unocc",
				"energy": 0.00433,
				"method": "rhf"
			},
			{
				"type": "unocc",
				"energy": 0.01358,
				"method": "rhf"
			},
			{
				"type": "unocc",
				"energy": 0.07141,
				"method": "rhf"
			}
		],
		"cosmo_sigma_profile": { 
			"-0.025": 0.0,
			"-0.024": 0.0,
			"-0.023": 0.0,
			"-0.022": 0.0,
			"-0.021": 0.0,
			"-0.02": 0.0,
			"-0.019": 0.0,
			"-0.018": 0.0,
			"-0.017": 0.0,
			"-0.016": 0.0,
			"-0.015": 0.0,
			"-0.014": 0.0662162214396,
			"-0.013": 1.58275985845,
			"-0.012": 2.12703950616,
			"-0.011": 2.08681931203,
			"-0.01": 4.23572578739,
			"-0.009": 6.01222835479,
			"-0.008": 7.40096945506,
			"-0.007": 10.7495059228,
			"-0.006": 12.079838008,
			"-0.005": 13.1776621112,
			"-0.004": 13.4801422292,
			"-0.003": 11.9325472971,
			"-0.002": 11.4192802937,
			"-0.001": 11.9316228189,
			"0.0": 13.6305669488,
			"0.001": 18.2493733474,
			"0.002": 21.8602969342,
			"0.003": 21.6105434872,
			"0.004": 21.4690794076,
			"0.005": 10.7442122921,
			"0.006": 3.71140647241,
			"0.007": 4.26057274098,
			"0.008": 3.70320362084,
			"0.009": 1.58687262665,
			"0.01": 3.45028284694,
			"0.011": 2.82817187297,
			"0.012": 2.03157156996,
			"0.013": 2.69197492572,
			"0.014": 2.12114417024,
			"0.015": 1.41951889462,
			"0.016": 0.787543147841,
			"0.017": 0.502202504154,
			"0.018": 0.0,
			"0.019": 0.0,
			"0.02": 0.0,
			"0.021": 0.0,
			"0.022": 0.0,
			"0.023": 0.0,
			"0.024": 0.0,
			"0.025": 0.0
		}
	}
}
