{
	 "smiles": "OC(=O)C1=NC(Cl)=CC(Cl)=C1", 
	 "Tm": 367.15, 
	 "num_atms": 14, 
	 "gaussian": { 
		 "optdone": 1, 
		 "sigma_profile": "yes", 
		 "theory": "DFT", 
		 "functional": "B3LYP", 
		 "basiset": "6-31G**", 
		 "properties": { 
			 "R2extent": 3002.4351, 
			 "electric_dipole_moment_norm": 3.79239845085, 
			 "electric_quadrupole_moment_norm": 9.29161152546, 
			 "total_energy": -1356.04101272, 
			 "HOMO_LUMO_gap": 0.19666, 
			 "cosmo_polarized_energy": -9.92, 
			 "cosmo_cavitation_energy": 23.26, 
			 "cosmo_dispersion_energy": -17.58, 
			 "cosmo_repulsion_energy": 1.43, 
			 "cosmo_total_nonelectrostatic_energy": 7.11, 
			 "SMD_solvation_energy": 4.0 
		},
		"coords": [
			{
				"x": -1.9006441905,
				"y": -0.1344721553,
				"z": 1.571387174,
				"element": "O" 
			},
			{
				"x": -0.7126242514,
				"y": 0.4399313738,
				"z": 1.7986642775,
				"element": "C" 
			},
			{
				"x": -0.3162487508,
				"y": 0.743709235,
				"z": 2.8996846029,
				"element": "O" 
			},
			{
				"x": 0.1050404906,
				"y": 0.6768478158,
				"z": 0.5483374311,
				"element": "C" 
			},
			{
				"x": -0.4616655543,
				"y": 0.2871273088,
				"z": -0.6059211863,
				"element": "N" 
			},
			{
				"x": 0.2235299831,
				"y": 0.478421338,
				"z": -1.7201798716,
				"element": "C" 
			},
			{
				"x": -0.5276880544,
				"y": -0.0341780711,
				"z": -3.2156270657,
				"element": "Cl" 
			},
			{
				"x": 1.4950036555,
				"y": 1.0582851013,
				"z": -1.7705081852,
				"element": "C" 
			},
			{
				"x": 2.0578727239,
				"y": 1.4527012803,
				"z": -0.5581406667,
				"element": "C" 
			},
			{
				"x": 3.6395757303,
				"y": 2.1827086321,
				"z": -0.5434282137,
				"element": "Cl" 
			},
			{
				"x": 1.3621249358,
				"y": 1.2655623451,
				"z": 0.6363079144,
				"element": "C" 
			},
			{
				"x": -1.9752901284,
				"y": -0.2763036844,
				"z": 0.6060066746,
				"element": "H" 
			},
			{
				"x": 2.0145845269,
				"y": 1.1927588873,
				"z": -2.7100929559,
				"element": "H" 
			},
			{
				"x": 1.7584288838,
				"y": 1.5557005931,
				"z": 1.6010100705,
				"element": "H" 
			}
		],
		 "valence_orbital": [ 
			{
				"type": "occ",
				"energy": -0.33134,
				"method": "rhf"
			},
			{
				"type": "occ",
				"energy": -0.32536,
				"method": "rhf"
			},
			{
				"type": "occ",
				"energy": -0.3088,
				"method": "rhf"
			},
			{
				"type": "occ",
				"energy": -0.29201,
				"method": "rhf"
			},
			{
				"type": "occ",
				"energy": -0.28546,
				"method": "rhf"
			},
			{
				"type": "unocc",
				"energy": -0.0888,
				"method": "rhf"
			},
			{
				"type": "unocc",
				"energy": -0.06541,
				"method": "rhf"
			},
			{
				"type": "unocc",
				"energy": -0.01479,
				"method": "rhf"
			},
			{
				"type": "unocc",
				"energy": 0.0252,
				"method": "rhf"
			},
			{
				"type": "unocc",
				"energy": 0.02705,
				"method": "rhf"
			}
		],
		"cosmo_sigma_profile": { 
			"-0.025": 0.0,
			"-0.024": 0.0,
			"-0.023": 0.0,
			"-0.022": 0.0,
			"-0.021": 0.0,
			"-0.02": 0.0,
			"-0.019": 0.0,
			"-0.018": 0.0,
			"-0.017": 0.0,
			"-0.016": 0.0,
			"-0.015": 0.0,
			"-0.014": 0.382243455811,
			"-0.013": 0.805818029708,
			"-0.012": 0.589979860505,
			"-0.011": 0.630843030384,
			"-0.01": 2.21345144718,
			"-0.009": 3.09740503812,
			"-0.008": 3.67314137839,
			"-0.007": 4.21908381235,
			"-0.006": 6.90879537379,
			"-0.005": 6.86143040074,
			"-0.004": 12.4379036919,
			"-0.003": 22.4609077246,
			"-0.002": 20.8075757678,
			"-0.001": 11.887779094,
			"0.0": 10.0047411662,
			"0.001": 13.6857508462,
			"0.002": 16.6174979789,
			"0.003": 19.5577285751,
			"0.004": 7.6844357055,
			"0.005": 3.22587280078,
			"0.006": 2.21093223173,
			"0.007": 2.61314804678,
			"0.008": 3.7387469496,
			"0.009": 4.83163859634,
			"0.01": 4.39083782519,
			"0.011": 4.81786667581,
			"0.012": 2.10034166602,
			"0.013": 0.253755925626,
			"0.014": 0.0,
			"0.015": 0.0,
			"0.016": 0.0,
			"0.017": 0.0,
			"0.018": 0.0,
			"0.019": 0.0,
			"0.02": 0.0,
			"0.021": 0.0,
			"0.022": 0.0,
			"0.023": 0.0,
			"0.024": 0.0,
			"0.025": 0.0
		}
	}
}
