{
	 "smiles": "CCCC(C)C1=CC=CC=C1", 
	 "Tm": 203.15, 
	 "num_atms": 27, 
	 "gaussian": { 
		 "optdone": 1, 
		 "sigma_profile": "yes", 
		 "theory": "DFT", 
		 "functional": "B3LYP", 
		 "basiset": "6-31G**", 
		 "properties": { 
			 "R2extent": 3207.1841, 
			 "electric_dipole_moment_norm": 0.318223160691, 
			 "electric_quadrupole_moment_norm": 3.90198257941, 
			 "total_energy": -428.829830052, 
			 "HOMO_LUMO_gap": 0.23925, 
			 "cosmo_polarized_energy": -3.21, 
			 "cosmo_cavitation_energy": 28.32, 
			 "cosmo_dispersion_energy": -20.17, 
			 "cosmo_repulsion_energy": 1.63, 
			 "cosmo_total_nonelectrostatic_energy": 9.78, 
			 "SMD_solvation_energy": 4.67 
		},
		"coords": [
			{
				"x": -2.1436754528,
				"y": -1.2135164074,
				"z": 0.6090699582,
				"element": "C" 
			},
			{
				"x": -1.9431267669,
				"y": -0.4275130806,
				"z": -0.6938358436,
				"element": "C" 
			},
			{
				"x": -0.9429521332,
				"y": 0.7478437552,
				"z": -0.5998429701,
				"element": "C" 
			},
			{
				"x": 0.5091497878,
				"y": 0.4350937485,
				"z": -1.0421360193,
				"element": "C" 
			},
			{
				"x": 1.175948549,
				"y": -0.6868842999,
				"z": -0.2243437808,
				"element": "C" 
			},
			{
				"x": 1.3549847286,
				"y": 1.702543057,
				"z": -1.0440200922,
				"element": "C" 
			},
			{
				"x": 1.8294244831,
				"y": 2.2420322506,
				"z": -2.246791295,
				"element": "C" 
			},
			{
				"x": 2.5982623965,
				"y": 3.4077560814,
				"z": -2.2639607162,
				"element": "C" 
			},
			{
				"x": 2.9077123856,
				"y": 4.0592157142,
				"z": -1.0698995722,
				"element": "C" 
			},
			{
				"x": 2.4419171094,
				"y": 3.5346988458,
				"z": 0.1378904156,
				"element": "C" 
			},
			{
				"x": 1.6746609491,
				"y": 2.3698310274,
				"z": 0.1486864018,
				"element": "C" 
			},
			{
				"x": -2.8719359669,
				"y": -2.0206383822,
				"z": 0.4743573153,
				"element": "H" 
			},
			{
				"x": -2.5199997526,
				"y": -0.5583265004,
				"z": 1.403101826,
				"element": "H" 
			},
			{
				"x": -1.2140733769,
				"y": -1.6634701266,
				"z": 0.969645232,
				"element": "H" 
			},
			{
				"x": -1.6321356094,
				"y": -1.1109143684,
				"z": -1.4959129528,
				"element": "H" 
			},
			{
				"x": -2.918209799,
				"y": -0.0335443852,
				"z": -1.0056123745,
				"element": "H" 
			},
			{
				"x": -1.2979873512,
				"y": 1.5734102934,
				"z": -1.2280032521,
				"element": "H" 
			},
			{
				"x": -0.9341096839,
				"y": 1.1392907574,
				"z": 0.4266338833,
				"element": "H" 
			},
			{
				"x": 0.4535190193,
				"y": 0.08700106,
				"z": -2.083172913,
				"element": "H" 
			},
			{
				"x": 1.2107865182,
				"y": -0.4423433763,
				"z": 0.8429755933,
				"element": "H" 
			},
			{
				"x": 0.6353527187,
				"y": -1.6317696063,
				"z": -0.3332743268,
				"element": "H" 
			},
			{
				"x": 2.2045502606,
				"y": -0.8500053495,
				"z": -0.5611838669,
				"element": "H" 
			},
			{
				"x": 1.5938537698,
				"y": 1.7406925501,
				"z": -3.1828811588,
				"element": "H" 
			},
			{
				"x": 2.9551308354,
				"y": 3.804786252,
				"z": -3.2104543411,
				"element": "H" 
			},
			{
				"x": 3.5059939372,
				"y": 4.9658720199,
				"z": -1.0787100803,
				"element": "H" 
			},
			{
				"x": 2.6771644157,
				"y": 4.033676771,
				"z": 1.0741717542,
				"element": "H" 
			},
			{
				"x": 1.3216940287,
				"y": 1.975781699,
				"z": 1.0982031758,
				"element": "H" 
			}
		],
		 "valence_orbital": [ 
			{
				"type": "occ",
				"energy": -0.31621,
				"method": "rhf"
			},
			{
				"type": "occ",
				"energy": -0.31292,
				"method": "rhf"
			},
			{
				"type": "occ",
				"energy": -0.3047,
				"method": "rhf"
			},
			{
				"type": "occ",
				"energy": -0.24365,
				"method": "rhf"
			},
			{
				"type": "occ",
				"energy": -0.23541,
				"method": "rhf"
			},
			{
				"type": "unocc",
				"energy": 0.00384,
				"method": "rhf"
			},
			{
				"type": "unocc",
				"energy": 0.00656,
				"method": "rhf"
			},
			{
				"type": "unocc",
				"energy": 0.08783,
				"method": "rhf"
			},
			{
				"type": "unocc",
				"energy": 0.09893,
				"method": "rhf"
			},
			{
				"type": "unocc",
				"energy": 0.11146,
				"method": "rhf"
			}
		],
		"cosmo_sigma_profile": { 
			"-0.025": 0.0,
			"-0.024": 0.0,
			"-0.023": 0.0,
			"-0.022": 0.0,
			"-0.021": 0.0,
			"-0.02": 0.0,
			"-0.019": 0.0,
			"-0.018": 0.0,
			"-0.017": 0.0,
			"-0.016": 0.0,
			"-0.015": 0.0,
			"-0.014": 0.0,
			"-0.013": 0.0,
			"-0.012": 0.0,
			"-0.011": 0.0,
			"-0.01": 0.0,
			"-0.009": 0.0,
			"-0.008": 0.0,
			"-0.007": 0.0,
			"-0.006": 0.732324254951,
			"-0.005": 8.1685986418,
			"-0.004": 12.6295577758,
			"-0.003": 18.5412833982,
			"-0.002": 32.4088259491,
			"-0.001": 31.9774286327,
			"0.0": 31.5431942172,
			"0.001": 29.4504867844,
			"0.002": 17.6160504718,
			"0.003": 8.99975642966,
			"0.004": 7.77044052736,
			"0.005": 8.05779958679,
			"0.006": 7.96523435401,
			"0.007": 5.25674998822,
			"0.008": 0.0267235819182,
			"0.009": 0.0,
			"0.01": 0.0,
			"0.011": 0.0,
			"0.012": 0.0,
			"0.013": 0.0,
			"0.014": 0.0,
			"0.015": 0.0,
			"0.016": 0.0,
			"0.017": 0.0,
			"0.018": 0.0,
			"0.019": 0.0,
			"0.02": 0.0,
			"0.021": 0.0,
			"0.022": 0.0,
			"0.023": 0.0,
			"0.024": 0.0,
			"0.025": 0.0
		}
	}
}
