{
	 "smiles": "OCC1CSCCN1", 
	 "Tm": 358.15, 
	 "num_atms": 19, 
	 "gaussian": { 
		 "optdone": 1, 
		 "sigma_profile": "yes", 
		 "theory": "DFT", 
		 "functional": "B3LYP", 
		 "basiset": "6-31G**", 
		 "properties": { 
			 "R2extent": 2536.7815, 
			 "electric_dipole_moment_norm": 1.541778966, 
			 "electric_quadrupole_moment_norm": 10.0633084858, 
			 "total_energy": -725.306914742, 
			 "HOMO_LUMO_gap": 0.25585, 
			 "cosmo_polarized_energy": -9.31, 
			 "cosmo_cavitation_energy": 21.52, 
			 "cosmo_dispersion_energy": -16.95, 
			 "cosmo_repulsion_energy": 1.36, 
			 "cosmo_total_nonelectrostatic_energy": 5.93, 
			 "SMD_solvation_energy": 1.7 
		},
		"coords": [
			{
				"x": -0.3462246406,
				"y": 0.6537926982,
				"z": 2.6129760359,
				"element": "O" 
			},
			{
				"x": 1.0608145287,
				"y": 0.730745311,
				"z": 2.6096268316,
				"element": "C" 
			},
			{
				"x": 1.6572831788,
				"y": -0.2539078127,
				"z": 1.5935385222,
				"element": "C" 
			},
			{
				"x": 3.2052197778,
				"y": -0.2141048563,
				"z": 1.590946803,
				"element": "C" 
			},
			{
				"x": 3.9255272263,
				"y": -0.6579475785,
				"z": -0.05217093,
				"element": "S" 
			},
			{
				"x": 2.5912800556,
				"y": -1.7914011682,
				"z": -0.5949110656,
				"element": "C" 
			},
			{
				"x": 1.2258843179,
				"y": -1.063765271,
				"z": -0.6816305583,
				"element": "C" 
			},
			{
				"x": 1.0450683141,
				"y": 0.0268309338,
				"z": 0.2875387515,
				"element": "N" 
			},
			{
				"x": -0.5808729861,
				"y": 0.5798683872,
				"z": 1.6719718295,
				"element": "H" 
			},
			{
				"x": 1.4152133578,
				"y": 0.5000113748,
				"z": 3.6206257346,
				"element": "H" 
			},
			{
				"x": 1.4150070694,
				"y": 1.7496316161,
				"z": 2.363206701,
				"element": "H" 
			},
			{
				"x": 1.3229723667,
				"y": -1.2579409008,
				"z": 1.88224886,
				"element": "H" 
			},
			{
				"x": 3.5645947951,
				"y": 0.7999047729,
				"z": 1.7988506019,
				"element": "H" 
			},
			{
				"x": 3.6091274257,
				"y": -0.8755442878,
				"z": 2.3637147654,
				"element": "H" 
			},
			{
				"x": 2.5484697713,
				"y": -2.6396568955,
				"z": 0.0951247519,
				"element": "H" 
			},
			{
				"x": 2.8925149403,
				"y": -2.1828076903,
				"z": -1.5701393182,
				"element": "H" 
			},
			{
				"x": 0.4274539371,
				"y": -1.8032448785,
				"z": -0.5347634926,
				"element": "H" 
			},
			{
				"x": 1.0928503482,
				"y": -0.638759131,
				"z": -1.6809306931,
				"element": "H" 
			},
			{
				"x": 1.4779162159,
				"y": 0.8676953766,
				"z": -0.0909241307,
				"element": "H" 
			}
		],
		 "valence_orbital": [ 
			{
				"type": "occ",
				"energy": -0.32661,
				"method": "rhf"
			},
			{
				"type": "occ",
				"energy": -0.30666,
				"method": "rhf"
			},
			{
				"type": "occ",
				"energy": -0.26134,
				"method": "rhf"
			},
			{
				"type": "occ",
				"energy": -0.24434,
				"method": "rhf"
			},
			{
				"type": "occ",
				"energy": -0.22516,
				"method": "rhf"
			},
			{
				"type": "unocc",
				"energy": 0.03069,
				"method": "rhf"
			},
			{
				"type": "unocc",
				"energy": 0.06479,
				"method": "rhf"
			},
			{
				"type": "unocc",
				"energy": 0.07127,
				"method": "rhf"
			},
			{
				"type": "unocc",
				"energy": 0.09273,
				"method": "rhf"
			},
			{
				"type": "unocc",
				"energy": 0.10344,
				"method": "rhf"
			}
		],
		"cosmo_sigma_profile": { 
			"-0.025": 0.0,
			"-0.024": 0.0,
			"-0.023": 0.0,
			"-0.022": 0.0,
			"-0.021": 0.0,
			"-0.02": 0.0,
			"-0.019": 0.0,
			"-0.018": 0.0,
			"-0.017": 0.0,
			"-0.016": 0.0,
			"-0.015": 0.0,
			"-0.014": 0.0,
			"-0.013": 0.0,
			"-0.012": 0.0,
			"-0.011": 0.0,
			"-0.01": 0.211665022402,
			"-0.009": 1.80438044789,
			"-0.008": 2.12908499155,
			"-0.007": 1.79201266946,
			"-0.006": 4.46300228823,
			"-0.005": 16.7778970647,
			"-0.004": 26.5916045501,
			"-0.003": 21.1519340139,
			"-0.002": 15.7625024281,
			"-0.001": 12.4196523811,
			"0.0": 7.17234349374,
			"0.001": 6.31249940496,
			"0.002": 5.76498789441,
			"0.003": 5.35160735222,
			"0.004": 4.55392442133,
			"0.005": 4.67875981631,
			"0.006": 5.88989122039,
			"0.007": 4.43868160967,
			"0.008": 4.30673886915,
			"0.009": 3.42080526516,
			"0.01": 3.38302463508,
			"0.011": 2.68509721869,
			"0.012": 1.50102153863,
			"0.013": 1.68598938563,
			"0.014": 2.163123954,
			"0.015": 2.05730275991,
			"0.016": 0.00586094228493,
			"0.017": 0.0,
			"0.018": 0.0,
			"0.019": 0.0,
			"0.02": 0.0,
			"0.021": 0.0,
			"0.022": 0.0,
			"0.023": 0.0,
			"0.024": 0.0,
			"0.025": 0.0
		}
	}
}
