{
	 "smiles": "C1CC(CCN1)C1=NC=CN1", 
	 "Tm": 450.15, 
	 "num_atms": 24, 
	 "gaussian": { 
		 "optdone": 1, 
		 "sigma_profile": "yes", 
		 "theory": "DFT", 
		 "functional": "B3LYP", 
		 "basiset": "6-31G**", 
		 "properties": { 
			 "R2extent": 2461.5972, 
			 "electric_dipole_moment_norm": 2.74314814401, 
			 "electric_quadrupole_moment_norm": 9.86997878367, 
			 "total_energy": -476.929272521, 
			 "HOMO_LUMO_gap": 0.24759, 
			 "cosmo_polarized_energy": -13.35, 
			 "cosmo_cavitation_energy": 25.52, 
			 "cosmo_dispersion_energy": -19.12, 
			 "cosmo_repulsion_energy": 1.55, 
			 "cosmo_total_nonelectrostatic_energy": 7.94, 
			 "SMD_solvation_energy": 0.67 
		},
		"coords": [
			{
				"x": 2.2511358674,
				"y": 0.9680410207,
				"z": -2.3990880625,
				"element": "C" 
			},
			{
				"x": 0.8969283428,
				"y": 1.1600289629,
				"z": -1.6815277585,
				"element": "C" 
			},
			{
				"x": 0.4589472929,
				"y": -0.1383706719,
				"z": -0.956911917,
				"element": "C" 
			},
			{
				"x": 0.9346515849,
				"y": -1.3616713575,
				"z": -1.7729624459,
				"element": "C" 
			},
			{
				"x": 2.4776934546,
				"y": -1.3930293378,
				"z": -1.8801167941,
				"element": "C" 
			},
			{
				"x": 3.0286890331,
				"y": -0.046145212,
				"z": -1.6849357219,
				"element": "N" 
			},
			{
				"x": -1.0254105662,
				"y": -0.1656797455,
				"z": -0.7279173533,
				"element": "C" 
			},
			{
				"x": -1.9594070143,
				"y": 0.1149091309,
				"z": -1.6179018788,
				"element": "N" 
			},
			{
				"x": -3.1627123396,
				"y": -0.0897482172,
				"z": -0.9793344258,
				"element": "C" 
			},
			{
				"x": -2.9629015233,
				"y": -0.5004706869,
				"z": 0.3138113056,
				"element": "C" 
			},
			{
				"x": -1.5898241582,
				"y": -0.5467578036,
				"z": 0.4621194253,
				"element": "N" 
			},
			{
				"x": 2.0804744541,
				"y": 0.7024606516,
				"z": -3.4596989887,
				"element": "H" 
			},
			{
				"x": 2.8150388688,
				"y": 1.906397537,
				"z": -2.4000920716,
				"element": "H" 
			},
			{
				"x": 0.9656182177,
				"y": 1.9699064276,
				"z": -0.947220999,
				"element": "H" 
			},
			{
				"x": 0.1228158162,
				"y": 1.4390885873,
				"z": -2.402362848,
				"element": "H" 
			},
			{
				"x": 0.9569118474,
				"y": -0.1755736244,
				"z": 0.0203470649,
				"element": "H" 
			},
			{
				"x": 0.4770633597,
				"y": -1.2996525295,
				"z": -2.7663766272,
				"element": "H" 
			},
			{
				"x": 0.571292812,
				"y": -2.2922488355,
				"z": -1.3242143975,
				"element": "H" 
			},
			{
				"x": 2.7538278513,
				"y": -1.833805814,
				"z": -2.8555328903,
				"element": "H" 
			},
			{
				"x": 2.898423085,
				"y": -2.0466270923,
				"z": -1.1053756869,
				"element": "H" 
			},
			{
				"x": 4.0007150575,
				"y": -0.0247849496,
				"z": -1.9772397834,
				"element": "H" 
			},
			{
				"x": -4.104338479,
				"y": 0.0739165563,
				"z": -1.4853144343,
				"element": "H" 
			},
			{
				"x": -3.6387516951,
				"y": -0.7487268339,
				"z": 1.1174323476,
				"element": "H" 
			},
			{
				"x": -1.0887811699,
				"y": -0.8003561627,
				"z": 1.2999149412,
				"element": "H" 
			}
		],
		 "valence_orbital": [ 
			{
				"type": "occ",
				"energy": -0.31081,
				"method": "rhf"
			},
			{
				"type": "occ",
				"energy": -0.26945,
				"method": "rhf"
			},
			{
				"type": "occ",
				"energy": -0.2552,
				"method": "rhf"
			},
			{
				"type": "occ",
				"energy": -0.21421,
				"method": "rhf"
			},
			{
				"type": "occ",
				"energy": -0.20974,
				"method": "rhf"
			},
			{
				"type": "unocc",
				"energy": 0.03785,
				"method": "rhf"
			},
			{
				"type": "unocc",
				"energy": 0.07161,
				"method": "rhf"
			},
			{
				"type": "unocc",
				"energy": 0.07706,
				"method": "rhf"
			},
			{
				"type": "unocc",
				"energy": 0.08493,
				"method": "rhf"
			},
			{
				"type": "unocc",
				"energy": 0.12,
				"method": "rhf"
			}
		],
		"cosmo_sigma_profile": { 
			"-0.025": 0.0,
			"-0.024": 0.0,
			"-0.023": 0.0,
			"-0.022": 0.0,
			"-0.021": 0.0,
			"-0.02": 0.0,
			"-0.019": 0.0,
			"-0.018": 0.0,
			"-0.017": 0.0,
			"-0.016": 0.680729199694,
			"-0.015": 1.46315698211,
			"-0.014": 1.18454236879,
			"-0.013": 1.38108272703,
			"-0.012": 1.35583433758,
			"-0.011": 1.21247935888,
			"-0.01": 2.13019374411,
			"-0.009": 2.44981219299,
			"-0.008": 4.39935057058,
			"-0.007": 4.30988054491,
			"-0.006": 4.53249214487,
			"-0.005": 6.65889209132,
			"-0.004": 6.78859001984,
			"-0.003": 14.1345300246,
			"-0.002": 24.3862802919,
			"-0.001": 30.2803110518,
			"0.0": 22.4665621991,
			"0.001": 11.3245624857,
			"0.002": 7.02438332468,
			"0.003": 6.2437182087,
			"0.004": 6.60245414399,
			"0.005": 5.40989186906,
			"0.006": 6.26650512302,
			"0.007": 6.21137432973,
			"0.008": 3.67727821344,
			"0.009": 2.32075837338,
			"0.01": 2.65511818943,
			"0.011": 1.81132060334,
			"0.012": 1.4938447287,
			"0.013": 1.64786906066,
			"0.014": 1.94047879395,
			"0.015": 1.35194108933,
			"0.016": 0.986018939095,
			"0.017": 1.35422693537,
			"0.018": 0.790268735061,
			"0.019": 0.00490592223264,
			"0.02": 0.0,
			"0.021": 0.0,
			"0.022": 0.0,
			"0.023": 0.0,
			"0.024": 0.0,
			"0.025": 0.0
		}
	}
}
