{
	 "smiles": "CC(=O)OC[C@H]1O[C@@H](OC(C)=O)[C@H](NC(=O)OCC2=CC=CC=C2)[C@@H](OC(C)=O)[C@@H]1OC(C)=O", 
	 "Tm": 423.15, 
	 "num_atms": 61, 
	 "gaussian": { 
		 "optdone": 1, 
		 "sigma_profile": "yes", 
		 "theory": "DFT", 
		 "functional": "B3LYP", 
		 "basiset": "6-31G**", 
		 "properties": { 
			 "R2extent": 17942.3072, 
			 "electric_dipole_moment_norm": 6.51169607092, 
			 "electric_quadrupole_moment_norm": 12.5516403147, 
			 "total_energy": -1736.8859995, 
			 "HOMO_LUMO_gap": 0.23681, 
			 "cosmo_polarized_energy": -29.03, 
			 "cosmo_cavitation_energy": 63.7, 
			 "cosmo_dispersion_energy": -40.31, 
			 "cosmo_repulsion_energy": 3.09, 
			 "cosmo_total_nonelectrostatic_energy": 26.48, 
			 "SMD_solvation_energy": 14.72 
		},
		"coords": [
			{
				"x": -1.7966926438,
				"y": 2.5606651105,
				"z": 5.4111638558,
				"element": "C" 
			},
			{
				"x": -2.3798087169,
				"y": 1.7887950115,
				"z": 4.2554608183,
				"element": "C" 
			},
			{
				"x": -3.301835134,
				"y": 1.0036547555,
				"z": 4.3227303501,
				"element": "O" 
			},
			{
				"x": -1.7108988947,
				"y": 2.0660306631,
				"z": 3.1077325525,
				"element": "O" 
			},
			{
				"x": -2.104531081,
				"y": 1.3367867284,
				"z": 1.9292322293,
				"element": "C" 
			},
			{
				"x": -1.4962257675,
				"y": -0.0762640538,
				"z": 1.9854930888,
				"element": "C" 
			},
			{
				"x": -2.0488768335,
				"y": -0.9304237064,
				"z": 0.9689811961,
				"element": "O" 
			},
			{
				"x": -1.4433175075,
				"y": -1.0563773157,
				"z": -0.2811965887,
				"element": "C" 
			},
			{
				"x": -2.4419305391,
				"y": -1.0181822338,
				"z": -1.3119526362,
				"element": "O" 
			},
			{
				"x": -3.1523948376,
				"y": 0.1212813092,
				"z": -1.545135259,
				"element": "C" 
			},
			{
				"x": -4.2163642695,
				"y": -0.1376174429,
				"z": -2.5833339167,
				"element": "C" 
			},
			{
				"x": -2.9542488353,
				"y": 1.1797282213,
				"z": -0.9956797395,
				"element": "O" 
			},
			{
				"x": -0.2608614193,
				"y": -0.1028253831,
				"z": -0.5384198976,
				"element": "C" 
			},
			{
				"x": 0.3725471441,
				"y": -0.4755280128,
				"z": -1.7878194832,
				"element": "N" 
			},
			{
				"x": 0.9048336447,
				"y": 0.4349543275,
				"z": -2.6549296241,
				"element": "C" 
			},
			{
				"x": 0.8842017878,
				"y": 1.6458282725,
				"z": -2.5150786345,
				"element": "O" 
			},
			{
				"x": 1.4445901444,
				"y": -0.2185537366,
				"z": -3.7184208373,
				"element": "O" 
			},
			{
				"x": 2.0519575965,
				"y": 0.6242476346,
				"z": -4.7310277928,
				"element": "C" 
			},
			{
				"x": 3.4845129396,
				"y": 0.9731245329,
				"z": -4.4078270438,
				"element": "C" 
			},
			{
				"x": 4.5014866078,
				"y": 0.0270246828,
				"z": -4.5904821296,
				"element": "C" 
			},
			{
				"x": 5.8267083154,
				"y": 0.3422532695,
				"z": -4.2908698476,
				"element": "C" 
			},
			{
				"x": 6.1504205727,
				"y": 1.6131540402,
				"z": -3.8098085616,
				"element": "C" 
			},
			{
				"x": 5.1441248376,
				"y": 2.5636704333,
				"z": -3.6271309207,
				"element": "C" 
			},
			{
				"x": 3.8170992407,
				"y": 2.2437625843,
				"z": -3.9211060036,
				"element": "C" 
			},
			{
				"x": 0.7141304889,
				"y": -0.2309092936,
				"z": 0.6499800123,
				"element": "C" 
			},
			{
				"x": 1.8737454104,
				"y": 0.6039396255,
				"z": 0.4720778655,
				"element": "O" 
			},
			{
				"x": 1.714487687,
				"y": 1.958005899,
				"z": 0.5016246266,
				"element": "C" 
			},
			{
				"x": 3.0027754181,
				"y": 2.6485441168,
				"z": 0.1442991088,
				"element": "C" 
			},
			{
				"x": 0.6691044441,
				"y": 2.504157917,
				"z": 0.7736210936,
				"element": "O" 
			},
			{
				"x": 0.0417195444,
				"y": -0.0845081276,
				"z": 2.0304370992,
				"element": "C" 
			},
			{
				"x": 0.4976613412,
				"y": -1.2380808251,
				"z": 2.794317645,
				"element": "O" 
			},
			{
				"x": 0.6315242902,
				"y": -1.0776823479,
				"z": 4.1345173589,
				"element": "C" 
			},
			{
				"x": 1.0977701486,
				"y": -2.3597040833,
				"z": 4.7804317268,
				"element": "C" 
			},
			{
				"x": 0.3989752076,
				"y": -0.041456505,
				"z": 4.7186263148,
				"element": "O" 
			},
			{
				"x": -1.5701165411,
				"y": 3.5888478107,
				"z": 5.1201022122,
				"element": "H" 
			},
			{
				"x": -2.4922907546,
				"y": 2.5408706668,
				"z": 6.2501206615,
				"element": "H" 
			},
			{
				"x": -0.8591743559,
				"y": 2.0761410132,
				"z": 5.7019367773,
				"element": "H" 
			},
			{
				"x": -1.743618565,
				"y": 1.9269258146,
				"z": 1.0928878792,
				"element": "H" 
			},
			{
				"x": -3.1905292728,
				"y": 1.2430843851,
				"z": 1.8855546305,
				"element": "H" 
			},
			{
				"x": -1.8522410805,
				"y": -0.5251130928,
				"z": 2.9147768123,
				"element": "H" 
			},
			{
				"x": -1.0793394434,
				"y": -2.0910428362,
				"z": -0.3789207041,
				"element": "H" 
			},
			{
				"x": -4.944813919,
				"y": -0.854270517,
				"z": -2.1915676868,
				"element": "H" 
			},
			{
				"x": -3.7723853932,
				"y": -0.5790945109,
				"z": -3.479820224,
				"element": "H" 
			},
			{
				"x": -4.7151825739,
				"y": 0.7989622014,
				"z": -2.8299841815,
				"element": "H" 
			},
			{
				"x": -0.609052614,
				"y": 0.9229770673,
				"z": -0.6395907155,
				"element": "H" 
			},
			{
				"x": 0.5219975067,
				"y": -1.4510896087,
				"z": -2.003376131,
				"element": "H" 
			},
			{
				"x": 1.9909650589,
				"y": 0.0214268902,
				"z": -5.640171324,
				"element": "H" 
			},
			{
				"x": 1.4460007104,
				"y": 1.5244097829,
				"z": -4.848937143,
				"element": "H" 
			},
			{
				"x": 4.2520168612,
				"y": -0.9605368459,
				"z": -4.9711195206,
				"element": "H" 
			},
			{
				"x": 6.6067926944,
				"y": -0.3991508263,
				"z": -4.4386869035,
				"element": "H" 
			},
			{
				"x": 7.183038061,
				"y": 1.8621327814,
				"z": -3.5822585963,
				"element": "H" 
			},
			{
				"x": 5.3918309575,
				"y": 3.55472804,
				"z": -3.2574936978,
				"element": "H" 
			},
			{
				"x": 3.0286606238,
				"y": 2.9744447949,
				"z": -3.7680091323,
				"element": "H" 
			},
			{
				"x": 1.1393774624,
				"y": -1.2385524643,
				"z": 0.6200397157,
				"element": "H" 
			},
			{
				"x": 3.1550674016,
				"y": 2.5528760477,
				"z": -0.9352599511,
				"element": "H" 
			},
			{
				"x": 3.8510657464,
				"y": 2.1788139427,
				"z": 0.6477393225,
				"element": "H" 
			},
			{
				"x": 2.932163142,
				"y": 3.7031706462,
				"z": 0.4094716168,
				"element": "H" 
			},
			{
				"x": 0.3696212847,
				"y": 0.8178716807,
				"z": 2.5431980335,
				"element": "H" 
			},
			{
				"x": 1.9985439621,
				"y": -2.7310019942,
				"z": 4.2842490992,
				"element": "H" 
			},
			{
				"x": 0.3246695737,
				"y": -3.1271089466,
				"z": 4.6741337087,
				"element": "H" 
			},
			{
				"x": 1.2939431347,
				"y": -2.1818179906,
				"z": 5.8371774166,
				"element": "H" 
			}
		],
		 "valence_orbital": [ 
			{
				"type": "occ",
				"energy": -0.2633,
				"method": "rhf"
			},
			{
				"type": "occ",
				"energy": -0.26104,
				"method": "rhf"
			},
			{
				"type": "occ",
				"energy": -0.25654,
				"method": "rhf"
			},
			{
				"type": "occ",
				"energy": -0.25529,
				"method": "rhf"
			},
			{
				"type": "occ",
				"energy": -0.25402,
				"method": "rhf"
			},
			{
				"type": "unocc",
				"energy": -0.01721,
				"method": "rhf"
			},
			{
				"type": "unocc",
				"energy": -0.00795,
				"method": "rhf"
			},
			{
				"type": "unocc",
				"energy": 0.00146,
				"method": "rhf"
			},
			{
				"type": "unocc",
				"energy": 0.0038,
				"method": "rhf"
			},
			{
				"type": "unocc",
				"energy": 0.01009,
				"method": "rhf"
			}
		],
		"cosmo_sigma_profile": { 
			"-0.025": 0.0,
			"-0.024": 0.0,
			"-0.023": 0.0,
			"-0.022": 0.0,
			"-0.021": 0.0,
			"-0.02": 0.0,
			"-0.019": 0.0,
			"-0.018": 0.0,
			"-0.017": 0.0,
			"-0.016": 0.145728684557,
			"-0.015": 1.66746865233,
			"-0.014": 2.07623207862,
			"-0.013": 1.03517681827,
			"-0.012": 1.4478542071,
			"-0.011": 1.74295244122,
			"-0.01": 1.78667933461,
			"-0.009": 1.96016897619,
			"-0.008": 2.75274380901,
			"-0.007": 8.52702135268,
			"-0.006": 30.0106885755,
			"-0.005": 38.371679767,
			"-0.004": 44.586728977,
			"-0.003": 46.4992438511,
			"-0.002": 48.9767056096,
			"-0.001": 37.7902675297,
			"0.0": 28.8835294581,
			"0.001": 27.5837651929,
			"0.002": 24.4845767049,
			"0.003": 26.3107246583,
			"0.004": 24.2266487474,
			"0.005": 25.0304603205,
			"0.006": 16.3609527952,
			"0.007": 12.6764689749,
			"0.008": 10.3500464887,
			"0.009": 10.9228971846,
			"0.01": 8.17131969537,
			"0.011": 8.82979641401,
			"0.012": 8.2894490883,
			"0.013": 1.59835286727,
			"0.014": 0.0,
			"0.015": 0.0,
			"0.016": 0.0,
			"0.017": 0.0,
			"0.018": 0.0,
			"0.019": 0.0,
			"0.02": 0.0,
			"0.021": 0.0,
			"0.022": 0.0,
			"0.023": 0.0,
			"0.024": 0.0,
			"0.025": 0.0
		}
	}
}
