{
	 "smiles": "CN(CC(=O)NC1=C(C=CC=C1)C(F)(F)F)C(=O)CCl", 
	 "Tm": 397.15, 
	 "num_atms": 32, 
	 "gaussian": { 
		 "optdone": 1, 
		 "sigma_profile": "yes", 
		 "theory": "DFT", 
		 "functional": "B3LYP", 
		 "basiset": "6-31G**", 
		 "properties": { 
			 "R2extent": 5804.4632, 
			 "electric_dipole_moment_norm": 6.61009566799, 
			 "electric_quadrupole_moment_norm": 12.788783242, 
			 "total_energy": -1484.19057977, 
			 "HOMO_LUMO_gap": 0.19314, 
			 "cosmo_polarized_energy": -18.33, 
			 "cosmo_cavitation_energy": 37.25, 
			 "cosmo_dispersion_energy": -24.9, 
			 "cosmo_repulsion_energy": 1.85, 
			 "cosmo_total_nonelectrostatic_energy": 14.2, 
			 "SMD_solvation_energy": 8.35 
		},
		"coords": [
			{
				"x": -2.1404404205,
				"y": -0.537049832,
				"z": -0.1547650469,
				"element": "C" 
			},
			{
				"x": -0.8867435132,
				"y": -0.0385907654,
				"z": -0.7224439111,
				"element": "N" 
			},
			{
				"x": -0.2874586415,
				"y": -0.8030319088,
				"z": -1.8147049314,
				"element": "C" 
			},
			{
				"x": 1.1979814137,
				"y": -1.181238885,
				"z": -1.6563504551,
				"element": "C" 
			},
			{
				"x": 1.9838453632,
				"y": -0.959388323,
				"z": -2.5656348929,
				"element": "O" 
			},
			{
				"x": 1.6476159375,
				"y": -1.7360634236,
				"z": -0.4763788874,
				"element": "N" 
			},
			{
				"x": 0.934995897,
				"y": -2.1730425022,
				"z": 0.668741536,
				"element": "C" 
			},
			{
				"x": 1.219266825,
				"y": -1.6224966759,
				"z": 1.9341331228,
				"element": "C" 
			},
			{
				"x": 0.5627556672,
				"y": -2.1026577729,
				"z": 3.0674633177,
				"element": "C" 
			},
			{
				"x": -0.379789179,
				"y": -3.125607035,
				"z": 2.9582799552,
				"element": "C" 
			},
			{
				"x": -0.6558100669,
				"y": -3.6806513157,
				"z": 1.7095660064,
				"element": "C" 
			},
			{
				"x": 0.0078283974,
				"y": -3.2152102327,
				"z": 0.5731018754,
				"element": "C" 
			},
			{
				"x": 2.2322937836,
				"y": -0.5135515665,
				"z": 2.061151519,
				"element": "C" 
			},
			{
				"x": 1.8826074134,
				"y": 0.5830708504,
				"z": 1.3511220495,
				"element": "F" 
			},
			{
				"x": 2.4054740365,
				"y": -0.1266557706,
				"z": 3.3373692642,
				"element": "F" 
			},
			{
				"x": 3.4502565222,
				"y": -0.9030211116,
				"z": 1.5942762183,
				"element": "F" 
			},
			{
				"x": -0.5247417914,
				"y": 1.2567819176,
				"z": -0.4125695795,
				"element": "C" 
			},
			{
				"x": -1.0786097213,
				"y": 1.9023278638,
				"z": 0.4664140274,
				"element": "O" 
			},
			{
				"x": 0.5946674302,
				"y": 1.9081830786,
				"z": -1.2261822095,
				"element": "C" 
			},
			{
				"x": -0.0829517233,
				"y": 2.5638730261,
				"z": -2.7832481046,
				"element": "Cl" 
			},
			{
				"x": -2.015672783,
				"y": -1.5613842313,
				"z": 0.2020586975,
				"element": "H" 
			},
			{
				"x": -2.9426479526,
				"y": -0.512124161,
				"z": -0.9037557091,
				"element": "H" 
			},
			{
				"x": -2.4137872918,
				"y": 0.1083441786,
				"z": 0.6776116169,
				"element": "H" 
			},
			{
				"x": -0.8740295247,
				"y": -1.7185233373,
				"z": -1.9313660575,
				"element": "H" 
			},
			{
				"x": -0.3342252832,
				"y": -0.2664609066,
				"z": -2.7667388404,
				"element": "H" 
			},
			{
				"x": 2.6594666483,
				"y": -1.7469754289,
				"z": -0.4192964153,
				"element": "H" 
			},
			{
				"x": 0.7906395241,
				"y": -1.6679819797,
				"z": 4.0335841401,
				"element": "H" 
			},
			{
				"x": -0.8862777443,
				"y": -3.4907810025,
				"z": 3.8457182408,
				"element": "H" 
			},
			{
				"x": -1.372045321,
				"y": -4.4916265576,
				"z": 1.6179124107,
				"element": "H" 
			},
			{
				"x": -0.1667210203,
				"y": -3.6749578042,
				"z": -0.3944321701,
				"element": "H" 
			},
			{
				"x": 1.4188989875,
				"y": 1.2548487863,
				"z": -1.5031857375,
				"element": "H" 
			},
			{
				"x": 0.9544581314,
				"y": 2.7598428289,
				"z": -0.6540510494,
				"element": "H" 
			}
		],
		 "valence_orbital": [ 
			{
				"type": "occ",
				"energy": -0.29042,
				"method": "rhf"
			},
			{
				"type": "occ",
				"energy": -0.2784,
				"method": "rhf"
			},
			{
				"type": "occ",
				"energy": -0.263,
				"method": "rhf"
			},
			{
				"type": "occ",
				"energy": -0.25595,
				"method": "rhf"
			},
			{
				"type": "occ",
				"energy": -0.24669,
				"method": "rhf"
			},
			{
				"type": "unocc",
				"energy": -0.05355,
				"method": "rhf"
			},
			{
				"type": "unocc",
				"energy": -0.04044,
				"method": "rhf"
			},
			{
				"type": "unocc",
				"energy": -0.01881,
				"method": "rhf"
			},
			{
				"type": "unocc",
				"energy": -0.0001,
				"method": "rhf"
			},
			{
				"type": "unocc",
				"energy": 0.05948,
				"method": "rhf"
			}
		],
		"cosmo_sigma_profile": { 
			"-0.025": 0.0,
			"-0.024": 0.0,
			"-0.023": 0.0,
			"-0.022": 0.0,
			"-0.021": 0.0,
			"-0.02": 0.0,
			"-0.019": 0.0,
			"-0.018": 0.0,
			"-0.017": 0.0,
			"-0.016": 0.0,
			"-0.015": 0.0,
			"-0.014": 0.0150925691266,
			"-0.013": 0.377032959406,
			"-0.012": 0.71808817106,
			"-0.011": 0.511385767651,
			"-0.01": 1.97377744824,
			"-0.009": 4.96647143919,
			"-0.008": 6.895482095,
			"-0.007": 11.9955575449,
			"-0.006": 14.8010836653,
			"-0.005": 20.4259623863,
			"-0.004": 19.0342991704,
			"-0.003": 18.5485857444,
			"-0.002": 21.7152601409,
			"-0.001": 19.3660537823,
			"0.0": 20.4041155099,
			"0.001": 25.8637562314,
			"0.002": 33.815009401,
			"0.003": 20.9838173691,
			"0.004": 9.88265039412,
			"0.005": 11.7564499463,
			"0.006": 5.34423811448,
			"0.007": 1.79615641651,
			"0.008": 3.02165525334,
			"0.009": 2.50353034146,
			"0.01": 2.70470906492,
			"0.011": 3.75643278957,
			"0.012": 7.85294756439,
			"0.013": 6.95362496509,
			"0.014": 0.779600979251,
			"0.015": 0.0,
			"0.016": 0.0,
			"0.017": 0.0,
			"0.018": 0.0,
			"0.019": 0.0,
			"0.02": 0.0,
			"0.021": 0.0,
			"0.022": 0.0,
			"0.023": 0.0,
			"0.024": 0.0,
			"0.025": 0.0
		}
	}
}
