{
	 "smiles": "C=C(C1=CC=CC=C1)C1=CC=CC=C1", 
	 "Tm": 280.25, 
	 "num_atms": 26, 
	 "gaussian": { 
		 "optdone": 1, 
		 "sigma_profile": "yes", 
		 "theory": "DFT", 
		 "functional": "B3LYP", 
		 "basiset": "6-31G**", 
		 "properties": { 
			 "R2extent": 3468.9868, 
			 "electric_dipole_moment_norm": 0.31099398708, 
			 "electric_quadrupole_moment_norm": 5.8761189879, 
			 "total_energy": -540.709933745, 
			 "HOMO_LUMO_gap": 0.1858, 
			 "cosmo_polarized_energy": -5.08, 
			 "cosmo_cavitation_energy": 29.56, 
			 "cosmo_dispersion_energy": -21.05, 
			 "cosmo_repulsion_energy": 1.64, 
			 "cosmo_total_nonelectrostatic_energy": 10.16, 
			 "SMD_solvation_energy": 5.39 
		},
		"coords": [
			{
				"x": -0.607312655,
				"y": -1.7468110163,
				"z": -1.622653374,
				"element": "C" 
			},
			{
				"x": -0.8416141939,
				"y": -0.8145927665,
				"z": -0.6803565056,
				"element": "C" 
			},
			{
				"x": -2.2021488374,
				"y": -0.6534210106,
				"z": -0.0918253206,
				"element": "C" 
			},
			{
				"x": -3.0046049834,
				"y": -1.7731379277,
				"z": 0.1860391794,
				"element": "C" 
			},
			{
				"x": -4.2951501589,
				"y": -1.6226557542,
				"z": 0.6922114258,
				"element": "C" 
			},
			{
				"x": -4.8094075185,
				"y": -0.3479668175,
				"z": 0.9368812562,
				"element": "C" 
			},
			{
				"x": -4.0197902307,
				"y": 0.7740174519,
				"z": 0.6761312993,
				"element": "C" 
			},
			{
				"x": -2.728433708,
				"y": 0.6231974744,
				"z": 0.1729239801,
				"element": "C" 
			},
			{
				"x": 0.2541614055,
				"y": 0.0775570327,
				"z": -0.2042024435,
				"element": "C" 
			},
			{
				"x": 0.3764026311,
				"y": 0.408946138,
				"z": 1.1567078692,
				"element": "C" 
			},
			{
				"x": 1.4303815425,
				"y": 1.2022591437,
				"z": 1.6076383177,
				"element": "C" 
			},
			{
				"x": 2.3788485317,
				"y": 1.6915497517,
				"z": 0.7068939414,
				"element": "C" 
			},
			{
				"x": 2.2625804102,
				"y": 1.3824047488,
				"z": -0.6495996309,
				"element": "C" 
			},
			{
				"x": 1.2099981109,
				"y": 0.5863990573,
				"z": -1.0999479988,
				"element": "C" 
			},
			{
				"x": 0.3883031551,
				"y": -1.913105326,
				"z": -2.0206570881,
				"element": "H" 
			},
			{
				"x": -1.4055130366,
				"y": -2.365992588,
				"z": -2.0186310474,
				"element": "H" 
			},
			{
				"x": -2.6001473994,
				"y": -2.7672208768,
				"z": 0.0209296046,
				"element": "H" 
			},
			{
				"x": -4.8954484418,
				"y": -2.5027120275,
				"z": 0.9057362879,
				"element": "H" 
			},
			{
				"x": -5.8132426557,
				"y": -0.2299607292,
				"z": 1.334796818,
				"element": "H" 
			},
			{
				"x": -4.4107353328,
				"y": 1.7702481618,
				"z": 0.8634683534,
				"element": "H" 
			},
			{
				"x": -2.1223799739,
				"y": 1.5007722214,
				"z": -0.0297656502,
				"element": "H" 
			},
			{
				"x": -0.3548921169,
				"y": 0.0302409951,
				"z": 1.8640342939,
				"element": "H" 
			},
			{
				"x": 1.5119091545,
				"y": 1.4374149372,
				"z": 2.6652141826,
				"element": "H" 
			},
			{
				"x": 3.1963228419,
				"y": 2.3147600346,
				"z": 1.0580225566,
				"element": "H" 
			},
			{
				"x": 2.98645562,
				"y": 1.7703042129,
				"z": -1.3609282218,
				"element": "H" 
			},
			{
				"x": 1.1098578395,
				"y": 0.3694054786,
				"z": -2.1591620851,
				"element": "H" 
			}
		],
		 "valence_orbital": [ 
			{
				"type": "occ",
				"energy": -0.29196,
				"method": "rhf"
			},
			{
				"type": "occ",
				"energy": -0.25245,
				"method": "rhf"
			},
			{
				"type": "occ",
				"energy": -0.24883,
				"method": "rhf"
			},
			{
				"type": "occ",
				"energy": -0.24656,
				"method": "rhf"
			},
			{
				"type": "occ",
				"energy": -0.21748,
				"method": "rhf"
			},
			{
				"type": "unocc",
				"energy": -0.03168,
				"method": "rhf"
			},
			{
				"type": "unocc",
				"energy": -0.00637,
				"method": "rhf"
			},
			{
				"type": "unocc",
				"energy": -0.00345,
				"method": "rhf"
			},
			{
				"type": "unocc",
				"energy": 0.0075,
				"method": "rhf"
			},
			{
				"type": "unocc",
				"energy": 0.0627,
				"method": "rhf"
			}
		],
		"cosmo_sigma_profile": { 
			"-0.025": 0.0,
			"-0.024": 0.0,
			"-0.023": 0.0,
			"-0.022": 0.0,
			"-0.021": 0.0,
			"-0.02": 0.0,
			"-0.019": 0.0,
			"-0.018": 0.0,
			"-0.017": 0.0,
			"-0.016": 0.0,
			"-0.015": 0.0,
			"-0.014": 0.0,
			"-0.013": 0.0,
			"-0.012": 0.0,
			"-0.011": 0.0,
			"-0.01": 0.0,
			"-0.009": 0.0,
			"-0.008": 0.0,
			"-0.007": 0.0,
			"-0.006": 6.01773883547,
			"-0.005": 21.1825163531,
			"-0.004": 23.2997853458,
			"-0.003": 26.218572568,
			"-0.002": 17.4783237228,
			"-0.001": 19.2718336865,
			"0.0": 15.1984675382,
			"0.001": 17.9689225679,
			"0.002": 19.2037174336,
			"0.003": 18.0986604584,
			"0.004": 20.3437841032,
			"0.005": 20.7899666584,
			"0.006": 11.7993934661,
			"0.007": 0.00752554555619,
			"0.008": 0.0,
			"0.009": 0.0,
			"0.01": 0.0,
			"0.011": 0.0,
			"0.012": 0.0,
			"0.013": 0.0,
			"0.014": 0.0,
			"0.015": 0.0,
			"0.016": 0.0,
			"0.017": 0.0,
			"0.018": 0.0,
			"0.019": 0.0,
			"0.02": 0.0,
			"0.021": 0.0,
			"0.022": 0.0,
			"0.023": 0.0,
			"0.024": 0.0,
			"0.025": 0.0
		}
	}
}
