{
	 "smiles": "NC1=C(C=C(C=C1)N1CCSCC1)C(O)=O", 
	 "Tm": 450.15, 
	 "num_atms": 30, 
	 "gaussian": { 
		 "optdone": 1, 
		 "sigma_profile": "yes", 
		 "theory": "DFT", 
		 "functional": "B3LYP", 
		 "basiset": "6-31G**", 
		 "properties": { 
			 "R2extent": 4882.1282, 
			 "electric_dipole_moment_norm": 6.79743714204, 
			 "electric_quadrupole_moment_norm": 23.4988210996, 
			 "total_energy": -1085.75920001, 
			 "HOMO_LUMO_gap": 0.16301, 
			 "cosmo_polarized_energy": -20.79, 
			 "cosmo_cavitation_energy": 32.91, 
			 "cosmo_dispersion_energy": -24.81, 
			 "cosmo_repulsion_energy": 1.87, 
			 "cosmo_total_nonelectrostatic_energy": 9.97, 
			 "SMD_solvation_energy": 5.11 
		},
		"coords": [
			{
				"x": -3.1103098936,
				"y": 3.2562743859,
				"z": -1.0661009294,
				"element": "N" 
			},
			{
				"x": -1.9639610223,
				"y": 2.3823676797,
				"z": -0.8811320046,
				"element": "C" 
			},
			{
				"x": -1.8697403885,
				"y": 1.5815332395,
				"z": 0.2693316446,
				"element": "C" 
			},
			{
				"x": -0.7673493369,
				"y": 0.7390170486,
				"z": 0.4390668169,
				"element": "C" 
			},
			{
				"x": 0.2801517134,
				"y": 0.6629518495,
				"z": -0.4980940593,
				"element": "C" 
			},
			{
				"x": 0.1598587188,
				"y": 1.4763557137,
				"z": -1.6496647216,
				"element": "C" 
			},
			{
				"x": -0.9369910587,
				"y": 2.3095408587,
				"z": -1.8257656462,
				"element": "C" 
			},
			{
				"x": 1.4137807784,
				"y": -0.1310039574,
				"z": -0.2815789625,
				"element": "N" 
			},
			{
				"x": 1.5097624266,
				"y": -0.9621910491,
				"z": 0.9189213311,
				"element": "C" 
			},
			{
				"x": 0.8204924608,
				"y": -2.3256448654,
				"z": 0.771853835,
				"element": "C" 
			},
			{
				"x": 1.5656661656,
				"y": -3.3202431832,
				"z": -0.5852130761,
				"element": "S" 
			},
			{
				"x": 1.5464118096,
				"y": -2.0311670373,
				"z": -1.8951674612,
				"element": "C" 
			},
			{
				"x": 2.148658472,
				"y": -0.704443138,
				"z": -1.410679364,
				"element": "C" 
			},
			{
				"x": -2.908052841,
				"y": 1.533522829,
				"z": 1.3780219944,
				"element": "C" 
			},
			{
				"x": -3.9776903829,
				"y": 2.3205431481,
				"z": 1.2393264266,
				"element": "O" 
			},
			{
				"x": -2.7669063164,
				"y": 0.8097945535,
				"z": 2.3439016084,
				"element": "O" 
			},
			{
				"x": -2.8215903525,
				"y": 4.2302346774,
				"z": -1.1309202668,
				"element": "H" 
			},
			{
				"x": -3.606530377,
				"y": 3.0334629122,
				"z": -1.9262958061,
				"element": "H" 
			},
			{
				"x": -0.7781849503,
				"y": 0.1399945167,
				"z": 1.3394332039,
				"element": "H" 
			},
			{
				"x": 0.933568653,
				"y": 1.4829256816,
				"z": -2.4078316762,
				"element": "H" 
			},
			{
				"x": -0.9934862897,
				"y": 2.926939265,
				"z": -2.7195360411,
				"element": "H" 
			},
			{
				"x": 1.1010075325,
				"y": -0.4167706196,
				"z": 1.7728488337,
				"element": "H" 
			},
			{
				"x": 2.5750861573,
				"y": -1.1210778043,
				"z": 1.1217022086,
				"element": "H" 
			},
			{
				"x": 0.9471270534,
				"y": -2.9213618823,
				"z": 1.6803769813,
				"element": "H" 
			},
			{
				"x": -0.2517476775,
				"y": -2.2038453352,
				"z": 0.5920902446,
				"element": "H" 
			},
			{
				"x": 0.5210725885,
				"y": -1.875708689,
				"z": -2.2471510727,
				"element": "H" 
			},
			{
				"x": 2.1329015044,
				"y": -2.440918568,
				"z": -2.7229775369,
				"element": "H" 
			},
			{
				"x": 3.1828978156,
				"y": -0.8704341759,
				"z": -1.0885697211,
				"element": "H" 
			},
			{
				"x": 2.1852793818,
				"y": 0.0058191194,
				"z": -2.2385007199,
				"element": "H" 
			},
			{
				"x": -3.8882823446,
				"y": 2.8211328263,
				"z": 0.3785039366,
				"element": "H" 
			}
		],
		 "valence_orbital": [ 
			{
				"type": "occ",
				"energy": -0.28557,
				"method": "rhf"
			},
			{
				"type": "occ",
				"energy": -0.26019,
				"method": "rhf"
			},
			{
				"type": "occ",
				"energy": -0.25195,
				"method": "rhf"
			},
			{
				"type": "occ",
				"energy": -0.23202,
				"method": "rhf"
			},
			{
				"type": "occ",
				"energy": -0.20199,
				"method": "rhf"
			},
			{
				"type": "unocc",
				"energy": -0.03898,
				"method": "rhf"
			},
			{
				"type": "unocc",
				"energy": -0.00818,
				"method": "rhf"
			},
			{
				"type": "unocc",
				"energy": 0.03268,
				"method": "rhf"
			},
			{
				"type": "unocc",
				"energy": 0.06073,
				"method": "rhf"
			},
			{
				"type": "unocc",
				"energy": 0.0674,
				"method": "rhf"
			}
		],
		"cosmo_sigma_profile": { 
			"-0.025": 0.0,
			"-0.024": 0.0,
			"-0.023": 0.0,
			"-0.022": 0.0,
			"-0.021": 0.0,
			"-0.02": 0.0,
			"-0.019": 0.0,
			"-0.018": 0.0,
			"-0.017": 0.0,
			"-0.016": 0.0,
			"-0.015": 0.0,
			"-0.014": 0.0,
			"-0.013": 1.43341485786,
			"-0.012": 2.94881455005,
			"-0.011": 3.42007730249,
			"-0.01": 3.03316348891,
			"-0.009": 2.86049325509,
			"-0.008": 4.16427619578,
			"-0.007": 6.84605116962,
			"-0.006": 14.7350719857,
			"-0.005": 19.1326392213,
			"-0.004": 25.4786426109,
			"-0.003": 25.3199182144,
			"-0.002": 21.1771803537,
			"-0.001": 13.5713151319,
			"0.0": 11.4554787702,
			"0.001": 10.6573171355,
			"0.002": 10.0313192021,
			"0.003": 12.2574186647,
			"0.004": 15.6831209032,
			"0.005": 10.6301317074,
			"0.006": 5.8253476003,
			"0.007": 5.30344153978,
			"0.008": 6.88099412125,
			"0.009": 4.57281004361,
			"0.01": 4.93323387815,
			"0.011": 4.97922052992,
			"0.012": 6.52023706483,
			"0.013": 5.49053253245,
			"0.014": 2.28850933587,
			"0.015": 0.328174811106,
			"0.016": 0.0,
			"0.017": 0.0,
			"0.018": 0.0,
			"0.019": 0.0,
			"0.02": 0.0,
			"0.021": 0.0,
			"0.022": 0.0,
			"0.023": 0.0,
			"0.024": 0.0,
			"0.025": 0.0
		}
	}
}
