{
	 "smiles": "COC1=CC2=C(C=C1)C=C(C=C2)C1=NN(C=C1C=O)C1=CC=CC=C1", 
	 "Tm": 438.15, 
	 "num_atms": 41, 
	 "gaussian": { 
		 "optdone": 1, 
		 "sigma_profile": "yes", 
		 "theory": "DFT", 
		 "functional": "B3LYP", 
		 "basiset": "6-31G**", 
		 "properties": { 
			 "R2extent": 14231.6006, 
			 "electric_dipole_moment_norm": 4.40834936002, 
			 "electric_quadrupole_moment_norm": 32.0045913875, 
			 "total_energy": -1069.80623577, 
			 "HOMO_LUMO_gap": 0.1491, 
			 "cosmo_polarized_energy": -15.57, 
			 "cosmo_cavitation_energy": 46.18, 
			 "cosmo_dispersion_energy": -33.17, 
			 "cosmo_repulsion_energy": 2.45, 
			 "cosmo_total_nonelectrostatic_energy": 15.46, 
			 "SMD_solvation_energy": 8.59 
		},
		"coords": [
			{
				"x": 3.1973691798,
				"y": -2.9655262582,
				"z": -4.7757419552,
				"element": "C" 
			},
			{
				"x": 2.4159385323,
				"y": -1.7834536341,
				"z": -4.7024294355,
				"element": "O" 
			},
			{
				"x": 2.0096402078,
				"y": -1.3373634349,
				"z": -3.4779914375,
				"element": "C" 
			},
			{
				"x": 1.2515277189,
				"y": -0.1791193241,
				"z": -3.4675699889,
				"element": "C" 
			},
			{
				"x": 0.7808596435,
				"y": 0.3672940064,
				"z": -2.2527781604,
				"element": "C" 
			},
			{
				"x": 1.0938385957,
				"y": -0.2898024701,
				"z": -1.0162399425,
				"element": "C" 
			},
			{
				"x": 1.8735048512,
				"y": -1.4737384852,
				"z": -1.0630876747,
				"element": "C" 
			},
			{
				"x": 2.3239809195,
				"y": -1.992614022,
				"z": -2.257130365,
				"element": "C" 
			},
			{
				"x": 0.6263170227,
				"y": 0.2606353805,
				"z": 0.2026825382,
				"element": "C" 
			},
			{
				"x": -0.1267409074,
				"y": 1.4218202913,
				"z": 0.2288208754,
				"element": "C" 
			},
			{
				"x": -0.44693851,
				"y": 2.0611686232,
				"z": -1.0057712054,
				"element": "C" 
			},
			{
				"x": -0.0063534151,
				"y": 1.5521854773,
				"z": -2.2031176935,
				"element": "C" 
			},
			{
				"x": -0.6048614857,
				"y": 1.963792792,
				"z": 1.5127125554,
				"element": "C" 
			},
			{
				"x": -0.9504399525,
				"y": 1.1335689881,
				"z": 2.4960844751,
				"element": "N" 
			},
			{
				"x": -1.3236441919,
				"y": 1.9315195565,
				"z": 3.5387727499,
				"element": "N" 
			},
			{
				"x": -1.232952838,
				"y": 3.2451484694,
				"z": 3.2299357398,
				"element": "C" 
			},
			{
				"x": -0.7610025159,
				"y": 3.3292902052,
				"z": 1.9275675818,
				"element": "C" 
			},
			{
				"x": -0.4334518719,
				"y": 4.5849879413,
				"z": 1.2539606112,
				"element": "C" 
			},
			{
				"x": -0.6477300852,
				"y": 5.6863575253,
				"z": 1.7372061559,
				"element": "O" 
			},
			{
				"x": -1.7703113408,
				"y": 1.3420315389,
				"z": 4.7544941767,
				"element": "C" 
			},
			{
				"x": -2.2271104335,
				"y": 0.020007136,
				"z": 4.7460091314,
				"element": "C" 
			},
			{
				"x": -2.6730191871,
				"y": -0.5559277362,
				"z": 5.9338231026,
				"element": "C" 
			},
			{
				"x": -2.6725236273,
				"y": 0.1754557742,
				"z": 7.1235476627,
				"element": "C" 
			},
			{
				"x": -2.2098670888,
				"y": 1.4923871644,
				"z": 7.1218642954,
				"element": "C" 
			},
			{
				"x": -1.7502852908,
				"y": 2.0789132702,
				"z": 5.943562785,
				"element": "C" 
			},
			{
				"x": 3.4008407947,
				"y": -3.1239713694,
				"z": -5.8359506697,
				"element": "H" 
			},
			{
				"x": 4.1497501154,
				"y": -2.8592383877,
				"z": -4.2405870809,
				"element": "H" 
			},
			{
				"x": 2.6585153418,
				"y": -3.8363733834,
				"z": -4.3807620792,
				"element": "H" 
			},
			{
				"x": 1.0232342911,
				"y": 0.3049082014,
				"z": -4.4120852709,
				"element": "H" 
			},
			{
				"x": 2.1167071497,
				"y": -1.9782838749,
				"z": -0.1316794882,
				"element": "H" 
			},
			{
				"x": 2.9168280551,
				"y": -2.8994847306,
				"z": -2.2560838731,
				"element": "H" 
			},
			{
				"x": 0.8694035379,
				"y": -0.2351233657,
				"z": 1.1376633713,
				"element": "H" 
			},
			{
				"x": -1.0770914117,
				"y": 2.9447349904,
				"z": -0.9992774269,
				"element": "H" 
			},
			{
				"x": -0.26772085,
				"y": 2.0472418773,
				"z": -3.1344592849,
				"element": "H" 
			},
			{
				"x": -1.50219365,
				"y": 4.0352922095,
				"z": 3.9126399407,
				"element": "H" 
			},
			{
				"x": 0.0507170317,
				"y": 4.4864114238,
				"z": 0.2618285157,
				"element": "H" 
			},
			{
				"x": -2.2235298356,
				"y": -0.5315123058,
				"z": 3.8142010917,
				"element": "H" 
			},
			{
				"x": -3.0284827518,
				"y": -1.5819978148,
				"z": 5.9254560627,
				"element": "H" 
			},
			{
				"x": -3.0246644389,
				"y": -0.2780333869,
				"z": 8.0449143287,
				"element": "H" 
			},
			{
				"x": -2.1926793638,
				"y": 2.0669006382,
				"z": 8.0430587764,
				"element": "H" 
			},
			{
				"x": -1.362177945,
				"y": 3.0916105035,
				"z": 5.9588365087,
				"element": "H" 
			}
		],
		 "valence_orbital": [ 
			{
				"type": "occ",
				"energy": -0.25887,
				"method": "rhf"
			},
			{
				"type": "occ",
				"energy": -0.24684,
				"method": "rhf"
			},
			{
				"type": "occ",
				"energy": -0.23943,
				"method": "rhf"
			},
			{
				"type": "occ",
				"energy": -0.23151,
				"method": "rhf"
			},
			{
				"type": "occ",
				"energy": -0.2012,
				"method": "rhf"
			},
			{
				"type": "unocc",
				"energy": -0.0521,
				"method": "rhf"
			},
			{
				"type": "unocc",
				"energy": -0.04626,
				"method": "rhf"
			},
			{
				"type": "unocc",
				"energy": -0.02603,
				"method": "rhf"
			},
			{
				"type": "unocc",
				"energy": -0.01474,
				"method": "rhf"
			},
			{
				"type": "unocc",
				"energy": 0.00131,
				"method": "rhf"
			}
		],
		"cosmo_sigma_profile": { 
			"-0.025": 0.0,
			"-0.024": 0.0,
			"-0.023": 0.0,
			"-0.022": 0.0,
			"-0.021": 0.0,
			"-0.02": 0.0,
			"-0.019": 0.0,
			"-0.018": 0.0,
			"-0.017": 0.0,
			"-0.016": 0.0,
			"-0.015": 0.0,
			"-0.014": 0.0,
			"-0.013": 0.0,
			"-0.012": 0.0,
			"-0.011": 0.936170879216,
			"-0.01": 1.92211606387,
			"-0.009": 2.11122858816,
			"-0.008": 2.20723550734,
			"-0.007": 7.75998736891,
			"-0.006": 28.330873056,
			"-0.005": 32.4797930098,
			"-0.004": 31.0022248362,
			"-0.003": 26.1998501344,
			"-0.002": 22.0788856038,
			"-0.001": 20.1870868735,
			"0.0": 24.8046669328,
			"0.001": 25.7503103665,
			"0.002": 23.6345956391,
			"0.003": 31.2839170745,
			"0.004": 43.4192597115,
			"0.005": 13.6613581804,
			"0.006": 4.79535758884,
			"0.007": 4.86166120292,
			"0.008": 4.70361788417,
			"0.009": 4.42840147133,
			"0.01": 5.11672185568,
			"0.011": 3.54099334472,
			"0.012": 4.34468073655,
			"0.013": 1.73202738912,
			"0.014": 0.242859217654,
			"0.015": 0.0,
			"0.016": 0.0,
			"0.017": 0.0,
			"0.018": 0.0,
			"0.019": 0.0,
			"0.02": 0.0,
			"0.021": 0.0,
			"0.022": 0.0,
			"0.023": 0.0,
			"0.024": 0.0,
			"0.025": 0.0
		}
	}
}
