{
	 "smiles": "FCF", 
	 "Tm": 137.15, 
	 "num_atms": 5, 
	 "gaussian": { 
		 "optdone": 1, 
		 "sigma_profile": "yes", 
		 "theory": "DFT", 
		 "functional": "B3LYP", 
		 "basiset": "6-31G**", 
		 "properties": { 
			 "R2extent": 776.375, 
			 "electric_dipole_moment_norm": 1.71088154178, 
			 "electric_quadrupole_moment_norm": 6.42200194721, 
			 "total_energy": -238.973281251, 
			 "HOMO_LUMO_gap": 0.44372, 
			 "cosmo_polarized_energy": -3.36, 
			 "cosmo_cavitation_energy": 9.2, 
			 "cosmo_dispersion_energy": -6.65, 
			 "cosmo_repulsion_energy": 0.63, 
			 "cosmo_total_nonelectrostatic_energy": 3.18, 
			 "SMD_solvation_energy": 3.44 
		},
		"coords": [
			{
				"x": 3.559755023,
				"y": 0.2516735138,
				"z": 1.1779137982,
				"element": "F" 
			},
			{
				"x": 2.2050625858,
				"y": 0.3225313168,
				"z": 1.2771983123,
				"element": "C" 
			},
			{
				"x": 1.6546725457,
				"y": 0.0775281094,
				"z": 0.0577963438,
				"element": "F" 
			},
			{
				"x": 1.9249092112,
				"y": 1.3338848688,
				"z": 1.5969931864,
				"element": "H" 
			},
			{
				"x": 1.8602006343,
				"y": -0.4432178088,
				"z": 1.9830983593,
				"element": "H" 
			}
		],
		 "valence_orbital": [ 
			{
				"type": "occ",
				"energy": -0.53109,
				"method": "rhf"
			},
			{
				"type": "occ",
				"energy": -0.40942,
				"method": "rhf"
			},
			{
				"type": "occ",
				"energy": -0.40146,
				"method": "rhf"
			},
			{
				"type": "occ",
				"energy": -0.39042,
				"method": "rhf"
			},
			{
				"type": "occ",
				"energy": -0.33636,
				"method": "rhf"
			},
			{
				"type": "unocc",
				"energy": 0.10736,
				"method": "rhf"
			},
			{
				"type": "unocc",
				"energy": 0.13046,
				"method": "rhf"
			},
			{
				"type": "unocc",
				"energy": 0.15556,
				"method": "rhf"
			},
			{
				"type": "unocc",
				"energy": 0.17229,
				"method": "rhf"
			},
			{
				"type": "unocc",
				"energy": 0.4842,
				"method": "rhf"
			}
		],
		"cosmo_sigma_profile": { 
			"-0.025": 0.0,
			"-0.024": 0.0,
			"-0.023": 0.0,
			"-0.022": 0.0,
			"-0.021": 0.0,
			"-0.02": 0.0,
			"-0.019": 0.0,
			"-0.018": 0.0,
			"-0.017": 0.0,
			"-0.016": 0.0,
			"-0.015": 0.0,
			"-0.014": 0.0,
			"-0.013": 0.0,
			"-0.012": 0.0,
			"-0.011": 0.0,
			"-0.01": 0.0,
			"-0.009": 0.0,
			"-0.008": 6.29119801615,
			"-0.007": 7.9002661444,
			"-0.006": 4.5368444082,
			"-0.005": 2.71605488178,
			"-0.004": 2.04338973375,
			"-0.003": 1.94663648307,
			"-0.002": 2.62562755511,
			"-0.001": 1.42468492584,
			"0.0": 3.11482545471,
			"0.001": 2.41508476177,
			"0.002": 2.96224778838,
			"0.003": 3.66156411849,
			"0.004": 11.169467822,
			"0.005": 19.9198418576,
			"0.006": 0.463717118715,
			"0.007": 0.0,
			"0.008": 0.0,
			"0.009": 0.0,
			"0.01": 0.0,
			"0.011": 0.0,
			"0.012": 0.0,
			"0.013": 0.0,
			"0.014": 0.0,
			"0.015": 0.0,
			"0.016": 0.0,
			"0.017": 0.0,
			"0.018": 0.0,
			"0.019": 0.0,
			"0.02": 0.0,
			"0.021": 0.0,
			"0.022": 0.0,
			"0.023": 0.0,
			"0.024": 0.0,
			"0.025": 0.0
		}
	}
}
