{
	 "smiles": "O=CC1=CN=C2N=CC=CN12", 
	 "Tm": 471.15, 
	 "num_atms": 16, 
	 "gaussian": { 
		 "optdone": 1, 
		 "sigma_profile": "yes", 
		 "theory": "DFT", 
		 "functional": "B3LYP", 
		 "basiset": "6-31G**", 
		 "properties": { 
			 "R2extent": 1516.656, 
			 "electric_dipole_moment_norm": 2.06398722138, 
			 "electric_quadrupole_moment_norm": 20.6851436705, 
			 "total_energy": -509.215971658, 
			 "HOMO_LUMO_gap": 0.17187, 
			 "cosmo_polarized_energy": -13.73, 
			 "cosmo_cavitation_energy": 20.93, 
			 "cosmo_dispersion_energy": -15.77, 
			 "cosmo_repulsion_energy": 1.22, 
			 "cosmo_total_nonelectrostatic_energy": 6.38, 
			 "SMD_solvation_energy": 1.71 
		},
		"coords": [
			{
				"x": -2.4155095762,
				"y": 0.1172179095,
				"z": -1.7767234482,
				"element": "O" 
			},
			{
				"x": -1.5076019674,
				"y": 0.9206057622,
				"z": -1.5807081998,
				"element": "C" 
			},
			{
				"x": -0.4003797125,
				"y": 0.7078381445,
				"z": -0.6849246362,
				"element": "C" 
			},
			{
				"x": 0.6959925403,
				"y": 1.5131864717,
				"z": -0.3554105266,
				"element": "C" 
			},
			{
				"x": 1.5213496933,
				"y": 0.9416187644,
				"z": 0.5390401479,
				"element": "N" 
			},
			{
				"x": 0.9749660971,
				"y": -0.2530351067,
				"z": 0.8100677558,
				"element": "C" 
			},
			{
				"x": 1.4382611312,
				"y": -1.1889116927,
				"z": 1.6496342929,
				"element": "N" 
			},
			{
				"x": 0.7293517296,
				"y": -2.2993646482,
				"z": 1.7600791448,
				"element": "C" 
			},
			{
				"x": -0.4733490419,
				"y": -2.5487639126,
				"z": 1.0506115553,
				"element": "C" 
			},
			{
				"x": -0.9448748058,
				"y": -1.5891783854,
				"z": 0.1922648315,
				"element": "C" 
			},
			{
				"x": -0.215608247,
				"y": -0.4418946129,
				"z": 0.075910563,
				"element": "N" 
			},
			{
				"x": -1.4854372618,
				"y": 1.9000867209,
				"z": -2.1007583884,
				"element": "H" 
			},
			{
				"x": 0.8972418322,
				"y": 2.5000070612,
				"z": -0.7552770917,
				"element": "H" 
			},
			{
				"x": 1.115974609,
				"y": -3.0514996826,
				"z": 2.4449309033,
				"element": "H" 
			},
			{
				"x": -1.014241758,
				"y": -3.478054964,
				"z": 1.1799271155,
				"element": "H" 
			},
			{
				"x": -1.843135262,
				"y": -1.6450578294,
				"z": -0.4091640191,
				"element": "H" 
			}
		],
		 "valence_orbital": [ 
			{
				"type": "occ",
				"energy": -0.30528,
				"method": "rhf"
			},
			{
				"type": "occ",
				"energy": -0.28369,
				"method": "rhf"
			},
			{
				"type": "occ",
				"energy": -0.27925,
				"method": "rhf"
			},
			{
				"type": "occ",
				"energy": -0.26416,
				"method": "rhf"
			},
			{
				"type": "occ",
				"energy": -0.24472,
				"method": "rhf"
			},
			{
				"type": "unocc",
				"energy": -0.07285,
				"method": "rhf"
			},
			{
				"type": "unocc",
				"energy": -0.06253,
				"method": "rhf"
			},
			{
				"type": "unocc",
				"energy": 0.00176,
				"method": "rhf"
			},
			{
				"type": "unocc",
				"energy": 0.08645,
				"method": "rhf"
			},
			{
				"type": "unocc",
				"energy": 0.08656,
				"method": "rhf"
			}
		],
		"cosmo_sigma_profile": { 
			"-0.025": 0.0,
			"-0.024": 0.0,
			"-0.023": 0.0,
			"-0.022": 0.0,
			"-0.021": 0.0,
			"-0.02": 0.0,
			"-0.019": 0.0,
			"-0.018": 0.0,
			"-0.017": 0.0,
			"-0.016": 0.0,
			"-0.015": 0.0,
			"-0.014": 0.0,
			"-0.013": 0.0,
			"-0.012": 0.0,
			"-0.011": 0.0,
			"-0.01": 0.0746034660576,
			"-0.009": 5.24748040472,
			"-0.008": 11.1186700249,
			"-0.007": 11.318344304,
			"-0.006": 7.99098253923,
			"-0.005": 9.69089562115,
			"-0.004": 12.8620493356,
			"-0.003": 13.3967819235,
			"-0.002": 13.6954770969,
			"-0.001": 14.652539767,
			"0.0": 10.9721804313,
			"0.001": 6.66747506966,
			"0.002": 4.29323870421,
			"0.003": 3.7770564975,
			"0.004": 3.58683058151,
			"0.005": 3.79422336044,
			"0.006": 3.04812227579,
			"0.007": 3.75624580274,
			"0.008": 3.58684579284,
			"0.009": 3.86223541178,
			"0.01": 3.42795833771,
			"0.011": 5.32960817838,
			"0.012": 4.7718529496,
			"0.013": 4.2509276596,
			"0.014": 2.45665526586,
			"0.015": 1.3800905561,
			"0.016": 1.04999210347,
			"0.017": 0.0264381053893,
			"0.018": 0.0,
			"0.019": 0.0,
			"0.02": 0.0,
			"0.021": 0.0,
			"0.022": 0.0,
			"0.023": 0.0,
			"0.024": 0.0,
			"0.025": 0.0
		}
	}
}
